/*--------------------------------*- C++ -*----------------------------------*\
| =========                 |                                                 |
| \\      /  F ield         | OpenFOAM: The Open Source CFD Toolbox           |
|  \\    /   O peration     | Version:  2312                                  |
|   \\  /    A nd           | Website:  www.openfoam.com                      |
|    \\/     M anipulation  |                                                 |
\*---------------------------------------------------------------------------*/
FoamFile
{
    version     2.0;
    format      ascii;
    arch        "LSB;label=32;scalar=64";
    class       volScalarField;
    location    "0.395";
    object      p_rgh;
}
// * * * * * * * * * * * * * * * * * * * * * * * * * * * * * * * * * * * * * //

dimensions      [1 -1 -2 0 0 0 0];

internalField   nonuniform List<scalar> 
8000
(
390.743
389.415
386.942
383.516
379.413
375.007
370.719
366.983
364.258
362.826
391.22
389.772
387.06
383.278
378.718
373.778
368.94
364.692
361.56
359.942
392.208
390.513
387.314
382.795
377.26
371.171
365.137
359.786
355.773
353.677
393.97
391.918
387.961
382.249
375.089
367.047
358.903
351.536
345.665
342.718
396.319
393.839
388.898
381.526
371.97
360.962
349.707
339.756
331.563
327.721
400.646
397.564
391.271
381.556
368.498
353.141
336.559
313.158
273.616
254.903
407.98
404.205
396.194
383.176
352.948
288.734
179.084
96.9718
59.9052
41.6483
414.413
404.928
376.331
298.813
167.679
51.4591
5.2468
0.843165
1.19795
1.44949
304.093
280.907
214.086
105.418
24.1638
0.639701
0.452707
0.480263
0.600455
0.745504
39.2893
28.369
8.87887
0.310451
0.0881744
0.103902
0.157326
0.264751
0.345346
0.432265
0.145861
0.0867419
0.0325585
0.00495805
-0.00398385
0.0323918
0.0969644
0.210015
0.271421
0.303955
-0.0186896
-0.028529
-0.0342651
-0.0187473
0.00478426
0.0511229
0.094092
0.215433
0.24818
0.256835
-0.0169669
-0.015705
-0.00467212
0.0120672
0.0351745
0.0606787
0.0771104
0.144676
0.223438
0.217677
0.0162358
0.0210403
0.0347527
0.0482786
0.0611006
0.0693321
0.0744267
0.0898916
0.155634
0.215726
0.0563279
0.057261
0.0624886
0.0702916
0.0824071
0.0967927
0.0992418
0.0877373
0.125496
0.268094
0.0738887
0.0744667
0.0726094
0.0775349
0.0805029
0.089893
0.103095
0.0847982
0.123723
0.291079
0.0721511
0.0738663
0.0724335
0.071498
0.0707381
0.0690396
0.0916677
0.0781284
0.121746
0.294562
0.0700844
0.0696907
0.0692513
0.0678123
0.0647419
0.0579528
0.0592546
0.105925
0.154891
0.29736
0.0689305
0.0683277
0.0672588
0.0648191
0.060496
0.0484599
0.0546448
0.186366
0.206215
0.156947
0.0675795
0.0669524
0.0657649
0.0635591
0.0590209
0.0480361
0.0562285
0.142111
0.142247
0.0693248
391.4
390.108
387.702
384.36
380.364
376.071
371.897
368.263
365.62
364.227
391.887
390.479
387.851
384.171
379.739
374.943
370.243
366.115
363.081
361.516
392.895
391.222
388.14
383.785
378.445
372.562
366.731
361.562
357.704
355.705
394.75
392.708
388.869
383.385
376.525
368.805
360.982
353.882
348.221
345.531
396.653
394.407
389.754
382.792
373.743
363.23
352.431
342.731
334.938
331.3
400.375
397.542
391.72
382.773
370.616
355.856
340.077
314.232
280.369
271.439
405.612
402.241
395.223
383.937
355.236
288.982
195.932
122.477
77.4305
57.3569
397.024
386.427
357.191
291.935
174.924
68.6429
15.5305
1.40748
0.911676
1.18423
145.768
133.554
101.642
54.7748
16.4702
0.812108
0.233057
0.304177
0.382709
0.546333
0.466882
0.233927
0.0617793
-0.0030024
-0.0547852
-0.0334438
0.0382324
0.127059
0.194814
0.288023
-0.031572
-0.0370568
-0.0383453
-0.0418687
-0.0696511
-0.0453984
0.0311536
0.0981046
0.147501
0.189292
-0.0708264
-0.0753182
-0.0721392
-0.0629202
-0.054381
0.000522428
0.0608679
0.102598
0.131827
0.144215
-0.0558962
-0.0632087
-0.0536233
-0.0347742
-0.00742577
0.0352213
0.0652754
0.0902471
0.115607
0.120754
0.0132582
0.00266438
0.00986849
0.0309068
0.0477423
0.0629043
0.0695329
0.0807626
0.105757
0.105865
0.0553527
0.0535
0.0535891
0.0691709
0.084294
0.10139
0.0964289
0.0825167
0.102857
0.0979482
0.0669497
0.0689544
0.0712073
0.0786243
0.0842201
0.0921839
0.102972
0.0828669
0.0953836
0.193775
0.0683188
0.0699539
0.0717381
0.0733359
0.0728594
0.0688297
0.0752519
0.0748117
0.177064
0.290663
0.0700097
0.0697206
0.0695751
0.0678688
0.0637606
0.0551221
0.0491081
0.0819418
0.28786
0.290894
0.0688886
0.0680192
0.0669603
0.0643709
0.0581481
0.045993
0.0405038
0.144079
0.288978
0.29405
0.0677808
0.0668634
0.0656556
0.0631147
0.0562846
0.0443103
0.0414266
0.15846
0.298064
0.250043
392.711
391.481
389.185
385.999
382.193
378.109
374.147
370.704
368.211
366.902
393.233
391.904
389.41
385.927
381.729
377.19
372.758
368.882
366.052
364.585
394.307
392.777
389.877
385.778
380.776
375.273
369.83
365.024
361.459
359.624
396.019
394.214
390.714
385.685
379.381
372.297
365.136
358.695
353.67
351.236
398.25
396.125
391.85
385.53
377.399
367.91
358.151
349.369
342.247
339.179
401.296
398.802
393.627
385.751
375.259
362.374
348.602
331.944
310.237
310.071
404.944
402.207
396.281
386.794
368.844
316.332
242.668
172.195
116.618
96.1484
380.194
368.045
337.394
281.741
196.34
100.982
37.9108
10.2282
1.22058
0.820254
92.7373
87.0151
69.5789
42.5862
19.7575
3.68092
0.138545
0.217173
0.288998
0.416447
0.116191
0.0853107
0.0504896
0.0170686
-0.0461632
-0.0827217
-0.0206895
0.0513527
0.109623
0.205746
0.0193274
0.00601759
-0.00890308
-0.0207765
-0.0481432
-0.0368404
0.0114958
0.0594302
0.0968831
0.139312
-0.0250411
-0.0323893
-0.0403768
-0.0321253
-0.0253459
0.00103786
0.0467326
0.0838681
0.11569
0.12433
-0.0119168
-0.0319857
-0.0370006
-0.0215798
0.00158549
0.0303201
0.0557892
0.0837222
0.111529
0.111877
0.00580225
0.000841088
0.00849965
0.0256793
0.0456089
0.064858
0.072112
0.0864516
0.216893
0.10198
0.0371842
0.0389464
0.0455748
0.0593742
0.0727475
0.0885738
0.0891892
0.10073
0.265577
0.110314
0.053781
0.057033
0.0625897
0.0696423
0.0753258
0.0789792
0.0841614
0.126566
0.271111
0.262933
0.0641258
0.0647957
0.0668854
0.0687926
0.0687766
0.0657521
0.0683269
0.140656
0.263219
0.279404
0.0679491
0.0670657
0.066856
0.0657335
0.0632266
0.056177
0.0564921
0.11763
0.13349
0.217007
0.0682891
0.0665945
0.0656794
0.0632735
0.0581851
0.0500235
0.0474813
0.0660242
0.0524141
0.0822484
0.0680271
0.0662634
0.0651407
0.0624646
0.056106
0.0470145
0.0458621
0.0583495
0.0697073
0.0674787
394.626
393.476
391.323
388.334
384.763
380.956
377.27
374.083
371.784
370.576
395.24
394.007
391.679
388.431
384.537
380.326
376.24
372.688
370.108
368.768
396.484
395.092
392.423
388.647
384.057
379.03
374.077
369.736
366.548
364.899
398.4
396.773
393.603
389.037
383.382
377.065
370.687
365.001
360.706
358.539
400.978
399.054
395.223
389.59
382.466
374.202
365.624
357.979
352.138
349.194
404.21
401.973
397.406
390.473
381.607
370.898
359.213
348.348
339.166
335.805
407.053
404.8
399.799
391.985
381.265
355.12
299.968
242.56
191.79
176.079
388.098
377.965
353.581
307.261
243.031
157.328
79.6035
35.2427
11.5363
3.99296
106.491
101.847
83.5725
51.6262
25.6583
7.99465
0.508753
0.138647
0.232886
0.421589
0.0704806
0.0593255
0.0462177
0.0311388
-0.00602516
-0.0485417
-0.0415171
-0.00281421
0.0257869
0.137029
0.0250982
0.0180722
0.00927649
-0.000640593
-0.0170831
-0.0125535
0.0186004
0.0360748
0.0242132
0.0819303
0.00300794
-0.00575315
-0.0126572
-0.016163
-0.00989946
0.00693673
0.0355822
0.0825447
0.0598298
0.0899046
0.00193565
-0.00734666
-0.00948276
-0.00425965
0.00869361
0.0255827
0.0493542
0.129539
0.124169
0.0903487
0.0100565
0.00938169
0.015611
0.0253534
0.0381498
0.0568401
0.063777
0.141567
0.234415
0.087728
0.0328127
0.0344083
0.040919
0.0496044
0.0583308
0.0679716
0.0779675
0.164926
0.254152
0.201639
0.0511172
0.0518585
0.0557767
0.0608627
0.0655082
0.0705983
0.0789482
0.111648
0.220327
0.260896
0.0619091
0.0608791
0.0621996
0.0638109
0.0655287
0.0673227
0.0716232
0.0725042
0.0713596
0.105257
0.0667928
0.0644733
0.0641488
0.063536
0.0632983
0.0628238
0.0626602
0.0590798
0.0533494
0.0543499
0.068456
0.0654171
0.0645628
0.0625164
0.0596864
0.0555916
0.0533372
0.047706
0.0387783
0.0399498
0.0694386
0.0658111
0.0648223
0.062258
0.0576962
0.0507395
0.0485255
0.0424211
0.0352461
0.0430005
396.925
395.878
393.885
391.113
387.804
384.278
380.89
377.982
375.892
374.798
397.687
396.569
394.425
391.421
387.825
383.974
380.257
377.051
374.741
373.543
399.258
397.978
395.53
392.073
387.899
383.372
378.946
375.098
372.306
370.867
401.665
400.123
397.226
393.096
388.041
382.488
376.956
372.061
368.442
366.617
404.911
403.025
399.539
394.52
388.285
381.288
374.057
367.578
362.673
360.321
408.685
406.453
402.337
396.367
388.708
380.04
370.751
361.982
354.84
352.261
411.839
409.575
405.086
398.356
389.688
379.205
355.215
316.471
285.154
278.231
403.585
400.469
388.347
354.582
296.975
230.695
154.835
96.0599
62.9246
52.2363
139.047
141.778
125.493
82.2581
38.1262
17.4117
6.91051
1.73675
0.208507
0.56859
0.0783807
0.048831
0.0450359
0.0401406
0.0242446
-0.00508576
-0.0205526
-0.0249491
-0.00238346
0.104025
0.0253293
0.0245722
0.0220742
0.0186443
0.0113917
0.0141336
0.0265369
0.0342978
-0.0227478
0.03677
0.0136051
0.0127095
0.0131506
0.0131678
0.0108643
0.0170523
0.0430107
0.0628104
-0.0100109
0.051506
0.00697299
0.00886186
0.0131113
0.0165312
0.0196131
0.0246487
0.0329359
0.0754557
0.012472
0.05939
0.0179076
0.0192038
0.0255285
0.0315058
0.0376134
0.0459338
0.0522981
0.0829016
0.0748132
0.0663871
0.0382385
0.0362475
0.0406762
0.0458875
0.0520323
0.0601679
0.0649216
0.0849242
0.173896
0.147476
0.0546514
0.050893
0.0525463
0.0553403
0.0596727
0.0652773
0.0684852
0.0714753
0.121026
0.206297
0.0648488
0.0594233
0.0594177
0.0598958
0.0620911
0.0650422
0.0656836
0.0655974
0.0710657
0.0839978
0.0689435
0.0631364
0.0625421
0.0614338
0.0615269
0.0616894
0.0613294
0.0578448
0.0588251
0.0620652
0.0705169
0.0647521
0.0639312
0.0617441
0.0599593
0.0572265
0.0553086
0.0516259
0.0511757
0.0556488
0.0724545
0.0658413
0.0647671
0.0621504
0.0593743
0.0548908
0.0505176
0.0476049
0.0473134
0.0534013
399.434
398.464
396.624
394.066
391.003
387.75
384.643
382.004
380.124
379.147
400.399
399.358
397.391
394.608
391.289
387.765
384.401
381.525
379.477
378.424
402.376
401.147
398.895
395.709
391.901
387.827
383.9
380.531
378.127
376.9
405.39
403.858
401.184
397.397
392.854
387.957
383.195
379.08
376.118
374.624
409.498
407.552
404.309
399.737
394.192
388.177
382.218
376.993
373.16
371.293
414.187
411.805
407.899
402.493
395.921
388.582
381.335
374.787
369.766
367.598
418.865
416.097
411.521
405.213
397.608
389.46
380.838
370.068
354.616
349.996
416.759
415.438
410.565
394.039
348.907
293.7
239.939
191.519
166.985
165.533
181.84
194.668
187.115
139.916
75.7263
36.35
22.7388
15.8732
11.71
18.0262
0.453996
0.0751152
0.0304754
0.036029
0.0371938
0.0285717
0.0131583
-0.00653024
-0.0143543
0.137104
0.0229
0.0103183
0.0161398
0.0194505
0.0199519
0.0198087
0.0126535
0.00434218
-0.030434
0.0178968
0.00514869
0.0110965
0.017741
0.0185746
0.0197665
0.0204387
0.0137175
0.0106905
-0.0418662
0.0134357
-0.0101474
0.00452942
0.0144355
0.0205968
0.0238708
0.0244018
0.0158473
0.000306634
-0.0351547
0.027747
-0.00423147
0.00916623
0.022155
0.0300054
0.0356475
0.0395432
0.0346419
0.0224035
0.0129769
0.0494552
0.0306738
0.0316197
0.0365462
0.0411697
0.0465523
0.0519592
0.0522868
0.0570707
0.074092
0.0813205
0.0583438
0.051118
0.0495778
0.0505897
0.0540918
0.0586947
0.0615329
0.0668431
0.105835
0.1584
0.073912
0.059153
0.0574925
0.0563881
0.0579721
0.0607669
0.0632984
0.0672797
0.0770091
0.0887419
0.0760389
0.0622098
0.0612813
0.0593083
0.0594041
0.0602501
0.0614648
0.0628382
0.0648568
0.0663702
0.0782618
0.064077
0.0634026
0.0607909
0.0597717
0.0589859
0.0587076
0.0585783
0.0601581
0.0621155
0.0814826
0.0660731
0.0646451
0.0618591
0.0602916
0.0586275
0.0571825
0.0566266
0.0580635
0.0603666
401.844
400.967
399.166
396.88
394.031
391.012
388.156
385.751
384.062
383.19
403.054
402.052
400.238
397.66
394.568
391.313
388.244
385.666
383.854
382.93
405.365
404.162
402.143
399.187
395.668
391.955
388.437
385.48
383.419
382.393
408.945
407.451
405.065
401.532
397.35
392.96
388.796
385.341
382.953
381.768
413.889
412.03
409.094
404.766
399.686
394.351
389.283
385.102
382.237
380.888
420.053
417.582
413.825
408.477
402.433
396.173
390.145
385.242
382.042
380.702
427.422
423.929
418.955
412.325
405.085
398.045
391.564
386.182
383.01
382.226
435.24
429.263
422.719
412.986
392.382
350.005
302.557
277.145
285.642
294.367
299.413
278.743
256.014
205.106
136.072
77.13
45.5106
36.708
46.3468
91.6418
17.1026
0.70665
0.118314
0.0379452
0.037732
0.0470609
0.0502498
0.0484403
0.0257721
0.346597
0.324362
0.0348527
0.024285
0.0226706
0.0231644
0.0265399
0.0201711
0.00725292
-0.0174717
0.0162555
0.0210332
-0.00269467
0.0132695
0.0209172
0.0221347
0.0208307
0.00393625
-0.014009
-0.0507289
-0.0121055
-0.0411212
-0.00838883
0.00387095
0.0169167
0.0222391
0.0215822
0.00468445
-0.0178778
-0.0620817
0.00277158
-0.0135139
0.0132155
0.00987511
0.0229001
0.0305751
0.032946
0.0219479
0.00683392
-0.0133638
0.034326
0.0562455
0.0504669
0.0303608
0.0346922
0.0406264
0.0448961
0.0424601
0.053924
0.065784
0.0627971
0.0798645
0.0525107
0.047284
0.0454148
0.0486328
0.0529753
0.0556372
0.0623675
0.10651
0.12948
0.0787631
0.0608346
0.0545967
0.0522319
0.0536117
0.0568155
0.0604078
0.0659917
0.0781462
0.0886609
0.0735665
0.0615086
0.0573236
0.0561384
0.0566767
0.0583615
0.0608647
0.0644606
0.06812
0.0680838
0.0767124
0.0636845
0.060172
0.0588591
0.0586635
0.0591454
0.0604083
0.06238
0.0645825
0.0651053
0.0791489
0.0727261
0.0620605
0.060678
0.0601123
0.0599364
0.0603852
0.0613901
0.0627188
0.0632207
403.808
403.166
401.677
399.32
396.608
393.764
391.1
388.881
387.34
386.552
405.177
404.365
402.745
400.273
397.357
394.298
391.45
389.095
387.474
386.653
407.725
406.705
404.937
402.168
398.869
395.402
392.182
389.535
387.725
386.867
411.711
410.447
408.427
405.114
401.17
397.093
393.347
390.348
388.416
387.466
417.341
415.847
413.342
409.188
404.315
399.391
394.932
391.436
389.239
388.317
424.77
422.849
419.457
413.921
407.914
402.182
397.069
393.107
391.072
390.523
433.991
431.328
426.426
418.973
411.475
404.888
399.456
395.805
394.555
395.328
444.973
440.87
433.567
422.76
410.349
386.024
349.172
329.845
350.625
372.271
443.906
409.998
350.168
255.923
185.865
122.645
78.7258
62.8489
90.9217
197.444
284.187
131.576
26.6093
0.119336
0.0331963
0.0505732
0.0597306
0.0731991
0.0828094
5.6069
137.075
0.189912
0.00792539
0.0246372
0.021398
0.0303207
0.0275234
0.0190149
-0.00576268
0.0448366
73.7951
-0.0020485
-0.00612581
0.0197
0.026158
0.0223292
0.00339506
-0.021579
-0.0551449
-0.0253784
11.9132
-0.0531918
-0.0123151
0.0114736
0.0220328
0.0188139
-0.0036204
-0.0302427
-0.0812086
-0.012058
-0.0922689
-0.0575212
-0.0152073
0.0131757
0.0263925
0.0270439
0.0118339
-0.00770758
-0.0344146
0.0226374
0.0270932
0.00062543
0.0174458
0.025022
0.0353219
0.0389043
0.0343042
0.0467538
0.0563658
0.057593
0.0941611
0.0365796
0.0409306
0.0369009
0.0430266
0.0477186
0.05017
0.0605749
0.103168
0.110992
0.121402
0.156776
0.0512385
0.0459233
0.0483197
0.0527758
0.056954
0.0635719
0.0786927
0.0884719
0.0710056
0.208549
0.0513726
0.0516429
0.0531255
0.055804
0.0592184
0.0638916
0.0679958
0.0676499
0.0747441
0.112486
0.0552664
0.0559172
0.0568376
0.0582034
0.0602362
0.0630416
0.0656881
0.0659654
0.062416
0.0908125
0.0582316
0.0589502
0.05926
0.0598834
0.0610062
0.062594
0.0640561
0.0644261
404.959
404.84
403.094
401.006
398.418
395.716
393.193
391.105
389.673
388.94
406.731
406.072
404.375
402.098
399.335
396.415
393.724
391.521
390.033
389.281
409
408.618
406.816
404.284
401.186
397.851
394.816
392.378
390.715
389.991
412.647
412.71
410.835
407.726
403.963
400.025
396.511
393.821
392.202
391.385
417.602
418.328
416.478
412.489
407.731
402.954
398.795
395.729
393.939
393.29
424.301
425.931
423.586
418.099
412.028
406.426
401.693
398.323
396.964
396.913
431.217
435.533
432.188
424.3
416.273
409.613
404.591
401.763
401.65
403.456
438.059
446.601
442.108
429.591
416.738
400.95
374.777
360.721
381.226
402.534
421.927
459.198
408.079
280.049
203.985
148.846
102.588
82.342
125.096
270.1
415.941
456.291
125.907
0.662131
0.063484
0.0509754
0.066479
0.0920105
0.164884
23.5022
468.584
290.771
0.204658
0.0286465
0.0131675
0.0297435
0.0306824
0.0275459
-0.00680466
0.0936894
501.832
100.656
-0.0267677
-0.000682573
0.0187493
0.0199558
0.00365422
-0.0238014
-0.0597122
-0.0248131
294.845
16.2304
-0.0578725
-0.00689475
0.0168283
0.0139389
-0.0072269
-0.0338454
-0.0896878
-0.0207898
0.789129
-0.127416
-0.0637955
-0.00639843
0.0264829
0.0218117
0.00582176
-0.0106045
-0.0266333
0.0157545
6.47738
-0.0597917
-0.0184907
0.0124231
0.0329342
0.0340609
0.0298774
0.0332596
0.0395999
0.054176
30.018
-0.0260236
0.00497995
0.0182155
0.0254731
0.0412488
0.0458814
0.0535221
0.0671324
0.0730049
46.2458
-0.00215807
0.0236704
0.0255318
0.0332399
0.0454851
0.05244
0.0595487
0.0690367
0.0762155
50.8772
0.0130176
0.0290744
0.0411424
0.0452272
0.0515995
0.0565097
0.0624767
0.0665577
0.0675952
49.3835
0.0329478
0.0412498
0.0521007
0.0530388
0.0562443
0.0590519
0.0625873
0.0657773
0.0658065
52.4211
0.0422363
0.0469563
0.0575962
0.057384
0.0591156
0.0606765
0.0626707
0.0643395
0.0646802
402.545
405.911
404.096
402.099
399.415
396.729
394.273
392.246
390.856
390.162
396.743
407.017
405.673
403.343
400.452
397.514
394.891
392.76
391.309
390.62
391.778
409.627
408.463
405.819
402.539
399.149
396.163
393.823
392.208
391.579
387.892
413.862
412.696
409.603
405.668
401.621
398.129
395.59
394.212
393.375
379.221
419.561
418.702
414.809
409.889
404.934
400.758
397.871
396.261
395.756
367.358
427.33
426.491
421.022
414.61
408.775
404.018
400.889
399.834
400.014
365.963
437.662
435.853
427.665
419.053
412.006
406.939
404.462
404.969
407.272
382.684
450.357
447.718
433.799
419.178
406.382
386.509
375.362
393.497
412.675
426.775
464.001
419.868
283.403
202.789
156.774
113.76
92.1658
141.498
296.747
336.304
482.708
192.712
2.14668
0.266745
0.0686113
0.0721663
0.116857
0.457847
34.8525
343.092
516.139
87.6563
0.212454
0.0242216
0.0346208
0.0332016
0.0279445
-0.0109464
0.16216
490.519
559.511
78.9615
0.0131818
0.0320854
0.0246599
0.0123098
-0.0235654
-0.0629262
-0.0154167
612.156
422.971
31.0145
-0.00561305
0.0198483
0.0183978
0.0115134
-0.0258672
-0.0871731
-0.0148138
649.489
114.888
0.623884
-0.0112341
0.0200068
0.0269307
0.0168117
0.00441027
-0.0224943
0.0113127
666.644
38.7649
-0.0216387
0.0154668
0.0515398
0.0396462
0.0368326
0.0433493
0.0456936
0.0512089
656.409
44.8884
0.0223689
0.0629489
0.218658
0.0550283
0.0472661
0.0552822
0.069623
0.0671131
633.826
30.1693
0.039285
0.145087
0.245642
0.0560673
0.0502753
0.0565065
0.0648232
0.068777
503.974
1.05693
0.0340917
0.049599
0.0642646
0.0542374
0.0530913
0.05945
0.0643551
0.0655326
350.142
0.0539218
0.0516458
0.0532117
0.0519108
0.0551342
0.0576693
0.0614756
0.0646667
0.0650829
316.342
0.0620119
0.0615501
0.0596337
0.0574962
0.0584801
0.0599903
0.0621085
0.0638593
0.064305
402.346
404.444
403.823
401.933
399.34
396.676
394.235
392.209
390.819
390.125
396.641
404.731
405.301
403.224
400.36
397.459
394.855
392.724
391.272
390.584
390.505
409.628
408.222
405.715
402.461
399.092
396.128
393.793
392.17
391.547
385.923
413.942
412.684
409.583
405.657
401.602
398.11
395.57
394.196
393.347
379.499
419.691
418.807
414.958
410.011
404.984
400.771
397.87
396.242
395.734
367.561
427.344
426.86
421.542
414.976
408.935
404.082
400.927
399.842
400.011
365.457
437.552
436.727
429.088
419.89
412.336
407.028
404.479
404.98
407.284
397.414
449.675
448.863
436.571
421.416
407.198
386.715
376.361
393.783
412.35
399.62
459.401
445.682
314.432
210.878
157.772
114.333
93.1147
142.099
296.166
345.127
477.795
240.811
13.2286
0.358477
0.0755897
0.0682966
0.115238
0.472749
34.652
381.248
516.567
79.0366
0.221621
0.0230264
0.0286477
0.0284571
0.0213905
-0.0170678
0.170234
572.373
554.41
56.1073
0.0202681
0.031681
0.0217948
0.0104369
-0.0283701
-0.067707
-0.0141093
594.297
373.653
30.7671
0.033021
0.0338156
0.0201624
0.0177557
-0.0271347
-0.0773675
-0.00728802
474.812
66.3394
18.7728
0.060894
0.0417107
0.0323542
0.0223124
0.0123041
-0.0137046
0.016938
441.98
-0.0966388
9.54106
3.82774
0.157511
0.0455472
0.0406973
0.0515718
0.0578624
0.0547098
484.05
0.937831
0.0110868
4.47812
2.04566
0.0509778
0.0509897
0.0554477
0.0709468
0.0730013
541.014
3.13202
0.0419705
1.23743
2.14453
0.333721
0.0523623
0.0560678
0.0642591
0.0709227
580.238
5.85478
0.0566872
0.0376845
0.68188
0.119473
0.0504615
0.0578937
0.0631205
0.0647662
616.207
20.5272
0.0739304
0.0658592
0.0510843
0.0641858
0.0567121
0.0604747
0.0635838
0.0643287
648.726
19.7521
0.065885
0.0738808
0.0598512
0.0588055
0.0595026
0.0614665
0.0631626
0.0636701
404.708
404.94
402.864
401.086
398.358
395.631
393.099
391.003
389.567
388.831
405.851
406.013
404.316
402.06
399.257
396.331
393.635
391.423
389.924
389.174
409.327
408.62
406.831
404.235
401.115
397.779
394.738
392.295
390.631
389.899
413.268
412.846
410.865
407.694
403.948
399.999
396.456
393.751
392.122
391.298
418.734
418.904
416.772
412.625
407.858
403.013
398.788
395.694
393.88
393.228
426.102
426.941
424.235
418.577
412.377
406.587
401.744
398.346
396.956
396.902
435.354
437.015
433.277
425.236
416.875
409.81
404.518
401.628
401.577
403.472
443.539
449.231
443.679
431.121
418.364
401.679
374.593
363.035
382.176
402.153
443.023
461.458
412.191
297.214
213.183
151.041
103.497
84.1831
127.051
271.098
449.6
449.21
131.765
0.613356
0.0751404
0.0534821
0.0595949
0.0818586
0.234594
24.1064
495.559
308.422
0.201011
0.040114
0.0185242
0.0285538
0.0232817
0.0132301
-0.0236859
0.0986557
550.802
126.009
-0.0172186
0.00904579
0.0225273
0.0192934
-0.000454314
-0.0341799
-0.0705987
-0.0231317
360.968
23.6107
-0.0472142
0.00827858
0.0155636
0.0160202
-0.00215074
-0.0330206
-0.0720771
-0.00499296
125.916
-0.060502
-0.0175808
0.0230412
0.0206409
0.0256221
0.0183655
0.0164306
0.00111097
0.0252677
96.4327
-0.0118042
0.0111984
0.24358
0.0744354
0.0379451
0.0370944
0.0481988
0.0616794
0.0585633
100.364
0.0439978
0.0338757
0.429134
0.364382
0.0465168
0.0491087
0.0557599
0.0694284
0.0715451
59.4566
0.371199
0.0327127
0.268321
0.487617
0.0661202
0.0522375
0.0575469
0.0642831
0.0708244
32.3669
0.0300349
0.0361124
0.183896
0.192473
0.0451322
0.0526065
0.058762
0.0631666
0.0644058
64.8391
0.0178248
0.0395286
0.050097
0.0500883
0.0538528
0.0565878
0.0600334
0.062971
0.0636253
86.1953
0.0421053
0.0488388
0.0566891
0.0557659
0.057376
0.0588382
0.0607975
0.0624357
0.0629225
403.732
402.902
401.446
399.167
396.471
393.613
390.936
388.703
387.153
386.36
405.204
404.276
402.644
400.171
397.234
394.156
391.291
388.922
387.29
386.466
407.894
406.749
405.001
402.127
398.776
395.282
392.04
389.383
387.568
386.702
412.157
410.791
408.598
405.14
401.131
397.009
393.224
390.208
388.269
387.318
418.107
416.511
413.766
409.367
404.387
399.384
394.858
391.335
389.142
388.222
425.776
423.852
420.084
414.294
408.139
402.27
397.035
393.058
391.038
390.517
434.968
432.73
427.236
419.467
411.739
404.879
399.163
395.553
394.463
395.363
446.358
443.091
434.772
423.78
411.695
386.615
348.069
331.395
351.829
372.751
441.862
405.762
348.521
263.304
193.028
125.043
80.0105
64.6903
93.4698
200.66
245.319
120.753
25.2082
0.121813
0.0323917
0.0485172
0.0511186
0.056494
0.0652764
6.18956
89.4842
0.466831
-0.0086832
0.0242831
0.0189581
0.0262457
0.0167357
0.00211225
-0.0264754
0.0423636
52.753
5.49722
-0.00924221
0.0213226
0.0241655
0.0181672
-0.00508505
-0.0320273
-0.0640131
-0.0239532
14.0024
2.97458
-0.00188135
0.0177018
0.0232462
0.0179646
-0.00332898
-0.030587
-0.0533324
0.0025972
2.79542
1.07865
0.00810899
0.0262146
0.0297
0.0289923
0.0189573
0.0163723
0.019042
0.0362249
3.52337
0.31785
0.0262677
0.028785
0.0367879
0.0394322
0.0400291
0.0458351
0.0572074
0.0624294
10.3974
0.0280947
0.0343128
0.0284319
0.0399348
0.0452112
0.0508185
0.0571232
0.0660622
0.0712387
19.1743
0.0374394
0.0859187
0.0347517
0.0394252
0.0470567
0.0539493
0.0602746
0.0651679
0.0673534
17.7446
0.053896
0.217638
0.0425671
0.0446576
0.0499488
0.0548247
0.0596646
0.0638044
0.0638771
0.166154
0.236136
0.278592
0.0515587
0.0518617
0.0541774
0.056654
0.0596272
0.0622492
0.0628827
0.0744434
1.4155
0.203371
0.0552875
0.055392
0.056749
0.0582152
0.060014
0.0615586
0.0620239
401.799
400.935
399.138
396.737
393.845
390.796
387.918
385.493
383.788
382.907
403.011
401.961
400.131
397.516
394.39
391.104
388.005
385.407
383.583
382.655
405.361
404.103
402.067
399.069
395.512
391.765
388.215
385.24
383.171
382.138
409.046
407.495
405.052
401.46
397.232
392.795
388.586
385.115
382.729
381.542
414.172
412.265
409.225
404.807
399.649
394.244
389.104
384.921
382.087
380.751
420.436
418.022
414.093
408.627
402.506
396.147
390.014
385.081
381.993
380.692
427.501
424.501
419.232
412.407
405.029
397.828
391.21
385.905
383.046
382.328
434.704
430.211
423.22
413.502
393.456
350.716
300.891
276.323
287.43
294.902
308.515
282.163
255.988
206.426
139.455
79.037
46.9345
37.8765
48.3681
93.9717
10.7888
0.773501
0.113862
0.0365213
0.0372312
0.041356
0.0346771
0.0231343
-0.002277
0.290604
0.206552
0.0341695
0.0132526
0.0199696
0.0202497
0.0212306
0.00611449
-0.014869
-0.0404924
0.00900438
-0.00752322
-0.00724088
0.0163728
0.0265137
0.0272787
0.0168427
-0.00423168
-0.0230258
-0.0573924
-0.0072035
-0.0144238
-0.00623378
0.0260204
0.0246677
0.0256988
0.020946
0.0050228
-0.0145377
-0.0322856
0.0173601
0.0239158
0.00768412
0.0239524
0.0274744
0.0327073
0.0335738
0.0285218
0.0272936
0.025066
0.0468013
0.0531212
0.0294882
0.0335375
0.0355059
0.040729
0.0441198
0.0466751
0.0534217
0.0773931
0.0816129
0.0630097
0.0410961
0.0438273
0.0413978
0.0460259
0.0502577
0.0552128
0.0625071
0.0779679
0.0826735
0.173847
0.0965684
0.165543
0.045402
0.0483792
0.052237
0.056909
0.062399
0.0662992
0.0652641
3.77512
0.0697407
0.307657
0.048514
0.0501299
0.0530385
0.0562263
0.0600713
0.0634674
0.0631177
4.05854
0.208303
0.40617
0.0522614
0.0530243
0.0545599
0.0562852
0.0586005
0.060689
0.0612854
0.0429905
0.873779
0.423611
0.0536321
0.0550078
0.0560635
0.057171
0.0586395
0.0600535
0.0605472
399.253
398.285
396.44
393.841
390.739
387.45
384.316
381.649
379.75
378.762
400.219
399.169
397.193
394.382
391.029
387.466
384.064
381.165
379.102
378.039
402.212
400.974
398.713
395.498
391.656
387.543
383.576
380.183
377.763
376.526
405.268
403.732
401.034
397.209
392.626
387.686
382.88
378.745
375.782
374.279
409.444
407.525
404.236
399.615
394.016
387.945
381.936
376.711
372.924
371.06
414.186
411.886
407.904
402.446
395.818
388.396
381.042
374.519
369.719
367.495
418.786
416.206
411.443
404.945
397.207
389.003
380.433
368.737
355.577
352.634
419.177
416.3
410.189
392.968
349.389
293.256
236.829
190.413
170.099
162.678
203.078
199.906
184.428
137.874
77.3292
37.8524
23.5026
16.8323
13.4011
19.5887
0.270403
0.0695283
0.0189883
0.028085
0.0292202
0.017774
-0.00667055
-0.0469676
-0.0529996
0.109726
-0.00747024
-0.000427731
0.00957472
0.0183429
0.0174584
0.0137473
-0.00629522
-0.0178879
-0.0601614
0.0135738
0.0018053
0.0119697
0.0279605
0.0324252
0.0296994
0.0231365
0.00165542
-0.0183027
-0.0435643
0.0213597
0.00527139
0.0126347
0.0339116
0.0276352
0.0262418
0.0251095
0.0170477
0.00409443
-0.00294145
0.0426689
0.0228406
0.0236267
0.031279
0.0316429
0.0362541
0.0394532
0.0400456
0.0418813
0.0420386
0.0576577
0.041777
0.0358034
0.0375153
0.0404478
0.0447928
0.0494694
0.0545537
0.0615933
0.0791426
0.0848432
0.0548275
0.0463062
0.0467309
0.0469613
0.0501809
0.0545572
0.0599069
0.0660077
0.0791629
0.0834555
0.0561647
0.0486476
0.0505074
0.0504247
0.0523369
0.0554826
0.059159
0.0630643
0.067081
0.0650677
0.057169
0.0503805
0.0510649
0.051913
0.0531099
0.0547853
0.0563573
0.0584243
0.0598414
0.0608054
1.06364
0.192074
0.0531487
0.0533412
0.0539716
0.0544429
0.0546287
0.0552804
0.0565539
0.0582247
0.0573754
0.109878
0.0537809
0.0543054
0.0549668
0.0551156
0.0549538
0.0551507
0.0562034
0.0579506
396.654
395.612
393.608
390.805
387.458
383.894
380.466
377.519
375.403
374.293
397.407
396.294
394.142
391.11
387.475
383.585
379.826
376.58
374.24
373.028
398.972
397.7
395.249
391.766
387.555
382.985
378.514
374.625
371.799
370.343
401.382
399.856
396.949
392.791
387.702
382.102
376.523
371.588
367.944
366.095
404.634
402.787
399.292
394.24
387.968
380.921
373.647
367.147
362.252
359.848
408.422
406.251
402.135
396.144
388.436
379.653
370.324
361.578
354.661
351.886
411.619
409.362
404.71
397.778
388.962
378.61
354.732
315.515
285.923
282.117
405.526
400.185
385.603
350.869
292.399
224.837
151.916
96.511
65.1202
48.2076
151.094
144.161
121.704
81.11
40.0172
19.3191
8.56288
3.13011
0.324324
0.600646
0.0540216
0.0469224
0.0401255
0.0335876
0.0180175
-0.014363
-0.0522672
-0.0614303
-0.00556329
0.107744
0.0186325
0.023842
0.0195292
0.0192034
0.0147665
0.0218346
0.00883675
0.0569339
-0.0114396
0.048574
0.00646553
0.0104704
0.013098
0.0173597
0.0186372
0.0300618
0.0265625
0.0160563
0.0330339
0.0715399
0.00919158
0.00942141
0.0142082
0.0208141
0.0260947
0.0306414
0.0325197
0.0390351
0.0513474
0.0721544
0.0216404
0.0220874
0.0264957
0.0330228
0.0396025
0.0463819
0.0519033
0.0592286
0.0691531
0.0773404
0.0389028
0.0372287
0.0397283
0.0439137
0.0494362
0.0557337
0.0619236
0.0670749
0.0951114
0.115987
0.0535162
0.0485442
0.0498064
0.0513547
0.054804
0.0595179
0.0643726
0.0665572
0.0765903
0.0861665
0.0594194
0.0539508
0.0541071
0.0544417
0.0560285
0.058634
0.0607216
0.0605861
0.0631392
0.0627482
0.0579473
0.0547587
0.0547849
0.0550515
0.0552877
0.0556005
0.054644
0.0537996
0.0533441
0.0541384
0.0538115
0.0585731
0.0552278
0.0552645
0.0546388
0.0531909
0.0504462
0.0499448
0.049187
0.0502813
0.0549956
0.0528324
0.0552822
0.0554741
0.0549299
0.0529594
0.0497647
0.0491618
0.0484915
0.0508905
394.277
393.134
390.969
387.952
384.346
380.485
376.748
373.509
371.17
369.939
394.881
393.658
391.32
388.042
384.098
379.847
375.706
372.095
369.47
368.107
396.113
394.734
392.059
388.256
383.62
378.545
373.529
369.117
365.867
364.184
398.025
396.412
393.233
388.634
382.94
376.569
370.123
364.352
359.965
357.746
400.605
398.702
394.859
389.163
382.032
373.737
365.092
357.334
351.278
348.293
403.809
401.618