/*--------------------------------*- C++ -*----------------------------------*\
| =========                 |                                                 |
| \\      /  F ield         | OpenFOAM: The Open Source CFD Toolbox           |
|  \\    /   O peration     | Version:  2312                                  |
|   \\  /    A nd           | Website:  www.openfoam.com                      |
|    \\/     M anipulation  |                                                 |
\*---------------------------------------------------------------------------*/
FoamFile
{
    version     2.0;
    format      ascii;
    arch        "LSB;label=32;scalar=64";
    class       surfaceScalarField;
    location    "0.185";
    object      alphaPhi0.water;
}
// * * * * * * * * * * * * * * * * * * * * * * * * * * * * * * * * * * * * * //

dimensions      [0 3 -1 0 0 0 0];

oriented        oriented;

internalField   nonuniform List<scalar> 
22600
(
-3.965e-08
8.02725e-08
-4.06225e-08
-7.73071e-08
7.87607e-08
-4.11033e-08
-1.10417e-07
7.3934e-08
-4.08243e-08
-1.37057e-07
6.73575e-08
-4.07175e-08
-1.5527e-07
5.97286e-08
-4.15151e-08
-1.62225e-07
5.17696e-08
-4.48152e-08
-1.53289e-07
4.41e-08
-5.30357e-08
-1.2265e-07
3.72114e-08
-6.78506e-08
-6.77707e-08
3.16417e-08
-8.65208e-08
2.82637e-08
-1.0032e-07
-6.96157e-08
2.20851e-07
-7.09627e-08
-1.35472e-07
2.1941e-07
-7.47927e-08
-1.92814e-07
2.12275e-07
-8.09979e-08
-2.37433e-07
2.02693e-07
-9.07166e-08
-2.64946e-07
1.91728e-07
-1.04487e-07
-2.70496e-07
1.80558e-07
-1.23239e-07
-2.48423e-07
1.70178e-07
-1.4815e-07
-1.93365e-07
1.61189e-07
-1.79036e-07
-1.04833e-07
1.53902e-07
-2.10792e-07
1.49096e-07
-2.32215e-07
-6.43072e-08
3.50709e-07
-6.55507e-08
-1.2508e-07
3.48745e-07
-6.85622e-08
-1.77793e-07
3.38098e-07
-7.31104e-08
-2.18599e-07
3.23533e-07
-8.00335e-08
-2.43693e-07
3.06393e-07
-8.95713e-08
-2.48944e-07
2.88253e-07
-1.02443e-07
-2.29353e-07
2.70664e-07
-1.20077e-07
-1.79787e-07
2.54866e-07
-1.43243e-07
-9.87152e-08
2.41752e-07
-1.68921e-07
2.32988e-07
-1.88484e-07
-6.65693e-08
4.85068e-07
-6.77896e-08
-1.29284e-07
4.82276e-07
-7.08165e-08
-1.83343e-07
4.67528e-07
-7.53709e-08
-2.24748e-07
4.46924e-07
-8.19857e-08
-2.49769e-07
4.21952e-07
-9.05373e-08
-2.54568e-07
3.94556e-07
-1.01505e-07
-2.34573e-07
3.67034e-07
-1.16364e-07
-1.84881e-07
3.41805e-07
-1.36631e-07
-1.0284e-07
3.21113e-07
-1.61402e-07
3.07616e-07
-1.83254e-07
-7.43828e-08
6.35091e-07
-7.56396e-08
-1.4418e-07
6.31736e-07
-7.96632e-08
-2.04275e-07
6.13853e-07
-8.62301e-08
-2.50181e-07
5.88503e-07
-9.56727e-08
-2.77712e-07
5.57082e-07
-1.07599e-07
-2.82633e-07
5.21595e-07
-1.22118e-07
-2.60166e-07
4.84924e-07
-1.40358e-07
-2.05334e-07
4.51027e-07
-1.64055e-07
-1.14755e-07
4.24081e-07
-1.93547e-07
4.07177e-07
-2.20634e-07
-8.24953e-08
8.01372e-07
-8.37861e-08
-1.60575e-07
7.98871e-07
-8.90551e-08
-2.28185e-07
7.79784e-07
-9.83209e-08
-2.80357e-07
7.5251e-07
-1.11834e-07
-3.12275e-07
7.17879e-07
-1.28879e-07
-3.1876e-07
6.76766e-07
-1.48686e-07
-2.93886e-07
6.31203e-07
-1.71153e-07
-2.31989e-07
5.86251e-07
-1.97121e-07
-1.297e-07
5.49396e-07
-2.27605e-07
5.26305e-07
-2.56094e-07
-9.50676e-08
9.92874e-07
-9.6434e-08
-1.83977e-07
9.91866e-07
-1.04085e-07
-2.61108e-07
9.75356e-07
-1.18441e-07
-3.21558e-07
9.53273e-07
-1.40314e-07
-3.60281e-07
9.2593e-07
-1.69328e-07
-3.70824e-07
8.91587e-07
-2.04278e-07
-3.44321e-07
8.48505e-07
-2.43805e-07
-2.71895e-07
8.01348e-07
-2.87522e-07
-1.50302e-07
7.63051e-07
-3.35248e-07
7.43142e-07
-3.7629e-07
-9.85939e-08
1.19137e-06
-9.99027e-08
-1.89961e-07
1.19181e-06
-1.08581e-07
-2.69524e-07
1.18165e-06
-1.2673e-07
-3.33822e-07
1.17499e-06
-1.5742e-07
-3.80127e-07
1.17474e-06
-2.02508e-07
-4.00982e-07
1.1722e-06
-2.59761e-07
-3.80062e-07
1.14745e-06
-3.19869e-07
-3.01111e-07
1.09205e-06
-3.6965e-07
-1.63817e-07
1.03043e-06
-4.04673e-07
1.00498e-06
-4.35625e-07
-9.43968e-08
6.73439e-07
-9.56159e-08
-1.76282e-07
6.91925e-07
-1.0643e-07
-2.46332e-07
7.2001e-07
-1.16549e-07
-3.03322e-07
7.67067e-07
-1.34831e-07
-3.49254e-07
8.46702e-07
-1.76485e-07
-3.83902e-07
9.61984e-07
-2.51565e-07
-3.82701e-07
1.07004e-06
-3.43234e-07
-3.08099e-07
1.09912e-06
-4.02576e-07
-1.57097e-07
1.04233e-06
-3.99691e-07
9.97758e-07
-3.5904e-07
-3.97842e-08
-9.75903e-09
-4.01618e-08
-8.30655e-08
-1.15213e-08
-4.1448e-08
-1.26741e-07
-1.8985e-08
-5.58692e-08
-1.74339e-07
-3.68371e-08
-9.85227e-08
-2.50425e-07
-6.09267e-08
-2.11058e-07
-4.01905e-07
-6.6478e-08
-4.40777e-07
-6.15916e-07
8.1596e-08
-8.51059e-07
-6.99966e-07
3.61176e-07
-1.46853e-06
-4.37452e-07
6.17801e-07
-2.1046e-06
7.45858e-07
-2.39382e-06
-4.97413e-09
-6.57196e-11
-4.82142e-09
-1.4242e-08
-1.26676e-10
-2.19789e-09
-2.15637e-08
-2.48015e-10
-1.17152e-08
-3.2122e-08
-5.28854e-10
-2.66698e-08
-4.74333e-08
-9.98481e-10
-4.69187e-08
-6.60625e-08
-2.84876e-09
-6.99137e-08
-1.6158e-07
-9.76479e-09
-2.43703e-07
-2.84452e-07
-1.51256e-08
-6.50543e-07
-2.57796e-07
-3.56161e-08
-1.25772e-06
3.74992e-08
-1.82813e-06
-5.70142e-11
7.4348e-12
-5.20267e-11
-3.21961e-10
7.18883e-12
9.91789e-11
-7.98067e-10
1.33407e-11
1.56188e-10
-1.76104e-09
2.80897e-11
2.36862e-10
-3.13765e-09
1.11039e-10
-1.81117e-10
-5.36856e-09
2.87999e-10
-1.32643e-09
-1.44284e-08
6.16471e-10
-3.94836e-09
-2.70477e-08
-1.23066e-09
-7.21732e-09
-3.55047e-08
5.78884e-10
-4.18651e-09
3.71367e-09
-1.20247e-13
2.2076e-12
6.97679e-13
2.45819e-12
-3.4165e-12
8.48933e-13
1.01109e-11
-2.31886e-11
1.69488e-12
2.79307e-11
-9.61784e-11
3.81238e-12
8.60195e-11
-2.59404e-10
1.00268e-11
2.32417e-10
-6.31623e-10
2.69109e-11
5.48824e-10
-1.44286e-09
1.16064e-10
1.0061e-09
-2.66009e-09
3.74651e-10
6.967e-10
-2.16901e-09
1.01052e-09
-1.11103e-10
1.28251e-09
-4.62648e-12
2.77329e-13
2.91082e-14
2.85841e-13
4.26148e-13
4.31914e-14
5.54265e-13
4.15028e-13
7.3036e-14
1.39753e-12
-1.39925e-12
1.86129e-13
4.72283e-12
-1.18227e-11
4.80948e-13
1.8222e-11
-4.86045e-11
1.0361e-12
5.76211e-11
-1.69111e-10
3.60785e-12
2.03187e-10
-2.84291e-10
2.91566e-11
3.54554e-10
-2.109e-10
2.3937e-10
4.88789e-10
3.13387e-10
3.80386e-10
1.24895e-14
7.51965e-16
1.27326e-14
2.96704e-14
1.43296e-15
2.14704e-14
5.31572e-14
1.90496e-15
4.36169e-14
8.92122e-14
4.9644e-15
1.30393e-13
-2.39918e-14
1.35879e-14
5.30213e-13
-1.48041e-12
3.64417e-14
2.30975e-12
-1.02238e-11
8.21194e-14
1.18619e-11
-3.22664e-11
7.70894e-13
4.33387e-11
-3.33115e-11
7.40143e-12
1.15089e-10
1.82494e-11
1.61872e-10
3.58431e-16
2.1557e-17
3.65353e-16
1.0791e-15
5.06095e-17
6.53726e-16
1.89256e-15
4.51456e-17
1.09182e-15
4.20402e-15
9.20014e-17
2.68888e-15
8.68918e-15
2.47125e-16
9.23519e-15
3.67968e-15
6.97805e-16
3.9272e-14
-1.80101e-13
3.43222e-15
2.37413e-13
-1.52862e-12
2.58998e-14
1.88871e-12
-2.41483e-12
2.14495e-13
6.89325e-12
6.2961e-13
1.31562e-11
8.66927e-18
3.45902e-18
8.86836e-18
3.2606e-17
7.05267e-18
1.79929e-17
5.21761e-17
4.13373e-18
2.59814e-17
1.08849e-16
1.22727e-18
5.45079e-17
2.5447e-16
4.60032e-18
1.53539e-16
5.85004e-16
9.07175e-18
5.16598e-16
1.01904e-15
4.5988e-17
2.71312e-15
-8.22703e-15
2.9074e-16
3.15933e-14
-3.58488e-14
1.66626e-15
2.16151e-13
3.62785e-15
5.37442e-13
2.82262e-19
3.26417e-19
2.90454e-19
1.15045e-18
7.7128e-19
6.3777e-19
1.54613e-18
6.48918e-19
7.47307e-19
2.42663e-18
5.55388e-19
1.0695e-18
5.57276e-18
8.795e-19
2.65567e-18
1.25253e-17
1.16991e-18
7.65857e-18
3.61266e-17
5.06928e-19
3.26466e-17
1.0941e-16
4.76161e-18
2.00539e-16
1.72528e-16
1.83513e-17
1.24149e-15
3.29056e-17
3.02059e-15
9.51997e-21
6.83379e-21
9.88515e-21
4.71454e-20
2.53244e-20
2.56403e-20
6.73383e-20
2.88637e-20
3.0206e-20
1.00836e-19
6.77766e-20
4.23131e-20
1.94957e-19
9.21896e-20
8.45696e-20
3.37169e-19
1.18247e-19
1.85e-19
6.58116e-19
1.20708e-19
4.57925e-19
2.24393e-18
3.56855e-19
2.53103e-18
4.2319e-18
-7.16455e-19
1.21239e-17
2.65199e-19
2.71731e-17
1.97503e-22
2.07495e-22
1.03858e-22
1.32637e-21
6.99143e-22
5.23836e-22
2.04343e-21
8.60165e-22
5.8535e-22
4.02279e-21
1.50991e-21
9.7365e-22
6.77454e-21
2.81227e-21
1.46279e-21
1.09788e-20
5.46057e-21
2.31739e-21
2.06375e-20
1.33011e-20
1.21842e-20
5.02737e-20
5.06084e-20
2.23453e-20
7.01827e-20
1.73161e-19
3.61795e-20
3.47153e-19
9.22349e-20
-4.01155e-08
7.87479e-08
-7.92547e-08
-7.81807e-08
7.71296e-08
-8.01676e-08
-1.11609e-07
7.21506e-08
-7.95469e-08
-1.38805e-07
6.55661e-08
-7.90875e-08
-1.58525e-07
5.83497e-08
-8.0145e-08
-1.68558e-07
5.15684e-08
-8.63497e-08
-1.63568e-07
4.60555e-08
-1.04082e-07
-1.34626e-07
4.21746e-08
-1.38966e-07
-7.56678e-08
3.94905e-08
-1.8497e-07
3.64435e-08
-2.18453e-07
-7.34272e-08
2.19395e-07
-1.38182e-07
-1.43064e-07
2.17799e-07
-1.45826e-07
-2.04037e-07
2.10412e-07
-1.58286e-07
-2.52208e-07
2.00691e-07
-1.7767e-07
-2.83433e-07
1.89983e-07
-2.04896e-07
-2.92884e-07
1.7981e-07
-2.4203e-07
-2.73557e-07
1.71319e-07
-2.9274e-07
-2.16514e-07
1.64684e-07
-3.58588e-07
-1.18319e-07
1.57941e-07
-4.27437e-07
1.47767e-07
-4.70402e-07
-6.73018e-08
3.48721e-07
-1.27575e-07
-1.30931e-07
3.46337e-07
-1.33471e-07
-1.8616e-07
3.34862e-07
-1.42331e-07
-2.29192e-07
3.19274e-07
-1.55584e-07
-2.56553e-07
3.01197e-07
-1.73423e-07
-2.64498e-07
2.82554e-07
-1.97242e-07
-2.47315e-07
2.64997e-07
-2.30937e-07
-1.96987e-07
2.48901e-07
-2.77789e-07
-1.0955e-07
2.31271e-07
-3.29689e-07
2.08718e-07
-3.66634e-07
-6.95807e-08
4.82237e-07
-1.31725e-07
-1.35071e-07
4.7856e-07
-1.37549e-07
-1.91376e-07
4.61962e-07
-1.46166e-07
-2.34476e-07
4.38711e-07
-1.58323e-07
-2.61028e-07
4.10578e-07
-1.73367e-07
-2.67888e-07
3.79972e-07
-1.92063e-07
-2.50335e-07
3.49575e-07
-2.18495e-07
-2.01313e-07
3.20834e-07
-2.57586e-07
-1.15009e-07
2.90642e-07
-3.07077e-07
2.56058e-07
-3.53101e-07
-7.83923e-08
6.31685e-07
-1.46695e-07
-1.51923e-07
6.26896e-07
-1.54469e-07
-2.15134e-07
6.05948e-07
-1.67005e-07
-2.63377e-07
5.75896e-07
-1.84614e-07
-2.92757e-07
5.38315e-07
-2.05956e-07
-2.99787e-07
4.95895e-07
-2.3101e-07
-2.79924e-07
4.52513e-07
-2.6316e-07
-2.26525e-07
4.113e-07
-3.07921e-07
-1.31134e-07
3.69434e-07
-3.67729e-07
3.24103e-07
-4.27927e-07
-8.77521e-08
7.98825e-07
-1.63174e-07
-1.70917e-07
7.94548e-07
-1.73542e-07
-2.43035e-07
7.71422e-07
-1.91677e-07
-2.98693e-07
7.37245e-07
-2.17525e-07
-3.32903e-07
6.92218e-07
-2.48571e-07
-3.40887e-07
6.37635e-07
-2.82442e-07
-3.17169e-07
5.77504e-07
-3.19862e-07
-2.55287e-07
5.18084e-07
-3.65786e-07
-1.4675e-07
4.6198e-07
-4.28686e-07
4.0985e-07
-4.97245e-07
-1.02708e-07
9.91838e-07
-1.86739e-07
-1.99335e-07
9.89213e-07
-2.02123e-07
-2.84227e-07
9.6913e-07
-2.31256e-07
-3.51789e-07
9.39576e-07
-2.75082e-07
-3.96023e-07
8.98084e-07
-3.30961e-07
-4.09782e-07
8.41525e-07
-3.94409e-07
-3.83867e-07
7.72732e-07
-4.64947e-07
-3.08525e-07
7.0533e-07
-5.5011e-07
-1.74861e-07
6.53105e-07
-6.60038e-07
6.17126e-07
-7.70676e-07
-1.07262e-07
1.19185e-06
-1.92649e-07
-2.08096e-07
1.19227e-06
-2.10808e-07
-3.00211e-07
1.18533e-06
-2.50819e-07
-3.79835e-07
1.17971e-06
-3.17932e-07
-4.40015e-07
1.16544e-06
-4.09685e-07
-4.66133e-07
1.11669e-06
-5.08811e-07
-4.37362e-07
1.01567e-06
-5.91581e-07
-3.41557e-07
8.86497e-07
-6.46622e-07
-1.86877e-07
7.89583e-07
-6.95831e-07
7.51293e-07
-7.70015e-07
-1.052e-07
6.92047e-07
-1.78631e-07
-1.95889e-07
7.09294e-07
-1.9853e-07
-2.7691e-07
7.47938e-07
-2.27588e-07
-3.52586e-07
8.28011e-07
-2.93618e-07
-4.27418e-07
9.52042e-07
-4.16079e-07
-4.80871e-07
1.06178e-06
-5.72216e-07
-4.60913e-07
1.05812e-06
-6.99814e-07
-3.39372e-07
9.47683e-07
-7.61978e-07
-1.5005e-07
8.52836e-07
-7.63553e-07
8.72507e-07
-7.28984e-07
-4.10168e-08
-1.14789e-08
-8.3713e-08
-8.4632e-08
-1.5048e-08
-8.52634e-08
-1.34172e-07
-2.96569e-08
-1.29317e-07
-2.35367e-07
-5.21131e-08
-2.6538e-07
-4.32757e-07
-7.67317e-08
-5.75807e-07
-7.38168e-07
6.49705e-08
-1.14987e-06
-9.70134e-07
2.95682e-07
-2.07521e-06
-8.58003e-07
4.66255e-07
-3.26629e-06
-3.89735e-07
5.85652e-07
-4.19246e-06
7.45561e-07
-4.39686e-06
-2.18236e-09
-1.24844e-10
-1.40557e-08
-9.82491e-09
-3.45015e-11
-9.63661e-09
-2.26354e-08
1.92593e-11
-2.88252e-08
-4.34456e-08
-8.65343e-11
-5.78781e-08
-6.46986e-08
-5.58736e-10
-1.05556e-07
-1.5469e-07
-3.0815e-09
-3.59933e-07
-2.59157e-07
1.56321e-09
-6.84452e-07
-3.20015e-07
6.32375e-09
-8.54466e-07
-2.78721e-07
4.73843e-09
-1.35756e-06
-7.76739e-13
-1.93028e-06
9.47882e-11
7.24364e-12
-3.10121e-10
4.82818e-11
1.81094e-11
5.81319e-11
6.24851e-11
3.69953e-11
6.95092e-11
1.7544e-10
2.41442e-11
-4.78178e-11
4.31598e-10
-1.13777e-10
-6.33408e-10
6.22114e-10
-5.52073e-10
-3.5602e-13
-5.72668e-10
-1.19083e-09
-4.91982e-13
-5.10518e-10
-9.55245e-10
-6.17937e-13
-3.06807e-14
4.22602e-11
-4.18434e-13
6.10257e-15
-3.31991e-13
9.81177e-12
8.49417e-13
-2.77664e-12
1.65401e-11
1.70401e-12
1.73126e-11
2.96897e-11
2.63785e-12
4.68181e-11
5.31239e-11
1.81756e-12
9.171e-11
1.02288e-10
-1.1926e-11
1.01261e-10
2.08925e-10
-4.68419e-11
3.96857e-11
2.50335e-10
-1.9488e-10
8.53746e-13
9.19308e-11
-6.59451e-11
-8.64569e-12
5.90476e-12
3.32789e-11
-6.55991e-12
3.15507e-12
-7.03108e-13
5.42536e-13
4.30907e-14
4.50526e-13
1.25445e-12
9.54626e-14
1.28783e-12
2.14969e-12
1.18517e-13
2.91074e-12
3.27637e-12
1.28213e-13
5.64809e-12
4.08947e-12
-3.00166e-13
6.28258e-12
8.60284e-12
-2.14414e-12
3.31632e-12
1.71652e-11
-1.0666e-11
-3.76601e-12
5.29588e-11
2.84366e-11
4.82055e-12
5.50089e-11
1.46425e-10
6.04519e-12
1.57292e-10
1.08187e-12
2.11009e-14
1.42448e-15
3.03011e-14
6.27442e-14
3.99909e-15
6.38455e-14
1.04434e-13
4.22967e-15
1.1391e-13
1.52368e-13
5.11213e-15
2.31108e-13
1.71036e-13
-2.7361e-15
2.6355e-13
2.41499e-13
-3.37157e-14
1.77936e-13
5.74291e-13
-2.64888e-13
4.9706e-14
4.1313e-12
-1.35391e-12
4.2937e-12
1.14166e-11
2.51305e-12
2.08708e-11
1.98164e-11
2.47134e-11
6.42078e-16
5.01333e-17
1.09367e-15
2.43212e-15
1.5918e-16
2.46755e-15
3.93787e-15
1.15893e-16
3.70135e-15
5.776e-15
1.11719e-16
6.87665e-15
6.73931e-15
-6.44464e-17
8.4683e-15
8.2557e-15
-4.36504e-16
8.48157e-15
7.1761e-15
-2.73565e-15
8.40818e-15
-2.77264e-14
-2.81685e-14
3.25733e-14
-8.22028e-14
-1.82955e-13
1.07235e-12
-4.60407e-13
3.87065e-12
1.76149e-17
7.06151e-18
3.29207e-17
8.39274e-17
1.02926e-17
8.50486e-17
1.30083e-16
-1.91396e-18
1.12842e-16
1.88996e-16
4.59497e-18
1.89093e-16
2.27455e-16
2.33777e-19
2.58237e-16
3.17056e-16
-3.56007e-18
2.77463e-16
7.00376e-16
-2.9864e-17
3.72561e-16
7.33793e-16
-1.16361e-16
1.89934e-15
-1.41359e-15
-2.60383e-16
2.2547e-14
-9.45948e-16
3.95805e-14
6.21657e-19
7.73361e-19
1.16514e-18
2.93236e-18
1.88696e-18
2.97901e-18
3.88626e-18
1.64635e-18
3.22212e-18
5.65555e-18
1.91819e-18
4.95464e-18
6.92497e-18
2.37527e-18
7.25025e-18
1.00634e-17
3.28947e-18
9.62345e-18
1.71283e-17
4.65613e-18
1.31027e-17
5.75687e-17
-7.70926e-18
5.04765e-17
1.28681e-16
1.85587e-17
5.40799e-16
3.61426e-17
1.2542e-15
2.48373e-20
2.54512e-20
4.8467e-20
1.39932e-19
1.13392e-19
1.4355e-19
1.99673e-19
1.88897e-19
1.61048e-19
2.99765e-19
2.37551e-19
2.34023e-19
4.11818e-19
3.49736e-19
3.63978e-19
5.59938e-19
4.85549e-19
6.11163e-19
7.44998e-19
6.02278e-19
9.72764e-19
1.65252e-18
7.65754e-19
1.84695e-18
4.20066e-18
2.37236e-18
1.17097e-17
1.85548e-18
3.20058e-17
6.71423e-22
1.3823e-21
5.27754e-22
5.44542e-21
5.62663e-21
2.99971e-21
8.75164e-21
6.80426e-21
3.77068e-21
1.4348e-20
1.01961e-20
5.35188e-21
2.09754e-20
1.66424e-20
7.68072e-21
2.97974e-20
2.8493e-20
1.16038e-20
4.34975e-20
6.2647e-20
2.32126e-20
8.02344e-20
1.5845e-19
1.13885e-19
1.46074e-19
6.48947e-19
3.31797e-19
1.27496e-18
6.08965e-19
-3.983e-08
7.39009e-08
-1.13326e-07
-7.75333e-08
7.2132e-08
-1.14596e-07
-1.10532e-07
6.70535e-08
-1.13602e-07
-1.38047e-07
6.08815e-08
-1.12454e-07
-1.60723e-07
5.53314e-08
-1.128e-07
-1.7853e-07
5.24601e-08
-1.21003e-07
-1.8504e-07
5.41605e-08
-1.51733e-07
-1.63321e-07
6.03505e-08
-2.21035e-07
-9.59915e-08
6.57276e-08
-3.18027e-07
6.38462e-08
-3.89885e-07
-7.96303e-08
2.1224e-07
-1.96891e-07
-1.55494e-07
2.10395e-07
-2.08225e-07
-2.22559e-07
2.02698e-07
-2.26865e-07
-2.76977e-07
1.93107e-07
-2.55479e-07
-3.1552e-07
1.83698e-07
-2.94719e-07
-3.34295e-07
1.76834e-07
-3.47629e-07
-3.24408e-07
1.74196e-07
-4.22663e-07
-2.69888e-07
1.73869e-07
-5.26627e-07
-1.54821e-07
1.68935e-07
-6.45711e-07
1.60264e-07
-7.39583e-07
-7.18442e-08
3.38036e-07
-1.81526e-07
-1.39764e-07
3.34827e-07
-1.89983e-07
-1.98649e-07
3.21814e-07
-2.02561e-07
-2.44898e-07
3.04453e-07
-2.20682e-07
-2.7615e-07
2.85009e-07
-2.43482e-07
-2.90355e-07
2.65983e-07
-2.72186e-07
-2.81885e-07
2.48622e-07
-3.13833e-07
-2.40387e-07
2.30026e-07
-3.75443e-07
-1.48387e-07
2.06975e-07
-4.59729e-07
2.03578e-07
-5.77108e-07
-7.41261e-08
4.67415e-07
-1.86979e-07
-1.43662e-07
4.61892e-07
-1.95077e-07
-2.02895e-07
4.41536e-07
-2.06656e-07
-2.47854e-07
4.13017e-07
-2.21926e-07
-2.7652e-07
3.78842e-07
-2.38534e-07
-2.88326e-07
3.42272e-07
-2.56545e-07
-2.80669e-07
3.05583e-07
-2.83113e-07
-2.48339e-07
2.68156e-07
-3.28046e-07
-1.6793e-07
2.39784e-07
-4.20295e-07
2.83694e-07
-6.22725e-07
-8.49493e-08
6.13694e-07
-2.08024e-07
-1.64438e-07
6.05843e-07
-2.1893e-07
-2.32241e-07
5.78408e-07
-2.36073e-07
-2.83471e-07
5.38526e-07
-2.58894e-07
-3.15524e-07
4.88628e-07
-2.83689e-07
-3.28033e-07
4.32923e-07
-3.09153e-07
-3.19948e-07
3.74676e-07
-3.40337e-07
-2.89116e-07
3.15696e-07
-3.86293e-07
-2.00474e-07
2.83383e-07
-4.99969e-07
3.8383e-07
-7.56773e-07
-9.70086e-08
7.79627e-07
-2.32098e-07
-1.89036e-07
7.71307e-07
-2.46978e-07
-2.68537e-07
7.38718e-07
-2.72487e-07
-3.28949e-07
6.88296e-07
-3.06883e-07
-3.65623e-07
6.2026e-07
-3.43529e-07
-3.76752e-07
5.38912e-07
-3.77302e-07
-3.61852e-07
4.50863e-07
-4.10949e-07
-3.23588e-07
3.67396e-07
-4.55749e-07
-2.24611e-07
3.40593e-07
-5.84874e-07
5.09491e-07
-8.8057e-07
-1.1706e-07
9.75269e-07
-2.65321e-07
-2.28454e-07
9.69053e-07
-2.88475e-07
-3.27769e-07
9.38801e-07
-3.32024e-07
-4.07179e-07
8.87436e-07
-3.94812e-07
-4.59096e-07
8.09082e-07
-4.67867e-07
-4.79806e-07
7.08744e-07
-5.43531e-07
-4.69521e-07
6.03944e-07
-6.28312e-07
-4.2876e-07
5.19011e-07
-7.42487e-07
-2.96165e-07
5.14035e-07
-9.66074e-07
7.04246e-07
-1.29362e-06
-1.25394e-07
1.18174e-06
-2.73727e-07
-2.48061e-07
1.18536e-06
-3.04452e-07
-3.67018e-07
1.1782e-06
-3.71261e-07
-4.71979e-07
1.1493e-06
-4.74831e-07
-5.42474e-07
1.06308e-06
-5.9319e-07
-5.58829e-07
9.06012e-07
-6.89723e-07
-5.17005e-07
7.10557e-07
-7.40018e-07
-4.38999e-07
5.46947e-07
-7.52563e-07
-2.91238e-07
4.96749e-07
-8.26307e-07
6.88597e-07
-1.06831e-06
-1.15779e-07
7.20954e-07
-2.49904e-07
-2.25524e-07
7.48413e-07
-2.80938e-07
-3.42263e-07
8.17676e-07
-3.45951e-07
-4.71136e-07
9.35752e-07
-4.85213e-07
-5.7654e-07
1.01633e-06
-6.707e-07
-6.09007e-07
9.61899e-07
-8.37638e-07
-5.40256e-07
7.8817e-07
-9.57608e-07
-3.83737e-07
6.64176e-07
-1.08582e-06
-1.9008e-07
8.049e-07
-1.29315e-06
1.2312e-06
-1.51246e-06
-5.49393e-08
-1.87451e-08
-1.27755e-07
-1.27552e-07
-2.93983e-08
-1.35177e-07
-2.72237e-07
-5.66098e-08
-2.73818e-07
-5.71525e-07
-7.00322e-08
-6.43799e-07
-1.0258e-06
1.179e-07
-1.3704e-06
-1.43125e-06
3.38598e-07
-2.45865e-06
-1.44812e-06
3.88168e-07
-3.51972e-06
-9.50136e-07
2.03278e-07
-4.18664e-06
-3.52898e-07
3.0642e-07
-4.7517e-06
9.24685e-07
-4.59931e-06
-1.12927e-08
-2.42411e-10
-2.15579e-08
-2.82914e-08
3.24887e-11
-2.23102e-08
-5.65173e-08
-1.19981e-10
-5.67921e-08
-9.43844e-08
-1.26781e-09
-1.21015e-07
-2.75726e-07
6.4514e-10
-4.81352e-07
-3.48015e-07
-4.48284e-12
-7.01209e-07
-3.1247e-07
-2.72083e-12
-6.41354e-07
-2.78052e-07
-6.18648e-12
-5.69131e-07
-2.54947e-07
-2.45424e-12
-5.95464e-07
-1.67621e-12
-8.16349e-07
1.62899e-10
1.30466e-11
-7.84062e-10
8.08111e-11
3.75427e-11
8.11617e-11
-1.42712e-11
4.70105e-11
-2.21964e-11
-1.20796e-10
-1.58104e-11
-3.18906e-10
-4.3036e-14
-1.05878e-10
-5.53091e-13
-7.7296e-14
-4.41437e-12
-1.04151e-12
-2.13398e-14
-1.56738e-12
-1.53555e-12
-5.39553e-15
-4.8427e-12
-1.76869e-12
-1.91364e-14
-1.58626e-12
-8.15962e-13
-4.12413e-13
-4.23488e-13
2.72905e-11
1.63074e-12
-2.19243e-11
4.64157e-11
2.62644e-12
3.07934e-11
7.25552e-11
1.51546e-12
7.27824e-11
7.39435e-11
-4.65225e-12
9.71286e-11
6.04972e-11
-8.5016e-12
4.2036e-11
1.18487e-11
5.30997e-12
1.84623e-12
8.53306e-12
1.4006e-12
4.26539e-14
2.32747e-12
-1.87124e-13
-9.06319e-13
1.42963e-14
-1.0127e-12
-2.35006e-13
-4.92768e-13
-1.389e-13
1.34353e-12
6.93211e-14
4.47403e-13
2.85054e-12
1.16783e-13
2.18154e-12
3.82105e-12
3.24471e-14
3.86865e-12
2.93849e-12
-2.51058e-13
2.86528e-12
1.904e-12
-3.0385e-13
1.29539e-12
1.33892e-12
-1.95262e-13
2.21216e-13
1.59862e-12
1.51834e-14
-5.25855e-13
1.4893e-12
8.93522e-14
4.06493e-14
1.18206e-12
-1.49274e-13
-4.98995e-14
-9.90517e-13
-1.31747e-13
4.17316e-14
1.78534e-15
5.25607e-14
1.1133e-13
4.11273e-15
1.04748e-13
1.38178e-13
-3.32123e-16
1.40266e-13
8.53253e-14
-9.04804e-15
8.21523e-14
4.79172e-14
-1.09724e-14
6.0301e-14
4.20537e-14
-1.21097e-14
6.18932e-15
1.1179e-13
-9.03553e-15
2.56302e-14
4.9126e-13
4.21455e-14
5.97449e-14
1.26392e-12
7.81728e-13
1.61713e-13
1.09719e-12
1.2526e-13
1.04348e-15
4.22027e-17
1.85104e-15
3.58539e-15
1.13106e-16
3.93365e-15
3.99443e-15
-8.7501e-17
4.02716e-15
2.22362e-15
-3.23842e-16
1.96685e-15
1.20769e-15
-3.77739e-16
1.17823e-15
9.41131e-16
-3.25517e-16
1.7731e-16
2.23561e-15
-4.29257e-16
4.98235e-17
1.09555e-14
-1.75936e-15
8.24954e-16
4.59011e-14
-2.18299e-14
9.3745e-15
-4.11278e-14
2.1861e-14
2.47396e-17
4.36166e-18
5.09426e-17
1.09076e-16
-1.16866e-18
1.2994e-16
1.06998e-16
-1.79315e-18
1.08247e-16
5.70901e-17
4.48378e-18
4.07588e-17
3.2776e-17
6.27513e-18
1.67637e-17
2.51749e-17
8.49682e-18
1.10086e-17
4.36593e-17
1.41303e-17
1.02491e-17
1.96231e-16
-1.83567e-17
1.92177e-17
3.90963e-16
-5.13261e-16
1.39452e-16
-1.16968e-15
3.59405e-17
7.18265e-19
6.54653e-19
1.54283e-18
3.12442e-18
1.64118e-18
3.93099e-18
2.72002e-18
1.27024e-18
2.77106e-18
1.94312e-18
1.04665e-18
1.51065e-18
1.92042e-18
1.3257e-18
1.56949e-18
2.31374e-18
2.36257e-18
2.53995e-18
4.03614e-18
6.6545e-18
5.37736e-18
7.41165e-18
6.25744e-18
1.07043e-17
1.24164e-17
8.06718e-18
1.46795e-17
-5.70993e-18
1.66285e-17
2.90095e-20
2.85487e-20
6.86907e-20
1.55473e-19
1.77377e-19
2.04165e-19
1.73584e-19
1.96603e-19
1.78869e-19
1.89304e-19
1.52707e-19
1.65046e-19
2.12708e-19
1.58185e-19
2.03481e-19
2.91595e-19
2.0195e-19
3.73258e-19
5.06203e-19
4.66657e-19
8.90205e-19
7.05611e-19
1.19712e-18
2.29942e-18
8.72221e-19
3.85953e-18
4.44158e-18
2.95134e-18
3.2452e-18
8.18435e-22
2.11386e-21
5.82844e-22
6.47131e-21
8.98208e-21
3.70103e-21
9.22205e-21
9.59683e-21
4.2268e-21
1.10332e-20
1.01014e-20
4.69762e-21
1.36717e-20
1.42541e-20
5.59317e-21
2.16618e-20
2.52718e-20
1.55725e-20
7.19478e-20
1.18828e-19
1.39808e-19
1.73695e-19
5.42656e-19
6.23379e-19
1.68596e-19
1.50658e-18
2.01771e-18
7.04301e-19
8.69181e-19
-3.97331e-08
6.73042e-08
-1.40897e-07
-7.7071e-08
6.55337e-08
-1.42792e-07
-1.09309e-07
6.08763e-08
-1.4224e-07
-1.36914e-07
5.65195e-08
-1.41369e-07
-1.64377e-07
5.5911e-08
-1.41247e-07
-1.9838e-07
6.38971e-08
-1.50898e-07
-2.32657e-07
8.52154e-08
-2.02671e-07
-2.29175e-07
1.21505e-07
-3.46022e-07
-1.40185e-07
1.79557e-07
-5.86575e-07
2.56659e-07
-8.15396e-07
-8.93818e-08
2.02643e-07
-2.42848e-07
-1.74903e-07
2.00671e-07
-2.57841e-07
-2.51096e-07
1.93119e-07
-2.82915e-07
-3.14359e-07
1.84952e-07
-3.20648e-07
-3.63634e-07
1.79779e-07
-3.69312e-07
-3.9993e-07
1.81833e-07
-4.29269e-07
-4.14376e-07
1.92906e-07
-5.15908e-07
-3.70357e-07
2.1847e-07
-6.67611e-07
-2.29963e-07
3.03297e-07
-9.09855e-07
4.7829e-07
-1.22671e-06
-7.87829e-08
3.23425e-07
-2.23525e-07
-1.53021e-07
3.19209e-07
-2.34282e-07
-2.16696e-07
3.04442e-07
-2.5021e-07
-2.66145e-07
2.85447e-07
-2.71728e-07
-3.01418e-07
2.65467e-07
-2.93896e-07
-3.26339e-07
2.47037e-07
-3.12469e-07
-3.38659e-07
2.29333e-07
-3.3794e-07
-3.14158e-07
2.30633e-07
-4.12107e-07
-2.3441e-07
3.53437e-07
-5.89626e-07
7.10728e-07
-1.0635e-06
-8.07393e-08
4.46696e-07
-2.29511e-07
-1.55802e-07
4.38542e-07
-2.39348e-07
-2.18097e-07
4.12938e-07
-2.52857e-07
-2.63388e-07
3.77387e-07
-2.68575e-07
-2.92725e-07
3.35525e-07
-2.79255e-07
-3.13055e-07
2.90025e-07
-2.79202e-07
-3.28227e-07
2.41912e-07
-2.8052e-07
-3.17751e-07
2.33949e-07
-3.4184e-07
-2.5791e-07
4.42018e-07
-5.68727e-07
1.04374e-06
-1.24224e-06
-9.43798e-08
5.88154e-07
-2.55101e-07
-1.82017e-07
5.75611e-07
-2.68362e-07
-2.55005e-07
5.38362e-07
-2.88508e-07
-3.07795e-07
4.842e-07
-3.12917e-07
-3.41081e-07
4.17177e-07
-3.32054e-07
-3.62283e-07
3.39835e-07
-3.3776e-07
-3.76842e-07
2.52296e-07
-3.36162e-07
-3.64353e-07
2.19194e-07
-3.84027e-07
-2.77476e-07
5.08365e-07
-6.53204e-07
1.32652e-06
-1.37605e-06
-1.105e-07
7.52127e-07
-2.85571e-07
-2.14839e-07
7.36898e-07
-3.03926e-07
-3.0289e-07
6.88066e-07
-3.3414e-07
-3.65806e-07
6.11214e-07
-3.70981e-07
-4.01751e-07
5.09496e-07
-3.99902e-07
-4.19089e-07
3.89808e-07
-4.09937e-07
-4.30808e-07
2.63295e-07
-4.10229e-07
-4.27221e-07
2.12815e-07
-4.52959e-07
-3.36331e-07
5.45452e-07
-7.1286e-07
1.46189e-06
-1.43694e-06
-1.38917e-07
9.53053e-07
-3.27331e-07
-2.72232e-07
9.39338e-07
-3.576e-07
-3.90509e-07
8.87278e-07
-4.12958e-07
-4.80993e-07
7.93635e-07
-4.86749e-07
-5.38882e-07
6.60365e-07
-5.60846e-07
-5.75266e-07
5.08398e-07
-6.25736e-07
-6.04677e-07
3.6742e-07
-7.03026e-07
-6.06592e-07
3.33543e-07
-8.61301e-07
-4.50629e-07
6.77585e-07
-1.25419e-06
1.47051e-06
-1.80439e-06
-1.56095e-07
1.17523e-06
-3.39805e-07
-3.15155e-07
1.17988e-06
-3.85932e-07
-4.70617e-07
1.1495e-06
-4.78018e-07
-5.92166e-07
1.03836e-06
-5.98005e-07
-6.49133e-07
8.24233e-07
-7.00091e-07
-6.43356e-07
5.54189e-07
-7.41293e-07
-6.17029e-07
3.05513e-07
-7.04438e-07
-5.97834e-07
2.54786e-07
-6.93001e-07
-4.38211e-07
7.33322e-07
-1.04167e-06
1.53024e-06
-1.57684e-06
-1.34409e-07
7.69253e-07
-3.08445e-07
-2.91706e-07
8.29219e-07
-3.58335e-07
-4.81461e-07
9.36399e-07
-4.76762e-07
-6.5481e-07
9.93547e-07
-6.60261e-07
-7.4381e-07
8.71873e-07
-8.33951e-07
-7.34455e-07
6.00091e-07
-9.65243e-07
-6.89843e-07
4.60281e-07
-1.15699e-06
-6.2255e-07
5.80352e-07
-1.47866e-06
-4.06348e-07
1.0962e-06
-1.87196e-06
1.75683e-06
-2.17314e-06
-9.69246e-08
-3.66003e-08
-1.76405e-07
-2.62613e-07
-5.16551e-08
-2.36734e-07
-6.40116e-07
-6.98887e-08
-5.72559e-07
-1.3186e-06
1.40307e-07
-1.3227e-06
-2.05557e-06
3.5318e-07
-2.53154e-06
-2.21699e-06
2.68172e-07
-3.42881e-06
-1.78834e-06
-3.58119e-08
-3.77368e-06
-1.05672e-06
-2.7709e-07
-3.56402e-06
-4.4201e-07
-3.16738e-07
-2.66082e-06
-1.3967e-07
-1.99467e-06
-2.61919e-08
-5.20394e-10
-3.23655e-08
-5.70545e-08
-4.54279e-11
-4.30685e-08
-1.20176e-07
-1.26445e-09
-9.36951e-08
-4.4918e-07
4.45669e-10
-4.48321e-07
-5.2244e-07
-5.73231e-12
-6.77962e-07
-3.71002e-07
-1.47429e-11
-6.30199e-07
-1.29953e-07
-1.98259e-11
-2.30133e-07
-8.54446e-08
-2.07932e-11
-1.44626e-11
-7.86518e-08
-9.93998e-12
4.77855e-08
-2.55504e-12
2.38706e-08
2.62775e-10
2.6405e-11
-1.7573e-09
-1.21349e-11
2.84664e-11
2.19174e-10
-3.03657e-10
-1.19721e-11
-1.08894e-10
-3.48769e-13
-1.79269e-10
-3.32061e-13
-4.14627e-13
-3.62134e-12
-1.02819e-12
-3.45209e-13
-1.08569e-11
-2.29703e-12
-4.58799e-16
-1.65888e-11
-6.15405e-12
1.94095e-13
-4.94124e-12
-1.77277e-11
3.14896e-14
-4.48601e-13
-9.98857e-12
-7.43945e-13
-1.88837e-12
8.53762e-11
3.5822e-12
-9.5217e-11
9.26784e-11
2.01229e-12
5.53844e-11
1.00178e-10
-4.45039e-12
7.57705e-11
2.42114e-11
-8.49018e-12
2.50179e-11
1.25528e-11
1.55351e-12
1.96149e-12
1.54271e-12
-1.77549e-12
5.02217e-12
2.64067e-12
-2.43458e-12
6.78152e-13
4.83193e-13
-2.71956e-13
-2.84421e-13
-2.34834e-14
-1.23353e-13
-1.5692e-14
-1.10933e-13
-7.44738e-13
4.53303e-12
1.75083e-13
-1.35643e-12
5.62209e-12
1.28562e-13
3.32503e-12
2.93388e-12
-2.41775e-13
3.06035e-12
6.80831e-13
-1.44941e-13
7.04219e-13
6.90379e-13
-7.7015e-14
8.23002e-13
3.31022e-13
-6.36833e-15
2.6888e-13
1.1416e-13
-1.97964e-14
2.08797e-13
6.49197e-14
-3.23772e-14
2.2661e-14
2.63168e-14
-1.13598e-13
-1.68995e-15
-1.64152e-13
-6.58646e-16
1.23051e-13
4.65749e-15
8.66343e-14
2.24111e-13
5.00604e-15
1.52176e-13
8.33565e-14
-8.75924e-15
8.83465e-14
2.65884e-14
-4.62201e-15
2.73575e-14
5.34857e-15
-1.73603e-15
1.10928e-14
2.20099e-15
-2.36453e-16
4.77283e-15
6.04836e-15
-5.38429e-17
3.10486e-15
2.8318e-14
-3.9288e-16
2.33982e-15
6.33529e-14
-5.94665e-15
4.70182e-15
-1.9565e-14
1.78278e-14
2.52943e-15
8.38776e-17
4.04141e-15
6.64116e-15
1.07812e-16
5.72941e-15
1.9832e-15
-3.16959e-16
2.29164e-15
4.9871e-16
-1.37149e-16
5.14208e-16
8.29471e-17
-1.08692e-18
4.50707e-17
4.66967e-17
7.71324e-18
1.09678e-17
9.48009e-17
4.25903e-18
7.69206e-18
5.88525e-16
-9.35394e-18
1.91251e-17
2.62392e-15
-7.78209e-17
2.08433e-16
1.12911e-16
6.3542e-16
5.11305e-17
7.10466e-19
1.04858e-16
1.82171e-16
4.41326e-18
1.87536e-16
4.09944e-17
4.35903e-18
5.87754e-17
8.58891e-18
3.81748e-18
8.80114e-18
6.13939e-18
4.1049e-18
5.72316e-18
4.68121e-18
6.00445e-18
4.80989e-18
2.72466e-18
4.32801e-18
7.73003e-18
1.19542e-17
1.18444e-17
1.50596e-17
2.95145e-17
9.41594e-18
1.24952e-17
-1.12644e-17
3.62944e-17
9.99893e-19
5.38325e-19
2.35117e-18
4.7539e-18
1.88244e-18
5.63675e-18
1.48786e-18
1.04046e-18
1.99184e-18
1.16775e-18
1.00851e-18
1.20937e-18
1.32885e-18
1.03471e-18
1.54486e-18
1.67818e-18
1.68556e-18
1.54541e-18
2.34707e-18
4.55231e-18
2.28721e-18
3.61641e-18
1.04496e-17
1.06319e-17
2.34055e-18
8.21805e-18
9.08557e-18
1.48987e-18
1.17018e-17
4.02027e-20
6.7915e-20
1.01472e-19
2.24538e-19
2.35513e-19
3.05192e-19
1.6062e-19
1.53474e-19
1.96686e-19
1.60268e-19
1.14575e-19
1.66803e-19
1.84439e-19
1.19298e-19
2.09867e-19
3.80266e-19
3.75007e-19
4.07197e-19
1.20335e-18
2.007e-18
1.65576e-18
1.8742e-18
8.17186e-18
7.61088e-18
7.19006e-19
4.46755e-18
4.51063e-18
1.0067e-18
2.0926e-18
1.4256e-21
4.15366e-21
9.56099e-22
9.74764e-21
1.49732e-20
5.30858e-21
9.73948e-21
1.16364e-20
4.69607e-21
9.88676e-21
1.04171e-20
4.04156e-21
1.72351e-20
1.67122e-20
1.52336e-20
1.40353e-19
1.23211e-19
2.29179e-19
7.26225e-19
9.03834e-19
1.56842e-18
1.48778e-18
5.30014e-18
7.75729e-18
2.86081e-19
3.18534e-18
2.92073e-18
1.32304e-18
6.89593e-19
-4.05913e-08
5.96655e-08
-1.59971e-07
-7.82175e-08
5.83251e-08
-1.63491e-07
-1.09677e-07
5.53665e-08
-1.66146e-07
-1.36527e-07
5.59912e-08
-1.70511e-07
-1.6932e-07
6.81231e-08
-1.76577e-07
-2.28231e-07
1.04175e-07
-1.96161e-07
-3.05958e-07
1.75435e-07
-3.00379e-07
-3.16944e-07
3.14015e-07
-6.49054e-07
-1.73668e-07
6.06356e-07
-1.33625e-06
9.0818e-07
-1.94224e-06