/*--------------------------------*- C++ -*----------------------------------*\
| =========                 |                                                 |
| \\      /  F ield         | OpenFOAM: The Open Source CFD Toolbox           |
|  \\    /   O peration     | Version:  2312                                  |
|   \\  /    A nd           | Website:  www.openfoam.com                      |
|    \\/     M anipulation  |                                                 |
\*---------------------------------------------------------------------------*/
FoamFile
{
    version     2.0;
    format      ascii;
    arch        "LSB;label=32;scalar=64";
    class       volScalarField;
    location    "0.84";
    object      p_rgh;
}
// * * * * * * * * * * * * * * * * * * * * * * * * * * * * * * * * * * * * * //

dimensions      [1 -1 -2 0 0 0 0];

internalField   nonuniform List<scalar> 
8000
(
408.19
408.341
408.242
408.029
407.902
407.938
408.108
408.337
408.54
408.637
407.593
407.831
407.677
407.466
407.404
407.539
407.818
408.138
408.397
408.527
406.37
406.75
406.34
406.097
406.236
406.65
407.204
407.759
408.188
408.383
404.343
404.778
403.842
403.514
404.06
405.062
406.157
407.164
407.964
408.255
400.836
400.626
399.356
399.354
400.684
402.733
404.686
406.249
407.479
407.896
393.756
392.521
392.073
393.327
395.905
399.457
402.624
404.798
406.48
406.768
382.579
379.124
380.226
383.002
388.41
395.334
400.305
401.357
399.485
392.536
245.352
209.799
213.277
216.556
260.709
322.24
327.614
303.379
324.37
341.514
2.04925
0.263936
0.269041
0.282092
4.30457
51.2446
148.906
189.99
240.452
241.191
0.2174
0.226552
0.232015
0.227882
0.234089
0.204196
16.9077
42.6567
40.7685
28.6395
0.22618
0.229302
0.221629
0.209981
0.18682
0.101484
0.017207
0.0438253
0.0372363
0.0118072
0.229837
0.227717
0.212747
0.201443
0.140836
0.0847402
0.0530815
0.0640851
0.0465688
0.046718
0.220048
0.199916
0.188734
0.18822
0.12326
0.0722288
0.0754768
0.0803786
0.0597747
0.0743755
0.173992
0.13242
0.140083
0.168759
0.101919
0.0628396
0.0834907
0.0787495
0.0858432
0.115125
0.109623
0.0896888
0.109337
0.131631
0.0843673
0.0595708
0.0806511
0.0785457
0.103887
0.141687
0.075932
0.0672498
0.0827084
0.0886877
0.0738427
0.0733132
0.0771643
0.073759
0.113303
0.147564
0.0868643
0.0562514
0.060728
0.0638966
0.0738409
0.0825166
0.077193
0.0696541
0.10346
0.134382
0.110589
0.0524985
0.0511864
0.0561739
0.074177
0.0837193
0.0684317
0.0709596
0.0913597
0.110771
0.126794
0.0561687
0.0575412
0.0631374
0.0731246
0.0765507
0.0725835
0.0702288
0.0773189
0.0843639
0.131548
0.064352
0.0664402
0.0702538
0.0764029
0.0833537
0.0823757
0.0701354
0.0624939
0.0631157
408.384
408.761
408.721
408.418
408.19
408.164
408.299
408.503
408.682
408.772
407.909
408.581
408.516
408.104
407.821
407.835
408.05
408.326
408.549
408.652
406.911
407.957
407.751
407.19
406.915
407.086
407.528
408.01
408.361
408.494
405.148
406.325
405.516
404.878
404.983
405.65
406.587
407.503
408.19
408.46
401.707
402.47
400.945
400.659
401.733
403.442
405.233
406.736
407.715
407.934
393.915
393.713
393.015
394.191
396.672
399.922
403.281
405.718
406.827
406.863
377.623
362.728
366.195
377.685
387.797
394.203
399.635
402.587
403.238
401.355
198.794
122.798
129.895
166.68
243.704
323.074
370.923
378.561
386.349
395.152
0.222104
0.216122
0.240094
0.253565
0.311769
24.8893
88.4003
137.705
177.45
164.302
0.210092
0.199529
0.207054
0.198168
0.188358
0.133563
2.32345
21.4018
15.9294
0.416254
0.199987
0.206893
0.213631
0.176191
0.116456
0.070268
0.00701221
-0.0101693
0.0384798
0.0644569
0.206206
0.196054
0.188224
0.166228
0.076584
0.0205656
0.013296
0.0116991
0.0207456
0.0394496
0.183144
0.156116
0.154559
0.140699
0.0585415
0.00518385
0.0218468
0.0357241
0.0416128
0.0565197
0.119994
0.0877796
0.0986343
0.0962959
0.0447667
0.00600049
0.0320294
0.0428719
0.0560592
0.0931427
0.0525861
0.0566892
0.0762253
0.068767
0.0371767
0.0167731
0.0434781
0.0488323
0.0766861
0.147075
0.0316342
0.0303417
0.0501811
0.049
0.0401427
0.0323141
0.0454695
0.0568938
0.106732
0.164655
0.0553934
0.0116635
0.0279184
0.0328504
0.0433066
0.0440706
0.0417718
0.0623649
0.12319
0.17429
0.0929942
0.00721075
0.0085061
0.0178045
0.035981
0.0423745
0.0429548
0.0624448
0.114056
0.173487
0.107983
0.0178705
0.0130041
0.0217759
0.0336117
0.0365156
0.0425246
0.0575951
0.0982581
0.143354
0.110741
0.0438537
0.0387802
0.0435216
0.0472816
0.047651
0.0504673
0.0555087
0.0719077
0.0582734
408.33
408.764
408.828
408.611
408.423
408.409
408.541
408.732
408.893
408.968
407.825
408.59
408.705
408.411
408.159
408.159
408.341
408.576
408.754
408.825
406.626
407.909
408.177
407.801
407.489
407.577
407.931
408.303
408.526
408.582
404.41
405.892
406.183
405.937
405.906
406.379
407.149
407.885
408.297
408.361
400.686
401.868
401.642
401.939
402.959
404.386
405.824
406.804
407.354
407.506
393.682
394.064
393.844
395.365
398.19
401.533
404.552
406.436
407.02
406.676
378.749
364.37
371.251
383.46
391.283
397.009
400.391
401.248
401.478
402.494
205.179
125.026
149.215
212.882
297.912
365.231
377.348
365.35
361.749
366.758
0.199763
0.211284
0.243415
0.313982
13.7804
58.6958
123.525
160.193
137.842
118.918
0.178909
0.171865
0.180552
0.14713
0.0653215
0.0705564
0.0593088
2.74083
7.19904
0.180733
0.157895
0.14884
0.149158
0.0897934
0.0223142
-0.00485764
-0.0212512
-0.0466504
-0.00126864
0.0329143
0.142307
0.129412
0.132307
0.0734556
0.011397
-0.0206515
-0.0225675
-0.0290412
0.00083877
0.0395703
0.10437
0.0904428
0.08809
0.0601717
0.0105845
-0.0182123
0.00101119
0.00537417
0.0271843
0.0660929
0.0692162
0.0749637
0.0626018
0.0423419
0.00560022
-0.0122492
0.0174393
0.0292656
0.0411577
0.0701557
0.03636
0.039343
0.0359469
0.024649
0.000284727
-0.00598371
0.022256
0.0390667
0.0487167
0.0691287
0.00469303
-0.00218791
0.0162815
0.0144109
0.00455023
0.00357263
0.0196392
0.0360847
0.0424609
0.0628619
0.0208276
-0.0256379
0.00159192
0.00369895
0.0032358
0.002221
0.00628776
0.0137904
0.0192378
0.0422179
0.0301271
-0.0352487
-0.0202559
-0.0158649
-0.0179402
-0.0229766
-0.0277559
-0.0256885
-0.00585774
0.0316273
0.0318889
-0.0303103
-0.0331416
-0.0291009
-0.0340339
-0.0454407
-0.0523807
-0.0470498
-0.0108048
0.0651266
0.046075
-0.00193334
-0.014949
-0.0146025
-0.0181142
-0.0300201
-0.0351458
-0.0254745
0.0169319
0.0865132
408.137
408.492
408.647
408.606
408.57
408.646
408.819
409.022
409.175
409.238
407.632
408.216
408.46
408.41
408.356
408.453
408.654
408.873
409.027
409.075
406.39
407.394
407.872
407.88
407.835
408.025
408.35
408.646
408.819
408.824
404.034
405.337
406.1
406.402
406.63
407.147
407.828
408.329
408.484
408.41
400.391
401.727
402.39
403.258
404.314
405.489
406.424
407.114
407.444
407.406
394.666
395.651
396.031
397.833
400.633
403.509
405.536
406.377
406.329
405.817
382.838
376.906
383.177
389.822
395.05
398.614
399.107
399.919
401.489
401.638
221.466
164.997
209.06
287.419
351.773
369.528
348.04
342.629
344.638
337.734
0.203243
0.205778
0.242432
7.99849
36.4629
103.416
162.014
147.176
109.872
80.899
0.152061
0.14142
0.137854
0.0644436
0.0145547
0.0217766
0.0273078
0.032007
0.417702
0.510636
0.118865
0.0951872
0.0807347
0.013257
-0.0258175
-0.0122535
-0.0220969
-0.0474929
0.0148349
0.119299
0.099262
0.0755302
0.0617242
0.0174083
-0.00101872
-0.00198918
0.00700796
-0.0341016
0.0073463
0.0619722
0.0709732
0.0602134
0.0504507
0.0283384
0.0128106
0.0074725
0.028579
0.0171751
0.032317
0.0509065
0.0558318
0.0632152
0.0342514
0.0188783
-0.00223571
0.00896372
0.0382021
0.0437849
0.0380275
0.0398108
0.0229554
0.0330848
0.0101612
0.00429233
-0.010533
0.00835638
0.0382891
0.0429859
0.0352825
0.0267054
-0.00433455
-0.0235152
-0.00583015
-0.00772395
-0.0110919
0.00303002
0.0227094
0.0168661
-0.000666991
-0.0147232
-0.0098188
-0.0325747
-0.00913753
-0.021516
-0.0285264
-0.028779
-0.0330597
-0.0532598
-0.0801965
-0.0797299
-0.00771255
-0.0385796
-0.0274851
-0.042564
-0.0711787
-0.0958714
-0.114912
-0.143184
-0.151987
-0.113143
-0.00637593
-0.0439176
-0.052412
-0.069378
-0.105598
-0.142904
-0.164968
-0.174008
-0.151806
-0.0555816
0.00955456
-0.030353
-0.0501682
-0.066009
-0.0861292
-0.113653
-0.128136
-0.118733
-0.0539921
0.0366034
408.016
408.29
408.504
408.625
408.751
408.942
409.177
409.401
409.554
409.609
407.553
407.952
408.255
408.418
408.572
408.788
409.037
409.269
409.415
409.445
406.454
407.107
407.612
407.909
408.16
408.488
408.84
409.132
409.252
409.186
404.367
405.313
406.097
406.727
407.299
407.964
408.54
408.861
408.899
408.707
401.204
402.432
403.36
404.467
405.576
406.589
407.362
407.932
407.998
407.698
396.792
398.055
398.945
400.922
403.396
405.585
406.797
407.128
406.608
405.128
388.227
388.184
391.174
395.199
398.72
400.975
401.424
402.943
402.837
401.261
244.553
222.847
279.384
339.911
364.89
374.135
362.239
373.005
354.71
325.912
0.175938
0.168531
5.48624
27.4646
78.0494
174.167
192.734
159.343
100.25
58.6813
0.105107
0.0837423
0.0526941
0.00435801
-0.00713508
0.0124773
3.96504
0.628162
0.741834
0.762362
0.102375
0.0384413
0.0143295
-0.0271152
-0.00779524
0.0186345
-0.0162572
0.0509701
0.170094
0.213548
0.0672165
0.0356889
0.0128164
-0.00966741
0.00123389
0.0177252
0.0293796
0.0465404
0.0624508
0.076124
0.0528508
0.0307407
0.0202479
0.014245
0.0198291
0.0302098
0.0446096
0.0487346
0.0331778
0.0343417
0.0351874
0.0332031
0.0191292
0.015695
0.00782871
0.0339228
0.0499861
0.0520476
0.0344854
0.0283999
0.0220082
0.0301519
0.0107094
0.0069708
0.00469541
0.027863
0.0528008
0.0597631
0.0537542
0.0303665
-0.00246383
-0.0167496
-0.0114174
-0.0104758
-0.000839072
0.0207119
0.0412583
0.0404775
0.020049
-0.0204212
-0.0170582
-0.0181727
-0.0175342
-0.0319707
-0.0339647
-0.022278
-0.0165443
-0.0345188
-0.0768481
-0.109981
-0.000847943
-0.00435757
-0.0124933
-0.0488946
-0.0791548
-0.0927097
-0.101469
-0.133695
-0.163684
-0.126739
0.00117867
-0.0147287
-0.0339831
-0.0753558
-0.110446
-0.13012
-0.143251
-0.15928
-0.128891
-0.0508225
0.0248619
-0.0170159
-0.0423601
-0.0700576
-0.0847186
-0.0928474
-0.100184
-0.064554
-0.00577211
0.0409587
408.06
408.295
408.552
408.789
409.043
409.33
409.614
409.86
410.022
410.073
407.667
407.978
408.313
408.609
408.902
409.216
409.525
409.787
409.933
409.956
406.776
407.244
407.751
408.202
408.622
409.052
409.448
409.74
409.812
409.68
405.102
405.802
406.588
407.384
408.128
408.794
409.295
409.592
409.54
409.22
402.571
403.577
404.634
405.809
406.91
407.875
408.622
409.054
408.834
408.251
399.077
400.309
401.835
404.031
406.035
407.341
407.948
408.308
407.489
405.799
393.642
394.981
397.1
400.475
403.47
404.991
405.256
406.003
404.183
401.91
263.981
274.29
330.536
369.678
390.7
392.849
389.063
390.681
357.577
329.399
1.58359
3.33157
21.9622
70.1304
157.44
222.748
212.237
175.596
96.3634
54.3895
0.0371249
0.01519
-0.00896581
-0.0362908
0.502283
3.30271
4.28757
1.98102
0.963497
0.57844
0.0746831
-0.00189593
-0.0299571
-0.037354
-0.017178
0.0295718
0.0731098
0.250325
0.283014
0.173777
0.0482966
0.00413175
-0.0241365
-0.0268941
-0.0243085
0.0108599
0.070829
0.119299
0.0970888
0.0535134
0.0544485
0.0198691
0.003684
0.00906381
0.00845883
0.0217251
0.0559494
0.0776282
0.0400791
0.0151987
0.0289161
0.0198271
0.00961749
0.0211198
0.0264803
0.0364344
0.0524189
0.0816929
0.0658669
0.0420438
0.0306889
0.0413486
0.0218903
0.0200079
0.0290682
0.0412932
0.0631719
0.0968091
0.109749
0.0722633
0.0242389
0.0161813
0.0199615
0.00596138
0.019454
0.0356255
0.0608546
0.0819962
0.0798845
0.029632
-0.000252413
-0.0090903
-0.00574619
-0.0125391
-0.0100355
0.000934879
0.0157924
0.0194898
-0.0113081
-0.0247127
0.0132471
7.40504e-05
-0.0118738
-0.0223885
-0.0374595
-0.0367881
-0.0325725
-0.0393079
-0.0543378
-0.0213458
0.0281372
0.00969653
-0.012533
-0.0302744
-0.050064
-0.0496012
-0.0442061
-0.0417789
-0.0265172
0.0152432
0.0657416
0.00921278
-0.0200616
-0.0313581
-0.0417472
-0.0317575
-0.0249965
-0.00417043
0.0390614
0.0896358
408.255
408.474
408.766
409.08
409.419
409.765
410.084
410.354
410.518
410.544
407.94
408.218
408.578
408.949
409.326
409.711
410.071
410.366
410.513
410.512
407.28
407.676
408.183
408.698
409.195
409.665
410.082
410.39
410.435
410.222
406.022
406.627
407.434
408.274
408.999
409.6
410.092
410.409
410.317
409.786
404.158
405.068
406.223
407.361
408.364
409.01
409.614
410.056
409.817
408.457
400.799
402.207
404.654
406.784
408.004
408.222
408.667
409.1
408.449
406.647
398.815
400.326
403.095
406.648
409.518
408.806
408.616
408.338
406.178
403.741
288.657
321.175
374.65
405.532
412.787
399.397
404.201
398.464
372.421
349.079
18.8756
32.2497
90.2552
180.63
255.669
258.301
244.625
201.348
129.426
77.7846
0.0393844
0.0575974
-0.00723537
1.82741
8.94
10.9564
9.08937
4.58311
1.25701
0.494833
0.0549217
-0.0155987
-0.0487763
-0.0432447
-0.0244478
0.0248322
0.0556122
0.230871
0.366988
0.139184
0.0529976
-0.00700533
-0.0406105
-0.0488801
-0.0486101
-0.0180783
0.0359771
0.104856
0.115056
0.0392443
0.0723492
0.0259986
0.0017725
0.00952219
0.0140376
0.0193442
0.0380515
0.0736502
0.0599738
0.0110646
0.0493844
0.0334052
0.0157566
0.0279394
0.0496718
0.0607208
0.0656669
0.0947978
0.10536
0.0673551
0.02947
0.0440651
0.0289045
0.0340104
0.0528504
0.0657057
0.0839563
0.11767
0.140842
0.110368
0.0401253
0.0570435
0.0527329
0.0312545
0.0443107
0.0594851
0.0801106
0.105185
0.110827
0.0749105
0.0542401
0.0372326
0.029152
0.0147345
0.0200885
0.0314826
0.0464435
0.0568334
0.0453556
0.0279442
0.0609949
0.0291113
0.0194832
-0.00854093
-0.0046495
0.00687014
0.0152809
0.0204283
0.00876441
0.00869497
0.0642348
0.00796148
-0.0153808
-0.019508
-0.0134818
-0.000502677
0.00634036
0.012296
0.010564
0.0188456
0.0385025
0.0139187
-0.0100144
-0.0201282
-0.00871652
0.00865258
0.016605
0.0250019
0.0400942
0.0550141
408.519
408.731
409.047
409.411
409.799
410.184
410.531
410.812
410.969
410.96
408.291
408.543
408.919
409.332
409.762
410.194
410.595
410.909
411.06
411.025
407.839
408.2
408.697
409.24
409.765
410.229
410.658
410.975
411.001
410.755
407.014
407.574
408.327
409.126
409.804
410.287
410.748
411.089
410.963
410.273
405.938
406.718
407.81
408.794
409.473
409.516
410.068
410.686
410.501
408.653
403.196
404.919
407.401
409.128
409.366
408.166
408.958
409.559
408.902
406.861
401.767
404.284
407.96
410.723
410.442
403.897
410.961
410.135
407.612
404.783
317.877
359.886
407.605
414.491
416.946
396.285
404.936
403.503
383.468
357.704
62.5348
105.643
207.561
296.021
314.626
287.99
270.357
233.742
155.826
91.5845
0.13708
0.0538536
0.972113
11.855
17.3456
20.9706
22.1953
12.6584
1.56894
0.658068
0.0928669
0.0108994
-0.0601973
-0.0613815
-0.0470984
0.0132102
0.0719599
0.274672
0.265318
0.133467
0.0797449
0.000182247
-0.0489038
-0.0693113
-0.0676192
-0.0127776
0.0479069
0.105632
0.0747963
0.0345507
0.0945878
0.0405677
0.00692329
0.0116457
0.0298316
0.0416273
0.0531478
0.0768285
0.0522057
0.0234999
0.0740763
0.0532916
0.0328405
0.0631874
0.0784573
0.101174
0.104054
0.116531
0.118613
0.0918044
0.0545066
0.0580308
0.0441167
0.0984193
0.0764938
0.103182
0.119256
0.134434
0.144906
0.122749
0.0428488
0.0599078
0.0501026
0.0506399
0.0652323
0.0943106
0.097611
0.113048
0.107122
0.0912538
0.0435998
0.0691851
0.0556058
0.0312657
0.0639864
0.0939147
0.0651324
0.0704305
0.054869
0.0618
0.0399975
0.0570452
0.0467131
0.0135294
0.0577362
0.080264
0.039168
0.0396587
0.0290858
0.0360255
0.0301581
0.0324519
0.0291067
0.00176679
0.0357957
0.0717435
0.0322527
0.0309812
0.0313069
0.0279297
0.0343941
0.0254477
0.0120337
-0.006824
0.0240868
0.0602145
0.0452082
0.0398686
0.049325
0.0541368
408.736
408.949
409.283
409.673
410.09
410.503
410.866
411.145
411.291
411.29
408.577
408.823
409.2
409.636
410.095
410.558
410.985
411.31
411.483
411.448
408.265
408.605
409.1
409.65
410.176
410.635
411.063
411.355
411.415
411.223
407.703
408.249
408.95
409.686
410.29
410.746
411.203
411.428
411.268
410.715
406.91
407.758
408.779
409.522
409.872
410.018
410.633
410.537
410.144
409.208
405.131
406.732
408.875
409.665
408.831
408.087
409.506
409.345
408.266
406.469
404.591
406.965
409.927
410.858
410.378
410.05
411.619
410.055
406.771
403.624
346.797
390.449
413.427
414.888
412.826
408.486
415.85
399.419
375.484
349.177
96.1809
166.622
249.053
271.219
257.308
270.578
281.317
225.351
123.199
72.0474
0.397949
0.113138
1.76816
0.755358
6.70449
17.4752
26.4688
9.8333
0.951173
0.520578
0.132518
0.0455657
-0.0698554
-0.0659182
-0.0498964
0.0608719
0.320261
0.273723
0.139742
0.106264
0.109149
0.00875976
-0.0707772
-0.0974788
-0.0673985
0.0119546
0.0912247
0.0679875
0.0103194
0.0351099
0.108332
0.0541078
0.0141947
0.00952311
0.0407901
0.0683111
0.0782124
0.0556606
0.026675
0.0455607
0.0904202
0.0980382
0.160436
0.100258
0.106667
0.139206
0.137805
0.115014
0.104809
0.107272
0.0733855
0.0686725
0.13259
0.319971
0.135055
0.132355
0.14343
0.138133
0.126615
0.128762
0.0639869
0.0606474
0.0600081
0.0691356
0.080757
0.134389
0.109274
0.10405
0.105341
0.111554
0.0537974
0.0534077
0.0504281
0.0532005
0.0841349
0.136644
0.109894
0.0732439
0.07967
0.0290292
0.03692
0.0461126
0.0431308
0.0382547
0.110464
0.119204
0.121593
0.046616
0.0368642
0.0166537
0.0314247
0.035919
0.0338574
0.0423644
0.104519
0.112357
0.0718994
0.0402299
0.036582
0.0316432
0.038204
0.0370724
0.03075
0.0731924
0.107387
0.115992
0.0469977
0.0462757
0.0535973
0.0532409
408.815
409.027
409.365
409.767
410.2
410.633
410.992
411.236
411.394
411.312
408.692
408.927
409.299
409.743
410.223
410.726
411.16
411.445
411.607
411.153
408.442
408.763
409.246
409.797
410.315
410.799
411.183
411.387
411.453
410.706
407.989
408.497
409.132
409.837
410.469
410.968
411.297
411.253
411.025
409.343
407.273
408.022
408.934
409.676
410.26
410.815
410.986
410.249
409.591
406.553
405.399
406.923
408.64
409.059
408.889
409.545
409.788
408.548
406.787
404.385
405.302
406.894
408.715
408.042
407.927
409.794
410.066
407.297
403.55
400.724
349.932
395.832
410.344
402.724
404.414
413.784
403.686
377.642
346.31
325.969
86.3466
145.39
183.171
176.259
192.478
221.169
217.632
137.307
70.4383
46.325
0.414125
0.11082
0.37558
0.289031
1.10209
4.74431
7.55189
1.19506
0.517481
0.319564
0.181849
0.0486112
-0.0354844
-0.0438771
0.0265566
0.161824
0.320456
0.171259
0.0638985
0.0994699
0.122103
0.0123689
-0.0765552
-0.120931
-0.0646078
0.0353222
0.0709527
-0.00395794
-0.0110725
0.0638567
0.111113
0.113529
0.0258205
-0.000232785
0.0286854
0.0741678
0.0658572
0.010755
0.0175699
0.0784022
0.095181
0.225313
0.280824
0.081841
0.107609
0.13824
0.121423
0.0840641
0.0738759
0.093759
0.076306
0.107998
0.316466
0.324637
0.333162
0.127228
0.130034
0.0982093
0.0862872
0.0965834
0.0600413
0.0715925
0.150495
0.280319
0.190894
0.0942714
0.0983592
0.0932593
0.0936165
0.081604
0.0477835
0.0495168
0.0657826
0.0609596
0.060438
0.0652277
0.0845589
0.0683288
0.0887883
0.0161417
0.0431028
0.046196
0.0498111
0.0572867
0.0472699
0.0494863
0.121183
0.0938621
0.0765135
0.0209346
0.0431609
0.0453848
0.0498865
0.0437571
0.0406569
0.0426144
0.119736
0.117817
0.0535926
0.0344533
0.0486034
0.0485673
0.0529512
0.0475513
0.0399399
0.0786212
0.124386
0.127709
0.0804062
0.0492054
408.724
408.928
409.252
409.636
410.053
410.472
410.811
411.054
411.223
411.177
408.594
408.815
409.16
409.587
410.049
410.529
410.938
411.206
411.378
411.221
408.334
408.637
409.088
409.608
410.098
410.526
410.862
411.063
411.175
410.818
407.809
408.294
408.846
409.499
410.102
410.542
410.754
410.711
410.606
408.521
406.851
407.515
408.297
409.088
409.757
410.132
410.037
409.39
408.816
405.298
404.819
405.978
407.326
408.199
408.765
408.947
408.313
406.976
405.44
401.92
401.885
403.491
405.891
406.111
406.885
407.574
406.869
404.465
401.081
398.447
316.577
369.523
390.048
386.418
397.079
396.542
385.746
359.477
324.437
304.224
57.0056
98.1125
135.44
142.459
155.84
157.909
153.472
90.5823
46.6799
31.5
0.481904
0.2323
0.131367
0.239173
0.435974
0.858423
1.23196
0.533851
0.307261
0.291214
0.250837
0.0983558
0.0129171
-0.0100456
0.0706082
0.23131
0.237539
0.059121
0.0582404
0.135377
0.155024
0.0639637
0.0881982
-0.106333
-0.0543323
0.0323462
0.0139516
-0.0438679
0.012043
0.104934
0.10978
0.365917
0.139788
-0.0236232
0.000805068
0.043686
0.00944882
-0.0289767
0.0100663
0.0938809
0.208504
0.438438
0.265976
0.0892768
0.076323
0.0897075
0.057152
0.0236347
0.0232802
0.0795599
0.449997
0.454283
0.456383
0.266026
0.188391
0.140975
0.0656055
0.0378697
0.0470579
0.0125343
0.462373
0.473817
0.481856
0.507454
0.411567
0.166294
0.0522837
0.0377535
0.0496123
-0.00504706
0.472424
0.44179
0.485022
0.0909499
0.0555746
0.0451801
0.0415732
0.0276678
0.0203123
-0.00322819
0.293817
0.124813
0.358174
0.153358
0.0418142
0.0362597
0.039415
0.0558893
0.0138935
0.00213683
0.0474676
0.0590057
0.135981
0.143848
0.0436575
0.0337016
0.0416541
0.0998068
0.0331
0.0106497
0.0540102
0.0655637
0.158438
0.0952004
0.038146
0.0352134
0.0468951
0.0851557
0.0395667
0.0235436
408.474
408.67
408.958
409.3
409.669
410.039
410.358
410.62
410.812
410.905
408.31
408.507
408.83
409.203
409.605
410.013
410.374
410.663
410.871
410.951
407.986
408.269
408.691
409.151
409.593
409.978
410.264
410.444
410.571
410.573
407.354
407.787
408.279
408.864
409.407
409.813
410.02
410.02
409.979
409.696
406.299
406.885
407.474
408.172
408.748
409.18
409.108
408.522
407.959
407.408
404.005
404.976
406.091
406.916
407.427
407.703
407.131
405.718
404.126
403.053
399.423
400.127
402.527
403.758
404.724
405.336
404.703
402.475
399.315
396.724
295.454
346.16
365.855
369.305
375.123
379.943
372.641
348.088
312.387
288.328
59.6014
71.7922
113.746
135.716
133.011
135.404
126.011
74.5068
38.5937
24.8349
0.355017
0.275658
0.254951
0.291337
0.513253
0.71665
0.523719
0.204186
0.277186
0.431509
0.371516
0.140285
0.156647
0.0632961
0.103008
0.242409
0.110456
0.0113299
0.0811596
0.215329
0.179223
0.0628235
0.133448
-0.0211221
-0.0450316
0.0202541
-0.0300077
-0.0425404
0.0341522
0.129498
0.110364
0.193766
0.2025
-0.0459434
-0.026731
-0.00586589
-0.0421503
-0.0501329
-0.0073202
0.104508
0.353159
0.351389
0.139844
0.073946
0.0365634
0.00830595
-0.0296384
-0.047343
-0.0218626
0.0242534
0.437682
0.358498
0.11598
0.125737
0.0389685
0.0294683
-0.0375597
-0.0600233
-0.0249754
-0.0581168
0.461516
0.471029
0.120467
0.278697
0.378499
0.306892
0.0688111
-0.0348141
-0.0552094
-0.0632024
0.32926
0.545171
0.315646
0.0998647
0.263263
0.232987
0.0195464
-0.0177136
-0.0455431
-0.0623252
0.161876
0.585781
0.53381
0.158224
0.0224125
0.0106527
0.00169906
-0.00841094
-0.0420551
-0.0685679
0.173383
0.637572
0.625157
0.27813
0.0380672
0.0150401
0.00438217
-0.0110295
-0.044635
-0.0773681
0.417567
0.679807
0.674914
0.236891
0.0276443
0.0205504
0.0100011
-0.0117787
-0.0408512
-0.0681839
408.122
408.304
408.56
408.854
409.17
409.492
409.788
410.057
410.274
410.391
407.925
408.133
408.415
408.718
409.048
409.395
409.713
409.988
410.204
410.31
407.522
407.815
408.189
408.583
408.956
409.296
409.556
409.733
409.848
409.821
406.802
407.204
407.638
408.147
408.603
408.949
409.14
409.18
409.211
408.967
405.675
406.286
406.706
407.274
407.792
408.147
408.149
407.791
407.365
406.963
403.426
404.282
405.428
406.085
406.506
406.679
406.302
405.381
403.925
403.204
398.978
399.698
400.871
401.691
402.731
403.872
403.915
402.462
399.654
397.625
301.575
353.949
350.524
345.505
352.541
369.36
367.988
351.275
323.158
298.53
86.8653
72.0365
109.732
128.61
127.345
136.565
120.271
80.5517
45.7728
28.8317
0.21785
0.162185
0.155908
0.124444
0.326736
0.603635
0.361207
0.140091
0.309667
0.554916
0.291278
0.129315
0.167427
0.00153585
0.0636965
0.206391
0.0566341
-0.00155172
0.0961409
0.267554
0.119961
0.0666508
0.13625
-0.037833
-0.0507061
0.000872749
-0.0495573
-0.0448056
0.0233599
0.126695
0.0759611
0.0683936
0.0125178
-0.0418613
-0.0433502
-0.044153
-0.075555
-0.0705315
-0.0444271
0.0242809
0.197294
0.0644912
0.0661421
0.0588545
0.0123793
-0.0587664
-0.106612
-0.109846
-0.0787598
-0.0649851
0.228795
0.0562827
0.0783963
0.105224
0.019791
-0.115869
-0.0890734
-0.136353
-0.12709
-0.128057
0.0838769
0.0368267
0.0445829
0.246749
0.204995
0.218666
0.180337
-0.0779619
-0.126889
-0.135919
0.02824
0.0319708
0.0318536
0.0905666
0.343026
0.325202
0.198113
-0.069608
-0.111613
-0.150169
0.0303576
0.038365
0.0346088
0.0337027
0.188217
0.0897626
-0.031342
-0.0700734
-0.120669
-0.175555
0.0629558
0.0648787
0.0505792
0.129576
0.100658
0.0653827
-0.0240702
-0.0786138
-0.138864
-0.184112
0.117883
0.101656
0.0660716
0.219675
0.125826
0.0669422
-0.0264425
-0.0828345
-0.144692
-0.127866
407.728
407.91
408.141
408.385
408.653
408.941
409.216
409.493
409.729
409.88
407.492
407.711
407.977
408.233
408.497
408.792
409.08
409.36
409.593
409.747
406.987
407.293
407.65
408.004
408.325
408.629
408.882
409.092
409.25
409.296
406.14
406.55
406.978
407.429
407.832
408.16
408.362
408.481
408.597
408.552
404.938
405.537
406.028
406.495
406.911
407.234
407.34
407.293
407.155
407.043
402.963
403.621
404.574
405.336
405.863
405.894
405.733
405.443
404.603
404.202
399.577
400.102
401.285
401.335
401.272
402.187
402.895
403.086
401.431
400.208
326.38
371.64
379.54
376.255
361.933
354.631
355.69
355.686
341.697
332.099
121.951
90.8202
102.87
103.349
102.217
111.087
115.808
99.2917
64.7138
47.1607
0.124449
0.127921
0.126843
0.0725208
0.120548
0.35488
0.113257
0.0802865
0.303306
0.484575
0.108507
0.0882733
0.0703948
-0.00181525
0.0268499
0.0982092
-0.00950462
-0.0386142
0.0744048
0.243566
0.0706379
0.0710042
0.034481
-0.0339479
-0.0331693
-0.029702
-0.0809327
-0.0660182
-0.00685752
0.100228
0.0510846
0.0852606
-0.00662165
-0.00374703
-0.0309235
-0.0754508
-0.10617
-0.0964184
-0.0634626
-0.0422827
0.0466778
0.105258
0.0502625
0.0648346
0.0199524
-0.0998003
-0.16045
-0.159121
-0.126082
-0.125097
0.0367373
0.09523
0.0542576
0.203686
0.0181568
-0.160104
-0.178995
-0.123305
-0.182112
-0.168726
0.0247978
0.0313421
0.0388239
0.260136
0.079013
-0.0299229
0.0940879
0.0869589
-0.173978
-0.183958
0.0161853
0.017691
0.0270755
0.10726
0.331031
0.305056
0.252905
0.0202951
-0.166785
-0.203477
0.0149852
0.0160257
0.0190068
0.012232
0.346844
0.331629
0.0591224
-0.122446
-0.183607
-0.235015
0.023041
0.0455242
0.0336407
0.0506616
0.0514776
0.124048
0.00930537
-0.143692
-0.214209
-0.260016
0.0272759
0.107641
0.100849
0.187992
0.146487
0.0858296
-0.0575337
-0.160291
-0.232327
-0.130772
407.352
407.552
407.771
407.97
408.187
408.446
408.714
408.994
409.242
409.416
407.051
407.306
407.579
407.809
408.026
408.278
408.549
408.835
409.084
409.265
406.392
406.759
407.143
407.473
407.769
408.066
408.342
408.604
408.823
408.947
405.287
405.78
406.282
406.753
407.151
407.523
407.819
408.057
408.246
408.383
403.786
404.436
405.007
405.616
406.144
406.569
406.855
407.062
407.172
407.347
401.693
402.229
403.105
403.973
404.837
405.497
405.629
405.737
405.462
404.271
399.093
398.779
400.178
400.826
401.2
401.509
402.097
403.232
403.28
403.157
358.146
373.686
381.565
382.122
380.331
366.171
345.921
357.451
358.128
364.545
129.541
94.5521
99.0647
93.4624
81.9645
77.3721
95.3055
115.408
93.5162
75.8229
0.143274
0.122876
0.120342
0.0752192
0.114816
1.08761
-0.119226
-0.145475
0.242531
0.383056
0.0654783
0.0764902
0.0649182
0.00913705
0.0677307
0.0557801
-0.0401551
-0.0689297
0.0316008
0.175409
0.0462543
0.0399021
0.0665093
0.0544877
0.0139798
-0.0486976
-0.111557
-0.0976679
0.00375288
0.0627229
0.0338456
0.0729089
0.0300591
0.102545
0.00411217
-0.0845973
-0.128019
-0.114068
-0.0619514
-0.0609018
0.0328458
0.0856411
0.0522284
0.187546
0.0432895
-0.108991
-0.180438
-0.185021
-0.157285
-0.137232
0.0281709
0.0282157
0.0426814
0.242023
0.0288284
-0.158114
-0.245426
-0.19092
-0.206771
-0.184108
0.0358903
0.0171991
0.0336563
0.222054
-0.0141882
-0.134105
-0.184842
-0.0541723
-0.0514477
-0.17846
0.0324445
-0.00245975
0.0191375
0.0165762
0.265523
0.265736
0.209527
0.156327
0.0232847
-0.20629
0.0239833
0.0714451
0.0264721
-0.0275739
0.266127
0.278015
0.229075
0.00926552
-0.214727
-0.238075
0.0214166
0.279095
0.227195
-0.0124011
-0.0329349
-0.0387749
-0.119512
-0.22301
-0.268978
-0.260988
0.0258899
0.136775
0.184206
0.0422175
-0.00802025
-0.0469589
-0.150582
-0.259243
-0.302173
-0.226093
407.039
407.286
407.509
407.661
407.816
408.034
408.298
408.582
408.83
409.002
406.649
406.995
407.299
407.488
407.656
407.874
408.134
408.427
408.683
408.866
405.765
406.311
406.786
407.084
407.317
407.608
407.928
408.248
408.517
408.679
404.214
404.97
405.662
406.195
406.588
407.004
407.436
407.828
408.093
408.343
402.04
402.97
403.797
404.655
405.377
406.02
406.579
407.074
407.411
406.31
399.145
399.91
400.915
402.246
403.577
404.774
405.766
406.267
406.441
404.832
395.631
394.848
396.568
398.519
400.288
401.558
402.365
403.523
404.694
405.348
353.755
334.872
359.843
374.786
378.917
381.951
372.175
361.48
372.976
377.057
76.1885
52.7911
73.0695
87.8606
88.9147
77.0172
75.5387
113.866
130.396
109.263
0.0988926
0.0986979
0.112081
0.093962
0.147115
0.115766
-0.053065
-0.296172
0.0784579
0.322706
0.0660556
0.0786417
0.102209
0.0540061
0.086287
0.117154
-0.0154317
-0.0430023
0.0334158
0.12754
0.0324429
0.074539
0.143582
0.135236
0.0369375
-0.0248202
-0.104097
-0.106284
0.0148034
0.0442647
0.0309334
0.0403853
0.0485959
0.191526
0.0397114
-0.0651481
-0.117244
-0.123576
-0.0948947
-0.0655987
0.0618427
0.0861556
0.114292
0.11632
0.0565364
-0.0915394
-0.159417
-0.179899
-0.187594
-0.14561
0.0398542
0.0513341
0.110254
0.100083
0.0159083
-0.130955
-0.225725
-0.243373
-0.229057
-0.193959
0.014784
-0.00529746
0.00872105
0.0102175
-0.0376057
-0.126714
-0.208338
-0.226215
-0.174256
-0.180735
0.0109804
-0.0226112
-0.0137728
-0.0374778
0.0655745
0.00098638
-0.0130791
0.0378435
0.00747821
-0.143103
0.0140189
0.129983
0.0551302
-0.0621096
0.0656023
0.210043
0.18169
0.145418
0.0366789
-0.179611
0.0278337
0.435324
0.41971
0.150844
-0.136209
-0.124295
-0.0711585
-0.107008
-0.168263
-0.18625
0.0343765
0.0813988
0.034383
-0.0533454
-0.0930502
-0.111456
-0.20531
-0.282829
-0.269299
-0.176483
406.815
407.15
407.376
407.459
407.541
407.711
407.959
408.247
408.496
408.659
406.326
406.852
407.185
407.289
407.367
407.549
407.809
408.109
408.374
408.555
405.169
406.071
406.657
406.861
406.964
407.215
407.579
407.961
408.27
408.458
403.074
404.268
405.217
405.751
406.072
406.516
407.072
407.631
408.032
408.271
399.962
401.252
402.364
403.51
404.485
405.39