/*--------------------------------*- C++ -*----------------------------------*\
| =========                 |                                                 |
| \\      /  F ield         | OpenFOAM: The Open Source CFD Toolbox           |
|  \\    /   O peration     | Version:  2312                                  |
|   \\  /    A nd           | Website:  www.openfoam.com                      |
|    \\/     M anipulation  |                                                 |
\*---------------------------------------------------------------------------*/
FoamFile
{
    version     2.0;
    format      ascii;
    arch        "LSB;label=32;scalar=64";
    class       volScalarField;
    location    "1.115";
    object      alpha.water;
}
// * * * * * * * * * * * * * * * * * * * * * * * * * * * * * * * * * * * * * //

dimensions      [0 0 0 0 0 0 0];

internalField   nonuniform List<scalar> 
8000
(
1
1
1
1
1
1
1
1
1
1
1
1
1
1
1
1
1
1
1
1
1
1
1
1
1
1
1
1
1
1
1
1
1
1
1
1
1
1
1
1
0.999999
0.999999
1
1
1
1
1
1
1
1
0.999947
0.999949
0.999981
0.999987
0.999992
0.999998
0.999999
1
1
1
0.962635
0.956353
0.964848
0.970456
0.982027
0.996714
0.999939
0.999974
0.999988
0.999994
0.336772
0.315341
0.325908
0.342144
0.39285
0.511754
0.698134
0.85524
0.913193
0.927255
4.32597e-06
4.32653e-06
4.39663e-06
5.40442e-06
1.48764e-05
5.84922e-05
0.0134585
0.0967747
0.227604
0.334389
4.32766e-06
4.38026e-06
1.47196e-05
0.000174769
0.00019063
1.97593e-05
2.00813e-05
3.97647e-05
7.25205e-05
0.000124951
4.38023e-06
1.29488e-05
0.000429769
0.000737888
0.000736861
0.000674445
0.000323134
0.000150338
6.64597e-05
6.76506e-05
5.08637e-06
0.000216609
0.000738731
0.000739448
0.000737888
0.000725659
0.000689752
0.000653935
0.000664753
0.000561517
1.37496e-05
0.000345908
0.000739142
0.000738731
0.00067859
0.000184486
0.000181279
0.000622575
0.000692899
0.000693384
2.1959e-05
0.000344645
0.000738731
0.000736683
0.000453385
5.44074e-06
7.12252e-06
0.000126544
0.000653888
0.000692899
2.08261e-05
0.000251054
0.000736683
0.00073352
0.000512813
4.15937e-06
4.45734e-06
1.70131e-05
5.81121e-05
9.66473e-05
1.69652e-05
0.000109418
0.000635918
0.000719248
0.000478911
4.10317e-06
4.11855e-06
9.66078e-06
1.68969e-05
4.72968e-06
4.02646e-05
2.63234e-05
0.000289182
0.000603428
0.000193971
4.11855e-06
4.10253e-06
4.11855e-06
4.43261e-06
4.72968e-06
6.44402e-05
1.1989e-05
3.60232e-05
4.80577e-05
5.34728e-05
1.77233e-05
3.52132e-05
4.95924e-05
1.79252e-05
4.18495e-06
6.45175e-05
4.46165e-05
1.03184e-05
2.41063e-05
1.66599e-05
0.000121911
0.000135826
0.000135848
0.000126514
2.53332e-05
6.05077e-05
7.66349e-05
1.00242e-05
1.27366e-05
2.8269e-05
0.000135783
0.000135851
0.000135846
0.000135841
0.000133893
1
1
1
1
1
1
1
1
1
1
1
1
1
1
1
1
1
1
1
1
1
0.999998
0.999977
0.999997
1
1
1
1
1
1
1
0.999789
0.999914
1
1
1
1
1
1
1
0.999999
0.999706
0.99997
0.999998
1
1
1
1
1
1
0.999958
0.999727
0.999928
0.999975
0.99999
0.999997
0.999999
1
1
1
0.971863
0.961041
0.966832
0.972788
0.984331
0.997429
0.999928
0.999971
0.999989
0.999996
0.35364
0.322835
0.334815
0.356336
0.413724
0.531536
0.695579
0.846333
0.909775
0.923499
4.31768e-06
4.32597e-06
4.63468e-06
8.13623e-06
3.59119e-05
1.755e-05
0.0218808
0.104737
0.236201
0.350907
4.30486e-06
4.72524e-06
3.00502e-05
0.000137957
8.44566e-05
6.82402e-06
1.0529e-05
2.00816e-05
3.97648e-05
0.000148084
4.4833e-06
2.93341e-05
0.000517203
0.000736919
0.000716584
0.000143185
5.35666e-05
4.60332e-05
4.6513e-05
3.33249e-05
5.10415e-06
0.000195752
0.000739326
0.00073789
0.000249059
1.90762e-05
2.72462e-05
3.07262e-05
4.7558e-05
0.000304566
4.80255e-06
0.000269944
0.000738731
0.000419695
1.54792e-05
1.71638e-05
1.90756e-05
2.67604e-05
0.000418137
0.000692899
4.79118e-06
0.00030286
0.000736683
0.000326578
1.17013e-05
1.09805e-05
1.49713e-05
0.000260436
0.000662663
0.000677539
4.64388e-06
0.000257179
0.000733521
0.000429396
8.09973e-06
5.44074e-06
2.95373e-05
0.00042714
0.000658093
0.000662703
4.75971e-06
0.000160602
0.000713343
0.000578489
6.18647e-06
4.15937e-06
1.94512e-05
0.000119378
0.000152697
9.80725e-05
6.70949e-06
5.66446e-05
0.000495637
0.000625304
2.01369e-05
4.09926e-06
4.61351e-06
1.26926e-05
7.74628e-06
4.18496e-06
2.39085e-05
9.10585e-06
0.000149877
0.000240694
9.99823e-05
4.39423e-06
4.18346e-06
4.62488e-06
3.33669e-06
3.41441e-06
2.68815e-05
1.97834e-06
1.73161e-05
5.09974e-05
7.28204e-06
1.01484e-05
2.63476e-05
3.07511e-05
1.15553e-05
3.06607e-06
1.40256e-05
5.00253e-05
6.48625e-05
3.71174e-05
5.71409e-06
3.10771e-05
0.000112888
0.000123805
1.70354e-05
3.05183e-06
1
1
1
1
1
1
1
1
1
1
1
1
1
1
1
1
1
1
1
1
1
1
0.999999
0.999994
1
1
1
1
1
1
1
0.999639
0.999688
0.999973
1
1
1
1
1
1
1
0.999209
0.999409
0.999993
1
1
1
1
1
1
0.999992
0.999497
0.999551
0.999981
0.999996
0.999999
1
1
1
1
0.991822
0.986256
0.990368
0.995192
0.999208
0.999924
0.999976
0.999996
1
1
0.449571
0.41988
0.449933
0.494066
0.571488
0.681758
0.80394
0.89174
0.92715
0.941318
4.30486e-06
4.31456e-06
4.56937e-06
8.25803e-06
1.73932e-05
0.00833241
0.0632444
0.153826
0.284364
0.375342
4.26283e-06
5.60279e-06
1.61306e-05
2.24323e-05
6.30665e-06
4.92516e-06
6.33495e-06
1.0529e-05
2.65454e-05
0.000208677
4.32337e-06
1.86189e-05
0.00021651
0.00031621
0.000143295
5.13752e-05
3.59207e-05
0.000106661
7.43354e-05
2.47666e-05
4.52593e-06
2.77147e-05
0.000284332
0.000417167
9.10808e-05
1.97766e-05
2.11832e-05
2.33638e-05
2.29887e-05
2.08527e-05
4.32968e-06
3.34476e-05
0.000250584
0.000312885
9.03201e-05
1.90756e-05
2.18489e-05
2.59594e-05
2.77279e-05
6.25899e-05
4.32227e-06
4.19226e-05
0.000292191
0.00036216
6.30243e-05
1.70556e-05
3.77501e-05
0.000207281
0.000603357
0.000662663
4.32179e-06
3.93697e-05
0.000301958
0.000525249
8.11813e-05
1.01494e-05
0.000141666
0.000582261
0.000626624
0.000653123
4.56196e-06
2.79677e-05
0.00033431
0.000625304
0.000283675
6.18647e-06
6.32543e-05
0.000171792
0.000135714
0.000329958
4.76601e-06
1.80088e-05
0.000277078
0.000625304
0.000515012
1.55774e-05
4.18346e-06
3.67329e-05
4.61781e-05
4.52865e-06
5.33795e-06
4.2813e-06
9.97177e-05
0.000420499
0.000501232
8.58073e-05
3.57203e-06
3.1047e-06
2.90698e-06
3.1047e-06
7.84251e-06
1.66166e-06
1.69971e-05
0.000148988
0.000189632
2.38303e-05
2.94832e-06
4.8456e-06
2.83139e-06
2.8903e-06
4.32864e-06
2.49055e-06
1.2597e-05
0.000138932
2.16947e-05
1.8098e-06
2.12707e-06
4.41781e-06
2.68443e-06
2.83139e-06
1
1
1
1
1
1
1
1
1
1
1
1
1
1
1
1
1
1
1
1
1
0.999998
1
0.999999
1
1
1
1
1
1
1
0.999893
0.99983
0.999962
1
1
1
1
1
0.999999
1
0.999785
0.999618
0.999926
1
1
1
1
1
0.999994
0.999998
0.999788
0.999818
0.999924
0.999998
1
1
1
1
0.999999
0.999338
0.998628
0.999572
0.99977
0.999915
0.999977
0.999998
1
1
1
0.566695
0.555059
0.609326
0.675905
0.738431
0.812394
0.887768
0.935296
0.962737
0.973809
4.26283e-06
4.39289e-06
5.94191e-06
0.000217664
0.0219978
0.0652543
0.134285
0.234802
0.355594
0.403965
4.25199e-06
4.26283e-06
4.44229e-06
4.64687e-06
4.58451e-06
4.63662e-06
4.9067e-06
6.33495e-06
2.44144e-05
0.000416706
4.25752e-06
5.0903e-06
5.21872e-06
6.30765e-06
5.74602e-06
4.91801e-06
1.2264e-05
0.000105628
0.000114934
3.15471e-05
4.41108e-06
2.39135e-05
2.08937e-05
1.50998e-05
4.82835e-05
4.94236e-05
2.05915e-05
2.56797e-05
2.76405e-05
2.1659e-05
4.26761e-06
1.35987e-05
3.97426e-05
1.22605e-05
4.20932e-05
0.000140058
0.000116111
0.000147586
0.000101014
2.25338e-05
4.25356e-06
1.14086e-05
4.03697e-05
3.49306e-05
2.07283e-05
0.000160469
0.000420549
0.000480553
0.000541897
0.00040762
4.26646e-06
1.25569e-05
4.20913e-05
7.24327e-05
2.80248e-05
7.57311e-05
0.000273803
0.00013929
0.000269165
0.000621661
2.23065e-05
1.746e-05
2.90174e-05
0.000215351
0.000169451
1.57019e-05
4.56787e-05
9.05344e-05
7.22436e-06
3.63247e-05
2.30532e-05
7.7961e-06
1.69251e-05
0.000270581
0.000488248
0.000159824
7.96714e-06
1.62075e-05
2.11559e-05
8.70443e-06
3.06086e-06
1.38457e-06
1.17339e-05
0.000204064
0.00044929
0.000429877
0.000114325
1.47397e-05
3.1047e-06
5.18462e-06
1.38457e-06
1.3564e-06
5.24517e-06
9.78625e-05
0.000282026
0.00030133
0.000260793
8.43848e-05
2.8903e-06
3.11013e-06
1.41165e-06
1.38457e-06
1.41165e-06
5.16495e-05
0.000188044
3.56996e-05
9.95435e-05
9.44359e-05
6.48269e-06
1.08921e-05
1
1
1
1
1
1
1
1
1
1
1
1
1
1
1
1
1
1
1
1
1
1
1
1
1
1
1
1
1
1
1
1
0.999997
0.999994
0.999999
1
1
0.999999
1
0.999999
1
0.999999
0.999998
0.999982
0.999997
1
1
1
0.999999
1
0.999998
0.999995
0.999991
0.999982
0.999998
1
1
1
1
1
0.999875
0.999877
0.999895
0.99992
0.999977
0.999998
1
1
1
1
0.694786
0.709983
0.769147
0.823691
0.858616
0.898478
0.934223
0.968281
0.989339
0.99586
0.0154169
0.0180057
0.0350742
0.0676598
0.121084
0.17854
0.255254
0.361873
0.428347
0.449126
4.25069e-06
4.25199e-06
4.26921e-06
4.31096e-06
4.36681e-06
4.52716e-06
4.63735e-06
4.9067e-06
0.00474738
0.00458302
4.25109e-06
4.25752e-06
4.33439e-06
4.58747e-06
4.58451e-06
4.64482e-06
2.76154e-05
0.000179146
0.000126582
7.68067e-05
4.87147e-06
1.34571e-05
9.20441e-06
6.57443e-06
4.33696e-05
4.47099e-05
0.000107217
0.000164505
6.99459e-05
3.57397e-05
4.25237e-06
1.13961e-05
5.02159e-05
7.29443e-06
1.46074e-05
0.00027339
0.000391561
0.000386813
0.000385158
0.000120242
4.25296e-06
4.78137e-06
5.43051e-05
9.15656e-06
1.16025e-05
0.000241459
0.000415151
0.000334179
0.000293487
0.000420694
4.25386e-06
4.26727e-06
2.2223e-05
4.61956e-05
1.49397e-05
0.00010574
0.000295717
1.11571e-05
7.22436e-06
0.000160587
2.34033e-05
1.02452e-05
1.04711e-05
2.74382e-05
1.37642e-05
1.64016e-05
4.40685e-05
1.34692e-05
4.46514e-06
1.1234e-05
5.04237e-06
5.55878e-06
1.49e-06
3.24145e-06
3.89345e-05
5.01055e-05
6.11679e-06
3.49371e-06
3.82562e-06
5.7884e-05
1.5033e-06
1.3564e-06
1.36112e-06
2.87156e-06
3.85423e-05
8.81453e-05
3.69639e-05
2.74419e-06
3.41193e-06
5.86085e-05
1.3564e-06
1.34312e-06
1.33739e-06
6.17821e-06
3.94e-05
9.74757e-05
0.000160971
6.92283e-05
3.38589e-06
4.84887e-05
2.18687e-05
2.7815e-06
1.40084e-06
1.61517e-06
5.4782e-05
0.000146584
0.000154687
0.000102816
6.76733e-06
8.1435e-05
1
1
1
1
1
1
1
1
1
1
1
1
1
1
1
1
1
1
1
1
1
1
1
1
1
1
1
1
1
1
1
1
1
1
1
1
1
0.999998
0.99998
1
1
1
1
1
0.999999
1
1
1
0.99997
0.999847
0.999999
0.999999
0.999999
1
1
1
1
1
0.999991
0.999954
0.999922
0.999947
0.999965
0.999987
0.999998
1
1
1
1
1
0.802041
0.829387
0.881947
0.897909
0.931176
0.955982
0.975962
0.996864
1
0.999999
0.0735476
0.0780528
0.120965
0.205311
0.294276
0.360621
0.431692
0.497606
0.520657
0.523096
4.25069e-06
4.25069e-06
4.25235e-06
4.26957e-06
4.31096e-06
4.36681e-06
4.56479e-06
0.00258609
0.0130327
0.0111507
4.25068e-06
4.25109e-06
4.25772e-06
4.30037e-06
4.36681e-06
4.56356e-06
0.000121182
0.000268166
0.000282642
0.000219171
4.25109e-06
7.33392e-06
9.26005e-06
4.58747e-06
5.35878e-06
1.24557e-05
0.000311542
0.000667164
0.000686467
0.000289599
4.25194e-06
9.9606e-06
4.90317e-05
5.57946e-06
7.29443e-06
0.000190968
0.000386522
0.000319118
0.000315402
0.000343193
4.25237e-06
4.61075e-06
5.39086e-05
7.41001e-06
2.57955e-05
0.000128155
5.71245e-05
6.63837e-06
6.28676e-05
0.000323545
4.26117e-06
4.37502e-06
1.97171e-05
3.50491e-05
9.67592e-06
7.69448e-05
0.000121587
1.14605e-05
1.11571e-05
2.61312e-05
1.91787e-05
1.23892e-05
1.55417e-06
1.64952e-05
5.48694e-06
1.33677e-05
6.94621e-05
2.86626e-05
3.09695e-05
8.49078e-05
2.42989e-05
4.58269e-06
1.36109e-06
1.48983e-06
2.95007e-06
5.28123e-06
4.30864e-06
2.88021e-06
2.42254e-05
0.000119912
3.06077e-05
1.34312e-06
1.33739e-06
1.36e-06
1.96369e-06
2.83192e-06
2.65899e-06
2.35122e-06
4.18229e-06
0.000126528
3.43401e-05
1.33568e-06
1.32425e-06
1.40521e-06
1.43775e-06
1.65536e-06
3.51154e-06
3.072e-06
3.72424e-06
0.000101536
7.05452e-05
1.3352e-06
1.45469e-06
6.14531e-06
1.40791e-06
2.51169e-05
2.05896e-05
3.86005e-06
2.89428e-05
8.97796e-05
1
1
1
1
1
1
1
1
1
1
1
1
1
1
1
1
0.999999
0.999999
1
1
1
1
1
1
1
1
1
0.999997
1
1
1
1
1
1
1
1
1
0.999999
0.999982
0.999966
1
1
1
1
1
1
1
1
0.999958
0.999847
0.999999
1
1
1
1
1
1
1
0.999986
0.999908
0.999962
0.99998
0.999992
1
1
1
1
1
1
1
0.886618
0.909567
0.917582
0.950154
0.982139
0.997419
1
1
1
0.999999
0.161664
0.167215
0.26455
0.392556
0.49417
0.558231
0.60442
0.632712
0.632214
0.611654
4.25068e-06
4.25069e-06
4.2564e-06
4.29945e-06
0.00432632
0.00828398
0.0137246
0.0237261
0.0316984
0.0257685
4.25069e-06
4.25124e-06
4.30002e-06
4.38216e-06
4.62077e-06
8.17698e-06
4.47995e-05
0.000327619
0.000588513
0.000544458
4.25114e-06
5.76812e-06
1.19325e-05
4.63627e-06
5.45259e-06
1.07785e-05
0.000187575
0.000647916
0.000783322
0.000787588
4.25157e-06
5.86008e-05
2.6578e-05
5.45259e-06
7.73246e-06
2.24429e-05
2.06139e-05
1.00311e-05
1.38175e-05
0.00012789
4.25247e-06
0.000110294
4.84895e-05
1.84298e-05
1.02713e-05
1.2351e-05
4.35292e-06
5.06154e-06
6.63837e-06
4.97437e-05
2.30031e-05
0.000102158
3.49876e-05
1.51821e-05
2.78055e-05
6.74064e-05
5.38902e-05
1.47449e-05
5.93404e-05
6.07437e-05
0.000139821
9.10315e-05
8.69441e-06
2.98971e-06
2.29363e-05
7.04803e-05
7.02806e-05
1.84698e-05
0.000119202
0.000119409
0.000157618
2.04674e-05
1.38804e-06
1.40387e-06
8.53209e-06
2.23409e-05
1.36447e-05
2.35122e-06
8.59416e-05
0.000120119
9.25436e-05
1.37138e-06
1.32257e-06
1.33162e-06
1.40382e-06
1.54832e-06
1.89686e-06
2.11186e-06
3.96219e-05
0.000102673
7.71621e-05
1.32425e-06
1.31535e-06
1.32277e-06
1.33094e-06
1.43777e-06
1.66708e-06
1.89973e-06
2.18044e-05
1.27805e-05
8.99465e-05
1.32134e-06
1.84779e-06
2.88446e-06
1.33437e-06
2.63106e-06
1.04651e-05
6.87468e-06
3.83376e-06
3.13715e-06
1
1
1
1
1
1
1
0.999999
1
1
1
1
1
1
1
1
0.999999
0.999989
0.999992
1
1
1
1
1
1
1
0.999998
0.999989
0.999995
1
1
1
1
1
1
1
1
0.999994
0.99998
1
1
1
1
1
1
1
1
1
0.999984
0.999854
1
1
1
1
1
1
1
1
0.999991
0.999952
0.999983
0.999993
0.999998
1
1
1
1
1
1
1
0.932897
0.931599
0.94672
0.985636
1
1
1
1
1
1
0.277287
0.300827
0.435606
0.551846
0.646877
0.70377
0.729022
0.73783
0.730562
0.695869
4.25042e-06
4.25633e-06
0.00171449
0.0102708
0.0249128
0.0403474
0.0560237
0.0682149
0.0688112
0.0547012
4.25124e-06
4.30002e-06
4.38789e-06
4.63367e-06
4.82227e-06
1.73266e-05
6.38925e-05
8.26995e-05
0.000262452
0.000492253
4.25157e-06
8.62299e-06
3.62082e-05
4.83392e-06
1.87265e-05
4.94027e-05
7.39412e-06
1.52797e-05
0.000285184
0.000554704
4.25247e-06
0.000147152
2.51368e-05
1.9467e-05
2.97452e-05
7.29733e-06
5.09572e-06
1.08343e-05
1.08875e-05
1.39917e-05
5.4292e-06
0.000215492
2.33555e-05
2.3429e-05
1.37099e-05
3.80312e-06
3.80795e-06
1.28675e-05
1.1733e-05
9.67381e-06
0.00013418
0.000195706
1.86671e-06
6.06963e-06
9.90789e-06
1.16917e-05
2.37212e-06
2.84773e-05
0.000106597
0.00010337
0.00019001
0.000112252
1.41151e-06
1.4956e-06
1.36283e-05
2.47462e-05
8.70166e-06
1.39274e-05
0.000109857
0.000119243
0.000190073
3.83043e-05
1.32834e-06
1.34306e-06
9.45781e-06
1.50623e-05
5.51303e-06
1.84221e-05
4.2034e-05
0.00011567
0.00011018
1.32833e-06
1.31367e-06
1.31688e-06
1.41542e-06
1.3545e-06
8.74357e-06
1.66424e-05
1.42729e-05
2.65424e-06
7.13738e-05
1.31535e-06
1.31077e-06
1.31387e-06
1.3162e-06
2.92459e-06
9.50339e-06
4.03366e-06
2.59849e-06
2.43112e-06
9.1626e-05
1.31114e-06
1.31121e-06
1.31121e-06
1.31986e-06
4.40368e-06
3.87391e-06
3.58848e-06
3.0376e-06
3.0723e-06
1
1
1
1
1
1
1
1
0.999996
1
1
1
1
1
1
1
1
0.999992
0.999985
1
1
1
1
1
1
1
1
0.999992
0.999988
1
1
1
1
1
1
1
0.999999
1
1
1
1
1
1
1
1
1
1
0.999884
0.999653
0.99976
1
1
1
1
1
1
1
0.999941
0.999849
0.999857
0.999991
0.999999
1
1
1
1
1
1
1
0.999997
0.940189
0.926334
0.956815
0.992636
1
1
1
1
1
0.999999
0.378231
0.447613
0.552997
0.655296
0.74452
0.78397
0.798179
0.793975
0.775872
0.733125
6.85816e-06
0.00195159
0.0136475
0.0362081
0.0679422
0.0956653
0.11602
0.120857
0.11175
0.0863773
4.35659e-06
4.62033e-06
4.66053e-06
4.83107e-06
4.73713e-06
0.000200245
0.000387179
0.000505091
0.000636797
0.000641041
4.25543e-06
5.28401e-05
5.17184e-05
5.99471e-06
7.31647e-06
3.46497e-05
3.47245e-05
3.40282e-05
3.14447e-05
2.44892e-05
4.277e-06
0.000223641
1.73773e-05
1.44504e-05
3.13757e-05
6.24143e-06
6.21911e-06
9.81176e-06
1.01704e-05
9.67058e-06
3.71502e-05
0.000223002
1.68584e-05
6.43886e-06
9.71578e-06
1.99665e-06
3.34824e-06
1.21562e-05
1.02811e-05
8.05896e-06
0.000188092
0.000136711
1.46619e-06
1.4957e-06
1.63815e-06
1.42831e-06
1.58564e-06
2.14402e-05
3.41355e-05
5.59178e-05
0.000192149
6.49364e-05
1.33329e-06
1.34307e-06
1.36267e-06
1.3326e-06
1.38794e-06
1.57215e-05
5.48552e-06
0.000118912
0.000190131
3.7332e-05
1.31534e-06
1.31688e-06
1.32093e-06
1.3159e-06
1.33269e-06
5.19491e-06
1.50167e-06
2.22719e-05
0.000163837
1.31534e-06
1.31412e-06
1.31402e-06
1.31598e-06
1.31598e-06
1.40595e-06
1.37753e-06
1.4364e-06
1.61325e-06
0.000154314
1.41906e-06
1.31367e-06
1.3162e-06
1.31455e-06
1.31597e-06
1.39e-06
1.39288e-06
3.14034e-06
3.32201e-06
0.000188703
6.93179e-06
1.31077e-06
1.31386e-06
1.31619e-06
1.3165e-06
1.35876e-06
1.0424e-05
2.46304e-05
7.54159e-06
1
1
1
1
1
1
1
1
0.999846
0.992979
1
1
1
1
1
1
1
1
0.999892
0.992982
1
1
1
1
1
1
1
1
1
0.994031
1
1
1
1
1
1
1
1
1
0.995777
1
1
1
1
1
1
0.999996
1
0.999505
0.995613
1
1
1
1
1
1
0.999998
1
0.999713
0.998505
0.999994
0.999999
1
1
1
1
1
1
0.999996
0.999996
0.929704
0.920148
0.957562
0.994247
1
1
1
1
1
0.999998
0.397824
0.464388
0.571255
0.68427
0.766607
0.799116
0.810716
0.801406
0.76885
0.713233
0.00103308
0.00821119
0.027692
0.0608154
0.101212
0.132854
0.151414
0.146884
0.122786
0.085604
1.45942e-05
6.99498e-06
6.07179e-06
4.73903e-06
0.000180099
0.000621815
0.000987515
0.0012452
0.00151902
0.00159708
1.0602e-05
7.84748e-05
5.61698e-05
9.38168e-06
3.88842e-05
0.000133281
0.0001284
0.000120277
0.00012693
0.000123489
5.8326e-06
0.000237923
6.36239e-05
3.90608e-06
1.39321e-05
2.94922e-05
1.74994e-05
1.09952e-05
6.99228e-06
8.04277e-06
6.15753e-05
0.000231618
4.31929e-05
1.67997e-06
3.51259e-06
6.18332e-06
4.1154e-06
4.43248e-06
4.86325e-06
7.66208e-06
0.000188471
0.00010526
1.49574e-06
1.38893e-06
1.67201e-06
1.99326e-06
1.80354e-06
3.56205e-06
3.43214e-06
1.8615e-05
0.000197447
6.02114e-05
1.33025e-06
1.32497e-06
1.37746e-06
1.42842e-06
1.3907e-06
3.01045e-06
4.44002e-06
4.18703e-05
0.000192527
9.71454e-05
1.3143e-06
1.31402e-06
1.32148e-06
1.33152e-06
1.35033e-06
1.37752e-06
1.42565e-06
1.50167e-06
0.000193095
9.70922e-05
1.31402e-06
1.31349e-06
1.31402e-06
1.31585e-06
1.33181e-06
1.35033e-06
1.54824e-06
1.75315e-06
0.000193095
0.000126579
2.15015e-05
1.31401e-06
1.31617e-06
1.31598e-06
1.33447e-06
1.37739e-06
4.75834e-05
1.48375e-05
0.000193095
0.000173504
9.05139e-05
4.82329e-06
1.36312e-06
1.33917e-06
1.09391e-05
0.00014074
9.0019e-05
7.16738e-06
1
1
1
1
1
1
1
1
0.99985
0.992976
1
1
1
1
1
1
1
1
1
0.994446
1
1
1
1
1
1
1
0.999998
1
0.997747
1
1
1
1
1
1
1
0.999998
1
0.997653
1
1
1
0.999996
0.999979
0.999989
0.999999
1
0.999918
0.995652
1
0.999999
1
0.999998
0.99999
0.999993
0.999999
1
0.999934
0.998592
0.999994
1
1
1
1
1
1
1
0.999998
1
0.929089
0.924929
0.960881
0.994606
1
1
1
1
1
0.999999
0.356314
0.418616
0.540863
0.656457
0.733987
0.76544
0.784215
0.782322
0.743316
0.678406
0.00196029
0.0108517
0.0256389
0.0550325
0.0877249
0.114012
0.135646
0.137791
0.111566
0.07233
2.76854e-05
1.70972e-05
8.19415e-06
3.85529e-05
0.000241272
0.000754344
0.00120261
0.0016431
0.00208103
0.00222931
2.63846e-05
8.216e-05
5.76331e-05
1.06386e-05
5.17752e-05
0.000178661
0.000227162
0.000202819
0.000229467
0.000236412
2.17723e-05
0.000240894
0.000120575
3.45519e-06
1.48651e-05
5.03842e-05
4.45811e-05
2.34129e-05
1.70264e-05
1.55053e-05
9.26426e-05
0.000238423
5.12627e-05
1.65008e-06
4.406e-06
1.15314e-05
8.21665e-06
3.50067e-06
3.43123e-06
6.25544e-06
0.000211838
0.000115813
1.51558e-06
1.38759e-06
1.69968e-06
2.87659e-06
2.38234e-06
1.67125e-06
2.95596e-06
7.09296e-06
0.000209815
9.37695e-05
1.34077e-06
1.32475e-06
1.38711e-06
1.56949e-06
1.52581e-06
1.48186e-06
3.11444e-06
1.93542e-06
0.000197977
0.00012312
1.32475e-06
1.31351e-06
1.32428e-06
1.35445e-06
1.39075e-06
1.42564e-06
1.48186e-06
1.7143e-06
0.000115395
0.000133268
9.78775e-06
1.31402e-06
1.3277e-06
1.32424e-06
1.50408e-06
1.37753e-06
8.95399e-06
1.99583e-06
8.02342e-05
0.000120182
7.59532e-05
3.7591e-05
3.54353e-06
1.33982e-06
1.47129e-06
3.73379e-05
6.82247e-05
1.08228e-05
7.36616e-05
0.000129023
0.000105215
2.00065e-05
2.56284e-06
5.43227e-05
0.000163869
0.000181468
6.74028e-05
7.16738e-06
1
1
1
1
1
1
1
1
1
1
1
1
1
1
1
1
1
0.999993
0.999992
1
1
1
1
1
1
1
1
0.999984
0.999984
1
1
1
1
1
0.999996
0.999999
1
0.999986
0.999986
1
1
1
1
0.999995
0.999973
0.999973
0.999992
0.999999
0.999999
1
1
1
1
0.999999
0.999986
0.999985
0.999997
1
1
1
0.999992
0.999999
1
1
1
1
1
1
1
1
0.926275
0.92935
0.95563
0.987213
1
1
1
1
1
1
0.280654
0.334612
0.447458
0.562069
0.646926
0.68904
0.727679
0.762543
0.750172
0.7011
0.000236687
0.00534609
0.0145736
0.0309793
0.0467488
0.066444
0.0982734
0.125924
0.114571
0.0848003
2.90104e-05
2.76855e-05
4.08344e-05
5.39949e-05
0.000182275
0.000549
0.000947449
0.00158604
0.00221092
0.0024607
2.87526e-05
0.000145756
6.49593e-05
5.98166e-06
5.66018e-05
0.00014865
0.000180459
0.000232873
0.000280403
0.000285184
5.36373e-05
0.000241832
8.95757e-05
3.07699e-06
2.28721e-05
5.43609e-05
6.30573e-05
4.43246e-05
2.90165e-05
2.34724e-05
0.000163581
0.000236451
2.92124e-05
1.62804e-06
5.15921e-06
1.24502e-05
1.30205e-05
6.06227e-06
4.1688e-06
6.11857e-06
0.000242596
0.000143533
1.62804e-06
1.39432e-06
1.62798e-06
2.94063e-06
3.0147e-06
2.20423e-06
2.87541e-06
6.28711e-06
0.000219355
0.00018323
5.45203e-06
1.33922e-06
1.39432e-06
1.59663e-06
1.63117e-06
1.67126e-06
2.79562e-06
6.25828e-06
6.47745e-05
0.000147799
7.08056e-06
1.32475e-06
1.33874e-06
1.38316e-06
1.44304e-06
1.94912e-06
2.05449e-06
2.38081e-06
5.74358e-05
5.96263e-05
3.65525e-05
8.07814e-06
1.32427e-06
1.35453e-06
1.4285e-06
1.43141e-06
1.71946e-05
9.91949e-06
7.61182e-05
0.000107384
0.000104667
9.63812e-05
9.31405e-06
4.25784e-06
5.42961e-05
9.15033e-05
4.63328e-05
7.29251e-06
7.75239e-05
1.686e-05
1.18217e-05
1.8603e-05
9.11753e-05
0.000182476
0.000182476
0.000181987
1.91821e-05
7.14339e-06
1
1
1
1
1
1
1
1
1
1
1
1
1
1
1
1
1
0.999987
0.999989
1
1
1
1
1
1
1
0.999997
0.999984
0.999984
0.999997
1
1
1
1
1
1
0.999998
0.999992
0.999993
0.999998
1
1
1
1
0.999994
0.999998
1
1
1
1
1
1
1
1
0.999999
1
1
1
1
1
0.999985
0.999996
1
1
1
1
1
1
1
1
0.908973
0.922681
0.941014
0.966741
0.993105
0.999337
0.999284
1
1
1
0.196091
0.222552
0.305033
0.410454
0.507498
0.580076
0.647084
0.721208
0.754723
0.739903
2.69544e-05
3.14084e-05
0.0019606
0.00994586
0.0163163
0.0318345
0.0764001
0.113746
0.121209
0.107662
2.80853e-05
9.29727e-05
5.34417e-05
1.77171e-05
0.000373863
0.000563122
0.000660358
0.00110902
0.00162744
0.00190581
5.41723e-05
0.00024706
0.000184402
8.51641e-06
6.35257e-05
0.000310502
0.000161995
0.000179188
0.000218058
0.000220908
0.000201198
0.00024468
0.000116594
3.04494e-06
3.38279e-05
9.08161e-05
6.17762e-05
4.58958e-05
2.89767e-05
2.0564e-05
0.000248972
0.000166015
2.39765e-06
2.36517e-06
1.17929e-05
9.35492e-06
1.32262e-05
7.77168e-06
5.04114e-06
4.80617e-06
0.000245741
0.000151387
1.89233e-06
1.45814e-06
1.85491e-06
2.8817e-06
4.47516e-06
3.04585e-06
3.20399e-06
4.21016e-06
0.000130644
0.000206645
0.000129255
1.34989e-06
1.42897e-06
1.80837e-06
3.06029e-06
2.50051e-06
3.10074e-06
3.22343e-06
2.60559e-05
9.47567e-05
6.818e-06
1.33922e-06
1.34989e-06
1.60724e-06
4.54267e-06
1.01562e-05
1.08246e-05
6.37898e-06
8.24492e-05
0.000100654
0.000103479
0.000103248
7.25504e-05
1.53076e-05
4.73452e-06
4.35125e-06
3.42658e-05
3.18975e-05
8.53013e-05
8.21767e-05
5.11773e-05
1.31002e-05
1.41685e-05
9.38836e-05
0.000165774
0.000112385
1.75264e-05
7.71896e-06
2.08437e-05
8.90415e-06
9.67184e-06
2.97632e-05
0.000180943
0.000181486
0.000182572
4.96033e-05
6.57525e-06
1.46513e-05
1
1
1
1
1
1
1
1
1
1
1
1
1
1
1
1
1
1
1
1
1
1
1
1
1
1
1
0.999999
0.999998
0.999999
1
1
1
1
1
1
1
0.999999
0.999996
0.999999
1
1
1
1
1
1
1
1
1
1
1
1
1
1
1
1
1
1
0.999998
1
0.999969
0.999988
0.999998
1
1
1
1
1
1
1
0.866309
0.898152
0.92421
0.933134
0.961214
0.978036
0.983145
0.994562
1
1
0.120222
0.124639
0.168273
0.245522
0.344074
0.452827
0.557188
0.627833
0.677729
0.687927
2.424e-05
1.8173e-05
1.19749e-05
3.14467e-05
0.00428013
0.0248055
0.0650843
0.0719531
0.0747894
0.0702774
5.97636e-05
0.000148746
6.94679e-05
2.6422e-05
0.000174523
0.000700375
0.000409427
0.000546915
0.000742523
0.000840372
0.000255549
0.000251436
0.000126607
9.02011e-06
1.59763e-05
0.000202428
0.000121974
0.000121479
0.000129661
9.83018e-05
0.000254036
0.000229648
1.28418e-05
3.81184e-06
3.22486e-05
7.32855e-05
4.25678e-05
3.47754e-05
2.32531e-05
1.20757e-05
0.000252723
0.000148235
3.67285e-06
3.02314e-06
1.81496e-05
8.6631e-06
9.86631e-06
6.26749e-06
4.65501e-06
3.89345e-06
0.000248972
0.000182457
2.39766e-06
2.02342e-06
2.22984e-06
2.95782e-06
3.86277e-06
3.63262e-06
3.45081e-06
3.39646e-06
6.56068e-05
0.000205851
0.000194183
5.21003e-06
1.73621e-06
2.22984e-06
3.12448e-06
3.33379e-06
3.27198e-06
3.34851e-06
2.48511e-05
4.70962e-05
8.60967e-05
1.75718e-05
1.42897e-06
8.61883e-06
9.90471e-06
9.19325e-06
1.02753e-05
9.69149e-06
9.28189e-05
9.36201e-05
0.000103298
0.000103549
8.26332e-05
1.3521e-05
1.00043e-05
3.1385e-05
3.92888e-05
3.928e-05
6.52554e-05
1.47424e-05
1.62533e-05
1.2437e-05
3.7542e-05
0.00014252
0.000155657
0.000101686
3.21166e-05
8.65064e-06
8.33196e-06
7.79094e-06
7.97599e-06
3.90266e-05
0.000179285
0.000181181
0.000181319
1.38866e-05
5.14999e-06
1.92027e-05
1
1
1
1
1
1
1
1
1
1
1
1
1
1
1
1
1
1
1
1
1
1
1
1
1
1
1
1
1
1
1
1
1
1
1
1
1
0.999992
0.999979
1
1
1
1
1
1
1
1
1
0.999834
0.99973
0.999999
1
1
1
1
1
1
1
0.999874
0.999595
0.999947
0.999971
0.999988
0.999996
1
1
1
1
1
1
0.791459
0.810085
0.863704
0.894244
0.912345
0.941097
0.959178
0.980171
0.996041
0.997565
0.0616216
0.0594394
0.0803252
0.118227
0.187128
0.292883
0.420794
0.520158
0.57827
0.580326
1.8173e-05
1.19749e-05
9.33596e-06
1.08141e-05
0.000360659
0.0278511
0.0369399
0.0232825
0.0267884
0.0236532
0.000110454
0.000108353
1.51994e-05
5.75344e-05
0.000536863
0.000490579
0.000226985
0.000242068
0.000261245
0.000286629
0.000255684
0.000253802
1.397e-05
0.000208908
0.000534814
3.75592e-05
6.05823e-05
8.10013e-05
5.66954e-05
3.87673e-05
0.000255549
0.000207697
1.19933e-05
0.000128362
0.000155997
2.12897e-05
1.96035e-05
1.77165e-05
1.42786e-05
8.60751e-06
0.000254757
0.000206447
4.8947e-06
4.33584e-06
6.22789e-06
7.80333e-06
5.92438e-06
4.70807e-06
4.14049e-06
3.65665e-06
0.000239306
0.000239882
8.47019e-05
2.53666e-06
3.58504e-06
3.7447e-06
3.65076e-06
3.54203e-06
3.43301e-06
3.34847e-06
2.79314e-05
0.000162453
0.000119006
4.14439e-06
5.91615e-06
3.40016e-06
3.41437e-06
3.37661e-06
3.33958e-06
3.32009e-06
2.48511e-05
2.4181e-05
0.000117051
5.81388e-05
8.32208e-06
6.94523e-06
3.38922e-06
3.30442e-06
3.30132e-06
4.87649e-06
9.03484e-05
2.69053e-05
5.16838e-05
8.62787e-05
3.09722e-05
6.19753e-06
7.00744e-06
1.81559e-05
2.84426e-05
2.93563e-05
2.3006e-05
1.01999e-05
7.81192e-06
9.05982e-06
2.59991e-05
7.51448e-05
6.22764e-05
6.34864e-05
5.35713e-05
1.26868e-05
7.79095e-06
7.46927e-06
7.60186e-06
8.0208e-06
8.64482e-05
0.000178873
0.000157042
6.73545e-05
5.70999e-06
2.0123e-05
1
1
1
1
1
1
1
1
1
1
1
1
1
1
1
1
1
1
1
1
1
0.999999
0.999999
1
1
1
1
0.999999
1
0.999998
1
1
1
1
1
1
1
0.99999
0.999973
1
1
1
1
1
1
1
1
1
0.999656
0.998926
0.999999
0.999998
0.999998
0.999999
1
1
1
1
0.999768
0.99893
0.999906
0.999902
0.999937
0.999969
0.999989
0.999998
1
1
0.999999
0.999997
0.697003
0.67906
0.739114
0.803333
0.860563
0.898349
0.929194
0.961145
0.983143
0.983968
0.0172685
0.0108417
0.0257369
0.0467718
0.084226
0.160641
0.274644
0.420382
0.52361
0.521093
1.47257e-05
9.39723e-06
8.35512e-06
6.89842e-06
6.76086e-06
0.00853033
0.00955407
0.00750388
0.0113323
0.00895172
0.000163812
0.00011518
1.62713e-05
2.23424e-05
0.000340234
0.000202867
4.41411e-05
5.15726e-05
8.74706e-05
9.94548e-05
0.00025555
0.00025374
1.74067e-05
0.000269114
0.000506495
9.67231e-05
1.73457e-05
2.35309e-05
2.63067e-05
1.92554e-05
0.000255706
0.000249498
1.7457e-05
0.000178563
0.000329369
8.15703e-06
7.32797e-06
8.3213e-06
7.34754e-06
4.7494e-06
0.000255288
0.000254497
7.25959e-05
1.21347e-05
1.28775e-05
4.9885e-06
3.88863e-06
3.76303e-06
3.6884e-06
3.46657e-06
9.68067e-05
0.000246236
0.000231164
2.3874e-05
4.29861e-06
3.56678e-06
3.41434e-06
3.3766e-06
3.35545e-06
3.32009e-06
2.80382e-05
9.65251e-05
0.000111018
0.000164831
3.64022e-05
3.41437e-06
3.323e-06
3.3045e-06
3.30132e-06
3.30191e-06
3.37445e-05
1.61241e-05
3.83836e-05
9.57458e-05
5.46295e-05
3.323e-06
3.29523e-06
3.29142e-06
3.29097e-06
3.29207e-06
8.78144e-05
1.39559e-05
7.81186e-06
9.10185e-06
5.23265e-06
3.53598e-06
3.323e-06
3.3045e-06
3.30948e-06
1.14771e-05
2.89651e-05
7.36607e-06
7.43215e-06
7.37865e-06
6.44366e-06
2.19059e-05
3.73437e-05
4.5725e-05
4.06998e-05
3.64012e-05
7.46927e-06
7.36617e-06
7.46927e-06
7.49021e-06
1.26581e-05
0.000110727
0.000152123
0.000130664
3.61207e-05
2.1705e-05
1
1
1
1
1
1
1
1
1
1
1
1
1
1
1
1
1
1
1
1
1
0.999993
0.999995
0.999998
1
1
1
1
0.999998
0.999993
1
0.999953
0.999944
0.999989
1
1
1
1
0.999973
0.999979
1
0.999995
0.999933
0.999995
1
1
1
1
0.999921
0.999697
0.999998
0.999981
0.999927
0.999993
0.999999
1
1
1
0.999971
0.999499
0.999046
0.995901
0.998887
0.999853
0.999951
0.999984
0.999996
0.999988
0.999997
0.999992
0.560083
0.503461
0.568025
0.667392
0.764192
0.851473
0.908925
0.936398
0.95563
0.957047
1.14496e-05
1.9394e-05
9.24956e-06
0.00275805
0.0291066
0.0804351
0.169406
0.311309
0.455703
0.466621
8.73325e-06
9.24916e-06
6.89842e-06
6.75018e-06
6.72433e-06
6.76086e-06
8.46269e-05
0.00384885
0.00378412
0.0026217
0.0001576
0.000186928
6.30336e-05
6.89842e-06
6.76086e-06
0.000104853
0.000139214
7.58696e-06
2.19973e-05
3.09267e-05
0.000255698
0.000253493
0.000138624
4.40685e-05
0.000286194
0.000276985
4.16946e-05
5.15849e-06
8.12314e-06
7.57695e-06
0.000180515
0.000248636
0.000133942
4.2122e-05
0.000244889
0.000136214
4.28857e-06
3.78518e-06
3.87495e-06
3.79769e-06
0.000110205
0.000246455
0.000165196
1.43565e-05
1.27625e-05
5.01597e-06
3.49402e-06
3.40242e-06
3.39306e-06
3.38801e-06
2.97553e-05
0.000230903
0.000229325
0.000150365
4.75167e-06
3.49409e-06
3.32591e-06
3.30838e-06
3.30415e-06
3.30188e-06
2.97553e-05
7.08816e-05
0.000162308
0.000190536
0.00012867
3.32592e-06
3.29523e-06
3.29142e-06
3.29142e-06
3.29207e-06
6.72342e-05
1.26473e-05