/*--------------------------------*- C++ -*----------------------------------*\
| =========                 |                                                 |
| \\      /  F ield         | OpenFOAM: The Open Source CFD Toolbox           |
|  \\    /   O peration     | Version:  2312                                  |
|   \\  /    A nd           | Website:  www.openfoam.com                      |
|    \\/     M anipulation  |                                                 |
\*---------------------------------------------------------------------------*/
FoamFile
{
    version     2.0;
    format      ascii;
    arch        "LSB;label=32;scalar=64";
    class       volScalarField;
    location    "1.115";
    object      p;
}
// * * * * * * * * * * * * * * * * * * * * * * * * * * * * * * * * * * * * * //

dimensions      [1 -1 -2 0 0 0 0];

internalField   nonuniform List<scalar> 
8000
(
367.814
368.151
368.725
369.541
370.523
371.593
372.631
373.504
374.078
374.262
317.815
318.079
318.63
319.589
320.728
321.958
323.158
324.172
324.853
325.099
266.934
267.168
267.538
268.496
270
271.641
273.22
274.575
275.549
275.922
215.038
215.209
215.575
216.715
218.492
220.611
222.768
224.662
226
226.579
161.558
161.632
162.363
163.923
166.097
168.856
171.783
174.409
176.328
177.204
105.783
105.859
107.149
108.984
111.758
115.549
119.73
123.646
126.572
127.961
47.4976
47.0295
48.4634
50.3394
53.7031
59.2997
66.1497
72.6686
77.4545
79.5662
8.08712
7.50772
7.7072
8.00679
9.06605
12.0526
18.2876
25.4292
31.981
35.2027
-0.117714
-0.114961
-0.109889
-0.098088
-0.0935382
-0.0779287
0.1389
1.91247
5.32266
8.40986
-0.184961
-0.183304
-0.177082
-0.180968
-0.198295
-0.231145
-0.294555
-0.36772
-0.381156
-0.325894
-0.256421
-0.254778
-0.255856
-0.271739
-0.300243
-0.348467
-0.40639
-0.437474
-0.426539
-0.381855
-0.334395
-0.336191
-0.344093
-0.370051
-0.402153
-0.443549
-0.474057
-0.486813
-0.47367
-0.445095
-0.415718
-0.421674
-0.432047
-0.453472
-0.478281
-0.507706
-0.524533
-0.524612
-0.515241
-0.50115
-0.499067
-0.507829
-0.515472
-0.527482
-0.544763
-0.569002
-0.592748
-0.607692
-0.602301
-0.592513
-0.583589
-0.595735
-0.600622
-0.605414
-0.618129
-0.646533
-0.674467
-0.689846
-0.687619
-0.676591
-0.666211
-0.680617
-0.687649
-0.688768
-0.700749
-0.721809
-0.746179
-0.758884
-0.753172
-0.736806
-0.743261
-0.756961
-0.772133
-0.771951
-0.777245
-0.786535
-0.804751
-0.816029
-0.810545
-0.790167
-0.811346
-0.82162
-0.836114
-0.838733
-0.838009
-0.844158
-0.858399
-0.870455
-0.866628
-0.843427
-0.87214
-0.878669
-0.888849
-0.891133
-0.893688
-0.902275
-0.914858
-0.923807
-0.918507
-0.894584
-0.928968
-0.93265
-0.93958
-0.943016
-0.949246
-0.960244
-0.971203
-0.974976
-0.966423
-0.941269
368.409
368.89
369.476
370.25
371.169
372.196
373.208
374.059
374.616
374.782
318.439
318.816
319.416
320.321
321.409
322.605
323.778
324.772
325.43
325.644
267.707
267.854
268.182
269.196
270.718
272.377
273.941
275.264
276.181
276.557
215.95
215.913
216.033
217.282
219.251
221.471
223.631
225.494
226.752
227.233
161.968
162.148
162.935
164.648
167.058
169.944
172.883
175.44
177.155
177.874
105.358
105.904
107.556
109.63
112.725
116.687
120.801
124.598
127.383
128.709
47.5246
47.1213
48.3313
50.125
54.19
60.4828
67.1535
73.3093
77.7657
79.9573
8.45907
7.57619
7.77468
8.20584
9.40618
12.3663
18.5113
25.6929
32.4779
36.0416
-0.112055
-0.103116
-0.0947554
-0.088679
-0.102751
-0.103647
0.265553
2.07464
5.43935
8.73652
-0.187534
-0.18641
-0.184632
-0.198486
-0.227985
-0.27293
-0.335405
-0.400873
-0.428386
-0.400313
-0.262116
-0.264353
-0.270212
-0.298677
-0.351531
-0.41956
-0.475398
-0.507572
-0.508618
-0.47791
-0.344105
-0.349072
-0.365818
-0.413084
-0.469398
-0.505048
-0.53612
-0.550838
-0.539709
-0.511979
-0.423293
-0.431116
-0.45383
-0.50117
-0.521154
-0.535425
-0.551483
-0.554436
-0.546526
-0.527331
-0.50196
-0.511531
-0.530758
-0.562704
-0.575094
-0.593505
-0.619198
-0.631877
-0.624579
-0.608263
-0.58379
-0.594419
-0.603816
-0.624021
-0.642611
-0.671136
-0.706557
-0.721275
-0.712595
-0.696496
-0.665281
-0.677869
-0.68053
-0.691544
-0.712155
-0.741212
-0.775111
-0.79121
-0.782254
-0.761574
-0.742302
-0.756145
-0.761871
-0.761285
-0.775425
-0.798181
-0.824307
-0.841639
-0.837726
-0.81245
-0.811283
-0.823968
-0.832498
-0.832876
-0.836482
-0.852724
-0.873173
-0.891597
-0.890625
-0.864603
-0.871379
-0.881804
-0.887709
-0.889489
-0.896613
-0.912055
-0.931054
-0.943961
-0.940055
-0.914671
-0.926942
-0.935076
-0.939371
-0.943175
-0.95489
-0.974872
-0.990372
-0.993307
-0.982586
-0.95784
369.586
370.216
371.224
371.903
372.527
373.371
374.293
375.094
375.616
375.752
319.551
320.173
321.119
322.044
322.917
323.903
324.952
325.881
326.497
326.68
268.767
269.179
270.007
270.986
272.301
273.836
275.313
276.546
277.368
277.66
217.189
217.318
217.968
219.09
220.912
223.089
225.174
226.943
228.118
228.559
163.846
164.098
165.061
166.629
169.059
171.978
174.83
177.211
178.849
179.514
108.816
109.13
110.474
112.493
115.625
119.318
123.21
126.83
129.588
130.754
52.2135
51.6864
53.1316
55.4808
59.8369
64.9896
70.6663
75.7392
79.793
81.9312
10.7883
9.82855
10.4689
11.4233
13.0949
16.5385
22.9093
29.1044
34.8379
37.7757
-0.129269
-0.12328
-0.12199
-0.134878
-0.104433
0.00552377
1.12547
3.27974
6.63283
9.2399
-0.210212
-0.209869
-0.215858
-0.241397
-0.275708
-0.311587
-0.366296
-0.403604
-0.429391
-0.425402
-0.286425
-0.292431
-0.303754
-0.33079
-0.373156
-0.425986
-0.469813
-0.493526
-0.50108
-0.493187
-0.370078
-0.377219
-0.395961
-0.424556
-0.457978
-0.490956
-0.52214
-0.540864
-0.538886
-0.520703
-0.447768
-0.455973
-0.477316
-0.501012
-0.519105
-0.538337
-0.559804
-0.560907
-0.540458
-0.512002
-0.523485
-0.531247
-0.549996
-0.571069
-0.587636
-0.607455
-0.637288
-0.646277
-0.624228
-0.59002
-0.599479
-0.605657
-0.616801
-0.634082
-0.662511
-0.698639
-0.744287
-0.755455
-0.742919
-0.708913
-0.673329
-0.678697
-0.683895
-0.697422
-0.731868
-0.77574
-0.819809
-0.836989
-0.823946
-0.793103
-0.742569
-0.748757
-0.755799
-0.763666
-0.790473
-0.830114
-0.862236
-0.879987
-0.872718
-0.842167
-0.806999
-0.814336
-0.824492
-0.831129
-0.847224
-0.876979
-0.900532
-0.916275
-0.913314
-0.886264
-0.867823
-0.8746
-0.882506
-0.89067
-0.909726
-0.928945
-0.946821
-0.957316
-0.954478
-0.930467
-0.926296
-0.931516
-0.936132
-0.942474
-0.965062
-0.983524
-0.996503
-1.00033
-0.993098
-0.968719
371.062
371.625
372.624
373.311
373.994
374.844
375.74
376.507
376.993
377.101
321.21
321.85
322.931
323.858
324.619
325.526
326.5
327.394
327.972
328.123
270.532
271.139
272.262
273.411
274.564
275.873
277.204
278.323
279.053
279.274
219.251
219.633
220.738
222.059
223.708
225.596
227.489
229.07
230.13
230.496
167.005
167.253
168.447
170.125
172.43
175.087
177.653
179.858
181.364
181.909
113.573
113.541
114.812
116.911
119.874
123.336
126.987
130.321
132.695
133.601
58.2216
57.912
59.7947
62.6327
66.2155
70.5876
75.3308
79.9719
83.898
85.5378
13.5622
13.1109
14.4802
16.495
18.8597
23.2608
28.7079
34.1777
38.8019
40.4317
-0.118774
-0.0984888
-0.0588886
-0.0645831
0.227687
1.2243
2.86924
5.34408
8.47458
9.90389
-0.238301
-0.234276
-0.237462
-0.263683
-0.308329
-0.340722
-0.368513
-0.389467
-0.414186
-0.392509
-0.314818
-0.318824
-0.330749
-0.352028
-0.384321
-0.417014
-0.441178
-0.450743
-0.445065
-0.439967
-0.394433
-0.400439
-0.410367
-0.424079
-0.440687
-0.470093
-0.502096
-0.519769
-0.51342
-0.496934
-0.468325
-0.475859
-0.486083
-0.493588
-0.504185
-0.532813
-0.569192
-0.576665
-0.555272
-0.526071
-0.540959
-0.547765
-0.558979
-0.568605
-0.58033
-0.616814
-0.661051
-0.668123
-0.639232
-0.595906
-0.612547
-0.618573
-0.628105
-0.643778
-0.665896
-0.715705
-0.78049
-0.798631
-0.771807
-0.714341
-0.681915
-0.688093
-0.695136
-0.712596
-0.744165
-0.789712
-0.84991
-0.872763
-0.853052
-0.809841
-0.7488
-0.755235
-0.762669
-0.777085
-0.802508
-0.845961
-0.883097
-0.905772
-0.895542
-0.856923
-0.814311
-0.822021
-0.829413
-0.840085
-0.859271
-0.885432
-0.913708
-0.927346
-0.921548
-0.894163
-0.876226
-0.88629
-0.890507
-0.898252
-0.917143
-0.938114
-0.951328
-0.960231
-0.954402
-0.932948
-0.934703
-0.946688
-0.946855
-0.951768
-0.970947
-0.991914
-1.00314
-1.00492
-0.995817
-0.975043
372.725
373.177
374.006
374.781
375.608
376.527
377.431
378.178
378.641
378.726
323.124
323.631
324.585
325.494
326.374
327.354
328.359
329.22
329.762
329.88
272.88
273.418
274.452
275.664
276.856
278.124
279.379
280.434
281.104
281.267
222.139
222.624
223.712
225.181
226.794
228.523
230.245
231.698
232.633
232.893
170.757
171.234
172.476
174.261
176.422
178.806
181.152
183.163
184.449
184.831
118.379
118.66
120.143
122.23
124.967
128.234
131.603
134.523
136.447
137.069
64.7406
65.1128
67.4287
69.9383
73.0531
76.88
81.21
85.5927
88.6549
89.7611
17.5828
18.2591
20.8708
23.8646
27.3311
31.3122
35.7806
40.1519
43.3594
44.2859
0.0511877
0.0983832
0.378517
1.40491
2.60245
3.95506
5.81236
8.58233
10.5874
11.0834
-0.292623
-0.295726
-0.307365
-0.294463
-0.317692
-0.340786
-0.363564
-0.388537
-0.387839
-0.297158
-0.349223
-0.350452
-0.358209
-0.370269
-0.395962
-0.414247
-0.424164
-0.438778
-0.451458
-0.432659
-0.418051
-0.422498
-0.424488
-0.427806
-0.441489
-0.474441
-0.504956
-0.519226
-0.510485
-0.487981
-0.486463
-0.493004
-0.496451
-0.496859
-0.510409
-0.55211
-0.594479
-0.600841
-0.577049
-0.547528
-0.55661
-0.563853
-0.571952
-0.576896
-0.59391
-0.651865
-0.702671
-0.706018
-0.674688
-0.623534
-0.626821
-0.634614
-0.646277
-0.659666
-0.68149
-0.740292
-0.803726
-0.816168
-0.784268
-0.736135
-0.695041
-0.704863
-0.717321
-0.733574
-0.758228
-0.803548
-0.859778
-0.881214
-0.858493
-0.811852
-0.763361
-0.776572
-0.784887
-0.795466
-0.817005
-0.848182
-0.884137
-0.904861
-0.893701
-0.856695
-0.826978
-0.84319
-0.845624
-0.850699
-0.866641
-0.888533
-0.908178
-0.919509
-0.91343
-0.891069
-0.884152
-0.901837
-0.899986
-0.903087
-0.916151
-0.934047
-0.94654
-0.953951
-0.947446
-0.93168
-0.937555
-0.956204
-0.952304
-0.95484
-0.967338
-0.984587
-0.998856
-1.00452
-0.995078
-0.981184
374.47
374.859
375.571
376.403
377.332
378.307
379.227
379.973
380.426
380.493
325.081
325.505
326.308
327.225
328.219
329.298
330.34
331.192
331.715
331.815
275.322
275.787
276.693
277.86
279.131
280.441
281.699
282.724
283.346
283.464
225.223
225.721
226.715
228.128
229.755
231.513
233.182
234.545
235.371
235.535
174.62
175.209
176.493
178.217
180.333
182.658
184.899
186.719
187.807
188.047
123.303
123.749
125.408
127.44
130.216
133.397
136.44
138.98
140.518
140.901
71.5049
72.1131
74.483
76.7156
80.1301
83.8313
87.9429
91.5373
93.7489
94.3741
23.7202
24.9017
28.3801
32.3149
36.3859
40.2331
43.8632
47.0287
48.7292
48.9363
1.54212
1.62129
2.61589
4.70386
6.96318
8.5508
10.289
12.1714
13.2931
13.2371
-0.30097
-0.302744
-0.306188
-0.309585
-0.326801
-0.344511
-0.349379
-0.337024
-0.201844
-0.168136
-0.371689
-0.370051
-0.370733
-0.38215
-0.406881
-0.423148
-0.432764
-0.453507
-0.473544
-0.443964
-0.439188
-0.43848
-0.437666
-0.438789
-0.461917
-0.50534
-0.528728
-0.528449
-0.519432
-0.488864
-0.50399
-0.507659
-0.509827
-0.514496
-0.541788
-0.601678
-0.641016
-0.64433
-0.619846
-0.574899
-0.573557
-0.581146
-0.589594
-0.599034
-0.631993
-0.6969
-0.738594
-0.733167
-0.706297
-0.66323
-0.644643
-0.655466
-0.670021
-0.684338
-0.712859
-0.766827
-0.81473
-0.818341
-0.789576
-0.750571
-0.712704
-0.729703
-0.744621
-0.756517
-0.777531
-0.815525
-0.857515
-0.870696
-0.850256
-0.815407
-0.777133
-0.797237
-0.806717
-0.812155
-0.824848
-0.847552
-0.874523
-0.887858
-0.882674
-0.858259
-0.832668
-0.850142
-0.855252
-0.857226
-0.865858
-0.881174
-0.897388
-0.907678
-0.907018
-0.893773
-0.881462
-0.895508
-0.898299
-0.900799
-0.908973
-0.923608
-0.937823
-0.94464
-0.942228
-0.93663
-0.929445
-0.943255
-0.945374
-0.948144
-0.956564
-0.973112
-0.988758
-0.99419
-0.991976
-0.98855
376.142
376.51
377.18
378.041
379.021
380.037
380.979
381.731
382.18
382.244
326.93
327.329
328.062
328.987
330.069
331.211
332.28
333.136
333.654
333.753
277.572
278.026
278.879
280.031
281.331
282.698
283.975
284.989
285.588
285.685
228.071
228.586
229.537
230.906
232.595
234.38
236.037
237.348
238.112
238.221
178.205
178.773
180.036
181.771
183.955
186.306
188.499
190.199
191.179
191.316
127.847
128.347
130.045
132.267
135.122
138.198
141.11
143.369
144.659
144.85
77.6182
78.3019
80.3821
83.0856
87.1388
91
94.5761
97.388
99.0116
99.3006
30.2995
31.9132
36.146
40.6822
44.9287
48.7196
51.7666
53.8729
54.8786
54.686
3.62442
3.67683
6.09885
9.60393
12.3978
14.0969
15.5617
16.8413
17.2921
16.5499
-0.31229
-0.311256
-0.308112
-0.291774
-0.275231
-0.287049
-0.237533
0.00117479
0.298613
0.209298
-0.394084
-0.389579
-0.38112
-0.389381
-0.422505
-0.461224
-0.503241
-0.52461
-0.497223
-0.438939
-0.460203
-0.457684
-0.45113
-0.462135
-0.502995
-0.551859
-0.583396
-0.580557
-0.53966
-0.474128
-0.521463
-0.524869
-0.525815
-0.536411
-0.577242
-0.644095
-0.684422
-0.685349
-0.659688
-0.609751
-0.588684
-0.596893
-0.60818
-0.621538
-0.661849
-0.722413
-0.7561
-0.752897
-0.730153
-0.69325
-0.65888
-0.675885
-0.690521
-0.703326
-0.733275
-0.77975
-0.814854
-0.814344
-0.794076
-0.76481
-0.723031
-0.750771
-0.761037
-0.768303
-0.786889
-0.816428
-0.8448
-0.854939
-0.843107
-0.822578
-0.779276
-0.805534
-0.813065
-0.816113
-0.827068
-0.843732
-0.862926
-0.877692
-0.880099
-0.867267
-0.826549
-0.845042
-0.851553
-0.854678
-0.862388
-0.874972
-0.889666
-0.903798
-0.909944
-0.904635
-0.869311
-0.884417
-0.889943
-0.894322
-0.902994
-0.91657
-0.929562
-0.940203
-0.946102
-0.944512
-0.915102
-0.929803
-0.93509
-0.940889
-0.950728
-0.965174
-0.978858
-0.988026
-0.99347
-0.992275
377.581
377.946
378.61
379.491
380.505
381.556
382.521
383.281
383.726
383.756
328.506
328.902
329.621
330.579
331.713
332.899
333.997
334.865
335.382
335.45
279.47
279.922
280.765
281.926
283.275
284.683
285.986
287.016
287.617
287.708
230.408
230.953
231.91
233.337
235.069
236.879
238.542
239.851
240.609
240.718
181.158
181.703
182.995
184.835
187.092
189.484
191.652
193.311
194.265
194.373
131.613
132.161
133.971
136.296
139.314
142.489
145.296
147.358
148.511
148.617
82.5795
83.1562
85.3918
89.0053
93.3219
97.1086
100.341
102.684
103.998
104.118
36.3899
38.4035
42.6735
46.8496
51.4271
55.3883
58.3304
60.1871
61.0546
60.708
6.4274
6.91635
10.6606
14.1494
17.3684
19.6908
21.2487
22.2099
22.3094
21.2533
-0.319366
-0.318231
-0.284731
-0.16012
0.196744
0.422322
0.703286
1.04849
1.15884
0.944211
-0.417442
-0.415248
-0.406666
-0.423497
-0.448386
-0.496655
-0.572573
-0.59862
-0.525729
-0.403687
-0.480674
-0.481443
-0.476751
-0.496914
-0.535044
-0.578045
-0.613583
-0.621944
-0.578757
-0.479448
-0.535557
-0.543632
-0.549118
-0.561707
-0.603216
-0.66923
-0.71585
-0.719145
-0.689045
-0.631304
-0.597696
-0.610999
-0.62489
-0.638419
-0.681146
-0.743007
-0.7792
-0.774824
-0.74957
-0.711725
-0.662813
-0.685899
-0.698004
-0.709847
-0.743281
-0.789553
-0.821928
-0.82083
-0.802732
-0.777816
-0.721323
-0.748726
-0.756049
-0.76489
-0.786905
-0.816345
-0.840806
-0.853074
-0.848061
-0.833139
-0.768848
-0.794131
-0.800615
-0.807799
-0.82259
-0.841556
-0.860815
-0.878512
-0.884924
-0.875548
-0.812515
-0.832153
-0.839988
-0.846139
-0.857649
-0.873209
-0.88956
-0.907075
-0.91454
-0.906734
-0.855411
-0.873835
-0.883644
-0.890166
-0.899883
-0.91452
-0.929551
-0.941496
-0.945973
-0.940737
-0.902196
-0.920637
-0.933609
-0.943689
-0.953595
-0.965957
-0.978041
-0.984435
-0.989087
-0.990428
378.638
379.01
379.683
380.576
381.621
382.702
383.688
384.46
384.912
384.955
329.649
330.043
330.762
331.777
332.952
334.175
335.299
336.188
336.729
336.801
280.854
281.328
282.181
283.351
284.739
286.176
287.501
288.561
289.219
289.339
232.035
232.613
233.649
235.151
236.936
238.759
240.422
241.756
242.605
242.767
183.206
183.788
185.21
187.202
189.552
191.925
194.038
195.7
196.763
196.92
134.262
134.858
136.774
139.371
142.568
145.748
148.421
150.413
151.616
151.707
85.9126
86.473
89.1785
93.0263
97.4241
101.318
104.414
106.626
107.897
107.94
40.5255
42.6543
46.2646
50.3292
55.7928
59.7624
62.8012
64.7321
65.5397
65.0944
8.96205
10.9489
14.3767
18.1605
21.9688
24.5474
26.2583
27.0298
26.7157
25.3987
-0.331143
-0.308659
-0.0852521
0.503184
1.26575
1.91152
2.32364
2.47334
2.27683
1.87931
-0.437587
-0.444523
-0.442413
-0.446136
-0.474002
-0.525592
-0.615135
-0.664111
-0.59862
-0.421036
-0.492762
-0.502512
-0.510895
-0.525569
-0.553176
-0.595537
-0.646223
-0.66947
-0.624383
-0.505347
-0.543378
-0.561021
-0.579492
-0.589273
-0.617679
-0.675581
-0.731912
-0.740585
-0.707142
-0.6431
-0.602604
-0.623455
-0.641468
-0.655154
-0.692985
-0.759715
-0.809544
-0.805016
-0.768673
-0.724288
-0.661157
-0.687452
-0.698141
-0.713796
-0.750664
-0.807719
-0.847346
-0.843502
-0.818977
-0.788765
-0.713861
-0.739166
-0.745495
-0.759381
-0.787959
-0.826876
-0.859198
-0.866881
-0.858802
-0.841003
-0.757366
-0.781089
-0.785984
-0.796191
-0.817237
-0.843843
-0.868982
-0.886061
-0.888312
-0.875895
-0.801547
-0.822102
-0.826562
-0.832556
-0.848198
-0.870185
-0.891659
-0.908462
-0.912123
-0.900116
-0.848909
-0.868426
-0.876611
-0.879869
-0.890971
-0.908813
-0.926846
-0.935831
-0.936799
-0.932438
-0.896905
-0.914915
-0.930412
-0.938241
-0.945518
-0.956378
-0.968273
-0.977299
-0.986212
-0.987755
379.203
379.584
380.268
381.171
382.239
383.343
384.342
385.116
385.581
385.695
330.26
330.662
331.393
332.433
333.637
334.89
336.033
336.929
337.502
337.742
281.578
282.086
282.932
284.122
285.533
286.989
288.334
289.427
290.144
290.44
232.866
233.458
234.551
236.114
237.931
239.759
241.422
242.795
243.723
244.038
184.206
184.848
186.388
188.513
190.906
193.243
195.3
196.973
198.114
198.522
135.509
136.27
138.377
141.219
144.423
147.46
149.999
151.972
153.238
153.556
87.1598
88.0399
91.0933
95.1808
99.4855
103.285
106.303
108.529
109.8
109.991
41.5433
43.5859
47.2414
52.5194
57.5545
61.4615
64.4635
66.5401
67.0447
66.3683
9.41939
11.8145
15.8587
20.4926
24.3962
26.9643
28.7855
29.3737
28.3046
26.3131
-0.351192
-0.278107
0.225593
1.08111
2.1399
3.00973
3.40388
3.26914
2.68835
2.125
-0.448118
-0.465703
-0.467349
-0.472992
-0.520126
-0.560316
-0.64735
-0.739398
-0.701905
-0.538346
-0.496475
-0.522534
-0.545197
-0.545247
-0.565076
-0.604915
-0.674523
-0.72561
-0.691934
-0.574203
-0.550089
-0.577629
-0.609046
-0.609964
-0.622308
-0.667649
-0.737927
-0.763163
-0.729156
-0.659777
-0.605949
-0.635716
-0.6594
-0.668561
-0.693844
-0.756873
-0.8281
-0.837963
-0.793234
-0.738892
-0.658832
-0.690626
-0.703254
-0.715812
-0.747204
-0.807166
-0.865436
-0.868167
-0.833926
-0.795639
-0.706693
-0.73329
-0.741371
-0.751888
-0.778523
-0.822573
-0.867724
-0.879475
-0.864669
-0.842541
-0.751875
-0.769243
-0.775188
-0.781681
-0.801126
-0.832829
-0.867262
-0.888442
-0.887321
-0.870335
-0.803531
-0.816605
-0.815049
-0.816059
-0.830083
-0.856564
-0.884591
-0.904234
-0.90448
-0.888464
-0.852152
-0.864037
-0.863923
-0.86614
-0.877721
-0.895983
-0.912076
-0.918087
-0.924819
-0.923577
-0.89479
-0.907327
-0.917573
-0.922981
-0.929574
-0.942655
-0.960006
-0.973327
-0.986039
-0.981558
379.22
379.6
380.287
381.202
382.277
383.387
384.392
385.173
385.636
385.761
330.294
330.71
331.442
332.463
333.671
334.931
336.082
336.989
337.566
337.783
281.567
282.104
282.951
284.143
285.552
287.014
288.375
289.494
290.236
290.467
232.841
233.454
234.548
236.116
237.928
239.759
241.453
242.873
243.864
244.175
184.099
184.801
186.349
188.487
190.873
193.207
195.309
197.05
198.312
198.774
135.266
136.203
138.478
141.364
144.438
147.351
149.892
151.946
153.388
153.826
86.5877
87.6371
91.0714
95.1159
99.1787
102.808
105.883
108.282
109.767
110.059
40.1903
42.1912
46.3994
51.6891
56.5546
60.2526
63.2663
65.3622
66.0515
65.2625
8.2075
10.2542
14.4415
19.1964
22.825
25.2409
27.1947
28.0057
26.9172
24.7203
-0.354225
-0.309614
0.0713876
0.827638
1.67106
2.37854
2.74301
2.7051
2.18072
1.70515
-0.449963
-0.475953
-0.490261
-0.521983
-0.583713
-0.612892
-0.72949
-0.898483
-0.887239
-0.746758
-0.503059
-0.540405
-0.576645
-0.568093
-0.573281
-0.599224
-0.68396
-0.778409
-0.771755
-0.667291
-0.55702
-0.593105
-0.6349
-0.626995
-0.624239
-0.655526
-0.732383
-0.78126
-0.760696
-0.694356
-0.60782
-0.647258
-0.676611
-0.678281
-0.688813
-0.738183
-0.818393
-0.853009
-0.820558
-0.758467
-0.654801
-0.690908
-0.709295
-0.714931
-0.733135
-0.783218
-0.851321
-0.874433
-0.841776
-0.796526
-0.702192
-0.72652
-0.737345
-0.74148
-0.757949
-0.796242
-0.847801
-0.874011
-0.861669
-0.836895
-0.757963
-0.766485
-0.765658
-0.765555
-0.778559
-0.807416
-0.847003
-0.877133
-0.879756
-0.861816
-0.815789
-0.818434
-0.806437
-0.801782
-0.812699
-0.836379
-0.869473
-0.892002
-0.891846
-0.873722
-0.857717
-0.862877
-0.861435
-0.858082
-0.858815
-0.864556
-0.877632
-0.898326
-0.917823
-0.913625
-0.89333
-0.905021
-0.916985
-0.92116
-0.92442
-0.937834
-0.956883
-0.970939
-0.981529
-0.973576
378.677
379.062
379.76
380.669
381.735
382.836
383.839
384.626
385.086
385.119
329.69
330.103
330.822
331.86
333.058
334.299
335.444
336.358
336.926
337.02
280.85
281.362
282.22
283.403
284.811
286.268
287.626
288.736
289.452
289.631
231.936
232.542
233.621
235.166
236.973
238.815
240.532
241.954
242.921
243.196
182.872
183.504
185.052
187.204
189.606
191.971
194.126
195.908
197.174
197.594
133.57
134.351
136.781
139.69
142.759
145.698
148.321
150.466
151.957
152.524
84.3792
85.3388
88.6129
92.5263
96.5622
100.279
103.595
106.34
108.089
108.718
37.2906
39.2251
43.0399
47.9548
52.6993
56.5009
59.9345
62.8161
64.3291
64.4031
6.29003
7.81134
11.0949
15.0139
18.2396
20.4696
22.6911
24.765
25.2101
24.3206
-0.343311
-0.337606
-0.251812
0.0887642
0.476677
0.853817
1.25845
1.57884
1.33053
1.00722
-0.444888
-0.478967
-0.507732
-0.528941
-0.558768
-0.585889
-0.799829
-1.09519
-1.18075
-1.10307
-0.503418
-0.544035
-0.591024
-0.577646
-0.567036
-0.576178
-0.665934
-0.794321
-0.838382
-0.772552
-0.558489
-0.604809
-0.65422
-0.633516
-0.62394
-0.644036
-0.715719
-0.780967
-0.783062
-0.729474
-0.604842
-0.651258
-0.684984
-0.680486
-0.679918
-0.714183
-0.786396
-0.83843
-0.827505
-0.776664
-0.647941
-0.6847
-0.707706
-0.708987
-0.71537
-0.750402
-0.811236
-0.851412
-0.839172
-0.797747
-0.703937
-0.719541
-0.728654
-0.728764
-0.736528
-0.76382
-0.809884
-0.844958
-0.847721
-0.829325
-0.772705
-0.775439
-0.762982
-0.753772
-0.759507
-0.781699
-0.818193
-0.853455
-0.864725
-0.852506
-0.832144
-0.838012
-0.821791
-0.804681
-0.803342
-0.820902
-0.84917
-0.870924
-0.874171
-0.861396
-0.874965
-0.883205
-0.87994
-0.866318
-0.844391
-0.835721
-0.861458
-0.896973
-0.913309
-0.904196
-0.911694
-0.930532
-0.934283
-0.931898
-0.928174
-0.934653
-0.955161
-0.966889
-0.972562
-0.969032
377.646
378.033
378.734
379.655
380.711
381.797
382.789
383.57
384.022
384.046
328.54
328.965
329.724
330.736
331.913
333.133
334.262
335.162
335.71
335.8
279.45
279.94
280.832
282.044
283.442
284.888
286.237
287.328
288.002
288.149
230.219
230.827
231.899
233.42
235.209
237.059
238.784
240.199
241.124
241.357
180.676
181.286
182.797
184.889
187.27
189.674
191.884
193.71
194.95
195.348
130.699
131.378
133.796
136.602
139.672
142.724
145.5
147.794
149.32
149.904
80.7908
81.4689
84.0165
87.7544
91.9755
96.0879
99.8262
102.96
105.016
105.823
33.2689
34.8351
37.8898
41.9483
46.6887
51.1396
55.3269
58.9498
61.4014
62.3563
4.37172
4.93139
6.9682
9.90298
12.7131
15.2367
18.2582
21.2
22.9983
23.4087
-0.352604
-0.356163
-0.387841
-0.341775
-0.179407
0.0106973
0.616826
1.09763
0.686663
0.297474
-0.437701
-0.468511
-0.502822
-0.498902
-0.488317
-0.505317
-0.695746
-1.00397
-1.25199
-1.30245
-0.500888
-0.546971
-0.581304
-0.565455
-0.55939
-0.556415
-0.621902
-0.731816
-0.811791
-0.8063
-0.5529
-0.607621
-0.641691
-0.628471
-0.620349
-0.632874
-0.690053
-0.754298
-0.780193
-0.754704
-0.592558
-0.642711
-0.673659
-0.670502
-0.666502
-0.689872
-0.74814
-0.801008
-0.813928
-0.788136
-0.63989
-0.671926
-0.692919
-0.693906
-0.695534
-0.718458
-0.767016
-0.810078
-0.818819
-0.797026
-0.710791
-0.715897
-0.717628
-0.714896
-0.718053
-0.735581
-0.771746
-0.808064
-0.823026
-0.820027
-0.78637
-0.791358
-0.7699
-0.749619
-0.749034
-0.762963
-0.791983
-0.827062
-0.84568
-0.843549
-0.857486
-0.868719
-0.848792
-0.819875
-0.802846
-0.80323
-0.82268
-0.848264
-0.858042
-0.85585
-0.909028
-0.922391
-0.905341
-0.875876
-0.847783
-0.84121
-0.870697
-0.896909
-0.904465
-0.900251
-0.936624
-0.953546
-0.945942
-0.940661
-0.932145
-0.93741
-0.952187
-0.963436
-0.966285
-0.970959
376.239
376.64
377.364
378.295
379.338
380.404
381.382
382.152
382.592
382.602
326.988
327.427
328.226
329.238
330.39
331.586
332.694
333.579
334.107
334.165
277.54
278.05
279.009
280.247
281.633
283.063
284.399
285.474
286.123
286.221
227.859
228.45
229.544
231.092
232.89
234.744
236.474
237.887
238.779
238.967
177.733
178.393
179.841
181.836
184.188
186.64
188.927
190.809
192.012
192.36
127.016
127.649
129.974
132.681
135.68
138.846
141.811
144.251
145.785
146.287
76.0596
76.6513
78.9244
81.8261
85.9682
90.5279
94.8079
98.3024
100.527
101.315
28.165
29.2897
31.9243
35.4433
39.689
44.7176
49.6108
53.5526
56.3012
57.4626
2.59477
2.63652
3.55153
5.34135
7.90448
11.0137
14.4598
17.0905
19.0473
20.0256
-0.365884
-0.373538
-0.394357
-0.373224
-0.39092
-0.175975
0.686425
0.536273
0.258381
0.0616695
-0.431681
-0.462171
-0.48248
-0.465549
-0.444549
-0.453629
-0.554927
-0.703497
-0.874801
-0.963891
-0.491417
-0.5383
-0.558874
-0.55092
-0.541765
-0.543204
-0.576435
-0.635619
-0.695839
-0.721064
-0.536738
-0.591008
-0.617306
-0.616683
-0.610303
-0.618806
-0.658106
-0.706557
-0.740977
-0.745023
-0.573507
-0.62132
-0.649629
-0.652457
-0.649603
-0.666298
-0.709648
-0.754059
-0.77917
-0.777945
-0.629478
-0.656525
-0.674041
-0.676018
-0.676518
-0.692381
-0.728792
-0.768032
-0.788914
-0.787962
-0.710781
-0.716745
-0.709738
-0.706049
-0.707041
-0.718272
-0.744694
-0.777077
-0.798669
-0.806361
-0.797641
-0.808678
-0.786196
-0.755603
-0.74947
-0.756156
-0.776463
-0.804369
-0.825026
-0.834682
-0.875338
-0.889802
-0.867538
-0.830866
-0.806161
-0.797129
-0.814131
-0.835779
-0.847757
-0.855885
-0.930057
-0.94263
-0.912418
-0.877939
-0.855926
-0.854279
-0.873113
-0.890647
-0.894716
-0.901154
-0.952205
-0.962897
-0.95197
-0.943245
-0.930819
-0.935763
-0.948014
-0.956579
-0.960676
-0.979266
374.609
375.044
375.828
376.759
377.778
378.821
379.781
380.537
380.961
380.948
325.178
325.66
326.558
327.586
328.689
329.842
330.928
331.796
332.3
332.321
275.314
275.861
276.941
278.253
279.621
281.016
282.338
283.41
284.042
284.089
224.995
225.577
226.763
228.458
230.302
232.165
233.916
235.348
236.221
236.352
174.175
174.895
176.337
178.373
180.764
183.268
185.653
187.633
188.847
189.128
122.65
123.273
125.378
128.149
131.33
134.603
137.753
140.372
141.953
142.344
70.566
70.9217
73.4368
76.1844
79.7317
84.2138
88.9596
93.0552
95.6212
96.3184
23.0339
23.3887
25.7427
28.7112
32.9844
38.1319
43.0484
47.6498
50.8362
51.7648
1.15849
1.08189
1.54309
2.37733
3.95483
6.85963
10.1431
13.1544
15.3012
15.8307
-0.363274
-0.371784
-0.378748
-0.345475
-0.362292
-0.0465921
0.24058
-0.110791
-0.140555
-0.20217
-0.419561
-0.449267
-0.463863
-0.444884
-0.414649
-0.436194
-0.465548
-0.50979
-0.585867
-0.637502
-0.474457
-0.518748
-0.534723
-0.539046
-0.515764
-0.529355
-0.537067
-0.562519
-0.59571
-0.620674
-0.514118
-0.563962
-0.590293
-0.601838
-0.592978
-0.602119
-0.621981
-0.651835
-0.681141
-0.699429
-0.552773
-0.594886
-0.621867
-0.63057
-0.630482
-0.644598
-0.673775
-0.706944
-0.733217
-0.745299
-0.617934
-0.641436
-0.65748
-0.65978
-0.661025
-0.674638
-0.70173
-0.733239
-0.756635
-0.767348
-0.703123
-0.714761
-0.707131
-0.701603
-0.701694
-0.709879
-0.729157
-0.755874
-0.778134
-0.793498
-0.792726
-0.809775
-0.789765
-0.762992
-0.753399
-0.75519
-0.767258
-0.787473
-0.808525
-0.827249
-0.873859
-0.893769
-0.874066
-0.839746
-0.816854
-0.807012
-0.813615
-0.827019
-0.841489
-0.858718
-0.929398
-0.942353
-0.909917
-0.881827
-0.868863
-0.867615
-0.874499
-0.883299
-0.888429
-0.90442
-0.951464
-0.960253
-0.94761
-0.935909
-0.922504
-0.925898
-0.936224
-0.944136
-0.952491
-0.98568
372.915
373.426
374.331
375.247
376.198
377.198
378.142
378.883
379.289
379.254
323.272
323.867
324.95
325.994
327.009
328.085
329.136
329.987
330.47
330.462
272.918
273.555
274.848
276.3
277.612
278.953
280.256
281.33
281.956
281.98
221.876
222.47
223.833
225.765
227.663
229.549
231.345
232.82
233.699
233.805
170.245
170.903
172.355
174.687
177.281
179.89
182.387
184.492
185.779
186.056
117.713
118.272
120.084
122.932
126.478
130.235
133.79
136.629
138.34
138.669
64.4572
64.3783
66.7405
70.0187
74.1047
78.6246
83.0897
87.8581
91.0566
91.7608
18.4992
17.824
19.7223
22.3792
26.24
31.6949
37.2904
42.2708
46.3169
47.1857
0.0491873
0.0307836
0.234328
0.791857
1.63938
3.51407
6.3348
10.1357
13.5717
13.7558
-0.341252
-0.340888
-0.355123
-0.320804
-0.266356
-0.256927
-0.204149
-0.345196
-0.331634
-0.326389
-0.398259
-0.425833
-0.443609
-0.430227
-0.388733
-0.422613
-0.431368
-0.450669
-0.492625
-0.524697
-0.452233
-0.492158
-0.515126
-0.521242
-0.494134
-0.505141
-0.510194
-0.524924
-0.545456
-0.564487
-0.492095
-0.5346
-0.56197
-0.574935
-0.569039
-0.577379
-0.588916
-0.607145
-0.628131
-0.647151
-0.537643
-0.569659
-0.593055
-0.603755
-0.6107
-0.62475
-0.645089
-0.667101
-0.687585
-0.703764
-0.605628
-0.625731
-0.637001
-0.64232
-0.647862
-0.663128
-0.684764
-0.707508
-0.726941
-0.741925
-0.683593
-0.704433
-0.699569
-0.693759
-0.696261
-0.705037
-0.721333
-0.742168
-0.762054
-0.781106
-0.771646
-0.792145
-0.779318
-0.75948
-0.751572
-0.752016
-0.760362
-0.77668
-0.798178
-0.822402
-0.856592
-0.881085
-0.861682
-0.83781
-0.822791
-0.814169
-0.811343
-0.818944
-0.837019
-0.862965
-0.915098
-0.931575
-0.904973
-0.88579
-0.879115
-0.878087
-0.878094
-0.883399
-0.89251
-0.913401
-0.938784
-0.951445
-0.940353
-0.930487
-0.918911
-0.919852
-0.922858
-0.930534
-0.947031
-0.985461
371.307
371.957
372.997
373.873
374.728
375.673
376.6
377.34
377.738
377.693
321.449
322.17
323.413
324.521
325.436
326.446
327.475
328.311
328.786
328.764
270.591
271.338
272.8
274.338
275.633
276.971
278.303
279.404
280.029
280.059
218.877
219.406
220.953
222.959
224.947
226.988
228.931
230.473
231.383
231.492
166.233
166.708
168.265
170.788