/*--------------------------------*- C++ -*----------------------------------*\
| =========                 |                                                 |
| \\      /  F ield         | OpenFOAM: The Open Source CFD Toolbox           |
|  \\    /   O peration     | Version:  2312                                  |
|   \\  /    A nd           | Website:  www.openfoam.com                      |
|    \\/     M anipulation  |                                                 |
\*---------------------------------------------------------------------------*/
FoamFile
{
    version     2.0;
    format      ascii;
    arch        "LSB;label=32;scalar=64";
    class       surfaceScalarField;
    location    "1.41";
    object      phi;
}
// * * * * * * * * * * * * * * * * * * * * * * * * * * * * * * * * * * * * * //

dimensions      [0 3 -1 0 0 0 0];

oriented        oriented;

internalField   nonuniform List<scalar> 
22600
(
-6.80542e-11
1.62568e-08
-1.61887e-08
3.04427e-08
6.40439e-08
-9.45545e-08
5.2911e-08
1.82043e-07
-2.04512e-07
7.02092e-08
2.25892e-07
-2.4319e-07
5.6425e-08
1.81457e-07
-1.67672e-07
6.3024e-09
1.23823e-07
-7.37006e-08
-6.0123e-08
9.65063e-08
-3.00808e-08
-1.20253e-07
8.13533e-08
-2.12239e-08
-1.54475e-07
5.53688e-08
-2.11464e-08
2.07684e-08
-2.61052e-08
7.63719e-08
-8.18845e-08
2.17696e-08
1.22186e-07
-9.9287e-08
1.17517e-07
5.17851e-08
1.89493e-07
6.29515e-08
-6.67693e-09
3.12369e-07
-2.80148e-08
-3.61603e-08
3.11915e-07
-1.00975e-07
-7.11581e-08
2.52622e-07
-9.38014e-08
-1.22219e-07
2.01044e-07
-5.34775e-08
-1.78305e-07
1.68511e-07
-3.10713e-08
-2.01336e-07
9.10127e-08
-1.26134e-08
-5.26789e-08
1.97996e-08
1.25828e-07
-3.88506e-07
1.80794e-07
2.37013e-07
-5.33403e-07
3.22931e-07
1.17562e-07
3.15847e-08
2.77359e-07
-6.37401e-08
2.83842e-07
2.09829e-07
-1.45005e-07
2.97334e-07
9.5846e-08
-1.64303e-07
2.90677e-07
-1.87558e-08
-2.08318e-07
2.84948e-07
-3.98894e-08
-2.71909e-07
2.33322e-07
-1.21899e-09
-2.43712e-07
-1.12107e-08
7.40265e-08
-2.69296e-07
1.31445e-07
4.7974e-08
-7.31299e-07
2.94819e-07
1.73947e-07
-9.39225e-07
2.79849e-07
1.09763e-07
-2.37979e-07
3.33748e-07
-7.29036e-08
1.60652e-07
3.05856e-07
-1.85101e-07
1.97351e-07
2.1218e-07
-2.34657e-07
2.41332e-07
9.89015e-08
-2.71952e-07
2.74546e-07
4.76967e-08
-2.46273e-07
1.27243e-07
8.03987e-08
-1.96065e-07
-2.16349e-07
1.54931e-07
-3.92593e-07
1.41662e-07
-4.32947e-09
-7.46425e-07
1.94551e-08
1.85253e-08
-8.61928e-07
-1.00152e-07
-5.89121e-09
-3.81584e-07
1.68021e-07
-9.21112e-08
-3.24639e-08
2.79336e-07
-1.47973e-07
1.77071e-08
2.35506e-07
-1.56626e-07
7.98913e-08
1.70094e-07
-1.09912e-07
8.94217e-08
1.38411e-07
-5.7155e-08
-6.14e-08
1.35886e-07
-1.40853e-07
-2.2921e-07
9.65597e-08
-2.70742e-07
2.16057e-08
-8.8754e-08
-3.68485e-07
-2.89186e-07
-1.7995e-07
-3.85333e-07
-3.85398e-07
-1.71335e-07
-2.64987e-07
-1.25213e-07
-1.52787e-07
-1.45688e-07
9.46765e-08
-1.40582e-07
-1.34488e-07
1.3999e-07
-8.94359e-08
-1.06435e-07
1.3518e-07
-2.80825e-08
-9.31791e-08
1.21248e-07
-6.62563e-08
-9.65075e-08
7.32814e-08
-2.15262e-07
-2.77847e-08
-5.24202e-08
2.51145e-08
-1.68265e-07
-1.67049e-07
1.94288e-07
-3.95724e-07
-3.21143e-07
1.74158e-07
-4.05397e-07
-3.84294e-07
1.31117e-08
-2.14947e-07
-4.10933e-07
-9.94913e-08
-1.95576e-08
-4.1158e-07
-1.89871e-07
5.60302e-08
-3.66567e-07
-1.91303e-07
3.98547e-08
-3.25546e-07
-1.02671e-07
-3.15294e-08
-3.59279e-07
6.48168e-08
-1.27591e-07
-4.25307e-07
2.98427e-07
-2.60184e-07
3.87513e-07
-3.4208e-07
1.96414e-07
5.85693e-07
-5.87818e-07
1.75127e-07
4.82371e-07
-2.86927e-07
-1.37611e-07
2.55173e-07
7.06761e-08
-5.05936e-07
3.25426e-08
2.36291e-07
-6.56808e-07
-2.0717e-07
1.68171e-07
-6.27457e-07
-2.67919e-07
4.72646e-08
-5.37632e-07
-1.32019e-07
-6.0477e-08
-6.01573e-07
2.68299e-07
-1.39542e-07
-7.67101e-07
7.05715e-07
-2.41759e-07
9.03095e-07
-3.23916e-07
1.18826e-06
3.22113e-07
-9.24681e-07
2.13071e-06
-5.32595e-08
-4.06852e-07
1.58778e-06
8.95354e-07
-9.72602e-08
1.17282e-07
1.80645e-06
-3.03404e-07
-1.74697e-06
2.42104e-06
-7.63957e-07
-4.11886e-06
2.90102e-06
-7.97074e-07
-5.78572e-06
2.68645e-06
-1.1516e-06
-5.05334e-06
5.31919e-07
-9.96e-07
-3.60618e-06
-1.34663e-07
-6.06781e-07
1.07392e-06
-5.30392e-07
1.63541e-06
-9.6119e-07
-3.52139e-07
2.88654e-06
-2.22743e-06
9.23024e-07
2.55312e-06
2.40051e-07
9.8874e-07
1.63334e-06
1.92932e-06
7.96917e-07
5.54504e-07
3.26456e-06
2.35298e-07
-7.41803e-07
3.83298e-06
3.64329e-07
-1.89712e-06
3.17065e-06
6.71123e-07
-3.40464e-06
1.84772e-06
1.91732e-07
-3.80581e-06
1.35295e-06
-1.08643e-06
2.15163e-06
-1.7245e-06
8.20087e-07
-1.47379e-06
-3.07501e-07
9.78243e-07
-3.00817e-06
6.22597e-07
1.78949e-07
4.59756e-07
5.79594e-07
-1.18831e-07
1.90374e-06
3.23329e-07
-4.17202e-07
3.30995e-06
2.52966e-07
-1.36779e-06
4.11204e-06
6.71543e-07
-2.78213e-06
3.52123e-06
1.06379e-06
-4.16653e-06
2.50121e-06
7.30899e-07
-4.58391e-06
1.68999e-06
8.03468e-08
9.55391e-07
-1.41795e-07
8.14041e-08
-8.37867e-07
-7.17315e-07
-3.80149e-07
-2.79027e-06
2.43672e-07
-8.37265e-07
9.9693e-07
-8.00662e-08
-5.66375e-07
1.90899e-06
-2.7617e-07
-4.81845e-07
3.00485e-06
2.20553e-07
-1.08495e-06
3.69815e-06
1.01702e-06
-2.10752e-06
2.70376e-06
1.84005e-06
-3.13432e-06
1.42998e-06
2.09801e-06
-3.35544e-06
8.45511e-08
1.82656e-06
-1.48564e-06
1.68086e-06
-6.06505e-08
2.50713e-07
-1.02793e-06
-5.22692e-07
-2.62154e-06
2.93329e-07
-5.54211e-07
4.31289e-07
5.97137e-07
-2.3648e-07
1.45399e-06
1.3727e-07
-8.10832e-09
2.30804e-06
4.68449e-07
-4.7917e-07
2.79667e-06
1.37255e-06
-1.70006e-06
1.68244e-06
2.2422e-06
-2.70053e-06
7.81484e-08
2.35229e-06
-3.1878e-06
-1.66586e-06
2.23769e-06
-2.96212e-06
1.81942e-06
2.6138e-07
9.54302e-07
-9.64951e-07
3.47261e-08
-2.78911e-06
3.94239e-07
-1.81842e-07
-8.59408e-07
1.50725e-06
-7.29103e-07
1.07439e-06
9.26841e-07
-1.18464e-06
1.87745e-06
8.86129e-07
-2.19455e-06
2.35637e-06
1.45021e-06
-3.32061e-06
9.66126e-07
1.84239e-06
-4.0357e-06
-1.10707e-06
1.90032e-06
-4.67597e-06
-2.5219e-06
1.49631e-06
-3.08507e-06
3.95836e-07
8.20784e-07
5.53012e-07
-4.1948e-07
7.30304e-07
-3.39031e-06
6.91686e-07
2.92533e-07
-2.14696e-06
1.72532e-06
-1.53786e-06
1.27313e-06
1.63164e-06
-2.80848e-06
2.0116e-06
1.13648e-06
-3.61493e-06
2.08263e-06
1.08021e-06
-4.20959e-06
1.32182e-07
1.42862e-06
-5.01482e-06
-1.70141e-06
1.39956e-06
-5.30116e-06
-2.34775e-06
1.12183e-07
-2.54933e-06
-1.07596e-06
1.46701e-06
-1.59501e-06
6.81043e-07
1.3417e-06
-4.00742e-06
7.42429e-07
5.34872e-07
-2.57798e-06
1.23785e-06
-1.56977e-06
1.6654e-06
1.71236e-06
-3.01663e-06
2.31304e-06
1.14544e-06
-3.77757e-06
1.9567e-06
8.86874e-07
-4.74749e-06
-2.23993e-07
1.32609e-06
-5.71768e-06
-1.4692e-06
7.37981e-07
-5.46681e-06
-1.64561e-06
-9.53007e-07
-1.92779e-06
-1.66094e-06
1.31673e-06
-3.1423e-06
2.30558e-07
1.3158e-06
-3.73322e-06
-2.73268e-07
3.88465e-07
-1.92451e-06
2.7385e-07
-5.20614e-07
1.35996e-06
1.21451e-06
-1.34841e-06
1.74777e-06
1.39307e-06
-2.85782e-06
2.10814e-06
1.35799e-06
-4.95181e-06
1.74702e-07
1.69531e-06
-6.19267e-06
-5.76017e-07
3.47695e-07
-5.75162e-06
-8.55088e-07
-1.23156e-06
-1.29774e-06
-1.78402e-06
9.4242e-07
-3.17456e-06
-9.10171e-07
5.47636e-07
-2.35329e-06
-9.85144e-07
-2.5294e-07
-6.94009e-07
-4.29926e-07
-7.60588e-08
3.80621e-07
8.02468e-07
-9.33532e-08
3.13556e-07
1.45153e-06
-1.73874e-06
1.7395e-06
2.01404e-06
-4.67677e-06
9.13091e-07
2.19965e-06
-6.32789e-06
5.07231e-07
5.67879e-07
-6.10187e-06
-3.97392e-08
-1.04135e-06
-5.48199e-07
-1.85752e-06
5.63018e-07
-2.14847e-06
-1.58909e-06
-4.35258e-07
-3.46921e-07
-1.00809e-06
-1.45737e-06
2.10757e-07
1.17338e-07
-1.08078e-06
-9.63732e-07
9.67763e-07
-9.79517e-07
-1.11799e-06
1.33029e-06
-2.08292e-06
7.16554e-07
2.12636e-06
-4.72338e-06
1.2654e-06
2.28815e-06
-6.3413e-06
1.14687e-06
9.78291e-07
-6.35553e-06
7.65715e-07
-7.91213e-07
3.21794e-07
-1.89156e-06
1.82473e-07
-1.46012e-06
-8.70816e-07
-1.29986e-06
-5.14731e-07
1.65014e-06
-2.49427e-06
5.64023e-07
8.41129e-07
-2.50937e-06
8.07277e-07
-1.75591e-06
-2.29578e-06
9.4584e-07
-2.27741e-06
-2.70328e-06
1.72662e-06
-6.02566e-07
-4.5077e-06
2.22189e-06
8.47932e-07
-6.12933e-06
1.6171e-06
1.1514e-06
-6.41679e-06
-2.20172e-07
1.27335e-06
-1.61918e-06
1.11025e-06
-4.20319e-08
3.31812e-08
-7.33791e-09
6.31272e-08
-1.60438e-07
-3.92755e-08
1.71019e-07
-1.54794e-07
-1.57609e-07
2.15497e-07
-1.6386e-08
-2.71283e-07
2.06616e-07
9.70143e-08
-2.55806e-07
1.54261e-07
1.14147e-07
-1.35492e-07
7.93014e-08
8.43364e-08
-3.94575e-08
-2.17705e-09
6.24075e-08
-2.15303e-09
-8.15717e-08
4.8009e-08
1.02392e-08
1.22107e-08
1.00553e-08
1.6285e-07
-1.46995e-07
3.90951e-08
4.45261e-07
-7.0804e-07
3.82708e-07
4.69501e-07
-5.08185e-07
3.92102e-07
3.09952e-07
-1.18454e-07
2.33602e-07
1.88938e-07
1.34862e-07
-1.78085e-08
1.12958e-07
2.20642e-07
-1.24316e-07
3.5811e-08
1.82526e-07
-7.45208e-08
-4.53395e-08
1.24797e-07
-1.23102e-08
-1.20814e-07
9.52917e-08
1.55783e-08
-1.70446e-08
5.99258e-08
2.70002e-07
-4.78073e-07
2.41871e-07
4.45052e-07
-1.13268e-06
5.72523e-07
3.95946e-07
-7.89648e-07
6.07929e-07
1.78961e-07
-2.58948e-07
5.67307e-07
4.27648e-08
5.18521e-08
3.15052e-07
2.35773e-08
2.00403e-07
2.06711e-08
-4.93639e-09
2.26794e-07
-5.5644e-08
-1.03489e-07
2.15281e-07
6.84936e-09
-1.80036e-07
1.39606e-07
1.06259e-07
-1.55232e-07
2.31934e-07
1.92542e-07
-6.52445e-07
2.76649e-07
1.87408e-07
-1.12956e-06
2.81862e-07
9.43978e-08
-8.33962e-07
4.71073e-07
-6.26461e-08
-4.10581e-07
6.14533e-07
-1.19639e-07
-1.81789e-07
5.02813e-07
-9.35011e-08
3.90406e-08
2.34125e-07
-8.72564e-08
1.81269e-07
8.6977e-08
-1.19266e-07
2.07994e-07
1.19695e-07
-9.6801e-08
4.22108e-08
2.29861e-07
-2.70058e-07
2.96225e-07
1.48415e-07
-5.80278e-07
-2.01126e-07
2.53252e-08
-8.23524e-07
-2.83101e-07
-4.5274e-08
-6.64424e-07
6.9082e-08
-4.53902e-08
-5.11547e-07
3.80419e-07
-3.63702e-08
-3.9619e-07
4.40887e-07
7.00006e-09
-2.07472e-07
3.73236e-07
8.38764e-08
-4.04004e-08
2.83204e-07
1.83982e-07
2.45314e-09
2.41322e-07
1.86568e-07
-6.54943e-08
2.01679e-07
-1.40517e-07
1.42747e-07
4.85516e-08
-3.11915e-07
-6.061e-07
-1.61788e-07
-3.48612e-07
-6.49971e-07
-2.12103e-07
-3.2289e-07
-4.16432e-07
-1.08348e-07
-3.91508e-07
-1.29118e-07
-2.00498e-09
-4.06354e-07
4.38114e-08
1.31425e-07
-3.29109e-07
1.23388e-07
2.86515e-07
-2.13691e-07
1.39448e-07
3.74112e-07
-7.79697e-08
6.61064e-08
2.2916e-07
7.63498e-08
-4.93125e-08
1.58598e-07
-1.52876e-07
-2.69831e-07
1.32525e-07
-5.70333e-07
-5.51165e-07
1.53175e-07
-6.2585e-07
-5.334e-07
-9.41724e-09
-5.46186e-07
-4.17346e-07
-1.67664e-07
-3.59455e-07
-2.6901e-07
-2.63271e-07
-2.3539e-07
-9.60275e-08
-2.48415e-07
-2.13822e-07
2.80677e-08
-1.21815e-07
-2.47501e-07
6.25988e-08
7.72383e-08
-3.1733e-07
-4.35059e-08
3.41067e-07
-4.18796e-07
4.67813e-07
-4.61392e-07
-3.64551e-07
3.6489e-07
-4.55633e-07
-6.88459e-07
3.8229e-07
-1.92134e-07
-8.39943e-07
3.02018e-07
-8.92755e-08
-8.88336e-07
2.2781e-07
-1.1079e-07
-8.80637e-07
9.8754e-08
-2.01553e-07
-8.24043e-07
4.14061e-08
-2.99151e-07
-6.6788e-07
4.44774e-08
-3.82933e-07
-5.92812e-07
2.75785e-07
-4.13157e-07
-6.53841e-07
6.64211e-07
-5.03874e-07
8.41469e-07
-5.55865e-07
9.41671e-07
-1.45982e-06
-4.167e-08
4.34201e-07
2.3446e-07
2.48433e-07
-9.98843e-07
1.80414e-06
-1.66317e-07
-2.98796e-06
2.8473e-06
-9.3377e-07
-5.59679e-06
3.58348e-06
-1.63985e-06
-7.27644e-06
3.64915e-06
-2.72516e-06
-7.5635e-06
2.9164e-06
-3.73646e-06
-5.45418e-06
3.80983e-07
-3.21052e-06
-3.7733e-06
7.27415e-07
-2.35086e-06
1.68476e-06
-2.00219e-06
3.53628e-07
-3.33883e-06
1.17322e-06
8.22984e-07
-1.18758e-06
1.87573e-06
6.92901e-07
1.76359e-06
1.15938e-06
-5.67206e-08
3.84114e-06
5.52688e-07
-1.75789e-06
4.88775e-06
6.32179e-07
-3.95944e-06
4.81802e-06
1.39703e-06
-4.85273e-06
3.54209e-06
9.38715e-07
-5.54962e-06
1.46299e-06
-1.93371e-07
-4.5523e-06
4.09387e-07
-1.76572e-06
6.98632e-07
-2.11782e-06
-1.82672e-06
-2.78664e-06
9.67053e-07
-2.38229e-06
-8.86418e-07
8.77012e-07
-2.23934e-06
2.01102e-06
1.89192e-07
-2.36002e-06
3.94481e-06
3.40336e-07
-3.38862e-06
5.1267e-06
1.04263e-06
-4.71289e-06
4.98577e-06
1.82807e-06
-5.4159e-06
3.30088e-06
2.00801e-06
-5.72382e-06
7.64471e-07
1.73734e-06
-5.50283e-06
-1.17667e-06
1.44542e-06
-1.98835e-06
1.2141e-06
-2.57166e-06
-1.46807e-06
5.35783e-07
-3.38776e-06
-4.2199e-07
5.9533e-07
-3.58469e-06
2.13426e-06
-6.39553e-09
-4.06621e-06
3.75832e-06
3.91844e-07
-4.55111e-06
4.55078e-06
1.28136e-06
-4.84547e-06
4.10709e-06
2.19005e-06
-4.97992e-06
2.2659e-06
3.00948e-06
-5.3095e-06
2.88076e-08
3.16326e-06
-5.29717e-06
-1.95147e-06
2.58903e-06
-2.66439e-06
1.67872e-06
-2.31695e-06
-4.42372e-07
2.63347e-07
-2.87445e-06
-7.72311e-07
1.20112e-06
-2.43192e-06
1.35043e-06
9.3843e-07
-2.67344e-06
3.24202e-06
8.95106e-07
-3.21794e-06
3.95827e-06
1.60547e-06
-3.78413e-06
3.25142e-06
2.7944e-06
-4.51008e-06
1.3334e-06
3.90065e-06
-5.09665e-06
-9.73771e-07
3.94144e-06
-5.26775e-06
-2.31021e-06
2.76753e-06
-2.29014e-06
1.01511e-06
-1.6132e-06
2.11501e-07
-5.59668e-09
-2.12387e-06
-1.5711e-06
1.70367e-06
-1.74652e-06
5.29878e-07
1.95045e-06
-1.61679e-06
2.49444e-06
1.54468e-06
-2.36641e-06
3.75065e-06
1.84337e-06
-3.93731e-06
3.23988e-06
3.03265e-06
-5.22255e-06
6.42069e-07
3.81898e-06
-5.65833e-06
-1.74979e-06
3.11212e-06
-5.3362e-06
-2.38415e-06
1.24812e-06
-2.03907e-06
-6.80935e-07
-7.45817e-07
7.9055e-07
-2.52713e-07
-1.00652e-06
-2.47064e-06
1.85195e-06
-1.62185e-06
3.28967e-07
2.54156e-06
-2.12829e-06
2.49413e-06
2.1384e-06
-2.8748e-06
3.60178e-06
2.03187e-06
-4.29362e-06
2.83796e-06
2.90096e-06
-5.26211e-06
-1.72003e-07
3.21117e-06
-5.36186e-06
-1.99345e-06
1.74297e-06
-4.68717e-06
-2.27647e-06
-6.70179e-07
-2.08637e-06
-1.92067e-06
-3.32556e-09
1.50226e-06
-2.73383e-08
-3.81361e-07
-2.62899e-06
1.27882e-06
-1.95052e-06
7.10223e-07
2.42574e-06
-3.12478e-06
2.89112e-06
2.48964e-06
-3.80675e-06
3.24246e-06
2.18674e-06
-4.58901e-06
1.93961e-06
2.56748e-06
-5.16156e-06
-6.36692e-07
2.36332e-06
-4.99676e-06
-1.80004e-06
3.7978e-07
-4.39068e-06
-2.26964e-06
-1.56591e-06
-2.18901e-06
-2.12689e-06
5.15884e-07
1.12206e-06
9.48678e-08
-6.60744e-07
-2.07698e-06
3.5135e-07
-2.36612e-06
9.88351e-07
1.70109e-06
-3.33754e-06
2.56911e-06
2.50794e-06
-3.77147e-06
2.58121e-06
2.48827e-06
-4.46713e-06
1.53476e-06
2.45851e-06
-4.99678e-06
-2.78371e-07
1.86664e-06
-4.90497e-06
-1.2945e-06
-2.49643e-07
-4.65111e-06
-2.06052e-06
-1.69453e-06
-2.04482e-06
-2.2561e-06
9.96736e-07
-4.36803e-07
-3.48032e-07
-4.90254e-07
-1.17888e-06
-3.96266e-07
-1.72951e-06
7.87557e-07
1.01011e-06
-1.84189e-06
1.07158e-06
2.41239e-06
-2.16085e-06
1.42919e-06
2.92253e-06
-3.42782e-06
1.6429e-06
3.17288e-06
-4.54349e-06
6.43834e-07
2.39312e-06
-4.69239e-06
-5.04491e-07
-7.32235e-08
-4.76246e-06
-1.46933e-06
-1.56247e-06
-1.54964e-06
-2.52397e-06
1.01674e-07
-1.08872e-06
-1.03884e-06
-1.82405e-06
2.18984e-08
-2.83155e-07
-2.62633e-06
3.40598e-07
1.36658e-06
-2.18572e-06
-8.42596e-07
2.44134e-06
-2.24457e-06
-2.47273e-07
3.0656e-06
-3.15567e-06
1.02776e-06
3.6526e-06
-4.08635e-06
9.97294e-07
2.86537e-06
-4.28274e-06
1.00324e-07
5.69871e-07
-4.49375e-06
-7.06484e-07
-1.34303e-06
-8.58448e-07
-2.73279e-06
-1.14939e-06
-1.03781e-06
-3.61648e-07
-3.35925e-06
1.94424e-07
1.5226e-06
-4.09107e-06
1.36539e-06
2.71057e-07
-3.94329e-06
1.9278e-06
-2.11089e-06
-3.49411e-06
2.44183e-06
-2.19243e-06
-3.40119e-06
3.1501e-06
-4.88632e-07
-3.70712e-06
3.02192e-06
5.03199e-07
-3.79015e-06
1.56876e-06
2.31705e-07
-3.98419e-06
-5.92784e-07
-1.39817e-07
-2.37694e-06
-2.78455e-07
-1.71615e-07
1.52254e-07
1.20223e-08
-1.60907e-09
-3.00757e-07
9.1476e-08
2.9472e-07
-5.73262e-07
1.19325e-07
4.53157e-07
-4.46108e-07
1.63874e-08
4.34166e-07
-1.63912e-07
-7.29016e-08
2.90424e-07
6.21647e-08
-5.39148e-08
1.41115e-07
1.0816e-07
1.69103e-09
2.60196e-08
7.52358e-08
3.77069e-08
-6.99794e-08
5.17978e-08
5.44402e-08
9.35474e-09
6.38299e-08
7.42186e-08
1.43179e-07
-2.60476e-08
4.44663e-07
-7.14479e-07
4.25986e-07
6.06277e-07
-9.53007e-07
6.10234e-07
5.45062e-07
-6.29789e-07
4.78498e-07
4.20141e-07
-2.16333e-07
1.59533e-07
2.70742e-07
1.26054e-07
-3.88066e-08
1.08908e-07
2.29224e-07
-3.37503e-08
-8.08961e-09
1.55831e-07
2.40926e-08
-9.18265e-08
9.45414e-08
5.65716e-08
2.30297e-08
8.68431e-08
2.40029e-07
6.98229e-08
7.51982e-08
4.12987e-07
-8.39258e-07
5.24344e-07
3.82391e-07
-1.02615e-06
7.11673e-07
2.39623e-07
-6.35659e-07
7.15945e-07
1.6136e-07
-2.20263e-07
3.97246e-07
1.34007e-07
1.3065e-07
4.34277e-08
8.31991e-08
2.68012e-07
-4.36253e-08
-6.03718e-09
2.36702e-07
1.52143e-08
-1.13807e-07
2.13729e-07
9.48415e-08
5.60873e-08
2.17959e-07
2.96365e-07
1.2453e-08
3.76535e-08
2.32466e-07
-6.57775e-07
1.64278e-07
4.11129e-08
-7.99091e-07
4.35362e-07
-9.29203e-08
-5.697e-07
6.82606e-07
-9.49364e-08
-2.77347e-07
5.61914e-07
-1.6119e-08
6.64728e-08
2.19485e-07
1.84993e-08
2.82837e-07
3.75337e-08
-4.90372e-08
3.51006e-07
7.29278e-08
-1.20331e-07
3.36179e-07
1.78705e-07
7.62314e-08
3.13576e-07
2.93762e-07
-1.19834e-07
-3.62601e-07
2.13003e-07
-5.2171e-07
-3.38407e-07
1.85904e-08
-5.20818e-07
-1.47782e-08
-7.32396e-08
-4.41961e-07
3.4451e-07
-9.41706e-08
-2.99099e-07
4.8357e-07
-2.65287e-08
-4.64601e-08
4.18527e-07
6.66063e-08
1.95464e-07
2.77442e-07
1.03857e-07
3.37077e-07
2.17999e-07
8.17489e-08
3.55413e-07
2.04553e-07
1.94564e-07
2.06931e-07
1.57554e-07
-2.36053e-07
-6.47435e-07
3.75677e-08
-3.79891e-07
-6.71804e-07
-6.99535e-08
-3.15802e-07
-5.13926e-07
-8.34835e-08
-3.02425e-07
-2.55124e-07
-4.52343e-08
-2.6942e-07
-2.41171e-08
5.23479e-08
-1.42393e-07
1.21738e-07
1.80963e-07
5.51455e-08
1.51152e-07
2.45005e-07
2.35173e-07
1.03968e-07
1.58779e-07
3.75028e-07
1.72993e-08
3.73192e-07
-4.43937e-08
-2.47211e-07
-3.13971e-08
-5.27779e-07
-4.91794e-07
-5.83082e-08
-7.02849e-07
-4.92202e-07
-1.26889e-07
-7.34691e-07
-3.68838e-07
-1.9804e-07
-5.87205e-07
-2.1875e-07
-2.13727e-07
-4.41171e-07
-8.90064e-08
-1.3747e-07
-3.48488e-07
1.3946e-08
1.83242e-08
-3.13632e-07
3.14261e-08
2.33487e-07
-3.33124e-07
-5.2521e-08
3.9666e-07
-3.56482e-07
4.63984e-07
-3.69875e-07
-5.2951e-07
1.08979e-07
-6.64987e-08
-9.71363e-07
2.43983e-07
-5.2573e-08
-1.13608e-06
1.72939e-07
-2.24387e-07
-1.12844e-06
1.65226e-08
-3.32995e-07
-1.04485e-06
-9.25491e-08
-4.06323e-07
-8.30291e-07
-1.3796e-07
-5.13217e-07
-5.65455e-07
-2.88383e-08
-6.00607e-07
-3.97004e-07
2.59085e-07
-6.07207e-07
-4.03512e-07
5.31289e-07
-6.31993e-07
6.46306e-07
-6.53331e-07
3.73613e-07
-9.07619e-07
6.0131e-07
-1.13047e-06
1.46274e-06
5.33765e-07
-3.27338e-06
2.65081e-06
-5.0127e-07
-5.7965e-06
3.26076e-06
-1.65488e-06
-7.43287e-06
3.13163e-06
-3.22766e-06
-7.45233e-06
1.9965e-06
-4.84016e-06
-6.52919e-06
1.06685e-06
-5.7553e-06
-3.97831e-06
-1.08632e-06
-4.41598e-06
-2.78492e-06
3.19518e-07
-3.33248e-06
1.14707e-06
-2.82474e-06
1.69139e-07
-2.76805e-06
2.86453e-06
-2.58807e-07
8.99046e-07
2.86739e-06
-1.44549e-06
3.46133e-06
1.53556e-06
-2.97203e-06
4.24779e-06
1.0922e-06
-4.79792e-06
3.51464e-06
2.07506e-06
-6.22433e-06
2.12743e-06
2.69248e-06
-6.41596e-06
3.84615e-07
1.8126e-06
-5.70179e-06
-9.75965e-07
-1.01789e-06
-3.53338e-06
2.65238e-07
-3.87984e-06
1.53984e-06
-3.60233e-06
-2.18316e-06
-2.1155e-06
2.49767e-06
-3.55407e-06
1.21736e-06
1.92957e-06
-4.32073e-06
3.23999e-06
1.17722e-06
-5.01076e-06
3.57634e-06
1.70185e-06
-5.56179e-06
2.45256e-06
2.65571e-06
-5.66086e-06
6.30527e-07
3.42403e-06
-5.63473e-06
-1.31807e-06
3.68459e-06
-5.82414e-06
-2.46151e-06
3.41231e-06
-5.09015e-06
-2.16323e-06
3.13989e-06
-1.17759e-06
2.35728e-06
-2.81117e-06
-8.68641e-07
2.10009e-06
-4.31682e-06
1.66916e-06
1.64917e-06
-4.95301e-06
2.82323e-06
1.04657e-06
-5.18305e-06
2.70147e-06
1.49674e-06
-5.25997e-06
1.87692e-06
1.93391e-06
-5.44767e-06
5.71937e-07
2.43635e-06
-5.5939e-06
-1.06455e-06
2.90222e-06
-5.38846e-06
-2.34784e-06
2.84414e-06
-4.5972e-06
-2.5088e-06
2.14334e-06
-1.99276e-06
1.19477e-06
-2.31093e-06
-1.85859e-07
1.89148e-06
-3.03301e-06
1.4376e-06
2.15476e-06
-3.38896e-06
2.63064e-06
1.48703e-06
-4.02324e-06
2.90625e-06
1.32462e-06
-4.58762e-06
2.34781e-06
1.69895e-06
-5.07444e-06
1.20953e-06
2.64362e-06
-5.29728e-06
-4.47533e-07
3.50647e-06
-4.96172e-06
-1.90965e-06
3.1677e-06
-4.02721e-06
-2.32737e-06
1.65158e-06
-2.29259e-06
1.52844e-08
-2.11126e-06
3.94836e-07
1.52494e-06
-2.38257e-06
8.54434e-07
2.55815e-06
-2.09314e-06
2.20672e-06
2.08494e-06
-2.53733e-06
3.29365e-06
1.60145e-06
-3.55156e-06
3.29418e-06
1.9112e-06
-4.47479e-06
2.18473e-06
2.9807e-06
-4.7943e-06
1.20206e-07
3.57077e-06
-4.33198e-06
-1.68676e-06
2.4269e-06
-3.26485e-06
-2.41725e-06
2.70858e-07
-2.9843e-06
-1.16574e-06
-1.87611e-06
9.61642e-07
1.05657e-06
-2.22071e-06
4.31673e-07
2.61932e-06
-2.01677e-06
2.11837e-06
2.42598e-06
-1.98304e-06
3.47807e-06
1.92025e-06
-2.81307e-06
3.94193e-06
2.21414e-06
-3.83103e-06
2.82887e-06
3.27477e-06
-4.01896e-06
3.19753e-07
3.19954e-06
-3.45098e-06
-1.57638e-06
1.06459e-06
-2.51608e-06
-2.77011e-06
-1.25222e-06
-3.67402e-06
-1.90476e-06
-1.33309e-06
1.61682e-06
6.5058e-07
-2.21686e-06
2.39136e-07
2.35513e-06
-2.71717e-06
2.35684e-06
2.68758e-06
-2.67734e-06
3.59787e-06
2.32999e-06
-3.03429e-06
3.84197e-06
2.64363e-06
-3.47624e-06
2.40788e-06
3.43041e-06
-3.31873e-06
3.65929e-08
2.48897e-06
-2.84305e-06
-1.64285e-06
-2.94329e-08
-2.22283e-06
-3.1882e-06
-1.76803e-06
-3.94825e-06
-1.86096e-06
-1.0185e-06
2.32831e-06
4.01885e-07
-2.65743e-06
4.31736e-07
1.79766e-06
-3.69836e-06
2.22849e-06
2.87035e-06
-3.83708e-06
3.28368e-06
2.96086e-06
-3.62978e-06
3.0317e-06
3.09124e-06
-3.23278e-06
1.4351e-06
3.03429e-06
-2.56911e-06
-1.87402e-07
1.42697e-06
-2.12813e-06
-1.46281e-06
-8.70675e-07
-2.10442e-06
-3.18176e-06
-1.72468e-06
-3.76693e-06
-1.90897e-06
4.23805e-08
1.78583e-06
1.52067e-07
-1.78857e-06
7.95172e-07
1.07124e-06
-3.1403e-06
1.81863e-06
2.7717e-06
-3.36039e-06
2.35419e-06
3.562e-06
-3.11905e-06
2.12819e-06
3.58472e-06
-2.64674e-06
1.18438e-06
2.9513e-06
-1.7249e-06
2.18826e-07
1.06504e-06
-1.23405e-06
-8.02921e-07
-1.22396e-06
-1.76886e-06
-2.52288e-06
-1.68653e-06
-3.46754e-06
-2.01704e-06
4.69135e-07
4.53287e-07
-1.75439e-07
-1.63598e-06
1.64097e-06
9.76161e-07
-2.9079e-06
1.64165e-06
2.8155e-06
-2.85643e-06
9.78698e-07
3.76538e-06
-2.52814e-06
9.54115e-07
3.9114e-06
-1.97924e-06
9.30132e-07
3.35795e-06
-8.89536e-07
4.7381e-07
1.52068e-06
-2.3145e-07
-4.4195e-07
-4.4919e-07
-9.37153e-07
-1.79613e-06
-1.36407e-06
-3.24483e-06
-2.01004e-06
-7.94057e-07
4.95126e-08
1.60018e-07
-2.8038e-06
1.21892e-06
2.62622e-06
-3.84871e-06
2.52291e-06
1.52906e-06
-3.65826e-06
3.14843e-06
-4.32358e-07
-2.8213e-06
3.42616e-06
-8.67182e-07
-1.68677e-06
3.39738e-06
-4.51683e-07
-4.55907e-07
2.59998e-06
-3.35117e-07
5.30566e-07
1.19148e-06
-1.05113e-06
2.93299e-07
-2.97231e-07
-1.8544e-06
-1.66665e-06
-3.00465e-06
-2.55389e-07
2.05262e-07
6.21502e-08
-1.83906e-07
-2.05426e-07
2.25419e-07
1.89939e-07
-6.53366e-07
3.98845e-07
4.82494e-07
-6.33705e-07
3.57538e-07
5.06183e-07
-3.12817e-07
2.16225e-07
3.33085e-07
6.38218e-09
1.12801e-07
1.48739e-07
1.07204e-07
7.88331e-08
1.91323e-08
8.87521e-08
7.85613e-08
-7.69487e-08
6.36868e-08
8.68344e-08
2.5323e-08
1.00435e-07
-2.8118e-08
2.6069e-07
-5.33576e-08
2.59998e-07
-4.03185e-07
3.35629e-07
4.8963e-07
-9.29716e-07
6.56952e-07
5.84743e-07
-8.50223e-07
5.99904e-07
5.42592e-07
-4.25162e-07
3.1403e-07
3.57522e-07
4.57855e-08
1.06859e-07
1.38752e-07
2.32764e-07
5.94612e-08
-3.32038e-09
1.74643e-07
8.02738e-08
-8.74531e-08
9.68035e-08
1.07588e-07
2.83944e-08
1.34693e-07
1.7159e-07
2.69427e-07
-1.05129e-07
3.88617e-07
-3.8692e-07
2.91052e-07
3.87026e-07
-8.37138e-07
6.20687e-07
3.3948e-07
-7.62519e-07
6.75787e-07
3.27183e-07
-3.9225e-07
3.76631e-07
2.60231e-07
6.74714e-08
8.86941e-08
1.285e-07
3.0103e-07
1.98399e-08
9.29358e-09
2.53964e-07
5.50997e-08
-8.88975e-08
1.89165e-07
1.00671e-07
1.18614e-07
1.7586e-07
3.00769e-07
2.02161e-07
-1.9585e-07
3.73033e-07
-2.68468e-07
-2.64374e-08
2.05424e-07
-5.37956e-07
3.03789e-07
7.15368e-08
-5.22896e-07
5.76871e-07
6.86671e-08
-2.80433e-07
4.52966e-07
1.05259e-07
1.07271e-07
1.43094e-07
7.05544e-08
3.56362e-07
1.69064e-08
-3.83072e-08
3.84744e-07
5.1009e-08
-1.48561e-07
3.58339e-07
1.19785e-07
2.41725e-07
2.17804e-07
3.32662e-07
-1.06154e-07
-3.86948e-07
3.84446e-07
-3.67899e-07
-2.9076e-07
2.00448e-07
-3.44783e-07
-2.39534e-08
1.48566e-08
-2.78667e-07
2.85872e-07
-5.13916e-08
-1.51289e-07
4.20675e-07
5.62852e-09
1.26052e-07
3.42726e-07
5.67965e-08
3.91715e-07
1.90921e-07
-2.87615e-10
5.10073e-07
1.49754e-07
-1.02814e-07
5.18185e-07
1.47234e-07
3.78096e-07
1.57123e-07
1.02489e-07
-3.31043e-07
-5.25035e-07
6.03053e-08
-4.2949e-07
-5.6803e-07
-2.85109e-08
-3.16293e-07
-4.536e-07
-1.07249e-07
-2.24283e-07
-2.3077e-07
-1.29577e-07
-1.58534e-07
5.45635e-09
-5.41453e-08
-4.48782e-09
1.76846e-07
6.18959e-08
2.13102e-07
2.13724e-07
7.64223e-08
4.39613e-07
1.59902e-07
-3.89535e-08
5.68467e-07
8.23929e-08
5.08956e-07
7.01678e-09
-2.93058e-07
-1.09567e-07
-4.56197e-07
-5.26849e-07
-1.49949e-07
-7.48599e-07
-5.48903e-07
-1.96052e-07
-8.32878e-07
-4.51419e-07
-2.12008e-07
-6.96964e-07
-3.47141e-07
-1.95282e-07
-5.087e-07
-2.64979e-07
-1.05322e-07
-3.29815e-07
-1.87479e-07
3.32618e-08
-2.11292e-07
-1.56302e-07
2.42218e-07
-1.66907e-07
-2.01599e-07
4.34176e-07
-1.76893e-07
4.73866e-07
-2.40177e-07
-3.99013e-07
1.12213e-07
1.10734e-07
-8.52277e-07
1.91136e-07
5.96062e-08
-1.11425e-06
1.39553e-07
-2.98015e-07
-1.17208e-06
-3.2915e-08
-4.54263e-07
-9.79254e-07
-2.52561e-07
-5.4187e-07
-6.68138e-07
-2.51176e-07
-6.7848e-07
-4.14837e-07
-1.30401e-07
-6.90245e-07
-3.1869e-07
1.76002e-07
-6.37138e-07
-3.20122e-07
4.15752e-07
-6.12137e-07
4.94408e-07
-6.45237e-07
1.73757e-07
1.20102e-07
4.19671e-07
-1.85837e-06
2.57124e-06
1.8581e-07
-4.40453e-06
3.54855e-06
-1.36409e-06
-6.47829e-06
3.19074e-06
-2.80476e-06
-6.97817e-06
1.36473e-06
-4.34509e-06
-6.41301e-06
-2.89158e-07
-5.36734e-06
-3.99175e-06
-4.12244e-06
-4.18452e-06
-2.46918e-06
-2.42132e-06
-3.34123e-06
-1.86918e-06
-8.61649e-07
-2.65508e-06
-2.20096e-07
-2.23282e-06
4.20542e-07
-1.61133e-06
4.17543e-06
-5.64874e-07
2.32641e-06
4.09764e-06
-2.32245e-06
4.42233e-06
2.41935e-06
-4.1635e-06
3.7976e-06
2.32637e-06
-5.89432e-06
1.86927e-06
3.3013e-06
-6.27538e-06
-2.59061e-07
3.04344e-06
-5.91783e-06
-2.0425e-06
-6.24899e-07
-4.3045e-06
-9.53353e-07
-4.09918e-06
-2.92232e-06
4.48251e-07
-6.57193e-06
1.56826e-06
-6.3732e-06
-1.70277e-06
-1.43685e-06
4.02595e-06
-3.16196e-06
2.0879e-06
3.62727e-06
-3.8774e-06
3.3784e-06
2.93662e-06
-4.17572e-06
2.45998e-06
3.33777e-06
-4.0811e-06
6.70063e-07
3.76028e-06
-4.12163e-06
-8.72577e-07
4.07809e-06
-4.73819e-06
-1.77255e-06
4.03123e-06
-4.87544e-06
-1.29689e-06
3.89308e-06
-4.43545e-06
1.83818e-07
2.96434e-06
6.77523e-07
1.90592e-06
-2.57774e-06
-3.958e-07
3.63674e-06
-3.82817e-06
2.28027e-06
2.70723e-06
-3.82134e-06
2.37446e-06
2.04368e-06
-3.50778e-06
1.37451e-06
2.26863e-06
-3.56711e-06
4.76381e-07
2.18693e-06
-3.77704e-06
-4.30148e-07
2.20387e-06
-3.8429e-06
-1.23777e-06
2.43329e-06
-3.5855e-06
-1.33059e-06
2.62042e-06
-2.98537e-06
-7.42101e-07
2.46914e-06
-7.75682e-07
1.9139e-06
-2.10152e-06
2.00082e-07
3.39711e-06
-2.87617e-06
2.47508e-06
2.73465e-06
-3.08643e-06
2.66042e-06
1.41135e-06
-3.32213e-06
1.84511e-06
1.08969e-06
-3.53981e-06
1.16029e-06
1.23269e-06
-3.67976e-06
4.61167e-07
1.89225e-06
-3.43778e-06
-2.52116e-07
2.27884e-06
-2.77228e-06
-6.25578e-07
1.7972e-06
-1.96719e-06
-6.96483e-07
8.00868e-07
-1.49529e-06
-2.94583e-08
-1.79435e-06
5.0858e-07
3.01077e-06
-2.00846e-06
2.09089e-06
3.15646e-06
-2.28192e-06
3.06226e-06
1.95654e-06
-3.11475e-06
3.0305e-06
1.24887e-06
-3.51738e-06
2.37306e-06
1.10108e-06
-3.33592e-06
1.65294e-06
1.60751e-06
-2.69576e-06
9.53669e-07
1.72483e-06
-1.94069e-06
3.04376e-07
7.41849e-07
-1.30823e-06
-4.76637e-07
-5.81471e-07
-2.27141e-06
-1.15744e-06
-1.90953e-06
1.04331e-06
2.43138e-06
-1.96199e-06
1.56096e-06
3.20174e-06
-1.89535e-06
2.96289e-06
2.45871e-06
-2.69069e-06
3.95634e-06
1.78976e-06
-3.32324e-06
3.68822e-06
1.53154e-06
-2.95267e-06
2.84095e-06
1.71618e-06
-2.04848e-06
2.03323e-06
1.21575e-06
-1.41522e-06
1.32492e-06
-5.89226e-07
-8.93826e-07
-1.41625e-07
-2.10864e-06
-2.99558e-06
-1.90417e-06
-2.02151e-06
1.74969e-06
1.96572e-06
-2.47506e-06
1.29153e-06
3.07812e-06
-2.40668e-06
2.88048e-06
2.7016e-06
-2.75572e-06
4.33469e-06
2.30067e-06
-3.14522e-06
4.39715e-06
2.3242e-06
-2.63207e-06
3.45355e-06
2.30466e-06
-1.72102e-06
2.58057e-06
1.03059e-06
-1.22955e-06
1.91406e-06
-1.11005e-06
-5.9644e-07
-6.25363e-07
-1.91741e-06
-3.92219e-06
-1.32393e-06
-1.89531e-06
2.3777e-06
1.66918e-06
-3.17929e-06
1.30677e-06
3.06639e-06
-3.53876e-06
2.76456e-06
3.34575e-06
-3.48574e-06
4.13394e-06
3.10858e-06
-3.23269e-06
4.04693e-06
3.18841e-06
-2.4119e-06
2.96239e-06
2.70465e-06
-1.40028e-06
2.18248e-06
8.13441e-07
-7.2067e-07
1.45371e-06
-1.08993e-06
-1.2057e-07
-1.82341e-06
-1.12672e-06
-4.54304e-06
-1.08241e-06
-7.28226e-07
2.06338e-06
1.19459e-06
-2.79141e-06
1.81525e-06
2.62594e-06
-3.89178e-06
2.74422e-06
3.89244e-06
-3.82618e-06
3.60288e-06
4.02747e-06
-3.10883e-06
3.21676e-06
3.69755e-06
-1.93908e-06
2.17323e-06
2.57072e-06
-6.36774e-07
1.46711e-06
4.78102e-07
3.43248e-07
3.54236e-07
-1.10451e-06
5.0378e-07
-2.68387e-06
-9.86598e-07
-4.89753e-06
-9.79827e-07
3.19656e-07
7.88328e-07
7.79958e-07
-2.02607e-06
2.89404e-06
2.24311e-06
-3.4603e-06
3.02965e-06
3.96432e-06
-3.42955e-06
2.94787e-06
4.38966e-06
-2.54448e-06
2.41004e-06
3.83305e-06
-1.07764e-06
1.58831e-06
2.47603e-06
5.90526e-07
6.94566e-07
6.25059e-07
1.68137e-06
-8.09973e-07
-3.75835e-07
1.32939e-06
-3.03793e-06
-6.58024e-07
-5.05968e-06
-9.11507e-07
-4.91909e-07
1.10128e-06
2.28463e-07
-2.29622e-06
2.2151e-06
3.70217e-06
-3.44632e-06
3.56489e-06
3.13777e-06
-3.20962e-06
3.90757e-06
1.95202e-06
-2.05091e-06
3.63887e-06
1.03862e-06
-3.47521e-07
2.96655e-06
3.15742e-07
1.37391e-06
2.13618e-06
-5.63072e-07
2.46642e-06
1.21367e-06
-1.92468e-06
2.42548e-06
3.34538e-08
-3.32767e-06
-8.2553e-07
-4.82063e-06
-2.00076e-07
1.65781e-07
9.64449e-08
-2.42495e-07
-1.47649e-08
2.82602e-07
4.66458e-08
-3.9915e-07
5.08854e-07
3.33956e-07
-4.42392e-07
5.12619e-07
3.79073e-07
-1.81701e-07
3.5281e-07
2.52609e-07
4.27847e-08
1.9648e-07
1.06449e-07
1.0666e-07
1.18333e-07
-4.16896e-09
9.778e-08
9.1399e-08
-8.90388e-08