/*--------------------------------*- C++ -*----------------------------------*\
| =========                 |                                                 |
| \\      /  F ield         | OpenFOAM: The Open Source CFD Toolbox           |
|  \\    /   O peration     | Version:  2312                                  |
|   \\  /    A nd           | Website:  www.openfoam.com                      |
|    \\/     M anipulation  |                                                 |
\*---------------------------------------------------------------------------*/
FoamFile
{
    version     2.0;
    format      ascii;
    arch        "LSB;label=32;scalar=64";
    class       surfaceScalarField;
    location    "1.36";
    object      phi;
}
// * * * * * * * * * * * * * * * * * * * * * * * * * * * * * * * * * * * * * //

dimensions      [0 3 -1 0 0 0 0];

oriented        oriented;

internalField   nonuniform List<scalar> 
22600
(
7.52094e-08
-1.58476e-07
8.32669e-08
1.71192e-07
-9.81872e-08
2.20493e-09
2.672e-07
3.64165e-09
-9.96502e-08
3.38609e-07
4.53592e-08
-1.16769e-07
3.5148e-07
1.67069e-08
-2.95774e-08
3.02073e-07
-1.09542e-08
6.0361e-08
2.1663e-07
-1.16993e-08
9.71419e-08
1.18963e-07
-7.10897e-09
1.04776e-07
3.02076e-08
-1.48259e-08
1.03581e-07
-3.73068e-08
9.57922e-08
1.51859e-07
-4.21079e-07
1.10744e-07
2.55322e-07
-3.9851e-07
1.96859e-07
2.55562e-07
-1.42929e-07
1.4633e-07
2.61887e-07
-1.32078e-08
5.22419e-08
2.77127e-07
5.01748e-09
-3.5508e-09
2.46416e-07
-1.4509e-08
3.42655e-08
1.73998e-07
-2.32246e-08
8.39437e-08
8.04869e-08
-2.02304e-08
1.06632e-07
1.52047e-09
-5.78551e-08
1.21996e-07
-1.6563e-07
1.50348e-07
2.49062e-07
-9.37087e-07
2.66945e-07
4.14278e-07
-9.97496e-07
4.33771e-07
3.43194e-07
-4.69483e-07
3.97638e-07
2.34777e-07
-2.38892e-07
3.34101e-07
2.05563e-07
-1.67796e-07
2.02027e-07
2.02992e-07
-1.19517e-07
1.07579e-07
1.3535e-07
-7.0015e-08
1.14432e-07
2.13338e-08
-6.83681e-08
1.62154e-07
-2.312e-08
-2.54263e-07
2.40861e-07
-4.82516e-07
3.0373e-07
1.95743e-07
-1.60785e-06
4.75025e-07
4.33874e-07
-1.75705e-06
5.21421e-07
4.17845e-07
-9.87154e-07
5.33701e-07
2.88097e-07
-6.06067e-07
4.96923e-07
2.19225e-07
-4.92256e-07
3.93332e-07
1.79684e-07
-3.49484e-07
2.69508e-07
1.07292e-07
-2.3853e-07
2.40907e-07
7.25796e-08
-3.29786e-07
2.9613e-07
6.31993e-08
-6.28264e-07
3.83382e-07
-7.71731e-07
3.73312e-07
1.36666e-07
-2.0855e-06
3.40975e-07
3.32399e-07
-2.22278e-06
2.69999e-07
3.83232e-07
-1.52741e-06
4.89426e-07
3.45909e-07
-1.11988e-06
5.51139e-07
3.25748e-07
-9.62078e-07
4.89984e-07
3.15939e-07
-7.62628e-07
4.22953e-07
3.23547e-07
-6.46882e-07
4.00743e-07
3.22038e-07
-7.4024e-07
4.11963e-07
1.85626e-07
-8.76566e-07
3.84713e-07
-8.6278e-07
3.10898e-07
1.45087e-07
-2.20575e-06
-2.48314e-08
2.76267e-07
-2.27481e-06
-7.91479e-08
4.16649e-07
-1.89723e-06
2.2943e-07
4.99283e-07
-1.61678e-06
4.14261e-07
5.43101e-07
-1.43763e-06
4.31736e-07
5.69399e-07
-1.22304e-06
4.34112e-07
5.58909e-07
-1.07279e-06
4.36401e-07
4.28274e-07
-1.00851e-06
3.98904e-07
1.88864e-07
-9.3663e-07
2.99474e-07
-8.47536e-07
1.98821e-07
3.23576e-09
-2.14648e-06
-6.25083e-08
6.56542e-08
-2.19095e-06
-1.46282e-07
2.44539e-07
-2.0991e-06
2.29881e-08
3.68013e-07
-1.96335e-06
2.23093e-07
4.33685e-07
-1.7925e-06
2.89192e-07
4.6033e-07
-1.57696e-06
3.27272e-07
3.99201e-07
-1.34972e-06
3.38053e-07
2.32711e-07
-1.1054e-06
2.63379e-07
6.56658e-08
-9.09249e-07
1.39664e-07
-7.96397e-07
6.60496e-08
4.59127e-09
-2.11884e-06
-3.22336e-08
6.14073e-08
-2.27258e-06
2.48075e-08
2.20372e-07
-2.5194e-06
2.61336e-07
3.36303e-07
-2.52173e-06
4.42454e-07
3.52457e-07
-2.25017e-06
4.41521e-07
3.0747e-07
-1.89498e-06
3.63015e-07
1.83901e-07
-1.48753e-06
2.6138e-07
5.36992e-09
-1.09051e-06
1.63645e-07
-1.68493e-07
-8.46558e-07
1.11171e-07
-7.32421e-07
9.03521e-08
1.29722e-06
-2.31803e-06
-1.09803e-06
1.43186e-06
-2.59063e-06
1.83418e-07
1.03741e-06
-3.04756e-06
9.22612e-07
7.16722e-07
-3.22345e-06
1.0224e-06
5.20406e-07
-2.89047e-06
8.36613e-07
4.24256e-07
-2.23732e-06
4.38483e-07
2.75885e-07
-1.42533e-06
8.61749e-08
-2.03394e-07
-9.22616e-07
3.11383e-07
-1.11883e-06
-6.22062e-07
6.90938e-07
-4.35043e-07
5.69231e-07
2.04342e-06
-3.27132e-06
-1.09015e-06
3.22548e-06
-4.15483e-06
3.82133e-07
2.3544e-06
-3.45259e-06
1.27611e-06
1.00737e-06
-3.24412e-06
1.36772e-06
-2.42944e-07
-2.60935e-06
9.69193e-07
-1.08837e-06
-1.33359e-06
-5.83009e-08
-1.88923e-06
-2.95782e-07
-3.28695e-07
-2.94269e-06
-2.1776e-07
3.48602e-07
-3.74527e-06
-2.67777e-07
4.48303e-07
-7.14794e-08
-3.84336e-07
1.11618e-06
-3.13998e-06
-1.24753e-06
8.42394e-07
-4.2851e-06
4.04046e-07
-7.98619e-07
-2.71784e-06
9.06261e-07
-1.81061e-06
-2.19869e-06
-3.34368e-08
-2.20092e-06
-1.19228e-06
-1.02676e-06
-2.54246e-06
2.92136e-07
-1.28419e-06
-3.04895e-06
8.16061e-07
-6.05353e-07
-4.00235e-06
5.3484e-07
2.00803e-07
-4.80804e-06
3.75031e-07
1.62865e-07
4.04633e-07
-6.9341e-07
9.71336e-08
-1.85566e-06
-1.38146e-06
-1.12015e-06
-3.40121e-06
3.33404e-07
-2.49192e-06
-1.71551e-06
3.69421e-07
-2.52238e-06
-1.48704e-06
-6.81195e-07
-1.85573e-06
-3.45983e-07
-1.51294e-06
-1.49384e-06
1.23182e-06
-1.30158e-06
-1.71399e-06
1.38351e-06
-3.47295e-07
-2.67444e-06
7.58833e-07
7.36468e-07
-3.77768e-06
4.20536e-07
1.05773e-06
-1.0736e-07
5.11853e-07
-6.40651e-08
-1.83764e-07
-1.60783e-06
-1.30353e-06
-2.51629e-06
3.54534e-07
-2.49157e-06
-1.29129e-06
7.63812e-07
-2.73753e-06
-1.56433e-06
3.23244e-07
-2.03758e-06
-8.51521e-07
-1.94418e-07
-1.33593e-06
9.34406e-07
-4.04231e-07
-1.72931e-06
1.25345e-06
5.23451e-07
-2.95014e-06
5.23529e-07
1.45613e-06
-3.62971e-06
-2.78405e-07
1.37852e-06
-1.63508e-06
1.14762e-06
3.18671e-07
1.07775e-06
-1.58018e-06
-6.19731e-07
-1.95177e-06
3.73887e-07
-1.8052e-06
-1.19262e-06
1.0868e-06
-3.0378e-06
-1.41285e-06
1.08112e-06
-3.56957e-06
-1.16083e-06
8.41077e-07
-3.72704e-06
5.0159e-07
5.90286e-07
-4.28627e-06
1.14844e-06
6.64232e-07
-4.87222e-06
4.2424e-07
6.85236e-07
-4.69803e-06
-1.09013e-06
6.37538e-07
-2.98877e-06
1.02651e-06
9.30721e-07
1.05254e-06
-9.05527e-07
3.87286e-07
-1.94521e-06
5.36866e-07
-7.65052e-07
-1.21824e-06
1.17796e-06
-2.83085e-06
-7.48299e-07
1.40124e-06
-4.48402e-06
-8.21447e-07
1.31379e-06
-5.27352e-06
6.29446e-07
6.61651e-07
-5.43506e-06
1.19982e-06
1.10154e-07
-5.37693e-06
1.91472e-07
1.74648e-07
-5.39217e-06
-1.82217e-06
7.47302e-07
-3.58609e-06
9.3497e-07
1.57958e-06
-5.75317e-07
4.82795e-08
1.16522e-06
-2.34438e-06
8.1354e-07
1.38157e-07
-1.11106e-06
9.19882e-07
-1.99675e-06
1.34546e-07
1.25207e-06
-4.0821e-06
-1.54368e-07
1.41826e-06
-5.24193e-06
1.31782e-06
4.71454e-07
-5.38075e-06
1.36646e-06
-2.78199e-08
-5.48379e-06
-2.48346e-07
5.42859e-07
-5.97534e-06
-2.33194e-06
1.00132e-06
-3.50753e-06
6.67579e-08
1.388e-06
-1.93908e-06
-2.42346e-08
1.18664e-06
-2.31795e-06
1.74939e-07
4.53529e-07
-5.37171e-07
1.59216e-07
-6.13726e-07
4.66853e-07
7.34944e-07
-1.79404e-06
-2.66946e-07
1.29289e-06
-3.06874e-06
1.41321e-06
1.17933e-06
-3.9979e-06
1.19984e-06
1.09578e-06
-5.20799e-06
-4.96478e-07
1.45821e-06
-6.20902e-06
-1.98288e-06
6.51978e-07
-2.5559e-06
-1.23764e-06
9.89938e-07
-2.11585e-06
-8.13162e-07
3.97712e-07
-8.52903e-07
-8.72826e-07
-2.28276e-07
5.147e-07
-4.25888e-07
-4.93792e-07
-6.0219e-08
7.9258e-07
-1.0024e-06
-1.1543e-06
1.39595e-06
-1.60942e-06
2.22614e-07
1.79762e-06
-3.19282e-06
5.93368e-07
2.18985e-06
-5.38136e-06
-2.15797e-07
1.90787e-06
-6.52808e-06
-8.51574e-07
1.54302e-08
-1.25079e-06
-1.87564e-06
3.21273e-07
-1.1268e-06
-1.31033e-06
-7.6388e-07
1.44308e-06
-1.21084e-06
-1.63223e-06
1.29361e-06
8.94416e-08
-1.69415e-06
-1.11756e-06
1.11927e-06
-2.03351e-06
-2.16849e-06
1.35356e-06
-2.50084e-06
-1.26676e-06
1.95669e-06
-4.07075e-06
-1.33956e-07
2.29723e-06
-6.06323e-06
4.6477e-08
1.73023e-06
-6.76692e-06
-2.28295e-08
-1.25055e-07
-1.96502e-07
-1.74305e-06
-1.94156e-07
-1.11612e-06
1.83478e-07
-1.45241e-06
-5.71978e-07
3.27332e-06
-2.52149e-06
7.56574e-07
1.60614e-06
-2.88782e-06
9.91588e-07
-1.74283e-06
-2.95106e-06
8.70064e-07
-2.97532e-06
-3.19795e-06
1.3759e-06
-2.39578e-06
-4.25907e-06
1.91671e-06
-9.89537e-07
-5.89249e-06
1.68487e-06
-4.96315e-09
-6.68375e-06
4.39278e-07
3.29126e-07
-1.14034e-06
4.50086e-07
2.47674e-08
-1.24292e-07
1.82792e-07
1.86526e-07
-2.84526e-07
1.24972e-07
3.63099e-07
-2.9913e-07
2.29064e-08
4.71784e-07
-1.66648e-07
-5.88059e-08
4.95138e-07
-5.104e-08
-1.89116e-09
4.49917e-07
-1.56578e-08
1.2124e-07
3.55748e-07
-1.62713e-08
2.07582e-07
2.34687e-07
-1.40326e-08
2.3987e-07
1.01178e-07
-1.08526e-08
2.47943e-07
-3.31624e-08
2.41664e-07
2.40127e-07
-4.6826e-07
2.14584e-07
5.9214e-07
-9.70252e-07
5.30572e-07
6.69151e-07
-7.90018e-07
5.60206e-07
5.84754e-07
-4.1738e-07
3.87371e-07
5.10627e-07
-1.40076e-07
1.59613e-07
4.36567e-07
-2.07567e-08
1.13425e-07
3.33103e-07
-1.99486e-08
1.91085e-07
2.11982e-07
-3.72808e-08
2.51002e-07
7.91207e-08
-3.22685e-08
2.76273e-07
-1.07773e-07
3.08547e-07
4.01374e-07
-1.03652e-06
4.33828e-07
7.03547e-07
-1.67854e-06
8.39891e-07
7.04571e-07
-1.28116e-06
8.8776e-07
5.27688e-07
-7.22101e-07
8.15705e-07
4.36471e-07
-3.63347e-07
5.16515e-07
4.1577e-07
-1.58171e-07
2.65694e-07
3.51541e-07
-8.61569e-08
2.44869e-07
2.02705e-07
-4.83067e-08
3.22016e-07
5.49265e-08
-5.97955e-08
4.16166e-07
-2.94014e-07
5.38072e-07
3.45067e-07
-1.53116e-06
6.24603e-07
4.67478e-07
-2.02843e-06
7.489e-07
4.24205e-07
-1.61026e-06
9.06068e-07
3.08244e-07
-1.09893e-06
9.89713e-07
3.05839e-07
-7.71715e-07
8.04105e-07
3.53966e-07
-4.73702e-07
5.36913e-07
3.187e-07
-2.58671e-07
4.48688e-07
2.13372e-07
-1.66411e-07
5.19562e-07
1.57589e-07
-2.6148e-07
6.40849e-07
-5.22569e-07
7.14003e-07
2.83221e-07
-1.78785e-06
3.1444e-07
3.27111e-07
-2.10918e-06
3.06859e-07
3.57498e-07
-1.84007e-06
6.88849e-07
3.91408e-07
-1.5292e-06
9.475e-07
4.32857e-07
-1.25821e-06
9.35033e-07
4.79998e-07
-9.29397e-07
8.31507e-07
5.1743e-07
-6.58989e-07
7.63629e-07
5.48714e-07
-5.4733e-07
7.61598e-07
4.8901e-07
-5.60697e-07
7.43634e-07
-5.8482e-07
6.88815e-07
3.0335e-07
-2.02448e-06
-9.15525e-08
2.96816e-07
-2.12148e-06
-6.03143e-08
4.04941e-07
-1.95697e-06
2.38207e-07
5.94429e-07
-1.842e-06
5.37571e-07
7.21073e-07
-1.64137e-06
6.8825e-07
8.07272e-07
-1.35174e-06
7.7026e-07
8.65743e-07
-1.06826e-06
7.87197e-07
8.3343e-07
-8.48866e-07
7.32752e-07
6.21473e-07
-6.73414e-07
6.24149e-07
-5.26907e-07
5.36207e-07
1.84356e-08
-2.06883e-06
-3.659e-08
-6.72862e-08
-2.07366e-06
-1.08382e-07
8.7835e-08
-2.06439e-06
-2.47094e-08
3.56617e-07
-2.05138e-06
1.6369e-07
5.64589e-07
-1.91041e-06
3.5026e-07
7.0784e-07
-1.6599e-06
4.92175e-07
7.61966e-07
-1.34004e-06
5.5571e-07
6.74338e-07
-1.0149e-06
5.17038e-07
4.54871e-07
-7.67313e-07
4.5303e-07
-5.99118e-07
4.32749e-07
-3.81627e-07
-1.99814e-06
2.78699e-07
-4.50152e-07
-2.3121e-06
3.31773e-07
-1.08325e-07
-2.52075e-06
3.75862e-07
2.13222e-07
-2.4274e-06
4.96931e-07
4.00459e-07
-2.22084e-06
5.64713e-07
4.46876e-07
-1.89763e-06
5.54328e-07
3.66371e-07
-1.49641e-06
4.98258e-07
1.86655e-07
-1.1412e-06
4.69659e-07
-1.31035e-08
-9.42635e-07
4.86253e-07
-8.61333e-07
5.20973e-07
-2.19672e-07
-3.02945e-06
1.52955e-07
-4.50721e-07
-3.27947e-06
1.38184e-06
-1.22912e-07
-3.4606e-06
1.53466e-06
2.07692e-07
-3.0554e-06
1.31979e-06
3.5827e-07
-2.59855e-06
1.06374e-06
1.53317e-07
-1.936e-06
6.8181e-07
-4.11954e-07
-1.33435e-06
4.89385e-07
-1.26439e-06
-9.85924e-07
1.00854e-06
-2.16387e-06
-7.74555e-07
1.42234e-06
-1.05777e-06
1.23949e-06
2.7443e-07
-5.4231e-06
1.02909e-06
3.7535e-07
-5.28704e-06
2.28882e-06
1.74027e-07
-4.3368e-06
2.35364e-06
-2.12425e-07
-3.01532e-06
1.7141e-06
-1.02776e-06
-1.35157e-06
5.37548e-07
-2.36098e-06
5.61779e-08
-7.17253e-07
-4.11242e-06
5.17768e-07
-4.2936e-07
-5.64978e-06
1.95014e-07
7.05021e-07
-5.9686e-06
-4.45644e-07
4.38222e-07
-1.66425e-06
-5.45304e-07
-2.3743e-06
-5.28028e-06
9.83962e-07
-3.50965e-06
-5.5376e-06
1.78994e-06
-3.80546e-06
-3.71938e-06
5.84661e-07
-4.22037e-06
-1.54069e-06
-1.09316e-06
-5.19226e-06
5.33986e-07
-1.94044e-06
-6.30667e-06
1.63838e-06
-1.75199e-06
-7.19134e-06
1.63856e-06
-8.4148e-07
-7.47435e-06
8.91272e-07
-2.12434e-07
-6.77714e-06
-5.25432e-07
-4.54562e-07
-2.59609e-06
-9.2742e-07
-3.56031e-06
-3.53419e-06
4.32766e-07
-5.04639e-06
-4.63542e-06
9.17299e-07
-4.86854e-06
-3.21585e-06
-3.11967e-07
-4.81285e-06
-8.18985e-07
-1.45859e-06
-5.47713e-06
1.43791e-06
-1.75257e-06
-6.10448e-06
2.2276e-06
-1.26346e-06
-6.32255e-06
1.84098e-06
-3.31647e-07
-6.08919e-06
9.37211e-07
4.57171e-07
-5.50581e-06
-6.58777e-07
6.07698e-07
-3.1273e-06
3.41567e-07
-3.21964e-06
-1.6189e-06
-3.03501e-07
-4.96916e-06
-3.32498e-06
7.93626e-07
-4.61961e-06
-3.24467e-06
4.43075e-07
-3.41614e-06
-1.55087e-06
-1.48349e-07
-2.96477e-06
1.37432e-06
-5.82198e-07
-3.71935e-06
3.02909e-06
-4.5115e-07
-4.43446e-06
2.67035e-06
4.09199e-07
-4.85403e-06
1.39353e-06
1.41938e-06
-5.0483e-06
-7.81005e-07
1.695e-06
-3.49293e-06
1.3728e-06
-2.36227e-06
2.45662e-08
-8.6137e-07
-4.03866e-06
-2.18119e-06
9.06486e-07
-4.70399e-06
-2.55538e-06
1.06284e-06
-4.03303e-06
-1.99783e-06
8.57114e-07
-2.74543e-06
4.32207e-07
4.95591e-07
-2.57231e-06
3.07629e-06
3.69976e-07
-3.59986e-06
3.37988e-06
9.82261e-07
-4.78567e-06
1.38611e-06
1.87847e-06
-5.64272e-06
-1.54409e-06
2.25769e-06
-3.81729e-06
1.64819e-06
-1.49774e-06
1.52806e-06
-9.11291e-07
-2.73958e-06
-1.64476e-06
1.24227e-06
-4.13856e-06
-1.61954e-06
1.64108e-06
-4.77115e-06
-1.49965e-06
1.53564e-06
-4.09088e-06
1.87664e-07
8.78075e-07
-3.47615e-06
2.51735e-06
6.05875e-07
-4.22002e-06
2.93756e-06
1.29633e-06
-5.57965e-06
6.01775e-07
2.31861e-06
-6.43797e-06
-2.16603e-06
2.22757e-06
-3.40495e-06
4.62307e-07
-4.79406e-07
2.50712e-06
-4.51373e-07
-1.37322e-06
-1.21739e-06
1.28e-06
-3.22129e-06
-7.24037e-07
1.87244e-06
-5.11349e-06
-4.88681e-07
2.13329e-06
-5.58749e-06
6.50202e-07
1.42973e-06
-5.44463e-06
1.96803e-06
8.77906e-07
-5.90611e-06
1.67458e-06
1.69664e-06
-6.59711e-06
-5.0094e-07
2.33659e-06
-6.54502e-06
-2.19602e-06
9.79236e-07
-2.60891e-06
-1.68978e-06
5.65047e-07
1.98176e-06
-6.39098e-08
-5.37734e-07
-6.27081e-07
6.87407e-07
-2.43079e-06
-4.53179e-08
1.37356e-06
-4.59363e-06
8.5091e-08
2.32401e-06
-5.91746e-06
8.77252e-07
2.38967e-06
-6.35074e-06
1.45808e-06
2.12256e-06
-6.51062e-06
6.00841e-07
2.3294e-06
-6.52189e-06
-6.88361e-07
1.65691e-06
-5.84203e-06
-1.38239e-06
-8.41509e-07
-1.88326e-06
-3.04005e-06
9.6621e-07
5.82035e-07
-3.79654e-07
-5.19909e-07
1.33323e-07
-1.47122e-07
-2.09977e-06
1.45874e-07
9.62788e-07
-3.19817e-06
-4.44316e-07
2.42039e-06
-4.13556e-06
1.58161e-07
3.05243e-06
-4.95882e-06
8.14658e-07
3.26431e-06
-5.68091e-06
5.56159e-07
2.95663e-06
-5.81782e-06
7.85256e-08
1.27788e-06
-5.34718e-06
-5.00591e-07
-1.33701e-06
-1.41248e-06
-3.12023e-06
-5.33562e-08
2.48822e-07
-9.23767e-07
-2.25594e-06
1.32357e-06
-1.98496e-07
-3.70391e-06
1.69004e-07
1.5143e-06
-3.96586e-06
-1.45521e-06
2.39211e-06
-4.17886e-06
-1.1202e-06
2.84492e-06
-4.6547e-06
-1.91996e-08
3.26639e-06
-5.1907e-06
5.67338e-07
2.82206e-06
-5.12309e-06
5.92059e-07
1.14907e-06
-4.82623e-06
4.49904e-08
-9.67505e-07
-7.87151e-07
-2.84346e-06
-9.42756e-07
-7.69483e-07
8.44942e-07
-3.2535e-06
2.04726e-07
2.85763e-06
-4.56843e-06
1.64047e-06
6.00024e-07
-4.77846e-06
1.97257e-06
-2.22619e-06
-4.57891e-06
2.09463e-06
-2.54431e-06
-4.45155e-06
2.47289e-06
-1.24356e-06
-4.53892e-06
2.44927e-06
1.22155e-07
-4.44451e-06
1.49343e-06
6.89081e-07
-4.23647e-06
-2.85084e-07
5.61305e-07
-2.35459e-06
1.06786e-07
-9.31187e-08
-1.41485e-08
2.90059e-07
1.12422e-07
-4.37146e-07
3.56577e-07
4.78676e-07
-7.2245e-07
3.79102e-07
7.01341e-07
-5.84093e-07
3.02623e-07
7.03374e-07
-2.64141e-07
2.60216e-07
5.61968e-07
-3.40517e-08
2.96697e-07
4.02115e-07
2.08908e-08
3.46544e-07
2.52186e-07
1.70638e-08
3.72735e-07
1.02682e-07
1.48689e-08
3.82579e-07
-1.17551e-08
3.81975e-07
1.53233e-07
-1.95087e-07
2.4229e-07
6.07076e-07
-1.02696e-06
6.66545e-07
8.43877e-07
-1.27054e-06
8.71496e-07
8.50403e-07
-9.24975e-07
7.21727e-07
7.56293e-07
-4.40181e-07
4.29764e-07
5.85544e-07
-4.85666e-08
2.98688e-07
3.9412e-07
6.80902e-08
3.35309e-07
2.36791e-07
3.68092e-08
3.88585e-07
9.59665e-08
1.7345e-08
4.14621e-07
-2.58997e-08
4.3537e-07
3.2669e-07
-4.58195e-07
3.70246e-07
6.68921e-07
-1.42145e-06
8.92152e-07
7.30726e-07
-1.55162e-06
1.10703e-06
6.4618e-07
-1.06876e-06
1.04403e-06
6.02353e-07
-5.65689e-07
6.8585e-07
5.52526e-07
-1.39862e-07
4.06817e-07
4.40827e-07
4.31617e-08
3.81496e-07
2.91658e-07
5.48844e-08
4.5311e-07
1.1229e-07
9.05402e-08
5.22339e-07
-2.55969e-09
6.25832e-07
4.12414e-07
-7.32259e-07
4.86253e-07
4.75965e-07
-1.46576e-06
7.29655e-07
3.75773e-07
-1.55588e-06
1.01052e-06
3.25048e-07
-1.19166e-06
1.16335e-06
3.8623e-07
-7.67339e-07
9.44573e-07
4.68584e-07
-3.22506e-07
6.37202e-07
4.43472e-07
-2.74001e-08
5.44361e-07
2.93582e-07
1.04381e-07
6.19956e-07
1.27311e-07
1.70127e-07
7.27533e-07
-7.94082e-09
8.46967e-07
4.361e-07
-1.11434e-06
2.6042e-07
4.73961e-07
-1.56143e-06
3.64668e-07
3.83204e-07
-1.52987e-06
7.53598e-07
3.78168e-07
-1.31975e-06
1.08062e-06
4.22453e-07
-1.0014e-06
1.12481e-06
5.09479e-07
-5.90805e-07
1.01278e-06
5.51565e-07
-2.35506e-07
9.29648e-07
4.90327e-07
-5.38536e-09
9.32602e-07
3.62741e-07
1.04469e-07
9.36878e-07
2.57652e-08
9.28102e-07
4.04557e-07
-1.63382e-06
2.33682e-08
4.85498e-07
-1.82412e-06
1.21437e-07
5.1025e-07
-1.68234e-06
3.65926e-07
5.86478e-07
-1.51246e-06
6.54054e-07
6.53938e-07
-1.26118e-06
8.80564e-07
7.30691e-07
-9.19237e-07
1.02194e-06
7.81174e-07
-5.62178e-07
1.06339e-06
7.29755e-07
-2.7229e-07
1.05108e-06
5.28031e-07
-6.76113e-08
9.97953e-07
-1.91621e-09
9.37497e-07
5.85415e-08
-1.85963e-06
1.30684e-07
2.78561e-08
-1.92025e-06
1.84335e-08
1.76918e-07
-1.87433e-06
1.82188e-08
3.73792e-07
-1.76893e-06
2.23288e-07
5.38338e-07
-1.56826e-06
4.92796e-07
6.69464e-07
-1.27709e-06
7.18902e-07
7.21266e-07
-9.14038e-07
8.55768e-07
6.39521e-07
-6.01807e-07
9.28299e-07
4.37547e-07
-3.73506e-07
9.60898e-07
-2.22766e-07
9.51914e-07
-3.81048e-07
-1.88191e-06
6.82026e-07
-4.85951e-07
-2.06962e-06
5.86048e-07
-1.83308e-07
-2.25847e-06
4.57358e-07
1.62485e-07
-2.18525e-06
5.67458e-07
3.98932e-07
-1.96917e-06
7.29172e-07
4.89986e-07
-1.6392e-06
8.25383e-07
4.57271e-07
-1.2609e-06
8.77834e-07
3.36618e-07
-9.51454e-07
9.39959e-07
1.84217e-07
-7.51996e-07
1.01714e-06
-5.94736e-07
1.06036e-06
-4.2052e-07
-3.05589e-06
1.74745e-06
-7.01028e-07
-2.74606e-06
2.33877e-06
-4.00943e-07
-3.05533e-06
2.03143e-06
1.04859e-08
-2.97528e-06
1.69839e-06
1.77856e-07
-2.66124e-06
1.58845e-06
-2.06141e-07
-2.08701e-06
1.51361e-06
-8.70956e-07
-1.7876e-06
1.6809e-06
-1.59598e-06
-1.33694e-06
2.11905e-06
-2.2336e-06
-1.16699e-06
2.47496e-06
-1.49732e-06
2.39804e-06
4.04499e-07
-5.64494e-06
3.21361e-06
3.31234e-07
-4.31027e-06
3.92629e-06
-1.87953e-07
-3.10053e-06
2.91804e-06
-1.23901e-06
-1.84496e-06
1.63482e-06
-3.25153e-06
-6.40005e-07
5.28831e-07
-5.69506e-06
-4.55932e-07
9.51998e-08
-7.69236e-06
-9.45966e-07
7.26303e-07
-8.0329e-06
-1.64106e-06
1.34968e-06
-7.06935e-06
-2.98688e-06
1.29455e-06
-4.30466e-06
7.17393e-07
-2.13553e-06
-5.59948e-06
3.07404e-06
-3.26111e-06
-4.06978e-06
2.67505e-06
-4.28846e-06
-1.71159e-06
2.23049e-07
-5.81451e-06
-2.50297e-07
-1.16177e-06
-7.43212e-06
3.83449e-07
-1.34628e-06
-8.34717e-06
-6.60461e-08
-1.22683e-06
-8.45623e-06
-1.03604e-06
-6.42338e-07
-7.67705e-06
-2.47588e-06
-1.56798e-07
-6.39256e-06
-4.58873e-06
-1.37216e-07
-5.9335e-06
-5.02527e-07
-3.33362e-06
-4.14277e-06
2.30968e-06
-4.69781e-06
-3.26457e-06
1.47629e-06
-5.49077e-06
-5.73524e-07
-6.57079e-07
-6.57215e-06
9.00594e-07
-1.5281e-06
-7.19362e-06
6.80816e-07
-1.42847e-06
-7.46682e-06
-1.57071e-09
-1.05473e-06
-7.38716e-06
-8.78125e-07
-5.69221e-07
-6.69076e-06
-2.53094e-06
-1.84168e-07
-5.82887e-06
-4.57926e-06
-2.63668e-07
-5.58436e-06
-9.11708e-07
-3.45213e-06
-2.4213e-06
1.42716e-06
-4.46027e-06
-2.89236e-06
1.42955e-06
-4.03034e-06
-9.31356e-07
3.70984e-07
-4.40176e-06
1.61e-06
-4.86338e-07
-5.58088e-06
2.20832e-06
-9.30573e-07
-6.37144e-06
1.30994e-06
-9.72099e-07
-6.53956e-06
1.58559e-07
-4.59368e-07
-6.19043e-06
-1.61259e-06
1.51884e-07
-5.60747e-06
-3.59706e-06
1.29841e-07
-4.43179e-06
-7.6299e-07
-3.41088e-06
-5.57114e-07
6.85327e-07
-4.58896e-06
-2.2667e-06
1.4589e-06
-3.79958e-06
-1.79044e-06
1.13255e-06
-2.78105e-06
7.13499e-07
7.35084e-07
-3.32531e-06
3.08898e-06
1.59191e-07
-4.65956e-06
3.03828e-06
-2.41083e-08
-5.47171e-06
1.52107e-06
4.3189e-07
-5.68931e-06
-4.62734e-07
9.46218e-07
-5.33376e-06
-2.49857e-06
8.03658e-07
-3.29861e-06
-5.63148e-07
-2.99412e-06
1.29975e-06
2.2597e-07
-4.38597e-06
-1.27687e-06
1.64429e-06
-4.40571e-06
-1.70801e-06
1.5784e-06
-3.34786e-06
8.63997e-08
1.1049e-06
-2.97283e-06
2.96369e-06
6.2835e-07
-3.98425e-06
3.98263e-06
6.72943e-07
-5.1068e-06
2.48435e-06
1.45559e-06
-5.47381e-06
3.10462e-07
1.91242e-06
-4.95123e-06
-1.58716e-06
7.93588e-07
-2.58817e-06
-1.54265e-06
-2.02567e-06
2.69632e-06
1.77732e-07
-3.61342e-06
-3.90702e-07
1.98158e-06
-4.81794e-06
-1.00292e-06
2.37186e-06
-4.92552e-06
4.07136e-07
1.92014e-06
-4.42347e-06
2.63178e-06
1.25959e-06
-4.77095e-06
3.63039e-06
1.57763e-06
-5.4506e-06
2.4042e-06
2.45646e-06
-5.33269e-06
4.75424e-07
2.05372e-06
-4.21768e-06
-1.30565e-06
-4.17284e-07
-2.83285e-06
-2.73726e-06
-7.40935e-07
3.11009e-06
2.63249e-07
-2.64589e-06
5.47385e-07
1.65428e-06
-4.88218e-06
-1.93664e-07
2.8006e-06
-6.26706e-06
9.35732e-07
3.18031e-06
-6.40502e-06
2.34747e-06
2.81196e-06
-6.07429e-06
2.66795e-06
2.75428e-06
-5.5761e-06
1.69128e-06
2.54414e-06
-4.49671e-06
2.79543e-07
7.73399e-07
-3.23901e-06
-1.66333e-06
-1.74153e-06
-3.5058e-06
-2.94306e-06
4.25026e-07
2.10605e-06
1.99351e-07
-1.66406e-06
1.44255e-06
1.04681e-06
-4.07325e-06
4.45665e-07
2.73264e-06
-5.62505e-06
1.12986e-06
3.77805e-06
-6.1712e-06
2.02306e-06
3.92299e-06
-5.76128e-06
2.07823e-06
3.44412e-06
-4.72146e-06
1.46375e-06
2.14433e-06
-3.34961e-06
2.58911e-07
-7.33526e-08
-2.53104e-06
-2.215e-06
-1.6039e-06
-3.84008e-06
-2.7501e-06
5.91403e-08
1.07483e-06
4.83217e-08
-2.30507e-06
2.47344e-06
1.13484e-06
-4.33486e-06
9.87074e-07
3.00269e-06
-4.97651e-06
5.32914e-07
3.63072e-06
-5.01408e-06
1.1191e-06
3.78647e-06
-4.42373e-06
1.44771e-06
3.30655e-06
-3.17152e-06
1.0914e-06
1.94217e-06
-1.92762e-06
-2.84577e-08
1.9255e-07
-1.67085e-06
-2.30151e-06
-1.13776e-06
-3.75225e-06
-2.58965e-06
-1.06783e-06
3.09497e-07
1.06369e-06
-3.13571e-06
1.38672e-06
3.35931e-06
-4.70918e-06
2.82659e-06
1.3744e-06
-4.75786e-06
3.10003e-06
-5.45861e-07
-4.01476e-06
3.22837e-06
-7.57728e-07
-2.86469e-06
3.07919e-06
-3.08686e-07
-1.48873e-06
2.37808e-06
-2.13362e-07
-3.52888e-07
1.11994e-06
-7.90789e-07
-4.31927e-07
-3.93791e-07
-2.11376e-06
-2.26228e-06
-3.3291e-06
-1.48708e-07
3.37453e-08
4.05022e-07
-1.58782e-08
-3.30166e-07
5.53913e-07
4.04932e-07
-7.61937e-07
7.20228e-07
7.1863e-07
-7.06329e-07
6.95253e-07
7.38227e-07
-3.34707e-07
5.75327e-07
5.77532e-07
-3.54286e-08
4.9282e-07
3.98003e-07
5.63041e-08
4.69769e-07
2.38071e-07
6.45017e-08
4.68166e-07
8.58131e-08
6.23982e-08
4.72438e-07
3.91322e-08
4.75256e-07
3.11912e-08
-4.46468e-08
2.8949e-07
3.86841e-07
-6.90786e-07
6.71515e-07
7.24715e-07
-1.21244e-06
9.84122e-07
8.90745e-07
-1.06899e-06
9.18357e-07
8.48912e-07
-5.368e-07
6.73691e-07
6.35792e-07
-3.85591e-08
5.14939e-07
4.05353e-07
1.35907e-07
4.86146e-07
2.33534e-07
1.19582e-07
5.05324e-07
9.12717e-08
8.94361e-08
5.29846e-07
5.32615e-08
5.49437e-07
2.55807e-07
-2.17384e-07
2.87176e-07
6.07288e-07
-8.81517e-07
7.31402e-07
7.37436e-07
-1.30798e-06
1.07242e-06
7.81646e-07
-1.13511e-06
1.06594e-06
7.84802e-07
-6.30081e-07
7.75974e-07
6.65717e-07
-8.15473e-08
5.6889e-07
4.70303e-07
1.75445e-07
5.37372e-07
2.92996e-07
1.76861e-07
5.73138e-07
1.20868e-07
1.74925e-07
6.08979e-07
1.60492e-07
6.61066e-07
4.01434e-07
-4.50611e-07
3.18047e-07
6.18706e-07
-9.24276e-07
5.55142e-07
5.92663e-07
-1.1914e-06
9.19986e-07
5.79746e-07
-1.06843e-06
1.10959e-06
6.27929e-07
-6.61419e-07
9.27728e-07
6.22502e-07
-1.39636e-07
7.00717e-07
5.00839e-07
1.87215e-07
6.54254e-07
3.03892e-07
2.84045e-07
7.09719e-07
9.69847e-08
3.39825e-07
7.69541e-07
3.13973e-07
8.28251e-07
4.89037e-07
-9.44176e-07
2.64947e-07
6.91829e-07
-1.19597e-06
4.33569e-07
6.45014e-07
-1.16405e-06
7.73059e-07
5.83601e-07
-9.99732e-07
1.07333e-06
5.9007e-07
-6.80231e-07
1.13716e-06
6.37109e-07
-2.29196e-07
1.0553e-06
5.97759e-07
1.57501e-07
9.98711e-07
4.16988e-07
3.78401e-07
1.01902e-06
1.81938e-07
4.91459e-07
1.02029e-06
4.65005e-07
9.83528e-07
3.76648e-07
-1.55372e-06
2.56269e-07
5.61571e-07
-1.63256e-06
3.73107e-07
6.22538e-07
-1.43059e-06
5.715e-07
6.35819e-07
-1.17842e-06
8.19461e-07
6.62096e-07
-8.85636e-07
1.05969e-06
7.2815e-07
-5.10063e-07
1.23675e-06
7.45832e-07
-1.0961e-07
1.31281e-06
6.01902e-07
2.56979e-07
1.31643e-06
3.23864e-07
5.04366e-07
1.26308e-06
5.76506e-07
1.13877e-06
-2.94384e-08
-1.74724e-06
3.53642e-07
-4.91098e-09
-1.76829e-06
1.29638e-07
1.43913e-07
-1.68342e-06
1.22229e-07
3.13098e-07
-1.49116e-06
3.66842e-07
4.72295e-07
-1.24641e-06
6.94373e-07
5.95795e-07
-9.30547e-07
1.01589e-06
6.13366e-07
-4.97828e-07
1.22642e-06
4.98355e-07
-6.45457e-08
1.36484e-06
2.83562e-07
2.76824e-07
1.40323e-06
4.71693e-07
1.31501e-06
-2.60918e-07
-1.71948e-06
9.15183e-07
-3.81986e-07
-1.81382e-06
7.52641e-07
-1.57118e-07
-1.99988e-06
5.4895e-07
1.60024e-07
-1.90639e-06
6.65549e-07
4.04474e-07
-1.62047e-06
8.58785e-07
5.29815e-07
-1.21584e-06
9.85332e-07
5.02648e-07
-6.72706e-07
1.07988e-06
3.87925e-07
-2.49244e-07
1.23938e-06
2.35409e-07
8.53061e-08
1.36118e-06
3.86015e-07
1.36371e-06
4.43248e-08
-2.51961e-06
2.50325e-06
-1.16564e-07
-2.39707e-06
3.08291e-06
6.29035e-08
-2.74339e-06
2.59547e-06
3.0578e-07
-2.80415e-06
2.35327e-06
2.57565e-07
-2.37153e-06
2.38772e-06
-5.31814e-08
-1.89455e-06
2.50307e-06
-4.22761e-07
-1.38409e-06
2.76186e-06
-8.89428e-07
-4.20061e-07
2.75654e-06
-1.3907e-06
2.97373e-07
2.76416e-06
5.05099e-07
2.67109e-06
1.34245e-06
-5.21657e-06
4.56813e-06
1.28088e-06
-3.30654e-06
4.89734e-06
3.03045e-07
-2.29777e-06
3.45025e-06
-2.15514e-06
-1.16315e-06
2.45201e-06
-5.32583e-06
-7.24352e-07
2.05234e-06
-7.69713e-06
-1.60941e-06
2.18136e-06
-8.63048e-06
-2.4378e-06
2.71338e-06
-8.0213e-06
-2.44113e-06
2.76157e-06
-6.55822e-06
-2.13149e-06
2.26033e-06
-2.00441e-06
1.67399e-06
-1.08581e-06
-5.47209e-06
4.41538e-06
-2.13074e-06
-2.73815e-06
3.15157e-06
-3.848e-06
-7.81193e-07
4.23732e-07
-6.09429e-06
-2.5378e-08
-5.32478e-08
-7.24156e-06
-6.65885e-07
-2.57473e-07
-7.20546e-06
-2.19653e-06
-6.75794e-07
-6.88269e-06
-2.85812e-06
-5.44797e-07
-6.13717e-06
-3.02229e-06
-3.21149e-07
-4.9877e-06
-3.04897e-06
-3.69208e-07
-2.94762e-06
-7.23938e-07
-2.70137e-06
-4.20574e-06
3.7447e-06
-4.27224e-06
-1.38315e-06
1.69216e-06
-5.56186e-06
6.69477e-07
-8.18128e-07
-6.01701e-06
1.92666e-07
-1.291e-06
-5.79303e-06
-8.11127e-07
-1.50721e-06
-5.84531e-06
-1.45911e-06
-1.73987e-06
-5.75568e-06
-1.77341e-06
-1.74355e-06
-5.06944e-06
-2.12996e-06
-1.76273e-06
-3.92432e-06
-2.40459e-06
-2.0532e-06
-2.54046e-06
-2.5902e-06
-3.06802e-06
-2.76655e-06
3.05599e-06
-4.00261e-06
-8.74319e-07
1.85531e-06
-4.39741e-06
1.59028e-06
-1.55016e-07
-5.21623e-06
1.69581e-06
-1.17067e-06
-5.65486e-06
6.58151e-07
-1.96121e-06
-5.72486e-06
-6.03681e-08
-2.30085e-06
-5.36663e-06
-5.65278e-07
-2.02573e-06
-4.51156e-06
-1.12016e-06
-1.71301e-06
-3.20855e-06
-1.70488e-06
-1.87286e-06
-2.22804e-06
-2.49439e-06
-3.24665e-06
-1.19563e-06
2.36105e-06
-3.54988e-06
-1.30892e-06
2.19674e-06
-2.67788e-06
5.35025e-07
1.31579e-06
-3.26212e-06
2.49616e-06
5.18981e-07
-4.7674e-06
2.71808e-06
-3.95456e-07
-5.52241e-06
1.87039e-06
-1.19986e-06
-5.23237e-06
9.17201e-07
-1.34062e-06
-4.21094e-06
3.08209e-08
-1.22618e-06
-2.6961e-06
-8.7022e-07
-1.54585e-06
-1.96219e-06
-2.32461e-06
-3.43676e-06
8.3157e-07
1.63554e-06
-4.18157e-06
-1.154e-06
2.23417e-06
-3.09562e-06
-8.85477e-07
1.91296e-06
-2.62922e-06
1.75318e-06
1.38148e-06
-3.90917e-06
3.7676e-06
8.58776e-07
-5.24939e-06
3.60665e-06
2.76899e-07
-5.14306e-06
2.33662e-06
-7.01762e-08
-3.83752e-06
1.16457e-06
-5.26872e-07
-2.08523e-06
-3.07653e-07
-1.52126e-06
-2.4476e-06
-2.49669e-06
-2.88586e-06
2.60132e-06
1.29384e-06
-4.42082e-06
-2.63579e-07
2.6261e-06
-4.70792e-06
-8.53179e-07
2.62665e-06
-4.36037e-06
1.29271e-06
2.03306e-06
-4.65888e-06
3.60272e-06
1.72298e-06
-5.25691e-06
4.1286e-06
1.65372e-06
-4.73471e-06
3.16255e-06
1.10832e-06
-3.16926e-06
1.73795e-06
-8.51329e-08
-1.33622e-06
-8.13063e-07
-1.74491e-06
-3.74069e-06
-2.4304e-06
-1.42877e-06
3.17152e-06
1.12182e-06
-3.51595e-06
7.85695e-07
2.6922e-06
-5.45147e-06
1.2702e-07
3.75591e-06
-6.12017e-06
1.72121e-06
3.42051e-06
-5.88625e-06
3.30218e-06
2.87857e-06
-5.29192e-06
3.74874e-06
2.53981e-06
-4.0043e-06
2.98664e-06
1.43241e-06
-2.20013e-06
1.12003e-06
-4.12848e-07
-7.10537e-07
-2.32024e-06
-1.72393e-06
-4.80255e-06
-2.2396e-06
7.0635e-08
2.24187e-06
1.05838e-06
-2.17089e-06
1.95253e-06
2.12149e-06
-4.8599e-06
1.34071e-06
4.20794e-06
-6.2366e-06
2.45839e-06
4.41758e-06
-5.99606e-06
3.19764e-06
3.78699e-06
-4.6094e-06
3.06531e-06
2.7409e-06
-2.60066e-06
2.06463e-06
1.0576e-06
-7.31871e-07
-1.94695e-07
-6.27414e-07
4.78208e-08
-3.52659e-06
-1.17723e-06
-5.12032e-06
-2.08598e-06
1.64081e-07
9.53753e-07
1.17236e-06
-2.00398e-06
3.10416e-06
2.15128e-06
-4.2787e-06
2.24937e-06
4.36877e-06
-5.0307e-06
2.34502e-06
4.49609e-06
-4.5441e-06
2.51431e-06
3.98321e-06
-2.94311e-06
1.92193e-06
2.84893e-06
-8.16562e-07
5.4947e-07
1.33078e-06
6.89922e-07
-1.74825e-06
2.39631e-07
8.69255e-07
-4.28635e-06
-5.57321e-07
-5.23728e-06
-1.81982e-06
-8.6426e-07
1.45097e-06
6.76533e-07
-2.51982e-06
2.40972e-06
3.73672e-06
-4.06406e-06
3.96647e-06
2.65374e-06
-3.99473e-06
4.00161e-06
1.37409e-06
-2.92087e-06
3.88714e-06
7.8168e-07
-1.23758e-06
3.3123e-06
5.54274e-09
5.39332e-07
2.33482e-06
-1.18416e-06
1.75824e-06
1.06057e-06
-2.90776e-06
1.78058e-06
-5.87676e-08
-4.64373e-06
-1.40194e-06
-5.37459e-06
-6.76697e-08
1.94027e-08
4.53289e-07
-1.89416e-08
-1.20021e-07
6.25206e-07
2.99162e-07
-4.29515e-07
8.31639e-07
5.78989e-07
-4.04578e-07
8.20004e-07
6.19497e-07
-1.49277e-07
6.84097e-07
5.08933e-07
3.35534e-08
5.69831e-07
3.60825e-07
1.00343e-07
5.17533e-07
2.13125e-07
1.18343e-07
4.97523e-07
6.44897e-08
1.2676e-07
4.94314e-07
1.28012e-07