/*--------------------------------*- C++ -*----------------------------------*\
| =========                 |                                                 |
| \\      /  F ield         | OpenFOAM: The Open Source CFD Toolbox           |
|  \\    /   O peration     | Version:  2312                                  |
|   \\  /    A nd           | Website:  www.openfoam.com                      |
|    \\/     M anipulation  |                                                 |
\*---------------------------------------------------------------------------*/
FoamFile
{
    version     2.0;
    format      ascii;
    arch        "LSB;label=32;scalar=64";
    class       volScalarField;
    location    "0.785";
    object      alpha.water;
}
// * * * * * * * * * * * * * * * * * * * * * * * * * * * * * * * * * * * * * //

dimensions      [0 0 0 0 0 0 0];

internalField   nonuniform List<scalar> 
8000
(
1
1
1
1
1
1
1
1
1
1
1
1
1
1
1
1
1
1
1
1
1
1
1
1
1
1
1
1
1
1
1
1
1
1
1
1
1
1
1
1
1
1
1
1
1
1
1
1
1
1
1
0.999998
1
1
1
1
1
1
1
0.999994
1
0.999999
1
1
0.999999
0.999995
0.999991
0.999982
0.997727
0.961844
0.999999
0.999998
0.999997
0.99998
0.999926
0.941262
0.818251
0.797797
0.8204
0.842269
0.999986
0.999984
0.99991
0.97109
0.780707
0.603008
0.514733
0.52427
0.592787
0.628585
0.999761
0.999675
0.928768
0.502895
0.202737
0.103318
0.0803446
0.0975925
0.145079
0.182669
0.904463
0.791684
0.340116
0.0368331
5.1421e-06
7.15002e-06
6.07564e-05
0.000225511
0.000569786
0.000494834
0.183737
0.0672137
2.11642e-06
1.02504e-06
2.35374e-06
4.41911e-06
4.52995e-05
8.4163e-05
0.000137766
0.000180906
4.04123e-06
2.11644e-06
1.02505e-06
6.97962e-07
3.19937e-06
2.91149e-06
3.69398e-05
4.21131e-05
6.11327e-05
7.11819e-05
2.79512e-05
3.78807e-05
7.47362e-06
5.59634e-07
1.42325e-06
2.39128e-06
2.47685e-05
1.31088e-05
2.29952e-05
1.73205e-05
4.518e-05
4.518e-05
2.8786e-05
5.13221e-07
5.29895e-07
1.54694e-06
7.26774e-06
3.84547e-06
5.96057e-06
3.15816e-06
3.91691e-05
4.39941e-05
2.47095e-05
5.01625e-07
5.06579e-07
5.96905e-07
6.79794e-07
1.17204e-06
1.52254e-06
8.18272e-07
7.40124e-06
3.52174e-05
3.2531e-06
4.98489e-07
5.00937e-07
5.06579e-07
5.37506e-07
6.20026e-07
6.71012e-07
5.85592e-07
1.10899e-05
1.88648e-06
4.98488e-07
4.97984e-07
5.02692e-07
5.01035e-07
5.07383e-07
5.42625e-07
5.85599e-07
5.56801e-07
0.00010384
5.43481e-07
4.98049e-07
4.98049e-07
4.97984e-07
4.98587e-07
8.25853e-07
1.33007e-06
1.67245e-06
6.63183e-07
0.00011681
6.16742e-05
3.13161e-05
1.96775e-06
4.98587e-07
8.91618e-06
1.53777e-05
1.50257e-05
9.39698e-06
1.48898e-06
1
1
1
1
1
1
1
1
1
1
1
1
1
1
1
1
1
1
1
1
1
1
1
1
1
1
1
1
1
1
1
1
1
1
1
1
1
1
1
1
1
0.999848
0.999966
1
1
1
1
1
1
0.999999
0.999996
0.999715
0.999912
1
1
1
1
1
0.999994
0.999962
0.999999
0.999916
0.999994
0.999999
1
0.999986
0.999993
0.999999
0.99998
1
0.999998
0.999982
0.999989
0.999985
0.999984
0.999409
0.999985
0.958419
0.919929
0.892285
0.999985
0.999961
0.999837
0.949303
0.733679
0.515518
0.338396
0.252493
0.182768
0.119565
0.999707
0.999239
0.768818
0.323061
0.0723887
0.0130346
0.00687868
0.000910283
0.000851874
0.0019172
0.822506
0.628089
0.165037
4.95427e-05
7.47563e-06
5.7222e-06
3.63545e-05
0.00012971
2.74154e-05
2.26377e-05
0.0935065
0.00618558
1.26131e-05
4.05262e-06
3.43906e-06
2.99479e-06
5.67823e-06
3.34268e-05
4.1624e-05
6.64436e-05
5.26177e-06
4.04096e-06
1.99493e-06
5.81887e-06
1.03416e-05
1.27237e-06
2.05887e-06
8.9098e-06
3.90526e-05
0.000156412
2.00252e-05
5.8281e-06
8.2099e-07
6.9795e-07
2.7051e-06
6.95278e-07
8.88267e-07
2.62224e-06
4.48265e-05
0.000157951
4.33771e-05
2.21267e-05
6.14718e-07
5.59633e-07
5.89664e-07
6.31906e-07
7.08515e-07
1.37939e-05
5.67579e-05
0.000155822
2.66643e-05
1.96125e-05
5.83397e-07
5.13221e-07
5.29895e-07
5.89664e-07
1.28057e-06
2.9113e-05
3.25452e-05
0.000123401
2.90894e-06
6.02948e-06
6.27707e-07
5.44841e-07
4.60211e-06
9.45669e-07
3.93192e-06
1.84606e-05
2.01173e-06
1.84626e-05
1.07519e-05
7.20111e-07
5.718e-07
5.04137e-06
6.55151e-06
4.87903e-06
1.61297e-06
9.12753e-07
6.71012e-07
5.85591e-07
2.16698e-05
6.77261e-07
5.4348e-07
2.18385e-06
4.57797e-06
3.95366e-06
7.71776e-06
1.00342e-06
8.82159e-07
6.17643e-07
7.95148e-05
4.7241e-06
6.10208e-06
1.13271e-06
8.45287e-07
9.8899e-06
1.58114e-05
1.57486e-05
1.40878e-05
9.61723e-06
1
1
1
1
1
1
1
1
1
1
1
1
1
1
1
1
1
1
1
1
1
1
1
1
1
1
1
1
1
1
1
1
1
1
1
1
1
1
1
1
1
0.999976
0.999994
1
1
1
1
1
1
1
1
0.999939
0.999981
1
1
1
1
1
1
1
1
0.999996
0.999988
1
1
1
0.999999
1
1
1
0.999998
0.999991
0.999979
0.999987
0.999984
0.999998
0.959437
0.905032
0.862492
0.812678
0.999929
0.999826
0.973703
0.789539
0.573871
0.328795
0.195517
0.0961989
0.0433338
0.016265
0.947204
0.750568
0.403616
0.150241
0.0359094
0.00732134
0.000368224
0.000109896
2.15295e-05
7.27317e-06
0.359155
0.156084
1.81789e-05
6.17817e-06
3.38227e-06
1.10635e-05
6.21397e-05
2.74034e-05
1.36261e-05
7.6953e-06
9.9393e-05
1.81686e-05
6.17584e-06
3.38219e-06
1.8932e-06
3.21915e-06
1.18458e-05
2.3707e-05
3.59696e-05
6.35535e-05
0.00020952
9.09236e-05
0.000121684
1.84e-05
1.31984e-06
1.09855e-06
2.44903e-06
9.7686e-06
3.79072e-05
0.000124141
2.93623e-05
6.75443e-06
9.85854e-06
6.0576e-06
1.1594e-06
7.01368e-07
9.25519e-07
1.57636e-06
1.45101e-05
4.64622e-05
3.4658e-05
5.65886e-06
6.83006e-07
6.6052e-06
6.66777e-07
6.48346e-07
7.00647e-07
9.31848e-07
3.03747e-06
2.58989e-05
1.23899e-05
4.50606e-06
6.40874e-07
9.2457e-07
5.89664e-07
6.31906e-07
6.48346e-07
3.37039e-06
7.54363e-06
3.49944e-05
1.77723e-06
3.30045e-06
6.39392e-07
5.81635e-07
6.43768e-07
6.46504e-07
6.66206e-07
1.43045e-05
3.45302e-06
1.37471e-05
1.44734e-06
7.44888e-07
7.09874e-07
1.74616e-06
4.30059e-06
6.42398e-06
1.09762e-05
5.17114e-06
1.17582e-06
1.23605e-06
8.34453e-07
7.766e-07
2.05804e-06
1.21047e-05
1.41817e-05
1.53006e-05
1.5812e-05
1.32537e-05
6.93683e-06
1.9442e-06
3.88816e-06
8.34453e-07
1.40206e-06
6.20727e-06
5.53477e-06
1.09295e-05
1.57486e-05
1.58005e-05
1.57486e-05
1.54312e-05
1
1
1
1
1
1
1
1
1
1
1
1
1
1
1
1
1
1
1
1
1
1
1
1
1
1
1
1
1
1
1
1
1
1
1
1
1
1
1
0.999994
1
1
1
1
1
1
1
1
1
0.999908
1
1
1
1
1
1
1
1
1
1
1
0.999999
1
1
1
0.999998
1
1
1
1
0.999984
0.999979
0.999987
0.999972
0.999998
0.907161
0.774601
0.681502
0.644445
0.637935
0.979678
0.935246
0.783616
0.589072
0.330303
0.167621
0.114455
0.0165716
7.65283e-06
7.3492e-06
0.47888
0.291662
0.136346
0.0313188
1.81552e-05
0.000161308
0.000268541
2.61969e-05
7.37681e-06
7.40745e-06
0.00737567
5.87566e-05
1.76967e-05
7.08298e-06
4.36121e-06
1.52163e-05
4.38578e-05
1.35636e-05
7.73924e-06
7.38557e-06
0.000119014
3.51308e-05
1.97114e-05
6.02946e-06
2.81556e-06
2.61268e-06
8.84541e-06
3.68214e-05
0.000101934
0.000118521
0.000571376
0.000464691
0.000300276
1.23313e-05
2.18266e-06
9.10999e-07
2.12304e-06
2.91376e-05
9.55335e-05
5.72563e-05
1.19457e-05
7.32146e-06
0.000110855
9.54924e-05
1.05072e-06
7.20483e-07
8.93429e-07
3.85577e-06
3.57907e-05
7.91954e-06
1.21487e-05
1.32934e-05
7.88795e-07
1.76413e-05
8.09973e-07
6.8054e-07
7.20488e-07
8.93473e-07
5.02119e-06
7.64342e-06
3.83818e-05
4.88613e-05
7.21759e-07
6.90037e-07
6.43768e-07
6.48346e-07
6.80541e-07
6.57159e-06
1.01067e-05
5.95548e-06
8.6189e-07
7.18541e-06
6.94978e-07
6.90684e-07
6.58364e-07
6.91614e-07
7.95793e-06
1.40537e-05
1.14422e-05
4.42035e-06
7.57703e-07
7.488e-07
7.10933e-07
4.81522e-06
9.38357e-06
1.39791e-05
1.53389e-05
1.5078e-05
1.11203e-05
2.93096e-06
8.46755e-07
7.60889e-07
3.73792e-06
1.35698e-05
1.47059e-05
1.53443e-05
1.54444e-05
1.53605e-05
1.5078e-05
7.77342e-06
5.74599e-05
7.96972e-07
1.83643e-06
7.81132e-06
4.94238e-06
4.72299e-06
9.74942e-06
9.3459e-06
8.64588e-06
9.93667e-06
1
1
1
1
1
1
1
1
1
1
1
1
1
1
1
1
1
1
1
1
1
1
1
1
1
1
1
1
0.999998
1
1
1
1
1
1
1
1
0.999999
0.999982
1
1
1
1
1
1
1
1
1
1
0.999698
1
1
1
1
1
1
1
1
0.99994
0.992646
0.999999
1
1
1
1
1
1
1
1
1
0.999917
0.999962
0.999567
0.988548
0.809643
0.748827
0.586527
0.390167
0.406223
0.47237
0.802437
0.678178
0.522362
0.279391
0.136741
0.132508
0.0577517
1.34051e-05
7.94945e-06
7.65274e-06
0.113817
0.0561149
2.30709e-05
1.3675e-05
9.25623e-05
0.00029975
0.000281698
8.88284e-06
7.9197e-06
7.40727e-06
5.88471e-05
2.32014e-05
1.39931e-05
8.04098e-06
9.10284e-06
2.26644e-05
6.42305e-05
1.04143e-05
8.72143e-06
1.52267e-05
0.00108946
0.000577817
6.66556e-05
6.69486e-06
5.3597e-06
2.477e-06
1.12886e-05
7.53583e-05
0.000112178
0.000118677
0.000423083
0.000151885
0.000276141
4.088e-05
4.43795e-06
1.02384e-06
2.40845e-06
3.2911e-05
7.31592e-05
2.60213e-05
9.92587e-06
7.72404e-06
0.000188562
0.00017655
1.55901e-05
7.83941e-07
9.98258e-07
2.10324e-06
3.48094e-06
5.58324e-06
8.84095e-06
8.62649e-06
1.0873e-05
9.30456e-06
7.34463e-06
7.20488e-07
7.83961e-07
5.03528e-06
1.15224e-05
7.74933e-06
8.35796e-05
7.71208e-05
7.61564e-07
7.62778e-07
7.25712e-07
1.23421e-06
1.02806e-05
1.18334e-05
1.17168e-05
2.62095e-06
9.37572e-05
6.24141e-05
7.1064e-07
7.22357e-07
1.68128e-06
7.53913e-06
1.046e-05
9.15124e-06
4.62164e-06
4.0629e-06
4.62837e-05
8.89473e-06
9.33812e-07
6.34136e-06
1.02284e-05
5.74242e-06
4.77817e-06
5.78641e-06
4.3327e-06
3.2361e-06
6.3231e-05
8.46755e-07
9.50523e-07
4.88937e-06
5.44302e-06
3.16397e-06
3.36736e-06
3.44484e-06
4.07889e-06
5.76149e-06
0.000110788
5.0339e-06
5.58672e-07
1.08202e-06
8.38112e-07
3.76174e-07
4.5655e-07
7.67193e-07
8.8226e-06
2.16369e-05
1
1
1
1
1
1
1
1
1
1
1
1
1
1
1
1
1
1
1
1
1
1
1
1
1
1
1
0.999999
1
1
1
1
1
1
1
1
1
0.999998
0.999852
0.99998
1
1
1
1
1
1
1
1
0.999306
1
1
1
1
1
1
1
1
1
0.999626
0.993192
0.999996
0.999998
0.999998
1
1
1
0.990773
0.939788
0.965232
0.970971
0.9948
0.985287
0.941661
0.715949
0.741008
0.714164
0.349205
0.140723
0.194665
0.261595
0.514728
0.355962
0.175877
0.0792146
0.0845928
0.0879196
0.0108825
7.78781e-05
1.33942e-05
9.15799e-06
0.000340102
0.000112308
2.86779e-05
5.88658e-05
0.000199557
0.000296288
0.000360365
1.55575e-05
8.88802e-06
8.55497e-06
0.000194802
5.62795e-05
1.46576e-05
8.09631e-05
1.13479e-05
3.03151e-05
0.000107874
4.74759e-05
1.04546e-05
3.90145e-05
0.000943913
0.000148166
4.71104e-06
4.69113e-06
7.08217e-06
5.61866e-06
1.85266e-05
4.25183e-05
2.90135e-05
0.000118574
4.30638e-05
8.22639e-05
0.000125956
4.63372e-05
1.54698e-05
2.68412e-06
2.98113e-06
3.58827e-06
2.0046e-05
9.92293e-06
1.12982e-05
1.72445e-05
0.000191085
8.78791e-05
3.57153e-05
1.02682e-06
1.21677e-06
1.4228e-06
2.43875e-06
8.57579e-07
2.60391e-06
1.35029e-06
3.72269e-05
1.21677e-05
2.49559e-05
7.83889e-07
1.05872e-06
3.74743e-06
4.95188e-06
1.07388e-06
2.64016e-05
1.79269e-05
8.34846e-07
7.96278e-07
8.2807e-07
1.66515e-06
3.76963e-06
5.9319e-06
1.63108e-06
1.06568e-06
9.75002e-05
9.75002e-05
1.01613e-05
7.86014e-07
9.58119e-07
3.64863e-06
1.7963e-06
8.13423e-07
9.68214e-07
1.27962e-05
9.7806e-05
9.65411e-05
1.7789e-05
2.49897e-06
2.094e-06
5.75282e-07
3.86491e-07
5.75281e-07
7.95907e-07
5.04029e-05
9.6253e-05
9.41147e-05
1.0966e-05
6.35545e-06
1.09764e-05
1.84951e-06
2.99882e-07
3.86491e-07
6.40645e-07
3.04719e-05
7.38503e-05
9.09195e-05
8.85912e-06
4.60998e-06
1.026e-05
1.60415e-06
2.99176e-07
4.84134e-06
5.25882e-06
1.90376e-06
1
1
1
1
1
1
1
1
1
1
1
1
1
1
1
1
0.999998
0.999999
1
1
1
1
1
1
1
1
0.999997
0.999987
0.999999
1
1
1
1
1
1
1
1
0.999996
0.999993
0.999934
1
1
1
1
1
1
1
1
1
0.996763
1
1
1
1
1
1
1
1
0.98156
0.998498
0.999984
0.999991
1
1
0.99996
0.886655
0.828213
0.837569
0.861746
0.827948
0.92726
0.847393
0.619988
0.606786
0.625145
0.506872
0.172424
0.0373692
0.0574511
0.0738581
0.258041
0.100409
0.016414
0.0221346
0.0409195
0.0341795
0.0017123
0.000286091
4.95519e-05
1.16389e-05
0.000181383
7.79631e-05
2.14639e-05
9.41669e-05
0.000257683
0.000340651
0.000293833
5.42805e-05
1.54596e-05
2.6003e-05
0.00229537
0.000811724
3.00803e-06
4.52302e-06
1.67048e-05
5.85897e-05
0.000108454
3.80591e-05
1.83297e-05
0.000124395
0.000264602
8.73175e-06
2.17123e-06
2.9788e-06
5.66113e-06
2.27213e-05
2.47559e-05
2.81952e-05
2.2198e-05
0.00010929
9.80068e-05
3.75575e-05
1.59988e-05
3.41137e-06
2.05281e-05
2.39338e-05
6.10031e-06
3.99096e-06
2.75314e-05
1.33003e-05
0.000640759
5.15799e-05
7.12454e-05
2.27359e-06
3.49168e-05
2.01088e-05
6.15997e-06
9.66122e-07
9.20972e-07
8.57457e-07
0.000448813
1.26508e-06
1.07913e-06
2.09317e-05
3.344e-05
1.3538e-05
1.01982e-06
9.85407e-07
8.78171e-07
8.53671e-07
1.7709e-06
1.07913e-06
9.29217e-07
8.34846e-07
7.35363e-06
1.55403e-05
2.39965e-06
9.98798e-07
9.65983e-07
8.78171e-07
4.82094e-06
1.23154e-05
1.72375e-06
9.11267e-07
1.00874e-06
1.52039e-05
8.27841e-06
9.58522e-07
9.98799e-07
1.06567e-06
2.51737e-05
4.28867e-05
2.28775e-05
1.54708e-05
5.62223e-06
1.21111e-05
4.20534e-06
7.95904e-07
7.1622e-06
1.00957e-05
2.5374e-05
4.58842e-05
3.68604e-05
2.62714e-05
1.74164e-05
2.94569e-07
2.99057e-07
4.58798e-06
1.02559e-05
4.79297e-06
8.72684e-07
3.71401e-05
3.91128e-05
2.16996e-05
4.80192e-06
2.83901e-07
2.97865e-07
1.01799e-05
4.50428e-06
1.76953e-06
1
1
1
1
1
1
1
0.999998
1
1
1
1
1
1
1
1
0.999999
0.99995
0.999967
0.999999
1
1
1
1
1
1
0.999989
0.99995
0.999973
1
1
1
1
1
1
1
0.999994
1
1
0.99956
1
1
1
1
1
1
1
0.999578
0.996857
0.992941
1
1
1
1
1
0.99189
0.995597
0.988469
0.949173
0.996318
0.999966
0.998322
1
0.999998
0.952325
0.773067
0.683106
0.705956
0.735994
0.680246
0.828915
0.566723
0.452313
0.491308
0.496742
0.363422
0.09084
0.00739047
0.0137704
0.0278106
0.137517
0.0230298
0.00283108
0.00521683
0.0131227
0.0092633
0.000865706
0.000161768
1.2959e-05
1.14856e-05
8.23722e-05
4.0241e-05
0.000117006
0.000101255
0.000266183
0.000290274
0.000208048
8.29699e-05
6.2095e-05
6.2287e-05
0.00226506
0.000522371
2.16885e-06
7.75903e-06
3.07487e-05
6.78072e-05
8.37206e-05
6.1121e-05
0.000114369
0.000124679
1.46709e-06
1.423e-06
1.46702e-06
2.081e-06
1.03594e-05
3.63549e-05
3.07238e-05
2.20945e-05
2.54793e-05
0.00011599
0.00114233
1.41182e-06
1.34575e-06
1.51562e-06
8.49326e-06
4.35526e-05
2.34689e-05
1.95759e-05
3.05669e-05
2.10148e-05
0.00233683
1.33458e-06
1.12465e-06
1.47682e-06
3.94336e-06
4.06068e-05
3.9186e-05
9.4975e-06
8.71648e-07
8.44407e-07
0.00167812
1.12463e-06
9.82447e-07
1.12461e-06
5.73434e-06
2.31339e-05
3.09869e-05
6.12349e-06
8.69469e-07
8.607e-07
1.05454e-06
9.82447e-07
9.82447e-07
2.11067e-06
6.41171e-06
2.36566e-06
9.06634e-07
2.46429e-06
1.31175e-06
8.69469e-07
1.07977e-06
9.84944e-07
9.82447e-07
1.40548e-06
9.66949e-07
9.68381e-07
9.37119e-07
3.49315e-06
6.89884e-06
2.21536e-06
1.13775e-06
1.09413e-06
1.45147e-06
1.45024e-06
1.0071e-06
9.75175e-07
9.54972e-07
6.85765e-06
7.22117e-06
2.61266e-06
1.16373e-06
1.43377e-06
4.62782e-06
3.70543e-06
1.94815e-06
1.46547e-06
9.45225e-07
2.32903e-06
1.79108e-06
1.85684e-06
1.51583e-06
1.37072e-06
5.32181e-06
4.47235e-06
1.51966e-06
5.24497e-06
3.74424e-06
1.08918e-06
1.14591e-06
1.74196e-06
1
1
1
1
1
1
1
1
1
1
1
1
1
1
1
1
1
0.999972
0.99998
1
1
1
1
1
1
1
1
0.99995
0.999964
1
1
1
1
1
1
1
1
1
1
1
1
1
1
1
1
1
0.994473
0.980634
0.988119
0.999999
1
1
1
1
1
0.980063
0.960845
0.950845
0.953516
0.967936
0.999946
1
1
0.989258
0.905923
0.728843
0.660457
0.611051
0.623675
0.720733
0.728916
0.416287
0.394556
0.458687
0.400313
0.242444
0.0466448
0.00504024
0.000262052
0.0184879
0.0700072
0.0126596
0.000950752
0.0039058
0.00318747
0.00106805
0.000525119
2.75461e-05
1.4334e-05
1.10393e-05
4.2381e-05
3.08666e-05
0.000537794
8.03977e-05
0.000124227
0.000201768
0.000142922
9.37212e-05
0.000127126
5.97482e-05
0.000720513
6.48374e-05
2.76946e-06
5.14832e-06
1.76782e-05
2.90266e-05
4.84666e-05
0.000128077
0.000132622
0.000128643
0.00100898
1.46709e-06
1.56578e-06
2.61447e-06
4.88056e-06
1.18679e-05
2.3322e-05
2.53412e-05
2.9285e-05
0.000109523
0.00240948
1.423e-06
1.51555e-06
1.95304e-06
1.26411e-06
4.33337e-05
7.67982e-05
2.48162e-05
1.10377e-06
9.52012e-07
0.00239948
1.41182e-06
1.42688e-06
1.78093e-06
1.02124e-06
9.22658e-07
9.18938e-07
6.87022e-06
9.54772e-07
8.35585e-07
0.00234012
1.28503e-06
1.07486e-06
2.8223e-06
9.22658e-07
8.85401e-07
8.85618e-07
4.18993e-06
2.81352e-06
8.44407e-07
0.000897226
1.07511e-06
9.8242e-07
1.0718e-06
1.00125e-06
8.98212e-07
9.00595e-07
6.00558e-06
6.00756e-06
1.04355e-06
1.14747e-06
2.4387e-05
9.46344e-07
9.7369e-07
9.6885e-07
9.39135e-07
9.19013e-07
6.00756e-06
5.26779e-06
1.19192e-06
1.25262e-06
1.80512e-05
9.07251e-07
9.41049e-07
1.69724e-06
9.33084e-07
9.45839e-07
5.0923e-06
3.12462e-06
2.95681e-06
9.29998e-06
2.47326e-05
9.07253e-07
8.68547e-07
4.23747e-06
5.60111e-05
1.40025e-05
1.58754e-06
8.1571e-06
1.74963e-05
3.10975e-05
3.08224e-05
7.46919e-07
8.27139e-07
4.0559e-05
0.00011483
6.59484e-05
1.25703e-06
3.37115e-05
5.42068e-05
1
1
1
1
1
1
1
1
1
0.987441
1
1
1
1
1
1
1
0.999999
1
0.988176
1
1
1
1
1
1
1
0.999986
1
0.991008
1
1
1
1
1
1
1
1
1
0.988847
1
1
1
1
1
1
1
0.996558
0.99979
0.985079
0.999999
0.999999
1
1
1
0.993506
0.973909
0.995242
0.999753
0.981163
0.999989
0.999999
1
1
0.965222
0.83408
0.708074
0.585053
0.620582
0.808789
0.68767
0.403033
0.491294
0.559913
0.410476
0.195787
0.04432
0.00524782
1.43375e-05
0.0607495
0.0587449
0.0195565
0.00409384
0.00960593
0.00530416
0.000185069
0.00032108
1.18902e-05
1.33782e-05
9.82795e-06
3.08666e-05
2.14511e-05
0.000392814
0.00098882
0.000699625
4.95277e-05
8.69276e-05
8.18869e-05
9.19207e-05
1.22539e-05
0.000435994
0.000124501
5.89545e-06
5.26614e-05
8.70855e-06
1.32273e-05
2.12679e-05
0.000115295
7.92667e-05
4.40758e-05
0.0017516
1.56586e-06
1.80554e-05
4.26515e-05
7.64346e-06
1.00154e-05
1.38004e-05
2.44859e-05
1.27133e-06
8.19948e-06
0.00243735
7.56144e-06
6.99798e-05
9.16756e-05
1.03065e-05
5.33242e-05
9.12558e-05
9.91067e-06
9.49905e-07
8.36197e-07
0.00242982
3.3422e-05
0.000221988
0.00043
1.16361e-06
6.14347e-06
2.76368e-05
1.13031e-05
8.3618e-07
8.36197e-07
0.00240501
7.96979e-05
8.84574e-05
0.000427219
4.64162e-05
8.87806e-07
8.85618e-07
1.61788e-06
1.17714e-06
8.36197e-07
0.00236973
0.000146732
1.07469e-06
5.84707e-05
5.26839e-06
8.99304e-07
8.87806e-07
9.14133e-07
1.35508e-06
8.85964e-07
0.00170169
0.000125156
9.91486e-07
6.52906e-06
1.11648e-06
9.26955e-07
9.0065e-07
9.44488e-07
1.45247e-06
4.10161e-06
2.09854e-06
8.19107e-05
8.07187e-06
9.04338e-07
1.0484e-06
8.97705e-07
9.75875e-07
7.57288e-06
1.37671e-05
2.83953e-05
8.41951e-06
3.17279e-05
3.8837e-05
8.49754e-07
6.94111e-07
7.8024e-07
8.63309e-07
2.65717e-05
0.000127015
0.000107676
9.56182e-06
3.14025e-05
9.17647e-06
6.94111e-07
6.94111e-07
8.90348e-07
6.66512e-06
3.18343e-05
0.000165947
9.93195e-05
1
1
1
1
1
1
1
1
1
0.98763
1
1
1
1
1
1
1
1
1
0.993778
1
1
1
1
1
1
1
0.999992
1
0.991538
1
1
1
0.99999
0.999999
1
1
1
1
0.981043
1
1
1
0.999829
0.999977
1
1
0.999036
1
0.981164
0.999999
1
1
0.999758
0.999975
1
0.995239
0.999996
0.999999
0.989648
0.99995
0.999794
1
0.999999
0.999985
0.937754
0.792388
0.713923
0.795528
0.925881
0.767632
0.548434
0.552802
0.627103
0.42977
0.200221
0.0486566
0.0154719
0.0533824
0.144308
0.152247
0.055084
0.0147489
0.0162641
0.0122165
0.000282092
0.000170447
7.83163e-06
8.87188e-06
2.71952e-06
2.14511e-05
1.39892e-05
1.07278e-05
1.39891e-05
1.80022e-05
3.69981e-05
8.37757e-05
7.06772e-05
2.31968e-05
1.5126e-06
0.000498381
1.07278e-05
8.70867e-06
0.000228357
1.428e-05
1.76389e-05
5.07161e-05
8.62711e-05
1.80043e-06
1.4145e-06
0.00209136
1.71294e-05
8.47447e-05
0.00023333
3.93698e-06
2.48386e-05
9.76741e-05
1.5047e-06
1.22181e-06
1.26713e-06
0.00243735
1.05103e-05
0.000295847
0.000558805
2.28428e-06
3.2876e-05
9.33154e-05
8.36478e-06
1.14652e-06
1.09772e-06
0.00244305
1.69174e-05
0.000475836
0.00078199
1.80267e-06
1.62835e-05
3.984e-06
1.21592e-05
1.0355e-06
8.36167e-07
0.00242161
1.87929e-05
0.000260768
0.000780861
0.000291925
1.40084e-05
8.87806e-07
1.44145e-06
1.23486e-06
2.65136e-06
0.00237937
1.91326e-05
2.55968e-05
0.000582716
0.000427981
5.63853e-05
8.99206e-07
1.0396e-06
1.83724e-05
0.00016106
0.00203738
1.20413e-05
2.33303e-06
6.85131e-05
7.73428e-05
8.48144e-06
9.33575e-07
6.43369e-06
0.000144771
0.000248255
0.000121987
0.00061045
3.35192e-05
1.00543e-05
7.26649e-06
9.33086e-07
1.11086e-06
2.24041e-05
0.000172689
2.03777e-05
3.23514e-05
0.000877153
0.00059348
3.4875e-05
1.55601e-06
8.6331e-07
3.17893e-06
2.15792e-05
0.000172617
3.63649e-06
0.000471163
0.000877936
0.000875525
2.05559e-05
6.94111e-07
1.50318e-06
7.03071e-06
1.34628e-05
0.000140582
6.09379e-06
1
1
1
1
1
1
1
1
1
1
1
1
1
1
1
1
1
0.999985
0.999991
1
1
1
1
1
1
1
1
0.999951
0.999959
1
1
1
1
0.999998
1
1
0.999997
1
1
0.999568
1
1
1
0.999928
0.999302
0.999955
1
0.997787
0.999597
0.998324
1
1
1
0.999417
0.997323
1
1
0.987344
0.990912
0.999372
0.999971
0.999991
0.999999
0.999996
0.999999
0.972026
0.858603
0.823971
0.874383
0.959294
0.828272
0.816313
0.690021
0.606887
0.46713
0.246913
0.0882961
0.0631713
0.124039
0.226922
0.349238
0.112789
0.0262393
0.0290013
0.0360995
0.00618814
7.50445e-06
7.64139e-06
7.8593e-06
9.26202e-06
7.98174e-05
2.14503e-05
1.39873e-05
0.000531965
3.47814e-05
0.000132586
2.15497e-05
3.20358e-05
3.1288e-05
1.89812e-05
0.00146573
0.000889843
0.000145494
0.000541661
1.23285e-05
2.94501e-05
2.74775e-05
6.55401e-06
1.57677e-06
1.79879e-05
0.00073745
0.000104202
0.000811855
0.000180197
6.25878e-06
2.29777e-05
0.000101244
2.02061e-06
1.26713e-06
1.41667e-06
0.00223389
6.55598e-05
0.00120372
0.000131281
4.13536e-06
2.60385e-05
5.02112e-05
3.25093e-06
1.22181e-06
1.33592e-06
0.00242982
4.20386e-05
0.0011794
0.000398819
2.28427e-06
1.18559e-05
2.61321e-06
8.15796e-06
1.43662e-06
8.71804e-05
0.0023072
2.20276e-05
7.82866e-05
0.000782856
0.000346024
3.83718e-05
1.2549e-06
1.62477e-06
6.25824e-05
0.000529403
0.00049909
2.34203e-05
2.41448e-05
0.00073695
0.000741666
0.000285692
1.4404e-06
2.18098e-06
0.000230634
0.000483119
0.000194972
1.94584e-05
3.72378e-05
0.000195097
0.000355708
6.89202e-05
1.05992e-06
2.65001e-06
0.000228726
5.39517e-06
0.000235944
0.000163163
7.14248e-05
5.09172e-05
8.34313e-05
9.1665e-06
1.25438e-06
1.45191e-06
0.000148009
3.67253e-06
9.16994e-05
0.000347223
0.000163936
0.000130052
4.55366e-05
9.99196e-07
1.37098e-06
1.63888e-05
1.52393e-06
1.80476e-06
7.58572e-05
0.000369856
0.000691738
0.000140518
6.7761e-06
1.38326e-06
7.47735e-06
3.6455e-05
1.00243e-06
1.75304e-06
1
1
1
1
1
1
1
0.999999
1
1
1
1
1
1
1
1
0.999999
0.999954
0.99998
1
1
1
1
1
1
1
0.999975
0.999951
0.999951
0.999996
1
1
1
1
0.999997
1
0.999995
0.999997
0.999983
1
1
1
1
0.999993
0.999959
0.999996
1
0.999525
1
1
1
1
1
0.999929
0.999992
1
1
0.99646
0.992003
0.999745
0.99998
0.999997
0.999997
0.999999
1
1
0.935666
0.899653
0.907314
0.96878
0.822459
0.935023
0.843569
0.710688
0.564263
0.343255
0.166981
0.129372
0.175896
0.252117
0.559536
0.227472
0.0963968
0.0690769
0.0286337
0.000307707
7.68546e-06
7.1041e-06
7.65298e-06
1.13471e-05
0.0691757
0.00471099
3.37844e-05
0.000182007
0.000117339
4.45034e-05
6.43821e-06
4.59958e-06
3.19601e-05
4.18711e-05
0.000622394
0.00289049
0.00202101
6.27007e-05
2.4546e-05
7.61895e-06
3.14357e-06
2.291e-06
1.55686e-06
1.6516e-05
0.000622336
0.000932076
0.000400998
3.05952e-05
9.70591e-06
2.82439e-05
4.27094e-05
2.40943e-06
1.44461e-06
2.38331e-06
0.000695716
0.00104529
0.00123894
0.000198406
6.25876e-06
3.23943e-05
6.20991e-05
8.2692e-05
4.17008e-06
1.51447e-05
0.00100185
3.97547e-05
0.00117133
0.000264944
6.45291e-06
7.71816e-06
3.32095e-06
3.13722e-06
5.50773e-05
0.000402082
0.000304832
4.17034e-05
2.5849e-05
0.000722953
0.000329138
3.31195e-05
2.37229e-06
2.55627e-06
0.000127708
0.000567543
1.45789e-05
0.000168398
2.51043e-05
0.000652174
0.000716923
0.000347648
2.7336e-06
2.23842e-06
0.000152332
6.85696e-05
1.26659e-05
0.000101975
8.02486e-05
0.000172569
0.000457653
0.000125225
1.74407e-06
2.15154e-06
6.61142e-05
2.94986e-06
1.23444e-05
1.02981e-05
8.57003e-05
3.95593e-05
6.97745e-05
5.31069e-05
4.7332e-06
1.85474e-06
2.32675e-06
2.17052e-06
1.02151e-05
6.75277e-06
5.74261e-05
7.78926e-05
8.106e-05
3.4493e-05
2.38695e-06
1.63172e-06
9.21281e-07
1.50173e-06
7.32211e-07
3.25249e-07
1.07781e-05
0.000113171
7.51685e-05
1.88491e-05
8.49364e-07
8.52947e-07
6.07225e-07
2.6871e-06
1
1
1
1
1
1
1
1
1
1
1
1
1
1
1
1
0.999998
0.999999
1
1
1
1
1
1
1
1
0.999997
0.999984
0.999999
1
1
1
1
1
1
1
0.999997
0.999999
1
1
1
1
1
1
1
1
1
1
1
1
1
1
1
1
1
1
1
1
1
0.996687
0.999482
1
1
0.999999
1
1
0.996426
0.966911
0.933581
0.939043
0.831799
0.991816
0.971683
0.908207
0.748881
0.506698
0.296438
0.209895
0.205789
0.302383
0.658062
0.488869
0.247683
0.100222
0.0300423
0.00288753
8.39098e-06
7.6912e-06
8.39161e-06
1.00265e-05
0.175548
0.0368583
0.000695977
0.000314364
5.98315e-05
1.35655e-05
9.9157e-06
7.6582e-06
9.8296e-06
1.00654e-05
0.000679358
0.00107987
0.000570905
6.64092e-05
2.77913e-05
1.68738e-05
9.62942e-06
9.91317e-05
4.32815e-05
9.44789e-06
0.00123804
0.00166288
0.00051964
2.37081e-05
1.5226e-05
2.85056e-05
3.86523e-05
0.000263321
0.000273597
6.08774e-06
0.000169351
0.000925981
0.00124488
0.00032187
9.7895e-06
2.7214e-05
1.37603e-05
9.19966e-05
0.000370872
0.00029927
2.34533e-05
3.46851e-05
0.000422154
0.000184145
5.86281e-06
4.21091e-06
3.99572e-06
3.37946e-06
0.000209144
0.000689273
1.45789e-05
5.19222e-05
2.56107e-05
0.000610049
0.000255352
6.35688e-06
3.37942e-06
3.13546e-06
4.80256e-06
0.000197121
1.42148e-05
0.000223443
6.19886e-05
0.000469882
0.000673463
0.00035508
4.89643e-06
2.91192e-06
5.47561e-06
3.40635e-06
1.42148e-05
0.000219069
4.90544e-05
0.000107887
0.000463477
0.000138307
1.52619e-05
1.87668e-05
1.97852e-05
1.07635e-05
1.45622e-05
0.000205709
6.2935e-06
6.5257e-06
1.68375e-05
3.32747e-05
7.03799e-05
5.28427e-05
5.40087e-05
3.61026e-05
1.29774e-05
9.19197e-05
6.37772e-06
6.79463e-06
4.07854e-05
0.000146156
9.07686e-05
5.52148e-05
4.21278e-05
7.57853e-06
1.47894e-07
2.10149e-05
3.33423e-05
3.46141e-05
0.000147687
0.000151088
5.43444e-05
2.22551e-05
4.97044e-06
1.70927e-06
1
1
1
1
1
1
1
1
1
1
1
1
1
1
1
1
1
1
1
1
1
1
1
1
1
1
1
1
0.999999
1
1
1
1
1
1
1
1
1
0.999981
1
1
1
1
1
1
1
1
1
1
0.998402
1
1
1
1
1
1
1
1
1
0.972374
0.999994
0.999983
1
1
1
0.999999
1
0.995737
0.977356
0.924713
0.928401
0.999999
1
1
0.940538
0.77789
0.507005
0.324242
0.266268
0.383357
0.644583
0.643179
0.51957
0.291236
0.122387
0.0310267
2.32053e-05
8.39158e-06
1.00265e-05
1.32913e-05
0.179908
0.0828565
0.0333248
0.00242718
3.79841e-05
2.98434e-05
6.98874e-05
9.23504e-05
6.98151e-05
1.57923e-05
0.00142681
0.00211843
0.000242073
4.49477e-05
2.02628e-05
2.54899e-05
0.000162403
0.000374929
0.00036843
1.50751e-05
0.00314905
0.00308318
0.000996125
2.02727e-05
1.51772e-05
1.99085e-05
3.78303e-05
0.000295895
0.000412091
0.000344812
5.11524e-05
2.49156e-05
0.00122016
0.000160856
9.3864e-06
7.35057e-06
3.94431e-06
2.67326e-05
0.000433736
0.000450193
3.40915e-05
2.31137e-05
1.17148e-05
0.000416618
1.90389e-05
3.94428e-06
3.69031e-06
3.56158e-06
6.46753e-05
0.000452124
4.27894e-05
0.000150093
3.8088e-05
0.000279942
7.85808e-06
4.05053e-06
3.56157e-06
3.35275e-06
3.56158e-06
4.76207e-06
4.25978e-05
0.000250366
7.83671e-05
8.29223e-05
0.000483895
0.000181235
4.05062e-06
3.52061e-06
2.62447e-05
2.44785e-05
1.42143e-05
0.00016115
1.51964e-05
3.7261e-05
0.000337925
0.000114377
8.77346e-06
3.88864e-05
0.00013386
0.000127849
2.58177e-05
0.000101119
6.32857e-06
6.25181e-06
1.04018e-05
1.03804e-05
5.62786e-05
0.00013735
0.000136332
9.13789e-05
4.53391e-05
0.000175733
6.25124e-06
7.52589e-06
6.23759e-05
9.97395e-05
0.000143748
0.000143238
0.000123796
3.6176e-06
2.50581e-05
0.000176671
6.77214e-06
3.36731e-05
0.000196134
0.000194648
0.000177256
0.000147445
3.45563e-05
8.48344e-07
1
1
1
1
1
1
1
1
1
1
1
1
1
1
1
1
1
1
1
1
1
1
1
1
1
1
1
1
0.999999
1
1
1
1
1
1
1
1
1
0.999738
1
1
1
1
1
1
1
1
1
1
0.980838
1
1
1
1
1
1
1
1
1
0.97685
0.999999
1
1
1
1
1
0.999999
1
0.999461
0.972532
0.999945
0.999996
1
1
1
0.953124
0.798426
0.528462
0.369102
0.38446
0.742179
0.727182
0.6999
0.551884
0.332238
0.133668
0.0272646
2.46792e-05
1.32913e-05
1.97847e-05
0.235643
0.118803
0.0867241
0.0302737
0.000364457
4.24367e-05
6.44009e-05
0.000391526
0.000159744
3.36419e-05
0.000327804
0.000284037
0.000365752
8.78962e-05
2.66733e-05
3.65386e-05
0.000371147
0.000392606
0.000379295
0.000278235
0.00161131
0.00107027
0.000629901
2.66918e-05
1.59098e-05
1.90491e-05
0.000129517
0.000113829
0.000305613
0.000391754
2.49156e-05
1.80503e-05
0.00105941
0.000177895
1.0899e-05
9.13114e-06
6.05748e-06
4.66023e-06
7.39067e-05
0.000393683
7.06972e-05
3.16264e-05
9.73904e-06
0.00057736
0.000254718
4.72942e-05
3.94432e-06
3.67454e-06
3.93883e-06
6.35407e-05
0.000274572
0.000244421
1.67842e-05
2.62388e-05
0.000534677
0.000359391
1.59282e-05
3.56157e-06
5.63309e-06
3.45664e-06
0.000282088
0.000264785
2.95436e-05
7.7611e-06
0.000132476
0.000139983
6.02153e-06
5.0278e-06
8.39568e-06
1.82414e-05
0.000166732
5.66355e-05
6.39469e-06
6.5174e-06
9.71596e-06
1.09093e-05
8.4116e-06
6.99872e-06
4.59832e-05
5.48672e-05
9.76704e-06
6.39469e-06
6.25177e-06
6.38881e-06
6.5174e-06
7.98286e-06
1.00485e-05
2.61636e-05
8.53324e-05
2.33987e-05
2.34755e-05
6.22217e-05
6.37772e-06
2.50527e-05
6.13163e-05
1.01079e-05
1.08773e-05
7.55069e-05
4.46137e-05
3.98506e-06
3.78494e-05
0.000176671
1.29586e-05
0.000139232
0.000157358
1.56302e-05
1.31555e-05
5.01394e-05
5.07524e-05
5.04889e-06
1
1
1
1
1
1
1
1
1
1
1
1
1
1
1
1
1
1
1
1
1
1
1
1
1
1
1
1
0.999998
0.99998
1
1
1
1
1
1
1
1
0.999971
0.999611
1
1
0.999999
1
1
1
1
1
0.999942
0.998569
1
1
1
1
1
1
1
1
1
0.999835
1
1
1
1
1
1
1
1
1
1
0.999984
0.999987
0.999996
1
1
1
0.937624
0.757948
0.536884
0.430761
0.954843
0.928035
0.817158
0.695161
0.52888
0.297005
0.115743
0.0236817
0.00198724
9.97465e-05
0.441195
0.27313
0.154215
0.0776641
0.012709
3.57415e-05
8.696e-05
0.000309002
0.000330071
0.000277635
0.00063129
8.58103e-05
0.000161453
9.18526e-05
3.38114e-05
1.59733e-05
0.000175394
0.000375514
0.000375514
0.00037564
2.53285e-05
1.80503e-05
0.00018122
6.65509e-05
1.59776e-05
1.20102e-05
6.90294e-05
7.33973e-05
4.0722e-05
0.000202287
3.30827e-05
1.44653e-05
0.00096029
0.000665382
1.20102e-05
1.0899e-05
9.10696e-06
6.26928e-06
4.31407e-06
4.34627e-05
2.60796e-05
1.31267e-05
9.76045e-06
0.000968345
0.000888694
0.000276291
5.84927e-06
3.93881e-06
3.44239e-06
2.62135e-06
5.53994e-05
9.76045e-06
9.37596e-06
1.84597e-05
0.000848902
0.000801861
0.000484222
2.16517e-05
3.5627e-06
1.91588e-06
0.000281725
0.000104866
8.66589e-06
8.32133e-06
0.000185589
0.000744903
0.00061613
8.18171e-05
4.21509e-06
3.30637e-06
0.00028297
0.000257723
1.71863e-05
7.69079e-06
8.59558e-06
8.69622e-05