/*--------------------------------*- C++ -*----------------------------------*\
| =========                 |                                                 |
| \\      /  F ield         | OpenFOAM: The Open Source CFD Toolbox           |
|  \\    /   O peration     | Version:  2312                                  |
|   \\  /    A nd           | Website:  www.openfoam.com                      |
|    \\/     M anipulation  |                                                 |
\*---------------------------------------------------------------------------*/
FoamFile
{
    version     2.0;
    format      ascii;
    arch        "LSB;label=32;scalar=64";
    class       volVectorField;
    location    "0.535";
    object      U;
}
// * * * * * * * * * * * * * * * * * * * * * * * * * * * * * * * * * * * * * //

dimensions      [0 1 -1 0 0 0 0];

internalField   nonuniform List<vector> 
8000
(
(0.00203786 -0.00528064 0.00209896)
(0.00688395 -0.00545893 0.00210955)
(0.010984 -0.00481495 0.00202429)
(0.0135135 -0.00399041 0.00192706)
(0.0147213 -0.00321845 0.00181681)
(0.0143809 -0.00245055 0.00161563)
(0.0127482 -0.0017693 0.00131486)
(0.0101428 -0.00123607 0.000909192)
(0.00681263 -0.000828551 0.000539231)
(0.00323729 -0.000594908 0.000236252)
(0.00148207 -0.013284 0.00153723)
(0.00530202 -0.0138676 0.00159021)
(0.00848222 -0.0118593 0.00144213)
(0.0107753 -0.00952712 0.00131763)
(0.0120191 -0.00736653 0.00115949)
(0.01202 -0.00519538 0.000905991)
(0.0109276 -0.00324557 0.000566)
(0.00894677 -0.00167873 0.000181532)
(0.00620221 -0.000579565 -0.000110238)
(0.00312509 -7.45567e-06 -0.000375119)
(0.00193513 -0.0199553 0.00201243)
(0.00702584 -0.0213882 0.00194631)
(0.0113418 -0.0189507 0.00188491)
(0.0142707 -0.0158086 0.00180345)
(0.0155752 -0.0127579 0.00169687)
(0.0153481 -0.00947618 0.00152816)
(0.0136894 -0.00644192 0.00128011)
(0.0109543 -0.00382141 0.000932314)
(0.0074257 -0.00192726 0.000567488)
(0.00358417 -0.000967375 0.000207521)
(0.00317119 -0.0318273 0.00337731)
(0.00918775 -0.033697 0.00303147)
(0.0142775 -0.0288873 0.00220644)
(0.0184092 -0.0230083 0.00216532)
(0.0199467 -0.0177658 0.00215088)
(0.0194601 -0.0124557 0.00219241)
(0.0171895 -0.00790352 0.0022736)
(0.0136827 -0.00429873 0.00227296)
(0.00919805 -0.00190731 0.0022404)
(0.0042282 -0.000826484 0.00213352)
(0.00908002 -0.0460473 0.00940136)
(0.0184453 -0.0473479 0.00825966)
(0.0217864 -0.0405308 0.00406468)
(0.0256585 -0.0334281 0.003363)
(0.0266191 -0.0263152 0.00419178)
(0.0248563 -0.0194161 0.00554369)
(0.0206114 -0.0136098 0.00751828)
(0.0152844 -0.0091266 0.00944111)
(0.00971474 -0.0065417 0.0107001)
(0.00413771 -0.00539319 0.0111848)
(0.0173883 -0.0858666 0.0170038)
(0.0312306 -0.076991 0.0171268)
(0.0303002 -0.0555418 0.0108698)
(0.0293248 -0.0431569 0.00935244)
(0.0264639 -0.0335462 0.011384)
(0.0213574 -0.0260345 0.0143002)
(0.0151409 -0.0223316 0.015547)
(0.00972169 -0.0221406 0.0150299)
(0.00514056 -0.0231255 0.0139049)
(0.00230918 -0.0232403 0.0131145)
(0.0187625 -0.146064 0.0191674)
(0.0351733 -0.121892 0.0222468)
(0.0352999 -0.0845162 0.0198579)
(0.0309815 -0.066697 0.0179537)
(0.0234082 -0.0552748 0.0152405)
(0.0136096 -0.0502303 0.00768172)
(0.00745235 -0.0484545 -0.00279409)
(0.00455164 -0.0452699 -0.0112519)
(0.000397823 -0.0467951 -0.0171083)
(0.00151437 -0.0506363 -0.0199712)
(0.014643 -0.196565 0.0188423)
(0.0208958 -0.157653 0.0214671)
(0.0201972 -0.116771 0.0173011)
(0.0220708 -0.0881451 0.00598913)
(0.0273659 -0.0594158 -0.0111423)
(0.0280502 -0.0456891 -0.0319815)
(0.0333972 -0.0392846 -0.0442081)
(0.0374058 -0.0330125 -0.0487754)
(0.0340256 -0.0318213 -0.0516842)
(0.0117548 -0.0317828 -0.0524558)
(0.0101848 -0.225875 0.0172133)
(-0.000337031 -0.17369 0.0113631)
(0.00734365 -0.124244 -0.00933877)
(0.0541444 -0.0828471 -0.0337758)
(0.127374 -0.0524633 -0.0471179)
(0.179409 -0.0271402 -0.057485)
(0.215361 -0.00414713 -0.0537066)
(0.231611 0.0241767 -0.0340537)
(0.271848 0.0630231 -0.0194308)
(0.0970115 0.100634 -0.0101566)
(0.00269367 -0.242742 0.00778861)
(-0.00221963 -0.18862 -0.00684435)
(0.0729387 -0.178387 -0.0275004)
(0.212192 -0.182802 -0.0328442)
(0.368761 -0.187856 -0.022502)
(0.451397 -0.107918 -0.000511434)
(0.430433 -0.0621099 0.0225975)
(0.23505 -0.138542 0.0264759)
(0.0317778 0.153029 0.0543883)
(-0.0168449 0.280082 0.061103)
(-0.000503515 -0.227256 -0.000235953)
(0.0342128 -0.241781 -0.00306414)
(0.173665 -0.365179 -0.0118447)
(0.257779 -0.414742 -0.00916315)
(0.153815 -0.359852 -0.0125467)
(-0.0273404 0.0143579 0.0215732)
(-0.0858331 0.0595157 0.0453788)
(-0.174767 0.131883 0.00243384)
(-0.154634 0.1842 0.00373365)
(-0.0825523 0.235966 0.0191267)
(0.0212057 -0.247768 0.0283724)
(0.0990139 -0.464363 0.0166331)
(0.131636 -0.521874 -0.00788627)
(0.029264 -0.192549 -0.0243595)
(-0.211247 0.0200721 -0.0151366)
(-0.257976 0.0543269 -0.0411801)
(-0.220019 0.0728924 -0.0654742)
(-0.183394 0.114738 -0.0763837)
(-0.12286 0.157284 -0.0665657)
(-0.0673955 0.199223 -0.0407576)
(0.0133579 -0.568128 0.0524215)
(-0.0640345 -0.535634 -0.0818156)
(-0.0938247 -0.163399 -0.0886788)
(-0.226097 0.0536589 -0.0416323)
(-0.289452 0.128736 -0.0466011)
(-0.254584 0.138577 -0.0908289)
(-0.201736 0.148313 -0.109472)
(-0.138305 0.167053 -0.10575)
(-0.0778146 0.187144 -0.0821722)
(-0.0393276 0.208727 -0.0575615)
(-0.0877651 -0.34373 -0.0662148)
(-0.181956 -0.109632 -0.208625)
(-0.136024 0.041643 -0.0523286)
(-0.25425 0.173388 -0.00469339)
(-0.263609 0.230853 -0.0399591)
(-0.209808 0.223542 -0.0819507)
(-0.16982 0.225585 -0.0962622)
(-0.106651 0.225551 -0.0960159)
(-0.0527176 0.216679 -0.0746623)
(-0.0190247 0.211362 -0.0524636)
(-0.127669 -0.0421692 -0.0867278)
(-0.151857 0.0378298 -0.153201)
(-0.162061 0.146027 -0.00529058)
(-0.233768 0.260685 0.0206194)
(-0.210228 0.260602 -0.0147703)
(-0.163044 0.248928 -0.0442644)
(-0.140185 0.262169 -0.0622487)
(-0.0889994 0.253456 -0.0668742)
(-0.0408073 0.233468 -0.0555051)
(-0.00810544 0.217191 -0.0392686)
(-0.128087 0.0758288 -0.0326948)
(-0.150392 0.205608 -0.125097)
(-0.178527 0.233884 0.004492)
(-0.20904 0.241518 0.020318)
(-0.170328 0.142157 0.0140415)
(-0.138384 0.158555 0.0108194)
(-0.111298 0.217206 -0.00888625)
(-0.0728954 0.228774 -0.0199882)
(-0.0352027 0.227148 -0.0190679)
(-0.00354465 0.213491 -0.011243)
(-0.108234 0.177253 -0.000564279)
(-0.13581 0.339485 -0.104272)
(-0.158859 0.31842 -0.0186804)
(-0.159857 0.213983 -0.00524593)
(-0.119661 0.0301604 0.0185784)
(-0.143528 0.0363417 0.0388168)
(-0.104004 0.105572 0.034404)
(-0.0655764 0.139353 0.0229129)
(-0.0347815 0.15999 0.0165569)
(-0.00753299 0.162317 0.0157038)
(-0.0718476 0.195312 0.0372853)
(-0.108881 0.454054 -0.0737181)
(-0.11747 0.402887 -0.0482499)
(-0.0833084 0.256628 -0.0317635)
(-0.0167958 0.00461719 0.016864)
(-0.110969 -0.00690449 0.0158484)
(-0.0901863 0.0366598 0.0195808)
(-0.0625636 0.0630819 0.0187892)
(-0.0391409 0.0855843 0.0179245)
(-0.0159712 0.0970508 0.0172136)
(-0.0544356 0.141274 0.0672549)
(-0.0800854 0.543485 0.0024344)
(-0.0860568 0.476011 -0.0455578)
(0.00893104 0.293225 0.00780716)
(0.0344624 -0.00788962 0.0257346)
(-0.0679713 -0.0101443 0.000222626)
(-0.0636789 0.0231295 0.0012673)
(-0.0511162 0.04136 0.00188505)
(-0.0350009 0.0554433 0.00273864)
(-0.015353 0.0619257 0.00387777)
(-0.0607198 0.076801 0.065228)
(-0.0609295 0.502075 0.0915226)
(-0.059409 0.50096 0.0236229)
(0.0777042 0.234619 0.0852854)
(0.0244289 -0.00443679 0.0144097)
(-0.0457169 -0.00279796 -0.00322775)
(-0.0469192 0.0179421 -0.00177245)
(-0.0396247 0.0302001 -0.0016508)
(-0.0269387 0.0395882 -0.0019187)
(-0.011736 0.0428506 -0.00128174)
(0.00204933 -0.00546104 0.00708392)
(0.00761749 -0.00618342 0.00782023)
(0.0126143 -0.00557865 0.00765546)
(0.0157697 -0.00479723 0.00769291)
(0.0175458 -0.0041926 0.00789081)
(0.017658 -0.00363451 0.00807712)
(0.0162265 -0.0031553 0.00823844)
(0.0133822 -0.00273551 0.00823595)
(0.00916715 -0.0023201 0.00830332)
(0.00425223 -0.00211458 0.00814975)
(0.0015342 -0.0138599 0.00550592)
(0.0063835 -0.015849 0.0066076)
(0.0106602 -0.0138546 0.00638949)
(0.0136112 -0.0116619 0.00643069)
(0.0153273 -0.0099562 0.00669288)
(0.0155495 -0.00838726 0.00693425)
(0.0143117 -0.00710159 0.00712643)
(0.0118051 -0.0062378 0.00721651)
(0.00807911 -0.00595796 0.00735877)
(0.00391891 -0.00633645 0.00737093)
(0.00185455 -0.0213387 0.00734549)
(0.00780495 -0.0253572 0.00826114)
(0.0133951 -0.022865 0.00782258)
(0.0172308 -0.0196693 0.0078101)
(0.0191378 -0.0172309 0.00800469)
(0.0192394 -0.0148543 0.00825295)
(0.0174853 -0.012872 0.00845911)
(0.0141017 -0.0114716 0.00854568)
(0.00941603 -0.0110354 0.00872783)
(0.00451553 -0.0118592 0.00898928)
(0.00278743 -0.0335406 0.00977976)
(0.010648 -0.0398696 0.0113101)
(0.016982 -0.0352479 0.00937484)
(0.0219316 -0.0291931 0.00921844)
(0.0240904 -0.0245483 0.00989806)
(0.0239246 -0.0201696 0.0106723)
(0.0213768 -0.0164748 0.0115538)
(0.0170431 -0.0141176 0.0124277)
(0.0113501 -0.0138441 0.0134218)
(0.00526789 -0.0152552 0.0143167)
(0.00790186 -0.0470179 0.0187607)
(0.0243466 -0.0554322 0.0238493)
(0.0309704 -0.0494177 0.0173129)
(0.0337416 -0.0415639 0.0133003)
(0.0336755 -0.0351597 0.0135998)
(0.031527 -0.0287525 0.0154603)
(0.0266908 -0.0230224 0.0181385)
(0.0198706 -0.0186523 0.0210835)
(0.0123148 -0.0165084 0.0235891)
(0.00503929 -0.0163634 0.02515)
(0.0171095 -0.0772062 0.0294665)
(0.0415535 -0.0842827 0.038939)
(0.0475038 -0.0664114 0.033638)
(0.0461883 -0.0501775 0.0263594)
(0.041378 -0.0388909 0.0259215)
(0.0344724 -0.0289395 0.0298632)
(0.0261952 -0.0208138 0.0324689)
(0.0182906 -0.0169043 0.0323521)
(0.0107892 -0.0157338 0.0313514)
(0.00399631 -0.0155346 0.0310367)
(0.0219168 -0.12318 0.0348406)
(0.0443807 -0.121102 0.0428097)
(0.0509523 -0.0883907 0.0424311)
(0.0513577 -0.0659585 0.0372743)
(0.0461204 -0.0513889 0.0338543)
(0.0366763 -0.0431179 0.0292715)
(0.0255414 -0.0376031 0.0202663)
(0.0165894 -0.0316658 0.0112396)
(0.00859673 -0.0305099 0.00654601)
(0.00520539 -0.0315772 0.00645268)
(0.0206221 -0.161276 0.0262235)
(0.0335783 -0.14964 0.0345281)
(0.0405747 -0.111966 0.0340069)
(0.0471226 -0.0842981 0.0229971)
(0.0508571 -0.0535475 0.00942458)
(0.04632 -0.0301923 -0.00613703)
(0.0345948 -0.0269182 -0.0142203)
(0.0305503 -0.0355781 -0.0138961)
(0.013211 -0.0402858 -0.0177723)
(-0.00118414 -0.0438127 -0.0250794)
(0.0114111 -0.177196 0.00872177)
(0.0209749 -0.152401 0.0225593)
(0.0335718 -0.107595 0.0169514)
(0.061623 -0.0769943 0.00148834)
(0.112688 -0.0605967 -0.00192656)
(0.155051 -0.0614504 -0.00423265)
(0.199007 -0.0759332 0.00633732)
(0.312828 -0.0325511 0.0677323)
(0.263255 0.00710108 0.101633)
(-0.0429412 -0.000147654 0.00463577)
(-0.00628139 -0.189684 0.00514734)
(0.0331279 -0.169557 0.0338156)
(0.10477 -0.172012 0.0360248)
(0.220957 -0.232312 0.0405659)
(0.344821 -0.235029 0.0688613)
(0.357526 -0.198809 0.100206)
(0.222883 -0.209043 0.0754982)
(-0.0155642 0.0665772 0.0922656)
(-0.111501 0.188454 0.0940961)
(-0.105884 0.194927 0.0103459)
(0.0022354 -0.245323 0.0418469)
(0.0873543 -0.405909 0.0860698)
(0.212525 -0.486566 0.0798761)
(0.185905 -0.460462 0.066492)
(-0.029452 -0.0752136 0.0202864)
(-0.191702 -0.000235386 0.0626985)
(-0.264194 0.132141 -0.0108842)
(-0.276246 0.163357 -0.0496706)
(-0.215833 0.167051 -0.0627264)
(-0.111586 0.165461 -0.0817927)
(0.0516364 -0.4824 0.119401)
(0.0583645 -0.742541 0.0527441)
(-0.0933509 -0.171643 -0.119217)
(-0.214328 -0.0194106 -0.0585882)
(-0.340067 0.0104114 -0.115555)
(-0.282917 -0.0237715 -0.126567)
(-0.262307 0.0238783 -0.132668)
(-0.200931 0.0343453 -0.123903)
(-0.136285 0.0375724 -0.0838301)
(-0.0903937 0.070712 -0.0453023)
(0.0325583 -0.571692 -0.0321032)
(-0.244931 -0.152836 -0.267474)
(-0.295148 0.0160135 -0.21797)
(-0.29614 -0.00642709 -0.168445)
(-0.254622 0.00459203 -0.181114)
(-0.22746 0.0174707 -0.185473)
(-0.200036 0.0330588 -0.182972)
(-0.148516 0.0318235 -0.149126)
(-0.115059 0.035827 -0.0748218)
(-0.0961435 0.0501856 -0.0187551)
(-0.026105 -0.168577 -0.157873)
(-0.218661 -0.0347063 -0.261383)
(-0.272497 0.0291883 -0.179116)
(-0.227456 0.0594557 -0.1171)
(-0.196873 0.065097 -0.116546)
(-0.180245 0.07457 -0.109743)
(-0.14103 0.075632 -0.120269)
(-0.0956081 0.0699428 -0.117432)
(-0.074292 0.0526659 -0.0734586)
(-0.0819753 0.03776 -0.0277296)
(-0.0176722 -0.109742 -0.0512141)
(-0.112912 0.112364 -0.24005)
(-0.220019 0.109298 -0.11481)
(-0.175112 0.130626 -0.0156918)
(-0.169196 0.138337 0.0249558)
(-0.142965 0.107738 0.0328863)
(-0.0979302 0.0770142 0.00359614)
(-0.0538724 0.0719633 -0.027181)
(-0.027515 0.0803586 -0.0438991)
(-0.0509098 0.0709029 -0.0201154)
(-0.0765226 -0.030975 0.0850561)
(-0.0637882 0.212489 -0.203966)
(-0.185937 0.211238 -0.0936527)
(-0.171605 0.174486 0.040029)
(-0.185394 0.101423 0.100694)
(-0.14705 0.0384356 0.0911348)
(-0.100774 0.0472559 0.0590116)
(-0.0670323 0.0739655 0.0358602)
(-0.034929 0.107601 0.0113669)
(-0.0392812 0.106932 0.0108359)
(-0.0633276 0.0439281 0.126425)
(-0.0201577 0.286115 -0.164002)
(-0.132855 0.323128 -0.119371)
(-0.139775 0.239368 0.00406864)
(-0.160922 0.0911189 0.0901871)
(-0.144491 0.00338995 0.0785035)
(-0.113882 0.013058 0.0530615)
(-0.0879967 0.0493484 0.0529033)
(-0.0555702 0.0969545 0.0461281)
(-0.0354912 0.10586 0.0391327)
(-0.0177157 0.0527348 0.156302)
(0.0253901 0.349178 -0.115323)
(-0.0828455 0.426141 -0.146645)
(-0.0879677 0.335768 -0.0751343)
(-0.0855917 0.140731 0.0635892)
(-0.0929806 0.0267428 0.0649713)
(-0.0833456 0.0116436 0.019123)
(-0.074979 0.0335168 0.0261624)
(-0.053834 0.0642639 0.0334977)
(-0.0266924 0.0770269 0.0315293)
(-0.0102899 0.0506197 0.158305)
(0.0391259 0.45023 -0.0391569)
(-0.0788447 0.50711 -0.14065)
(-0.0621467 0.417482 -0.119405)
(-0.008978 0.180333 0.0702317)
(-0.0410026 0.0489161 0.0648354)
(-0.045912 0.0061754 0.0050067)
(-0.045491 0.0302317 0.00565096)
(-0.0330721 0.0502382 0.00797086)
(-0.01345 0.0562379 0.00868314)
(-0.0379829 0.0470346 0.143911)
(0.0120305 0.56024 0.0811065)
(-0.104919 0.576659 -0.0864574)
(-0.0484079 0.472655 -0.0877658)
(0.0313908 0.21255 0.0933705)
(-0.0160027 0.054612 0.0485346)
(-0.0276454 0.00612908 0.00368231)
(-0.0302863 0.0238621 0.00173505)
(-0.0208911 0.0367483 0.000293586)
(-0.00945532 0.0393989 0.000140359)
(0.00196951 -0.00479897 0.011295)
(0.0074597 -0.00556043 0.0129432)
(0.0124322 -0.00496492 0.012762)
(0.0156081 -0.00422117 0.0130707)
(0.0174294 -0.00364291 0.0137945)
(0.0176311 -0.00314823 0.0147156)
(0.0162626 -0.00276258 0.0157772)
(0.0135326 -0.00239124 0.0168826)
(0.00927976 -0.0021356 0.0181611)
(0.0044333 -0.00212719 0.0188146)
(0.00139194 -0.0117805 0.0088012)
(0.0061807 -0.0137753 0.0110115)
(0.0103647 -0.0120006 0.0107107)
(0.0132347 -0.0100036 0.0110625)
(0.014966 -0.00847718 0.0119253)
(0.0152091 -0.00709244 0.0129473)
(0.0139992 -0.00612207 0.0140747)
(0.0116103 -0.00571555 0.0152346)
(0.00819312 -0.00613289 0.0167481)
(0.00455832 -0.00704335 0.0178511)
(0.00182361 -0.0187945 0.0117817)
(0.00747438 -0.0226792 0.0140323)
(0.0127798 -0.0202532 0.0133277)
(0.0164654 -0.017193 0.0134586)
(0.018421 -0.014793 0.0141665)
(0.0185662 -0.0125643 0.0151357)
(0.0168364 -0.0110181 0.0162674)
(0.0136088 -0.0104776 0.0174476)
(0.00941946 -0.0111929 0.0188283)
(0.0054238 -0.0120642 0.0197295)
(0.00207776 -0.0285327 0.0150618)
(0.00879879 -0.0347744 0.0178052)
(0.0154666 -0.0310525 0.0163377)
(0.0205059 -0.0257165 0.016481)
(0.0227797 -0.0217068 0.0176623)
(0.0225725 -0.0181151 0.01904)
(0.0199555 -0.015268 0.0205094)
(0.0156045 -0.0140888 0.0219291)
(0.0101814 -0.0142796 0.0228042)
(0.00550116 -0.0132162 0.0226633)
(0.00390648 -0.0398567 0.0223028)
(0.0169214 -0.0486536 0.0297965)
(0.02555 -0.0449371 0.0256735)
(0.0295972 -0.0374061 0.0217855)
(0.0303885 -0.0307697 0.0215034)
(0.0295103 -0.0248232 0.0231705)
(0.0258028 -0.0204118 0.0258604)
(0.0191422 -0.0177317 0.0287942)
(0.0111126 -0.015381 0.0299751)
(0.00468089 -0.0116305 0.0288163)
(0.0107876 -0.054838 0.0286109)
(0.0339044 -0.0656119 0.0431966)
(0.0448894 -0.0578757 0.0430821)
(0.0473159 -0.0458278 0.0370226)
(0.0454132 -0.0377506 0.0357583)
(0.0413726 -0.0302421 0.0388693)
(0.0339243 -0.0214722 0.0417256)
(0.0237906 -0.01433 0.0417323)
(0.0126865 -0.00844518 0.0396757)
(0.00365605 -0.00282016 0.0374322)
(0.0194213 -0.0841171 0.0354338)
(0.0425721 -0.088612 0.0480513)
(0.0531205 -0.0726339 0.0513582)
(0.0588905 -0.0558276 0.0474756)
(0.0586404 -0.0433979 0.0431905)
(0.0526372 -0.0336603 0.0388208)
(0.0410624 -0.0257883 0.0316644)
(0.027556 -0.0199947 0.0230038)
(0.0134331 -0.0184308 0.018639)
(0.00506114 -0.0172517 0.0176646)
(0.0172552 -0.115501 0.0251433)
(0.0335579 -0.112682 0.0396479)
(0.0412817 -0.0923633 0.0400777)
(0.0516109 -0.0732251 0.0314004)
(0.0540883 -0.050796 0.017033)
(0.0467693 -0.0313881 0.00427669)
(0.0339705 -0.0273537 -0.00292626)
(0.0238657 -0.0334281 -0.00404558)
(0.00762603 -0.0379395 -0.00221966)
(-0.00221361 -0.0404906 -0.00846258)
(-0.00886577 -0.120884 0.0132443)
(0.0160066 -0.108584 0.0329036)
(0.0308992 -0.0896859 0.029923)
(0.057318 -0.0710836 0.0204605)
(0.0884267 -0.0517188 0.010291)
(0.121374 -0.0510856 0.0138468)
(0.155002 -0.0577129 0.0174142)
(0.190613 -0.0332551 0.0170677)
(0.132045 0.00244601 -0.000918789)
(-0.0652294 -0.0102616 -0.0878208)
(-0.023625 -0.169067 0.0775787)
(0.0376214 -0.17926 0.110546)
(0.0902634 -0.155913 0.0921291)
(0.156209 -0.194197 0.0535188)
(0.209297 -0.194451 0.0646738)
(0.192525 -0.172744 0.0829818)
(0.0268265 -0.139181 0.071895)
(-0.218729 0.116057 0.141961)
(-0.188722 0.19283 0.0416885)
(-0.15707 0.107864 -0.0996995)
(0.0134674 -0.360631 0.178892)
(0.090975 -0.498758 0.222337)
(0.107884 -0.411169 0.116896)
(-0.0534908 -0.332852 0.00832179)
(-0.179664 -0.00959378 0.0775754)
(-0.194495 0.0715288 0.0896414)
(-0.276044 0.154163 -0.0108037)
(-0.318244 0.153532 -0.0111454)
(-0.231697 0.0854136 -0.0454304)
(-0.115541 0.0107358 -0.0905499)
(0.0575676 -0.547964 0.140382)
(-0.105322 -0.20508 -0.0558223)
(-0.224304 0.0773876 -0.197372)
(-0.291328 0.0232461 -0.132062)
(-0.289753 -0.0479202 -0.119135)
(-0.277601 -0.0195297 -0.102885)
(-0.260957 0.0411648 -0.115608)
(-0.208519 0.0060616 -0.101343)
(-0.127923 -0.0742842 -0.0485535)
(-0.0976424 -0.0574976 -0.0145753)
(-0.00484 -0.197914 -0.115436)
(-0.211056 0.00704366 -0.248453)
(-0.324352 -0.0235721 -0.276881)
(-0.242462 -0.0970494 -0.205317)
(-0.233016 -0.0922254 -0.207678)
(-0.229307 -0.0494897 -0.212279)
(-0.195344 -0.0310444 -0.222096)
(-0.140318 -0.049634 -0.19737)
(-0.104227 -0.0803617 -0.113651)
(-0.117119 -0.0563955 -0.0525197)
(0.0249712 -0.010626 -0.156312)
(-0.146998 0.0579818 -0.234011)
(-0.249966 -0.0289918 -0.203445)
(-0.217045 -0.0805346 -0.17104)
(-0.22258 -0.0799557 -0.171866)
(-0.194395 -0.0596855 -0.178623)
(-0.14363 -0.0457762 -0.187792)
(-0.100536 -0.0397676 -0.17586)
(-0.0909438 -0.0441209 -0.106915)
(-0.122592 -0.0374526 -0.0548791)
(0.0659949 -0.0914469 -0.0861777)
(0.0148262 0.154743 -0.204313)
(-0.128546 0.0357061 -0.155891)
(-0.15424 -0.0412776 -0.10437)
(-0.166126 -0.0271272 -0.0554021)
(-0.131264 -0.0225163 -0.0459781)
(-0.0725292 -0.0352879 -0.0750666)
(-0.0335423 -0.00193894 -0.100698)
(-0.0373504 0.0170089 -0.089364)
(-0.0848108 0.00738671 -0.0486464)
(0.0138538 -0.0810036 0.0559812)
(0.106981 0.135158 -0.131212)
(0.00681408 0.153069 -0.151367)
(-0.0915514 0.0704644 -0.0938855)
(-0.129355 0.0501096 0.0195271)
(-0.0972868 0.000195243 0.0331728)
(-0.0686973 -0.0316438 -0.00647844)
(-0.0559308 0.0231278 -0.0304726)
(-0.0400501 0.0582702 -0.0407409)
(-0.0600117 0.0404571 -0.0206668)
(0.0227977 -0.0294027 0.0381424)
(0.122086 0.0978719 -0.0986023)
(0.100974 0.227813 -0.154713)
(-0.0173196 0.204902 -0.129893)
(-0.0945891 0.145129 0.00592354)
(-0.0693139 0.0473935 0.0254073)
(-0.0834786 -0.0035021 0.0142032)
(-0.0811857 0.0376732 0.0204526)
(-0.0554786 0.0650707 0.0159284)
(-0.0392701 0.0538219 0.0103428)
(0.0547648 -0.0155063 0.0440983)
(0.142982 0.0934455 -0.0850379)
(0.142409 0.267777 -0.149919)
(0.0355429 0.319383 -0.161848)
(-0.0748636 0.241987 -0.0286913)
(-0.0380765 0.0907278 0.0146285)
(-0.0707592 0.0118151 0.0112182)
(-0.0643651 0.0389829 0.0161975)
(-0.0439321 0.0574646 0.0198806)
(-0.018491 0.0551113 0.0109889)
(0.0593751 0.00215998 0.0520307)
(0.159066 0.153509 -0.0261173)
(0.139624 0.321041 -0.113552)
(0.0413909 0.398945 -0.164048)
(-0.0738815 0.32042 -0.0361544)
(-0.0111326 0.112051 0.0349174)
(-0.0516067 0.012366 0.0167797)
(-0.0424972 0.0323433 0.00718032)
(-0.0285289 0.049313 0.00690688)
(-0.0109393 0.0512439 0.0029626)
(0.0321032 0.00488989 0.0806733)
(0.134948 0.284336 0.0909906)
(0.0985505 0.40631 -0.0391804)
(0.00699012 0.455827 -0.143662)
(-0.0645793 0.37563 -0.00813153)
(0.00156565 0.108244 0.0559359)
(-0.0358347 0.0132182 0.0203686)
(-0.0299456 0.0226523 0.00719022)
(-0.0205114 0.0372221 0.00448011)
(-0.0108481 0.0407018 0.00166783)
(0.00188389 -0.00394661 0.0138593)
(0.00751202 -0.00475604 0.0161378)
(0.0127461 -0.00419981 0.0160088)
(0.0161025 -0.00339497 0.0165267)
(0.0180807 -0.00273237 0.0176631)
(0.0184147 -0.00211404 0.0191661)
(0.0171855 -0.00149006 0.021019)
(0.0147121 -0.000857177 0.0231053)
(0.0105269 -0.00036767 0.0256673)
(0.00560169 -1.05143e-05 0.0268847)
(0.00127455 -0.00939921 0.0111284)
(0.00623641 -0.0115285 0.0139927)
(0.0107229 -0.00993902 0.0136516)
(0.013755 -0.00793716 0.0141949)
(0.015582 -0.00631709 0.0154443)
(0.015905 -0.00476824 0.0169674)
(0.0148472 -0.00348309 0.0187614)
(0.0129897 -0.00266111 0.0207223)
(0.00999191 -0.0023309 0.0232779)
(0.00648975 -0.00168855 0.0249451)
(0.00176738 -0.0155154 0.0146452)
(0.00754996 -0.0193581 0.0177656)
(0.0129984 -0.017037 0.0170096)
(0.0168135 -0.0136943 0.0173548)
(0.0189403 -0.0108554 0.018583)
(0.0192214 -0.00820011 0.0202871)
(0.0175623 -0.00635501 0.0222911)
(0.0143713 -0.00539551 0.0241638)
(0.00981404 -0.00461273 0.0252379)
(0.00610974 -0.00138661 0.0245525)
(0.00207216 -0.022526 0.0191299)
(0.00877685 -0.0283618 0.022721)
(0.0157264 -0.0253165 0.0214018)
(0.0210477 -0.0204323 0.0219196)
(0.0234924 -0.016414 0.0236237)
(0.0232634 -0.0124027 0.025675)
(0.0204116 -0.00902977 0.0279993)
(0.0151183 -0.00637191 0.0296186)
(0.0087312 -0.00216133 0.0279977)
(0.00571497 0.00567506 0.0231967)
(0.00336304 -0.0322775 0.0261437)
(0.012646 -0.0402395 0.0330022)
(0.0207317 -0.0366639 0.0298621)
(0.0264818 -0.028855 0.0275417)
(0.029253 -0.0212907 0.0288349)
(0.0294009 -0.0148329 0.0320018)
(0.025433 -0.00982743 0.035658)
(0.017136 -0.00463633 0.0379978)
(0.00855861 0.00394114 0.0345781)
(0.00511302 0.0139446 0.0265854)
(0.00916841 -0.0420205 0.0281481)
(0.0251701 -0.0491258 0.0427856)
(0.0361047 -0.0452602 0.045461)
(0.0413182 -0.0380567 0.0419127)
(0.0422079 -0.032121 0.0418361)
(0.0402115 -0.024234 0.0449505)
(0.0336891 -0.0132875 0.0485371)
(0.0224605 -0.000712235 0.0494903)
(0.010558 0.0143931 0.0457329)
(0.00363014 0.0263928 0.0402459)
(0.0174215 -0.0645715 0.0312381)
(0.0359065 -0.0659643 0.0487122)
(0.0466136 -0.0559712 0.0568066)
(0.0541983 -0.0431549 0.0546764)
(0.0569102 -0.0314298 0.0513994)
(0.0561408 -0.0188786 0.0509879)
(0.0489889 -0.0027507 0.0516856)
(0.033973 0.00937598 0.050907)
(0.016663 0.0159224 0.0481536)
(0.00442121 0.0177937 0.0464138)
(0.00743635 -0.084934 0.0265578)
(0.0228083 -0.0840361 0.0462143)
(0.0316012 -0.0733537 0.0502293)
(0.0439896 -0.0589736 0.0438645)
(0.0492881 -0.0429644 0.0347415)
(0.0459005 -0.0241388 0.0296369)
(0.0369812 -0.00588829 0.0276898)
(0.0276305 0.000651431 0.0301126)
(0.0136239 -0.00437617 0.0364021)
(0.00015924 -0.0094509 0.0392301)
(-0.0317762 -0.0825685 0.0581801)
(0.00157944 -0.0781713 0.0662371)
(0.0214371 -0.0704431 0.058907)
(0.0562944 -0.0620106 0.0569588)
(0.0889167 -0.0508851 0.0538948)
(0.116855 -0.0449785 0.0556306)
(0.127959 -0.0397815 0.0591588)
(0.117709 -0.0403626 0.0623043)
(0.0714371 -0.0414877 0.0320259)
(-0.0323646 -0.0278591 -0.100264)
(-0.0228031 -0.17567 0.213819)
(0.0440553 -0.248345 0.236838)
(0.064882 -0.204676 0.178268)
(0.122992 -0.210686 0.130952)
(0.155681 -0.214428 0.113565)
(0.178635 -0.15469 0.0887305)
(0.0684613 -0.0495979 0.103248)
(-0.220401 -0.0174735 0.119586)
(-0.262787 0.0561377 0.0100882)
(-0.179281 0.0113204 -0.147978)
(0.0303678 -0.413293 0.259198)
(0.0747695 -0.486926 0.215842)
(0.0306041 -0.349126 0.0317302)
(-0.0390204 -0.295425 -0.0263647)
(-0.11788 -0.0757405 0.0512923)
(-0.0976588 0.09846 0.109121)
(-0.185786 0.171059 0.0313674)
(-0.307521 0.142501 0.0130351)
(-0.256645 -0.0480349 -0.0185812)
(-0.114254 -0.225013 -0.0815073)
(0.0107676 -0.230375 0.0243784)
(-0.0714742 -0.0534861 -0.160492)
(-0.119085 0.0547281 -0.246292)
(-0.186688 0.0482042 -0.171395)
(-0.210259 0.0312561 -0.0789776)
(-0.227638 0.0699387 -0.0313123)
(-0.234569 0.159978 -0.0736162)
(-0.227852 0.0866754 -0.0816777)
(-0.139835 -0.138291 -0.0401515)
(-0.098793 -0.190593 -0.0303616)
(-0.0613932 0.0118116 -0.236358)
(-0.209393 -0.00613519 -0.259642)
(-0.268608 -0.0490146 -0.182627)
(-0.261326 -0.0746036 -0.177852)
(-0.240677 -0.0535171 -0.172794)
(-0.23451 0.0103185 -0.17627)
(-0.206601 0.0693903 -0.202422)
(-0.142972 0.025104 -0.218182)
(-0.0691384 -0.149897 -0.154831)
(-0.0998411 -0.174705 -0.0735486)
(0.00252429 0.116549 -0.220121)
(-0.150263 0.072343 -0.200438)
(-0.255014 -0.0380555 -0.159655)
(-0.265798 -0.099721 -0.174624)
(-0.257722 -0.103341 -0.18326)
(-0.232775 -0.05983 -0.207397)
(-0.184009 -0.0239863 -0.237002)
(-0.110155 -0.033914 -0.245675)
(-0.0450744 -0.100233 -0.172628)
(-0.0870266 -0.10163 -0.0756355)
(0.0555873 0.145463 -0.126757)
(0.0193262 0.180399 -0.149811)
(-0.0850433 0.048709 -0.126091)
(-0.169436 -0.0773842 -0.132771)
(-0.198889 -0.100593 -0.117725)
(-0.173345 -0.0538226 -0.120885)
(-0.129036 -0.0116268 -0.141498)
(-0.0771887 0.00400828 -0.153889)
(-0.054018 -0.0206533 -0.114726)
(-0.0693506 -0.0477185 -0.0735739)
(0.0524879 0.0530262 -0.0751702)
(0.1139 0.146863 -0.118534)
(0.0984472 0.138751 -0.110077)
(-0.0291991 0.0467597 -0.115256)
(-0.136326 -0.0305524 -0.0783294)
(-0.119351 -0.0206473 -0.0436341)
(-0.0988304 0.00844257 -0.0437272)
(-0.0655443 0.0374386 -0.0543123)
(-0.0497724 0.0242404 -0.0484955)
(-0.0440253 -0.00638099 -0.051977)
(0.0401066 0.0435298 -0.109452)
(0.101582 0.0992754 -0.16919)
(0.154937 0.155982 -0.131208)
(0.0658738 0.158558 -0.107217)
(-0.0918827 0.0684192 -0.0648069)
(-0.0940783 0.0227826 -0.0111004)
(-0.0999938 0.0226917 -0.000990115)
(-0.0717109 0.0496262 -0.00276222)
(-0.0445445 0.0445279 -0.0101962)
(-0.0237543 0.0243394 -0.0328778)
(0.0442614 0.0225199 -0.119402)
(0.0876702 0.0669307 -0.212129)
(0.138254 0.150879 -0.158963)
(0.0842295 0.228926 -0.1027)
(-0.071896 0.15304 -0.0521077)
(-0.0769716 0.0533762 0.0110742)
(-0.0874577 0.0227103 0.00744768)
(-0.0607156 0.046904 0.00148704)
(-0.0375891 0.0532271 -0.00479034)
(-0.0164392 0.0427441 -0.0263998)
(0.0378364 0.0206202 -0.115665)
(0.0940653 0.0594925 -0.198333)
(0.125114 0.154038 -0.15714)
(0.0732181 0.270827 -0.0919123)
(-0.0723392 0.209732 -0.0275306)
(-0.061757 0.0705337 0.0382039)
(-0.068211 0.0199918 0.0138326)
(-0.046222 0.036759 0.00260139)
(-0.0313933 0.0521976 -0.00273944)
(-0.0149064 0.0503856 -0.0181954)
(0.021965 0.0234929 -0.0758321)
(0.107745 0.101357 -0.0844668)
(0.138975 0.193014 -0.0949728)
(0.0679027 0.310293 -0.0705662)
(-0.0783622 0.256049 0.00942347)
(-0.0462933 0.0749349 0.0580423)
(-0.0489454 0.0194551 0.0161704)
(-0.0336829 0.0253812 0.00784198)
(-0.0243365 0.0423093 0.00304569)
(-0.0139551 0.0456804 -0.00749978)
(0.00177783 -0.0031322 0.0150722)
(0.00774751 -0.00411469 0.0179353)
(0.0135298 -0.00358568 0.0178967)
(0.0172672 -0.00269999 0.0186036)
(0.0195219 -0.00190601 0.0200967)
(0.0201399 -0.00111252 0.0219709)
(0.0191507 -0.00023406 0.0242237)
(0.017077 0.000665668 0.0265176)
(0.0125457 0.00170855 0.0299654)
(0.00720291 0.00352279 0.031193)
(0.00111745 -0.00722581 0.012349)
(0.00653572 -0.0097919 0.0157021)
(0.0116421 -0.00836302 0.0154326)
(0.0150268 -0.00625295 0.0161128)
(0.0170224 -0.00454128 0.0176166)
(0.0174884 -0.0028591 0.0194065)
(0.0165576 -0.0014017 0.0215603)
(0.0146697 -0.000105455 0.0240734)
(0.010579 0.00154982 0.0273227)
(0.00704404 0.00567847 0.0285002)
(0.00168286 -0.012377 0.0158595)
(0.00784568 -0.0168332 0.0195439)
(0.0138211 -0.014512 0.018907)
(0.0180902 -0.0106888 0.0195402)
(0.0205381 -0.00743852 0.0212301)
(0.0209499 -0.00466625 0.0235385)
(0.018976 -0.0027613 0.0264089)
(0.0142843 -0.000991155 0.0288296)
(0.0074448 0.00256099 0.0273916)
(0.00474505 0.0100878 0.0200941)
(0.00213306 -0.0173296 0.0203782)
(0.00967022 -0.0237427 0.0246506)
(0.0171585 -0.0211688 0.0235415)
(0.0228958 -0.01617 0.0243637)
(0.0255051 -0.0114529 0.0264346)
(0.025173 -0.0065322 0.0291962)
(0.0214484 -0.00224766 0.0326355)
(0.0139496 0.00267922 0.0343022)
(0.00712863 0.0096029 0.0254199)
(0.00735155 0.0149229 0.010302)
(0.00423746 -0.0249076 0.0267612)
(0.0131181 -0.0336035 0.0332373)
(0.0206088 -0.0295804 0.0307707)
(0.0277976 -0.0207267 0.0303385)
(0.0321677 -0.0121653 0.0334971)
(0.0324602 -0.00498024 0.0384234)
(0.0270818 0.00119957 0.0430359)
(0.0168401 0.00981521 0.0430675)
(0.00943145 0.0235193 0.0293882)
(0.00721508 0.0295006 0.0128561)
(0.0108217 -0.0320901 0.0254964)
(0.0240411 -0.0376612 0.0393391)
(0.0335014 -0.036709 0.0440037)
(0.0398129 -0.0313905 0.0426792)
(0.0418071 -0.023103 0.0436134)
(0.0400037 -0.0105509 0.0464948)
(0.0337349 0.00553758 0.0496513)
(0.0240014 0.0239363 0.051353)
(0.0165865 0.0426742 0.047326)
(0.00630362 0.050411 0.0346261)
(0.014981 -0.0513165 0.0236517)
(0.0308531 -0.0502106 0.0444371)
(0.0399112 -0.0427356 0.0567773)
(0.0488566 -0.0308197 0.0569129)
(0.0544681 -0.0157518 0.0555724)
(0.0549861 0.000208907 0.0560581)
(0.0478909 0.0143573 0.0577696)
(0.0360879 0.0273848 0.06215)
(0.0221162 0.037494 0.0698449)
(0.00603989 0.032383 0.0662448)
(-0.00772907 -0.0543252 0.0323437)
(0.00857862 -0.0512923 0.0508295)
(0.0163724 -0.0497946 0.053515)
(0.0337399 -0.0430247 0.0500343)
(0.0462837 -0.0296512 0.0478765)
(0.0517198 -0.0066448 0.049227)
(0.0485245 0.0158006 0.0548548)
(0.0396225 0.0269332 0.0631696)
(0.0287341 0.0263226 0.0831849)
(0.00920289 0.00880052 0.0855776)
(-0.044129 -0.04953 0.128166)
(-0.000168137 -0.0602612 0.122485)
(0.0128545 -0.0522594 0.0952825)
(0.0528937 -0.0515891 0.0922989)