/*--------------------------------*- C++ -*----------------------------------*\
| =========                 |                                                 |
| \\      /  F ield         | OpenFOAM: The Open Source CFD Toolbox           |
|  \\    /   O peration     | Version:  2312                                  |
|   \\  /    A nd           | Website:  www.openfoam.com                      |
|    \\/     M anipulation  |                                                 |
\*---------------------------------------------------------------------------*/
FoamFile
{
    version     2.0;
    format      ascii;
    arch        "LSB;label=32;scalar=64";
    class       surfaceScalarField;
    location    "0.56";
    object      phi;
}
// * * * * * * * * * * * * * * * * * * * * * * * * * * * * * * * * * * * * * //

dimensions      [0 3 -1 0 0 0 0];

oriented        oriented;

internalField   nonuniform List<scalar> 
22600
(
-1.35168e-07
8.28707e-08
8.64629e-08
-2.9692e-07
6.43819e-08
9.73698e-08
-4.34655e-07
2.72494e-08
1.10485e-07
-5.31568e-07
-2.74464e-08
1.2436e-07
-5.75899e-07
-9.20175e-08
1.36349e-07
-5.6076e-07
-1.61752e-07
1.46613e-07
-4.85959e-07
-2.30732e-07
1.55931e-07
-3.5198e-07
-2.9979e-07
1.65811e-07
-1.74581e-07
-3.54482e-07
1.77084e-07
-3.4455e-07
1.69969e-07
-1.30118e-07
1.82497e-07
6.92527e-08
-2.88726e-07
1.43796e-07
7.91942e-08
-4.18745e-07
6.63627e-08
9.09053e-08
-5.06951e-07
-4.34635e-08
1.04223e-07
-5.44953e-07
-1.70982e-07
1.16966e-07
-5.27732e-07
-3.07525e-07
1.28553e-07
-4.54219e-07
-4.43099e-07
1.38855e-07
-3.26442e-07
-5.77696e-07
1.50128e-07
-1.57774e-07
-6.85848e-07
1.62697e-07
-6.55898e-07
1.53574e-07
-1.70262e-07
3.02919e-07
9.18196e-08
-3.69838e-07
2.41828e-07
1.01544e-07
-5.35512e-07
1.1856e-07
1.13476e-07
-6.49473e-07
-5.72716e-08
1.2777e-07
-7.006e-07
-2.61574e-07
1.41719e-07
-6.83946e-07
-4.80127e-07
1.55949e-07
-5.9537e-07
-7.00305e-07
1.68629e-07
-4.29279e-07
-9.24763e-07
1.80977e-07
-2.02693e-07
-1.11111e-06
1.98671e-07
-1.05474e-06
1.96153e-07
-2.33941e-07
4.03803e-07
1.78879e-07
-4.9221e-07
3.18114e-07
1.81983e-07
-7.04045e-07
1.51438e-07
1.78957e-07
-8.50918e-07
-9.16324e-08
1.81234e-07
-9.24396e-07
-3.73009e-07
1.84913e-07
-9.13586e-07
-6.82481e-07
1.91543e-07
-8.06656e-07
-1.00932e-06
2.02089e-07
-6.08769e-07
-1.35632e-06
2.33674e-07
-3.04533e-07
-1.72266e-06
3.07321e-07
-1.6552e-06
2.9592e-07
-3.06534e-07
3.3876e-07
4.09885e-07
-6.25915e-07
2.31384e-07
4.06111e-07
-8.93031e-07
4.03921e-08
3.78162e-07
-1.09329e-06
-2.34668e-07
3.43292e-07
-1.20937e-06
-5.66378e-07
3.09446e-07
-1.22594e-06
-9.56746e-07
2.90841e-07
-1.13902e-06
-1.4105e-06
3.14253e-07
-9.59149e-07
-1.96644e-06
4.30244e-07
-5.46041e-07
-2.7567e-06
6.20928e-07
-2.77134e-06
5.70102e-07
-2.78064e-07
1.82879e-07
4.73102e-07
-6.03621e-07
6.24014e-08
4.9454e-07
-9.00026e-07
-1.83934e-07
5.20731e-07
-1.12309e-06
-5.57069e-07
5.45463e-07
-1.30507e-06
-9.31436e-07
5.47039e-07
-1.4217e-06
-1.38129e-06
5.41176e-07
-1.42242e-06
-2.01635e-06
6.06567e-07
-1.29714e-06
-2.86419e-06
7.72472e-07
-8.10642e-07
-4.20811e-06
9.64917e-07
-4.4427e-06
8.60716e-07
-2.64989e-07
6.83937e-07
-1.23328e-07
-6.40902e-07
5.41535e-07
-1.03221e-07
-9.62982e-07
1.73855e-07
-3.5709e-08
-1.25221e-06
-4.40109e-07
1.72271e-07
-1.46543e-06
-1.14769e-06
4.29475e-07
-1.56541e-06
-1.9268e-06
6.45495e-07
-1.50078e-06
-2.9061e-06
8.25127e-07
-1.3287e-06
-4.02561e-06
9.89327e-07
-9.30389e-07
-5.65961e-06
1.05319e-06
-6.22364e-06
8.50557e-07
-1.23849e-06
2.44729e-06
-4.99941e-07
-2.23584e-06
1.93885e-06
-3.99964e-07
-2.83584e-06
1.09525e-06
-3.21388e-07
-2.92821e-06
-1.21526e-07
-2.26218e-07
-2.881e-06
-1.17384e-06
-2.10608e-08
-2.50925e-06
-2.62241e-06
3.23857e-07
-1.78963e-06
-4.28527e-06
6.59549e-07
-1.09881e-06
-5.60321e-06
8.8678e-07
-7.63724e-07
-6.8739e-06
8.792e-07
-7.51566e-06
5.28291e-07
-5.3904e-06
6.04699e-06
1.03607e-06
-7.49143e-06
2.90867e-06
1.13122e-06
-7.71951e-06
3.15379e-07
1.00795e-06
-7.04909e-06
-1.38325e-06
5.91295e-07
-6.29173e-06
-2.22216e-06
2.90964e-07
-5.26606e-06
-4.1349e-06
4.8682e-07
-3.57564e-06
-6.76764e-06
7.91947e-07
-1.73218e-06
-8.43403e-06
9.87363e-07
-6.22394e-07
-9.00189e-06
1.0182e-06
-8.50711e-06
3.69052e-07
-7.52669e-06
7.48853e-06
2.69029e-07
-7.98606e-06
3.89298e-06
-5.24953e-07
-6.23437e-06
3.57497e-06
-5.01127e-06
-3.33786e-06
3.758e-06
-8.03776e-06
-4.10639e-06
1.10989e-06
-2.56352e-06
-5.34741e-06
-3.79233e-06
8.9846e-07
-5.69854e-06
-7.6062e-06
1.18969e-06
-3.33196e-06
-1.21873e-05
1.38671e-06
-1.03178e-06
-1.32102e-05
1.90814e-06
-1.05204e-05
9.81528e-07
-3.62253e-06
8.74489e-06
-2.04362e-06
-1.50957e-06
6.23792e-06
-4.4579e-06
4.06959e-07
5.79884e-06
-4.14039e-06
3.04191e-06
5.28224e-06
-4.15919e-06
3.76871e-06
2.70169e-06
-2.31861e-06
1.20214e-06
-1.03879e-06
-1.86973e-07
-8.49259e-08
-6.03607e-06
-2.83071e-07
-1.21173e-06
-9.63209e-06
-1.42843e-06
-1.9008e-06
-1.32259e-05
7.04708e-07
-1.47142e-05
2.29294e-06
-4.89424e-07
8.71473e-06
-2.15693e-06
1.71702e-06
7.37568e-06
-3.34421e-06
3.21654e-06
6.57025e-06
-2.27093e-06
4.83998e-06
5.3984e-06
-1.73959e-06
6.34529e-06
3.03981e-06
-1.84343e-06
6.05116e-06
8.43486e-07
-1.58815e-06
4.32772e-06
-2.09435e-06
-2.21828e-06
3.26506e-06
-4.69028e-06
-3.87916e-06
1.89585e-06
-7.48185e-06
-4.3748e-06
-1.16397e-05
-1.17863e-06
4.0609e-07
7.6279e-06
-8.65914e-07
1.65838e-06
7.29857e-06
-1.17519e-06
2.5591e-06
6.95013e-06
-1.2806e-06
3.72519e-06
6.12431e-06
-1.892e-06
4.67264e-06
4.95443e-06
-2.86208e-06
4.55978e-06
4.00656e-06
-3.05022e-06
3.71771e-06
1.43593e-06
-2.68822e-06
3.70743e-06
-1.39575e-06
-3.28425e-06
3.53845e-06
-2.91082e-06
-4.40205e-06
-5.32645e-06
-2.77478e-06
3.34798e-07
6.45348e-06
-1.05086e-07
1.05626e-06
6.63725e-06
-6.01382e-08
1.50115e-06
6.861e-06
-3.5576e-07
2.28985e-06
6.81874e-06
-1.48313e-06
3.11554e-06
6.75558e-06
-2.62685e-06
2.84873e-06
6.78288e-06
-2.50951e-06
2.13336e-06
3.97636e-06
-1.82506e-06
2.06666e-06
7.96075e-07
-2.12513e-06
2.73604e-06
-3.46169e-07
-3.23404e-06
-8.6049e-07
-1.72992e-06
2.91334e-07
5.6309e-06
-7.19023e-08
9.07174e-07
5.7595e-06
2.61909e-07
1.15287e-06
5.93451e-06
6.80794e-07
1.62401e-06
6.261e-06
8.66037e-08
2.28478e-06
6.75528e-06
-6.60476e-07
2.41065e-06
7.18402e-06
-5.27007e-07
2.01946e-06
4.8928e-06
-5.25255e-07
1.60656e-06
2.63671e-06
-1.42774e-06
1.78099e-06
2.23422e-06
-2.75482e-06
1.58177e-06
-6.61282e-07
2.50523e-07
4.81786e-06
2.27626e-07
7.24428e-07
4.7412e-06
5.44403e-07
9.08287e-07
4.71642e-06
1.03423e-06
1.22081e-06
4.96014e-06
9.8833e-07
1.75218e-06
5.40264e-06
8.21268e-07
2.46234e-06
5.51496e-06
9.58901e-07
2.4883e-06
4.3321e-06
5.34734e-07
1.80707e-06
3.77971e-06
-4.61776e-07
1.78456e-06
4.486e-06
-2.22926e-06
3.82764e-06
-4.61316e-07
2.32349e-07
3.83602e-06
6.48913e-07
5.15363e-07
3.66381e-06
7.94374e-07
7.35727e-07
3.54184e-06
9.5422e-07
1.17615e-06
3.64084e-06
8.78872e-07
1.94524e-06
3.85476e-06
7.78774e-07
3.06777e-06
3.54377e-06
8.48655e-07
3.26139e-06
3.46762e-06
6.70863e-07
2.08878e-06
4.87936e-06
7.29612e-08
1.36818e-06
6.78373e-06
-1.57712e-06
4.97754e-06
2.18279e-07
3.48159e-07
2.84919e-06
6.16389e-07
6.90669e-07
2.71742e-06
6.03878e-07
1.08558e-06
2.61854e-06
5.28392e-07
1.73339e-06
2.6157e-06
3.77323e-07
2.77361e-06
2.62254e-06
1.92009e-07
3.74012e-06
2.31162e-06
2.65637e-07
3.19052e-06
3.67768e-06
3.39535e-07
1.58438e-06
6.6568e-06
-1.71294e-07
4.7243e-07
9.13564e-06
-1.23997e-06
4.33214e-06
1.11782e-06
5.25262e-07
2.12828e-06
2.09391e-07
9.5829e-07
2.07034e-06
2.14062e-07
1.45974e-06
2.0096e-06
1.07489e-07
2.11479e-06
1.90057e-06
6.00767e-08
2.98426e-06
1.72682e-06
2.62433e-08
3.17409e-06
1.90284e-06
2.18957e-07
1.75255e-06
5.08018e-06
1.90493e-08
4.48092e-07
8.86414e-06
-9.02895e-07
-1.79219e-07
1.08966e-05
-1.13368e-06
2.86753e-06
1.28539e-06
5.94949e-07
-6.21945e-08
1.68902e-06
1.00093e-06
1.35287e-08
1.65082e-06
1.48689e-06
-2.13774e-08
1.54501e-06
1.98005e-06
1.24047e-07
1.28336e-06
2.22496e-06
2.99607e-07
1.18231e-06
1.10671e-06
6.24087e-07
2.397e-06
-5.11791e-07
-2.00765e-07
6.89944e-06
-9.19989e-07
-1.66986e-06
1.09422e-05
-3.12279e-07
-1.10772e-06
1.13966e-05
5.2851e-07
2.02673e-06
-1.67117e-07
-1.19349e-08
3.06753e-07
-3.61198e-07
-1.87231e-08
3.10174e-07
-5.15091e-07
-4.71631e-08
3.11541e-07
-6.1429e-07
-9.08157e-08
3.14375e-07
-6.51197e-07
-1.45191e-07
3.18446e-07
-6.23794e-07
-2.05923e-07
3.25133e-07
-5.33812e-07
-2.6925e-07
3.35199e-07
-3.80481e-07
-3.38131e-07
3.50611e-07
-1.81509e-07
-3.92772e-07
3.70884e-07
-3.54379e-07
3.42839e-07
-1.52971e-07
-2.60062e-08
2.81825e-07
-3.42556e-07
-3.05866e-08
2.80642e-07
-4.94259e-07
-8.39972e-08
2.79443e-07
-5.92052e-07
-1.71099e-07
2.82299e-07
-6.28378e-07
-2.79223e-07
2.87326e-07
-6.02154e-07
-3.99703e-07
2.96109e-07
-5.14215e-07
-5.26607e-07
3.08273e-07
-3.63168e-07
-6.66945e-07
3.27895e-07
-1.67366e-07
-7.78015e-07
3.52137e-07
-6.85384e-07
3.17214e-07
-1.94589e-07
-7.05293e-10
3.13416e-07
-4.30794e-07
-6.18844e-09
3.13351e-07
-6.22102e-07
-9.2329e-08
3.13116e-07
-7.46855e-07
-2.4112e-07
3.22543e-07
-7.96467e-07
-4.24004e-07
3.36113e-07
-7.70483e-07
-6.25433e-07
3.55694e-07
-6.64849e-07
-8.42246e-07
3.78634e-07
-4.68389e-07
-1.09136e-06
4.08928e-07
-2.07062e-07
-1.28931e-06
4.48644e-07
-1.11216e-06
4.1587e-07
-2.65289e-07
1.11159e-07
3.90817e-07
-5.68466e-07
7.37352e-08
4.05237e-07
-8.10586e-07
-7.22383e-08
4.00986e-07
-9.73752e-07
-3.01176e-07
4.04456e-07
-1.04913e-06
-5.79625e-07
4.15916e-07
-1.03211e-06
-8.88722e-07
4.37813e-07
-9.16381e-07
-1.22972e-06
4.73831e-07
-6.85566e-07
-1.64273e-06
5.54232e-07
-3.1528e-07
-2.0258e-06
6.73516e-07
-1.7238e-06
5.92278e-07
-3.64131e-07
3.75926e-07
5.55174e-07
-7.46784e-07
2.62225e-07
6.00274e-07
-1.06918e-06
4.2699e-08
5.85623e-07
-1.29957e-06
-2.90884e-07
5.63386e-07
-1.42305e-06
-7.06388e-07
5.59691e-07
-1.44908e-06
-1.16091e-06
5.89063e-07
-1.37803e-06
-1.6828e-06
6.9628e-07
-1.15226e-06
-2.38321e-06
9.44951e-07
-6.01636e-07
-3.16436e-06
1.20887e-06
-2.73613e-06
9.80795e-07
-4.1587e-07
7.29239e-07
5.76156e-07
-8.58e-07
5.35097e-07
6.63798e-07
-1.23314e-06
1.88595e-07
7.49976e-07
-1.52364e-06
-2.79139e-07
8.24213e-07
-1.73228e-06
-8.21696e-07
8.70993e-07
-1.83749e-06
-1.45588e-06
9.41347e-07
-1.8135e-06
-2.23363e-06
1.13341e-06
-1.58536e-06
-3.29339e-06
1.45452e-06
-9.14118e-07
-4.55055e-06
1.67986e-06
-4.12022e-06
1.33069e-06
-4.77019e-07
1.22281e-06
-2.86937e-08
-1.00309e-06
9.15874e-07
4.20744e-08
-1.39239e-06
3.36206e-07
2.05975e-07
-1.79434e-06
-1.92427e-07
4.87508e-07
-2.03513e-06
-9.53016e-07
8.0159e-07
-2.08453e-06
-1.8576e-06
1.09661e-06
-1.9641e-06
-2.92439e-06
1.39546e-06
-1.65028e-06
-4.27581e-06
1.65793e-06
-9.96182e-07
-5.83162e-06
1.68016e-06
-5.4625e-06
1.19665e-06
-9.63136e-07
2.43978e-06
-7.50723e-07
-1.99102e-06
1.95871e-06
-4.14911e-07
-2.78411e-06
1.00221e-06
-1.943e-07
-3.08979e-06
-1.86369e-07
7.33993e-08
-3.18363e-06
-1.32983e-06
4.4959e-07
-2.93999e-06
-2.63802e-06
8.60637e-07
-2.45016e-06
-4.12016e-06
1.36549e-06
-1.7135e-06
-5.90616e-06
1.78046e-06
-8.07776e-07
-7.58439e-06
1.72625e-06
-6.61182e-06
8.69835e-07
-7.4951e-06
8.29201e-06
1.10264e-06
-8.87362e-06
3.79907e-06
6.69378e-07
-9.16718e-06
2.14773e-06
1.55993e-07
-7.86746e-06
-7.67247e-07
-1.2755e-07
-6.3339e-06
-2.84024e-06
2.67813e-07
-5.39781e-06
-3.98639e-06
8.99111e-07
-4.42059e-06
-5.8222e-06
1.51676e-06
-2.81087e-06
-8.91825e-06
2.38973e-06
-9.65577e-07
-1.12274e-05
2.81593e-06
-8.81034e-06
1.60199e-06
-4.59704e-06
8.79663e-06
5.89351e-07
-1.92508e-06
5.03884e-06
-4.43668e-06
1.94075e-06
6.00379e-06
-1.27332e-05
1.74865e-06
6.25729e-06
-1.48702e-05
-9.86389e-07
5.38415e-06
-8.05287e-06
-3.50298e-06
3.24053e-07
-8.95397e-07
-4.06683e-06
-4.57803e-06
5.09363e-07
-3.73775e-06
-9.46117e-06
1.60055e-06
-1.90471e-06
-1.47897e-05
3.63743e-06
-1.32192e-05
3.4857e-06
-1.81741e-06
8.44292e-06
-3.74682e-06
2.15028e-06
7.41761e-06
-1.08044e-05
5.26469e-06
7.80369e-06
-9.05472e-06
5.71424e-06
8.4582e-06
-6.80966e-06
5.53017e-06
7.76921e-06
-4.51962e-06
3.81937e-06
3.26764e-06
-1.41977e-06
2.63097e-06
-9.12996e-07
-2.7597e-06
1.55675e-06
-5.32591e-06
-4.48949e-06
-7.48136e-07
-9.30512e-06
-2.47503e-06
-1.3362e-05
1.68762e-06
1.15379e-07
6.45923e-06
-3.11236e-06
3.73944e-06
6.31028e-06
-5.86095e-06
5.78355e-06
6.15287e-06
-2.66423e-06
6.43689e-06
7.09513e-06
-1.02985e-06
6.93018e-06
6.59377e-06
-1.16127e-06
7.07806e-06
3.12691e-06
-1.5953e-06
7.58377e-06
1.22998e-07
-3.75998e-06
6.78442e-06
-1.76348e-06
-6.64224e-06
3.76763e-06
-2.58892e-06
-8.07421e-06
-7.71918e-06
-3.05386e-06
-5.45248e-08
4.15239e-06
-5.23762e-07
1.55008e-06
4.2648e-06
-7.34308e-07
2.62614e-06
4.43495e-06
-6.3873e-07
3.81373e-06
4.86225e-06
-8.46718e-07
4.82135e-06
4.65166e-06
-1.9276e-06
5.25455e-06
3.18604e-06
-3.54256e-06
5.34899e-06
1.75119e-06
-4.41087e-06
5.08846e-06
-1.9344e-07
-4.59378e-06
4.00405e-06
-4.82761e-07
-5.42381e-06
-3.16688e-06
-3.32304e-06
-6.37699e-07
2.49561e-06
1.58668e-07
2.40367e-07
2.99736e-06
3.29239e-07
5.39214e-07
3.76622e-06
1.41207e-08
1.56131e-06
3.99626e-06
-1.63924e-06
2.67688e-06
4.10567e-06
-3.19644e-06
3.49233e-06
4.09559e-06
-4.2345e-06
3.88551e-06
3.68671e-06
-4.15375e-06
3.29497e-06
2.12643e-06
-3.85446e-06
2.40791e-06
1.51663e-06
-4.34636e-06
-9.72664e-07
-1.51622e-06
-9.93457e-07
2.06514e-06
-4.89298e-07
-2.92516e-08
2.37477e-06
-7.97112e-08
4.78506e-07
3.11191e-06
8.2734e-07
1.05824e-06
3.27509e-06
2.28037e-07
1.52069e-06
3.6812e-06
-6.98457e-07
2.16347e-06
4.44581e-06
-1.52001e-06
2.55547e-06
4.78113e-06
-2.01168e-06
2.08519e-06
3.73185e-06
-2.56289e-06
1.60382e-06
3.03775e-06
-3.79457e-06
1.13251e-06
-1.16264e-06
-9.46838e-07
2.2029e-06
-3.47065e-07
-2.76703e-07
2.37611e-06
-1.27069e-07
3.61172e-07
2.71204e-06
7.96222e-07
1.17084e-06
2.74239e-06
7.11349e-07
1.70618e-06
3.02781e-06
9.39321e-07
2.2628e-06
3.66895e-06
1.17914e-06
2.7138e-06
4.47305e-06
3.91806e-07
2.17937e-06
5.04475e-06
-1.24024e-06
1.58139e-06
4.69993e-06
-3.29346e-06
3.55732e-06
-1.30474e-06
-3.83396e-07
2.2452e-06
1.07718e-07
1.3766e-07
2.37239e-06
2.77036e-07
7.03926e-07
2.44894e-06
6.51057e-07
1.49781e-06
2.32429e-06
5.03102e-07
2.41448e-06
2.49907e-06
3.90824e-07
3.10867e-06
2.73225e-06
1.09116e-06
3.47146e-06
3.78508e-06
9.96038e-07
3.02468e-06
6.03457e-06
-4.70072e-07
1.99262e-06
6.66878e-06
-2.51392e-06
6.29073e-06
-5.22511e-07
2.80457e-07
2.08124e-06
1.35514e-07
8.00544e-07
2.1351e-06
3.21083e-07
1.35103e-06
2.11572e-06
3.1113e-07
2.06563e-06
1.9466e-06
4.03998e-08
2.99759e-06
2.16105e-06
-4.01943e-07
3.70059e-06
2.39919e-06
-1.043e-07
3.74818e-06
3.96114e-06
1.15877e-07
3.33009e-06
7.21451e-06
-9.33152e-07
2.09015e-06
8.79631e-06
-2.12756e-06
8.50695e-06
9.91746e-07
6.07877e-07
1.83898e-06
-1.3257e-07
1.04592e-06
1.82164e-06
8.94787e-08
1.58665e-06
1.70407e-06
-2.15891e-08
2.2889e-06
1.53127e-06
-2.26847e-07
3.11863e-06
1.92818e-06
-5.70612e-07
3.64581e-06
2.67963e-06
-5.88656e-07
3.4119e-06
5.21531e-06
-1.00122e-06
3.04321e-06
8.76001e-06
-2.07971e-06
1.75172e-06
1.07124e-05
-1.75823e-06
9.47313e-06
2.07092e-06
6.28483e-07
-2.81638e-07
1.60042e-06
1.00249e-06
-3.28465e-08
1.49401e-06
1.53687e-06
-1.24674e-07
1.27298e-06
2.19433e-06
-2.06732e-07
1.20458e-06
2.82265e-06
-3.85665e-07
1.98513e-06
2.87092e-06
-3.47455e-07
3.60291e-06
2.49617e-06
-1.73349e-06
7.12278e-06
2.27763e-06
-3.0582e-06
1.03669e-05
7.83013e-07
-1.03195e-06
1.21312e-05
2.43119e-06
8.35347e-06
-1.59272e-07
-3.34145e-08
5.4403e-07
-3.52224e-07
-2.71525e-08
5.30278e-07
-5.02743e-07
-4.26691e-08
5.04729e-07
-5.96384e-07
-7.6405e-08
4.84422e-07
-6.28026e-07
-1.21726e-07
4.71814e-07
-5.98056e-07
-1.74284e-07
4.69447e-07
-5.08543e-07
-2.30354e-07
4.7604e-07
-3.6035e-07
-2.91847e-07
4.94265e-07
-1.70185e-07
-3.3918e-07
5.19899e-07
-3.00339e-07
4.72992e-07
-1.43136e-07
-7.62178e-08
5.22091e-07
-3.26981e-07
-6.25509e-08
4.99886e-07
-4.71866e-07
-8.50849e-08
4.66743e-07
-5.64396e-07
-1.46413e-07
4.44836e-07
-5.96385e-07
-2.35163e-07
4.32751e-07
-5.67813e-07
-3.39433e-07
4.32685e-07
-4.81677e-07
-4.50387e-07
4.4217e-07
-3.38296e-07
-5.7366e-07
4.66326e-07
-1.5419e-07
-6.70265e-07
4.99116e-07
-5.78756e-07
4.41442e-07
-1.79401e-07
-6.5636e-08
5.49571e-07
-4.06576e-07
-7.13809e-08
5.49356e-07
-5.85934e-07
-1.14857e-07
5.22245e-07
-7.02007e-07
-2.17124e-07
5.09327e-07
-7.44547e-07
-3.63769e-07
5.07259e-07
-7.14221e-07
-5.34986e-07
5.20921e-07
-6.09812e-07
-7.22884e-07
5.46722e-07
-4.23701e-07
-9.39285e-07
5.88442e-07
-1.85483e-07
-1.10091e-06
6.41069e-07
-9.27566e-07
5.79197e-07
-2.14912e-07
6.09245e-08
5.61706e-07
-5.08473e-07
-1.15426e-08
6.3896e-07
-7.40407e-07
-1.1479e-07
6.32852e-07
-8.93251e-07
-2.83191e-07
6.23368e-07
-9.58095e-07
-5.11159e-07
6.2815e-07
-9.34102e-07
-7.72489e-07
6.51324e-07
-8.1145e-07
-1.06756e-06
6.95852e-07
-5.7295e-07
-1.40985e-06
7.86294e-07
-2.39932e-07
-1.66064e-06
9.00227e-07
-1.35999e-06
7.84773e-07
-2.76224e-07
4.2229e-07
5.5261e-07
-6.74666e-07
2.5164e-07
7.35533e-07
-1.00259e-06
3.31193e-08
7.65641e-07
-1.21043e-06
-2.70511e-07
7.58544e-07
-1.30363e-06
-6.27328e-07
7.69062e-07
-1.30901e-06
-1.00244e-06
8.24391e-07
-1.21579e-06
-1.43012e-06
9.65629e-07
-9.50603e-07
-1.9579e-06
1.22781e-06
-4.40981e-07
-2.40259e-06
1.4412e-06
-1.96204e-06
1.14186e-06
-3.5243e-07
8.81268e-07
5.40475e-07
-8.67972e-07
6.33178e-07
7.97802e-07
-1.31589e-06
2.70836e-07
9.60181e-07
-1.61677e-06
-1.87213e-07
1.04179e-06
-1.77935e-06
-6.85561e-07
1.0918e-06
-1.81835e-06
-1.22861e-06
1.20651e-06
-1.72872e-06
-1.84188e-06
1.45554e-06
-1.43405e-06
-2.58669e-06
1.78864e-06
-7.80108e-07
-3.2991e-06
1.92243e-06
-2.85297e-06
1.44151e-06
-4.4527e-07
1.35777e-06
6.21444e-08
-1.07073e-06
9.90675e-07
3.10042e-07
-1.58091e-06
3.81956e-07
6.05035e-07
-1.99453e-06
-1.5799e-07
8.71901e-07
-2.18005e-06
-8.36685e-07
1.13823e-06
-2.14799e-06
-1.59131e-06
1.42725e-06
-1.94533e-06
-2.40843e-06
1.75935e-06
-1.59423e-06
-3.29218e-06
2.01232e-06
-9.47214e-07
-4.25192e-06
1.98597e-06
-4.00725e-06
1.40372e-06
-6.74912e-07
1.87829e-06
-5.3593e-07
-1.64726e-06
1.74989e-06
-2.01778e-07
-2.46802e-06
1.00189e-06
6.51596e-09
-2.73839e-06
-1.79041e-07
3.64823e-07
-2.81953e-06
-1.20629e-06
9.00335e-07
-2.60598e-06
-2.28139e-06
1.33718e-06
-2.20834e-06
-3.29161e-06
1.85103e-06
-1.64935e-06
-4.37395e-06
2.30324e-06
-7.62683e-07
-5.85527e-06
2.44292e-06
-5.56705e-06
1.66696e-06
-3.75143e-06
6.9043e-06
-6.77611e-07
-5.77412e-06
4.89372e-06
-4.51767e-07
-6.68345e-06
2.95048e-06
-8.83263e-07
-5.66716e-06
3.65648e-09
-1.32654e-06
-4.39929e-06
-1.93433e-06
-2.72022e-07
-3.67032e-06
-3.08418e-06
9.72936e-07
-3.13212e-06
-4.10759e-06
1.79454e-06
-2.32927e-06
-5.77446e-06
2.98739e-06
-8.54639e-07
-8.83491e-06
4.32094e-06
-8.43346e-06
3.61376e-06
-2.13582e-06
5.44425e-06
1.16272e-06
1.98868e-06
5.35141e-06
-9.01888e-06
5.32245e-06
4.09567e-06
-1.72121e-05
5.75657e-06
4.00213e-06
-1.93028e-05
3.90959e-06
5.74912e-06
-1.38893e-05
-3.71433e-08
4.44116e-06
-4.47402e-06
-2.34941e-06
3.94243e-08
-1.32539e-06
-2.26561e-06
-5.018e-06
7.60296e-07
-1.55955e-06
-9.31788e-06
3.41433e-06
-1.23097e-05
5.80244e-06
-1.3324e-06
3.81796e-06
-5.28927e-06
3.62066e-06
5.66431e-06
-1.60703e-05
8.0517e-06
5.23656e-06
-1.46266e-05
7.33884e-06
6.13081e-06
-8.22549e-06
4.8431e-06
8.36338e-06
-4.63815e-06
3.38758e-06
6.29897e-06
-1.82207e-06
2.92432e-06
1.7491e-06
-4.00612e-06
2.55544e-06
-2.37727e-06
-6.76135e-06
8.76937e-07
-5.11882e-06
-4.99559e-06
-9.60646e-06
-1.38725e-07
5.3974e-07
3.07617e-06
-6.3942e-06
5.15998e-06
3.79639e-06
-8.61327e-06
7.40524e-06
3.80459e-06
-3.47753e-06
5.96899e-06
6.20929e-06
3.27918e-07
4.20378e-06
8.26742e-06
6.99891e-07
3.77256e-06
5.52488e-06
-3.89988e-07
4.96596e-06
7.91653e-07
-3.99594e-06
5.43236e-06
-2.24931e-06
-7.2366e-06
3.3605e-06
-1.70762e-06
-9.41356e-06
-4.38991e-06
-4.90991e-06
-3.36522e-07
1.08644e-06
-9.73449e-07
1.55888e-06
1.08557e-06
8.11085e-08
2.48104e-06
1.04705e-06
1.19664e-06
2.67905e-06
3.47795e-06
1.6866e-06
3.09258e-06
5.03267e-06
8.93615e-07
3.58647e-06
3.02697e-06
-1.53854e-06
4.04845e-06
-2.33465e-07
-3.84774e-06
3.71015e-06
-2.03597e-06
-4.46882e-06
2.31441e-06
3.45191e-08
-5.77022e-06
-1.53469e-06
-3.86386e-06
-1.37987e-06
2.46827e-07
-2.52997e-07
-7.49984e-07
2.52672e-07
5.32253e-07
-4.03752e-07
-6.85335e-08
7.83469e-07
7.16317e-07
8.76896e-07
-1.58254e-07
2.29395e-06
1.84819e-06
-1.58961e-06
2.77851e-06
1.51975e-06
-3.21186e-06
2.10645e-06
7.9471e-08
-3.79464e-06
1.34605e-06
-1.43829e-06
-3.69174e-06
3.62166e-07
1.74084e-06
-5.0688e-06
-5.01591e-07
-2.18715e-06
-1.30848e-06
2.76087e-07
-1.12756e-06
-7.42454e-07
5.14122e-07
-9.07187e-07
-5.90487e-07
1.45968e-07
4.60878e-07
4.9464e-07
3.82501e-07
-3.62707e-07
1.59826e-06
1.10934e-06
-1.06323e-06
1.62016e-06
1.82224e-06
-1.84441e-06
4.87691e-07
1.54855e-06
-2.34829e-06
-7.88327e-07
-8.0551e-09
-2.71711e-06
-4.24177e-07
1.59955e-06
-4.01743e-06
6.40199e-07
-2.72861e-06
-6.24026e-07
5.91329e-07
-1.17481e-06
-2.08079e-07
1.15695e-06
-1.18584e-06
-8.28371e-08
8.942e-07
-7.72551e-08
5.10301e-07
8.40722e-07
-3.40014e-07
1.24117e-06
1.46297e-06
-1.45178e-07
1.51458e-06
2.70919e-06
1.87681e-08
6.82682e-07
3.56669e-06
-7.94449e-07
-1.04929e-06
2.38503e-06
-1.90136e-06
-8.01937e-07
1.56809e-06
-3.50936e-06
1.74537e-06
-3.21185e-06
5.23512e-08
1.0669e-06
-9.58089e-07
4.86885e-07
1.55651e-06
-5.57067e-07
6.83047e-07
1.50021e-06
-1.51117e-07
1.017e-06
1.35672e-06
-3.46845e-07
1.2729e-06
2.01068e-06
-4.12793e-07
1.52599e-06
3.49948e-06
4.77713e-08
1.16622e-06
5.27443e-06
-3.51934e-07
-1.42459e-08
4.78823e-06
-1.6928e-06
-2.67054e-07
2.8708e-06
-3.56382e-06
3.53996e-06
-2.58416e-06
5.34772e-07
1.51533e-06
-8.6663e-07
8.66891e-07
1.73961e-06
-1.94126e-07
1.18114e-06
1.66791e-06
-1.70828e-07
1.48598e-06
1.54088e-06
-4.48604e-07
1.37789e-06
2.38002e-06
-6.63184e-07
1.36792e-06
4.09361e-06
-6.88461e-07
1.23294e-06
6.51329e-06
-9.88008e-07
6.27767e-07
6.57083e-06
-2.11057e-06
2.01418e-07
4.74258e-06
-3.57299e-06
5.82526e-06
-1.09215e-06
7.09456e-07
1.71002e-06
-7.93851e-07
9.4067e-07
1.70787e-06
-1.10003e-07
1.2614e-06
1.56029e-06
-2.34701e-07
1.57641e-06
1.55159e-06
-5.5258e-07
1.34493e-06
2.77265e-06
-7.31758e-07
1.22267e-06
4.74382e-06
-1.11661e-06
1.03976e-06
7.4849e-06
-1.78993e-06
3.82692e-07
7.82793e-06
-2.67976e-06
-3.33994e-07
6.63635e-06
-2.93532e-06
7.00879e-06
5.53392e-07
7.03156e-07
-6.76902e-07
1.6727e-06
9.06679e-07
-5.43921e-08
1.52589e-06
1.21016e-06
-2.12142e-07
1.34428e-06
1.47302e-06
-5.12391e-07
1.59439e-06
1.21602e-06
-6.96004e-07
3.33999e-06
1.09176e-06
-1.1472e-06
5.66782e-06
6.52822e-07
-2.27901e-06
8.46936e-06
-6.20055e-07
-2.9311e-06
8.97371e-06
-1.87373e-06
-1.53039e-06
8.38845e-06
1.73298e-06
5.83327e-06
-1.67347e-07
4.34872e-08
7.21112e-07
-3.6283e-07
3.68554e-08
6.88907e-07
-5.06593e-07
1.07992e-08
6.37693e-07
-5.92717e-07
-2.7778e-08
5.98324e-07
-6.17164e-07
-7.49254e-08
5.71186e-07
-5.81999e-07
-1.25281e-07
5.59562e-07
-4.90821e-07
-1.7675e-07
5.61611e-07
-3.44088e-07
-2.31984e-07
5.79517e-07
-1.59598e-07
-2.71781e-07
6.0719e-07
-2.32528e-07
5.45922e-07
-1.54123e-07
7.59313e-08
7.2023e-07
-3.44412e-07
4.92068e-08
6.77824e-07
-4.77278e-07
7.33967e-09
6.03069e-07
-5.56339e-07
-6.02272e-08
5.56346e-07
-5.79048e-07
-1.45903e-07
5.26439e-07
-5.45137e-07
-2.43746e-07
5.1724e-07
-4.57699e-07
-3.45305e-07
5.23286e-07
-3.1757e-07
-4.5416e-07
5.48374e-07
-1.42279e-07
-5.32859e-07
5.84904e-07
-4.46225e-07
5.12859e-07
-1.56531e-07
2.01102e-07
6.76972e-07
-4.0233e-07
1.0195e-07
7.42412e-07
-5.76527e-07
1.01526e-08
6.9363e-07
-6.80238e-07
-9.6029e-08
6.4884e-07
-7.09819e-07
-2.31492e-07
6.22428e-07
-6.71096e-07
-3.86023e-07
6.24474e-07
-5.65167e-07
-5.51037e-07
6.46526e-07
-3.89001e-07
-7.32941e-07
6.91057e-07
-1.70938e-07
-8.5859e-07
7.48737e-07
-7.06361e-07
6.68395e-07
-1.23838e-07
4.16091e-07
6.10857e-07
-4.51843e-07
2.25665e-07
8.4325e-07
-6.99614e-07
4.74097e-08
8.43365e-07
-8.44931e-07
-1.29196e-07
8.01851e-07
-8.94648e-07
-3.31712e-07
7.78087e-07
-8.55675e-07
-5.61236e-07
7.87564e-07
-7.21649e-07
-8.1492e-07
8.25708e-07
-4.89423e-07
-1.08644e-06
9.07563e-07
-2.0472e-07
-1.25656e-06
1.01349e-06
-1.01924e-06
8.92933e-07
-1.20417e-07
7.96655e-07
4.52637e-07
-5.3814e-07
5.00549e-07
8.78372e-07
-8.94016e-07
1.77327e-07
9.916e-07
-1.09965e-06
-1.32612e-07
9.67591e-07
-1.16184e-06
-4.4994e-07
9.49487e-07
-1.12911e-06
-7.53522e-07
9.83946e-07
-1.00018e-06
-1.08129e-06
1.10307e-06
-7.33914e-07
-1.44693e-06
1.32204e-06
-3.29424e-07
-1.70884e-06
1.48899e-06
-1.42372e-06
1.21692e-06
-1.69607e-07
1.31467e-06
3.15836e-07
-6.85522e-07
9.85061e-07
8.29205e-07
-1.19248e-06
5.4202e-07
1.10244e-06
-1.50091e-06
1.959e-08
1.19802e-06
-1.62357e-06
-4.73169e-07
1.2377e-06
-1.61895e-06
-9.0818e-07
1.35654e-06
-1.48907e-06
-1.36509e-06
1.60946e-06
-1.18545e-06
-1.85242e-06
1.8905e-06
-6.41133e-07
-2.25283e-06
1.92211e-06
-2.04696e-06
1.42362e-06
-3.37862e-07
1.65012e-06
1.92189e-07
-1.01244e-06
1.34774e-06
6.21948e-07
-1.63298e-06
8.20709e-07
9.46883e-07
-1.98592e-06
7.81392e-08
1.16629e-06
-2.06542e-06
-6.43775e-07
1.38834e-06
-1.98176e-06
-1.22443e-06
1.65983e-06
-1.74968e-06
-1.83798e-06
2.00016e-06
-1.3894e-06
-2.42279e-06
2.22242e-06
-8.32614e-07
-2.93251e-06
2.10886e-06
-2.96457e-06
1.48871e-06
-4.06574e-07
1.55936e-06
1.03965e-07
-1.30813e-06
1.63628e-06
4.11225e-07
-2.07086e-06
9.98941e-07
5.91015e-07
-2.39756e-06
-9.32898e-08
8.62955e-07
-2.47518e-06
-1.08413e-06
1.41831e-06
-2.21471e-06
-2.00216e-06
1.85443e-06
-1.76187e-06
-2.73803e-06
2.29823e-06
-1.26115e-06
-3.31743e-06
2.69716e-06
-5.87733e-07
-4.10555e-06
2.94254e-06
-4.35032e-06
2.46498e-06
-8.83521e-07
4.56663e-06
-1.79787e-06
-3.58189e-06
4.85642e-06
-9.73535e-07
-4.92168e-06
2.20288e-06
-7.47413e-07
-4.33522e-06
-1.2534e-06
-7.52886e-07
-3.23811e-06
-2.38762e-06
-6.56453e-08
-2.52035e-06
-2.95626e-06
1.20928e-06
-1.95163e-06
-3.68756e-06
2.17535e-06
-1.44511e-06
-4.11465e-06
3.2781e-06
-6.43974e-07
-5.69726e-06
5.11152e-06
-6.76811e-06
5.38758e-06
-4.88923e-07
3.64239e-06
1.14964e-06
1.59445e-06
6.09441e-06
-1.23402e-05
4.4324e-06
2.61447e-08
-1.78733e-05
6.29932e-06
-2.9996e-06
-1.94235e-05
5.21361e-06
8.49579e-07
-1.60408e-05
2.3735e-06
4.27133e-06
-8.8615e-06
-4.86488e-07
2.74686e-06
-4.89982e-06
-1.2994e-06
7.27795e-07
-3.26925e-06
-1.34491e-06
-3.74599e-06
1.50857e-06
-7.2705e-06
4.95991e-06
-1.09501e-06
4.03298e-06
-7.54448e-06
2.29305e-06
3.76907e-06
-1.7133e-05
5.84873e-06
7.91626e-07
-1.89478e-05
5.81373e-06
-3.7879e-07
-1.08113e-05
2.3249e-06
3.72809e-06
-4.02784e-06
8.2358e-07
6.10592e-06
-2.15535e-06
4.85903e-07
3.6555e-06
-4.57708e-06
1.20514e-06
1.32231e-06
-8.07512e-06
2.67649e-07
-5.83633e-07
-7.22046e-06
-5.15599e-06
-1.98559e-06
2.61424e-06
3.8669e-06
-1.1273e-05
6.0643e-06
3.08574e-06
-1.138e-05
7.82376e-06
2.08424e-06
-6.52961e-06
4.79122e-06
3.53003e-06
-5.48355e-07
8.9767e-07
6.37961e-06
1.94191e-06
-9.88058e-08
6.29775e-06
4.14658e-07
8.37297e-07
2.37326e-06
-3.64981e-06
2.89894e-06
-1.35395e-06
-6.62199e-06
2.42096e-06
-5.18432e-07
-9.00078e-06
-9.34478e-07
-6.71046e-06
1.61014e-06
1.4378e-06
-2.21987e-06
3.22723e-06
3.07949e-06
-1.52974e-06
3.55706e-06
1.37051e-06
1.58053e-06
1.80135e-06
4.02362e-06
2.94871e-06
5.34745e-07
5.79577e-06
2.74406e-06
1.35654e-06
3.84799e-06
8.9418e-08
2.61581e-06
-5.00064e-08
-2.68375e-06
2.98134e-06
-2.33176e-06
-3.85654e-06
1.30908e-06
1.39353e-06
-6.00992e-06
1.98381e-06
-5.47307e-06
-5.91389e-07
2.62989e-08
-1.37929e-07
-4.42751e-07
2.73438e-06
7.28721e-07
-7.64112e-07
-2.93032e-07
2.76837e-06
-2.58546e-07
1.27867e-06
2.08114e-06
1.12529e-06
2.22724e-06
5.95083e-07
2.13866e-06
9.81148e-07
-1.3584e-06
1.72816e-06
-1.09735e-06
-2.33679e-06
7.90383e-07
-2.1981e-06
-2.88762e-06
-3.71204e-07
2.40522e-06
-4.91892e-06
3.43938e-06
-4.01394e-06
-9.56411e-07
-6.54656e-07
-7.87639e-07
-5.24399e-07
2.07027e-06
-6.75096e-07
-9.90711e-07
-7.31554e-08
7.07313e-07
-2.42305e-07
3.12569e-07
-1.4502e-07
1.19022e-06
7.75934e-07
-1.04447e-06
1.19735e-06
8.01639e-07
-1.67203e-06
-2.22026e-07
-1.69191e-07
-1.85708e-06
-1.38716e-06
-1.53719e-06
-2.2129e-06
-1.1232e-06
1.65975e-06
-3.53591e-06
3.66593e-06
-4.07837e-06
-5.22597e-07
-4.69048e-07
-1.4502e-06
1.75149e-07
1.74855e-06
-1.56187e-06
1.71046e-07
6.65095e-07
-8.11398e-07
3.69213e-07
8.83622e-07
-1.10924e-06
7.69818e-07
1.39513e-06
-1.16499e-06
5.41978e-07
2.16948e-06
-1.12124e-06
-6.04639e-07
1.64857e-06
-1.4656e-06
-1.84329e-06
-2.26102e-07
-1.97381e-06
-1.45394e-06
5.32149e-07
-2.77111e-06
2.62806e-06
-3.62791e-06
1.72424e-07
3.44554e-08
-1.74122e-06
7.66588e-07
1.55424e-06
-9.56939e-07
7.07987e-07
1.3131e-06
-7.40527e-07
8.70977e-07
1.4656e-06
-1.09182e-06
6.69255e-07
2.09437e-06
-9.10311e-07
2.29988e-07
3.57684e-06
-9.20318e-07
-3.63364e-07
3.34581e-06
-1.45582e-06
-1.05948e-06
1.27809e-06
-2.50089e-06
-1.3885e-06
7.98103e-07
-3.50076e-06
1.56569e-06
-2.91029e-06
4.90641e-07
4.85867e-07
-1.69161e-06
8.63259e-07
1.51514e-06
-5.27644e-07
9.0371e-07
1.59427e-06
-4.92448e-07
1.1084e-06
1.76353e-06
-9.5122e-07
7.79915e-07
2.63897e-06
-8.793e-07
5.97283e-08
4.62264e-06
-1.01408e-06
-4.79432e-07
4.58167e-06
-1.68471e-06
-9.04537e-07
2.52691e-06
-2.93428e-06
-1.25437e-06
1.58917e-06
-4.01423e-06
1.72927e-06
-2.51011e-06
5.66288e-07
7.73634e-07
-1.48061e-06
7.92405e-07
1.53598e-06
-3.56949e-07
8.97534e-07
1.65961e-06
-4.05172e-07
1.12325e-06
1.89221e-06
-9.06992e-07
8.25214e-07
3.165e-06
-9.5975e-07
-2.52448e-08
5.45552e-06
-1.09902e-06
-8.56353e-07
5.54061e-06
-1.91776e-06
-1.39259e-06
3.54258e-06
-3.15919e-06
-1.60573e-06
2.54997e-06
-3.68298e-06
2.43461e-06
-1.75768e-06
6.13859e-07
-1.35714e-06
1.0161e-06
7.75274e-07
-1.95997e-07
1.51616e-06
8.96726e-07
-2.82103e-07
1.60811e-06
1.0631e-06
-7.38826e-07
1.95227e-06
7.67632e-07
-9.4912e-07
3.71359e-06
-1.1593e-07
-1.05734e-06
6.24922e-06
-1.30981e-06
-1.98287e-06
6.43835e-06
-2.14648e-06
-3.16098e-06
4.60913e-06
-2.04124e-06
-2.93728e-06
3.85162e-06
-8.25397e-07
2.95174e-06
-1.84733e-07
1.75105e-07
8.00527e-07
-4.00329e-07
1.27741e-07
7.76762e-07
-5.40313e-07
7.27157e-08
7.04962e-07
-6.14473e-07
2.09283e-08
6.51555e-07
-6.25609e-07
-3.07315e-08
6.13053e-07
-5.80665e-07
-7.92281e-08
5.93847e-07
-4.82936e-07
-1.26387e-07
5.90269e-07
-3.32831e-07
-1.76799e-07
6.06211e-07
-1.49593e-07
-2.09521e-07
6.33473e-07
-1.64352e-07
5.6068e-07