/*--------------------------------*- C++ -*----------------------------------*\
| =========                 |                                                 |
| \\      /  F ield         | OpenFOAM: The Open Source CFD Toolbox           |
|  \\    /   O peration     | Version:  2312                                  |
|   \\  /    A nd           | Website:  www.openfoam.com                      |
|    \\/     M anipulation  |                                                 |
\*---------------------------------------------------------------------------*/
FoamFile
{
    version     2.0;
    format      ascii;
    arch        "LSB;label=32;scalar=64";
    class       volScalarField;
    location    "0.305";
    object      p_rgh;
}
// * * * * * * * * * * * * * * * * * * * * * * * * * * * * * * * * * * * * * //

dimensions      [1 -1 -2 0 0 0 0];

internalField   nonuniform List<scalar> 
8000
(
383.66
383.864
384.242
384.772
385.417
386.125
386.827
387.443
387.897
388.083
382.519
382.838
383.359
384.06
384.898
385.808
386.702
387.483
388.054
388.292
380.461
380.777
381.493
382.528
383.78
385.134
386.455
387.606
388.446
388.802
376.374
377.013
378.231
379.895
381.873
384.009
386.096
387.91
389.245
389.81
370.817
371.658
373.383
375.847
378.858
382.178
385.502
388.439
390.682
391.65
361.114
362.475
365.288
369.208
373.912
379.107
384.326
388.953
392.7
394.773
282.064
293.09
313.412
336.508
357.634
373.257
382.961
390.241
395.753
399.921
29.8313
38.4937
57.9372
88.4785
136.766
208.761
297.267
362.943
394.21
396.944
0.0796931
0.0652211
0.050837
0.0386268
0.0313823
0.0943213
22.4591
93.295
193.544
311.919
0.0425314
0.0369045
0.0251838
0.00958214
-0.00309032
0.00290065
-0.0415582
-0.0255546
19.8155
235.637
-0.0151591
-0.0186873
-0.0263761
-0.0353618
-0.041711
-0.042668
-0.053692
-0.0647169
3.93214
91.9378
-0.0504761
-0.054324
-0.0621588
-0.0676096
-0.0684629
-0.0321653
-0.0346263
-0.0474739
1.86781
-0.0517457
-0.0676472
-0.0718025
-0.0768445
-0.0789234
-0.0548336
-0.0150404
-0.00046372
-0.031869
0.0476524
0.0113445
-0.0711209
-0.0753313
-0.0829414
-0.071983
-0.0670906
-0.0678058
-0.0631471
-0.0518829
-0.0339227
0.00294299
-0.0762238
-0.0768671
-0.0803952
-0.0775373
-0.0903207
-0.0964978
-0.110573
-0.0994877
-0.0675277
-0.025698
-0.0850717
-0.0864308
-0.087336
-0.0901819
-0.0966558
-0.107798
-0.138867
-0.133199
-0.10216
-0.0653875
-0.0915107
-0.0917561
-0.0918605
-0.0944447
-0.09992
-0.112246
-0.133426
-0.128591
-0.100886
-0.0819225
-0.0949774
-0.0949485
-0.0956081
-0.0970492
-0.0994935
-0.105073
-0.112029
-0.0965345
-0.0738976
-0.073651
-0.0993409
-0.0991144
-0.0991406
-0.0992865
-0.0993382
-0.0991945
-0.0957361
-0.0831423
-0.0662789
-0.0703089
-0.103694
-0.103201
-0.102742
-0.102109
-0.101003
-0.0989107
-0.0944027
-0.0860454
-0.077186
-0.0794529
384.679
384.802
385.053
385.424
385.894
386.423
386.958
387.435
387.788
387.904
383.716
383.907
384.279
384.805
385.447
386.151
386.848
387.461
387.906
388.062
381.787
382.07
382.652
383.486
384.497
385.586
386.644
387.56
388.217
388.456
378.19
378.713
379.743
381.169
382.858
384.653
386.376
387.841
388.884
389.26
372.858
373.648
375.265
377.53
380.251
383.163
385.984
388.388
390.118
390.705
364.295
365.294
367.702
371.298
375.77
380.575
385.096
388.902
391.687
392.746
287.569
296.878
314.412
336.271
357.601
374.171
383.525
389.857
393.873
395.841
27.9579
34.9795
52.3265
81.9752
129.323
203.846
298.478
365.201
391.526
394.537
0.0669117
0.0639754
0.0529402
0.0361084
0.0142892
0.0526526
20.5293
93.1619
165.478
196.221
0.0155147
0.0106556
0.000434783
-0.0123948
-0.0311911
-0.0341263
-0.0708915
-0.107114
-0.0635936
22.1163
-0.0245007
-0.039379
-0.053964
-0.0665224
-0.0825224
-0.0832884
-0.102046
-0.103327
-0.126945
3.09761
-0.0626054
-0.0720735
-0.0861129
-0.0987639
-0.101082
-0.0848491
-0.0846024
-0.0798856
-0.0725499
1.27234
-0.052738
-0.0665845
-0.0795059
-0.0722651
-0.0861372
-0.064738
-0.0160449
0.00802646
0.0311412
0.297585
-0.0619366
-0.0662276
-0.0895704
-0.0969779
-0.100338
-0.102314
-0.0691065
0.0209863
0.0565038
-0.0366157
-0.0653813
-0.091992
-0.0978877
-0.0948748
-0.101221
-0.110792
-0.126125
-0.0650106
-0.0303864
-0.0727534
-0.0956156
-0.0962457
-0.0948015
-0.0960376
-0.104553
-0.122775
-0.150183
-0.145121
-0.124371
-0.11226
-0.0943796
-0.0944062
-0.0946713
-0.0973037
-0.104431
-0.122933
-0.150274
-0.146989
-0.137506
-0.119068
-0.0963052
-0.096335
-0.096894
-0.0979647
-0.100688
-0.108689
-0.118485
-0.106092
-0.0971459
-0.0888225
-0.0999803
-0.0997097
-0.0995685
-0.0994424
-0.0991004
-0.0978343
-0.0927344
-0.0791257
-0.0702634
-0.0749213
-0.103788
-0.103293
-0.102788
-0.102043
-0.10067
-0.0977324
-0.0910931
-0.0804183
-0.0741299
-0.0816583
386.114
386.128
386.193
386.321
386.516
386.761
387.025
387.269
387.448
387.462
385.402
385.46
385.614
385.86
386.181
386.547
386.918
387.246
387.475
387.505
384.043
384.17
384.458
384.907
385.476
386.105
386.717
387.234
387.578
387.634
381.541
381.798
382.377
383.232
384.273
385.388
386.451
387.316
387.867
387.95
377.5
377.939
378.971
380.476
382.311
384.257
386.11
387.558
388.424
388.499
371.303
371.896
373.496
375.97
379.157
382.445
385.495
387.722
388.947
389.043
339.236
342.931
350.331
360.999
371.666
379.3
384.693
388.274
389.85
390.321
82.2779
90.4845
112.98
146.303
191.765
252.803
316.032
358.521
365.244
363.876
0.0269938
0.0229585
0.0361207
0.0203461
-0.000962004
2.39761
41.7208
82.688
91.7221
95.1721
-0.000220751
0.00696809
0.0248804
-0.0184183
-0.0620532
-0.0418857
-0.0556971
-0.0728998
-0.0718322
0.0264533
-0.0350287
-0.0468864
-0.0656243
-0.0862804
-0.113568
-0.118579
-0.116649
-0.100402
-0.0898765
-0.0116324
-0.0624321
-0.0602269
-0.083712
-0.109341
-0.133461
-0.139747
-0.123512
-0.094405
-0.0420652
-0.0127112
-0.0625307
-0.0647361
-0.0864214
-0.102546
-0.122497
-0.131958
-0.119796
0.0095636
0.0559622
0.0578418
-0.0571924
-0.0735161
-0.0923241
-0.100852
-0.114734
-0.128272
-0.116205
0.000437482
0.0324714
0.0188817
-0.0754009
-0.0931515
-0.0955493
-0.0997781
-0.109843
-0.123344
-0.129304
-0.105495
-0.0741571
-0.089305
-0.0938713
-0.094852
-0.0959862
-0.0995142
-0.109154
-0.126556
-0.141242
-0.14697
-0.150125
-0.138225
-0.0950421
-0.0954578
-0.0963859
-0.0990655
-0.105887
-0.120536
-0.138815
-0.149069
-0.158011
-0.143335
-0.0972095
-0.0973058
-0.097743
-0.0988136
-0.101213
-0.106063
-0.111563
-0.112111
-0.120358
-0.113438
-0.10008
-0.0998904
-0.0997977
-0.0997999
-0.0995863
-0.0980292
-0.0922745
-0.0836045
-0.0870294
-0.0917311
-0.103404
-0.103063
-0.102672
-0.102128
-0.101037
-0.0986214
-0.0937118
-0.08652
-0.0835004
-0.0906066
388.07
387.939
387.754
387.546
387.362
387.217
387.111
387.04
386.985
386.86
387.653
387.52
387.391
387.261
387.144
387.055
386.988
386.936
386.88
386.741
386.995
386.947
386.801
386.732
386.714
386.727
386.746
386.742
386.687
386.508
385.724
385.662
385.657
385.784
385.994
386.219
386.402
386.488
386.438
386.169
383.526
383.486
383.746
384.19
384.8
385.411
385.925
386.162
386.073
385.61
379.646
379.692
380.292
381.341
382.824
384.206
385.299
385.573
385.218
384.468
373.744
373.83
374.608
377.608
380.806
383.242
384.912
384.798
383.58
383.022
180.107
172.225
182.132
217.448
260.17
282.625
307.97
317.13
299.775
298.139
2.2113
1.05105
0.121129
0.0212916
1.77481
17.9332
36.8256
39.4841
19.9986
23.1753
-0.00305743
0.0289715
0.101789
-0.0332079
-0.0958706
-0.0881029
-0.0476454
-0.0341397
-0.0224725
0.0234323
-0.0482009
-0.0453561
-0.0581535
-0.0835648
-0.122508
-0.147236
-0.136642
-0.101775
-0.0764906
-0.00166848
-0.0632096
-0.06568
-0.0746601
-0.0957795
-0.127513
-0.142994
-0.14
-0.118175
0.0212391
0.0528573
-0.0783889
-0.0799157
-0.0852196
-0.0970451
-0.119134
-0.128061
-0.131663
-0.0327168
0.0185055
0.075519
-0.0861347
-0.0888312
-0.0910692
-0.0980007
-0.111869
-0.124583
-0.129659
-0.124204
-0.0573098
0.0322341
-0.0895728
-0.0924877
-0.0938482
-0.0986651
-0.107901
-0.116861
-0.121612
-0.135856
-0.135476
-0.101662
-0.0921968
-0.0939384
-0.0951988
-0.0991788
-0.106531
-0.116907
-0.127989
-0.149385
-0.147272
-0.125285
-0.0941363
-0.0951937
-0.0963358
-0.0990343
-0.104031
-0.112623
-0.125528
-0.144552
-0.153357
-0.13219
-0.0964724
-0.0970792
-0.097681
-0.0990023
-0.101014
-0.103572
-0.106953
-0.114671
-0.122467
-0.115004
-0.0990855
-0.0993895
-0.0995572
-0.099967
-0.100215
-0.099551
-0.096788
-0.0940901
-0.0965806
-0.0999199
-0.102239
-0.102355
-0.102217
-0.102118
-0.101637
-0.10028
-0.0977378
-0.0945929
-0.0936321
-0.0970009
390.335
390.075
389.613
389.021
388.381
387.773
387.231
386.79
386.464
386.173
390.168
389.943
389.491
388.907
388.274
387.65
387.072
386.583
386.201
385.865
390.215
389.951
389.453
388.819
388.124
387.423
386.753
386.156
385.656
385.21
390.171
389.824
389.28
388.59
387.841
387.066
386.261
385.47
384.757
384.117
389.885
389.415
388.827
388.133
387.399
386.513
385.482
384.385
383.323
382.338
388.948
388.187
387.461
386.822
386.187
385.394
384.338
382.687
380.842
379.316
388.484
387.126
386.067
385.824
385.771
385.094
383.538
379.792
374.48
373.33
308.435
283.959
266.458
273.581
291.456
293.734
286.258
257.631
205.153
209.401
50.3885
31.6852
17.0241
11.3588
15.259
19.5816
16.7788
2.2846
0.10383
0.150309
-0.0721866
-0.0439731
0.00661792
-0.0714967
-0.117875
-0.12013
-0.0874752
-0.0256233
0.0035047
0.0476318
-0.0621163
-0.0529528
-0.0564056
-0.062605
-0.0904801
-0.122642
-0.130014
-0.0995453
0.00696969
0.0496787
-0.0650117
-0.0666435
-0.0680222
-0.0791901
-0.0840584
-0.0897846
-0.121975
-0.103672
0.0312172
0.0978341
-0.0803477
-0.081266
-0.0820092
-0.087821
-0.0880473
-0.0704776
-0.0614703
-0.0686234
-0.00218619
0.0613873
-0.0908488
-0.09087
-0.0908431
-0.0945338
-0.103406
-0.11305
-0.127494
-0.143614
-0.112127
0.0376462
-0.0908717
-0.0933291
-0.0940731
-0.0971654
-0.103377
-0.110763
-0.120108
-0.130933
-0.123722
-0.0918025
-0.0908224
-0.093921
-0.095234
-0.0981386
-0.103027
-0.10967
-0.118083
-0.128443
-0.120558
-0.104503
-0.0932062
-0.094935
-0.0959282
-0.0982773
-0.10169
-0.106417
-0.112994
-0.12182
-0.120898
-0.108938
-0.0954533
-0.0964293
-0.0970173
-0.0985408
-0.100329
-0.102137
-0.103974
-0.107241
-0.108761
-0.104533
-0.0977272
-0.0984696
-0.0987613
-0.0996295
-0.100331
-0.1005
-0.0998231
-0.0991399
-0.0995553
-0.100372
-0.100658
-0.101272
-0.10129
-0.101722
-0.101865
-0.101447
-0.100354
-0.0991543
-0.0988721
-0.0999152
392.744
392.335
391.605
390.611
389.498
388.39
387.384
386.554
385.944
385.474
392.99
392.532
391.751
390.675
389.475
388.285
387.173
386.229
385.509
384.966
393.555
393.075
392.213
390.991
389.586
388.141
386.758
385.547
384.588
383.875
394.57
393.984
392.96
391.461
389.701
387.867
386.065
384.39
382.998
382.01
396.004
395.214
393.917
392.035
389.819
387.444
384.925
382.503
380.467
379.055
397.842
396.571
394.753
392.252
389.377
386.254
383.032
379.515
376.148
374.195
401.924
399.857
397.13
393.652
389.84
385.858
381.226
372.571
358.481
358.172
400.007
378.159
349.088
325.961
307.808
293.844
264.516
195.661
131.006
138.148
182.862
131.389
80.7034
45.591
26.6189
15.7264
2.22718
-0.00675041
0.0242731
0.0608091
3.88366
0.29949
-0.01614
-0.0763394
-0.0995389
-0.116825
-0.0821296
-0.0449737
-0.0103997
0.0324061
-0.0741511
-0.0649382
-0.0529446
-0.0520377
-0.0615673
-0.0864001
-0.0967706
-0.069393
0.0312623
0.01707
-0.0649917
-0.0832487
-0.0713936
-0.0712012
-0.0797531
-0.0917632
-0.0998059
-0.110747
0.0139583
0.0803296
-0.0824235
-0.0886513
-0.0835314
-0.0812241
-0.0801249
-0.0865175
-0.0842999
-0.0674262
0.00333324
0.0539204
-0.104041
-0.0984406
-0.0937563
-0.0923516
-0.097186
-0.104165
-0.115224
-0.13162
-0.118777
0.0115847
-0.10239
-0.0966958
-0.0961789
-0.0961846
-0.0996458
-0.10461
-0.111239
-0.119537
-0.119156
-0.0949921
-0.0911305
-0.0955942
-0.0957438
-0.0970238
-0.0998504
-0.103646
-0.108201
-0.112837
-0.108384
-0.0969469
-0.0923537
-0.0945991
-0.0948519
-0.097002
-0.0993321
-0.101965
-0.104699
-0.10726
-0.105266
-0.0997845
-0.0925449
-0.0950609
-0.0952547
-0.0973113
-0.0990142
-0.100442
-0.101357
-0.101898
-0.101277
-0.0996187
-0.0939731
-0.0965984
-0.0968531
-0.0985149
-0.0996755
-0.100311
-0.100294
-0.0999764
-0.0997266
-0.0996598
-0.0968454
-0.0992377
-0.0993441
-0.100629
-0.101429
-0.101705
-0.101432
-0.100977
-0.100779
-0.100974
395.008
394.585
393.573
392.18
390.61
389.03
387.569
386.36
385.475
384.83
395.871
395.203
394.029
392.443
390.671
388.916
387.29
385.91
384.87
384.131
396.823
396.123
394.912
393.095
390.993
388.836
386.776
384.983
383.585
382.629
398.612
397.848
396.452
394.182
391.461
388.615
385.855
383.359
381.326
380.047
401.268
400.425
398.624
395.644
392.023
388.17
384.327
380.694
377.781
376.059
405.561
404.069
401.459
397.269
392.212
386.859
381.575
376.374
371.75
369.572
413.279
410.88
407.05
400.901
393.552
385.804
377.961
362.042
337.825
337.96
423.304
418.729
411.483
373.399
326.103
276.268
220.689
149.596
83.9695
90.2567
383.089
313.745
218.814
111.955
45.6651
11.7044
0.0128579
0.0154363
0.038708
0.0575122
166.192
66.4276
9.96709
-0.0353927
-0.0943995
-0.0796695
-0.0505776
-0.00862912
-0.00237944
0.0290201
0.446186
-0.108063
-0.071765
-0.0562936
-0.0591325
-0.0681843
-0.0751048
-0.0333364
-0.040203
-0.0145603
-0.0838938
-0.104884
-0.0832804
-0.0708118
-0.0724199
-0.0823333
-0.0946589
-0.0967666
-0.0829101
0.00535713
-0.1327
-0.113436
-0.0870384
-0.0823865
-0.0739523
-0.0802916
-0.0984547
-0.0873546
0.00999705
0.0563197
-0.160463
-0.115841
-0.0986371
-0.0922046
-0.0899789
-0.0947297
-0.103313
-0.116548
-0.119391
0.00812933
-0.127738
-0.110056
-0.101231
-0.0966302
-0.0971732
-0.0992014
-0.10287
-0.109325
-0.11325
-0.0922441
-0.0784788
-0.0977982
-0.0976248
-0.0964026
-0.0976544
-0.0992128
-0.101268
-0.104056
-0.102295
-0.0933159
-0.0827488
-0.0914017
-0.0934384
-0.0953627
-0.0972972
-0.0987618
-0.0999341
-0.100724
-0.0987847
-0.0949878
-0.0797999
-0.0909964
-0.0925347
-0.0954169
-0.0974381
-0.0986672
-0.0992671
-0.0993209
-0.0984111
-0.096956
-0.0820666
-0.0922593
-0.0939693
-0.0968024
-0.0985699
-0.099508
-0.0997774
-0.09966
-0.0992788
-0.0988289
-0.0868045
-0.0946251
-0.0964622
-0.0990799
-0.100561
-0.101329
-0.101508
-0.101431
-0.10129
-0.101189
397.023
396.522
395.329
393.565
391.597
389.617
387.769
386.223
385.095
384.291
398.519
397.72
396.147
394.023
391.74
389.492
387.408
385.654
384.335
383.423
399.798
398.863
397.217
394.909
392.21
389.46
386.825
384.52
382.741
381.584
402.095
401.103
399.273
396.423
392.937
389.276
385.661
382.481
379.892
378.383
405.895
404.68
402.316
398.543
393.834
388.805
383.88
379.168
375.511
373.589
412.114
410.181
406.763
401.278
394.544
387.345
380.436
373.891
368.192
365.687
422.431
419.426
414.534
406.708
396.651
385.634
374.386
351.438
316.806
315.97
435.997
431.145
423.915
409.547
345.041
261.852
183.431
119.519
55.18
60.1131
452.476
443.154
366.053
213.862
77.4687
14.7278
0.0459273
0.017291
0.0451994
0.0541955
465.269
316.864
121.713
9.52847
-0.0633062
-0.0403308
-0.0154631
0.0412116
0.00271831
0.0339778
241.135
50.724
0.0411998
-0.0703608
-0.0574269
-0.0581236
-0.0647884
-0.025343
-0.045368
-0.0188878
13.2551
0.0286723
-0.0194006
-0.0712078
-0.0697882
-0.0686711
-0.0799954
-0.0810653
-0.0864241
-0.0528409
-0.108828
-0.0768327
-0.0721082
-0.0797502
-0.0809248
-0.0718095
-0.0881516
-0.085782
0.00753287
0.00689933
4.85819
-0.144347
-0.110076
-0.0940484
-0.0898546
-0.0872291
-0.0952821
-0.104533
-0.114233
-0.0308266
32.9837
-0.129003
-0.11155
-0.0972397
-0.0963506
-0.0952634
-0.0970825
-0.102052
-0.105995
-0.0870788
8.17024
-0.0868202
-0.0951778
-0.0966068
-0.0969815
-0.0963704
-0.0969849
-0.0989921
-0.098264
-0.0903655
-0.0743104
-0.0855474
-0.0843193
-0.0940133
-0.0959667
-0.0965412
-0.0969546
-0.0970838
-0.0948756
-0.0916602
-0.0803978
-0.0835626
-0.0819606
-0.0937302
-0.0961672
-0.0971826
-0.0976178
-0.0975441
-0.0962931
-0.0944934
-0.0788121
-0.0863554
-0.0883025
-0.095622
-0.0977499
-0.0986557
-0.0990039
-0.0989734
-0.0984838
-0.0977505
-0.0823228
-0.0907058
-0.093192
-0.0971017
-0.100062
-0.100822
-0.101156
-0.101259
-0.101145
-0.100891
395.967
398.174
396.462
394.552
392.307
390.061
387.935
386.137
384.823
383.89
396.6
399.979
397.695
395.167
392.499
389.918
387.507
385.474
383.939
382.881
400.701
401.327
398.892
396.133
393.063
389.934
386.951
384.199
382.126
380.839
403.09
403.747
401.249
397.86
393.937
389.781
385.659
381.849
378.812
377.137
407.495
407.673
404.868
400.364
395.059
389.293
383.476
378.022
373.804
371.812
415.03
414.32
410.283
403.831
396.226
387.919
379.678
372.102
365.531
362.743
426.921
425.242
419.457
410.41
399.125
386.382
373.509
343.033
298.39
295.892
443.231
439.067
431.235
418.299
370.009
274.67
169.294
94.5724
36.9844
40.9111
462.748
455.609
441.867
305.429
121.06
26.6484
0.517533
0.00953752
0.0567581
0.0600922
488.305
479.397
320.595
63.9367
0.203137
-0.064021
0.0247122
0.0243728
0.00717178
0.0410329
519.534
488.948
55.8927
-0.121666
-0.0527788
-0.0483492
-0.0538725
-0.0557286
-0.0475923
-0.0195297
536.183
218.699
-0.0226237
-0.0780624
-0.0695055
-0.0607072
-0.0688419
-0.0747947
-0.0751488
-0.0584492
516.058
24.0196
-0.0642229
-0.0812083
-0.0795039
-0.075864
-0.0823275
-0.0818337
-0.0541368
-0.0724563
562.477
39.663
-0.137732
-0.10027
-0.0923946
-0.0872544
-0.0906802
-0.0913221
-0.0815095
-0.0790422
530.731
33.2432
-0.142927
-0.103129
-0.0982356
-0.093355
-0.0937003
-0.096448
-0.0988636
-0.0804815
152.062
-0.107965
-0.126038
-0.104606
-0.100088
-0.0950847
-0.0945774
-0.0961448
-0.0964473
-0.0838542
13.7171
-0.0678601
-0.109105
-0.0952964
-0.0968854
-0.0950878
-0.0949912
-0.0950207
-0.0932846
-0.0898483
14.9668
-0.056414
-0.0918236
-0.0946338
-0.0963054
-0.0958953
-0.0962477
-0.096069
-0.0944702
-0.0925823
13.7256
-0.0417679
-0.0959867
-0.0971466
-0.0979873
-0.097719
-0.0981151
-0.0982123
-0.0976644
-0.0967387
11.8977
0.0174708
-0.10064
-0.0997399
-0.100112
-0.0999941
-0.100484
-0.100782
-0.100717
-0.100395
392.509
397.12
396.961
395.033
392.728
390.32
388.054
386.103
384.674
383.652
379.709
399.912
398.523
395.936
392.995
390.151
387.626
385.39
383.713
382.504
362.606
402.971
399.788
396.925
393.584
390.213
386.969
384.026
381.796
380.501
347.26
405.219
402.22
398.668
394.491
390.104
385.669
381.51
378.198
376.427
330.222
409.176
406.028
401.233
395.736
389.671
383.389
377.424
372.852
370.848
306.462
416.214
412.22
405.257
397.296
388.521
379.41
371.168
364.085
361.058
284.254
428.07
422.354
412.67
400.933
387.49
373.106
337.784
286.491
283.309
277.015
443.502
435.532
422.175
391.037
295.53
170.748
80.5751
27.8809
30.7006
290.717
461.812
451.647
363.669
164.807
42.633
1.34967
0.012509
0.0625012
0.0666897
403.525
487.715
454.148
142.078
1.14361
-0.0999124
0.0251507
0.0256442
0.0155865
0.0480642
515.523
522.187
213.226
-0.0245469
-0.0341257
-0.0533288
-0.0549211
-0.0530593
-0.0360895
-0.0125415
557.863
542.214
12.5132
-0.048984
-0.0363387
-0.0543589
-0.0637388
-0.0645517
-0.0630264
-0.0484902
603.253
512.39
-0.0847562
-0.0845711
-0.0731223
-0.0724503
-0.0775485
-0.0621285
-0.0754821
-0.0676705
592.805
542.469
1.66892
-0.108696
-0.0926388
-0.0858655
-0.0867721
-0.0583433
-0.0617235
-0.0784856
488.857
481.804
20.187
-0.131547
-0.102753
-0.092133
-0.0914892
-0.080178
-0.0692216
-0.0782727
526.116
191.616
1.84109
-0.118312
-0.103011
-0.0939618
-0.0932399
-0.0943117
-0.0951296
-0.0810118
573.706
13.7872
1.00908
-0.0867552
-0.0966939
-0.0931791
-0.0938034
-0.0940312
-0.0929659
-0.0886624
570.188
-0.0458241
-0.0438397
-0.0841771
-0.094797
-0.0942329
-0.0953504
-0.0953673
-0.0939212
-0.0920748
494.746
-0.0751493
-0.069317
-0.089673
-0.0969429
-0.0965452
-0.097538
-0.0977848
-0.097199
-0.0962015
510.119
-0.0628588
-0.0604413
-0.0917205
-0.0989463
-0.0991925
-0.10013
-0.1005
-0.100402
-0.100041
391.87
395.429
396.821
394.971
392.714
390.308
388.041
386.087
384.654
383.629
379.357
395.461
398.33
395.87
392.966
390.135
387.614
385.371
383.688
382.463
361.428
401.072
399.671
396.88
393.559
390.192
386.941
383.995
381.763
380.482
343.688
405.267
402.107
398.632
394.513
390.103
385.63
381.46
378.144
376.373
325.725
409.196
405.963
401.27
395.844
389.707
383.337
377.34
372.766
370.78
303.164
416.556
412.302
405.399
397.49
388.571
379.287
370.905
363.887
360.901
287.556
428.724
422.55
412.873
401.163
387.594
372.986
336.704
285.46
282.338
281.843
444.266
435.753
422.371
392.168
295.849
169.732
77.8263
26.4504
30.2706
336.24
462.15
451.643
364.934
170.112
44.9438
1.72493
0.0184364
0.0622331
0.065005
466.212
487.293
451.592
147.8
1.72597
-0.117014
-0.013466
5.29464e-05
0.0184528
0.0491689
527.049
521.275
187.46
-0.211234
-0.0375974
-0.0630113
-0.0558161
-0.0463002
-0.0299155
-0.00894992
557.566
545.937
7.94109
-0.0442654
-0.0383831
-0.0556959
-0.064606
-0.0617672
-0.0578249
-0.043602
488.816
483.924
-0.0961415
-0.0866734
-0.0744605
-0.0732213
-0.077313
-0.056726
-0.0577632
-0.0640866
459.987
454.341
-0.11339
-0.0955334
-0.0965567
-0.0873708
-0.0864149
-0.0552376
-0.0601566
-0.0725466
563.653
533.641
5.90058
-0.116095
-0.107603
-0.0938032
-0.0913551
-0.074389
-0.063052
-0.0727472
659.246
534.091
22.5841
-0.127423
-0.104755
-0.0933194
-0.0927932
-0.0932598
-0.0929257
-0.0803603
665.047
175.902
11.353
-0.0759716
-0.0959164
-0.0920985
-0.0933469
-0.093449
-0.0927585
-0.0890026
625.316
-0.0994038
0.42482
-0.0585126
-0.0972038
-0.0933047
-0.0953236
-0.0950689
-0.09377
-0.0920647
626.863
-0.0669163
-0.0615058
-0.0861132
-0.0999879
-0.0964635
-0.0976381
-0.0975831
-0.0970023
-0.0960299
670.562
1.98204
-0.0908036
-0.104928
-0.102774
-0.099781
-0.100259
-0.100295
-0.100161
-0.0997985
396.028
398.153
396.399
394.517
392.28
390.031
387.9
386.091
384.77
383.832
396.747
399.834
397.584
395.127
392.467
389.889
387.482
385.421
383.874
382.809
401.102
401.171
398.754
396.075
393.037
389.903
386.874
384.116
382.034
380.75
404.902
403.499
401.023
397.781
393.93
389.751
385.573
381.724
378.671
376.998
408.678
407.466
404.623
400.336
395.107
389.28
383.335
377.824
373.59
371.641
415.954
414.142
410.123
403.866
396.303
387.887
379.376
371.544
364.971
362.345
428.345
425.059
419.274
410.359
399.248
386.536
373.373
342.245
296.532
293.826
444.381
439.033
431.094
418.221
371.249
276.791
167.9
88.3872
34.357
39.3793
462.739
455.536
438.314
299.736
123.91
29.348
0.899805
0.00874725
0.0594275
0.0547571
487.83
475.557
294.95
58.9008
0.0931714
-0.084995
0.0288349
-0.00262641
0.0127782
0.038512
519.603
477.554
38.8646
-0.11945
-0.0389665
-0.0613691
-0.0607041
-0.0539651
-0.0364693
-0.0150551
540.828
265.309
-0.0207022
-0.07893
-0.0638685
-0.0625763
-0.0693995
-0.0638387
-0.0634945
-0.0478384
488.182
53.8888
-0.112989
-0.0839575
-0.0819924
-0.0776082
-0.0804804
-0.0678009
-0.059214
-0.0670825
452.593
24.9041
-0.128884
-0.0890903
-0.0944453
-0.0897118
-0.0894698
-0.0773719
-0.0631131
-0.0750848
498.26
-0.170783
0.0389187
-0.110581
-0.100992
-0.0959409
-0.0931492
-0.0898978
-0.0866984
-0.0723915
540.416
0.815516
1.73664
-0.0576664
-0.101743
-0.0964338
-0.0941452
-0.0938499
-0.0955372
-0.0819745
422.603
12.791
0.287997
-0.0972126
-0.0951644
-0.0944224
-0.0944927
-0.0938794
-0.0925684
-0.089164
98.7183
3.92485
-0.0812121
-0.0897403
-0.0976318
-0.0951342
-0.0959293
-0.0953621
-0.0939243
-0.0922135
12.2178
0.28341
-0.0694013
-0.0916728
-0.0983355
-0.0968306
-0.0976131
-0.0975866
-0.0970364
-0.0961322
16.5777
-0.0771967
-0.0888866
-0.0959003
-0.0995489
-0.0993205
-0.0999046
-0.100134
-0.100023
-0.0996969
396.926
396.426
395.266
393.514
391.547
389.559
387.702
386.147
385.013
384.204
398.495
397.644
396.068
393.963
391.682
389.428
387.335
385.566
384.238
383.323
399.738
398.804
397.163
394.86
392.159
389.393
386.742
384.402
382.61
381.454
402.068
401.044
399.197
396.374
392.884
389.192
385.593
382.313
379.702
378.2
405.807
404.614
402.259
398.526
393.81
388.703
383.591
378.872
375.202
373.345
412.115
410.116
406.678
401.264
394.524
387.216
380
373.153
367.415
365.162
422.467
419.294
414.218
406.483
396.617
385.749
374.521
350.319
314.13
313.665
435.889
431.145
423.759
408.411
345.565
265.203
183.247
110.539
50.8268
57.9197
452.058
439.403
353.717
205.861
74.1238
16.9894
0.182611
0.0105946
0.041664
0.0434441
456.793
298.217
108.943
8.2692
-0.0831158
-0.0797704
0.0412543
-0.00932468
-0.00153712
0.0211672
202.717
40.3892
0.000773091
-0.0615981
-0.0167991
-0.0635326
-0.0712346
-0.0682301
-0.0483371
-0.0235578
3.62691
1.455
-0.116965
-0.105146
-0.0794689
-0.0747376
-0.0758621
-0.0765476
-0.0518822
-0.0459878
-0.0850593
-0.100011
-0.125506
-0.0939529
-0.0880213
-0.0789047
-0.0830368
-0.0862073
-0.0802659
-0.066763
-0.122184
-0.0971405
-0.119854
-0.10584
-0.0960003
-0.0882467
-0.0923185
-0.0918232
-0.0922392
-0.0768232
4.69127
-0.110148
-0.127369
-0.118596
-0.101045
-0.0983007
-0.0946964
-0.0945316
-0.0977316
-0.0794582
21.2678
-0.112419
-0.0882952
-0.123393
-0.101065
-0.0989715
-0.0957162
-0.0947864
-0.0936179
-0.0839936
24.8194
0.637944
0.441996
-0.111902
-0.100333
-0.0979515
-0.0960996
-0.0947968
-0.092408
-0.0891661
16.2663
6.02123
0.776985
-0.106492
-0.0991772
-0.0970962
-0.0966668
-0.0959462
-0.0945568
-0.0927811
1.17739
4.02502
0.338697
-0.0970662
-0.0969367
-0.0971816
-0.0976916
-0.0976127
-0.0971067
-0.0963485
-0.0345361
-0.0368416
-0.0552078
-0.0910173
-0.0969792
-0.0984891
-0.0994771
-0.0998466
-0.0998177
-0.0995772
395.013
394.547
393.519
392.124
390.544
388.952
387.481
386.264
385.375
384.725
395.856
395.151
393.963
392.377
390.597
388.83
387.192
385.801
384.756
384.013
396.787
396.075
394.852
393.034
390.916
388.74
386.658
384.843
383.437
382.481
398.549
397.774
396.366
394.099
391.356
388.481
385.688
383.164
381.123
379.851
401.167
400.34
398.523
395.556
391.917
388.012
384.097
380.382
377.454
375.783
405.354
403.93
401.297
397.127
392.064
386.617
381.058
375.684
371.057
369.067
412.979
410.518
406.58
400.534
393.328
385.655
377.643
360.831
335.611
336.162
422.797
418.38
408.62
371.354
326.536
277.951
219.933
143.48
79.1297
87.207
370.619
303.564
208.456
105.541
45.1333
12.6793
0.0302222
0.00338271
0.0205006
0.0302184
153.919
65.6777
9.14227
0.0791909
-0.0433545
-0.0697039
0.113339
-0.0112043
-0.0177756
0.0071808
-0.181118
0.0914698
-0.0485836
-0.0713252
0.0483374
-0.0561869
-0.0754158
-0.0801407
-0.0554913
-0.0270072
-0.0698815
0.258239
-0.111119
-0.101589
-0.0994659
-0.0927238
-0.094306
-0.0816345
-0.0192053
-0.024772
-0.0861477
0.155182
-0.120777
-0.0747483
-0.0875154
-0.0805837
-0.0764874
-0.0960763
-0.0925267
-0.0497468
-0.109702
-0.0957436
-0.0783939
-0.101629
-0.0825486
-0.0854361
-0.0979172
-0.0983175
-0.101475
-0.074752
-0.128824
-0.108251
0.0298085
-0.111549
-0.0991063
-0.100512
-0.098552
-0.0980974
-0.0961662
-0.0787995
-0.137339
-0.131258
0.155669
-0.110061
-0.100456
-0.100738
-0.0986917
-0.0975118
-0.0942256
-0.0869934
-0.115385
0.0759311
0.307957
-0.10426
-0.100999
-0.0997587
-0.0983028
-0.0970375
-0.0945257
-0.0911411
-0.0738698
1.51167
0.272376
-0.103162
-0.0991352
-0.0984901
-0.0978157
-0.0969621
-0.0956768
-0.0942729
-0.0613094
0.909371
-9.70993e-05
-0.0948127
-0.0968754
-0.0979213
-0.0981304
-0.0978361
-0.0972932
-0.0967831
-0.069692
-0.0390578
-0.0822756
-0.0923282
-0.0970646
-0.0988859
-0.0995079
-0.0996391
-0.0995343
-0.0994125
392.707
392.283
391.538
390.536
389.412
388.295
387.282
386.447
385.835
385.362
392.932
392.466
391.671
390.589
389.379
388.18
387.061
386.11
385.388
384.843
393.505
393.022
392.142
390.906
389.482
388.021
386.622
385.401
384.44
383.727
394.491
393.92
392.869
391.347
389.562
387.708
385.885
384.197
382.806
381.824
395.873
395.123
393.806
391.908
389.66
387.247
384.679
382.205
380.167
378.793
397.604
396.385
394.566
392.073
389.163
385.937
382.561
378.918
375.603
373.819
401.478
399.478
396.782
393.379
389.542
385.45
380.659
371.469
357.139
357.374
396.817
374.212
347.056
326.802
309.615
292.3
260.368
189.665
125.978
134.986
173.976
127.083
78.5785
46.1701
30.1789
16.4857
2.54015
-0.0463443
-0.021232
0.0180014
2.31197
0.4693
0.166061
-0.0807533
-0.104807
-0.10048
-0.0752797
-0.0393448
-0.0272982
-0.000465521
-0.0676061
0.584749
0.133481
-0.0516684
-0.0783573
-0.0165362
0.101237
0.122961
-0.00773566
-0.0234091
-0.0647766
-0.0853794
0.119749
-0.0231553
-0.105794
-0.108627
-0.108337
-0.0997231
0.031801
0.000316236
-0.0777486
-0.0911954
-0.0456902
-0.0488825
-0.0691005
-0.083554
-0.0708042
-0.108203
-0.10008
-0.0225365
-0.0953731
-0.0879613
-0.0549616
-0.0907342
-0.0648866
-0.100176
-0.1047
-0.106699
-0.107552
-0.074661
-0.105319
-0.1047
-0.0938872
-0.10425
-0.100483
-0.103457
-0.104285
-0.104794
-0.100954
-0.0881487
-0.109063
-0.118514
-0.100576
-0.108383
-0.101976
-0.103018
-0.103351
-0.10371
-0.100001
-0.0926081
-0.10937
-0.137173
-0.104715
-0.107947
-0.101267
-0.101284
-0.101369
-0.101333
-0.0994584
-0.0957829
-0.0978825
-0.118039
-0.101372
-0.101042
-0.0992945
-0.0992043
-0.0990175
-0.0984484
-0.0974571
-0.0963339
-0.0888783
-0.0870703
-0.0917277
-0.0957258
-0.0974882
-0.0983016
-0.0983265
-0.0978204
-0.0972538
-0.0971268
-0.0910977
-0.0834491
-0.0908687
-0.0951122
-0.0977338
-0.098977
-0.0992686
-0.0990643
-0.0988242
-0.0989168
390.279
390.009
389.531
388.929
388.28
387.666
387.121
386.68
386.354
386.061
390.093
389.862
389.397
388.805
388.164
387.534
386.954
386.464
386.082
385.744
390.143
389.871
389.357
388.709
388
387.29
386.615
386.018
385.52
385.074
390.07
389.723
389.156
388.445
387.681
386.898
386.09
385.3
384.594
383.956
389.711
389.273
388.674
387.969
387.208
386.304
385.256
384.146
383.085
382.124
388.616
387.934
387.232
386.592
385.889
385.04
383.944
382.251
380.461
379.066
387.917
386.764
385.884
385.627
385.349
384.524
382.933
379.189
374.03
373.286
301.559
280.519
267.454
278.129
291.496
289.331
282.754
254.237
202.196
208.174
45.4521
30.3362
18.107
13.3173
16.3125
18.8715
15.7816
0.712605
0.0588251
0.120987
-0.096318
-0.0318658
0.0617713
-0.0592432
-0.0839906
-0.0954262
-0.0793997
-0.0240103
-0.00731873
0.0360104
-0.0511067
-0.0316081
0.30689
0.286768
-0.0591396
-0.0978453
0.131258
0.180541
0.213899
0.07638
-0.0591984
-0.0672402
-0.0744676
-0.0605259
-0.0914292
-0.0982383
-0.0894125
-0.0887448
0.156414
0.134308
-0.0732041
-0.0788126
-0.0753656
-0.0768788
-0.0799293
0.00289141
-0.0276432
-0.117673
-0.104328
-0.0165224
-0.084705
-0.0867842
-0.0832852
-0.0799128
-0.0956044
-0.106475
-0.110019
-0.114342
-0.112035
-0.088827
-0.0921315
-0.0956263
-0.0927905