/*--------------------------------*- C++ -*----------------------------------*\
| =========                 |                                                 |
| \\      /  F ield         | OpenFOAM: The Open Source CFD Toolbox           |
|  \\    /   O peration     | Version:  2312                                  |
|   \\  /    A nd           | Website:  www.openfoam.com                      |
|    \\/     M anipulation  |                                                 |
\*---------------------------------------------------------------------------*/
FoamFile
{
    version     2.0;
    format      ascii;
    arch        "LSB;label=32;scalar=64";
    class       surfaceScalarField;
    location    "0.265";
    object      phi;
}
// * * * * * * * * * * * * * * * * * * * * * * * * * * * * * * * * * * * * * //

dimensions      [0 3 -1 0 0 0 0];

oriented        oriented;

internalField   nonuniform List<scalar> 
22600
(
-1.06576e-07
-1.47224e-07
2.66814e-07
-2.15663e-07
-1.55143e-07
2.64231e-07
-3.03276e-07
-1.68496e-07
2.56109e-07
-3.59995e-07
-1.83817e-07
2.40536e-07
-3.79868e-07
-1.989e-07
2.18773e-07
-3.62021e-07
-2.11569e-07
1.93723e-07
-3.08691e-07
-2.21799e-07
1.68469e-07
-2.24256e-07
-2.30933e-07
1.46498e-07
-1.1271e-07
-2.45933e-07
1.34386e-07
-2.27629e-07
1.14919e-07
-8.57565e-08
-3.06347e-07
2.59249e-07
-1.77719e-07
-3.20043e-07
2.56862e-07
-2.52943e-07
-3.42067e-07
2.48794e-07
-3.03505e-07
-3.65992e-07
2.32737e-07
-3.23302e-07
-3.88788e-07
2.09684e-07
-3.10649e-07
-4.07694e-07
1.83471e-07
-2.66633e-07
-4.22716e-07
1.56902e-07
-1.94997e-07
-4.35778e-07
1.33208e-07
-9.97648e-08
-4.59934e-07
1.18769e-07
-4.29551e-07
1.02157e-07
-9.99524e-08
-5.46154e-07
3.52766e-07
-2.01647e-07
-5.6267e-07
3.44322e-07
-2.84821e-07
-5.88343e-07
3.29451e-07
-3.39512e-07
-6.1529e-07
3.0399e-07
-3.59498e-07
-6.38192e-07
2.69391e-07
-3.43789e-07
-6.54045e-07
2.30642e-07
-2.94813e-07
-6.64508e-07
1.92815e-07
-2.16363e-07
-6.73591e-07
1.59364e-07
-1.14864e-07
-6.98724e-07
1.37291e-07
-6.61578e-07
1.17163e-07
-1.02682e-07
-9.29505e-07
4.9704e-07
-2.03821e-07
-9.38322e-07
4.76791e-07
-2.86644e-07
-9.50775e-07
4.45254e-07
-3.40457e-07
-9.6282e-07
4.01344e-07
-3.60106e-07
-9.658e-07
3.47257e-07
-3.44842e-07
-9.5853e-07
2.89221e-07
-2.96853e-07
-9.45203e-07
2.32707e-07
-2.19898e-07
-9.34077e-07
1.83531e-07
-1.22965e-07
-9.44948e-07
1.49292e-07
-9.09822e-07
1.25279e-07
-9.63618e-08
-1.62165e-06
7.95078e-07
-1.89315e-07
-1.59887e-06
7.53499e-07
-2.67306e-07
-1.54791e-06
6.7513e-07
-3.16269e-07
-1.49275e-06
5.78894e-07
-3.31473e-07
-1.42884e-06
4.7824e-07
-3.15464e-07
-1.35286e-06
3.78322e-07
-2.7285e-07
-1.27454e-06
2.86722e-07
-2.05871e-07
-1.21094e-06
2.09888e-07
-1.21918e-07
-1.1851e-06
1.56199e-07
-1.15607e-06
1.24328e-07
-7.96792e-08
-2.81945e-06
1.27908e-06
-1.54153e-07
-2.74209e-06
1.21769e-06
-2.28371e-07
-2.56308e-06
1.08939e-06
-2.79414e-07
-2.35616e-06
9.14452e-07
-2.91619e-07
-2.14096e-06
7.24325e-07
-2.73462e-07
-1.91578e-06
5.44759e-07
-2.3752e-07
-1.69883e-06
3.88349e-07
-1.86582e-07
-1.52097e-06
2.59093e-07
-1.15129e-07
-1.42473e-06
1.6818e-07
-1.38921e-06
1.18013e-07
6.13742e-08
-4.34512e-06
1.45403e-06
1.15041e-07
-4.21066e-06
1.41491e-06
8.78173e-08
-3.89892e-06
1.36306e-06
-6.84664e-09
-3.50296e-06
1.24146e-06
-9.82711e-08
-3.07468e-06
1.02514e-06
-1.48805e-07
-2.63608e-06
7.70832e-07
-1.71455e-07
-2.22164e-06
5.45462e-07
-1.73548e-07
-1.87692e-06
3.58041e-07
-1.27718e-07
-1.6843e-06
2.1374e-07
-1.64918e-06
1.3225e-07
4.51243e-07
-5.82107e-06
9.90933e-07
8.58248e-07
-5.5917e-06
9.74034e-07
1.079e-06
-5.14192e-06
1.02225e-06
1.04734e-06
-4.56788e-06
1.09658e-06
8.18672e-07
-3.90431e-06
1.05831e-06
5.20347e-07
-3.18566e-06
8.47912e-07
2.44093e-07
-2.54222e-06
5.96829e-07
1.48825e-09
-2.04797e-06
4.13654e-07
-1.09449e-07
-1.82847e-06
2.55106e-07
-1.87515e-06
1.16528e-07
8.04423e-07
-7.22587e-06
7.13722e-07
1.33883e-06
-6.84792e-06
7.21807e-07
1.75002e-06
-6.13852e-06
5.85409e-07
2.0971e-06
-5.40061e-06
4.85653e-07
2.28791e-06
-4.6489e-06
5.5378e-07
2.08424e-06
-3.64455e-06
6.62555e-07
1.54973e-06
-2.5455e-06
5.3779e-07
8.98702e-07
-1.66229e-06
2.65348e-07
2.71205e-07
-1.23175e-06
3.07729e-08
-1.33768e-06
-2.66266e-07
7.56072e-07
-5.72001e-06
-1.48567e-06
1.97647e-07
-5.31252e-06
-9.76983e-07
-6.03153e-07
-4.61037e-06
-7.27347e-07
-6.3965e-07
-4.79754e-06
-5.66568e-07
1.43162e-06
-6.4087e-06
-3.11477e-07
3.11287e-06
-6.14007e-06
8.14274e-07
3.66473e-06
-4.37548e-06
1.27812e-06
3.05277e-06
-1.77666e-06
7.26338e-07
1.73366e-06
5.6076e-07
-4.73399e-07
2.10061e-06
-1.70463e-06
6.42059e-07
-3.01502e-06
-2.75672e-06
2.35387e-07
-2.65696e-06
-2.24889e-06
-4.79807e-07
-1.91602e-06
-1.97915e-06
-4.46801e-07
-1.64619e-06
-3.18436e-06
-4.74753e-08
-2.43088e-06
-4.37715e-06
1.57129e-06
-3.29143e-06
-4.46742e-06
3.92681e-06
-4.20731e-06
-2.5237e-06
5.2145e-06
-3.44218e-06
3.77831e-07
3.34354e-06
1.74541e-06
6.86311e-07
8.61504e-06
-3.17089e-06
2.172e-07
-1.78229e-07
-2.91164e-06
-1.06778e-07
4.54246e-07
-2.78723e-06
-7.83663e-07
1.22332e-06
-2.46246e-06
-7.34558e-07
1.6218e-06
-3.31709e-06
5.74476e-07
1.62377e-06
-5.36369e-06
2.85077e-06
1.46996e-06
-7.03768e-06
4.8206e-06
6.49605e-07
-6.82674e-06
4.44256e-06
7.83793e-07
-3.84794e-06
1.25593e-06
5.64254e-06
-7.10509e-07
1.26227e-05
-2.75169e-06
7.27877e-07
1.33166e-06
-2.20857e-06
9.95709e-07
1.99806e-06
-1.81166e-06
6.80779e-07
2.66735e-06
-1.1291e-06
5.50973e-07
2.62658e-06
-8.74977e-07
1.37009e-06
1.96185e-06
-1.15721e-06
3.23085e-06
1.49769e-06
-1.88849e-06
4.94747e-06
1.94801e-06
-3.01503e-06
4.80985e-06
4.12695e-06
-3.20554e-06
2.18836e-06
1.0364e-05
-2.09994e-06
1.88267e-05
-4.0157e-06
8.16667e-07
1.54851e-06
-9.41658e-07
1.20831e-06
2.00581e-06
-3.99391e-07
9.07704e-07
2.56e-06
4.07944e-07
5.66108e-07
1.81195e-06
1.15622e-06
9.16127e-07
-2.79182e-07
1.89101e-06
1.81616e-06
-1.60138e-06
2.19904e-06
2.76848e-06
-1.10812e-06
2.10381e-06
2.5324e-06
4.21286e-06
1.5017e-07
5.30735e-07
1.43453e-05
-1.97964e-06
2.09653e-05
-1.60784e-06
2.73397e-07
1.43631e-06
7.33727e-08
1.00913e-08
1.65809e-06
6.11035e-07
-3.61263e-07
1.48545e-06
1.44591e-06
-3.49481e-07
-3.4474e-07
2.14491e-06
-4.07493e-07
-2.33555e-06
2.11439e-06
-9.15177e-07
-3.01409e-06
1.92039e-06
-1.90324e-06
-2.57241e-06
2.45235e-06
-2.69869e-06
2.83866e-06
2.16965e-06
-2.45221e-06
1.34764e-05
6.22437e-07
1.64552e-05
2.05788e-06
-1.62929e-07
6.31338e-07
1.30655e-06
-6.23207e-07
4.61584e-07
1.65678e-06
-6.50715e-07
-6.10805e-07
2.12376e-06
-7.35615e-07
-2.11439e-06
1.85455e-06
-1.54922e-06
-2.57088e-06
1.04892e-06
-2.7945e-06
-2.53038e-06
7.61575e-07
-4.56696e-06
-2.06372e-06
1.26379e-06
-5.61111e-06
1.19315e-06
2.68966e-06
-3.69196e-06
8.03499e-06
3.52222e-06
8.87722e-06
3.88605e-06
-8.90182e-09
-1.12983e-06
2.0168e-06
-1.07741e-07
-1.43491e-06
1.99534e-06
-2.67509e-07
-2.12426e-06
1.67323e-06
-8.97242e-07
-2.47693e-06
9.9227e-07
-1.73064e-06
-2.34577e-06
6.08288e-07
-2.63611e-06
-2.00402e-06
3.79117e-07
-3.83959e-06
-1.28854e-06
4.28294e-07
-4.43116e-06
3.26945e-07
1.45778e-06
-2.64782e-06
3.20498e-06
3.04668e-06
3.29242e-06
2.93698e-06
1.63877e-07
-2.43652e-06
1.41982e-06
6.73898e-09
-2.49424e-06
1.21647e-06
-3.83885e-07
-2.5718e-06
8.38161e-07
-9.09804e-07
-2.51903e-06
5.6802e-07
-1.40534e-06
-2.28928e-06
4.39048e-07
-1.88017e-06
-1.87431e-06
3.45127e-07
-2.27845e-06
-1.20581e-06
3.15545e-07
-2.27833e-06
-1.75802e-07
5.02631e-07
-1.13929e-06
9.1348e-07
1.15246e-06
8.28049e-07
1.32508e-06
1.89783e-07
-2.87406e-06
6.43647e-07
-5.79643e-08
-2.82049e-06
5.73991e-07
-3.67197e-07
-2.73851e-06
4.75932e-07
-7.03253e-07
-2.58631e-06
4.03335e-07
-1.02459e-06
-2.31875e-06
3.50821e-07
-1.28503e-06
-1.93212e-06
3.18259e-07
-1.39595e-06
-1.41259e-06
3.17693e-07
-1.18041e-06
-7.65573e-07
3.7424e-07
-5.629e-07
-2.34787e-07
5.30762e-07
-3.9821e-07
6.63356e-07
2.42563e-07
3.57443e-07
-3.03502e-06
2.57523e-08
3.55704e-07
-2.95937e-06
-2.13804e-07
3.32831e-07
-2.83178e-06
-4.59698e-07
3.04697e-07
-2.64511e-06
-6.75146e-07
2.81075e-07
-2.38438e-06
-8.2239e-07
2.7102e-07
-2.0559e-06
-8.44235e-07
2.77632e-07
-1.66837e-06
-6.73106e-07
3.10958e-07
-1.24765e-06
-3.3467e-07
3.77938e-07
-9.5116e-07
4.11056e-07
-1.14394e-06
-1.60961e-07
-2.44706e-07
6.86722e-07
-3.11306e-07
-2.44307e-07
6.58884e-07
-4.1974e-07
-2.48234e-07
6.12777e-07
-4.78806e-07
-2.5063e-07
5.50231e-07
-4.87357e-07
-2.52349e-07
4.79672e-07
-4.50296e-07
-2.53406e-07
4.10067e-07
-3.74422e-07
-2.54603e-07
3.47199e-07
-2.67073e-07
-2.5828e-07
2.97429e-07
-1.32165e-07
-2.71895e-07
2.71374e-07
-2.45841e-07
2.28596e-07
-1.27351e-07
-5.18359e-07
6.76358e-07
-2.52811e-07
-5.04439e-07
6.42454e-07
-3.44371e-07
-4.98921e-07
5.91041e-07
-3.97271e-07
-4.92419e-07
5.27427e-07
-4.09309e-07
-4.85603e-07
4.54977e-07
-3.82469e-07
-4.80655e-07
3.83881e-07
-3.21122e-07
-4.78276e-07
3.19227e-07
-2.30898e-07
-4.81571e-07
2.66276e-07
-1.16345e-07
-5.0339e-07
2.3571e-07
-4.59812e-07
1.99783e-07
-1.40811e-07
-8.66605e-07
8.56774e-07
-2.82658e-07
-8.33441e-07
8.15172e-07
-3.85996e-07
-8.10018e-07
7.43886e-07
-4.44244e-07
-7.8896e-07
6.58778e-07
-4.56223e-07
-7.66834e-07
5.626e-07
-4.25226e-07
-7.47509e-07
4.66499e-07
-3.56943e-07
-7.32914e-07
3.79171e-07
-2.57897e-07
-7.28705e-07
3.07452e-07
-1.35024e-07
-7.51543e-07
2.6257e-07
-6.98613e-07
2.2094e-07
-1.3515e-07
-1.33957e-06
1.11769e-06
-2.7689e-07
-1.27679e-06
1.06188e-06
-3.84629e-07
-1.21751e-06
9.6049e-07
-4.46714e-07
-1.16249e-06
8.3696e-07
-4.62038e-07
-1.10526e-06
7.01001e-07
-4.33195e-07
-1.05173e-06
5.64596e-07
-3.6578e-07
-1.00912e-06
4.41499e-07
-2.67117e-07
-9.83919e-07
3.40081e-07
-1.47066e-07
-9.94038e-07
2.71736e-07
-9.4485e-07
2.2445e-07
-1.27773e-07
-1.97767e-06
1.56759e-06
-2.61439e-07
-1.88449e-06
1.49486e-06
-3.6682e-07
-1.77472e-06
1.33772e-06
-4.28603e-07
-1.66264e-06
1.14083e-06
-4.44875e-07
-1.54044e-06
9.29698e-07
-4.19761e-07
-1.41996e-06
7.2144e-07
-3.58746e-07
-1.31671e-06
5.3329e-07
-2.66557e-07
-1.24501e-06
3.78788e-07
-1.53745e-07
-1.22186e-06
2.71211e-07
-1.18488e-06
2.10615e-07
-1.57301e-07
-2.64492e-06
2.10382e-06
-2.97829e-07
-2.54451e-06
2.01824e-06
-3.96457e-07
-2.41705e-06
1.83035e-06
-4.44626e-07
-2.2726e-06
1.57257e-06
-4.46171e-07
-2.09039e-06
1.27582e-06
-4.14192e-07
-1.88166e-06
9.74485e-07
-3.5785e-07
-1.67867e-06
6.93971e-07
-2.76323e-07
-1.52258e-06
4.55138e-07
-1.65286e-07
-1.44632e-06
2.81599e-07
-1.42383e-06
1.91677e-07
-1.43253e-07
-3.26997e-06
2.21741e-06
-2.9161e-07
-3.13516e-06
2.15392e-06
-4.03604e-07
-2.97815e-06
2.03615e-06
-4.55725e-07
-2.82148e-06
1.84247e-06
-4.40579e-07
-2.62027e-06
1.53988e-06
-3.89964e-07
-2.34561e-06
1.18416e-06
-3.39054e-07
-2.01526e-06
8.31142e-07
-2.92076e-07
-1.74535e-06
5.33836e-07
-2.10541e-07
-1.61239e-06
2.98276e-07
-1.68029e-06
1.78168e-07
1.68496e-07
-4.95745e-06
2.52524e-06
1.65971e-07
-4.50297e-06
2.34436e-06
8.96196e-08
-4.0412e-06
2.16165e-06
2.5275e-08
-3.63744e-06
1.9769e-06
-8.24424e-09
-3.19917e-06
1.67072e-06
-2.93776e-08
-2.69853e-06
1.22197e-06
-6.33497e-08
-2.12108e-06
7.36625e-07
-1.58967e-07
-1.61633e-06
3.8025e-07
-2.51579e-07
-1.43345e-06
1.68777e-07
-1.81738e-06
2.03607e-09
7.67286e-07
-9.34832e-06
4.62455e-06
1.11205e-06
-8.35657e-06
4.23064e-06
1.36875e-06
-6.20668e-06
2.49418e-06
1.48071e-06
-5.60338e-06
2.33963e-06
1.50888e-06
-4.85391e-06
2.18036e-06
1.3465e-06
-3.6659e-06
1.7923e-06
9.07679e-07
-2.30572e-06
1.16125e-06
3.6504e-07
-1.04913e-06
2.40784e-07
-1.79559e-08
-6.77838e-07
-3.41841e-07
-1.21578e-06
-8.85822e-07
1.14251e-06
-6.10113e-06
-5.28609e-06
1.75179e-06
-5.01153e-06
-4.93131e-06
3.35989e-06
-3.25034e-06
-5.2918e-06
3.89551e-06
-2.56446e-06
-4.14111e-06
3.57733e-06
-2.71194e-06
-2.13526e-06
3.33044e-06
-2.35981e-06
-2.44929e-07
2.89065e-06
-4.10046e-06
3.51265e-06
1.39997e-06
-2.12609e-06
3.29398e-06
5.26055e-07
1.06057e-06
-1.33789e-06
6.07923e-07
-3.00228e-06
1.31502e-07
-3.42949e-06
-5.34332e-06
8.53404e-08
-2.38294e-06
-4.83132e-06
1.0746e-06
-6.34761e-07
-5.58399e-06
2.31806e-06
1.39752e-06
-8.3898e-06
2.8525e-06
2.37887e-06
-1.00024e-05
4.01335e-06
1.70759e-06
-9.69566e-06
4.46988e-06
-3.24443e-07
-6.75625e-06
1.21829e-06
1.52272e-06
-1.93831e-08
-4.25126e-07
4.90893e-06
-1.51864e-06
2.2788e-06
-5.2669e-06
-1.14121e-06
-3.04967e-06
-2.20627e-06
-2.267e-06
-1.91821e-06
-2.12617e-06
-2.66816e-06
-9.60562e-07
-1.7355e-06
-1.23605e-06
-1.72357e-07
-3.17933e-06
1.44375e-06
1.02309e-06
-6.68771e-06
3.68817e-06
2.2601e-06
-9.83461e-06
3.96623e-06
3.96269e-06
-1.13919e-05
1.77737e-06
6.58946e-06
-6.72582e-06
-5.70155e-07
1.07114e-05
-4.1655e-06
5.3537e-06
-6.39674e-06
-1.21785e-06
-2.39146e-06
-1.28101e-06
-2.93215e-06
-1.36232e-06
-6.5325e-07
-4.14009e-06
-1.36048e-06
4.7876e-07
-3.99267e-06
-2.07133e-06
8.76568e-07
-2.31116e-06
-2.15401e-06
3.38388e-07
2.67498e-07
-7.75947e-07
-1.4311e-06
2.59217e-06
2.54018e-06
-3.91719e-06
1.99481e-06
8.26681e-06
-4.28553e-06
6.96215e-07
1.42327e-05
-4.3226e-06
9.08176e-06
-7.04754e-06
-1.00313e-06
-1.89086e-06
1.27799e-07
-2.22015e-06
-1.45115e-06
9.06463e-07
-2.81297e-06
-2.29499e-06
1.93527e-06
-2.59999e-06
-3.66913e-06
2.54104e-06
-1.64094e-06
-4.13592e-06
2.91387e-06
-1.36676e-07
-3.18421e-06
3.10304e-06
1.52562e-06
5.76834e-07
2.40485e-06
1.46507e-06
8.87056e-06
-3.93028e-07
7.03772e-07
1.62071e-05
-3.19271e-06
1.24014e-05
-4.22369e-06
-1.02038e-06
-1.64364e-06
1.63727e-06
-1.93059e-06
-1.87849e-06
1.94859e-06
-2.0927e-06
-2.94774e-06
2.26078e-06
-2.06748e-06
-3.90655e-06
2.3571e-06
-2.4757e-06
-3.8152e-06
2.20188e-06
-2.94992e-06
-3.1567e-06
2.3671e-06
-2.96166e-06
1.22571e-07
2.91836e-06
-1.98316e-06
7.5244e-06
2.53731e-06
-1.25328e-06
1.50119e-05
1.08776e-06
1.15814e-05
1.62462e-06
-3.41664e-07
-1.90509e-06
2.58499e-06
-9.0426e-07
-2.30398e-06
2.64486e-06
-1.09011e-06
-3.14484e-06
2.50672e-06
-1.76914e-06
-3.29218e-06
1.91922e-06
-3.2173e-06
-2.71495e-06
1.39684e-06
-5.10379e-06
-2.00465e-06
1.49601e-06
-6.39521e-06
-3.55755e-08
2.71335e-06
-5.86581e-06
4.99755e-06
4.68711e-06
-3.39361e-06
1.03106e-05
5.75126e-06
6.83947e-06
5.23433e-06
2.07602e-07
-2.43413e-06
2.7859e-06
5.96307e-09
-2.64094e-06
2.53393e-06
-5.33188e-07
-2.84143e-06
1.90896e-06
-1.55063e-06
-2.56167e-06
1.27921e-06
-2.66902e-06
-2.05888e-06
1.0706e-06
-4.07186e-06
-1.33447e-06
1.11177e-06
-5.46622e-06
-3.13489e-08
1.81843e-06
-5.39461e-06
2.67276e-06
3.71097e-06
-2.69331e-06
5.085e-06
5.57101e-06
2.74224e-06
4.3409e-06
2.8205e-07
-2.63777e-06
1.76733e-06
-4.33985e-08
-2.60647e-06
1.50745e-06
-6.61206e-07
-2.50284e-06
1.11737e-06
-1.3005e-06
-2.27362e-06
9.19268e-07
-1.88134e-06
-1.89932e-06
8.60334e-07
-2.46076e-06
-1.31453e-06
9.04606e-07
-2.9447e-06
-3.7609e-07
1.14423e-06
-2.56602e-06
9.80986e-07
1.81574e-06
-9.57561e-07
1.90173e-06
2.72726e-06
7.78343e-07
2.33142e-06
1.85331e-07
-2.66215e-06
9.70091e-07
-1.65113e-07
-2.57894e-06
8.96902e-07
-5.49301e-07
-2.44924e-06
8.0652e-07
-9.2634e-07
-2.238e-06
7.44753e-07
-1.27499e-06
-1.91448e-06
7.14619e-07
-1.54644e-06
-1.46815e-06
7.43334e-07
-1.60029e-06
-8.60876e-07
8.56343e-07
-1.20083e-06
-1.17007e-07
1.07277e-06
-4.41012e-07
3.47521e-07
1.32516e-06
-2.80608e-07
1.28129e-06
2.48693e-07
6.77438e-07
-2.71728e-06
-2.87491e-08
6.74106e-07
-2.6199e-06
-3.12335e-07
6.38759e-07
-2.47158e-06
-5.85268e-07
6.03747e-07
-2.26412e-06
-8.11606e-07
5.79584e-07
-1.98665e-06
-9.57703e-07
5.88658e-07
-1.63969e-06
-9.49793e-07
6.39318e-07
-1.23047e-06
-7.06739e-07
7.34466e-07
-7.83569e-07
-3.04389e-07
8.37789e-07
-5.14672e-07
7.9838e-07
-9.7232e-07
-1.66189e-07
-1.8396e-07
1.05191e-06
-3.31546e-07
-1.76786e-07
1.00103e-06
-4.53161e-07
-1.76546e-07
9.10939e-07
-5.18717e-07
-1.84529e-07
8.00316e-07
-5.29415e-07
-1.96043e-07
6.86413e-07
-4.9096e-07
-2.08584e-07
5.80196e-07
-4.10083e-07
-2.21233e-07
4.87554e-07
-2.9319e-07
-2.35846e-07
4.16382e-07
-1.44329e-07
-2.58293e-07
3.80806e-07
-2.30903e-07
3.1517e-07
-1.28287e-07
-3.92151e-07
1.03152e-06
-2.66271e-07
-3.6682e-07
9.70472e-07
-3.75969e-07
-3.52562e-07
8.76755e-07
-4.3984e-07
-3.56198e-07
7.62968e-07
-4.56594e-07
-3.70684e-07
6.46372e-07
-4.29188e-07
-3.90616e-07
5.38507e-07
-3.62493e-07
-4.13165e-07
4.44464e-07
-2.61429e-07
-4.40233e-07
3.69598e-07
-1.30695e-07
-4.81596e-07
3.28278e-07
-4.35615e-07
2.738e-07
-1.56725e-07
-6.15965e-07
1.25645e-06
-3.09647e-07
-5.81092e-07
1.18237e-06
-4.3534e-07
-5.5883e-07
1.07585e-06
-5.10343e-07
-5.61955e-07
9.39537e-07
-5.2848e-07
-5.805e-07
7.90553e-07
-4.95582e-07
-6.07224e-07
6.50209e-07
-4.18156e-07
-6.36822e-07
5.25402e-07
-3.03055e-07
-6.72506e-07
4.24624e-07
-1.57247e-07
-7.28707e-07
3.63874e-07
-6.73479e-07
3.01557e-07
-1.75316e-07
-8.81676e-07
1.57712e-06
-3.37667e-07
-8.55123e-07
1.49826e-06
-4.71382e-07
-8.22101e-07
1.35748e-06
-5.55297e-07
-8.15741e-07
1.17466e-06
-5.76702e-07
-8.29381e-07
9.71289e-07
-5.42497e-07
-8.55777e-07
7.78944e-07
-4.59534e-07
-8.85236e-07
6.0695e-07
-3.35615e-07
-9.22436e-07
4.66092e-07
-1.81263e-07
-9.83641e-07
3.72318e-07
-9.33894e-07
3.03602e-07
-1.88417e-07
-1.16446e-06
2.05238e-06
-3.68426e-07
-1.17176e-06
1.99151e-06
-5.13194e-07
-1.14221e-06
1.8026e-06
-6.06394e-07
-1.1256e-06
1.54389e-06
-6.31714e-07
-1.1294e-06
1.25504e-06
-5.96169e-07
-1.14544e-06
9.75561e-07
-5.07332e-07
-1.16544e-06
7.24659e-07
-3.74081e-07
-1.19108e-06
5.14186e-07
-2.07512e-07
-1.24439e-06
3.65392e-07
-1.21042e-06
2.79631e-07
-2.09854e-07
-1.43899e-06
2.60409e-06
-4.40058e-07
-1.47836e-06
2.55505e-06
-6.00374e-07
-1.47793e-06
2.32638e-06
-6.94033e-07
-1.46949e-06
2.01012e-06
-7.19245e-07
-1.46642e-06
1.63805e-06
-6.8373e-07
-1.46745e-06
1.26097e-06
-5.92341e-07
-1.47184e-06
9.08979e-07
-4.50369e-07
-1.47719e-06
5.9927e-07
-2.56927e-07
-1.52136e-06
3.65128e-07
-1.51947e-06
2.43801e-07
-2.01907e-07
-1.82144e-06
2.83615e-06
-5.00161e-07
-1.82954e-06
2.80336e-06
-7.01252e-07
-1.86314e-06
2.62244e-06
-7.87462e-07
-1.84961e-06
2.3088e-06
-7.88547e-07
-1.81063e-06
1.88517e-06
-7.35875e-07
-1.7768e-06
1.44085e-06
-6.42214e-07
-1.74961e-06
1.01525e-06
-5.28866e-07
-1.70769e-06
6.50994e-07
-3.57457e-07
-1.73989e-06
3.45389e-07
-1.87344e-06
1.74675e-07
-1.06594e-07
-2.26179e-06
3.06866e-06
-3.80785e-07
-2.18419e-06
2.9732e-06
-5.19932e-07
-2.44997e-06
2.88763e-06
-5.65024e-07
-2.48593e-06
2.65831e-06
-5.06854e-07
-2.34932e-06
2.15124e-06
-4.17678e-07
-2.12371e-06
1.4797e-06
-3.52988e-07
-1.88614e-06
8.08462e-07
-3.66312e-07
-1.68624e-06
3.7212e-07
-4.11693e-07
-1.59672e-06
7.09939e-08
-2.04448e-06
-2.38612e-07
6.0824e-07
-1.2189e-06
3.15964e-06
3.83871e-07
-1.62734e-07
2.43356e-06
6.90195e-07
-2.1924e-06
1.93029e-06
7.71309e-07
-3.289e-06
3.06159e-06
6.98261e-07
-2.77838e-06
2.68246e-06
5.43352e-07
-2.52255e-06
2.34604e-06
1.60028e-07
-1.7375e-06
1.39594e-06
-2.13861e-07
-8.98179e-07
-1.73388e-07
-2.40371e-07
-1.00903e-06
-9.03025e-07
-1.66408e-06
-1.5066e-06
9.56771e-07
-1.83602e-06
-6.22491e-06
3.2088e-06
-9.25142e-07
-6.42092e-06
4.87788e-06
2.64098e-07
-9.41737e-06
4.71246e-06
2.21152e-06
-9.47621e-06
4.08421e-06
2.14953e-06
-6.43493e-06
1.47846e-06
9.55233e-07
-1.11695e-06
-1.93038e-06
2.83034e-06
2.35364e-06
-3.41571e-06
2.4377e-06
1.44343e-06
-7.23966e-07
-2.00433e-06
-3.03433e-06
-1.73525e-06
-3.65508e-06
9.73144e-07
-3.91019e-06
-4.8119e-06
2.9691e-06
-3.61584e-06
-4.13658e-06
5.1694e-06
-2.08296e-06
-5.43723e-06
6.36359e-06
1.74178e-06
-9.11425e-06
5.12115e-06
5.07075e-06
-1.16812e-05
2.28118e-06
5.43536e-06
-1.13358e-05
3.67834e-07
5.51046e-06
-7.52302e-06
-9.06239e-07
5.24589e-06
-1.55349e-06
-5.89103e-07
1.56731e-06
-5.40742e-06
-2.49622e-06
-5.09503e-06
-1.34122e-06
-5.07719e-06
-5.5842e-07
-1.70139e-06
-5.2823e-06
-9.95339e-08
-9.7083e-07
-5.36076e-06
8.11734e-07
1.44838e-06
-3.65321e-06
-2.03556e-07
4.28447e-06
-7.86144e-08
-4.37444e-06
6.25551e-06
2.39045e-06
-8.76074e-06
6.36574e-06
4.8689e-06
-1.08606e-05
5.8242e-06
7.4892e-06
-8.4276e-06
3.51047e-06
6.59278e-06
-6.87724e-06
2.03942e-06
-7.42191e-06
-1.92603e-06
-4.68635e-06
2.21885e-07
-3.55848e-06
-4.75783e-06
4.54731e-07
-4.9022e-06
-5.32194e-06
1.78366e-06
-5.09636e-06
-5.22888e-06
2.6464e-06
-3.01413e-06
-3.69698e-06
1.87453e-06
2.12291e-07
-1.13846e-06
-1.12862e-06
2.74529e-06
2.65224e-06
-4.23354e-06
3.25252e-06
7.48726e-06
-4.79082e-06
2.60324e-06
7.56462e-06
-4.64517e-06
4.32842e-06
-6.73329e-06
-1.02979e-06
-3.77798e-06
8.5341e-07
-2.16718e-06
-4.00128e-06
1.28731e-06
-2.88353e-06
-4.76127e-06
2.09095e-06
-3.40128e-06
-5.05866e-06
2.88858e-06
-3.29389e-06
-4.33241e-06
3.4419e-06
-2.14272e-06
-2.65885e-06
3.47226e-06
-8.77088e-07
1.39612e-06
2.39533e-06
-6.53819e-07
7.04605e-06
-1.75084e-07
-1.01004e-06
7.45191e-06
-2.72377e-06
3.34735e-06
-4.25266e-06
-7.47697e-07
-3.22143e-06
2.40297e-06
-1.54954e-06
-3.6828e-06
2.43195e-06
-2.01319e-06
-4.37905e-06
2.34221e-06
-2.74408e-06
-4.18645e-06
2.21578e-06
-3.71828e-06
-3.39499e-06
2.23866e-06
-4.35927e-06
-2.38974e-06
2.73898e-06
-4.13387e-06
4.52234e-07
3.63685e-06
-3.10387e-06
5.04329e-06
3.51008e-06
-2.6693e-06
6.37462e-06
1.73047e-06
1.72754e-06
5.75139e-07
-1.18025e-07
-3.0826e-06
3.09418e-06
-5.90846e-07
-3.37945e-06
2.81433e-06
-1.1895e-06
-3.58115e-06
2.30747e-06
-2.20439e-06
-3.10771e-06
1.85537e-06
-3.5109e-06
-2.4504e-06
1.75876e-06
-5.01123e-06
-1.62868e-06
2.23528e-06
-5.64695e-06
4.24478e-08
3.75886e-06
-4.53942e-06
3.05926e-06
5.5636e-06
-2.63931e-06
4.39307e-06
5.8327e-06
5.46287e-07
3.77627e-06
2.20266e-07
-2.82546e-06
2.73197e-06
-1.34154e-07
-2.86547e-06
2.37437e-06
-8.39191e-07
-2.7789e-06
1.81174e-06
-1.7075e-06
-2.45726e-06
1.49708e-06
-2.56507e-06
-2.01166e-06
1.48942e-06
-3.5396e-06
-1.29833e-06
1.75596e-06
-4.22622e-06
-9.49538e-08
2.64245e-06
-3.43968e-06
1.68462e-06
4.29907e-06
-1.28053e-06
2.48626e-06
5.31868e-06
6.3607e-08
3.54305e-06
1.73799e-07
-2.6673e-06
1.8899e-06
-2.33497e-07
-2.60812e-06
1.6574e-06
-7.79488e-07
-2.51042e-06
1.39489e-06
-1.30181e-06
-2.29767e-06
1.28201e-06
-1.78206e-06
-1.94037e-06
1.26929e-06
-2.18161e-06
-1.39268e-06
1.39851e-06
-2.30093e-06
-5.75228e-07
1.74382e-06
-1.66383e-06
4.54368e-07
2.40889e-06
-4.02424e-07
9.52077e-07
3.00003e-06
-2.52704e-07
2.2453e-06
1.55988e-07
-2.77862e-06
1.43074e-06
-2.01773e-07
-2.68395e-06
1.3305e-06
-5.70684e-07
-2.54007e-06
1.20509e-06
-9.22659e-07
-2.31911e-06
1.11817e-06
-1.22023e-06
-2.00165e-06
1.07347e-06
-1.41538e-06
-1.5751e-06
1.1209e-06
-1.37592e-06
-1.02945e-06
1.27112e-06
-9.52456e-07
-4.14826e-07
1.5185e-06
-3.07332e-07
-9.56802e-08
1.72779e-06
-7.73885e-07
1.49514e-06
2.48394e-07
1.13392e-06
-2.94452e-06
-4.17203e-08
1.09634e-06
-2.81607e-06
-3.29826e-07
1.00854e-06
-2.62174e-06
-5.88189e-07
9.31826e-07
-2.38882e-06
-7.86796e-07
8.76553e-07
-2.10001e-06
-8.95938e-07
8.79969e-07
-1.75727e-06
-8.53076e-07
9.37128e-07
-1.37012e-06
-6.04461e-07
1.03976e-06
-9.68739e-07
-2.44196e-07
1.12975e-06
-7.47905e-07
1.0136e-06
-1.2333e-06
-2.20047e-07
-1.69575e-08
1.30623e-06
-4.07694e-07
-3.85562e-08
1.22723e-06
-5.40312e-07
-7.30694e-08
1.11663e-06
-6.12943e-07
-1.0218e-07
9.75127e-07
-6.22861e-07
-1.35403e-07
8.31734e-07
-5.76631e-07
-1.65651e-07
6.99617e-07
-4.81215e-07
-1.9332e-07
5.85457e-07
-3.43065e-07
-2.21278e-07
4.99511e-07
-1.6637e-07
-2.54633e-07
4.58743e-07
-2.2185e-07
3.70651e-07
-1.99991e-07
-4.21303e-08
1.28977e-06
-3.62252e-07
-1.12652e-07
1.20683e-06
-4.7373e-07
-1.59561e-07
1.07472e-06
-5.39819e-07
-1.98515e-07
9.25391e-07
-5.54248e-07
-2.50237e-07
7.75636e-07
-5.18743e-07
-3.0547e-07
6.4282e-07
-4.37442e-07
-3.5859e-07
5.28433e-07
-3.14567e-07
-4.13267e-07
4.38711e-07
-1.54612e-07
-4.78435e-07
3.92125e-07
-4.22824e-07
3.20162e-07
-2.24854e-07
2.788e-08
1.44936e-06
-4.26112e-07
-1.7827e-07
1.44924e-06
-5.64846e-07
-2.48154e-07
1.30317e-06
-6.41847e-07
-3.06575e-07
1.1246e-06
-6.58496e-07
-3.84942e-07
9.41906e-07
-6.15257e-07
-4.72158e-07
7.73659e-07
-5.1866e-07
-5.5453e-07
6.24745e-07
-3.74738e-07
-6.36957e-07
5.04392e-07
-1.90752e-07
-7.33006e-07
4.3446e-07
-6.64642e-07
3.52622e-07
-2.29975e-07
1.28209e-07
1.74815e-06
-4.77144e-07
-2.56032e-07
1.82319e-06
-6.50463e-07
-3.72754e-07
1.6554e-06
-7.40374e-07
-4.51787e-07
1.40978e-06
-7.60153e-07
-5.50863e-07
1.15699e-06
-7.10654e-07
-6.65999e-07
9.23286e-07
-6.00474e-07
-7.77462e-07
7.19702e-07
-4.37247e-07
-8.85372e-07
5.5128e-07
-2.30636e-07
-1.00899e-06
4.41694e-07
-9.45147e-07
3.53472e-07
-1.88091e-07
1.56812e-07
2.25999e-06
-5.09075e-07
-3.34652e-07
2.39111e-06
-7.45485e-07
-5.23212e-07
2.18947e-06
-8.67448e-07
-6.279e-07
1.84196e-06
-8.97642e-07
-7.47886e-07
1.48226e-06
-8.43459e-07
-8.9066e-07
1.14604e-06
-7.18493e-07
-1.03014e-06
8.52375e-07
-5.28883e-07
-1.16544e-06
6.04641e-07
-2.84623e-07
-1.31628e-06
4.2842e-07
-1.27408e-06
3.23942e-07
-1.27942e-07
2.07064e-08
2.92254e-06
-5.40419e-07
-3.86945e-07
3.01981e-06
-8.56556e-07
-6.33615e-07
2.75292e-06
-1.02765e-06
-7.71498e-07
2.32481e-06
-1.08036e-06
-9.29804e-07
1.87268e-06
-1.03345e-06
-1.10858e-06
1.43198e-06
-9.04059e-07
-1.28679e-06
1.03623e-06
-6.90875e-07
-1.47128e-06
6.91934e-07
-3.87521e-07
-1.67694e-06
4.22429e-07
-1.69767e-06
2.79867e-07
-1.24541e-07
-6.80906e-07
3.78409e-06
-5.94662e-07
-8.66346e-07
3.75288e-06
-9.94857e-07
-1.02349e-06
3.41251e-06
-1.17493e-06
-1.07425e-06
2.79161e-06
-1.18461e-06
-1.17817e-06
2.14322e-06
-1.11937e-06
-1.29848e-06
1.5655e-06
-1.0079e-06
-1.48473e-06
1.10173e-06
-8.26045e-07
-1.74375e-06
7.41605e-07
-5.45715e-07
-2.0058e-06
3.93925e-07
-2.22171e-06
1.53003e-07
-1.9819e-07
-2.25669e-06
4.76324e-06
-4.38877e-07
-1.97419e-06
4.32173e-06
-7.34866e-07
-1.4282e-06
3.58833e-06
-1.06088e-06
-1.07099e-06
2.98107e-06
-1.03256e-06
-1.60047e-06
2.54523e-06
-8.89436e-07
-1.72814e-06
1.76623e-06
-7.70268e-07
-1.72446e-06
9.2902e-07
-7.0563e-07
-1.86444e-06
4.28168e-07
-5.83327e-07
-2.09247e-06
3.53591e-08
-2.55281e-06
-4.90842e-07
1.5393e-07
-1.63008e-06
1.47164e-06
1.01506e-06
-3.58036e-07
-4.37263e-08
1.26673e-06
1.471e-06
-1.22058e-06
1.07597e-07
3.44451e-06
-2.94776e-07
-8.05922e-07
-5.42661e-07
2.53818e-06
-1.18246e-06
-2.07175e-06
3.06619e-06
-1.34362e-06
-1.71474e-06
1.54738e-06
-1.12512e-06
-1.73834e-06
-5.17991e-07
-4.94265e-07
-2.25825e-06
-1.3681e-06
-2.54857e-06
-2.0051e-06
-6.12586e-07
-4.92893e-06
-5.11783e-06
1.56089e-06
-2.47892e-06
-6.4735e-06
2.53791e-06
2.93762e-07
-9.21716e-06
3.26782e-06
3.77297e-06
-1.05346e-05
1.43684e-06
4.37853e-06
-9.52514e-06
-8.70112e-07
3.46097e-06
-4.34271e-06
-2.87251e-06
2.1729e-06
4.68414e-07
-3.75735e-06
2.36095e-06
-1.77102e-06
-1.3326e-06
-3.80014e-06
-3.9172e-06
-4.17567e-06
-3.36057e-06
8.72088e-07
-7.00394e-06
-5.21939e-06
4.14789e-06
-5.67095e-06
-4.22035e-06
6.93248e-06
-4.40029e-06
-3.52777e-06
8.65465e-06
-7.9715e-07
-6.2663e-06
8.36031e-06
3.62527e-06
-1.06336e-05
7.04552e-06
5.66253e-06
-1.22226e-05
6.54663e-06
4.97771e-06
-9.82894e-06
6.31101e-06
4.62241e-06
-3.57933e-06
2.56988e-06
-7.91816e-07
-4.67461e-06
-3.40151e-06
-3.29931e-06
-1.05046e-06
-6.54991e-06
-1.01778e-06
-6.55009e-07
-6.31492e-06
1.48992e-07
6.95058e-07
-7.14715e-06
2.20852e-06
3.47598e-06
-5.86352e-06
2.08188e-06
6.40328e-06
-1.87634e-06
-1.80013e-06
8.79803e-06
1.65327e-06
-7.14622e-06
1.03245e-05
3.2645e-06
-1.06738e-05
1.17651e-05
4.46307e-06
-9.70884e-06
7.59644e-06
4.12334e-06
-7.62378e-06
2.48772e-06
-5.7147e-06
-2.07612e-06
-5.90686e-06
8.50743e-07
-3.00099e-06
-5.95663e-06
1.02131e-06
-4.33257e-06
-6.51397e-06
2.48206e-06
-4.87624e-06
-6.18483e-06
3.51139e-06
-3.12339e-06
-4.37574e-06
2.62108e-06
1.39492e-07
-1.89322e-06
-8.45022e-07
2.73518e-06
2.61504e-07
-3.82624e-06
4.16167e-06
2.29158e-06
-4.04582e-06
3.52208e-06
3.12072e-06
-3.00297e-06
3.92686e-06
-4.65034e-06
-6.40584e-07
-5.11972e-06
9.30651e-07
-1.23807e-06
-5.15862e-06
1.08679e-06
-2.23889e-06
-5.28975e-06
1.86756e-06
-3.53205e-06
-4.87365e-06
2.87057e-06
-4.21815e-06
-3.89948e-06
3.65174e-06
-3.71487e-06
-2.66002e-06
3.73578e-06
-2.96621e-06
-9.2746e-07
2.83564e-06
-2.78133e-06
7.48573e-07
1.18304e-06
-2.19077e-06
3.60416e-07
-5.54016e-07
2.58238e-07
-2.77482e-06
-4.06131e-07
-4.15826e-06
2.10577e-06
-9.63408e-07
-4.2547e-06
2.08532e-06
-1.68147e-06
-4.26366e-06
2.03417e-06
-2.67721e-06
-3.79473e-06
2.13259e-06
-3.6267e-06
-3.10349e-06
2.39216e-06
-4.13897e-06
-2.33318e-06
2.92441e-06
-3.91133e-06
-1.21431e-06
3.69607e-06
-3.42901e-06
1.80582e-07
3.59575e-06
-2.8999e-06
-3.99586e-07
1.96137e-06
-2.01395e-06
-5.2576e-08
-3.20979e-08
-3.37063e-06
2.72672e-06
-5.00181e-07
-3.42975e-06
2.45747e-06
-1.20933e-06
-3.33855e-06
2.09151e-06
-2.09755e-06
-3.00118e-06
1.95005e-06
-2.93577e-06
-2.54809e-06
2.04158e-06
-3.61708e-06
-1.90274e-06
2.48615e-06
-3.67865e-06
-9.48949e-07
3.55507e-06
-2.65492e-06
-8.64451e-09
4.7291e-06
-1.47268e-06
-1.83407e-07
4.43428e-06
-1.84795e-06
2.13758e-06
6.44576e-08
-2.86314e-06
2.60154e-06
-3.83402e-07
-2.89298e-06
2.28546e-06
-9.8778e-07
-2.83419e-06
1.91177e-06
-1.61263e-06
-2.63086e-06
1.7516e-06
-2.15173e-06
-2.27527e-06
1.75571e-06
-2.56638e-06
-1.71909e-06
1.98696e-06
-2.56941e-06
-8.97092e-07
2.59363e-06
-1.71548e-06
-8.59067e-08
3.5224e-06
-4.4946e-07
-4.18042e-08
3.91105e-06
-1.18582e-06
2.43147e-06
2.70495e-08
-2.82217e-06
2.3168e-06
-4.14679e-07
-2.83611e-06
2.04226e-06
-8.5577e-07
-2.76518e-06
1.76697e-06
-1.26094e-06
-2.55084e-06
1.60716e-06
-1.5884e-06
-2.21846e-06
1.53994e-06
-1.77317e-06
-1.76322e-06
1.62741e-06
-1.64116e-06
-1.16988e-06
1.8846e-06
-1.05889e-06
-5.34113e-07
2.27482e-06
-2.97121e-07
-3.19391e-07
2.51585e-06
-1.13706e-06
1.89942e-06
6.98461e-08
-3.03168e-06
2.09543e-06
-3.09269e-07
-2.98843e-06
1.86192e-06
-6.42476e-07
-2.83879e-06
1.6119e-06
-9.34103e-07
-2.58495e-06
1.44392e-06
-1.14358e-06
-2.26434e-06
1.32883e-06
-1.238e-06
-1.87951e-06
1.33161e-06
-1.12806e-06
-1.43711e-06
1.42842e-06
-7.54771e-07
-9.83974e-07
1.59506e-06
-2.75682e-07
-7.81898e-07
1.71121e-06
-1.34615e-06
1.42856e-06
1.99493e-07
1.71386e-06
-3.24212e-06
-1.12964e-07
1.58168e-06
-3.16131e-06
-3.84605e-07
1.38821e-06
-2.94681e-06
-6.1678e-07
1.24342e-06
-2.66437e-06
-7.64784e-07
1.11045e-06
-2.35023e-06
-8.23064e-07
1.07241e-06
-2.01368e-06
-7.46764e-07
1.08913e-06
-1.66541e-06
-5.15605e-07
1.15189e-06
-1.32726e-06
-2.19249e-07
1.20257e-06
-1.15107e-06
1.05264e-06
-1.60444e-06
-2.69478e-07
1.8446e-07
1.42051e-06
-5.11167e-07
1.0262e-07
1.3663e-06
-6.67481e-07
3.81968e-08
1.23474e-06
-7.45689e-07