/*--------------------------------*- C++ -*----------------------------------*\
| =========                 |                                                 |
| \\      /  F ield         | OpenFOAM: The Open Source CFD Toolbox           |
|  \\    /   O peration     | Version:  2312                                  |
|   \\  /    A nd           | Website:  www.openfoam.com                      |
|    \\/     M anipulation  |                                                 |
\*---------------------------------------------------------------------------*/
FoamFile
{
    version     2.0;
    format      ascii;
    arch        "LSB;label=32;scalar=64";
    class       surfaceScalarField;
    location    "0.695";
    object      alphaPhi0.water;
}
// * * * * * * * * * * * * * * * * * * * * * * * * * * * * * * * * * * * * * //

dimensions      [0 3 -1 0 0 0 0];

oriented        oriented;

internalField   nonuniform List<scalar> 
22600
(
-1.98314e-07
3.98156e-07
-1.99842e-07
-3.3526e-07
3.32383e-07
-1.95437e-07
-4.45751e-07
3.00776e-07
-1.90286e-07
-5.2275e-07
2.53524e-07
-1.76525e-07
-5.52778e-07
1.90674e-07
-1.60645e-07
-5.3092e-07
1.25154e-07
-1.47012e-07
-4.61562e-07
6.53945e-08
-1.34753e-07
-3.46137e-07
1.1961e-08
-1.27386e-07
-1.96494e-07
-2.60397e-08
-1.23603e-07
-4.65601e-08
-1.25466e-07
-2.69067e-07
9.3566e-07
-2.68437e-07
-4.60468e-07
7.89477e-07
-2.65692e-07
-5.98579e-07
6.97594e-07
-2.58707e-07
-6.90026e-07
5.78802e-07
-2.33832e-07
-7.15217e-07
4.24718e-07
-2.08854e-07
-6.71198e-07
2.69753e-07
-1.88618e-07
-5.65011e-07
1.31445e-07
-1.72237e-07
-4.11608e-07
1.70529e-08
-1.58494e-07
-2.26295e-07
-6.65941e-08
-1.44758e-07
-1.13866e-07
-1.38566e-07
-2.89512e-07
1.51357e-06
-2.88396e-07
-5.21061e-07
1.3072e-06
-2.86176e-07
-6.88079e-07
1.18347e-06
-3.18857e-07
-8.01326e-07
9.86599e-07
-2.94549e-07
-8.36538e-07
7.12926e-07
-2.52995e-07
-7.90297e-07
4.41154e-07
-2.17642e-07
-6.72727e-07
2.00771e-07
-1.86897e-07
-4.93554e-07
-3.35985e-09
-1.5876e-07
-2.71809e-07
-1.55446e-07
-1.32893e-07
-2.52603e-07
-1.13453e-07
-2.70166e-07
2.06136e-06
-2.77625e-07
-5.95191e-07
1.79191e-06
-1.59677e-07
-8.54586e-07
1.73697e-06
-2.94105e-07
-1.01282e-06
1.49186e-06
-3.4703e-07
-1.0602e-06
1.0775e-06
-3.17191e-07
-1.00733e-06
6.44941e-07
-2.56664e-07
-8.65505e-07
2.53305e-07
-1.94355e-07
-6.51764e-07
-8.62476e-08
-1.30853e-07
-3.67413e-07
-3.81078e-07
-5.87187e-08
-5.90494e-07
-8.76676e-09
-1.21388e-07
2.30424e-06
-1.21489e-07
-6.13687e-07
2.21436e-06
6.98401e-08
-1.19252e-06
2.46896e-06
-1.5316e-07
-1.5132e-06
2.10644e-06
-2.93901e-07
-1.5919e-06
1.45391e-06
-2.97711e-07
-1.50981e-06
7.79394e-07
-2.16539e-07
-1.31689e-06
1.68102e-07
-1.07715e-07
-1.0142e-06
-3.83629e-07
-5.31418e-09
-6.10619e-07
-8.77896e-07
9.32384e-08
-1.34742e-06
1.64972e-07
-2.35195e-07
2.75794e-06
-2.1851e-07
-1.07324e-06
3.10628e-06
-5.38431e-08
-1.912e-06
3.37931e-06
-7.15932e-08
-2.37139e-06
2.78802e-06
-2.22186e-07
-2.54649e-06
1.90389e-06
-2.74876e-07
-2.45571e-06
9.04241e-07
-2.15631e-07
-2.09395e-06
-3.8454e-08
-1.55204e-07
-1.58311e-06
-7.76495e-07
-1.17972e-07
-9.36775e-07
-1.47609e-06
-4.81409e-08
-2.35811e-06
8.56741e-08
-7.22144e-07
4.12661e-06
-6.46524e-07
-1.77058e-06
4.68337e-06
-5.28653e-07
-2.55872e-06
4.45623e-06
-2.8878e-07
-2.98897e-06
3.53007e-06
-3.11807e-07
-3.14703e-06
2.46332e-06
-4.01367e-07
-2.94948e-06
1.20022e-06
-4.93533e-07
-2.3646e-06
-1.13797e-07
-5.09532e-07
-1.65953e-06
-1.16373e-06
-3.17823e-07
-9.42503e-07
-2.13428e-06
-5.85943e-08
-3.22362e-06
2.24381e-07
-1.1688e-06
6.24678e-06
-9.51371e-07
-2.62888e-06
6.02762e-06
-1.24768e-06
-3.76377e-06
4.45587e-06
-1.19459e-06
-4.16512e-06
2.74929e-06
-1.14539e-06
-3.7522e-06
1.43142e-06
-1.00411e-06
-3.08783e-06
5.2771e-07
-8.11561e-07
-2.30401e-06
-1.4207e-07
-6.77039e-07
-1.56234e-06
-6.89318e-07
-5.88926e-07
-8.38858e-07
-1.11147e-06
-5.87776e-07
-1.31134e-06
-7.2916e-07
-1.23966e-06
4.70274e-06
-1.0268e-06
-1.93406e-06
1.78892e-06
-1.10957e-06
-2.04976e-06
2.10626e-07
-8.69335e-07
-1.8543e-06
3.09873e-08
-7.40553e-07
-1.55783e-06
1.44684e-08
-7.12009e-07
-1.19868e-06
2.40182e-09
-7.43605e-07
-8.9581e-07
4.13682e-09
-9.09207e-07
-4.93261e-07
3.40057e-08
-1.12695e-06
-9.83473e-08
3.10781e-08
-1.06119e-06
8.4281e-09
-7.11508e-07
-4.60531e-07
2.53443e-08
-4.2328e-07
-3.29417e-07
4.30744e-08
-1.45101e-07
-1.99914e-07
6.58307e-08
-8.98232e-08
-1.47988e-07
3.2559e-08
-8.32864e-08
-9.64942e-08
1.54762e-08
-6.87904e-08
-6.08226e-08
7.65219e-09
-5.23188e-08
-3.89593e-08
4.72602e-09
-2.99491e-08
-6.40545e-09
4.82572e-09
-1.28283e-08
2.17365e-08
3.11771e-09
-1.33557e-10
8.2329e-10
-8.39941e-11
-1.14205e-07
2.36366e-08
-2.71609e-08
-9.29916e-08
1.76499e-08
-2.93301e-08
-5.04499e-08
1.79591e-08
-9.01984e-09
-2.77119e-08
8.84569e-09
-5.21399e-09
-1.58397e-08
3.37061e-09
-3.31075e-09
-8.69993e-09
8.34114e-10
-2.58543e-09
-4.02686e-09
1.1273e-09
-1.63066e-09
1.95274e-10
9.21647e-10
-9.75056e-10
3.05425e-09
3.90273e-10
-2.06702e-10
1.9649e-10
-2.69351e-10
-2.49944e-08
1.24409e-08
1.6726e-08
-1.94519e-08
7.75523e-09
-7.75546e-10
-9.75195e-09
3.94979e-09
9.62096e-10
-4.78251e-09
1.70636e-09
8.7886e-10
-2.8489e-09
2.83753e-10
5.15862e-10
-1.34547e-09
-6.81381e-10
-1.94593e-12
-5.8368e-10
2.51719e-10
-9.0531e-11
1.34634e-10
1.77235e-10
-9.22554e-11
4.27793e-10
9.4785e-11
-4.4883e-11
6.44205e-11
-3.28799e-12
-3.88856e-09
3.9238e-09
6.83622e-09
-3.21826e-09
1.95463e-09
1.74711e-09
-1.34849e-09
4.98429e-10
7.83568e-10
-4.44467e-10
1.42564e-10
4.268e-10
-4.10241e-10
3.3633e-11
2.25356e-10
-2.60605e-10
-2.51146e-11
2.15174e-10
-6.44272e-11
2.11246e-11
1.02191e-10
3.35883e-11
4.64433e-11
2.27109e-11
5.89012e-11
4.14224e-11
1.55376e-11
2.36936e-11
2.63212e-11
2.76655e-10
1.35948e-09
1.96694e-09
-1.55311e-11
3.90512e-10
9.35792e-10
-1.32804e-11
-1.12342e-11
2.54665e-10
3.65869e-13
8.8354e-12
7.86073e-11
-3.87321e-12
2.97328e-12
2.86451e-11
-1.20008e-11
5.97567e-11
1.49578e-10
2.1592e-11
1.04656e-10
1.02427e-10
3.88407e-12
3.99449e-11
4.68664e-11
8.12762e-12
7.66911e-12
1.71306e-11
8.00951e-12
1.12119e-11
3.26439e-10
7.06626e-10
3.40572e-10
1.53847e-10
1.64118e-10
2.90125e-10
1.5691e-11
-2.84804e-13
6.31147e-11
4.5405e-12
2.48601e-12
9.99521e-12
4.52668e-12
6.72209e-13
2.01513e-12
1.99536e-11
8.64859e-13
6.53825e-12
4.59569e-11
4.95728e-12
4.58457e-11
2.13514e-12
2.14843e-11
2.35069e-11
1.9974e-12
8.43117e-12
7.66219e-12
3.95072e-12
2.25939e-12
1.02926e-10
6.72934e-10
2.05594e-11
4.17991e-11
1.79369e-10
4.12985e-11
4.46239e-12
2.25335e-11
8.78074e-12
2.34417e-12
2.45317e-12
9.29851e-13
1.61848e-12
8.10384e-13
1.90476e-13
1.54895e-12
5.62958e-13
3.127e-13
4.40145e-12
1.27386e-12
1.34203e-12
1.05308e-11
4.45997e-12
4.84156e-12
7.12818e-12
8.10796e-12
9.31766e-12
3.70062e-12
9.89334e-12
1.96169e-10
9.68495e-10
-1.44349e-10
1.62652e-13
3.79548e-10
6.08434e-12
1.88589e-12
1.85144e-11
4.46001e-13
1.65072e-12
2.31891e-12
-2.76268e-14
1.04446e-12
1.3436e-12
1.44653e-14
7.72618e-13
3.6302e-13
9.93488e-14
8.27791e-13
6.1563e-13
5.44335e-13
1.33668e-12
1.15146e-12
3.31074e-12
7.36597e-12
4.74239e-12
1.34411e-12
2.47386e-12
2.66141e-12
2.00019e-10
9.14785e-10
-1.02251e-10
1.74395e-12
4.4727e-10
-3.37263e-11
3.26932e-12
1.60071e-11
-1.22116e-12
1.26375e-12
2.7461e-12
-2.38065e-14
4.33018e-12
6.80991e-12
3.78178e-13
8.09259e-13
6.41219e-12
1.10303e-12
5.12977e-13
1.07689e-12
4.51517e-13
5.95385e-13
2.00706e-12
8.00937e-13
1.91813e-12
3.96881e-12
7.53249e-13
1.03315e-12
2.84092e-12
1.82396e-11
2.95367e-10
1.81739e-11
1.15847e-14
3.58651e-10
-2.48766e-12
3.54052e-12
1.44257e-11
7.95853e-14
1.0414e-12
2.36594e-12
1.28658e-13
2.84258e-11
1.07503e-11
4.37058e-12
5.11852e-11
4.80333e-11
2.47302e-11
1.64161e-11
3.72887e-11
9.10608e-12
1.53055e-11
2.91877e-11
2.23422e-11
9.01692e-12
8.07552e-12
1.19208e-11
-3.81902e-11
2.75446e-11
-1.21017e-11
3.14929e-11
5.47671e-11
7.83533e-12
2.31255e-11
2.6695e-10
3.82334e-12
4.87675e-12
8.65116e-11
1.0495e-12
1.23496e-12
2.34702e-12
1.23984e-11
3.72115e-12
1.82205e-11
1.6076e-11
2.26054e-11
2.62057e-11
3.95988e-12
2.77482e-11
2.61121e-11
3.30553e-12
2.58357e-11
2.62791e-12
1.28209e-11
2.9694e-11
-1.89389e-11
3.50772e-11
-6.30226e-11
-1.94008e-07
3.32236e-07
-3.38069e-07
-2.91504e-07
1.95637e-07
-2.93579e-07
-3.59785e-07
1.70972e-07
-2.92977e-07
-4.14585e-07
1.53285e-07
-2.7501e-07
-4.32917e-07
1.05456e-07
-2.47769e-07
-4.06887e-07
4.37277e-08
-2.1677e-07
-3.41118e-07
-1.67e-08
-1.83821e-07
-2.46934e-07
-6.72822e-08
-1.54288e-07
-1.3805e-07
-1.0471e-07
-1.27776e-07
-1.30759e-07
-1.15941e-07
-2.66475e-07
7.90353e-07
-4.6008e-07
-3.93414e-07
4.48605e-07
-3.91721e-07
-4.7201e-07
3.86571e-07
-3.9571e-07
-5.42992e-07
3.61171e-07
-3.70735e-07
-5.6532e-07
2.49948e-07
-3.31018e-07
-5.30102e-07
1.09363e-07
-2.89472e-07
-4.44687e-07
-2.57413e-08
-2.48611e-07
-3.22339e-07
-1.39855e-07
-2.08269e-07
-1.76482e-07
-2.27522e-07
-1.67803e-07
-2.93588e-07
-1.40922e-07
-2.81422e-07
1.30303e-06
-5.19655e-07
-3.61228e-07
6.11283e-07
-3.69048e-07
-4.46856e-07
5.7874e-07
-4.25398e-07
-5.77003e-07
6.43687e-07
-4.46918e-07
-6.33755e-07
4.59308e-07
-4.05603e-07
-6.01896e-07
2.08548e-07
-3.48686e-07
-5.02729e-07
-1.97174e-08
-2.92087e-07
-3.60507e-07
-2.06947e-07
-2.33891e-07
-1.92412e-07
-3.54483e-07
-1.74027e-07
-4.6646e-07
-1.28454e-07
-1.37983e-07
1.7619e-06
-5.98506e-07
-1.9872e-07
7.51659e-07
-2.39315e-07
-3.90724e-07
8.31515e-07
-3.54877e-07
-6.26596e-07
1.04218e-06
-5.09647e-07
-7.54207e-07
7.76683e-07
-5.06955e-07
-7.42033e-07
3.7185e-07
-4.3214e-07
-6.3187e-07
1.6467e-08
-3.40702e-07
-4.54692e-07
-2.82592e-07
-2.32386e-07
-2.44787e-07
-5.00363e-07
-1.22743e-07
-6.7362e-07
-4.3626e-08
9.34972e-08
2.13577e-06
-5.88851e-07
-1.42549e-07
1.23163e-06
-1.74085e-07
-6.47253e-07
1.47837e-06
-2.95308e-07
-9.97579e-07
1.63349e-06
-5.34884e-07
-1.16311e-06
1.21897e-06
-5.74462e-07
-1.13432e-06
6.0201e-07
-4.75491e-07
-9.75379e-07
6.96269e-08
-3.19818e-07
-7.35147e-07
-3.69506e-07
-1.58632e-07
-4.36091e-07
-6.96035e-07
-1.01458e-08
-1.02563e-06
9.0919e-08
-9.4689e-08
3.03296e-06
-1.02097e-06
-7.76429e-07
2.59162e-06
-7.36233e-07
-1.44276e-06
2.59147e-06
-5.18359e-07
-1.77173e-06
2.3735e-06
-6.33232e-07
-1.96277e-06
1.79061e-06
-6.55486e-07
-1.92708e-06
8.96747e-07
-5.46056e-07
-1.6318e-06
2.41598e-08
-4.05015e-07
-1.21509e-06
-6.22954e-07
-2.81235e-07
-7.17463e-07
-1.11679e-06
-1.25017e-07
-1.77143e-06
1.00497e-07
-6.37561e-07
4.66975e-06
-1.64575e-06
-1.6823e-06
4.65735e-06
-1.54965e-06
-2.311e-06
4.07391e-06
-1.14252e-06
-2.53478e-06
3.30417e-06
-1.0187e-06
-2.61341e-06
2.43861e-06
-9.7073e-07
-2.47068e-06
1.22196e-06
-9.6148e-07
-2.01476e-06
-1.17872e-07
-8.23421e-07
-1.39882e-06
-1.09942e-06
-4.57309e-07
-7.18298e-07
-1.82314e-06
-3.26593e-08
-2.62841e-06
3.99459e-07
-1.30876e-06
5.95575e-06
-2.17153e-06
-2.69553e-06
5.34913e-06
-2.58689e-06
-3.53282e-06
3.87217e-06
-2.54433e-06
-3.7551e-06
2.55138e-06
-2.30843e-06
-3.41925e-06
1.50076e-06
-1.91338e-06
-2.8981e-06
6.26606e-07
-1.56452e-06
-2.20493e-06
-1.35851e-07
-1.29021e-06
-1.47928e-06
-7.09964e-07
-1.07585e-06
-6.52454e-07
-1.01732e-06
-9.67975e-07
-1.03788e-06
-1.02215e-06
-1.24724e-06
2.12981e-06
-1.55063e-06
-1.86864e-06
5.13108e-07
-1.81568e-06
-1.85752e-06
7.57032e-08
-1.53427e-06
-1.63817e-06
4.86364e-08
-1.23197e-06
-1.30682e-06
5.20733e-08
-1.07826e-06
-1.09225e-06
5.99769e-08
-1.08557e-06
-9.33475e-07
4.88845e-08
-1.39823e-06
-6.57351e-07
2.00121e-08
-1.6573e-06
-2.18858e-07
-3.69485e-10
-1.25681e-06
-2.49819e-10
-4.24638e-07
-1.88991e-07
-4.988e-08
-3.55344e-07
-1.68903e-07
2.74351e-08
-1.73628e-07
-1.28025e-07
1.80818e-08
-1.09649e-07
-9.83716e-08
1.23225e-08
-8.93368e-08
-6.0064e-08
7.3879e-09
-6.69881e-08
-2.41821e-08
4.88052e-09
-3.42852e-08
-7.14786e-09
2.65367e-09
-5.21136e-10
-4.87674e-11
1.0738e-09
-9.64645e-10
-2.02659e-11
1.39417e-11
-5.92424e-10
-3.77376e-12
-4.32074e-10
-3.45833e-08
-1.03057e-08
-7.77686e-08
-2.39971e-08
4.95328e-09
-3.75169e-08
-1.68968e-08
4.50577e-09
-9.54224e-09
-9.12699e-09
2.01729e-09
-4.67053e-09
-3.94829e-09
5.67672e-10
-2.42298e-09
-1.18106e-09
3.43416e-10
-9.46782e-10
-3.00918e-10
3.09428e-10
-1.96179e-10
-1.22069e-11
1.40361e-10
-3.76474e-10
1.91963e-11
2.29718e-11
-2.74863e-10
2.13018e-11
-4.10532e-10
-7.47413e-09
6.55653e-09
-4.23142e-09
-5.58345e-09
1.15537e-09
-5.73078e-09
-3.30491e-09
1.2733e-09
-3.83924e-10
-1.38292e-09
4.1647e-10
1.28878e-11
-4.46501e-10
-4.43531e-11
-2.6788e-11
-8.8055e-11
1.707e-11
-2.02608e-10
-3.25787e-12
1.61376e-10
-1.45942e-10
1.4804e-11
5.88784e-11
-5.7857e-11
1.91352e-11
1.15444e-11
-5.35148e-11
2.02102e-12
-4.8391e-12
-2.01062e-09
7.59333e-09
3.56971e-09
-1.7495e-09
1.48274e-10
-1.07852e-11
-7.01488e-10
2.0387e-10
2.15733e-10
-1.6525e-10
7.15034e-11
1.0921e-10
-7.05636e-11
1.16674e-11
3.30922e-11
1.50811e-11
1.19541e-10
5.55162e-12
3.5969e-11
2.59322e-10
5.34318e-13
8.28162e-12
1.07721e-10
1.32882e-12
7.58471e-12
1.05481e-11
2.93788e-12
3.78687e-12
8.91332e-12
2.66725e-10
3.80566e-09
3.0248e-09
-1.5622e-10
2.97136e-10
5.03068e-10
-5.08334e-11
7.70956e-11
1.30838e-10
1.95386e-12
2.28817e-11
4.33369e-11
1.83813e-11
8.16012e-12
1.17645e-11
1.4916e-10
5.11553e-11
6.24252e-12
1.2207e-10
1.44853e-10
3.99846e-11
1.12173e-11
8.72211e-11
4.16298e-11
1.32725e-11
1.50258e-11
1.55828e-11
4.21403e-12
1.03241e-11
5.10742e-10
1.6535e-09
1.18911e-09
2.73843e-11
3.60579e-10
3.96384e-10
2.73372e-12
6.57893e-11
6.84748e-11
6.12243e-12
1.16544e-11
1.46852e-11
8.67606e-12
2.10307e-12
3.29689e-12
4.32736e-11
2.56038e-12
8.54533e-12
9.15347e-11
1.08247e-11
1.64568e-11
3.73523e-11
2.91807e-11
2.04339e-11
1.81445e-11
3.26233e-11
1.14517e-11
2.87228e-11
1.35754e-11
2.00792e-10
7.81404e-10
2.65553e-10
2.12947e-11
4.11068e-10
1.27936e-10
3.559e-12
5.68389e-11
2.85218e-11
3.63371e-12
7.10285e-12
3.18511e-12
2.4824e-12
1.2767e-12
8.22149e-13
2.93111e-12
1.09393e-12
7.08904e-13
1.20469e-11
3.45916e-12
1.94551e-12
3.40069e-11
1.24304e-11
3.51798e-12
3.10101e-10
6.41214e-11
4.48414e-11
1.41916e-11
8.32898e-11
2.21345e-10
1.37094e-09
9.8646e-11
-5.47434e-12
7.56371e-10
8.53518e-11
2.21768e-12
3.72763e-11
8.36286e-12
2.75298e-12
4.06293e-12
1.13102e-12
1.63878e-12
1.18445e-12
2.68425e-13
1.38776e-12
8.30991e-13
2.64008e-13
8.69703e-11
3.37908e-11
1.69256e-11
2.23242e-10
6.37393e-11
3.39942e-11
2.23871e-10
3.2173e-11
4.08436e-11
-2.64458e-11
9.60963e-11
2.2852e-10
9.81429e-10
9.00602e-11
-7.84738e-12
7.91926e-10
1.01676e-10
1.62253e-12
2.24738e-11
6.32056e-12
3.26324e-12
4.7027e-12
5.92267e-13
1.85512e-12
1.65564e-12
2.33242e-13
1.63633e-10
7.04618e-11
3.54987e-11
1.58285e-10
7.57233e-11
5.16374e-11
1.55915e-10
4.21968e-11
3.31025e-11
1.48306e-10
6.90134e-13
4.96111e-11
-5.9018e-11
9.64629e-11
6.72272e-11
8.60404e-10
1.03471e-10
-7.13346e-12
4.45548e-10
7.20356e-11
8.17886e-12
1.46258e-11
6.39066e-12
5.44768e-12
6.03378e-12
4.31936e-13
1.22589e-10
6.88236e-11
2.20146e-11
1.4034e-10
2.22419e-11
1.46757e-11
6.79732e-11
2.19398e-11
2.31103e-11
6.56023e-11
2.8521e-11
4.90767e-11
4.21105e-11
-2.1001e-11
6.97593e-11
-1.22915e-10
5.54019e-11
-2.32026e-11
1.77064e-10
7.69357e-10
4.82703e-12
3.49028e-11
8.21932e-11
4.70102e-12
7.22416e-12
1.43542e-11
2.71932e-11
1.13663e-11
7.18215e-11
4.44329e-11
3.40267e-11
7.74786e-11
2.48857e-11
1.5497e-11
2.06699e-11
1.02272e-11
3.32764e-12
2.44629e-12
-6.49046e-12
3.77007e-11
1.68491e-11
-2.11919e-11
5.27032e-11
-1.72726e-11
2.42831e-11
-8.39431e-11
-1.89016e-07
3.01621e-07
-4.50674e-07
-2.90274e-07
1.72777e-07
-3.65098e-07
-3.61925e-07
1.46123e-07
-3.67449e-07
-4.13339e-07
1.2421e-07
-3.47807e-07
-4.26265e-07
7.47772e-08
-3.0962e-07
-3.94831e-07
1.13007e-08
-2.59504e-07
-3.25202e-07
-5.20396e-08
-2.01411e-07
-2.31521e-07
-1.05004e-07
-1.42965e-07
-1.27803e-07
-1.48121e-07
-8.3373e-08
-1.81173e-07
-5.08505e-08
-2.59142e-07
7.0237e-07
-6.01688e-07
-3.96521e-07
3.92245e-07
-4.73809e-07
-4.7894e-07
3.15031e-07
-4.82199e-07
-5.42363e-07
2.79489e-07
-4.62591e-07
-5.57392e-07
1.73862e-07
-4.15073e-07
-5.17618e-07
3.67444e-08
-3.5469e-07
-4.28058e-07
-1.03316e-07
-2.86895e-07
-3.0234e-07
-2.23681e-07
-2.15309e-07
-1.56513e-07
-3.25282e-07
-1.36468e-07
-3.96171e-07
-8.12221e-08
-3.18169e-07
1.19134e-06
-6.90454e-07
-4.25668e-07
5.86216e-07
-4.55519e-07
-4.94119e-07
4.5679e-07
-4.98706e-07
-5.98556e-07
4.71629e-07
-5.34621e-07
-6.36627e-07
3.03067e-07
-4.96736e-07
-5.92616e-07
6.83103e-08
-4.24263e-07
-4.84928e-07
-1.63123e-07
-3.39968e-07
-3.35515e-07
-3.58817e-07
-2.48168e-07
-1.64426e-07
-5.14104e-07
-1.56294e-07
-6.03548e-07
-9.72577e-08
-2.87894e-07
1.74206e-06
-8.61338e-07
-3.36821e-07
8.30579e-07
-4.34753e-07
-4.24299e-07
6.46689e-07
-4.57299e-07
-6.22824e-07
7.6088e-07
-6.00373e-07
-7.43227e-07
5.28915e-07
-6.124e-07
-7.30007e-07
1.56189e-07
-5.33238e-07
-6.04902e-07
-2.13607e-07
-4.15324e-07
-4.2492e-07
-4.94656e-07
-2.76529e-07
-2.15892e-07
-6.88326e-07
-1.57548e-07
-7.8477e-07
-1.05835e-07
-1.56571e-07
2.48752e-06
-1.17774e-06
-2.68134e-07
1.47293e-06
-7.04877e-07
-5.28943e-07
1.21946e-06
-6.07266e-07
-8.27482e-07
1.27512e-06
-7.50589e-07
-9.97745e-07
8.99905e-07
-7.75189e-07
-9.78311e-07
3.28147e-07
-6.66882e-07
-8.27683e-07
-1.95288e-07
-4.88766e-07
-6.01231e-07
-5.87822e-07
-2.91918e-07
-3.2835e-07
-8.35357e-07
-1.35997e-07
-9.97105e-07
-6.95728e-08
-1.04305e-07
3.44617e-06
-1.87532e-06
-5.11047e-07
2.61315e-06
-1.46971e-06
-1.02174e-06
2.31599e-06
-1.1042e-06
-1.3579e-06
2.02456e-06
-1.0465e-06
-1.52845e-06
1.41206e-06
-9.97087e-07
-1.48687e-06
6.02155e-07
-8.61644e-07
-1.23916e-06
-1.92822e-07
-6.55192e-07
-9.01851e-07
-7.76128e-07
-4.30241e-07
-4.84558e-07
-1.15862e-06
-2.19052e-07
-1.45847e-06
-3.67836e-08
-3.52853e-07
4.66018e-06
-2.5069e-06
-1.19401e-06
4.15155e-06
-2.24689e-06
-1.85747e-06
3.68418e-06
-1.84725e-06
-2.15066e-06
2.96588e-06
-1.66683e-06
-2.21412e-06
2.07226e-06
-1.56747e-06
-2.02581e-06
9.03419e-07
-1.45105e-06
-1.60982e-06
-3.11162e-07
-1.12108e-06
-1.05582e-06
-1.13946e-06
-6.4799e-07
-4.2512e-07
-1.65589e-06
-1.66045e-07
-1.93201e-06
2.15241e-07
-1.17136e-06
4.61014e-06
-3.34859e-06
-2.47145e-06
3.87595e-06
-3.39745e-06
-3.15402e-06
2.98665e-06
-3.25183e-06
-3.31273e-06
2.05183e-06
-2.97198e-06
-3.11444e-06
1.2475e-06
-2.58776e-06
-2.7033e-06
4.62273e-07
-2.21127e-06
-2.10399e-06
-2.68749e-07
-1.91564e-06
-1.36533e-06
-7.3789e-07
-1.6543e-06
-6.01788e-07
-8.42326e-07
-1.4354e-06
-7.5451e-07
-1.28526e-06
-9.36626e-07
2.42804e-07
-1.76001e-06
-1.63051e-06
6.10442e-08
-1.95077e-06
-1.68909e-06
4.09978e-08
-1.79909e-06
-1.44476e-06
6.26432e-08
-1.49892e-06
-1.19968e-06
7.98253e-08
-1.27399e-06
-1.15193e-06
5.80673e-08
-1.32135e-06
-1.00144e-06
-1.63246e-09
-1.72791e-06
-6.6591e-07
-2.58456e-09
-1.69964e-06
-2.26149e-07
-1.51096e-09
-1.01379e-06
-1.82295e-09
-3.467e-07
-6.19797e-08
5.11191e-08
-1.96125e-07
-9.04136e-08
1.3272e-08
-1.369e-07
-8.23576e-08
3.19478e-09
-9.48108e-08
-5.84192e-08
4.07424e-09
-5.89348e-08
-2.36041e-08
3.14058e-09
-2.66763e-08
-2.22251e-10
9.86029e-10
-3.39771e-10
-3.09587e-10
2.95223e-11
-2.10664e-09
-1.94657e-10
8.78462e-12
-3.6785e-09
-2.17082e-10
-2.27641e-12
-2.05658e-09
-7.12754e-10
-1.60921e-09
4.0011e-09
5.20548e-09
-5.02662e-08
-4.38276e-10
1.5268e-09
-2.87779e-08
-2.17274e-09
-8.88789e-10
-7.03776e-09
-1.38318e-09
-2.53764e-10
-1.67352e-09
-3.76666e-10
2.90517e-11
-4.86094e-10
-5.43677e-11
-1.33988e-10
-9.37526e-11
-5.19163e-11
2.9571e-11
-1.63076e-10
-2.79615e-11
1.57236e-11
-3.92944e-10
-4.88817e-11
9.13909e-13
-5.33733e-10
-8.80646e-11
-1.92836e-09
2.46992e-09
-6.76725e-10
-6.81732e-09
1.41009e-09
-4.02074e-10
-4.99483e-09
2.72497e-10
-2.29883e-10
-8.87529e-10
4.4849e-11
-1.02332e-10
-1.0378e-10
2.31105e-11
-6.11429e-12
-2.81563e-11
5.56457e-11
4.79172e-11
-3.49586e-11
4.58109e-11
4.95134e-11
1.42432e-12
8.84197e-11
1.89935e-11
-5.19391e-10
4.14937e-11
-2.5241e-11
-1.21058e-10
-7.70613e-11
-8.8525e-12
7.15454e-10
3.16269e-09
-8.46639e-11
2.69263e-10
3.30804e-10
-4.86227e-10
5.77996e-11
2.35215e-11
-2.93064e-11
1.27892e-11
-4.79028e-12
7.72284e-12
2.52741e-11
2.72768e-12
1.47992e-12
1.50151e-10
1.40184e-11
2.34539e-12
2.07249e-10
4.94089e-11
-1.76952e-12
1.85787e-10
1.1494e-11
2.60301e-11
1.06815e-10
-2.78156e-11
4.86023e-12
-4.40712e-11
2.49777e-11
5.89903e-10
3.20115e-09
4.05932e-10
2.69101e-11
1.26695e-09
5.69216e-11
-4.3867e-12
1.54376e-10
1.72681e-11
2.38828e-12
1.81585e-11
5.33225e-12
7.55856e-12
3.64686e-12
2.2675e-12
1.99659e-11
4.93884e-14
-5.08462e-13
8.82199e-11
6.22893e-13
-1.84049e-12
1.9459e-10
8.3586e-12
1.78235e-11
1.49284e-10
-1.86141e-11
3.88359e-11
-1.66997e-11
1.09402e-10
4.40514e-10
3.81393e-10
4.56948e-10
4.78888e-11
6.70805e-10
2.51538e-10
-1.26998e-11
1.74933e-10
5.62944e-11
2.6225e-12
9.00734e-12
4.74993e-12
3.00372e-12
1.89367e-12
1.84313e-12
5.30555e-12
2.14079e-12
1.20185e-12
1.60508e-11
2.54644e-12
-6.88573e-13
4.50123e-11
2.70291e-12
7.79125e-13
1.0509e-10
-1.15002e-11
3.25729e-11
-3.05093e-11
1.11972e-10
8.98032e-11
4.48448e-10
1.42303e-11
8.53761e-11
7.56689e-11
8.24686e-11
6.21334e-12
4.40347e-11
4.4496e-11
3.69363e-12
6.85936e-12
4.35082e-12
2.42116e-12
1.42053e-12
1.31262e-12
2.02491e-12
2.34134e-12
8.24455e-13
5.12072e-12
6.80868e-13
1.019e-12
2.17924e-10
-2.04772e-11
3.66808e-11
1.68829e-10
-4.64978e-11
5.85962e-11
-3.19533e-11
9.5336e-11
1.5575e-10
9.44652e-10
7.50149e-11
-1.91381e-12
2.80404e-10
7.59439e-12
1.95144e-12
3.94573e-11
3.83974e-12
3.90921e-12
3.50734e-12
1.27013e-12
3.23873e-12
9.14493e-13
4.62971e-13
1.65512e-10
1.98356e-11
2.07796e-11
1.73476e-10
-7.74954e-12
5.47271e-11
1.66555e-10
-4.09946e-11
6.33835e-11
1.18577e-10
-8.30074e-11
4.67411e-11
-2.30696e-11
1.0793e-10
1.78631e-10
6.77878e-10
2.10008e-10
5.26184e-11
1.08459e-09
7.14366e-11
9.04381e-12
8.35587e-11
2.8865e-12
8.09337e-12
2.40509e-12
5.56911e-13
1.23138e-10
3.17186e-11
7.86971e-12
2.01972e-10
2.13234e-11
3.04487e-11
1.11082e-10
-1.95174e-11
2.53421e-11
5.8993e-11
-4.40212e-11
9.7466e-12
6.75206e-11
-9.97388e-11
4.17342e-11
-3.20969e-11
9.07674e-11
1.15036e-10
5.33935e-10
1.63842e-10
2.22438e-10
9.34658e-10
1.46387e-10
9.96816e-12
4.59828e-10
3.93743e-11
-2.25751e-12
9.77213e-12
1.38619e-12
8.12939e-11
3.57197e-11
4.71461e-12
8.61063e-11
2.44633e-11
4.24313e-11
3.25551e-11
-1.69166e-12
2.96353e-13
3.37867e-11
-2.4919e-11
5.21508e-12
9.19686e-12
-1.02444e-10
2.13453e-11
-2.53589e-11
1.29625e-11
2.75391e-11
5.28616e-11
2.06043e-10
9.67854e-11
4.95147e-11
2.72084e-10
-1.51877e-11
2.21236e-11
2.64028e-10
-6.07933e-12
1.62956e-12
1.55663e-11
5.09331e-11
1.37982e-12
1.95116e-11
3.35613e-11
1.19278e-11
2.47649e-12
5.21015e-12
-1.04162e-12
3.49109e-13
-1.72995e-11
3.96044e-12
-1.74577e-12
-2.09544e-11
1.48451e-11
-2.99801e-11
3.16079e-12
-5.71391e-12
-1.75471e-07
2.54955e-07
-5.30158e-07
-2.73004e-07
1.55367e-07
-4.22932e-07
-3.42e-07
1.25383e-07
-4.23836e-07
-3.86698e-07
9.52188e-08
-3.98328e-07
-3.92789e-07
4.57348e-08
-3.49263e-07
-3.55826e-07
-1.20613e-08
-2.84406e-07
-2.83099e-07
-6.49293e-08
-2.09209e-07
-1.89623e-07
-1.03317e-07
-1.33124e-07
-9.6431e-08
-1.28582e-07
-4.7983e-08
-1.37185e-07
-4.49936e-09
-2.33868e-07
5.85229e-07
-6.98094e-07
-3.70636e-07
3.70184e-07
-5.51858e-07
-4.57332e-07
2.83961e-07
-5.54081e-07
-5.13594e-07
2.16869e-07
-5.27979e-07
-5.20728e-07
1.08654e-07
-4.70858e-07
-4.73478e-07
-1.63611e-08
-3.97641e-07
-3.74411e-07
-1.39963e-07
-3.10928e-07
-2.39724e-07
-2.36821e-07
-2.16491e-07
-9.9996e-08
-2.98349e-07
-1.06429e-07
-2.99924e-07
-3.26649e-08
-2.96192e-07
1.00342e-06
-8.12457e-07
-4.50907e-07
6.61181e-07
-5.91801e-07
-5.32538e-07
4.81984e-07
-6.15098e-07
-5.98301e-07
3.65083e-07
-6.17072e-07
-6.05662e-07
1.79672e-07
-5.60394e-07
-5.45192e-07
-3.22511e-08
-4.68844e-07
-4.27631e-07
-2.37969e-07
-3.59522e-07
-2.75774e-07
-3.95277e-07
-2.41569e-07
-1.14687e-07
-4.67426e-07
-1.48305e-07
-4.23214e-07
-1.26377e-07
-3.50968e-07
1.52267e-06
-1.02962e-06
-5.16335e-07
1.06518e-06
-6.73388e-07
-5.95673e-07
7.7517e-07
-6.71148e-07
-7.02323e-07
6.06574e-07
-7.35215e-07
-7.43631e-07
3.15405e-07
-7.06824e-07
-6.88021e-07
-1.79162e-08
-6.03184e-07
-5.45483e-07
-3.45151e-07
-4.5068e-07
-3.71581e-07
-5.57294e-07
-2.88414e-07
-1.69358e-07
-6.20539e-07
-2.06658e-07
-5.40727e-07
-2.45848e-07
-3.17702e-07
2.18821e-06
-1.52557e-06
-5.49018e-07
1.6731e-06
-1.08147e-06
-7.19928e-07
1.28128e-06
-9.42467e-07
-8.92894e-07
1.00646e-06
-9.7751e-07
-9.57231e-07
5.50652e-07
-9.46099e-07
-8.78038e-07
4.51197e-08
-8.09111e-07
-7.03071e-07
-4.02931e-07
-6.05953e-07
-4.92981e-07
-6.78107e-07
-3.81194e-07
-2.38652e-07
-7.56054e-07
-2.5481e-07
-7.18132e-07
-2.79674e-07
-2.67526e-07
2.94204e-06
-2.36163e-06
-6.65465e-07
2.44471e-06
-1.84338e-06
-1.00545e-06
2.01718e-06
-1.50011e-06
-1.24709e-06
1.58327e-06
-1.38167e-06
-1.32577e-06
9.33051e-07
-1.30081e-06
-1.20257e-06
2.11961e-07
-1.15168e-06
-9.35609e-07
-4.22489e-07
-9.02599e-07
-6.43722e-07
-8.06073e-07
-5.94163e-07
-2.95743e-07
-9.76248e-07
-3.46838e-07
-1.01836e-06
-2.8416e-07
-4.16511e-07
3.86281e-06
-3.01115e-06
-1.13086e-06
3.44681e-06
-2.53464e-06
-1.69294e-06
2.95353e-06
-2.22152e-06
-1.9724e-06
2.29638e-06
-2.10048e-06
-1.96409e-06
1.37456e-06
-2.01729e-06
-1.67212e-06
2.97872e-07
-1.82893e-06
-1.23636e-06
-5.22249e-07
-1.45708e-06
-7.17701e-07
-9.81679e-07
-9.91049e-07
-1.27045e-07
-1.18278e-06
-5.50187e-07
-1.11733e-06
-2.82954e-07
-1.23376e-06
3.11049e-06
-3.92801e-06
-2.35026e-06
2.61543e-06
-3.67079e-06
-2.82535e-06
1.93882e-06
-3.43405e-06
-2.90904e-06
1.24812e-06
-3.15767e-06
-2.7681e-06
6.48062e-07
-2.87099e-06
-2.41984e-06
3.0369e-08
-2.66108e-06
-1.83638e-06
-3.42011e-07
-2.53311e-06
-9.9833e-07
-5.00198e-07
-2.43644e-06
-2.24418e-07
-4.19147e-07
-2.18577e-06
-3.31811e-07
-1.79898e-06
-8.27642e-07
6.9095e-08
-1.58877e-06
-1.47291e-06
3.80002e-08
-1.85173e-06
-1.64806e-06
5.78524e-08
-1.90906e-06
-1.48641e-06
8.24752e-08
-1.75011e-06
-1.31909e-06
4.51247e-08
-1.55721e-06
-1.17211e-06
-1.79327e-09
-1.67439e-06
-8.77852e-07
-6.98746e-09
-1.7082e-06
-4.55869e-07
-8.83356e-09
-1.23696e-06
-1.75246e-07
-4.66241e-09
-7.50913e-07
-6.12533e-09
-3.18376e-07
-4.35177e-08
3.99365e-08
-1.54758e-07
-6.13369e-08
1.50649e-08
-1.09899e-07
-4.1357e-08
1.69176e-09
-6.15954e-08
-1.84948e-08
7.62283e-10
-6.08468e-11
-1.54233e-10
3.93768e-10
-1.77576e-10
-6.13277e-10
-4.13453e-13
-1.61268e-09
-8.99048e-10
-1.05582e-10
-8.71947e-09
-5.78762e-10
-2.43089e-10
-1.2779e-08
-8.2167e-10
-1.09707e-10
-6.0811e-09
-2.86178e-09
-3.4617e-09
4.07642e-09
6.76011e-09
-2.52914e-08
2.20988e-09
3.22975e-09
-1.66173e-08
5.12773e-10
-6.32935e-10
-3.4216e-09
6.02649e-11
-1.67268e-10
-2.61155e-10
-3.15162e-12
4.92936e-12
-4.20979e-11
-1.72287e-11
4.94065e-12
-2.16757e-11
-6.28692e-11
-1.66726e-11
-1.87139e-10
-8.22516e-12
-5.01317e-10
-4.63941e-10
-3.03537e-10
-8.16053e-11
-7.65234e-10
-3.1051e-10
-3.72119e-09
1.5437e-09
5.31768e-10
-2.55884e-09
1.2269e-09
3.54809e-10
-2.00348e-09
2.74652e-10
-2.22404e-10
-4.41139e-10
4.48189e-11
-2.76514e-11
-6.99002e-11
2.57041e-11
1.98592e-12
-7.4031e-12
3.5189e-11
3.39216e-12
-3.4874e-11
2.58546e-10
8.47794e-12
-2.27671e-10
5.69545e-10
-2.94013e-10
-3.86432e-09
7.54239e-11
-1.56987e-10
-2.29374e-10
-1.74266e-10
-1.68932e-10
2.62354e-10
1.66982e-10
-1.06603e-10
2.63022e-10
-4.376e-11
-1.25906e-10
4.72534e-11
-2.6219e-11
-2.26932e-11
9.81431e-12
7.33857e-13
1.44868e-13
8.50751e-12
1.7517e-12
3.41733e-13
2.0176e-11
2.39753e-12
-5.52943e-13
3.55985e-11
1.10833e-12
-4.52501e-12
7.19552e-10
-1.48276e-11
-5.27061e-10
1.47632e-10
-6.55531e-12
3.37947e-11
-1.97875e-10
7.20441e-11
1.40277e-10
2.28875e-10
4.9915e-12
3.73497e-11
1.23323e-10
1.51344e-13
9.14791e-12
3.45725e-11
3.62883e-12
3.52027e-12
3.18508e-12
4.51121e-12
7.28758e-12
3.56018e-13
2.48967e-12
1.59083e-11
1.23099e-12
3.09752e-12
1.87447e-11
3.21255e-12
3.0313e-12
1.64679e-11
-1.86308e-12
1.64424e-11
4.57777e-11
-3.53977e-12
7.25935e-12
-7.26679e-10
3.70542e-10
8.74341e-11
1.08198e-10
1.7589e-11
5.39502e-11
1.45448e-10
-2.3251e-12
2.48498e-12
4.60494e-11
4.62181e-13
-1.38323e-12
2.49881e-12
4.95039e-12
4.33095e-12
1.23246e-12
3.03826e-12
1.13552e-11
1.34305e-12
3.43992e-12
1.26631e-11
3.25404e-12
4.4806e-12
1.9608e-11
-2.58001e-12
4.93692e-12
5.03104e-11
-7.30386e-12
4.68575e-12
-9.79991e-10
4.65359e-10
1.44484e-11
2.94619e-11
1.23073e-11
3.28151e-11
1.42544e-11
3.38894e-12
5.46348e-12
7.26156e-12
1.40398e-12
2.27291e-12
2.01928e-12
2.94465e-12
2.38894e-12
7.53826e-13
1.73125e-12
2.8865e-12
4.2749e-13
1.00746e-12
5.14081e-11
-3.03749e-12
1.8023e-11
8.1689e-11
-2.34298e-11
1.35329e-11
1.32604e-10
-8.1964e-12
7.84632e-12
-1.28029e-09
3.64295e-10
1.2327e-11
6.74347e-11
3.5019e-12
-5.3215e-15
2.35381e-11
2.97337e-12
1.94426e-12
2.90254e-12
2.42744e-12
2.08598e-12
1.17146e-12
8.2276e-13
1.28288e-12
5.11278e-13
4.42115e-13
5.60218e-11
3.97025e-12
1.43315e-12
8.06731e-11
-1.55081e-11
2.65583e-12
6.49143e-11
-1.27709e-11
-4.68187e-12
1.06015e-10
-8.10247e-12
4.93547e-12
-1.76434e-09
2.65161e-10
2.34812e-11
1.0045e-10
-2.03861e-12
4.71693e-12
7.81427e-11
2.09764e-12
2.97804e-12
4.62624e-12
1.37715e-12
1.58619e-12
1.20486e-12
1.94037e-13
1.61508e-11
2.72689e-12
6.50574e-13
3.90936e-11
2.6518e-12
4.667e-12
1.60502e-11
-5.00727e-12
-6.93107e-14
9.73027e-12
-3.87845e-12
-2.59042e-14
8.07436e-11
-4.12461e-11
2.5355e-12
-1.02808e-09
1.62297e-10
2.34436e-11
5.97788e-11
-2.0911e-12
1.66965e-11
6.98896e-11
-1.15529e-12
2.47309e-12
1.35472e-11
1.42627e-14
1.84128e-12
1.57351e-12
2.90782e-13
7.63886e-12
2.92338e-12
6.65365e-13
1.65509e-11
2.26696e-12
1.32167e-12
2.25159e-12
-1.87387e-12
1.2209e-13
3.86586e-12
-1.99039e-12
-3.44101e-13
5.14189e-12
-3.09129e-11
2.90371e-13
-9.63271e-12
5.07608e-11
8.89749e-12
-1.88995e-12
6.95341e-12
8.01702e-12
-3.586e-13
1.16015e-11
3.51477e-12
-6.47778e-14
7.07691e-12
1.12283e-12
2.61584e-13
1.4904e-12
1.82044e-12
-2.36033e-14
1.54874e-12
5.15405e-12
5.36754e-13
8.62831e-12
7.83181e-13
2.03113e-13
-1.10639e-12
-2.42962e-12
1.85428e-13
-7.2721e-13
-5.44596e-13
1.09605e-11
-4.51493e-12
4.80455e-12
-9.55256e-13
-1.60741e-07
1.91298e-07
-5.60716e-07
-2.4732e-07
1.06251e-07
-4.42604e-07
-3.05105e-07
7.33248e-08
-4.39376e-07
-3.37833e-07
4.33784e-08
-4.08978e-07
-3.33292e-07
-2.16329e-09
-3.51641e-07
-2.886e-07
-5.01674e-08
-2.78931e-07
-2.12248e-07
-8.79714e-08
-1.9759e-07
-1.2216e-07
-1.04704e-07