/*--------------------------------*- C++ -*----------------------------------*\
| =========                 |                                                 |
| \\      /  F ield         | OpenFOAM: The Open Source CFD Toolbox           |
|  \\    /   O peration     | Version:  2312                                  |
|   \\  /    A nd           | Website:  www.openfoam.com                      |
|    \\/     M anipulation  |                                                 |
\*---------------------------------------------------------------------------*/
FoamFile
{
    version     2.0;
    format      ascii;
    arch        "LSB;label=32;scalar=64";
    class       surfaceScalarField;
    location    "0.695";
    object      phi;
}
// * * * * * * * * * * * * * * * * * * * * * * * * * * * * * * * * * * * * * //

dimensions      [0 3 -1 0 0 0 0];

oriented        oriented;

internalField   nonuniform List<scalar> 
22600
(
-1.93371e-07
3.8936e-07
-1.95989e-07
-3.2689e-07
3.25269e-07
-1.91749e-07
-4.34582e-07
2.94687e-07
-1.86995e-07
-5.09518e-07
2.48781e-07
-1.73845e-07
-5.38433e-07
1.87607e-07
-1.58692e-07
-5.16541e-07
1.238e-07
-1.45692e-07
-4.48152e-07
6.55432e-08
-1.33932e-07
-3.34645e-07
1.33721e-08
-1.26879e-07
-1.87667e-07
-2.3754e-08
-1.23224e-07
-4.37496e-08
-1.2505e-07
-2.64123e-07
9.18152e-07
-2.64669e-07
-4.52206e-07
7.7506e-07
-2.61708e-07
-5.87288e-07
6.84854e-07
-2.55085e-07
-6.76234e-07
5.68681e-07
-2.30954e-07
-6.99892e-07
4.18078e-07
-2.06813e-07
-6.55564e-07
2.66755e-07
-1.87283e-07
-5.50349e-07
1.31707e-07
-1.71379e-07
-3.991e-07
2.00229e-08
-1.57901e-07
-2.16875e-07
-6.1738e-08
-1.44241e-07
-1.0805e-07
-1.37975e-07
-2.83827e-07
1.48593e-06
-2.8395e-07
-5.10999e-07
1.28403e-06
-2.81803e-07
-6.74009e-07
1.16194e-06
-3.1408e-07
-7.84141e-07
9.69432e-07
-2.90619e-07
-8.17623e-07
7.01885e-07
-2.50325e-07
-7.713e-07
4.36419e-07
-2.15987e-07
-6.55264e-07
2.0158e-07
-1.85909e-07
-4.78944e-07
1.55791e-09
-1.57855e-07
-2.61243e-07
-1.47598e-07
-1.31842e-07
-2.43896e-07
-1.12034e-07
-2.64774e-07
2.0243e-06
-2.73596e-07
-5.83113e-07
1.75933e-06
-1.56953e-07
-8.35229e-07
1.70438e-06
-2.90316e-07
-9.88515e-07
1.46577e-06
-3.43051e-07
-1.03432e-06
1.0618e-06
-3.14102e-07
-9.82525e-07
6.3935e-07
-2.5473e-07
-8.43516e-07
2.5565e-07
-1.93079e-07
-6.35204e-07
-7.76074e-08
-1.29147e-07
-3.56283e-07
-3.70561e-07
-5.59568e-08
-5.8066e-07
-5.68576e-09
-1.16286e-07
2.25882e-06
-1.18236e-07
-5.97794e-07
2.16892e-06
7.19186e-08
-1.16373e-06
2.42196e-06
-1.51652e-07
-1.47654e-06
2.07043e-06
-2.9185e-07
-1.55432e-06
1.43484e-06
-2.9526e-07
-1.47616e-06
7.75203e-07
-2.14018e-07
-1.29007e-06
1.74543e-07
-1.04982e-07
-9.9473e-07
-3.69827e-07
-3.12117e-09
-5.98338e-07
-8.62913e-07
9.59602e-08
-1.33724e-06
1.6856e-07
-2.15632e-07
2.67601e-06
-2.01555e-07
-1.03342e-06
3.0259e-06
-3.92007e-08
-1.8612e-06
3.31806e-06
-6.83113e-08
-2.31838e-06
2.74844e-06
-2.20835e-07
-2.49479e-06
1.88363e-06
-2.72378e-07
-2.40834e-06
9.02196e-07
-2.13449e-07
-2.05278e-06
-2.6369e-08
-1.54649e-07
-1.55079e-06
-7.54915e-07
-1.16901e-07
-9.13979e-07
-1.45892e-06
-4.08011e-08
-2.34406e-06
1.03562e-07
-6.7919e-07
3.96234e-06
-6.07143e-07
-1.69875e-06
4.5314e-06
-4.85946e-07
-2.47397e-06
4.35459e-06
-2.61298e-07
-2.90853e-06
3.48087e-06
-2.97866e-07
-3.07792e-06
2.45188e-06
-3.98867e-07
-2.88955e-06
1.21072e-06
-4.96892e-07
-2.30908e-06
-9.89992e-08
-5.07842e-07
-1.61899e-06
-1.15024e-06
-2.94761e-07
-9.28363e-07
-2.1267e-06
-2.28495e-08
-3.19983e-06
2.53993e-07
-1.153e-06
6.04483e-06
-9.2949e-07
-2.65733e-06
7.25247e-06
-1.21674e-06
-4.06148e-06
7.0006e-06
-1.24187e-06
-4.77134e-06
5.4631e-06
-1.27238e-06
-4.53348e-06
3.39168e-06
-1.17766e-06
-3.73971e-06
1.42317e-06
-1.00622e-06
-2.78288e-06
-2.00553e-07
-8.55284e-07
-1.90321e-06
-1.22514e-06
-8.04768e-07
-1.06183e-06
-2.0812e-06
-8.86872e-07
-2.51705e-06
-1.13601e-06
-1.50975e-06
8.73762e-06
-1.18303e-06
-3.6283e-06
1.13354e-05
-1.9644e-06
-6.20907e-06
1.21413e-05
-2.55989e-06
-7.64425e-06
9.94488e-06
-3.0466e-06
-7.99641e-06
7.44179e-06
-3.69795e-06
-7.35973e-06
5.71146e-06
-4.92497e-06
-5.76994e-06
5.0028e-06
-6.79314e-06
-3.32739e-06
4.95306e-06
-8.62076e-06
-6.86157e-07
4.80553e-06
-9.52796e-06
4.58507e-06
-8.85844e-06
-2.46104e-06
1.30763e-05
-1.87764e-06
-5.69141e-06
1.71667e-05
-2.60093e-06
-7.74693e-06
1.74603e-05
-3.26353e-06
-8.58297e-06
1.5278e-05
-4.49704e-06
-8.8193e-06
1.37623e-05
-6.08418e-06
-8.28752e-06
1.35543e-05
-8.37464e-06
-6.07517e-06
1.39986e-05
-1.12081e-05
-1.08454e-06
1.32945e-05
-1.33321e-05
3.56975e-06
1.24491e-05
-1.22979e-05
1.17675e-05
-8.55221e-06
-5.9914e-06
2.0572e-05
-1.50426e-06
-8.37265e-06
2.22799e-05
-2.73194e-06
-9.67659e-06
2.05901e-05
-1.82583e-06
-1.0595e-05
1.84569e-05
-2.26045e-06
-1.08494e-05
1.72203e-05
-3.20365e-06
-9.72983e-06
1.79394e-05
-5.50465e-06
-5.99939e-06
1.96099e-05
-9.34181e-06
4.71671e-07
1.97172e-05
-1.28937e-05
6.7641e-06
1.79309e-05
-1.17742e-05
1.52259e-05
-4.74106e-06
-4.78333e-06
2.29911e-05
2.36421e-06
-7.72287e-06
2.56867e-05
-4.6723e-07
-9.41785e-06
2.17711e-05
5.13939e-07
-1.03155e-05
1.80648e-05
1.28972e-06
-1.01611e-05
1.55194e-05
1.54652e-06
-8.08199e-06
1.62625e-05
-4.02224e-07
-4.148e-06
1.88465e-05
-3.1706e-06
1.71651e-06
1.95789e-05
-5.72624e-06
6.90481e-06
1.77159e-05
-4.97333e-06
1.46944e-05
-7.9709e-07
-2.82764e-06
2.20142e-05
3.80456e-06
-4.98301e-06
2.59968e-05
1.84525e-06
-6.23126e-06
2.06559e-05
2.36348e-06
-6.50269e-06
1.45336e-05
3.80264e-06
-6.01758e-06
1.00508e-05
4.98343e-06
-4.42092e-06
9.86051e-06
4.80536e-06
-1.66758e-06
1.30875e-05
3.00568e-06
2.16963e-06
1.49507e-05
7.90981e-07
5.21759e-06
1.36357e-05
1.03228e-06
1.11493e-05
2.63282e-06
4.28827e-08
1.79995e-05
3.97176e-06
-9.0719e-07
2.34265e-05
3.52044e-06
-1.15307e-06
1.76783e-05
3.22351e-06
-7.85953e-07
1.00408e-05
4.12571e-06
-7.54351e-07
5.13886e-06
4.88035e-06
-6.7571e-07
4.43927e-06
5.3426e-06
5.08088e-07
6.86608e-06
5.03763e-06
2.30442e-06
8.9521e-06
4.20228e-06
3.65037e-06
8.57416e-06
3.71559e-06
7.23116e-06
3.33239e-06
2.92297e-06
1.23158e-05
2.76072e-06
3.80812e-06
1.8629e-05
3.91226e-06
4.19661e-06
1.39166e-05
3.37318e-06
4.32329e-06
6.93688e-06
2.97722e-06
3.84405e-06
2.83635e-06
2.78175e-06
2.99251e-06
2.03277e-06
3.25804e-06
2.74282e-06
3.48095e-06
3.6348e-06
3.04796e-06
5.16444e-06
3.48253e-06
3.39147e-06
5.26514e-06
2.9655e-06
4.49795e-06
2.37762e-06
3.71261e-06
7.90577e-06
6.97453e-07
6.13905e-06
1.38115e-05
2.39111e-06
7.09645e-06
1.08028e-05
2.15642e-06
6.98627e-06
5.77253e-06
1.27454e-06
6.29498e-06
2.69319e-06
8.34455e-07
5.27524e-06
1.75468e-06
1.29782e-06
4.44817e-06
2.55238e-06
1.75566e-06
4.11212e-06
3.87249e-06
1.62799e-06
4.18334e-06
4.01215e-06
1.18178e-06
3.21684e-06
9.68666e-07
2.74915e-06
5.96766e-06
-8.11029e-07
5.43465e-06
1.07373e-05
3.88688e-07
6.69789e-06
9.15043e-06
3.89122e-07
6.61501e-06
5.81691e-06
3.85034e-08
5.97157e-06
3.2644e-06
7.22333e-08
5.12436e-06
1.99183e-06
6.10059e-07
4.42877e-06
2.34537e-06
9.02589e-07
4.2738e-06
3.42052e-06
6.0694e-07
4.63697e-06
3.37218e-06
2.76799e-07
2.26036e-06
5.22106e-07
1.34261e-06
5.36003e-06
-7.34982e-07
3.52091e-06
9.16099e-06
-6.01979e-07
4.71906e-06
8.36276e-06
-4.1048e-07
4.72237e-06
5.93753e-06
-1.23932e-07
4.23006e-06
3.502e-06
2.54714e-07
3.53564e-06
1.94423e-06
7.42021e-07
3.04393e-06
1.92245e-06
9.14638e-07
3.20954e-06
2.61976e-06
6.35144e-07
3.89014e-06
2.20684e-06
4.84751e-07
6.4822e-07
1.01483e-06
3.22951e-07
4.99263e-06
4.44489e-08
1.78639e-06
7.91628e-06
-2.18728e-07
2.63337e-06
7.54495e-06
-2.91632e-08
2.67695e-06
5.65129e-06
2.42672e-07
2.37524e-06
3.16169e-06
6.42023e-07
1.77512e-06
1.60532e-06
9.39032e-07
1.32368e-06
1.28443e-06
1.08946e-06
1.56485e-06
1.34104e-06
1.03755e-06
2.27101e-06
4.04497e-07
1.09618e-06
-1.56251e-06
1.59152e-06
-2.74051e-07
6.60331e-07
4.60635e-06
4.92962e-07
3.47669e-07
6.80159e-06
1.01642e-06
3.61247e-07
6.66024e-06
1.14363e-06
5.17745e-07
5.00633e-06
1.14867e-06
8.00048e-07
2.35661e-06
7.22602e-07
9.49027e-07
1.08236e-06
2.56599e-07
1.01663e-06
7.33804e-07
2.71252e-07
1.13863e-06
1.87749e-07
5.95952e-07
1.18709e-06
-1.10729e-06
1.20722e-06
-2.96025e-06
-1.89226e-07
3.25094e-07
-3.31858e-07
-2.83805e-07
1.90885e-07
-2.88055e-07
-3.4975e-07
1.67094e-07
-2.88143e-07
-4.02629e-07
1.50099e-07
-2.71065e-07
-4.19803e-07
1.03352e-07
-2.44869e-07
-3.93569e-07
4.29243e-08
-2.1485e-07
-3.28574e-07
-1.62422e-08
-1.82685e-07
-2.36049e-07
-6.57736e-08
-1.53631e-07
-1.29532e-07
-1.02394e-07
-1.27347e-07
-1.27954e-07
-1.15504e-07
-2.61331e-07
7.7593e-07
-4.54174e-07
-3.85682e-07
4.39859e-07
-3.86331e-07
-4.61857e-07
3.79022e-07
-3.9084e-07
-5.30472e-07
3.5445e-07
-3.6669e-07
-5.51182e-07
2.45325e-07
-3.28076e-07
-5.1551e-07
1.07566e-07
-2.87597e-07
-4.30918e-07
-2.46053e-08
-2.47608e-07
-3.1039e-07
-1.36494e-07
-2.07708e-07
-1.67258e-07
-2.22366e-07
-1.67401e-07
-2.87353e-07
-1.40511e-07
-2.75891e-07
1.28013e-06
-5.12256e-07
-3.53114e-07
5.98682e-07
-3.63404e-07
-4.3587e-07
5.67678e-07
-4.19979e-07
-5.62749e-07
6.3268e-07
-4.4197e-07
-6.17172e-07
4.51465e-07
-4.02041e-07
-5.84689e-07
2.05753e-07
-3.46657e-07
-4.86359e-07
-1.77407e-08
-2.91104e-07
-3.46553e-07
-2.00752e-07
-2.33404e-07
-1.81947e-07
-3.45442e-07
-1.73372e-07
-4.55631e-07
-1.27231e-07
-1.34059e-07
1.73024e-06
-5.89652e-07
-1.89943e-07
7.31053e-07
-2.3344e-07
-3.76812e-07
8.13943e-07
-3.49712e-07
-6.08024e-07
1.02512e-06
-5.04278e-07
-7.32676e-07
7.64705e-07
-5.02691e-07
-7.202e-07
3.68411e-07
-4.29862e-07
-6.11679e-07
2.02691e-08
-3.39609e-07
-4.3852e-07
-2.71691e-07
-2.31367e-07
-2.33345e-07
-4.85739e-07
-1.20834e-07
-6.5741e-07
-4.04993e-08
9.76654e-08
2.09157e-06
-5.77225e-07
-1.26588e-07
1.18986e-06
-1.62636e-07
-6.21808e-07
1.44643e-06
-2.88917e-07
-9.67639e-07
1.60938e-06
-5.30278e-07
-1.13146e-06
1.2036e-06
-5.70335e-07
-1.10434e-06
6.00073e-07
-4.72806e-07
-9.49783e-07
7.88345e-08
-3.181e-07
-7.16212e-07
-3.50975e-07
-1.57409e-07
-4.23987e-07
-6.73063e-07
-8.94099e-09
-1.00493e-06
9.4082e-08
-7.633e-08
2.95257e-06
-9.86227e-07
-7.31027e-07
2.50371e-06
-6.98352e-07
-1.38882e-06
2.53553e-06
-4.99624e-07
-1.72174e-06
2.34677e-06
-6.25301e-07
-1.91603e-06
1.77643e-06
-6.50911e-07
-1.88337e-06
8.98483e-07
-5.44528e-07
-1.59306e-06
4.00935e-08
-4.06218e-07
-1.18406e-06
-5.96377e-07
-2.80496e-07
-6.95209e-07
-1.08654e-06
-1.1617e-07
-1.74077e-06
1.20174e-07
-5.91796e-07
4.5226e-06
-1.58538e-06
-1.59947e-06
4.50078e-06
-1.47534e-06
-2.21675e-06
3.97707e-06
-1.08557e-06
-2.44929e-06
3.26932e-06
-9.87874e-07
-2.54399e-06
2.4352e-06
-9.62938e-07
-2.41253e-06
1.23528e-06
-9.65153e-07
-1.95992e-06
-9.77523e-08
-8.22603e-07
-1.34699e-06
-1.07056e-06
-4.33504e-07
-6.79949e-07
-1.7858e-06
9.36292e-09
-2.56749e-06
4.2996e-07
-1.27992e-06
7.07169e-06
-2.19866e-06
-2.78139e-06
7.45917e-06
-2.67366e-06
-3.81806e-06
6.48526e-06
-2.71338e-06
-4.22123e-06
4.98879e-06
-2.58868e-06
-4.04704e-06
3.34036e-06
-2.25701e-06
-3.46227e-06
1.57693e-06
-1.93264e-06
-2.61251e-06
-2.05757e-07
-1.59704e-06
-1.76927e-06
-1.32828e-06
-1.39029e-06
-8.49146e-07
-2.21651e-06
-1.37629e-06
-2.84697e-06
-1.5782e-06
-2.10405e-06
1.07948e-05
-2.80211e-06
-4.34417e-06
1.20215e-05
-4.28663e-06
-5.95282e-06
1.04758e-05
-4.94174e-06
-6.83904e-06
8.03777e-06
-5.20935e-06
-7.18103e-06
5.70056e-06
-5.71616e-06
-7.04309e-06
3.63855e-06
-7.12453e-06
-6.26307e-06
1.68077e-06
-9.45969e-06
-5.01945e-06
6.51478e-07
-1.18441e-05
-3.15614e-06
-2.3175e-07
-1.3376e-05
-1.27303e-06
-1.35675e-05
-3.03743e-06
1.74003e-05
-5.4457e-06
-4.93649e-06
1.63945e-05
-5.07484e-06
-6.31584e-06
1.38178e-05
-5.22622e-06
-7.36664e-06
1.07253e-05
-6.13374e-06
-8.37432e-06
8.47217e-06
-7.84811e-06
-9.05489e-06
7.10421e-06
-1.11597e-05
-8.09911e-06
6.67699e-06
-1.71601e-05
-5.2003e-06
6.65636e-06
-2.22358e-05
-2.06554e-06
5.9348e-06
-2.15992e-05
2.41942e-06
-1.4941e-05
-2.55188e-06
2.56404e-05
-7.19242e-06
-3.45342e-06
2.039e-05
-5.82594e-06
-5.51977e-06
1.71877e-05
-3.12942e-06
-7.23358e-06
1.39861e-05
-3.80752e-06
-8.26191e-06
1.18288e-05
-5.5319e-06
-8.50928e-06
1.04999e-05
-8.65297e-06
-6.77642e-06
9.82006e-06
-1.42177e-05
-2.4917e-06
9.0389e-06
-1.9561e-05
3.77139e-06
6.54655e-06
-1.86491e-05
2.26735e-06
-8.02129e-06
-1.95975e-06
3.18444e-05
-1.88004e-06
-3.01011e-06
2.46821e-05
-3.70893e-06
-5.22739e-06
2.07136e-05
-7.94644e-07
-6.53762e-06
1.67016e-05
-1.15505e-07
-5.55854e-06
1.31552e-05
-7.5904e-07
-3.31886e-06
1.08221e-05
-2.96405e-06
-6.40715e-07
9.831e-06
-5.85968e-06
3.06541e-06
8.19476e-06
-8.58822e-06
7.15054e-06
5.63776e-06
-8.14967e-06
2.23664e-06
-1.83514e-06
-1.62625e-06
3.39002e-05
3.37498e-06
-3.25294e-06
2.85944e-05
-4.40431e-07
-4.58727e-06
2.29896e-05
1.42177e-06
-4.62296e-06
1.75199e-05
3.02005e-06
-2.77272e-06
1.23105e-05
3.9779e-06
2.22813e-07
9.47755e-06
3.15434e-06
3.3768e-06
8.55505e-06
1.12764e-06
5.93254e-06
6.93976e-06
-5.09751e-07
7.47335e-06
4.90039e-06
2.28844e-07
2.45617e-06
2.22289e-06
-1.94223e-08
3.16501e-05
6.24125e-06
-1.47321e-06
3.08825e-05
2.68615e-06
-1.90237e-06
2.34877e-05
3.15467e-06
-4.66853e-07
1.58351e-05
4.37499e-06
1.38933e-06
9.69591e-06
5.63879e-06
3.46711e-06
6.78458e-06
5.95778e-06
5.70004e-06
6.35703e-06
5.00272e-06
7.37442e-06
5.9318e-06
3.53586e-06
8.26256e-06
4.66853e-06
3.05931e-06
2.37367e-06
2.99984e-06
2.87285e-06
2.50104e-05
6.52758e-06
2.63058e-06
3.00089e-05
5.02813e-06
2.97247e-06
2.24136e-05
4.10537e-06
4.64681e-06
1.32155e-05
3.92251e-06
6.14208e-06
6.78508e-06
4.19732e-06
7.21414e-06
4.28731e-06
4.68325e-06
8.26444e-06
4.29012e-06
4.65142e-06
9.14912e-06
4.59027e-06
3.93939e-06
9.73724e-06
3.84076e-06
3.20516e-06
1.76857e-06
2.56987e-06
4.52738e-06
1.63219e-05
4.85855e-06
6.46071e-06
2.50919e-05
5.37477e-06
7.40036e-06
1.94786e-05
4.15179e-06
8.19922e-06
1.07511e-05
2.94009e-06
8.58589e-06
4.90507e-06
2.3278e-06
8.89936e-06
2.8419e-06
2.42976e-06
9.38507e-06
2.93987e-06
2.6202e-06
9.89642e-06
3.26834e-06
2.43856e-06
1.03506e-05
2.52465e-06
2.04376e-06
5.24143e-07
1.98075e-06
3.83714e-06
9.3201e-06
2.35368e-06
7.06885e-06
1.83384e-05
3.91052e-06
8.4939e-06
1.52508e-05
3.19184e-06
8.55314e-06
8.73203e-06
1.9983e-06
8.00215e-06
4.20306e-06
1.32524e-06
7.72446e-06
2.36985e-06
1.3598e-06
7.91052e-06
2.133e-06
1.5234e-06
8.31769e-06
2.00628e-06
1.46183e-06
8.67946e-06
9.74019e-07
1.46566e-06
-9.76513e-07
2.1042e-06
1.96907e-06
5.89979e-06
7.16264e-07
4.93435e-06
1.27902e-05
1.98093e-06
6.5394e-06
1.13212e-05
1.91408e-06
6.60913e-06
7.18504e-06
1.35333e-06
5.95642e-06
3.94653e-06
1.16396e-06
5.39135e-06
2.29809e-06
1.37885e-06
5.28002e-06
1.67457e-06
1.48439e-06
5.39764e-06
1.10858e-06
1.41522e-06
5.35918e-06
-1.45266e-07
1.64251e-06
-2.42777e-06
2.42197e-06
4.67593e-07
4.8907e-06
5.85942e-07
2.45697e-06
9.6517e-06
9.30403e-07
3.89626e-06
8.69587e-06
1.15688e-06
4.13509e-06
6.04933e-06
1.13956e-06
3.76149e-06
3.59835e-06
1.3638e-06
3.1013e-06
2.28204e-06
1.61529e-06
2.59441e-06
1.57994e-06
1.69097e-06
2.27867e-06
7.46325e-07
1.71554e-06
2.13392e-06
-8.71227e-07
1.96689e-06
-3.45614e-06
2.22222e-06
-4.09921e-07
1.07755e-06
4.88341e-06
8.13512e-07
7.76198e-07
7.99975e-06
1.8344e-06
9.22728e-07
7.1135e-06
2.0999e-06
1.06876e-06
5.23282e-06
1.98076e-06
1.41885e-06
3.0987e-06
1.38868e-06
1.63558e-06
2.18757e-06
6.03594e-07
1.7132e-06
1.66846e-06
-3.65204e-08
1.82204e-06
7.03037e-07
-4.08324e-07
1.76133e-06
-1.07366e-06
1.21539e-06
-3.30395e-06
-1.84631e-07
2.9534e-07
-4.42567e-07
-2.83265e-07
1.68744e-07
-3.58165e-07
-3.52816e-07
1.4294e-07
-3.61532e-07
-4.02446e-07
1.21582e-07
-3.43017e-07
-4.14163e-07
7.29752e-08
-3.06127e-07
-3.82323e-07
1.05708e-08
-2.57261e-07
-3.1318e-07
-5.16687e-08
-2.0016e-07
-2.20884e-07
-1.03617e-07
-1.4231e-07
-1.19298e-07
-1.45941e-07
-8.29907e-08
-1.78527e-07
-5.04459e-08
-2.54352e-07
6.89263e-07
-5.93745e-07
-3.89288e-07
3.84426e-07
-4.67076e-07
-4.69662e-07
3.08916e-07
-4.76443e-07
-5.30956e-07
2.74048e-07
-4.57862e-07
-5.44356e-07
1.69982e-07
-4.11682e-07
-5.03914e-07
3.51804e-08
-3.52649e-07
-4.14743e-07
-1.02516e-07
-2.85932e-07
-2.90511e-07
-2.20663e-07
-2.14894e-07
-1.47241e-07
-3.20389e-07
-1.36222e-07
-3.89725e-07
-8.07044e-08
-3.12153e-07
1.16941e-06
-6.80245e-07
-4.17676e-07
5.74908e-07
-4.48362e-07
-4.8431e-07
4.48519e-07
-4.92948e-07
-5.85844e-07
4.63211e-07
-5.29599e-07
-6.21506e-07
2.9681e-07
-4.93208e-07
-5.76471e-07
6.60214e-08
-4.22533e-07
-4.69222e-07
-1.61294e-07
-3.39574e-07
-3.21717e-07
-3.53242e-07
-2.4833e-07
-1.53706e-07
-5.05262e-07
-1.5651e-07
-5.923e-07
-9.73212e-08
-2.82772e-07
1.70925e-06
-8.46727e-07
-3.28845e-07
8.12928e-07
-4.25387e-07
-4.13548e-07
6.34693e-07
-4.51184e-07
-6.08047e-07
7.48684e-07
-5.95251e-07
-7.24805e-07
5.19763e-07
-6.08886e-07
-7.09992e-07
1.53503e-07
-5.32158e-07
-5.85687e-07
-2.09439e-07
-4.15769e-07
-4.0844e-07
-4.84564e-07
-2.77292e-07
-2.03519e-07
-6.72845e-07
-1.58171e-07
-7.65968e-07
-1.06165e-07
-1.53371e-07
2.44053e-06
-1.15513e-06
-2.5802e-07
1.44081e-06
-6.8587e-07
-5.1191e-07
1.19607e-06
-5.964e-07
-8.05996e-07
1.25699e-06
-7.445e-07
-9.72658e-07
8.88058e-07
-7.71967e-07
-9.52231e-07
3.26724e-07
-6.66455e-07
-8.03289e-07
-1.8623e-07
-4.90251e-07
-5.81162e-07
-5.69884e-07
-2.94216e-07
-3.13612e-07
-8.10829e-07
-1.38508e-07
-9.69525e-07
-7.07743e-08
-9.86123e-08
3.38415e-06
-1.83124e-06
-4.86608e-07
2.55581e-06
-1.42536e-06
-9.84401e-07
2.27119e-06
-1.07695e-06
-1.31951e-06
2.00117e-06
-1.03437e-06
-1.49068e-06
1.4024e-06
-9.94076e-07
-1.44892e-06
6.05103e-07
-8.64671e-07
-1.20297e-06
-1.77845e-07
-6.60551e-07
-8.70751e-07
-7.49537e-07
-4.33061e-07
-4.59247e-07
-1.12316e-06
-2.15345e-07
-1.41017e-06
-2.79166e-08
-3.2567e-07
4.56046e-06
-2.43601e-06
-1.13253e-06
4.05408e-06
-2.16674e-06
-1.78184e-06
3.62042e-06
-1.78549e-06
-2.07938e-06
2.94484e-06
-1.63401e-06
-2.15241e-06
2.07316e-06
-1.56067e-06
-1.97193e-06
9.16527e-07
-1.45706e-06
-1.55805e-06
-2.88618e-07
-1.12571e-06
-1.00492e-06
-1.09646e-06
-6.39707e-07
-3.79502e-07
-1.58993e-06
-1.49292e-07
-1.84315e-06
2.29389e-07
-1.22502e-06
7.21989e-06
-3.63306e-06
-2.63348e-06
6.50402e-06
-3.71514e-06
-3.45557e-06
5.33448e-06
-3.60534e-06
-3.76739e-06
4.10491e-06
-3.43693e-06
-3.65025e-06
2.77342e-06
-3.07442e-06
-3.13594e-06
1.11217e-06
-2.64259e-06
-2.3767e-06
-4.23632e-07
-2.22126e-06
-1.54831e-06
-1.34271e-06
-1.97244e-06
-7.31913e-07
-1.95103e-06
-1.83158e-06
-2.48777e-06
-1.74865e-06
-2.68379e-06
1.23919e-05
-5.29035e-06
-4.95614e-06
1.0549e-05
-6.05928e-06
-5.97408e-06
7.82938e-06
-6.4187e-06
-6.39668e-06
5.77339e-06
-6.45524e-06
-6.52406e-06
3.87262e-06
-6.68798e-06
-6.36254e-06
1.52133e-06
-7.69521e-06
-5.64624e-06
-1.07507e-06
-9.52454e-06
-5.09201e-06
-1.8626e-06
-1.18785e-05
-4.50484e-06
-2.34186e-06
-1.35724e-05
-4.59208e-06
-1.45263e-05
-2.15166e-06
1.61784e-05
-7.08055e-06
-4.43042e-06
1.44075e-05
-6.65455e-06
-5.7273e-06
1.04015e-05
-6.50142e-06
-6.45088e-06
7.19953e-06
-6.83629e-06
-6.9903e-06
5.03504e-06
-8.4711e-06
-7.10523e-06
3.42191e-06
-1.29454e-05
-6.8645e-06
1.59548e-06
-2.00714e-05
-7.22418e-06
9.53288e-07
-2.4692e-05
-7.75117e-06
9.47486e-07
-2.43615e-05
-4.12092e-06
-1.87385e-05
5.88198e-07
1.80923e-05
-9.69452e-06
-1.536e-07
1.86834e-05
-9.36001e-06
-1.52545e-06
1.39203e-05
-5.2764e-06
-2.93682e-06
9.39986e-06
-4.59648e-06
-3.70692e-06
6.65506e-06
-6.38182e-06
-4.45638e-06
4.40062e-06
-8.88221e-06
-4.82728e-06
2.22323e-06
-1.44746e-05
-4.0339e-06
1.43651e-06
-2.08376e-05
-9.56766e-07
1.10258e-07
-2.0889e-05
-6.24466e-06
-1.05403e-05
1.86946e-06
2.20003e-05
-7.6575e-06
2.31162e-06
2.29904e-05
-8.45808e-06
1.82698e-06
1.73114e-05
-3.70116e-06
1.2004e-06
1.17847e-05
-1.87372e-06
1.79995e-06
7.84515e-06
-2.54867e-06
2.95819e-06
4.92723e-06
-4.64891e-06
3.33004e-06
2.56889e-06
-6.57717e-06
4.34183e-06
7.23012e-07
-8.88651e-06
7.17494e-06
-1.6095e-06
-9.26301e-06
-5.89282e-06
-3.0562e-06
1.62812e-06
2.5061e-05
-1.3138e-06
2.22883e-06
2.58426e-05
-3.89341e-06
2.52132e-06
1.93574e-05
-9.16662e-07
2.6797e-06
1.34079e-05
1.23843e-06
3.97177e-06
8.78507e-06
1.74592e-06
6.08115e-06
5.42363e-06
5.48561e-07
8.18212e-06
2.94022e-06
-1.34466e-06
9.71807e-06
8.26203e-07
-2.14889e-06
1.05846e-05
-1.60993e-06
-6.37247e-07
-4.63686e-06
1.632e-06
2.17909e-06
2.43669e-05
4.75629e-06
2.3882e-06
2.69288e-05
1.39089e-06
2.8444e-06
1.99795e-05
2.07639e-06
3.97612e-06
1.31596e-05
3.49154e-06
5.75059e-06
8.08021e-06
4.56919e-06
7.77928e-06
4.94039e-06
4.41234e-06
9.69577e-06
3.01353e-06
3.01292e-06
1.08438e-05
1.20997e-06
2.00405e-06
1.11925e-05
-1.20439e-06
2.30507e-06
-3.9882e-06
2.47011e-06
3.75269e-06
1.9557e-05
7.58477e-06
4.64681e-06
2.54237e-05
5.63906e-06
5.29257e-06
1.89447e-05
4.49437e-06
6.66152e-06
1.11906e-05
4.52261e-06
8.09528e-06
5.86842e-06
4.97535e-06
9.3551e-06
3.2235e-06
5.14032e-06
1.04809e-05
1.94831e-06
4.59079e-06
1.10965e-05
5.60419e-07
3.97336e-06
1.12727e-05
-1.64535e-06
3.46997e-06
-4.07434e-06
2.5061e-06
4.43639e-06
1.27942e-05
7.18493e-06
6.9026e-06
2.0823e-05
7.50932e-06
8.06542e-06
1.60544e-05
5.87928e-06
8.67578e-06
8.88849e-06
4.63185e-06
8.79289e-06
3.96911e-06
4.11001e-06
8.90669e-06
1.49398e-06
4.04548e-06
9.19339e-06
3.08128e-07
3.97368e-06
9.42541e-06
-9.24829e-07
3.69179e-06
9.64305e-06
-2.71994e-06
2.90072e-06
-4.65716e-06
2.09531e-06
3.2217e-06
7.24252e-06
4.68368e-06
6.58067e-06
1.48713e-05
6.5032e-06
8.14488e-06
1.24427e-05
5.23933e-06
8.15248e-06
7.26465e-06
3.61454e-06
7.46861e-06
3.16578e-06
2.81244e-06
6.92054e-06
6.30101e-07
2.77175e-06
6.66859e-06
-7.9865e-07
2.88212e-06
6.66603e-06
-2.01635e-06
2.55591e-06
6.86188e-06
-3.45332e-06
2.00319e-06
-5.18369e-06
2.00415e-06
1.62045e-06
4.15457e-06
2.18377e-06
4.58956e-06
9.97873e-06
3.90442e-06
6.27558e-06
9.49319e-06
3.17755e-06
6.4452e-06
6.35263e-06
2.09574e-06
5.90105e-06
3.05492e-06
1.81897e-06
5.17581e-06
5.92164e-07
2.14203e-06
4.51043e-06
-9.10771e-07
2.26189e-06
4.05585e-06
-2.0563e-06
1.90975e-06
3.80841e-06
-3.42257e-06
1.8592e-06
-5.50706e-06
2.0525e-06
6.54963e-07
3.02051e-06
1.06504e-06
2.83839e-06
7.03828e-06
1.68743e-06
4.4839e-06
7.56794e-06
1.43663e-06
4.92914e-06
5.87911e-06
1.16784e-06
4.52135e-06
3.25847e-06
1.56805e-06
3.58081e-06
9.85012e-07
2.16298e-06
2.51281e-06
-3.53459e-07
2.20167e-06
1.53673e-06
-1.34877e-06
1.9841e-06
9.35443e-07
-2.94156e-06
2.08717e-06
-5.19308e-06
1.63207e-06
2.15965e-07
9.63389e-07
2.91871e-06
1.76268e-06
6.92347e-07
5.57541e-06
3.24246e-06
6.31667e-07
6.37922e-06
3.72056e-06
8.26194e-07
5.64357e-06
3.25152e-06
1.5691e-06
3.57725e-06
2.11212e-06
2.2617e-06
1.4983e-06
7.3253e-07
2.31771e-06
4.2162e-07
-6.77982e-07
2.28878e-06
-4.04997e-07
-1.9205e-06
1.98879e-06
-1.9265e-06
8.01217e-07
-3.94583e-06
-1.71754e-07
2.49766e-07
-5.20579e-07
-2.66926e-07
1.51758e-07
-4.14751e-07
-3.34007e-07
1.22444e-07
-4.16895e-07
-3.77016e-07
9.2759e-08
-3.92767e-07
-3.8182e-07
4.39304e-08
-3.45253e-07
-3.44199e-07
-1.29775e-08
-2.81904e-07
-2.71598e-07
-6.48337e-08
-2.07927e-07
-1.79152e-07
-1.02156e-07
-1.326e-07
-8.78736e-08
-1.26411e-07
-4.78576e-08
-1.3414e-07
-4.54433e-09
-2.2989e-07
5.7418e-07
-6.88269e-07
-3.64296e-07
3.62562e-07
-5.43475e-07
-4.49087e-07
2.77863e-07
-5.47072e-07
-5.03394e-07
2.11605e-07
-5.22401e-07
-5.089e-07
1.04713e-07
-4.66959e-07
-4.60678e-07
-1.84013e-08
-3.95448e-07
-3.61535e-07
-1.39858e-07
-3.1005e-07
-2.27951e-07
-2.34289e-07
-2.16345e-07
-9.04859e-08
-2.93368e-07
-1.06731e-07
-2.92981e-07
-3.31561e-08
-2.91079e-07
9.848e-07
-7.99786e-07
-4.43415e-07
6.48831e-07
-5.82295e-07
-5.23326e-07
4.72453e-07
-6.07628e-07
-5.86744e-07
3.56634e-07
-6.11209e-07
-5.9192e-07
1.73394e-07
-5.56713e-07
-5.30109e-07
-3.53544e-08
-4.67391e-07
-4.12498e-07
-2.37352e-07
-3.59692e-07
-2.62067e-07
-3.90402e-07
-2.42648e-07
-1.03756e-07
-4.58221e-07
-1.49968e-07
-4.11085e-07
-1.28242e-07
-3.45713e-07
1.49457e-06
-1.01079e-06
-5.08121e-07
1.04627e-06
-6.60423e-07
-5.85546e-07
7.61386e-07
-6.62691e-07
-6.88969e-07
5.94009e-07
-7.29203e-07
-7.27045e-07
3.06291e-07
-7.03707e-07
-6.69274e-07
-2.20482e-08
-6.03235e-07
-5.26622e-07
-3.42887e-07
-4.52885e-07
-3.54605e-07
-5.47943e-07
-2.91768e-07
-1.56079e-07
-6.04547e-07
-2.10371e-07
-5.21443e-07
-2.49079e-07
-3.14325e-07
2.1495e-06
-1.49573e-06
-5.41224e-07
1.64612e-06
-1.05882e-06
-7.07753e-07
1.26074e-06
-9.29226e-07
-8.76183e-07
9.88412e-07
-9.70472e-07
-9.35812e-07
5.38215e-07
-9.44262e-07
-8.54009e-07
4.19355e-08
-8.12241e-07
-6.78471e-07
-3.9664e-07
-6.12036e-07
-4.71102e-07
-6.61268e-07
-3.8826e-07
-2.22009e-07
-7.31174e-07
-2.60974e-07
-6.89278e-07
-2.84939e-07
-2.64818e-07
2.89932e-06
-2.31625e-06
-6.53495e-07
2.41294e-06
-1.8035e-06
-9.84415e-07
1.98919e-06
-1.47449e-06
-1.22187e-06
1.56215e-06
-1.37065e-06
-1.29671e-06
9.20835e-07
-1.30186e-06
-1.16835e-06
2.09567e-07
-1.16067e-06
-9.00291e-07
-4.10687e-07
-9.14562e-07
-6.11761e-07
-7.79597e-07
-6.03263e-07
-2.69442e-07
-9.36937e-07
-3.519e-07
-9.68441e-07
-2.86482e-07
-4.0195e-07
3.80653e-06
-2.94127e-06
-1.09611e-06
3.40301e-06
-2.46266e-06
-1.64745e-06
2.92469e-06
-2.16965e-06
-1.92552e-06
2.28243e-06
-2.07622e-06
-1.91632e-06
1.36793e-06
-2.01696e-06
-1.62402e-06
3.03123e-07
-1.84291e-06
-1.18709e-06
-4.98185e-07
-1.47515e-06
-6.6773e-07
-9.31311e-07
-1.00735e-06
-8.26217e-08
-1.10552e-06
-5.65822e-07
-1.02327e-06
-2.98124e-07
-1.38854e-06
6.07501e-06
-4.51301e-06
-2.64332e-06
5.09154e-06
-4.14888e-06
-3.24494e-06
3.86617e-06
-3.94519e-06
-3.37226e-06
2.67482e-06
-3.70199e-06
-3.16182e-06
1.42072e-06
-3.33766e-06
-2.63343e-06
1.09154e-07
-2.977e-06
-1.97353e-06
-5.16085e-07
-2.86326e-06
-1.06803e-06
-9.04878e-07
-2.90437e-06
-2.23572e-07
-9.98974e-07
-2.78258e-06
-1.0805e-06
-2.32389e-06
-3.22098e-06
1.073e-05
-6.72432e-06
-5.47181e-06
8.07195e-06
-6.78886e-06
-6.1819e-06
5.10926e-06
-6.95172e-06
-6.13857e-06
2.94422e-06
-6.76796e-06
-5.82373e-06
1.12223e-06
-6.70433e-06
-5.35443e-06
-6.37117e-07
-7.41823e-06
-4.60541e-06
-1.5032e-06
-9.28645e-06
-3.97063e-06
-1.46334e-06
-1.19548e-05
-3.70729e-06
-1.65563e-06
-1.3179e-05
-4.29156e-06
-1.29961e-05
-1.96927e-06
1.36696e-05
-8.05088e-06
-4.13387e-06
1.09569e-05
-7.37486e-06
-5.19801e-06
7.01228e-06
-7.3403e-06
-5.73159e-06
3.93465e-06
-7.29313e-06
-5.88048e-06
2.3882e-06
-9.58818e-06
-5.91596e-06
4.96247e-07
-1.40433e-05
-6.18947e-06
-1.6294e-06
-1.96717e-05
-7.17295e-06
-1.98921e-06
-2.31826e-05
-9.85663e-06
-1.05865e-06
-2.22748e-05
-5.96215e-06
-1.84563e-05
1.3303e-06
1.36107e-05
-1.0966e-05
1.35004e-06
1.36378e-05
-1.20607e-05
1.08561e-06
1.0409e-05
-8.40865e-06
6.13028e-07
6.2479e-06
-6.43714e-06
-2.46187e-07
3.77823e-06
-6.91263e-06
-1.81374e-06
1.42449e-06
-8.2429e-06
-3.83519e-06
-1.18132e-06
-1.29012e-05
-5.15727e-06
-2.183e-06
-1.93217e-05
-6.03221e-06
-2.38699e-06
-1.86857e-05
-8.48708e-06
-1.18949e-05
3.67093e-06
1.25277e-05
-1.02454e-05
5.2225e-06
1.55632e-05
-1.1935e-05
5.85114e-06
1.31658e-05
-7.08667e-06
5.7829e-06
8.16974e-06
-3.72732e-06
6.01761e-06
4.38181e-06
-3.38695e-06
5.84063e-06
2.1471e-06
-5.19452e-06
3.8445e-06
3.43648e-07
-6.10601e-06
2.92551e-06
-1.69657e-06
-8.45395e-06
3.26831e-06
-3.55034e-06
-8.44245e-06
-8.66956e-06
-3.35701e-06
4.05799e-06
1.12127e-05
-4.05672e-06
5.64477e-06
1.57498e-05
-5.66674e-06
7.00868e-06
1.35781e-05
-2.69287e-06
7.79941e-06
8.7998e-06
-1.8236e-07
8.51148e-06
4.91113e-06
5.0453e-07
9.48328e-06
2.44473e-06
-7.20866e-07
9.76844e-06
8.00448e-07
-2.08662e-06
9.30634e-06
-1.2092e-06
-2.17416e-06
8.72616e-06
-3.82231e-06
2.14909e-07
-8.59748e-06
3.03367e-06
4.00971e-06
9.97381e-06
1.98544e-06
5.36172e-06
1.48393e-05
9.49379e-07
6.86714e-06
1.23246e-05
1.82451e-06
8.1784e-06
8.00597e-06
2.97411e-06
9.24013e-06
4.75018e-06
3.66842e-06
1.01084e-05
2.66894e-06
3.31991e-06
1.08983e-05
1.02414e-06
1.99931e-06
1.12008e-05
-1.21181e-06
1.70418e-06
1.01424e-05
-3.92796e-06
3.46915e-06
-8.98826e-06
4.419e-06
4.05863e-06
8.2553e-06
5.24466e-06
5.88446e-06
1.32125e-05
5.44007e-06
7.40703e-06
1.03714e-05
4.92507e-06
8.72523e-06
6.47294e-06
4.73743e-06
9.52481e-06
3.91655e-06
5.0094e-06
9.91262e-06
2.25696e-06
5.16449e-06
1.03514e-05
6.35094e-07
4.54104e-06
1.03836e-05
-1.76084e-06
4.49016e-06
9.24555e-06
-4.37739e-06
5.05749e-06
-9.7308e-06
4.20876e-06
3.31814e-06
6.89372e-06
5.22837e-06
5.94e-06
1.13023e-05
6.79758e-06
7.67552e-06
8.78356e-06
5.73156e-06
8.6157e-06
5.56834e-06
4.59628e-06
8.74714e-06
3.34341e-06
4.55171e-06
8.59506e-06
1.41912e-06
5.03541e-06
8.60525e-06
-5.65583e-07
5.16416e-06
8.28703e-06
-2.90535e-06
5.15452e-06
7.29162e-06
-5.23041e-06
4.74916e-06
-1.05485e-05
3.12821e-06
2.05227e-06
6.24409e-06
3.28104e-06
4.87483e-06
9.87891e-06
5.10407e-06
6.79019e-06
8.22309e-06
3.88444e-06
7.48138e-06
5.71536e-06
2.77634e-06
7.2855e-06
3.24273e-06
3.10899e-06
6.93002e-06
5.85131e-07
3.96123e-06
6.54827e-06
-1.72347e-06
4.42175e-06
5.85693e-06
-3.7866e-06
4.1285e-06
4.97511e-06
-5.74604e-06
3.40064e-06
-1.08253e-05
2.02583e-06
1.44436e-06
5.58145e-06
1.40205e-06
3.91581e-06
9.0476e-06
2.26429e-06
5.76136e-06
8.27209e-06
1.28302e-06
6.26927e-06
6.15688e-06
1.1463e-06
5.92365e-06
3.3015e-06
2.10583e-06
5.32927e-06
1.9647e-07
3.12507e-06
4.49684e-06
-2.08314e-06
3.45399e-06
3.49882e-06
-3.7146e-06
2.83578e-06
2.70755e-06
-5.53071e-06
2.43513e-06
-1.03082e-05
1.39411e-06
1.49399e-06
4.34612e-06
8.0638e-07
3.50358e-06
8.03127e-06
6.94177e-07
4.99322e-06
7.94116e-06
2.77922e-07
5.26471e-06
6.25411e-06
7.9911e-07
4.67619e-06
3.48971e-06
1.96836e-06
3.69572e-06
4.51771e-07
2.88815e-06
2.51642e-06
-1.5774e-06
2.87523e-06
1.36926e-06
-2.78815e-06
2.20481e-06
5.53086e-07
-4.78923e-06
2.16187e-06
-8.99014e-06
1.0073e-06
1.39826e-06
1.02017e-06
2.89108e-06
3.09309e-06
4.78747e-07
6.55004e-06
4.3149e-06
3.15292e-07
7.03572e-06
4.44954e-06
9.41447e-07
6.00422e-06
3.60452e-06
2.07931e-06
3.82453e-06
2.28712e-06
2.95139e-06
1.07947e-06
8.89862e-07
2.76456e-06
-6.26984e-07
-4.99367e-07
2.35593e-06
-1.46607e-06
-2.03048e-06
2.20394e-06
-3.47327e-06
8.03683e-07
-6.99175e-06
-1.5787e-07
1.87498e-07
-5.50207e-07
-2.4248e-07
1.03376e-07
-4.33517e-07
-2.98553e-07
7.07982e-08
-4.31621e-07
-3.29698e-07
4.10719e-08
-4.02694e-07
-3.23802e-07
-4.0873e-09
-3.47062e-07
-2.78142e-07
-5.15497e-08
-2.76015e-07
-2.01488e-07
-8.84841e-08
-1.96098e-07
-1.12027e-07
-1.04105e-07
-1.17955e-07
-4.17594e-08
-9.46219e-08
-2.35028e-08
-4.8822e-08
-3.92261e-09