/*--------------------------------*- C++ -*----------------------------------*\
| =========                 |                                                 |
| \\      /  F ield         | OpenFOAM: The Open Source CFD Toolbox           |
|  \\    /   O peration     | Version:  2312                                  |
|   \\  /    A nd           | Website:  www.openfoam.com                      |
|    \\/     M anipulation  |                                                 |
\*---------------------------------------------------------------------------*/
FoamFile
{
    version     2.0;
    format      ascii;
    arch        "LSB;label=32;scalar=64";
    class       volScalarField;
    location    "0.805";
    object      alpha.water;
}
// * * * * * * * * * * * * * * * * * * * * * * * * * * * * * * * * * * * * * //

dimensions      [0 0 0 0 0 0 0];

internalField   nonuniform List<scalar> 
8000
(
1
1
1
1
1
1
1
1
1
1
1
1
1
1
1
1
1
1
1
1
1
1
1
1
1
1
1
1
1
1
1
1
1
1
1
1
1
1
1
0.999982
1
1
1
1
1
1
1
1
0.999114
0.996184
0.999991
0.999996
0.999996
0.999995
0.999998
1
1
0.999988
0.996649
0.993579
0.950266
0.965785
0.957823
0.966338
0.992953
0.999972
0.999988
0.999951
0.996981
0.99396
0.825878
0.741316
0.685333
0.719865
0.821273
0.918081
0.984017
0.999595
0.99755
0.997623
0.637941
0.546776
0.506493
0.498911
0.56646
0.673205
0.696743
0.868833
0.996519
0.997363
0.250611
0.243049
0.2686
0.26582
0.220663
0.181613
0.141992
0.298797
0.849552
0.996199
1.88496e-06
1.88498e-06
1.84889e-06
1.88664e-06
2.24405e-06
2.17991e-06
2.3051e-06
2.39036e-06
0.208037
0.815346
2.84554e-06
1.84889e-06
1.77064e-06
1.7727e-06
1.82093e-06
1.91519e-06
2.1422e-06
2.2348e-06
2.27428e-06
0.223769
2.39316e-06
1.77064e-06
1.70438e-06
1.68451e-06
1.72463e-06
1.82093e-06
1.91519e-06
2.09597e-06
2.2348e-06
2.27429e-06
4.64417e-06
1.70438e-06
1.69226e-06
1.69226e-06
1.68465e-06
1.73533e-06
1.7946e-05
3.45707e-06
3.1566e-06
3.04293e-06
2.18573e-06
1.78361e-06
1.70438e-06
1.32486e-05
0.000294213
0.000402891
0.000403691
0.000403594
0.00022855
9.62369e-06
5.05529e-07
7.52128e-07
2.46851e-06
0.000201759
0.000390065
0.00039759
0.000399875
0.000350106
0.000104928
2.19742e-05
3.65446e-07
5.05529e-07
1.68213e-05
0.000149846
0.000145968
2.71203e-05
2.23089e-05
2.14755e-05
2.05867e-05
2.83051e-05
2.96778e-07
3.65446e-07
1.26265e-05
3.64877e-05
3.39877e-05
3.07812e-05
3.522e-05
5.50517e-05
1.22053e-05
5.8357e-06
2.70201e-07
3.47864e-07
2.0413e-06
3.53195e-06
3.9984e-05
4.7579e-05
6.91021e-05
6.89114e-05
2.24998e-05
5.8177e-06
1.43977e-07
1.76286e-07
2.13643e-07
4.16907e-06
3.43792e-05
4.10676e-05
3.00498e-05
6.74946e-05
2.93391e-05
5.01844e-06
1
1
1
1
1
1
1
1
1
1
1
1
1
1
1
1
1
1
1
1
1
1
1
1
1
1
1
1
1
1
1
1
1
1
1
1
1
0.999988
1
0.999998
0.999998
1
1
1
1
1
1
0.999804
0.999169
0.999
0.999913
0.999955
0.999953
0.999968
0.999999
1
0.999998
0.999758
0.998188
0.99742
0.999683
0.999939
0.998459
0.997654
0.999995
0.999992
0.999986
0.999743
0.99904
0.998135
0.945993
0.940387
0.953441
0.952957
0.938383
0.936801
0.989824
0.999275
0.998305
0.998
0.178085
0.14328
0.153577
0.163605
0.175527
0.325533
0.490197
0.714396
0.783333
0.97165
0.0268348
0.0289108
0.0527461
0.0715793
0.0638348
0.0149056
6.01247e-06
0.0554109
0.156385
0.700091
1.98777e-06
1.88417e-06
1.94464e-06
2.61545e-06
6.7818e-06
5.02095e-06
3.41038e-06
3.72287e-06
3.62137e-06
0.255471
2.81397e-06
2.44799e-06
6.18141e-06
6.4067e-06
1.05386e-05
7.52694e-06
2.30503e-06
2.39035e-06
2.76175e-06
0.0244789
4.82232e-05
2.83593e-05
5.843e-06
3.84665e-06
3.20902e-06
1.91516e-06
2.16708e-06
2.23478e-06
2.27428e-06
0.0102558
0.000101484
4.56773e-05
2.97798e-06
1.69226e-06
1.9551e-06
2.25206e-06
5.41875e-06
3.09695e-06
2.76175e-06
0.00216511
0.000101484
3.14015e-05
1.75253e-06
1.77279e-06
1.93419e-06
2.61922e-05
7.54792e-05
2.90597e-05
3.74493e-06
4.68405e-06
0.000101148
1.60728e-06
1.77922e-06
1.77922e-06
1.83706e-05
3.89321e-05
4.28385e-05
2.24804e-05
6.23791e-06
4.90588e-06
8.35056e-05
5.96813e-07
3.3167e-06
1.27334e-05
1.6133e-05
1.93977e-05
4.54329e-05
5.38344e-05
1.10142e-05
5.30448e-06
1.65215e-05
3.40851e-07
9.63222e-07
1.63733e-05
7.05515e-05
9.47536e-05
5.94331e-05
4.93767e-05
8.8721e-06
5.80859e-06
2.96778e-07
2.42905e-07
3.44615e-07
1.41629e-06
0.000110283
0.000314869
7.75841e-05
3.31467e-05
1.54087e-05
5.8345e-06
2.08524e-06
2.13643e-07
2.42905e-07
5.5989e-07
0.000111399
0.00036565
0.000129245
2.9996e-05
5.17197e-05
6.07224e-06
1
1
1
1
1
1
1
1
1
1
1
1
1
1
1
1
1
1
1
1
1
1
1
1
1
1
1
1
1
1
1
1
1
1
1
1
1
0.999997
0.999987
1
1
1
1
1
1
1
1
0.99987
0.999711
1
0.999999
1
0.999999
0.999998
1
1
1
0.999773
0.999659
0.999989
1
1
1
0.999999
1
1
0.999994
0.999869
0.999607
0.997597
0.778791
0.80031
0.865964
0.946737
0.999991
0.990697
0.961756
0.985252
0.998796
0.935378
0.0240826
0.0261657
0.0585065
0.118604
0.177332
0.215313
0.276709
0.449735
0.608014
0.778785
2.80932e-05
4.23776e-05
0.000167029
0.000384047
0.000232641
4.25657e-05
2.37711e-05
6.72357e-05
0.0260839
0.365981
1.37844e-05
8.13155e-06
1.35257e-05
1.93618e-05
2.24758e-05
1.2054e-05
6.0882e-06
9.6053e-06
9.82021e-06
0.0197971
6.88031e-05
3.92182e-05
5.94535e-06
9.61954e-06
2.19334e-05
1.0015e-05
3.78447e-06
3.72262e-06
5.66204e-06
1.18526e-05
9.51242e-05
8.30566e-05
1.04717e-05
4.62008e-06
1.53693e-05
3.44349e-06
2.81928e-05
7.47731e-06
2.76175e-06
0.00376245
9.90928e-05
9.06192e-05
1.24269e-05
1.54287e-06
1.59847e-05
0.000152923
0.000191664
6.53121e-05
2.3338e-05
0.00866392
9.53751e-05
9.15815e-05
9.7692e-06
1.93419e-06
7.08466e-05
0.000515322
0.000263312
1.44929e-05
5.0478e-06
0.00541459
9.96323e-05
8.72162e-05
1.77922e-06
2.45321e-06
0.000102022
0.000485252
0.000108744
5.84476e-06
5.66982e-06
0.00461881
9.69722e-05
6.56979e-05
1.92388e-06
2.22843e-06
5.50258e-05
0.000140182
0.000101549
2.32387e-05
5.71125e-06
0.00458002
9.62791e-05
1.8013e-05
1.42589e-06
2.07072e-06
6.91933e-05
0.000326483
0.000249046
1.3775e-05
0.000170593
0.00276815
5.77067e-05
3.40851e-07
1.16657e-06
3.89554e-06
0.000245642
0.000436355
0.000369117
2.70099e-05
0.000196585
5.62031e-05
5.88963e-06
4.11353e-07
3.0604e-06
6.97933e-06
0.000305881
0.000434132
0.000433035
5.34399e-05
8.10242e-05
3.39246e-06
1
1
1
1
1
1
1
1
1
1
1
1
1
1
1
1
1
1
1
1
1
1
1
1
1
1
1
1
1
1
0.999998
1
1
1
1
1
1
1
0.999999
1
0.999975
1
1
1
1
1
1
0.999994
1
1
0.999999
1
1
1
1
1
0.999998
0.999976
1
1
1
1
1
1
1
1
0.999981
0.999977
0.999991
0.997576
0.537628
0.584735
0.680143
0.804089
0.948544
0.999672
0.993864
0.977282
0.972072
0.848827
2.80899e-05
4.64307e-05
0.00423001
0.0387076
0.0952823
0.173605
0.238261
0.305963
0.426209
0.617484
2.29072e-05
2.29024e-05
2.41993e-05
4.62357e-05
5.81826e-05
4.37637e-05
4.19835e-05
4.901e-05
0.000155049
0.163491
2.30346e-05
2.11675e-05
7.10115e-06
2.3789e-05
4.59167e-05
3.92233e-05
3.61482e-05
2.84164e-05
3.22569e-05
6.9374e-05
0.000102217
8.1809e-05
4.18069e-06
4.05392e-05
7.77823e-05
3.41559e-05
3.46009e-05
2.34878e-05
1.49169e-05
3.22566e-05
3.45622e-05
4.24692e-06
1.20651e-06
8.63395e-06
2.73399e-05
0.000160415
0.000303794
0.000222009
4.26118e-05
4.66609e-05
1.39693e-06
1.19545e-06
1.19208e-06
1.2065e-06
3.82081e-05
0.000558635
0.000555346
0.000255189
5.42959e-05
0.00086573
1.81675e-06
1.24772e-06
2.83467e-06
1.80445e-06
9.36294e-05
0.000558635
0.0001603
2.25313e-05
2.29376e-05
0.00081905
4.19671e-05
8.89341e-05
5.14728e-06
3.6066e-06
0.000116965
0.000558635
5.40539e-05
9.71668e-06
7.26588e-05
0.00104283
9.62791e-05
9.36784e-05
4.82155e-06
4.19412e-06
0.000116084
0.000549785
0.000157261
4.82454e-06
0.000246887
0.00158573
9.62791e-05
9.13203e-05
3.20752e-06
4.53271e-06
0.000161176
0.000524811
0.00029841
3.93239e-06
0.000432759
0.00132442
6.87528e-05
1.81255e-05
1.00612e-05
1.00809e-05
0.000340135
0.000473307
0.000428383
9.79332e-06
0.000236939
0.00050794
6.12494e-06
7.63823e-07
2.27882e-06
9.17915e-06
0.000390222
0.000436508
0.000424684
0.000222419
1.63337e-05
2.07008e-06
1
1
1
1
1
1
1
1
1
1
1
1
1
1
1
1
1
1
1
1
1
1
1
1
1
1
1
1
1
1
1
1
1
1
1
1
1
1
1
1
0.999997
0.999962
1
1
1
1
1
1
1
1
0.994257
0.999265
1
1
1
1
1
1
1
1
1
1
1
1
1
1
1
0.999983
0.999206
0.998766
0.402804
0.416924
0.467178
0.605541
0.795952
0.956283
0.991714
0.987916
0.958799
0.812417
2.29144e-05
3.44202e-05
9.68034e-05
0.0122964
0.0490632
0.0946457
0.152286
0.208819
0.232276
0.476705
2.24135e-05
2.73001e-05
2.57551e-05
4.58603e-05
6.50893e-05
5.82062e-05
5.57146e-05
0.000109498
0.000140544
0.0784792
0.000102578
2.16311e-05
1.10185e-05
3.95682e-05
6.09799e-05
7.25329e-05
8.71087e-05
0.000159433
8.67744e-05
8.47559e-05
0.000104033
1.26801e-05
1.35079e-06
1.16923e-05
7.7902e-05
6.89397e-05
0.0003669
0.000399986
8.9594e-05
4.49822e-05
6.64746e-06
1.19545e-06
1.19366e-06
1.23393e-06
1.53123e-05
0.00046619
0.000464918
0.000401113
0.000223728
3.43725e-05
1.156e-06
1.17404e-06
1.19366e-06
1.19243e-06
5.37776e-06
0.000555346
0.000155269
0.000125432
0.000209806
3.15996e-05
2.16107e-06
1.19545e-06
1.19363e-06
1.23393e-06
3.92206e-05
0.000551882
8.04595e-05
1.62645e-05
8.71249e-05
1.6792e-05
3.55984e-06
1.86162e-05
1.24915e-06
1.52753e-06
0.000121503
0.000545589
9.63816e-05
1.43974e-05
3.79717e-05
6.38032e-06
5.17835e-05
8.07302e-05
2.40464e-06
3.93914e-06
0.000255515
0.000524794
5.03077e-05
3.93239e-06
1.66189e-05
3.38708e-06
6.24181e-05
5.62562e-05
7.58038e-06
8.7605e-06
0.000343991
0.000484086
4.27856e-05
3.40383e-06
2.57758e-06
2.18385e-06
2.51273e-05
4.59543e-06
5.32668e-06
4.29258e-06
0.00036839
0.000428804
0.000165218
4.85111e-06
2.18385e-06
2.07022e-06
1.5767e-05
1.19189e-06
7.30464e-07
9.55239e-07
0.000360275
0.000237442
0.000221052
0.000206487
2.46279e-05
2.07022e-06
1
1
1
1
1
1
1
1
1
1
1
1
1
1
1
1
1
1
1
1
1
1
1
1
1
1
1
1
1
1
1
1
0.999999
1
1
1
1
1
1
1
1
0.99985
0.999989
1
1
1
1
1
1
1
0.995374
0.997611
1
1
1
1
1
1
1
1
0.999596
0.999163
1
1
1
1
1
1
1
0.999985
0.264691
0.254133
0.314369
0.466705
0.647647
0.789829
0.902783
0.944447
0.891229
0.788738
0.000171836
0.000279306
0.000624918
0.0126177
0.0489127
0.0687217
0.0494217
0.0841986
0.0634077
0.292488
2.29008e-05
1.52457e-05
7.35044e-06
3.75372e-05
6.40824e-05
8.54012e-05
0.000175414
0.00029271
0.000279223
0.0185928
0.000147099
2.74863e-05
8.66948e-06
6.0016e-05
3.34312e-05
7.04804e-05
0.000429822
0.000410364
0.000140541
0.000231648
6.85209e-05
7.75117e-06
1.6924e-06
1.65132e-05
5.85193e-05
0.000175822
0.000650728
0.00060829
0.000170339
8.44787e-05
1.28002e-06
1.25375e-06
1.06398e-05
9.75651e-06
8.41826e-06
0.000464918
6.85291e-05
9.29862e-05
0.000204496
4.49432e-05
1.09294e-06
1.156e-06
4.869e-05
2.70532e-05
6.07886e-06
0.000329962
4.6439e-05
7.12061e-05
0.000245776
2.45954e-05
1.12772e-06
3.73427e-06
5.52466e-05
1.61917e-05
6.62528e-06
9.18709e-06
8.0895e-05
0.000104864
0.00024198
7.69523e-06
9.07525e-06
4.18687e-05
1.97567e-05
2.57127e-06
7.76709e-05
5.71009e-05
5.19883e-05
6.8683e-05
3.52314e-05
4.89966e-06
3.95672e-05
7.59231e-05
8.86991e-06
5.91225e-06
0.000396835
0.000267754
5.1966e-06
4.6037e-06
4.1459e-06
4.52066e-06
3.48636e-05
6.99722e-05
1.32899e-05
7.3274e-06
0.000396835
0.000264125
4.68044e-06
3.93239e-06
3.50697e-06
8.20526e-06
5.36995e-06
3.64895e-05
1.33643e-05
2.97638e-06
0.000396835
3.08605e-05
5.11776e-06
1.13177e-05
1.77462e-05
1.04865e-05
3.61005e-06
2.87223e-05
1.17313e-05
1.37266e-06
0.00024541
5.32547e-06
5.26935e-06
2.52702e-05
0.000176378
5.12343e-06
1
1
1
1
1
1
1
1
1
1
1
1
1
0.999999
1
1
1
1
1
1
1
1
0.999986
0.999999
1
1
1
1
1
1
0.999992
0.999999
0.999999
0.999998
1
1
1
1
1
1
1
0.999962
0.999999
1
1
1
1
1
1
1
1
1
1
1
1
1
1
1
1
1
0.948275
0.952827
0.985455
1
1
1
1
1
1
0.987739
0.141673
0.176298
0.291042
0.495427
0.690325
0.798192
0.806971
0.802121
0.717743
0.617843
6.52281e-05
1.64184e-05
6.74716e-06
0.0144198
0.0678714
0.124651
0.110754
0.0923198
0.0533096
0.179236
1.64315e-05
3.10507e-06
3.70113e-06
4.71248e-06
0.000106739
3.50306e-05
9.33207e-05
0.000259282
0.00029616
0.00159129
0.000153936
3.27701e-05
3.97757e-06
4.45601e-05
2.43862e-05
3.13481e-05
0.000485287
0.000356389
0.000193339
0.000295202
6.84331e-05
2.30463e-05
2.18485e-06
3.51792e-05
2.1038e-05
0.000247105
0.000717875
0.000558602
0.000187982
0.000187754
1.14217e-06
1.18355e-06
3.91877e-05
5.33249e-05
8.466e-06
0.000272238
0.000162456
0.000254199
0.000212598
7.63073e-05
1.02353e-06
3.20064e-05
6.90929e-05
6.86038e-05
7.79382e-06
8.4049e-06
8.02467e-06
0.000121466
0.00024502
2.15485e-05
1.06466e-06
6.7911e-05
6.92838e-05
7.01309e-05
8.33173e-06
8.02473e-06
6.69606e-06
0.000104319
0.000197553
7.11263e-06
2.27416e-05
6.71464e-05
6.90929e-05
3.99128e-05
1.95667e-05
2.45132e-05
5.94785e-06
1.2687e-05
1.2954e-05
5.04935e-06
2.15974e-05
6.81722e-05
3.56652e-05
6.26647e-06
0.000374953
1.36236e-05
5.29185e-06
5.20378e-06
4.67034e-06
4.89967e-06
2.99737e-06
6.32322e-05
1.70718e-05
7.16397e-06
0.000395759
7.14523e-06
5.84448e-06
1.851e-05
7.60526e-06
1.63013e-05
3.03055e-06
5.65802e-05
2.63505e-05
1.21601e-05
0.000159444
5.32547e-06
5.53083e-06
0.000100928
0.000133214
8.78504e-06
3.57604e-06
2.28882e-05
2.46431e-05
1.13693e-05
2.68412e-05
5.27408e-06
5.32547e-06
3.05917e-05
0.000176646
6.11305e-05
1
1
1
1
1
1
1
1
1
1
1
0.999992
0.999972
1
1
1
1
1
1
1
1
0.999985
0.999964
0.999992
1
0.999996
1
1
1
1
0.99995
0.999991
0.999983
0.999999
1
1
1
1
1
1
0.999758
0.999032
0.999998
1
1
1
1
1
1
1
0.999997
1
1
1
1
1
1
1
0.999998
1
0.855384
0.8903
0.976704
1
1
1
1
1
1
0.974455
0.0915793
0.14758
0.307331
0.570655
0.80004
0.919033
0.901448
0.859684
0.745501
0.658464
2.98029e-05
2.64932e-06
0.000120212
0.0274626
0.105408
0.197265
0.205084
0.184123
0.126417
0.159255
3.08058e-06
2.60074e-06
3.08113e-06
3.70879e-06
4.76922e-06
9.73069e-06
3.56786e-05
9.30765e-05
0.000261022
0.00213393
0.00013822
2.51597e-05
3.9079e-06
5.13453e-06
6.34339e-05
0.000462401
0.000595213
0.000491476
0.000339716
0.000373037
7.07801e-05
3.49462e-05
4.4618e-06
9.76975e-06
4.2069e-06
0.000689852
0.000771626
0.00085571
0.000449464
0.000287282
1.02353e-06
1.03993e-06
2.28585e-05
1.36269e-05
6.99243e-06
0.000180596
0.000574681
0.000309508
0.000303175
0.000138327
1.01717e-06
1.57711e-06
6.62529e-05
5.91702e-05
2.6523e-05
8.88957e-06
7.67817e-06
7.52496e-06
0.000234436
2.99586e-05
1.02352e-06
1.29662e-05
5.48861e-05
7.2914e-05
0.000331523
4.06123e-05
7.06461e-06
6.52772e-06
4.43684e-05
9.24602e-06
1.07814e-06
2.03139e-05
5.7636e-05
6.91669e-05
0.000233746
2.45009e-05
6.47907e-06
6.0839e-06
5.53499e-06
5.41924e-06
1.37475e-06
3.00284e-05
5.84805e-05
9.57046e-06
8.86656e-06
6.51255e-06
5.94779e-06
5.43006e-06
5.30853e-06
5.18586e-06
1.78769e-06
1.81974e-05
5.84458e-05
8.40091e-06
4.54757e-05
5.82853e-06
1.24816e-05
5.87073e-05
2.16367e-05
2.15052e-05
1.21021e-05
3.81923e-05
1.91802e-05
3.8372e-06
4.69546e-06
5.44496e-06
8.12077e-06
0.000156349
0.000176646
8.43579e-06
9.85301e-05
2.85296e-05
9.27678e-06
1.92729e-06
2.58543e-06
4.87953e-06
5.39447e-06
7.92518e-05
0.00017664
2.35548e-05
1
1
1
1
1
1
1
1
1
1
1
0.999994
0.999987
1
1
1
1
1
1
1
1
0.999972
0.999964
0.999985
0.999996
0.999929
0.999994
1
1
1
1
1
0.99999
1
0.99989
0.999364
0.999989
1
1
1
1
0.999276
0.999999
1
0.999971
0.999813
1
1
1
1
0.999996
0.999997
0.989454
0.992895
1
1
1
1
0.999996
1
0.869671
0.927544
0.999947
1
1
1
1
1
1
0.966099
0.0807447
0.15668
0.35841
0.63889
0.894614
1
0.999876
0.953185
0.829752
0.7541
4.51287e-06
2.44488e-06
3.27271e-06
0.0392706
0.165402
0.332505
0.388985
0.339198
0.232998
0.245738
6.44229e-06
2.25174e-06
2.67213e-06
3.0886e-06
4.52647e-06
1.12266e-05
4.10751e-05
8.09533e-05
8.32742e-05
0.00160362
6.88785e-05
1.89721e-05
3.40632e-06
3.13018e-06
0.000143215
0.000623497
0.000572975
0.000344195
0.000349857
0.000389971
6.36889e-05
4.4561e-05
3.52378e-06
2.49897e-06
3.13018e-06
0.000758026
0.000857016
0.000975358
0.000996383
0.000430876
1.01721e-06
1.03786e-06
1.21912e-06
1.71323e-06
5.35048e-05
0.000722712
0.000482873
0.000110596
0.000379207
0.000226503
1.01721e-06
1.01721e-06
3.23196e-06
2.49897e-06
0.000208509
0.000488883
8.03311e-06
6.76417e-06
0.000103786
3.21582e-05
1.01721e-06
1.04118e-06
1.44018e-06
4.97153e-05
0.000338232
3.54025e-05
6.76381e-06
6.52772e-06
6.21506e-06
9.28692e-06
1.04118e-06
5.3839e-06
9.34167e-06
3.07139e-05
0.000332494
3.55103e-05
7.91511e-06
5.97874e-06
5.40284e-06
5.70306e-06
1.34929e-06
2.97992e-06
3.62324e-05
3.85752e-05
7.45453e-06
6.9999e-06
3.32472e-05
6.02274e-06
5.3956e-06
5.30853e-06
2.17434e-06
1.85455e-05
5.92767e-05
1.16983e-05
7.27842e-06
9.82871e-06
3.60927e-05
9.49318e-05
1.84573e-05
1.60385e-05
4.68343e-05
0.000117707
4.18794e-05
4.30725e-06
4.26566e-06
1.81873e-05
8.69073e-06
0.000151
0.000145445
5.71091e-06
0.000272801
0.000263703
3.21393e-05
2.71126e-06
3.83145e-06
1.53047e-05
6.25772e-06
0.000116556
0.000176643
8.37665e-06
0.987298
0.999792
1
1
1
1
1
1
1
1
0.993008
1
1
1
1
1
1
1
1
1
0.991105
0.999244
1
0.999996
0.999999
1
0.999995
0.999998
1
1
0.9814
0.997992
1
1
1
0.997425
0.998191
1
1
1
0.984891
0.998577
1
1
1
0.992405
0.998365
1
0.999999
1
0.994013
0.999989
0.995577
0.992688
0.996316
0.992409
0.999491
1
0.999992
1
0.939353
0.988115
0.999894
0.999952
1
0.999433
0.999978
1
1
0.95595
0.1308
0.215269
0.428297
0.707035
0.968446
0.999991
0.999992
1
0.906399
0.768166
1.58813e-06
1.98536e-06
-1.1617e-06
0.0587297
0.24069
0.486057
0.606294
0.513182
0.301299
0.280869
1.51081e-06
1.58992e-06
2.00293e-06
2.98775e-06
6.5396e-06
1.74956e-05
3.94213e-05
4.42159e-05
3.41535e-05
6.97661e-05
4.53282e-06
1.86732e-05
2.98824e-06
9.36126e-05
0.000298741
0.000439054
0.000537781
0.00040683
0.000333795
0.000233728
1.07408e-05
2.22607e-05
4.08452e-06
2.88797e-06
0.000100384
0.000703443
0.000609189
0.000797207
0.000827512
0.000586807
1.03833e-06
1.31484e-05
5.89209e-06
2.49897e-06
9.03321e-05
0.000237903
1.42646e-05
8.70126e-05
0.000392807
0.000259566
1.01721e-06
1.43067e-05
3.27936e-06
2.88797e-06
0.000336854
0.000274527
8.9133e-06
7.42626e-06
5.77347e-05
3.52939e-05
9.01201e-06
2.70763e-05
3.76816e-06
1.0124e-05
0.000337968
0.000296937
3.55072e-05
6.76418e-06
6.13302e-06
1.00284e-05
1.70531e-05
1.08908e-05
1.00218e-05
1.08851e-05
0.000280789
0.000119005
9.51413e-05
5.95174e-06
5.3968e-06
5.83125e-06
3.93495e-06
1.64315e-05
1.08851e-05
0.000153184
7.37659e-05
4.58055e-05
0.000162563
1.87587e-05
5.39209e-06
5.39989e-06
1.92138e-05
0.000259711
4.24536e-05
0.00017252
0.00023347
0.000133953
0.000144621
8.65431e-05
5.38773e-06
5.39209e-06
6.79196e-05
0.0004099
0.000353413
0.000261938
0.000283159
0.000117791
1.74262e-05
0.000138194
4.39735e-05
5.52496e-06
0.000112761
0.00040839
0.000411793
0.000380933
0.000305908
7.49138e-05
7.75621e-06
0.000103898
7.60632e-05
2.72513e-05
0.982772
0.997971
1
1
1
1
1
1
1
1
0.983062
0.999784
1
1
1
1
1
0.999999
1
1
0.983288
0.99982
1
1
1
1
1
0.999996
1
1
0.981354
0.999649
0.999944
0.999893
0.999969
1
0.998854
1
1
1
0.981357
0.996716
0.996883
0.998166
0.99978
0.992509
0.995165
1
1
1
0.988709
0.997773
0.998145
0.996582
0.998235
0.992456
0.996546
1
0.999844
1
0.988009
0.999885
0.999934
0.999975
0.999998
0.999125
0.999756
0.999998
1
0.950506
0.207775
0.314119
0.498184
0.77229
0.994427
0.999991
0.999998
0.999998
0.956915
0.789192
1.95236e-06
7.00589e-06
0.00254281
0.0889761
0.299899
0.573666
0.708495
0.600477
0.326552
0.299957
1.47717e-06
1.93805e-06
2.98157e-06
6.53959e-06
1.70842e-05
3.54652e-05
3.57097e-05
2.31089e-05
2.67912e-05
2.46538e-05
5.93236e-06
3.93314e-05
8.02034e-05
0.000159929
0.000322
0.000485996
0.000481404
0.000256288
3.18023e-05
6.17317e-05
1.46395e-06
1.09721e-05
3.82559e-06
3.4187e-06
0.000272307
0.000331514
0.000151461
0.000306087
0.000200746
0.000192214
1.42078e-05
0.00024245
4.09324e-05
2.88797e-06
1.39978e-05
1.54877e-05
8.30388e-06
0.000125951
0.000172537
0.000179668
0.000217828
0.00053914
0.00039712
8.22178e-05
0.000111581
2.94743e-05
2.71088e-05
0.00010231
6.29856e-05
4.65816e-05
0.000221329
0.000158042
0.000322228
0.000314586
0.000216697
4.06106e-05
0.000148146
2.05229e-05
6.29638e-06
9.6905e-06
2.99152e-05
1.34958e-05
4.17195e-05
0.000128601
5.86968e-05
8.30888e-05
0.000163212
6.02771e-06
5.41341e-06
5.84143e-06
8.99648e-05
0.000206913
0.000161477
0.000234616
0.00022179
0.0002927
0.000162948
5.41341e-06
5.37642e-06
5.41341e-06
0.000201469
0.000409895
0.000412805
0.00040854
0.000402136
0.000397216
0.000138325
2.20375e-05
5.38874e-06
8.86498e-06
0.000117677
0.000412809
0.000412809
0.00041281
0.000408499
0.000232317
5.3896e-05
6.34328e-05
4.2912e-05
0.000211425
1.40955e-05
0.000411793
0.00041281
0.000411793
0.000407121
7.05181e-05
1.00737e-05
4.51493e-05
0.000101487
0.000149411
0.999687
0.999991
1
1
1
1
1
1
1
1
1
0.999992
0.999994
1
1
1
1
1
1
1
1
1
1
1
1
1
0.999972
1
1
1
1
1
0.999777
1
0.99984
0.999276
0.999784
1
1
1
0.999848
0.988107
0.980558
0.985023
0.999374
0.997641
0.999814
1
1
1
0.999976
0.990524
0.980739
0.988462
0.999857
0.999478
0.999969
0.999995
0.999889
1
0.999896
0.999871
0.999991
1
1
1
1
1
1
0.9614
0.284218
0.382151
0.565566
0.803972
0.996249
0.999999
1
1
0.860016
0.749833
1.08665e-05
6.62455e-05
0.0140158
0.110803
0.321026
0.56002
0.595265
0.45868
0.247255
0.288396
1.95034e-06
7.0031e-06
9.76748e-06
1.70842e-05
3.54651e-05
3.25776e-05
2.01716e-05
1.75614e-05
2.22181e-05
2.32816e-05
6.90387e-05
0.000527011
0.000429175
0.000349008
0.000418121
0.000448304
0.000214351
1.76981e-05
2.26664e-05
2.57554e-05
0.000482764
0.000690125
0.000687276
0.000617942
0.000568894
0.000209934
3.38875e-05
7.37715e-06
1.62946e-05
2.70269e-05
0.000671184
0.0006916
0.000343139
8.89145e-05
0.000278048
2.50048e-05
3.96208e-06
1.35592e-05
1.28575e-05
2.48993e-05
0.000145282
0.000564424
5.01463e-05
3.8299e-05
1.4746e-05
1.29793e-05
2.47839e-05
3.70549e-05
2.05758e-05
2.37034e-05
2.48118e-05
3.39928e-05
7.08752e-05
9.1159e-05
2.36662e-05
2.41471e-05
9.65087e-05
1.34298e-05
9.97167e-06
1.1693e-05
2.4962e-05
3.29027e-05
2.22154e-05
4.25204e-05
4.05001e-05
0.000120572
0.000109778
5.82045e-06
5.48942e-06
5.90508e-06
0.000310625
0.000310609
5.86878e-05
0.00019357
0.000134378
0.000248282
0.000129756
5.48942e-06
5.41341e-06
5.48942e-06
0.000366107
0.000409108
0.000294192
0.000351254
0.000216405
0.000186625
0.000149483
3.85484e-05
7.70427e-06
6.53072e-05
9.14503e-05
0.000410012
0.000412815
0.000145585
0.000111047
3.55415e-05
6.36829e-05
8.08007e-05
0.000204192
0.000220017
7.19435e-05
0.000408163
0.000411797
4.77293e-05
2.99551e-05
1.10795e-05
1.86947e-05
3.13048e-05
5.4178e-05
0.000192572
1
1
0.999999
1
1
1
1
1
1
1
1
0.999995
0.999988
0.999999
1
1
1
1
1
1
1
1
1
0.999996
0.999998
0.999995
1
1
1
1
0.999803
0.997663
0.997684
1
1
1
1
1
1
1
0.998858
0.979109
0.992579
1
1
1
1
1
1
1
0.999932
0.986666
0.998302
1
1
1
1
1
0.999995
1
0.999986
0.999992
1
1
1
1
1
1
1
0.979578
0.365489
0.450646
0.622961
0.84256
0.971632
1
0.975221
0.924963
0.815538
0.689999
5.7647e-05
0.00245059
0.0329468
0.136765
0.30996
0.425715
0.383023
0.294208
0.182022
0.25298
1.07937e-05
6.6621e-05
5.4584e-05
5.25029e-05
3.25531e-05
2.01663e-05
1.30753e-05
1.29933e-05
1.75672e-05
0.00216364
0.000473029
0.000523723
0.000396357
0.000440501
0.000373393
0.000174646
7.55051e-06
7.37382e-06
1.34267e-05
0.000145808
0.000661124
0.0006916
0.000661124
0.000611072
0.00013727
2.26767e-05
3.96208e-06
5.53374e-06
7.72938e-06
2.19331e-05
0.000481171
0.000424393
0.00029012
5.02094e-05
2.00742e-05
4.29087e-06
3.1893e-06
4.91004e-06
5.57112e-06
8.73787e-06
1.04649e-05
1.27815e-05
1.28432e-05
1.67053e-05
9.44282e-06
6.16518e-06
7.44158e-06
1.37777e-05
8.75047e-06
1.07991e-05
1.86613e-05
0.00014033
9.41811e-06
1.37384e-05
8.00826e-05
7.08085e-06
9.93294e-06
6.943e-05
9.32146e-05
1.5271e-05
0.000134314
0.000168495
1.01172e-05
9.143e-06
9.99805e-05
3.50607e-05
1.60292e-05
3.56024e-05
8.83349e-05
6.7289e-06
0.000124764
0.000148892
1.71555e-05
4.46029e-05
0.000101878
0.000103817
5.41146e-05
5.82045e-06
7.73277e-06
5.90508e-06
1.33695e-05
9.94709e-05
0.000183643
6.53026e-05
6.74436e-05
0.000139561
0.000145846
8.85341e-05
3.84773e-05
4.35487e-05
1.59381e-05
0.000203832
0.000368906
5.01011e-05
2.03912e-05
4.4192e-05
3.76027e-05
8.59973e-05
0.000217057
0.000220017
9.18202e-05
0.000330437
0.000373592
2.26849e-05
7.8099e-06
8.8404e-06
1.02676e-05
1.11347e-05
0.000144511
0.00014015
1
1
1
1
1
1
1
1
1
1
1
1
0.999999
0.999999
1
1
1
1
1
1
1
1
0.999994
0.999999
1
1
1
1
1
1
0.999946
0.999309
1
1
1
1
1
1
1
1
0.999877
0.993976
1
1
1
1
1
1
1
1
0.999957
0.999185
1
1
1
1
1
1
1
1
0.999993
1
1
1
1
1
1
1
1
0.996248
0.411471
0.470329
0.6304
0.835326
0.906811
0.906827
0.895529
0.871069
0.854623
0.70649
9.02908e-05
0.00354361
0.0410878
0.146606
0.253052
0.258103
0.19184
0.161055
0.124392
0.236023
2.62145e-05
0.000142528
0.000103775
8.46576e-05
2.31484e-05
3.25377e-05
2.017e-05
1.75835e-05
0.000331358
0.00180531
0.000446849
0.000542934
0.000236664
0.000207851
5.2359e-06
6.65616e-05
3.39157e-05
1.34267e-05
5.74759e-05
0.000427007
0.00063215
0.000130651
0.000280532
9.8681e-05
3.039e-06
7.11502e-05
4.59137e-06
6.20984e-06
1.60999e-05
5.96095e-05
0.000222031
5.6849e-06
4.23153e-06
7.43628e-05
2.63436e-06
2.97388e-06
2.97855e-06
1.99855e-05
8.75124e-06
1.74404e-05
5.6849e-06
4.0459e-06
2.84329e-05
6.6068e-05
7.23287e-06
2.97464e-06
1.02851e-05
0.000131361
5.33525e-05
3.55735e-05
6.66244e-06
7.78394e-06
8.35973e-06
2.34414e-05
2.41115e-05
3.2873e-06
3.22444e-05
0.000144131
0.00014278
2.93973e-05
1.20696e-05
8.78296e-06
5.98571e-06
2.46055e-06
2.67027e-05
6.21992e-06
1.9667e-05
0.000144667
0.000142809
1.02673e-05
3.71468e-06
2.1367e-06
2.78239e-05
1.76557e-05
1.57486e-05
1.23252e-05
1.42493e-05
1.74504e-05
8.31281e-05
6.7289e-06
2.13643e-06
2.12975e-06
1.91735e-05
4.93591e-05
1.64781e-05
1.0042e-05
9.44824e-05
6.28965e-05
8.51935e-06
6.66448e-06
2.13643e-06
2.13643e-06
2.13643e-06
4.50428e-05
1.8643e-05
8.84041e-06
2.54663e-05
0.000191774
0.000199469
9.967e-05
2.15056e-06
2.13643e-06
1.87544e-06
1.85524e-05
6.61432e-06
7.54854e-06
8.79963e-06
0.000173229
0.000198051
0.000135522
1
1
1
1
1
1
1
1
1
1
1
1
1
1
1
1
1
1
1
1
1
0.999998
1
1
1
1
1
1
1
1
1
0.999986
0.999995
1
1
1
1
1
1
1
0.999976
0.999993
1
1
1
1
1
1
1
1
0.999805
0.99688
0.999931
1
1
1
1
1
1
1
0.999993
0.999999
1
1
1
1
1
0.999999
1
0.999999
0.531588
0.533933
0.622425
0.769107
0.824155
0.808572
0.909795
0.959742
0.937226
0.817575
5.57117e-05
0.00497085
0.0350165
0.116593
0.171729
0.134476
0.0816115
0.130409
0.142854
0.258881
3.76253e-05
6.53215e-05
9.32376e-05
1.81548e-05
4.98206e-06
0.000144898
4.03952e-05
0.000263921
0.00163191
0.00113434
0.000190668
0.000495353
0.000330107
5.18417e-06
3.1078e-06
0.000215468
4.13225e-05
5.25171e-05
8.52586e-05
8.56438e-05
0.000565409
0.00018585
9.27225e-05
3.33719e-05
2.61616e-06
2.71367e-06
0.000197134
2.00747e-05
3.91836e-05
0.000101879
0.000291935
4.04591e-06
3.18925e-06
4.62271e-06
2.52147e-06
2.3935e-06
5.35127e-06
7.98379e-06
2.44074e-05
8.89326e-05
4.00679e-06
3.06506e-06
2.51541e-06
1.09364e-05
3.94827e-06
1.0376e-05
2.48894e-06
9.36437e-05
0.000137952
3.60918e-05
4.33276e-06
3.12898e-06
3.32238e-06
4.49882e-06
2.49013e-06
1.93474e-05
3.29374e-05
0.000145283
0.000144131
2.50957e-05
6.68234e-05
5.92392e-06
2.44798e-06
2.46055e-06
2.46055e-06
2.76827e-06
4.74271e-05
0.000145283
0.000145283
2.35852e-05
7.42559e-05
4.81817e-06
2.44412e-06
2.44798e-06
2.50005e-06
2.53457e-06
1.62092e-05
0.000137219
0.000142809
1.53629e-05
1.11835e-05
2.13643e-06
2.29579e-06
2.36815e-06
2.4825e-06
1.01382e-05
5.91814e-05
6.33449e-05
0.000101538
4.79741e-06
3.15909e-06
2.13643e-06
1.87544e-06
1.41282e-06
1.19756e-05
9.54533e-06
5.75113e-05
0.000152936
2.75647e-05
3.68584e-06
6.80045e-06
1.877e-06
1.05558e-06
4.2899e-07
2.26013e-05
1.92969e-05
5.13297e-05
0.000167738
6.82101e-05
1.7062e-05
1
1
1
1
1
1
1
1
1
1
1
1
1
1
1
1
1
1
1
1
1
1
0.999999
1
1
1
1
1
1
1
0.999999
0.999963
0.999982
1
1
1
1
1
1
1
0.999998
0.997595
1
1
1
1
1
1
1
1
0.983904
0.989329
1
1
1
1
1
1
1
1
0.99998
1
1
1
1
0.999999
1
0.999999
0.999999
0.999995
0.583384
0.572046
0.626796
0.709308
0.732633
0.905817
0.981176
0.9772
0.964146
0.897134
0.0020278
0.00693431
0.0275817
0.0754553
0.0927213
0.0874889
0.175848
0.242938
0.260902
0.366389
5.58873e-05
0.000118279
8.49553e-05
1.88802e-05
7.47656e-06
0.000136452
0.000255765
0.00024821
0.000137494
0.012523
5.60493e-05
0.000256829
0.000328819
7.52456e-06
3.74419e-06
9.48939e-05
0.000588037
0.000516807
6.99378e-05
4.41541e-05
0.000134544
0.000482826
0.000295975
5.212e-05
2.45137e-06
2.3935e-06
0.000255705
0.000486623
0.000169089
1.97213e-05
0.000444488
9.78762e-05
2.448e-06
2.448e-06
2.39536e-06
2.15452e-06
2.26253e-06
0.000126259
0.000180166
3.40989e-05
1.75831e-05
1.77021e-06
2.33371e-06
2.448e-06
2.448e-06
7.67668e-06
2.22417e-06
2.32701e-06
0.000103374
2.70835e-05
1.41382e-06
1.67756e-06
2.27213e-06
2.47598e-06
2.47909e-06
1.49012e-05
1.42981e-05
1.63085e-05
0.000126967
1.96327e-05
4.54337e-05
2.51883e-05
3.29751e-06
2.46055e-06
2.49013e-06
1.03557e-05
4.13045e-05
5.44562e-05
0.000142809
1.56057e-05
7.80069e-05
2.95362e-05
2.81441e-06
4.7929e-06
2.5217e-06
8.80461e-06
2.95606e-05
0.000111088
0.000139396
1.04948e-05
3.99826e-05
3.39984e-06
2.44383e-06
7.31807e-06
1.58277e-05
1.20443e-05
6.9793e-05
6.97994e-05
0.000137557
4.323e-06
1.90368e-05
2.30618e-06
3.87528e-06
1.69048e-05
5.01974e-05
6.62469e-05
7.07054e-05
1.84558e-05
4.79463e-05
3.05067e-06
1.96526e-05
2.48036e-06
8.97871e-06
1.76073e-05
6.02596e-05
6.29751e-05
4.2577e-05
3.47394e-05
3.05165e-06
2.49072e-06
1
1
1
1
1
1
1
1
1
1
1
1
1
1
1
1
1
1
1
1
1
1
1
1
1
1
1
1
1
1
0.999848
0.99998
1
1
1
1
1
0.999999
0.999999
1
0.998455
0.999752
1
1
1
1
0.999999
0.99999
1
1
0.994642
0.999203
0.999993
1
1
1
1
0.999999
0.999999
1
1
1
1
1
1
1
0.999998
0.999991
0.99999
0.999992
0.614489
0.620805
0.650718
0.672886
0.844366
0.981982
0.992376
0.979406
0.991356
0.99478
0.0172743
0.0205239
0.0314975
0.0382165
0.0499069
0.140315
0.252041
0.370381
0.484055
0.575689
0.000130205
0.000188062
0.000124646
5.30669e-05
4.37019e-05
5.82143e-05
0.000196395
0.000280153
0.000179212
0.0762563
8.16193e-05
0.000125408
8.31443e-05
1.86907e-05
4.27984e-06
0.000116974
0.000392795
0.000264419
3.77219e-05
1.96449e-05
0.000153109
0.000482393
0.000301618
3.08067e-05
2.49565e-06
2.15451e-06
7.70578e-05
0.000428748
0.000106322
1.35771e-05
0.000444488
0.000302125
2.45905e-05
5.7807e-06
2.25943e-06
2.0235e-06
1.84339e-06
0.000159707
0.000128837
1.22864e-05
9.69445e-06
1.33377e-06
1.90439e-06
1.06947e-05
6.51579e-06
1.82968e-06
1.74598e-06
1.84304e-06