/*--------------------------------*- C++ -*----------------------------------*\
| =========                 |                                                 |
| \\      /  F ield         | OpenFOAM: The Open Source CFD Toolbox           |
|  \\    /   O peration     | Version:  2312                                  |
|   \\  /    A nd           | Website:  www.openfoam.com                      |
|    \\/     M anipulation  |                                                 |
\*---------------------------------------------------------------------------*/
FoamFile
{
    version     2.0;
    format      ascii;
    arch        "LSB;label=32;scalar=64";
    class       volScalarField;
    location    "0.56";
    object      p;
}
// * * * * * * * * * * * * * * * * * * * * * * * * * * * * * * * * * * * * * //

dimensions      [1 -1 -2 0 0 0 0];

internalField   nonuniform List<scalar> 
8000
(
389.967
389.425
388.268
386.686
384.902
383.107
381.465
380.119
379.168
378.695
341.743
341.157
339.846
338.059
336.06
334.056
332.216
330.689
329.605
329.062
294.446
293.768
292.085
289.851
287.403
284.962
282.705
280.822
279.462
278.762
248.341
247.498
245.023
242.006
238.853
235.744
232.836
230.341
228.515
227.557
203.451
202.201
198.474
194.317
190.217
186.234
182.436
179.017
176.448
175.095
159.279
156.734
151.678
146.378
141.293
136.375
131.41
126.455
122.593
120.863
115.197
110.76
105.005
98.9239
92.9491
86.8807
80.2815
73.7906
68.6181
64.9501
71.5453
67.0168
61.0169
53.2061
46.8166
41.2125
34.2582
26.3293
20.3854
17.3733
36.0267
32.1394
23.5854
13.1191
8.88765
7.27041
5.24315
2.79804
1.27507
0.94014
17.1857
6.80318
0.592121
-0.268062
-0.388328
-0.408921
-0.400449
-0.360625
-0.297774
-0.222919
-0.201456
-0.401821
-0.440533
-0.429602
-0.431168
-0.427711
-0.42747
-0.413609
-0.359038
-0.303144
-0.359228
-0.401892
-0.421414
-0.419874
-0.429746
-0.432987
-0.424369
-0.405501
-0.374493
-0.34389
-0.38297
-0.399422
-0.429663
-0.447328
-0.459151
-0.462102
-0.456617
-0.440933
-0.42049
-0.406498
-0.435092
-0.454906
-0.482291
-0.49817
-0.507997
-0.50973
-0.50513
-0.495221
-0.48327
-0.475398
-0.513024
-0.519869
-0.536765
-0.551992
-0.5617
-0.56504
-0.560994
-0.5528
-0.544053
-0.538348
-0.574699
-0.577937
-0.589189
-0.598756
-0.603546
-0.608097
-0.60938
-0.606568
-0.601477
-0.597195
-0.630976
-0.632758
-0.640001
-0.64772
-0.64912
-0.651143
-0.653546
-0.654217
-0.653171
-0.651487
-0.686665
-0.688708
-0.694141
-0.704722
-0.703051
-0.702042
-0.703264
-0.703985
-0.704438
-0.704405
-0.743904
-0.75001
-0.750852
-0.760551
-0.760896
-0.756076
-0.756926
-0.757639
-0.758446
-0.759208
-0.80243
-0.80889
-0.807917
-0.810115
-0.815403
-0.810422
-0.81144
-0.812439
-0.813647
-0.814987
389.435
388.949
387.858
386.35
384.647
382.933
381.365
380.076
379.169
378.726
341.17
340.658
339.426
337.717
335.801
333.882
332.119
330.656
329.616
329.1
293.793
293.273
291.689
289.521
287.155
284.809
282.642
280.82
279.509
278.837
247.545
247.103
244.788
241.768
238.646
235.623
232.813
230.383
228.626
227.688
202.357
201.859
198.383
194.202
190.102
186.19
182.492
179.167
176.748
175.343
157.173
155.725
150.954
145.833
140.938
136.184
131.5
126.981
123.019
120.787
111.368
108.499
102.601
96.9228
91.326
85.4402
79.1108
72.6896
66.6124
62.6125
67.4497
64.8048
56.2008
49.1153
43.1538
37.2302
30.5494
23.2537
17.0074
13.0297
32.2353
27.0943
14.9928
9.45263
7.01991
4.52704
2.22517
1.20738
0.638543
0.597402
6.59602
0.784635
-0.171296
-0.360646
-0.397994
-0.407403
-0.410481
-0.380486
-0.309498
-0.185194
-0.395687
-0.477147
-0.459841
-0.433963
-0.426358
-0.432031
-0.44183
-0.427326
-0.361292
-0.291645
-0.404796
-0.418957
-0.424604
-0.428556
-0.435333
-0.434685
-0.424827
-0.406469
-0.372219
-0.339585
-0.403159
-0.425936
-0.452079
-0.46428
-0.47162
-0.473262
-0.464983
-0.445026
-0.421827
-0.409202
-0.457458
-0.480412
-0.498054
-0.510783
-0.519607
-0.520768
-0.514788
-0.501822
-0.487466
-0.479683
-0.535272
-0.538173
-0.545609
-0.561785
-0.572634
-0.575724
-0.569025
-0.558294
-0.548746
-0.543989
-0.596953
-0.593981
-0.588852
-0.598927
-0.610082
-0.618096
-0.618874
-0.613769
-0.607709
-0.603859
-0.647024
-0.646466
-0.635326
-0.640737
-0.649034
-0.656606
-0.66063
-0.661244
-0.659899
-0.657239
-0.701595
-0.704216
-0.690006
-0.695346
-0.701391
-0.704845
-0.705778
-0.706702
-0.707282
-0.707152
-0.75735
-0.77005
-0.750957
-0.754157
-0.756622
-0.758466
-0.758239
-0.758512
-0.759274
-0.760218
-0.81649
-0.843892
-0.816613
-0.810859
-0.810389
-0.812591
-0.812686
-0.813183
-0.814417
-0.816008
388.292
387.872
386.914
385.577
384.053
382.514
381.101
379.941
379.132
378.754
339.876
339.442
338.381
336.879
335.176
333.458
331.873
330.555
329.618
329.167
292.131
291.709
290.396
288.532
286.454
284.376
282.447
280.812
279.617
279.014
245.092
244.809
243.041
240.532
237.836
235.196
232.733
230.598
229.005
228.172
198.614
198.43
196.021
192.68
189.187
185.817
182.62
179.727
177.532
176.22
152
151.111
147.82
143.885
139.841
135.854
131.968
128.14
124.696
122.566
105.379
102.908
98.4515
94.0593
89.5446
84.7964
79.8132
74.7868
69.7882
65.7867
61.3322
56.6367
50.795
45.5875
40.6874
35.6619
30.4081
24.3184
17.9495
13.4798
24.0546
15.1974
10.9578
9.27875
6.93705
4.50327
2.24653
1.09657
0.531913
0.366872
0.6447
-0.163938
-0.330988
-0.374701
-0.383526
-0.373436
-0.388661
-0.399188
-0.304363
-0.18302
-0.44191
-0.460889
-0.434173
-0.413277
-0.410978
-0.41884
-0.424458
-0.400742
-0.338471
-0.270382
-0.422918
-0.424356
-0.425676
-0.428592
-0.43308
-0.433949
-0.433427
-0.414337
-0.37999
-0.344034
-0.429435
-0.449939
-0.464787
-0.47357
-0.481645
-0.487447
-0.483543
-0.464814
-0.442508
-0.4305
-0.475063
-0.496358
-0.508721
-0.517353
-0.524969
-0.530535
-0.530044
-0.517466
-0.498942
-0.493408
-0.53268
-0.547267
-0.553646
-0.559908
-0.566102
-0.56911
-0.569853
-0.564314
-0.552869
-0.549418
-0.593712
-0.599296
-0.593125
-0.595177
-0.603389
-0.606938
-0.608914
-0.608608
-0.605489
-0.603689
-0.650106
-0.648999
-0.636902
-0.634998
-0.644069
-0.650248
-0.652831
-0.654495
-0.655267
-0.655087
-0.697817
-0.702513
-0.690525
-0.686274
-0.693768
-0.700528
-0.702311
-0.704183
-0.705901
-0.706939
-0.749681
-0.759741
-0.750338
-0.745815
-0.749401
-0.754574
-0.755864
-0.757607
-0.75938
-0.761032
-0.809277
-0.826555
-0.819473
-0.808381
-0.806765
-0.810809
-0.810791
-0.812782
-0.814808
-0.817045
386.729
386.384
385.595
384.484
383.204
381.901
380.697
379.712
379.029
378.738
338.109
337.752
336.898
335.673
334.262
332.822
331.478
330.351
329.545
329.177
289.918
289.563
288.553
287.085
285.409
283.704
282.094
280.703
279.667
279.156
242.098
241.816
240.552
238.683
236.594
234.497
232.497
230.707
229.33
228.597
194.456
194.28
192.705
190.349
187.737
185.155
182.656
180.36
178.43
177.275
146.637
146.024
143.95
141.238
138.28
135.368
132.515
129.515
126.83
125.119
99.2075
97.3282
94.2165
90.8626
87.5031
84.1295
80.7071
77.2325
73.8595
71.0646
53.4128
49.5583
45.6965
41.3839
37.7585
34.612
31.3842
26.929
22.2472
18.0666
13.5438
9.24624
9.1089
7.51547
5.80217
4.38197
3.01406
1.61084
0.914767
0.508881
-0.269841
-0.358128
-0.374882
-0.36295
-0.34973
-0.339969
-0.336633
-0.369984
-0.32743
-0.234767
-0.432369
-0.44016
-0.42287
-0.403956
-0.389642
-0.389883
-0.403632
-0.399101
-0.354128
-0.301648
-0.426538
-0.433383
-0.436723
-0.433949
-0.430801
-0.438089
-0.45563
-0.451544
-0.41158
-0.361173
-0.44809
-0.464814
-0.47684
-0.484089
-0.489336
-0.501796
-0.516742
-0.509096
-0.473879
-0.452984
-0.49755
-0.511595
-0.519347
-0.524906
-0.533279
-0.547107
-0.557521
-0.55687
-0.527422
-0.512759
-0.546547
-0.559071
-0.563402
-0.563881
-0.567274
-0.574344
-0.582988
-0.586207
-0.568819
-0.561983
-0.594567
-0.601505
-0.60186
-0.599817
-0.601887
-0.605441
-0.608541
-0.612876
-0.611103
-0.608909
-0.644132
-0.647022
-0.644919
-0.641753
-0.644144
-0.64884
-0.650154
-0.653037
-0.656429
-0.65707
-0.692859
-0.697722
-0.697557
-0.691722
-0.695068
-0.69921
-0.700321
-0.702617
-0.705746
-0.707801
-0.744859
-0.752288
-0.753736
-0.751446
-0.752299
-0.753677
-0.754123
-0.756311
-0.759283
-0.761847
-0.801692
-0.811748
-0.817014
-0.812077
-0.810885
-0.80991
-0.809657
-0.811883
-0.815096
-0.818158
384.968
384.703
384.095
383.226
382.213
381.173
380.206
379.416
378.873
378.686
336.135
335.863
335.22
334.286
333.19
332.054
330.972
330.053
329.383
329.119
287.497
287.227
286.504
285.437
284.185
282.878
281.606
280.465
279.565
279.152
238.979
238.736
237.894
236.626
235.158
233.626
232.097
230.641
229.438
228.745
190.394
190.231
189.261
187.775
186.073
184.32
182.526
180.757
179.141
178.206
141.579
141.185
139.984
138.359
136.6
134.848
133.038
131.022
129.15
127.981
93.2937
91.8441
89.8656
87.6944
85.8238
84.2425
82.7446
81.1029
79.8621
78.5597
47.1009
43.842
41.0315
37.9383
36.1714
35.2069
33.9676
31.7662
29.4306
27.2529
9.14888
7.0122
6.97371
5.88536
5.256
4.97361
4.32383
2.96535
2.27008
1.57625
-0.395174
-0.39799
-0.372212
-0.351424
-0.333266
-0.316966
-0.314673
-0.341052
-0.354879
-0.320317
-0.435024
-0.430552
-0.420691
-0.40988
-0.395912
-0.378275
-0.387232
-0.399995
-0.398471
-0.370565
-0.442043
-0.440934
-0.447261
-0.453767
-0.454848
-0.444222
-0.450189
-0.468431
-0.434762
-0.353464
-0.469543
-0.476299
-0.486676
-0.501742
-0.510889
-0.512494
-0.513804
-0.534004
-0.509359
-0.468404
-0.512213
-0.520996
-0.52556
-0.534742
-0.548066
-0.558967
-0.563128
-0.583968
-0.570997
-0.539272
-0.556928
-0.564995
-0.565123
-0.567198
-0.576231
-0.586111
-0.593579
-0.607925
-0.59134
-0.583943
-0.60083
-0.604156
-0.602997
-0.601513
-0.605506
-0.609521
-0.612645
-0.623301
-0.617314
-0.617442
-0.647091
-0.648949
-0.647585
-0.644221
-0.64637
-0.648247
-0.647094
-0.651855
-0.657204
-0.659439
-0.69588
-0.699574
-0.698941
-0.694498
-0.696339
-0.697437
-0.697173
-0.699792
-0.705077
-0.708767
-0.747476
-0.751902
-0.753758
-0.750074
-0.751269
-0.75082
-0.750982
-0.753661
-0.758556
-0.761862
-0.803404
-0.808279
-0.810142
-0.807706
-0.808385
-0.806655
-0.806723
-0.809681
-0.814994
-0.818417
383.201
383.017
382.582
381.95
381.201
380.425
379.693
379.1
378.694
378.605
334.161
333.974
333.532
332.874
332.083
331.243
330.421
329.715
329.178
329.044
285.09
284.919
284.461
283.763
282.91
281.977
281.016
280.072
279.253
278.872
235.916
235.768
235.302
234.566
233.662
232.639
231.505
230.269
229.045
228.246
186.482
186.403
185.958
185.236
184.361
183.353
182.137
180.583
178.857
177.583
136.739
136.538
136.094
135.514
134.915
134.196
133.23
131.9
130.177
130.837
87.3405
86.1325
85.3205
84.5189
84.46
84.7244
84.8058
84.6553
84.5257
85.684
41.7269
38.296
36.421
35.1543
35.5131
36.3278
36.6434
36.9129
37.4903
37.335
7.70882
4.86462
4.77703
4.60213
5.11913
5.88318
5.54505
4.23698
4.00734
4.39114
-0.412456
-0.387175
-0.339487
-0.332751
-0.322328
-0.320572
-0.311296
-0.324767
-0.359901
-0.396372
-0.438602
-0.437126
-0.416828
-0.40846
-0.413567
-0.415516
-0.411516
-0.4118
-0.442841
-0.518993
-0.455661
-0.449355
-0.452851
-0.460635
-0.482289
-0.482329
-0.463873
-0.459744
-0.437206
-0.364101
-0.487669
-0.489501
-0.491732
-0.504905
-0.527192
-0.535331
-0.514058
-0.523923
-0.51789
-0.474025
-0.522895
-0.530725
-0.530366
-0.540822
-0.560337
-0.572626
-0.567936
-0.586879
-0.593801
-0.56262
-0.561478
-0.569353
-0.568411
-0.573362
-0.589679
-0.605039
-0.615247
-0.622013
-0.610411
-0.612576
-0.602172
-0.606049
-0.605254
-0.605372
-0.615032
-0.626706
-0.63599
-0.638996
-0.62087
-0.632707
-0.646421
-0.649154
-0.648795
-0.645535
-0.649075
-0.652717
-0.652548
-0.653132
-0.653077
-0.663266
-0.69428
-0.69681
-0.696407
-0.693964
-0.694633
-0.695257
-0.69402
-0.692714
-0.699304
-0.708939
-0.745071
-0.746925
-0.746976
-0.746037
-0.746381
-0.74619
-0.746255
-0.747329
-0.753948
-0.759111
-0.799439
-0.801383
-0.801866
-0.801349
-0.801543
-0.801147
-0.801823
-0.804776
-0.812224
-0.815987
381.585
381.475
381.196
380.775
380.266
379.726
379.208
378.799
378.52
378.529
332.349
332.24
331.976
331.56
331.033
330.455
329.873
329.35
328.956
328.902
282.871
282.789
282.566
282.184
281.672
281.052
280.322
279.5
278.696
278.367
233.062
233.012
232.881
232.597
232.169
231.551
230.717
229.381
227.882
225.966
182.762
182.799
182.811
182.747
182.598
182.16
181.22
179.222
176.855
175.205
131.859
131.935
132.232
132.635
133.084
133.242
132.937
132.014
134.976
135.905
80.9095
79.9542
80.4333
81.0917
82.9603
84.9393
86.6548
88.3393
92.9217
96.1842
35.0015
31.8526
31.2933
31.9525
34.2695
36.8335
39.3352
42.3985
48.3208
53.5098
5.80219
2.59448
2.62475
3.29432
4.52796
5.55805
5.11601
5.58518
9.60668
15.3512
-0.397807
-0.379009
-0.353756
-0.32965
-0.304063
-0.31877
-0.357123
-0.304975
-0.345789
0.867996
-0.446628
-0.446992
-0.415994
-0.400585
-0.395201
-0.427229
-0.472903
-0.451999
-0.642234
-0.371558
-0.459639
-0.45546
-0.461248
-0.460077
-0.466486
-0.49471
-0.500479
-0.445655
-0.388826
-0.459316
-0.494604
-0.49741
-0.501572
-0.510913
-0.524708
-0.536468
-0.51317
-0.500142
-0.504335
-0.471732
-0.527415
-0.538124
-0.539939
-0.551264
-0.567572
-0.588904
-0.575671
-0.585626
-0.605424
-0.564413
-0.561985
-0.57342
-0.57495
-0.583454
-0.602492
-0.635632
-0.652066
-0.63273
-0.638992
-0.614993
-0.600018
-0.606463
-0.608943
-0.612066
-0.626076
-0.654748
-0.675636
-0.660913
-0.638479
-0.644445
-0.64261
-0.645512
-0.646584
-0.646309
-0.652161
-0.664666
-0.667808
-0.658838
-0.648033
-0.667539
-0.68995
-0.691021
-0.690147
-0.688842
-0.690615
-0.694321
-0.690615
-0.67757
-0.682508
-0.708219
-0.740285
-0.740591
-0.739609
-0.738365
-0.738915
-0.739278
-0.738217
-0.731662
-0.739251
-0.755745
-0.793886
-0.79421
-0.793769
-0.792909
-0.792994
-0.793266
-0.794267
-0.793991
-0.803678
-0.815322
380.259
380.208
380.06
379.818
379.512
379.18
378.861
378.653
378.574
378.679
330.844
330.799
330.68
330.459
330.151
329.798
329.421
329.121
328.98
328.908
281.012
280.989
280.953
280.82
280.575
280.18
279.595
278.848
278.465
277.969
230.605
230.613
230.767
230.828
230.749
230.382
229.501
228.004
226.545
224.208
179.407
179.571
179.924
180.396
180.818
180.689
179.592
177.228
172.319
168.931
127.001
127.403
128.296
129.479
130.971
131.897
131.584
131.733
126.442
118.544
74.4646
73.5704
75.122
77.2568
81.0314
84.8605
87.9502
92.3089
97.2701
82.7262
27.1543
24.3154
24.465
26.5232
31.2283
36.7786
42.5274
52.9909
63.1524
50.9156
3.191
1.38295
1.25154
1.68392
2.85664
4.02411
5.26532
13.7212
27.6774
21.8019
-0.372327
-0.376744
-0.374812
-0.344768
-0.291559
-0.284467
-0.275044
-0.537838
7.54896
6.30492
-0.432075
-0.432046
-0.406186
-0.394611
-0.382458
-0.413706
-0.507605
-0.52256
0.597305
2.89463
-0.456564
-0.449695
-0.457251
-0.465313
-0.486431
-0.548336
-0.57617
-0.505885
-0.907607
-0.522093
-0.491105
-0.492851
-0.50627
-0.524811
-0.560737
-0.642249
-0.582246
-0.501059
-0.466622
-0.493107
-0.524032
-0.536536
-0.548168
-0.570676
-0.621269
-0.700277
-0.633742
-0.605567
-0.621745
-0.601196
-0.557333
-0.570462
-0.578398
-0.601124
-0.652078
-0.744436
-0.731512
-0.680059
-0.69637
-0.670807
-0.593307
-0.600026
-0.60582
-0.619035
-0.639388
-0.687436
-0.728159
-0.707039
-0.69457
-0.696382
-0.635099
-0.636377
-0.638544
-0.643536
-0.640854
-0.640468
-0.651036
-0.679195
-0.681566
-0.686588
-0.682215
-0.681566
-0.68034
-0.680335
-0.675673
-0.666464
-0.652403
-0.664448
-0.677411
-0.695042
-0.732896
-0.731758
-0.729616
-0.7276
-0.72421
-0.718623
-0.713979
-0.710786
-0.722064
-0.730092
-0.786874
-0.785912
-0.784111
-0.78185
-0.780095
-0.777426
-0.772886
-0.780226
-0.78988
-0.795359
379.32
379.314
379.265
379.155
379.006
378.835
378.685
378.718
378.881
379.258
329.773
329.769
329.757
329.673
329.523
329.338
329.175
329.191
329.338
329.655
279.664
279.677
279.768
279.801
279.729
279.468
278.93
278.866
278.28
278.616
228.791
228.806
229.17
229.429
229.577
229.329
228.662
227.608
223.991
224.35
176.882
177.147
177.652
178.369
179.225
178.913
177.159
171.256
163.901
166.097
123.301
123.481
124.691
126.494
128.854
129.861
132.088
125.334
111.778
106.631
69.1175
67.3006
69.5306
73.1619
79.0323
84.9068
90.531
95.0339
76.3037
64.7833
20.9805
17.4838
17.2472
20.447
27.6462
37.1185
48.8527
61.3347
41.2679
37.1273
1.53913
0.652773
0.482736
0.670084
1.79281
3.90347
8.73253
27.5705
18.7435
15.4425
-0.326483
-0.34184
-0.306519
-0.309082
-0.274105
-0.275056
-0.940187
5.33233
5.66377
3.87404
-0.418701
-0.403541
-0.377272
-0.36675
-0.372418
-0.401214
-0.693143
1.57687
1.11776
0.6138
-0.447868
-0.433069
-0.442918
-0.465292
-0.528036
-0.588412
-0.449454
-1.11142
-0.467853
-0.491449
-0.481766
-0.482907
-0.50933
-0.54801
-0.6508
-0.72402
-0.549072
-0.910981
0.0679227
-0.733968
-0.51342
-0.527859
-0.553076
-0.612629
-0.737979
-0.833626
-0.572141
-0.456024
-0.390495
-0.689904
-0.546289
-0.557693
-0.579488
-0.636847
-0.721388
-0.850798
-0.793722
-0.596269
-0.624609
-0.656864
-0.581708
-0.585187
-0.597624
-0.627306
-0.601993
-0.574567
-0.737761
-0.711992
-0.652004
-0.706026
-0.623466
-0.621103
-0.623268
-0.630859
-0.57417
-0.465221
-0.557254
-0.703151
-0.699317
-0.698689
-0.671506
-0.667676
-0.66302
-0.659639
-0.635402
-0.562796
-0.541771
-0.641553
-0.669349
-0.663116
-0.72388
-0.720515
-0.71447
-0.707111
-0.693762
-0.667171
-0.658305
-0.671769
-0.688179
-0.669562
-0.779432
-0.776995
-0.772244
-0.76558
-0.756986
-0.74813
-0.746393
-0.747169
-0.768877
-0.765094
378.848
378.87
378.88
378.851
378.802
378.729
378.697
378.906
379.465
380.593
329.231
329.251
329.294
329.282
329.223
329.157
329.102
329.297
329.999
331.872
278.968
279.006
279.147
279.244
279.26
279.02
278.626
278.704
279.15
281.193
227.84
227.91
228.301
228.611
228.832
228.446
227.141
225.989
225.666
227.889
175.509
175.662
176.29
177.11
178.434
177.123
176.364
172.495
167.045
171.291
121.444
121.189
122.525
124.651
128.005
132.335
132.469
122.825
103.48
119.527
65.645
63.0499
65.4282
70.0984
77.5784
85.4281
89.2586
88.9472
62.1378
67.8161
17.933
13.1445
12.6783
16.0244
24.878
38.3972
50.4332
55.265
38.5142
37.1916
1.02732
0.489304
0.235755
0.297509
1.29284
4.26587
13.2977
26.8957
18.7478
16.3014
-0.298453
-0.26611
-0.23639
-0.254524
-0.246885
-0.214406
-1.89944
14.7149
5.38151
4.66899
-0.403694
-0.379433
-0.358758
-0.364723
-0.384957
-0.373608
-0.721778
8.55892
0.213532
-0.100253
-0.434225
-0.417447
-0.447957
-0.516618
-0.594595
-0.61968
-0.304872
-0.0526123
-0.853632
-0.823331
-0.470815
-0.476843
-0.535111
-0.61953
-0.730133
-0.796564
-0.483381
-1.43915
-1.07657
-0.774447
-0.497131
-0.523089
-0.584742
-0.678014
-0.780545
-0.772025
-0.610313
-0.920811
-0.896933
-0.521395
-0.527403
-0.545434
-0.597751
-0.700076
-0.863797
-0.755537
-0.778591
-0.757587
-0.563825
-0.463286
-0.565557
-0.568949
-0.591363
-0.650382
-0.731295
-0.685848
-0.744575
-0.75975
-0.627552
-0.700064
-0.610647
-0.60467
-0.600234
-0.600146
-0.55139
-0.52562
-0.611566
-0.733706
-0.710334
-0.760444
-0.661607
-0.653375
-0.636993
-0.605771
-0.532832
-0.468074
-0.521813
-0.626182
-0.683559
-0.672202
-0.716436
-0.71018
-0.695858
-0.669827
-0.621728
-0.566708
-0.56616
-0.625296
-0.679007
-0.572295
-0.773918
-0.769887
-0.760648
-0.744942
-0.721917
-0.698912
-0.696376
-0.723436
-0.768353
-0.676578
378.878
378.906
378.927
378.918
378.903
378.886
378.942
379.235
379.79
380.742
329.261
329.286
329.341
329.352
329.33
329.34
329.442
329.804
330.561
331.906
278.997
279.048
279.204
279.323
279.379
279.247
279.17
279.425
279.998
281.603
227.861
227.943
228.34
228.665
228.861
228.554
228.049
227.633
227.44
229.156
175.514
175.677
176.312
177.151
178.156
176.901
176.412
172.698
168.828
174.711
121.444
121.21
122.622
124.754
128.047
132.595
130.869
120.769
109.034
128.332
65.8073
63.1877
65.6095
70.3216
78.4117
86.8157
94.2839
89.9108
60.6862
72.3564
18.413
13.4567
12.949
16.3104
25.4589
37.9641
55.165
50.3449
37.5462
38.2462
1.03289
0.52185
0.28923
0.334463
1.20729
3.89721
13.6873
25.6814
21.2969
21.4359
-0.314852
-0.274572
-0.23859
-0.247314
-0.250263
-0.407288
5.49848
7.51561
6.37071
7.99938
-0.389454
-0.378217
-0.359452
-0.37144
-0.360656
-0.419928
0.586965
0.370754
0.36219
0.540244
-0.420811
-0.411516
-0.446399
-0.511821
-0.568281
-0.051602
-0.459933
-0.524716
-0.618004
-0.624828
-0.453359
-0.480161
-0.544859
-0.590934
-0.602011
-0.550497
-0.720955
-0.975744
-0.906395
-0.67964
-0.473834
-0.520077
-0.583416
-0.55335
-0.596652
-0.787207
-0.934913
-1.1304
-1.07808
-0.648863
-0.498733
-0.511898
-0.561689
-0.595415
-0.680103
-0.837234
-0.946221
-1.00995
-0.972612
-0.730806
-0.547845
-0.546089
-0.567647
-0.621509
-0.69992
-0.822832
-0.808129
-0.903573
-0.866546
-0.83322
-0.602838
-0.599782
-0.601067
-0.620669
-0.624699
-0.633225
-0.668252
-0.7899
-0.821712
-0.784875
-0.658748
-0.654877
-0.64807
-0.638918
-0.59837
-0.543809
-0.565839
-0.652506
-0.708244
-0.625592
-0.715292
-0.711991
-0.704379
-0.692076
-0.666603
-0.621931
-0.605559
-0.647371
-0.67048
-0.437879
-0.773247
-0.770626
-0.765133
-0.756345
-0.743383
-0.727784
-0.719482
-0.728693
-0.739783
-0.562042
379.403
379.41
379.39
379.332
379.267
379.216
379.222
379.336
379.444
379.672
329.854
329.863
329.878
329.849
329.794
329.764
329.799
329.984
330.179
330.23
279.742
279.784
279.9
279.992
280.041
280.012
279.939
279.914
279.725
279.323
228.848
228.931
229.27
229.577
229.817
229.807
229.432
228.767
227.293
226.529
176.853
177.088
177.655
178.407
179.193
179.111
178.147
176.516
170.931
170.459
123.092
123.377
124.66
126.43
128.682
129.98
132.454
129.785
119.432
119.029
69.3226
67.1878
69.3434
72.937
78.7233
83.5446
89.3107
93.8347
72.5203
68.5812
21.395
17.7188
17.5108
20.3096
27.2926
35.1401
44.2252
54.691
36.7455
43.7204
1.46163
0.729421
0.540268
0.568424
1.54429
3.55072
6.63251
23.1207
19.1822
24.9651
-0.357646
-0.368829
-0.321068
-0.32405
-0.210858
-0.21887
2.84011
5.10979
6.09709
8.33571
-0.425146
-0.422763
-0.393272
-0.38157
-0.395951
1.56938
-0.315964
-0.276974
0.277413
0.860295
-0.4442
-0.451518
-0.467982
-0.500576
0.0553211
-0.681079
-0.529862
-0.369529
-0.372633
-0.162229
-0.480315
-0.547971
-0.61029
-0.634476
-0.70308
-0.766442
-0.730679
-0.71685
-0.653001
-0.467282
-0.465556
-0.561757
-0.589749
-0.561793
-0.834314
-0.895369
-0.915424
-0.929915
-0.8396
-0.641415
-0.461337
-0.455844
-0.46472
-0.643308
-0.795035
-0.88626
-0.963791
-0.994361
-0.939214
-0.780789
-0.521627
-0.498932
-0.523393
-0.62439
-0.723171
-0.823495
-0.902558
-0.942992
-0.917449
-0.806505
-0.595243
-0.586446
-0.580074
-0.604984
-0.659065
-0.70864
-0.746599
-0.793712
-0.819943
-0.746549
-0.658
-0.653753
-0.648661
-0.649107
-0.654014
-0.646554
-0.651335
-0.681432
-0.717409
-0.684363
-0.716995
-0.713629
-0.709057
-0.704199
-0.697714
-0.684062
-0.673536
-0.695887
-0.712808
-0.650883
-0.775727
-0.773656
-0.769806
-0.764692
-0.758986
-0.7537
-0.753901
-0.771644
-0.800615
-0.707411
380.377
380.344
380.229
380.048
379.846
379.652
379.494
379.392
379.171
379.066
330.96
330.93
330.844
330.676
330.485
330.307
330.16
330.04
329.742
329.365
281.12
281.116
281.113
281.059
280.952
280.805
280.61
280.297
279.262
277.664
230.685
230.702
230.872
230.985
231.065
230.974
230.655
229.761
227.572
226.093
179.438
179.571
179.917
180.458
180.912
180.918
180.522
179.241
176.686
177.328
126.956
127.307
128.199
129.303
130.739
131.759
132.792
133.864
137.471
137.674
74.3466
73.2482
74.735
76.7619
80.2503
83.5161
86.1412
90.6243
95.37
99.1397
27.1223
24.2195
24.4947
26.356
30.2418
34.2762
37.8469
45.2005
53.7891
55.8369
2.98833
1.37683
1.15245
1.38513
2.45677
2.66658
2.08318
6.83644
19.0771
28.2441
-0.420549
-0.428159
-0.430549
-0.407897
-0.289144
-0.387485
-0.441153
0.188772
8.38767
13.1962
-0.479179
-0.482294
-0.468251
-0.474557
-0.444143
-0.428575
-0.421697
-0.396362
-0.337516
-0.166354
-0.483537
-0.495476
-0.531921
-0.60454
-0.595368
-0.603071
-0.608913
-0.500631
-0.417373
-0.322109
-0.520685
-0.586787
-0.700517
-0.769161
-0.718428
-0.710713
-0.699968
-0.648715
-0.558777
-0.434794
-0.523956
-0.602528
-0.757404
-0.889151
-0.845285
-0.84477
-0.862293
-0.831969
-0.722522
-0.600415
-0.525752
-0.532949
-0.597378
-0.771615
-0.863047
-0.896844
-0.94727
-0.914542
-0.812712
-0.710201
-0.56752
-0.564183
-0.561722
-0.642621
-0.745026
-0.826497
-0.893425
-0.891454
-0.810606
-0.725599
-0.619697
-0.62048
-0.612993
-0.626936
-0.674817
-0.722892
-0.763038
-0.761027
-0.742745
-0.689616
-0.671779
-0.672679
-0.670539
-0.670631
-0.677635
-0.685146
-0.686268
-0.685858
-0.696421
-0.675652
-0.726573
-0.725739
-0.723809
-0.72229
-0.720448
-0.717634
-0.710804
-0.716318
-0.724662
-0.706863
-0.782696
-0.781816
-0.779947
-0.777669
-0.775475
-0.773928
-0.774736
-0.784551
-0.804156
-0.800191
381.722
381.627
381.379
381.015
380.601
380.192
379.816
379.513
379.14
379.036
332.483
332.387
332.15
331.786
331.353
330.924
330.535
330.183
329.701
329.578
282.997
282.924
282.721
282.396
282
281.576
281.125
280.624
279.538
278.111
233.166
233.115
232.975
232.718
232.393
231.977
231.421
230.502
227.975
226.545
182.837
182.847
182.793
182.692
182.566
182.289
181.756
180.707
179.508
183.006
131.846
131.841
132.015
132.277
132.608
132.839
133.085
133.226
134.1
143.283
80.7811
79.6526
79.8112
80.1665
81.6131
83.2269
84.7062
85.9837
87.7772
94.7702
34.8206
31.596
30.6604
30.692
32.2116
33.8087
35.1028
37.4091
41.5606
48.7444
5.65284
2.45987
2.24905
2.59958
3.38408
3.28755
1.7287
2.69838
5.97395
10.9087
-0.462913
-0.4578
-0.418085
-0.365491
-0.293805
-0.307424
-0.486562
-0.474914
1.46072
3.78057
-0.494997
-0.492223
-0.477517
-0.44652
-0.404824
-0.414954
-0.466158
-0.451954
-0.441412
-0.353108
-0.502907
-0.501155
-0.51008
-0.519175
-0.518523
-0.550692
-0.601801
-0.56507
-0.50307
-0.424227
-0.533005
-0.562733
-0.62238
-0.639524
-0.648148
-0.659685
-0.6633
-0.626591
-0.567843
-0.504936
-0.555253
-0.597699
-0.682107
-0.744568
-0.781341
-0.792187
-0.798132
-0.758528
-0.682757
-0.603959
-0.572673
-0.592908
-0.645097
-0.752378
-0.831385
-0.872476
-0.885811
-0.827838
-0.723751
-0.661154
-0.603977
-0.614672
-0.6232
-0.678901
-0.749436
-0.804363
-0.824721
-0.802363
-0.715409
-0.667561
-0.642144
-0.649434
-0.650283
-0.659873
-0.689118
-0.716509
-0.72847
-0.714355
-0.690021
-0.666301
-0.687199
-0.689908
-0.691234
-0.692255
-0.696442
-0.699452
-0.694169
-0.689755
-0.692177
-0.685324
-0.737818
-0.73803
-0.738621
-0.738142
-0.737419
-0.735288
-0.73044
-0.731374
-0.733067
-0.7321
-0.791169
-0.791223
-0.791243
-0.790135
-0.788981
-0.787889
-0.788112
-0.793398
-0.798938
-0.79747
383.343
383.169
382.757
382.168
381.491
380.818
380.201
379.698
379.258
379.156
334.301
334.122
333.698
333.078
332.355
331.619
330.944
330.375
329.807
329.762
285.228
285.058
284.605
283.935
283.158
282.366
281.601
280.901
280.047
280.149
236.051
235.891
235.393
234.645
233.788
232.898
232.005
231.062
229.422
229.116
186.611
186.497
185.952
185.135
184.225
183.295
182.354
181.238
179.843
182.545
136.848
136.552
135.904
135.097
134.331
133.577
132.844
132.117
131.809
133.999
87.4748
86.0778
84.8167
83.5385
82.9934
82.8883
82.8592
82.8589
83.7618
86.3685
41.9867
38.3473
35.9242
33.8621
33.3307
33.2759
33.1756
32.7577
34.1196
37.2955
7.9117
4.75435
4.4169
3.94796
3.97571
4.04947
3.22503
1.60876
2.79173
6.59154
-0.460003
-0.452605
-0.415787
-0.372167
-0.345225
-0.324098
-0.423307
-0.614042
-0.587084
-0.279326
-0.485021
-0.476237
-0.453785
-0.42527
-0.416401
-0.432411
-0.482906
-0.520427
-0.523828
-0.493868
-0.497654
-0.492597
-0.482432
-0.47412
-0.484977
-0.508331
-0.548261
-0.563401
-0.57516
-0.583444
-0.523727
-0.539557
-0.563
-0.571861
-0.587208
-0.594242
-0.602316
-0.580128
-0.554582
-0.552148
-0.554115
-0.577802
-0.615139
-0.656629
-0.690825
-0.698885
-0.684702
-0.647
-0.603243
-0.577596
-0.586124
-0.606206
-0.631038
-0.678417
-0.73524
-0.750219
-0.733873
-0.691345
-0.638681
-0.609468
-0.618449
-0.636707
-0.641431
-0.666495
-0.710604
-0.735216
-0.728288
-0.697954
-0.656155
-0.634894
-0.654587
-0.66452
-0.670164
-0.67556
-0.688408
-0.6992
-0.69507
-0.681826
-0.670887
-0.659621
-0.69798
-0.701231
-0.706123
-0.707073
-0.709966
-0.710687
-0.702481
-0.699706
-0.701273
-0.695884
-0.746945
-0.748687
-0.751092
-0.750795
-0.750607
-0.748879
-0.745622
-0.746396
-0.748681
-0.749183
-0.799237
-0.801593
-0.802144
-0.801168
-0.800639
-0.799447
-0.799221
-0.802603
-0.8084
-0.816551
385.105
384.845
384.25
383.409
382.445
381.476
380.592
379.874
379.336
379.154
336.272
336.003
335.366
334.453
333.402
332.336
331.344
330.524
329.88
329.697
287.637
287.363
286.631
285.569
284.354
283.127
281.98
280.99
280.139
279.945
239.133
238.869
237.98
236.676
235.209
233.738
232.357
231.144
230.065
230.089
190.585
190.371
189.282
187.675
185.893
184.134
182.475
180.969
179.779
179.483
141.838
141.351
139.917
138.024
136.03
134.111
132.264
130.467
129.215
129.162
93.7093
92.0821
89.6798
87.0274
84.655
82.5845
80.6897
78.817
77.6082
77.5922
47.8445
44.3198
41.0147
37.262
34.5113
32.5741
30.6937
27.6446
25.3858
25.0512
9.7631
7.23751
6.88185
5.52117
4.44238
3.69214
2.70421
1.12583
0.784736
1.68942
-0.424453
-0.428061
-0.409544
-0.375414
-0.357603
-0.340319
-0.343794
-0.400652
-0.510901
-0.581536
-0.472366
-0.46182
-0.434918
-0.419063
-0.415363
-0.43154
-0.456219
-0.4662
-0.480366
-0.546702
-0.48184
-0.481618
-0.463573
-0.460784
-0.462408
-0.47411
-0.491751
-0.503852
-0.529836
-0.571186
-0.509881
-0.520502
-0.528508
-0.536698
-0.54411
-0.546459
-0.542581
-0.531065
-0.521126
-0.538348
-0.544346
-0.560421
-0.576207
-0.595734
-0.613235
-0.61496
-0.598741
-0.57854
-0.558806
-0.549635
-0.583545
-0.604428
-0.610133
-0.627407
-0.652915
-0.655923
-0.637703
-0.616949
-0.597409
-0.58167
-0.617182
-0.638803
-0.639216
-0.646729
-0.663917
-0.671165
-0.660387
-0.643681
-0.631348
-0.617732
-0.654094
-0.665334
-0.670908
-0.672994
-0.678612
-0.682784
-0.675772
-0.668922
-0.665564
-0.658006
-0.700895
-0.705466
-0.71149
-0.711705
-0.711635
-0.7128
-0.707389
-0.70581
-0.706436
-0.702839
-0.751596
-0.755265
-0.757717
-0.755825
-0.756149
-0.756081
-0.753644
-0.753692
-0.75536
-0.755278
-0.804648
-0.809091
-0.808417
-0.803493
-0.807137
-0.806549
-0.805494
-0.807207
-0.810538
-0.814797
386.852
386.509
385.727
384.631
383.38
382.12
380.97
380.04
379.377
379.105
338.232
337.875
337.021
335.805
334.417
333.017
331.725
330.647
329.888
329.576
290.046
289.682
288.659
287.184
285.516
283.844
282.297
280.976
280.015
279.632
242.246
241.931
240.621
238.711
236.597
234.504
232.565
230.938
229.635
229.214
194.664
194.431
192.738
190.264
187.552
184.905
182.421
180.252
178.646
178.047
146.982