/*--------------------------------*- C++ -*----------------------------------*\
| =========                 |                                                 |
| \\      /  F ield         | OpenFOAM: The Open Source CFD Toolbox           |
|  \\    /   O peration     | Version:  2312                                  |
|   \\  /    A nd           | Website:  www.openfoam.com                      |
|    \\/     M anipulation  |                                                 |
\*---------------------------------------------------------------------------*/
FoamFile
{
    version     2.0;
    format      ascii;
    arch        "LSB;label=32;scalar=64";
    class       volScalarField;
    location    "1.38";
    object      alpha.water;
}
// * * * * * * * * * * * * * * * * * * * * * * * * * * * * * * * * * * * * * //

dimensions      [0 0 0 0 0 0 0];

internalField   nonuniform List<scalar> 
8000
(
1
1
1
1
1
1
1
1
1
1
1
1
1
1
1
1
1
1
1
1
1
1
1
1
1
1
1
1
1
1
1
1
1
1
1
1
1
1
1
1
0.999999
0.999999
1
1
1
1
1
1
1
1
0.999976
0.999974
0.999989
0.999996
0.999998
0.999999
1
1
1
1
0.96483
0.967379
0.98134
0.991165
0.997363
0.999705
0.999943
0.999969
0.999985
0.999992
0.33128
0.337778
0.381878
0.439397
0.511711
0.578755
0.621109
0.637315
0.646103
0.657405
3.4815e-06
3.22566e-06
3.11891e-06
3.03328e-06
2.9865e-06
2.96812e-06
0.0049295
0.0132966
0.0170146
0.0222072
3.68362e-06
3.4815e-06
9.05027e-06
3.11971e-06
2.90444e-06
2.93643e-06
2.88972e-06
3.07166e-06
5.37995e-06
1.34897e-05
0.000114029
0.000172027
3.30487e-05
3.06718e-06
2.94319e-06
2.88972e-06
2.87691e-06
2.88972e-06
4.25495e-06
1.14082e-05
0.000314198
0.000474526
1.66706e-05
4.49382e-06
1.32856e-05
3.71279e-06
2.87691e-06
2.87691e-06
4.00632e-06
1.0847e-05
0.000301957
0.00047872
4.73627e-05
3.13685e-05
6.69295e-05
1.74473e-05
2.87691e-06
2.88056e-06
3.52605e-06
6.90125e-05
0.000162969
0.000480114
0.00010053
2.04816e-05
3.41485e-05
3.40586e-06
2.88056e-06
5.72291e-06
0.000109121
0.000178262
0.000162969
0.000493016
0.000175216
3.50343e-06
3.50112e-06
3.5199e-06
5.20367e-06
0.000110313
0.000181291
0.000179782
0.000162969
0.000521067
0.00044546
9.09485e-06
3.5199e-06
3.92308e-06
0.000102295
0.000176385
0.000178504
9.44405e-05
0.000515818
0.000521301
0.000521307
9.77475e-05
3.14665e-05
3.60224e-06
4.03519e-05
0.000140697
7.16519e-05
3.64555e-06
0.000522385
0.000521862
0.000406273
7.21969e-05
0.000116552
3.43081e-06
3.15163e-06
3.56223e-06
4.29569e-06
1.2218e-05
0.000522385
0.000522385
0.000228012
0.000114936
0.000121189
2.38685e-05
2.51e-06
4.10281e-06
2.48327e-05
4.1725e-05
0.000522385
0.000311382
0.000107521
0.000121691
0.000121762
0.000109974
2.12739e-06
2.44066e-06
1.8579e-05
4.09928e-05
1
1
1
1
1
1
1
1
1
1
1
0.999999
1
1
1
1
1
1
1
1
1
1
1
1
1
1
1
1
1
1
1
1
1
1
1
1
1
1
1
1
1
0.999999
1
1
1
1
1
1
1
1
0.999984
0.999981
0.999987
0.999992
0.999996
0.999998
0.999999
1
1
1
0.971356
0.974368
0.983401
0.991392
0.997378
0.999763
0.999939
0.999977
0.999993
0.999999
0.352477
0.356387
0.394274
0.44955
0.517824
0.586229
0.632813
0.664291
0.685232
0.705024
3.39471e-06
3.05738e-06
2.9571e-06
2.71569e-06
2.91085e-06
3.21443e-06
0.00699182
0.00982559
0.0107728
0.0136118
4.26757e-05
4.3745e-06
3.25775e-06
2.63764e-06
2.79556e-06
2.90444e-06
3.07166e-06
1.72061e-05
2.62881e-05
9.72854e-06
0.000281423
9.21808e-05
3.04708e-06
4.9776e-06
1.42863e-05
1.26341e-05
3.80117e-06
3.63539e-06
4.17935e-05
0.0001053
0.000308196
0.000195544
6.08639e-06
2.25973e-05
3.27568e-05
1.47409e-05
2.87691e-06
3.32689e-06
7.7301e-06
7.21034e-05
0.000245966
0.000131428
0.000114732
5.78988e-05
3.03003e-05
4.03618e-06
2.88056e-06
2.92094e-06
6.51114e-06
2.48838e-05
0.000219228
5.72401e-05
5.86904e-05
9.42514e-05
9.39268e-05
2.74366e-05
2.92096e-06
9.39454e-06
9.37742e-05
0.000110894
0.000237193
0.000220487
4.66184e-05
3.83211e-05
8.85264e-05
1.72816e-05
3.21304e-06
8.19594e-05
0.000186252
6.5908e-05
0.000222727
0.000424118
4.3828e-05
4.52953e-06
4.02865e-06
2.40629e-05
0.000117418
0.000172988
0.00013162
1.05285e-05
3.82644e-05
0.000511597
0.00012953
4.75034e-06
2.04191e-05
0.000141332
0.000152662
0.000148262
6.17836e-05
6.08216e-05
0.000206766
0.000475218
0.000119391
1.67523e-05
3.32489e-05
2.0938e-05
1.0154e-05
2.18449e-05
0.000135427
0.000170383
0.000522385
0.000482579
4.89762e-05
4.96018e-05
3.2188e-05
6.61944e-06
2.12739e-06
3.23052e-05
0.000154856
0.000165031
0.000522098
0.000379577
8.28032e-05
0.00012134
7.98377e-05
1.13341e-05
1.64884e-06
7.75869e-06
8.49601e-05
0.000137704
1
1
1
0.999996
0.999998
1
1
1
1
1
1
0.999985
0.999928
0.999952
0.999991
1
1
1
1
1
1
0.99992
0.999792
0.999949
1
1
1
1
1
1
1
0.999907
0.999961
1
1
1
1
1
1
1
1
0.999927
0.999992
1
1
1
1
1
1
1
0.999995
0.999949
0.999986
0.999996
0.999998
0.999999
1
1
1
1
0.986248
0.987495
0.993236
0.997627
0.999762
0.999942
0.999983
0.999998
1
1
0.413099
0.421919
0.462607
0.520397
0.588605
0.652954
0.705154
0.74732
0.772502
0.797167
3.1363e-06
2.83839e-06
2.59855e-06
2.52019e-06
2.8029e-06
0.00385394
0.0105715
0.012028
0.0142273
0.0233336
2.06626e-05
4.59616e-06
2.47885e-06
2.41765e-06
2.52019e-06
2.8029e-06
4.09591e-06
1.67757e-05
4.39111e-05
2.9051e-05
0.00020457
2.92254e-06
2.59855e-06
1.09814e-05
4.23583e-05
5.73269e-05
6.30279e-05
0.000108412
0.00011531
4.93656e-05
0.000255792
4.33917e-06
1.50537e-05
4.29817e-05
4.05464e-05
3.18858e-05
0.000147577
0.000170668
0.000176863
0.000138189
0.000191233
4.6359e-06
4.34965e-05
5.72693e-05
8.57755e-06
1.54636e-06
4.25116e-05
0.000166396
0.000183349
0.00013964
0.000184068
1.62824e-05
8.78307e-05
9.45896e-05
3.03988e-05
1.52154e-06
2.9795e-06
0.000104686
0.000186252
0.000185217
0.000226831
1.35826e-05
6.01201e-05
9.45721e-05
9.20784e-05
1.55275e-06
1.96932e-06
7.92002e-05
0.000187148
0.000187458
0.000186159
5.84695e-05
1.20037e-05
5.13705e-05
5.41045e-05
1.59939e-06
1.44252e-05
0.000122681
0.00018777
0.000188391
2.64622e-05
0.000108432
7.99963e-06
4.2252e-06
2.25976e-05
0.000140963
0.000154312
0.000155931
0.000187148
0.000187223
4.34284e-06
0.000118797
8.80768e-05
3.08181e-06
4.68086e-06
7.88935e-05
0.000120378
0.000163063
0.000185023
0.000185661
0.000360274
0.000179113
1.04655e-05
2.09098e-06
2.7823e-06
2.78565e-06
5.67847e-06
3.42312e-05
7.54411e-05
8.95148e-05
0.000520424
0.000209833
1.39749e-05
5.08979e-05
2.83396e-05
1.63042e-06
1.50225e-06
5.03588e-06
1.10444e-05
1.27426e-05
1
1
0.999995
0.999998
0.999999
1
1
1
1
1
1
0.999989
0.999822
0.999857
0.999982
1
1
1
1
1
1
0.999895
0.999782
0.999782
0.999957
1
1
1
1
1
1
0.999915
0.999783
0.999896
0.999997
1
1
1
1
1
1
0.999996
0.999903
0.999987
1
1
1
1
1
1
0.999998
0.999992
0.999903
0.999983
0.999999
1
1
1
1
1
0.995137
0.996384
0.998561
0.999863
0.999946
0.999982
0.999999
1
1
1
0.486293
0.501959
0.543368
0.606154
0.67657
0.737725
0.804638
0.852023
0.878342
0.899759
2.92255e-06
2.6827e-06
2.46513e-06
2.36345e-06
0.00434736
0.020216
0.0320173
0.045206
0.0692754
0.0961876
5.11213e-06
3.60379e-06
2.37175e-06
2.27501e-06
2.27872e-06
2.69465e-06
5.37797e-06
1.1611e-05
1.01349e-05
8.53011e-06
0.000141758
2.81578e-06
2.46513e-06
6.1406e-06
2.97522e-05
4.6573e-05
3.41677e-05
1.1743e-05
8.30255e-06
8.02166e-06
0.000230632
3.13977e-06
2.92807e-05
4.43932e-05
3.19938e-05
3.0506e-06
2.53701e-05
4.32738e-05
2.78037e-05
6.82173e-06
0.000135448
3.8956e-06
8.30713e-06
2.44571e-05
6.00111e-06
1.42537e-06
2.76012e-06
2.02401e-05
4.42404e-05
8.75623e-05
0.000133925
3.38922e-06
2.02919e-05
2.32816e-05
1.52154e-06
1.42313e-06
1.42407e-06
2.29855e-05
0.00012477
0.000187892
0.000172283
4.74344e-06
9.08893e-05
9.45721e-05
1.56483e-05
1.42298e-06
1.42396e-06
3.3318e-05
0.000173628
0.000188861
9.62778e-05
1.06634e-05
8.391e-05
9.21298e-05
3.26971e-05
1.42851e-06
1.45046e-06
2.99998e-05
0.000177055
0.000188626
9.98073e-06
7.59444e-06
1.31642e-05
2.57614e-05
2.68317e-05
1.98733e-05
4.60179e-05
8.48467e-05
0.000164791
0.000188391
3.8727e-06
1.60634e-05
3.3895e-05
2.09111e-06
6.39106e-06
4.96149e-05
5.93251e-05
3.58239e-05
1.5272e-06
7.25465e-05
0.00035948
4.37759e-05
1.8895e-06
1.87116e-06
2.45299e-06
1.13323e-05
1.14015e-05
2.89504e-06
2.04841e-06
2.64037e-06
0.000515422
5.68845e-05
1.6814e-06
1.70347e-06
1.58278e-06
1.48378e-06
1.42382e-06
1.4156e-06
7.62647e-06
3.76059e-05
1
1
1
1
1
1
1
1
1
1
1
0.999999
0.999914
0.999934
0.999992
1
1
1
1
1
1
0.99999
0.999807
0.999822
0.999975
1
1
1
1
1
1
0.999994
0.999884
0.999881
0.999979
1
1
1
1
1
1
0.999998
0.999972
0.999982
0.999993
1
1
1
1
0.999979
0.999998
0.999996
0.99997
0.999984
1
1
1
1
1
0.999996
0.999469
0.999758
0.99989
0.999941
0.999984
0.999999
1
1
1
1
0.572234
0.591666
0.63802
0.700912
0.76489
0.833438
0.890708
0.925858
0.948386
0.967031
2.85363e-06
2.65176e-06
2.34669e-06
0.00618095
0.0310181
0.058475
0.0956935
0.146866
0.192406
0.234579
4.16118e-06
2.75039e-06
2.27492e-06
2.19897e-06
1.93265e-06
1.74192e-06
2.47089e-06
8.79455e-06
5.69843e-05
0.000118498
0.00014929
3.15736e-06
3.32046e-06
2.62037e-06
1.79557e-06
1.43762e-06
1.47995e-06
2.78223e-06
2.05123e-06
3.44579e-06
0.000223911
4.19038e-06
2.05025e-05
2.72335e-05
1.43845e-06
1.42535e-06
1.42792e-06
1.43287e-06
1.45511e-06
1.9222e-06
0.000195009
3.38922e-06
2.24351e-05
2.85295e-05
8.83424e-06
1.42303e-06
1.42402e-06
1.42605e-06
1.43395e-06
1.46078e-06
0.000174236
3.06703e-06
5.12775e-06
1.2625e-05
1.07081e-05
1.42309e-06
1.42313e-06
1.4241e-06
1.42607e-06
8.94239e-06
0.000165634
3.38922e-06
1.80088e-05
2.56842e-05
6.39565e-06
1.42313e-06
1.42298e-06
1.42382e-06
8.65779e-06
0.000109674
8.005e-05
4.49105e-05
0.00010895
7.12623e-05
1.42849e-06
1.42313e-06
1.42399e-06
1.44981e-06
1.28242e-05
0.000186966
6.37968e-06
6.40218e-06
2.8406e-05
4.98986e-05
1.84244e-06
1.42846e-06
1.43189e-06
1.41981e-06
2.30755e-05
0.000184569
3.67529e-06
2.81239e-06
1.83928e-06
2.59805e-06
5.42299e-06
1.63918e-06
1.41981e-06
1.41472e-06
1.41981e-06
0.000108939
0.000428228
4.92412e-05
1.68138e-06
1.7035e-06
1.93383e-06
3.25532e-06
2.50993e-06
1.41327e-06
1.47325e-06
1.2701e-05
0.000508952
7.17746e-05
1.62534e-06
1.58283e-06
1.52692e-06
1.51597e-06
1.4156e-06
1.41472e-06
4.99856e-05
4.64371e-05
1
1
1
1
1
1
1
1
1
1
1
1
0.999999
0.999999
1
1
1
1
1
1
1
1
0.999989
0.999993
0.999998
1
1
1
1
1
1
1
0.999998
0.999986
0.999992
0.999999
1
1
0.999995
0.999992
1
1
1
0.999996
0.999995
0.999999
1
1
0.999987
0.999962
0.999999
0.999999
1
1
1
1
1
1
0.999996
0.999979
0.999919
0.99993
0.999965
0.999993
1
1
1
1
1
1
0.65122
0.670369
0.724705
0.786585
0.8479
0.900473
0.94939
0.97895
0.996692
1
0.0117772
0.00950004
0.0142105
0.0378545
0.079359
0.138189
0.219991
0.309236
0.381675
0.44881
2.93047e-06
2.43914e-06
2.32495e-06
2.2837e-06
2.02012e-06
9.25647e-06
7.86134e-05
0.000286889
0.00101686
0.00404169
0.000133376
1.26828e-05
3.22404e-06
2.26056e-06
1.57034e-06
1.73159e-06
2.34073e-06
7.51492e-06
2.84994e-05
4.23192e-05
0.000217612
1.26137e-05
1.13188e-05
3.70872e-06
1.46516e-06
1.43822e-06
1.47824e-06
1.50713e-06
1.48553e-06
1.3502e-06
0.000216618
4.56578e-06
1.80432e-05
2.02227e-05
1.46831e-06
1.42535e-06
1.42754e-06
1.43285e-06
1.43044e-06
1.43622e-06
0.000209496
2.82158e-06
1.16623e-05
2.55662e-05
1.78834e-05
1.42313e-06
1.42346e-06
1.42416e-06
1.42488e-06
1.43094e-06
0.000204941
7.30791e-05
2.95982e-06
1.15282e-05
1.26923e-05
1.42304e-06
1.42315e-06
1.42349e-06
1.42414e-06
1.42487e-06
0.000125932
0.00013131
0.000111623
8.81356e-06
1.4241e-06
1.42315e-06
1.42349e-06
1.42416e-06
1.42488e-06
2.35618e-05
8.30769e-06
1.05358e-05
3.3729e-05
3.53851e-05
1.43202e-06
1.41949e-06
1.42706e-06
1.42223e-06
6.19994e-06
0.000177332
6.16282e-05
1.55793e-05
1.79504e-06
1.04074e-05
2.99559e-06
1.41404e-06
1.41963e-06
1.41327e-06
6.02937e-05
0.000176357
0.000452485
0.000364883
1.62534e-06
1.60353e-06
3.28948e-06
1.45486e-06
1.41132e-06
1.41219e-06
1.41327e-06
0.000149856
0.000365747
0.000337483
1.5943e-06
1.54055e-06
1.79655e-06
7.02667e-06
3.4462e-06
1.41327e-06
1.44252e-06
9.28178e-05
1
1
1
1
1
1
1
1
1
1
1
1
1
1
1
1
1
0.999999
1
1
1
1
1
1
1
1
1
0.999998
1
1
1
1
1
1
1
1
1
0.999999
0.999994
1
1
1
1
1
1
1
1
1
0.999988
0.999963
0.999999
1
1
1
1
1
1
1
0.999996
0.999985
0.999956
0.999969
0.999994
1
1
1
1
1
1
1
0.708074
0.727491
0.791808
0.856037
0.909358
0.957509
0.991397
1
1
1
0.0454356
0.0417133
0.0514533
0.0900678
0.160926
0.258516
0.385766
0.522898
0.628735
0.695195
3.42237e-06
2.93046e-06
2.43904e-06
2.20947e-06
9.43076e-06
0.000133997
0.000860278
0.013766
0.0414847
0.064609
5.33016e-05
1.96092e-05
2.8254e-06
2.44323e-06
3.93086e-06
1.23527e-05
3.37848e-05
7.10545e-05
0.000104016
0.00012561
0.000182836
2.00101e-05
2.63864e-06
3.7866e-06
9.93769e-06
1.8469e-06
3.31722e-06
4.62352e-06
5.48215e-06
5.30345e-06
0.000146267
2.63864e-06
2.56516e-06
2.57641e-06
2.91613e-06
1.46811e-06
1.50936e-06
1.55514e-06
1.51432e-06
1.4579e-06
0.000111991
2.6808e-06
2.55423e-06
7.03276e-06
1.55636e-06
1.42859e-06
1.43076e-06
1.43294e-06
1.43097e-06
1.43711e-06
0.000192536
7.98746e-05
2.66761e-06
2.44532e-05
5.23414e-06
1.42313e-06
1.42348e-06
1.42416e-06
1.42487e-06
1.43407e-06
0.000124786
0.000130946
0.00011406
1.41272e-05
4.82898e-06
1.4195e-06
1.4306e-06
5.87054e-06
1.6719e-06
1.48705e-06
1.09894e-05
3.48953e-05
0.000112728
1.92821e-05
1.5378e-06
1.41405e-06
1.41884e-06
1.11703e-05
3.19242e-05
4.89059e-05
0.000139675
0.000301617
3.11466e-06
1.80082e-05
2.12179e-06
1.41265e-06
1.41132e-06
1.41219e-06
9.31598e-06
0.00016803
0.000455708
0.000457553
1.59684e-06
1.80167e-06
1.71529e-06
1.41132e-06
1.41122e-06
1.41132e-06
3.05721e-05
0.000179408
0.00011657
0.000455447
1.54055e-06
1.47781e-06
1.43631e-06
1.41974e-06
1.41132e-06
1.41219e-06
0.000105045
0.000167698
1
1
1
1
1
1
1
0.999999
1
1
1
1
1
1
1
1
1
0.999995
0.999996
1
1
1
1
1
1
1
0.999999
0.999995
0.999997
1
1
1
1
1
1
1
1
0.999997
0.999981
1
1
1
1
1
1
1
1
1
0.999988
0.999999
1
1
1
1
1
1
1
1
0.999999
1
0.999981
0.99999
1
1
1
1
1
1
1
1
0.752937
0.767515
0.835983
0.902119
0.960346
0.998125
1
1
1
1
0.0852681
0.084997
0.102776
0.166759
0.269448
0.405958
0.573806
0.719574
0.826971
0.880049
3.65313e-06
3.4223e-06
2.86171e-06
5.7542e-05
0.000155408
0.0013166
0.0215819
0.0786118
0.166472
0.222205
3.50898e-05
2.21617e-05
2.87467e-06
6.46705e-06
2.04228e-05
6.54691e-05
0.000135624
0.000280432
0.000553858
0.000739139
9.61907e-05
6.96816e-05
2.56516e-06
2.83904e-06
6.41578e-06
1.06432e-05
1.54423e-05
2.34088e-05
3.49279e-05
3.85536e-05
4.99805e-05
6.8877e-05
2.50293e-06
2.49084e-06
2.35219e-06
2.29974e-06
2.60543e-06
2.53996e-06
2.57242e-06
1.84376e-06
0.000129231
1.38047e-05
2.49373e-06
2.24556e-06
1.81285e-06
1.49296e-06
1.48113e-06
1.51948e-06
1.50791e-06
1.53633e-06
2.11881e-05
1.4992e-05
2.50293e-06
1.61068e-05
2.26972e-06
1.43108e-06
1.43071e-06
1.43303e-06
1.43403e-06
1.48673e-06
2.96532e-05
0.000120485
5.72435e-05
5.98634e-05
1.17324e-05
1.87151e-06
2.37119e-05
1.81059e-05
1.71404e-06
1.90687e-06
1.39674e-05
3.81342e-05
5.45257e-05
5.40177e-05
1.29086e-05
1.42017e-06
1.72362e-05
0.00012095
9.2477e-05
1.85053e-05
0.000214422
0.000317536
0.000120991
1.65982e-05
4.21944e-06
1.41326e-06
1.41183e-06
6.39273e-05
0.000201703
0.000114496
0.00045739
0.00045739
0.000117861
1.53226e-06
1.41568e-06
1.41184e-06
1.41122e-06
6.34465e-05
0.000199673
0.0001923
6.20869e-05
0.000457853
0.000166775
1.43835e-06
1.42189e-06
1.41275e-06
1.41184e-06
0.000111183
0.00019515
0.000112841
1
1
1
1
1
1
1
1
0.999997
1
1
1
1
1
1
1
1
0.999996
0.999992
1
1
1
1
1
1
1
1
0.999997
0.999992
0.999915
1
1
1
1
1
1
1
0.999999
0.999981
0.999859
1
1
1
1
1
1
1
1
0.999979
0.99989
1
1
1
1
1
1
1
1
0.999991
0.999942
0.999993
1
1
1
1
1
1
1
1
0.999995
0.788241
0.790261
0.861723
0.939013
0.992413
1
1
1
1
1
0.130785
0.139254
0.17375
0.263588
0.400379
0.574492
0.727957
0.858284
0.946344
0.977376
4.57321e-06
3.35248e-06
6.9625e-05
0.000224316
0.00109895
0.0211559
0.083395
0.211581
0.378673
0.451895
3.89474e-05
1.15472e-05
5.48811e-06
2.23529e-05
8.14037e-05
0.000211973
0.000418835
0.000932805
0.00256773
0.00652979
8.78109e-05
4.74256e-05
2.90128e-06
5.62332e-06
1.82865e-05
3.39702e-05
5.39253e-05
8.98178e-05
0.00014327
0.00015163
5.00744e-05
0.000100326
4.05491e-06
2.57013e-06
4.08654e-06
5.22927e-06
5.61704e-06
6.25567e-06
7.72273e-06
6.13839e-06
0.000165387
9.77068e-05
2.42117e-06
2.23398e-06
2.10104e-06
1.7705e-06
1.68578e-06
1.90824e-06
1.88069e-06
2.00297e-06
0.000215555
4.54508e-05
4.46483e-05
2.10118e-06
1.80175e-06
1.49545e-06
1.48181e-06
1.51901e-06
1.51241e-06
1.86605e-06
1.65135e-05
1.81623e-05
1.83906e-05
5.19627e-05
4.42392e-06
5.06649e-06
4.5151e-05
2.42267e-05
8.22897e-06
5.74212e-05
1.59591e-05
1.65135e-05
1.70835e-05
5.49206e-05
1.15488e-05
1.50591e-06
0.000104792
0.000197181
0.000161114
0.000174328
0.000342335
6.66296e-05
0.000140538
1.74834e-05
2.67448e-06
1.47006e-06
2.84207e-05
0.000201703
0.000201703
0.000201703
0.000229732
0.00045739
0.000406042
1.84806e-05
1.53209e-06
1.41551e-06
0.000100225
0.000199097
0.000201703
0.000128286
2.24034e-05
0.000310191
0.000386366
0.000273317
0.00011279
0.000140195
0.000190713
0.000195059
0.000142698
3.00621e-06
1
1
1
1
1
1
1
1
1
0.9956
1
1
1
1
1
1
1
1
1
0.995636
1
1
1
1
1
1
1
1
1
0.995637
1
1
1
1
1
1
1
1
1
0.995639
1
1
1
1
1
1
1
1
1
0.995642
1
1
1
1
1
1
1
1
1
0.998213
0.999997
1
1
1
1
1
1
1
1
1
0.822746
0.818838
0.887887
0.960397
1
1
1
1
1
1
0.177656
0.202486
0.260698
0.378552
0.539137
0.69418
0.828874
0.942866
0.997682
0.999998
5.37327e-06
4.51227e-06
0.000191273
0.0008387
0.0153311
0.0682905
0.185249
0.391064
0.567695
0.637715
1.34637e-05
9.20561e-06
1.52292e-05
7.00899e-05
0.000225218
0.000443266
0.000843923
0.00449591
0.0262405
0.0378073
3.06535e-05
1.19091e-05
5.6286e-06
1.80045e-05
4.65854e-05
7.31132e-05
0.000111924
0.000155032
0.000256075
0.00027848
5.11601e-05
6.64286e-05
3.21913e-06
4.62763e-06
8.87822e-06
9.74705e-06
9.83615e-06
1.09498e-05
1.53879e-05
1.9576e-05
9.8097e-05
0.000217309
2.58521e-06
2.45643e-06
2.68354e-06
2.41651e-06
2.33174e-06
2.59088e-06
3.21975e-06
9.41867e-06
0.000351536
0.000219538
2.84319e-05
2.21636e-06
2.08355e-06
1.7715e-06
1.90519e-06
1.91421e-06
1.90291e-06
9.03339e-06
0.000219988
3.99513e-05
3.39516e-05
1.26697e-05
1.9824e-06
7.20198e-06
5.19144e-05
1.55034e-05
3.80011e-05
0.000141581
0.000287537
1.58524e-05
1.69646e-05
1.79762e-05
2.14337e-06
5.93677e-06
0.000179638
0.00018845
0.000195721
0.000192423
0.000345556
1.27356e-05
1.80731e-05
2.5874e-06
1.68401e-06
1.5558e-06
0.000193718
0.000199529
0.000201703
0.000122407
0.000149374
0.00010931
0.000366988
0.000125657
3.15728e-06
4.53496e-05
0.000175135
0.000193995
9.50564e-05
3.00617e-06
3.22591e-06
6.81636e-05
0.000362363
0.000355118
0.000344521
0.000224572
2.31332e-05
1.35588e-05
2.75814e-06
2.89025e-06
1
1
1
1
1
1
1
1
1
0.995472
1
1
1
1
1
1
1
1
1
0.996183
1
1
1
1
1
1
1
0.999999
1
0.99804
1
1
1
1
1
1
1
0.999999
1
0.998362
1
1
1
1
0.999995
0.999997
1
1
1
0.998425
1
1
1
1
0.999997
0.999998
1
1
1
0.999293
0.999998
1
1
1
1
1
1
1
1
0.999994
0.85563
0.848401
0.900603
0.959285
0.995014
1
1
1
1
1
0.207226
0.250526
0.337133
0.473679
0.614427
0.743551
0.883148
0.974765
1
0.999999
5.3727e-06
4.25216e-05
0.000375504
0.00916467
0.050257
0.133931
0.298269
0.498235
0.649137
0.713889
5.50163e-06
5.65057e-06
5.30477e-05
0.000182969
0.000373964
0.000577233
0.00096033
0.0136929
0.0434621
0.0603733
5.85534e-06
6.32938e-06
1.1538e-05
4.21769e-05
7.08249e-05
8.38943e-05
0.000100892
0.000138583
0.000216476
0.000257341
2.22033e-05
6.95704e-06
5.29245e-06
9.34609e-06
1.19051e-05
1.19699e-05
1.12494e-05
1.21849e-05
2.15745e-05
3.21722e-05
4.66011e-06
5.91265e-05
3.79008e-06
2.82694e-06
2.76852e-06
3.20862e-06
3.39718e-06
4.19918e-06
1.18215e-05
2.33217e-05
0.000356717
0.000350055
1.62713e-05
2.19136e-06
1.94298e-06
2.44889e-06
2.80761e-06
2.63294e-06
3.81251e-06
0.000120379
0.000388938
0.000287301
4.74498e-05
1.94791e-06
1.81461e-06
4.26915e-06
4.17743e-05
3.86738e-05
7.82613e-05
0.000129111
0.000393984
4.52261e-05
2.46783e-05
1.81461e-06
1.77363e-06
3.61185e-05
0.000185222
0.000191282
0.000192306
0.000178424
0.00027186
6.73389e-06
1.97916e-06
1.77363e-06
1.76529e-06
4.22935e-05
0.000189545
0.000197354
0.000118308
1.94084e-05
6.25124e-05
1.07339e-05
6.87948e-05
0.000116245
3.6065e-05
0.000120699
0.000119994
2.53406e-05
2.75814e-06
2.89025e-06
9.16313e-06
1.19229e-05
0.00018801
0.000289566
0.000294871
9.2806e-05
2.76948e-06
2.75814e-06
2.75332e-06
2.75814e-06
1
1
1
1
1
1
1
1
1
1
1
1
1
1
1
1
1
0.999997
0.999992
1
1
1
1
1
1
1
1
0.999989
0.999988
1
1
1
1
1
0.999999
1
1
0.999992
0.99999
1
1
1
1
0.999999
0.999995
0.999996
1
0.999999
0.999999
1
1
1
1
1
0.999997
0.999998
1
1
1
1
0.999998
1
1
1
1
1
1
1
1
1
0.856854
0.845804
0.88099
0.939961
0.982713
1
1
1
1
1
0.20377
0.260446
0.362113
0.481069
0.602317
0.724754
0.852367
0.952457
1
1
9.38352e-06
3.4896e-05
0.00207088
0.0223006
0.0571111
0.118427
0.241561
0.42006
0.573526
0.657427
5.65068e-06
9.52811e-06
6.0485e-05
0.000123843
0.000168175
0.000256184
0.000461904
0.00438497
0.0239205
0.038344
5.50584e-06
6.2622e-06
1.95699e-05
2.49826e-05
2.45348e-05
2.93831e-05
4.72714e-05
0.000126901
0.000224916
0.000140477
4.80661e-06
5.18268e-06
6.04373e-06
7.44232e-06
8.3728e-06
8.03302e-06
1.39823e-05
8.14552e-05
0.000154744
4.44776e-05
4.48236e-06
4.04075e-06
3.16847e-06
2.50612e-06
2.47769e-06
3.0938e-06
4.65411e-06
8.39523e-05
0.00018133
4.47101e-05
8.37508e-05
0.000158568
2.50658e-06
2.0658e-06
1.89871e-06
2.63348e-06
3.45154e-06
4.46908e-06
9.89346e-05
0.000233237
0.000393666
0.00038624
5.61203e-05
1.89874e-06
1.78535e-06
3.86311e-06
3.04817e-05
5.55195e-05
4.56694e-05
4.86269e-05
0.000393216
0.00031611
3.96709e-05
1.78535e-06
1.7649e-06
0.000109358
0.000152547
0.000185222
0.000187047
0.000181358
0.000196046
2.17245e-05
1.88393e-06
1.76839e-06
1.76839e-06
0.00014821
0.000191412
0.000189544
0.00014902
0.000152317
5.54473e-05
1.19532e-05
5.24513e-06
4.37212e-05
0.000131979
0.000143382
9.1384e-05
3.67975e-05
2.80038e-06
6.54261e-06
1.1126e-05
1.39477e-05
1.29579e-05
0.00010745
8.59258e-05
1.36332e-05
2.88055e-06
2.76466e-06
2.69581e-06
8.53744e-06
1
1
1
1
1
1
1
1
1
1
1
1
1
1
1
1
1
0.999994
0.999992
0.999999
1
1
1
1
1
1
1
0.99999
0.999988
0.999997
1
1
1
1
1
1
1
0.999997
0.999996
0.999998
1
1
1
1
0.999999
1
1
1
1
1
1
1
1
1
1
1
1
1
1
1
0.99999
0.999995
1
1
1
1
1
1
1
1
0.823001
0.824792
0.857571
0.917749
0.971664
1
1
1
1
1
0.158581
0.188761
0.252478
0.335869
0.455371
0.598028
0.742353
0.862882
0.946935
0.988182
7.26268e-06
1.7502e-05
0.00016812
0.000445707
0.00844287
0.036166
0.101938
0.219176
0.367188
0.450509
4.71024e-05
0.000140083
9.19282e-06
4.34253e-05
4.66521e-05
8.02584e-05
0.000137454
0.000295991
0.000835807
0.00390734
1.39356e-05
2.72902e-05
2.04314e-05
2.91382e-05
1.33981e-05
1.27475e-05
2.60909e-05
6.54996e-05
0.000128537
7.69811e-05
4.48236e-06
4.54753e-06
1.16988e-05
5.34037e-06
4.76356e-06
5.34493e-06
1.72692e-05
7.70176e-05
0.000124681
4.26874e-05
4.37912e-06
3.82482e-06
3.38104e-06
2.61646e-06
3.02006e-06
3.44027e-06
5.45218e-06
0.000140815
0.000250798
0.000172501
3.82482e-06
2.98615e-06
2.61649e-06
2.28634e-06
2.94022e-06
3.02033e-06
3.8839e-06
8.48388e-06
0.000228382
0.000233369
0.000159083
0.000341529
2.99639e-06
2.0658e-06
5.40608e-06
7.24092e-05
0.00011233
1.43562e-05
1.59459e-05
0.000131181
0.00018687
0.000337712
0.000107622
2.11929e-06
1.78535e-06
0.000187504
0.000193496
0.00012607
4.10575e-05
4.43722e-05
6.44217e-05
0.000208093
0.000154246
1.88393e-06
3.55412e-06
0.00019307
0.000193414
0.000181661
8.05094e-05
4.78589e-05
6.14578e-05
1.48817e-05
2.58735e-05
5.8813e-05
0.000182088
0.000199608
8.40018e-05
1.66811e-05
9.39035e-05
0.000119182
5.33378e-05
1.2227e-05
1.2953e-05
0.000151683
0.000175294
3.22794e-05
2.87652e-06
3.09181e-06
5.86519e-06
4.24349e-05
1
1
1
1
1
1
1
1
1
1
1
1
1
1
1
1
1
1
1
1
1
1
1
1
1
1
1
1
1
0.999999
1
1
1
1
1
1
1
0.999999
0.999998
0.999999
1
1
1
1
1
1
1
1
1
1
0.999999
1
1
1
1
1
1
1
0.999999
1
0.999968
0.999981
0.999999
1
1
1
1
1
1
1
0.783404
0.799042
0.847573
0.885543
0.939395
0.984448
1
1
1
1
0.0969646
0.10095
0.117378
0.165227
0.252117
0.374613
0.536029
0.69569
0.812731
0.878144
4.01406e-06
3.56839e-06
3.57326e-06
3.5722e-06
5.77664e-06
0.000916315
0.0208967
0.0716148
0.151779
0.20948
4.33563e-05
5.3519e-05
4.51579e-06
3.73462e-06
5.98272e-06
3.21104e-05
6.24258e-05
0.000118301
6.55182e-05
6.18193e-05
8.34598e-06
2.77596e-05
6.07378e-05
5.95345e-05
6.61261e-06
1.25817e-05
5.51567e-05
0.000115125
4.91393e-05
4.43291e-05
4.33889e-06
2.55524e-05
6.00671e-05
2.74181e-05
4.29274e-06
6.14306e-06
6.56042e-05
0.000177798
0.00013324
3.79914e-05
4.10846e-06
7.42356e-06
1.92955e-05
3.64075e-06
3.59011e-06
3.81675e-06
3.63168e-05
0.000235467
0.000250757
0.000221719
3.95539e-06
3.78021e-06
2.98617e-06
2.61648e-06
3.89115e-06
3.44033e-06
3.93103e-06
2.0509e-05
0.000250757
0.000210521
4.72432e-06
0.000125588
2.65861e-06
2.28635e-06
9.38995e-06
8.40595e-05
7.47884e-05
1.13016e-05
0.000154181
0.000206832
6.30647e-06
0.000330273
0.000197808
2.66395e-06
2.12249e-06
0.000194693
0.000193414
1.80153e-05
6.13921e-05
0.000199414
5.65745e-06
0.000234467
0.000220889
1.45399e-05
0.000105975
0.000199608
0.000195072
7.95461e-05
1.72332e-05
0.00013962
2.90083e-05
1.39266e-05
6.07623e-05
0.000179002
0.000199608
0.000208405
0.000187104
5.56621e-05
5.36127e-06
4.14043e-05
5.34171e-05
1.11047e-05
1.17658e-05
0.000183838
0.000190577
0.000194996
7.59759e-05
9.00965e-06
3.0016e-06
4.83753e-06
1
1
1
1
1
1
1
1
1
1
1
1
1
1
1
1
1
1
1
1
1
1
0.999997
0.999997
1
1
1
1
1
1
1
1
1
1
1
1
1
0.999997
0.999992
1
1
1
1
1
1
1
1
1
0.999926
0.999874
0.999999
1
1
1
1
1
1
1
0.999972
0.999892
0.99994
0.999963
0.999987
0.999997
1
1
1
1
1
0.999999
0.719445
0.733834
0.785302
0.830309
0.86861
0.923036
0.974118
1
1
1
0.0389561
0.0341541
0.0376739
0.0577195
0.103491
0.177201
0.285516
0.437984
0.589725
0.677992
3.64561e-06
3.57326e-06
3.56856e-06
3.5722e-06
3.57312e-06
5.20121e-06
0.000164388
0.00826239
0.034725
0.0597228
5.36617e-06
3.58455e-06
3.57326e-06
3.5732e-06
3.73562e-06
5.97716e-06
3.47025e-05
5.97935e-05
4.43791e-05
4.03409e-05
4.11144e-06
6.65183e-06
4.51193e-05
6.05851e-05
3.52713e-05
2.53283e-05
2.96895e-05
4.71504e-05
4.62325e-05
5.03272e-05
4.02568e-06
1.79848e-05
5.93229e-05
5.99478e-05
2.28593e-05
2.12507e-05
0.000128923
0.000246171
0.000152626
4.67277e-05
3.90393e-06
6.75015e-06
2.99454e-05
2.46575e-05
4.43702e-06
1.20069e-05
9.41126e-05
0.000250285
0.000250757
0.000156443
3.83117e-06
3.62928e-06
3.28966e-06
2.96067e-06
3.4953e-06
3.90824e-06
1.0177e-05
0.000170102
0.000250101
5.03191e-06
3.74618e-06
3.28966e-06
3.0028e-06
2.65861e-06
4.46682e-06
1.48174e-05
1.25137e-05
0.000103603
0.000245183
1.65368e-05
4.75461e-06
0.000106849
9.82008e-05
5.83521e-06
2.78821e-06
0.00012633
5.54187e-05
5.3333e-05
0.00023383
0.000156456
5.56745e-06
4.94046e-05
0.000204963
5.10653e-05
7.03673e-05
0.000203843
0.000184402
5.96018e-05
0.000220818
0.000227454
2.5146e-05
2.16821e-05
5.5113e-05
0.000102296
0.000204236
0.000215692
0.000224451
8.1899e-05
0.000122192
0.000227118
5.0872e-05
0.000133937
3.42391e-05
7.97082e-05
0.000199602
0.00020841
0.000215706
6.93325e-05
1.81237e-05
6.53968e-05
1
1
1
1
1
1
1
1
1
1
1
1
0.999978
0.999981
0.999996
1
1
1
1
1
1
0.999996
0.999953
0.999951
0.999987
1
1
0.999999
1
1
1
0.999998
0.999983
0.999983
0.999995
1
1
0.999997
0.999994
0.999996
1
0.999999
1
1
1
1
1
1
0.999839
0.999722
0.999999
0.999999
1
1
1
1
1
1
0.999957
0.999723
0.999925
0.999943
0.99996
0.99997
0.999988
0.999999
1
1
1
0.999999
0.619627
0.61816
0.665138
0.710361
0.767027
0.821966
0.88593
0.952572
0.99098
0.999997
3.66409e-06
3.61157e-06
3.59309e-06
0.00139657
0.0210828
0.056353
0.115611
0.203767
0.314457
0.4057
3.61157e-06
3.59309e-06
3.57326e-06
3.57158e-06
3.62265e-06
3.68147e-06
4.25048e-06
0.00012747
0.000934496
0.00263038
3.66409e-06
3.60303e-06
3.58455e-06
3.60459e-06
3.66282e-06
6.36152e-05
0.000126562
4.11374e-05
2.38942e-05
1.46121e-05
3.90931e-06
3.71937e-06
8.51873e-06
9.96497e-06
2.25871e-05
0.000125598
0.00014795
3.40061e-05
1.07583e-05
9.73887e-06
3.90393e-06
3.95293e-06
7.49986e-06
5.46767e-06
8.96995e-05
0.000148004
0.00010928
8.73864e-05
0.000177009
5.03657e-05
3.83117e-06
3.78672e-06
5.00906e-06
4.39969e-06
2.32738e-05
0.000103367
0.00014629
0.000160498
0.000239259
5.04277e-05
3.78672e-06
3.58195e-06
3.24118e-06
3.17769e-06
3.23059e-06
7.3911e-06
0.000132341
0.000239181
0.000115275
4.59525e-06
1.11146e-05
3.24118e-06
3.09898e-06
2.99546e-06
3.0932e-06
3.19753e-06
7.29225e-05
0.000239181
0.000238003
4.83315e-06
5.93827e-05
4.72229e-06
3.92685e-06
3.28048e-06
3.19753e-06
5.27366e-06
7.04008e-05
0.000239181
0.000233045
5.25179e-06
0.000127029
2.83325e-05
2.00237e-05
1.80761e-05
6.07624e-06
2.58931e-05
0.000224074
0.000237494
0.000235472
0.000214935
0.000169448
0.000171831
6.63444e-05
1.22649e-05
3.18059e-05
8.71995e-05
0.000233448
0.000235472
0.000235075
0.00023499
0.00011369
0.000178174
0.00013656
8.27605e-06
2.78983e-05
0.00012573
0.00015651
0.000116217
0.00014352
0.00014795
1
1
0.999998
0.999998
1
1
1
1
1
1
1
1
0.999954
0.999946
0.999984
1
1
1
1
1
1
0.999991
0.999945
0.999945
0.99996
0.999999
1
1
1
0.999996
1
0.999995
0.999965
0.999959
0.999991
1
1
0.999999
0.999991
1
1
0.999999
1
1
1
1
1
1
0.999975
0.999827
0.999999
0.999997
0.999997
0.999998
0.999999
1
1
1
0.999995
0.999773
0.995642
0.994704
0.997506
0.998893
0.999941
0.999979
0.999998
1
0.999999
0.999999
0.482654
0.475486
0.513302
0.546333
0.609186
0.692353
0.770624
0.851383
0.909614
0.937999
4.2377e-06
3.88121e-06
3.89345e-06
3.73008e-06
3.70917e-06
0.00155643
0.0286289
0.06725
0.129142
0.183816
3.66409e-06
3.61157e-06
3.59309e-06
4.3375e-06
3.68147e-06
3.7279e-06
3.77214e-06
4.29472e-06
6.63709e-06
1.46414e-05
1.0714e-05
3.69425e-06
3.61488e-06
1.15604e-05
3.72577e-06
4.40278e-05
0.000276713
0.000278094
2.2513e-05
5.84048e-06
7.1179e-05
2.78984e-05
3.7061e-06
8.64699e-06
2.34644e-05
5.63246e-05
0.000196458
9.26688e-05
9.73887e-06
7.16125e-06
0.000165248
3.87576e-05
4.4198e-06
5.06687e-06
6.96624e-05
0.000150389
0.000102694
8.83278e-05
0.000176489
4.52734e-05
0.000200608
0.000129505
2.21636e-05
4.25675e-06
1.97849e-05
0.000152815
0.000183701
0.0001378
4.61515e-05
8.13626e-06
0.000223238
0.000152479
1.73629e-05
3.26944e-06
3.37315e-06
6.05162e-05
0.000215843
0.000200941
4.85949e-06
5.15235e-06
0.000238266
0.000173369
1.62431e-05
3.09898e-06
3.19753e-06
2.53351e-05
0.0001992
0.000235517
0.000120167