/*--------------------------------*- C++ -*----------------------------------*\
| =========                 |                                                 |
| \\      /  F ield         | OpenFOAM: The Open Source CFD Toolbox           |
|  \\    /   O peration     | Version:  2312                                  |
|   \\  /    A nd           | Website:  www.openfoam.com                      |
|    \\/     M anipulation  |                                                 |
\*---------------------------------------------------------------------------*/
FoamFile
{
    version     2.0;
    format      ascii;
    arch        "LSB;label=32;scalar=64";
    class       volScalarField;
    location    "1.16";
    object      p;
}
// * * * * * * * * * * * * * * * * * * * * * * * * * * * * * * * * * * * * * //

dimensions      [1 -1 -2 0 0 0 0];

internalField   nonuniform List<scalar> 
8000
(
363.793
363.156
362.086
360.668
359.033
357.306
355.576
354.23
353.416
352.844
314.771
314.111
312.977
311.457
309.698
307.861
305.752
304.484
303.718
303.047
265.823
265.087
263.815
262.068
260.005
257.781
255.545
254.269
253.524
252.853
216.862
216.09
214.627
212.555
210.115
207.481
204.819
203.039
202.409
201.858
167.878
167.149
165.447
162.915
159.94
156.973
154.163
152.024
150.946
150.193
118.814
118.262
116.263
112.95
109.199
106.017
103.326
101.066
99.5676
98.5403
70.112
69.8299
67.5181
63.5003
58.9949
54.6827
51.4825
49.674
48.2535
47.1834
26.2952
26.3995
24.2722
20.4145
16.5646
14.0736
13.2258
13.1314
12.799
11.8654
2.72074
2.7535
2.09155
1.18717
0.541777
0.198444
0.0939776
0.0646368
0.050954
0.0513981
-0.316175
-0.318679
-0.312947
-0.306244
-0.298549
-0.32179
-0.343263
-0.334729
-0.315866
-0.302332
-0.407615
-0.411544
-0.406606
-0.397181
-0.38645
-0.389678
-0.401842
-0.386942
-0.367801
-0.359953
-0.477368
-0.486694
-0.491053
-0.487379
-0.479956
-0.462796
-0.468335
-0.459268
-0.442816
-0.430665
-0.527697
-0.534129
-0.550403
-0.556157
-0.546565
-0.537047
-0.539183
-0.530355
-0.509294
-0.493851
-0.589722
-0.593106
-0.608569
-0.619664
-0.601687
-0.61142
-0.615672
-0.601665
-0.566987
-0.549889
-0.656771
-0.658474
-0.668911
-0.672743
-0.66045
-0.683234
-0.692579
-0.660602
-0.619726
-0.602403
-0.722872
-0.722022
-0.724878
-0.723989
-0.725851
-0.745044
-0.746062
-0.702728
-0.667632
-0.654227
-0.784966
-0.778536
-0.773962
-0.771871
-0.778613
-0.784569
-0.770548
-0.739267
-0.714573
-0.710692
-0.839554
-0.82778
-0.814873
-0.81105
-0.81353
-0.814291
-0.801275
-0.78199
-0.771029
-0.770374
-0.8949
-0.873645
-0.856671
-0.847409
-0.847772
-0.846725
-0.845542
-0.842179
-0.834117
-0.827639
-0.940141
-0.922314
-0.902876
-0.892235
-0.892436
-0.896736
-0.899117
-0.896956
-0.892237
-0.886245
364.217
363.571
362.482
361.016
359.336
357.546
355.802
354.522
353.615
353.052
315.193
314.547
313.389
311.817
309.982
307.965
306.004
304.629
303.704
303.264
266.352
265.598
264.266
262.44
260.266
257.705
255.11
254.045
253.263
252.868
217.401
216.627
215.116
212.945
210.254
207.209
203.707
202.673
201.787
201.081
168.385
167.672
165.965
163.365
160.163
156.721
153.559
151.52
149.972
148.5
119.477
118.787
116.729
113.4
109.471
105.604
102.75
100.31
98.6363
97.0931
70.7651
70.4109
67.9845
63.6776
58.5203
53.4086
49.3375
46.2118
43.5693
42.4527
26.7485
27.0443
24.6321
20.5791
16.4044
12.8759
10.3942
9.22629
8.4596
8.03748
2.95513
3.03764
2.32981
1.3372
0.610913
0.111046
-0.119926
-0.167242
-0.150068
-0.1304
-0.345958
-0.336448
-0.322285
-0.312514
-0.305033
-0.316372
-0.328752
-0.320341
-0.297373
-0.276851
-0.464568
-0.453789
-0.43645
-0.413029
-0.396371
-0.391741
-0.402869
-0.394603
-0.379127
-0.364783
-0.509093
-0.517652
-0.52386
-0.515932
-0.501456
-0.479152
-0.475964
-0.466629
-0.453701
-0.43639
-0.522368
-0.536439
-0.563987
-0.580724
-0.564528
-0.555358
-0.54714
-0.538113
-0.522612
-0.500883
-0.581196
-0.588846
-0.611912
-0.631161
-0.609926
-0.62074
-0.630264
-0.611779
-0.582427
-0.557679
-0.656103
-0.661051
-0.673855
-0.676616
-0.660736
-0.688793
-0.716436
-0.673892
-0.630277
-0.609513
-0.731099
-0.726969
-0.728145
-0.721554
-0.717199
-0.745382
-0.756509
-0.707348
-0.66714
-0.657467
-0.798397
-0.786256
-0.776304
-0.769077
-0.777018
-0.79531
-0.783599
-0.737336
-0.706504
-0.704851
-0.856729
-0.837234
-0.814435
-0.809374
-0.822566
-0.83311
-0.819578
-0.786827
-0.763749
-0.762326
-0.907648
-0.886231
-0.854977
-0.838357
-0.850317
-0.862229
-0.859596
-0.838916
-0.831374
-0.822033
-0.950377
-0.931688
-0.906464
-0.88501
-0.884442
-0.893977
-0.894985
-0.893355
-0.89127
-0.882547
365.076
364.387
363.254
361.744
360.03
358.287
356.71
355.315
354.068
353.534
316.163
315.424
314.234
312.559
310.7
308.709
306.792
305.407
304.003
303.543
267.346
266.552
265.209
263.259
260.994
258.322
255.84
254.755
253.168
253.086
218.63
217.772
216.158
213.911
211.115
208.015
204.597
203.498
201.697
201.386
170.001
169.124
167.235
164.48
161.035
157.331
153.995
151.751
149.19
148.608
121.631
120.786
118.396
114.829
110.482
106.085
102.603
99.6577
97.41
95.6149
73.3057
72.5085
69.7783
65.1678
59.3943
53.5115
48.4314
44.2882
41.0736
40.112
28.8709
28.7729
25.9914
21.184
16.0903
11.8168
8.70295
7.04546
5.97229
5.8857
3.72891
3.46881
2.31478
1.10175
0.299628
-0.0929806
-0.175061
-0.181743
-0.175654
-0.155977
-0.328524
-0.319794
-0.317669
-0.334327
-0.346347
-0.343451
-0.338846
-0.328614
-0.306563
-0.282667
-0.455572
-0.445599
-0.441097
-0.442604
-0.432134
-0.41447
-0.414739
-0.405165
-0.386792
-0.373784
-0.509447
-0.514917
-0.522579
-0.523136
-0.504135
-0.479424
-0.475036
-0.469598
-0.455709
-0.440304
-0.529365
-0.548728
-0.574755
-0.581263
-0.555127
-0.542527
-0.544386
-0.537736
-0.522414
-0.503558
-0.581018
-0.589932
-0.616973
-0.623718
-0.594226
-0.617922
-0.646962
-0.614466
-0.589627
-0.564232
-0.653015
-0.653986
-0.667665
-0.664301
-0.652414
-0.694039
-0.712419
-0.67372
-0.634786
-0.613629
-0.730226
-0.722613
-0.72077
-0.71131
-0.704278
-0.740746
-0.731863
-0.685429
-0.654906
-0.652252
-0.801797
-0.785633
-0.773775
-0.763095
-0.771292
-0.791905
-0.764927
-0.709387
-0.687418
-0.695398
-0.86204
-0.837533
-0.817215
-0.810363
-0.834049
-0.847251
-0.820645
-0.774218
-0.752279
-0.750665
-0.91523
-0.88702
-0.86089
-0.844888
-0.861769
-0.881053
-0.871026
-0.84529
-0.829404
-0.817958
-0.961828
-0.935668
-0.910199
-0.893099
-0.895154
-0.912061
-0.917744
-0.907939
-0.893042
-0.880263
366.26
365.529
364.344
362.763
361.01
359.27
357.793
356.442
354.893
354.381
317.433
316.669
315.456
313.63
311.757
309.886
308.079
306.442
304.861
304.387
268.839
268.009
266.612
264.493
262.211
259.632
257.239
255.596
253.79
253.749
220.492
219.537
217.839
215.439
212.553
209.314
206.307
204.392
202.198
202.351
172.449
171.381
169.273
166.333
162.688
158.826
155.346
152.437
150.022
149.636
124.977
123.686
121.037
117.203
112.427
107.489
103.441
99.4817
96.5953
95.806
77.2683
76.0285
72.8898
67.9429
61.5557
54.7513
48.5889
43.3564
39.7535
39.9943
33.1307
32.1704
28.4493
22.6775
16.4644
11.5419
8.25596
6.2087
5.08114
5.22345
5.53925
4.72128
2.88908
1.00958
0.0845197
-0.170275
-0.205462
-0.202274
-0.198607
-0.182493
-0.337894
-0.31965
-0.301727
-0.325689
-0.363232
-0.357277
-0.35044
-0.341382
-0.325204
-0.301571
-0.453601
-0.444483
-0.44306
-0.456337
-0.460975
-0.443687
-0.430395
-0.408881
-0.393092
-0.386159
-0.526145
-0.527229
-0.532956
-0.534049
-0.508643
-0.48109
-0.488074
-0.474657
-0.453247
-0.4466
-0.568134
-0.58236
-0.59768
-0.585501
-0.541339
-0.534553
-0.55463
-0.546953
-0.524789
-0.506487
-0.616221
-0.626676
-0.639456
-0.623277
-0.593257
-0.601362
-0.620764
-0.614552
-0.593948
-0.56673
-0.673576
-0.673996
-0.678418
-0.666303
-0.654014
-0.665679
-0.666783
-0.644571
-0.626156
-0.611586
-0.738122
-0.727888
-0.721597
-0.711198
-0.70934
-0.726151
-0.718293
-0.682086
-0.652493
-0.647893
-0.803755
-0.778612
-0.766309
-0.759586
-0.774785
-0.79017
-0.775198
-0.741421
-0.708393
-0.695415
-0.865143
-0.831676
-0.809688
-0.808776
-0.836619
-0.849104
-0.831669
-0.80446
-0.775073
-0.757312
-0.920332
-0.888231
-0.858458
-0.848598
-0.871184
-0.891746
-0.886881
-0.868757
-0.842219
-0.816317
-0.971476
-0.943281
-0.91474
-0.893827
-0.908843
-0.937029
-0.946115
-0.934907
-0.908887
-0.878736
367.682
366.892
365.636
363.991
362.179
360.354
358.675
357.34
355.936
355.405
318.992
318.168
316.845
314.995
313.03
311.062
309.241
307.549
306.103
305.589
270.665
269.767
268.29
266.067
263.745
261.26
258.834
256.798
255.321
254.961
222.75
221.712
219.932
217.42
214.438
211.313
208.276
205.496
203.948
203.676
175.393
174.178
171.99
168.86
165.026
161.105
157.352
153.686
151.658
151.172
128.774
127.29
124.57
120.478
115.509
110.375
105.308
100.924
97.9118
97.5759
82.3476
80.6894
77.5255
72.2916
65.4922
58.1665
50.9908
45.4653
41.6559
40.7864
39.6307
36.9708
33.1142
26.8701
19.721
13.2987
9.56412
7.124
5.54505
5.71233
9.16794
7.58845
4.94543
2.19086
0.371735
-0.154775
-0.22388
-0.21442
-0.207831
-0.189463
-0.448132
-0.41143
-0.349762
-0.291099
-0.321352
-0.334719
-0.340202
-0.338755
-0.333708
-0.31141
-0.485644
-0.472677
-0.445829
-0.432573
-0.433925
-0.420089
-0.419989
-0.411362
-0.410457
-0.396959
-0.553906
-0.545829
-0.530428
-0.520282
-0.496108
-0.483974
-0.492514
-0.483565
-0.468822
-0.458238
-0.588669
-0.591004
-0.601406
-0.590542
-0.554411
-0.548126
-0.559645
-0.554001
-0.52876
-0.514304
-0.638137
-0.641232
-0.645379
-0.639442
-0.622539
-0.617818
-0.61827
-0.60318
-0.585271
-0.566377
-0.69092
-0.68718
-0.686926
-0.681037
-0.677106
-0.675903
-0.667146
-0.643084
-0.616627
-0.606441
-0.74721
-0.728831
-0.724988
-0.720127
-0.724791
-0.730475
-0.721127
-0.690854
-0.660632
-0.646643
-0.802795
-0.77458
-0.761986
-0.762035
-0.777691
-0.786957
-0.778251
-0.754399
-0.715965
-0.696986
-0.859347
-0.82853
-0.805623
-0.806476
-0.829283
-0.84443
-0.840569
-0.821412
-0.785541
-0.751955
-0.915928
-0.88883
-0.860109
-0.846486
-0.868678
-0.895806
-0.902206
-0.891127
-0.860364
-0.822557
-0.972668
-0.950333
-0.924383
-0.89773
-0.912941
-0.944718
-0.960955
-0.955105
-0.930162
-0.890229
369.227
368.378
367.035
365.337
363.452
361.531
359.697
358.272
357.034
356.471
320.698
319.827
318.345
316.506
314.446
312.363
310.425
308.778
307.408
306.816
272.65
271.687
270.137
267.924
265.488
262.987
260.565
258.451
257.071
256.467
225.224
224.125
222.291
219.711
216.571
213.533
210.462
207.564
206.07
205.386
178.558
177.277
175.076
171.876
167.761
163.817
160.002
156.316
153.953
153.135
132.827
131.272
128.668
124.469
119.357
113.867
108.555
104.121
100.421
99.8128
88.1418
86.0368
82.6961
77.6968
70.7192
63.1724
55.7664
50.036
45.3856
43.3815
45.7801
43.1477
39.4975
33.4657
25.639
17.7209
12.2979
9.18824
6.90955
6.69378
14.8645
12.4243
9.03627
5.12973
1.90694
0.0269987
-0.258894
-0.242443
-0.217207
-0.190386
-0.000884438
-0.177737
-0.369349
-0.325116
-0.297258
-0.320434
-0.340138
-0.34958
-0.34072
-0.317515
-0.484751
-0.482875
-0.445997
-0.409268
-0.403299
-0.409093
-0.420417
-0.425656
-0.432169
-0.404793
-0.565634
-0.553637
-0.521244
-0.490238
-0.479957
-0.480548
-0.490492
-0.49212
-0.494273
-0.466677
-0.592691
-0.583782
-0.577922
-0.571898
-0.560525
-0.55322
-0.551046
-0.545447
-0.53392
-0.519138
-0.647072
-0.632628
-0.630945
-0.632283
-0.631211
-0.619931
-0.606881
-0.586947
-0.569851
-0.563869
-0.701951
-0.682449
-0.679241
-0.681929
-0.689427
-0.689497
-0.662317
-0.634914
-0.608748
-0.601759
-0.752129
-0.727006
-0.718641
-0.724162
-0.738488
-0.748533
-0.733997
-0.6936
-0.659783
-0.644048
-0.803808
-0.774967
-0.758686
-0.765274
-0.785249
-0.799678
-0.794883
-0.76467
-0.727018
-0.696862
-0.855763
-0.830683
-0.808056
-0.807279
-0.829033
-0.848658
-0.850589
-0.832921
-0.806315
-0.768829
-0.910315
-0.893716
-0.87206
-0.857647
-0.872091
-0.894299
-0.904087
-0.893864
-0.874479
-0.838196
-0.968874
-0.956963
-0.938804
-0.924519
-0.928143
-0.944594
-0.954333
-0.944778
-0.927546
-0.901778
370.743
369.842
368.385
366.657
364.717
362.738
360.879
359.354
358.079
357.497
322.37
321.4
319.884
317.981
315.85
313.683
311.649
309.964
308.598
307.963
274.656
273.616
271.886
269.678
267.176
264.628
262.2
260.144
258.619
257.908
227.772
226.571
224.654
221.832
218.753
215.629
212.521
209.918
208.062
207.165
181.859
180.429
178.097
174.733
170.791
166.703
162.709
159.207
156.351
155.448
137.062
135.316
132.649
128.737
123.573
117.983
112.53
108.016
103.356
102.403
93.7508
91.5329
87.9357
83.0392
76.4451
69.1191
61.7827
56.0357
49.4327
46.8633
52.4656
49.9698
46.267
40.8667
33.1891
24.7622
16.7333
12.2117
8.97076
8.1558
22.0509
18.8328
14.5464
10.1551
5.57045
1.69105
-0.1565
-0.281892
-0.227011
-0.185434
2.37698
1.4909
0.365763
-0.330422
-0.336886
-0.322839
-0.327758
-0.349368
-0.346046
-0.320186
-0.503624
-0.486569
-0.461214
-0.424033
-0.407211
-0.410924
-0.415699
-0.426232
-0.440364
-0.407394
-0.551674
-0.547926
-0.539958
-0.506571
-0.481895
-0.471873
-0.475936
-0.490709
-0.505761
-0.468973
-0.600896
-0.580588
-0.570903
-0.570826
-0.571552
-0.552099
-0.534365
-0.535879
-0.538181
-0.517846
-0.661255
-0.630525
-0.622871
-0.630552
-0.648099
-0.63489
-0.591928
-0.577586
-0.567308
-0.560304
-0.71424
-0.686083
-0.672712
-0.682261
-0.703701
-0.706964
-0.657853
-0.629039
-0.609719
-0.599916
-0.763508
-0.734922
-0.719575
-0.726856
-0.749497
-0.766032
-0.727823
-0.692884
-0.66898
-0.649792
-0.811301
-0.788059
-0.772523
-0.774136
-0.792796
-0.805465
-0.797386
-0.763235
-0.745165
-0.714988
-0.858251
-0.84443
-0.834718
-0.830755
-0.839476
-0.849136
-0.847678
-0.830236
-0.814936
-0.785723
-0.909533
-0.902422
-0.898114
-0.89603
-0.895556
-0.898151
-0.898157
-0.886852
-0.871163
-0.850911
-0.967707
-0.962642
-0.958919
-0.958898
-0.956745
-0.95564
-0.951589
-0.938898
-0.922081
-0.905201
372.044
371.085
369.64
367.876
365.889
363.853
361.944
360.37
358.976
358.388
323.852
322.796
321.289
319.362
317.186
314.945
312.842
311.101
309.595
308.935
276.461
275.262
273.569
271.406
268.894
266.25
263.705
261.547
259.909
259.182
230.048
228.773
226.832
224.202
221.075
217.691
214.576
211.796
209.752
208.778
184.776
183.308
180.95
177.742
173.79
169.513
165.344
161.674
158.52
157.512
140.921
139.097
136.463
132.599
127.863
122.042
116.32
111.513
106.425
104.868
99.0941
96.9324
93.563
88.4455
81.5519
74.3604
66.8137
60.5072
53.7029
50.4293
59.59
56.9537
52.6636
47.2635
39.7057
31.1052
23.6358
16.5461
11.568
10.0459
30.0578
27.1711
21.4354
16.3814
10.815
5.15794
1.00933
-0.203834
-0.242734
-0.177539
7.48266
6.06787
3.38947
0.74238
-0.271447
-0.282309
-0.336017
-0.336283
-0.345494
-0.319855
-0.411581
-0.366732
-0.386786
-0.397536
-0.384571
-0.39555
-0.423071
-0.421317
-0.434478
-0.407625
-0.521472
-0.501422
-0.510741
-0.511783
-0.486766
-0.475239
-0.472544
-0.483875
-0.502363
-0.469985
-0.5991
-0.576256
-0.57143
-0.57323
-0.575887
-0.554198
-0.530512
-0.536348
-0.546107
-0.520214
-0.676684
-0.642779
-0.631465
-0.636588
-0.645811
-0.625637
-0.591226
-0.585282
-0.579699
-0.560507
-0.734541
-0.703742
-0.687935
-0.687933
-0.698801
-0.687741
-0.656557
-0.640981
-0.62352
-0.605021
-0.778851
-0.75471
-0.743359
-0.741622
-0.746631
-0.743691
-0.720225
-0.704003
-0.686045
-0.659573
-0.821002
-0.806388
-0.804511
-0.802025
-0.80099
-0.792864
-0.780119
-0.767159
-0.758389
-0.727124
-0.863613
-0.859566
-0.867949
-0.868879
-0.859471
-0.847239
-0.838244
-0.830631
-0.824411
-0.796818
-0.911033
-0.914595
-0.925504
-0.932433
-0.922317
-0.903899
-0.897162
-0.891214
-0.880699
-0.863217
-0.968581
-0.971554
-0.977182
-0.986394
-0.98127
-0.96441
-0.956038
-0.947252
-0.932809
-0.921231
373.033
372.04
370.561
368.763
366.734
364.655
362.7
361.051
359.711
359.088
324.955
323.876
322.312
320.359
318.128
315.832
313.684
311.852
310.426
309.724
277.822
276.59
274.857
272.61
270.007
267.319
264.744
262.537
260.914
260.114
231.884
230.53
228.551
225.775
222.525
219.128
215.936
213.138
210.974
209.992
187.234
185.652
183.14
179.864
175.87
171.534
167.305
163.468
160.155
159.125
144.215
142.312
139.564
135.556
130.613
124.831
119.216
114.087
108.794
107.026
103.664
101.437
98.3368
93.1092
85.687
78.3321
70.3722
64.0717
57.0126
53.2876
66.2398
62.9873
57.5503
51.5175
43.93
35.7307
28.3826
20.8863
14.2858
11.8565
37.0352
35.0692
30.382
22.015
15.8114
8.19203
2.96114
0.16078
-0.222737
-0.165715
14.0647
11.2665
9.73131
3.48202
0.111813
-0.246174
-0.346652
-0.33144
-0.337041
-0.314758
2.36389
1.31647
-0.241011
-0.348213
-0.33599
-0.385937
-0.429386
-0.418633
-0.430648
-0.404519
-0.530591
-0.512772
-0.493716
-0.485663
-0.468942
-0.47357
-0.477319
-0.480471
-0.497825
-0.471944
-0.649239
-0.602787
-0.577325
-0.563141
-0.552414
-0.542566
-0.53776
-0.541347
-0.555124
-0.527268
-0.699767
-0.662117
-0.64686
-0.639136
-0.626923
-0.610561
-0.602506
-0.598342
-0.593985
-0.566918
-0.750067
-0.71728
-0.704381
-0.6973
-0.689412
-0.673189
-0.666195
-0.656874
-0.632906
-0.61011
-0.789065
-0.768284
-0.762331
-0.759092
-0.749731
-0.735125
-0.729055
-0.721556
-0.693826
-0.665035
-0.826708
-0.820618
-0.826403
-0.82679
-0.816481
-0.800899
-0.79163
-0.785142
-0.768834
-0.734357
-0.86726
-0.875529
-0.889579
-0.895358
-0.888086
-0.868908
-0.854556
-0.845344
-0.835602
-0.807393
-0.914307
-0.929006
-0.945199
-0.95644
-0.955038
-0.932963
-0.915456
-0.903167
-0.892856
-0.876127
-0.971015
-0.978886
-0.990712
-1.00346
-1.00502
-0.988145
-0.96977
-0.956397
-0.94456
-0.936923
373.596
372.52
371.045
369.223
367.171
365.069
363.089
361.434
360.047
359.434
325.697
324.49
322.88
320.887
318.625
316.291
314.113
312.255
310.823
310.136
278.687
277.351
275.533
273.245
270.626
267.908
265.321
263.062
261.42
260.612
233.042
231.574
229.454
226.66
223.39
219.999
216.721
213.825
211.574
210.659
189.034
187.193
184.659
181.177
177.077
172.764
168.421
164.448
161.018
160.05
146.707
144.575
141.708
137.447
132.312
126.492
120.52
115.256
110.222
108.28
107.046
104.722
101.322
96.6663
89.843
81.3703
72.9457
65.793
58.8825
54.9323
71.2746
67.9719
61.4257
54.6588
47.6898
39.2306
30.6293
22.7969
15.6899
12.8327
42.493
40.7621
36.0614
26.9764
19.3805
9.96864
4.26707
0.965512
-0.196629
-0.145794
22.4464
19.9577
13.3889
6.38323
0.769557
-0.287358
-0.369427
-0.346716
-0.32451
-0.304889
10.6816
8.81687
1.44256
-0.295547
-0.347709
-0.401416
-0.432218
-0.431395
-0.427239
-0.400127
-0.496478
-0.484481
-0.504568
-0.469617
-0.480602
-0.491469
-0.486639
-0.487384
-0.494459
-0.47412
-0.664223
-0.616799
-0.597939
-0.560626
-0.549047
-0.551307
-0.543659
-0.548545
-0.557896
-0.534951
-0.706666
-0.667642
-0.652285
-0.639804
-0.620424
-0.614984
-0.60839
-0.607652
-0.604668
-0.57852
-0.755751
-0.719321
-0.706197
-0.699688
-0.688458
-0.67812
-0.675515
-0.666788
-0.641565
-0.613285
-0.790689
-0.769743
-0.762555
-0.761188
-0.755165
-0.746824
-0.744185
-0.733385
-0.699803
-0.668187
-0.825109
-0.824914
-0.827244
-0.829064
-0.826817
-0.820656
-0.81355
-0.799838
-0.777879
-0.740986
-0.867632
-0.882267
-0.889357
-0.896299
-0.900194
-0.894525
-0.879116
-0.858859
-0.84527
-0.820482
-0.919735
-0.936478
-0.944686
-0.95366
-0.960806
-0.95519
-0.932915
-0.911801
-0.901058
-0.889952
-0.973892
-0.984035
-0.992181
-1.00142
-1.0071
-0.997013
-0.976413
-0.962064
-0.953243
-0.947704
373.614
372.53
371.038
369.226
367.15
365.05
363.047
361.378
360.014
359.389
325.79
324.512
322.846
320.882
318.608
316.277
314.084
312.211
310.774
310.095
278.889
277.382
275.574
273.281
270.643
267.895
265.288
263.03
261.407
260.606
233.281
231.644
229.504
226.75
223.49
220.042
216.712
213.804
211.526
210.664
189.305
187.428
184.855
181.454
177.348
172.889
168.467
164.444
160.997
160.109
147.316
145.162
142.074
137.984
132.859
126.763
120.64
115.206
110.465
108.484
108.163
105.833
101.907
97.2217
90.4041
81.6089
73.2386
65.864
58.9434
55.1718
72.8834
69.6816
63.0035
56.1364
48.7855
40.1246
30.9183
22.729
15.4444
12.6346
44.6664
42.3277
37.0323
27.4105
19.6913
10.3225
4.60499
1.25794
-0.187608
-0.107404
25.2637
22.1576
13.7827
6.62886
0.949945
-0.300555
-0.382126
-0.359025
-0.316287
-0.294088
18.484
15.232
2.98481
-0.360115
-0.412828
-0.422723
-0.4406
-0.441228
-0.424452
-0.395879
0.488138
-0.440357
-0.50579
-0.489044
-0.507655
-0.51072
-0.500479
-0.498469
-0.489703
-0.473341
-0.697059
-0.633377
-0.607328
-0.568574
-0.561107
-0.557754
-0.553381
-0.558465
-0.558248
-0.53762
-0.734725
-0.670018
-0.6487
-0.632041
-0.621588
-0.618152
-0.614778
-0.615338
-0.609469
-0.582634
-0.765184
-0.716715
-0.697613
-0.689483
-0.682682
-0.680339
-0.682038
-0.674341
-0.649846
-0.618332
-0.791393
-0.765625
-0.754373
-0.751488
-0.750035
-0.752912
-0.758701
-0.746654
-0.708922
-0.671878
-0.821815
-0.824563
-0.819701
-0.82026
-0.82534
-0.835942
-0.836244
-0.820535
-0.791122
-0.747257
-0.867207
-0.887168
-0.882756
-0.887487
-0.901173
-0.911112
-0.899704
-0.873328
-0.8577
-0.830664
-0.926042
-0.9421
-0.940374
-0.950382
-0.966552
-0.964899
-0.940777
-0.914198
-0.910875
-0.899752
-0.980171
-0.993101
-0.996043
-1.00334
-1.01092
-0.997911
-0.969061
-0.962494
-0.964512
-0.959582
373.033
371.986
370.511
368.664
366.617
364.516
362.552
360.888
359.602
358.937
325.012
323.895
322.298
320.323
318.073
315.752
313.567
311.722
310.237
309.57
277.991
276.715
274.924
272.686
270.087
267.313
264.694
262.432
260.862
260.085
232.283
230.84
228.744
226.045
222.723
219.238
215.938
213.066
210.874
209.946
188.154
186.427
183.86
180.483
176.35
171.818
167.375
163.481
160.132
159.233
146.01
143.865
140.7
136.667
131.565
125.539
119.326
114.168
109.26
107.573
106.601
103.973
99.8352
94.4438
87.3183
79.7689
71.2675
64.2934
57.5438
54.3407
70.7022
67.531
60.9622
53.4055
46.0917
38.3568
29.8838
21.3831
13.9844
11.9454
41.6881
39.3873
33.8067
25.5511
18.0844
9.86535
4.12044
0.888901
-0.137693
-0.12064
20.792
17.7125
12.123
5.31846
0.771214
-0.334991
-0.393153
-0.352416
-0.310708
-0.289531
15.8904
10.3981
1.1945
-0.474768
-0.451521
-0.443196
-0.44916
-0.439406
-0.412635
-0.387951
-0.34662
-0.549241
-0.533815
-0.530413
-0.534023
-0.522575
-0.508569
-0.498167
-0.484656
-0.464793
-0.702557
-0.646475
-0.615298
-0.580448
-0.57069
-0.562954
-0.561488
-0.563151
-0.557204
-0.533885
-0.736886
-0.67846
-0.645906
-0.628626
-0.617952
-0.616941
-0.623555
-0.625732
-0.61713
-0.589333
-0.770113
-0.722357
-0.693555
-0.682684
-0.678121
-0.679029
-0.68651
-0.679408
-0.661014
-0.63359
-0.793454
-0.76858
-0.752098
-0.747241
-0.749459
-0.752797
-0.760989
-0.751867
-0.722271
-0.68908
-0.819881
-0.825309
-0.819831
-0.821419
-0.830602
-0.837208
-0.842191
-0.837099
-0.807826
-0.764233
-0.866466
-0.888904
-0.879628
-0.887045
-0.904081
-0.910777
-0.900297
-0.886953
-0.873096
-0.843679
-0.929683
-0.94707
-0.940754
-0.950449
-0.964392
-0.96084
-0.935634
-0.908625
-0.918496
-0.913485
-0.990164
-1.00381
-1.00339
-1.00665
-1.01351
-0.997636
-0.967573
-0.951939
-0.97011
-0.975459
371.821
370.903
369.462
367.642
365.617
363.556
361.616
359.963
358.7
358.118
323.789
322.716
321.221
319.199
316.969
314.704
312.581
310.751
309.386
308.723
276.567
275.341
273.541
271.36
268.782
266.117
263.554
261.281
259.709
258.976
230.534
229.16
227.147
224.46
221.146
217.74
214.484
211.611
209.571
208.612
185.93
184.22
181.727
178.339
174.304
169.852
165.412
161.653
158.58
157.561
143.044
140.914
137.867
134.093
128.819
122.862
116.582
111.727
107.147
105.632
102.735
100.027
95.9433
90.6164
83.8912
76.3278
68.092
61.2172
55.4731
52.6076
64.7728
61.9602
56.8548
50.5381
43.1191
34.2794
25.8981
18.5547
12.6409
10.9381
34.9952
32.5673
27.2403
20.1566
14.0658
7.19843
2.42778
0.290981
-0.187354
-0.144926
11.5224
10.6267
7.88127
2.80333
0.0547632
-0.400672
-0.361069
-0.340525
-0.316933
-0.28662
5.10212
1.5487
-0.453565
-0.50588
-0.464862
-0.465344
-0.450658
-0.429065
-0.396593
-0.381622
-0.653778
-0.60013
-0.562442
-0.559029
-0.547049
-0.527588
-0.507527
-0.488026
-0.47108
-0.458779
-0.6927
-0.654408
-0.617025
-0.588671
-0.573366
-0.566949
-0.561918
-0.553982
-0.551089
-0.531864
-0.724585
-0.681228
-0.646735
-0.626265
-0.617383
-0.620286
-0.62531
-0.62321
-0.616528
-0.598112
-0.767268
-0.72621
-0.692197
-0.676868
-0.672064
-0.675927
-0.681986
-0.675269
-0.669578
-0.654999
-0.795135
-0.77158
-0.751456
-0.743084
-0.741279
-0.742656
-0.74255
-0.736407
-0.726936
-0.716551
-0.819468
-0.82393
-0.819936
-0.821362
-0.822243
-0.818997
-0.814625
-0.809116
-0.804464
-0.787994
-0.864446
-0.886477
-0.88544
-0.891084
-0.895498
-0.889423
-0.880051
-0.875127
-0.874498
-0.861395
-0.93392
-0.953523
-0.950414
-0.951404
-0.954414
-0.945396
-0.928913
-0.918745
-0.917588
-0.919035
-1.00599
-1.01813
-1.01275
-1.00705
-1.00844
-0.991631
-0.970284
-0.963594
-0.970462
-0.977689
370.382
369.463
368.081
366.243
364.262
362.259
360.382
358.79
357.625
357.053
322.117
321.145
319.609
317.639
315.45
313.255
311.209
309.449
308.178
307.545
274.588
273.501
271.788
269.504
266.89
264.327
261.873
259.718
258.241
257.513
228.061
226.791
224.838
222.083
218.825
215.529
212.283
209.556
207.7
206.812
182.692
181.144
178.761
175.523
171.318
166.983
162.603
158.88
156.247
155.191
138.954
136.948
134.042
130.182
124.514
118.7
112.882
107.83
103.696
102.605
97.2605
94.5614
90.667
85.4094
78.5746
70.7547
62.6948
55.8407
50.9245
48.9173
56.7224
54.4644
50.421
44.6477
36.6418
27.1021
19.3939
13.9558
9.99702
8.81231
26.4825
24.0583
19.5995
14.2696
8.42941
3.30664
0.806316
-0.0916443
-0.203545
-0.15246
5.30142
4.68215
2.40675
0.267035
-0.39327
-0.372579
-0.342544
-0.351171
-0.32236
-0.285207
-0.514238
-0.572853
-0.55335
-0.49319
-0.480402
-0.468484
-0.442519
-0.418083
-0.391038
-0.371196
-0.61655
-0.599368
-0.588632
-0.568975
-0.547044
-0.523519
-0.499702
-0.483124
-0.464831
-0.446765
-0.67565
-0.644489
-0.616434
-0.598792
-0.583285
-0.570467
-0.561364
-0.55129
-0.548432
-0.525366
-0.713462
-0.677023
-0.646302
-0.630225
-0.62401
-0.621601
-0.624612
-0.618629
-0.610301
-0.594739
-0.759793
-0.724186
-0.691314
-0.673826
-0.667546
-0.673516
-0.681892
-0.676139
-0.667131
-0.661841
-0.794336
-0.771388
-0.747124
-0.729448
-0.722383
-0.729561
-0.743159
-0.739395
-0.727326
-0.724157
-0.817208
-0.818813
-0.815075
-0.80774
-0.798181
-0.795712
-0.81083
-0.812833
-0.80342
-0.795675
-0.859614
-0.881428
-0.889896
-0.888266
-0.878451
-0.86709
-0.874596
-0.881877
-0.876826
-0.866282
-0.936038
-0.960779
-0.962599
-0.956617
-0.947724
-0.931264
-0.925634
-0.937539
-0.927268
-0.923067
-1.01932
-1.036
-1.02268
-1.01
-1.00345
-0.984637
-0.975547
-0.982946
-0.976311
-0.97588
368.633
367.775
366.474
364.644
362.743
360.819
359.001
357.466
356.364
355.856
320.17
319.251
317.854
315.858
313.772
311.696
309.771
308.06
306.776
306.197
272.293
271.283
269.658
267.444
264.925
262.448
260.127
257.787
256.492
255.878
225.166
223.965
222.043
219.452
216.172
212.974
209.886
206.907
205.49
204.764
179.054
177.55
175.185
172.047
167.653
163.523
159.376
155.483
153.355
152.486
134.166
132.289
129.337
125.294
119.51
113.847
108.387
103.357
100.165
98.9192
90.6707
88.1337
84.1713
78.7781
71.8696
63.846
56.0077
49.5686
45.0426
43.3593
49.2026
46.3864
42.5971
36.5722
28.2328
19.6523
13.0931
9.27587
7.46452
6.64426
19.0252
16.6735
12.5843
7.74058
3.27297
0.831354
-0.104629
-0.258796
-0.164723
-0.137332
0.746644
0.487217
-0.203881
-0.443011
-0.413172
-0.35989
-0.36699
-0.359177
-0.303978
-0.269769
-0.645379
-0.560074
-0.508619
-0.499582
-0.490623
-0.464126
-0.430491
-0.412312
-0.375263
-0.355531
-0.635201
-0.618571
-0.59294
-0.568316
-0.545644
-0.5166
-0.492657
-0.480127
-0.460205
-0.428719
-0.6652
-0.64392
-0.624558
-0.611995
-0.600282
-0.579386
-0.557647
-0.546673
-0.539964
-0.509273
-0.706474
-0.673225
-0.647292
-0.635458
-0.634339
-0.631441
-0.625659
-0.612607
-0.603365
-0.582772
-0.74912
-0.721775
-0.693288
-0.674555
-0.67075
-0.681062
-0.693121
-0.685931
-0.66819
-0.65275
-0.789075
-0.774822
-0.747594
-0.7246
-0.713376
-0.730866
-0.759571
-0.755443
-0.732391
-0.718713
-0.814767
-0.818826
-0.809819
-0.792227
-0.777702
-0.785356
-0.820441
-0.823715
-0.800142
-0.790361
-0.851605
-0.875148
-0.88482
-0.875129
-0.857262
-0.850082
-0.874606
-0.888349
-0.866213
-0.860434
-0.929331
-0.961519
-0.966194
-0.95387
-0.93343
-0.915891
-0.928328
-0.948619
-0.92593
-0.919451
-1.02724
-1.04524
-1.02969
-1.00966
-0.99179
-0.974138
-0.979091
-0.994161
-0.984067
-0.97618
366.8
365.997
364.761
363.02
361.202
359.372
357.675
356.261
355.068
354.488
318.142
317.263
315.922
314.098
312.093
310.125
308.346
306.632
305.317
304.765
269.939
269.027
267.424
265.273
262.873
260.483
258.168
256.029
254.601
254.29
222.163
220.983
219.118
216.508
213.435
210.29
207.246
204.567
202.966
202.838
175.129
173.704
171.307
167.998
164.046
160.112
156.166
152.707
150.582
150.115
129.135
127.261
124.178
119.843
114.606
109.218
104.333
100.157
97.4493
96.3751
83.6591
81.323
77.3274
71.621
64.7684
57.0242
49.9931
44.859
41.6252
40.2808
41.1904
38.3414
34.303
27.9863
20.4591
13.3567
8.88813
6.98194
6.17093
5.52791
10.7456
9.20457
6.19966
2.89966
0.686775
-0.162059
-0.315208
-0.214281
-0.126502
-0.119196
-0.391665
-0.434028
-0.492206
-0.434118
-0.391186
-0.385877
-0.381843
-0.336825
-0.274388
-0.256457
-0.502494
-0.518995
-0.52005
-0.506945
-0.488493
-0.451905
-0.422441
-0.395177
-0.353393
-0.3458
-0.621509
-0.61865
-0.594019
-0.566344
-0.541126
-0.512054
-0.484942
-0.464377
-0.433302
-0.42031
-0.663769
-0.650283
-0.629688
-0.617704
-0.609918
-0.585996
-0.552088
-0.530615
-0.51452
-0.498485
-0.698536
-0.668016
-0.645889
-0.637513
-0.636662
-0.632786
-0.61843
-0.597897
-0.588898
-0.572131
-0.732092
-0.710701
-0.692876
-0.67891
-0.677297
-0.680875
-0.679878
-0.669262
-0.658827
-0.641702
-0.777847
-0.778227
-0.755994
-0.729633
-0.720481
-0.730434
-0.739059
-0.733631
-0.722835
-0.706749
-0.8118
-0.827537
-0.814797
-0.787127
-0.770713
-0.779028
-0.798198
-0.794841
-0.784733
-0.772699
-0.846468
-0.873666
-0.877384
-0.858952
-0.838057
-0.835854
-0.856821
-0.859805
-0.848385
-0.839631
-0.921688
-0.952016
-0.955002
-0.936622
-0.911196
-0.89866
-0.912498
-0.924665
-0.913473
-0.904946
-1.02448
-1.03936
-1.02449
-0.999475
-0.974724
-0.958424
-0.96258
-0.977481
-0.977067
-0.967744
365.062
364.307
363.121
361.501
359.756
358.037
356.502
355.091
353.887
353.316
316.231
315.417
314.128
312.402
310.515
308.68
306.956
305.275
303.994
303.381
267.655
266.751
265.276
263.152
260.899
258.522
256.253
254.415
253.054
252.761
219.318
218.218
216.397
213.891
210.885
207.602
204.943
202.789
201.179
201.095
171.321
169.995