/*--------------------------------*- C++ -*----------------------------------*\
| =========                 |                                                 |
| \\      /  F ield         | OpenFOAM: The Open Source CFD Toolbox           |
|  \\    /   O peration     | Version:  2312                                  |
|   \\  /    A nd           | Website:  www.openfoam.com                      |
|    \\/     M anipulation  |                                                 |
\*---------------------------------------------------------------------------*/
FoamFile
{
    version     2.0;
    format      ascii;
    arch        "LSB;label=32;scalar=64";
    class       volVectorField;
    location    "1.295";
    object      U;
}
// * * * * * * * * * * * * * * * * * * * * * * * * * * * * * * * * * * * * * //

dimensions      [0 1 -1 0 0 0 0];

internalField   nonuniform List<vector> 
8000
(
(0.000511803 -0.00138788 0.000458005)
(0.00186179 0.000888596 -0.00182253)
(0.00429928 0.00180105 -0.00384092)
(0.00729404 0.001031 -0.00277155)
(0.00870173 -8.78816e-06 -0.000565802)
(0.00820432 -0.000186366 0.000351731)
(0.00657267 -3.60097e-05 0.000364072)
(0.00469831 5.30776e-06 0.000121991)
(0.00309722 8.42669e-05 -0.000145693)
(0.00278548 -0.000283922 -0.000493221)
(0.00166688 -0.00327228 0.000638787)
(0.00476839 -0.000545961 -0.0018032)
(0.00401488 0.00334177 -0.0043153)
(0.00471103 0.00467406 -0.00402866)
(0.00564977 0.00291945 -0.00202353)
(0.00547308 0.00120903 -0.000536967)
(0.00419707 0.000669406 -0.000192057)
(0.00299057 0.000242054 -0.000249273)
(0.00176099 -0.000905334 -8.98582e-05)
(0.00230937 -0.00184771 0.000564231)
(0.00542194 -0.0104469 0.00219736)
(0.0124691 -0.00815777 0.00209672)
(0.00810853 -0.000147111 -0.00132516)
(0.00310633 0.00378762 -0.000610315)
(0.0021654 0.00403241 -0.000117185)
(0.00337355 0.00241558 -8.02542e-05)
(0.00311793 0.000956493 0.000382726)
(0.000734313 0.000190469 0.00133725)
(-0.00142144 -0.00171119 0.0038182)
(0.00194912 -0.00817643 0.00481368)
(0.00668209 -0.0313773 0.00820811)
(0.0173135 -0.0300419 0.0103004)
(0.0167167 -0.0107153 0.0055246)
(0.00575488 -0.00389998 0.0050842)
(0.00140294 -0.00100438 0.00438563)
(0.00105749 -0.000318721 0.00293528)
(-0.000488574 0.000551823 0.00337076)
(-0.00318565 -0.00159519 0.0054502)
(-0.000310062 -0.0147413 0.00725842)
(0.00417994 -0.027622 0.00467304)
(0.0016325 -0.0651729 0.0151693)
(0.00962703 -0.0604625 0.0124822)
(0.0136165 -0.0262239 0.00970763)
(0.00316781 -0.0159132 0.00976222)
(0.000235738 -0.0111093 0.00864914)
(-0.000792273 -0.00528637 0.00715148)
(-0.000702424 -0.00476274 0.00728581)
(0.00244355 -0.0159937 0.00757235)
(0.00756717 -0.0337793 0.00462821)
(0.00551614 -0.0378848 0.000827548)
(0.00171999 -0.0800525 0.00796458)
(0.00964796 -0.0719006 0.00267438)
(0.0147991 -0.04341 0.0126979)
(0.00977828 -0.0341769 0.0133144)
(0.0083852 -0.0317385 0.0108974)
(0.00717113 -0.0273574 0.00962799)
(0.0079859 -0.0292573 0.00914058)
(0.0111561 -0.0388893 0.00721972)
(0.00841748 -0.044068 0.00222034)
(0.00530075 -0.0424117 -0.00222789)
(0.00669603 -0.0876044 -0.00414735)
(0.0163155 -0.0789174 -0.00861235)
(0.0225373 -0.0608704 0.00530516)
(0.0221829 -0.0492603 0.00865409)
(0.018982 -0.0406164 0.0070214)
(0.0150531 -0.0339564 0.00781715)
(0.0122972 -0.0349286 0.00819218)
(0.00916357 -0.0387651 0.00545285)
(0.00439162 -0.0388371 -0.000121035)
(0.00498705 -0.0367005 -0.00476287)
(0.00403683 -0.0941396 -0.00644225)
(0.0123178 -0.0774326 -0.0117907)
(0.0159713 -0.0584099 -4.11703e-05)
(0.00850208 -0.0448812 0.00696919)
(-0.00299929 -0.0385287 0.0079844)
(-0.00921807 -0.0385154 0.00665248)
(-0.0111206 -0.0418337 0.00363409)
(-0.0111831 -0.0444475 -5.43631e-05)
(-0.0090657 -0.0457979 -0.00330296)
(-0.00389566 -0.0451523 -0.00534913)
(-0.000613195 -0.0715973 -0.00537806)
(0.00934608 -0.0483376 -0.00839966)
(0.012282 -0.0282421 0.0045284)
(-0.00106113 -0.0175289 0.0115758)
(-0.0150495 -0.0158494 0.0103475)
(-0.0243537 -0.0178797 0.00667296)
(-0.0313841 -0.0201207 0.00297988)
(-0.0328992 -0.0206907 -0.000896252)
(-0.0261955 -0.0204494 -0.00454675)
(-0.014058 -0.0195672 -0.00764028)
(0.0125187 -0.0877703 0.00630577)
(0.0616519 -0.0827761 0.00725732)
(0.0986092 -0.0616751 0.0139636)
(0.102488 -0.0433652 0.0238114)
(0.0730155 -0.0342337 0.029)
(0.0236931 -0.0334713 0.0328649)
(-0.0156574 -0.0398287 0.0213114)
(-0.0232632 -0.0529906 0.00453244)
(-0.0152656 -0.0664524 0.000407121)
(-0.00232519 -0.0704525 0.00548265)
(-0.00350598 -0.223577 -0.0279378)
(0.0162839 -0.219791 -0.0162665)
(0.00820285 -0.167136 0.00465105)
(0.00539355 -0.107321 0.00758554)
(-0.0383274 -0.0573571 0.00837465)
(-0.054618 -0.0487195 0.00593313)
(-0.0386906 -0.0743056 -0.037374)
(-0.0087231 -0.117187 -0.0569715)
(-0.00240349 -0.159157 -0.0333747)
(-0.0424352 -0.192256 0.00456187)
(-0.0183688 -0.0955797 -0.0468511)
(-0.0353452 -0.136203 -0.0232745)
(-0.0886356 -0.119179 -0.00357848)
(-0.126611 -0.0591934 0.00159386)
(-0.129873 0.000327503 -0.00413163)
(-0.0954432 0.0277871 -0.00986619)
(-0.0390797 0.0535662 -0.0175648)
(0.00496335 0.0579719 -0.0172894)
(0.00720952 0.0306355 -0.00167441)
(-0.0480152 -0.00948758 0.00790036)
(-0.0128392 -0.0406277 -0.0561364)
(-0.0487104 -0.0971833 -0.0333121)
(-0.142929 -0.067885 -0.0103905)
(-0.218522 -0.0439755 0.0068467)
(-0.212843 -0.0679022 0.0122358)
(-0.169831 -0.0807426 0.0108078)
(-0.121108 -0.038415 0.00153004)
(-0.0805382 0.00627184 -0.00192537)
(-0.0748842 0.00130203 0.000268979)
(-0.107924 -0.0246701 -0.00635191)
(-0.00303471 0.0425586 -0.050561)
(-0.0307197 -0.0266832 -0.02823)
(-0.120364 0.0010945 0.00269425)
(-0.197739 -0.0216019 0.0304091)
(-0.2223 -0.105047 0.0382858)
(-0.230582 -0.131845 0.0371043)
(-0.221829 -0.0792346 0.0183406)
(-0.194339 -0.0178096 -0.0125817)
(-0.187766 -0.000719138 -0.0371568)
(-0.191222 -0.00826741 -0.05532)
(0.0188505 0.0876434 -0.028579)
(0.0131821 0.0234864 -0.0106434)
(-0.0747985 0.0381797 0.00663869)
(-0.144862 -0.0136052 0.0318142)
(-0.188145 -0.114332 0.0324617)
(-0.243049 -0.138732 0.0371771)
(-0.28356 -0.0862973 0.0223566)
(-0.272949 -0.0262764 -0.0231941)
(-0.242272 0.00594812 -0.0632478)
(-0.208492 0.00989585 -0.0806213)
(0.0279491 0.0675971 -0.00936286)
(0.0568413 0.0390776 0.0092373)
(-0.0144169 0.0733672 0.0064042)
(-0.0763619 0.00611915 0.0233691)
(-0.112367 -0.0991117 0.0222161)
(-0.19865 -0.111231 0.037945)
(-0.281783 -0.0630045 0.0346783)
(-0.313715 -0.00250493 -0.00459645)
(-0.288613 0.0294402 -0.0535849)
(-0.241419 0.0179749 -0.0615698)
(0.0266053 0.0168134 -0.0132092)
(0.0534505 0.00845495 0.00993451)
(0.0246317 0.0911579 0.00688274)
(-0.0299588 0.0283082 0.0090657)
(-0.0513372 -0.0847662 0.0170372)
(-0.138376 -0.0818035 0.0391101)
(-0.21605 -0.0532271 0.0403486)
(-0.252517 -0.00403414 0.0319204)
(-0.257626 0.0238975 0.0216929)
(-0.242746 -0.00534172 0.0180598)
(0.031749 -0.0138937 -0.0247753)
(0.00359358 0.0135185 -0.0118565)
(-0.00198932 0.110862 -0.00426798)
(-0.0227096 0.0292583 0.00115075)
(-0.0618778 -0.0797789 0.0279588)
(-0.125569 -0.0776289 0.045085)
(-0.183903 -0.0642251 0.0415141)
(-0.218104 -0.0516251 0.0308974)
(-0.226713 -0.0473331 0.0275613)
(-0.226741 -0.0697764 0.0266008)
(0.0107827 0.00504885 -0.0291539)
(-0.0464559 0.0703947 -0.0272154)
(-0.0599281 0.0984721 -0.00982976)
(-0.0666391 -0.00842284 0.0186773)
(-0.107688 -0.0947755 0.0357747)
(-0.145636 -0.102459 0.0452155)
(-0.182816 -0.0841856 0.0511742)
(-0.215924 -0.0725691 0.0463367)
(-0.237867 -0.0779756 0.0378064)
(-0.24458 -0.0988552 0.0289725)
(-0.0101086 0.0564426 -0.0334118)
(-0.0691727 0.120619 -0.0186752)
(-0.0878629 0.0764329 0.0081575)
(-0.108476 -0.0529233 0.0280292)
(-0.143911 -0.127956 0.0256254)
(-0.164367 -0.137707 0.0288253)
(-0.18688 -0.113981 0.0402765)
(-0.210952 -0.0854284 0.0476773)
(-0.231173 -0.0721005 0.0405908)
(-0.235402 -0.0777536 0.0234503)
(-0.00159416 0.000384722 0.0013206)
(-0.00119338 0.000295699 -0.0035795)
(0.00580149 -0.0035534 -0.0094381)
(0.0118769 -0.00210154 -0.00944813)
(0.0145011 -0.0010391 -0.00382548)
(0.0138122 -0.000797385 0.000732616)
(0.0117821 -0.000391308 0.00247569)
(0.00942615 -0.000188401 0.00285028)
(0.00664995 8.21243e-05 0.00276272)
(0.00433313 5.0186e-05 0.00226585)
(-0.00189145 -0.00159935 0.00174068)
(0.014912 -0.0117121 0.00875548)
(0.0198674 -0.0137462 0.00647425)
(0.0177295 -0.00730417 -0.00247926)
(0.0163004 -0.000979457 -0.00550592)
(0.0135572 0.000573927 -0.00180632)
(0.0105056 -0.000208246 0.00145621)
(0.00817791 -0.000664206 0.00263054)
(0.0058313 -0.00110507 0.00299491)
(0.00406504 -0.00293998 0.00391657)
(0.00483658 -0.0132134 0.00807925)
(0.0254028 -0.0372641 0.0229537)
(0.0298418 -0.0323113 0.0240845)
(0.0203971 -0.0151829 0.0166765)
(0.0139353 -0.001995 0.00386846)
(0.0126851 0.00245532 -0.000276474)
(0.0112541 0.000898294 0.00174952)
(0.00924768 -0.00127448 0.00429735)
(0.00464595 -0.00112182 0.00752974)
(0.00254231 -0.00333255 0.0123331)
(0.013914 -0.0364882 0.0198771)
(0.019483 -0.0617043 0.0269012)
(0.0195276 -0.0421568 0.0294348)
(0.00723366 -0.0173992 0.0266882)
(0.00496355 -0.00616603 0.0156612)
(0.00804475 -0.00125224 0.00717577)
(0.00896177 -0.000840739 0.00698021)
(0.00612055 0.000748809 0.0105847)
(0.00187914 0.000483124 0.0163439)
(0.00638594 -0.0143408 0.0188814)
(0.00980841 -0.0578375 0.0206932)
(0.0065892 -0.0684493 0.0165689)
(0.00374919 -0.0460473 0.0302265)
(-0.00189886 -0.0276523 0.0312054)
(-0.000411624 -0.0167905 0.0243621)
(0.00395166 -0.00644444 0.0185699)
(0.00721746 -0.000241495 0.0172189)
(0.00971647 0.000626802 0.0182196)
(0.0138849 -0.00717495 0.0185906)
(0.0173967 -0.0190342 0.0156255)
(0.0105086 -0.0526053 0.0033302)
(0.0124587 -0.0591034 0.000851167)
(0.00961127 -0.0543115 0.0218813)
(0.0122477 -0.0435141 0.0262356)
(0.0122797 -0.0352421 0.0221068)
(0.0134202 -0.0259786 0.0197768)
(0.0162033 -0.0204276 0.017776)
(0.0214742 -0.0194527 0.0149907)
(0.0240285 -0.0202614 0.0105279)
(0.0214119 -0.0208865 0.0070295)
(0.0155359 -0.0690142 -0.0127047)
(0.0209873 -0.0667886 -0.0118365)
(0.0169477 -0.0541062 -0.00194259)
(0.0214234 -0.0436405 0.000977822)
(0.0202423 -0.0338756 0.00370572)
(0.0194045 -0.0257917 0.00760557)
(0.019663 -0.0206087 0.00757311)
(0.0214872 -0.0175699 0.00504264)
(0.0201091 -0.0146141 0.00188887)
(0.016801 -0.0117125 6.44063e-05)
(0.00845433 -0.0882612 -0.00991789)
(0.00320919 -0.0703046 -0.0108068)
(0.00058781 -0.0527382 -0.00733955)
(0.00141881 -0.0413106 -0.00232161)
(-0.00123162 -0.032292 0.000567156)
(-0.00145107 -0.0258049 0.000325866)
(-0.000245846 -0.0212165 -0.00158047)
(0.00169947 -0.0179444 -0.00341043)
(0.00303613 -0.0144991 -0.00452532)
(0.00425974 -0.0101985 -0.00490138)
(-0.00628914 -0.06422 0.00518949)
(-0.0164742 -0.0389914 0.00346808)
(-0.0190448 -0.0234531 0.00795565)
(-0.0193412 -0.0141679 0.0099332)
(-0.0217252 -0.00965374 0.00675566)
(-0.0262322 -0.00704747 0.00303866)
(-0.029997 -0.00434411 -0.000338758)
(-0.0287311 -0.00156931 -0.00350747)
(-0.0223892 0.00190662 -0.00492333)
(-0.0140889 0.00469778 -0.00501797)
(0.00650144 -0.0880782 0.0436577)
(0.0486994 -0.0792044 0.0529175)
(0.0775199 -0.0575217 0.0576802)
(0.0920788 -0.0409173 0.0682773)
(0.0838723 -0.03191 0.0763064)
(0.0421096 -0.0304304 0.0645461)
(-0.00832215 -0.0371095 0.0635869)
(-0.036152 -0.0472285 0.0797185)
(-0.034109 -0.0578326 0.0964144)
(-0.0141852 -0.0650467 0.111775)
(-0.0287547 -0.231747 -0.0114213)
(-0.048642 -0.230403 0.0196831)
(-0.067606 -0.177102 0.0489867)
(-0.0687534 -0.116947 0.0626765)
(-0.079811 -0.0730042 0.0329789)
(-0.0985853 -0.0393774 -0.0943678)
(-0.129332 0.00557788 -0.177745)
(-0.128676 0.0462314 -0.167741)
(-0.116569 0.0201614 -0.0994354)
(-0.113039 -0.0691156 -0.015603)
(-0.0769465 -0.126323 -0.0131001)
(-0.194545 -0.181035 0.0271264)
(-0.260366 -0.146476 0.0452966)
(-0.256694 -0.0918137 0.0368843)
(-0.193355 -0.00702627 0.0113028)
(-0.108094 0.0864803 -0.0410515)
(-0.0767719 0.140213 -0.109059)
(-0.0787945 0.141907 -0.1264)
(-0.0848507 0.112068 -0.0735861)
(-0.105382 0.0546248 -0.00506891)
(-0.0915089 -0.0631927 -0.0306289)
(-0.240639 -0.142824 0.0156101)
(-0.334809 -0.179779 0.0379309)
(-0.353867 -0.210806 0.030452)
(-0.300823 -0.179771 0.0221776)
(-0.197483 -0.0574107 0.0207198)
(-0.0827662 0.111292 0.0191756)
(-0.0352487 0.187895 0.00717422)
(-0.0540998 0.160525 0.0217408)
(-0.0995852 0.0932263 0.0324975)
(-0.0796909 0.0449708 -0.0403929)
(-0.209077 -0.0471536 0.0248848)
(-0.297846 -0.10596 0.0562917)
(-0.342069 -0.191674 0.0521873)
(-0.339154 -0.228564 0.0369074)
(-0.294251 -0.164782 0.0141824)
(-0.200036 -0.0230884 0.00220478)
(-0.102228 0.12315 0.0227744)
(-0.0792275 0.167165 0.0374077)
(-0.107054 0.130137 0.0165616)
(-0.045049 0.131174 -0.0262615)
(-0.144202 0.0263381 0.0350892)
(-0.224611 -0.0390036 0.0620717)
(-0.276376 -0.146985 0.062735)
(-0.317571 -0.213636 0.0552331)
(-0.341909 -0.177305 0.0298543)
(-0.298935 -0.0620184 -0.016948)
(-0.217937 0.0812934 -0.0409431)
(-0.165151 0.161973 -0.0297504)
(-0.153253 0.132183 -0.0292741)
(0.00530567 0.183102 -0.0067622)
(-0.045423 0.0802407 0.0416073)
(-0.123854 0.0191941 0.060836)
(-0.176074 -0.0979141 0.0609922)
(-0.249481 -0.167851 0.0685191)
(-0.344969 -0.144714 0.062008)
(-0.372973 -0.0687689 0.0220723)
(-0.330922 0.0379958 -0.0313021)
(-0.27663 0.0915741 -0.0471799)
(-0.253625 0.0407991 -0.0151064)
(0.0289952 0.158798 -0.000704381)
(0.0189524 0.113224 0.034024)
(-0.0413853 0.0691569 0.0478962)
(-0.0933597 -0.062694 0.0565552)
(-0.184386 -0.118595 0.0820862)
(-0.305358 -0.0843617 0.0854313)
(-0.386784 -0.0392865 0.0709719)
(-0.410071 0.0175831 0.0526278)
(-0.390199 0.0262305 0.0448846)
(-0.367536 -0.0290818 0.0589132)
(0.0186543 0.0973285 -0.0125304)
(0.0224679 0.135408 0.00870086)
(-0.0334896 0.0969953 0.0280957)
(-0.106767 -0.0682286 0.0748049)
(-0.191051 -0.0906282 0.0989574)
(-0.268085 -0.0441152 0.0966142)
(-0.33451 -0.0220258 0.0882025)
(-0.368693 -0.00728648 0.0873641)
(-0.363074 -0.0160424 0.0785855)
(-0.327836 -0.0584296 0.0512611)
(-0.0137244 0.0749249 -0.0145079)
(-0.0277372 0.159107 0.00128461)
(-0.11194 0.0595967 0.0470321)
(-0.175909 -0.0846266 0.0954858)
(-0.230251 -0.0994308 0.099293)
(-0.255404 -0.0428121 0.0886506)
(-0.273275 0.00241073 0.0648832)
(-0.28701 0.0129715 0.0423868)
(-0.281371 0.00207413 0.0185202)
(-0.249152 -0.0201291 -0.0251783)
(-0.0425784 0.104043 -0.00910848)
(-0.0735851 0.180177 0.022443)
(-0.144524 0.0391047 0.0695779)
(-0.187017 -0.0982433 0.0882494)
(-0.238544 -0.130275 0.0791628)
(-0.251288 -0.0896423 0.071755)
(-0.242416 -0.0154668 0.0523975)
(-0.231409 0.0365641 0.0160866)
(-0.223885 0.0444314 -0.0277859)
(-0.205878 0.0287771 -0.0738818)
(-0.00468402 0.0015328 0.00360413)
(-0.00675331 -0.00498359 0.00318098)
(0.00735942 -0.015241 0.00256416)
(0.0182222 -0.0104809 -9.18303e-05)
(0.0213183 -0.00362364 0.00068452)
(0.0175534 -0.00109981 0.00379855)
(0.0128794 -0.000251943 0.00562925)
(0.00955002 3.06961e-05 0.00614366)
(0.00642975 0.000109277 0.00615243)
(0.00384893 -0.000176636 0.0058458)
(-0.00617137 0.00150097 0.000793291)
(0.0120212 -0.0229743 0.0161117)
(0.0255108 -0.0392992 0.0227842)
(0.0281254 -0.0313579 0.0144581)
(0.0265157 -0.0107931 0.00348985)
(0.0194739 0.000260598 0.00168852)
(0.0122361 0.000825866 0.00416345)
(0.0083052 -0.000242068 0.00563827)
(0.00573604 -0.00106626 0.0060583)
(0.0039755 -0.00323851 0.00661316)
(-0.00436359 -0.0045719 0.00483754)
(0.0242805 -0.0434698 0.0307176)
(0.0293341 -0.0534718 0.0368442)
(0.0252026 -0.0360646 0.0289744)
(0.0235564 -0.0144731 0.0119961)
(0.0195778 0.00153944 0.00341671)
(0.0135507 0.00355853 0.00412233)
(0.0104102 0.000245615 0.00651954)
(0.00723118 -0.00198215 0.00872554)
(0.00405174 -0.00350739 0.0130879)
(0.00497759 -0.0138084 0.0153027)
(0.0227646 -0.0532032 0.0311318)
(0.0143759 -0.0564081 0.037165)
(0.0101121 -0.0327326 0.0356925)
(0.0115049 -0.0144716 0.0198173)
(0.0140842 -0.000446947 0.0084312)
(0.012519 0.00255135 0.00743686)
(0.00970103 0.000798514 0.0107615)
(0.004377 0.00284441 0.0147599)
(0.00284887 -0.00112758 0.0203924)
(0.00987686 -0.02205 0.0161936)
(0.0197957 -0.0448533 0.0166191)
(0.00408005 -0.0491277 0.0318493)
(0.00302522 -0.0335545 0.0376853)
(0.00436858 -0.0169586 0.0296273)
(0.00923406 -0.00124087 0.021544)
(0.0116064 0.00595252 0.0190092)
(0.0112752 0.00799387 0.0193128)
(0.00777101 0.00739405 0.0189852)
(0.00807444 -0.000903629 0.0188639)
(0.0114475 -0.0261324 0.00275428)
(0.0239497 -0.0365285 0.00353534)
(0.0130513 -0.0410132 0.0198607)
(0.0137155 -0.0332566 0.0267757)
(0.0112309 -0.0218912 0.0261575)
(0.0122068 -0.00937318 0.0245398)
(0.0142001 -0.000879463 0.021636)
(0.0159985 0.00424397 0.0181725)
(0.0138092 0.00690114 0.0135979)
(0.0118046 0.00270915 0.00999275)
(0.0102621 -0.0528785 -0.00829455)
(0.020533 -0.0511239 -0.00462303)
(0.01662 -0.0382692 -0.00130385)
(0.0172689 -0.027936 0.000819606)
(0.0117378 -0.0183025 0.0064018)
(0.00925221 -0.00929256 0.00932516)
(0.00791192 -0.00209277 0.00790229)
(0.00843777 0.00349059 0.00593811)
(0.00864618 0.00678436 0.00404627)
(0.00943591 0.00592943 0.00233419)
(0.00274567 -0.0755023 -0.00320097)
(-0.000173983 -0.0602923 -0.00728441)
(-0.00114527 -0.0418307 -0.0106251)
(-0.00306345 -0.0261195 -0.00674865)
(-0.00874501 -0.0122683 -0.00285228)
(-0.0122259 -0.0019679 -0.0036902)
(-0.0132477 0.00398597 -0.00796675)
(-0.0104301 0.00688232 -0.0120467)
(-0.00472423 0.00796176 -0.0151461)
(0.00221107 0.00834768 -0.0176743)
(-0.00584346 -0.0504231 0.0217673)
(-0.0123113 -0.0304468 0.0120293)
(-0.014695 -0.013886 0.00803362)
(-0.015844 -0.00214767 0.0095252)
(-0.0210432 0.00534985 0.0121594)
(-0.0274803 0.0122888 0.0147174)
(-0.0312208 0.0152143 0.0158845)
(-0.0297701 0.0151058 0.0180686)
(-0.0250167 0.0144747 0.0230199)
(-0.0194532 0.0140373 0.027446)
(0.00555258 -0.0840654 0.0892451)
(0.0462616 -0.0765575 0.0977779)
(0.0711041 -0.0535651 0.0980562)
(0.0952904 -0.0372938 0.108079)
(0.094652 -0.0325385 0.116865)
(0.0622906 -0.0336249 0.132164)
(-0.0249984 -0.0125819 0.0864454)
(-0.0785356 -0.0401016 0.00392614)
(-0.0989501 -0.0697127 -0.00923736)
(-0.0951917 -0.094635 0.0765947)
(-0.0289347 -0.21678 0.0484927)
(-0.0426559 -0.214784 0.0881061)
(-0.0604752 -0.162336 0.103125)
(-0.0767223 -0.119832 0.0744379)
(-0.134561 -0.0392472 -0.0552137)
(-0.163034 0.16347 -0.0951759)
(-0.208805 0.221249 -0.170706)
(-0.227213 0.159518 -0.206424)
(-0.242963 0.133057 -0.162707)
(-0.237914 0.123843 -0.0723167)
(-0.073571 -0.140179 0.0780893)
(-0.192738 -0.183112 0.095279)
(-0.239478 -0.0938653 0.0953583)
(-0.221074 0.0196415 0.0570266)
(-0.177408 0.12544 -0.0331245)
(-0.172151 0.239628 -0.103559)
(-0.184551 0.189866 -0.148838)
(-0.219715 0.095161 -0.138198)
(-0.243286 0.0665916 -0.0716278)
(-0.252753 0.0643754 -0.00672439)
(-0.110285 -0.0961322 0.0494073)
(-0.270847 -0.158935 0.0510094)
(-0.326741 -0.141747 0.0648397)
(-0.306461 -0.0871134 0.066455)
(-0.223564 0.0403551 0.0581759)
(-0.134206 0.176 0.0345868)
(-0.0935327 0.205186 0.008227)
(-0.127002 0.151717 -0.00490373)
(-0.185847 0.109803 0.0226126)
(-0.224118 0.0739312 0.0354101)
(-0.132761 0.00151051 0.0195721)
(-0.281545 -0.0945899 0.031165)
(-0.334419 -0.134677 0.038439)
(-0.337494 -0.155138 0.0294948)
(-0.28426 -0.0895085 0.0305063)
(-0.189999 0.0559918 0.045151)
(-0.116362 0.180428 0.0460348)
(-0.130789 0.200272 0.0262607)
(-0.195404 0.160635 0.014343)
(-0.229728 0.0635185 0.0029953)
(-0.0991333 0.111205 0.0126653)
(-0.218949 -0.00645178 0.0400081)
(-0.285872 -0.0987916 0.058694)
(-0.322369 -0.172452 0.0545992)
(-0.331729 -0.159556 0.0322778)
(-0.294931 -0.0472258 -0.00455304)
(-0.221938 0.107317 -0.0242428)
(-0.201731 0.203183 -0.0268651)
(-0.23015 0.177651 -0.0246166)
(-0.237455 0.0406519 0.00355344)
(-0.0308177 0.190403 0.0206406)
(-0.110105 0.0773515 0.0534038)
(-0.173446 -0.0314462 0.0820444)
(-0.229699 -0.125984 0.098121)
(-0.312036 -0.136169 0.0898764)
(-0.369306 -0.0760709 0.049695)
(-0.349973 0.0198205 0.00532987)
(-0.306716 0.108484 -0.00809878)
(-0.28345 0.0946702 0.0201981)
(-0.268025 -0.00973404 0.067491)
(0.0208291 0.192512 0.0231606)
(-0.0225786 0.135934 0.0403073)
(-0.0720704 0.0116979 0.0791432)
(-0.135624 -0.0911336 0.125538)
(-0.248768 -0.0742539 0.134925)
(-0.361575 -0.0288966 0.11389)
(-0.411087 0.00859487 0.0988443)
(-0.400391 0.0424564 0.0939261)
(-0.358887 0.0345759 0.0886292)
(-0.309028 -0.0126969 0.0627003)
(0.0201762 0.12983 0.00997977)
(0.00725873 0.170549 0.0130957)
(-0.0560256 0.0416005 0.0954893)
(-0.152407 -0.0869323 0.153641)
(-0.230548 -0.0275101 0.157552)
(-0.30544 0.0329182 0.124368)
(-0.362533 0.050254 0.0938612)
(-0.369054 0.0586927 0.0726026)
(-0.324891 0.0474566 0.0275847)
(-0.249491 0.0129388 -0.0494402)
(-0.0171185 0.0846835 0.0037684)
(-0.020678 0.187089 0.0243949)
(-0.125296 0.0309103 0.127426)
(-0.202009 -0.0784379 0.159488)
(-0.242094 -0.0346963 0.154852)
(-0.241842 0.0316452 0.123842)
(-0.241129 0.0667496 0.0664316)
(-0.240048 0.0671244 0.00717223)
(-0.211173 0.0420434 -0.0535744)
(-0.152101 0.00151642 -0.124543)
(-0.0480727 0.094164 0.0121448)
(-0.0526992 0.201382 0.0531581)
(-0.132 0.0433983 0.124974)
(-0.175419 -0.0708287 0.133987)
(-0.221811 -0.0777293 0.127425)
(-0.211695 -0.0497758 0.118129)
(-0.172479 -0.00776151 0.085925)
(-0.130591 0.0161792 0.0258252)
(-0.108741 0.0035776 -0.0419931)
(-0.0821337 -0.0238464 -0.112268)
(-0.00339285 0.000921915 0.00785443)
(-0.00905368 -0.0039798 0.0122644)
(0.00312479 -0.0131609 0.0162057)
(0.0168205 -0.0101252 0.0149219)
(0.0203953 -0.00419051 0.011696)
(0.0166393 -0.000959383 0.0098643)
(0.0119925 0.000324428 0.00944637)
(0.00860883 0.00069181 0.00925908)
(0.005644 0.000770364 0.00932964)
(0.00321658 0.000568214 0.00945217)
(-0.00494322 0.00246795 0.00307982)
(-0.00113778 -0.0150449 0.0166593)
(0.0167725 -0.0381264 0.0274526)
(0.0249106 -0.0303843 0.0215728)
(0.026346 -0.00995634 0.0132211)
(0.0189969 0.000190515 0.00914048)
(0.0114457 0.00156257 0.00850123)
(0.00761054 0.000941745 0.00886167)
(0.00537516 4.7637e-05 0.00950984)
(0.00370338 -0.00162853 0.0100865)
(-0.00342045 0.000150774 0.00227352)
(0.015484 -0.0270061 0.0235916)
(0.0240755 -0.046922 0.0360755)
(0.0262228 -0.0383824 0.0289598)
(0.0280183 -0.0148482 0.015241)
(0.0220395 0.00210931 0.00940846)
(0.0134163 0.00430712 0.00886563)
(0.00899518 0.00118897 0.00962903)
(0.006278 -0.00136485 0.0104837)
(0.00400856 -0.00295622 0.012308)
(0.00188111 -0.00703265 0.00578963)
(0.0218847 -0.0275127 0.0205732)
(0.0215027 -0.0436333 0.0334068)
(0.020147 -0.0343544 0.0314417)
(0.0222134 -0.0147564 0.0177363)
(0.0198531 0.00170728 0.0107013)
(0.0133499 0.00520951 0.0100567)
(0.00814226 0.00221354 0.0114224)
(0.00380972 0.00133685 0.013201)
(0.00213647 0.00139746 0.0155077)
(0.00762268 -0.0121156 0.00294611)
(0.0253316 -0.0202653 0.00787593)
(0.0213322 -0.0333374 0.0254123)
(0.0173833 -0.0272056 0.0303752)
(0.0168848 -0.0118751 0.0252059)
(0.0171912 0.00348092 0.0198422)
(0.0143148 0.00879921 0.0181506)
(0.0100603 0.0068252 0.0183112)
(0.00355146 0.0054353 0.0168926)
(0.00196383 0.00482668 0.0153826)
(0.00919722 -0.0284 -0.00122657)
(0.0266033 -0.0289959 0.00724725)
(0.0231782 -0.0289412 0.0209649)
(0.0203312 -0.0207234 0.0239681)
(0.0160708 -0.0094847 0.0249586)
(0.0154784 0.00276352 0.024775)
(0.0146882 0.00982353 0.0223998)
(0.0122667 0.0118128 0.0191981)
(0.00559426 0.0113137 0.0147444)
(0.00352895 0.00928874 0.009187)
(0.00179326 -0.0505585 -0.000588028)
(0.0121128 -0.042585 0.00381054)
(0.0113669 -0.028704 0.00168626)
(0.00895108 -0.0165938 0.00224359)
(0.00175772 -0.00636633 0.00716492)
(-0.000281056 0.00254522 0.0100905)
(-0.00132561 0.00866838 0.0101513)
(-0.00149072 0.0113711 0.00924599)
(-0.000384105 0.011441 0.00646596)
(0.0041965 0.0104995 0.00180838)
(-0.00532269 -0.0600896 0.00451774)
(-0.00913221 -0.0481464 -0.0070522)
(-0.0119382 -0.0265789 -0.0143933)
(-0.017569 -0.00718182 -0.011987)
(-0.0235133 0.00551969 -0.00973696)
(-0.0270354 0.0108191 -0.0124944)
(-0.0274341 0.0108737 -0.0177933)
(-0.0228635 0.00847902 -0.0227507)
(-0.0150881 0.00579091 -0.0264031)
(-0.00617723 0.00399231 -0.0284341)
(-0.00189623 -0.0316541 0.0310384)
(-0.00504039 -0.0190297 0.0239521)
(-0.0104552 -0.00251541 0.0178231)
(-0.0134391 0.00971803 0.0245368)
(-0.0202346 0.0181011 0.0343891)
(-0.0293183 0.019573 0.0440866)
(-0.036798 0.0144522 0.0562638)
(-0.0385822 0.00434893 0.0693356)
(-0.0428814 -0.00775908 0.0906014)
(-0.0478537 -0.0120225 0.114879)
(0.0112205 -0.0726575 0.128427)
(0.0593804 -0.071822 0.146802)
(0.0902329 -0.0501493 0.141231)
(0.122049 -0.0414767 0.150887)
(0.130429 -0.0380435 0.166624)
(-0.0229214 0.00249805 0.0790956)
(-0.186591 -0.0790861 -0.0612743)
(-0.290884 -0.21629 -0.141032)
(-0.364763 -0.249153 -0.161667)
(-0.372063 -0.20115 -0.135761)
(-0.0207702 -0.191729 0.0883027)
(-0.00719655 -0.197813 0.142573)
(-0.0198168 -0.172493 0.12922)
(-0.0863991 -0.104774 0.0030626)
(-0.131646 0.173677 -0.0449834)
(-0.256028 0.227381 -0.143202)
(-0.277025 0.112128 -0.172165)
(-0.310029 0.0168275 -0.167338)
(-0.340931 -0.0214665 -0.130036)
(-0.337663 -0.033172 -0.0709704)
(-0.0342083 -0.102201 0.150388)
(-0.108058 -0.138812 0.162004)
(-0.15172 -0.0293066 0.10866)
(-0.165568 0.112609 0.00417496)
(-0.204724 0.267947 -0.0755785)
(-0.247884 0.187786 -0.107994)
(-0.283473 0.0203493 -0.106582)
(-0.323404 -0.0547914 -0.0837301)
(-0.329996 -0.0697209 -0.0418027)
(-0.298075 -0.096646 0.00500917)
(-0.0609984 -0.0846416 0.141779)
(-0.199664 -0.117505 0.109258)
(-0.240559 -0.0193338 0.0971143)
(-0.220159 0.11579 0.0805802)
(-0.175098 0.231507 0.043528)
(-0.146868 0.205573 0.0225451)
(-0.18345 0.106484 -0.015551)
(-0.254782 0.0202207 -0.0234793)
(-0.281848 -0.0224729 0.00063767)
(-0.247453 -0.0612384 0.0325447)
(-0.124682 -0.0113331 0.10734)
(-0.277954 -0.0693145 0.0697243)
(-0.298286 -0.0226632 0.0731366)
(-0.258124 0.0537819 0.0837765)
(-0.186911 0.135289 0.0866123)
(-0.125396 0.186261 0.0769182)
(-0.126016 0.178059 0.047569)
(-0.180544 0.12701 0.0352344)
(-0.214448 0.0663186 0.0424153)
(-0.19856 -0.0188086 0.0483447)
(-0.120997 0.0868125 0.0774656)
(-0.276529 -0.0356027 0.0594121)
(-0.324923 -0.0850323 0.0725699)
(-0.323233 -0.079398 0.0746331)
(-0.291995 -0.0219673 0.0732291)
(-0.253047 0.0643137 0.0710031)
(-0.241202 0.117433 0.0682517)
(-0.257071 0.108047 0.0722726)
(-0.255668 0.0480643 0.0770621)
(-0.218431 -0.0358799 0.0550875)
(-0.0440277 0.177807 0.0642638)
(-0.149223 0.0618964 0.0652972)
(-0.203281 -0.0309689 0.106198)
(-0.255509 -0.0709616 0.12529)
(-0.313644 -0.0442848 0.103024)
(-0.349883 0.0121866 0.0737706)
(-0.350151 0.0468624 0.061691)
(-0.33235 0.0414388 0.055431)
(-0.288874 0.00618691 0.0364223)
(-0.21955 -0.0404354 -0.0093606)
(0.0158598 0.183928 0.0591684)
(-0.0391635 0.118413 0.0508171)
(-0.076683 0.00132371 0.113928)
(-0.129982 -0.0553516 0.186941)
(-0.216236 -0.00858435 0.174046)
(-0.294769 0.0395978 0.119316)
(-0.313246 0.0528523 0.0698355)
(-0.290722 0.043193 0.0284766)
(-0.237719 0.0137749 -0.0219858)
(-0.158425 -0.0316074 -0.0860791)
(0.0134857 0.114576 0.0518292)
(0.000956081 0.122375 0.036122)
(-0.054579 0.0335621 0.149157)
(-0.134999 -0.0493622 0.218386)
(-0.184295 0.0291718 0.207604)
(-0.220852 0.0773368 0.155485)
(-0.227214 0.0678248 0.0910199)
(-0.194289 0.0348436 0.027266)
(-0.134529 -0.0186413 -0.0418384)
(-0.0743816 -0.0765917 -0.107882)
(-0.0204899 0.0534457 0.0536799)
(-0.0227978 0.127698 0.0647536)
(-0.103127 0.060038 0.184613)
(-0.170111 -0.0341561 0.204083)
(-0.190071 0.00251259 0.195776)
(-0.163502 0.0363461 0.164731)
(-0.122723 0.0274747 0.111435)
(-0.0757179 -0.015835 0.0582477)
(-0.0381341 -0.0783418 0.00396518)
(-0.0056493 -0.142631 -0.0823113)
(-0.0222008 0.0522537 0.0576521)
(-0.0424239 0.150243 0.0881564)
(-0.0961291 0.0936082 0.165063)
(-0.123345 -0.0143752 0.158542)
(-0.154764 -0.0421865 0.1534)
(-0.129522 -0.0552271 0.141117)
(-0.0750373 -0.0733046 0.113716)
(-0.00888951 -0.0964707 0.0704128)
(0.0336019 -0.129293 0.0205879)
(0.0463097 -0.161139 -0.0683518)
(-0.000655321 -4.28322e-05 0.0103013)
(-0.00368326 -0.00177499 0.0168605)
(0.00213244 -0.00480264 0.0230373)
(0.012327 -0.00422741 0.0211826)
(0.0150519 -0.00160828 0.0160298)
(0.013363 0.000391056 0.0127613)
(0.0102407 0.00125221 0.0113206)
(0.00753252 0.00153711 0.0106342)
(0.00494474 0.00178269 0.0107169)
(0.002521 0.00211048 0.0107601)
(-0.00180427 0.00142761 0.00607624)
(-0.0052472 -0.00351091 0.0180507)
(0.00573154 -0.0154665 0.0278014)
(0.0155922 -0.0103534 0.0260318)
(0.017521 -0.00174986 0.0183133)
(0.0137559 0.00192512 0.0127685)
(0.00965883 0.00275866 0.0111461)
(0.00725996 0.00250129 0.0111481)
(0.00560895 0.00233336 0.0121603)
(0.00364862 0.00248712 0.0132952)
(0.000224262 0.000622841 0.00353229)
(0.00272166 -0.00740435 0.018043)
(0.0141478 -0.0229013 0.0293725)
(0.0202575 -0.0169855 0.0277263)
(0.0215248 -0.00157926 0.0207608)
(0.0165 0.0049518 0.0147978)
(0.0106645 0.00464162 0.0124745)
(0.00723463 0.00246085 0.0121933)
(0.00518057 0.00162485 0.0123617)
(0.00354514 0.00251406 0.0129106)
(0.00551982 -0.00504994 0.00177458)
(0.0136476 -0.00909858 0.0101782)
(0.0209078 -0.0199196 0.0234618)
(0.0233874 -0.0163132 0.0251885)
(0.0228155 -0.00267367 0.0199445)
(0.0176447 0.00652739 0.0160712)
(0.0106537 0.00720966 0.0140241)
(0.00568647 0.0043043 0.0139101)
(0.00254713 0.00361624 0.0131968)
(0.00237667 0.00575951 0.0110956)
(0.00923543 -0.016156 0.000794132)
(0.0212205 -0.0107895 0.00504266)
(0.0264225 -0.0143753 0.0187414)
(0.0271943 -0.00968433 0.0243524)
(0.0253785 0.000395067 0.0234149)
(0.0212713 0.00935594 0.021757)
(0.015014 0.0104413 0.0204591)
(0.00848204 0.00595438 0.019776)
(0.00140076 0.00473016 0.0162007)
(0.00148871 0.00834777 0.00912431)
(0.00402634 -0.0405329 0.0026314)
(0.0191819 -0.0319876 0.0134162)
(0.0222127 -0.0235894 0.0211333)
(0.0227399 -0.0115102 0.0226384)
(0.0179738 0.000768644 0.0244531)
(0.0158412 0.0109356 0.0258247)
(0.0127143 0.0153362 0.0248194)
(0.00763837 0.0142079 0.0224682)
(0.00121422 0.0112938 0.0161175)
(0.00271722 0.0116945 0.00511931)
(-0.00652412 -0.0483956 0.00729745)
(-0.000509773 -0.0372966 0.00509346)
(-0.00181226 -0.018227 0.00040006)
(-0.0057459 -0.00221731 0.00120765)
(-0.0104405 0.00974489 0.00522056)
(-0.0104593 0.0169381 0.00927325)
(-0.00956618 0.0193118 0.0112989)