/*--------------------------------*- C++ -*----------------------------------*\
| =========                 |                                                 |
| \\      /  F ield         | OpenFOAM: The Open Source CFD Toolbox           |
|  \\    /   O peration     | Version:  2312                                  |
|   \\  /    A nd           | Website:  www.openfoam.com                      |
|    \\/     M anipulation  |                                                 |
\*---------------------------------------------------------------------------*/
FoamFile
{
    version     2.0;
    format      ascii;
    arch        "LSB;label=32;scalar=64";
    class       volVectorField;
    location    "0.13";
    object      U;
}
// * * * * * * * * * * * * * * * * * * * * * * * * * * * * * * * * * * * * * //

dimensions      [0 1 -1 0 0 0 0];

internalField   nonuniform List<vector> 
8000
(
(0.00166163 0.00238905 -0.00374568)
(0.00418499 0.00238961 -0.00355085)
(0.00617845 0.00238552 -0.00321496)
(0.00743544 0.00236891 -0.00279699)
(0.00788141 0.00233606 -0.00235712)
(0.0075528 0.00228916 -0.00194431)
(0.0065592 0.00223514 -0.00159197)
(0.00504636 0.0021833 -0.00131928)
(0.00316951 0.00214279 -0.00113523)
(0.00107966 0.0021199 -0.00104225)
(0.00166528 0.00731248 -0.00389539)
(0.00419361 0.00730128 -0.0036807)
(0.0061756 0.00726618 -0.00331381)
(0.00740728 0.00718747 -0.0028624)
(0.00782395 0.00705836 -0.00239295)
(0.00747283 0.00688912 -0.00195749)
(0.00647115 0.00670327 -0.00158973)
(0.00496742 0.00652995 -0.00130766)
(0.00311517 0.00639676 -0.00111858)
(0.00105996 0.00632171 -0.00102349)
(0.00164722 0.0126191 -0.0041163)
(0.00414597 0.0125574 -0.00386589)
(0.00607528 0.0124234 -0.00344476)
(0.00724024 0.012198 -0.00293694)
(0.00759622 0.0118848 -0.00241995)
(0.00721004 0.0115133 -0.00195005)
(0.00621047 0.0111299 -0.00156056)
(0.00474768 0.0107864 -0.00126653)
(0.00296905 0.010529 -0.00107175)
(0.00100882 0.0103866 -0.000974573)
(0.0015888 0.0184068 -0.00430813)
(0.00399324 0.0182327 -0.00401333)
(0.00580932 0.0178941 -0.00352765)
(0.00686035 0.0173944 -0.00295667)
(0.00713027 0.0167694 -0.00239076)
(0.00670933 0.0160828 -0.00188966)
(0.00573692 0.0154121 -0.00148388)
(0.00436088 0.0148336 -0.00118347)
(0.0027167 0.0144108 -0.000987421)
(0.000921287 0.0141814 -0.00089057)
(0.00144983 0.0245427 -0.00428103)
(0.00363367 0.0241812 -0.00394929)
(0.00523742 0.0235147 -0.00341637)
(0.00611575 0.0225988 -0.00280829)
(0.00628457 0.0215268 -0.00222364)
(0.00585262 0.0204124 -0.00172055)
(0.00496102 0.0193697 -0.00132342)
(0.00374601 0.0184982 -0.00103557)
(0.00232323 0.0178748 -0.000850739)
(0.000786075 0.0175424 -0.000760399)
(0.00118884 0.0304558 -0.00379313)
(0.00296559 0.0298451 -0.00346186)
(0.00422721 0.0287568 -0.00294389)
(0.00487249 0.0273277 -0.00237105)
(0.00494355 0.0257281 -0.00183735)
(0.00455166 0.0241291 -0.00139152)
(0.00382213 0.0226805 -0.00104875)
(0.00286555 0.0214993 -0.000805687)
(0.00176878 0.020669 -0.00065213)
(0.000596925 0.0202321 -0.000577866)
(0.000781615 0.0383253 -0.00265214)
(0.00193448 0.0373599 -0.00239173)
(0.00271939 0.0356849 -0.00199623)
(0.00308579 0.0335578 -0.00157343)
(0.00308448 0.0312559 -0.00119273)
(0.00280359 0.0290242 -0.000884818)
(0.00232995 0.0270529 -0.000654666)
(0.00173352 0.0254767 -0.000495139)
(0.00106491 0.0243835 -0.000395995)
(0.000359597 0.0238139 -0.000348518)
(0.000107408 0.022903 -0.000214741)
(0.000253858 0.0222439 -0.000217176)
(0.000337625 0.0211195 -0.000197716)
(0.000357852 0.0197175 -0.000159912)
(0.0003353 0.018228 -0.000119222)
(0.00028842 0.0168088 -8.62924e-05)
(0.000229197 0.0155736 -6.28476e-05)
(0.00016478 0.0145973 -4.74712e-05)
(9.89344e-05 0.0139257 -3.82831e-05)
(3.49352e-05 0.0135792 -3.40871e-05)
(0.00279711 0.0363891 -0.000916058)
(0.00647736 0.0361113 -0.0017891)
(0.00824966 0.0349438 -0.00226804)
(0.00846506 0.0330414 -0.00204033)
(0.00792443 0.030821 -0.00168313)
(0.00698947 0.0286197 -0.00141456)
(0.00576878 0.0266638 -0.00122623)
(0.00430816 0.0251008 -0.00109671)
(0.00264339 0.0240175 -0.00101351)
(0.000936236 0.0234655 -0.000960748)
(0.0809043 0.0918188 -0.114031)
(0.167559 0.0865023 -0.0786762)
(0.175478 0.0792421 -0.0470945)
(0.14721 0.0701181 -0.0267626)
(0.115609 0.0619063 -0.0175867)
(0.0883382 0.0555582 -0.013452)
(0.0651018 0.0508967 -0.0113463)
(0.0446849 0.047675 -0.0101668)
(0.026057 0.0457135 -0.00948655)
(0.0083359 0.044344 -0.00889689)
(0.0594545 0.282888 -0.0662274)
(0.122701 0.239723 -0.0461191)
(0.136006 0.189921 -0.0278726)
(0.123233 0.15127 -0.0181603)
(0.102651 0.124655 -0.0137472)
(0.0813678 0.106735 -0.0115313)
(0.0613089 0.0947454 -0.0103058)
(0.0426497 0.0869115 -0.00955836)
(0.0251066 0.0821805 -0.00909174)
(0.00802728 0.0784881 -0.00857364)
(0.0329876 0.304475 -0.0199531)
(0.0723391 0.268986 -0.0147162)
(0.0872488 0.226909 -0.0107964)
(0.085602 0.191176 -0.00890375)
(0.0757534 0.164002 -0.00809062)
(0.0626608 0.14419 -0.00775879)
(0.0486075 0.13015 -0.00759852)
(0.0344604 0.120597 -0.00747488)
(0.0205247 0.114659 -0.00736586)
(0.006571 0.109596 -0.00703903)
(0.0184141 0.278671 -0.0040387)
(0.0429311 0.258708 -0.00377823)
(0.0553884 0.232316 -0.00379764)
(0.0576883 0.206884 -0.00405608)
(0.0535422 0.185328 -0.0044915)
(0.0459108 0.168234 -0.00494515)
(0.0365516 0.155325 -0.00530257)
(0.0263703 0.146131 -0.00553006)
(0.0158743 0.140233 -0.00564667)
(0.00507169 0.134485 -0.00545854)
(0.0108879 0.25686 -0.00113532)
(0.0264762 0.245932 -0.0011637)
(0.0355406 0.229836 -0.00140483)
(0.0384273 0.21265 -0.00187502)
(0.036832 0.196785 -0.00248133)
(0.0324053 0.183313 -0.00307564)
(0.0263005 0.172584 -0.00356355)
(0.0192235 0.164636 -0.00391053)
(0.011663 0.159394 -0.00412165)
(0.00369956 0.153329 -0.00401083)
(0.00652396 0.243225 -0.000144395)
(0.0164121 0.236645 -8.44887e-05)
(0.0225509 0.226269 -0.00026428)
(0.0249456 0.214441 -0.000672474)
(0.0244073 0.202861 -0.00121309)
(0.0218415 0.19253 -0.00176369)
(0.017956 0.183972 -0.0022402)
(0.0132342 0.177442 -0.00260186)
(0.00806657 0.173039 -0.0028375)
(0.0025192 0.166818 -0.00276643)
(0.00375723 0.234077 0.000801105)
(0.00978593 0.229786 0.000858116)
(0.0136112 0.222682 0.000657632)
(0.0152496 0.214248 0.000267106)
(0.0151 0.205664 -0.000233282)
(0.0136486 0.197742 -0.00074421)
(0.0113032 0.190997 -0.00119513)
(0.0083615 0.185742 -0.00154804)
(0.00510165 0.182137 -0.00178549)
(0.00154141 0.175801 -0.00173773)
(0.00190763 0.226893 0.00186672)
(0.00517628 0.223908 0.00188286)
(0.0071874 0.218802 0.00158083)
(0.00808571 0.212601 0.00114027)
(0.00803379 0.206121 0.000619291)
(0.00727829 0.199999 0.000105455)
(0.00603045 0.194684 -0.000342499)
(0.00444427 0.190481 -0.000693982)
(0.00269506 0.187556 -0.000932298)
(0.000744896 0.181098 -0.000902711)
(0.000586388 0.220216 0.00296912)
(0.00181578 0.218061 0.00290713)
(0.00243801 0.214266 0.00246849)
(0.00269283 0.209638 0.00194997)
(0.00260469 0.204696 0.0013748)
(0.00229859 0.199947 0.000831164)
(0.00185183 0.195747 0.00036652)
(0.00130648 0.192391 3.88708e-06)
(0.000751246 0.190016 -0.000239716)
(9.93717e-05 0.183416 -0.000227913)
(-0.000344097 0.21337 0.00391007)
(-0.000673567 0.211765 0.00379091)
(-0.00114728 0.20896 0.00322236)
(-0.00140903 0.205496 0.00264741)
(-0.00159708 0.201728 0.00201943)
(-0.00161387 0.19804 0.00144299)
(-0.0014688 0.194741 0.00096083)
(-0.00120946 0.192063 0.000577869)
(-0.000821438 0.190145 0.000330546)
(-0.000423289 0.183362 0.000322605)
(-0.00106092 0.20621 0.00459776)
(-0.0025194 0.205004 0.00444085)
(-0.00379344 0.202991 0.00381192)
(-0.00451268 0.200395 0.0032106)
(-0.00483529 0.197523 0.00255119)
(-0.00467785 0.194655 0.00194572)
(-0.00410944 0.192052 0.00143996)
(-0.00322827 0.18992 0.0010483)
(-0.00209934 0.188397 0.000789309)
(-0.000861092 0.181361 0.000762855)
(0.00187205 0.00224999 -0.0112791)
(0.00471778 0.00226987 -0.0106752)
(0.00693535 0.00229587 -0.00963922)
(0.00829692 0.00231154 -0.00835759)
(0.00873796 0.00230702 -0.00701695)
(0.00832164 0.00228159 -0.00576595)
(0.00718743 0.00224198 -0.00470353)
(0.00550556 0.00219876 -0.00388463)
(0.00344739 0.00216277 -0.00333356)
(0.00117265 0.00214176 -0.00305621)
(0.00189673 0.00695086 -0.0118012)
(0.00477672 0.00699488 -0.0111281)
(0.0069963 0.00704447 -0.00998498)
(0.00833122 0.00705489 -0.00858901)
(0.0087323 0.00700211 -0.00714831)
(0.0082795 0.00688922 -0.00582123)
(0.00712405 0.00673985 -0.00470724)
(0.00544098 0.00658736 -0.00385696)
(0.00340019 0.00646454 -0.00328902)
(0.00115506 0.00639353 -0.00300455)
(0.00191717 0.0122072 -0.012614)
(0.00481942 0.0122258 -0.0118121)
(0.00700705 0.012211 -0.010476)
(0.00826846 0.0121057 -0.00888152)
(0.00858675 0.0118896 -0.0072746)
(0.00807293 0.0115841 -0.00582765)
(0.00689703 0.0112391 -0.00463784)
(0.00523883 0.0109142 -0.00374543)
(0.00326181 0.0106638 -0.00315712)
(0.00110601 0.0105233 -0.00286495)
(0.00190654 0.01825 -0.0134099)
(0.00477578 0.0181571 -0.0124404)
(0.0068689 0.0179302 -0.010864)
(0.00800066 0.0175307 -0.00903646)
(0.00820082 0.0169732 -0.00724908)
(0.00761954 0.0163196 -0.00568522)
(0.00644597 0.0156563 -0.00443209)
(0.00485951 0.0150714 -0.00351241)
(0.00301035 0.0146385 -0.00291604)
(0.00101814 0.0144023 -0.00262303)
(0.00180754 0.0250687 -0.0135926)
(0.00450053 0.0247433 -0.0124644)
(0.00638141 0.0241088 -0.0106854)
(0.00731182 0.0231944 -0.00869321)
(0.00737564 0.0220899 -0.00681134)
(0.00675587 0.0209198 -0.00521745)
(0.00564853 0.0198136 -0.0039762)
(0.00422058 0.0188844 -0.00308647)
(0.00259905 0.0182183 -0.00251981)
(0.000876418 0.0178632 -0.00224462)
(0.00154662 0.0321007 -0.012327)
(0.0038171 0.0314179 -0.0111562)
(0.00532096 0.0301913 -0.00937096)
(0.00598213 0.0285762 -0.00744553)
(0.005926 0.0267718 -0.00569213)
(0.00534279 0.024977 -0.00425654)
(0.00441001 0.0233607 -0.00317149)
(0.00326367 0.0220507 -0.00241256)
(0.00199712 0.0211343 -0.00193798)
(0.000671191 0.0206544 -0.00171019)
(0.00106421 0.0418864 -0.00892483)
(0.00259249 0.0405911 -0.00793693)
(0.00354018 0.0384237 -0.00649903)
(0.00389163 0.0357676 -0.005023)
(0.00377506 0.0329767 -0.00373841)
(0.00334322 0.0303344 -0.00272769)
(0.00272082 0.028045 -0.00198899)
(0.00199303 0.0262417 -0.0014859)
(0.00121179 0.0250045 -0.00117719)
(0.000407074 0.0243651 -0.00103069)
(0.000104472 0.0255957 -0.000632142)
(0.000268403 0.0246268 -0.000679091)
(0.000393301 0.0230743 -0.000623692)
(0.000434785 0.021247 -0.000503809)
(0.000407514 0.0193853 -0.000373124)
(0.000343661 0.0176662 -0.000264274)
(0.000267186 0.0162068 -0.000187474)
(0.000188795 0.0150751 -0.000138156)
(0.000112092 0.014307 -0.000109325)
(3.91355e-05 0.0139145 -9.62271e-05)
(0.002221 0.0380449 -0.00782336)
(0.00547439 0.0380963 -0.00358667)
(0.00778354 0.0373651 -0.00452291)
(0.00879867 0.0352808 -0.00531679)
(0.00840659 0.0325999 -0.00473561)
(0.00738739 0.0299616 -0.00401387)
(0.006082 0.0276637 -0.00348047)
(0.004542 0.0258579 -0.00310828)
(0.00279057 0.024624 -0.00286492)
(0.000989946 0.0239989 -0.0027192)
(0.0611011 0.162254 -0.474621)
(0.187917 0.113661 -0.272394)
(0.227977 0.0807397 -0.128494)
(0.181525 0.0733592 -0.0745901)
(0.131308 0.0657089 -0.0521101)
(0.0963456 0.0584 -0.041216)
(0.0698026 0.0530229 -0.0352097)
(0.047594 0.0493979 -0.0316435)
(0.0276822 0.047232 -0.0294699)
(0.0089222 0.0457277 -0.0277974)
(0.0755519 0.374146 -0.197194)
(0.161811 0.306646 -0.125801)
(0.169014 0.227822 -0.0767806)
(0.140649 0.171715 -0.0514411)
(0.111614 0.13701 -0.0405029)
(0.0867372 0.115024 -0.0351312)
(0.0648392 0.100835 -0.0318807)
(0.0450159 0.0917705 -0.029692)
(0.0264873 0.0863604 -0.0282156)
(0.00854057 0.0822939 -0.0267903)
(0.0411253 0.370311 -0.0435431)
(0.084625 0.314913 -0.0341248)
(0.095581 0.253966 -0.0272343)
(0.0904053 0.208019 -0.024174)
(0.0787817 0.175813 -0.0235191)
(0.0648162 0.153179 -0.0234726)
(0.0502733 0.137443 -0.0233792)
(0.0357308 0.126838 -0.0231147)
(0.0213177 0.120268 -0.0227784)
(0.00689294 0.11481 -0.0219521)
(0.0194227 0.302831 -0.00394548)
(0.0444694 0.277023 -0.00617283)
(0.0566052 0.245956 -0.0086537)
(0.0585843 0.217756 -0.0109902)
(0.0542174 0.194484 -0.0132257)
(0.0465349 0.176244 -0.0150759)
(0.037184 0.162525 -0.0163635)
(0.0269511 0.152745 -0.0171096)
(0.0162644 0.146452 -0.0174582)
(0.00525533 0.140386 -0.0170431)
(0.0110467 0.265984 -0.00180513)
(0.0270011 0.254651 -0.00237563)
(0.0359642 0.23811 -0.00376584)
(0.0386569 0.220486 -0.00562814)
(0.036968 0.204266 -0.00771958)
(0.0325773 0.190492 -0.0096414)
(0.0265436 0.179484 -0.011153)
(0.019491 0.171282 -0.0121905)
(0.0118475 0.165842 -0.0128035)
(0.00380641 0.159532 -0.0125997)
(0.00669471 0.250458 -0.00106201)
(0.016914 0.243878 -0.000723367)
(0.0228955 0.23338 -0.00131971)
(0.0251056 0.22144 -0.00257209)
(0.0244767 0.209783 -0.00419649)
(0.0219195 0.199374 -0.00582345)
(0.0180766 0.19072 -0.00721079)
(0.0133752 0.184081 -0.00824894)
(0.00815707 0.179583 -0.00891861)
(0.00258668 0.173152 -0.00881164)
(0.00390037 0.241605 0.00128339)
(0.0101652 0.237227 0.00173568)
(0.0138215 0.229894 0.00117941)
(0.0153269 0.221291 7.60128e-05)
(0.0151146 0.212591 -0.00135604)
(0.0136721 0.204581 -0.00281392)
(0.0113592 0.197758 -0.0040925)
(0.00843507 0.192429 -0.00508664)
(0.00514147 0.188764 -0.00575344)
(0.00158562 0.182223 -0.00569702)
(0.00199596 0.234868 0.00456404)
(0.00534895 0.231739 0.00483417)
(0.00715675 0.226316 0.00392655)
(0.0079907 0.219882 0.00267564)
(0.00792247 0.213222 0.00118178)
(0.00720736 0.206968 -0.00027877)
(0.00601046 0.201554 -0.00154262)
(0.0044568 0.197274 -0.00252839)
(0.00269448 0.194295 -0.00319549)
(0.000770724 0.18762 -0.00317802)
(0.000584836 0.228499 0.00804869)
(0.00173012 0.226204 0.00801294)
(0.00213007 0.222057 0.00658107)
(0.00239131 0.217179 0.00510863)
(0.00233133 0.212011 0.00343872)
(0.00210629 0.207087 0.00188448)
(0.00173859 0.202774 0.000569692)
(0.00125168 0.199331 -0.000445574)
(0.00070991 0.196907 -0.00112793)
(0.000107127 0.190069 -0.00115102)
(-0.00041643 0.221802 0.010921)
(-0.000981107 0.220109 0.0106149)
(-0.00169279 0.216993 0.00880757)
(-0.00188078 0.213302 0.00719007)
(-0.00202038 0.209304 0.00535582)
(-0.00191831 0.20542 0.00369888)
(-0.00167414 0.201964 0.0023171)
(-0.00133086 0.199186 0.00125372)
(-0.000900888 0.197206 0.000552266)
(-0.000435501 0.190165 0.000484323)
(-0.00117331 0.214843 0.012929)
(-0.00295832 0.213579 0.0124598)
(-0.00447317 0.211336 0.0105326)
(-0.00509774 0.208531 0.00882809)
(-0.00537736 0.205422 0.00690435)
(-0.00509059 0.202342 0.00517309)
(-0.00439535 0.199562 0.00373016)
(-0.00340765 0.197297 0.0026264)
(-0.00222166 0.195688 0.00189387)
(-0.000891906 0.188379 0.00179313)
(0.00231242 0.0018978 -0.0188871)
(0.00582737 0.00196623 -0.0178178)
(0.00849977 0.00206677 -0.0160006)
(0.0100619 0.00216119 -0.0137789)
(0.0104774 0.00222474 -0.011483)
(0.00987017 0.00225037 -0.00936491)
(0.00844382 0.00224485 -0.0075839)
(0.0064188 0.00222204 -0.00622222)
(0.00399799 0.00219682 -0.00531133)
(0.00135623 0.00218031 -0.00485456)
(0.00238964 0.00599795 -0.0200024)
(0.00601075 0.0061841 -0.0187822)
(0.00871647 0.00644771 -0.0167358)
(0.0102465 0.00667999 -0.0142754)
(0.0105948 0.00681506 -0.0117748)
(0.00991713 0.00683971 -0.0095032)
(0.00843837 0.00677941 -0.00761922)
(0.00638798 0.00667818 -0.00619515)
(0.00396763 0.00658126 -0.00525066)
(0.00134365 0.00652055 -0.0047797)
(0.00251085 0.0110015 -0.0218841)
(0.00628629 0.0112369 -0.020367)
(0.00900914 0.0115375 -0.0178888)
(0.0104454 0.0117455 -0.0149933)
(0.010654 0.0117808 -0.0121343)
(0.00985039 0.0116476 -0.00960735)
(0.00829572 0.0114047 -0.00756215)
(0.00623069 0.0111316 -0.00604757)
(0.00384955 0.0109032 -0.00505852)
(0.00130023 0.0107696 -0.00457022)
(0.00263359 0.0174345 -0.0240044)
(0.00654218 0.0175868 -0.022076)
(0.00921731 0.0176913 -0.0190233)
(0.0104796 0.0175895 -0.015581)
(0.0104856 0.0172395 -0.0123014)
(0.00952987 0.0166998 -0.00949903)
(0.00791261 0.0160805 -0.00729938)
(0.00587904 0.0154992 -0.00571211)
(0.0036061 0.0150546 -0.00469571)
(0.00121359 0.0148082 -0.00420018)
(0.00266733 0.0256368 -0.0253187)
(0.00654506 0.0254759 -0.0229279)
(0.00901354 0.0250177 -0.0192974)
(0.00999453 0.0241994 -0.0153778)
(0.00976446 0.0230931 -0.011798)
(0.0086911 0.0218501 -0.00885684)
(0.00709457 0.0206389 -0.00662627)
(0.00520423 0.0196063 -0.00506196)
(0.00316508 0.0188609 -0.00408157)
(0.00106064 0.0184631 -0.00361016)
(0.00245551 0.0351408 -0.0240556)
(0.00592685 0.0343873 -0.0213977)
(0.00794373 0.0329559 -0.0175309)
(0.00855639 0.0310095 -0.013553)
(0.00813646 0.0288118 -0.0100843)
(0.00707521 0.0266291 -0.00735152)
(0.00566821 0.0246774 -0.0053531)
(0.00410048 0.0231092 -0.00399259)
(0.00247115 0.0220207 -0.00315879)
(0.000824204 0.021455 -0.0027635)
(0.00185763 0.0498969 -0.0188679)
(0.00436747 0.0477559 -0.016297)
(0.00564037 0.0443712 -0.01281)
(0.00585166 0.0404543 -0.00949968)
(0.00538327 0.0365435 -0.00680703)
(0.00455521 0.0329946 -0.00480335)
(0.00357315 0.0300213 -0.00340302)
(0.00254622 0.0277396 -0.002482)
(0.00152011 0.0262031 -0.00193095)
(0.000505843 0.0254201 -0.0016734)
(5.64734e-05 0.0319565 -0.0016181)
(0.000247595 0.0302546 -0.00162187)
(0.000507604 0.0275573 -0.00131915)
(0.00060639 0.0246198 -0.000988781)
(0.00057325 0.0218535 -0.000703316)
(0.00047291 0.0194458 -0.000483556)
(0.000354623 0.0174902 -0.000331511)
(0.0002426 0.0160236 -0.000236939)
(0.000140917 0.0150513 -0.000183493)
(4.82915e-05 0.0145627 -0.000159749)
(0.00480793 0.0506099 -0.0529844)
(0.00864731 0.0461097 -0.0288522)
(0.00630665 0.0426829 -0.00784464)
(0.00766025 0.0400094 -0.0064813)
(0.00872826 0.0363618 -0.00704429)
(0.00799017 0.0327434 -0.00638819)
(0.00659139 0.0296938 -0.00562341)
(0.0049315 0.0273706 -0.0050575)
(0.00304188 0.0258179 -0.00467488)
(0.00107657 0.0250428 -0.00444009)
(0.0114654 0.315014 -0.985764)
(0.0984987 0.258533 -0.732448)
(0.196682 0.140945 -0.307858)
(0.21158 0.0800061 -0.119662)
(0.15348 0.0705222 -0.082811)
(0.107254 0.0632702 -0.0694821)
(0.0760323 0.0565704 -0.0607524)
(0.0514189 0.052074 -0.0548052)
(0.0298841 0.0494381 -0.0508328)
(0.0096312 0.0477189 -0.0477448)
(0.0453372 0.425151 -0.403155)
(0.151057 0.39562 -0.219587)
(0.193398 0.293515 -0.102409)
(0.163437 0.207081 -0.0712705)
(0.121841 0.157958 -0.0617253)
(0.0918882 0.128842 -0.0571169)
(0.0682162 0.11042 -0.0536551)
(0.0473942 0.098881 -0.0505569)
(0.0279835 0.0920565 -0.0480717)
(0.00902807 0.0872866 -0.0455609)
(0.0407614 0.443726 -0.0201619)
(0.0913472 0.379102 -0.00698949)
(0.101481 0.296545 -0.0182135)
(0.0918356 0.233444 -0.0275229)
(0.0782915 0.193093 -0.0330912)
(0.0643526 0.16604 -0.036662)
(0.0502509 0.147447 -0.0383074)
(0.036033 0.134959 -0.0385904)
(0.0216644 0.127199 -0.0382356)
(0.00701259 0.121089 -0.036873)
(0.0185367 0.3255 0.0281866)
(0.0417918 0.295268 0.0133923)
(0.0526679 0.259862 -0.00160992)
(0.0547268 0.229156 -0.0111492)
(0.0509395 0.204557 -0.0181435)
(0.0441124 0.185267 -0.0231813)
(0.0356557 0.170601 -0.026403)
(0.0261466 0.160003 -0.0281639)
(0.0159196 0.153092 -0.0289463)
(0.00514245 0.146618 -0.028306)
(0.01042 0.266198 0.00562444)
(0.0255914 0.256779 0.0025593)
(0.0334905 0.242131 -0.00195327)
(0.0357562 0.225678 -0.00652757)
(0.0340912 0.210107 -0.0110841)
(0.0301526 0.19661 -0.0149977)
(0.0247672 0.185596 -0.0179626)
(0.0183546 0.177224 -0.0199334)
(0.0112336 0.171575 -0.0210619)
(0.00359447 0.165059 -0.0207538)
(0.00670939 0.252005 -0.00144948)
(0.0167736 0.246164 9.65171e-05)
(0.0216229 0.236447 -0.0010712)
(0.0231364 0.225137 -0.00338189)
(0.0222573 0.213982 -0.00633583)
(0.0198708 0.20392 -0.00923206)
(0.0164378 0.195442 -0.01167)
(0.012227 0.188841 -0.0134704)
(0.00748392 0.18431 -0.014616)
(0.00234799 0.17778 -0.0144436)
(0.00409503 0.245472 0.00110447)
(0.0101906 0.240962 0.00321255)
(0.0127265 0.233456 0.00226115)
(0.0136349 0.224847 0.000411365)
(0.0131793 0.216213 -0.00205083)
(0.0118423 0.208303 -0.00452472)
(0.00984494 0.201559 -0.00667276)
(0.00733062 0.196264 -0.00832883)
(0.00447071 0.1926 -0.00943114)
(0.00134505 0.186 -0.00932781)
(0.00210616 0.239733 0.00726342)
(0.00498734 0.236132 0.00881259)
(0.00571348 0.230083 0.00685086)
(0.00616099 0.223363 0.00467263)
(0.00594953 0.216492 0.00203948)
(0.00539387 0.210145 -0.000447012)
(0.00451866 0.204692 -0.00255793)
(0.00336218 0.200392 -0.00418383)
(0.00202388 0.1974 -0.00527518)
(0.000529967 0.190672 -0.00523144)
(0.000493672 0.233049 0.0141428)
(0.00075678 0.230206 0.0145766)
(0.000157175 0.225443 0.0113164)
(0.00029921 0.220294 0.00879142)
(0.000176162 0.214859 0.00574201)
(0.000198138 0.209785 0.00306524)
(0.000196972 0.205377 0.000853394)
(0.000130399 0.201879 -0.000822824)
(2.32423e-05 0.199426 -0.00193992)
(-0.000139691 0.192533 -0.00196346)
(-0.000727416 0.225187 0.0194608)
(-0.00240808 0.223056 0.0189978)
(-0.00399541 0.219668 0.0150833)
(-0.00416776 0.215805 0.0122142)
(-0.00435251 0.21162 0.00889322)
(-0.0039424 0.207621 0.00600656)
(-0.00329051 0.204089 0.00365292)
(-0.0024939 0.201254 0.00189743)
(-0.00161427 0.19925 0.000735863)
(-0.000693666 0.192147 0.000645923)
(-0.00159657 0.216874 0.0227986)
(-0.00456458 0.215446 0.0219929)
(-0.00688829 0.213228 0.0178741)
(-0.00749555 0.210367 0.0148633)
(-0.00780622 0.207195 0.0113748)
(-0.00719259 0.20406 0.00836481)
(-0.00607751 0.201243 0.00591541)
(-0.00461995 0.198949 0.00407794)
(-0.0029566 0.197337 0.00287049)
(-0.00115231 0.189941 0.0027264)
(0.00302386 0.00117905 -0.0264334)
(0.00760461 0.00134853 -0.024811)
(0.0109749 0.00160101 -0.0220955)
(0.0128153 0.00185102 -0.0188338)
(0.0131525 0.00204607 -0.0155248)
(0.0122211 0.00216867 -0.0125227)
(0.0103303 0.00222715 -0.0100348)
(0.00777813 0.00224249 -0.00815489)
(0.00481267 0.00223751 -0.00690821)
(0.00162705 0.00222948 -0.00628652)
(0.00320933 0.00397846 -0.0285202)
(0.00804077 0.00446976 -0.0266036)
(0.0115005 0.00517897 -0.0234499)
(0.0132903 0.00586088 -0.0197507)
(0.0135033 0.00636842 -0.0160753)
(0.0124345 0.00666143 -0.0128047)
(0.0104319 0.0067735 -0.0101393)
(0.00780951 0.00677174 -0.00815297)
(0.00481336 0.0067256 -0.00684917)
(0.00162371 0.00668538 -0.00620331)
(0.00355248 0.00818217 -0.0323398)
(0.00881507 0.00891022 -0.0297966)
(0.0123811 0.00990372 -0.0257768)
(0.0140233 0.0107831 -0.021232)
(0.013973 0.0113488 -0.0168796)
(0.0126452 0.011577 -0.0131353)
(0.0104568 0.01155 -0.0101739)
(0.00774242 0.01139 -0.00802111)
(0.00473691 0.0112128 -0.00663434)
(0.00159204 0.0110974 -0.00595563)
(0.00399005 0.0148082 -0.0371665)
(0.00975947 0.01559 -0.0337083)
(0.0133664 0.0165171 -0.0284577)
(0.0147245 0.0171433 -0.0227702)
(0.0142839 0.0173077 -0.0175543)
(0.012622 0.017069 -0.0132487)
(0.010233 0.0165916 -0.0099683)
(0.00746312 0.0160566 -0.00765762)
(0.00452018 0.0156151 -0.00620446)
(0.00151156 0.015362 -0.0055041)
(0.00439831 0.0250139 -0.0416402)
(0.0105285 0.0254174 -0.0369469)
(0.0139378 0.0255977 -0.0302277)
(0.0148153 0.02522 -0.0233498)
(0.0138987 0.0243055 -0.0173633)
(0.0119285 0.0230664 -0.0126513)
(0.00944359 0.0217592 -0.00921064)
(0.00676521 0.0206034 -0.00687235)
(0.00404899 0.0197547 -0.00544063)
(0.00134596 0.0192994 -0.00476215)
(0.00443833 0.0385613 -0.0423111)
(0.010353 0.0380501 -0.0366327)
(0.0131763 0.0366766 -0.028926)
(0.0134355 0.0344519 -0.0214819)
(0.0121308 0.0317608 -0.0153564)
(0.0100753 0.0290288 -0.0107794)
(0.0077692 0.0265826 -0.00758607)
(0.00545792 0.0246295 -0.00549551)
(0.00322476 0.0232839 -0.00425068)
(0.001065 0.0225902 -0.00367104)
(0.00388645 0.0639232 -0.0375893)
(0.00867335 0.0600928 -0.0310823)
(0.0103572 0.0545078 -0.0230488)
(0.00990557 0.0482383 -0.0160534)
(0.00847608 0.0422806 -0.010845)
(0.0067488 0.0371408 -0.00726785)
(0.0050425 0.033017 -0.00492869)
(0.00346504 0.0299563 -0.00346736)
(0.00201946 0.0279441 -0.00262482)
(0.000663788 0.0269362 -0.0022398)
(0.000185294 0.0438858 -0.00455145)
(0.000620893 0.0405432 -0.00485551)
(0.00103019 0.0358182 -0.00323059)
(0.00104942 0.0306091 -0.00192211)
(0.000912276 0.0260115 -0.00119449)
(0.000714961 0.0223089 -0.000764662)
(0.000513655 0.0194793 -0.000501327)
(0.000336973 0.017449 -0.000344129)
(0.000189796 0.016144 -0.000258306)
(6.34836e-05 0.0155015 -0.000221145)
(0.00778435 0.0922355 -0.191251)
(0.0227966 0.0749096 -0.11202)
(0.0192513 0.057853 -0.039348)
(0.00825443 0.0481591 -0.00979858)
(0.00786129 0.0424052 -0.00764336)
(0.00843698 0.0371385 -0.00804353)
(0.00730469 0.0328051 -0.00747847)
(0.00552023 0.0296228 -0.00679)
(0.00343343 0.0275573 -0.00628076)
(0.00121378 0.0265426 -0.00596072)
(0.041301 0.322937 -1.13163)
(0.12462 0.323405 -1.0635)
(0.142459 0.302679 -0.704936)
(0.177596 0.157856 -0.258502)
(0.167166 0.0819217 -0.12169)
(0.120244 0.0697807 -0.101854)
(0.0845906 0.06256 -0.0907026)
(0.0575026 0.0566705 -0.0817285)
(0.0337132 0.053147 -0.0748624)
(0.0109271 0.0510026 -0.0696723)
(-0.0113882 0.140371 -0.662262)
(0.0444991 0.351227 -0.412798)
(0.111704 0.378059 -0.159665)
(0.147495 0.271693 -0.0748865)
(0.126217 0.193275 -0.0773444)
(0.0952952 0.151897 -0.0785814)
(0.0714251 0.126893 -0.0766851)
(0.0505839 0.111098 -0.073227)
(0.0303528 0.101694 -0.0694195)
(0.0098564 0.0956114 -0.0655364)
(0.0013219 0.379207 -0.0010992)
(0.0359577 0.380117 0.0421572)
(0.0668523 0.332197 0.0285151)
(0.0766915 0.267243 -0.0111397)
(0.0700242 0.218094 -0.0346439)
(0.0596244 0.185785 -0.046416)
(0.0483266 0.163511 -0.0521998)
(0.035794 0.148191 -0.0540294)
(0.0220196 0.138467 -0.0538522)
(0.00717822 0.131238 -0.0519882)
(0.00705326 0.297904 0.081074)
(0.0237949 0.282351 0.0580942)
(0.0368302 0.262863 0.0210609)
(0.043041 0.238903 -0.00300804)
(0.0423054 0.216515 -0.0182316)
(0.0382696 0.197822 -0.0285398)
(0.0321831 0.182716 -0.0350329)
(0.0244018 0.171233 -0.0384791)
(0.0152118 0.16346 -0.0399298)
(0.00493381 0.156361 -0.0391846)
(0.00880399 0.249995 0.016381)
(0.0221594 0.247264 0.0123861)
(0.027927 0.240281 0.00290918)
(0.0298193 0.22899 -0.00486889)
(0.0285698 0.216554 -0.0124644)
(0.0256985 0.204735 -0.0188878)
(0.0215963 0.194392 -0.0237344)
(0.0163864 0.186083 -0.0269016)
(0.0102077 0.180243 -0.028654)
(0.00325369 0.173454 -0.0283399)
(0.00769511 0.254697 -0.00698946)
(0.0176601 0.247908 -0.000211078)
(0.0196666 0.238736 -0.000990833)
(0.0199657 0.22897 -0.00360683)
(0.0186644 0.219199 -0.00776507)
(0.0165834 0.210093 -0.0119349)
(0.0138303 0.202171 -0.0154781)
(0.0104237 0.195797 -0.0180883)
(0.00644544 0.191297 -0.0197229)
(0.0019864 0.184651 -0.0195509)
(0.00558858 0.258247 -0.00283555)
(0.0115501 0.248729 0.00414123)
(0.0112053 0.238743 0.00302436)
(0.0111009 0.229828 0.00101634)
(0.0102034 0.221277 -0.00241669)
(0.00904848 0.213566 -0.0058782)
(0.00754967 0.207004 -0.00886757)
(0.00567066 0.201811 -0.0111643)
(0.00347337 0.198181 -0.0126774)
(0.00099045 0.191507 -0.0125759)
(0.00332201 0.256148 0.00883012)
(0.00520149 0.245796 0.0136786)
(0.00320691 0.236263 0.00991073)
(0.00326211 0.22873 0.00713809)
(0.00282852 0.221313 0.0031778)
(0.00261156 0.214747 -0.00040656)
(0.00227053 0.209206 -0.00336476)
(0.0017332 0.204872 -0.0056109)
(0.0010357 0.201862 -0.00709792)
(0.00017682 0.195058 -0.00707205)
(0.000856668 0.248838 0.0203455)
(-0.000814299 0.238938 0.0227803)
(-0.00345877 0.231135 0.0166194)
(-0.00309376 0.225163 0.01319)
(-0.00336344 0.219148 0.00838685)
(-0.00277586 0.213726 0.00438783)
(-0.00215014 0.209112 0.00122016)
(-0.00154793 0.205506 -0.00112475)
(-0.000993827 0.202997 -0.00265978)
(-0.00050427 0.196024 -0.00272504)
(-0.00112047 0.238285 0.0288039)
(-0.00507215 0.229859 0.0294296)
(-0.00827304 0.2243 0.0222856)
(-0.00797369 0.219753 0.0181611)
(-0.00818975 0.215169 0.0127482)
(-0.00714785 0.210869 0.00837601)
(-0.00578171 0.20714 0.00496254)
(-0.00425402 0.204179 0.00248204)
(-0.00267549 0.202125 0.000871988)
(-0.00107201 0.194912 0.000715718)
(-0.00219109 0.227285 0.0332078)
(-0.00759678 0.220294 0.0331019)
(-0.0113933 0.216557 0.026031)
(-0.0114902 0.213373 0.0217923)
(-0.0118298 0.209963 0.0160795)
(-0.0105342 0.206655 0.0115137)
(-0.00867768 0.203701 0.00795639)
(-0.00645841 0.201305 0.00535658)
(-0.00406138 0.19966 0.00368004)
(-0.00154605 0.192132 0.00343832)
(0.00406289 -0.000145641 -0.0335287)
(0.0101647 0.000218509 -0.0312397)
(0.0144768 0.000757696 -0.0274879)
(0.016633 0.00128771 -0.0231038)
(0.0167889 0.00171306 -0.018774)
(0.0153604 0.00200133 -0.0149322)
(0.0128116 0.00216729 -0.0118072)
(0.00954523 0.002246 -0.00948106)
(0.00586319 0.00227447 -0.00795535)
(0.00197485 0.00228051 -0.00719985)
(0.0044548 0.000116358 -0.0371062)
(0.0110766 0.0012241 -0.0342625)
(0.0155647 0.00279224 -0.0297362)
(0.0176179 0.00430657 -0.0246221)
(0.0175392 0.00548261 -0.0196916)
(0.0158525 0.00624628 -0.0154213)
(0.01309 0.00665611 -0.0120193)
(0.00967824 0.00682492 -0.00952949)
(0.00591441 0.0068661 -0.00791683)
(0.00198656 0.0068614 -0.00712465)
(0.00526264 0.00233035 -0.0441151)
(0.0128495 0.00410748 -0.0400497)
(0.0175737 0.00650611 -0.033917)
(0.0193427 0.00870483 -0.027288)
(0.0187509 0.010284 -0.0211919)
(0.0165562 0.0111891 -0.0161249)
(0.0134098 0.0115642 -0.0122336)
(0.00977012 0.0116176 -0.00947128)
(0.00591205 0.0115401 -0.00772262)
(0.001976 0.0114618 -0.00687616)
(0.00639524 0.00811264 -0.0539311)
(0.0152555 0.0104191 -0.0479249)
(0.02016 0.0132288 -0.0393229)
(0.021386 0.0154653 -0.0304948)
(0.0200085 0.0167528 -0.0227839)
(0.0171163 0.0171825 -0.016693)
(0.0135036 0.0170431 -0.0122232)
(0.00964264 0.0166475 -0.00916978)
(0.00575676 0.0162479 -0.00729267)
(0.00191117 0.0160013 -0.00640096)
(0.00779911 0.0204657 -0.0655492)
(0.0179758 0.0225306 -0.0564205)
(0.0226258 0.0245359 -0.0443861)
(0.0228674 0.0254808 -0.0328825)
(0.0204664 0.0252881 -0.0234664)
(0.0168446 0.0243182 -0.0164487)
(0.0128734 0.0230204 -0.0115623)
(0.00897388 0.0217678 -0.00836865)
(0.00527269 0.0208142 -0.00646945)
(0.00173664 0.0202957 -0.00558576)
(0.00870827 0.0391692 -0.0727509)
(0.0193447 0.040239 -0.0603702)
(0.0231224 0.0401217 -0.0453409)
(0.0221415 0.0382983 -0.031983)
(0.0188449 0.0353266 -0.0217146)
(0.0148469 0.0320105 -0.0145133)
(0.010952 0.0289578 -0.00977312)
(0.00743543 0.0265128 -0.00681672)
(0.00429349 0.0248352 -0.00511883)
(0.00140184 0.0239762 -0.00434598)
(0.00914931 0.0863386 -0.0753051)
(0.0190189 0.0787825 -0.0585683)
(0.0207361 0.0697534 -0.0405223)
(0.0180863 0.0598901 -0.0262118)
(0.0141787 0.0506049 -0.0163933)