/*--------------------------------*- C++ -*----------------------------------*\
| =========                 |                                                 |
| \\      /  F ield         | OpenFOAM: The Open Source CFD Toolbox           |
|  \\    /   O peration     | Version:  2312                                  |
|   \\  /    A nd           | Website:  www.openfoam.com                      |
|    \\/     M anipulation  |                                                 |
\*---------------------------------------------------------------------------*/
FoamFile
{
    version     2.0;
    format      ascii;
    arch        "LSB;label=32;scalar=64";
    class       volScalarField;
    location    "0.395";
    object      p_rgh;
}
// * * * * * * * * * * * * * * * * * * * * * * * * * * * * * * * * * * * * * //

dimensions      [1 -1 -2 0 0 0 0];

internalField   nonuniform List<scalar> 
8000
(
364.257
365.623
368.235
371.832
375.965
380.204
384.129
387.384
389.678
390.833
361.453
362.983
365.979
370.074
374.752
379.52
383.901
387.507
390.036
391.31
355.351
357.311
361.135
366.31
372.168
378.074
383.425
387.764
390.778
392.297
344.691
347.385
352.921
360.093
368.056
375.919
382.892
388.419
392.184
394.057
330.114
333.457
340.992
350.862
361.919
372.741
382.135
389.34
394.105
396.415
261.799
277.75
313.734
337.571
354.021
369.169
382.079
391.635
397.78
400.721
51.7269
65.763
100.558
181.784
284.273
351.782
383.799
396.547
404.385
408.039
1.68636
1.28379
0.84578
5.54363
56.874
173.346
300.615
375.796
404.784
414.637
0.859756
0.595497
0.427814
0.417014
0.613493
22.5419
102.083
208.611
278.848
304.643
0.515538
0.320653
0.217489
0.143403
0.102474
0.121063
0.365837
7.61997
27.4875
39.5905
0.453748
0.210482
0.153585
0.0979373
0.0550401
0.00686607
0.00839075
0.0419834
0.0927952
0.150607
0.40367
0.175814
0.135266
0.100703
0.0838215
0.0207818
0.00422966
-0.0239144
-0.0236278
-0.0165807
0.376244
0.140386
0.11347
0.0898707
0.0737444
0.0364801
0.0124764
-0.0027486
-0.00784594
-0.013779
0.36868
0.107699
0.0996587
0.0812963
0.065274
0.0520827
0.0398946
0.0303128
0.0209761
0.0142167
0.369719
0.089088
0.0980299
0.0806244
0.0817918
0.0684764
0.0638288
0.0611606
0.0574133
0.0542489
0.37943
0.0866322
0.0929707
0.102296
0.104887
0.10118
0.0968978
0.0745499
0.0720886
0.0731037
0.39387
0.127741
0.0888349
0.0970532
0.107653
0.0943681
0.0850514
0.0757383
0.0735647
0.0740099
0.405218
0.278037
0.104043
0.0698833
0.0744731
0.0727984
0.0719767
0.0708293
0.0702637
0.0703189
0.168668
0.295052
0.187116
0.0519947
0.0599219
0.065375
0.067491
0.0682913
0.0688668
0.0690973
0.0687089
0.302022
0.140294
0.0429447
0.0541109
0.0610375
0.0641272
0.0659335
0.0670151
0.0675058
365.639
366.968
369.505
373.001
377.02
381.147
384.967
388.133
390.364
391.489
363.004
364.485
367.394
371.374
375.912
380.536
384.788
388.29
390.736
391.978
357.341
359.216
362.909
367.918
373.569
379.263
384.41
388.576
391.478
392.98
347.447
349.872
355.265
362.229
369.857
377.38
384.034
389.318
392.957
394.81
333.59
336.76
343.937
353.821
364.319
374.62
383.437
390.183
394.658
396.764
278.6
284.182
313.341
341.098
356.798
371.512
383.397
392.072
397.705
400.428
68.7168
82.446
120.631
199.993
293.569
359.299
384.643
395.622
402.397
405.625
1.34658
0.987665
1.37656
14.3046
71.5027
179.764
294.014
354.407
383.628
396.359
0.647777
0.405319
0.294027
0.231663
0.27097
14.3061
49.9641
93.7709
127.444
144.753
0.374212
0.217361
0.133248
0.0411269
0.0128932
-0.0301474
0.0235455
0.0858489
0.164033
0.463086
0.361862
0.172232
0.1265
0.0546551
0.00837191
-0.0319912
-0.0119482
-0.000378161
-0.0103986
-0.0222934
0.400848
0.144874
0.13072
0.0819586
0.028601
0.00279417
-0.0237156
-0.0445615
-0.0588285
-0.0679545
0.373162
0.112144
0.121683
0.0799621
0.0516747
0.0141706
-0.028973
-0.0664357
-0.0789381
-0.0722627
0.359864
0.0915955
0.177861
0.122923
0.0489398
0.0471994
-0.00011824
-0.0164927
-0.0218185
-0.0129293
0.356658
0.0819821
0.17643
0.160766
0.06128
0.0579615
0.0504323
0.0414633
0.0400304
0.0489521
0.369425
0.0817909
0.182677
0.15227
0.0827689
0.0864386
0.0880565
0.0727207
0.0677844
0.0684068
0.296915
0.158125
0.168917
0.0783454
0.0866024
0.0840325
0.0823755
0.0764249
0.0724055
0.0699036
0.172113
0.280585
0.119587
0.0651429
0.0688074
0.0719378
0.072954
0.0718598
0.070975
0.0703905
0.131387
0.291016
0.0798503
0.0472957
0.0554012
0.0631197
0.0669634
0.0682971
0.0690536
0.0691486
0.109642
0.296621
0.0860222
0.0359899
0.0482466
0.0582391
0.0634686
0.0656809
0.0669804
0.0675175
368.277
369.53
371.924
375.232
379.038
382.955
386.587
389.602
391.728
392.8
366.03
367.424
370.146
373.88
378.147
382.508
386.526
389.831
392.151
393.321
361.201
362.949
366.393
371.037
376.291
381.591
386.386
390.298
393.02
394.394
353.031
355.333
360.221
366.475
373.412
380.258
386.324
391.134
394.446
396.1
341.195
344.083
351.303
359.758
369.214
378.381
386.185
392.241
396.327
398.324
315.209
315.095
333.985
350.49
363.996
376.439
386.439
393.946
398.899
401.324
103.779
125.623
177.071
253.661
325.056
373.656
387.581
396.592
402.249
404.889
0.92228
1.69066
11.2037
40.4803
108.464
204.166
283.047
332.783
363.18
378.89
0.498248
0.329716
0.255878
0.165425
2.11375
17.6755
38.6829
63.9755
82.4061
91.9983
0.269769
0.153996
0.100035
0.0308855
-0.0280307
-0.022835
0.046073
0.0769052
0.0947422
0.12241
0.198468
0.130501
0.118662
0.0705807
0.0262474
-0.00150702
0.00843808
0.0219695
0.0279053
0.0247784
0.363137
0.139964
0.128626
0.0741919
0.0325149
0.0129564
-0.00950679
-0.0222472
-0.0302026
-0.0263777
0.350212
0.116366
0.102718
0.076125
0.0415735
0.0184973
-0.0205275
-0.0421298
-0.0479274
-0.0230981
0.229271
0.0800136
0.0707598
0.101803
0.0432006
0.0245553
0.00121929
-0.0123832
-0.0133768
0.00215616
0.122771
0.0667546
0.0868498
0.129561
0.0611974
0.0528307
0.045727
0.0357672
0.0312197
0.0324442
0.0975265
0.069324
0.0979935
0.121545
0.0732522
0.0704724
0.0681791
0.0648411
0.0580707
0.0553576
0.0943991
0.0687097
0.0999548
0.0832417
0.0720181
0.0717609
0.0724106
0.0706195
0.067526
0.0648218
0.121599
0.0604336
0.101716
0.0685741
0.063326
0.0670496
0.0690407
0.0688928
0.0684731
0.0679759
0.130201
0.0512237
0.076569
0.0540137
0.0541208
0.0606289
0.0649237
0.0666243
0.0674977
0.0677153
0.130487
0.0683984
0.0674816
0.0444529
0.0476435
0.0561271
0.0620736
0.0647283
0.0663011
0.0669526
371.903
373.057
375.263
378.318
381.85
385.496
388.889
391.716
393.708
394.716
370.157
371.437
373.915
377.33
381.251
385.275
388.992
392.074
394.236
395.327
366.413
367.992
371.078
375.267
380.029
384.842
389.223
392.814
395.317
396.575
360.237
362.306
366.525
372.046
378.186
384.237
389.634
393.98
396.975
398.484
351.058
353.766
359.815
367.301
375.564
383.433
390.201
395.559
399.196
401.02
337.964
341.32
350.67
361.368
372.647
382.781
391.12
397.675
402.009
404.168
184.122
201.376
253.185
310.433
361.421
382.649
392.666
399.942
404.656
406.858
6.45065
16.6818
41.9602
89.9294
169.839
252.241
309.662
350.807
374.91
387.149
0.484726
0.269778
0.189959
0.50906
7.3084
23.4055
46.5862
76.8738
97.4442
107.055
0.178539
0.0682101
0.0388337
-0.0208307
-0.0286109
0.00842541
0.050896
0.0650217
0.0736601
0.0786899
0.121253
0.0660649
0.0757869
0.0419247
0.0132363
0.0102713
0.0204624
0.0268165
0.0299143
0.0301751
0.148133
0.0828284
0.0721455
0.0371723
0.0213219
0.0131707
-0.000427756
-0.00601154
-0.00404009
0.00266089
0.140116
0.0648841
0.0425636
0.0383498
0.0284025
0.0110561
-0.00583658
-0.0171751
-0.0169825
-0.00181148
0.0755499
0.0482667
0.0479223
0.0537803
0.0463826
0.0307866
0.0157183
0.00413701
0.000469069
0.00604107
0.0625519
0.0617839
0.070347
0.0757517
0.0655839
0.0533923
0.0443674
0.0369481
0.030508
0.0289119
0.0684333
0.0722136
0.0815423
0.0844859
0.0734928
0.065768
0.0615295
0.057471
0.0529284
0.0506452
0.0660193
0.0681417
0.0745781
0.0788988
0.0711432
0.0681306
0.0666695
0.0649408
0.0629584
0.061538
0.0567969
0.0549573
0.0604973
0.0680367
0.065632
0.0658401
0.0659187
0.0658239
0.0658407
0.0655314
0.0485279
0.0394883
0.0477957
0.0573629
0.0583467
0.0612544
0.0634196
0.0648718
0.0661414
0.0663791
0.0624606
0.0320779
0.0402682
0.0468984
0.050072
0.0568491
0.061281
0.0637574
0.0658478
0.0664813
376.063
377.104
379.101
381.883
385.115
388.477
391.619
394.246
396.086
397.025
374.867
376.009
378.219
381.289
384.84
388.511
391.928
394.778
396.773
397.784
372.316
373.692
376.381
380.077
384.311
388.621
392.587
395.872
398.176
399.37
368.259
370.01
373.531
378.254
383.541
388.816
393.611
397.535
400.284
401.75
362.235
364.489
369.378
375.673
382.55
389.138
395.034
399.794
403.088
404.895
354.617
356.967
364.22
372.807
381.615
389.646
396.901
402.501
406.341
408.459
289.945
293.131
325.889
362.423
381.185
390.887
398.744
404.95
409.115
411.203
53.408
73.4731
111.107
171.111
243.779
302.654
353.138
383.59
397.325
402.15
0.718795
0.817172
4.46224
9.68831
19.468
37.6271
74.0012
111.291
133.138
138.536
0.11677
0.00615554
-0.043407
-0.0344338
-0.000113215
0.0328876
0.0587104
0.066747
0.0666121
0.0642318
0.0633272
0.00821959
0.0282988
0.0174108
0.0148816
0.0207925
0.0307403
0.032718
0.0317395
0.0293337
0.0734272
0.0318294
0.0274896
0.00689308
0.0132312
0.0193544
0.0193067
0.0135058
0.00796813
0.00984771
0.0611957
0.0379442
0.0217887
0.0159291
0.0210261
0.0191568
0.0130968
0.00585602
0.000611751
0.00359652
0.055416
0.0546884
0.0452944
0.0398406
0.0398289
0.0355215
0.0277706
0.0204827
0.015275
0.0176222
0.0643007
0.0730095
0.072871
0.0656133
0.0592651
0.0526899
0.0461727
0.0412043
0.0374171
0.0392567
0.0713308
0.0826425
0.0825476
0.0744242
0.0685407
0.0628862
0.0583398
0.0555797
0.0535349
0.0543378
0.068896
0.0754844
0.0733505
0.0705046
0.0692154
0.0659055
0.0630913
0.0619512
0.0616234
0.0620443
0.0608574
0.0607529
0.0602098
0.065061
0.0656668
0.0644945
0.0633134
0.0635184
0.0646876
0.0649533
0.0483926
0.0464795
0.0510859
0.0584414
0.0593931
0.0608855
0.0616199
0.0632099
0.0657583
0.0661891
0.0433443
0.0400365
0.0450016
0.0505808
0.0534892
0.0576717
0.0600249
0.0625447
0.0660466
0.0669641
380.331
381.26
383.047
385.559
388.505
391.597
394.503
396.943
398.621
399.55
379.664
380.665
382.612
385.345
388.543
391.891
395.037
397.681
399.519
400.528
378.26
379.43
381.726
384.934
388.665
392.524
396.13
399.155
401.307
402.513
376.161
377.595
380.434
384.358
388.876
393.503
397.797
401.392
403.986
405.482
373.106
374.923
378.643
383.631
389.241
394.897
400.126
404.462
407.584
409.42
369.631
371.904
376.796
383.062
389.832
396.716
402.837
407.919
411.575
413.69
353.436
359.085
374.158
383.035
391.037
398.385
405.308
411.222
415.422
417.542
165.552
182.352
207.514
253.137
304.666
352.857
389.022
405.764
412.566
413.136
23.358
17.3116
22.2785
29.0236
40.3634
72.0624
118.895
159.555
177.203
169.726
0.101075
-0.013944
-0.00438162
0.0159797
0.0349378
0.0464984
0.0578096
0.064295
0.133512
0.283761
0.0277899
-0.00302848
0.0265996
0.0207724
0.0212847
0.0213947
0.0247441
0.024698
0.0130144
0.0206067
0.0297682
-0.00542041
0.00544668
-0.00264307
0.0138373
0.0155399
0.0143997
0.00811558
-0.00278735
0.000324306
0.0355692
0.0119673
0.0053654
0.000645363
0.0157135
0.0178765
0.0130267
0.00455798
-0.00694106
-0.0123949
0.0487691
0.0427678
0.0327563
0.0240671
0.0319288
0.0320983
0.0278262
0.0219453
0.0120311
0.00437111
0.0633491
0.0647331
0.060203
0.0521906
0.0504084
0.0481084
0.0449776
0.0427411
0.0376701
0.0410006
0.0699829
0.076972
0.0743825
0.0657873
0.0617044
0.0589083
0.0561158
0.0558862
0.0546334
0.0587359
0.0683302
0.0749652
0.0715424
0.0665431
0.0648814
0.0630975
0.0605042
0.0609407
0.0615654
0.0634029
0.0629227
0.064406
0.0629629
0.0634021
0.0633042
0.0627133
0.0607151
0.0617336
0.0637873
0.063628
0.0564256
0.055622
0.0560062
0.0586371
0.059699
0.0602352
0.0594975
0.061418
0.0651617
0.0653453
0.0536971
0.0515318
0.0520895
0.0546513
0.0567289
0.0580041
0.0586346
0.0610918
0.065834
0.0667524
384.285
385.108
386.703
388.974
391.667
394.519
397.217
399.484
400.971
402.044
384.071
384.941
386.651
389.085
391.982
395.056
397.975
400.428
402.103
403.197
383.637
384.604
386.55
389.343
392.657
396.154
399.47
402.259
404.198
405.542
383.162
384.28
386.529
389.789
393.707
397.832
401.769
405.092
407.478
409.094
382.529
383.796
386.497
390.447
395.188
400.186
404.969
409.056
412.03
413.885
382.592
383.893
386.883
391.49
397.136
402.926
408.59
413.667
417.369
419.512
383.949
385.286
388.14
392.964
398.945
405.395
412.225
418.643
423.32
425.608
297.321
298.439
288.242
311.244
355.804
389.977
407.867
420.459
428.326
429.906
106.38
57.7166
45.644
53.9225
78.1343
120.99
170.174
220.713
254.471
239.676
0.322515
0.0325035
0.0477117
0.0475476
0.0464021
0.0412086
0.0618506
0.195632
1.35377
2.47325
0.0651531
0.171057
0.0772341
0.0334788
0.0250173
0.0160216
0.0188104
0.0115826
0.0779704
0.306004
0.004546
0.0590791
0.000939289
0.00946989
0.0210593
0.0104689
-0.000878798
-0.0193174
-0.0553003
0.017023
0.000731956
-0.0229099
-0.0100533
-0.000635759
0.0276906
0.0122647
0.00160923
-0.0163383
-0.0460636
-0.0456816
0.0251366
-0.00586877
0.000802368
0.0170095
0.0287557
0.0269662
0.022469
0.0138616
0.00172209
0.0101512
0.0506714
0.0398683
0.0385699
0.0415913
0.0451003
0.0440117
0.0432483
0.0439864
0.0402306
0.0605997
0.0641804
0.063559
0.0607152
0.0572163
0.0567536
0.0561358
0.0545876
0.0584746
0.0604677
0.0683064
0.0654376
0.0673165
0.0644672
0.0616434
0.067136
0.0631826
0.0573591
0.0609199
0.0635027
0.0683733
0.0621883
0.0629669
0.0615644
0.0609036
0.072091
0.0946466
0.0551557
0.0591755
0.0628234
0.0656329
0.058144
0.0583348
0.0581873
0.0585161
0.0716654
0.14671
0.0744084
0.0570293
0.0639
0.0662875
0.0561267
0.0560658
0.0561268
0.0566206
0.0644249
0.172781
0.0995496
0.0565824
0.0647089
0.0690345
387.556
388.292
389.736
391.816
394.302
396.956
399.437
401.751
403.187
404.03
387.693
388.458
389.973
392.18
394.84
397.7
400.423
402.784
404.372
405.44
387.986
388.782
390.472
392.943
395.947
399.177
402.257
404.885
406.579
408.099
388.697
389.573
391.348
394.142
397.633
401.42
405.088
408.164
410.306
412.022
389.732
390.547
392.543
395.798
399.942
404.515
409.055
412.877
415.579
417.527
392.196
392.6
394.427
398.021
402.701
408.006
413.696
418.808
422.363
424.62
397.251
396.283
397.026
400.146
405.054
411.28
418.688
425.744
430.556
433.23
378.755
360.201
338.855
352.695
383.658
405.435
420.77
433.301
440.521
444.174
220.871
104.897
70.8612
79.5096
110.129
158.903
225.298
333.936
409.51
392.817
10.4157
0.109369
0.0850868
0.0701652
0.0660856
0.0483094
0.186227
25.0187
151.86
178.543
0.0552966
0.226043
0.287803
0.143823
0.0819347
0.0130388
0.00358107
0.00441477
20.9063
110.538
-0.0265903
-0.0334325
0.0163787
0.243439
0.311446
0.124553
-0.0259223
-0.0927486
0.299895
94.0127
-0.0215566
-0.0670415
-0.017586
0.0236747
0.339558
0.281935
0.00274422
-0.0567348
-0.104022
21.8237
0.00867163
-0.0202083
-0.00270734
0.0182393
0.176466
0.12162
0.101088
0.0148528
0.176022
-0.0380083
0.0401935
0.0268326
0.0277911
0.0381712
0.0913437
0.117958
0.13975
0.0603292
0.32139
0.1142
0.0608493
0.0553917
0.0508054
0.051931
0.0577281
0.331002
0.157613
0.0659427
0.0950371
0.106702
0.0644117
0.062142
0.0591249
0.0578811
0.0599575
0.740341
0.200983
0.0581899
0.10081
0.0529896
0.0605277
0.0607692
0.0598037
0.0586321
0.117426
1.07078
0.157459
0.0497679
0.0673475
0.0654832
0.0588134
0.0586294
0.0583646
0.057467
0.238421
1.12576
0.0803003
0.046752
0.0605552
0.229654
0.0572774
0.0570878
0.057044
0.0561948
0.249053
1.1799
0.0597143
0.0467168
0.0664245
0.568494
389.87
390.542
391.878
393.821
396.15
398.639
400.987
403.184
404.7
405.398
390.237
390.916
392.308
394.356
396.838
399.527
402.084
404.294
405.93
406.867
391.006
391.678
393.198
395.449
398.245
401.293
404.114
406.423
408.242
409.142
392.465
393.214
394.656
397.13
400.365
403.954
407.314
409.955
411.961
412.877
394.485
395.009
396.615
399.403
403.207
407.577
411.843
415.2
417.172
417.958
398.303
398.187
399.297
402.272
406.488
411.626
417.266
421.991
424.288
424.986
405.111
402.967
402.548
404.744
409.122
415.494
423.396
430.221
433.238
433.988
408.561
387.533
367.192
375.267
394.995
410.78
428.334
439.953
443.377
444.352
291.551
136.044
86.3491
94.8029
124.291
168.712
258.297
415.095
456.778
440.94
32.7218
0.236277
0.119904
0.080978
0.0643685
0.125584
1.26412
160.482
480.005
439.055
0.0723811
0.0410317
0.322533
0.194299
0.0490631
0.00609634
0.0784396
16.9765
386.571
470.918
-0.0263522
-0.00473877
0.187187
0.2944
0.291933
0.0665281
-0.0492655
0.157678
125.498
477.491
-0.0365901
-0.0755619
-0.0154608
0.230809
0.337657
0.136749
-0.0222185
-0.0989185
-0.0287382
260.24
0.00334509
-0.0234822
0.000174776
0.0213508
0.385455
0.464913
0.187846
-0.000728529
0.0127289
73.2572
0.040757
0.024283
0.0261326
0.0397148
0.371231
1.22438
0.728946
0.0886653
0.0755952
66.9808
0.0632565
0.0536417
0.0462415
0.0500006
0.0974639
1.34133
1.49789
0.334829
0.0854219
62.5607
0.0655855
0.0590329
0.0558071
0.0555022
0.0567242
1.16908
1.78738
0.438501
0.0659734
25.147
0.0592449
0.0590657
0.0581142
0.0566399
0.0618821
1.01951
1.37707
0.157904
0.0710489
2.11147
0.0585492
0.058237
0.057508
0.0560204
0.165781
0.969196
1.06463
0.0926839
0.073344
0.77277
0.0574324
0.0571458
0.0565708
0.055099
0.138117
0.873892
1.22677
0.0560341
0.0689825
1.28525
391.051
391.69
392.97
394.842
397.086
399.526
401.877
403.837
404.885
402.908
391.531
392.174
393.492
395.455
397.842
400.495
403.061
405.159
406.767
397.095
392.53
393.166
394.569
396.706
399.422
402.466
405.365
407.715
408.95
392.88
394.321
394.916
396.282
398.622
401.809
405.432
408.872
411.584
412.512
389.931
396.81
397.236
398.601
401.192
404.985
409.418
413.677
416.877
417.26
380.658
401.19
400.858
401.627
404.367
408.58
413.798
419.495
423.961
423.771
366.694
408.614
406.068
405.098
406.86
411.23
417.877
426.315
432.955
431.046
365.86
417.705
397.538
378.744
385.324
398.316
410.369
432.63
444.119
440.031
378.619
314.045
147.628
92.202
100.167
123.135
154.751
261.522
429.293
430.727
445.081
44.871
0.539552
0.144405
0.0637991
0.0694333
0.422889
4.37458
266.161
416.32
406.928
0.154236
0.0145289
0.0380358
0.0235519
0.0145458
0.0195668
0.37853
153.891
436.689
327.559
-0.0234004
-0.021843
0.00797349
0.0114368
0.0110322
0.00264489
0.048516
100.148
464.36
357.594
-0.0329816
-0.0756428
-0.0105512
0.00554895
0.00901057
0.00177646
-0.000911013
27.6324
349.77
440.645
0.0107592
-0.0188401
0.00682176
0.0269696
0.0241467
0.0970681
0.383634
0.0244788
95.8137
550.928
0.050159
0.0356476
0.0323538
0.0423286
0.0380959
0.789584
2.01983
0.170141
31.0752
666.61
0.064512
0.0546485
0.0471974
0.052509
0.0497097
1.13844
2.14777
0.275632
13.0747
640.707
0.0619681
0.0583243
0.0561353
0.0563073
0.057117
0.187292
1.71715
0.947761
0.375372
269.159
0.0599884
0.0594652
0.0583367
0.0575968
0.0603534
0.0573851
0.2147
1.5001
0.394145
47.4674
0.0590069
0.0585797
0.0577719
0.0568491
0.0639914
0.0555666
0.218088
3.19903
6.94963
11.0473
0.0576244
0.0572973
0.0566585
0.0553087
0.057784
0.0474158
0.22241
4.35815
11.4188
14.1548
391.001
391.64
392.919
394.79
397.029
399.464
401.79
403.714
404.862
402.574
391.481
392.122
393.44
395.403
397.789
400.429
402.983
404.996
406.563
396.841
392.477
393.113
394.514
396.652
399.364
402.391
405.238
407.455
408.815
392.698
394.263
394.857
396.223
398.568
401.755
405.357
408.717
411.238
412.29
389.169
396.747
397.174
398.544
401.149
404.959
409.379
413.537
416.552
416.887
380.099
401.12
400.791
401.581
404.348
408.607
413.84
419.469
423.705
421.708
366.751
408.534
406.01
405.089
406.894
411.365
418.09
426.509
432.839
425.458
365.502
417.274
398.149
380.543
386.174
399.359
411.743
433.553
444.029
434.182
366.814
313.888
148.075
92.6521
100.153
124.776
159.982
276.459
441.721
435.441
419.158
45.6572
0.499463
0.108725
0.0571878
0.0681714
0.430648
9.35482
282.134
423.829
370.281
0.149977
-0.0279494
0.0151213
0.0167471
0.0144623
0.00813195
0.289861
133.943
432.03
333.829
-0.0245432
-0.053427
-0.013138
0.00236693
0.00793389
-0.0039093
-0.0160561
69.5875
451.716
382.574
-0.015097
-0.0699974
-0.0130301
0.00450337
0.0121651
0.00867281
-0.0118199
15.602
277.321
508.838
0.0117398
-0.0120246
0.0152455
0.0234194
0.0347217
0.051218
0.0612466
-0.01631
110.495
621.346
0.0464222
0.0389981
0.0382418
0.0438576
0.0584284
0.0915831
0.0863648
0.0587662
115.652
665.896
0.064696
0.0601425
0.0510519
0.0571845
0.0697941
0.0855673
0.0607401
0.142037
193.859
711.194
0.0636554
0.0607225
0.0593716
0.0628197
0.0694262
0.0656203
0.0369653
-0.00807167
212.622
748.414
0.0615386
0.0615376
0.0611486
0.0618104
0.0656353
0.0606187
0.0341385
0.0135584
170.383
676.789
0.059754
0.05963
0.0592557
0.0588585
0.0626814
0.0525177
0.0256276
0.00756276
115.681
549.693
0.057862
0.057664
0.057156
0.0555673
0.0572192
0.039608
0.012538
0.000302226
48.6065
334.356
389.725
390.397
391.733
393.676
396.009
398.51
400.908
403.129
404.749
406.151
390.088
390.766
392.158
394.207
396.696
399.398
401.999
404.245
405.991
406.961
390.854
391.523
393.041
395.293
398.096
401.157
404.039
406.453
408.444
409.418
392.304
393.05
394.488
396.964
400.209
403.801
407.207
409.963
412.353
413.374
394.313
394.828
396.437
399.236
403.057
407.408
411.659
415.13
417.608
418.764
398.124
397.993
399.114
402.103
406.353
411.458
417.012
421.852
424.87
426.263
404.898
402.706
402.329
404.554
409.029
415.35
423.045
429.973
434.119
436.322
407.862
387.956
369.698
376.85
397.466
412.73
428.119
439.534
444.695
448.487
291.721
135.484
86.9513
96.7798
131.173
180.513
265.804
412.71
457.543
461.18
34.4818
0.227903
0.0680537
0.046889
0.0430248
0.0588239
0.838561
139.791
475.694
471.938
0.103926
-0.0412606
0.00154967
0.00994733
0.0138666
-0.00139126
0.0186177
0.668191
290.626
467.541
-0.0183123
-0.0554274
-0.0264088
-0.00678611
0.00434476
-0.00156482
-0.0395264
-0.0943937
41.7549
405.617
-0.00789764
-0.0328956
-0.0189561
-0.00271786
0.00478332
0.00251274
-0.0206356
-0.0711079
-0.0634951
218.428
0.0187027
0.00715591
0.0112187
0.0173624
0.0221007
0.0264917
0.0230115
0.0108295
-0.000855472
94.322
0.0495704
0.0359105
0.0320016
0.0373825
0.0404927
0.0420731
0.0508168
0.101618
0.0136296
75.1422
0.0677583
0.0603616
0.0529541
0.0527417
0.0522047
0.0489792
0.0562146
0.337917
0.0293674
82.0134
0.0696529
0.0651815
0.0604633
0.0574263
0.054083
0.0442864
0.0461184
0.0349878
0.0203556
32.137
0.0627826
0.062594
0.0599452
0.056917
0.0529833
0.0445487
0.03067
0.0143535
-0.0352588
-0.124225
0.0598715
0.0595324
0.0576461
0.0549446
0.0510569
0.0421347
0.0294077
0.0162505
-0.00174825
-0.0711312
0.0575879
0.0571901
0.0557733
0.0531162
0.0488977
0.0384007
0.0237865
0.0193298
0.0232338
-0.0175562
387.318
388.058
389.495
391.575
394.064
396.716
399.148
401.682
402.974
404.072
387.448
388.207
389.725
391.933
394.599
397.475
400.232
402.673
404.322
405.595
387.741
388.531
390.213
392.681
395.693
398.946
402.08
404.746
406.649
408.261
388.446
389.308
391.067
393.852
397.353
401.168
404.901
408.062
410.478
412.319
389.483
390.268
392.239
395.475
399.629
404.222
408.817
412.787
415.901
418.036
391.985
392.315
394.055
397.62
402.327
407.659
413.381
418.699
422.697
425.26
397.065
395.856
396.523
399.636
404.625
410.895
418.253
425.498
430.959
433.729
379.251
360.242
340.322
353.209
385.856
407.679
421.239
433.04
441.422
444.86
224.882
104.533
70.5794
81.244
116.745
171.584
237.883
341.687
412.346
378.554
12.0461
0.0597036
0.0405623
0.0340828
0.0406115
0.0286284
0.100007
25.0187
141.645
129.054
0.0362097
-0.0284796
-0.00499391
0.00195125
0.0151482
0.00573331
-0.000789634
-0.0346762
4.2378
67.6495
-0.0189116
-0.0434782
-0.0210569
-0.014733
0.0062258
0.00676169
-0.0101847
-0.0633095
-0.0895365
67.3647
0.00336406
-0.0139098
-0.00536869
-0.00849364
0.00865124
0.0130193
0.00359752
-0.0167608
-0.0692357
14.4296
0.0312788
0.0294118
0.0290624
0.0166993
0.0276697
0.0333022
0.0345104
0.0428185
0.0139056
0.0770245
0.0548403
0.0576012
0.0457136
0.0426223
0.0466687
0.0510931
0.0540576
0.074383
0.0975946
0.172354
0.0686089
0.06481
0.0610626
0.0580597
0.0570767
0.0581101
0.0561128
0.067134
0.0518494
0.118941
0.0700403
0.0688783
0.065677
0.0614133
0.0591429
0.0575009
0.0523923
0.0549147
0.0486435
0.549655
0.0637263
0.0645968
0.0618528
0.0592372
0.0571527
0.0547315
0.048048
0.0449277
0.0256164
5.53486
0.0599146
0.0595895
0.0580535
0.0563663
0.0545244
0.0515023
0.0437592
0.0389367
0.113607
2.25537
0.056948
0.0566229
0.0555688
0.0541502
0.0523632
0.0487615
0.0417645
0.0378096
0.0321592
0.0115932
383.953
384.776
386.373
388.647
391.349
394.22
396.952
399.352
401.002
402.056
383.738
384.603
386.309
388.744
391.653
394.751
397.714
400.251
402.01
403.206
383.305
384.261
386.19
388.975
392.303
395.828
399.196
402.065
404.139
405.565
382.834
383.924
386.132
389.374
393.306
397.463
401.462
404.889
407.462
409.153
382.245
383.447
386.06
389.964
394.714
399.749
404.605
408.834
412.033
414.007
382.44
383.559
386.332
390.846
396.508
402.379
408.138
413.372
417.307
419.634
384.177
384.872
387.363
392.114
398.124
404.724
411.642
418.179
423.103
425.291
301.36
297.735
285.482
308.797
354.415
391.128
409.346
421.055
428.912
429.877
111.466
57.3651
44.0485
51.8045
77.499
126.414
182.02
233.075
263.799
248.677
0.361208
0.00126183
0.0120279
0.0195198
0.0337572
0.0388439
0.0410613
0.146432
1.44809
1.9308
0.00871062
-0.0260111
-0.0132105
-0.0050566
0.0130706
0.0147272
0.0133463
0.00804925
0.0461989
0.232297
-0.00903366
-0.0343694
-0.00253342
-0.011672
0.00480942
0.0122165
0.00843895
-0.00734651
-0.043067
0.0130133
0.0143436
-0.0125219
0.00794562
0.00265972
0.00979957
0.0182392
0.0157798
0.00561399
-0.02321
-0.0130435
0.0406122
0.0312249
0.0416509
0.0295112
0.0309448
0.0353083
0.0355509
0.0346916
0.0260758
0.0403971
0.0586475
0.0667928
0.064451
0.0536118
0.0505301
0.0500747
0.0506945
0.0554766
0.0618627
0.0707929
0.0681564
0.0738274
0.071775
0.0651849
0.0593997
0.056608
0.0555037
0.0583701
0.0762383
0.068561
0.0677221
0.0714708
0.0705703
0.0643242
0.059706
0.0564334
0.0535132
0.0532826
0.117626
0.427952
0.0626621
0.0647862
0.06202
0.0594194
0.0566271
0.0535401
0.0496469
0.046647
0.11453
2.07692
0.0578626
0.0573915
0.056615
0.0553345
0.0535237
0.0508752
0.0471472
0.0441293
0.0404576
1.25796
0.0549923
0.0546311
0.0538306
0.0529186
0.0515721
0.0492981
0.046363
0.0444884
0.0425571
0.0437747
379.916
380.843
382.631
385.146
388.107
391.224
394.17
396.685
398.437
399.399
379.245
380.24
382.181
384.916
388.128
391.503
394.693
397.404
399.312
400.384
377.844
379
381.272
384.47
388.213
392.104
395.76
398.858
401.096
402.376
375.766
377.164
379.938
383.829
388.358
393.025
397.382
401.065
403.759
405.338
372.808
374.532
378.084
382.997
388.623
394.333
399.648
404.102
407.34
409.277
369.536
371.604
376.085
382.188
389.015
395.984
402.245
407.489
411.309
413.558
356.786
358.509
371.485
381.819
389.719
397.34
404.507
410.657
415.089
417.284
170.57
182.27
202.094
246.684
299.568
349.265
388.187
406.087
413.683
415.672
25.8534
18.2789
20.9941
25.9305
36.5414
69.7624
120.469
162.83
184.462
189.314
0.0504681
-0.0656052
-0.0635845
-0.0221848
0.0149269
0.035379
0.0369175
0.0376723
0.128622
0.17209
0.00119365
-0.065397
-0.0439978
-0.0215465
0.00519716
0.0171211
0.017
0.00745989
-0.00585319
0.00169681
0.0154495
-0.0255529
-0.00289645
-0.00992184
0.00354736
0.0164118
0.0165553
0.00951564
-0.010247
-0.00112923
0.0320459
0.00666747
0.0134603
0.00385467
0.0126712
0.0217853
0.0213198
0.0145169
-0.000857971
0.00127387
0.0465901
0.0381663
0.0416048
0.0378441
0.0375698
0.0389663
0.0367107
0.0330143
0.0240281
0.0281838
0.0591999
0.0636401
0.070351
0.0653534
0.0569208
0.0529777
0.0501229
0.0496328
0.0459594
0.0603841
0.0665812
0.0752415
0.0792207
0.0715651
0.0636222
0.0590248
0.0562807
0.0565273
0.0557543
0.0665208
0.0651678
0.0713223
0.0717281
0.0669995
0.0623678
0.0589765
0.0564936
0.0560817
0.0553624
0.077086
0.0597706
0.0611198
0.0601202
0.0598011
0.0580685
0.0561244
0.0540486
0.052804
0.0515886
0.0903991
0.0536203
0.0526396
0.0528232
0.0536159
0.0535949
0.0530568
0.0517438
0.0506731
0.0486122
0.0914255
0.0511492
0.0488511
0.0487578
0.0498572
0.0508626
0.0510514
0.0504247
0.0497189
0.0495178
0.0463843
375.563
376.608
378.606
381.394
384.641
388.032
391.216
393.896
395.785
396.759
374.365
375.504
377.711
380.783
384.351
388.048
391.508
394.413
396.458
397.514
371.819
373.185
375.847
379.531
383.775
388.12
392.134
395.48
397.841
399.091
367.788
369.519
372.953
377.626
382.922
388.246
393.103
397.102
399.918
401.45
361.84
364.095
368.724
374.909
381.807
388.481
394.46
399.322
402.7
404.573
354.213
356.926
363.424
371.762
380.615
388.866
396.202
401.955
405.936
408.129
295.049
293.688
322.223
359.386
379.804
389.518
397.7
404.225
408.665
410.859
54.2578
73.6254
106.937
163.473
235.459
295.659
348.215
381.158
396.968
403.345
0.743911
1.31674
4.68762
8.82182
17.6077
36.0111
72.745
110.04
135.527
147.49
0.106776
-0.0278312
-0.0950436
-0.0722189
-0.0145988
0.0250424
0.0417775
0.0475059
0.0549543
0.0460277
0.053761
-0.018612
-0.0361756
-0.0232476
0.00127715
0.0181789
0.0222967
0.0230257
0.0223563
0.0251257
0.0626897
0.0297755
0.0104048
-0.00182507
0.0105234
0.0237523
0.0186534
0.0131628
0.00517812
0.0108486
0.0509796
0.0399193
0.0229067
0.0144399
0.0191182
0.0235397
0.0216951
0.0133919
0.00239485
0.0093861
0.0471237
0.0416039
0.0391924
0.040987
0.0437144
0.0423092
0.036668
0.0287576
0.0194328
0.0235068
0.0551346
0.0561742
0.0648543
0.066228
0.0613707
0.0561711
0.0503686
0.0454307
0.0405724
0.0450551
0.0632783
0.0679834
0.0740042
0.0711191
0.065436
0.0612913
0.0573074
0.0551829
0.0540786
0.057937
0.0629495
0.0646149
0.0649835
0.0635633
0.0624228
0.0605221
0.0583557
0.0576476
0.0576525
0.0596361
0.053473
0.0516885
0.052312
0.0551716
0.0567332
0.0570327
0.0563532
0.05609
0.0555806
0.055796
0.042062
0.0404554
0.044204
0.0477871
0.0512061
0.0534403
0.0540365
0.0543069
0.0542007
0.0544475
0.0390708
0.0373478
0.0411579
0.0435635
0.0475635
0.0511345
0.0525274
0.0530589
0.0535869
0.0530359
371.324
372.482
374.695
377.765
381.316
384.99
388.425
391.295
393.323
394.359
369.571
370.854
373.333
376.756
380.697
384.753
388.51
391.636
393.84
394.96
365.818
367.398
370.462
374.647
379.428
384.278
388.708
392.35
394.896
396.193
359.659
361.735
365.858
371.338
377.499
383.601
389.06
393.476
396.527
398.085
350.528
353.308
359.028
366.443
374.744
382.705
389.571
395.02
398.727
400.603
337.436
341.097
349.704
360.273
371.578
381.851