/*--------------------------------*- C++ -*----------------------------------*\
| =========                 |                                                 |
| \\      /  F ield         | OpenFOAM: The Open Source CFD Toolbox           |
|  \\    /   O peration     | Version:  2312                                  |
|   \\  /    A nd           | Website:  www.openfoam.com                      |
|    \\/     M anipulation  |                                                 |
\*---------------------------------------------------------------------------*/
FoamFile
{
    version     2.0;
    format      ascii;
    arch        "LSB;label=32;scalar=64";
    class       volVectorField;
    location    "0.395";
    object      U;
}
// * * * * * * * * * * * * * * * * * * * * * * * * * * * * * * * * * * * * * //

dimensions      [0 1 -1 0 0 0 0];

internalField   nonuniform List<vector> 
8000
(
(-0.0034586 0.00546857 -0.00345997)
(-0.00779049 0.00389823 -0.00348181)
(-0.0102792 0.00371984 -0.00361241)
(-0.0126915 0.00337161 -0.00378815)
(-0.0138513 0.00291711 -0.00402589)
(-0.0138306 0.00255702 -0.00439436)
(-0.0125873 0.00227292 -0.00491242)
(-0.0100757 0.00207352 -0.00560351)
(-0.0064809 0.00196759 -0.00619636)
(-0.00186591 0.00191393 -0.00660774)
(-0.00407298 0.0186137 -0.00406134)
(-0.00920857 0.0142352 -0.0041625)
(-0.0122782 0.0136109 -0.00433975)
(-0.0151061 0.0125492 -0.00450032)
(-0.0165316 0.0111717 -0.00479735)
(-0.0166061 0.00996037 -0.00531325)
(-0.0151309 0.00888342 -0.00593668)
(-0.0120332 0.00802052 -0.00668227)
(-0.00767995 0.00743454 -0.00727557)
(-0.00222855 0.00711542 -0.00770646)
(-0.00479576 0.0332356 -0.00472887)
(-0.0107935 0.0261565 -0.00511236)
(-0.0142256 0.0242234 -0.00524926)
(-0.0168788 0.0222239 -0.00527243)
(-0.0181276 0.0197862 -0.0054515)
(-0.0181162 0.01753 -0.00591343)
(-0.0166442 0.0155648 -0.00651252)
(-0.0134008 0.0140587 -0.00729062)
(-0.00865217 0.0131159 -0.00791933)
(-0.00261364 0.0126182 -0.00845957)
(-0.00265494 0.0454711 -0.00245822)
(-0.0106045 0.0350646 -0.00324887)
(-0.0177144 0.0337192 -0.0057888)
(-0.0201575 0.0328433 -0.00635483)
(-0.0213367 0.0307561 -0.00680876)
(-0.0212876 0.028543 -0.00750848)
(-0.0194487 0.0261043 -0.00825417)
(-0.0155137 0.0238436 -0.00905624)
(-0.00996509 0.0222431 -0.00966675)
(-0.00312922 0.0212995 -0.0103249)
(0.00344889 0.0714058 0.00379602)
(-0.0034627 0.0634564 0.00618119)
(-0.0193851 0.0548401 0.000275148)
(-0.0241956 0.0462981 -0.00344632)
(-0.0253183 0.039349 -0.00454084)
(-0.0253769 0.0353332 -0.00589026)
(-0.0238206 0.0311545 -0.00682119)
(-0.0194974 0.0276451 -0.0070629)
(-0.012675 0.0254494 -0.00696511)
(-0.00411123 0.0240767 -0.00738555)
(-0.00987396 0.017445 -0.0113236)
(-0.0360267 0.0263932 0.00430171)
(-0.052119 0.0393938 0.0103278)
(-0.04932 0.0483474 0.00802958)
(-0.0488238 0.0539359 0.0032245)
(-0.047108 0.0529201 -0.000540238)
(-0.0458816 0.0485964 -0.00222388)
(-0.0388837 0.0426721 -0.0035488)
(-0.026043 0.0370348 -0.00446067)
(-0.00966566 0.0342571 -0.00417851)
(-0.0588538 0.137211 -0.0606558)
(-0.117089 0.0997617 -0.0395448)
(-0.0910969 0.0285406 -0.00914295)
(-0.0679588 0.0105691 0.00237906)
(-0.0518201 0.02119 0.00845041)
(-0.0615569 0.037464 0.00397914)
(-0.0618932 0.0366301 -0.00335201)
(-0.0524669 0.0281176 -0.00976544)
(-0.0348115 0.02085 -0.0146919)
(-0.0135288 0.0178644 -0.0160686)
(-0.0880129 0.476648 -0.0934216)
(-0.242006 0.274294 -0.176663)
(-0.396641 0.0816172 -0.138023)
(-0.366525 0.0568386 -0.124335)
(-0.211588 0.0345757 -0.0838875)
(-0.106874 0.0571239 -0.0457847)
(-0.0706317 0.0612948 -0.0432317)
(-0.0496233 0.0592321 -0.0481261)
(-0.0291869 0.055835 -0.0520748)
(-0.00716831 0.053738 -0.0519182)
(0.0325475 0.666661 0.0135672)
(-0.00340004 0.655935 -0.0248147)
(-0.206799 0.428413 -0.0132044)
(-0.370639 0.226638 -0.155484)
(-0.465406 -0.0193274 -0.28203)
(-0.328536 0.0441556 -0.242195)
(-0.169802 0.104312 -0.170055)
(-0.0938544 0.112343 -0.1372)
(-0.0499262 0.113714 -0.128269)
(-0.0126336 0.112112 -0.121754)
(0.0681977 0.45687 0.0378101)
(0.159009 0.719628 0.0477913)
(0.0413311 0.588001 0.0649855)
(-0.11182 0.463355 -0.0396432)
(-0.17915 0.405963 -0.194983)
(-0.142838 0.278453 -0.202804)
(-0.18341 0.235395 -0.213262)
(-0.134124 0.225486 -0.181415)
(-0.0686605 0.214975 -0.163065)
(-0.0197083 0.214471 -0.155143)
(0.00883675 0.227374 0.00184237)
(0.171269 0.58176 0.0377674)
(0.145351 0.559219 0.0595215)
(0.0651907 0.479474 0.0413713)
(-0.0515961 0.487845 -0.123301)
(-0.058588 0.423002 -0.16677)
(-0.0968374 0.394275 -0.19119)
(-0.060254 0.382682 -0.217768)
(-0.0210212 0.293585 -0.224045)
(-0.00538096 0.293243 -0.219973)
(-0.0318432 0.129692 -0.00236908)
(0.0909471 0.434418 0.0140974)
(0.107459 0.466183 0.025863)
(0.105962 0.438572 0.0620637)
(0.00676988 0.47829 -0.0224977)
(-0.00860975 0.497987 -0.112468)
(-0.0513714 0.495992 -0.14319)
(-0.0365031 0.51145 -0.172385)
(-0.00771759 0.472803 -0.177675)
(0.00311835 0.465972 -0.169846)
(-0.0487108 0.0895897 0.00829001)
(0.0127958 0.347176 0.00446228)
(0.0360046 0.38996 0.000481743)
(0.0792403 0.396444 0.0475515)
(0.0290179 0.438134 0.0614797)
(0.00769706 0.489237 -0.0124581)
(-0.0261276 0.514619 -0.0603133)
(-0.028098 0.54963 -0.0837594)
(-0.00515854 0.555447 -0.0846128)
(0.00431323 0.548735 -0.0783598)
(-0.0618369 0.0795866 0.0125599)
(-0.0295744 0.3042 0.0017141)
(-0.0025857 0.330336 -0.0114182)
(0.0438593 0.35217 0.025283)
(0.0273742 0.366699 0.0851071)
(0.000601467 0.398753 0.0701235)
(-0.0236432 0.425832 0.0301194)
(-0.0245189 0.451452 0.0130273)
(-0.0032024 0.460515 0.0116685)
(0.00453376 0.461933 0.00824862)
(-0.0697952 0.0904784 0.0108791)
(-0.0437414 0.28071 -0.00535526)
(-0.0168921 0.294634 -0.0209115)
(0.0100562 0.311127 0.0118218)
(0.00277324 0.288118 0.0581698)
(-0.0163958 0.283066 0.0780798)
(-0.0310256 0.27771 0.0703194)
(-0.0239164 0.263503 0.0669425)
(-0.0097088 0.262152 0.0683214)
(-0.00496269 0.290167 0.0638246)
(-0.074738 0.120717 0.00592561)
(-0.0473661 0.272597 -0.0193685)
(-0.0311801 0.304808 -0.0274942)
(-0.023832 0.273869 0.00797782)
(-0.021134 0.22054 0.0269984)
(-0.0186232 0.195571 0.0384326)
(-0.0123587 0.163403 0.0440379)
(0.00429378 0.125128 0.0490307)
(-0.00955476 0.120153 0.0549094)
(-0.0176073 0.151284 0.0561222)
(-0.0778205 0.170995 -0.000334488)
(-0.0576006 0.280185 -0.0287442)
(-0.0481891 0.317781 -0.0195741)
(-0.0488271 0.212627 0.0232806)
(-0.0359144 0.133679 0.0285234)
(-0.0123058 0.11415 0.0252216)
(0.00736303 0.0847555 0.022096)
(0.0197238 0.0715692 0.0215433)
(0.00415642 0.0837856 0.0213661)
(-0.00366061 0.0915874 0.0221789)
(-0.0723946 0.234009 -0.0025994)
(-0.0673297 0.291723 -0.0290194)
(-0.0632875 0.287261 -0.00070268)
(-0.0580079 0.119221 0.0402698)
(-0.0544345 0.0349771 0.0319862)
(-0.0243068 0.0411758 0.0234254)
(-0.00394329 0.0367516 0.0169895)
(0.000696973 0.0349713 0.0152674)
(0.00128252 0.0460479 0.0151292)
(0.00629137 0.0469443 0.0169436)
(-0.0446643 0.28555 0.0110489)
(-0.0506933 0.307515 -0.0279672)
(-0.0428639 0.247682 0.00430191)
(-0.006441 0.0446114 0.0356081)
(-0.0343209 -0.0312618 0.0221069)
(-0.0213786 -0.0120516 0.0142203)
(-0.00411711 0.00289426 0.0105073)
(0.000517956 0.00819498 0.0106929)
(0.00144379 0.013496 0.0120264)
(0.00430011 0.0130033 0.0131353)
(0.00306695 0.271103 0.0360198)
(-0.00402617 0.325307 -0.00908311)
(0.0336654 0.212274 0.0108272)
(0.068736 0.00395229 0.02632)
(0.0189308 -0.0613488 0.011492)
(0.00147764 -0.0378866 0.00650277)
(0.00763411 -0.0173709 0.00563666)
(0.00777478 -0.00847758 0.00676883)
(0.00536276 -0.0035721 0.00741314)
(0.00310934 -0.00299331 0.0074814)
(-0.00348006 0.00391011 -0.00779798)
(-0.00695777 0.00168469 -0.00696676)
(-0.00831533 0.00153483 -0.00742045)
(-0.0100125 0.00127071 -0.00786311)
(-0.0104949 0.000724132 -0.00830304)
(-0.00986279 0.0001437 -0.00885002)
(-0.00823776 -0.000318922 -0.00949822)
(-0.00582161 -0.000590317 -0.0103141)
(-0.00322476 -0.000625951 -0.0110249)
(-0.000550343 -0.000610252 -0.0117565)
(-0.00417505 0.0142806 -0.00918274)
(-0.00845179 0.00795924 -0.00840978)
(-0.0102935 0.00766687 -0.00896411)
(-0.0124747 0.00689682 -0.00951654)
(-0.0135134 0.00534546 -0.0101964)
(-0.0132556 0.00360151 -0.0110806)
(-0.0116922 0.00195463 -0.0120347)
(-0.00882619 0.000587431 -0.0130642)
(-0.00529622 -0.000330705 -0.0139436)
(-0.00130521 -0.00115068 -0.0147032)
(-0.00519506 0.0262358 -0.0106554)
(-0.00979952 0.0149843 -0.00952898)
(-0.0113202 0.0136371 -0.0103017)
(-0.0131565 0.0124049 -0.0108527)
(-0.0140367 0.00967031 -0.0115771)
(-0.0136741 0.00651655 -0.0126585)
(-0.012006 0.00342226 -0.0137871)
(-0.00906686 0.000855655 -0.0150907)
(-0.00562087 -0.00095168 -0.0162203)
(-0.00155441 -0.00275954 -0.0169136)
(-0.00345044 0.0354468 -0.0103349)
(-0.00744095 0.0173763 -0.00744119)
(-0.0115976 0.0172903 -0.0111383)
(-0.0139498 0.0181777 -0.0128758)
(-0.0155476 0.0163481 -0.0140001)
(-0.0155079 0.0129521 -0.0154369)
(-0.0137868 0.00931704 -0.0167304)
(-0.0103568 0.00612731 -0.0180177)
(-0.00643127 0.00339938 -0.0188972)
(-0.00190844 0.000492574 -0.0192262)
(0.0063418 0.0634968 -0.0038604)
(0.00899273 0.0433883 0.00659903)
(0.000208162 0.0338114 -0.000778665)
(-0.00635127 0.0288107 -0.00841222)
(-0.0116299 0.0218365 -0.0125079)
(-0.0145106 0.015036 -0.0159253)
(-0.013977 0.009044 -0.0187683)
(-0.0110416 0.00457728 -0.0203011)
(-0.00703499 0.00171652 -0.0204636)
(-0.00213605 -0.00143752 -0.0203026)
(0.00543035 0.0252903 -0.0366221)
(-0.0141955 0.0203646 -0.014796)
(-0.0358176 0.0303352 0.00584813)
(-0.0250403 0.042254 0.00474851)
(-0.022528 0.0470561 -0.00402882)
(-0.022255 0.0401685 -0.0108539)
(-0.022262 0.0318103 -0.0154888)
(-0.0188447 0.0262579 -0.0192553)
(-0.0126388 0.0216344 -0.0210167)
(-0.0052243 0.017961 -0.0209207)
(-0.0531594 0.10028 -0.100824)
(-0.111765 0.109522 -0.0861324)
(-0.122475 0.0546992 -0.041298)
(-0.0857027 0.0275054 -0.0153937)
(-0.050204 0.030612 -0.00479391)
(-0.039806 0.0361679 -0.0100625)
(-0.0352801 0.0342259 -0.0212046)
(-0.0279051 0.0299631 -0.0321889)
(-0.016799 0.0266387 -0.0404736)
(-0.00624954 0.0249896 -0.0432301)
(-0.163278 0.281114 -0.248211)
(-0.311928 0.204627 -0.331261)
(-0.367766 0.110466 -0.279227)
(-0.309319 0.0619334 -0.20294)
(-0.210585 0.0515433 -0.137098)
(-0.122712 0.0705993 -0.0942934)
(-0.0802551 0.0684623 -0.093583)
(-0.0513205 0.066639 -0.0990095)
(-0.0282853 0.0679853 -0.102392)
(-0.00880379 0.0695045 -0.100975)
(-0.0374551 0.617857 -0.0393231)
(-0.0637456 0.496542 -0.105539)
(-0.114464 0.319034 -0.0606812)
(-0.180022 0.102092 -0.148657)
(-0.369045 -0.0377015 -0.331399)
(-0.313314 0.0176461 -0.346621)
(-0.186267 0.0475652 -0.279737)
(-0.110199 0.0553289 -0.246552)
(-0.0604415 0.0568057 -0.231291)
(-0.0209658 0.0580779 -0.222518)
(0.0630385 0.664996 0.125112)
(0.112965 0.66107 0.0836845)
(0.0991393 0.48296 0.102644)
(0.10125 0.387515 0.0758343)
(0.0350297 0.274831 -0.0247824)
(-0.0406412 0.0280468 -0.155236)
(-0.0901469 0.0288931 -0.208859)
(-0.122867 0.125407 -0.178008)
(-0.089326 0.165542 -0.0898755)
(-0.0366242 0.178954 -0.0816585)
(0.0392279 0.408179 0.123324)
(0.147482 0.588332 0.132107)
(0.15608 0.409955 0.114429)
(0.215587 0.359917 0.108226)
(0.245097 0.252192 0.0737898)
(0.199473 0.13835 0.0117283)
(0.103494 0.122419 -0.0710519)
(0.0109166 0.183111 -0.187572)
(-0.024499 0.240073 -0.222571)
(-0.0155603 0.282244 -0.222089)
(-0.034251 0.207051 0.0747887)
(0.0889605 0.446126 0.1048)
(0.108224 0.273575 0.0884449)
(0.205169 0.237631 0.0856128)
(0.258677 0.191697 0.0809095)
(0.254056 0.161141 0.0773174)
(0.174255 0.188009 0.0496841)
(0.0771621 0.206325 -0.0553653)
(0.0267855 0.217061 -0.118883)
(0.00587292 0.22013 -0.121851)
(-0.0768251 0.130227 0.0702639)
(0.025143 0.329579 0.0723414)
(0.0768904 0.135295 0.0678773)
(0.16601 0.145507 0.0602592)
(0.195264 0.196924 0.0888735)
(0.184718 0.237454 0.117283)
(0.14006 0.289982 0.125864)
(0.0717848 0.306658 0.0923118)
(0.0253531 0.301652 0.0656558)
(-0.00569185 0.277687 0.0672903)
(-0.0926174 0.100292 0.0681745)
(-0.00414097 0.248756 0.0362239)
(0.0618568 0.0312505 0.0107441)
(0.093588 0.111171 0.0354675)
(0.0813688 0.225776 0.0986357)
(0.0647451 0.279113 0.1546)
(0.0424042 0.328372 0.177304)
(0.00405475 0.344808 0.180156)
(-0.0164929 0.32747 0.180863)
(-0.0296337 0.276645 0.179234)
(-0.0953884 0.101845 0.0529223)
(-0.01665 0.204646 -0.00546766)
(0.032713 0.0420921 -0.0300954)
(-0.00458433 0.159948 0.0396877)
(-0.0407744 0.245437 0.0988666)
(-0.0430999 0.262613 0.147889)
(-0.042505 0.275721 0.180138)
(-0.0435777 0.254715 0.201964)
(-0.0422794 0.218818 0.210527)
(-0.0351378 0.173235 0.195243)
(-0.0913316 0.135486 0.033348)
(-0.0275456 0.192958 -0.0301854)
(-0.0219548 0.112189 -0.0169983)
(-0.0770708 0.205337 0.0629918)
(-0.0918042 0.208049 0.102928)
(-0.0648897 0.188127 0.117475)
(-0.0370398 0.179075 0.129954)
(-0.00304233 0.154869 0.144663)
(-0.00848878 0.130977 0.150981)
(-0.0032375 0.0993323 0.132947)
(-0.0818656 0.192949 0.0189924)
(-0.042789 0.217809 -0.0284815)
(-0.0781756 0.190715 0.0261096)
(-0.107001 0.193056 0.0909631)
(-0.0857275 0.102572 0.106207)
(-0.0389522 0.0780687 0.089048)
(-0.00429629 0.0713069 0.083233)
(0.0237764 0.0740522 0.08489)
(0.0249292 0.085708 0.0867794)
(0.0233892 0.0679238 0.0831064)
(-0.0702411 0.261699 0.0177283)
(-0.0457307 0.261743 -0.0138358)
(-0.0999288 0.25137 0.05591)
(-0.0891665 0.145038 0.0989018)
(-0.0670466 0.0216627 0.0870301)
(-0.0279239 0.00616445 0.0555481)
(-0.0024908 0.0158398 0.0478985)
(0.00799547 0.0235204 0.0515944)
(0.0110165 0.0280276 0.0575218)
(0.0145803 0.018886 0.0605302)
(-0.0582123 0.334051 0.0405907)
(-0.0317486 0.294633 0.00175765)
(-0.0824555 0.292972 0.0507527)
(-0.0172645 0.122321 0.0800477)
(-0.0183108 -0.00241205 0.0721467)
(-0.000439672 -0.0329518 0.0376482)
(0.00903124 -0.0189259 0.0273143)
(0.0143114 -0.00407147 0.0320119)
(0.0129658 0.00189104 0.0361973)
(0.00994724 -0.0017921 0.036624)
(-0.0256236 0.387263 0.0841685)
(-0.00127411 0.324769 0.0266164)
(-0.039222 0.31224 0.0438189)
(0.0570419 0.121794 0.0718715)
(0.0548638 -0.00240128 0.0607203)
(0.038874 -0.0444003 0.0248947)
(0.0273868 -0.0323456 0.0154475)
(0.0226395 -0.0172745 0.0210673)
(0.0157697 -0.01254 0.0239262)
(0.00757474 -0.0135045 0.0235716)
(-0.00361035 0.00375456 -0.0103358)
(-0.00741118 0.00156261 -0.00836905)
(-0.00912421 0.00138366 -0.00917277)
(-0.0110975 0.00104401 -0.00982789)
(-0.0117348 0.000362836 -0.0102366)
(-0.0110753 -0.000385289 -0.010624)
(-0.00930069 -0.00105033 -0.0108309)
(-0.00663864 -0.00149234 -0.0110104)
(-0.00396715 -0.0017597 -0.0109599)
(-0.000955796 -0.00198197 -0.0108441)
(-0.00434664 0.013713 -0.0123316)
(-0.00899273 0.0077649 -0.0103103)
(-0.0113247 0.00735828 -0.0113439)
(-0.0139965 0.0063551 -0.0123224)
(-0.0153063 0.00441014 -0.0131899)
(-0.0150974 0.00211086 -0.0140531)
(-0.0134189 -0.000152046 -0.0147145)
(-0.0103928 -0.00222678 -0.015186)
(-0.00671666 -0.00415912 -0.0149842)
(-0.0018575 -0.0059529 -0.0146302)
(-0.00527448 0.0244206 -0.0141682)
(-0.0104843 0.0138536 -0.0110646)
(-0.0126571 0.0128662 -0.0124648)
(-0.0152119 0.0113866 -0.0136965)
(-0.0165275 0.00797859 -0.0149705)
(-0.0162161 0.00390145 -0.0163141)
(-0.01434 -0.000226654 -0.0174566)
(-0.0111352 -0.004129 -0.0183219)
(-0.00710517 -0.00769037 -0.0182588)
(-0.00176916 -0.011189 -0.0183235)
(-0.00589784 0.0344557 -0.0174588)
(-0.0114225 0.0178448 -0.0117718)
(-0.0142425 0.0167232 -0.0140251)
(-0.0174561 0.0170739 -0.0163694)
(-0.0196753 0.0136082 -0.0181717)
(-0.0196072 0.00795727 -0.0200005)
(-0.0175565 0.00224331 -0.0214885)
(-0.0136577 -0.00291214 -0.0226787)
(-0.00861718 -0.00787199 -0.0228461)
(-0.00226726 -0.0125486 -0.0234317)
(0.000197802 0.0556652 -0.0201284)
(-0.000263043 0.0342113 -0.00388634)
(-0.00455041 0.0263823 -0.0067404)
(-0.0112206 0.0241537 -0.0145458)
(-0.0188101 0.0173467 -0.0211989)
(-0.0217568 0.00946532 -0.0261329)
(-0.0199719 0.00201804 -0.0296999)
(-0.0154386 -0.00493906 -0.0319593)
(-0.00983771 -0.0110586 -0.0320392)
(-0.002937 -0.0152203 -0.0330008)
(0.0111755 0.0406296 -0.0547538)
(0.00694626 0.030007 -0.0386948)
(-0.0124486 0.0350412 -0.0158049)
(-0.0143816 0.0485211 -0.0138867)
(-0.0196296 0.0449589 -0.0208002)
(-0.0219501 0.0284221 -0.0263717)
(-0.0209569 0.014329 -0.0307923)
(-0.0165062 0.0052099 -0.0356819)
(-0.0103767 -0.00134126 -0.0394196)
(-0.00384669 -0.00403146 -0.0417404)
(-0.0152629 0.0322481 -0.0775789)
(-0.0491372 0.0568819 -0.10368)
(-0.0902487 0.0473802 -0.0812829)
(-0.069346 0.042083 -0.0559645)
(-0.0504253 0.040323 -0.0454916)
(-0.039239 0.0365109 -0.0484599)
(-0.0326196 0.0298717 -0.0552485)
(-0.0224315 0.0198756 -0.0650007)
(-0.0122619 0.0120571 -0.0745111)
(-0.00523813 0.0105686 -0.0792338)
(-0.129381 0.10759 -0.378453)
(-0.275911 0.120358 -0.363283)
(-0.291772 0.0781859 -0.283762)
(-0.247266 0.0588252 -0.21867)
(-0.187213 0.0572495 -0.17007)
(-0.127817 0.0567241 -0.14406)
(-0.0867434 0.0462211 -0.139677)
(-0.0560167 0.0382491 -0.139613)
(-0.0321925 0.0367578 -0.139278)
(-0.0111332 0.0378904 -0.136487)
(-0.00283984 0.420245 -0.21736)
(-0.0649152 0.30698 -0.193205)
(-0.168874 0.0677411 -0.190396)
(-0.276277 -0.0471071 -0.30119)
(-0.376689 -0.0350603 -0.382441)
(-0.290381 -0.00938995 -0.357633)
(-0.187295 -0.00845384 -0.323215)
(-0.116824 -0.00890793 -0.308303)
(-0.0653185 -0.0129682 -0.299052)
(-0.0231311 -0.0160895 -0.296882)
(0.0763745 0.593453 0.0700745)
(0.105239 0.514153 0.0408661)
(0.0732826 0.313444 0.0702052)
(0.112678 0.244907 0.0296647)
(0.101887 0.138635 -0.0820107)
(0.146528 -0.154831 -0.0997544)
(0.0839475 -0.116366 -0.126347)
(-0.0287838 -0.0186222 -0.16095)
(-0.0637746 0.027928 -0.155769)
(-0.0293911 0.0483912 -0.223218)
(0.0689849 0.489282 0.202818)
(0.141268 0.513465 0.162009)
(0.101006 0.207076 0.122097)
(0.17081 0.0403495 0.0915289)
(0.230563 -0.084036 -0.00211927)
(0.230401 -0.143768 -0.0817964)
(0.172324 -0.0812828 -0.130325)
(0.0903258 0.0165345 -0.164403)
(-0.000253078 0.0317629 -0.196665)
(-0.0145727 0.0132801 -0.210226)
(0.00667762 0.284082 0.17579)
(0.105643 0.418777 0.136263)
(0.089441 0.128198 0.108282)
(0.149164 -0.0257069 0.102786)
(0.179647 -0.0616369 0.0414035)
(0.145744 -0.0776962 -0.0368357)
(0.0936695 -0.0621274 -0.0972912)
(0.0314635 -0.050596 -0.14837)
(-0.0280998 -0.0722704 -0.154192)
(-0.0342766 -0.14391 -0.135672)
(-0.0353063 0.18246 0.138644)
(0.0662113 0.345894 0.0572504)
(0.0700915 0.0951189 0.0482836)
(0.106102 -0.0709529 0.0715639)
(0.117346 -0.0650647 0.070189)
(0.0937824 -0.0309575 0.0567526)
(0.076109 0.0313264 0.0477858)
(0.0113202 0.0576878 0.0326677)
(-0.0440673 0.00276374 0.0323095)
(-0.0454504 -0.0959682 0.0398715)
(-0.0466033 0.159201 0.11807)
(0.0448064 0.3058 -0.0236108)
(0.0638781 0.10571 -0.0424953)
(0.051468 -0.0565491 0.0447957)
(0.0229276 -0.0207057 0.101666)
(-0.00329819 0.012453 0.136906)
(-0.00326541 0.0725813 0.169222)
(-0.0256791 0.092221 0.188708)
(-0.0435036 0.0342348 0.19448)
(-0.0329537 -0.0690301 0.168229)
(-0.048254 0.179778 0.0830701)
(0.0267321 0.297529 -0.092537)
(0.0685103 0.125715 -0.110808)
(-0.0036103 0.0129519 0.0536245)
(-0.047419 0.0310903 0.133074)
(-0.0568314 0.032493 0.167785)
(-0.0405153 0.0710631 0.203435)
(-0.0223999 0.0821086 0.233639)
(-0.017315 0.0357553 0.234676)
(-0.000644501 -0.0485113 0.192387)
(-0.0444731 0.230895 0.0392673)
(0.0100917 0.313427 -0.12734)
(0.0700842 0.158787 -0.123157)
(-0.0466164 0.094245 0.094787)
(-0.0601811 0.0461472 0.148681)
(-0.0441262 0.00904409 0.15091)
(-0.0160526 0.0229813 0.165382)
(0.0231263 0.0418951 0.182848)
(0.0359928 0.0295748 0.180717)
(0.037116 -0.0198288 0.155371)
(-0.0323218 0.284048 0.00095789)
(0.0104422 0.330155 -0.127714)
(0.061643 0.21228 -0.0956351)
(-0.0628288 0.153444 0.12647)
(-0.0369364 0.0417885 0.122834)
(-0.0194399 -0.0092734 0.101774)
(0.00337419 -0.00861875 0.106311)
(0.0202336 0.00261471 0.117566)
(0.0306951 0.00637279 0.124711)
(0.027937 -0.0146692 0.120971)
(-0.0158504 0.313122 -0.0217778)
(0.023978 0.348622 -0.104318)
(0.0441038 0.280272 -0.0656805)
(-0.0445804 0.198484 0.11558)
(-0.0130824 0.0615325 0.0728339)
(0.000640754 -0.0126494 0.0584935)
(0.0128308 -0.0242317 0.0632281)
(0.0179913 -0.0109715 0.0726865)
(0.016494 -0.0114048 0.0816741)
(0.0133552 -0.0241992 0.0822422)
(-0.00892061 0.326296 -0.00699787)
(0.0324924 0.36951 -0.071763)
(0.016094 0.33565 -0.0548215)
(-0.0158385 0.243232 0.0559366)
(0.0109316 0.0842081 0.0379607)
(0.0270362 -0.0170538 0.0383153)
(0.0252356 -0.0366687 0.0417954)
(0.0229005 -0.0226106 0.0481339)
(0.0184255 -0.0163656 0.0528533)
(0.00990558 -0.0197092 0.0521589)
(-8.02373e-05 0.336724 0.0572101)
(0.0387518 0.381421 -0.0326098)
(-0.0106533 0.36109 -0.0526181)
(0.010127 0.26434 -0.00265691)
(0.0507447 0.0927858 0.0239014)
(0.0595884 -0.0209569 0.0311914)
(0.0406928 -0.0395898 0.0312701)
(0.0282386 -0.0253774 0.0348466)
(0.0185511 -0.0201536 0.0377746)
(0.00656322 -0.0213553 0.0373027)
(-0.00378116 0.00340201 -0.0128737)
(-0.00784528 0.00130892 -0.0101779)
(-0.00977466 0.00105495 -0.0112361)
(-0.0118858 0.000695818 -0.0120241)
(-0.0126362 -2.99568e-05 -0.0123902)
(-0.0119717 -0.000784286 -0.0125106)
(-0.0100719 -0.00137994 -0.0122899)
(-0.00716293 -0.00170496 -0.0116189)
(-0.00404379 -0.00176939 -0.0103686)
(-0.000659197 -0.00188006 -0.010095)
(-0.00448824 0.0126774 -0.0152984)
(-0.00951747 0.00703569 -0.012643)
(-0.0122935 0.00639589 -0.0141301)
(-0.015253 0.0052647 -0.0153851)
(-0.0167462 0.00304192 -0.0162969)
(-0.0165135 0.000531858 -0.0170752)
(-0.0146414 -0.00189302 -0.0173649)
(-0.0110683 -0.0041243 -0.0171111)
(-0.00634429 -0.00568664 -0.0163114)
(-0.00063932 -0.00679671 -0.0156718)
(-0.00526756 0.022513 -0.0170113)
(-0.0109595 0.0127176 -0.0131781)
(-0.0138152 0.0115138 -0.0152054)
(-0.0169167 0.00965643 -0.0169542)
(-0.0185583 0.00586343 -0.0184034)
(-0.0182633 0.00146416 -0.0197323)
(-0.0161894 -0.00293395 -0.0205305)
(-0.0121959 -0.00733635 -0.0209332)
(-0.00722592 -0.0109827 -0.0208611)
(-0.000804298 -0.0122311 -0.0204567)
(-0.00643586 0.0337017 -0.0200954)
(-0.0131827 0.0191195 -0.0140847)
(-0.016724 0.0174367 -0.0172785)
(-0.0205043 0.0158396 -0.020238)
(-0.0227943 0.0104075 -0.0222936)
(-0.0225691 0.00338632 -0.0242777)
(-0.0201948 -0.0031754 -0.0256782)
(-0.0155407 -0.00928898 -0.0268236)
(-0.00998713 -0.0140776 -0.0272572)
(-0.00225809 -0.0127638 -0.0285493)
(-0.00349983 0.0473101 -0.0255089)
(-0.00886076 0.0292978 -0.00991772)
(-0.0144211 0.0243523 -0.0131087)
(-0.0218822 0.0207618 -0.0222073)
(-0.0282408 0.0132152 -0.0290482)
(-0.0290742 0.00499954 -0.0332282)
(-0.02589 -0.00344569 -0.0360134)
(-0.0200536 -0.0118045 -0.0377105)
(-0.0140564 -0.0178254 -0.0384636)
(-0.00503487 -0.0137833 -0.0420558)
(0.00813353 0.0504962 -0.0539925)
(0.00476561 0.0418569 -0.0305538)
(-0.0112446 0.0473591 -0.0189861)
(-0.0218062 0.0515086 -0.0246104)
(-0.0304589 0.0343135 -0.0332466)
(-0.0331088 0.0123773 -0.0398967)
(-0.0308942 -0.00252174 -0.0450551)
(-0.0243814 -0.0128061 -0.0497069)
(-0.0180604 -0.0185206 -0.0534772)
(-0.00871356 -0.0128338 -0.0587318)
(-0.000869935 0.0134532 -0.0563876)
(-0.0176006 0.027494 -0.0767599)
(-0.0576075 0.0406863 -0.0656952)
(-0.0570057 0.0449832 -0.0581198)
(-0.0526385 0.0379179 -0.0585073)
(-0.0499488 0.0282371 -0.0666491)
(-0.0436883 0.0137139 -0.0757967)
(-0.0309524 -0.00184292 -0.0837943)
(-0.0216526 -0.0106402 -0.0908085)
(-0.0112056 -0.00852463 -0.0978496)
(-0.113365 0.0723625 -0.339117)
(-0.199838 0.069828 -0.290556)
(-0.223834 0.0610689 -0.238175)
(-0.202798 0.0507517 -0.199342)
(-0.164883 0.0434006 -0.16609)
(-0.126556 0.0256241 -0.152905)
(-0.0933054 0.00532236 -0.149358)
(-0.0651787 -0.0098126 -0.148039)
(-0.0422157 -0.015126 -0.148289)
(-0.017369 -0.0144193 -0.147094)
(-0.119165 0.217947 -0.420199)
(-0.183448 0.0753512 -0.291143)
(-0.324903 -0.0446329 -0.337501)
(-0.368241 -0.0422449 -0.371846)
(-0.35808 -0.0417049 -0.36164)
(-0.265409 -0.0600528 -0.31822)
(-0.175386 -0.0766299 -0.288563)
(-0.112508 -0.0784038 -0.277356)
(-0.0650277 -0.0824252 -0.274631)
(-0.0222188 -0.0853843 -0.282239)
(0.0264775 0.476035 -0.0920449)
(0.0838972 0.404386 0.00508942)
(-0.030823 0.254948 0.0336901)
(0.065496 0.145606 0.0692779)
(0.0875026 -0.0413782 0.0224)
(0.0829007 -0.209074 -0.0253238)
(0.0477115 -0.189078 -0.0533984)
(0.00265855 -0.161382 -0.118092)
(-0.0291732 -0.1428 -0.187176)
(0.00362647 -0.131721 -0.29585)
(0.093432 0.470507 0.169188)
(0.186034 0.514199 0.199937)
(0.0652191 0.228679 0.145596)
(0.11888 -0.0767846 0.131118)
(0.163473 -0.185925 0.0744624)
(0.155812 -0.210925 0.0148253)
(0.117052 -0.167671 -0.0241696)
(0.0611258 -0.100734 -0.0476257)
(-0.000660503 -0.0752291 -0.0728279)
(-0.0120594 -0.0776263 -0.0933877)
(0.0724728 0.358105 0.228946)
(0.186614 0.510704 0.229175)
(0.104306 0.234201 0.122315)
(0.125332 -0.0281048 0.0870037)
(0.137758 -0.166239 0.0569962)
(0.11332 -0.227055 0.029814)
(0.0690284 -0.22794 0.000758519)
(0.0198665 -0.18342 -0.0307405)
(-0.0259352 -0.187925 -0.0661537)
(-0.0231745 -0.232258 -0.0883824)
(0.0445526 0.27252 0.172475)
(0.160739 0.482229 0.14962)
(0.118493 0.273312 0.0487797)
(0.129751 -0.0184144 0.0297042)
(0.121775 -0.161477 0.0584476)
(0.0795602 -0.204455 0.068918)
(0.0453314 -0.186664 0.0656458)
(0.00844064 -0.146866 0.0564788)
(-0.0234885 -0.171412 0.0339277)
(-0.0224548 -0.22691 -0.00400718)
(0.0415412 0.222169 0.0837818)
(0.139552 0.43556 0.0262467)
(0.131374 0.281641 -0.043628)
(0.141787 0.00802163 -0.0212449)
(0.0950635 -0.120825 0.0715029)
(0.039109 -0.164496 0.11534)
(0.0165868 -0.153474 0.144293)
(0.00959704 -0.120535 0.167998)
(0.00202154 -0.146498 0.156422)
(-0.00408818 -0.203961 0.101357)
(0.0353292 0.201446 0.000266912)
(0.112866 0.388641 -0.088307)
(0.140015 0.261628 -0.115341)
(0.137763 0.045718 -0.0270544)
(0.0701644 -0.0515458 0.101325)
(0.0260152 -0.10917 0.139625)
(0.0146437 -0.114367 0.169571)
(0.0275577 -0.0897588 0.201174)
(0.0359674 -0.103153 0.194219)
(0.0226984 -0.14734 0.146818)
(0.0194262 0.204965 -0.042796)
(0.0817831 0.333889 -0.140346)
(0.134007 0.224568 -0.124596)
(0.105475 0.102239 0.0126057)
(0.0537514 0.0202258 0.113992)
(0.0317561 -0.060586 0.119327)
(0.0252796 -0.0858517 0.14063)
(0.0357085 -0.07286 0.166495)
(0.0454019 -0.0745602 0.168716)
(0.0314226 -0.0981907 0.144522)
(0.016713 0.193945 -0.0561905)
(0.0716186 0.257311 -0.133479)
(0.11935 0.205474 -0.0890539)
(0.0674771 0.167311 0.0535188)
(0.0480767 0.0881359 0.0812772)
(0.0379104 -0.0195372 0.076616)
(0.0311723 -0.0574667 0.0972537)
(0.0275428 -0.053417 0.116835)
(0.0258255 -0.0568372 0.126461)
(0.0171184 -0.0686904 0.117356)
(0.02624 0.158936 -0.0521119)
(0.074201 0.19972 -0.0985077)
(0.0883248 0.214292 -0.043928)
(0.026975 0.233312 0.0528164)
(0.0360675 0.123061 0.0316642)
(0.039988 -0.00862017 0.0464888)
(0.0342154 -0.0480254 0.0684294)
(0.028194 -0.041383 0.0818258)
(0.0208465 -0.0405137 0.0870387)
(0.00845369 -0.0479548 0.078695)
(0.0300509 0.130069 -0.00325139)
(0.067539 0.186363 -0.0320599)
(0.0304922 0.238652 -0.00764428)
(-0.0170081 0.271918 0.0136702)
(0.0287882 0.105102 0.0098388)
(0.0432055 -0.0180596 0.0364831)
(0.0366537 -0.0458742 0.0528)
(0.0282047 -0.037896 0.0617007)
(0.0195263 -0.03381 0.063208)
(0.00408336 -0.0347588 0.0567314)
(0.0346793 0.1111 0.0790769)
(0.0768305 0.191667 0.0527645)
(-0.0012347 0.246971 0.0226586)
(-0.0211212 0.242232 -0.00227368)
(0.04446 0.068082 0.0217955)
(0.0557357 -0.0291786 0.0381329)
(0.042382 -0.0424104 0.0439257)
(0.0303465 -0.0330713 0.0486548)
(0.0187295 -0.0293034 0.0481862)
(-0.00018295 -0.0287886 0.0434414)
(-0.00400585 0.0029721 -0.0141645)
(-0.00825186 0.000772308 -0.0107859)
(-0.0101616 0.000393592 -0.0119751)
(-0.0122495 -7.94058e-06 -0.0128507)
(-0.0129077 -0.00071813 -0.0131243)
(-0.0120379 -0.00147405 -0.0131195)
(-0.0097526 -0.00189417 -0.0124721)
(-0.0062662 -0.00185482 -0.0116661)
(-0.00273328 -0.00167915 -0.0103639)
(0.000631177 -0.00108172 -0.00958138)
(-0.00478742 0.0113119 -0.0168967)
(-0.0101676 0.00548654 -0.0138433)
(-0.0131273 0.00449101 -0.0155757)
(-0.0161627 0.00308488 -0.0169895)
(-0.0176734 0.000579214 -0.0179121)
(-0.0172366 -0.00232563 -0.0186547)
(-0.0148584 -0.0050285 -0.0187156)
(-0.0102768 -0.00701112 -0.0183699)
(-0.00479485 -0.00787062 -0.0165667)
(0.00079335 -0.00695176 -0.0151817)
(-0.0054354 0.0201008 -0.018523)
(-0.0115861 0.0100007 -0.0143469)
(-0.014991 0.00821648 -0.0167543)
(-0.0183382 0.00600886 -0.0187765)
(-0.0200688 0.00183233 -0.0202949)
(-0.0195999 -0.00318613 -0.021488)
(-0.0171829 -0.00844896 -0.0221353)
(-0.0125733 -0.0131547 -0.0223201)
(-0.00795682 -0.0155211 -0.0214462)
(-0.00189387 -0.0123285 -0.0240373)
(-0.00683377 0.0313098 -0.0216496)
(-0.0141078 0.0171216 -0.0158162)
(-0.018332 0.0141212 -0.0196952)
(-0.0224631 0.0106274 -0.0227513)
(-0.0249542 0.00354731 -0.0249769)
(-0.0247553 -0.00443124 -0.0269262)
(-0.0221858 -0.0119672 -0.0283763)
(-0.0169274 -0.018441 -0.0288923)
(-0.0124163 -0.0200487 -0.0293797)
(-0.00466908 -0.0116684 -0.0374238)
(-0.00464294 0.0406059 -0.0269226)
(-0.0130888 0.0228167 -0.0143367)
(-0.0216848 0.0181937 -0.0202216)
(-0.0293606 0.0137905 -0.0286355)
(-0.0337581 0.00616576 -0.0337676)
(-0.0330262 -0.00350217 -0.0366365)
(-0.0291913 -0.0146746 -0.0384824)
(-0.0230904 -0.0243131 -0.03913)
(-0.0186553 -0.0262641 -0.0407743)
(-0.00765681 -0.0155571 -0.0530684)
(0.00305695 0.0552975 -0.0536082)
(-0.00542193 0.0467479 -0.0275655)
(-0.0204645 0.0443976 -0.0235667)
(-0.0328242 0.0341335 -0.0325343)
(-0.041559 0.0115746 -0.0415817)
(-0.0439986 -0.0068973 -0.0483998)
(-0.0405746 -0.0207121 -0.0534992)
(-0.032816 -0.0318301 -0.0566858)
(-0.0275738 -0.0336119 -0.0607629)
(-0.0123497 -0.0230379 -0.0753775)
(0.00577356 0.0234934 -0.0488764)
(-0.0059088 0.0298604 -0.0492191)
(-0.0443782 0.0389891 -0.0515064)
(-0.0565108 0.0380213 -0.0554121)
(-0.0649187 0.0280537 -0.0673123)
(-0.0659638 0.00735329 -0.0789628)
(-0.0556125 -0.0187033 -0.0845573)
(-0.0421765 -0.0355927 -0.0884305)
(-0.0322746 -0.0411845 -0.0943044)
(-0.0140454 -0.0378301 -0.108673)
(-0.0728625 0.053135 -0.19341)
(-0.132176 0.0577232 -0.197959)
(-0.168573 0.0631793 -0.177307)
(-0.164207 0.0451744 -0.160885)
(-0.14637 0.0199697 -0.148162)
(-0.120965 -0.0117672 -0.143494)
(-0.0907984 -0.0393525 -0.138801)
(-0.0672938 -0.0540223 -0.139092)
(-0.0454061 -0.0586309 -0.141231)