/*--------------------------------*- C++ -*----------------------------------*\
| =========                 |                                                 |
| \\      /  F ield         | OpenFOAM: The Open Source CFD Toolbox           |
|  \\    /   O peration     | Version:  2312                                  |
|   \\  /    A nd           | Website:  www.openfoam.com                      |
|    \\/     M anipulation  |                                                 |
\*---------------------------------------------------------------------------*/
FoamFile
{
    version     2.0;
    format      ascii;
    arch        "LSB;label=32;scalar=64";
    class       volScalarField;
    location    "0.125";
    object      alpha.water;
}
// * * * * * * * * * * * * * * * * * * * * * * * * * * * * * * * * * * * * * //

dimensions      [0 0 0 0 0 0 0];

internalField   nonuniform List<scalar> 
8000
(
1
1
1
1
1
1
1
1
1
1
1
1
1
1
1
1
1
1
1
1
1
1
1
1
1
1
1
1
1
1
1
1
1
1
1
1
1
1
1
1
1
1
1
1
1
1
1
1
1
1
1
1
1
1
1
1
1
1
1
1
1
1
1
1
1
1
1
1
1
1
1
1
1
1
1
1
1
1
1
1
0.0110739
0.010791
0.0103014
0.00968282
0.00901911
0.00838142
0.00782272
0.00737827
0.00707139
0.00691321
9.15336e-07
7.40504e-07
5.75459e-07
4.33689e-07
3.26006e-07
2.50999e-07
2.01274e-07
1.69751e-07
1.51401e-07
1.38316e-07
3.85766e-08
2.75797e-08
1.87296e-08
1.2356e-08
8.21577e-09
5.71769e-09
4.23282e-09
3.35807e-09
2.87389e-09
2.52276e-09
1.75485e-09
1.16951e-09
7.25567e-10
4.34655e-10
2.63243e-10
1.67762e-10
1.15231e-10
8.64238e-11
7.12494e-11
6.02309e-11
8.18936e-11
5.23125e-11
3.32102e-11
2.02317e-11
1.2136e-11
7.57573e-12
5.06904e-12
3.71272e-12
3.00357e-12
2.47096e-12
4.01195e-12
2.96104e-12
1.82654e-12
1.01824e-12
5.68864e-13
3.43442e-13
2.25292e-13
1.70049e-13
1.39126e-13
1.14146e-13
3.41747e-13
2.95316e-13
1.99428e-13
1.18659e-13
6.82889e-14
4.05945e-14
2.58065e-14
1.80567e-14
1.41028e-14
1.10489e-14
8.86422e-14
2.69939e-14
1.26016e-14
6.83106e-15
3.7485e-15
2.12728e-15
1.30275e-15
8.77108e-16
6.69227e-16
5.06031e-16
5.69786e-14
7.033e-15
8.7446e-16
3.11818e-16
1.65495e-16
9.31014e-17
5.64868e-17
3.79743e-17
2.88659e-17
2.1359e-17
4.95417e-14
5.20197e-15
2.82695e-16
1.93564e-17
8.03321e-18
4.49241e-18
2.72108e-18
1.82236e-18
1.38009e-18
9.98557e-19
4.45703e-14
4.53957e-15
2.12765e-16
3.28012e-18
4.26897e-19
2.24575e-19
1.35669e-19
9.06585e-20
6.84604e-20
4.84202e-20
4.08327e-14
4.08455e-15
1.83649e-16
1.99158e-18
3.01601e-20
1.14487e-20
6.90574e-21
4.61459e-21
3.48061e-21
2.40672e-21
1
1
1
1
1
1
1
1
1
1
1
1
1
1
1
1
1
1
1
1
1
1
1
1
1
1
1
1
1
1
1
1
1
1
1
1
1
1
1
1
1
1
1
1
1
1
1
1
1
1
1
1
1
1
1
1
1
1
1
1
1
1
1
1
1
1
1
1
1
1
1
1
1
1
1
1
1
1
1
1
0.0122169
0.0118175
0.0111608
0.0103632
0.00953599
0.00876538
0.00810694
0.00759359
0.00724321
0.00706427
3.76555e-06
1.67428e-06
8.77018e-07
5.69912e-07
3.98112e-07
2.92792e-07
2.2818e-07
1.88987e-07
1.66774e-07
1.51463e-07
2.3298e-07
8.53983e-08
3.45588e-08
1.82462e-08
1.09032e-08
7.14525e-09
5.0766e-09
3.92286e-09
3.30455e-09
2.87717e-09
1.28586e-08
4.33648e-09
1.51847e-09
6.97615e-10
3.7222e-10
2.20267e-10
1.44501e-10
1.05236e-10
8.52369e-11
7.14032e-11
6.75399e-10
2.17322e-10
6.97512e-11
3.21907e-11
1.75385e-11
1.02276e-11
6.54554e-12
4.64917e-12
3.69272e-12
3.01038e-12
3.5289e-11
1.09951e-11
3.82946e-12
1.76626e-12
8.71146e-13
4.79767e-13
2.98302e-13
2.12498e-13
1.71114e-13
1.39329e-13
2.24802e-12
6.99237e-13
3.92629e-13
2.0971e-13
1.08283e-13
5.94799e-14
3.57728e-14
2.3997e-14
1.82613e-14
1.41195e-14
4.76389e-13
1.69264e-13
5.07402e-14
1.46876e-14
6.25244e-15
3.25321e-15
1.87946e-15
1.21473e-15
8.99708e-16
6.70006e-16
3.82532e-13
1.11111e-13
2.23372e-14
2.19885e-15
2.95164e-16
1.44578e-16
8.31434e-17
5.36143e-17
3.96303e-17
2.88958e-17
3.44439e-13
9.52801e-14
1.83475e-14
1.35332e-15
2.34654e-17
7.17189e-18
4.07958e-18
2.63045e-18
1.93769e-18
1.38116e-18
3.22158e-13
9.44567e-14
1.67859e-14
1.10329e-15
4.38945e-18
4.44149e-19
2.08617e-19
1.33722e-19
9.83477e-20
6.84922e-20
2.91722e-13
9.21187e-14
1.56922e-14
9.23421e-16
2.40558e-18
3.31847e-20
1.11638e-20
6.96351e-21
5.11382e-21
3.481e-21
1
1
1
1
1
1
1
1
1
1
1
1
1
1
1
1
1
1
1
1
1
1
1
1
1
1
1
1
1
1
1
1
1
1
1
1
1
1
1
1
1
1
1
1
1
1
1
1
1
1
1
1
1
1
1
1
1
1
1
1
1
1
1
1
1
1
1
1
1
1
1
1
1
1
1
1
1
1
1
1
0.0152127
0.0144135
0.0131494
0.0118585
0.0106363
0.00956087
0.00868211
0.00801981
0.00757864
0.00735639
3.20009e-05
1.11934e-05
2.91035e-06
1.03957e-06
5.69316e-07
3.76073e-07
2.75547e-07
2.19585e-07
1.89177e-07
1.69942e-07
2.56385e-06
7.69747e-07
1.60466e-07
4.21742e-08
1.79313e-08
1.0169e-08
6.62115e-09
4.83702e-09
3.9332e-09
3.36954e-09
1.63655e-07
4.56391e-08
8.53502e-09
1.88314e-09
6.74802e-10
3.34196e-10
1.98685e-10
1.35876e-10
1.05741e-10
8.69859e-11
9.20283e-09
2.48309e-09
4.39011e-10
8.75142e-11
3.17909e-11
1.58037e-11
9.21188e-12
6.13546e-12
4.67229e-12
3.7381e-12
5.01436e-10
1.33194e-10
2.32427e-11
5.36476e-12
1.73024e-12
7.73881e-13
4.31438e-13
2.78953e-13
2.13243e-13
1.70835e-13
3.55909e-11
1.0718e-11
1.82959e-12
5.81748e-13
2.21177e-13
1.00499e-13
5.4152e-14
3.34683e-14
2.40707e-14
1.8127e-14
3.51382e-12
3.26318e-12
2.63231e-13
9.87126e-14
1.64231e-14
5.78791e-15
2.92994e-15
1.74732e-15
1.2185e-15
8.80537e-16
1.04931e-12
2.7065e-12
1.03228e-13
5.10707e-14
2.4561e-15
2.76811e-16
1.29495e-16
7.70129e-17
5.37686e-17
3.81115e-17
6.33129e-13
2.52355e-12
7.14879e-14
4.20792e-14
1.35414e-15
2.85982e-17
6.47008e-18
3.77236e-18
2.63672e-18
1.82777e-18
6.156e-13
2.4781e-12
9.33723e-14
3.76081e-14
9.3552e-16
5.12416e-18
4.58279e-19
1.93032e-19
1.33941e-19
9.08542e-20
5.04634e-13
2.34151e-12
1.06099e-13
3.37686e-14
7.01098e-16
2.87115e-18
3.87173e-20
1.08336e-20
6.972e-21
4.61959e-21
1
1
1
1
1
1
1
1
1
1
1
1
1
1
1
1
1
1
1
1
1
1
1
1
1
1
1
1
1
1
1
1
1
1
1
1
1
1
1
1
1
1
1
1
1
1
1
1
1
1
1
1
1
1
1
1
1
1
1
1
1
1
1
1
1
1
1
1
1
1
1
1
1
1
1
1
1
1
1
1
0.0228845
0.020451
0.0172489
0.0145547
0.0124766
0.0108327
0.00956837
0.00865654
0.00806756
0.00777731
0.00016796
7.10108e-05
1.83595e-05
3.66695e-06
1.09005e-06
5.60596e-07
3.69585e-07
2.76476e-07
2.28911e-07
2.01766e-07
1.63327e-05
6.14948e-06
1.25727e-06
1.98827e-07
4.35883e-08
1.74328e-08
9.98531e-09
6.66569e-09
5.11506e-09
4.26281e-09
1.22639e-06
4.05384e-07
7.36108e-08
1.04072e-08
1.92308e-09
6.48605e-10
3.24834e-10
2.00826e-10
1.4642e-10
1.16769e-10
7.25051e-08
2.2534e-08
3.93842e-09
5.35886e-10
8.96922e-11
3.08438e-11
1.53639e-11
9.31066e-12
6.63528e-12
5.1396e-12
4.47965e-09
1.25071e-09
2.27734e-10
3.61302e-11
6.36094e-12
1.67752e-12
7.49721e-13
4.36075e-13
3.02302e-13
2.27553e-13
5.05402e-10
1.45395e-10
2.78553e-11
5.08477e-12
7.98744e-13
2.32523e-13
9.90856e-14
5.45735e-14
3.61112e-14
2.60318e-14
4.15537e-11
1.18826e-11
7.31498e-13
3.08634e-13
1.52414e-13
2.34202e-14
5.71457e-15
2.94815e-15
1.89601e-15
1.31446e-15
2.22932e-11
2.4509e-12
3.53408e-13
8.26551e-14
7.86435e-14
7.66939e-15
2.85351e-16
1.30302e-16
8.38349e-17
5.69596e-17
1.35793e-11
1.62814e-12
1.68857e-13
5.57393e-14
6.06022e-14
5.23398e-15
3.07282e-17
6.56934e-18
4.10963e-18
2.74051e-18
7.05918e-12
1.62814e-12
8.84819e-14
4.11266e-14
5.21518e-14
4.16729e-15
8.54723e-18
4.70836e-19
2.10167e-19
1.36375e-19
5.00585e-12
1.5165e-12
1.32907e-13
3.90913e-14
4.43963e-14
3.36363e-15
5.705e-18
4.85411e-20
1.17166e-20
6.93107e-21
1
1
1
1
1
1
1
1
1
1
1
1
1
1
1
1
1
1
1
1
1
1
1
1
1
1
1
1
1
1
1
1
1
1
1
1
1
1
1
1
1
1
1
1
1
1
1
1
1
1
1
1
1
1
1
1
1
1
1
1
1
1
1
1
1
1
1
1
1
1
1
1
1
1
1
1
1
1
1
1
0.0688318
0.0407328
0.0261446
0.0195602
0.0154051
0.0126827
0.0107884
0.00949526
0.00869022
0.00830265
0.000666702
0.000189392
8.52304e-05
1.9491e-05
3.67543e-06
1.09901e-06
5.67656e-07
3.79953e-07
2.94662e-07
2.51991e-07
3.05488e-05
1.83855e-05
6.76296e-06
1.22068e-06
1.89156e-07
4.36756e-08
1.78432e-08
1.03704e-08
7.25077e-09
5.78385e-09
2.45598e-06
1.31708e-06
4.111e-07
6.72663e-08
9.58289e-09
1.9149e-09
6.68915e-10
3.44462e-10
2.25871e-10
1.71438e-10
1.89586e-07
7.58778e-08
2.32733e-08
4.006e-09
5.3094e-10
8.90735e-11
3.14097e-11
1.62525e-11
1.04923e-11
7.74873e-12
4.72293e-08
5.95601e-09
2.60005e-09
5.07716e-10
8.02851e-11
6.69418e-12
1.70359e-12
7.98192e-13
4.92717e-13
3.5143e-13
4.88648e-09
1.29163e-09
2.05262e-10
3.33577e-11
4.36397e-11
1.42763e-12
2.31565e-13
1.02855e-13
6.06335e-14
4.12389e-14
1.69666e-09
1.19953e-10
3.6352e-11
5.57228e-12
3.35217e-11
6.14044e-13
1.85649e-14
5.92002e-15
3.31508e-15
2.15933e-15
1.99459e-09
7.68263e-11
2.99934e-11
4.06283e-12
2.80157e-11
4.32164e-13
3.16115e-15
2.98751e-16
1.47622e-16
9.45055e-17
1.00593e-09
2.79654e-11
1.78325e-11
2.67902e-12
2.61287e-11
3.59644e-13
1.91088e-15
3.06199e-17
7.4035e-18
4.55397e-18
6.09437e-10
8.66563e-11
4.39097e-12
1.02075e-12
2.48421e-11
3.1258e-13
1.48468e-15
9.14519e-18
5.09433e-19
2.27498e-19
8.34907e-10
7.06311e-11
1.17816e-11
1.40723e-13
2.25522e-11
2.64083e-13
1.1963e-15
6.04387e-18
5.69935e-20
1.19463e-20
1
1
1
1
1
1
1
1
1
1
1
1
1
1
1
1
1
1
1
1
1
1
1
1
1
1
1
1
1
1
1
1
1
1
1
1
1
1
1
1
1
1
1
1
1
1
1
1
1
1
1
1
1
1
1
1
1
1
1
1
1
1
1
1
1
1
1
1
1
1
1
1
1
1
1
1
1
1
1
1
0.203374
0.127086
0.0544
0.0295505
0.020367
0.0153207
0.012358
0.0105106
0.00941124
0.00889603
9.80145e-05
0.000199181
0.000175812
8.71114e-05
1.9506e-05
3.90146e-06
1.1448e-06
5.81215e-07
4.01645e-07
3.27383e-07
3.34297e-06
4.65741e-06
1.3037e-05
6.06455e-06
1.16657e-06
2.06224e-07
4.73789e-08
1.87501e-08
1.11841e-08
8.36407e-09
1.22507e-06
3.65154e-07
8.03934e-07
3.68237e-07
6.26855e-08
1.05728e-08
2.13564e-09
7.1832e-10
3.86755e-10
2.70968e-10
8.52165e-07
8.76202e-08
9.93454e-08
5.86872e-08
4.11756e-09
5.50474e-10
9.99854e-11
3.3738e-11
1.82547e-11
1.25068e-11
6.1251e-07
6.27159e-08
2.32719e-08
4.885e-08
1.09113e-09
4.6964e-11
6.42787e-12
1.85482e-12
9.12471e-13
5.88714e-13
9.27569e-08
5.95366e-09
2.47087e-09
6.4806e-08
1.84623e-09
5.13832e-12
8.23044e-13
2.4036e-13
1.12131e-13
6.98441e-14
9.48164e-08
4.37178e-09
2.56825e-09
6.85033e-08
1.73181e-09
5.1738e-13
2.09392e-13
2.02479e-14
6.4987e-15
3.82917e-15
1.15354e-07
5.06479e-09
3.02498e-09
7.53884e-08
1.67442e-09
2.07524e-13
1.25879e-13
4.90786e-15
3.23477e-16
1.69489e-16
5.43748e-08
6.25571e-09
2.07586e-09
8.4777e-08
1.76006e-09
1.39737e-13
9.8954e-14
3.18244e-15
2.99612e-17
8.25959e-18
2.88989e-08
5.22492e-09
7.01992e-10
8.82914e-08
1.79863e-09
9.23028e-14
8.36855e-14
2.5046e-15
1.16764e-17
4.92135e-19
2.84308e-08
2.98256e-09
2.88042e-09
8.25134e-08
1.66029e-09
5.50399e-14
7.22253e-14
2.03518e-15
8.79746e-18
5.56664e-20
1
1
1
1
1
1
1
1
1
1
1
1
1
1
1
1
1
1
1
1
1
1
1
1
1
1
1
1
1
1
1
1
1
1
1
1
1
1
1
1
1
1
1
1
1
1
1
1
1
1
1
1
1
1
1
1
1
1
1
1
0.999997
1
1
1
1
1
1
1
1
1
0.999963
0.999999
1
1
1
1
1
1
1
1
0.273098
0.231006
0.146128
0.0591022
0.0293156
0.0193131
0.0143218
0.0116461
0.0101732
0.00950433
7.2062e-06
-4.46025e-08
7.68157e-05
0.00018164
8.98205e-05
2.16589e-05
4.08277e-06
1.08547e-06
5.75031e-07
4.34204e-07
4.3874e-06
4.05261e-07
8.97018e-06
1.28569e-05
6.45719e-06
1.42375e-06
2.32116e-07
4.59961e-08
1.88607e-08
1.2577e-08
8.85497e-06
2.43338e-07
5.03195e-06
1.09198e-06
3.605e-07
8.01795e-08
1.24859e-08
2.12015e-09
7.35123e-10
4.48271e-10
1.06079e-05
1.66307e-07
1.29758e-05
4.6488e-07
2.34481e-08
4.24394e-09
6.46413e-10
1.00809e-10
3.4891e-11
2.09233e-11
5.90539e-07
3.26334e-07
1.5429e-05
9.84667e-07
3.8351e-09
2.94133e-10
3.96684e-11
6.57048e-12
1.93805e-12
1.0604e-12
1.43633e-06
4.03864e-07
1.68464e-05
1.19577e-06
2.94082e-10
3.84907e-11
4.76325e-12
7.96943e-13
2.29716e-13
1.21768e-13
2.93645e-06
1.39402e-06
1.83915e-05
1.37946e-06
1.13207e-10
3.24147e-12
1.12181e-12
1.84557e-13
1.65391e-14
7.01264e-15
3.52321e-06
3.02011e-06
2.01228e-05
1.60674e-06
1.17307e-10
1.47976e-12
4.99779e-13
1.15937e-13
2.4851e-15
3.26817e-16
1.66279e-06
4.33611e-06
2.14737e-05
1.81646e-06
8.10199e-11
7.88001e-13
2.33122e-13
9.78017e-14
1.57318e-15
2.23192e-17
1.75073e-08
1.61603e-06
2.1743e-05
1.89808e-06
2.70579e-11
3.01305e-13
2.45468e-13
8.74205e-14
1.33846e-15
6.1402e-18
1.73649e-08
3.85154e-09
2.11324e-05
1.84595e-06
2.03242e-12
6.20322e-13
2.70094e-13
7.93215e-14
1.17742e-15
4.58111e-18
1
1
1
1
1
1
1
1
1
1
1
1
1
1
1
1
1
1
1
1
1
1
1
1
1
1
1
1
1
1
1
1
1
1
1
1
1
1
1
1
1
1
1
1
1
1
1
1
1
1
0.999994
0.999998
1
1
1
1
1
1
1
1
0.999849
0.999991
1
1
1
1
1
1
1
1
0.970721
0.999852
0.999998
1
1
1
1
1
1
1
0.112346
0.218691
0.237448
0.146806
0.0534241
0.0255563
0.016828
0.0128214
0.0108903
0.0100584
0.000315892
6.41164e-05
0.000119704
8.04633e-05
0.000181237
9.26436e-05
2.03787e-05
3.13261e-06
8.87171e-07
5.71576e-07
2.65183e-05
1.92529e-06
0.000113657
6.25463e-06
1.44497e-05
7.82843e-06
1.45893e-06
1.81084e-07
3.62112e-08
1.8926e-08
7.14201e-06
0.000496961
0.000134676
4.7927e-07
8.87613e-07
4.9368e-07
8.7647e-08
9.94258e-09
1.64067e-09
7.43557e-10
1.22084e-05
0.0005352
0.000122531
2.9048e-07
6.72489e-08
2.64487e-08
4.74187e-09
5.23966e-10
7.83326e-11
3.46536e-11
1.84404e-05
0.000484893
0.000117461
6.72364e-08
2.37012e-08
1.70382e-09
2.58192e-10
3.28858e-11
5.00153e-12
1.91835e-12
4.27325e-05
0.000460899
0.000112719
1.94943e-08
4.32404e-09
3.03794e-10
2.73803e-11
2.82332e-12
5.39153e-13
2.06404e-13
6.22526e-05
0.000471991
0.0001107
3.30901e-08
2.5272e-09
1.30781e-11
3.72337e-12
1.00019e-12
7.51675e-14
1.30109e-14
3.83911e-05
0.000486249
0.000111672
3.66234e-08
5.14053e-10
3.52474e-12
8.52043e-13
6.78893e-13
3.49368e-14
8.84159e-16
6.73453e-05
0.000488975
0.000112877
2.19482e-08
2.58459e-10
2.74655e-12
5.31715e-13
6.00213e-13
2.95854e-14
2.73525e-16
0.000402864
0.000504563
0.000113907
5.90312e-09
4.86151e-11
7.85018e-13
4.31546e-13
5.5741e-13
2.67563e-14
2.12981e-16
0.000192323
0.000498234
0.000114997
4.48807e-10
1.16966e-10
1.11414e-12
4.32273e-13
5.1759e-13
2.48101e-14
1.88791e-16
1
1
1
1
1
1
1
1
1
1
1
1
1
1
1
1
1
1
1
1
1
1
1
1
1
1
1
1
1
1
1
1
1
1
1
1
1
1
1
1
0.999997
0.999999
1
1
1
1
1
1
1
1
0.999684
0.999896
0.999998
1
1
1
1
1
1
1
0.931809
0.991491
0.999991
1
1
1
1
1
1
1
0.390644
0.898791
0.999871
0.999999
1
1
1
1
1
1
0.013523
0.043771
0.228594
0.232895
0.121985
0.0383083
0.0196511
0.0139301
0.0114584
0.0104799
0.0104753
0.00328929
6.06489e-05
3.51277e-06
0.000421569
0.000200186
7.3906e-05
1.16056e-05
1.69046e-06
7.26176e-07
0.0286435
0.00372705
2.34658e-06
2.9432e-06
8.56224e-06
2.05642e-05
6.60717e-06
8.25677e-07
8.94865e-08
2.74624e-08
0.0339359
0.00584688
2.9438e-06
2.44949e-06
1.21174e-06
1.52338e-06
4.43568e-07
5.01843e-08
4.7232e-09
1.18349e-09
0.0469768
0.004179
2.45298e-06
2.36604e-06
2.39829e-07
8.99543e-08
2.49346e-08
2.77524e-09
2.44659e-10
5.46254e-11
0.0624552
0.00356736
2.99555e-06
2.99988e-06
1.76116e-07
7.89154e-09
1.39107e-09
1.5115e-10
1.56289e-11
3.30418e-12
0.0770424
0.00280953
1.81085e-05
4.21829e-06
2.86599e-07
1.39106e-09
1.40892e-10
1.36634e-11
1.21349e-12
3.27732e-13
0.0890891
0.00202968
4.158e-05
5.81951e-06
2.24305e-07
1.33467e-10
1.13913e-11
3.89912e-12
3.27521e-13
2.84942e-14
0.122138
0.00142588
5.55529e-05
7.27784e-06
1.41828e-07
6.66068e-11
2.82916e-12
2.89123e-12
1.97644e-13
6.79649e-15
0.202457
0.000768379
5.01194e-05
7.53722e-06
7.87385e-08
2.65425e-11
1.77193e-12
2.51291e-12
1.65618e-13
5.02773e-15
0.237489
0.000188712
4.83334e-05
6.36324e-06
4.21472e-08
1.32623e-11
1.5356e-12
2.2622e-12
1.48398e-13
4.46023e-15
0.236903
8.00198e-05
5.98597e-05
4.76337e-06
5.00027e-11
2.39662e-11
1.71237e-12
2.06968e-12
1.3764e-13
4.06411e-15
1
1
1
1
1
1
1
1
1
1
1
1
1
1
1
1
1
1
1
1
1
1
1
1
1
1
1
1
1
1
0.999999
1
1
1
1
1
1
1
1
1
0.999956
0.999997
1
1
1
1
1
1
1
1
0.998559
0.99979
0.999996
1
1
1
1
1
1
1
0.685647
0.955267
0.999879
0.999998
1
1
1
1
1
1
0.171886
0.491789
0.991171
0.999977
1
1
1
1
1
1
0.167381
0.0105996
0.134561
0.271224
0.187206
0.0593866
0.0214028
0.0145976
0.0117752
0.0107012
0.300602
0.00768307
0.00039659
1.36978e-05
0.000425225
0.000624624
0.000149413
2.95763e-05
3.51886e-06
8.77356e-07
0.30072
0.0263292
3.29823e-05
4.68273e-06
4.08903e-06
2.9853e-05
1.54458e-05
2.40715e-06
2.2187e-07
3.7189e-08
0.300495
0.0333673
3.38825e-06
3.90228e-06
1.69572e-06
2.45397e-06
1.16418e-06
1.56627e-07
1.28019e-08
1.72797e-09
0.300434
0.0474146
4.2904e-06
7.18437e-06
1.3284e-06
1.95332e-07
6.91184e-08
8.93288e-09
6.96403e-10
8.24437e-11
0.30036
0.064039
1.55296e-05
1.23906e-06
1.00184e-06
5.16641e-08
4.34953e-09
4.9703e-10
4.04153e-11
5.11793e-12
0.300091
0.0784397
3.54117e-05
1.53701e-06
2.73308e-07
4.34643e-09
5.0179e-10
4.29219e-11
3.04769e-12
4.6962e-13
0.299335
0.0895873
4.81581e-05
2.64437e-06
8.04032e-08
1.52159e-09
4.1004e-11
3.8063e-12
6.53305e-13
8.08455e-14
0.297444
0.124151
2.69043e-05
2.60609e-06
8.7501e-08
1.56401e-09
1.83788e-11
9.58905e-13
3.70927e-13
4.44759e-14
0.293537
0.204734
4.21604e-05
1.37392e-06
5.46605e-08
7.7668e-10
1.10587e-11
5.74398e-13
3.12248e-13
3.86393e-14
0.285683
0.239034
0.00024478
4.81853e-07
3.05431e-08
3.51763e-10
6.13325e-12
5.65344e-13
2.90782e-13
3.51739e-14
0.222326
0.237618
8.35148e-05
8.41419e-08
3.37233e-08
4.98539e-10
4.90119e-12
5.67299e-13
2.76542e-13
3.26447e-14
1
1
1
1
1
1
1
1
1
1
1
1
1
1
1
1
1
1
1
1
1
1
1
1
1
1
1
1
1
1
0.999999
1
1
1
1
1
1
1
1
1
0.999964
0.999998
1
1
1
1
1
1
1
1
0.998793
0.999849
0.999997
1
1
1
1
1
1
1
0.705241
0.963889
0.999904
0.999998
1
1
1
1
1
1
0.176148
0.540609
0.995838
0.999982
1
1
1
1
1
1
0.175032
0.0087273
0.144892
0.271513
0.183144
0.0579981
0.0213892
0.0146001
0.0117619
0.0106894
0.300436
0.00713975
0.000404358
1.61646e-05
0.000676746
0.000569692
0.00014597
3.00801e-05
3.58627e-06
8.8028e-07
0.300646
0.022376
3.262e-05
4.01495e-06
4.34899e-06
2.92261e-05
1.55087e-05
2.45253e-06
2.26548e-07
3.73835e-08
0.30036
0.028812
1.6768e-06
3.95627e-06
1.71169e-06
2.41381e-06
1.17075e-06
1.59655e-07
1.30827e-08
1.73899e-09
0.300413
0.0422506
1.18323e-05
7.84435e-06
1.29577e-06
1.99336e-07
6.95957e-08
9.10458e-09
7.11957e-10
8.3034e-11
0.300256
0.0590392
1.29364e-05
9.93325e-07
1.17219e-06
5.93366e-08
4.43528e-09
5.06897e-10
4.10937e-11
5.14954e-12
0.299979
0.0733568
3.47233e-05
1.53183e-06
3.5347e-07
5.87382e-09
5.09078e-10
4.36607e-11
3.11451e-12
4.71214e-13
0.299251
0.0849246
5.68245e-05
3.05947e-06
9.57965e-08
1.77992e-09
4.41037e-11
3.5819e-12
6.4657e-13
8.15327e-14
0.297373
0.124476
3.73644e-05
3.35446e-06
1.12237e-07
2.01558e-09
2.32233e-11
9.4207e-13
3.72034e-13
4.46523e-14
0.293458
0.212133
8.29012e-05
1.6917e-06
7.04307e-08
1.02937e-09
1.41238e-11
5.92895e-13
3.14875e-13
3.79211e-14
0.285648
0.24572
0.00032546
5.26647e-07
3.6648e-08
5.08401e-10
7.82982e-12
5.78945e-13
2.95268e-13
3.41964e-14
0.221952
0.23963
8.02723e-05
1.06862e-07
4.2932e-08
5.85273e-10
5.06879e-12
5.39155e-13
2.79607e-13
3.15679e-14
1
1
1
1
1
1
1
1
1
1
1
1
1
1
1
1
1
1
1
1
1
1
1
1
1
1
1
1
1
1
1
1
1
1
1
1
1
1
1
1
0.999998
1
1
1
1
1
1
1
1
1
0.999766
0.999931
0.999999
1
1
1
1
1
1
1
0.95076
0.994568
0.999994
1
1
1
1
1
1
1
0.471393
0.939221
0.999909
1
1
1
1
1
1
1
0.0107595
0.0553012
0.241765
0.23155
0.116965
0.0377057
0.0196274
0.0138757
0.011417
0.0104467
0.00836629
0.00342258
7.20272e-05
3.02148e-06
0.000214685
0.000196113
7.43997e-05
1.17578e-05
1.705e-06
7.25131e-07
0.0246032
0.00424473
-3.74691e-07
1.23109e-06
8.27282e-06
2.01013e-05
6.6498e-06
8.36407e-07
9.03855e-08
2.74289e-08
0.030022
0.00721891
1.14506e-06
8.3505e-07
9.98353e-07
1.4841e-06
4.4564e-07
5.08406e-08
4.77526e-09
1.18212e-09
0.0436195
0.00513463
6.28587e-07
5.90793e-07
1.4539e-07
8.85516e-08
2.50268e-08
2.81183e-09
2.47552e-10
5.45152e-11
0.0598818
0.00454304
8.60893e-07
7.5999e-07
9.85921e-08
8.52283e-09
1.41322e-09
1.5303e-10
1.57698e-11
3.29686e-12
0.0728391
0.00386449
1.87788e-05
1.71376e-06
1.65827e-07
1.96827e-09
1.56853e-10
1.36917e-11
1.21702e-12
3.25726e-13
0.0844912
0.00306755
5.38271e-05
3.38811e-06
1.46236e-07
1.613e-09
1.14187e-11
3.35037e-12
3.1977e-13
2.8314e-14
0.139055
0.00251042
8.19079e-05
5.0135e-06
9.88941e-08
7.54256e-11
2.85591e-12
2.43165e-12
1.83044e-13
6.63809e-15
0.226247
0.00209291
8.7541e-05
5.69607e-06
5.51132e-08
3.07009e-11
1.75149e-12
2.19163e-12
1.5379e-13
4.80625e-15
0.251995
0.00187593
9.45205e-05
5.1581e-06
2.09616e-08
6.19727e-12
1.63892e-12
2.11624e-12
1.3892e-13
4.20969e-15
0.243276
0.0022911
0.000104533
3.45272e-06
4.99262e-11
2.43666e-11
1.79551e-12
2.04351e-12
1.25782e-13
3.80106e-15
1
1
1
1
1
1
1
1
1
1
1
1
1
1
1
1
1
1
1
1
1
1
1
1
1
1
1
1
1
1
1
1
1
1
1
1
1
1
1
1
1
1
1
1
1
1
1
1
1
1
0.999996
0.999999
1
1
1
1
1
1
1
1
0.999889
0.999993
1
1
1
1
1
1
1
1
0.988589
0.999901
0.999999
1
1
1
1
1
1
1
0.128118
0.236568
0.236552
0.140877
0.0522715
0.0254328
0.016701
0.0127324
0.0108289
0.0100082
0.000360495
7.07586e-05
0.000129215
7.03761e-05
0.000181844
9.46967e-05
2.06252e-05
3.1516e-06
8.85569e-07
5.68052e-07
3.21414e-05
2.61591e-06
0.000121128
6.04292e-06
1.44738e-05
7.94632e-06
1.47162e-06
1.82124e-07
3.61407e-08
1.87922e-08
8.52402e-06
0.000389447
0.000131371
5.86217e-07
8.84097e-07
4.96849e-07
8.82096e-08
1.00007e-08
1.63769e-09
7.3779e-10
1.29447e-05
0.00040918
0.000124005
3.7589e-07
6.96736e-08
2.65621e-08
4.76804e-09
5.27457e-10
7.81993e-11
3.4374e-11
1.82804e-05
0.000377199
0.000116124
6.9653e-08
2.59491e-08
1.7456e-09
2.63877e-10
3.33643e-11
5.00306e-12
1.90044e-12
4.28393e-05
0.000362707
0.000111426
2.12134e-08
2.94663e-09
3.17458e-10
3.18883e-11
3.14367e-12
5.4671e-13
2.04108e-13
6.92815e-05
0.000398304
0.000112271
3.84825e-08
6.63551e-10
3.79042e-11
5.60365e-12
1.24493e-12
8.171e-14
1.29206e-14
6.69679e-05
0.000442073
0.000117071
4.65748e-08
6.61282e-10
8.79634e-12
1.55587e-12
8.91916e-13
4.11118e-14
9.37073e-16
0.00070765
0.000470053
0.000121074
3.14233e-08
4.10153e-10
3.62806e-12
7.85329e-13
7.95789e-13
3.62942e-14
3.25162e-16
0.000972444
0.000481017
0.000122969
1.10161e-08
1.01422e-10
1.46809e-12
7.28293e-13
7.40864e-13
3.33086e-14
2.5913e-16
0.000332703
0.000464532
0.000126127
2.04455e-08
1.93221e-10
1.77687e-12
7.04866e-13
6.90594e-13
3.14685e-14
2.3158e-16
1
1
1
1
1
1
1
1
1
1
1
1
1
1
1
1
1
1
1
1
1
1
1
1
1
1
1
1
1
1
1
1
1
1
1
1
1
1
1
1
1
1
1
1
1
1
1
1
1
1
1
1
1
1
1
1
1
1
1
1
0.999998
1
1
1
1
1
1
1
1
1
0.999976
1
1
1
1
1
1
1
1
1
0.273841
0.23048
0.139994
0.0571578
0.029002
0.0190916
0.01417
0.0115456
0.0101003
0.00944296
1.4523e-05
7.50906e-07
7.54831e-05
0.000182581
9.22889e-05
2.20513e-05
4.09482e-06
1.07942e-06
5.69949e-07
4.29962e-07
5.04229e-06
4.1996e-07
8.46321e-06
1.30278e-05
6.6192e-06
1.44413e-06
2.32707e-07
4.57379e-08
1.86684e-08
1.24366e-08
9.58488e-06
2.48039e-07
2.60714e-06
1.12331e-06
3.67554e-07
8.11059e-08
1.25339e-08
2.11227e-09
7.27255e-10
4.42828e-10
1.27222e-05
1.75859e-07
1.09125e-05
4.81968e-07
2.36497e-08
4.29172e-09
6.51835e-10
1.03357e-10
3.47961e-11
2.06818e-11
5.72865e-07
2.90269e-07
1.36122e-05
8.32426e-07
3.80468e-09
2.99596e-10
4.31096e-11
6.92941e-12
1.93454e-12
1.04645e-12
1.57954e-06
2.48694e-07
1.46736e-05
1.01513e-06
2.99547e-10
4.16138e-11
6.2219e-12
9.45051e-13
2.31573e-13
1.19879e-13
3.85428e-06
1.08403e-06
1.61321e-05
1.22347e-06
1.22591e-10
3.92077e-12
2.39336e-12
2.88661e-13
1.82438e-14
6.90142e-15
4.50404e-06
1.94661e-06
1.76823e-05
1.49603e-06
1.37454e-10
2.18916e-12
1.43159e-12
1.99938e-13
3.97243e-15
3.28665e-16
2.15541e-06
1.96138e-06
1.89774e-05
1.74062e-06
1.03502e-10
1.50404e-12
9.54782e-13
1.70627e-13
2.81019e-15
2.72003e-17
-2.59313e-08
1.30448e-06
1.94466e-05
1.86645e-06
4.21385e-11
8.18655e-13
8.76782e-13
1.54227e-13
2.44248e-15
1.058e-17
-2.33495e-09
-6.77922e-23
1.87756e-05
1.83768e-06
4.97772e-12
5.87088e-13
8.69233e-13
1.42257e-13
2.21502e-15
8.62559e-18
1
1
1
1
1
1
1
1
1
1
1
1
1
1
1
1
1
1
1
1
1
1
1
1
1
1
1
1
1
1
1
1
1
1
1
1
1
1
1
1
1
1
1
1
1
1
1
1
1
1
1
1
1
1
1
1
1
1
1
1
1
1
1
1
1
1
1
1
1
1
1
1
1
1
1
1
1
1
1
1
0.19303
0.118786
0.0523424
0.0290607
0.0200463
0.0151065
0.0122144
0.0104098
0.00933348
0.0088284
0.000417744
0.000167466
0.000180103
8.92121e-05
1.99209e-05
3.92431e-06
1.13479e-06
5.73878e-07
3.9671e-07
3.23525e-07
5.07404e-06
5.3771e-06
1.37331e-05
6.26435e-06
1.19611e-06
2.08051e-07
4.70216e-08
1.84885e-08
1.10273e-08
8.25319e-09
1.45738e-06
3.91477e-07
8.56721e-07
3.71926e-07
6.41642e-08
1.07122e-08
2.13187e-09
7.08975e-10
3.8096e-10
2.67101e-10
1.03771e-06
1.02043e-07
1.03108e-07
5.0768e-08
4.02879e-09
5.592e-10
1.06439e-10
3.45493e-11
1.80685e-11
1.23378e-11
8.95443e-07
7.28919e-08
2.39952e-08
3.69883e-08
9.25242e-10
5.01086e-11
7.52531e-12
1.92625e-12
9.0289e-13
5.79853e-13
1.94538e-07
6.0765e-09
2.52358e-09
4.93435e-08
1.40025e-09
5.63336e-12
1.27768e-12
2.62369e-13
1.10891e-13
6.85974e-14
1.06524e-07
5.26672e-09
2.659e-09
5.36308e-08
1.34025e-09
8.04657e-13
4.95546e-13
3.28343e-14
6.54093e-15
3.75379e-15
1.46612e-07
6.88358e-09
3.23325e-09
6.24864e-08
1.36563e-09
4.50101e-13
3.64146e-13
1.47733e-14
4.04347e-16
1.66564e-16
7.29614e-08
3.0252e-09
2.29876e-09
7.41936e-08
1.53427e-09
3.61516e-13
3.14447e-13
1.19324e-14
1.00601e-16
8.49583e-18
1.35154e-08
8.06211e-09
8.83306e-10
8.33552e-08
1.71211e-09
2.96302e-13
2.8608e-13
1.05551e-14
7.19756e-17
6.85603e-19
9.88728e-09
1.00848e-08
9.95801e-11
8.05066e-08
1.7032e-09
2.17623e-13
2.6747e-13
9.51192e-15
6.19862e-17
2.51743e-19
1
1
1
1
1
1
1
1
1
1
1
1
1
1
1
1
1
1
1
1
1
1
1
1
1
1
1
1
1
1
1
1
1
1
1
1
1
1
1
1
1
1
1
1
1
1
1
1
1
1
1
1
1
1
1
1
1
1
1
1
1
1
1
1
1
1
1
1
1
1
1
1
1
1
1
1
1
1
1
1
0.062469
0.038483
0.0255883
0.0191912
0.0151513
0.0125043
0.0106607
0.00939877
0.0086117
0.00823236
0.0006335
0.000190952
8.662e-05
1.98174e-05
3.70417e-06
1.09026e-06
5.59424e-07
3.74406e-07
2.90712e-07
2.48829e-07
3.15228e-05
1.88602e-05
6.9411e-06
1.25357e-06
1.92367e-07
4.35033e-08
1.7571e-08
1.02155e-08
7.14462e-09
5.70453e-09
2.55582e-06
1.35601e-06
4.23376e-07
6.94313e-08
9.814e-09
1.92279e-09
6.6027e-10
3.38601e-10
2.2225e-10
1.68914e-10
1.98657e-07
7.79256e-08
2.39965e-08
4.07315e-09
5.39901e-10
9.86965e-11
3.26339e-11
1.6148e-11
1.0343e-11
7.63965e-12
5.1616e-08
6.07872e-09
2.63522e-09
4.97528e-10
7.76211e-11
8.14413e-12
1.83262e-12
7.95722e-13
4.85461e-13
3.46137e-13
4.17609e-09
1.24635e-09
2.06818e-10
3.35838e-11
3.88746e-11
2.36249e-12
2.7774e-13
1.03103e-13
5.9514e-14
4.04654e-14
1.76053e-09
1.47409e-10
2.71791e-11
5.4882e-12
3.07106e-11
1.3365e-12
4.48324e-14
6.32747e-15
3.24758e-15
2.1148e-15
2.00041e-09
1.09073e-10
3.01279e-11
4.23161e-12
2.65781e-11
1.04589e-12
2.36995e-14
5.70116e-16
1.47001e-16
9.2494e-17
1.15531e-09
4.44875e-11
2.20728e-11
3.02153e-12
2.58566e-11
9.11123e-13
1.90967e-14
2.50626e-16
9.51838e-18
4.46598e-18
1.78859e-10
1.09572e-10
6.46171e-12
1.34643e-12
2.6257e-11
8.3032e-13
1.66272e-14
1.96864e-16
1.80708e-18
2.30026e-19
5.87563e-10
1.44823e-10
9.11636e-13
2.99124e-13
2.53912e-11
7.58119e-13
1.48742e-14
1.70472e-16
1.19206e-18
1.68209e-20
1
1
1
1
1
1
1
1
1
1
1
1
1
1
1
1
1
1
1
1
1
1
1
1
1
1
1
1
1
1
1
1
1
1
1
1
1
1
1
1
1
1
1
1
1
1
1
1
1
1
1
1
1
1
1
1
1
1
1
1
1
1
1
1
1
1
1
1
1
1
1
1
1
1
1
1
1
1
1
1
0.0220553
0.0199418
0.0168868
0.0142931
0.0122815
0.0106861
0.00945534
0.00856582
0.00799033
0.00770648
0.000151736
6.8543e-05
1.79675e-05
3.62416e-06
1.07657e-06
5.51853e-07
3.63705e-07
2.72381e-07
2.25811e-07
1.99212e-07
1.55067e-05
5.92393e-06
1.23648e-06
1.98002e-07
4.32447e-08
1.71586e-08
9.82227e-09
6.55926e-09
5.03987e-09
4.20471e-09
1.15222e-06
3.89153e-07
7.26246e-08
1.04313e-08
1.92119e-09
6.39844e-10
3.19003e-10
1.97332e-10
1.44113e-10
1.15089e-10
6.77898e-08
2.16195e-08
3.9015e-09
5.40191e-10
9.67655e-11
3.16171e-11
1.52501e-11
9.17027e-12
6.53511e-12
5.06787e-12
4.24626e-09
1.21331e-09
2.28127e-10
3.81999e-11
7.17468e-12
1.78529e-12
7.48137e-13
4.29337e-13
2.9735e-13
2.24617e-13
4.71736e-10
1.53035e-10
2.9435e-11
5.48143e-12
1.31331e-12
2.88922e-13
9.99933e-14
5.34911e-14
3.53671e-14
2.55266e-14
4.49427e-11
2.47845e-11
1.34614e-12
4.3153e-13
5.41637e-13
6.60364e-14
6.43275e-15
2.88667e-15
1.85222e-15
1.28601e-15
2.44849e-11
4.07648e-12
5.08057e-13
1.97306e-13
4.03158e-13
3.97507e-14
7.40886e-16
1.33907e-16
8.17565e-17
5.57349e-17
5.64066e-13
2.77121e-12
4.34046e-13
1.56642e-13
3.46645e-13
3.29125e-14
3.86985e-16
1.0413e-17
4.04086e-18
2.67815e-18
1.66183e-12
3.02294e-12
3.60382e-13
1.29991e-13
3.13706e-13
2.89429e-14
3.09556e-16
3.25972e-18
2.37175e-19
1.33261e-19
1.66389e-12
3.0452e-12
3.40984e-13
1.20558e-13
2.89851e-13
2.57646e-14
2.66524e-16
2.46549e-18
2.89137e-20
6.85054e-21
1
1
1
1
1
1
1
1
1
1
1
1
1
1
1
1
1
1
1
1
1
1
1
1
1
1
1
1
1
1
1
1
1
1
1
1
1
1
1
1
1
1
1
1
1
1
1
1
1
1
1
1
1
1
1
1
1
1
1
1
1
1
1
1
1
1
1
1
1
1
1
1
1
1
1
1
1
1
1
1
0.0149157
0.0141239
0.0129125
0.0116666
0.0104818
0.00943648
0.00858053
0.00793428
0.00750349
0.00728628
2.92752e-05
1.04868e-05
2.79173e-06
1.01169e-06
5.57148e-07
3.69132e-07
2.71015e-07
2.16343e-07
1.86611e-07
1.67769e-07
2.34115e-06
7.25184e-07
1.54883e-07
4.11144e-08
1.75257e-08
9.9679e-09
6.50145e-09
4.75899e-09
3.87558e-09
3.32362e-09
1.50321e-07
4.33607e-08
8.3079e-09
1.84662e-09
6.6005e-10
3.27079e-10
1.94846e-10
1.33548e-10
1.04112e-10
8.57548e-11
8.49453e-09
2.37754e-09
4.32381e-10
9.04246e-11
3.20973e-11
1.55725e-11
9.04712e-12
6.03225e-12
4.60103e-12
3.68555e-12
4.69809e-10
1.30862e-10
2.77455e-11
5.96919e-12
1.77e-12
7.64035e-13
4.23333e-13
2.73761e-13
2.10073e-13
1.68386e-13
4.02533e-11
1.37767e-11
2.75103e-12
8.24618e-13
2.42624e-13
9.96996e-14
5.2825e-14
3.26715e-14
2.35475e-14
1.77572e-14
3.99726e-12
5.75125e-12
9.22742e-13
2.34727e-13
2.90457e-14
6.16357e-15
2.85216e-15
1.7001e-15
1.18909e-15
8.6095e-16
1.20107e-12
4.65917e-12
6.40461e-13
1.63672e-13
1.23986e-14
5.77554e-16
1.32541e-16
7.47359e-17
5.2451e-17
3.72617e-17
6.4125e-13
4.0277e-12
5.45852e-13
1.42131e-13
9.68665e-15
2.61638e-16
1.0414e-17
3.71109e-18
2.56616e-18
1.78592e-18
5.33988e-13
3.70247e-12
5.24442e-13
1.29352e-13
8.35091e-15
2.05531e-16
3.31691e-18
2.36853e-19
1.30583e-19
8.86673e-20
5.74278e-13
3.33888e-12
5.12541e-13
1.19907e-13
7.41506e-15
1.77285e-16
2.50899e-18
3.73111e-20
7.02223e-21
4.50188e-21
1
1
1
1
1
1
1
1
1
1
1
1
1
1
1
1
1
1
1
1
1
1
1
1
1
1
1
1
1
1
1
1
1
1
1
1
1
1
1
1
1
1
1
1
1
1
1
1
1
1
1
1
1
1
1
1
1
1
1
1
1
1
1
1
1
1
1
1
1
1
1
1
1
1
1
1
1
1
1
1
0.0120115
0.0116221
0.0109843
0.0102095
0.0094052
0.00865493
0.00801298
0.00751213
0.00716977
0.00699482
3.40835e-06
1.57508e-06
8.44468e-07
5.53686e-07
3.88857e-07
2.87109e-07
2.24375e-07
1.86184e-07
1.64514e-07
1.49519e-07
2.10989e-07
8.04472e-08
3.31756e-08
1.76512e-08
1.0613e-08
6.98526e-09
4.98127e-09
3.85897e-09
3.25619e-09
2.83787e-09
1.20183e-08
4.15647e-09
1.46425e-09
6.73702e-10
3.61446e-10
2.15045e-10
1.41645e-10