/*--------------------------------*- C++ -*----------------------------------*\
| =========                 |                                                 |
| \\      /  F ield         | OpenFOAM: The Open Source CFD Toolbox           |
|  \\    /   O peration     | Version:  2312                                  |
|   \\  /    A nd           | Website:  www.openfoam.com                      |
|    \\/     M anipulation  |                                                 |
\*---------------------------------------------------------------------------*/
FoamFile
{
    version     2.0;
    format      ascii;
    arch        "LSB;label=32;scalar=64";
    class       volScalarField;
    location    "0.26";
    object      alpha.water;
}
// * * * * * * * * * * * * * * * * * * * * * * * * * * * * * * * * * * * * * //

dimensions      [0 0 0 0 0 0 0];

internalField   nonuniform List<scalar> 
8000
(
1
1
1
1
1
1
1
1
1
1
1
1
1
1
1
1
1
1
1
1
1
1
1
1
1
1
1
1
1
1
1
1
1
1
1
1
1
1
1
1
1
1
1
1
1
1
1
1
1
1
1
1
1
1
1
1
1
1
1
1
1
1
1
0.999999
0.999998
0.999997
0.999994
0.99999
0.999986
0.999983
0.999289
0.999973
0.999966
0.999944
0.999905
0.999835
0.999673
0.99789
0.994735
0.992645
0.831313
0.802471
0.78359
0.777861
0.750841
0.693423
0.61938
0.554289
0.504263
0.481118
0.711889
0.558455
0.389984
0.263875
0.147511
0.0640149
0.022078
0.00148157
2.95931e-07
2.80179e-07
0.348539
0.101994
0.0455372
0.0133212
1.54385e-06
6.01109e-07
3.38101e-07
2.95931e-07
2.80179e-07
2.49666e-07
0.00795623
5.99207e-06
2.01153e-06
5.99207e-06
6.35228e-05
5.89285e-05
1.79441e-05
5.94407e-07
2.71142e-07
2.55883e-07
8.43062e-05
2.01169e-06
4.94612e-07
9.48944e-06
6.13316e-05
4.75717e-05
3.06898e-05
7.69645e-06
7.47933e-07
6.27608e-07
8.34806e-06
4.94612e-07
3.28183e-07
1.80991e-06
1.19965e-05
1.35803e-05
1.78843e-05
7.66906e-06
5.59821e-06
8.72875e-06
2.10645e-05
2.17967e-05
4.01575e-07
6.40091e-08
9.39984e-10
3.90329e-07
4.84267e-06
8.39305e-06
6.97701e-06
8.23912e-06
4.20734e-06
1.66156e-05
1.41386e-06
9.38505e-10
1.71671e-11
2.81628e-13
4.87805e-14
3.68962e-06
4.10813e-06
3.87573e-06
4.39323e-08
5.74933e-07
1.02781e-07
1.75716e-11
5.17257e-13
4.87761e-14
2.54805e-14
2.54846e-14
2.30596e-08
1.28827e-07
3.12692e-10
1.72902e-10
1.87916e-10
1.00737e-12
2.31626e-13
3.52601e-13
1.45299e-13
3.60482e-14
1.8228e-14
1.80789e-14
1.11802e-16
5.76479e-16
1.4061e-12
2.34736e-13
2.3069e-13
3.15167e-13
1.28789e-13
9.49994e-14
2.40094e-14
2.64565e-14
1.11285e-16
4.18122e-16
4.16781e-14
3.85306e-14
4.9739e-14
5.98666e-14
4.38679e-14
8.36496e-14
3.01339e-14
5.64338e-14
1
1
1
1
1
1
1
1
1
1
1
1
1
1
1
1
1
1
1
1
1
1
1
1
1
1
1
1
1
1
1
1
1
1
1
1
1
1
1
1
1
1
1
1
1
1
1
1
1
1
1
1
1
1
1
1
1
0.999999
0.999999
0.999999
1
1
1
0.999999
0.999998
0.999993
0.999982
0.999966
0.999946
0.999928
0.999975
0.999981
0.999972
0.999941
0.998594
0.984392
0.95416
0.912645
0.869836
0.840312
0.802585
0.796957
0.771952
0.692152
0.560073
0.409158
0.286129
0.197878
0.141635
0.109358
0.557662
0.358765
0.145619
0.0333823
2.55048e-06
1.84451e-06
1.13769e-06
6.65679e-07
5.95926e-07
3.51469e-07
0.103581
0.0185841
6.19107e-06
2.55048e-06
2.11452e-06
1.3926e-06
6.01109e-07
3.38101e-07
2.95931e-07
2.77309e-07
4.25348e-06
4.66034e-05
6.09295e-05
0.000330959
0.000454397
0.000237952
1.96732e-05
5.8129e-06
8.33845e-07
4.17903e-07
1.01027e-06
1.8039e-05
3.42192e-05
0.000331774
0.000465881
0.000412156
0.000194183
3.69569e-05
4.60672e-06
6.56377e-06
2.74351e-07
7.2936e-06
2.18564e-05
4.467e-05
4.23353e-05
1.43984e-05
2.98172e-06
9.21685e-06
4.3916e-05
4.43675e-05
2.65599e-05
4.55518e-06
4.09262e-06
1.92511e-08
1.13658e-09
3.92164e-11
5.66073e-08
2.69093e-08
1.84532e-05
4.43456e-05
1.7373e-05
5.22314e-06
2.40442e-08
1.13653e-09
3.9215e-11
1.17225e-12
1.99829e-13
4.57556e-07
3.05023e-10
9.16189e-06
2.92012e-07
8.36637e-07
6.05493e-08
8.49116e-11
2.81824e-12
1.99824e-13
1.33685e-13
2.34324e-14
2.00595e-14
1.85059e-14
1.85232e-10
5.28505e-10
1.77105e-09
3.04287e-11
6.0655e-13
8.25397e-13
1.09092e-12
2.57461e-13
1.83642e-14
1.8228e-14
8.75433e-16
2.84298e-12
3.04092e-13
8.07715e-13
6.38921e-13
8.15946e-13
1.06866e-12
4.95166e-13
5.46628e-14
3.78021e-14
6.06884e-16
9.56592e-15
2.61916e-13
1.94019e-13
2.23299e-13
3.01281e-13
3.09907e-13
2.59656e-13
7.20714e-14
8.17191e-14
1
1
1
1
1
1
1
1
1
1
1
1
1
1
1
1
1
1
1
1
1
1
1
1
1
1
1
1
1
1
1
1
1
1
1
1
1
1
1
1
1
1
1
1
1
1
1
1
1
1
1
1
1
1
1
1
1
1
0.999999
0.999999
1
1
0.999999
0.999997
0.999992
0.999986
0.999978
0.999968
0.999957
0.99995
0.999966
0.999972
0.999952
0.987824
0.952636
0.910744
0.86535
0.807177
0.740788
0.690849
0.783665
0.772555
0.651011
0.436872
0.285542
0.196027
0.130936
0.0646222
0.0154619
2.85997e-06
0.387454
0.149765
0.0179601
1.09137e-05
2.54394e-06
2.39326e-06
1.99519e-06
1.20226e-06
9.23505e-07
6.62922e-07
0.0449318
5.06314e-06
2.15266e-05
9.17934e-06
2.55048e-06
2.09941e-06
1.3925e-06
1.40401e-06
1.47926e-06
3.54822e-05
1.01022e-06
5.17168e-05
0.000433823
0.000479702
0.00036615
9.35455e-05
1.93725e-06
1.6236e-05
5.34636e-05
3.65764e-05
2.74351e-07
1.46045e-05
0.000340441
0.000479702
0.000479702
0.000352396
7.8342e-05
2.05337e-05
7.00524e-07
2.74949e-06
2.05783e-07
1.52408e-05
4.14613e-05
5.81808e-05
1.43211e-05
1.66349e-05
1.38017e-05
3.96893e-06
9.6194e-06
1.87937e-05
5.97158e-07
5.3139e-06
1.18905e-07
3.6336e-07
4.84791e-10
2.02065e-11
1.31633e-12
1.85404e-09
5.90248e-06
2.33114e-05
1.55264e-06
2.58975e-08
9.00238e-09
3.11481e-09
1.8996e-11
1.31633e-12
4.75408e-13
7.52219e-14
7.21743e-12
3.29802e-06
9.03019e-08
5.42882e-08
2.61358e-09
1.48728e-10
1.63319e-12
1.27176e-12
3.86908e-12
3.41177e-14
2.42665e-14
1.94337e-14
1.68935e-10
1.40068e-09
1.00964e-10
4.77561e-12
2.33629e-12
2.95355e-12
4.36417e-12
5.95091e-13
1.9292e-14
1.85059e-14
1.43335e-12
2.71014e-13
2.2619e-12
8.71362e-13
8.83515e-13
1.1709e-12
1.95015e-12
3.89369e-13
9.21047e-14
6.70327e-14
4.16134e-14
2.42245e-13
1.73474e-13
1.43842e-13
1.38549e-13
1.89748e-13
2.01256e-13
2.14894e-13
1.91008e-13
1.83096e-13
1
1
1
1
1
1
1
1
1
1
1
1
1
1
1
1
1
1
1
1
1
1
1
1
1
1
1
1
1
1
1
1
1
1
1
1
1
1
1
1
1
1
1
1
1
1
1
1
1
1
1
1
1
1
1
1
1
1
1
1
0.999999
0.999999
0.999997
0.999992
0.999986
0.999983
0.999982
0.999982
0.999674
0.997843
0.999944
0.999941
0.988223
0.929583
0.856009
0.783028
0.718834
0.66177
0.584429
0.521365
0.777531
0.69478
0.441086
0.22378
0.116514
0.0530498
0.00848304
6.52614e-05
6.521e-05
3.07558e-05
0.259905
0.0361425
1.24825e-05
4.17878e-06
3.52436e-06
2.38683e-06
2.81366e-06
5.71814e-05
5.97643e-05
4.5559e-05
0.0127049
2.10206e-06
6.22446e-06
7.92544e-05
2.30014e-05
2.23161e-06
1.86041e-06
0.000225779
0.000584771
0.000471792
3.50175e-06
0.000275667
0.000444575
0.000342938
2.23183e-06
1.26833e-06
2.00631e-07
2.34806e-05
5.46354e-05
4.56071e-05
1.50655e-07
0.00013921
0.000461392
0.000479702
0.000161991
6.67742e-06
3.48502e-05
5.16938e-08
1.47158e-08
1.45604e-08
1.36657e-08
2.25511e-05
2.91056e-05
2.68145e-06
0.000215827
0.000217492
0.000112086
3.30336e-08
1.36821e-08
1.14458e-08
7.76694e-10
1.69563e-07
1.00006e-06
6.68856e-07
4.3884e-11
2.581e-06
7.33469e-13
1.56872e-10
1.81253e-09
3.65403e-08
1.14336e-09
1.23138e-09
5.57729e-09
2.51198e-11
1.78573e-12
7.33469e-13
5.4433e-13
1.26951e-13
2.90204e-09
2.8465e-08
5.15453e-10
7.06066e-11
1.83698e-10
4.42424e-12
7.84641e-13
7.38788e-13
9.52053e-13
1.24966e-13
4.95844e-14
3.61668e-14
4.57421e-12
2.13677e-11
4.80205e-12
2.3342e-12
1.0408e-12
9.86382e-13
8.53971e-13
1.42454e-13
2.42665e-14
1.94337e-14
2.15958e-13
6.70231e-13
8.51228e-13
6.75391e-13
6.97709e-13
6.83352e-13
6.53904e-13
1.53654e-13
4.95839e-14
3.61668e-14
3.7845e-14
1.88346e-13
1.43687e-13
9.64265e-14
1.05199e-13
1.03617e-13
1.73705e-13
1.02073e-12
6.10494e-13
4.8061e-12
1
1
1
1
1
1
1
1
1
1
1
1
1
1
1
1
1
1
1
1
1
1
1
1
1
1
1
1
1
1
1
1
1
1
1
1
1
1
1
1
1
1
1
1
1
1
1
1
1
1
1
1
1
1
1
1
1
1
1
1
0.999998
0.999998
0.999992
0.999986
0.999983
0.999986
0.997496
0.990562
0.981255
0.969722
0.999903
0.998676
0.953699
0.857021
0.743234
0.634213
0.534728
0.438286
0.346235
0.283522
0.74947
0.562363
0.29037
0.117893
0.031097
4.02924e-05
0.000108626
7.68369e-05
4.75197e-05
3.84556e-05
0.14121
2.10206e-06
2.57318e-06
3.66962e-06
4.27988e-06
5.40198e-06
0.0002445
0.000528204
0.000577554
0.000213193
6.43183e-07
1.13298e-06
2.10206e-06
9.86616e-05
0.000273228
0.00052342
0.00128354
0.00180723
0.00161142
0.000345954
6.12969e-06
0.000265022
0.000386327
2.77047e-05
1.48137e-06
2.01203e-07
1.02415e-07
6.02227e-08
1.47158e-08
1.45604e-08
2.60297e-06
0.000117177
0.000343617
0.000290941
2.19827e-05
2.40467e-05
1.72902e-07
1.81269e-07
1.20729e-08
1.22443e-08
2.96645e-06
1.43031e-05
6.53453e-08
1.86818e-05
0.000237411
0.000126574
1.11851e-06
7.56385e-07
1.06187e-08
7.04737e-09
4.12053e-10
4.19358e-10
6.91551e-08
4.55903e-11
1.01739e-05
2.5158e-05
1.70307e-05
2.36112e-08
9.84487e-11
7.39318e-09
1.75945e-11
3.79729e-11
1.07859e-10
1.68496e-12
7.49097e-13
5.87966e-13
3.85777e-13
2.43209e-13
1.58968e-10
2.0979e-09
4.60577e-13
2.1627e-12
3.37301e-12
7.84641e-13
6.99526e-13
3.85777e-13
2.22879e-13
1.26951e-13
1.72703e-13
2.75356e-13
2.27153e-13
5.81374e-13
2.77859e-12
2.16738e-12
9.45956e-13
5.8797e-13
3.97333e-13
1.14675e-13
4.95844e-14
3.61668e-14
2.2689e-13
6.1401e-13
8.13553e-13
6.9012e-13
6.70872e-13
3.94749e-13
6.09227e-13
3.84389e-13
6.95354e-13
5.07974e-13
5.08278e-14
2.26668e-13
1.30621e-13
1.10291e-13
1.50899e-13
1.09923e-13
5.68125e-13
1.10244e-10
1.77946e-11
3.02038e-10
1
1
1
1
1
1
1
1
1
1
1
1
1
1
1
1
1
1
1
1
1
1
1
1
1
1
1
1
1
1
1
1
1
1
1
1
1
1
1
1
1
1
1
1
1
1
1
1
1
1
1
1
1
1
1
1
1
1
1
1
0.999996
0.999993
0.999986
0.999983
0.999987
0.9926
0.970946
0.944891
0.951406
0.952568
0.99983
0.984041
0.911135
0.7839
0.635616
0.469751
0.324567
0.216301
0.162787
0.163513
0.688909
0.406944
0.196635
0.052681
3.27461e-05
5.0324e-05
0.000108383
8.58625e-05
7.6832e-05
4.75186e-05
0.0582539
1.30426e-06
2.22767e-06
2.5726e-06
4.146e-06
0.000152898
0.000161443
8.5863e-05
8.13759e-05
7.67831e-05
5.16349e-07
6.43183e-07
1.30426e-06
3.60402e-06
0.00116115
0.00254581
0.00266027
0.00260433
0.00141708
3.49137e-05
6.45255e-06
3.63618e-05
1.64735e-05
4.16125e-06
2.60171e-06
1.48137e-06
2.01203e-07
9.97303e-08
6.57065e-08
2.65166e-05
5.86939e-06
8.65773e-05
0.00014176
8.13741e-06
3.73094e-05
1.51811e-06
3.40741e-07
2.41374e-06
1.09824e-08
7.04365e-09
8.32789e-06
4.16031e-06
2.51146e-09
4.13597e-05
0.000127483
6.16921e-06
1.02518e-06
9.57279e-06
5.17962e-07
5.37177e-09
3.03069e-07
3.79938e-11
2.26415e-11
2.42115e-12
8.06845e-09
3.11723e-05
7.36807e-07
6.5949e-06
8.69895e-07
1.08592e-09
1.84988e-13
9.00516e-13
1.07388e-12
6.91272e-13
6.58264e-13
2.11806e-10
5.87966e-13
5.48969e-12
3.49326e-12
5.22318e-12
4.2832e-14
1.99571e-13
2.68808e-12
1.70021e-12
5.43545e-13
2.72737e-09
3.85777e-13
1.82822e-13
3.63281e-13
6.21676e-13
3.71732e-13
8.68417e-13
3.02574e-12
1.71448e-12
4.44279e-13
1.16412e-08
6.48766e-13
1.3863e-12
3.29924e-12
3.06923e-12
3.21731e-13
8.30515e-13
1.26621e-12
7.29392e-13
3.00646e-13
1.5203e-08
5.06792e-12
3.14092e-11
7.68419e-11
6.67535e-11
6.32332e-14
3.1951e-13
2.18336e-13
1.86173e-13
1.53892e-13
1.08169e-08
1.21154e-10
9.42421e-09
1.61326e-09
1.38479e-09
1
1
1
1
1
1
1
1
1
1
1
1
1
1
1
1
1
1
1
1
1
1
1
1
1
1
1
1
1
1
1
1
1
1
1
1
1
1
1
1
1
1
1
1
1
1
1
1
1
0.996506
1
1
1
1
1
1
1
1
1
1
0.999994
0.999981
0.999978
0.999982
0.997411
0.971392
0.936252
0.908914
0.909761
0.962605
0.99959
0.952402
0.863646
0.714896
0.531533
0.323108
0.170959
0.154857
0.213495
0.311035
0.611288
0.281039
0.127135
0.00478457
9.70429e-06
2.07627e-05
5.03188e-05
0.000122041
0.00107329
0.0019239
0.0169268
1.26687e-06
2.28102e-06
2.72507e-06
5.53014e-06
2.56953e-05
4.07933e-05
6.33193e-05
0.000156242
0.0002486
4.88444e-07
5.16349e-07
1.26683e-06
0.000106195
0.00215267
0.00267127
0.00267127
0.00218156
0.000443886
0.000138929
1.4524e-06
7.51873e-06
5.54604e-06
1.04079e-05
1.8773e-06
3.18244e-05
8.88107e-05
0.000435808
0.000408079
0.000522147
5.50334e-06
5.47304e-05
2.72507e-05
8.06377e-06
1.1808e-06
1.16952e-06
3.01705e-05
2.76789e-06
3.81886e-05
0.000165378
1.44125e-05
7.0017e-06
2.02721e-09
1.75178e-05
2.27999e-06
2.56618e-07
5.27201e-05
7.17422e-05
2.65175e-07
4.07503e-09
6.76899e-06
9.00463e-13
1.07388e-12
1.91933e-12
2.60619e-06
3.54226e-08
1.89592e-05
0.000141587
2.38634e-05
8.19639e-09
4.29523e-14
1.85186e-13
3.88323e-13
6.18397e-13
1.23e-12
-2.36565e-12
2.031e-05
0.000141734
8.02717e-05
7.78173e-06
3.10446e-14
2.22961e-13
3.29383e-12
1.05751e-12
6.12323e-13
6.07903e-13
2.92833e-05
0.000140861
7.67373e-05
1.35916e-05
8.96257e-14
1.21483e-12
4.75025e-12
1.43497e-12
5.56443e-13
7.2299e-13
2.90959e-05
9.93666e-05
5.74766e-05
2.4071e-05
1.05974e-13
1.11329e-12
2.03324e-12
8.64498e-13
4.44279e-13
2.62651e-07
2.27716e-05
7.38556e-05
4.17986e-05
2.69114e-05
4.81724e-14
3.42386e-13
2.22838e-13
3.40878e-13
6.82924e-13
3.3892e-07
1.42812e-05
5.99795e-05
4.58752e-05
3.43955e-05
1
1
1
1
1
1
1
1
1
1
1
1
1
1
1
1
1
1
1
1
1
1
1
1
1
1
1
0.99838
0.999881
1
1
1
1
1
1
1
1
0.997455
0.999859
1
1
1
1
1
1
1
1
0.998167
0.999891
0.999296
1
0.999999
1
1
1
1
1
1
1
0.999996
0.99999
0.999964
0.999968
0.999983
0.99009
0.946977
0.91349
0.928226
0.981119
0.999977
0.997345
0.909512
0.802603
0.649064
0.430545
0.216344
0.168342
0.282234
0.529229
0.793764
0.54134
0.192722
0.0570347
8.88834e-06
1.6654e-05
2.948e-05
3.66081e-05
0.00252965
0.0363193
0.194088
4.84964e-07
6.07809e-07
1.4415e-06
2.53631e-06
1.90322e-05
4.17115e-05
4.49782e-05
0.000375777
0.000997607
0.0021057
4.86244e-07
4.89401e-07
9.11985e-07
0.00020596
0.00261952
0.00266435
0.00206722
0.00110987
0.000522046
0.00108077
4.89401e-07
4.92154e-07
4.95137e-06
3.88134e-05
3.18615e-06
0.00147514
0.00298161
0.00135614
0.000358371
0.00124115
1.52909e-06
1.30885e-05
1.64994e-06
2.65576e-07
3.38389e-07
0.000338517
0.00209717
0.000898644
0.000257308
0.00137347
5.96861e-06
3.35444e-05
6.78286e-06
8.57902e-09
9.75246e-08
7.35003e-05
0.000645061
0.000141736
0.000109072
0.000404797
9.75302e-06
2.93859e-06
8.10776e-07
2.39526e-12
1.36902e-09
2.37753e-05
0.000436255
1.77555e-05
9.98028e-06
3.57495e-08
3.3895e-06
1.04587e-08
-1.4174e-13
7.8819e-14
-4.21365e-14
1.01755e-05
0.000376331
1.28348e-05
8.04582e-06
1.74047e-06
3.13007e-14
2.86642e-14
3.6261e-14
9.36174e-14
1.26371e-13
2.65311e-08
0.000366134
7.34262e-06
5.9375e-06
7.99095e-07
3.09766e-14
1.45976e-13
2.75371e-13
2.90772e-12
1.01885e-10
6.43109e-11
0.000293286
0.000853545
5.36277e-06
7.95276e-07
8.70038e-14
2.95282e-13
2.78196e-13
3.64295e-12
5.16379e-10
2.8554e-10
0.000227492
0.00174216
1.55901e-05
6.53791e-05
1.01449e-13
2.00072e-13
3.00103e-13
8.51819e-12
1.4281e-09
2.48181e-09
0.00020512
0.00182737
7.48429e-05
0.000734551
1
1
1
1
1
1
1
1
1
0.689838
1
1
1
1
1
1
1
1
1
0.845541
1
1
1
1
1
1
1
0.999862
1
0.952489
1
1
1
1
1
1
1
0.999606
0.997513
0.984942
1
1
1
1
1
1
1
0.999717
0.998209
0.999938
1
0.999999
0.999999
1
1
1
1
1
0.999996
0.999977
0.999985
0.999944
0.999957
0.999464
0.980613
0.954376
0.922463
0.982746
0.999942
0.999938
0.993687
0.865403
0.735836
0.57535
0.342216
0.17849
0.225999
0.549619
0.945326
0.999852
0.488767
0.136653
0.0105952
1.05804e-05
1.53197e-05
2.58082e-05
0.00106503
0.0482704
0.581137
0.973494
4.84964e-07
4.82073e-07
6.07807e-07
2.36348e-06
1.50283e-05
1.53198e-05
0.000142592
0.00118182
0.124024
0.874224
4.82076e-07
4.89119e-07
9.09969e-07
0.000302059
0.00122206
0.000240569
0.00133899
0.00168331
0.00707743
0.390311
4.88998e-07
5.02226e-07
8.863e-07
6.08558e-05
0.00191803
0.00300199
0.00302728
0.00251255
0.00570706
0.00806278
2.28149e-06
1.58237e-05
3.04421e-06
2.8734e-07
0.00036289
0.00303838
0.00303863
0.00120553
0.00172943
0.000881752
1.05556e-05
3.35716e-05
9.45835e-06
5.99874e-08
2.5614e-07
0.00148836
0.00302728
0.000302059
8.36303e-05
0.000219185
9.78705e-06
3.08139e-05
9.58369e-06
8.58347e-09
1.7928e-08
0.000246653
0.00300285
0.000252032
2.66806e-05
4.32859e-05
4.72379e-06
9.07553e-07
3.76662e-07
8.48962e-09
-2.91698e-11
8.09567e-05
0.00297673
0.000182144
1.28289e-05
9.1653e-06
9.4516e-08
2.59918e-14
3.15737e-14
1.10786e-13
4.54824e-13
1.12849e-05
0.000691289
0.000126786
6.65511e-06
2.32106e-06
2.54776e-14
2.55709e-14
2.59918e-14
3.15737e-14
6.50234e-13
4.54647e-06
4.64177e-06
5.58733e-05
6.61225e-06
1.91448e-06
2.91629e-14
4.20422e-14
6.39394e-14
1.99159e-13
1.75365e-11
1.91192e-06
0.000135383
1.69852e-05
1.20946e-05
1.0254e-05
4.26211e-14
7.31024e-14
1.51019e-13
5.18405e-12
4.63569e-10
1.8426e-06
0.000512731
2.36558e-05
1.6752e-05
2.35808e-05
1
1
1
1
1
1
1
1
0.652322
0.381582
1
1
1
1
1
1
1
1
0.803039
0.382542
1
1
1
1
1
1
1
1
0.913091
0.3899
1
1
1
1
1
1
1
1
0.943539
0.395319
1
1
1
1
1
1
0.997458
0.999998
0.977883
0.408458
1
0.999999
0.999999
1
1
1
1
0.999989
0.999989
0.489997
0.999982
0.999926
0.999951
0.997777
0.971337
0.953668
0.974209
0.999986
0.99967
0.644038
0.991108
0.834543
0.684183
0.520012
0.295422
0.18056
0.34258
0.81329
0.999354
0.654115
0.463709
0.101713
7.95911e-06
2.36948e-05
1.60025e-05
2.64618e-05
0.00201629
0.202657
0.964024
0.640073
4.54358e-07
5.92744e-07
1.42644e-06
1.02682e-05
1.46138e-05
1.60026e-05
0.000221296
0.00221112
0.896725
0.633583
4.69692e-07
7.23551e-07
0.000219275
0.000724389
0.000367865
0.000254206
0.000301187
0.00417561
0.499302
0.67123
5.02227e-07
8.8646e-07
0.000198495
0.00129316
0.0018688
0.000587546
0.000603835
0.0031191
0.0268031
0.660066
1.17559e-06
3.45474e-06
7.84771e-07
5.3828e-05
0.00085201
0.000868591
0.000961176
0.00262902
0.00136819
0.635911
8.55649e-06
3.23709e-05
1.91342e-06
1.21134e-07
4.32255e-05
0.00086523
0.000837886
0.00103518
0.000272796
0.535163
1.39732e-05
3.29151e-05
1.23919e-05
6.80668e-08
5.89086e-08
0.000295731
0.00065651
0.000126158
9.08444e-05
0.297655
5.66787e-06
2.25219e-05
7.53877e-06
4.87596e-09
5.40086e-09
1.57207e-06
0.000635032
6.93464e-05
3.17179e-05
0.108213
2.59722e-07
2.61965e-14
3.79361e-14
8.56786e-09
7.73093e-10
5.95611e-09
0.000497147
5.51329e-05
1.77819e-05
0.0748579
2.52255e-14
2.54776e-14
2.61965e-14
3.79361e-14
6.67324e-09
3.14666e-07
5.85354e-05
3.61202e-05
1.21213e-05
0.0879503
3.91516e-14
6.87212e-14
6.14648e-14
4.20248e-13
7.77282e-09
1.82414e-06
9.77387e-07
3.17036e-05
1.6752e-05
0.163073
9.42096e-14
1.76406e-13
2.08148e-13
1.14333e-11
1.07061e-09
5.28704e-06
2.25011e-05
3.47273e-05
2.35808e-05
0.194544
1
1
1
1
1
1
1
1
0.618841
0.381013
1
1
1
1
1
1
1
1
0.767223
0.381834
1
1
1
1
1
1
1
1
0.88413
0.389008
1
1
1
1
1
1
1
1
0.92536
0.401836
1
1
1
1
1
1
0.997462
0.999997
0.970856
0.436457
1
0.999999
0.999999
1
1
1
1
0.999989
0.99999
0.548341
0.999982
0.999925
0.99995
0.997744
0.971216
0.957168
0.977164
0.999986
0.99967
0.681058
0.990952
0.83433
0.683221
0.519218
0.288632
0.177143
0.344396
0.820286
0.999326
0.662316
0.462042
0.101361
5.43713e-06
2.47754e-05
2.6463e-05
4.07411e-05
0.00234275
0.222855
0.969821
0.636976
4.26643e-07
5.23909e-07
1.17636e-06
2.71446e-05
3.84665e-05
4.04357e-05
0.00025357
0.00231633
0.897954
0.633583
4.34931e-07
6.30018e-07
9.88482e-05
0.000619172
0.00154978
0.00163386
0.00134939
0.00450432
0.478927
0.660523
4.79862e-07
9.76346e-07
0.000302833
0.000585322
0.000207263
0.00059936
0.00175791
0.00305669
0.0261523
0.644642
1.24818e-06
4.31699e-06
4.62879e-07
1.40388e-07
4.7728e-05
1.11988e-05
0.000516588
0.000721612
0.000318196
0.592349
9.2631e-06
3.28897e-05
2.6645e-06
1.15484e-07
1.28732e-06
4.57455e-06
1.11228e-05
2.03375e-05
4.01319e-05
0.485534
1.49971e-05
3.29151e-05
1.43712e-05
6.6528e-08
8.0843e-09
2.02158e-05
2.82639e-06
9.64321e-05
0.0006278
0.456652
5.60726e-06
2.42858e-05
8.84418e-06
7.07511e-10
1.16608e-09
4.25614e-07
8.40119e-07
0.000308172
0.000959856
0.475631
2.33341e-07
2.57485e-14
2.87541e-14
6.39509e-10
7.04556e-10
4.66628e-10
3.96981e-08
0.000272415
0.000861114
0.416721
2.50957e-14
2.52255e-14
2.57608e-14
2.87541e-14
2.48153e-10
7.47148e-11
5.37961e-06
7.47142e-05
0.000485352
0.206405
3.49342e-14
5.8047e-14
1.62592e-13
5.7735e-12
3.45873e-10
1.63051e-08
1.10039e-08
0.000213301
0.000844088
0.0333942
7.87099e-14
1.45016e-13
1.1197e-12
1.58781e-11
2.82128e-09
1.13252e-07
3.71331e-08
0.00105759
0.00115827
0.0183227
1
1
1
1
1
1
1
1
1
0.722249
1
1
1
1
1
1
1
1
1
0.878255
1
1
1
1
1
1
1
0.99987
1
0.977218
1
1
1
1
1
1
1
0.999385
0.997416
1
1
1
1
1
1
1
1
0.9997
0.998423
0.999988
1
0.999999
0.999999
1
1
1
1
1
0.999998
0.999986
0.999985
0.999942
0.999955
0.999337
0.979603
0.958136
0.923942
0.980307
0.99995
0.999976
0.993332
0.864914
0.733772
0.570897
0.329788
0.166054
0.226421
0.549073
0.944875
0.999876
0.484338
0.134935
0.0102283
9.35843e-06
3.10733e-05
6.09251e-05
0.00222567
0.0598529
0.566686
0.966718
4.29306e-07
4.26643e-07
5.51345e-07
1.26631e-06
0.000105067
0.000132001
0.00154556
0.00112346
0.0954167
0.879603
4.26709e-07
4.34931e-07
8.24037e-07
0.000253577
0.00166223
0.00165429
0.00114854
5.98249e-05
0.00211134
0.479161
4.33102e-07
1.09075e-06
5.03847e-05
0.000129229
5.11249e-07
7.03405e-07
1.58758e-05
3.56795e-06
0.000114138
0.0324991
4.00792e-06
2.02834e-05
3.19436e-06
1.28007e-07
4.16693e-08
1.93151e-05
5.58524e-05
1.48429e-05
1.48986e-05
2.7907e-05
1.24717e-05
3.37438e-05
1.06127e-05
4.16693e-08
5.04843e-09
5.63154e-07
0.000122941
1.38846e-05
3.65195e-07
5.19106e-06
1.08978e-05
3.21141e-05
1.35132e-05
5.04841e-09
3.65332e-10
4.74775e-09
6.59881e-05
0.000308686
6.34978e-07
5.90465e-06
4.06244e-06
2.84603e-06
1.05202e-06
2.27608e-08
5.67384e-12
1.0501e-10
3.13085e-05
0.000957551
5.08117e-07
3.02101e-06
4.2672e-08
2.26914e-14
2.68989e-14
3.48024e-13
1.10997e-12
7.15965e-12
3.42839e-05
0.000964204
7.16903e-06
4.09394e-06
2.51154e-14
2.50975e-14
2.54133e-14
5.46076e-13
2.57118e-12
1.75206e-12
5.3573e-06
0.000964204
9.78552e-06
1.13186e-06
2.50959e-14
4.67563e-14
1.0907e-13
2.97461e-12
8.72791e-11
4.55157e-10
8.70534e-10
0.000939724
1.85479e-05
1.22327e-06
2.58898e-14
1.30399e-13
3.69523e-13
3.76527e-12
1.21428e-10
1.09006e-09
3.67918e-09
0.000323336
0.00168036
8.19352e-06
1
1
1
1
1
1
1
1
1
1
1
1
1
1
1
1
1
1
1
1
1
1
1
1
1
1
1
0.998349
0.999931
1
1
1
1
1
1
1
1
0.997682
0.999916
1
1
1
1
1
1
1
1
0.998651
0.999947
0.999287
1
0.999999
1
1
1
1
1
1
1
0.999998
0.99999
0.999964
0.999967
0.999981
0.989223
0.95067
0.919543
0.922634
0.97212
0.999979
0.997121
0.909756
0.802401
0.64676
0.417627
0.199721
0.16575
0.246709
0.496755
0.763048
0.536557
0.192048
0.0571922
6.95039e-06
4.40387e-05
0.000171643
0.000265914
0.00124459
0.0284757
0.160056
4.28757e-07
5.40588e-07
6.29216e-07
1.50878e-06
9.36205e-05
0.000634948
2.12644e-05
5.9825e-05
0.000518387
0.00169849
4.28757e-07
4.29176e-07
7.35927e-07
0.000167641
0.000528107
4.45667e-05
1.45265e-06
9.49596e-07
1.07741e-05
0.000208011
4.28713e-07
8.33488e-07
8.91621e-06
2.47861e-05
6.31014e-08
3.63058e-07
4.61299e-05
2.81443e-07
6.39369e-07
9.40644e-06
1.8024e-06
1.76237e-05
6.50456e-06
4.84925e-08
2.64314e-08
1.01263e-06
8.51891e-05
4.32509e-05
6.50748e-08
1.04867e-06
7.48494e-06
3.37091e-05
8.28539e-06
1.15105e-08
3.65332e-10
4.74775e-09
2.59569e-05
5.54204e-05
1.96275e-07
3.33077e-07
6.64251e-06
2.36635e-06
7.04054e-07
3.87832e-09
5.67409e-12
1.0501e-10
1.22311e-05
2.54242e-05
2.91287e-08
3.90073e-07
1.5406e-06
3.79852e-13
8.48123e-13
2.21254e-11
4.02956e-13
5.67409e-12
1.18572e-05
5.01957e-05
1.03596e-08
3.28043e-07
2.37683e-14
3.03626e-14
8.30979e-13
7.02766e-13
3.2179e-13
4.3906e-13
6.23058e-06
8.47183e-05
3.32963e-06
5.67367e-07
2.50984e-14
2.58184e-14
1.59942e-12
1.64013e-12
4.78548e-13
5.43108e-13
2.94997e-06
7.74672e-05
8.49986e-06
9.67729e-07
5.47368e-14
3.42642e-13
1.45605e-12
8.21195e-13
5.24361e-13
1.04761e-12
2.13444e-06
4.44692e-05
3.30981e-05
9.5691e-07
8.42858e-14
2.68585e-13
3.23043e-13
3.7096e-13
9.55031e-13
2.91518e-12
1.4083e-07
3.9033e-05
0.000144952
1.25824e-05
1
1
1
1
1
1
1
1
1
1
1
1
1
1
1
1
1
1
1
1
1
1
1
1
1
1
1
1
1
1
1
1
1
1
1
1
1
1
1
1
1
1
1
1
1
1
1
1
1
0.996269
1
1
1
1
1
1
1
1
1
1
0.999994
0.999981
0.999978
0.999982
0.997017
0.970462
0.938132
0.905385
0.894139
0.948016
0.999563
0.953134
0.864407
0.715567
0.523981
0.303574
0.153593
0.140441
0.193423
0.290284
0.608713
0.282415
0.126924
0.00343615
2.78301e-05
7.07955e-05
6.35416e-05
4.14929e-05
0.000697022
0.0020065
0.0162614
5.72996e-07
1.50878e-06
3.12894e-06
4.80098e-06
0.00052008
0.0013822
0.000848479
1.09317e-05
0.00024695
4.28262e-07
4.72527e-07
1.33997e-05
0.000583386
0.000875512
7.56573e-06
1.46179e-06
2.81443e-07
6.3605e-07
9.12818e-06
1.36295e-06
8.34808e-06
6.31738e-06
7.76145e-07
2.47364e-07
3.1224e-07
3.63621e-06
1.64849e-07
5.23618e-09
-3.60292e-09
8.62796e-06
4.34659e-05
9.39618e-06
1.98695e-06
2.19602e-06
1.1882e-06
1.24813e-05
1.89933e-06
4.4562e-09
1.3295e-08
1.73287e-05
4.9399e-06
4.27568e-07
4.83011e-11
1.50689e-06
2.00642e-06
6.4429e-09
7.61499e-07
2.16477e-09
3.84783e-08
6.20097e-06
5.83903e-09
8.3374e-13
5.72684e-13
4.02956e-13
4.44368e-08
2.23096e-10
2.44175e-10
2.11289e-08
4.00632e-09
1.208e-13
1.95252e-13
4.46419e-13
5.24213e-13
3.31469e-13
3.7256e-13
2.39705e-13
4.02224e-13
9.68806e-09
6.79759e-07
5.80027e-14
6.35802e-13
3.30055e-12
2.25099e-12
2.20282e-13
2.51158e-09
4.36551e-13
2.81815e-13
8.36506e-14
1.30245e-06
6.76467e-14
9.05398e-13
4.50143e-12
2.06155e-12
1.51799e-13
3.34151e-09
1.76427e-07
4.68818e-12
8.8971e-13
2.08347e-06
6.57011e-14
9.94343e-13
2.32627e-12
5.64559e-13
9.96921e-14
2.48414e-09
5.62489e-07
1.22062e-10
1.33045e-11
2.05244e-06
4.03982e-14
3.00671e-13
3.03423e-13
6.86561e-14
5.20129e-14
9.96921e-14
3.0307e-07
1.05064e-06
2.74936e-10
1.5453e-06
1
1
1
1
1
1
1
1
1
1
1
1
1
1
1
1
1
1
1
1
1
1
1
1
1
1
1
1
1
1
1
1
1
1
1
1
1
1
1
1
1
1
1
1
1
1
1
1
1
1
1
1
1
1
1
1
1
1
1
1
0.999996
0.999993
0.999986
0.999983
0.999987
0.992079
0.96948
0.941217
0.946595
0.950508
0.99983
0.984824
0.912673
0.783439
0.631889
0.461403
0.31798
0.217757
0.159581
0.153942
0.686811
0.411534
0.198808
0.0490323
3.28335e-05
4.79004e-05
3.4655e-05
3.74277e-05
4.16593e-05
5.51774e-05
0.058226
3.25484e-06
3.12894e-06
4.80098e-06
6.6336e-06
5.16057e-05
0.000141691
0.000175936
0.000160938
0.000295555
4.72527e-07
6.74905e-07
0.000123542
0.00101045
0.00103844
0.000662607
0.00014363
0.000256937
0.000440686
0.000530577
1.9719e-06
8.53637e-06
1.36296e-05
3.46213e-05
3.12678e-07
1.669e-07
1.47352e-08
6.53311e-09
4.80005e-09
6.53294e-09
2.71894e-05
4.35397e-05
1.31923e-05
4.93053e-05
1.70487e-05
1.85028e-06
2.73074e-08
4.80005e-09
3.34608e-09
1.18435e-08
9.39233e-06
1.25647e-06
1.21916e-09
3.49973e-10
6.60666e-05
1.10026e-05
7.35496e-09
2.22248e-09
6.78575e-10
2.79267e-08
4.71847e-12
4.84571e-12
1.47358e-11
1.57786e-12
5.44858e-13
2.73649e-06
8.59167e-07
-1.71135e-13
2.06085e-11
3.00496e-11
1.94826e-13
4.69553e-13
8.19091e-13
5.4436e-13
3.96562e-13
2.42376e-13
2.1005e-13
1.86761e-13
8.36506e-14
7.61335e-13
2.88904e-13
6.27884e-13
2.91325e-12
2.63403e-12
1.08589e-12
3.02759e-13
1.55838e-13
5.99657e-14
4.59235e-14
7.31074e-14
3.38487e-13
7.10983e-13
2.46822e-12
2.19255e-12
3.52958e-12
1.61857e-10
1.57447e-13
7.94378e-14
4.32861e-14
2.59426e-14
2.62293e-13
6.5441e-13
9.80857e-13
5.59876e-13
1.54384e-11
9.15085e-10
2.92185e-13
3.39816e-13
8.64829e-14
3.12266e-14
4.4492e-14
2.33861e-13
1.49784e-13
6.18302e-14
2.35857e-11
1.04929e-09
3.46969e-09
7.43481e-12
1.35714e-12
1.17752e-13
1
1
1
1
1
1
1
1
1
1
1
1
1
1
1
1
1
1
1
1
1
1
1
1
1
1
1
1
1
1
1
1
1
1
1
1
1
1
1
1
1
1
1
1
1
1
1
1
1
1
1
1
1
1
1
1
1
1
1
1
0.999998
0.999998
0.999993
0.999986
0.999983
0.999985
0.997417
0.990504
0.981657
0.969518
0.999904
0.998906
0.955355
0.857023
0.74071
0.630981
0.536019
0.443971
0.349106
0.27859
0.747264
0.569479
0.296319
0.117736
0.0279546
3.53936e-05
1.81651e-05
3.04234e-05
5.11228e-05
5.63584e-05
0.14129
3.15728e-06
4.87501e-06
6.15113e-06
7.98721e-06
7.92535e-06
7.01503e-06
2.73589e-05
0.000256272
0.000382052
6.6156e-07
8.01107e-07
2.03998e-05
0.000735373
0.00102107
0.00103675
0.00100175
0.000947814
0.000905588
0.000859199
1.62755e-06
2.01368e-06
5.42026e-05
0.000123792
5.12469e-05
2.78051e-07
3.93158e-08
2.12773e-06
4.23088e-05
1.01969e-08
2.50431e-05
4.34007e-05
2.47779e-05
0.000112466
2.15766e-06
1.98915e-06
9.81566e-09
7.49449e-09
4.80005e-09
8.65296e-09
9.60874e-07
2.6497e-06
1.77923e-06
1.21526e-07
0.000117237
4.31981e-05
1.0727e-08
7.12122e-09
3.307e-08
1.62657e-08
9.00665e-12
1.54791e-10
4.49453e-10
2.72442e-11
7.2643e-07
6.91384e-06
2.58017e-06
7.01663e-09
1.78816e-10
1.6e-09
9.30941e-12
1.86437e-11
1.73523e-10
1.47288e-12
3.08227e-13
2.09191e-13
1.45141e-13
5.99657e-14
1.48736e-09
3.62783e-13
2.45161e-13
6.20578e-13
3.6121e-12
2.388e-12
8.41529e-13
3.46688e-13
2.21229e-13
5.43864e-14
3.53803e-14
8.27734e-14
1.85863e-13
5.14447e-13
2.28058e-12
2.04244e-12
1.17026e-12
7.39718e-13
1.62212e-13
5.5474e-14
5.74334e-14
2.43532e-14
1.68231e-13
4.5666e-13
5.9863e-13
5.46945e-13
1.23058e-12
4.70403e-13
1.93811e-13
6.7344e-14
3.12503e-14
2.48372e-14
3.17514e-14
1.62134e-13
8.47886e-14
6.89223e-14
1.65048e-12
7.41848e-12
1.08443e-12
1.86906e-13
8.63694e-14
3.12504e-14
1
1
1
1
1
1
1
1
1
1
1
1
1
1
1
1
1
1
1
1
1
1
1
1
1
1
1
1
1
1
1
1
1
1
1
1
1
1
1
1
1
1
1
1
1
1
1
1
1
1
1
1
1
1
1
1
1
1
1
1
0.999999
0.999999
0.999998
0.999991
0.999986
0.999982
0.99998
0.99998
0.999771
0.997991
0.999945
0.999942
0.989239
0.929909
0.85408
0.780814
0.714376
0.659679
0.589627
0.525211
0.775704
0.698498
0.450331
0.225192
0.113722
0.0538172
0.012558
3.30374e-05
3.33857e-05
3.45042e-05
0.259135
0.0411753
2.54059e-05
7.98721e-06
7.79306e-06
6.7628e-06
5.80757e-06
6.00974e-06
2.93889e-05
5.15858e-05
0.0129095
3.15728e-06
5.95001e-06
0.000119421
0.000694351
0.000823954
0.000668642
0.000794083
0.000769653
0.000353923
1.2935e-06
2.20606e-06
0.000181142
0.000582482
0.000591164
0.000225187
0.000110477
0.000144309
1.11838e-05
3.50788e-06
1.22296e-05
4.15728e-05
2.95114e-05
0.000228333
0.000297299
7.78015e-07
3.93158e-08
9.81566e-09
7.83589e-09
1.46068e-08
3.01894e-08
1.0655e-05
1.19521e-05
1.88775e-06
7.73667e-05
0.000218477
5.77649e-05
9.23677e-06
2.78859e-08
2.47576e-08
3.66001e-10
2.10847e-07
1.36449e-06
3.68089e-07
2.76236e-11
1.51185e-05
1.62104e-06
1.21576e-10
1.69459e-08
2.00266e-08
6.75746e-10
6.57135e-10
1.07891e-08
5.87178e-12
6.01033e-13
3.08227e-13
1.9656e-13
1.28969e-13
1.28298e-08
6.09122e-08
4.7457e-10
1.11999e-11
4.40638e-11
6.00274e-13
3.95984e-13
3.77737e-13
5.27535e-13
7.80156e-14
3.69755e-14
2.25669e-14
2.10001e-12
9.0576e-13
1.66754e-12
1.6111e-12
1.89658e-12
1.05683e-12
1.27429e-12
1.25454e-12
4.26388e-13
1.6024e-14