/*--------------------------------*- C++ -*----------------------------------*\
| =========                 |                                                 |
| \\      /  F ield         | OpenFOAM: The Open Source CFD Toolbox           |
|  \\    /   O peration     | Version:  2312                                  |
|   \\  /    A nd           | Website:  www.openfoam.com                      |
|    \\/     M anipulation  |                                                 |
\*---------------------------------------------------------------------------*/
FoamFile
{
    version     2.0;
    format      ascii;
    arch        "LSB;label=32;scalar=64";
    class       volScalarField;
    location    "0.26";
    object      p_rgh;
}
// * * * * * * * * * * * * * * * * * * * * * * * * * * * * * * * * * * * * * //

dimensions      [1 -1 -2 0 0 0 0];

internalField   nonuniform List<scalar> 
8000
(
425.646
425.577
425.424
425.284
425.214
425.254
425.404
425.626
425.853
426.015
425.674
425.55
425.313
425.069
424.894
424.837
424.904
425.064
425.249
425.391
425.825
425.583
425.163
424.697
424.3
424.044
423.951
423.991
424.095
424.193
426.375
425.915
425.177
424.332
423.558
422.96
422.575
422.379
422.316
422.324
427.649
426.836
425.596
424.179
422.837
421.711
420.864
420.289
419.951
419.81
430.344
428.939
426.876
424.569
422.359
420.42
418.832
417.609
416.736
416.267
435.38
432.887
429.577
426.053
422.677
419.551
416.8
414.403
412.426
411.243
444.385
440.255
435.635
431.187
426.812
422.511
418.627
414.632
410.602
408.317
394.661
375.481
360.999
352.824
337.039
309.063
274.932
245.321
223.41
213.387
365.59
280.723
192.435
128.741
72.1534
30.8218
10.4632
0.585542
-0.114831
-0.171698
192.403
55.2054
24.2355
6.86018
-0.144913
-0.219847
-0.224131
-0.204668
-0.193719
-0.193947
4.60009
-0.121099
-0.122072
-0.106129
-0.100614
-0.189677
-0.251932
-0.255097
-0.232206
-0.218073
-0.21455
-0.27249
-0.24286
-0.220254
-0.189399
-0.239583
-0.263289
-0.263974
-0.25085
-0.239785
-0.266761
-0.337125
-0.311102
-0.297612
-0.28755
-0.290949
-0.280328
-0.271956
-0.260313
-0.250359
-0.232645
-0.319
-0.329573
-0.304391
-0.288311
-0.283047
-0.274508
-0.265762
-0.262065
-0.257504
-0.202316
-0.250011
-0.293557
-0.289729
-0.278834
-0.275007
-0.272121
-0.265812
-0.262578
-0.259959
-0.190618
-0.213212
-0.248024
-0.26448
-0.269712
-0.272282
-0.272609
-0.270819
-0.26858
-0.266109
-0.204277
-0.215873
-0.238008
-0.254133
-0.264433
-0.27119
-0.27515
-0.276431
-0.275603
-0.273498
-0.219097
-0.22527
-0.237552
-0.250134
-0.261019
-0.269824
-0.276411
-0.280493
-0.281838
-0.280627
-0.224232
-0.228413
-0.236491
-0.246513
-0.25672
-0.266175
-0.274224
-0.28012
-0.283086
-0.282976
425.573
425.524
425.397
425.306
425.318
425.473
425.766
426.14
426.495
426.735
425.547
425.44
425.225
425.026
424.932
424.992
425.21
425.531
425.849
426.076
425.58
425.349
424.941
424.511
424.189
424.059
424.135
424.362
424.626
424.836
425.912
425.446
424.695
423.861
423.146
422.671
422.464
422.471
422.588
422.73
426.832
425.98
424.666
423.185
421.839
420.786
420.061
419.623
419.399
419.378
428.934
427.422
425.154
422.615
420.22
418.154
416.461
415.11
414.117
413.68
432.873
430.175
426.492
422.435
418.502
414.754
411.169
407.844
405.14
403.661
440.201
435.385
430.157
424.515
418.379
407.012
389.722
369.228
349.792
337.04
375.507
364.522
346.813
307.519
247.218
180.258
125.898
86.9199
62.0846
47.4245
280.324
176.371
70.8145
16.0122
-0.0994108
-0.245394
-0.277315
-0.276061
-0.275332
-0.322552
55.9061
9.80943
-0.132937
-0.234472
-0.206057
-0.232049
-0.257202
-0.256901
-0.245513
-0.243605
-0.183447
-0.155967
-0.125968
-0.0235503
0.0415344
-0.142126
-0.295063
-0.296338
-0.265944
-0.24237
-0.282202
-0.282981
-0.268228
-0.107438
-0.0372716
-0.0905992
-0.221843
-0.292773
-0.276689
-0.248973
-0.338129
-0.355019
-0.35582
-0.350354
-0.340056
-0.34007
-0.327021
-0.30092
-0.2561
-0.237668
-0.303756
-0.355031
-0.360943
-0.347223
-0.323309
-0.309973
-0.299636
-0.291711
-0.27221
-0.243863
-0.237827
-0.275464
-0.30496
-0.30619
-0.294713
-0.287547
-0.282215
-0.278109
-0.277095
-0.267075
-0.207358
-0.214765
-0.243276
-0.26234
-0.273722
-0.278389
-0.279369
-0.278005
-0.276325
-0.273841
-0.213112
-0.215124
-0.232949
-0.253268
-0.267128
-0.275913
-0.281323
-0.283977
-0.283963
-0.281666
-0.224173
-0.226781
-0.237873
-0.251921
-0.264553
-0.275005
-0.283188
-0.288782
-0.29123
-0.290184
-0.227934
-0.231138
-0.238902
-0.249636
-0.2611
-0.272105
-0.282015
-0.289775
-0.293552
-0.293541
425.415
425.391
425.301
425.273
425.384
425.673
426.133
426.689
427.207
427.563
425.304
425.219
425.034
424.893
424.895
425.099
425.5
426.022
426.525
426.872
425.154
424.936
424.531
424.13
423.891
423.91
424.194
424.665
425.169
425.522
425.168
424.69
423.879
422.997
422.299
421.936
421.93
422.206
422.605
422.952
425.59
424.663
423.135
421.425
419.932
418.874
418.279
418.072
418.095
418.27
426.87
425.156
422.391
419.318
416.5
414.224
412.5
411.236
410.288
409.945
429.563
426.501
421.908
416.718
411.781
407.572
403.985
400.784
397.633
395.655
435.598
430.196
422.426
409.566
389.934
369.109
347.642
321.895
292.016
270.274
360.9
347.287
286.635
191.574
125.2
86.0381
57.3711
28.2386
6.81423
0.203626
191.125
72.7467
8.67119
-0.0812241
-0.213749
-0.154811
-0.15465
-0.151061
-0.124643
-0.116802
23.814
-0.174032
-0.120424
-0.118195
-0.157634
-0.195059
-0.223277
-0.214503
-0.188821
-0.160626
-0.172778
-0.154888
0.0467001
0.0451075
-0.0469376
-0.240518
-0.316769
-0.291593
-0.228324
-0.209011
-0.255915
-0.284933
-0.155995
-0.109823
-0.107125
-0.172712
-0.314858
-0.303295
-0.26451
-0.231091
-0.310813
-0.34839
-0.388736
-0.392392
-0.374371
-0.336445
-0.31386
-0.288636
-0.254321
-0.229199
-0.327861
-0.353126
-0.367675
-0.357694
-0.336541
-0.317582
-0.299662
-0.282032
-0.262968
-0.23795
-0.286065
-0.297374
-0.298125
-0.301497
-0.299475
-0.29372
-0.28601
-0.278477
-0.272208
-0.263248
-0.241756
-0.238082
-0.245835
-0.263955
-0.278072
-0.283788
-0.284897
-0.283627
-0.281218
-0.277246
-0.234322
-0.23062
-0.242
-0.259684
-0.273354
-0.283078
-0.289587
-0.293411
-0.294397
-0.291814
-0.235667
-0.236741
-0.245796
-0.258988
-0.272489
-0.284729
-0.295128
-0.302816
-0.306809
-0.305641
-0.23551
-0.238316
-0.245934
-0.257288
-0.270446
-0.284137
-0.297299
-0.307739
-0.314075
-0.31418
425.265
425.29
425.264
425.344
425.619
426.13
426.857
427.695
428.449
428.94
425.05
425.011
424.883
424.842
425.011
425.445
426.124
426.946
427.691
428.152
424.679
424.496
424.12
423.796
423.719
423.993
424.621
425.49
426.337
426.802
424.316
423.848
422.988
422.107
421.52
421.4
421.772
422.521
423.334
423.952
424.165
423.176
421.418
419.532
418.026
417.142
416.918
417.253
417.743
418.186
424.556
422.616
419.319
415.766
412.737
410.528
409.234
408.783
408.458
408.857
426.042
422.454
416.727
410.355
404.865
400.495
397.045
394.757
392.416
390.499
431.179
424.575
409.678
378.391
343.891
311.455
282.387
259.58
229.051
204.009
352.636
308.686
193.35
98.1298
51.1369
23.2333
3.71106
0.0374534
0.0291014
0.0372384
126.832
17.2749
-0.0996633
-0.132776
-0.0995067
-0.106287
-0.11199
-0.0875641
-0.0671011
-0.06163
6.47906
-0.288491
-0.142415
-0.0990291
-0.147234
-0.179034
-0.181536
-0.0570996
0.139711
0.0860073
-0.180381
-0.109825
-0.0123107
-0.0915242
-0.276091
-0.280632
-0.287654
-0.254931
-0.202352
-0.187735
-0.259673
-0.241131
-0.132502
-0.153082
-0.315471
-0.371576
-0.31686
-0.293736
-0.246344
-0.220773
-0.300632
-0.340697
-0.390201
-0.407063
-0.219685
-0.207477
-0.242272
-0.275865
-0.244431
-0.22757
-0.308475
-0.341341
-0.350565
-0.343848
-0.329935
-0.315046
-0.292126
-0.268434
-0.252354
-0.241332
-0.288396
-0.299243
-0.29538
-0.296478
-0.296867
-0.292165
-0.283111
-0.273651
-0.265682
-0.258419
-0.260161
-0.256246
-0.260344
-0.272936
-0.283312
-0.28803
-0.28883
-0.287924
-0.28585
-0.281042
-0.250803
-0.250066
-0.257704
-0.269935
-0.282376
-0.292728
-0.300822
-0.30683
-0.310132
-0.307186
-0.248015
-0.250019
-0.257913
-0.270317
-0.284791
-0.299749
-0.314155
-0.326311
-0.333942
-0.332486
-0.245223
-0.248609
-0.256709
-0.269275
-0.285252
-0.3039
-0.324227
-0.342431
-0.352013
-0.351747
425.183
425.29
425.36
425.605
426.128
426.976
428.129
429.409
430.45
431.105
424.863
424.903
424.871
424.996
425.419
426.199
427.325
428.644
429.652
430.248
424.268
424.161
423.866
423.703
423.913
424.631
425.828
427.217
428.437
429.259
423.528
423.118
422.273
421.501
421.196
421.567
422.625
424.086
425.4
426.414
422.807
421.814
419.906
418.004
416.713
416.294
416.763
417.898
419.078
420.169
422.329
420.206
416.484
412.718
409.77
408.11
407.837
408.81
409.077
410.32
422.652
418.5
411.775
404.861
399.03
394.416
390.368
386.007
382.869
379.38
426.757
418.403
390.304
344.254
294.104
248.152
209.322
171.621
135.477
110.773
336.259
248.181
127.325
51.721
13.6066
0.0921243
0.0156557
-0.00908028
-0.0128316
0.0103782
68.9394
-0.137083
-0.251555
-0.138127
-0.111485
-0.104503
0.00213433
0.131589
0.15759
-0.00370467
-0.202195
-0.236145
-0.194561
-0.137599
-0.0378876
0.128938
0.521251
0.808154
0.711738
0.0176741
-0.212304
-0.136071
-0.0970435
-0.308233
-0.279108
-0.232834
-0.222723
-0.211006
-0.190184
-0.18247
-0.260185
-0.263972
-0.203584
-0.25843
-0.373794
-0.308905
-0.277489
-0.245524
-0.212583
-0.190849
-0.286271
-0.322391
-0.365634
-0.353175
-0.195918
-0.246407
-0.279172
-0.246691
-0.22321
-0.201612
-0.286167
-0.311628
-0.324447
-0.322538
-0.309542
-0.280927
-0.257654
-0.250387
-0.238201
-0.22396
-0.277098
-0.286973
-0.290134
-0.291437
-0.290235
-0.284032
-0.273125
-0.267048
-0.261452
-0.251988
-0.265973
-0.267845
-0.272351
-0.279829
-0.286198
-0.289126
-0.289521
-0.291969
-0.29355
-0.287575
-0.261367
-0.263465
-0.270044
-0.280363
-0.291969
-0.30325
-0.313602
-0.323865
-0.332788
-0.329832
-0.258948
-0.262404
-0.270679
-0.28369
-0.30023
-0.319353
-0.339744
-0.359475
-0.375441
-0.37452
-0.255379
-0.259878
-0.269452
-0.284651
-0.305247
-0.331141
-0.361456
-0.391641
-0.41231
-0.412387
425.206
425.428
425.632
426.097
426.958
428.285
430.032
431.885
433.329
434.275
424.788
424.947
425.057
425.41
426.179
427.478
429.333
431.339
432.964
434.225
423.995
424.013
423.866
423.954
424.608
425.971
428.013
430.379
432.346
433.916
422.911
422.624
421.887
421.354
421.538
422.704
424.858
427.601
430.075
432.211
421.66
420.738
418.817
417.081
416.25
416.44
418.177
420.879
423.727
426.593
420.363
418.105
414.159
410.45
408.047
407.533
407.788
410.417
414.343
418.666
419.489
414.701
407.521
400.448
394.356
386.644
376.418
365.614
367.807
373.036
422.367
406.825
369.255
311.79
248.74
183.688
126.89
84.3028
63.5588
63.9225
306.928
179.26
86.2794
23.0206
0.0739197
-0.0284063
0.0110498
0.0011337
0.0351599
0.0762089
28.1686
-0.291825
-0.206519
-0.168707
-0.138936
-0.0599505
-0.069213
-0.0805986
-0.0684838
-0.0919664
-0.217717
-0.249818
-0.222076
-0.216768
0.436559
1.20304
1.28326
1.29068
0.610919
-0.154933
-0.251288
-0.28753
-0.321574
-0.316532
-0.253157
-0.190753
-0.179793
-0.168421
-0.149645
-0.12852
-0.26988
-0.277968
-0.285303
-0.376201
-0.308817
-0.257429
-0.225428
-0.219233
-0.176926
-0.123822
-0.274754
-0.311412
-0.325074
-0.293518
-0.227886
-0.264099
-0.221675
-0.210919
-0.2026
-0.150432
-0.274186
-0.291585
-0.298977
-0.294806
-0.284297
-0.237741
-0.229867
-0.210021
-0.2086
-0.185477
-0.270491
-0.277875
-0.281754
-0.281065
-0.276118
-0.265273
-0.247504
-0.239059
-0.235806
-0.226673
-0.268346
-0.272218
-0.27658
-0.28121
-0.284305
-0.28458
-0.281027
-0.282944
-0.286725
-0.281953
-0.26845
-0.272313
-0.279037
-0.288814
-0.300271
-0.312676
-0.324615
-0.339538
-0.354997
-0.352663
-0.268149
-0.273068
-0.282639
-0.297687
-0.317787
-0.343233
-0.371749
-0.403991
-0.437211
-0.435971
-0.265152
-0.271112
-0.283071
-0.302651
-0.330464
-0.368307
-0.41301
-0.467731
-0.521602
-0.516038
425.336
425.702
426.072
426.803
428.09
430.014
432.469
435.041
436.926
437.604
424.836
425.144
425.437
426.067
427.285
429.316
432.053
435.139
437.726
439.318
423.882
424.069
424.126
424.556
425.781
427.993
431.269
435.061
438.242
440.657
422.505
422.395
421.853
421.691
422.561
424.833
428.698
433.532
437.946
441.522
420.789
419.985
418.179
416.798
416.658
418.142
421.826
427.567
433.867
439.017
418.745
416.363
412.355
409.034
407.624
407.683
411.046
418.826
428.377
437.569
416.666
411.048
403.871
396.862
390.034
376.125
358.247
355.455
368.607
399.226
418.261
389.057
347.159
280.815
208
126.32
66.9845
61.1027
84.7423
124.224
271.195
123.663
55.7076
2.12106
-0.069795
-0.0146815
0.0638664
0.149786
0.711461
1.28622
8.06441
-0.276361
-0.177182
-0.173983
-0.147038
-0.112271
-0.0647751
-0.0532543
-0.0209323
-0.0593557
-0.200335
-0.245723
-0.219618
-0.134315
0.98447
1.26472
1.27178
0.981237
0.0456582
-0.148756
-0.249926
-0.297314
-0.300604
-0.259833
-0.202661
-0.154543
-0.129015
0.0517715
0.0244412
0.133491
-0.262218
-0.277282
-0.298374
-0.291439
-0.251428
-0.18898
-0.144112
-0.174442
-0.148172
0.0217055
-0.260997
-0.295961
-0.28798
-0.257376
-0.242061
-0.207442
-0.122773
-0.10719
-0.154871
-0.0770585
-0.261926
-0.282674
-0.277775
-0.265482
-0.245197
-0.223714
-0.180278
-0.0897061
-0.168311
-0.143739
-0.266464
-0.273587
-0.273631
-0.26866
-0.259125
-0.244963
-0.214125
-0.14886
-0.176031
-0.19936
-0.269262
-0.274226
-0.277607
-0.279833
-0.279936
-0.278093
-0.249718
-0.210459
-0.259255
-0.285405
-0.273363
-0.278659
-0.285798
-0.29572
-0.30721
-0.320336
-0.308319
-0.295253
-0.372734
-0.394873
-0.275739
-0.282215
-0.293654
-0.311902
-0.336833
-0.37096
-0.38982
-0.401498
-0.511604
-0.538141
-0.274072
-0.282108
-0.296744
-0.32293
-0.361313
-0.419053
-0.482376
-0.536032
-0.665174
-0.712412
425.538
426.055
426.606
427.618
429.349
431.848
435.019
438.271
440.215
441.052
424.975
425.444
425.935
426.862
428.582
431.307
435.126
439.542
443.091
445.123
423.902
424.273
424.571
425.397
427.149
430.351
435.06
440.431
445.417
448.903
422.29
422.38
422.101
422.406
423.992
427.584
433.568
440.652
447.883
453.028
420.201
419.523
417.933
417.074
417.738
420.848
427.68
437.581
448.854
457.35
417.511
414.976
411.02
408.428
408.235
410.133
418.963
432.769
447.834
460.89
414.23
407.747
400.676
394.516
385.567
364.825
357.347
379.05
418.629
444.069
413.945
368.331
320.438
254.674
168.458
84.4139
65.5341
110.713
217.928
330.978
239.592
84.6788
24.9928
-0.0385157
-0.0899201
0.00861734
0.0493438
1.12816
15.9609
83.8174
-0.0839928
-0.255998
-0.14124
-0.181711
-0.148944
-0.0913988
-0.0227314
0.0953136
0.324416
0.753152
-0.177348
-0.234517
-0.19556
-0.0665765
1.22633
1.20705
0.973555
0.523542
0.116055
0.296164
-0.223725
-0.261186
-0.250097
-0.196096
-0.182843
0.675914
1.55743
0.642896
-0.0166603
0.295261
-0.249548
-0.270536
-0.257128
-0.228503
-0.205948
0.0315415
1.12449
0.363152
-0.0839765
0.563332
-0.25941
-0.263963
-0.251986
-0.230812
-0.206996
-0.139735
0.234852
-0.122325
-0.122168
0.165842
-0.257323
-0.280038
-0.261584
-0.244232
-0.223236
-0.179999
0.129105
-0.210913
-0.200082
-0.123677
-0.263121
-0.274582
-0.267852
-0.257893
-0.241796
-0.206747
0.120052
-0.217639
-0.270547
-0.2376
-0.269834
-0.275854
-0.27783
-0.277532
-0.271625
-0.253613
0.0973041
-0.24433
-0.366344
-0.360049
-0.276621
-0.283422
-0.291158
-0.301326
-0.310811
-0.315879
-0.0549632
0.419377
-0.478333
-0.488505
-0.281593
-0.289712
-0.303499
-0.325534
-0.354871
-0.399208
-0.245668
1.0992
-0.630389
-0.621613
-0.281356
-0.291096
-0.310619
-0.34574
-0.390632
-0.481777
-0.422435
0.974386
-0.817546
-0.224635
425.744
426.39
427.104
428.352
430.374
433.281
436.863
440.18
442.714
437.36
425.14
425.742
426.42
427.589
429.581
432.927
437.685
443.001
448.626
442.888
423.986
424.518
425.059
426.222
428.355
432.297
438.184
445.322
453.168
454.876
422.211
422.479
422.484
423.2
425.321
430.064
437.908
447.709
458.049
465.572
419.861
419.289
417.939
417.562
418.985
423.818
434.016
448.648
464.093
478.102
416.649
413.977
410.056
408.105
408.821
414.436
428.578
447.54
468.403
486.157
412.314
405.182
397.666
392.282
382.768
370.058
374.346
419.355
454.362
476.258
409.997
348.845
290.581
225.499
133.782
69.8575
90.0724
226.74
402.224
447.992
216.714
59.9336
4.79752
-0.0530427
-0.0857164
0.0429916
0.715276
21.2836
249.265
427.591
-0.127163
-0.240246
-0.0949352
-0.15624
-0.13509
-0.106854
-0.0220445
0.430088
57.9774
414.588
-0.161804
-0.207664
-0.158915
-0.00338481
0.480042
-0.0205494
0.575174
0.72308
3.60976
203.663
-0.201854
-0.225099
-0.206582
-0.155801
0.90008
1.55161
1.57073
1.26838
3.09344
4.23399
-0.237594
-0.242517
-0.224058
-0.199533
0.0471319
1.73528
1.71138
0.583929
0.928454
0.536107
-0.252726
-0.249282
-0.232034
-0.216666
-0.175976
0.836601
1.85159
0.0642294
-0.0573264
-0.0597896
-0.261186
-0.258759
-0.24667
-0.235227
-0.210274
0.0102563
2.02916
0.0602122
-0.100038
-0.241079
-0.264609
-0.278129
-0.265995
-0.25457
-0.235009
-0.129427
2.14994
0.00876026
-0.149758
-0.326668
-0.271773
-0.278964
-0.279475
-0.27857
-0.269838
-0.232566
0.33575
-0.103043
-0.225331
-0.400245
-0.279029
-0.286849
-0.295644
-0.307043
-0.315701
-0.319117
-0.318169
-0.298798
-0.330885
-0.442546
-0.285527
-0.295148
-0.311251
-0.33618
-0.366745
-0.426056
-0.351196
-0.544362
-0.547405
-0.662754
-0.286419
-0.297526
-0.32048
-0.358937
-0.415471
-0.536881
-0.193452
-0.751192
-0.834393
-0.993774
425.883
426.606
427.437
428.814
430.996
434.18
437.419
440.997
436.359
431.411
425.257
425.944
426.741
428.012
430.125
434.126
439.168
445.077
440.272
418.785
424.059
424.701
425.382
426.633
429.099
433.788
440.439
448.975
450.47
400.628
422.197
422.597
422.796
423.775
426.26
432.155
441.383
453.131
458.853
382.737
419.709
419.245
418.078
417.98
420.055
426.694
439.27
457.598
473.407
369.691
416.194
413.535
409.676
408.505
410.227
418.806
437.62
460.871
486.241
372.261
411.27
403.913
395.86
390.528
380.591
375.277
404.709
445.283
476.98
385.911
408.005
336.121
268.246
203.466
115.364
70.836
137.615
341.071
449.249
347.5
205.673
44.4258
0.177841
-0.0413645
-0.0269784
0.169624
1.57702
87.8923
424.309
318.196
-0.14153
-0.235638
-0.103918
-0.133051
-0.108163
-0.072735
0.015436
0.844244
426.304
323.716
-0.153803
-0.196799
-0.0399205
0.2253
0.0432798
-0.0205712
0.0151567
1.95847
261.729
362.761
-0.186693
-0.208119
-0.0912604
0.529174
0.858084
0.111381
0.193035
1.5159
15.0312
378.799
-0.228496
-0.238886
-0.226091
-0.183094
0.318389
0.280677
0.405192
1.41055
0.811536
396.631
-0.249609
-0.241934
-0.239077
-0.216624
-0.169129
0.331416
0.353874
0.521344
-0.020013
360.931
-0.257341
-0.252144
-0.245139
-0.241083
-0.220938
-0.0137407
0.22961
-0.0758808
-0.227099
214.064
-0.265423
-0.26298
-0.261887
-0.259044
-0.248679
-0.206143
0.178896
-0.164597
-0.302976
82.4588
-0.27301
-0.281198
-0.281972
-0.283761
-0.283962
-0.261934
0.0634938
-0.238658
-0.320993
60.4045
-0.280431
-0.288779
-0.298788
-0.312455
-0.326552
-0.350609
-0.353766
-0.336719
-0.349652
75.4682
-0.287331
-0.297804
-0.316339
-0.34206
-0.370843
-0.457719
-0.523109
-0.489925
-0.518671
149.275
-0.288744
-0.300511
-0.324975
-0.363675
-0.427074
-0.562742
-0.69074
-0.712961
-0.778134
190.574
425.898
426.623
427.458
428.838
431.024
434.224
437.413
440.937
435.538
430.525
425.273
425.962
426.767
428.05
430.164
434.156
439.198
445.176
438.082
418.033
424.075
424.722
425.419
426.738
429.131
433.823
440.517
449.192
447.503
400.149
422.213
422.617
422.813
423.72
426.271
432.226
441.583
453.502
456.383
383.648
419.723
419.267
418.106
418.006
420.084
426.778
439.562
458.125
472.46
374.827
416.195
413.557
409.701
408.531
410.25
418.954
438.079
461.595
486.632
385.424
411.233
403.879
395.788
390.456
380.36
375.981
405.443
445.473
476.96
395.222
407.888
335.862
267.794
203.142
112.665
69.1978
137.462
343.218
448.819
348.912
204.921
44.2254
0.179809
-0.0481364
-0.0497538
0.064504
1.48857
96.3816
426.99
316.461
-0.145767
-0.238248
-0.11167
-0.122134
-0.118736
-0.111764
-0.00221823
0.833844
425.713
323.712
-0.152584
-0.193184
-0.096879
0.170059
0.632262
0.630451
0.519587
2.09702
250.167
357.133
-0.182913
-0.203569
-0.0266543
0.115113
-0.130006
0.0720141
0.810836
1.49493
14.7572
370.038
-0.226136
-0.236741
-0.230766
-0.228363
-0.208738
-0.285624
0.0951873
0.25834
0.131156
368.078
-0.247862
-0.241002
-0.245419
-0.236867
-0.2261
-0.268721
-0.244987
-0.167621
-0.235177
325.978
-0.255895
-0.252064
-0.247665
-0.252277
-0.247801
-0.231805
-0.303672
-0.180199
0.0388106
329.295
-0.265149
-0.262097
-0.264603
-0.269018
-0.269351
-0.252476
-0.363149
-0.0898456
0.248135
366.924
-0.272882
-0.281578
-0.284287
-0.29086
-0.298497
-0.313495
-0.411322
-0.182066
0.264108
341.596
-0.280077
-0.288575
-0.299255
-0.315896
-0.335195
-0.382168
-0.445984
-0.392133
-0.0292714
178.478
-0.286692
-0.296899
-0.31391
-0.341138
-0.369307
-0.462652
-0.534858
-0.401021
0.0943655
29.8133
-0.288118
-0.299516
-0.322424
-0.360658
-0.412685
-0.528247
-0.676876
0.223456
0.112811
16.6985
425.788
426.438
427.157
428.407
430.426
433.33
436.879
440.117
442.674
438.233
425.184
425.793
426.478
427.654
429.643
432.97
437.708
442.956
448.666
444.99
424.031
424.572
425.126
426.305
428.421
432.343
438.259
445.422
453.505
458.04
422.254
422.531
422.548
423.266
425.406
430.157
438.06
447.936
458.673
468.658
419.895
419.337
418.006
417.645
419.083
423.892
434.106
448.932
464.947
478.734
416.649
414.009
410.101
408.168
408.847
414.528
428.815
447.861
468.948
486.147
412.243
405.146
397.542
392.022
381.902
369.868
373.38
418.04
453.802
475.076
409.808
348.57
289.541
223.68
128.861
64.0719
87.9213
224.737
400.198
445.934
214.718
59.1819
4.63114
-0.0649463
-0.057579
-0.0309625
0.872644
25.46
242.575
422.26
-0.137865
-0.240342
-0.108103
-0.140459
-0.0951434
-0.0447393
0.606822
0.289201
44.5454
416.277
-0.161234
-0.203652
-0.15548
-0.0147052
0.739948
0.706921
0.433203
-0.103456
0.965078
249.771
-0.192183
-0.212934
-0.176464
-0.132014
-0.207263
-0.195615
-0.160824
-0.126924
-0.016264
18.4323
-0.231883
-0.232081
-0.22383
-0.225346
-0.23641
-0.224453
-0.14377
-0.139304
-0.0981976
0.160904
-0.249537
-0.247148
-0.239881
-0.242328
-0.243447
-0.256368
-0.133404
-0.165897
-0.177382
-0.265766
-0.258223
-0.257496
-0.251525
-0.257861
-0.260696
-0.266225
-0.238426
-0.0505628
-0.32605
-0.672359
-0.264135
-0.277356
-0.272226
-0.27343
-0.278684
-0.286763
-0.313427
0.360649
-0.499161
-0.895298
-0.271044
-0.279196
-0.283496
-0.291465
-0.30312
-0.32267
-0.345036
0.364244
-0.535325
-0.718792
-0.27769
-0.285727
-0.295862
-0.311414
-0.331295
-0.360145
-0.395659
0.420466
-0.474647
-0.298936
-0.283573
-0.292713
-0.307365
-0.330904
-0.36123
-0.406321
-0.458454
0.395253
-0.451813
-0.233541
-0.284505
-0.294773
-0.313889
-0.347711
-0.39096
-0.453661
-0.566175
-0.321973
1.03787
-0.415753
425.604
426.125
426.681
427.696
429.426
431.926
435.074
438.279
440.2
440.98
425.042
425.517
426.014
426.946
428.662
431.388
435.19
439.579
443.193
445.203
423.968
424.349
424.658
425.498
427.264
430.454
435.172
440.56
445.737
449.039
422.352
422.454
422.191
422.52
424.14
427.738
433.756
440.913
448.425
453.401
420.249
419.592
418.024
417.2
417.935
421.003
427.856
437.923
449.401
457.902
417.522
415.028
411.089
408.503
408.225
410.29
419.319
433.086
448.026
460.958
414.159
407.755
400.62
394.352
384.865
364.439
358.379
376.412
414.328
442.334
413.767
368.468
320.236
253.643
163.306
77.536
64.5531
98.2977
204.174
316.922
237.564
84.3709
25.0362
-0.0889771
-0.106044
-0.0262437
0.00306815
0.76916
12.951
68.9167
-0.0838128
-0.265767
-0.154627
-0.161669
-0.104672
0.161651
-0.104716
-0.0574165
0.201539
0.649434
-0.168483
-0.220973
-0.185386
-0.0730591
0.110048
-0.135671
-0.0963121
-0.0641738
-0.0482771
0.0136513
-0.206042
-0.232885
-0.224542
-0.210369
-0.222481
-0.205763
-0.127658
-0.0940954
-0.0516376
-0.108928
-0.241203
-0.250849
-0.239394
-0.239631
-0.244295
-0.240356
-0.161303
-0.115971
-0.102952
-0.177249
-0.253205
-0.257982
-0.251456
-0.251168
-0.248813
-0.247802
-0.214336
-0.170905
-0.19763
-0.266936
-0.256504
-0.278316
-0.265135
-0.262467
-0.261772
-0.259639
-0.252256
-0.243741
-0.288989
-0.366368
-0.262053
-0.273396
-0.271924
-0.273367
-0.277111
-0.28108
-0.285495
-0.263851
-0.319536
-0.3324
-0.267507
-0.274286
-0.279749
-0.286987
-0.296628
-0.308543
-0.32242
-0.271612
-0.338278
-0.270694
-0.273787
-0.280608
-0.289375
-0.3021
-0.318941
-0.337397
-0.355037
-0.298603
-0.346591
-0.203326
-0.278327
-0.285596
-0.297639
-0.316192
-0.34074
-0.369486
-0.395976
-0.368663
-0.378129
-0.236898
-0.278327
-0.286381
-0.301708
-0.326499
-0.360323
-0.402496
-0.45557
-0.457883
-0.374355
-0.383433
425.421
425.791
426.167
426.904
428.195
430.119
432.561
435.124
437.03
437.814
424.921
425.235
425.536
426.173
427.395
429.427
432.155
435.228
437.831
439.556
423.967
424.162
424.232
424.676
425.914
428.132
431.414
435.199
438.461
440.984
422.585
422.488
421.964
421.826
422.732
425.023
428.888
433.7
438.211
441.826
420.856
420.074
418.292
416.938
416.842
418.357
422.003
427.7
434.03
439.185
418.785
416.44
412.46
409.153
407.742
407.869
411.307
418.981
428.449
437.546
416.653
411.115
403.927
396.854
389.932
375.46
357.447
353.018
362.396
393.019
418.188
389.503
347.475
280.678
204.949
118.652
60.2066
55.7756
76.3734
115.063
270.099
124.276
55.579
1.49188
-0.137073
-0.080408
0.00108446
0.173357
0.525569
1.23246
7.80528
-0.280493
-0.195169
-0.165813
-0.133983
0.135642
0.599401
0.365221
0.00672948
0.0716736
-0.178692
-0.230375
-0.211653
0.0838623
0.223831
-0.181383
-0.0959354
-0.0562899
-0.0267227
-0.0226686
-0.219728
-0.247744
-0.273868
-0.305101
-0.309903
-0.266924
-0.158908
-0.10257
-0.0553134
-0.0174417
-0.243639
-0.247761
-0.266508
-0.294819
-0.309926
-0.286076
-0.210047
-0.152015
-0.109555
-0.0580771
-0.24406
-0.280952
-0.272102
-0.27632
-0.284878
-0.280879
-0.253117
-0.206428
-0.182591
-0.148869
-0.252614
-0.272938
-0.27058
-0.273379
-0.276935
-0.27729
-0.271902
-0.255611
-0.250925
-0.232553
-0.259881
-0.267351
-0.270688
-0.275047
-0.279696
-0.283479
-0.286546
-0.283535
-0.286856
-0.274033
-0.264363
-0.269466
-0.274941
-0.282145
-0.290293
-0.298805
-0.306034
-0.304213
-0.297808
-0.258656
-0.26888
-0.273751
-0.281045
-0.291441
-0.303484
-0.317858
-0.328044
-0.324026
-0.308101
-0.244494
-0.271426
-0.276849
-0.286335
-0.300565
-0.318433
-0.338624
-0.355025
-0.355452
-0.341744
-0.269409
-0.270465
-0.276659
-0.288371
-0.306524
-0.330637
-0.359204
-0.387308
-0.399555
-0.403382
-0.35216
425.303
425.53
425.741
426.212
427.079
428.411
430.156
432.001
433.455
434.423
424.886
425.05
425.168
425.53
426.306
427.607
429.46
431.454
433.074
434.365
424.092
424.118
423.982
424.083
424.749
426.119
428.172
430.516
432.489
434.091
423.004
422.729
422.007
421.492
421.699
422.889
425.04
427.743
430.189
432.287
421.743
420.84
418.939
417.215
416.405
416.62
418.345
421
423.778
426.496
420.43
418.205
414.284
410.568
408.173
407.685
407.954
410.552
414.369
418.403
419.536
414.812
407.648
400.501
394.454
386.345
375.383
364.203
365.551
371.013
422.39
407.392
370.013
311.35
247.059
180.395
124.378
85.1078
61.9714
59.988
306.175
181.351
87.2162
21.3966
-0.0282563
-0.0717308
-0.0181632
0.0160867
-0.0174842
0.0337533
28.2492
-0.257425
-0.220714
-0.18126
-0.128189
-0.0358325
0.0399208
0.0557213
0.0453483
0.0777048
-0.190142
-0.22273
-0.158517
0.248907
0.299204
0.165489
-0.0170276
0.057872
0.158356
0.224152
-0.223544
-0.245274
-0.28117
-0.335417
-0.373725
-0.298429
-0.189056
-0.149736
-0.132997
-0.114508
-0.234071
-0.245314
-0.279652
-0.324161
-0.386012
-0.34147
-0.24917
-0.19921
-0.179898
-0.171199
-0.251747
-0.280821
-0.284456
-0.30481
-0.292509
-0.329254
-0.287696
-0.239527
-0.211568
-0.19366
-0.260604
-0.272929
-0.277687
-0.286953
-0.299025
-0.302293
-0.28983
-0.261251
-0.238656
-0.211794
-0.259948
-0.265531
-0.270313
-0.277197
-0.284119
-0.288624
-0.285317
-0.271752
-0.257365
-0.23042
-0.260803
-0.264183
-0.269508
-0.277084
-0.285136
-0.291157
-0.292506
-0.285725
-0.272847
-0.240705
-0.262485
-0.265836
-0.272101
-0.281184
-0.291429
-0.301079
-0.306647
-0.302518
-0.289165
-0.254211
-0.263282
-0.267277
-0.274877
-0.286105
-0.299612
-0.313483
-0.324339
-0.324978
-0.314251
-0.279606
-0.261597
-0.266265
-0.27521
-0.28883
-0.306102
-0.325351
-0.343484
-0.35471
-0.35023
-0.324371
425.288
425.4
425.477
425.728
426.259
427.113
428.268
429.549
430.598
431.272
424.968
425.014
424.989
425.122
425.553
426.339
427.467
428.78
429.789
430.424
424.373
424.272
423.987
423.833
424.054
424.78
425.984
427.372
428.578
429.449
423.629
423.228
422.395
421.634
421.341
421.725
422.788
424.23
425.495
426.492
422.902
421.924
420.03
418.13
416.842
416.435
416.907
418.051
419.1
420.087
422.419
420.321
416.619
412.83
409.861
408.202
407.938
408.839
409.053
410.082
422.74
418.635
411.946
404.927
398.998
394.209
389.814
385.35
382.344
378.362
426.847
418.809
391.226
344.172
292.72
246.81
209.794
173.862
136.589
108.817
335.431
251.54
129.965
51.6012
12.1918
0.0532404
-0.0359049
-0.0372919
-0.000747352
-0.00639424
68.94
-0.0314889
-0.247978
-0.179023
-0.151347
-0.0936913
-0.0575296
-0.0432589
0.0582415
0.0960034
-0.206846
-0.223853
-0.18777
0.136911
0.269985
0.36666
0.407664
0.383154
0.361912
0.339545
-0.220614
-0.24117
-0.237754
-0.255475
-0.325882
-0.299307
-0.230335
-0.219499
-0.174275
-0.16676
-0.2399
-0.241672
-0.27836
-0.301978
-0.427651
-0.361621
-0.294866
-0.266294
-0.235209
-0.199955
-0.26873
-0.287817
-0.294367
-0.31556
-0.273787
-0.341282
-0.325552
-0.288125
-0.249725
-0.215073
-0.273091
-0.287291
-0.288336
-0.294875
-0.308803
-0.316827
-0.307195
-0.280725
-0.251713
-0.226135
-0.262942
-0.267276
-0.269327
-0.276746
-0.284746
-0.290557
-0.287107
-0.273168
-0.255529
-0.234699
-0.256427
-0.25735
-0.262278
-0.270722
-0.279142
-0.284447
-0.284246
-0.27733
-0.264645
-0.24495
-0.254798
-0.256538
-0.262237
-0.270953
-0.280186
-0.287706
-0.291043
-0.287764
-0.277926
-0.25934
-0.254278
-0.257092
-0.263525
-0.27301
-0.283848
-0.294113
-0.30142
-0.302285
-0.296081
-0.279999
-0.252424
-0.255958
-0.263101
-0.273673
-0.286516
-0.300316
-0.313227
-0.319476
-0.318769
-0.308237
425.375
425.404
425.383
425.471
425.755
426.274
427.009
427.856
428.622
429.135
425.16
425.125
425.003
424.971
425.148
425.591
426.277
427.107
427.862
428.346
424.787
424.609
424.241
423.925
423.857
424.14
424.779
425.656
426.515
427.06
424.42
423.959
423.108
422.233
421.654
421.544
421.923
422.672
423.458
423.989
424.265
423.286
421.538
419.651
418.142
417.263
417.043
417.377
417.829
418.19
424.654