/*--------------------------------*- C++ -*----------------------------------*\
| =========                 |                                                 |
| \\      /  F ield         | OpenFOAM: The Open Source CFD Toolbox           |
|  \\    /   O peration     | Version:  2312                                  |
|   \\  /    A nd           | Website:  www.openfoam.com                      |
|    \\/     M anipulation  |                                                 |
\*---------------------------------------------------------------------------*/
FoamFile
{
    version     2.0;
    format      ascii;
    arch        "LSB;label=32;scalar=64";
    class       surfaceScalarField;
    location    "0.26";
    object      phi;
}
// * * * * * * * * * * * * * * * * * * * * * * * * * * * * * * * * * * * * * //

dimensions      [0 3 -1 0 0 0 0];

oriented        oriented;

internalField   nonuniform List<scalar> 
22600
(
1.14463e-07
-2.27479e-07
1.13016e-07
2.28053e-07
-2.46332e-07
1.32742e-07
3.15826e-07
-2.33181e-07
1.45408e-07
3.73614e-07
-2.26005e-07
1.68217e-07
3.96645e-07
-2.17877e-07
1.94846e-07
3.8163e-07
-2.06935e-07
2.2195e-07
3.28756e-07
-1.9354e-07
2.46413e-07
2.43167e-07
-1.79648e-07
2.65237e-07
1.3335e-07
-1.67667e-07
2.77485e-07
-1.61857e-07
2.81295e-07
1.00143e-07
-4.26044e-07
9.84217e-08
1.96508e-07
-4.57905e-07
1.15208e-07
2.71169e-07
-4.37729e-07
1.29887e-07
3.19598e-07
-4.28854e-07
1.5442e-07
3.37862e-07
-4.18259e-07
1.82118e-07
3.23676e-07
-4.03204e-07
2.10456e-07
2.77927e-07
-3.83945e-07
2.36155e-07
2.05755e-07
-3.63031e-07
2.55554e-07
1.13848e-07
-3.43785e-07
2.68026e-07
-3.3489e-07
2.71553e-07
1.1331e-07
-6.50977e-07
1.11623e-07
2.14424e-07
-6.90752e-07
1.31732e-07
2.95121e-07
-6.72662e-07
1.54237e-07
3.48763e-07
-6.70852e-07
1.88356e-07
3.70633e-07
-6.6774e-07
2.27611e-07
3.56816e-07
-6.58184e-07
2.68797e-07
3.07081e-07
-6.41021e-07
3.0681e-07
2.26848e-07
-6.19078e-07
3.36281e-07
1.24713e-07
-5.98173e-07
3.56523e-07
-5.90356e-07
3.66105e-07
1.17706e-07
-8.84555e-07
1.15872e-07
2.11972e-07
-9.24648e-07
1.3963e-07
2.90732e-07
-9.25507e-07
1.74085e-07
3.44092e-07
-9.47612e-07
2.23401e-07
3.6642e-07
-9.71146e-07
2.81078e-07
3.53711e-07
-9.87532e-07
3.42056e-07
3.05394e-07
-9.92319e-07
3.99616e-07
2.25479e-07
-9.86661e-07
4.47498e-07
1.2336e-07
-9.80372e-07
4.84318e-07
-9.83396e-07
5.04127e-07
1.10754e-07
-1.10385e-06
1.0854e-07
1.88497e-07
-1.14195e-06
1.39557e-07
2.56757e-07
-1.18604e-06
1.92272e-07
3.04861e-07
-1.26326e-06
2.67549e-07
3.28366e-07
-1.35393e-06
3.59279e-07
3.20384e-07
-1.43976e-06
4.60214e-07
2.77925e-07
-1.51152e-06
5.61659e-07
2.03225e-07
-1.56854e-06
6.5658e-07
1.08737e-07
-1.62079e-06
7.34906e-07
-1.65528e-06
7.72715e-07
9.28632e-08
-1.28673e-06
9.00128e-08
1.51946e-07
-1.33896e-06
1.37925e-07
2.01304e-07
-1.46101e-06
2.25609e-07
2.41938e-07
-1.65508e-06
3.51182e-07
2.68748e-07
-1.88523e-06
5.04488e-07
2.69781e-07
-2.11958e-06
6.78788e-07
2.34632e-07
-2.33796e-06
8.61588e-07
1.67282e-07
-2.53422e-06
1.03303e-06
8.66116e-08
-2.70491e-06
1.16479e-06
-2.79728e-06
1.22614e-06
8.46354e-08
-1.45241e-06
8.10537e-08
1.09421e-07
-1.52408e-06
1.60342e-07
1.11009e-07
-1.76372e-06
3.01128e-07
1.08129e-07
-2.13365e-06
4.81452e-07
9.76362e-08
-2.56675e-06
6.92018e-07
5.41402e-08
-3.00397e-06
9.27886e-07
-1.46317e-08
-3.41365e-06
1.14446e-06
-5.26853e-08
-3.78618e-06
1.29002e-06
-3.5481e-08
-4.0905e-06
1.36839e-06
-4.24932e-06
1.41993e-06
4.31942e-08
-1.53393e-06
3.83187e-08
-7.61412e-08
-1.57585e-06
1.71099e-07
-2.72438e-07
-1.89019e-06
3.22769e-07
-4.68581e-07
-2.41649e-06
4.78978e-07
-6.72549e-07
-3.05175e-06
6.88972e-07
-8.75972e-07
-3.71851e-06
9.17962e-07
-9.49524e-07
-4.34804e-06
1.00794e-06
-7.94881e-07
-4.89621e-06
9.55385e-07
-4.45004e-07
-5.33184e-06
8.91464e-07
-5.58645e-06
9.15983e-07
-3.3442e-07
-8.57458e-07
-3.42049e-07
-9.35206e-07
-9.00036e-07
-7.50244e-08
-1.45909e-06
-1.40348e-06
3.71653e-08
-1.92734e-06
-2.20085e-06
2.52621e-07
-2.18975e-06
-3.30542e-06
5.1607e-07
-2.10763e-06
-4.32342e-06
5.2279e-07
-1.7225e-06
-5.16452e-06
4.31359e-07
-1.2542e-06
-5.78274e-06
4.18228e-07
-7.04708e-07
-6.38968e-06
5.08345e-07
-6.91662e-06
5.90355e-07
-1.89653e-06
2.96639e-06
-1.92732e-06
-3.18045e-06
1.22417e-06
-8.40284e-07
-3.68011e-06
-1.08941e-06
1.85588e-07
-3.46778e-06
-3.50002e-06
1.08684e-06
-2.0777e-06
-5.76508e-06
1.06958e-06
-1.66585e-07
-6.90401e-06
6.69471e-07
1.532e-06
-6.62417e-06
-2.38934e-07
1.76855e-06
-5.57054e-06
-4.48755e-07
1.02021e-06
-5.26668e-06
-3.74664e-07
-5.95231e-06
-5.65194e-07
-3.85552e-06
1.07801e-05
-3.95818e-06
-5.84693e-06
2.69712e-06
5.18473e-07
-4.9618e-06
-2.67086e-06
6.96316e-07
-1.65291e-06
-4.77531e-06
-2.0336e-06
1.77727e-06
-3.31176e-06
-5.8835e-06
3.51993e-06
-2.45445e-06
-6.19222e-06
3.70351e-06
-2.08709e-06
-4.72067e-06
2.61824e-06
-2.03752e-06
-2.44774e-06
1.17488e-06
-2.39779e-06
-1.42552e-06
-3.34609e-06
-2.06699e-06
-3.46925e-06
1.60515e-05
-1.80218e-06
-6.51245e-06
6.50181e-06
-7.61496e-07
-5.96169e-06
3.27597e-06
-6.4976e-06
-3.7017e-06
2.75977e-06
-9.79506e-06
-1.77957e-07
3.28782e-06
-1.01233e-05
2.87583e-06
2.83638e-06
-8.34461e-06
3.9604e-06
1.91947e-06
-5.09113e-06
2.89841e-06
1.12519e-06
-2.10072e-06
1.0966e-06
7.37101e-07
-1.33308e-06
-8.5286e-08
-2.46065e-06
-3.64087e-06
2.1528e-05
-1.83558e-06
-6.40163e-06
1.07273e-05
-1.46468e-06
-5.12781e-06
6.42516e-06
-4.42301e-06
-2.31758e-06
6.12233e-06
-6.1728e-06
1.5034e-06
6.00977e-06
-6.54293e-06
4.01713e-06
4.85772e-06
-4.53506e-06
4.07225e-06
3.63976e-06
-1.77541e-06
2.13677e-06
3.14763e-06
-8.69494e-08
3.3434e-07
2.77761e-06
-2.3808e-07
1.71154e-06
-1.58571e-06
-1.19008e-06
2.28456e-05
-1.2752e-07
-3.71807e-06
1.37998e-05
-5.44577e-07
-3.28398e-06
5.07909e-06
9.1198e-07
-1.09899e-06
2.37688e-06
1.56046e-06
1.19192e-06
2.38943e-06
1.32943e-06
2.49292e-06
2.23599e-06
1.32073e-06
2.09952e-06
2.40417e-06
1.62898e-06
6.7524e-07
2.96577e-06
1.60614e-06
-1.29089e-07
3.02478e-06
5.57151e-07
2.02377e-06
-6.2845e-07
2.35757e-06
1.7795e-05
2.69303e-06
1.57619e-06
1.27769e-05
1.80435e-06
6.47564e-07
2.79462e-06
3.21308e-06
5.71676e-07
-1.04317e-06
3.49594e-06
1.12198e-06
-1.28683e-06
3.12595e-06
1.53232e-06
-1.09839e-06
2.92404e-06
1.46801e-06
-2.62399e-07
2.73088e-06
8.85683e-07
1.32639e-06
2.2217e-06
4.34126e-07
2.12963e-06
1.3467e-06
1.68077e-06
4.34774e-07
4.13378e-06
9.70339e-06
3.95778e-06
5.40333e-06
7.69308e-06
3.81422e-06
4.03018e-06
1.12334e-06
3.04444e-06
2.63427e-06
-1.63475e-06
1.98748e-06
1.87088e-06
-2.12671e-06
1.60328e-06
1.34823e-06
-2.38263e-06
1.80689e-06
1.1118e-06
-2.29449e-06
2.26853e-06
1.0847e-06
-1.11622e-06
2.46972e-06
8.86044e-07
2.04416e-07
2.12387e-06
5.37862e-07
1.58823e-06
3.19105e-06
3.54587e-06
2.96648e-06
4.69625e-06
3.14331e-06
3.04456e-06
3.95361e-06
3.02369e-07
1.5636e-06
2.96087e-06
-1.26762e-06
6.25606e-07
2.25468e-06
-2.01537e-06
5.94853e-07
1.53881e-06
-2.46111e-06
7.94355e-07
8.48758e-07
-2.74789e-06
1.14344e-06
5.70984e-07
-2.58723e-06
1.74878e-06
5.30086e-07
-1.91275e-06
2.15807e-06
-1.44675e-06
2.17198e-06
1.43811e-06
8.22194e-07
1.28556e-06
2.53722e-06
9.16281e-07
1.12792e-06
2.58472e-06
-2.18118e-07
4.72979e-07
2.30137e-06
-1.25354e-06
2.69276e-07
1.95844e-06
-1.97155e-06
2.99114e-07
1.57621e-06
-2.46364e-06
3.84771e-07
1.10328e-06
-2.78782e-06
5.12864e-07
6.73682e-07
-2.93017e-06
7.72543e-07
4.67899e-07
-2.87468e-06
1.16771e-06
-2.76341e-06
1.41918e-06
6.67784e-07
-4.0855e-07
5.62958e-07
1.3501e-06
-1.8542e-07
4.19386e-07
1.63654e-06
-7.59494e-07
2.54934e-07
1.63279e-06
-1.44829e-06
1.98493e-07
1.49554e-06
-2.0187e-06
1.84406e-07
1.30305e-06
-2.46721e-06
1.96058e-07
1.07792e-06
-2.79687e-06
2.34179e-07
8.45361e-07
-3.00574e-06
3.08125e-07
6.45574e-07
-3.10209e-06
4.27187e-07
-3.12521e-06
5.24556e-07
3.93445e-07
3.03176e-07
-1.10517e-06
7.98924e-07
2.57941e-07
-8.48842e-07
1.04115e-06
1.76544e-07
-1.17827e-06
1.11181e-06
1.21803e-07
-1.64075e-06
1.07791e-06
8.74603e-08
-2.07226e-06
9.91626e-07
6.73023e-08
-2.44824e-06
8.80299e-07
6.96479e-08
-2.75519e-06
7.61939e-07
9.1782e-08
-2.97915e-06
6.4647e-07
1.30963e-07
-3.11758e-06
1.64482e-07
-3.16654e-06
1.34173e-07
-2.46433e-07
2.25276e-07
2.71342e-07
-2.73041e-07
2.68614e-07
3.82431e-07
-2.61267e-07
2.95586e-07
4.63303e-07
-2.59617e-07
3.46962e-07
5.06245e-07
-2.60573e-07
4.12477e-07
5.03204e-07
-2.61076e-07
4.86066e-07
4.48181e-07
-2.6069e-07
5.62126e-07
3.41526e-07
-2.58847e-07
6.3074e-07
1.89685e-07
-2.5557e-07
6.84896e-07
-2.57911e-07
7.13871e-07
1.16917e-07
-4.58064e-07
1.93136e-07
2.32662e-07
-5.02882e-07
2.29304e-07
3.26087e-07
-4.8527e-07
2.60465e-07
3.92434e-07
-4.86043e-07
3.145e-07
4.25683e-07
-4.92822e-07
3.81118e-07
4.20329e-07
-5.01129e-07
4.55863e-07
3.72867e-07
-5.10387e-07
5.33315e-07
2.84392e-07
-5.18153e-07
6.03335e-07
1.58401e-07
-5.2494e-07
6.63387e-07
-5.43132e-07
6.98186e-07
1.33396e-07
-6.90918e-07
2.11082e-07
2.5585e-07
-7.46193e-07
2.52589e-07
3.57423e-07
-7.30562e-07
2.97957e-07
4.30992e-07
-7.41555e-07
3.70297e-07
4.69198e-07
-7.63093e-07
4.59676e-07
4.64578e-07
-7.87338e-07
5.59627e-07
4.1232e-07
-8.12563e-07
6.61244e-07
3.11959e-07
-8.36163e-07
7.54652e-07
1.69173e-07
-8.61072e-07
8.35442e-07
-9.01286e-07
8.7744e-07
1.41458e-07
-9.2483e-07
2.08325e-07
2.58819e-07
-9.78932e-07
2.55008e-07
3.59478e-07
-9.79917e-07
3.22782e-07
4.32839e-07
-1.01514e-06
4.23628e-07
4.70385e-07
-1.06659e-06
5.4703e-07
4.64267e-07
-1.12549e-06
6.86327e-07
4.09347e-07
-1.18563e-06
8.276e-07
3.04418e-07
-1.24332e-06
9.59584e-07
1.60863e-07
-1.3035e-06
1.0703e-06
-1.37353e-06
1.12332e-06
1.41783e-07
-1.14227e-06
1.842e-07
2.4727e-07
-1.18777e-06
2.42912e-07
3.40782e-07
-1.22783e-06
3.46671e-07
4.09129e-07
-1.31271e-06
4.96766e-07
4.44908e-07
-1.42538e-06
6.82284e-07
4.39081e-07
-1.55035e-06
8.90904e-07
3.84931e-07
-1.67507e-06
1.10525e-06
2.81139e-07
-1.79e-06
1.30705e-06
1.4213e-07
-1.90174e-06
1.47215e-06
-2.00185e-06
1.53486e-06
1.40744e-07
-1.33962e-06
1.46614e-07
2.38017e-07
-1.37999e-06
2.32867e-07
3.19071e-07
-1.48167e-06
3.98399e-07
3.82174e-07
-1.65434e-06
6.29711e-07
4.22564e-07
-1.86619e-06
9.04911e-07
4.2844e-07
-2.08076e-06
1.20332e-06
3.8804e-07
-2.27029e-06
1.4972e-06
2.93317e-07
-2.4246e-06
1.76235e-06
1.52294e-07
-2.56067e-06
1.96475e-06
-2.67916e-06
2.05394e-06
1.63584e-07
-1.52559e-06
1.03438e-07
2.2708e-07
-1.50408e-06
2.20934e-07
2.72774e-07
-1.67476e-06
4.48525e-07
3.26037e-07
-1.96006e-06
7.33911e-07
3.78419e-07
-2.28718e-06
1.06063e-06
4.02799e-07
-2.57297e-06
1.39571e-06
3.73686e-07
-2.78045e-06
1.68374e-06
2.80426e-07
-2.93458e-06
1.89325e-06
1.46343e-07
-3.08065e-06
2.02245e-06
-3.24564e-06
2.13298e-06
1.74971e-07
-1.57884e-06
-8.33984e-08
7.1879e-08
-1.29425e-06
6.43647e-08
-1.00643e-08
-1.51437e-06
2.44319e-07
-1.89201e-08
-2.0043e-06
5.32072e-07
-2.2552e-09
-2.54845e-06
9.33577e-07
-5.72186e-09
-3.01136e-06
1.35982e-06
-4.01467e-08
-3.40933e-06
1.67125e-06
-9.9533e-08
-3.76047e-06
1.84066e-06
-1.08185e-07
-4.15265e-06
1.97211e-06
-4.55314e-06
2.11229e-06
-6.70608e-08
-9.02452e-07
-9.51376e-07
-4.70023e-07
-4.7554e-07
-4.90771e-07
-9.1778e-07
-9.44887e-07
-8.45599e-08
-1.20764e-06
-2.11383e-06
6.52017e-07
-1.25167e-06
-3.36719e-06
1.37883e-06
-1.13394e-06
-4.51887e-06
1.91257e-06
-9.64269e-07
-5.43257e-06
2.28492e-06
-7.66614e-07
-6.14715e-06
2.60725e-06
-4.16775e-07
-7.18866e-06
3.19452e-06
-9.36806e-06
4.84426e-06
-8.12818e-07
1.20678e-06
-3.22374e-06
-1.74246e-06
1.35153e-06
-1.73772e-06
-3.08103e-06
-2.23618e-06
2.81545e-06
-3.61674e-06
-4.53808e-06
4.04681e-06
-3.18895e-06
-2.73167e-06
6.26293e-09
-1.97543e-06
-2.99199e-06
-2.07093e-06
-1.4863e-06
-3.1003e-06
-3.06033e-06
-8.29871e-07
-3.65047e-06
-3.60186e-06
1.83364e-07
-4.97932e-06
-3.59724e-06
-6.60823e-06
-3.78341e-06
4.52327e-07
2.66538e-06
-5.86911e-06
-2.23386e-06
6.40762e-06
-1.85142e-06
-5.99711e-06
1.68603e-06
5.37349e-07
-4.33092e-06
-1.05389e-06
-7.18398e-06
-2.62076e-06
6.71367e-07
-1.09967e-05
-2.24026e-06
2.0579e-06
-1.16226e-05
-2.03362e-06
2.45886e-06
-1.04865e-05
-7.49715e-07
6.60251e-07
-8.04236e-06
3.12865e-07
-1.58685e-06
-5.88057e-06
-3.45123e-06
-5.35275e-06
-1.9534e-06
7.27097e-06
-4.45437e-06
-5.33521e-06
1.21211e-05
-3.09321e-06
-8.46015e-06
7.52633e-06
-9.21296e-06
-9.11522e-06
4.04082e-06
-1.42347e-05
-7.28582e-06
2.52371e-06
-1.38051e-05
-4.58577e-06
2.12787e-06
-1.11146e-05
-1.6068e-06
1.25619e-06
-6.86743e-06
6.46816e-07
-3.98432e-07
-3.29565e-06
1.14993e-06
-1.57474e-06
-1.8483e-06
-2.8063e-06
-2.22129e-06
-2.6302e-06
1.19755e-05
-3.90993e-06
-4.92188e-06
1.54381e-05
-2.48997e-06
-5.49765e-06
9.2216e-06
-5.54251e-06
-4.19192e-06
4.79016e-06
-8.22788e-06
-1.61423e-06
1.59188e-06
-8.18878e-06
1.76093e-06
-6.40731e-07
-5.1416e-06
4.18822e-06
-1.90763e-06
-1.03888e-06
4.38873e-06
-1.97634e-06
1.29044e-06
2.74367e-06
-1.58666e-06
1.41888e-06
-2.24278e-06
4.16471e-08
-1.50035e-06
1.53553e-05
-2.00698e-06
-2.51809e-06
1.68032e-05
-8.91948e-07
-1.80062e-06
8.49608e-06
9.20034e-07
5.32852e-07
1.883e-06
2.13415e-06
2.8422e-06
-1.28952e-06
1.90149e-06
4.56147e-06
-2.87723e-06
1.83796e-06
4.8362e-06
-3.21593e-06
2.66255e-06
3.95971e-06
-2.44158e-06
2.94787e-06
2.4187e-06
-1.70025e-06
2.21175e-06
-1.92865e-06
8.01692e-07
1.48949e-06
1.40246e-05
2.5343e-06
1.87092e-06
1.56483e-05
2.57782e-06
2.17412e-06
7.32332e-06
4.08264e-06
2.72646e-06
3.60277e-07
4.46632e-06
3.17003e-06
-2.45504e-06
3.8479e-06
3.22374e-06
-3.45643e-06
3.44954e-06
3.24904e-06
-3.8682e-06
3.35784e-06
3.1784e-06
-3.25155e-06
3.10231e-06
2.51368e-06
-2.28989e-06
2.60105e-06
-1.90723e-06
2.0324e-06
4.00301e-06
8.32161e-06
5.65773e-06
6.26648e-06
1.09002e-05
6.29881e-06
6.3034e-06
5.10674e-06
5.22409e-06
5.03253e-06
2.12486e-07
3.40615e-06
3.67021e-06
-1.80157e-06
2.31212e-06
2.59758e-06
-2.69554e-06
2.11864e-06
2.00982e-06
-3.43276e-06
2.42084e-06
1.91249e-06
-3.53413e-06
2.84963e-06
1.63948e-06
-2.90509e-06
3.01208e-06
-2.32982e-06
2.86907e-06
3.29369e-06
3.35769e-06
4.63671e-06
5.93022e-06
5.5831e-06
5.72517e-06
5.82772e-06
2.95553e-06
3.81732e-06
4.55052e-06
1.59824e-07
1.95547e-06
3.3594e-06
-1.2641e-06
1.24852e-06
2.39894e-06
-2.095e-06
1.15428e-06
1.48615e-06
-2.71716e-06
1.34064e-06
9.53852e-07
-3.13119e-06
1.87814e-06
7.57334e-07
-3.07354e-06
2.52304e-06
-2.80301e-06
2.84949e-06
1.27475e-06
9.73365e-07
2.39514e-06
2.97163e-06
2.23631e-06
2.77783e-06
3.37578e-06
1.22051e-06
1.80385e-06
2.98347e-06
-2.53941e-07
1.07535e-06
2.51397e-06
-1.26828e-06
7.72791e-07
2.06377e-06
-1.94641e-06
6.86376e-07
1.55371e-06
-2.42721e-06
7.32966e-07
1.00083e-06
-2.74673e-06
9.40972e-07
6.55359e-07
-2.8967e-06
1.33633e-06
-2.90704e-06
1.65788e-06
5.16435e-07
-1.61824e-07
1.18171e-06
1.38577e-06
5.76301e-07
1.21006e-06
1.87767e-06
7.58191e-08
9.07724e-07
1.92455e-06
-7.49625e-07
6.47295e-07
1.78711e-06
-1.43196e-06
4.85526e-07
1.59031e-06
-1.96002e-06
4.06465e-07
1.35547e-06
-2.36679e-06
4.08604e-07
1.08729e-06
-2.65371e-06
4.83283e-07
8.10376e-07
-2.81678e-06
6.24174e-07
-2.881e-06
7.29205e-07
3.46372e-07
6.28971e-07
-8.33994e-07
8.13552e-07
6.39217e-07
-2.7216e-07
1.14113e-06
4.99302e-07
-5.74517e-07
1.2522e-06
3.49935e-07
-1.08883e-06
1.23389e-06
2.3892e-07
-1.56511e-06
1.15815e-06
1.65161e-07
-1.98214e-06
1.05528e-06
1.39823e-07
-2.33409e-06
9.26814e-07
1.66519e-07
-2.59997e-06
7.72288e-07
2.39488e-07
-2.77077e-06
2.9305e-07
-2.84563e-06
1.46918e-07
-2.33364e-07
3.11721e-07
2.98407e-07
-2.61367e-07
3.78493e-07
4.19331e-07
-2.40527e-07
4.15189e-07
5.0579e-07
-2.28333e-07
4.88835e-07
5.50613e-07
-2.17538e-07
5.85193e-07
5.46052e-07
-2.0625e-07
6.96877e-07
4.85185e-07
-1.95406e-07
8.184e-07
3.65048e-07
-1.87707e-07
9.38584e-07
1.97595e-07
-1.87391e-07
1.03974e-06
-1.95556e-07
1.09102e-06
1.31619e-07
-4.3808e-07
2.66232e-07
2.63822e-07
-4.85514e-07
3.21248e-07
3.6837e-07
-4.47895e-07
3.63285e-07
4.40803e-07
-4.26232e-07
4.39966e-07
4.75266e-07
-4.0787e-07
5.36988e-07
4.65912e-07
-3.90842e-07
6.49808e-07
4.07702e-07
-3.77211e-07
7.7333e-07
3.0075e-07
-3.73891e-07
8.96471e-07
1.64052e-07
-3.86357e-07
9.99052e-07
-4.12363e-07
1.0591e-06
1.55927e-07
-6.73211e-07
2.90286e-07
3.01313e-07
-7.31006e-07
3.52695e-07
4.19426e-07
-6.82682e-07
4.1463e-07
5.03127e-07
-6.56227e-07
5.1659e-07
5.44295e-07
-6.33846e-07
6.44484e-07
5.34505e-07
-6.11624e-07
7.90199e-07
4.65565e-07
-5.94657e-07
9.47629e-07
3.4354e-07
-5.91421e-07
1.09421e-06
1.93565e-07
-6.11057e-07
1.21012e-06
-6.43704e-07
1.2816e-06
1.75951e-07
-9.2634e-07
2.85504e-07
3.26445e-07
-9.80711e-07
3.54219e-07
4.52461e-07
-9.33388e-07
4.47472e-07
5.42245e-07
-9.10581e-07
5.88199e-07
5.87261e-07
-8.93295e-07
7.61463e-07
5.76777e-07
-8.73791e-07
9.58979e-07
5.01259e-07
-8.62769e-07
1.17123e-06
3.71629e-07
-8.67504e-07
1.3653e-06
2.12391e-07
-9.00272e-07
1.51875e-06
-9.15884e-07
1.58716e-06
1.945e-07
-1.18734e-06
2.50704e-07
3.50917e-07
-1.22903e-06
3.34811e-07
4.8518e-07
-1.20073e-06
4.79746e-07
5.83252e-07
-1.19849e-06
6.86606e-07
6.33346e-07
-1.19775e-06
9.36641e-07
6.22526e-07
-1.19251e-06
1.22044e-06
5.39135e-07
-1.19274e-06
1.51862e-06
3.96621e-07
-1.20791e-06
1.78997e-06
2.16839e-07
-1.23927e-06
1.99093e-06
-1.21293e-06
2.03211e-06
2.28232e-07
-1.46319e-06
1.9423e-07
4.03196e-07
-1.48334e-06
3.12219e-07
5.45471e-07
-1.48435e-06
5.39752e-07
6.46717e-07
-1.51336e-06
8.43334e-07
6.95205e-07
-1.53498e-06
1.19366e-06
6.80337e-07
-1.54738e-06
1.57306e-06
5.95576e-07
-1.55775e-06
1.94698e-06
4.43767e-07
-1.57153e-06
2.27778e-06
2.26697e-07
-1.57698e-06
2.51953e-06
-1.52649e-06
2.57637e-06
3.03625e-07
-1.7671e-06
1.03718e-07
4.54885e-07
-1.67871e-06
2.65044e-07
5.63948e-07
-1.69955e-06
5.54653e-07
6.47772e-07
-1.76786e-06
9.04583e-07
6.90532e-07
-1.81664e-06
1.29953e-06
6.84388e-07
-1.86022e-06
1.71469e-06
6.16911e-07
-1.91515e-06
2.10861e-06
4.57871e-07
-1.97006e-06
2.45083e-06
2.21592e-07
-1.98817e-06
2.66992e-06
-1.99994e-06
2.79e-06
3.26553e-07
-1.89262e-06
-2.84434e-07
2.62371e-07
-1.52615e-06
-2.40171e-08
2.43743e-07
-1.64987e-06
2.13269e-07
3.10232e-07
-1.85801e-06
5.55732e-07
3.98493e-07
-2.07398e-06
1.10265e-06
4.71492e-07
-2.31427e-06
1.74087e-06
4.40684e-07
-2.59971e-06
2.38661e-06
2.87395e-07
-2.84645e-06
2.87034e-06
6.01086e-08
-2.78737e-06
2.99859e-06
-2.77578e-06
2.96564e-06
5.07009e-08
-1.40053e-06
-1.49416e-06
-7.38806e-08
-9.53202e-07
-9.39137e-07
-3.58923e-07
-1.12972e-06
-3.19668e-07
-4.65034e-07
-2.05669e-06
9.56808e-07
-3.17271e-07
-2.74396e-06
1.90105e-06
-2.12031e-07
-3.27882e-06
2.77189e-06
-2.97048e-07
-4.14802e-06
3.91824e-06
-4.96791e-07
-4.35624e-06
4.31679e-06
-4.9656e-07
-3.01722e-06
3.42414e-06
-1.88846e-06
3.58635e-06
1.97018e-07
-1.0934e-06
-3.72788e-06
2.40061e-06
-1.96427e-06
-2.93025e-06
4.26098e-07
2.03066e-06
1.62959e-06
-1.93949e-06
1.50213e-06
2.85358e-06
-3.12808e-06
-1.56201e-06
1.29092e-08
-3.63885e-06
-1.31197e-06
-3.52701e-06
-4.53462e-06
-1.2346e-06
-5.07798e-06
-4.74706e-06
-2.22403e-06
-5.52163e-06
-2.82218e-06
-3.34266e-06
-5.19668e-06
-3.4716e-06
-4.57927e-06
4.81237e-07
-2.96268e-06
-4.48107e-06
-9.13736e-07
2.00236e-06
-4.42308e-06
-2.23361e-06
3.59801e-06
2.89876e-07
-3.52426e-06
3.17493e-06
-7.56612e-06
-6.08049e-06
1.33591e-06
-1.13384e-05
-7.16428e-06
9.05754e-07
-1.27565e-05
-7.07621e-06
3.30845e-07
-1.214e-05
-5.5058e-06
-1.60649e-06
-1.02303e-05
-2.81595e-06
-3.71619e-06
-8.19689e-06
-4.42853e-06
-6.77756e-06
-6.87711e-06
2.56947e-06
-3.10941e-06
-1.04827e-05
7.9097e-06
-5.39493e-06
-1.1968e-05
5.68433e-06
-9.81405e-06
-1.19129e-05
2.1396e-06
-1.32544e-05
-1.05422e-05
-3.51974e-07
-1.34879e-05
-8.41139e-06
-1.12157e-06
-1.12181e-05
-5.98608e-06
-2.02076e-06
-6.94113e-06
-3.3429e-06
-4.23063e-06
-3.3147e-06
-1.40126e-06
-5.67854e-06
-1.82759e-06
-5.79681e-06
-1.62327e-06
-4.62383e-06
5.7837e-06
-2.50033e-06
-6.43232e-06
9.47007e-06
-2.24185e-06
-7.51021e-06
6.47589e-06
-5.25618e-06
-6.99099e-06
1.50954e-06
-8.11705e-06
-5.07284e-06
-1.62858e-06
-8.83032e-06
-1.72522e-06
-3.60832e-06
-6.00247e-06
1.55313e-06
-5.44058e-06
-8.97417e-07
2.78614e-06
-6.57236e-06
2.39917e-06
1.96916e-06
-6.26141e-06
2.81873e-06
-5.59635e-06
1.77235e-06
4.79681e-07
5.23004e-06
-1.93301e-06
2.7535e-07
9.28287e-06
-5.00417e-07
1.85647e-07
6.2358e-06
1.24983e-06
1.05308e-06
6.82498e-07
2.09376e-06
3.10903e-06
-2.15471e-06
3.71663e-07
4.89125e-06
-3.30229e-06
-2.50294e-07
5.14786e-06
-4.99052e-06
1.95589e-06
4.17466e-06
-5.75028e-06
3.09899e-06
2.60731e-06
-5.21046e-06
2.72816e-06
-4.57751e-06
1.70648e-06
2.91905e-06
3.22656e-06
1.61873e-06
3.81567e-06
7.87457e-06
3.08951e-06
4.26631e-06
5.1864e-06
4.68138e-06
4.41012e-06
1.43914e-07
4.8611e-06
4.40667e-06
-2.42208e-06
4.11873e-06
4.11971e-06
-3.33849e-06
3.7727e-06
3.35576e-06
-4.34583e-06
3.47709e-06
2.59278e-06
-4.99346e-06
3.10848e-06
1.85909e-06
-4.68574e-06
2.81002e-06
-4.00366e-06
2.65023e-06
3.08197e-06
1.35354e-06
4.44878e-06
5.35988e-06
5.32635e-06
6.56912e-06
6.23105e-06
3.39212e-06
6.14721e-06
5.42145e-06
9.84135e-08
4.26125e-06
4.18464e-06
-1.67811e-06
2.80496e-06
3.17373e-06
-2.56279e-06
2.35385e-06
2.31593e-06
-3.37851e-06
2.31132e-06
1.69662e-06
-4.0163e-06
2.49178e-06
1.23146e-06
-4.0848e-06
2.8763e-06
-3.71378e-06
3.18919e-06
1.66923e-06
3.71198e-07
3.94982e-06
4.03133e-06
2.99509e-06
5.69433e-06
4.75664e-06
1.95098e-06
4.53316e-06
4.11941e-06
-1.0215e-07
2.79327e-06
3.26453e-06
-1.37e-06
1.79529e-06
2.57566e-06
-2.17066e-06
1.45103e-06
1.86224e-06
-2.73912e-06
1.41468e-06
1.20888e-06
-3.16533e-06
1.68053e-06
7.66997e-07
-3.34166e-06
2.22178e-06
-3.28796e-06
2.66613e-06
5.59645e-07
-1.97628e-07
2.40432e-06
1.97641e-06
1.20539e-06
3.15076e-06
2.6904e-06
6.00574e-07
2.44026e-06
2.61426e-06
-5.80397e-07
1.62974e-06
2.33665e-06
-1.49698e-06
1.17737e-06
2.01888e-06
-2.13394e-06
9.67425e-07
1.66001e-06
-2.60134e-06
9.54047e-07
1.2357e-06
-2.91494e-06
1.1149e-06
8.26113e-07
-3.05381e-06
1.45807e-06
-3.07872e-06
1.71097e-06
3.41288e-07
-7.57435e-07
1.40023e-06
1.08083e-06
5.57575e-08
1.62015e-06
1.59397e-06
-3.28916e-07
1.32406e-06
1.73049e-06
-1.04957e-06
9.79954e-07
1.67305e-06
-1.68449e-06
7.30473e-07
1.54607e-06
-2.20237e-06
6.0187e-07
1.37519e-06
-2.62069e-06
5.98844e-07
1.15545e-06
-2.93186e-06
7.19952e-07
8.75399e-07
-3.10273e-06
9.53143e-07
-3.16064e-06
1.05984e-06
2.61205e-07
7.87886e-07
-1.17755e-06
6.74185e-07
8.74075e-07
-5.92085e-07
9.94161e-07
7.15489e-07
-8.65083e-07
1.12751e-06
5.08825e-07
-1.34181e-06
1.14874e-06
3.42601e-07
-1.8094e-06
1.11897e-06
2.36588e-07
-2.24404e-06
1.06307e-06
2.07273e-07
-2.63224e-06
9.74991e-07
2.64183e-07
-2.94143e-06
8.22012e-07
4.33868e-07
-3.14413e-06
5.00409e-07
-3.21788e-06
1.6964e-07
-2.26253e-07
3.68334e-07
3.49684e-07
-2.59858e-07
4.58307e-07
4.92888e-07
-2.28446e-07
5.00432e-07
5.95082e-07
-2.03098e-07
5.89738e-07
6.49359e-07
-1.77636e-07
7.08551e-07
6.4723e-07
-1.48587e-07
8.47593e-07
5.81131e-07
-1.16341e-07
1.00084e-06
4.50688e-07
-8.54724e-08
1.1545e-06
2.59948e-07
-4.77196e-08
1.2782e-06
-2.43615e-08
1.35676e-06
1.56125e-07
-4.29384e-07
3.13238e-07
3.17831e-07
-4.86592e-07
3.86276e-07
4.44932e-07
-4.2645e-07
4.34187e-07
5.33121e-07
-3.77934e-07
5.26614e-07
5.77608e-07
-3.29925e-07
6.44789e-07
5.72689e-07
-2.77313e-07
7.83454e-07
5.14972e-07
-2.28564e-07
9.4327e-07
4.09119e-07
-1.86856e-07
1.10371e-06
2.5712e-07
-1.36719e-07
1.24005e-06
-5.68242e-08
1.31375e-06
1.90014e-07
-6.71763e-07
3.42652e-07
3.73665e-07
-7.42469e-07
4.2492e-07
5.21332e-07
-6.56584e-07
4.97099e-07
6.2562e-07
-5.85229e-07
6.19597e-07
6.79458e-07
-5.12174e-07
7.72895e-07
6.7408e-07
-4.30933e-07
9.49197e-07
6.07645e-07
-3.55993e-07
1.14149e-06
4.73845e-07
-2.95477e-07
1.33663e-06
2.84e-07
-2.20974e-07
1.48422e-06
1.15675e-08
1.45698e-06
2.25305e-07
-9.49182e-07
3.37618e-07
4.27418e-07
-1.01672e-06
4.26358e-07
5.93177e-07
-9.11129e-07
5.36258e-07
7.12531e-07
-8.22862e-07
7.06477e-07
7.75704e-07
-7.27319e-07
9.13436e-07
7.70453e-07
-6.23041e-07
1.15634e-06
6.93617e-07
-5.28352e-07
1.42043e-06
5.26049e-07
-4.51116e-07
1.6885e-06
2.94303e-07
-3.3125e-07
1.86077e-06
1.00708e-07
1.74623e-06
2.69928e-07
-1.26596e-06
2.9755e-07
5.01268e-07
-1.31514e-06
4.01891e-07
6.91828e-07
-1.19901e-06
5.77072e-07
8.29647e-07
-1.09795e-06
8.23877e-07
9.03676e-07
-9.85675e-07
1.12097e-06
8.93195e-07
-8.58647e-07
1.46653e-06
7.87658e-07
-7.40755e-07
1.83656e-06
5.55961e-07
-6.40094e-07
2.21065e-06
2.56557e-07
-4.64334e-07
2.42342e-06
8.1057e-08
2.25343e-06
3.53923e-07
-1.65929e-06
2.33644e-07
6.34748e-07
-1.65802e-06
3.74271e-07
8.48339e-07
-1.5138e-06
6.40945e-07
9.89301e-07
-1.38318e-06
9.87597e-07
1.05228e-06
-1.24811e-06
1.39312e-06
1.01888e-06
-1.09132e-06
1.83914e-06
8.696e-07
-9.29442e-07
2.28494e-06
5.77713e-07
-7.80181e-07
2.70975e-06
1.99867e-07
-5.46054e-07
2.97909e-06
-1.12238e-07
2.90664e-06
4.84802e-07
-2.13893e-06
9.85551e-08
7.41401e-07
-1.96798e-06
3.18412e-07
9.12603e-07
-1.77008e-06
6.39736e-07
1.00548e-06
-1.57892e-06
1.00745e-06
1.05711e-06
-1.44711e-06
1.4469e-06
1.07308e-06
-1.35131e-06
1.95871e-06
9.55951e-07
-1.26005e-06
2.55635e-06
6.43528e-07
-1.18659e-06
3.16966e-06
2.82964e-07
-1.07322e-06
3.55766e-06
-9.61754e-07
3.80374e-06
4.89476e-07
-2.41994e-06
-4.92905e-07
5.55057e-07
-2.0243e-06
-3.32852e-08
5.87067e-07
-1.86783e-06
2.7901e-07
7.16631e-07
-1.82506e-06
6.72307e-07
9.41793e-07
-1.92562e-06
1.356e-06
1.0825e-06
-2.09266e-06
2.34151e-06
8.3647e-07
-1.74103e-06
3.11362e-06
3.39997e-07
-1.64174e-06
3.82196e-06
2.55966e-09
-2.20728e-06
4.47009e-06
-2.79984e-06
4.91036e-06
2.82479e-07
-2.2076e-06
-1.98898e-06
6.72848e-07
-2.12823e-06
-1.22557e-06
9.06005e-07
-2.00032e-06
-4.20342e-07
1.123e-06
-2.30817e-06
1.22292e-06
1.06393e-06
-3.03461e-06
3.06911e-06
-1.50133e-09
-3.271e-06
5.01566e-06
-1.37518e-06
-6.18642e-07
4.16954e-06
-1.90902e-06
2.6241e-07
2.94647e-06
-1.59309e-06
-1.74095e-06
2.64188e-06
-2.60302e-06
2.76622e-06
1.05236e-06
-3.55432e-06
-3.43352e-06
3.75773e-06
-4.55776e-06
-3.20609e-06
1.7636e-06
2.21583e-06
-5.92424e-07
-5.55532e-08
4.84531e-08
2.31611e-06
-3.00229e-06
-9.21182e-07
8.46221e-07
-5.69045e-06
-2.05234e-06
-2.05749e-06
-6.30371e-06
-1.50894e-06
-3.57443e-06
-5.51277e-06
-1.84762e-06
-4.20254e-06
-4.15866e-06
-4.22498e-06
-4.06677e-06
-5.27624e-06
-3.5799e-06
-1.97012e-06
-5.33787e-06
-7.27403e-07
-7.63046e-06
-3.99026e-07
-2.92147e-06
-8.72564e-06
4.39974e-06
-7.98854e-07
-1.01859e-05
1.03405e-06
-7.09143e-06
-1.05833e-05
-1.89902e-06
-9.96318e-06
-9.40341e-06
-4.4874e-06
-1.15013e-05
-7.90871e-06
-4.882e-06
-1.02616e-05
-6.15264e-06
-5.46433e-06
-8.36969e-06
-4.07378e-06
-6.97929e-06
-7.52144e-06
-7.63017e-06
-7.0077e-06
-9.04397e-06
1.49289e-06
-8.96207e-07
-1.39373e-05
4.80066e-06
-5.70128e-06
-1.30631e-05
3.11727e-06
-9.40582e-06
-1.20764e-05
-9.1901e-07
-1.2288e-05
-1.05705e-05
-3.78053e-06
-1.31124e-05
-9.00732e-06
-5.52482e-06
-1.17438e-05
-7.09229e-06
-6.23089e-06
-7.50727e-06
-4.58644e-06
-7.36637e-06
-3.91851e-06
-2.17907e-06
-8.33392e-06
-2.88033e-06
-7.83393e-06
-2.7214e-06
-4.80328e-06
4.07107e-06
-2.75224e-07
-6.34016e-06
4.02055e-06
7.51357e-08
-6.64089e-06
1.36011e-06
-3.19829e-06
-7.1503e-06
-1.98678e-06
-6.53987e-06
-6.94197e-06
-3.70502e-06
-9.11415e-06
-4.85123e-06
-5.40246e-06
-8.21558e-06
-1.65914e-06
-7.02961e-06
-3.29079e-06
4.08416e-07
-8.56681e-06
1.53205e-06
3.27241e-07
-8.34457e-06
2.91056e-06
-7.17854e-06
2.28062e-06
2.05617e-06
6.91372e-07
-6.09474e-07
2.86531e-06
1.52085e-06
1.19015e-06
2.02039e-06
8.04651e-07
2.65021e-06
5.51942e-07
-1.59528e-06
3.17071e-06
1.21787e-07
-1.92201e-06
-9.81189e-07
1.13913e-06
-4.10493e-06
-2.56516e-06
2.63804e-06
-6.19234e-06
-3.80287e-07
2.58892e-06
-7.38601e-06
1.96732e-06
1.60536e-06
-7.01505e-06
2.38221e-06
-6.16312e-06
2.03008e-06
3.12413e-06
-1.84209e-06
1.02807e-06
4.23687e-06
3.10356e-07
3.18726e-06
4.74185e-06
2.11696e-07
4.76936e-06
4.70257e-06
-1.57568e-06
4.88078e-06
4.79023e-06
-2.16502e-06
4.27409e-06
4.31137e-06
-2.92683e-06
3.07346e-06
3.36917e-06
-4.36282e-06
2.58977e-06
2.0918e-06
-5.33642e-06
2.33626e-06
1.12208e-06
-5.37073e-06
2.13542e-06
-5.02412e-06
2.2852e-06
1.76569e-06
-1.94498e-06
2.78598e-06
3.38367e-06
1.46289e-07
5.11522e-06
4.40431e-06
5.64466e-08
5.28183e-06
4.26593e-06
-1.17099e-06
3.99494e-06
3.87725e-06
-2.04069e-06
3.06931e-06
3.33175e-06
-2.71908e-06
2.6916e-06
2.47748e-06
-3.5011e-06
2.30387e-06
1.61815e-06
-4.04193e-06
2.05663e-06
9.88942e-07
-4.15969e-06
2.29446e-06
-4.04117e-06
2.71173e-06
5.9107e-07
-1.37708e-06
2.79086e-06
2.06291e-06
4.63405e-08
4.32244e-06
2.99699e-06
-1.3701e-07
3.79253e-06
3.03285e-06
-1.09211e-06
2.67854e-06
2.80281e-06
-1.9603e-06
1.94494e-06
2.48844e-06
-2.58343e-06
1.62974e-06
2.04922e-06
-3.11086e-06
1.46367e-06
1.52025e-06
-3.4579e-06
1.62547e-06
9.68031e-07
-3.52507e-06
2.13938e-06
-3.47563e-06
2.50313e-06
3.21721e-07
-1.29979e-06
2.00532e-06
1.20235e-06
-3.14202e-07
2.63068e-06
1.87734e-06
-6.08933e-07
2.23719e-06
2.09424e-06
-1.36025e-06
1.68099e-06
2.07151e-06
-2.03561e-06
1.27542e-06
1.96658e-06
-2.59035e-06
1.07927e-06
1.791e-06
-3.05196e-06
1.07073e-06
1.50152e-06
-3.38943e-06
1.3359e-06
1.03249e-06
-3.51453e-06
1.91656e-06
-3.47396e-06
2.09578e-06
2.69543e-07
-1.46712e-06
1.29802e-06
8.06697e-07
-7.86672e-07
1.55547e-06
1.25334e-06
-1.06141e-06
1.3299e-06
1.46125e-06
-1.61029e-06
1.02208e-06
1.5248e-06
-2.15367e-06
7.84988e-07
1.53138e-06
-2.65965e-06
6.64588e-07
1.49752e-06
-3.11891e-06
6.99654e-07
1.36019e-06
-3.50603e-06
9.73896e-07
1.0058e-06
-3.72628e-06
1.51928e-06
-3.70468e-06
1.58653e-06
1.98965e-07
7.65811e-07
-1.64402e-06
5.18137e-07
8.74758e-07
-1.10653e-06
7.93562e-07
7.20083e-07
-1.34143e-06
9.49827e-07
5.10597e-07
-1.76833e-06
1.036e-06
3.28432e-07
-2.22568e-06
1.0976e-06
2.12873e-07
-2.69754e-06
1.13822e-06
2.21939e-07
-3.17418e-06
1.11796e-06
3.96328e-07
-3.6179e-06
9.16574e-07
8.29025e-07
-3.92004e-06
7.96439e-07
-3.87402e-06
1.96194e-07
-2.18195e-07
3.90335e-07
4.15128e-07
-2.60996e-07
5.00369e-07
5.89013e-07
-2.17826e-07
5.44373e-07
7.13679e-07
-1.77706e-07
6.42778e-07
7.83271e-07
-1.37474e-07
7.76433e-07
7.8882e-07
-9.14502e-08
9.33494e-07
7.18816e-07
-3.86345e-08
1.10948e-06
5.62064e-07
2.46159e-08
1.28664e-06
3.21617e-07
8.75306e-08
1.43111e-06
1.89254e-07
1.45798e-06
1.83705e-07
-4.18942e-07
3.30281e-07
3.84346e-07
-4.93709e-07
4.18348e-07
5.41747e-07
-4.08307e-07
4.67268e-07
6.5103e-07