/*--------------------------------*- C++ -*----------------------------------*\
| =========                 |                                                 |
| \\      /  F ield         | OpenFOAM: The Open Source CFD Toolbox           |
|  \\    /   O peration     | Version:  2312                                  |
|   \\  /    A nd           | Website:  www.openfoam.com                      |
|    \\/     M anipulation  |                                                 |
\*---------------------------------------------------------------------------*/
FoamFile
{
    version     2.0;
    format      ascii;
    arch        "LSB;label=32;scalar=64";
    class       volVectorField;
    location    "0.26";
    object      U;
}
// * * * * * * * * * * * * * * * * * * * * * * * * * * * * * * * * * * * * * //

dimensions      [0 1 -1 0 0 0 0];

internalField   nonuniform List<vector> 
8000
(
(0.00230135 -0.0050865 0.00227142)
(0.00690251 -0.00558443 0.002651)
(0.0110084 -0.00528579 0.00291636)
(0.0139757 -0.00512844 0.00336794)
(0.0156632 -0.00493512 0.00387187)
(0.0159079 -0.00469892 0.00432447)
(0.0145891 -0.00441323 0.00465674)
(0.0118099 -0.00410932 0.00482406)
(0.00776973 -0.00383299 0.00489444)
(0.00304889 -0.00368545 0.00490504)
(0.00201248 -0.0133779 0.00197717)
(0.00597756 -0.0144122 0.00230162)
(0.00945693 -0.0136722 0.00260553)
(0.0119813 -0.0132832 0.00308766)
(0.0133803 -0.0128395 0.00361357)
(0.0135313 -0.0122381 0.00409336)
(0.0123745 -0.0114866 0.00446405)
(0.010012 -0.0107101 0.00467493)
(0.00659793 -0.0100485 0.00481171)
(0.00267261 -0.00973211 0.00483601)
(0.00230317 -0.0215931 0.00226911)
(0.00660775 -0.0230969 0.00266014)
(0.0102799 -0.0221969 0.00311993)
(0.0130387 -0.0218653 0.00380202)
(0.0146178 -0.0214684 0.00457829)
(0.0148663 -0.0208346 0.00534099)
(0.013655 -0.0199529 0.00598417)
(0.0110457 -0.0189674 0.0064353)
(0.00722525 -0.0180616 0.00674635)
(0.00285262 -0.0176696 0.006757)
(0.00244105 -0.0311206 0.00240541)
(0.00665805 -0.0328543 0.00287947)
(0.0101061 -0.032338 0.00356625)
(0.0128423 -0.0325959 0.00455114)
(0.014417 -0.0328375 0.00568288)
(0.0146995 -0.0327281 0.00686734)
(0.0135311 -0.0322441 0.00789473)
(0.0109612 -0.0315317 0.00870299)
(0.00713644 -0.0307973 0.00926518)
(0.00277363 -0.03059 0.00932426)
(0.00234216 -0.0408326 0.0022995)
(0.00603664 -0.0423612 0.00292027)
(0.00888477 -0.0428815 0.00394402)
(0.0112924 -0.0444504 0.00543835)
(0.0127927 -0.0462143 0.00722213)
(0.0132127 -0.0476406 0.00920069)
(0.0122463 -0.0486096 0.0111692)
(0.0099137 -0.0490002 0.0130877)
(0.00634363 -0.0492786 0.0145904)
(0.00235948 -0.0497248 0.0150084)
(0.00197926 -0.0488518 0.00192242)
(0.00483789 -0.0502071 0.00287964)
(0.00686965 -0.0531391 0.00465431)
(0.0087844 -0.0581339 0.00727804)
(0.0102424 -0.0639987 0.0106265)
(0.0109455 -0.0696002 0.0147164)
(0.0103992 -0.0744982 0.0194344)
(0.00825391 -0.0785041 0.0240733)
(0.00508697 -0.0821417 0.0275915)
(0.00179489 -0.0842694 0.0290707)
(0.00186109 -0.0550739 0.00178656)
(0.00405027 -0.0581531 0.00380269)
(0.00433947 -0.0663781 0.00727993)
(0.00429081 -0.0784659 0.01189)
(0.00428314 -0.0921387 0.0177353)
(0.00341209 -0.105925 0.0244586)
(0.000806976 -0.119022 0.0303949)
(-0.00204838 -0.13123 0.0337015)
(-0.00230563 -0.141884 0.0350847)
(-0.000687958 -0.14768 0.0364398)
(0.0019906 -0.0656192 0.00189974)
(0.000567465 -0.0681726 0.0060691)
(-0.00683673 -0.0785488 0.0112023)
(-0.0146374 -0.0954239 0.0158995)
(-0.022469 -0.116231 0.0204666)
(-0.0318014 -0.138268 0.0217325)
(-0.0389565 -0.159133 0.0156546)
(-0.0376911 -0.177988 0.00416817)
(-0.0263138 -0.192993 -0.0048535)
(-0.00937878 -0.200815 -0.00642669)
(-0.00628959 -0.0566027 -0.00646212)
(-0.0252063 -0.0509397 0.000222279)
(-0.0488874 -0.0621109 0.00242634)
(-0.0688538 -0.0863936 -0.000246913)
(-0.0851525 -0.115879 -0.00804613)
(-0.0902713 -0.145672 -0.0275618)
(-0.0788817 -0.173887 -0.0540376)
(-0.05955 -0.197752 -0.0775365)
(-0.0404889 -0.215756 -0.0946589)
(-0.015213 -0.226365 -0.105188)
(-0.0555801 0.000999423 -0.0564363)
(-0.112026 -0.00896959 -0.041658)
(-0.142379 -0.0457557 -0.0479351)
(-0.150993 -0.0914481 -0.0619884)
(-0.122513 -0.143735 -0.0986971)
(-0.0470454 -0.192145 -0.135907)
(0.032763 -0.231373 -0.154151)
(0.089459 -0.254841 -0.139463)
(0.056183 -0.276725 -0.146725)
(0.0195194 -0.306637 -0.180326)
(-0.134624 0.205695 -0.138295)
(-0.218989 0.0871092 -0.0997764)
(-0.225668 -0.0358702 -0.127742)
(-0.169962 -0.164656 -0.181776)
(0.0150066 -0.267764 -0.270998)
(0.139259 -0.285248 -0.227655)
(0.166057 -0.246506 -0.152851)
(0.144968 -0.189209 -0.0711029)
(0.0735401 -0.172039 -0.0656748)
(0.0213258 -0.203437 -0.120309)
(-0.142774 0.519906 -0.122365)
(-0.203641 0.122723 -0.124194)
(-0.261863 -0.108631 -0.220495)
(-0.187767 -0.134799 -0.318767)
(-0.084468 -0.0111588 -0.352432)
(0.0587389 0.0263525 -0.294968)
(0.156595 0.02256 -0.182067)
(0.170455 -0.00603582 -0.0731102)
(0.0813271 -0.0315689 -0.0630957)
(0.0124967 -0.0680406 -0.133375)
(-0.116559 0.811984 -0.0775324)
(-0.205866 0.360841 -0.118354)
(-0.265112 0.281341 -0.154641)
(-0.14389 0.273433 -0.201493)
(-0.0222439 0.231423 -0.234499)
(0.116791 0.175638 -0.18764)
(0.190316 0.128804 -0.106712)
(0.148128 0.107662 -0.0490553)
(0.033598 0.0961901 -0.0813984)
(-0.00450831 0.0579756 -0.142728)
(-0.0514456 0.961205 -0.0229471)
(-0.0738446 0.515365 -0.0618246)
(-0.178911 0.252518 0.00192219)
(-0.0859 0.227234 0.00395351)
(-0.00141141 0.240701 -0.0278862)
(0.0841881 0.203987 -0.0438883)
(0.110286 0.162812 -0.0365831)
(0.0650562 0.146075 -0.0351892)
(-0.00716504 0.128673 -0.0751289)
(-0.00344417 0.0739339 -0.108637)
(0.0320908 0.881085 0.0411355)
(0.105599 0.617591 0.0256922)
(0.046472 0.159794 0.0679705)
(0.021229 -0.0151207 0.0694734)
(0.0283386 -0.0161802 0.0678982)
(0.0526542 0.00467396 0.0625915)
(0.0657508 0.0528211 0.0455272)
(0.0520716 0.106856 0.0113001)
(0.0174291 0.117903 -0.032382)
(0.0165441 0.0836146 -0.0661087)
(0.0891392 0.558426 0.0848711)
(0.208876 0.443927 0.0889417)
(0.206947 0.0895704 0.0566033)
(0.136576 -0.0600789 0.0271003)
(0.0857531 -0.0837864 0.0315334)
(0.0608787 -0.0943855 0.0461209)
(0.0443107 -0.0753433 0.060757)
(0.0447556 0.00467493 0.0533573)
(0.0400958 0.0638432 0.0223515)
(0.0294169 0.0636341 -0.00424111)
(0.0737733 0.207142 0.0676604)
(0.173371 0.16878 0.0588341)
(0.18112 0.0160763 0.0123677)
(0.139487 -0.0580612 -0.000712413)
(0.10364 -0.0826266 0.00729674)
(0.0767565 -0.0986426 0.0160268)
(0.04586 -0.111985 0.0283958)
(0.0235527 -0.0962399 0.0462742)
(0.0221947 -0.0469193 0.0500319)
(0.019282 -0.0189238 0.0421442)
(0.0280864 0.0604111 0.0245824)
(0.0856038 0.0588855 0.0118278)
(0.105297 -0.000228468 -0.00161583)
(0.0990876 -0.049952 -0.000341549)
(0.0856835 -0.0794361 0.00341769)
(0.0711246 -0.0986576 0.00668379)
(0.0542758 -0.110941 0.0106236)
(0.0343732 -0.116051 0.0182106)
(0.0206282 -0.111491 0.0291339)
(0.0160515 -0.10195 0.0347352)
(0.01207 0.00351981 0.0099333)
(0.0414699 0.00984787 0.00484041)
(0.0614404 -0.0213036 0.00183928)
(0.0664947 -0.0547387 0.0016309)
(0.0630719 -0.0800835 0.00219406)
(0.0561681 -0.0987496 0.00302836)
(0.0476334 -0.112086 0.00435245)
(0.0383876 -0.119395 0.0063551)
(0.0294808 -0.121856 0.00924643)
(0.0222798 -0.122513 0.0117682)
(0.00722159 -0.0329672 0.00541851)
(0.0242575 -0.0236531 0.00397263)
(0.0375919 -0.0403478 0.00214917)
(0.0436886 -0.0625843 0.0011999)
(0.0441479 -0.0821997 0.000776982)
(0.0415591 -0.0984156 0.000636472)
(0.0374114 -0.11118 0.000908526)
(0.0327589 -0.119971 0.0015753)
(0.0281123 -0.124869 0.00252383)
(0.0234338 -0.126423 0.00329135)
(0.00268106 -0.00558766 0.00681844)
(0.00814368 -0.00628189 0.00805941)
(0.0131861 -0.00601746 0.00887755)
(0.0171132 -0.00598344 0.0103559)
(0.0197174 -0.0059934 0.0121807)
(0.0206953 -0.00600952 0.01413)
(0.0196645 -0.00599379 0.0159967)
(0.0164719 -0.00591762 0.0175615)
(0.0111227 -0.00576634 0.0186378)
(0.00432394 -0.00569459 0.0190153)
(0.00233704 -0.0144177 0.00587529)
(0.00702027 -0.015869 0.00691788)
(0.0112644 -0.0151885 0.00786722)
(0.0145528 -0.0151085 0.00943911)
(0.0166571 -0.0151714 0.0113193)
(0.0173655 -0.0152388 0.0133266)
(0.0164169 -0.0152763 0.0152413)
(0.0137443 -0.0152583 0.0168013)
(0.00926444 -0.0152141 0.0178106)
(0.0036794 -0.0155249 0.0181576)
(0.00269428 -0.0231043 0.00650648)
(0.0078294 -0.0252077 0.0077276)
(0.0123498 -0.0244061 0.00910087)
(0.0159431 -0.024547 0.0112469)
(0.018299 -0.0249825 0.013837)
(0.0191469 -0.0254833 0.0166289)
(0.0181377 -0.0260058 0.0193106)
(0.0151587 -0.0264733 0.0214716)
(0.0100011 -0.0269452 0.0229508)
(0.00381489 -0.0279965 0.0238806)
(0.00291514 -0.0328621 0.00654622)
(0.00805784 -0.0351921 0.00794711)
(0.0123951 -0.0347393 0.0100073)
(0.0159747 -0.0355069 0.0130208)
(0.0183137 -0.0367537 0.0166752)
(0.0191184 -0.0381314 0.0206756)
(0.0180091 -0.0395638 0.0246179)
(0.0149246 -0.0409102 0.0279446)
(0.00957098 -0.0423248 0.0305656)
(0.00353194 -0.0444914 0.0323584)
(0.00296377 -0.04237 0.00590495)
(0.00783017 -0.0443061 0.0076978)
(0.0117252 -0.0447098 0.0108528)
(0.0150594 -0.0467285 0.01538)
(0.0172714 -0.0495374 0.021003)
(0.0180479 -0.0527542 0.0272942)
(0.0169291 -0.0560857 0.0337376)
(0.0138751 -0.059239 0.0396779)
(0.00858053 -0.0625185 0.0446443)
(0.00300442 -0.0658873 0.0476291)
(0.00293735 -0.0502237 0.00467672)
(0.00755628 -0.0516466 0.00739318)
(0.0109937 -0.054436 0.0124939)
(0.0139745 -0.0596338 0.0197706)
(0.016175 -0.0660181 0.0285493)
(0.0172829 -0.072839 0.0382453)
(0.0167594 -0.0792696 0.0479772)
(0.0141055 -0.0848968 0.0567736)
(0.00909294 -0.0902038 0.063673)
(0.00324474 -0.0944467 0.0673283)
(0.00386238 -0.0581982 0.00385658)
(0.00796209 -0.0598767 0.00776896)
(0.00967374 -0.0665653 0.0151676)
(0.0116374 -0.0762769 0.0246808)
(0.0141368 -0.0874235 0.0352718)
(0.0158676 -0.0978832 0.046643)
(0.0160796 -0.106263 0.0568306)
(0.0133353 -0.112862 0.0637844)
(0.00850247 -0.118749 0.0678003)
(0.00290228 -0.124402 0.070306)
(0.00610715 -0.0682547 0.000330854)
(0.00571738 -0.0646346 0.00544813)
(0.000268064 -0.069897 0.0120906)
(-0.00105843 -0.0816233 0.0197873)
(-0.000379787 -0.0957301 0.0308662)
(-2.59062e-05 -0.108588 0.0453784)
(-0.000597494 -0.119231 0.0556651)
(-0.00297916 -0.127908 0.0610554)
(-0.00539436 -0.135888 0.0648634)
(-0.0035821 -0.144848 0.0684792)
(0.000476192 -0.0510789 -0.0256302)
(-0.00926899 -0.02901 -0.0098533)
(-0.0293145 -0.040211 -0.000853372)
(-0.044319 -0.0683525 0.0169892)
(-0.0518903 -0.10026 0.0427171)
(-0.0490849 -0.128102 0.0604814)
(-0.0424499 -0.15239 0.0786777)
(-0.0356245 -0.175298 0.10014)
(-0.0259752 -0.202386 0.121744)
(-0.00876867 -0.228726 0.134507)
(-0.0400074 -0.00900413 -0.113492)
(-0.0416388 -0.00634661 -0.0424474)
(-0.10305 -0.0439764 0.0568376)
(-0.145477 -0.117287 0.119081)
(-0.164336 -0.188894 0.0533806)
(-0.0826493 -0.242557 0.0681592)
(-0.0551799 -0.273039 0.0718839)
(-0.0494075 -0.292911 0.0680493)
(-0.0108872 -0.335704 0.075576)
(0.0153906 -0.433914 0.0776123)
(-0.0984477 0.085539 -0.224252)
(0.113659 0.110446 0.118471)
(-0.314681 -0.0813173 0.101956)
(-0.149308 -0.195506 -0.0409972)
(-0.129347 -0.0375518 -0.266163)
(-0.0939807 0.0231556 -0.320435)
(-0.0973706 0.0434475 -0.273269)
(-0.0618112 0.00350969 -0.171819)
(0.00817206 -0.0780169 -0.0908689)
(0.0190795 -0.15271 -0.094502)
(-0.12409 0.150475 -0.0938332)
(-0.0329086 0.37076 0.0418594)
(-0.36176 0.181953 -0.310065)
(-0.354528 0.104777 -0.53047)
(-0.350576 0.109427 -0.524831)
(-0.251716 0.131969 -0.427504)
(-0.128396 0.122549 -0.272571)
(0.00204637 0.0303727 -0.13342)
(0.0671603 -0.0648057 -0.0733505)
(0.0327396 -0.132506 -0.0931455)
(-0.121364 0.380114 -0.0947156)
(-0.103526 0.585192 -0.0139867)
(-0.265829 0.353321 -0.204088)
(-0.189183 0.175848 -0.320839)
(-0.133712 0.0620339 -0.327884)
(-0.0069298 0.0121713 -0.223832)
(0.140217 -0.0352287 -0.0723283)
(0.206376 -0.0627464 0.031328)
(0.165921 -0.0628443 0.0482296)
(0.0626439 -0.100193 -0.00875656)
(-0.07167 0.582913 -0.00388857)
(-0.0607635 0.652521 0.00803868)
(-0.13143 0.372 0.0471316)
(-0.0207064 0.167352 0.0845894)
(0.0682985 0.0436011 0.0977973)
(0.155696 -0.0567999 0.118519)
(0.198894 -0.0983254 0.137235)
(0.189383 -0.0818808 0.134245)
(0.136478 -0.0630229 0.10231)
(0.0672807 -0.0881492 0.0417275)
(0.0222407 0.678321 0.129657)
(0.0738425 0.709531 0.0999969)
(0.0761375 0.33961 0.159503)
(0.109902 0.015971 0.172586)
(0.119755 -0.116817 0.151288)
(0.126502 -0.146364 0.143792)
(0.126898 -0.142128 0.145606)
(0.129764 -0.105378 0.138566)
(0.123154 -0.0718495 0.115944)
(0.0870949 -0.0702002 0.0875802)
(0.0946919 0.478307 0.208511)
(0.218116 0.582838 0.215425)
(0.268536 0.276328 0.181986)
(0.240575 0.0176674 0.117691)
(0.172015 -0.0848008 0.0827364)
(0.12154 -0.130243 0.0850863)
(0.0863028 -0.161285 0.10611)
(0.0734691 -0.143281 0.126634)
(0.0748802 -0.0982255 0.127032)
(0.058376 -0.0710896 0.111736)
(0.0663528 0.1821 0.167982)
(0.206435 0.294863 0.196862)
(0.251722 0.146784 0.122779)
(0.2096 0.00810946 0.0557365)
(0.155471 -0.0578363 0.0379517)
(0.114939 -0.0920683 0.042281)
(0.0775996 -0.12317 0.0559529)
(0.0431479 -0.14503 0.0841276)
(0.0317379 -0.130769 0.110587)
(0.0278993 -0.107061 0.118562)
(0.0156093 0.0626856 0.0801257)
(0.0947403 0.124721 0.0876614)
(0.133452 0.0688126 0.0473358)
(0.128263 -0.00166084 0.0257188)
(0.110078 -0.0497684 0.021351)
(0.0917467 -0.079362 0.0224784)
(0.073002 -0.0997912 0.0274298)
(0.0504438 -0.114364 0.0389521)
(0.0303493 -0.12433 0.0582423)
(0.0222257 -0.124938 0.0722531)
(0.00698946 0.0112866 0.0361296)
(0.0382639 0.0464068 0.0327565)
(0.0678593 0.0196864 0.0220772)
(0.0777128 -0.0224132 0.016176)
(0.074848 -0.0549881 0.0132076)
(0.0677838 -0.0783301 0.0122578)
(0.0590433 -0.0954826 0.0134097)
(0.0488242 -0.106831 0.0168922)
(0.0375048 -0.111954 0.0228097)
(0.0274027 -0.113786 0.0278752)
(0.00580069 -0.0229419 0.019141)
(0.0231567 0.00178087 0.0179443)
(0.0402153 -0.0133958 0.0133192)
(0.0487132 -0.0384281 0.00931607)
(0.0501421 -0.0607125 0.00650277)
(0.0480342 -0.0791691 0.00480681)
(0.0442657 -0.0939605 0.00445917)
(0.039607 -0.104964 0.00534614)
(0.033968 -0.111742 0.007463)
(0.0276906 -0.114593 0.00924945)
(0.00294569 -0.00529087 0.0108703)
(0.00896035 -0.0060198 0.013051)
(0.0145069 -0.00556035 0.0143716)
(0.0187515 -0.00529047 0.0168976)
(0.0215358 -0.00506835 0.0201759)
(0.0225645 -0.00484589 0.0239236)
(0.021411 -0.00461126 0.0278745)
(0.0178371 -0.00437881 0.0316021)
(0.0117715 -0.00423598 0.0347412)
(0.00448051 -0.00429618 0.0367475)
(0.00264107 -0.0136825 0.00929024)
(0.00796926 -0.015195 0.011098)
(0.0127809 -0.013964 0.0126143)
(0.0164037 -0.013211 0.0152427)
(0.0186778 -0.0125324 0.0185566)
(0.0193847 -0.0118355 0.0223508)
(0.0181843 -0.0111958 0.0263938)
(0.0149083 -0.0108183 0.0302595)
(0.00962771 -0.0109714 0.0340932)
(0.00388052 -0.0115979 0.0366628)
(0.00315408 -0.0222151 0.0101144)
(0.00920198 -0.0244188 0.0121833)
(0.0145184 -0.0225872 0.0143546)
(0.0186487 -0.0215118 0.0178718)
(0.0213007 -0.0205762 0.0222718)
(0.0221671 -0.0196567 0.027266)
(0.020756 -0.0188901 0.0324403)
(0.0169244 -0.0186256 0.0375177)
(0.0110876 -0.0191421 0.0424827)
(0.00465268 -0.0204703 0.0447763)
(0.00360374 -0.0323659 0.00992593)
(0.0101199 -0.0347644 0.012216)
(0.0156392 -0.0326397 0.0154627)
(0.0200713 -0.0314724 0.0203405)
(0.0229374 -0.0304593 0.0263309)
(0.023882 -0.0294465 0.0331551)
(0.0222838 -0.0286521 0.0401753)
(0.0181563 -0.0284598 0.0471855)
(0.0120221 -0.029356 0.0534189)
(0.00512806 -0.0306215 0.0555779)
(0.00398892 -0.0429211 0.00867524)
(0.0109861 -0.0447497 0.0115171)
(0.0167234 -0.0429073 0.0165236)
(0.0214907 -0.0421314 0.0237169)
(0.0246521 -0.0415688 0.0325037)
(0.025699 -0.0409425 0.0424472)
(0.0238916 -0.0406693 0.0526712)
(0.0193752 -0.0409709 0.0626493)
(0.012544 -0.0422945 0.0708812)
(0.00494075 -0.0420323 0.0723382)
(0.00470936 -0.0532052 0.00662011)
(0.0126507 -0.05449 0.0107488)
(0.0189087 -0.0543539 0.0186939)
(0.0239209 -0.0550299 0.0295002)
(0.0271939 -0.0554604 0.0421619)
(0.0280266 -0.0555712 0.0558348)
(0.0260788 -0.0558978 0.0691102)
(0.021493 -0.0567874 0.0811312)
(0.0135792 -0.057835 0.0900058)
(0.0046815 -0.0555256 0.0921129)
(0.00731774 -0.0665065 0.00405977)
(0.0153418 -0.066666 0.00939085)
(0.0200398 -0.0667993 0.0197557)
(0.0239924 -0.0676693 0.0325236)
(0.0269727 -0.0688393 0.0472213)
(0.0277477 -0.0700907 0.0622953)
(0.0267798 -0.0713409 0.0756811)
(0.0224545 -0.0724966 0.0864055)
(0.0131619 -0.0724778 0.0923563)
(0.00393578 -0.0711071 0.0975894)
(0.0112175 -0.0786753 -0.00716347)
(0.0124182 -0.0701813 -0.000175438)
(0.00767808 -0.0682203 0.00670497)
(0.0103477 -0.073272 0.019348)
(0.0144218 -0.078569 0.0388913)
(0.0180595 -0.0843381 0.0593178)
(0.0201505 -0.0903881 0.0779241)
(0.016033 -0.0955185 0.0903839)
(0.005634 -0.100532 0.0955072)
(-0.00162932 -0.106829 0.0997405)
(0.00295828 -0.0620942 -0.0496948)
(-0.000158043 -0.0407824 -0.0300683)
(-0.00937172 -0.0594876 -0.0094925)
(-0.0195928 -0.0814283 0.0306757)
(-0.0169911 -0.0984686 0.0602974)
(-0.00724825 -0.112889 0.0875377)
(-0.0082132 -0.129289 0.10551)
(-0.0178445 -0.151352 0.108589)
(-0.0282864 -0.151586 0.114748)
(-0.0173567 -0.146978 0.180598)
(-0.0452855 -0.0455975 -0.144623)
(0.0553419 -0.0441116 -0.100676)
(0.103632 -0.0311006 0.134489)
(-0.0753843 -0.0592294 0.15288)
(-0.0813149 -0.142652 0.0491907)
(-0.110646 -0.148847 -0.0921133)
(-0.169674 -0.148942 -0.199504)
(-0.201953 -0.14004 -0.256019)
(-0.155182 -0.0792693 -0.259277)
(-0.0650999 -0.021374 -0.264178)
(-0.124046 -0.0368167 -0.221177)
(0.0943581 -0.0648607 -0.277188)
(-0.0969236 0.165471 0.0226714)
(-0.0935861 0.168739 -0.37927)
(-0.209792 0.067743 -0.514649)
(-0.282394 0.0662946 -0.547747)
(-0.299372 0.0339462 -0.520392)
(-0.261192 -0.0556984 -0.424429)
(-0.160095 -0.148165 -0.323034)
(-0.0627507 -0.179272 -0.270168)
(-0.221862 -0.127547 -0.176446)
(-0.335451 0.196851 -0.252328)
(-0.478866 0.169872 -0.404446)
(-0.491253 0.093902 -0.560528)
(-0.463072 0.0104811 -0.552916)
(-0.390174 -0.0134663 -0.452569)
(-0.298835 -0.0235495 -0.279701)
(-0.171782 -0.103049 -0.125009)
(-0.070506 -0.185413 -0.0602553)
(-0.0367562 -0.20058 -0.0650943)
(-0.146381 0.252721 -0.175223)
(-0.223005 0.36522 -0.161968)
(-0.305337 0.225491 -0.24802)
(-0.292889 0.0379941 -0.340776)
(-0.263384 -0.0569121 -0.344414)
(-0.15618 -0.101974 -0.213116)
(0.0134769 -0.158779 -0.02421)
(0.123372 -0.230534 0.0782733)
(0.118093 -0.244678 0.0816931)
(0.0418459 -0.234132 0.0169112)
(-0.00178105 0.229911 -0.122417)
(0.02612 0.390573 -0.0718677)
(-0.016604 0.288064 0.0211634)
(0.0222261 0.075978 0.0735855)
(0.0892746 -0.0431251 0.0654512)
(0.152548 -0.13366 0.0539106)
(0.2178 -0.217879 0.0990825)
(0.20492 -0.252793 0.127345)
(0.141657 -0.232604 0.102286)
(0.0661711 -0.204843 0.0399122)
(0.0636759 0.184958 0.0888631)
(0.147467 0.372528 0.1078)
(0.161603 0.25525 0.17671)
(0.182679 0.00372029 0.19705)
(0.176275 -0.114729 0.165281)
(0.171703 -0.145997 0.145291)
(0.152914 -0.190237 0.137698)
(0.118558 -0.214281 0.129861)
(0.092451 -0.194519 0.1174)
(0.0591629 -0.166084 0.0991066)
(0.0593566 0.102825 0.222241)
(0.185573 0.29043 0.275228)
(0.247492 0.182585 0.244265)
(0.242128 0.00988937 0.167165)
(0.18971 -0.0763314 0.106935)
(0.145163 -0.116387 0.0875958)
(0.108899 -0.158787 0.0925118)
(0.0768976 -0.184662 0.11096)
(0.0583327 -0.176045 0.13004)
(0.0417234 -0.150978 0.137084)
(0.0151818 0.0192672 0.18058)
(0.129365 0.148996 0.24626)
(0.189035 0.0936948 0.181256)
(0.179518 -3.70301e-05 0.102786)
(0.146133 -0.0595 0.0636546)
(0.116355 -0.0926201 0.0519932)
(0.0898546 -0.118604 0.0542699)
(0.0598266 -0.140657 0.0712081)
(0.0363644 -0.148647 0.0997702)
(0.0252897 -0.141605 0.120131)
(0.000562319 0.00120353 0.0992421)
(0.0525063 0.0688532 0.125715)
(0.0987639 0.0428065 0.0909224)
(0.108206 -0.0136177 0.0577274)
(0.0994351 -0.0578058 0.0409275)
(0.0871439 -0.0860106 0.0337719)
(0.0738915 -0.10566 0.0335509)
(0.0579703 -0.118067 0.0402923)
(0.0399336 -0.123771 0.0548518)
(0.0267178 -0.125061 0.0675963)
(0.00383498 -0.0210454 0.0536255)
(0.0272882 0.0189085 0.0596147)
(0.0557429 0.000364055 0.0473811)
(0.0680168 -0.0354031 0.0345644)
(0.0685722 -0.064937 0.0258836)
(0.0645258 -0.0874151 0.0213329)
(0.0584153 -0.104608 0.0209712)
(0.0505317 -0.116702 0.0245092)
(0.0402868 -0.12254 0.0310365)
(0.03006 -0.123875 0.0351357)
(0.00394026 -0.0402296 0.0293027)
(0.0184753 -0.0142048 0.0316535)
(0.0343516 -0.0268252 0.0256344)
(0.0431929 -0.0494225 0.0185149)
(0.0458464 -0.0707255 0.0127466)
(0.0454382 -0.089463 0.00905782)
(0.0434491 -0.105279 0.00803237)
(0.0405591 -0.117707 0.0097258)
(0.0357824 -0.125245 0.0140844)
(0.0301253 -0.127939 0.0166837)
(0.00339792 -0.0051341 0.0137866)
(0.0104386 -0.00598785 0.0169301)
(0.017034 -0.00529286 0.0185687)
(0.0220567 -0.00473928 0.021865)
(0.0253772 -0.00420412 0.0262374)
(0.0267246 -0.0035771 0.0313345)
(0.0255569 -0.00281585 0.036819)
(0.021671 -0.00201024 0.0424396)
(0.0150639 -0.00102704 0.0470003)
(0.00624167 -0.0005117 0.0485105)
(0.00312259 -0.0132989 0.0117536)
(0.00953934 -0.0151248 0.0143259)
(0.0154094 -0.0132177 0.0161762)
(0.0198084 -0.0116631 0.0195742)
(0.022646 -0.0100646 0.0239396)
(0.0237319 -0.00826355 0.0290231)
(0.0225611 -0.00646221 0.0346072)
(0.0194026 -0.00488722 0.0403486)
(0.01406 -0.00291546 0.0442339)
(0.0069053 -0.00162151 0.0458358)
(0.00383548 -0.0218942 0.0128179)
(0.0113489 -0.0245742 0.0157219)
(0.0180367 -0.0215225 0.0184296)
(0.0231999 -0.0189878 0.0229799)
(0.0265974 -0.0164315 0.0286669)
(0.027836 -0.0135848 0.0350771)
(0.026507 -0.0109674 0.0420928)
(0.0229226 -0.00884243 0.0483464)
(0.0157665 -0.00673194 0.0521344)
(0.00725837 -0.00203548 0.0547717)
(0.00458975 -0.0326443 0.0126075)
(0.0131366 -0.0355568 0.0157399)
(0.0205188 -0.031492 0.0198459)
(0.0263252 -0.0280493 0.0261041)
(0.0302435 -0.0244981 0.0337965)
(0.0316705 -0.0205489 0.042464)
(0.0302382 -0.0168929 0.0520795)
(0.0259296 -0.0139888 0.0601135)
(0.0166928 -0.010085 0.0653713)
(0.00713789 0.00313371 0.0673948)
(0.00548802 -0.0445306 0.0110237)
(0.0155226 -0.0468111 0.0147963)
(0.0239206 -0.0421584 0.0212615)
(0.0306137 -0.0382283 0.0303966)
(0.0351929 -0.0339925 0.0414301)
(0.0367554 -0.0293564 0.0538419)
(0.0346941 -0.0251863 0.0673062)
(0.0286899 -0.0217142 0.0787399)
(0.0158327 -0.0156427 0.0853622)
(0.00527082 0.00529568 0.0858619)
(0.00733616 -0.0582746 0.00847285)
(0.0199398 -0.0597459 0.0136824)
(0.0297172 -0.0550395 0.0236935)
(0.0370251 -0.0505629 0.0368605)
(0.0414548 -0.0454998 0.0521126)
(0.0422229 -0.0398186 0.068597)
(0.0389443 -0.034185 0.0851494)
(0.03079 -0.0287448 0.0990549)
(0.0144464 -0.0200374 0.108504)
(0.00275003 0.00259105 0.111636)
(0.0119363 -0.0786775 0.00394979)
(0.0249281 -0.0764765 0.0113319)
(0.032844 -0.0676683 0.0235688)
(0.0383209 -0.0602289 0.038015)
(0.0412792 -0.0542175 0.0550171)
(0.0429073 -0.0481387 0.0743058)
(0.0424159 -0.0421454 0.0936778)
(0.0336455 -0.0374983 0.111639)
(0.0168633 -0.0283534 0.123993)
(0.00572005 -0.0144744 0.129451)
(0.0160884 -0.0955711 -0.0152372)
(0.0205321 -0.0821851 -0.00166659)
(0.0202749 -0.0736729 0.00893223)
(0.0245162 -0.0703474 0.0229413)
(0.0332323 -0.0715476 0.0473576)
(0.0430198 -0.0735195 0.0785487)
(0.0421684 -0.0756576 0.106573)
(0.0240727 -0.0757968 0.130101)
(0.00452915 -0.0770805 0.14041)
(-0.00470642 -0.0836706 0.139302)
(0.000715641 -0.0865144 -0.0708573)
(0.0181234 -0.0693273 -0.0452299)
(0.031006 -0.0815259 -0.0164651)
(0.0413806 -0.0908365 0.0455916)
(0.0511965 -0.100425 0.0920036)
(0.0346445 -0.11396 0.124587)
(-0.0429946 -0.0814038 0.1572)
(-0.0684023 -0.0665109 0.145788)
(-0.0745893 -0.100454 0.125524)
(-0.0527462 -0.118712 0.158266)
(-0.0589457 -0.0916159 -0.152427)
(0.114682 -0.11646 -0.13515)
(0.134755 -0.0467937 -0.0108915)
(0.0561358 -0.0649706 0.13593)
(-0.0490052 -0.100275 -0.00691229)
(-0.191709 -0.0938363 -0.166996)
(-0.264981 0.0491303 -0.198272)
(-0.231504 0.0863533 -0.180284)
(-0.198401 -0.0447381 -0.177796)
(-0.141582 -0.105224 -0.149514)
(-0.168161 -0.170531 -0.137506)
(-0.0533055 -0.189042 -0.0809977)
(-0.392349 0.206435 -0.000547145)
(-0.378392 0.0809282 -0.288279)
(-0.4465 0.0366847 -0.424077)
(-0.409019 -0.0889019 -0.500485)
(-0.344343 -0.150487 -0.460603)
(-0.27748 -0.197183 -0.386022)
(-0.209323 -0.259073 -0.332948)
(-0.122653 -0.298289 -0.281151)
(-0.279351 -0.173635 -0.0679156)
(-0.50998 0.141966 -0.224225)
(-0.556845 0.139965 -0.399958)
(-0.50927 -0.0243139 -0.522214)
(-0.448343 -0.206316 -0.535391)
(-0.400013 -0.287271 -0.453126)
(-0.33511 -0.275127 -0.278381)
(-0.224655 -0.28347 -0.138426)
(-0.12234 -0.327327 -0.0890043)
(-0.058934 -0.320759 -0.0758872)
(-0.143686 0.238762 -0.0444631)
(-0.255915 0.199166 -0.0404214)
(-0.268737 0.0667369 -0.187352)
(-0.269537 -0.0769739 -0.318071)
(-0.291485 -0.147265 -0.364297)
(-0.265978 -0.200287 -0.271263)
(-0.130626 -0.247646 -0.051139)
(0.00736549 -0.311146 0.102582)
(0.0320111 -0.328115 0.132241)
(-0.0100542 -0.290743 0.106529)
(0.0254318 0.110522 -0.0439005)
(0.110855 0.115429 0.0269845)
(0.0999983 0.0660977 0.0811197)
(0.0640191 -0.0439657 0.118381)
(-0.000597239 -0.0875191 -0.0252346)
(0.00432258 -0.182776 -0.0858737)
(0.097428 -0.267078 0.0373162)
(0.128802 -0.330122 0.104855)
(0.0866557 -0.316655 0.102046)
(0.0342588 -0.273351 0.0803265)
(0.0596334 -0.0554241 0.058609)
(0.160104 0.0179108 0.142856)
(0.191087 0.0142791 0.20068)
(0.192635 -0.0707678 0.198616)
(0.18371 -0.0761032 0.166358)
(0.18367 -0.117786 0.142735)
(0.166933 -0.200265 0.128575)
(0.11172 -0.251105 0.111665)
(0.0574152 -0.245257 0.0997003)
(0.029165 -0.223122 0.100716)
(0.0211827 -0.0767443 0.150901)
(0.112983 0.0147909 0.250481)
(0.169226 0.00794106 0.239169)
(0.176141 -0.0528052 0.169441)
(0.159887 -0.088301 0.117593)
(0.146342 -0.119826 0.0991096)
(0.12072 -0.158612 0.0891026)
(0.0807963 -0.183929 0.0873059)
(0.0483981 -0.186263 0.0993296)
(0.0298105 -0.177186 0.115121)
(-0.00196563 -0.0662407 0.136531)
(0.0561562 0.0041441 0.202968)
(0.108376 -0.0022235 0.169243)
(0.122818 -0.0461494 0.112564)
(0.116389 -0.0829176 0.0768757)
(0.106363 -0.109625 0.0623821)
(0.0922812 -0.132795 0.0586634)
(0.0716404 -0.147141 0.0649314)
(0.047367 -0.149814 0.0813197)
(0.0303761 -0.147423 0.0965377)
(0.000967066 -0.0528861 0.0898269)
(0.0290757 -0.00401547 0.117127)
(0.0646539 -0.0151268 0.0962409)
(0.0813085 -0.050471 0.0688569)
(0.0837077 -0.0811464 0.0514571)
(0.0808699 -0.104633 0.0430676)
(0.0754338 -0.123546 0.0427663)
(0.0659437 -0.135728 0.0496042)
(0.0495286 -0.13812 0.0634138)
(0.0341711 -0.136206 0.071582)
(0.00318228 -0.0560764 0.0552286)
(0.0207069 -0.0245902 0.0654499)
(0.0427063 -0.0361296 0.0549919)
(0.0553795 -0.0611663 0.0418146)
(0.0600452 -0.0849613 0.0320182)
(0.0611374 -0.1057 0.0270068)
(0.060307 -0.12391 0.0277362)
(0.0570187 -0.138122 0.0338352)
(0.0464989 -0.14503 0.0460089)
(0.0351418 -0.144092 0.050346)
(0.00278224 -0.0629551 0.0318039)
(0.0140724 -0.0394542 0.0359693)
(0.0270682 -0.0495293 0.0297551)
(0.0354898 -0.0685329 0.0215108)
(0.0398402 -0.0881589 0.014496)
(0.0422901 -0.107515 0.0100464)
(0.0437645 -0.126006 0.00921608)
(0.044469 -0.142789 0.01205)
(0.0398268 -0.153677 0.0207903)
(0.0348674 -0.152454 0.0227873)
(0.00390055 -0.00494215 0.0154304)
(0.0122616 -0.00600175 0.0194956)
(0.0203056 -0.00507531 0.0213064)
(0.0264238 -0.00420697 0.0251352)
(0.0305789 -0.00333128 0.0303244)
(0.0324512 -0.00227211 0.0363058)
(0.0315671 -0.000914531 0.0430284)
(0.027183 0.000786064 0.0492498)
(0.0186344 0.00227231 0.0536383)
(0.00800145 0.00437699 0.0578022)
(0.00364656 -0.0128584 0.0130993)
(0.0114156 -0.0151969 0.0163786)
(0.0187164 -0.0125473 0.0183938)
(0.0241677 -0.0100657 0.0223518)
(0.0278024 -0.00756004 0.0274926)
(0.0294363 -0.00490315 0.0334847)
(0.0285656 -0.00213387 0.040525)
(0.0242349 0.000988195 0.0465259)
(0.0156917 0.00424679 0.0521416)
(0.00611563 0.00975612 0.055038)
(0.0046109 -0.0215059 0.01435)
(0.0139375 -0.0250286 0.0180332)
(0.022435 -0.0205966 0.0210334)
(0.0288845 -0.0164285 0.0263209)
(0.0330771 -0.012211 0.0327843)
(0.0349278 -0.0078249 0.0405263)
(0.0331639 -0.00353301 0.0485919)
(0.0274199 0.000802957 0.0568233)
(0.0161014 0.0074045 0.0632927)
(0.00446799 0.0202463 0.0575909)
(0.0057231 -0.0329051 0.014136)
(0.0167986 -0.0368326 0.0180317)
(0.0265197 -0.0304835 0.0226693)
(0.0340231 -0.0244894 0.0299688)
(0.0390471 -0.0182592 0.038752)
(0.0414488 -0.0115011 0.049622)
(0.0390318 -0.005196 0.0607111)
(0.0318374 0.00206569 0.0727842)
(0.017178 0.0161609 0.0796547)
(0.00492458 0.036697 0.0684161)
(0.00727921 -0.0463334 0.012479)
(0.0211708 -0.0496599 0.0169568)
(0.0327331 -0.0416028 0.024387)
(0.0416555 -0.0339785 0.0349414)
(0.0478277 -0.0258528 0.0475859)
(0.0505939 -0.016976 0.0631105)
(0.0472818 -0.00916688 0.0790533)
(0.0373086 0.000275828 0.0960777)
(0.0176019 0.0197223 0.10533)
(0.00462605 0.0405564 0.0909848)
(0.0107104 -0.0642168 0.00989095)
(0.0287681 -0.0661686 0.0158382)
(0.0424244 -0.0554415 0.0269701)
(0.0522235 -0.0454095 0.0414937)
(0.0581523 -0.03496 0.0586259)
(0.0599041 -0.0229847 0.0778831)
(0.0556194 -0.0104212 0.0975436)
(0.0432947 0.00761917 0.119737)
(0.0217656 0.0321995 0.131716)
(0.00793569 0.051235 0.120729)
(0.0179232 -0.0924425 0.00380563)
(0.0357384 -0.0877033 0.0138556)
(0.0476312 -0.0687929 0.0267467)
(0.0550754 -0.0538864 0.0417448)
(0.0593197 -0.0422901 0.0606458)
(0.0643759 -0.0310627 0.0835542)
(0.0682007 -0.0205424 0.113887)
(0.056154 -0.00525545 0.146234)
(0.033873 0.00901143 0.168263)
(0.0130346 0.0214901 0.181267)
(0.0208444 -0.116618 -0.0238041)
(0.032004 -0.0965834 -0.0010007)
(0.0398142 -0.079183 0.0133878)
(0.0488193 -0.0713128 0.031051)
(0.0657548 -0.0712331 0.0618624)
(0.0749094 -0.0699 0.102916)
(0.0633472 -0.0655791 0.141252)
(0.0403119 -0.0640345 0.17929)
(0.0137172 -0.0723908 0.214358)
(-0.0254098 -0.0710346 0.2407)
(-0.00777797 -0.116801 -0.0880642)
(0.044043 -0.101702 -0.0526813)
(0.0620619 -0.0985682 -0.0161512)
(0.0939322 -0.100065 0.055183)
(0.132578 -0.109523 0.145921)
(0.0619554 -0.0377196 0.209294)
(-0.0755389 -0.0344547 0.175833)
(-0.102292 -0.060827 0.170028)
(-0.125875 -0.0819999 0.12875)
(-0.154236 -0.0825846 0.0905304)
(-0.0921552 -0.14595 -0.118701)
(0.0651294 -0.187981 -0.144978)