/*--------------------------------*- C++ -*----------------------------------*\
| =========                 |                                                 |
| \\      /  F ield         | OpenFOAM: The Open Source CFD Toolbox           |
|  \\    /   O peration     | Version:  2312                                  |
|   \\  /    A nd           | Website:  www.openfoam.com                      |
|    \\/     M anipulation  |                                                 |
\*---------------------------------------------------------------------------*/
FoamFile
{
    version     2.0;
    format      ascii;
    arch        "LSB;label=32;scalar=64";
    class       surfaceScalarField;
    location    "1";
    object      alphaPhi0.water;
}
// * * * * * * * * * * * * * * * * * * * * * * * * * * * * * * * * * * * * * //

dimensions      [0 3 -1 0 0 0 0];

oriented        oriented;

internalField   nonuniform List<scalar> 
22600
(
-8.1675e-08
1.83821e-07
-1.02146e-07
-1.15819e-07
1.81598e-07
-1.47454e-07
-1.18547e-07
1.67453e-07
-1.64725e-07
-1.37155e-07
1.51976e-07
-1.33368e-07
-1.65152e-07
1.38236e-07
-1.10239e-07
-1.90798e-07
1.30636e-07
-1.04991e-07
-2.05133e-07
1.23778e-07
-1.09442e-07
-1.97509e-07
1.11927e-07
-1.19551e-07
-1.61337e-07
9.32661e-08
-1.29438e-07
7.3222e-08
-1.42312e-07
-1.26177e-07
4.74788e-07
-1.6479e-07
-1.96561e-07
4.55074e-07
-2.03093e-07
-2.18568e-07
4.32151e-07
-2.42692e-07
-2.41343e-07
3.96094e-07
-2.21342e-07
-2.67818e-07
3.36579e-07
-1.71867e-07
-2.84177e-07
2.94081e-07
-1.47085e-07
-2.80375e-07
2.62553e-07
-1.42577e-07
-2.50932e-07
2.26359e-07
-1.43875e-07
-1.89413e-07
1.73447e-07
-1.417e-07
1.19009e-07
-1.42817e-07
-4.76059e-08
6.34926e-07
-1.12532e-07
-1.40294e-07
5.78404e-07
-3.06413e-08
-2.2994e-07
6.59589e-07
-1.37792e-07
-2.63723e-07
6.53274e-07
-2.23398e-07
-2.77888e-07
5.67918e-07
-2.17174e-07
-2.91772e-07
4.81984e-07
-1.74019e-07
-3.01733e-07
4.20738e-07
-1.48223e-07
-3.00902e-07
3.5251e-07
-1.26982e-07
-2.46922e-07
2.05099e-07
-8.56316e-08
5.16706e-09
-3.8075e-08
9.77989e-08
5.73549e-07
-3.64221e-08
-4.79032e-08
4.61774e-07
2.62332e-07
-2.60749e-07
7.38209e-07
1.34226e-07
-3.43258e-07
8.17775e-07
-8.19926e-08
-3.51011e-07
7.61633e-07
-1.85962e-07
-3.80889e-07
6.82686e-07
-1.70825e-07
-4.47742e-07
6.04308e-07
-1.16717e-07
-4.83362e-07
4.26501e-07
-3.83709e-08
-3.5406e-07
-2.20458e-09
7.80014e-08
-3.84472e-07
1.62556e-07
3.63898e-07
1.01582e-07
1.08068e-07
1.44468e-07
1.80301e-07
5.00903e-07
-3.03079e-07
8.11832e-07
3.73925e-07
-5.42781e-07
9.28625e-07
1.28852e-07
-5.9649e-07
8.54894e-07
-3.9553e-08
-6.28988e-07
7.72433e-07
-5.72488e-08
-6.49698e-07
6.36331e-07
-1.13139e-08
-5.50778e-07
2.64778e-07
6.28032e-08
-3.30052e-07
-3.33284e-07
1.10353e-07
-6.38938e-07
4.77041e-08
2.5165e-07
-5.48598e-07
3.98593e-07
-7.0972e-08
-9.78138e-08
6.00738e-07
-5.39297e-07
7.51887e-07
5.2827e-07
-7.77899e-07
8.35449e-07
3.31777e-07
-7.86509e-07
7.45641e-07
1.17863e-07
-7.08345e-07
6.74121e-07
2.01481e-08
-5.73361e-07
5.22555e-07
-2.12077e-08
-3.67188e-07
1.53906e-07
-9.53008e-08
-2.0584e-07
-3.06271e-07
-1.88363e-07
-4.6831e-07
-2.34648e-07
-2.33257e-07
-7.42333e-07
4.26877e-07
-4.87596e-07
-1.77336e-07
3.33838e-07
-7.67885e-07
4.518e-07
5.80375e-07
-8.66367e-07
6.33247e-07
3.00684e-07
-7.54629e-07
7.72921e-07
-1.39018e-07
-5.86012e-07
9.20772e-07
-4.15267e-07
-4.50589e-07
8.97974e-07
-5.10842e-07
-3.87073e-07
6.34672e-07
-5.44283e-07
-3.86824e-07
2.65625e-07
-5.72146e-07
5.21149e-08
-5.69711e-07
-3.20669e-07
-3.15193e-07
-1.06472e-07
-5.06327e-07
2.71991e-07
-2.6367e-07
-7.53802e-07
7.07454e-07
-8.17927e-09
-7.94058e-07
1.04076e-06
-3.67257e-07
-8.22086e-07
1.51354e-06
-7.12594e-07
-1.0351e-06
1.82135e-06
-6.87566e-07
-1.27486e-06
1.70965e-06
-5.71925e-07
-1.35884e-06
1.07291e-06
-6.10744e-07
-1.15515e-06
5.96193e-07
-7.3274e-07
3.24061e-07
-8.46632e-07
-9.8005e-08
2.30678e-07
-4.47844e-07
1.72546e-09
9.31058e-07
-7.58799e-07
-1.45792e-07
1.37023e-06
-5.15254e-07
-5.30994e-07
1.75891e-06
-4.38582e-07
-1.17653e-06
1.782e-06
-1.81013e-07
-1.72826e-06
1.20114e-06
1.29331e-07
-1.68685e-06
4.1521e-07
2.01475e-07
-1.26394e-06
5.7818e-08
1.69639e-07
-7.85295e-07
-1.00662e-10
1.58741e-07
-1.38405e-09
1.72838e-07
2.28679e-07
1.19424e-08
-1.00093e-08
9.37472e-07
4.52062e-07
-4.31526e-07
1.09448e-06
5.35175e-07
-1.17248e-07
6.21388e-07
5.55335e-07
3.0186e-07
1.04518e-07
1.31407e-07
5.11039e-07
-2.34219e-08
-1.60583e-08
3.26133e-07
-2.14641e-08
1.13167e-09
9.35883e-08
-4.45099e-11
1.1275e-09
2.80781e-09
-8.25707e-11
2.97633e-12
-7.55747e-11
-7.64913e-11
-3.05934e-11
3.55521e-07
-7.92387e-10
5.1075e-07
7.23589e-07
-1.16752e-09
3.89715e-07
5.73843e-07
-1.92972e-09
3.14169e-07
3.00124e-07
-2.45866e-08
2.1395e-07
2.12825e-08
6.54176e-09
3.55683e-08
-1.90528e-09
1.82007e-09
6.367e-09
-9.91882e-10
3.16532e-10
3.36603e-10
-5.16179e-11
1.15627e-11
9.41184e-11
-1.0662e-10
-1.28967e-11
1.34517e-11
-1.99708e-10
7.92248e-11
-5.56389e-11
-2.70314e-10
2.51373e-11
-1.0558e-10
-3.7004e-10
-7.41404e-11
-1.04222e-09
-9.02078e-12
-2.8703e-10
-1.00032e-08
-5.78482e-10
-4.35442e-09
-2.16079e-09
4.36352e-10
-3.56885e-10
-2.93208e-10
7.81469e-11
-1.6557e-11
-6.45702e-11
2.21421e-12
8.76404e-12
-7.4423e-11
-8.32096e-11
1.53175e-11
-1.06838e-10
-1.14264e-10
5.09339e-11
-2.99425e-10
3.18912e-10
-1.40426e-10
6.32685e-11
-1.25783e-10
-2.37763e-10
3.14466e-10
-3.21459e-10
-3.23421e-10
4.80228e-10
-2.97952e-10
-7.84938e-10
1.71301e-10
-3.40453e-10
-1.54747e-10
6.0023e-11
-4.9669e-11
-9.87599e-11
2.53332e-11
-1.01751e-11
-9.59682e-11
-3.03391e-11
2.09091e-11
-6.94463e-10
-1.64161e-10
1.22973e-10
-5.58369e-10
-4.74658e-10
4.68489e-10
-1.52281e-10
1.95799e-10
-1.49094e-10
6.48106e-11
-4.15257e-11
-2.47761e-10
6.20756e-10
-8.06381e-11
-2.41365e-10
2.51459e-10
-8.76142e-11
-1.2039e-10
-3.1911e-11
-3.42186e-11
-2.44542e-11
3.52292e-11
-7.20464e-12
-2.64353e-11
2.29389e-11
2.70156e-12
-2.89486e-10
-8.96022e-11
1.0358e-10
-3.05537e-09
-7.47115e-10
6.53623e-10
-3.471e-09
-1.21528e-09
7.40128e-10
-1.2798e-10
1.91399e-10
-3.55701e-11
4.37826e-11
1.98025e-12
-8.29166e-11
8.06994e-12
-5.18218e-11
-5.15784e-11
1.5338e-10
-1.14727e-10
-2.64866e-11
3.39686e-11
-4.2268e-12
-6.6035e-12
2.22083e-11
1.25782e-12
7.39954e-11
2.4595e-11
1.86788e-11
-6.79874e-10
-6.20854e-11
2.29252e-10
-3.93238e-09
-9.62965e-10
7.18157e-10
-7.59263e-09
-1.91917e-09
7.37401e-10
-1.66536e-09
-5.29376e-11
-1.02761e-11
4.40721e-11
9.8648e-12
-2.32444e-11
1.15163e-10
-1.0547e-10
-7.88074e-12
1.50197e-10
-7.34588e-11
-6.58494e-12
3.76169e-11
1.0206e-11
-3.93884e-12
2.25658e-11
5.27023e-12
7.16783e-11
3.09916e-11
4.4239e-11
-1.43149e-10
-2.27432e-11
3.39014e-10
-2.82293e-09
-4.0636e-10
8.66941e-10
-8.1672e-09
-1.08132e-09
3.25483e-10
-1.60761e-09
-6.01504e-10
-5.87471e-12
4.35748e-11
6.24679e-12
-7.14268e-12
9.88432e-11
-2.82408e-12
-2.08506e-12
8.61581e-11
5.49024e-12
-4.13911e-12
2.08359e-11
1.85728e-11
1.15528e-11
2.12343e-11
8.14755e-12
-6.05572e-11
5.08993e-11
7.81946e-11
-6.04143e-11
4.15348e-11
7.06167e-10
-1.80228e-09
5.09972e-11
4.99981e-10
-1.05001e-08
1.09573e-10
-2.45346e-12
-7.87388e-11
-1.12567e-09
-7.43592e-12
1.76073e-10
1.96764e-12
-3.10847e-13
6.72501e-11
1.22407e-11
2.36976e-13
2.86217e-11
5.91787e-11
-9.37078e-13
1.47651e-11
6.10262e-12
2.71064e-11
2.25324e-11
8.2139e-12
-1.21114e-09
1.80403e-10
2.92602e-10
-2.46523e-09
2.94241e-10
7.92263e-10
-3.60893e-09
3.40189e-10
5.08792e-10
-2.18298e-09
1.31945e-10
-6.95632e-11
1.01056e-11
-1.09057e-09
-1.19978e-11
2.196e-10
-1.3651e-11
-2.41184e-13
6.09732e-11
7.80002e-13
1.53222e-12
2.0426e-11
3.67402e-12
1.12107e-13
1.20276e-11
3.01537e-12
-2.6451e-11
3.6738e-11
1.12153e-11
-1.78304e-09
2.21869e-10
3.16257e-10
-2.93511e-09
5.39556e-10
1.02353e-09
-3.79181e-09
5.53869e-10
4.04856e-10
-2.05348e-09
3.38656e-10
-7.72215e-11
-6.38608e-13
-4.64417e-10
-1.20705e-12
-1.92874e-11
2.57973e-10
2.45903e-12
-1.02627e-12
6.70795e-11
1.54702e-12
1.8455e-12
1.59917e-11
-5.479e-12
3.68606e-12
1.30461e-11
-1.99144e-11
7.90546e-11
2.44693e-10
-5.30199e-10
1.47529e-10
1.85895e-10
-1.78739e-09
3.14742e-10
1.49595e-10
-1.71818e-09
1.23427e-10
7.58988e-11
-5.79123e-10
-4.97862e-11
-1.85582e-12
-2.32372e-10
2.64126e-11
-1.24632e-07
1.74238e-07
-1.51752e-07
-1.24809e-07
1.88761e-08
-1.66153e-07
-4.95231e-08
-4.16608e-08
-1.9835e-07
-2.9945e-08
2.56744e-08
-1.78621e-07
-4.48689e-08
6.15393e-08
-1.56854e-07
-7.0195e-08
7.18837e-08
-1.51548e-07
-9.15263e-08
6.82036e-08
-1.56314e-07
-1.02328e-07
5.83424e-08
-1.67092e-07
-1.00631e-07
4.52982e-08
-1.76432e-07
2.07353e-08
-1.88938e-07
-1.57119e-07
4.29928e-07
-2.63361e-07
-7.19598e-08
-1.11861e-07
-1.57515e-07
1.23656e-08
-1.61293e-07
-2.07385e-07
-2.21113e-08
1.03038e-07
-2.64229e-07
-8.14947e-08
1.92881e-07
-2.43826e-07
-1.26955e-07
1.87979e-07
-2.17721e-07
-1.47047e-07
1.55411e-07
-2.09692e-07
-1.4662e-07
1.23851e-07
-2.09811e-07
-1.24917e-07
8.81014e-08
-2.06206e-07
2.81109e-08
-2.0157e-07
5.78098e-08
5.03514e-07
-2.43928e-07
2.6998e-07
-4.77679e-07
1.23006e-07
2.93239e-07
-3.91437e-07
6.90935e-08
1.51706e-07
2.15882e-07
-1.94708e-07
9.76862e-09
4.04094e-07
-2.86449e-07
-6.90103e-08
3.59522e-07
-2.66782e-07
-1.04722e-07
2.79706e-07
-2.36808e-07
-1.2487e-07
2.35214e-07
-2.18196e-07
-1.29943e-07
1.92253e-07
-1.84711e-07
5.7514e-08
-1.32519e-07
3.39383e-07
3.2195e-07
-1.9424e-07
4.61054e-07
-7.38971e-07
4.01953e-07
2.60895e-07
-3.84137e-07
3.27086e-07
9.18008e-08
3.51114e-07
-4.81307e-08
-1.9028e-08
6.04752e-07
-2.75791e-07
-9.4004e-08
5.65572e-07
-3.01899e-07
-1.72367e-07
4.86139e-07
-2.44787e-07
-2.55964e-07
4.52521e-07
-1.72081e-07
-2.63076e-07
3.48557e-07
-7.11902e-08
3.39054e-09
4.95175e-08
4.31115e-07
5.31376e-08
-5.42341e-08
2.7192e-07
-6.50637e-07
5.74116e-07
-1.40874e-07
-1.16026e-08
4.14253e-07
-2.92398e-07
5.65551e-07
6.59388e-08
-3.16411e-07
7.81168e-07
-1.91956e-07
-3.29858e-07
7.31646e-07
-2.09876e-07
-3.42703e-07
6.20598e-07
-1.32928e-07
-2.95772e-07
5.30521e-07
-6.21284e-08
-1.69852e-07
3.45089e-07
-1.20991e-08
-7.66935e-08
2.41048e-08
1.34667e-07
1.64241e-07
1.52736e-07
-2.561e-07
-1.65935e-07
5.02382e-07
-5.52524e-07
3.59449e-07
4.53509e-07
-6.3869e-07
8.04596e-07
1.78898e-07
-5.78926e-07
8.99999e-07
-6.07318e-08
-4.41824e-07
7.74754e-07
-1.60063e-07
-2.3696e-07
6.3802e-07
-2.43492e-07
9.08083e-10
5.10074e-07
-3.12722e-07
1.40668e-07
3.48315e-07
-3.31349e-07
1.37874e-07
-3.25278e-07
-2.74798e-09
5.6836e-07
2.55762e-08
-4.37748e-07
5.78444e-07
2.41006e-08
-6.34666e-07
8.33355e-07
3.03387e-07
-6.27469e-07
1.12228e-06
-2.41972e-08
-5.2202e-07
1.2226e-06
-5.67063e-07
-4.03737e-07
1.23407e-06
-9.92862e-07
-2.81103e-07
1.15538e-06
-1.15083e-06
-1.50517e-07
9.48642e-07
-1.11344e-06
-8.53724e-08
7.16004e-07
-1.00498e-06
5.58851e-07
-9.4747e-07
2.97307e-08
1.16415e-06
-7.32072e-07
-4.57425e-07
1.41144e-06
-6.09507e-07
-7.50049e-07
1.6257e-06
-5.079e-07
-8.89835e-07
1.97394e-06
-1.07913e-06
-9.80023e-07
2.15588e-06
-1.55569e-06
-1.09879e-06
2.16054e-06
-1.49527e-06
-1.12643e-06
1.58906e-06
-1.38789e-06
-9.54984e-07
1.1395e-06
-1.36327e-06
-6.80649e-07
8.41639e-07
-1.48158e-06
6.97796e-07
-1.57963e-06
2.75274e-08
1.54679e-06
-8.58064e-07
-3.66137e-07
2.00435e-06
-9.58106e-07
-4.70783e-07
1.96986e-06
-1.12766e-06
-5.82184e-07
1.86793e-06
-1.05557e-06
-7.70738e-07
1.28448e-06
-4.59258e-07
-8.66617e-07
5.32925e-07
3.2063e-08
-6.79995e-07
6.52728e-08
1.55736e-07
-4.39306e-07
5.53223e-09
1.79138e-07
-2.8514e-07
1.7679e-10
1.91377e-07
-8.97106e-10
1.94747e-07
2.79078e-07
1.60978e-07
4.91241e-07
2.08349e-07
3.21437e-07
2.24449e-07
2.69187e-07
1.72323e-07
1.258e-07
1.93447e-07
5.78164e-08
2.91426e-07
8.79395e-08
-1.35126e-08
3.73708e-07
1.07542e-08
-1.2042e-08
1.26883e-07
-5.45296e-09
5.17476e-09
1.79742e-08
-5.38817e-10
5.92883e-10
2.66853e-09
-1.44759e-10
-4.97867e-12
-6.11098e-12
-1.45275e-10
-1.6812e-11
2.72743e-07
-5.52147e-10
3.90077e-07
3.63832e-07
-5.36642e-09
2.96528e-07
1.76086e-07
-1.15615e-08
5.28573e-08
2.99327e-08
4.66111e-09
5.05998e-09
-1.08021e-09
-5.46338e-10
5.1046e-09
-4.33597e-09
-2.34033e-11
1.0398e-09
-6.15431e-10
2.1178e-10
1.31015e-09
-1.71781e-10
-5.99586e-12
1.51479e-10
-1.2391e-10
-2.48093e-11
8.80536e-11
-4.6651e-10
2.33175e-10
-7.94882e-11
-2.3558e-10
-2.34972e-11
-5.45427e-10
-4.84035e-10
-3.9991e-09
-3.31643e-09
-1.58788e-10
-3.3259e-09
-8.20582e-10
3.85779e-13
-8.04354e-10
-5.7878e-10
-5.34215e-11
-8.06538e-10
-1.9093e-10
3.84307e-11
-1.84402e-10
-3.18322e-11
2.31252e-12
1.70649e-11
-1.01649e-10
-2.68911e-11
3.61426e-11
-6.18852e-10
-4.76989e-11
3.30523e-10
-4.45169e-10
7.73966e-10
-4.04727e-11
5.69945e-12
-1.37449e-10
-7.27219e-11
5.87752e-11
-4.61206e-10
-2.40153e-10
1.11819e-10
-2.87992e-10
-8.96911e-11
-3.37598e-11
-1.66865e-10
-4.11757e-11
3.23968e-11
-8.43598e-11
-1.90337e-11
2.25367e-11
-2.26563e-11
-2.05838e-11
1.65414e-11
1.98863e-11
-7.45574e-10
-5.10212e-11
1.76255e-10
-1.18747e-09
-3.94742e-10
6.80255e-10
-8.37432e-11
3.18252e-10
-6.64019e-13
2.34944e-11
-5.99581e-11
-1.74e-11
6.26621e-11
-9.8956e-11
-4.88798e-11
2.15984e-10
-7.82067e-11
-2.03711e-11
6.72697e-11
-6.88843e-11
-5.56073e-12
3.12677e-11
-1.17652e-11
-1.44743e-11
2.1424e-11
3.72153e-12
-4.53428e-10
1.14799e-11
1.63883e-10
-1.98834e-09
-9.74358e-11
5.13094e-10
-5.27749e-10
-8.53277e-11
1.68242e-11
1.21485e-11
3.27223e-11
9.17243e-12
3.27391e-11
-1.09133e-11
-8.74582e-11
4.29907e-10
-5.66039e-11
-1.24123e-10
1.49718e-09
-2.29045e-10
-1.79045e-11
2.87815e-10
-4.2698e-11
-8.13085e-12
2.29733e-11
4.92447e-13
2.03658e-11
2.19316e-11
1.25044e-11
-1.12093e-09
4.50628e-11
4.76267e-10
-2.51695e-09
1.31547e-10
3.76738e-10
-7.1762e-10
1.148e-10
9.53326e-11
1.45037e-10
-8.27325e-11
1.02943e-11
3.11987e-11
9.86202e-13
-4.6566e-11
1.57143e-09
-1.3023e-10
-1.91817e-10
1.85679e-09
-7.79073e-11
-2.12219e-11
1.09721e-09
1.19246e-11
-1.28055e-11
1.88741e-11
4.40628e-12
2.74539e-11
6.03463e-11
3.28715e-11
-1.11342e-09
2.36594e-10
7.86005e-10
-1.20572e-09
3.03435e-10
4.11209e-10
-6.28395e-10
1.82283e-10
-3.18886e-13
6.28108e-10
-1.56063e-10
4.21e-12
3.17045e-11
1.40584e-12
5.17303e-11
1.76066e-09
-2.74327e-11
-1.38464e-11
2.12687e-09
1.08891e-11
1.56173e-12
8.35682e-10
1.06462e-10
1.07406e-12
2.31476e-11
9.53612e-12
-3.81154e-10
1.75612e-10
2.79411e-10
-1.32661e-09
5.0557e-10
7.13602e-10
-4.36904e-10
1.13103e-10
1.29684e-10
-1.35087e-09
2.81543e-10
-1.29203e-12
1.8164e-09
-5.31997e-10
-4.08266e-12
1.52913e-10
-6.28248e-12
2.21063e-10
9.9892e-11
-1.45618e-11
1.83274e-10
7.67925e-10
6.84892e-11
6.11052e-12
1.4694e-10
1.40561e-10
-4.3938e-12
3.94209e-11
2.99776e-11
-6.58356e-10
2.33508e-10
5.28458e-10
-1.01525e-09
4.52273e-10
2.60532e-10
-2.4237e-10
1.92905e-10
9.1096e-12
-6.40056e-10
1.43866e-10
-1.12471e-11
1.19926e-09
-1.96811e-10
-8.23942e-12
2.38218e-10
-3.63114e-11
1.38298e-11
1.68602e-11
-2.24986e-12
5.07674e-11
4.01792e-11
2.73386e-11
5.61e-12
3.40128e-11
4.27283e-11
-1.066e-10
6.3212e-11
7.42279e-11
-6.12743e-10
2.16459e-10
3.98735e-10
-6.42581e-10
1.39451e-10
6.93601e-11
-7.02394e-11
1.77572e-10
5.12727e-12
-2.18172e-10
1.31029e-10
-7.06236e-12
6.98728e-10
-3.84603e-11
-1.36717e-12
-1.40733e-11
2.52249e-10
1.7118e-12
-1.98342e-12
1.33891e-11
5.4396e-12
1.36982e-11
2.2128e-11
-3.23489e-11
2.7397e-11
4.65671e-11
-1.78053e-10
2.82286e-10
2.77272e-10
-1.91391e-10
2.63588e-11
2.55752e-10
-1.53323e-10
2.03444e-11
5.99979e-11
-7.52366e-12
-3.79864e-12
1.07444e-10
-4.71877e-10
-5.57842e-12
3.82815e-10
-1.43375e-11
2.00929e-10
-1.43526e-07
1.51604e-07
-1.5983e-07
-1.55321e-07
-6.60872e-08
-8.82705e-08
-6.36816e-08
-1.82379e-07
-1.0761e-07
-5.04255e-08
-5.01266e-08
-1.4175e-07
-7.33915e-08
2.44493e-08
-1.58338e-07
-1.02089e-07
4.64065e-08
-1.69257e-07
-1.20629e-07
4.0171e-08
-1.77945e-07
-1.26103e-07
2.37373e-08
-1.85354e-07
-1.18931e-07
2.23718e-09
-1.85842e-07
-3.64196e-08
-1.86366e-07
-2.08619e-07
3.82303e-07
-2.85441e-07
-1.23723e-07
-2.57955e-07
-5.05423e-08
2.76126e-08
-4.99676e-07
-4.1424e-08
-1.203e-08
-1.09399e-07
-1.65313e-07
-9.58667e-08
9.25766e-08
-2.28116e-07
-1.50857e-07
1.25191e-07
-2.41514e-07
-1.71593e-07
9.42381e-08
-2.43023e-07
-1.63046e-07
4.76039e-08
-2.42225e-07
-1.32553e-07
-4.88895e-09
-2.29573e-07
-7.2998e-08
-2.1707e-07
-9.90729e-08
5.57837e-07
-3.20389e-07
1.76895e-07
-5.60386e-07
1.49469e-07
3.55373e-07
-8.177e-07
2.0864e-07
2.42078e-07
-1.4651e-07
-4.43032e-08
4.33306e-08
2.30829e-07
-2.25953e-07
-7.85102e-08
2.59146e-07
-2.78897e-07
-1.26246e-07
1.87683e-07
-2.82517e-07
-1.34722e-07
1.20597e-07
-2.82713e-07
-1.27861e-07
7.4383e-08
-2.70844e-07
-7.8163e-09
-2.48437e-07
1.04635e-07
6.24008e-07
-3.65046e-07
3.59891e-07
-6.34136e-07
2.20446e-07
4.00145e-07
-8.08208e-07
2.7734e-07
2.86888e-07
-4.70447e-08
-3.43393e-08
9.57033e-08
4.00124e-07
-2.53901e-07
-5.03941e-08
4.43639e-07
-3.40295e-07
-1.41002e-07
3.70175e-07
-3.36671e-07
-1.97466e-07
3.15872e-07
-3.10892e-07
-2.04749e-07
2.84355e-07
-2.73879e-07
1.70495e-07
-2.38964e-07
2.50912e-07
7.77194e-07
-4.58333e-07
2.9576e-07
-1.66305e-07
6.1768e-08
9.34053e-08
-2.99608e-07
1.08247e-07
2.22483e-09
2.74689e-07
-1.64612e-07
-9.08036e-08
6.04555e-07
-3.03358e-07
-1.42519e-07
6.07722e-07
-3.22243e-07
-1.81368e-07
5.66466e-07
-2.9037e-07
-2.39266e-07
6.12211e-07
-3.00569e-07
-2.64011e-07
6.33644e-07
-3.36643e-07
4.26487e-07
-3.55114e-07
2.70594e-07
1.1104e-06
-4.51061e-07
1.31565e-07
5.38851e-07
-6.26798e-08
-1.68792e-07
4.65413e-07
-1.14967e-08
-2.74438e-07
7.72709e-07
-2.13477e-07
-2.5642e-07
8.67126e-07
-3.41321e-07
-2.07721e-07
8.51246e-07
-4.52287e-07
-1.94554e-07
8.82865e-07
-5.73059e-07
-1.85247e-07
9.35813e-07
-6.45631e-07
-1.56329e-07
9.39633e-07
-6.66256e-07
7.59348e-07
-7.03075e-07
2.79486e-07
1.36454e-06
-5.08049e-07
-1.10615e-07
1.19941e-06
-2.45903e-07
-4.04887e-07
1.2596e-06
-1.96273e-07
-4.42353e-07
1.34561e-06
-5.59633e-07
-4.56376e-07
1.39205e-06
-1.07797e-06
-5.59701e-07
1.4976e-06
-1.53589e-06
-6.31968e-07
1.51889e-06
-1.71459e-06
-5.41985e-07
1.37654e-06
-1.64415e-06
-3.39739e-07
1.21063e-06
-1.47822e-06
1.04859e-06
-1.4049e-06
-1.3392e-08
1.74863e-06
-1.10277e-06
-5.16699e-07
1.85735e-06
-7.64257e-07
-8.99859e-07
2.11704e-06
-9.82207e-07
-1.22411e-06
2.32044e-06
-1.72971e-06
-1.50134e-06
1.98373e-06
-2.23238e-06
-1.60356e-06
1.56008e-06
-2.07629e-06
-1.49765e-06
1.08457e-06
-1.72641e-06
-1.1898e-06
6.68463e-07
-1.55754e-06
-7.97954e-07
4.5455e-07
-1.56499e-06
3.78639e-07
-1.62162e-06
-4.91731e-07
1.61649e-06
-7.51521e-07
-7.6915e-07
1.44139e-06
-8.6777e-07
-7.24919e-07
1.22785e-06
-1.23184e-06
-7.29965e-07
8.40584e-07
-1.08234e-06
-6.30553e-07
2.8113e-07
-4.63048e-07
-4.37096e-07
-2.13433e-08
4.47072e-09
-2.65686e-07
-7.35563e-09
1.08286e-07
-1.55683e-07
-2.53032e-09
1.30868e-07
-1.13994e-07
-8.01397e-10
1.1357e-07
-2.19801e-09
8.20398e-08
-1.35378e-08
6.82306e-08
5.7725e-07
3.94355e-09
7.70708e-09
2.7814e-07
5.10983e-08
-3.75205e-09
1.19526e-07
4.41794e-08
-8.37398e-09
7.65447e-08
2.20516e-08
-1.20387e-08
6.19326e-08
-8.53901e-09
4.16131e-09
2.382e-08
-2.05392e-10
-6.65796e-10
2.80304e-09
-1.25418e-10
-5.57755e-11
7.83417e-11
-2.95867e-10
-7.51271e-11
-5.45394e-10
-1.87771e-10
-2.12116e-09
5.73368e-08
-3.43811e-09
7.47927e-08
2.08824e-08
3.73621e-09
1.87124e-08
2.00637e-09
2.36121e-09
2.41497e-09
4.59044e-10
-8.50582e-11
-2.52658e-09
-2.31558e-09
2.99117e-10
7.30293e-10
-7.21345e-10
1.74522e-10
1.83024e-09
-1.08887e-10
-6.92957e-11
7.18505e-11
-1.21977e-10
-7.84712e-12
4.67802e-11
-8.58791e-11
-2.72189e-11
5.96716e-11
-5.00408e-10
1.32949e-10
-2.80935e-09
-1.85128e-11
-6.08406e-10
-1.99024e-09
2.81785e-10
-7.08755e-10
-4.33e-10
7.47082e-11
-2.54701e-09
-1.18321e-10
2.35471e-10
-1.06562e-09
8.83709e-11
6.63221e-11
-3.17097e-10
4.68696e-11
4.22731e-11
-3.20476e-11
-2.50518e-12
1.25024e-12
7.29742e-12
-1.00752e-10
1.27139e-11
5.23286e-11
-8.72373e-10
-5.09486e-11
4.75345e-10
-3.92585e-10
9.97307e-10
-4.39065e-11
8.76695e-12
-1.32383e-10
-5.87226e-11
5.94936e-11
-1.48695e-10
-2.56176e-11
7.55424e-12
-1.55471e-10
-7.57781e-12
3.7182e-11
-8.48688e-11
9.64951e-12
-1.57719e-11
-1.74204e-11
7.16841e-12
8.99471e-12
3.4311e-12
2.29236e-12
1.46134e-11
6.16932e-12
-1.17189e-10
1.02209e-10
3.3504e-11
-6.26035e-10
2.17114e-10
2.76907e-10
4.40559e-11
5.29635e-10
1.03144e-11
5.33377e-12
-4.91985e-11
7.66971e-12
2.76934e-11
-4.12308e-11
7.42117e-12
8.98006e-11
-6.49146e-11
3.35413e-12
4.61324e-11
-4.46392e-11
2.86921e-13
5.10989e-12
-1.69453e-12
-2.40481e-14
5.48241e-12
5.35302e-12
-9.62603e-12
7.64886e-11
2.11021e-11
-3.63809e-10
4.53922e-10
1.01183e-11
-9.4957e-10
3.91234e-10
5.72575e-11
2.22272e-10
1.20512e-11
1.81308e-11
5.71226e-12
-1.21934e-11
4.09849e-11
9.95964e-11
-2.62229e-11
5.34164e-11
1.52344e-10
-4.04459e-10
4.57213e-13
7.17804e-11
-2.79083e-11
7.15644e-13
7.75e-12
-1.5824e-13
-2.52489e-13
1.04555e-11
8.01664e-12
-1.61298e-10
2.6705e-10
7.79352e-11
-4.83373e-10
7.17003e-10
4.56426e-11
-3.95632e-10
2.33278e-10
1.93615e-10
1.47219e-10
-6.79169e-11
6.84578e-12
1.26708e-11
-2.32221e-12
7.29529e-11
1.56825e-10
-1.74084e-10
8.98775e-11
1.01752e-10
-1.06983e-10
6.75931e-12
6.87241e-11
-1.29548e-11
2.08552e-12
1.70157e-11
2.85462e-12
-2.20613e-11
4.87e-11
2.03359e-11
-3.96874e-10
5.31154e-10
5.16621e-10
-4.16969e-10
6.52372e-10
6.47972e-11
-1.77926e-10
9.95606e-11
2.15228e-11
2.88223e-10
-5.90237e-11
-1.02109e-11
2.81426e-11
-2.79069e-12
5.84069e-11
5.38812e-11
-6.47812e-11
3.88101e-11
2.87916e-11
-6.20838e-12
2.05531e-11
5.7828e-11
3.58026e-12
3.26603e-12
2.32085e-11
1.13788e-11
-1.64869e-10
3.05154e-10
3.40648e-10
-5.25128e-10
4.04113e-10
4.92051e-10
-1.28421e-10
1.104e-10
1.53492e-10
-6.07433e-11
3.25017e-11
-2.14484e-13
1.86115e-10
-6.53503e-11
-1.87978e-12
5.94742e-11
-4.20327e-12
5.25554e-12
5.96015e-12
-5.08407e-12
1.3449e-11
1.25939e-11
-3.53218e-12
1.03884e-11
3.48961e-11
-2.59838e-12
-5.93181e-11
6.8286e-11
7.37915e-11
-2.41588e-10
1.57036e-10
6.15689e-10
-1.04065e-10
7.9214e-11
2.44832e-10
-1.84476e-11
2.34249e-11
1.19808e-11
-1.45157e-11
2.07744e-11
-3.5913e-12
4.81968e-11
-1.78909e-11
-1.78212e-12
2.79466e-11
-6.79119e-12
1.31486e-13
5.97293e-12
-6.14044e-12
9.8655e-14
1.06812e-11
5.32233e-13
-6.29906e-12
4.3092e-11
6.8638e-11
-1.32204e-10
3.21626e-10
4.49759e-10
-1.22826e-10
1.00238e-10
4.24518e-10
-1.78137e-11
2.69058e-11
1.89726e-11
-4.80075e-12
1.49499e-11
1.47717e-13
-3.03033e-12
1.57109e-11
-4.25055e-12
2.03043e-11
-1.25789e-11
-1.27899e-12
-4.61133e-12
1.51973e-11
-1.79473e-12
-4.9627e-12
7.16434e-12
-6.08963e-12
1.36011e-11
1.30998e-11
-1.15633e-10
1.97258e-10
1.11443e-10
-2.19301e-10
2.77981e-10
3.05871e-10
-3.85167e-11
7.13442e-11
3.43332e-11
-5.25038e-12
2.60116e-12
1.09442e-11
-7.59045e-14
-4.5801e-12
1.00211e-11
2.51227e-12
-6.32837e-12
1.33412e-11
-1.34344e-11
1.61454e-11
-1.12068e-07
1.30673e-07
-1.78436e-07
-1.38646e-07
7.5507e-09
-6.92423e-08
-9.60531e-08
-5.63446e-08
-9.38584e-08
-9.14771e-08
-8.69822e-09
-1.37628e-07
-1.1178e-07
3.01584e-08
-1.68193e-07
-1.35358e-07
4.05288e-08
-1.86208e-07
-1.47668e-07
3.17374e-08
-1.97372e-07
-1.44139e-07
1.42756e-08
-2.03159e-07
-1.28267e-07
-9.02424e-09
-1.92691e-07
-3.58537e-08
-1.85608e-07
-1.8711e-07
3.32558e-07
-3.00216e-07
-2.06341e-07
5.29725e-08
-7.67334e-08
-1.09256e-07
-1.22677e-07
-7.21771e-08
-1.14711e-07
4.04843e-09
-1.72605e-07
-1.57981e-07
8.26293e-08
-2.37317e-07
-1.91498e-07
9.30279e-08
-2.60495e-07
-1.98566e-07
6.03494e-08
-2.64568e-07
-1.72821e-07
6.61094e-09
-2.60306e-07
-1.3192e-07
-4.4809e-08
-2.34688e-07
-9.25845e-08
-2.07667e-07
-1.83734e-07
5.35378e-07
-3.39474e-07
-1.09428e-07
8.97349e-08
3.84003e-08
4.72441e-08
-1.83137e-07
1.12428e-07
1.92702e-08
5.70594e-08
-6.93402e-08
-7.65635e-08
1.78848e-07
-2.26338e-07
-1.53481e-07
1.80604e-07
-2.89555e-07
-1.88381e-07
1.22751e-07
-3.10018e-07
-1.84944e-07
4.30848e-08
-3.22624e-07
-1.52613e-07
-2.27492e-08
-3.25234e-07
-7.33562e-08
-3.32546e-07
-6.83282e-08
6.82121e-07
-4.43461e-07
7.52645e-08
1.8677e-07
-2.0181e-08
1.83517e-07
-1.16519e-07
1.0247e-07
1.27291e-07
1.5661e-07
-7.76635e-08
-2.97074e-09
3.12458e-07
-2.5725e-07
-1.2438e-07
3.17539e-07
-3.55821e-07
-2.07112e-07
2.52435e-07
-3.83623e-07
-2.46819e-07
1.63025e-07
-3.91125e-07
-2.30985e-07
1.16533e-07
-4.28995e-07
7.93629e-08
-5.17743e-07
8.65938e-08
8.53399e-07
-7.16205e-07
1.67437e-07
4.83739e-07
-3.16045e-07
1.33587e-07
2.14839e-07
-1.8926e-07
4.91982e-08
3.84189e-07
-3.07803e-07
-1.90641e-08
4.59476e-07
-3.82114e-07
-7.75936e-08
4.68546e-07
-4.14721e-07
-1.78777e-07
5.13504e-07
-4.50255e-07
-3.14443e-07
5.0506e-07
-5.0694e-07
-3.55826e-07
4.38541e-07
-6.1727e-07
3.19045e-07
-7.83377e-07
1.35594e-07
1.08919e-06
-8.22444e-07
7.66619e-08
8.89254e-07
-4.09262e-07
-7.82381e-08
7.30475e-07
-3.72233e-07
-1.33819e-07
7.55857e-07
-5.29563e-07
-1.17288e-07
7.45399e-07
-6.43775e-07
-1.41972e-07
8.26356e-07
-7.85412e-07
-2.29079e-07
9.19117e-07
-8.91565e-07
-3.27011e-07
8.98504e-07
-9.41143e-07
-3.31878e-07
7.87192e-07
-1.01004e-06
6.1343e-07
-1.19376e-06
1.4445e-08
1.38648e-06
-8.19787e-07
-3.2438e-07
1.38429e-06
-4.02115e-07
-5.18465e-07
1.29507e-06
-5.66788e-07
-5.95566e-07
1.28328e-06
-1.00995e-06
-7.01864e-07
1.32527e-06
-1.55154e-06
-8.71997e-07
1.43886e-06
-1.97826e-06
-9.61558e-07
1.43849e-06
-2.1444e-06
-8.66453e-07
1.23303e-06
-2.07378e-06
-5.8238e-07
9.31869e-07
-1.90701e-06
5.62317e-07
-1.82481e-06
-5.12375e-07
1.97859e-06
-1.18251e-06
-9.7918e-07
2.02447e-06
-9.37633e-07
-1.30833e-06
2.02571e-06
-1.38369e-06
-1.676e-06
1.83905e-06
-2.11472e-06
-1.90952e-06
1.32543e-06
-2.44869e-06
-1.77661e-06
7.83075e-07
-2.04487e-06
-1.48218e-06
4.10491e-07
-1.57162e-06
-1.1197e-06
1.53997e-07
-1.40838e-06
-7.46398e-07
2.22177e-08
-1.35249e-06
-2.78281e-09
-1.33869e-06
-8.57958e-07
1.25961e-06
-3.96592e-07
-9.78922e-07
7.015e-07
-6.0251e-07
-7.26337e-07
2.68886e-07
-9.03344e-07
-5.16791e-07
-6.29839e-09
-6.85626e-07
-3.04672e-07
-5.80008e-08
-2.37462e-07
-1.31185e-07
-2.57676e-08
2.40905e-08
-7.22846e-08
-2.68831e-09
6.79135e-08
-4.93776e-08
1.81807e-09
2.8272e-08
-2.737e-08
4.48591e-09
2.12389e-08
6.05593e-09
2.68219e-09
-4.7338e-08
-2.25654e-08
3.65147e-07
-6.99438e-09
-2.3923e-08
1.15876e-07
-2.03169e-09
4.65852e-09
2.40778e-09
2.03847e-08
8.82331e-09
1.54138e-09
3.10672e-09
4.65708e-10
1.26717e-08
-2.18182e-09
-2.71184e-09
4.33839e-09
-7.56429e-09
-1.99026e-10
1.75344e-09
-9.45573e-09
5.8775e-11
3.6242e-09
-7.69059e-09
6.90316e-10
1.40213e-09
6.19676e-10
4.93333e-10
-1.16113e-09
-9.66867e-11
2.38023e-08
-6.91678e-09
-5.00133e-10
3.71812e-09
-2.76725e-09
2.97526e-09
-2.0202e-09
8.59687e-10
1.32705e-09
-6.40324e-10
8.97236e-10
3.40151e-10
-8.59185e-11
-4.13427e-11
-4.22252e-11
9.55231e-11
-2.39224e-10
-4.3676e-12
7.1761e-11
-4.89748e-10
-2.43328e-11
4.0178e-10
-3.54552e-10
3.30612e-12
5.55081e-10
-4.5633e-11
3.53521e-10
-3.63161e-10
2.68869e-11
-8.0362e-11
-5.4895e-10
-1.8656e-11
-8.98208e-10
-5.33937e-11
1.73947e-10
-4.3442e-10
1.71674e-10
2.30705e-11
-1.06932e-10
1.41291e-10
9.44177e-12
-2.16103e-11
2.70574e-11
8.96896e-12
7.44483e-12
6.62108e-13
1.31562e-11
1.32227e-11
-5.39937e-12
9.70737e-12
6.97103e-11
-7.10891e-10
7.52501e-11
3.18769e-10
-8.75852e-12
8.51484e-10
-7.05202e-12
1.47324e-11
-8.24033e-11
3.09535e-12
6.08429e-12
-1.73063e-10
3.82773e-11
-1.88475e-11
-1.1653e-10
1.92525e-11
4.21842e-13
-6.09125e-11
1.47419e-11
9.97473e-13
-2.22885e-12
9.61619e-12
8.84331e-12
6.4912e-12
6.96327e-12
9.54584e-12
9.8792e-12
-1.36973e-11
3.53188e-11
3.87178e-11
-3.77286e-10
1.89613e-10
4.91139e-11
1.57887e-10
1.88997e-10
7.79026e-12
1.76893e-12
-2.70767e-11
2.35696e-11
-2.69519e-12
-2.58748e-11
4.89932e-11
-1.18641e-10
-1.65957e-10
3.04196e-12
5.36601e-12
-8.56527e-11
1.54538e-12
4.2085e-12
-1.12562e-12
1.88118e-12
7.2286e-12
6.14973e-12
4.32557e-12
1.6782e-11
1.05555e-11
-1.98069e-11
5.3585e-11
1.0763e-11
-9.91498e-11
1.09586e-10
2.36417e-11
1.38921e-10
1.57126e-11
1.00687e-12
-3.27779e-12
-1.86707e-11
2.98812e-11
-4.23886e-11
-9.34658e-11
3.8889e-11
-4.12087e-11
-2.83043e-10
-7.63041e-13
7.0628e-12
-4.02939e-11
-1.35282e-12
7.78694e-12
-1.13857e-12
-6.56734e-14
1.01583e-11
4.89573e-12
3.85139e-12
6.79852e-11
2.23293e-11
-1.90576e-11
9.44567e-11
2.53838e-11
1.6804e-11
9.41741e-11
1.73232e-11
2.06202e-10
-2.68887e-11
-9.54952e-12
-2.35035e-13
-1.64466e-11
4.32443e-13
-2.00918e-11
-1.71212e-10
-9.56837e-13
4.94152e-12
-3.39332e-11
-2.42962e-12
5.56384e-12
-5.16158e-12
-2.01956e-12
1.2006e-11
1.02134e-12
-8.23421e-12
3.06996e-11
8.97487e-12
-5.04288e-12
4.55869e-10
5.3418e-11
-2.1841e-11
1.6663e-10
1.88285e-11
1.47473e-11
3.30383e-11
8.68253e-13
8.58269e-11
-4.66474e-11
-1.35129e-11
9.53332e-12
-7.06022e-12
-1.09476e-12
5.09754e-13
-4.84229e-12
-1.54111e-12
1.91715e-12
-3.39073e-12
-2.62997e-12
9.64926e-12
4.44294e-13
-3.19958e-11
4.63713e-11
7.7127e-12
-6.30286e-11
3.3359e-10
2.28111e-10
-8.22227e-11
5.3149e-10
1.55086e-10
-2.8958e-11
1.94138e-10
9.58058e-12
-3.02745e-11
2.74529e-11
1.8473e-12
3.4215e-11
-2.15067e-11
-2.29325e-12
5.50429e-12
-2.28222e-12
-2.88954e-12
1.13462e-12
-5.19483e-12
-5.77825e-12
3.99637e-12
-2.47011e-12
-9.14012e-12
7.13159e-11
1.26518e-11
-1.27255e-10
2.73319e-10
2.82083e-10
-1.6434e-10
2.94068e-10
4.58994e-10
-8.75212e-11
1.54507e-10
3.24958e-10
-8.37947e-12
3.96771e-11
2.89779e-11
-5.43534e-12
2.10916e-11
-1.51816e-12
1.84244e-11
-1.00497e-11
-3.55812e-12
5.21045e-12
-2.35418e-12
-1.30939e-12
5.64543e-12
-1.00087e-11
-1.06795e-11
2.03082e-11
-1.58701e-12
-1.78073e-10
2.04554e-10
1.6974e-10
-2.57644e-10
2.43058e-10
4.17198e-10
-1.14237e-10
1.67262e-10
2.85908e-10
-9.32198e-12
2.47903e-11
4.03141e-11
-2.26607e-13
2.15805e-11
-3.64209e-13
2.79477e-12
1.86665e-11
-5.63373e-12
1.92534e-11
-2.23208e-11
-6.60329e-12
-4.94846e-13
7.33854e-12
-8.5066e-12
-1.63048e-11
2.423e-11
-6.99814e-11
3.85931e-11
1.18847e-10
-1.79546e-10
3.20924e-10
1.21491e-10
-1.44686e-10
3.44039e-10
9.26263e-11
-1.26147e-11
3.52959e-11
3.50181e-11
1.37087e-12
-4.25335e-12
1.64262e-11
4.40017e-12
-6.57304e-12
2.00253e-11
7.83583e-12
-1.09157e-11
1.93259e-11
-2.43527e-11
2.08213e-11
-9.21696e-08
1.1137e-07
-1.97636e-07
-1.2182e-07
3.78234e-08
-7.74153e-08
-1.14109e-07
7.64775e-09
-1.09217e-07
-1.21218e-07
1.88492e-08
-1.49368e-07
-1.40393e-07
2.87955e-08
-1.77814e-07
-1.58486e-07
2.80913e-08
-1.96205e-07
-1.65274e-07
1.83083e-08
-2.08892e-07
-1.53323e-07
1.84076e-09