/*--------------------------------*- C++ -*----------------------------------*\
| =========                 |                                                 |
| \\      /  F ield         | OpenFOAM: The Open Source CFD Toolbox           |
|  \\    /   O peration     | Version:  2312                                  |
|   \\  /    A nd           | Website:  www.openfoam.com                      |
|    \\/     M anipulation  |                                                 |
\*---------------------------------------------------------------------------*/
FoamFile
{
    version     2.0;
    format      ascii;
    arch        "LSB;label=32;scalar=64";
    class       volScalarField;
    location    "1";
    object      alpha.water;
}
// * * * * * * * * * * * * * * * * * * * * * * * * * * * * * * * * * * * * * //

dimensions      [0 0 0 0 0 0 0];

internalField   nonuniform List<scalar> 
8000
(
1
1
1
1
1
1
1
1
1
1
1
1
1
1
1
1
1
1
1
1
1
1
1
1
1
1
1
1
1
1
1
1
1
1
1
1
1
1
1
1
1
1
1
1
1
1
1
1
1
1
0.999997
1
1
1
1
1
1
1
1
1
0.99988
0.999999
1
1
1
1
1
1
1
0.99654
0.999997
1
1
1
1
1
1
0.989872
0.961624
0.950005
0.999997
1
1
1
0.9619
0.838685
0.656804
0.498584
0.416878
0.381932
0.999993
0.974871
0.860774
0.736097
0.471104
0.174716
0.0402008
0.00499481
2.5348e-05
2.62645e-05
0.350798
0.311588
0.223381
0.122538
0.0227268
0.000191308
2.68008e-05
1.72172e-05
2.35682e-05
0.000121694
2.57063e-05
3.14185e-05
4.31055e-05
6.39041e-05
0.000136528
2.14122e-05
1.713e-05
1.63978e-05
1.72487e-05
7.84715e-05
6.38576e-05
0.000123664
0.000124825
9.94651e-05
1.99096e-05
9.14731e-06
3.26484e-05
7.96096e-05
0.000157036
3.85029e-05
4.56213e-05
0.000122436
0.000104609
2.78163e-05
5.92222e-06
5.44989e-06
5.75845e-05
0.000352007
0.000535127
6.43265e-05
1.02324e-05
5.23559e-05
3.20419e-05
5.3882e-06
3.16302e-06
8.14857e-06
7.7894e-05
0.000505643
0.00068831
0.00025778
8.2961e-06
1.17866e-05
1.66068e-05
1.94073e-06
2.75587e-06
1.96698e-05
6.61695e-05
0.000405033
0.000726057
0.000786419
8.2882e-06
9.44791e-06
1.05072e-05
1.67362e-06
3.67173e-06
2.16158e-05
0.000154917
0.000335725
0.000600845
0.000791388
1.66977e-05
6.9219e-06
3.19083e-06
1.63073e-06
1.67362e-06
9.97135e-05
0.000354013
0.000357989
0.000266239
0.000412457
4.13594e-05
5.90244e-06
1.6263e-06
1.63073e-06
1.63073e-06
0.000113223
0.000348277
0.000354013
0.00026814
6.80627e-05
4.13594e-05
6.70104e-06
1.59542e-06
1.61308e-06
2.78323e-05
0.000110788
0.000185365
0.00019919
6.71822e-05
2.34768e-05
1
1
1
1
1
1
1
1
1
1
1
1
1
1
1
1
1
1
1
1
1
1
1
1
1
1
1
1
1
1
1
1
1
1
1
1
1
1
1
1
1
0.999725
0.999995
1
1
1
1
1
1
1
0.999799
0.996051
0.999953
1
1
1
1
1
1
1
0.999951
0.999325
1
1
1
1
1
1
1
1
0.999999
1
1
1
1
1
0.983687
0.951585
0.924433
0.910398
0.999997
0.999996
0.994623
0.920161
0.800619
0.613601
0.430916
0.315382
0.259597
0.234373
0.815878
0.70861
0.531815
0.403499
0.239619
0.0698018
0.00647882
4.23056e-05
2.62612e-05
3.97844e-05
0.167723
0.135464
0.0697906
0.0230362
0.00211997
6.14089e-05
3.79369e-05
1.65504e-05
2.97457e-05
0.00012697
2.01852e-05
2.5708e-05
3.07382e-05
8.74947e-05
2.0608e-05
1.09313e-05
1.33165e-05
1.49481e-05
4.82091e-05
0.0001914
2.35832e-05
2.74675e-05
2.00473e-05
2.34951e-05
7.68535e-06
5.54134e-06
2.59586e-05
7.31302e-05
0.000212162
4.42107e-05
1.0064e-05
9.87936e-06
8.9962e-06
7.08192e-06
3.16302e-06
3.26297e-06
5.89275e-05
0.000279727
0.000329283
3.4855e-05
8.18319e-06
8.35606e-06
0.000139534
1.11716e-05
2.55196e-06
2.4416e-06
0.000114849
0.000425987
0.000131981
3.64895e-05
8.28792e-06
0.000155528
0.000211752
7.01824e-05
2.4195e-06
8.07732e-06
0.000147158
0.000380356
4.30483e-05
4.60339e-05
8.2882e-06
0.000211618
0.000211752
0.000128021
2.89545e-06
3.92762e-05
0.000225422
0.000100739
4.57108e-05
0.000476278
1.22599e-05
0.000118561
0.000208415
7.33879e-05
3.06299e-06
8.87133e-05
0.000260453
5.05557e-05
1.88313e-05
0.000435073
3.97897e-05
2.80264e-06
2.41077e-05
4.47443e-06
3.4912e-06
8.68419e-05
0.000148154
4.42136e-05
3.90857e-06
0.000362168
4.13594e-05
1.40739e-06
1.58916e-06
1.66677e-06
3.4557e-05
6.36378e-05
2.05871e-05
2.5978e-05
5.36292e-05
0.000277842
1
1
1
1
1
1
1
1
1
1
1
1
1
1
1
1
1
1
1
1
1
1
1
1
1
1
1
1
1
1
1
1
1
0.999999
1
1
1
1
1
1
1
0.999984
0.999984
1
1
1
1
1
1
0.999998
1
0.998704
0.998796
1
1
1
1
1
1
1
1
0.999853
0.999932
1
1
1
1
1
1
1
1
0.999999
1
1
0.998597
0.926538
0.841704
0.75636
0.694587
0.665827
0.962845
0.936009
0.826313
0.672995
0.492628
0.311927
0.178573
0.111489
0.0823418
0.0677311
0.506293
0.358378
0.199854
0.10305
0.0436149
0.00352684
4.19101e-05
1.69459e-05
2.25448e-05
3.04639e-05
0.039084
0.0180351
0.00182218
0.000285452
0.000215449
0.000118266
1.0816e-05
1.49476e-05
2.09015e-05
5.37419e-05
1.29753e-05
4.52594e-05
3.6555e-05
2.5468e-05
2.36483e-05
1.05407e-05
4.34443e-06
1.25243e-05
9.47584e-05
0.000191111
9.81581e-06
1.07124e-05
1.64523e-05
1.72198e-05
6.41704e-06
3.26304e-06
3.10112e-06
2.29925e-05
0.000157728
0.0001915
7.59816e-06
7.85705e-06
1.44663e-05
3.03899e-05
6.03259e-06
2.29913e-06
1.32132e-05
8.58011e-05
0.000198143
0.000100341
7.97696e-06
1.50447e-05
9.05966e-05
4.49083e-05
2.21164e-06
2.13959e-06
4.42508e-05
0.000147154
0.000146664
3.73102e-05
8.93965e-06
6.47438e-05
7.08826e-05
3.32844e-05
1.99633e-06
2.20798e-06
0.00013583
0.000210932
3.28724e-05
1.74279e-05
1.37073e-05
4.19298e-05
2.485e-05
1.95017e-05
3.02366e-06
4.88668e-05
0.000213137
7.92335e-05
2.73831e-06
4.63717e-06
1.81961e-05
3.7226e-06
5.93422e-06
1.16134e-05
3.14335e-06
9.47449e-05
8.17369e-05
2.7329e-06
2.09942e-06
2.39562e-06
1.2229e-05
1.45584e-06
2.32193e-06
4.7315e-06
3.79564e-05
8.47903e-05
3.02051e-06
2.09068e-06
2.00765e-06
2.06569e-06
2.91419e-06
1.36473e-06
1.45603e-06
9.33481e-06
5.84252e-05
2.34149e-05
2.09068e-06
2.005e-06
1.99982e-06
2.00765e-06
1
1
1
1
1
1
1
1
1
1
1
1
1
1
1
1
1
1
1
1
1
1
1
1
1
1
1
1
1
1
1
1
0.999999
1
1
1
1
1
1
0.999997
1
1
0.999999
1
1
1
1
1
0.999998
0.999984
1
1
1
1
1
1
1
1
1
1
1
1
1
1
1
1
1
1
1
0.998081
1
1
1
1
0.909753
0.767962
0.616796
0.487867
0.403281
0.373768
0.827856
0.709897
0.523451
0.332063
0.204375
0.110979
0.049617
0.0155627
0.00426315
0.00254389
0.235754
0.104712
0.0244482
0.00195883
0.000879501
0.000241241
0.000100891
3.94778e-05
2.94064e-05
2.2476e-05
0.00108666
0.00014929
0.000265501
0.000146872
6.27902e-05
2.12142e-05
4.69269e-06
1.19472e-05
2.23516e-05
2.15951e-05
2.17734e-05
2.06612e-05
3.19409e-05
1.77264e-05
7.83915e-06
4.40696e-06
2.74461e-06
6.84002e-06
8.66088e-05
0.000191417
7.11932e-06
9.06525e-06
2.04692e-05
1.21234e-05
2.6684e-06
2.29911e-06
2.44842e-06
7.43973e-06
7.84797e-05
0.000139275
6.20233e-06
7.69211e-06
4.87878e-05
2.33741e-05
2.08873e-06
2.13959e-06
2.20847e-06
2.74207e-06
3.1624e-05
4.0798e-05
1.20783e-05
1.53576e-05
6.7492e-05
1.15504e-05
2.03058e-06
2.0649e-06
2.13948e-06
3.14012e-06
2.00206e-05
2.08529e-05
1.12957e-05
3.85247e-05
1.03902e-05
1.71862e-06
1.89628e-06
1.99633e-06
3.02241e-05
1.0608e-05
1.01146e-05
1.5141e-05
1.85981e-05
4.7199e-06
1.38393e-06
1.4363e-06
1.5678e-06
4.76737e-05
0.000132173
2.59818e-05
2.38566e-06
7.1085e-06
3.57768e-06
1.40857e-06
1.4153e-06
3.77805e-06
4.40187e-05
9.87797e-05
0.000100612
1.31995e-05
2.12265e-06
2.31924e-06
1.49679e-06
1.43994e-06
1.61524e-06
3.8505e-05
8.75486e-05
8.97905e-05
1.09632e-05
2.40372e-06
2.05155e-06
2.12267e-06
1.38152e-06
2.95242e-06
1.78787e-05
4.74622e-05
5.50529e-05
2.35972e-05
2.17322e-06
2.04078e-06
2.00765e-06
2.05155e-06
1
1
1
1
1
1
1
1
1
1
1
1
1
1
1
1
1
1
1
1
1
1
1
1
1
1
1
1
0.999999
1
1
1
1
1
1
1
1
0.999998
0.999991
0.999999
1
1
1
1
1
1
1
1
0.999988
0.999999
1
1
1
1
1
1
1
1
0.999995
0.999999
1
1
1
1
1
1
0.99569
0.978556
0.967442
0.96598
1
1
0.982337
0.89382
0.761491
0.569074
0.40075
0.304978
0.263773
0.257607
0.604472
0.433086
0.254425
0.137647
0.0644226
0.0243313
0.00159192
5.56202e-05
1.39936e-06
1.47433e-06
0.0587136
0.00833453
0.000468748
5.10579e-06
2.92818e-05
2.47568e-05
3.42373e-05
2.21765e-05
2.18389e-05
1.24253e-05
0.000162453
0.000240294
4.61273e-05
7.79789e-06
1.15059e-05
5.04065e-06
6.50866e-06
3.77513e-05
3.37021e-05
1.54992e-05
2.39037e-05
3.65901e-05
1.61403e-05
1.07043e-05
6.48912e-06
2.74348e-06
2.44841e-06
2.56361e-05
4.89952e-05
3.59155e-05
6.20233e-06
1.96529e-05
3.93839e-05
2.45573e-05
5.3976e-06
2.39134e-06
2.25529e-06
9.93551e-06
2.52739e-05
2.36946e-05
5.2425e-06
2.57367e-05
6.01107e-05
3.37772e-05
2.24144e-06
2.18866e-06
2.18593e-06
2.25529e-06
3.08273e-06
2.40066e-05
1.45959e-05
6.16379e-05
5.0731e-05
2.11223e-05
2.02382e-06
2.09354e-06
2.13462e-06
2.28877e-06
3.25887e-06
5.86024e-05
5.1263e-05
3.67233e-05
4.36678e-06
2.03776e-06
1.99633e-06
2.02382e-06
2.11116e-06
2.08062e-06
2.78388e-06
4.25684e-05
1.96927e-05
1.38393e-06
1.37537e-06
1.38393e-06
4.35877e-06
1.5842e-05
1.24211e-05
3.10314e-06
2.14852e-06
4.07708e-06
1.57779e-06
1.38785e-06
1.38393e-06
6.30083e-06
4.40206e-05
6.80506e-05
3.25149e-05
5.09177e-06
2.29439e-06
2.56779e-06
1.59356e-06
1.11056e-05
2.24524e-05
3.072e-05
5.19514e-05
4.22086e-05
1.47467e-05
2.86788e-06
2.12207e-06
2.4027e-06
1.33642e-06
1.65662e-05
4.87461e-05
3.62694e-05
1.93401e-05
3.20721e-06
2.21878e-06
2.09987e-06
2.05151e-06
2.29094e-06
1
1
1
1
1
1
1
1
1
1
1
1
1
1
1
1
1
1
1
1
1
1
1
1
1
1
1
1
0.999999
1
1
1
1
1
1
1
1
0.999995
0.999954
0.999972
1
1
1
1
1
1
1
1
0.999954
0.999733
1
1
1
0.999999
0.999999
1
1
0.999998
0.999988
0.999955
1
1
1
1
0.999999
0.992188
0.976599
0.9615
0.952944
0.955383
0.944045
0.945668
0.87985
0.756442
0.596542
0.422992
0.321857
0.269383
0.249565
0.255368
0.385147
0.228874
0.125243
0.0551461
0.014116
0.00061624
2.92808e-05
1.30787e-06
1.33049e-06
1.39937e-06
0.00332142
0.000587115
5.25039e-06
5.07721e-06
3.59387e-06
1.36163e-05
4.29066e-05
2.89398e-06
1.58702e-06
1.4867e-06
0.000211872
8.92548e-05
7.82032e-06
5.29199e-06
1.33119e-05
3.61372e-06
2.32563e-05
1.45083e-05
4.56467e-06
2.54316e-06
2.05247e-05
1.61291e-05
1.1621e-05
1.03129e-05
2.6472e-05
2.4318e-05
7.79419e-06
2.14096e-05
5.06753e-06
1.33732e-05
5.19742e-06
2.15595e-05
2.562e-05
1.22428e-05
2.66311e-05
2.66323e-05
1.4294e-05
8.63491e-06
3.35443e-06
7.8308e-05
3.93478e-06
4.76639e-05
6.04015e-05
2.45713e-05
8.62973e-06
2.66311e-05
1.14921e-05
2.3309e-06
2.88165e-06
8.64339e-05
1.31332e-05
6.27569e-05
6.06468e-05
3.04506e-05
2.11723e-06
9.22804e-06
3.46295e-06
2.08062e-06
2.44117e-06
2.19471e-05
5.13168e-05
1.97614e-05
1.70819e-06
2.14488e-06
2.02382e-06
2.11116e-06
2.08062e-06
1.91484e-06
1.91232e-06
2.12037e-06
3.16819e-05
1.37627e-06
1.38393e-06
1.6456e-06
3.26956e-06
2.0715e-06
1.97386e-06
1.91013e-06
2.0802e-06
2.14899e-06
1.68427e-06
4.42365e-06
5.91831e-06
1.7748e-06
3.10475e-06
4.01649e-06
3.12015e-06
3.83288e-06
8.351e-06
3.64281e-05
1.90447e-06
1.75697e-05
4.39575e-05
3.04275e-05
1.08931e-05
7.86617e-06
8.12394e-06
3.2696e-06
2.23828e-05
3.58529e-05
1.70699e-06
2.63398e-06
0.000152552
0.000306425
0.000173256
1.55496e-05
3.84735e-06
2.21879e-06
9.61852e-06
4.43159e-05
1
1
1
1
1
1
1
1
1
1
1
1
1
1
1
1
0.999999
0.999998
0.999999
1
1
1
1
1
1
1
0.999999
0.999996
0.999997
1
1
1
1
1
1
1
1
1
0.999971
0.999904
1
1
1
1
1
1
1
1
0.999966
0.99931
1
1
1
1
1
1
0.999999
0.999996
0.999969
0.999611
1
1
1
0.999995
0.996069
0.986449
0.976531
0.969868
0.965684
0.966079
0.862319
0.852933
0.775063
0.636926
0.488449
0.375472
0.327544
0.308902
0.29894
0.303871
0.21822
0.120239
0.0585789
0.0205489
3.55847e-06
1.77059e-06
1.27962e-06
1.23057e-06
1.28095e-06
1.33048e-06
0.000929743
3.58015e-05
5.09004e-06
3.38654e-06
1.65759e-06
7.19549e-06
5.19677e-06
1.27976e-06
1.25325e-06
1.58952e-06
0.000136977
4.61383e-05
4.45014e-05
1.25776e-05
3.23098e-06
2.62717e-06
7.17596e-06
1.54965e-06
1.3856e-06
7.057e-06
1.52993e-05
2.6799e-05
3.83621e-05
5.87125e-05
2.62879e-05
2.91911e-06
2.49087e-06
2.39181e-06
1.62127e-06
4.9271e-06
3.81698e-06
2.52296e-05
1.92763e-05
1.94133e-05
1.94786e-05
5.16036e-06
3.28195e-06
3.61848e-06
1.68845e-06
1.68501e-05
2.8724e-06
6.31456e-05
4.48896e-05
1.68777e-05
2.97739e-06
8.6546e-06
1.44647e-05
4.70581e-06
2.88574e-06
1.57441e-05
5.33619e-06
6.34834e-05
6.33291e-05
2.14357e-05
2.19037e-06
8.03771e-06
1.32174e-05
2.24922e-06
1.8356e-06
2.2377e-06
5.10751e-05
1.03914e-05
1.67474e-05
2.78732e-06
2.11723e-06
2.01247e-06
1.91484e-06
1.8901e-06
1.88029e-06
1.92611e-06
4.83419e-05
1.43294e-06
2.92885e-06
2.39193e-06
1.96413e-06
1.97386e-06
1.88655e-06
1.91013e-06
2.00908e-06
2.17758e-05
7.70696e-06
6.50639e-06
0.000151602
0.000251674
0.000183946
0.000106127
0.0001124
0.000117908
0.000131575
0.000153006
1.73029e-06
1.82701e-05
0.000282868
0.000308074
0.00030973
0.000241604
2.40986e-06
6.33645e-06
7.94369e-05
0.000172955
1.13215e-06
1.72986e-06
0.000117023
0.000308074
0.000306383
0.000161696
1.9991e-06
2.35508e-06
2.20484e-05
9.60114e-05
1
1
1
1
1
1
1
0.999999
0.999999
1
1
1
1
1
1
1
0.999999
0.999982
0.999982
0.999999
1
1
1
1
1
1
0.999997
0.999982
0.999982
1
1
1
1
1
1
1
1
0.999993
0.99998
0.999899
1
1
1
1
1
1
1
0.999978
0.999919
0.999475
1
1
1
1
1
1
0.999999
0.999982
0.999933
0.999619
1
1
1
0.999325
0.994396
0.987032
0.981769
0.980165
0.980122
0.981288
0.763567
0.753154
0.685498
0.568671
0.446218
0.375712
0.3516
0.351587
0.358383
0.371684
0.109586
0.053929
0.0219083
0.00515601
1.30818e-06
1.20962e-06
1.20036e-06
1.20205e-06
1.23056e-06
1.28097e-06
0.000511841
1.95328e-05
3.66387e-06
1.65759e-06
1.49173e-06
1.27218e-06
1.24075e-06
1.18706e-06
1.211e-06
1.25324e-06
6.9323e-05
6.76857e-05
6.64356e-05
7.3711e-05
1.26635e-05
1.77491e-06
1.40199e-06
1.24144e-06
1.23784e-06
1.38855e-06
1.28661e-05
7.62568e-05
7.47427e-05
0.000187268
3.40764e-05
1.82425e-06
1.67383e-06
1.54996e-06
1.31647e-06
1.62093e-06
5.56198e-06
1.63786e-05
4.39867e-05
0.000138977
2.53884e-06
1.97498e-06
4.36913e-06
2.85506e-06
1.40043e-06
2.03515e-06
1.81885e-06
5.14122e-05
6.91955e-05
6.38533e-06
2.86045e-06
4.85027e-06
1.42648e-05
1.89427e-06
1.61652e-06
3.15522e-06
3.02138e-06
6.3906e-05
6.58632e-05
7.5666e-06
4.55196e-06
3.59531e-06
1.85066e-06
1.82316e-06
1.8505e-06
1.8505e-06
5.00889e-05
1.69805e-05
3.41145e-05
0.00011433
0.000241314
0.000240966
0.000123169
8.41352e-05
8.91085e-05
2.86348e-05
4.86052e-05
2.34638e-06
4.48639e-05
0.000319967
0.000363689
0.000348881
0.000335565
0.000319275
0.000262022
9.83072e-05
4.52892e-05
5.1235e-06
0.000113194
0.000344568
0.000353728
0.000337684
0.000103485
4.43053e-05
6.44102e-05
0.000149663
3.2454e-05
2.92785e-06
4.78339e-05
0.000218369
0.000307715
6.93827e-05
1.99354e-06
2.42193e-06
8.4343e-06
7.1224e-05
5.38489e-06
1.64526e-06
1.64201e-05
3.09974e-05
1.16476e-06
1.18487e-06
1.35726e-06
7.26876e-06
1.04852e-05
1.65115e-05
1
1
1
1
1
1
1
1
0.999998
0.999952
1
1
1
1
1
1
1
0.999988
0.999986
0.999979
1
1
1
1
1
1
1
0.999985
0.999983
0.999971
1
1
1
1
1
1
0.999997
0.999958
0.999939
0.999861
1
1
1
1
1
1
0.999938
0.999422
0.999335
0.999185
1
1
1
1
1
1
0.999975
0.999754
0.999425
0.99925
1
1
0.999967
0.998876
0.994359
0.987749
0.983083
0.983093
0.987027
0.991598
0.668107
0.667563
0.628498
0.533249
0.436515
0.380422
0.359998
0.368711
0.4014
0.449011
0.048726
0.0190891
0.00335844
1.30818e-06
1.20962e-06
1.20161e-06
1.20206e-06
1.18707e-06
1.20206e-06
1.33433e-06
0.000279623
4.61403e-05
5.57851e-05
8.95553e-06
1.27219e-06
1.20657e-06
1.18707e-06
1.17986e-06
1.18706e-06
1.211e-06
4.37195e-05
8.47202e-05
0.000119495
0.000192092
5.21748e-05
1.27211e-06
1.24078e-06
1.18707e-06
1.21101e-06
1.23783e-06
1.65882e-05
5.66539e-05
0.000206213
0.00027822
1.67515e-05
2.53098e-06
5.70852e-06
2.66317e-06
1.23785e-06
3.714e-05
7.4839e-06
1.23424e-05
0.000108339
0.000164214
3.06433e-06
7.3675e-06
1.44896e-05
2.90536e-06
1.31656e-06
9.54398e-05
1.09077e-06
1.90343e-05
6.26284e-05
8.87442e-06
7.75992e-06
9.90047e-06
2.38833e-06
2.08697e-06
2.48004e-06
9.56918e-05
5.46159e-06
4.45455e-05
2.46865e-05
0.000106898
0.000263082
0.000291433
0.000127145
4.67974e-05
8.57689e-05
8.72518e-05
1.91508e-05
1.82985e-05
3.72134e-05
0.000346111
0.000377887
0.000377515
0.00035995
7.41277e-05
1.10263e-05
8.13178e-05
4.73397e-05
6.54669e-06
2.39871e-05
0.000307694
0.000372453
0.000368409
4.82641e-05
3.24197e-06
4.04919e-06
0.000225395
4.6412e-05
6.65992e-06
5.49587e-06
9.10598e-05
0.00025684
0.00014945
2.7143e-06
3.02871e-06
3.24197e-06
7.4906e-05
4.59308e-05
8.03166e-06
1.01842e-06
2.28214e-06
1.24403e-06
1.99189e-06
2.42193e-06
3.6573e-06
4.709e-06
2.48971e-05
4.54556e-05
1.20664e-05
9.76583e-07
8.62757e-07
1.11668e-06
3.49077e-06
9.58609e-06
3.76758e-05
8.83515e-06
1.12523e-05
1
1
1
1
1
1
1
1
0.99991
0.992091
1
1
1
1
1
1
1
1
0.999939
0.992393
1
1
1
1
1
1
1
0.999999
0.999914
0.99559
1
1
1
1
1
1
0.999998
0.999986
0.999943
0.996134
1
1
1
1
1
1
0.999964
0.999788
0.999019
0.990332
1
1
1
1
1
1
0.999978
0.999857
0.999125
0.991229
1
1
0.999975
0.998844
0.994049
0.985458
0.978423
0.979007
0.987983
0.989736
0.618808
0.625304
0.599603
0.517523
0.429919
0.369352
0.340404
0.35094
0.41494
0.51521
0.0281497
0.0081264
5.52979e-06
1.34409e-06
1.21915e-06
1.20962e-06
1.19011e-06
1.17986e-06
1.22351e-06
1.99589e-06
0.000149968
7.58112e-05
0.0001933
0.000124494
8.0571e-06
1.19954e-06
1.17986e-06
1.17985e-06
1.17985e-06
1.22352e-06
2.01132e-05
9.17432e-05
0.000293121
0.00029297
7.80172e-05
1.41214e-06
1.19698e-06
1.17986e-06
1.19483e-06
3.13712e-06
6.80767e-06
6.39767e-05
0.00029297
0.000287976
4.06984e-06
3.96322e-06
1.04287e-05
1.73813e-06
1.2517e-06
7.50497e-05
2.62132e-06
2.49965e-05
0.000290704
0.000208068
3.72681e-06
4.06984e-06
9.44148e-06
6.26187e-06
3.75091e-05
9.40662e-05
7.80643e-07
8.3103e-06
6.8644e-05
0.000137419
0.000127068
0.000185874
0.0001304
0.000140458
0.000102774
2.37163e-05
4.67744e-06
4.83118e-06
8.41584e-06
0.000175004
0.000387848
0.000389762
0.000383708
0.000140439
1.72662e-05
2.65208e-05
8.1487e-07
1.12657e-05
7.62428e-06
0.000233147
0.000383091
0.000384443
0.000341006
4.25133e-06
8.69727e-06
0.000186638
1.64702e-05
9.26981e-06
1.69321e-06
6.28776e-05
0.000280364
0.000347716
9.36127e-05
3.78333e-06
5.03711e-06
0.000211885
4.37853e-05
9.46789e-06
9.78465e-07
8.69854e-07
2.66864e-06
3.84333e-06
3.02871e-06
3.24197e-06
3.78333e-06
5.2082e-05
4.58156e-05
1.7116e-05
8.69854e-07
8.62757e-07
4.1387e-06
6.81414e-06
1.48324e-05
6.82353e-06
1.58139e-05
5.22862e-05
4.584e-05
2.28389e-05
1.09831e-06
8.62757e-07
6.20019e-06
3.03384e-05
7.3956e-05
4.95791e-05
8.39331e-05
0.000104006
1
1
1
1
1
1
1
1
0.999898
0.991591
1
1
1
1
1
1
1
1
1
0.995523
1
1
1
1
1
1
1
0.999998
0.999999
0.998293
1
1
1
0.999998
0.999999
1
1
0.999996
0.999965
0.996192
1
1
1
0.99998
0.999975
0.999997
1
0.999969
0.999501
0.990598
1
1
1
1
1
0.999998
0.999997
0.999969
0.999551
0.991771
1
1
1
0.998924
0.993077
0.983027
0.97563
0.976883
0.987126
0.990691
0.635586
0.638544
0.609514
0.517641
0.420241
0.354876
0.324899
0.338548
0.408724
0.528265
0.0329205
0.010981
0.000226859
2.02122e-06
1.25172e-06
1.21915e-06
1.2054e-06
1.18403e-06
1.26618e-06
1.55098e-06
0.000144748
8.94958e-05
0.000215953
0.000120592
6.13424e-06
1.21449e-06
1.18403e-06
1.17986e-06
1.18403e-06
1.26624e-06
1.29994e-05
9.44134e-05
0.000282163
0.000293107
3.98507e-05
1.35588e-06
1.21455e-06
1.18403e-06
1.23844e-06
1.87754e-06
1.55766e-06
6.74285e-05
0.000293156
0.000264587
4.13798e-06
2.69232e-06
1.35897e-06
1.23754e-06
1.07425e-05
7.71376e-06
7.38027e-07
3.59866e-05
0.000292358
0.000241251
6.28398e-06
3.83844e-05
5.47728e-05
1.19205e-05
3.93975e-05
5.36161e-06
7.02836e-07
2.52771e-05
0.000258054
0.000341664
0.000327852
0.000389762
0.000382547
0.000107451
1.26171e-05
3.4147e-06
7.35235e-07
5.21914e-06
6.80066e-05
0.000354709
0.000389762
0.000389762
0.000389762
0.000292372
1.58074e-05
4.00219e-05
7.14487e-07
1.77865e-06
1.05633e-05
9.9328e-05
0.000213648
0.000389762
0.000384443
0.000137191
1.91846e-05
0.00010571
7.60591e-07
1.8757e-06
8.61254e-07
8.9837e-07
2.61114e-05
9.35364e-05
0.000204657
1.65955e-05
6.14835e-06
1.2221e-05
4.56375e-06
5.34229e-06
8.91709e-07
8.94669e-07
1.59463e-05
1.97913e-05
3.84333e-06
3.78333e-06
5.34071e-06
8.98943e-06
1.27554e-05
1.0595e-05
1.49113e-06
8.69854e-07
8.11835e-06
2.39854e-05
3.42752e-05
1.21897e-05
7.06486e-05
5.94892e-05
1.04633e-05
1.34246e-05
3.23256e-06
8.62757e-07
4.04792e-06
2.79967e-05
8.43089e-05
6.44342e-05
0.00016647
0.000164231
1
1
1
1
1
1
1
1
1
1
1
1
1
1
1
1
1
0.999992
0.999993
1
1
1
1
1
1
1
1
0.999984
0.99998
1
1
1
1
0.999998
0.99999
0.999998
0.999999
0.999992
0.999987
0.999992
1
1
1
0.999983
0.999902
0.999946
0.999999
0.999983
0.999986
0.999992
1
1
1
1
1
0.999997
0.999994
0.999967
0.999969
0.999982
1
1
1
0.999773
0.993741
0.980938
0.969913
0.969291
0.981518
0.994756
0.707293
0.706958
0.660551
0.550494
0.427837
0.344757
0.304362
0.310928
0.373662
0.481446
0.0652129
0.0323282
0.0110235
0.00011241
1.29155e-06
1.25097e-06
1.22042e-06
1.19518e-06
1.2521e-06
1.52268e-06
0.000138319
5.81333e-05
2.20017e-05
9.70853e-06
2.30145e-06
1.22037e-06
1.19518e-06
1.18403e-06
1.19518e-06
1.2521e-06
8.3891e-05
0.000214398
0.000215612
0.000174197
3.71258e-05
1.46617e-06
1.22031e-06
1.19518e-06
1.25206e-06
1.52248e-06
6.66141e-05
0.000238083
0.000292358
0.000119033
3.6404e-05
4.66558e-06
1.46549e-06
1.27932e-06
7.19846e-06
2.01388e-06
1.30079e-06
4.31443e-05
0.00030245
0.000204681
1.32896e-05
2.34708e-05
8.73004e-05
7.62989e-06
2.74286e-05
1.95235e-06
6.89408e-07
1.4335e-05
0.000314762
0.000332669
0.000164532
0.000245938
0.000378938
0.000152009
4.65803e-06
2.8649e-06
7.01071e-07
7.12818e-07
0.000120044
0.000336368
0.000387848
0.000332788
0.000383871
0.000378938
1.9366e-05
6.33979e-05
7.12818e-07
7.14487e-07
7.88648e-07
4.4817e-05
7.83499e-05
0.000118242
0.000305727
0.00015046
1.48586e-05
7.68071e-05
7.14487e-07
7.60603e-07
8.3321e-07
8.61236e-07
9.48485e-07
1.80989e-05
1.40199e-05
5.82902e-06
6.78532e-06
7.84045e-06
7.60601e-07
8.45297e-07
8.61254e-07
8.80824e-07
1.0006e-06
1.55995e-05
6.47872e-06
4.72379e-06
7.60536e-06
7.85065e-06
1.03395e-06
1.07832e-06
8.80824e-07
8.94669e-07
3.2928e-06
4.80709e-06
1.88347e-05
1.15002e-05
0.000109467
8.37767e-05
7.27577e-06
2.31791e-06
1.14115e-06
9.52288e-07
2.18259e-06
3.14879e-06
1.98117e-05
7.92729e-05
0.000166012
0.000161157
1
1
1
1
1
1
1
0.999999
1
1
1
1
1
1
1
1
0.999998
0.99998
0.999984
0.999999
1
1
1
1
1
1
0.999994
0.999979
0.999979
0.999994
1
1
1
1
0.999998
1
0.999998
0.999993
0.999992
0.999996
1
1
1
0.999996
0.999978
1
0.999998
0.999992
0.999991
0.999996
1
1
1
1
1
0.999999
0.999991
0.999972
0.999964
0.999981
1
1
1
1
0.997158
0.985285
0.971438
0.964213
0.973129
0.989185
0.815525
0.813544
0.749568
0.624012
0.474064
0.368169
0.312399
0.293762
0.337959
0.428533
0.135776
0.0842111
0.0428115
0.0124476
1.28486e-06
1.26671e-06
1.23573e-06
1.22273e-06
1.26366e-06
1.45877e-06
0.000228847
9.30496e-05
9.20593e-06
3.82984e-06
1.38671e-06
1.23571e-06
1.2194e-06
1.19518e-06
1.22273e-06
1.26366e-06
0.000125621
0.000224199
9.88093e-05
1.35591e-05
3.48724e-06
1.34122e-06
1.23563e-06
1.22272e-06
1.26364e-06
1.36599e-06
0.000111257
0.000283835
0.000290225
8.62931e-05
4.65786e-05
1.02939e-05
1.34101e-06
1.44317e-06
1.36605e-06
1.62561e-06
6.92121e-07
8.97358e-05
0.000289464
0.000281358
6.44101e-05
1.94227e-05
6.24546e-05
6.79406e-05
4.72798e-05
1.79811e-06
6.92121e-07
6.92121e-07
0.000240859
0.000319052
0.000114657
5.47044e-05
0.000310141
0.000319547
7.54279e-05
1.16743e-05
6.90231e-07
7.09444e-07
7.4788e-06
0.000131967
0.000179199
5.77094e-05
0.000323416
0.000345348
7.11195e-05
8.04731e-05
8.91202e-07
9.88287e-07
1.14509e-06
1.73375e-06
9.29519e-06
3.15029e-05
4.84837e-05
1.70229e-05
7.64744e-06
1.05774e-05
1.69464e-06
4.42796e-06
7.94328e-06
1.29116e-05
1.41759e-05
9.21824e-06
6.95586e-06
6.66841e-06
6.92012e-06
7.64744e-06
1.25922e-06
7.62389e-06
1.64784e-05
3.54618e-05
6.86713e-05
4.68269e-05
7.22294e-06
5.82902e-06
9.19814e-06
1.33181e-05
1.28406e-06
1.33577e-06
1.86034e-05
4.17338e-05
8.2527e-05
6.01536e-05
9.01007e-06
6.76809e-06
0.000103865
0.000129159
1.90573e-06
1.9123e-06
5.4871e-06
3.36205e-05
5.91025e-05
2.75333e-05
8.41544e-06
4.96832e-05
0.000161031
0.0001597
1
1
1
1
1
1
1
1
1
1
1
1
1
1
1
1
0.999999
0.999999
0.999999
1
1
1
1
1
1
1
0.999999
0.999996
0.999996
0.999999
1
1
1
1
1
1
1
1
0.999999
0.999999
1
1
1
1
1
1
1
0.999999
0.999999
0.999999
1
1
1
1
1
1
0.999996
0.999986
0.999976
0.999985
1
1
1
1
0.999836
0.994436
0.983349
0.973852
0.975351
0.98736
0.925145
0.923455
0.857254
0.738229
0.58457
0.444623
0.363626
0.327291
0.346263
0.414555
0.251064
0.184472
0.106981
0.0403575
0.00330017
1.27056e-06
1.24645e-06
1.2663e-06
1.29696e-06
1.37252e-06
0.000308372
0.000111745
6.05116e-05
9.19551e-06
3.67648e-06
4.06719e-06
1.23556e-06
1.22273e-06
1.26367e-06
1.29697e-06
0.000114605
9.86251e-05
3.41321e-05
1.26688e-05
4.12309e-06
2.52882e-06
1.24652e-06
1.36006e-06
1.29693e-06
1.37247e-06
0.000255267
0.000272256
0.000219415
4.21396e-05
2.12643e-05
1.62341e-06
1.3677e-06
6.20095e-05
2.12342e-05
1.52284e-06
4.62791e-05
0.000173148
0.000284323
0.000224078
0.000115052
5.61826e-05
3.6209e-05
0.000270479
9.50832e-05
1.70703e-06
1.58786e-06
1.27054e-06
0.000113396
0.000269226
0.00018116
3.2378e-05
6.03727e-05
0.00030121
0.000253073
3.23585e-05
7.09444e-07
8.06252e-07
1.36735e-06
1.87451e-05
3.1858e-05
1.41509e-05
6.48724e-05
0.000185798
0.000185548
7.63769e-05
9.92137e-07
5.27873e-06
2.25118e-05
2.21681e-05
8.85192e-06
1.05662e-05
6.42874e-05
6.25312e-05
8.19977e-06
9.9703e-06
5.05012e-05
6.44885e-05
9.56026e-05
9.11748e-05
8.54646e-05
1.30315e-05
7.10075e-06
6.96038e-06
7.10076e-06
8.28956e-06
0.000112649
0.00010982
0.00010347
8.83322e-05
9.06359e-05
8.61538e-05
1.46279e-05
6.76809e-06
1.95716e-05
0.000111131
4.65315e-05
7.46686e-05
0.000101375
9.85884e-05
9.53239e-05
8.23677e-05
8.00668e-06
6.77801e-06
0.000111181
0.00015232
2.28193e-06
4.98493e-05
0.000101478
0.000102237
9.85884e-05
4.83534e-05
5.73549e-06
2.25882e-05
0.000123941
9.92187e-05
1
1
1
1
1
1
1
1
1
1
1
1
1
1
1
1
1
1
1
1
1
1
1
1
1
1
1
0.999999
0.999995
1
1
1
1
1
1
1
1
0.999994
0.999964
1
1
1
1
1
1
1
1
0.999999
0.999994
1
1
1
1
1
1
1
0.999999
0.999996
0.999988
0.99931
1
1
1
1
1
0.999802
0.996051
0.989419
0.986186
0.990744
1
1
0.962779
0.864337
0.73909
0.596088
0.472892
0.407965
0.392608
0.442018
0.463088
0.372255
0.226323
0.0988976
0.0241407
0.000152075
1.27175e-06
1.28781e-06
1.36753e-06
1.45684e-06
0.00702543
0.00128584
0.000157295
2.76218e-05
2.94959e-05
1.24756e-06
1.24669e-06
1.26136e-06
1.29347e-06
1.42668e-06
0.000224282
8.23793e-05
3.35479e-05
1.49202e-05
7.57476e-06
1.52222e-06
1.2702e-06
2.04714e-06
1.68521e-05
1.50667e-06
0.000301611
0.000255046
5.03832e-05
1.43403e-05
5.27246e-06
1.70128e-06
1.50334e-06
0.000106102
0.000129545
2.96313e-06
0.000270364
0.000259583
0.000169183
4.38936e-05
7.31252e-05
3.54044e-05
8.92991e-06
0.000253723
0.00020682
1.43785e-05
3.66934e-05
5.26467e-05
5.68777e-05
5.65977e-05
0.00010354
8.36091e-05
6.92242e-06
0.000178634
0.000248479
0.000117637
1.17342e-05
2.5145e-05
2.55933e-05
1.08798e-05
4.65441e-05
0.000120085
3.19036e-05
1.39746e-05
0.000118727
0.000115139
3.78971e-06
2.00459e-05
8.98087e-06
4.99714e-06
5.34866e-06
0.000124495
0.000169167
0.000169167
0.000155783
6.62227e-05
0.000116124
3.75247e-05
5.14973e-06
4.83169e-06
5.01904e-06
6.09326e-05
6.83272e-05
4.76423e-05
8.44273e-05
0.000266217
0.000197085
8.16156e-05
1.08875e-05
4.33033e-06
5.53747e-06
6.04963e-06
8.10988e-06
6.77802e-06
5.6139e-05
0.000288384
0.000191867
0.000168904
5.41444e-05
1.35622e-05
1.56895e-05
5.09595e-06
5.7086e-06
6.53933e-06
0.000152776
0.000148314
7.42957e-05
0.000152573
0.000128277
8.06757e-05
2.68065e-05
5.14402e-06
5.65659e-06
6.64442e-06
6.53729e-05
4.11263e-05
1
1
1
1
1
1
1
1
1
1
1
1
1
1
1
1
1
1
1
1
1
1
1
1
1
1
1
0.999999
1
1
1
1
1
1
1
1
1
0.999984
0.999886
0.999938
1
1
1
1
1
1
1
1
0.999517
0.997053
1
1
1
1
1
0.999999
1
0.999999
0.99973
0.99671
1
1
1
1
1
0.999999
0.999949
0.998939
0.996589
0.995882
1
1
1
0.977949
0.880734
0.766074
0.639433
0.531441
0.476147
0.486245
0.735812
0.645123
0.447578
0.224496
0.0850285
0.0203332
0.00165502
1.36735e-06
1.58627e-06
1.79969e-06
0.121003
0.0497074
0.00614039
0.000349552
0.000153639
3.72838e-05
1.18194e-06
1.50596e-06
1.60565e-06
1.83274e-06
0.000138997
0.000106773
6.95442e-05
4.51195e-05
2.49853e-05
4.92175e-06
1.57109e-06
2.22443e-05
8.26952e-05
1.54655e-06
0.000138767
9.9278e-05
3.00028e-05
1.85978e-05
1.0618e-05
2.21523e-06
1.70102e-06
6.97529e-05
0.000198942
4.09021e-05
0.000151179
0.000123039
1.98181e-05
2.00741e-05
1.96237e-05
1.09782e-05
2.22585e-06
9.77071e-05
0.000206026
0.000107457
4.18976e-05
5.21309e-05
1.1336e-05
1.55598e-05
1.67174e-05
4.20761e-05
5.2188e-06
1.85786e-05
0.000185018
0.000176607
9.80382e-06
7.98972e-06
1.11475e-05
1.70299e-05
2.34061e-05
5.62645e-05
5.59799e-06
6.62403e-06
1.1618e-05
6.20895e-05
4.80854e-05
4.60659e-06
4.42655e-06
5.1779e-06
1.38535e-05
9.19734e-05
8.72959e-05
0.000160087
0.000280982
0.000292225
0.000205712
4.33974e-06
4.24156e-06
4.33041e-06
8.83827e-06
5.31424e-05
0.000260144
0.000280937
0.000292225
0.000297851
0.000201286
4.25626e-06
4.22416e-06
4.22503e-06
4.33041e-06
5.61583e-06
7.41563e-05
0.000213107
0.000288425
0.000294103
0.000194785
4.22503e-06
4.22503e-06
4.22069e-06
4.22503e-06
4.4161e-06
5.09595e-06
6.30874e-06
0.00014103
0.000288511
0.000178736
1.41057e-05
4.22503e-06
4.22503e-06
4.31217e-06
4.43938e-06
5.06946e-06
5.64899e-06
2.75729e-05
7.81734e-05
1
1
1
1
1
1
1
1
1
1
1
1
1
1
1
1
1
1
1
1
1
1
1
1
1
1
1
1
0.999995
0.999985
1
1
1
1
1
1
1
0.999999
0.999939
0.999842
1
1
1
1
1
1
1
1
0.999794
0.999138
1
1
1
1
1
1
1
1
0.999901
0.998891
1
1
1
1
1
1
1
0.999999
0.999997
0.999992
1
1
1
1
0.984032
0.90238
0.804777
0.701139
0.620495
0.580756
0.969428
0.891262
0.704487
0.455866
0.22344
0.0948827
0.0345411
0.0112301
0.00252702
2.67542e-06
0.382182
0.212581
0.0748721
0.00725167
0.000522787
0.000139413
2.46087e-05
2.07033e-06
2.64408e-06
2.03337e-06
0.00383643
8.90187e-05
6.34794e-05
0.000207246
8.79056e-05
2.07367e-05
4.90092e-06
2.84273e-05
5.67492e-05
1.96385e-06
5.91422e-05
2.58592e-05
1.94831e-05
4.53383e-05
2.77223e-05
5.69115e-06
2.21522e-06
7.87163e-05
0.000195286
3.84687e-05
2.48293e-05
1.19777e-05
8.98647e-06
1.68931e-05
8.73486e-06
4.54562e-06
3.72571e-06
1.69624e-05
0.000198942
0.000171348
1.26211e-05
9.42968e-06
5.78809e-06
7.16487e-06
6.52254e-06
4.9733e-06
4.5471e-06
4.97401e-06
7.83417e-05
0.000194111
8.92547e-05
6.26477e-06
5.01295e-06
5.60726e-06
6.07458e-06
5.65948e-06
4.97411e-06