/*--------------------------------*- C++ -*----------------------------------*\
| =========                 |                                                 |
| \\      /  F ield         | OpenFOAM: The Open Source CFD Toolbox           |
|  \\    /   O peration     | Version:  2312                                  |
|   \\  /    A nd           | Website:  www.openfoam.com                      |
|    \\/     M anipulation  |                                                 |
\*---------------------------------------------------------------------------*/
FoamFile
{
    version     2.0;
    format      ascii;
    arch        "LSB;label=32;scalar=64";
    class       volScalarField;
    location    "1";
    object      p;
}
// * * * * * * * * * * * * * * * * * * * * * * * * * * * * * * * * * * * * * //

dimensions      [1 -1 -2 0 0 0 0];

internalField   nonuniform List<scalar> 
8000
(
377.332
376.829
376.084
375.028
373.773
372.46
371.251
370.279
369.651
369.436
329.28
328.634
327.839
326.711
325.331
323.868
322.517
321.425
320.707
320.438
282.202
281.297
280.293
279.057
277.501
275.764
274.137
272.806
271.928
271.578
236.458
235.341
233.959
232.385
230.509
228.355
226.319
224.607
223.419
222.781
192.572
191.411
189.547
187.351
184.84
181.989
179.302
176.734
174.836
174.121
150.684
149.586
147.184
144.377
140.852
136.974
133.334
129.801
127.453
126.381
111.14
109.921
107.497
104.26
100.052
95.1146
90.2838
86.0522
82.6503
80.7806
75.9368
74.8326
72.0799
68.5882
63.4767
56.6342
49.9032
44.4031
40.5404
38.361
44.5271
43.6661
40.943
38.5381
33.0609
24.1941
16.6202
12.063
10.2702
9.51064
23.7648
21.6916
19.6891
16.9506
11.121
3.80691
0.396364
-0.249575
-0.303231
-0.310844
8.878
7.90314
5.47166
2.15205
-0.219416
-0.390633
-0.402096
-0.394849
-0.387668
-0.387779
-0.597888
-0.585048
-0.579833
-0.638973
-0.613615
-0.515025
-0.474579
-0.448465
-0.432524
-0.430202
-0.620811
-0.620541
-0.639597
-0.647212
-0.613915
-0.570748
-0.533818
-0.504318
-0.489625
-0.49055
-0.64309
-0.63701
-0.652666
-0.660683
-0.645418
-0.616145
-0.5875
-0.560959
-0.552981
-0.566395
-0.696114
-0.691069
-0.699177
-0.703591
-0.692449
-0.667179
-0.644356
-0.630411
-0.636255
-0.654524
-0.752003
-0.751231
-0.753561
-0.75431
-0.741267
-0.720027
-0.704547
-0.710513
-0.72496
-0.737965
-0.800073
-0.801347
-0.802478
-0.803153
-0.786735
-0.770831
-0.766601
-0.787686
-0.813428
-0.829646
-0.845266
-0.846752
-0.84782
-0.849561
-0.830833
-0.820967
-0.826513
-0.859331
-0.894533
-0.910732
-0.890567
-0.892433
-0.896411
-0.892099
-0.875366
-0.875177
-0.888859
-0.920704
-0.951138
-0.963738
-0.938717
-0.941239
-0.944059
-0.934186
-0.926781
-0.933041
-0.951303
-0.97646
-0.998208
-1.00615
376.642
376.124
375.426
374.371
373.136
371.84
370.65
369.698
369.086
368.891
328.4
327.77
327.048
325.964
324.588
323.132
321.796
320.72
320.015
319.766
280.976
280.015
279.312
278.083
276.562
274.793
273.165
271.825
270.914
270.54
235.066
233.756
232.431
230.814
229.143
226.905
224.837
223.107
221.922
221.393
191.086
189.754
187.367
185.172
182.746
179.86
176.956
174.635
172.714
172.024
149.333
148.092
144.945
141.592
137.919
133.781
129.588
126.248
123.325
122.256
108.612
107.892
104.603
100.547
95.7871
90.6006
85.3014
80.6606
77.1928
75.4864
71.9376
70.6007
66.9918
62.5869
56.8053
49.3509
42.421
37.2759
34.0784
32.5416
40.6059
38.1292
34.2803
29.601
23.2528
15.5718
9.92316
7.3716
6.18914
5.58943
17.6372
15.107
10.945
8.19279
5.12641
0.793201
-0.206563
-0.278727
-0.300852
-0.311683
3.77076
2.5986
0.449029
-0.308799
-0.409285
-0.437971
-0.407004
-0.384699
-0.385892
-0.387925
-0.628708
-0.698113
-0.713322
-0.659418
-0.57931
-0.520993
-0.468224
-0.440037
-0.431743
-0.437357
-0.662619
-0.678021
-0.684989
-0.644546
-0.607326
-0.5655
-0.522896
-0.501205
-0.503957
-0.527547
-0.664417
-0.668175
-0.676524
-0.669323
-0.644685
-0.609072
-0.580941
-0.574483
-0.607136
-0.634171
-0.717802
-0.714865
-0.714178
-0.715375
-0.6963
-0.662869
-0.649312
-0.66891
-0.722676
-0.724213
-0.762403
-0.764684
-0.760905
-0.764907
-0.74658
-0.719602
-0.72031
-0.766466
-0.810383
-0.808974
-0.804106
-0.808891
-0.805575
-0.814576
-0.790768
-0.774699
-0.79168
-0.851453
-0.884952
-0.892268
-0.847206
-0.850757
-0.853813
-0.859599
-0.83302
-0.829235
-0.863691
-0.916727
-0.939746
-0.95114
-0.892994
-0.897063
-0.907181
-0.900089
-0.875708
-0.885812
-0.927049
-0.967424
-0.982118
-0.989598
-0.942795
-0.951664
-0.95726
-0.936264
-0.925083
-0.943542
-0.977623
-1.00651
-1.01834
-1.0227
375.6
375.149
374.487
373.346
372.077
370.787
369.619
368.701
368.131
367.98
327.269
326.765
326.145
324.896
323.409
321.934
320.607
319.567
318.915
318.706
279.595
279.027
278.241
276.863
275.119
273.289
271.628
270.317
269.45
269.111
233.125
232.228
231.077
229.182
227.182
224.847
222.672
220.967
219.858
219.434
188.448
187.247
185.365
182.498
180.075
176.822
173.818
171.424
169.827
169.136
145.54
144.126
141.724
137.494
133.482
128.789
124.406
120.936
118.49
117.421
104.222
102.529
99.6239
94.7174
89.5941
83.2745
77.0569
71.9498
68.4426
66.8075
66.3934
63.6865
59.2982
53.4586
46.4058
38.1348
30.9156
25.5479
22.1286
20.4735
34.1771
29.5819
23.7493
17.2294
11.632
6.94321
3.91659
2.43651
1.58683
1.10757
12.0546
7.42905
3.79258
1.18839
0.155808
-0.279152
-0.283974
-0.30169
-0.341959
-0.355152
-0.000223823
-0.40576
-0.449106
-0.520157
-0.502728
-0.434695
-0.395837
-0.388964
-0.390988
-0.390567
-0.699341
-0.700992
-0.645441
-0.591973
-0.54596
-0.500871
-0.46356
-0.439836
-0.435122
-0.44286
-0.679692
-0.663308
-0.645164
-0.618309
-0.587293
-0.549649
-0.518737
-0.505382
-0.514881
-0.532079
-0.675064
-0.674302
-0.669947
-0.657974
-0.636174
-0.607761
-0.582767
-0.586079
-0.61435
-0.629294
-0.716949
-0.719425
-0.715333
-0.711913
-0.695972
-0.667319
-0.659277
-0.683066
-0.716678
-0.718781
-0.756385
-0.762633
-0.767536
-0.766654
-0.754715
-0.728443
-0.735786
-0.779393
-0.80679
-0.816138
-0.797401
-0.808258
-0.82129
-0.823282
-0.808097
-0.788725
-0.811219
-0.860713
-0.880438
-0.90205
-0.842762
-0.856444
-0.87717
-0.879237
-0.854075
-0.847746
-0.882903
-0.916988
-0.935497
-0.960137
-0.891486
-0.908068
-0.933582
-0.924952
-0.89738
-0.905145
-0.935282
-0.956541
-0.974158
-0.996763
-0.941969
-0.962958
-0.980845
-0.961724
-0.945049
-0.959932
-0.979502
-0.992929
-1.00723
-1.02718
374.152
373.681
372.947
371.877
370.656
369.413
368.299
367.441
366.931
366.851
325.702
325.181
324.397
323.173
321.794
320.371
319.107
318.135
317.548
317.417
277.829
277.204
276.327
274.881
273.14
271.316
269.729
268.494
267.687
267.487
230.766
229.813
228.633
226.848
224.712
222.135
220.087
218.478
217.482
217.111
185.124
183.918
181.984
179.381
176.521
173.054
170.13
167.813
166.257
165.688
140.731
139.109
136.269
132.485
128.114
123.213
118.905
115.481
113.129
112.148
98.293
96.0812
92.5636
87.8451
81.9374
74.7239
67.6697
62.0737
58.3593
56.8454
58.8355
54.7132
48.9695
42.2957
34.4943
25.9354
18.3542
12.6391
9.33327
8.39751
25.6236
19.2155
12.2823
7.10334
4.01172
2.06025
0.597317
-0.0483196
-0.14406
-0.084949
5.3704
1.57818
-0.0240479
-0.192618
-0.334126
-0.326777
-0.315219
-0.334772
-0.325368
-0.302121
-0.531406
-0.486406
-0.432013
-0.415438
-0.411669
-0.400177
-0.393592
-0.37097
-0.360898
-0.351443
-0.633727
-0.611696
-0.547568
-0.517008
-0.495484
-0.477786
-0.462629
-0.435962
-0.427812
-0.42872
-0.639647
-0.628422
-0.600232
-0.581074
-0.565541
-0.546106
-0.524071
-0.51099
-0.514683
-0.52352
-0.655632
-0.655444
-0.651268
-0.646767
-0.634792
-0.613651
-0.592513
-0.589493
-0.601107
-0.607556
-0.698256
-0.70269
-0.708468
-0.712479
-0.70185
-0.680368
-0.667365
-0.677926
-0.697106
-0.711258
-0.743156
-0.751231
-0.766785
-0.774243
-0.764755
-0.742972
-0.741946
-0.767731
-0.792943
-0.821787
-0.786248
-0.80052
-0.825392
-0.836135
-0.824162
-0.802296
-0.813314
-0.844507
-0.871385
-0.906616
-0.832063
-0.852752
-0.885242
-0.893982
-0.872998
-0.857413
-0.876927
-0.901466
-0.927337
-0.958298
-0.879497
-0.906444
-0.937737
-0.93702
-0.910788
-0.909202
-0.925992
-0.943231
-0.96762
-0.994696
-0.929302
-0.958121
-0.978686
-0.967799
-0.951026
-0.955531
-0.965084
-0.977223
-1.00013
-1.02806
372.473
372.026
371.275
370.245
369.073
367.899
366.87
366.093
365.679
365.67
323.854
323.351
322.519
321.344
320.009
318.668
317.505
316.643
316.154
316.124
275.685
275.074
274.061
272.603
270.923
269.218
267.755
266.636
265.988
265.888
228.081
227.273
225.906
223.993
221.772
219.439
217.5
216.042
215.143
214.938
181.462
180.307
178.384
175.701
172.667
169.326
166.505
164.361
162.837
162.49
135.481
134.009
131.212
127.176
122.574
117.875
113.995
111.065
108.82
107.968
91.6771
89.4269
85.6782
80.597
74.237
66.674
59.4399
55.1539
53.2347
52.9798
50.2352
45.2428
38.6336
31.5155
23.6372
15.239
8.75555
6.30652
5.42761
5.49159
16.3309
10.1855
5.37921
2.80119
1.08056
0.0370566
-0.20944
-0.199991
-0.174592
-0.147655
0.763314
-0.199786
-0.245284
-0.266739
-0.292583
-0.30541
-0.311026
-0.303878
-0.294117
-0.283516
-0.489551
-0.452888
-0.407515
-0.386721
-0.389262
-0.397375
-0.383167
-0.371935
-0.370758
-0.359369
-0.582376
-0.547651
-0.50486
-0.487399
-0.481038
-0.471933
-0.456951
-0.438785
-0.431231
-0.424839
-0.607403
-0.585668
-0.571624
-0.566243
-0.561921
-0.545029
-0.525022
-0.510573
-0.507807
-0.506782
-0.632516
-0.629579
-0.634271
-0.64497
-0.64051
-0.618245
-0.595136
-0.585371
-0.589631
-0.601783
-0.677046
-0.681767
-0.699484
-0.716606
-0.709105
-0.685
-0.665694
-0.66707
-0.688643
-0.726187
-0.724663
-0.737533
-0.761979
-0.777742
-0.768212
-0.743568
-0.73326
-0.74574
-0.781854
-0.835005
-0.771168
-0.78978
-0.820649
-0.834523
-0.822527
-0.795681
-0.794068
-0.81163
-0.847671
-0.895947
-0.816643
-0.84139
-0.874907
-0.884756
-0.865068
-0.841171
-0.845966
-0.861885
-0.89235
-0.927781
-0.864306
-0.893092
-0.921948
-0.922849
-0.897476
-0.88352
-0.889785
-0.901537
-0.927535
-0.961114
-0.916834
-0.946258
-0.96756
-0.958606
-0.931626
-0.920425
-0.925652
-0.940065
-0.969197
-1.00761
370.74
370.318
369.587
368.606
367.504
366.423
365.504
364.858
364.551
364.643
321.934
321.453
320.627
319.511
318.252
317.013
315.996
315.267
314.907
314.97
273.401
272.808
271.783
270.371
268.766
267.196
265.933
265.024
264.565
264.631
225.229
224.444
223.076
221.163
218.935
216.83
215.179
213.96
213.317
213.366
177.656
176.609
174.738
172.108
169.076
165.962
163.398
161.659
160.698
160.692
130.25
128.882
126.084
121.992
117.405
112.866
110.228
108.136
106.731
106.482
85.1508
82.7856
78.8998
73.6366
67.1329
61.1652
55.0339
50.9632
49.018
48.9761
41.6765
36.2763
29.8003
22.696
15.0992
9.20734
6.54329
5.94756
5.67608
5.87417
9.33052
4.95255
2.628
1.05902
-0.0768508
-0.208659
-0.235877
-0.206213
-0.191479
-0.19338
-0.324643
-0.368306
-0.316026
-0.296256
-0.298898
-0.306858
-0.307295
-0.312879
-0.312362
-0.300117
-0.442893
-0.4336
-0.411039
-0.397081
-0.38804
-0.389642
-0.383449
-0.384701
-0.387168
-0.369875
-0.528717
-0.502008
-0.484789
-0.47711
-0.476155
-0.467018
-0.454367
-0.443231
-0.43804
-0.431441
-0.572551
-0.555874
-0.553947
-0.564842
-0.566754
-0.547314
-0.525139
-0.510092
-0.514044
-0.52598
-0.610586
-0.607432
-0.619586
-0.646632
-0.649399
-0.623967
-0.598108
-0.585201
-0.604134
-0.645837
-0.658008
-0.662973
-0.687805
-0.718338
-0.717767
-0.69033
-0.666007
-0.659937
-0.689443
-0.750809
-0.707185
-0.721187
-0.751934
-0.776577
-0.772503
-0.744461
-0.722876
-0.71895
-0.748626
-0.801678
-0.755221
-0.774985
-0.81023
-0.829607
-0.81865
-0.78501
-0.764219
-0.761036
-0.785898
-0.821442
-0.804052
-0.828401
-0.86468
-0.87541
-0.853426
-0.817017
-0.799861
-0.797388
-0.813457
-0.850025
-0.855094
-0.881436
-0.912856
-0.914744
-0.884979
-0.85498
-0.842551
-0.84532
-0.87084
-0.915027
-0.91161
-0.937641
-0.963042
-0.955754
-0.928742
-0.910483
-0.904808
-0.912469
-0.946362
-0.9949
369.138
368.741
368.048
367.129
366.111
365.14
364.349
363.826
363.629
363.821
320.155
319.7
318.91
317.868
316.714
315.621
314.74
314.156
313.936
314.133
271.254
270.692
269.709
268.382
266.913
265.55
264.481
263.77
263.504
263.73
222.522
221.776
220.429
218.629
216.607
214.817
213.445
212.51
212.138
212.407
174.043
173.116
171.441
168.6
165.579
163.165
161.375
160.129
159.601
159.897
125.436
124.207
121.433
117.282
113.082
109.974
107.959
106.389
105.567
105.84
79.0811
76.6583
72.8191
67.7436
61.8034
55.8294
51.4632
49.0715
48.1244
48.5776
33.8047
28.7855
23.0745
16.5928
10.9654
8.39606
7.56163
7.27587
7.05005
7.15795
5.00258
2.45643
1.08436
0.0924372
-0.198173
-0.199531
-0.215582
-0.236581
-0.234522
-0.219199
-0.368569
-0.355393
-0.326076
-0.310271
-0.286025
-0.298002
-0.31814
-0.330364
-0.325284
-0.303503
-0.419431
-0.410575
-0.404533
-0.394451
-0.376511
-0.384187
-0.38313
-0.39215
-0.398577
-0.383395
-0.489872
-0.479337
-0.472847
-0.474181
-0.473543
-0.467502
-0.452469
-0.44806
-0.460242
-0.469783
-0.544456
-0.539526
-0.541127
-0.566966
-0.570326
-0.550954
-0.529551
-0.51627
-0.539149
-0.569385
-0.593743
-0.588919
-0.605935
-0.646475
-0.653962
-0.629909
-0.607676
-0.590609
-0.60993
-0.658507
-0.643468
-0.647063
-0.673767
-0.714023
-0.722761
-0.69932
-0.675556
-0.648411
-0.654628
-0.696732
-0.694873
-0.706109
-0.738254
-0.771813
-0.7749
-0.748128
-0.717699
-0.681373
-0.674103
-0.700998
-0.747432
-0.761554
-0.792939
-0.819245
-0.813121
-0.776487
-0.736121
-0.701215
-0.692113
-0.729725
-0.802855
-0.819835
-0.846806
-0.865095
-0.848627
-0.807531
-0.773043
-0.752461
-0.756358
-0.802205
-0.865656
-0.886699
-0.909465
-0.91919
-0.899438
-0.871724
-0.852091
-0.840474
-0.856619
-0.902223
-0.935427
-0.958817
-0.984658
-0.995244
-0.984194
-0.960759
-0.932768
-0.923143
-0.950209
-1.0037
367.832
367.458
366.807
365.956
365.029
364.164
363.488
363.082
362.991
363.267
318.696
318.265
317.531
316.568
315.523
314.569
313.825
313.374
313.273
313.584
269.473
268.936
268.029
266.81
265.495
264.337
263.465
262.927
262.81
263.178
220.208
219.54
218.335
216.628
214.828
213.397
212.32
211.633
211.477
211.921
170.854
170.108
168.617
165.791
163.147
161.38
160.169
159.332
159.118
159.602
121.227
120.07
117.353
113.491
110.039
108.184
106.719
105.631
105.308
105.896
73.6197
71.2498
67.8071
63.3071
58.0406
53.4782
50.4815
49.1034
48.983
49.8068
26.684
22.5093
18.1998
13.713
10.279
8.76893
8.3651
8.47569
8.63231
8.88685
2.44912
0.909022
0.193392
-0.141403
-0.204565
-0.224317
-0.247948
-0.260129
-0.256189
-0.235175
-0.282761
-0.324434
-0.318563
-0.302591
-0.291288
-0.30779
-0.325118
-0.336819
-0.338575
-0.31966
-0.388198
-0.391429
-0.392012
-0.390854
-0.389063
-0.386319
-0.378321
-0.392116
-0.412663
-0.408436
-0.466646
-0.468669
-0.463453
-0.480218
-0.486285
-0.470246
-0.452039
-0.44662
-0.473306
-0.495935
-0.530879
-0.527418
-0.5311
-0.567728
-0.575285
-0.555064
-0.537575
-0.522289
-0.535041
-0.569088
-0.586522
-0.579226
-0.59513
-0.637297
-0.64984
-0.631576
-0.619712
-0.590034
-0.579189
-0.596394
-0.639786
-0.639199
-0.658944
-0.693559
-0.705311
-0.692539
-0.674213
-0.624085
-0.586889
-0.595986
-0.697381
-0.703469
-0.723029
-0.750133
-0.759659
-0.742099
-0.707715
-0.651738
-0.608691
-0.640697
-0.760533
-0.768852
-0.78753
-0.809071
-0.815917
-0.7921
-0.749593
-0.705244
-0.692798
-0.730865
-0.825984
-0.838116
-0.85623
-0.875115
-0.879336
-0.858901
-0.828834
-0.796923
-0.792315
-0.817841
-0.894361
-0.912615
-0.931463
-0.94803
-0.950363
-0.932537
-0.897154
-0.86976
-0.874303
-0.905976
-0.962423
-0.986795
-1.00362
-1.01734
-1.01526
-0.995394
-0.965061
-0.944887
-0.963172
-1.00547
366.956
366.596
365.984
365.194
364.346
363.556
362.971
362.649
362.639
362.994
317.704
317.287
316.603
315.716
314.777
313.946
313.294
312.934
312.925
313.305
268.242
267.709
266.866
265.761
264.623
263.643
262.909
262.484
262.479
262.921
218.508
217.886
216.775
215.232
213.803
212.662
211.76
211.245
211.23
211.757
168.293
167.653
166.422
164.029
162.201
160.779
159.709
159.091
159.033
159.646
117.502
116.573
114.006
111.323
109.21
107.655
106.448
105.589
105.639
106.522
69.2993
67.0572
64.4176
60.2944
56.3342
53.1159
50.5858
49.6404
50.3054
52.0219
20.6028
17.7003
15.2964
12.651
10.305
9.00751
8.58503
8.85618
9.74051
10.9858
0.986304
0.193052
-0.127913
-0.193799
-0.220304
-0.24795
-0.258823
-0.262072
-0.254893
-0.231455
-0.284607
-0.315871
-0.301071
-0.298913
-0.306676
-0.319023
-0.327777
-0.333152
-0.338197
-0.315918
-0.378038
-0.386878
-0.37671
-0.391905
-0.402235
-0.393253
-0.379422
-0.379907
-0.407659
-0.404009
-0.459395
-0.464153
-0.455862
-0.484237
-0.49427
-0.474842
-0.457619
-0.445356
-0.460888
-0.471315
-0.526518
-0.522787
-0.528205
-0.563023
-0.570642
-0.557009
-0.552921
-0.526451
-0.505208
-0.513502
-0.587562
-0.581456
-0.592688
-0.620696
-0.631897
-0.627294
-0.623333
-0.582741
-0.53082
-0.541597
-0.647806
-0.647495
-0.65814
-0.678643
-0.687602
-0.683414
-0.668709
-0.616888
-0.564801
-0.588048
-0.711617
-0.717573
-0.729188
-0.744732
-0.755262
-0.748095
-0.72519
-0.682758
-0.649201
-0.666329
-0.777326
-0.788867
-0.802323
-0.822439
-0.834944
-0.825346
-0.801158
-0.76486
-0.743125
-0.753848
-0.841774
-0.859645
-0.871864
-0.8926
-0.905587
-0.895242
-0.864332
-0.831514
-0.817654
-0.831808
-0.902962
-0.929397
-0.938948
-0.951713
-0.957242
-0.947805
-0.922324
-0.895413
-0.889682
-0.908523
-0.963559
-0.993598
-1.00361
-1.0095
-1.0086
-0.999866
-0.981664
-0.963856
-0.974939
-1.00347
366.604
366.245
365.66
364.918
364.124
363.4
362.85
362.567
362.6
362.943
317.292
316.873
316.23
315.405
314.533
313.754
313.17
312.873
312.9
313.418
267.708
267.189
266.389
265.394
264.361
263.458
262.801
262.458
262.49
263.051
217.802
217.169
216.117
214.822
213.618
212.49
211.663
211.249
211.289
212.042
167.114
166.56
165.567
163.603
162.045
160.631
159.596
159.091
159.182
160.214
115.467
114.595
112.938
110.913
109.349
107.781
106.458
105.662
106.087
107.829
66.6631
64.6797
62.4711
59.5491
56.291
53.0596
50.4086
49.5217
51.0282
54.4102
17.5269
15.5133
14.3821
12.3887
10.2279
8.73539
8.01287
8.286
10.0554
12.9344
0.492996
-0.0574232
-0.129036
-0.169549
-0.22067
-0.256589
-0.261712
-0.250668
-0.231793
-0.20652
-0.299952
-0.310089
-0.277922
-0.299831
-0.318287
-0.325931
-0.327045
-0.321616
-0.313991
-0.291364
-0.37958
-0.381109
-0.370551
-0.401618
-0.411609
-0.395507
-0.380799
-0.370956
-0.378177
-0.370159
-0.458521
-0.461713
-0.457133
-0.485654
-0.489425
-0.470702
-0.457754
-0.445154
-0.431713
-0.436528
-0.529849
-0.529449
-0.531591
-0.551888
-0.552695
-0.546799
-0.547964
-0.520035
-0.476534
-0.49187
-0.595458
-0.596331
-0.603576
-0.611685
-0.611389
-0.611909
-0.609278
-0.573627
-0.525656
-0.546229
-0.659778
-0.664649
-0.672527
-0.679742
-0.680102
-0.679904
-0.669451
-0.640014
-0.604088
-0.612477
-0.722332
-0.733349
-0.744478
-0.759345
-0.769496
-0.766394
-0.750259
-0.724498
-0.69837
-0.696992
-0.781391
-0.799425
-0.812655
-0.831905
-0.848165
-0.846417
-0.82678
-0.798738
-0.775908
-0.774601
-0.837972
-0.860742
-0.874356
-0.890358
-0.903289
-0.901766
-0.882711
-0.85643
-0.836587
-0.838999
-0.894119
-0.918742
-0.93466
-0.946781
-0.95366
-0.951919
-0.937129
-0.912492
-0.898961
-0.904979
-0.952111
-0.976455
-0.997109
-1.00867
-1.01209
-1.01049
-0.996956
-0.97542
-0.975298
-0.989475
366.825
366.486
365.901
365.159
364.367
363.646
363.102
362.832
362.873
363.28
317.526
317.107
316.476
315.666
314.798
314.006
313.431
313.141
313.194
313.646
267.988
267.474
266.671
265.699
264.653
263.688
263.07
262.751
262.825
263.351
218.127
217.47
216.433
215.225
213.954
212.799
211.937
211.539
211.68
212.434
167.494
166.778
165.792
164.014
162.399
160.699
159.733
159.309
159.58
160.806
115.853
114.597
113.195
111.457
109.851
108.124
106.57
105.834
106.388
108.496
67.2872
65.2322
62.6093
59.8516
56.7546
53.1583
50.2689
49.3785
50.9482
54.9235
18.378
16.1029
14.6115
12.3042
9.89808
8.30303
7.58144
7.96045
9.87563
13.2941
0.596452
0.0106064
-0.123085
-0.168674
-0.217744
-0.253776
-0.253863
-0.230245
-0.200807
-0.177594
-0.308214
-0.303958
-0.275622
-0.303605
-0.320833
-0.323017
-0.316611
-0.303632
-0.283819
-0.280791
-0.38611
-0.381251
-0.374144
-0.407531
-0.408574
-0.384406
-0.370892
-0.364083
-0.351255
-0.361532
-0.467453
-0.467905
-0.464669
-0.485237
-0.47614
-0.453124
-0.446093
-0.440443
-0.417308
-0.431145
-0.541707
-0.546111
-0.545318
-0.547543
-0.532568
-0.523156
-0.524609
-0.511651
-0.482855
-0.498012
-0.608832
-0.618585
-0.624804
-0.61427
-0.597949
-0.595518
-0.596307
-0.582118
-0.558166
-0.564669
-0.672398
-0.683969
-0.698158
-0.693561
-0.682642
-0.687086
-0.684343
-0.672336
-0.650276
-0.638584
-0.72975
-0.742873
-0.76167
-0.772278
-0.779658
-0.783256
-0.77378
-0.762631
-0.738109
-0.71752
-0.780982
-0.796863
-0.818743
-0.835193
-0.84682
-0.85469
-0.843278
-0.824157
-0.799965
-0.785509
-0.831144
-0.848208
-0.872936
-0.892577
-0.902389
-0.907053
-0.898106
-0.875459
-0.851267
-0.843424
-0.884377
-0.90187
-0.928153
-0.951287
-0.961103
-0.963964
-0.954372
-0.927305
-0.904287
-0.900166
-0.942228
-0.959076
-0.984475
-1.00872
-1.02133
-1.02551
-1.01163
-0.979296
-0.963781
-0.967382
367.573
367.218
366.62
365.859
365.044
364.294
363.724
363.425
363.453
363.812
318.357
317.936
317.267
316.428
315.531
314.713
314.092
313.736
313.793
314.196
268.997
268.434
267.593
266.589
265.498
264.512
263.79
263.384
263.467
263.974
219.441
218.72
217.642
216.322
214.9
213.619
212.677
212.202
212.354
213.063
169.285
168.423
167.089
165.392
163.572
161.685
160.436
159.858
160.106
161.275
118.174
116.609
115.061
112.954
110.774
108.646
106.988
106.066
106.443
108.441
70.8856
68.2146
64.726
61.6501
58.3175
53.9162
50.312
48.8787
49.9254
53.4803
22.7379
19.7377
16.6865
12.9712
9.90478
7.95862
7.03549
7.25383
8.89977
11.8033
1.3794
0.495754
-0.0441569
-0.17497
-0.212403
-0.242192
-0.2368
-0.207736
-0.183727
-0.157681
-0.305123
-0.293564
-0.301178
-0.309954
-0.316534
-0.316909
-0.305765
-0.285629
-0.268871
-0.271089
-0.397795
-0.383649
-0.395964
-0.418207
-0.407046
-0.375963
-0.358618
-0.354659
-0.345808
-0.361073
-0.487439
-0.483153
-0.481599
-0.494707
-0.47313
-0.436436
-0.426856
-0.43328
-0.42513
-0.437309
-0.564961
-0.57272
-0.567203
-0.554369
-0.527666
-0.506082
-0.508507
-0.511955
-0.502333
-0.50599
-0.630944
-0.645636
-0.654388
-0.626806
-0.598384
-0.593928
-0.596704
-0.598198
-0.586748
-0.576514
-0.690907
-0.70467
-0.729303
-0.718099
-0.687892
-0.691367
-0.697766
-0.699152
-0.685046
-0.653198
-0.742362
-0.753312
-0.782136
-0.794288
-0.783891
-0.784799
-0.786537
-0.781841
-0.762641
-0.728436
-0.786688
-0.79576
-0.825115
-0.849627
-0.853491
-0.853485
-0.852843
-0.839455
-0.815801
-0.793128
-0.830566
-0.839178
-0.867395
-0.89998
-0.91503
-0.917246
-0.911466
-0.892298
-0.864899
-0.84884
-0.879053
-0.887165
-0.911859
-0.946279
-0.969927
-0.976559
-0.966495
-0.937788
-0.9078
-0.898069
-0.933253
-0.940863
-0.961117
-0.993113
-1.02045
-1.02853
-1.01025
-0.971269
-0.948548
-0.953423
368.795
368.425
367.796
366.99
366.121
365.318
364.696
364.344
364.276
364.551
319.708
319.275
318.563
317.662
316.697
315.809
315.13
314.769
314.685
315
270.604
270.029
269.152
268.036
266.84
265.757
264.946
264.525
264.493
264.874
221.497
220.732
219.537
218.087
216.48
215.049
213.96
213.397
213.434
214.034
172.233
171.249
169.634
167.718
165.627
163.368
161.842
161.087
161.149
162.198
122.075
120.484
118.465
115.808
112.85
110.35
108.434
107.179
107.183
108.881
76.1228
73.1162
69.3206
65.2524
61.58
56.4253
52.0017
49.4656
49.5437
52.3164
29.5634
25.7872
21.2478
15.7697
10.8365
8.4056
7.1844
6.77254
7.88306
10.2302
3.0745
1.68949
0.73028
-0.0770903
-0.18601
-0.217457
-0.216225
-0.187668
-0.176706
-0.16051
-0.279393
-0.286317
-0.307367
-0.323952
-0.309494
-0.312439
-0.303153
-0.276416
-0.267939
-0.269964
-0.388377
-0.385738
-0.404239
-0.42559
-0.4117
-0.383249
-0.362394
-0.354186
-0.354157
-0.36402
-0.501286
-0.497853
-0.493456
-0.499678
-0.484389
-0.441927
-0.417842
-0.434948
-0.441442
-0.446792
-0.589502
-0.599154
-0.588685
-0.564606
-0.541731
-0.51075
-0.503942
-0.518504
-0.519481
-0.513995
-0.660654
-0.672939
-0.681622
-0.641731
-0.605027
-0.601383
-0.608335
-0.613734
-0.609192
-0.586112
-0.722087
-0.729556
-0.75361
-0.744754
-0.705657
-0.698729
-0.710162
-0.715716
-0.707912
-0.669801
-0.772772
-0.777501
-0.80531
-0.825026
-0.814265
-0.799963
-0.799384
-0.792649
-0.775909
-0.744602
-0.810914
-0.816605
-0.845379
-0.881808
-0.89622
-0.88849
-0.875316
-0.857037
-0.832761
-0.806183
-0.843624
-0.851173
-0.88037
-0.925203
-0.956284
-0.958392
-0.940374
-0.91458
-0.884262
-0.859728
-0.879006
-0.883541
-0.907613
-0.951699
-0.989816
-1.00116
-0.983737
-0.949986
-0.917498
-0.903195
-0.922847
-0.922876
-0.93917
-0.976897
-1.01429
-1.02481
-1.00195
-0.963901
-0.943337
-0.949704
370.382
369.992
369.324
368.458
367.51
366.617
365.894
365.431
365.267
365.464
321.457
321.004
320.248
319.271
318.205
317.21
316.411
315.908
315.743
315.961
272.678
272.091
271.154
269.935
268.594
267.373
266.407
265.822
265.671
265.943
224.136
223.308
222.042
220.409
218.543
216.999
215.715
214.97
214.794
215.197
175.802
174.751
173.005
170.804
168.43
165.812
163.984
162.989
162.754
163.471
126.982
125.548
123.16
119.924
116.452
113.235
111.018
109.523
109.089
110.201
82.0633
79.2315
75.4042
70.8499
66.0277
60.9818
55.9061
52.6275
51.5689
53.2004
37.4394
33.3171
27.6918
20.9754
13.9158
10.1182
8.35581
7.5553
8.02988
9.81761
5.78754
3.95401
2.19872
0.636134
-0.107182
-0.174698
-0.187022
-0.171843
-0.174534
-0.172481
-0.259687
-0.294888
-0.310517
-0.318611
-0.315803
-0.30973
-0.306927
-0.275024
-0.274341
-0.281043
-0.360138
-0.376835
-0.407233
-0.429688
-0.414297
-0.400247
-0.384677
-0.362419
-0.367834
-0.372491
-0.496748
-0.502044
-0.502315
-0.506055
-0.498421
-0.466076
-0.42923
-0.444137
-0.458289
-0.45922
-0.613838
-0.617812
-0.602783
-0.581772
-0.571202
-0.544033
-0.514482
-0.528557
-0.536018
-0.528815
-0.707996
-0.710781
-0.710006
-0.673108
-0.638344
-0.630845
-0.63298
-0.638037
-0.627866
-0.601037
-0.787365
-0.791185
-0.805038
-0.793175
-0.749858
-0.730661
-0.741631
-0.741524
-0.725522
-0.688955
-0.843559
-0.856125
-0.882003
-0.900893
-0.883862
-0.848277
-0.829552
-0.814566
-0.79424
-0.762857
-0.869017
-0.891491
-0.925613
-0.968865
-0.983103
-0.961203
-0.92344
-0.891105
-0.860924
-0.826967
-0.869383
-0.894061
-0.928442
-0.97964
-1.01911
-1.02147
-0.990688
-0.951084
-0.913716
-0.881155
-0.87971
-0.895444
-0.923694
-0.970732
-1.01301
-1.02598
-1.0052
-0.971057
-0.939114
-0.921489
-0.911221
-0.911913
-0.929275
-0.969015
-1.00664
-1.01888
-1.00022
-0.969954
-0.953459
-0.959967
372.192
371.778
371.07
370.139
369.104
368.099
367.251
366.66
366.384
366.484
323.452
322.974
322.176
321.12
319.95
318.821
317.874
317.216
316.91
317.013
275.045
274.446
273.46
272.138
270.674
269.266
268.105
267.314
266.963
267.085
227.097
226.282
224.956
223.187
221.229
219.37
217.818
216.783
216.305
216.505
179.756
178.632
176.775
174.317
171.624
168.865
166.661
165.26
164.615
164.985
132.593
131.094
128.516
124.906
120.897
117.049
114.356
112.482
111.617
112.222
88.3306
85.8571
82.147
77.2883
72.0116
67.2489
61.7558
57.8741
55.8317
56.3569
46.1409
41.9144
35.6745
28.0814
19.9671
13.8704
10.8971
9.43949
9.08304
10.4656
11.3399
8.40117
4.92432
2.00359
0.127565
-0.0998849
-0.132814
-0.144667
-0.166218
-0.173614
-0.142958
-0.35436
-0.341468
-0.334097
-0.341446
-0.322561
-0.310775
-0.273936
-0.277887
-0.28671
-0.39987
-0.422706
-0.425095
-0.428228
-0.41993
-0.41822
-0.412239
-0.372707
-0.373962
-0.38329
-0.518666
-0.524508
-0.525521
-0.52035
-0.513021
-0.494374
-0.467082
-0.45609
-0.465849
-0.469377
-0.653814
-0.653124
-0.636034
-0.612221
-0.599415
-0.579888
-0.544165
-0.544266
-0.550578
-0.545623
-0.767448
-0.765428
-0.75058
-0.719738
-0.686546
-0.668976
-0.650463
-0.660719
-0.649142
-0.623498
-0.84862
-0.853124
-0.854027
-0.839332
-0.797372
-0.767672
-0.760467
-0.759704
-0.745687
-0.710255
-0.890584
-0.907503
-0.92362
-0.93945
-0.925506
-0.888725
-0.858125
-0.838273
-0.816918
-0.784644
-0.894267
-0.924757
-0.948314
-0.988453
-1.00722
-0.992839
-0.956718
-0.922626
-0.893368
-0.85657
-0.869928
-0.914318
-0.939767
-0.986178
-1.02097
-1.02981
-1.00895
-0.978092
-0.947314
-0.914835
-0.855092
-0.895609
-0.928408
-0.971352
-1.00444
-1.01909
-1.00837
-0.987167
-0.966041
-0.952858
-0.883247
-0.902359
-0.931629
-0.970889
-0.99681
-1.00482
-0.993517
-0.975769
-0.970177
-0.977229
374.059
373.616
372.875
371.881
370.762
369.649
368.672
367.947
367.547
367.537
325.506
325.001
324.179
323.049
321.779
320.519
319.419
318.602
318.14
318.107
277.467
276.849
275.862
274.446
272.863
271.294
269.926
268.912
268.332
268.245
230.099
229.256
227.95
226.08
224.008
221.926
220.108
218.76
217.965
217.901
183.709
182.433
180.594
178.002
175.154
172.265
169.707
167.847
166.763
166.81
138.098
136.511
133.93
130.134
126.004
121.815
118.149
115.664
114.209
114.194
94.901
92.4912
88.8809
83.8031
78.2565
72.8608
68.2848
64.2788
61.667
61.1935
54.8656
50.7737
44.5584
36.6555
28.2149
20.5576
15.3451
12.3005
10.9505
11.2868
20.6626
16.0633
10.1839
4.84163
1.6107
0.0883396
-0.0465413
-0.0887591
-0.13481
-0.148534
2.11323
0.214051
-0.294491
-0.316572
-0.34008
-0.359344
-0.31884
-0.273598
-0.281163
-0.283513
-0.470161
-0.474223
-0.462304
-0.43676
-0.434879
-0.437781
-0.430877
-0.379505
-0.370894
-0.38436
-0.594044
-0.593665
-0.561408
-0.535428
-0.527994
-0.525454
-0.514977
-0.478682
-0.464522
-0.470522
-0.694594
-0.697667
-0.663576
-0.629793
-0.613031
-0.604636
-0.58404
-0.56813
-0.556554
-0.552964
-0.78455
-0.787581
-0.763465
-0.731286
-0.698709
-0.684959
-0.668729
-0.668469
-0.66322
-0.641426
-0.846073
-0.855416
-0.845265
-0.825626
-0.791676
-0.770987
-0.760071
-0.760151
-0.753854
-0.730609
-0.878444
-0.894683
-0.89733
-0.897077
-0.883247
-0.865194
-0.849181
-0.84033
-0.827156
-0.805952
-0.876564
-0.906235
-0.918897
-0.938581
-0.94691
-0.946146
-0.931392
-0.919677
-0.911856
-0.891941
-0.854908
-0.907074
-0.923149
-0.950374
-0.970652
-0.983382
-0.982819
-0.980049
-0.975762
-0.959346
-0.831003
-0.901936
-0.931904
-0.958497
-0.972011
-0.983908
-0.98634
-0.989592
-0.994531
-0.992523
-0.852811
-0.903096
-0.950066
-0.976617
-0.979348
-0.978361
-0.970709
-0.968607
-0.987706
-1.01551
375.805
375.332
374.577
373.529
372.336
371.13
370.044
369.198
368.686
368.575
327.417
326.876
326.079
324.878
323.525
322.156
320.926
319.968
319.374
319.218
279.661
279.001
278.155
276.646
274.966
273.262
271.733
270.534
269.766
269.518
232.783