/*--------------------------------*- C++ -*----------------------------------*\
| =========                 |                                                 |
| \\      /  F ield         | OpenFOAM: The Open Source CFD Toolbox           |
|  \\    /   O peration     | Version:  2312                                  |
|   \\  /    A nd           | Website:  www.openfoam.com                      |
|    \\/     M anipulation  |                                                 |
\*---------------------------------------------------------------------------*/
FoamFile
{
    version     2.0;
    format      ascii;
    arch        "LSB;label=32;scalar=64";
    class       volScalarField;
    location    "1";
    object      p_rgh;
}
// * * * * * * * * * * * * * * * * * * * * * * * * * * * * * * * * * * * * * //

dimensions      [1 -1 -2 0 0 0 0];

internalField   nonuniform List<scalar> 
8000
(
401.857
401.354
400.609
399.553
398.298
396.985
395.776
394.804
394.176
393.961
402.855
402.209
401.414
400.286
398.906
397.443
396.092
395
394.282
394.013
404.827
403.922
402.918
401.682
400.126
398.389
396.762
395.431
394.553
394.203
408.133
407.016
405.634
404.06
402.184
400.03
397.994
396.282
395.094
394.456
413.297
412.136
410.272
408.076
405.565
402.714
400.027
397.459
395.561
394.846
420.458
419.361
416.959
414.152
410.627
406.749
403.109
399.576
397.228
396.156
429.926
428.746
426.322
423.085
418.877
413.94
409.109
404.877
401.475
398.504
443.811
442.708
439.955
436.463
431.352
424.509
417.778
408.556
394.312
387.862
461.451
460.591
457.868
455.463
434.117
373.93
290.601
220.144
184.32
169.005
489.737
475.969
420.853
360.076
230.89
85.6048
19.5762
2.54153
0.174544
0.167357
189.882
168.733
120.919
65.7139
11.9888
0.222822
0.126718
0.129035
0.139483
0.189859
-0.0193276
-0.00326847
0.00853246
-0.0388878
0.0273955
0.061116
0.0991486
0.12485
0.141271
0.178092
0.031428
0.0683297
0.0499848
0.0268363
0.0114053
0.0479796
0.0993047
0.157569
0.219686
0.146158
0.0492638
0.106158
0.078709
0.0198933
0.020675
0.0496355
0.112768
0.334074
0.463187
0.138332
0.0223815
0.0573552
0.0348142
0.0114623
0.0210235
0.0498361
0.122214
0.44008
0.564024
0.239857
0.014573
0.0179963
0.019327
0.00743939
0.021101
0.0551879
0.105985
0.357391
0.586766
0.619606
0.0159529
0.0156169
0.0153424
0.00752558
0.0255583
0.055971
0.167977
0.293078
0.48169
0.619529
0.0274276
0.0175588
0.0132916
0.0102124
0.0289769
0.122914
0.335434
0.306026
0.192146
0.301332
0.0543511
0.0203427
0.0124888
0.0168045
0.0335376
0.134887
0.334284
0.307639
0.19936
0.00538724
0.0572775
0.0216393
0.0139402
0.0238307
0.0562885
0.129294
0.182292
0.170345
0.0224611
-0.0272473
401.167
400.649
399.951
398.896
397.661
396.365
395.175
394.223
393.611
393.416
401.975
401.345
400.623
399.539
398.163
396.707
395.371
394.295
393.59
393.341
403.601
402.64
401.937
400.708
399.187
397.418
395.79
394.45
393.539
393.165
406.741
405.431
404.106
402.489
400.818
398.58
396.512
394.782
393.597
393.068
411.811
410.418
408.09
405.897
403.471
400.585
397.681
395.36
393.439
392.749
419.054
416.803
414.707
411.367
407.694
403.556
399.363
396.023
393.1
392.031
427.422
426.502
423.428
419.372
414.612
409.426
404.126
399.486
396.018
394.311
439.812
438.476
434.867
430.462
424.68
417.226
404.301
387.358
374.182
367.487
457.53
455.053
448.966
413.272
357.134
271.558
189.82
139.148
114.73
103.625
397.902
345.437
258.976
196.491
117.137
33.7526
3.27536
0.206942
0.177348
0.172812
90.5809
72.8114
36.872
12.0586
1.19649
0.108649
0.12754
0.138841
0.144437
0.192427
-0.053258
-0.119551
-0.131926
-0.0460385
-0.00362268
0.0492414
0.103355
0.132461
0.159498
0.234574
-0.0350492
-0.048072
-0.059585
-0.0170303
0.010506
0.0510192
0.106129
0.156713
0.23912
0.112658
0.00441548
0.000535267
-0.00839832
-0.00246363
0.019582
0.0552616
0.120215
0.272735
0.272864
0.0510615
-0.000762439
0.0022969
0.0961883
0.0037878
0.0167377
0.0500906
0.143514
0.344984
0.0823225
0.0129386
0.00416675
0.113717
0.160199
0.0486727
0.0155322
0.0468078
0.151734
0.282695
-0.0174123
-0.0137357
0.0119203
0.171531
0.174955
0.0982562
0.0208978
0.066381
0.199903
0.0393216
-0.038669
0.302135
0.0216821
0.109286
0.183281
0.0617076
0.0279819
0.105213
0.218028
-0.0149996
-0.0652232
0.280318
0.0505008
0.0129031
0.0220985
0.0113921
0.0348817
0.100336
0.11468
-0.0199189
-0.0711502
0.246138
0.0531997
0.00615589
0.000733308
0.021804
0.0644115
0.0737402
-0.00147637
-0.0252078
-0.0106184
0.199256
400.125
399.674
399.012
397.871
396.602
395.312
394.144
393.226
392.656
392.505
400.844
400.34
399.72
398.471
396.984
395.509
394.182
393.142
392.49
392.281
402.22
401.652
400.866
399.488
397.744
395.914
394.253
392.942
392.075
391.736
404.8
403.903
402.752
400.857
398.857
396.522
394.347
392.642
391.533
391.109
409.173
407.968
406.087
403.223
400.8
397.547
394.543
392.149
390.552
389.86
415.315
413.552
411.174
407.269
403.257
398.564
394.181
390.711
388.265
387.196
423.047
421.307
418.427
413.542
408.419
402.099
395.882
390.775
387.268
385.633
434.268
431.561
427.173
421.334
413.765
379.012
340.616
303.884
277.762
265.538
435.627
419.854
368.332
297.954
217.233
137.28
78.7105
49.2895
36.2998
29.735
248.204
174.723
97.2925
49.625
20.9249
1.8286
0.201511
0.172174
0.134511
0.125004
20.6239
9.38848
1.00345
0.141735
0.123148
0.141179
0.124753
0.133752
0.134791
0.152108
-0.127955
-0.111413
-0.0607673
-0.0135462
0.0314415
0.0691436
0.102963
0.131297
0.182351
0.228908
-0.0605547
-0.0436219
-0.021962
0.00536326
0.029763
0.0654747
0.0962876
0.121826
0.194854
0.198342
-0.00786279
-0.00692942
0.00179726
0.0243047
0.0299916
0.0559347
0.088149
0.132854
0.178899
0.0992579
-5.63194e-05
0.00248926
0.0602618
0.0312195
0.016824
0.045426
0.0833893
0.132714
0.0987544
0.0189539
0.0106798
0.0468159
0.0465751
0.0189014
0.00707596
0.0335088
0.127654
0.141089
-0.0215475
-0.0426262
0.023006
0.0349681
0.00812682
0.00181004
0.00367279
0.0601099
0.170431
0.012674
-0.0688988
-0.0889762
0.0312162
0.00512346
-0.0137062
-0.0109033
0.00699523
0.0918747
0.045563
-0.0562693
-0.0753216
-0.0997078
0.0270245
0.000677234
-0.0240524
-0.013238
0.0444534
0.0791435
-0.0251194
-0.047221
-0.064913
-0.0874659
0.0172909
-0.00517858
-0.0229783
0.00367064
0.0672524
0.018916
-0.0210297
-0.0345379
-0.0488416
-0.0687891
398.677
398.206
397.472
396.402
395.181
393.938
392.824
391.966
391.456
391.376
399.277
398.756
397.972
396.748
395.369
393.946
392.682
391.71
391.123
390.992
400.454
399.829
398.952
397.506
395.765
393.941
392.354
391.119
390.312
390.112
402.441
401.488
400.308
398.523
396.387
393.81
391.762
390.153
389.157
388.785
405.849
404.643
402.709
400.106
397.246
393.779
390.855
388.538
386.982
386.409
410.506
408.884
406.044
402.26
397.889
392.988
388.68
385.256
382.904
381.923
417.118
414.906
411.389
406.67
400.762
393.549
386.495
380.899
377.184
375.059
426.71
422.588
416.844
410.171
369.203
308.535
245.399
192.301
157.91
146.128
370.849
315.31
230.721
145.827
89.5527
48.7007
21.6801
6.8506
2.0485
1.39153
115.582
50.7884
11.8228
1.18521
0.541265
0.251498
0.197722
0.14958
0.154296
0.174317
0.542719
0.10543
0.219615
0.175155
0.135662
0.125763
0.123848
0.150202
0.165627
0.174693
-0.0573827
-0.0359785
0.0345065
0.0570565
0.0730082
0.0887724
0.102992
0.131968
0.185068
0.243221
-0.0221609
-0.00974408
0.0254307
0.0394764
0.0492185
0.068427
0.0905542
0.106692
0.146512
0.174912
0.0106456
0.0118193
0.043181
0.0308701
0.0287644
0.0499395
0.071123
0.074496
0.0819878
0.0816073
0.021551
0.0194466
0.0507107
0.00695314
0.0108178
0.0323244
0.0453805
0.0355298
0.0283439
0.0147832
0.0256987
0.0383039
0.00138173
-0.0126625
-0.00303954
0.0188196
0.041285
0.000600653
-0.024986
-0.0500119
0.0381136
0.0126213
-0.0149476
-0.0256485
-0.0135697
0.0455738
0.102875
-0.0141752
-0.060131
-0.0915438
0.0293801
0.00683091
-0.0256536
-0.0323669
0.0231233
0.0856675
0.0677244
-0.0317718
-0.0671413
-0.0979341
0.0292844
0.00228586
-0.028848
0.00531002
0.0760017
0.0796197
-0.00862894
-0.0336268
-0.0583355
-0.085347
0.0284932
0.00117493
-0.00512783
0.0340273
0.0580526
0.0234918
-0.00653237
-0.0187981
-0.0417403
-0.0696271
396.998
396.551
395.8
394.77
393.598
392.424
391.395
390.618
390.204
390.195
397.429
396.926
396.094
394.919
393.584
392.243
391.08
390.218
389.729
389.699
398.31
397.699
396.686
395.228
393.548
391.843
390.38
389.261
388.613
388.513
399.756
398.948
397.581
395.668
393.447
391.114
389.175
387.716
386.816
386.613
402.187
401.032
399.109
396.426
393.392
390.051
387.23
385.086
383.56
383.214
405.256
403.784
400.987
396.951
392.349
387.65
383.77
380.84
378.594
377.743
410.502
408.252
404.503
399.422
393.062
385.499
376.892
367.149
361.69
360.969
418.11
413.118
400.017
360.369
303.858
224.746
156.402
118.756
102.734
100.532
268.515
190.986
111.766
60.5491
28.33
10.5881
0.870532
0.2401
0.242916
0.269884
28.561
4.14599
0.438897
0.201612
0.187023
0.17209
0.170886
0.17242
0.182024
0.188243
0.109058
0.185771
0.131242
0.132316
0.131683
0.120243
0.135207
0.162514
0.161607
0.163631
-0.00483059
0.0370429
0.0683102
0.0827081
0.0866937
0.0936882
0.108503
0.139736
0.160453
0.159475
0.00952062
0.039495
0.065624
0.0619239
0.0545098
0.0695607
0.089484
0.108637
0.120799
0.120856
0.0331272
0.0496209
0.0676685
0.0395493
0.023148
0.0453775
0.0684847
0.0782956
0.0745833
0.0762723
0.0445495
0.0732525
0.0477858
0.00962685
0.00355782
0.0277123
0.0470481
0.045781
0.0248973
0.0266757
0.0745474
0.0506338
0.0016123
-0.0159194
-0.00642054
0.0182441
0.0286186
0.0161149
-0.0194645
-0.0423985
0.0540791
0.0206642
-0.0102125
-0.0240795
-0.00967766
0.0264522
0.0252999
0.000203799
-0.0366086
-0.0833257
0.0430851
0.0181751
-0.0153454
-0.0209781
0.0310552
0.075559
0.0402915
0.000856115
-0.032008
-0.0672038
0.0445633
0.0244002
0.00583007
0.0124246
0.0570437
0.0621681
0.031008
0.0084875
-0.0181862
-0.0515113
0.0409176
0.0260465
0.0354932
0.0325256
0.0433284
0.039115
0.0329431
0.0184167
-0.0107614
-0.048943
395.265
394.843
394.112
393.131
392.029
390.948
390.029
389.383
389.076
389.168
395.509
395.028
394.202
393.086
391.827
390.588
389.571
388.842
388.482
388.545
396.026
395.433
394.408
392.996
391.391
389.821
388.558
387.649
387.19
387.256
396.904
396.119
394.751
392.838
390.61
388.505
386.854
385.634
384.985
385.037
398.381
397.334
395.463
392.833
389.801
386.687
384.123
382.384
381.413
381.358
400.025
398.657
395.859
391.767
387.179
382.641
380.003
377.911
376.503
376.245
403.976
401.611
397.725
392.462
385.958
377.502
366.406
357.526
352.855
353.59
388.988
384.184
353.519
301.062
234.701
165.028
125.196
105.316
97.7609
100.092
170.164
100.697
55.2096
24.4447
6.21949
0.464934
0.193244
0.211257
0.226001
0.224128
1.68748
0.370976
0.152393
0.172083
0.16875
0.165455
0.178653
0.154443
0.154352
0.16655
0.181142
0.127348
0.108009
0.120666
0.133834
0.127243
0.143542
0.137788
0.130205
0.146459
0.0469239
0.071156
0.0858345
0.0927767
0.102837
0.110761
0.1141
0.132909
0.128891
0.14017
0.0437579
0.0704566
0.0748703
0.0557816
0.0626827
0.0821231
0.0967417
0.108322
0.101135
0.135109
0.0541916
0.0862729
0.0825451
0.0317973
0.0184848
0.0558245
0.0716694
0.0785155
0.0599475
0.0735152
0.0625483
0.0928415
0.0665103
0.014523
-0.00503758
0.0274513
0.0476782
0.0527662
0.0235164
-0.0239905
0.092066
0.0540966
0.00963851
-0.0146725
-0.0106905
0.0174179
0.0389795
0.0427791
0.0131017
-0.039793
0.0797197
0.0354532
0.000213487
-0.0189519
-0.00668199
0.0259901
0.0467015
0.0498338
0.0251088
-0.0103799
0.0557676
0.0337671
-0.00123006
-0.0155129
0.00761166
0.0448021
0.0611897
0.0642734
0.0520794
0.039588
0.0540571
0.0419164
0.0344173
0.0202637
0.0323207
0.0595761
0.0722382
0.0650691
0.056875
0.0248991
0.0464965
0.0213509
0.139199
0.293516
0.193282
0.0608496
0.0553427
0.0461264
0.0193033
0.0039194
393.663
393.266
392.573
391.654
390.636
389.665
388.874
388.351
388.154
388.346
393.73
393.275
392.485
391.443
390.289
389.196
388.315
387.731
387.511
387.708
393.879
393.317
392.334
391.007
389.538
388.175
387.106
386.395
386.128
386.355
394.197
393.451
392.104
390.304
388.282
386.492
385.12
384.185
383.808
384.065
394.768
393.841
392.166
389.325
386.304
383.89
382.1
380.854
380.318
380.469
395.211
393.982
391.208
387.057
382.857
379.749
377.734
376.163
375.333
375.51
397.906
395.483
391.644
386.567
379.376
370.338
362.813
358.299
356.019
356.599
351.081
342.612
308.283
251.036
190.842
146.753
128.304
121.167
117.28
119.201
96.3101
52.9541
25.8999
9.06813
0.220235
0.218131
0.201876
0.180857
0.182937
0.19828
0.53021
0.127248
0.142269
0.157281
0.180722
0.171323
0.150254
0.136206
0.141274
0.163211
0.16607
0.128188
0.133389
0.127046
0.140176
0.13219
0.135587
0.123672
0.117161
0.135261
0.0828247
0.0998396
0.112845
0.122979
0.105346
0.098218
0.11301
0.117362
0.104747
0.0970681
0.071007
0.0890523
0.0838054
0.05805
0.0547296
0.0653322
0.0855838
0.0990716
0.0750103
0.0540611
0.0703323
0.115028
0.085935
0.026865
0.0101821
0.037991
0.0640672
0.074679
0.0541535
0.0140827
0.0715486
0.109268
0.0824545
0.0124319
-0.00998006
0.0176159
0.0450601
0.0644125
0.0579009
0.016083
0.104194
0.0620587
0.0347404
-0.00942137
-0.0130171
0.0136758
0.0440308
0.0803378
0.0875997
0.0607398
0.100978
0.0489293
0.018754
-0.00798571
-0.00220817
0.0344341
0.0747293
0.109654
0.118836
0.0972061
0.062129
0.0441191
0.14157
0.209095
0.167485
0.14185
0.181717
0.207023
0.214845
0.187375
0.0433374
0.0372886
0.254385
0.26751
0.288762
0.254719
0.057519
0.0726953
0.122817
0.161988
0.0221295
-0.000688884
0.0836341
0.255602
0.265036
0.150219
0.0256171
0.0355825
0.0273335
0.0445138
392.357
391.983
391.332
390.481
389.554
388.689
388.013
387.607
387.515
387.792
392.271
391.84
391.106
390.143
389.098
388.144
387.4
386.948
386.847
387.159
392.098
391.561
390.654
389.435
388.12
386.962
386.09
385.549
385.433
385.803
391.883
391.215
390.01
388.303
386.503
385.072
383.995
383.306
383.149
383.579
391.579
390.833
389.342
386.516
383.872
382.105
380.894
380.052
379.825
380.212
391.002
389.845
387.128
383.266
379.814
377.959
376.493
375.401
375.065
375.569
392.445
390.075
386.632
381.917
375.081
368.173
363.5
361.611
361.477
362.672
307.668
299.667
270.493
223.072
174.635
147.214
137.948
138.054
140.709
145.851
48.5097
23.7878
9.7353
2.42304
0.212904
0.193112
0.169477
0.157297
0.161248
0.182284
0.42148
0.150634
0.149118
0.164156
0.175382
0.158777
0.141434
0.129709
0.127964
0.146898
0.162495
0.158421
0.157195
0.162096
0.132477
0.129619
0.137425
0.123548
0.102999
0.107303
0.104679
0.138378
0.14274
0.189385
0.0969927
0.0948567
0.112979
0.118329
0.0915112
0.0690531
0.0856523
0.0957389
0.108968
0.130522
0.0393953
0.0592706
0.0782261
0.0925843
0.0789418
0.0452832
0.0768559
0.116959
0.112819
0.0291015
0.0142273
0.0338076
0.051899
0.0733941
0.0840554
0.0678683
0.0735854
0.117432
0.0990781
0.023042
0.00914835
0.021241
0.0383271
0.088435
0.125651
0.116554
0.100937
0.0697029
0.0631569
0.0969775
0.183898
0.201193
0.146109
0.172439
0.219263
0.141327
0.0880903
0.0423697
0.0580685
0.258952
0.287457
0.299301
0.331042
0.36222
0.328376
0.157943
0.0712273
0.0246525
0.0992115
0.278733
0.282367
0.289044
0.118281
0.0994443
0.121292
0.168873
0.0424843
-0.00253604
0.0193244
0.157351
0.236011
0.0377841
0.0120786
0.0398604
0.0407681
0.0660152
-0.000802833
-0.0287478
-0.0314544
-0.0312513
-0.057671
-0.0377871
-0.00728957
0.0185339
0.00332187
-0.0332212
391.481
391.121
390.509
389.719
388.871
388.081
387.496
387.174
387.164
387.518
391.279
390.862
390.178
389.291
388.352
387.521
386.869
386.508
386.499
386.879
390.867
390.334
389.491
388.386
387.248
386.268
385.533
385.108
385.102
385.543
390.183
389.561
388.45
386.907
385.478
384.337
383.435
382.913
382.894
383.408
389.018
388.378
387.147
384.754
382.926
381.504
380.42
379.688
379.611
380.192
387.277
386.348
383.781
381.098
378.985
377.429
376.217
375.298
375.259
376.095
388.124
385.882
383.232
378.761
373.362
368.039
364.023
363.08
364.998
368.171
266.505
263.402
246.642
208.992
171.095
149.183
141.255
144.728
157.626
176.369
21.698
8.56075
1.68783
0.223671
0.197124
0.169476
0.158603
0.155347
0.162532
0.186026
0.311535
0.171583
0.190873
0.171231
0.159892
0.147513
0.138751
0.133372
0.128331
0.150621
0.159481
0.171736
0.199796
0.221953
0.139634
0.122426
0.136241
0.135728
0.107989
0.111653
0.114028
0.131847
0.224416
0.236618
0.0792446
0.0906596
0.109673
0.120219
0.103884
0.113689
0.0911913
0.0978975
0.151279
0.150686
0.0443599
0.0606284
0.0690791
0.0884534
0.108724
0.158081
0.0753341
0.0933106
0.110917
0.0473497
0.035411
0.0414301
0.0404221
0.0808146
0.132995
0.18388
0.0672994
0.0953801
0.070625
0.108534
0.210546
0.234878
0.132854
0.127587
0.207364
0.185171
0.0632037
0.0565999
0.0593512
0.278419
0.292024
0.298909
0.308473
0.133818
0.119449
0.155708
0.0702738
0.0257509
0.026396
0.235662
0.275515
0.281843
0.0471895
0.0470864
0.0694734
0.237712
0.0563997
0.00444065
-0.0087766
0.0438602
0.173033
0.0912886
-0.0036293
0.0294586
0.0435008
0.0908005
0.0461005
-0.0146907
-0.0305997
-0.0422187
-0.0486888
-0.0385746
-0.012703
0.0153271
0.022012
0.0214721
0.0363501
-0.0255934
-0.0462007
-0.0522018
-0.0510618
-0.0400556
-0.0160291
0.028619
-0.0100218
-0.0362437
391.129
390.77
390.185
389.443
388.649
387.925
387.375
387.092
387.123
387.274
390.867
390.448
389.805
388.98
388.108
387.329
386.745
386.448
386.47
386.434
390.333
389.814
389.014
388.019
386.986
386.083
385.426
385.083
385.105
385.135
389.477
388.844
387.792
386.497
385.293
384.164
383.338
382.922
382.955
383.054
387.839
387.285
386.292
384.328
382.77
381.356
380.314
379.77
379.691
378.808
385.242
384.37
382.713
380.688
379.123
377.556
376.227
375.399
375.626
375.24
385.488
383.505
381.288
378.006
373.221
367.253
362.361
361.66
366.026
369.966
245.311
245.685
235.108
202.95
168.594
144.843
133.482
137.627
162.916
202.646
12.6345
3.74421
0.290192
0.247936
0.196762
0.16084
0.155709
0.166749
0.185641
0.211237
0.235835
0.191177
0.278036
0.224097
0.151439
0.140602
0.139479
0.144909
0.152534
0.175181
0.145793
0.181119
0.295287
0.264144
0.143556
0.120245
0.134842
0.144676
0.137463
0.14648
0.109391
0.138414
0.272034
0.240699
0.0769436
0.0956066
0.112198
0.1199
0.133067
0.169839
0.0848813
0.0989871
0.259594
0.188681
0.0627131
0.0688189
0.0709445
0.0969253
0.159565
0.178871
0.0672335
0.0713417
0.104008
0.141395
0.134843
0.173224
0.139158
0.181463
0.204506
0.131635
0.0547703
0.0500084
0.0446772
0.155826
0.306695
0.308252
0.314404
0.170995
0.119405
0.117592
0.038562
0.0354821
0.0215879
0.178008
0.281742
0.285871
0.269015
0.0390063
0.0685107
0.205037
0.0412505
0.0173946
-0.0019607
0.0282576
0.187839
0.244041
0.0582323
0.0136458
0.0374899
0.206036
0.0579494
0.00575185
-0.0151415
-0.0312375
-0.0426259
-0.0400949
-0.0217385
0.00472475
0.0250322
0.0640373
0.0548384
0.00419867
-0.0264462
-0.0385741
-0.0424832
-0.038317
-0.0162578
0.00111879
0.0228
0.0498446
0.0481646
0.00184285
-0.0395843
-0.0513733
-0.0496909
-0.0250214
0.030185
0.0284283
0.0613768
0.0663799
391.35
391.011
390.426
389.684
388.892
388.171
387.627
387.357
387.396
387.599
391.101
390.682
390.051
389.241
388.373
387.581
387.006
386.716
386.769
386.892
390.613
390.099
389.296
388.324
387.278
386.313
385.695
385.375
385.449
385.767
389.802
389.145
388.108
386.9
385.629
384.474
383.612
383.213
383.349
383.456
388.219
387.503
386.517
384.734
383.118
381.424
380.458
380.027
380.195
379.458
385.628
384.372
382.97
381.232
379.626
377.898
376.344
375.601
376.042
376.053
386.112
384.057
381.434
378.334
373.375
366.577
361.332
360.841
365.673
370.784
252.328
251.14
238.98
202.909
164.708
139.09
127.352
132.747
160.452
207.803
14.725
5.00123
0.388329
0.249093
0.199702
0.163656
0.163564
0.187173
0.216645
0.239977
0.225143
0.203678
0.290881
0.218506
0.147998
0.143523
0.149915
0.162892
0.182707
0.185774
0.135603
0.182351
0.286057
0.2583
0.126955
0.131316
0.144758
0.151551
0.164407
0.154459
0.0974998
0.134167
0.264603
0.227935
0.0902666
0.112469
0.118748
0.12433
0.15282
0.137276
0.0718696
0.0890562
0.24688
0.213351
0.0844064
0.113479
0.122065
0.108775
0.154401
0.118397
0.0538082
0.0603114
0.208077
0.27392
0.281105
0.324489
0.318928
0.151137
0.112355
0.0997647
0.0393499
0.0309647
0.0613862
0.26969
0.305514
0.30107
0.303813
0.246624
0.0721803
0.101078
0.0310678
0.0187525
0.00662774
0.0634379
0.142886
0.273048
0.278485
0.101843
0.0367371
0.123044
0.0289584
0.0139782
-0.00872187
-0.0251416
-0.0163837
0.030261
0.131515
-0.00141477
0.0143313
0.0336965
0.0311447
0.0147485
-0.0137967
-0.0334347
-0.0303396
-0.0317068
-0.036435
-0.0138396
0.0116874
0.0226599
0.0346111
0.0151593
-0.0193759
-0.0430738
-0.0463187
-0.0347962
-0.0158757
-0.00882941
0.0671817
0.0611869
0.0242451
0.0102263
-0.0249116
-0.0514222
-0.0609874
-0.0422786
0.0254031
0.0387474
0.151759
0.146019
392.098
391.743
391.145
390.384
389.569
388.819
388.249
387.95
387.978
388.337
391.932
391.511
390.842
390.003
389.106
388.288
387.667
387.31
387.368
387.771
391.622
391.059
390.218
389.214
388.123
387.137
386.415
386.007
386.089
386.599
391.116
390.395
389.317
387.997
386.573
385.294
384.351
383.876
384.026
384.737
390.01
389.148
387.814
386.114
384.276
382.398
381.161
380.579
380.828
381.998
387.949
386.384
384.836
382.729
380.549
378.421
376.761
375.832
376.21
378.211
389.711
387.04
383.551
380.403
375.149
366.67
359.554
357.923
362.864
370.635
283.041
279.918
259.812
215.65
167.506
135.027
119.259
121.89
146.591
189.106
28.958
14.3776
4.96413
0.288775
0.20506
0.175254
0.180634
0.209687
0.233719
0.259878
0.225241
0.199473
0.175039
0.16054
0.150513
0.149634
0.160766
0.180897
0.19766
0.195469
0.160393
0.241686
0.229996
0.186444
0.127081
0.139816
0.157035
0.160981
0.169861
0.154735
0.114174
0.215085
0.247224
0.136444
0.111459
0.130268
0.138045
0.131516
0.143001
0.127901
0.0489608
0.0668317
0.231176
0.184126
0.0935991
0.121419
0.158091
0.105843
0.127593
0.108331
0.0316869
0.0260222
0.216006
0.255434
0.172632
0.230938
0.316143
0.164532
0.078508
0.087556
0.0208158
0.00706119
0.0672148
0.23212
0.298905
0.256308
0.286205
0.281313
0.0399387
0.103072
0.0184543
0.00750563
-0.0212618
2.58992e-05
0.0358922
0.0652833
0.205942
0.0927102
0.0089191
0.0901747
0.0232149
0.0141804
-0.0151161
-0.0396053
-0.0433989
-0.0295268
-0.0321831
-0.0254175
-0.000990421
0.0225358
0.0284611
0.019922
-0.00828106
-0.04085
-0.0557965
-0.0454939
-0.0475349
-0.0298723
-2.51615e-06
0.0162673
0.0293088
0.021238
-0.00363507
-0.0380429
-0.0595168
-0.0647766
-0.0419958
-0.0199378
0.098859
0.0853012
0.0301738
0.017827
-0.00355198
-0.0357285
-0.0618858
-0.0690468
-0.0348421
0.0609527
0.166555
0.157041
393.32
392.95
392.321
391.515
390.646
389.843
389.221
388.869
388.801
389.076
393.283
392.85
392.138
391.237
390.272
389.384
388.705
388.342
388.259
388.575
393.229
392.654
391.777
390.661
389.465
388.382
387.57
387.147
387.116
387.499
393.172
392.407
391.212
389.762
388.154
386.724
385.635
385.071
385.108
385.709
392.958
391.974
390.359
388.442
386.348
384.093
382.567
381.81
381.872
382.922
391.85
390.259
388.24
385.583
382.625
380.125
378.207
376.946
376.948
378.651
394.948
391.941
388.146
384.077
379.5
370.564
361.729
356.892
359.81
367.697
329.643
325.138
297.087
245.466
185.426
144.078
122.361
115.1
132.453
168.087
60.0434
37.181
18.9785
5.52435
0.23145
0.199995
0.201215
0.229767
0.240745
0.257023
0.293113
0.222974
0.162893
0.143806
0.157126
0.154111
0.163389
0.190115
0.198605
0.196599
0.191281
0.244639
0.161625
0.0964109
0.105119
0.132466
0.153266
0.161468
0.161518
0.151708
0.125484
0.226166
0.234163
0.113024
0.105934
0.127949
0.146988
0.12994
0.123403
0.118199
0.024047
0.068935
0.20174
0.220853
0.110846
0.114271
0.147437
0.136236
0.122603
0.100231
0.00197847
-0.0103057
0.139885
0.231501
0.132996
0.09698
0.259002
0.259825
0.10288
0.0837856
-0.0103712
-0.0178266
-0.0370716
0.0602356
0.132892
0.053499
0.230855
0.240883
0.0538446
0.0986011
-0.0118199
-0.0164752
-0.0441657
-0.0634338
-0.0469297
-0.0157612
-0.00228535
-0.0194448
-0.0098254
0.0237069
-0.000218706
-0.00370038
-0.0296322
-0.0620437
-0.0754337
-0.0717122
-0.0603668
-0.0423205
-0.0178412
0.00932554
0.0158308
0.0137394
-0.0078646
-0.036419
-0.0390218
-0.0598626
-0.0758049
-0.0512067
-0.0179995
0.010068
0.0295827
0.0250947
0.0166764
-0.00644185
-0.00757878
-0.0392024
-0.0681446
-0.0364252
0.084083
0.121315
0.0354486
0.0354259
0.0225479
0.0117027
-0.00134098
-0.0420303
-0.0374336
0.0400471
0.167007
0.159368
394.907
394.517
393.849
392.983
392.035
391.142
390.419
389.956
389.792
389.989
395.032
394.579
393.823
392.846
391.78
390.785
389.986
389.483
389.318
389.536
395.303
394.716
393.779
392.56
391.219
389.998
389.032
388.447
388.296
388.568
395.811
394.983
393.717
392.084
390.218
388.674
387.39
386.645
386.469
386.872
396.527
395.476
393.73
391.529
389.155
386.537
384.709
383.714
383.479
384.195
396.757
395.323
392.935
389.699
386.227
383.01
380.792
379.295
378.858
379.972
400.888
398.056
394.229
389.675
384.8
378.035
369.428
363.124
362.543
367.999
377.805
373.061
343.107
292.648
229.117
173.888
142.359
128.205
135.652
162.538
110.775
81.2048
47.1739
17.8623
1.68429
0.242756
0.230423
0.24561
0.242931
0.245015
0.349838
0.223105
0.183627
0.151644
0.151883
0.158138
0.159623
0.19152
0.192223
0.185535
0.213852
0.188933
0.125353
0.0918555
0.102849
0.116079
0.13099
0.153306
0.147859
0.14324
0.211173
0.215451
0.185403
0.0817666
0.0776371
0.0989134
0.135616
0.154881
0.117752
0.105713
0.0276334
0.101368
0.184493
0.168603
0.112394
0.103504
0.120821
0.25024
0.135347
0.0853557
-0.0447706
-0.0477656
0.0271825
0.167163
0.14367
0.0527487
0.0691321
0.223392
0.20172
0.0825434
-0.0756355
-0.0793867
-0.0928412
-0.0686316
-0.0159974
-0.00938118
0.0156865
0.101713
0.117538
0.0765372
-0.0825302
-0.0918403
-0.10463
-0.123781
-0.116863
-0.0799766
-0.0204498
-0.00679757
-0.0277375
0.00499025
-0.0188606
-0.0300258
-0.0389915
-0.0858241
-0.104678
-0.141341
-0.108374
-0.076152
-0.0458579
-0.0109403
0.0855903
0.0584864
0.0186604
-0.0455182
-0.0830106
-0.0892185
-0.119769
-0.0869051
-0.038558
0.0725167
0.0698967
0.0796695
0.0756291
0.0260649
-0.0191724
-0.0438827
-0.0905139
-0.0574873
0.0690986
0.124017
0.0474346
0.0921935
0.124165
0.0851487
0.0440363
-0.0161992
-0.0382614
0.00810451
0.121444
0.091313
396.717
396.303
395.595
394.664
393.629
392.624
391.776
391.185
390.909
391.009
397.027
396.549
395.751
394.695
393.525
392.396
391.449
390.791
390.485
390.588
397.67
397.071
396.085
394.763
393.299
391.891
390.73
389.938
389.587
389.71
398.772
397.957
396.631
394.862
392.904
391.045
389.493
388.457
387.974
388.18
400.481
399.357
397.5
395.042
392.349
389.59
387.386
385.984
385.339
385.71
402.368
400.869
398.291
394.681
390.672
386.824
384.131
382.256
381.389
381.811
407.156
404.682
400.972
396.113
390.837
386.011
379.323
373.329
370.257
372.234
414.016
409.789
389.871
346.099
291.956
233.305
185.056
159.737
153.737
173.278
204.637
163.865
99.6066
43.6122
10.5993
0.380381
0.284641
0.272795
0.251277
0.243918
3.59342
0.710186
0.197729
0.144736
0.13826
0.143995
0.15578
0.192626
0.18869
0.17993
0.23055
0.134704
0.10719
0.0944734
0.0989923
0.0975886
0.10344
0.143372
0.149734
0.13251
0.215371
0.183289
0.0669455
0.0518061
0.054025
0.07066
0.0978402
0.167775
0.171226
0.0963678
0.124911
0.118999
0.0807176
0.0277889
0.0585002
0.054923
0.0744294
0.224268
0.189227
0.076309
-0.0810001
-0.0684266
-0.0507796
-0.0201226
0.0441227
0.0485074
0.0162912
0.119624
0.177405
0.116496
-0.129058
-0.124033
-0.124618
-0.120377
-0.0530764
0.0288747
-0.026574
-0.0385498
0.0498951
0.0827783
-0.12743
-0.132003
-0.156524
-0.17538
-0.161169
-0.0338945
0.0306345
0.0504874
0.0616762
0.0259278
0.00894607
-0.0850929
-0.134826
-0.175222
-0.193838
-0.134249
-0.0921493
-0.0747815
-0.0157819
0.167995
0.157451
0.0140437
-0.0720559
-0.12409
-0.157851
-0.166248
-0.143622
-0.113905
-0.0407987
0.190834
0.226263
0.16493
0.0281002
-0.0516331
-0.0827966
-0.107046
-0.0957729
-0.0738142
0.0798782
0.0890157
0.144219
0.199902
0.147417
0.0626729
-0.0147212
-0.0434265
-0.0316374
-0.0129452
0.0487629
0.0185428
398.584
398.141
397.4
396.406
395.287
394.174
393.197
392.472
392.072
392.062
399.081
398.576
397.754
396.624
395.354
394.094
392.994
392.177
391.715
391.682
400.092
399.474
398.487
397.071
395.488
393.919
392.551
391.537
390.957
390.87
401.774
400.931
399.625
397.755
395.683
393.601
391.783
390.432
389.62
389.566
404.434
403.158
401.319
398.727
395.879
392.99
390.432
388.572
387.381
386.885
407.873
406.286
403.705
399.909
395.779
391.59
387.924
385.438
383.911
383.083
413.726
411.316
407.706
402.628
397.082
391.686
387.094
382.766
379.406
378.707
422.741
418.649
412.433
396.426
352.259
302.463
250.709
207.977
186.306
190.353
327.551
285.179
197.021
98.763
37.4427
8.97421
1.05971
0.328735
0.282775
0.269141
58.9073
23.8193
3.02989
0.312123
0.197415
0.123987
0.147685
0.193078
0.185559
0.183315
0.116379
0.0957378
0.0885022
0.101479
0.0930012
0.0797768
0.0849568
0.146965
0.186678
0.131461
0.0482277
0.0263539
0.0195741
0.0391274
0.0420639
0.0398696
0.0500561
0.1247
0.211659
0.116602
0.0111305
-0.00917947
-0.0383125
-0.00437198
0.0121142
0.015213
0.0304483
0.104842
0.182765
0.125979
-0.0946594
-0.0909212
-0.093791
-0.0588178
-0.0254751
0.00504972
-0.00310208
0.00599572
0.121347
0.137577
-0.127883
-0.138514
-0.126119
-0.102301
-0.0638206
-0.0197855
-0.0448685
-0.0442197
-0.0343746
0.0247315
-0.0816474
-0.13091
-0.133693
-0.132869
-0.11245
-0.0350641
-0.0226039
0.041533
0.146529
0.176272
0.099083
-0.0934013
-0.106143
-0.125755
-0.130439
-0.0938546
0.0882634
0.11679
0.133738
0.158201
0.176073
-0.0450487
-0.0611516
-0.0883765
-0.108564
-0.120191
-0.0608534
0.0610687
0.129942
0.151227
0.252998
0.00931935
-0.0206492
-0.0472462
-0.0607557
-0.07248
-0.0742954
-0.0764484
0.0407403
0.176442
0.27445
0.0668571
0.0104459
-0.016105
-0.0187523
-0.0176439
-0.00939013
-0.00673446
-0.00488423
0.0156636
400.33
399.857
399.102
398.054
396.861
395.655
394.569
393.723
393.211
393.1
400.992
400.451
399.654
398.453
397.1
395.731
394.501
393.543
392.949
392.793
402.286
401.626
400.78
399.271
397.591
395.887
394.358
393.158
392.39
392.141
404.458
403.55
402.465
400.542
398.351
396.117
394.091
392.498
391.443
391.084
407.959
406.693
404.842
402.196
399.361
396.35
393.61
391.433
389.943
389.35
412.937
411.282
408.767
404.587
400.647
396.414
392.451
389.228
387.044
386.005
420.267
417.8
414.008
408.674
403.167
397.442
392.37
388.124
385.002
383.453