/*--------------------------------*- C++ -*----------------------------------*\
| =========                 |                                                 |
| \\      /  F ield         | OpenFOAM: The Open Source CFD Toolbox           |
|  \\    /   O peration     | Version:  2312                                  |
|   \\  /    A nd           | Website:  www.openfoam.com                      |
|    \\/     M anipulation  |                                                 |
\*---------------------------------------------------------------------------*/
FoamFile
{
    version     2.0;
    format      ascii;
    arch        "LSB;label=32;scalar=64";
    class       surfaceScalarField;
    location    "1";
    object      phi;
}
// * * * * * * * * * * * * * * * * * * * * * * * * * * * * * * * * * * * * * //

dimensions      [0 3 -1 0 0 0 0];

oriented        oriented;

internalField   nonuniform List<scalar> 
22600
(
-7.61667e-08
1.70627e-07
-9.44602e-08
-1.06113e-07
1.69788e-07
-1.39842e-07
-1.04923e-07
1.56373e-07
-1.57563e-07
-1.21059e-07
1.42118e-07
-1.25982e-07
-1.48318e-07
1.3009e-07
-1.02831e-07
-1.75193e-07
1.24437e-07
-9.75619e-08
-1.92431e-07
1.19383e-07
-1.02145e-07
-1.89057e-07
1.09079e-07
-1.12452e-07
-1.58041e-07
9.15806e-08
-1.22596e-07
7.23294e-08
-1.35722e-07
-1.20076e-07
4.46864e-07
-1.56161e-07
-1.85584e-07
4.29482e-07
-1.94185e-07
-2.03399e-07
4.08568e-07
-2.3438e-07
-2.23404e-07
3.75334e-07
-2.13212e-07
-2.49085e-07
3.19272e-07
-1.63502e-07
-2.66848e-07
2.80818e-07
-1.38617e-07
-2.6626e-07
2.53006e-07
-1.34211e-07
-2.41446e-07
2.19958e-07
-1.35693e-07
-1.85498e-07
1.69416e-07
-1.33784e-07
1.1655e-07
-1.35139e-07
-4.10058e-08
5.90172e-07
-1.02302e-07
-1.27429e-07
5.36911e-07
-2.10053e-08
-2.12932e-07
6.20696e-07
-1.26625e-07
-2.42932e-07
6.18459e-07
-2.13124e-07
-2.55649e-07
5.38732e-07
-2.06743e-07
-2.70884e-07
4.59066e-07
-1.63013e-07
-2.84446e-07
4.03669e-07
-1.37101e-07
-2.89033e-07
3.4064e-07
-1.16095e-07
-2.41394e-07
1.96994e-07
-7.52161e-08
3.44998e-11
-2.82765e-08
1.06973e-07
5.08012e-07
-2.48134e-08
-3.22829e-08
4.01227e-07
2.7494e-07
-2.40314e-07
6.78662e-07
1.50066e-07
-3.17486e-07
7.64307e-07
-6.86763e-08
-3.22271e-07
7.16096e-07
-1.72579e-07
-3.53944e-07
6.46202e-07
-1.55463e-07
-4.25027e-07
5.75696e-07
-1.00945e-07
-4.66524e-07
4.06187e-07
-2.40491e-08
-3.43909e-07
-2.07483e-08
9.51273e-08
-3.93726e-07
1.77592e-07
3.73895e-07
1.00701e-08
1.24047e-07
1.6546e-07
9.49379e-08
5.14725e-07
-2.74443e-07
7.26762e-07
3.91803e-07
-5.08008e-07
8.49688e-07
1.48183e-07
-5.57421e-07
7.89303e-07
-2.37933e-08
-5.92769e-07
7.19425e-07
-3.7875e-08
-6.15657e-07
5.92594e-07
5.98905e-09
-5.24145e-07
2.2702e-07
8.76554e-08
-3.16591e-07
-3.61208e-07
1.32905e-07
-6.5623e-07
7.00444e-08
2.63895e-07
-6.70849e-07
4.17024e-07
-4.66765e-08
-2.14598e-07
6.20107e-07
-5.00089e-07
6.33828e-07
5.46347e-07
-7.305e-07
7.23162e-07
3.56936e-07
-7.35292e-07
6.44745e-07
1.49351e-07
-6.61336e-07
5.88034e-07
5.74362e-08
-5.28075e-07
4.5122e-07
8.1128e-09
-3.35442e-07
9.52863e-08
-6.08993e-08
-1.89257e-07
-3.55454e-07
-1.51939e-07
-5.03365e-07
-1.9979e-07
-2.20552e-07
-9.09849e-07
4.59552e-07
-4.58743e-07
-3.43757e-07
3.6735e-07
-7.24483e-07
2.85839e-07
6.13728e-07
-8.1254e-07
4.69909e-07
3.41311e-07
-6.90931e-07
6.1853e-07
-9.53936e-08
-5.21933e-07
7.8268e-07
-3.63644e-07
-3.92212e-07
7.77484e-07
-4.55986e-07
-3.39954e-07
5.31991e-07
-4.88963e-07
-3.62554e-07
1.85265e-07
-5.18119e-07
-1.19994e-08
-5.18093e-07
-3.07194e-07
-5.29544e-07
-7.31107e-08
-4.78931e-07
3.66296e-08
-2.08649e-07
-7.13015e-07
4.78182e-07
4.17406e-08
-7.33811e-07
7.9603e-07
-3.05325e-07
-7.3722e-07
1.27181e-06
-6.49868e-07
-9.36502e-07
1.61129e-06
-6.29334e-07
-1.20045e-06
1.56808e-06
-5.26653e-07
-1.32823e-06
1.22168e-06
-5.61912e-07
-1.16746e-06
7.31e-07
-7.06509e-07
3.91638e-07
-8.37792e-07
-8.75227e-08
-2.68651e-08
-4.15156e-07
1.11997e-08
6.43957e-07
-7.0605e-07
-1.33078e-07
1.08143e-06
-4.58969e-07
-5.10249e-07
1.56424e-06
-3.91042e-07
-1.17659e-06
2.06937e-06
-1.31215e-07
-2.0506e-06
2.23778e-06
2.47517e-07
-2.59002e-06
1.67564e-06
4.31861e-07
-2.48596e-06
6.56281e-07
4.61348e-07
-1.85114e-06
-4.08735e-07
5.04916e-07
-9.99854e-07
5.87421e-07
2.40829e-07
-2.99495e-07
3.18006e-08
9.7858e-07
3.35151e-07
-4.28944e-07
1.44108e-06
7.19632e-07
-1.007e-07
1.1588e-06
1.30742e-06
5.39096e-07
5.66953e-07
1.376e-06
1.28521e-06
-5.04264e-08
8.61138e-07
1.99402e-06
-5.45799e-07
6.92834e-08
2.10173e-06
-1.20181e-06
8.66439e-07
4.4585e-07
-1.45207e-06
2.32556e-07
-3.91028e-07
-4.35901e-07
-4.18932e-07
1.03426e-06
-3.05057e-06
1.71682e-06
2.76779e-06
-2.86149e-06
1.46311e-06
3.90064e-06
-2.05959e-06
1.64637e-06
5.09957e-06
-1.84101e-06
1.9495e-06
2.87043e-06
2.29016e-06
1.31499e-06
-8.10312e-07
3.09858e-06
1.44329e-06
-2.61062e-06
1.23021e-06
6.39376e-07
-2.08234e-06
2.17601e-09
3.35988e-07
-1.53978e-06
-8.52176e-07
5.42179e-07
-1.92405e-06
8.90765e-07
-1.22224e-06
-2.5312e-06
7.02873e-07
-1.56012e-06
-2.00659e-06
-5.17012e-07
-1.94576e-06
-3.92219e-07
-1.28173e-06
-3.56123e-06
1.76732e-06
-1.99285e-06
-4.45156e-06
4.38833e-06
-1.20784e-06
-4.44438e-06
3.14837e-06
-5.69586e-08
-3.79305e-06
2.35108e-07
3.43766e-07
-3.29646e-06
-1.36583e-06
8.71411e-07
-3.02525e-06
-2.89465e-06
1.77129e-06
-4.32779e-06
2.61246e-06
-1.75251e-06
9.85661e-07
-1.76437e-06
-2.57656e-06
2.14999e-06
-3.33251e-06
-3.73799e-06
4.31339e-06
-3.54418e-06
-5.17912e-06
6.32983e-06
-3.12137e-06
-5.56613e-06
6.49651e-06
-1.72118e-06
-4.557e-06
2.86454e-06
-7.25295e-07
-4.22193e-06
-8.70353e-07
7.70391e-07
-4.96935e-06
-2.31852e-06
1.70009e-06
-6.48522e-06
-4.19391e-06
2.81514e-06
-5.60309e-06
2.94078e-06
-1.56873e-06
4.10907e-06
-1.55468e-06
-2.32618e-06
6.52308e-06
-3.61565e-06
-3.31839e-06
8.35008e-06
-3.04449e-06
-4.43691e-06
9.59874e-06
-2.15041e-06
-4.44994e-06
7.63961e-06
-1.13007e-06
-3.97019e-06
2.16749e-06
2.17291e-07
-5.3773e-06
-1.14857e-06
1.68533e-06
-7.78169e-06
-2.62446e-06
2.71033e-06
-1.06723e-05
-4.23591e-06
2.93265e-06
-5.31267e-06
1.37886e-06
-1.03853e-06
5.04932e-06
9.82697e-08
-1.82432e-06
9.70457e-06
-2.39569e-06
-2.71797e-06
1.09659e-05
-1.72222e-06
-3.42643e-06
1.10694e-05
-7.62169e-07
-3.29154e-06
7.41748e-06
8.72421e-08
-3.78858e-06
1.25364e-06
1.41088e-06
-6.6497e-06
-8.35398e-07
2.54795e-06
-1.04064e-05
-2.05711e-06
3.1893e-06
-1.34529e-05
-3.11866e-06
1.92927e-06
-3.91524e-06
-7.92173e-07
-6.08581e-07
4.52924e-06
1.12868e-06
-1.34229e-06
1.15759e-05
-1.13762e-06
-2.06817e-06
1.22425e-05
-5.50705e-07
-2.46626e-06
1.09723e-05
4.95124e-07
-2.40982e-06
6.1301e-06
1.23093e-06
-3.96328e-06
7.47976e-07
2.05913e-06
-7.62576e-06
-3.70649e-07
3.19773e-06
-1.18799e-05
-9.16087e-07
3.11312e-06
-1.43222e-05
-1.36586e-06
6.89445e-07
-2.21211e-06
-1.81009e-06
-5.32008e-07
4.27235e-06
7.88884e-07
-7.66445e-07
1.19804e-05
-1.7005e-07
-1.20475e-06
1.22859e-05
3.94953e-07
-1.45056e-06
9.9325e-06
1.28564e-06
-1.8582e-06
4.62859e-06
1.90914e-06
-4.40147e-06
8.13435e-07
2.4778e-06
-8.44961e-06
1.06756e-07
3.57073e-06
-1.23996e-05
2.56917e-07
2.77702e-06
-1.39765e-05
4.33142e-07
-2.2213e-07
-4.15717e-07
-2.33511e-06
-5.80695e-07
4.6842e-06
1.6885e-07
-1.77477e-07
1.11703e-05
4.06866e-07
-2.529e-07
1.15084e-05
8.52949e-07
-5.25459e-07
8.5903e-06
1.61475e-06
-1.80714e-06
3.72613e-06
2.18414e-06
-5.17048e-06
1.2804e-06
2.89637e-06
-9.28517e-06
7.88733e-07
3.43272e-06
-1.22032e-05
1.21126e-06
1.96372e-06
-1.2925e-05
1.60238e-06
-4.4746e-07
1.0968e-06
-2.11711e-06
-5.24203e-07
5.45457e-06
-2.46168e-07
3.66148e-07
1.0052e-05
2.27963e-07
5.066e-07
1.04283e-05
9.39587e-07
-7.07791e-08
7.32622e-06
1.84146e-06
-1.9109e-06
3.32053e-06
2.24571e-06
-5.61441e-06
1.88976e-06
3.09416e-06
-9.42764e-06
1.5612e-06
3.04075e-06
-1.1564e-05
1.99427e-06
1.35331e-06
-1.19261e-05
2.4608e-06
-4.9635e-07
2.21805e-06
-1.5773e-06
-2.07951e-07
-4.61909e-07
6.12442e-06
6.70769e-07
-1.69296e-07
9.34254e-06
5.85712e-07
1.03415e-06
9.47921e-06
-2.56686e-07
1.97118e-06
6.19744e-06
-2.26874e-06
2.22079e-06
3.11179e-06
-5.80365e-06
3.00873e-06
2.41594e-06
-9.15523e-06
2.67149e-06
2.24129e-06
-1.08385e-05
9.74528e-07
2.70307e-06
-1.10645e-05
-5.59672e-07
3.24641e-06
-1.20708e-06
3.06492e-06
-1.1913e-07
1.62964e-07
-1.38295e-07
-1.15767e-07
1.02365e-08
-1.53441e-07
-3.63986e-08
-5.11591e-08
-1.85773e-07
-1.45116e-08
1.76653e-08
-1.65534e-07
-2.88142e-08
5.49934e-08
-1.43521e-07
-5.53723e-08
6.73537e-08
-1.38357e-07
-7.95815e-08
6.55133e-08
-1.43449e-07
-9.46216e-08
5.72438e-08
-1.54656e-07
-9.80491e-08
4.5361e-08
-1.6453e-07
2.14985e-08
-1.77542e-07
-1.50645e-07
4.05715e-07
-2.48268e-07
-6.11424e-08
-1.30834e-07
-1.42618e-07
2.67519e-08
-1.81469e-07
-1.91964e-07
-4.99069e-09
8.58066e-08
-2.4961e-07
-6.35764e-08
1.7895e-07
-2.28872e-07
-1.10329e-07
1.78296e-07
-2.02806e-07
-1.33595e-07
1.49602e-07
-1.95035e-07
-1.37765e-07
1.21341e-07
-1.9562e-07
-1.21644e-07
8.80802e-08
-1.92623e-07
2.96911e-08
-1.8847e-07
6.73373e-08
4.62621e-07
-2.26545e-07
2.82816e-07
-5.0703e-07
1.39712e-07
3.09413e-07
-4.21883e-07
8.71931e-08
1.7172e-07
1.85849e-07
-1.75474e-07
3.09421e-08
3.80717e-07
-2.67732e-07
-4.89766e-08
3.43128e-07
-2.47927e-07
-8.80659e-08
2.69505e-07
-2.17914e-07
-1.13442e-07
2.3042e-07
-1.99798e-07
-1.24961e-07
1.91191e-07
-1.66807e-07
5.91973e-08
-1.1503e-07
3.47771e-07
2.61565e-07
-1.71528e-07
4.76177e-07
-7.83521e-07
4.23025e-07
2.81789e-07
-4.28079e-07
3.5065e-07
1.15624e-07
3.05763e-07
-2.24256e-08
6.14219e-09
5.68644e-07
-2.51025e-07
-6.77438e-08
5.38155e-07
-2.76605e-07
-1.50133e-07
4.69705e-07
-2.18756e-07
-2.40801e-07
4.43413e-07
-1.46374e-07
-2.55804e-07
3.47036e-07
-4.57149e-08
5.87877e-09
7.34381e-08
4.41724e-07
-2.72293e-08
-2.8883e-08
2.95511e-07
-7.25483e-07
6.029e-07
-1.12429e-07
-7.25752e-08
4.44239e-07
-2.56285e-07
5.00437e-07
9.73662e-08
-2.7586e-07
7.25285e-07
-1.60859e-07
-2.90694e-07
6.89535e-07
-1.74421e-07
-3.12712e-07
5.9463e-07
-9.69174e-08
-2.73786e-07
5.17222e-07
-2.50797e-08
-1.61251e-07
3.4139e-07
2.60159e-08
-7.63928e-08
6.00266e-08
1.53092e-07
4.00516e-08
1.9665e-07
-2.27753e-07
-2.74988e-07
5.50456e-07
-5.11813e-07
2.63134e-07
4.94698e-07
-5.9092e-07
7.09555e-07
2.26925e-07
-5.24308e-07
8.17161e-07
-9.13798e-09
-3.87085e-07
7.11406e-07
-1.01658e-07
-1.95277e-07
5.93695e-07
-1.82759e-07
2.48702e-08
4.84389e-07
-2.48214e-07
1.51586e-07
3.31653e-07
-2.68918e-07
1.26701e-07
-2.64886e-07
1.30609e-08
4.02963e-07
8.35798e-08
-4.07284e-07
4.22462e-07
9.02462e-08
-5.8942e-07
6.86932e-07
3.72065e-07
-5.67737e-07
9.83263e-07
4.59197e-08
-4.54264e-07
1.09422e-06
-4.8592e-07
-3.34727e-07
1.1273e-06
-8.99079e-07
-2.21448e-07
1.07361e-06
-1.04918e-06
-1.06379e-07
8.86513e-07
-1.00615e-06
-6.26429e-08
6.64702e-07
-8.94904e-07
5.12868e-07
-8.39773e-07
4.63588e-08
9.38131e-07
-6.54638e-07
-4.193e-07
1.19496e-06
-5.1549e-07
-6.98957e-07
1.40945e-06
-4.01116e-07
-8.20026e-07
1.7646e-06
-9.65592e-07
-8.93886e-07
1.98067e-06
-1.46246e-06
-1.02937e-06
2.12226e-06
-1.48881e-06
-1.08819e-06
1.95087e-06
-1.3451e-06
-9.69224e-07
1.57655e-06
-1.37091e-06
-7.20723e-07
1.25725e-06
-1.54755e-06
1.07674e-06
-1.69443e-06
4.83224e-08
1.30653e-06
-8.31876e-07
-3.43103e-07
1.80496e-06
-9.2462e-07
-4.57531e-07
2.11107e-06
-1.04616e-06
-5.92359e-07
2.56179e-06
-1.05341e-06
-9.11029e-07
2.65852e-06
-4.90396e-07
-1.39732e-06
2.63238e-06
2.23699e-07
-1.59891e-06
1.77832e-06
8.06001e-07
-1.39942e-06
6.14981e-07
1.22343e-06
-1.11416e-06
-7.33523e-08
1.55026e-06
-3.74267e-07
1.75187e-06
3.77754e-07
1.21469e-07
8.39106e-07
3.91261e-07
7.4486e-07
6.17646e-07
6.92693e-07
1.06202e-06
6.46918e-07
7.61646e-07
1.06419e-06
1.96775e-06
9.25952e-07
-4.13899e-07
4.19332e-06
9.97256e-07
-4.09829e-07
4.96493e-06
-6.75526e-07
3.2698e-06
2.28303e-06
-1.96422e-06
1.54691e-06
8.02618e-07
-2.47337e-06
2.07156e-08
2.4084e-08
-9.04241e-07
-3.77202e-08
1.71604e-06
-6.04046e-06
6.16271e-06
3.71892e-06
-7.25487e-06
7.45995e-06
4.73167e-06
-4.21593e-06
5.91156e-06
3.96612e-06
1.2926e-06
2.48665e-06
-9.43988e-08
2.66645e-06
2.29516e-06
-3.73421e-06
3.12738e-06
1.54589e-06
-3.32555e-06
1.99257e-06
1.50794e-06
-3.35114e-06
-1.12189e-08
1.91969e-06
-3.12085e-06
-1.53494e-06
1.86756e-06
-3.17835e-06
2.54139e-06
-6.45057e-07
-4.39906e-06
-2.93477e-07
-2.31592e-06
-3.93639e-06
-2.16468e-06
-2.05172e-06
-4.84552e-07
-5.27733e-06
-2.65653e-06
3.55315e-06
-3.64861e-06
-4.30306e-06
5.20016e-06
-2.09502e-06
-4.27286e-06
4.16055e-06
-1.12033e-06
-3.36542e-06
9.29916e-07
4.98965e-07
-3.92065e-06
-9.38852e-07
2.35426e-06
-4.86528e-06
-2.68141e-06
3.8624e-06
-3.91971e-06
4.3082e-06
-1.11374e-06
1.5783e-07
-5.20752e-06
-2.7434e-06
1.29537e-06
-6.9346e-06
-3.12701e-06
2.86456e-06
-6.50968e-06
-3.27511e-06
5.53116e-06
-4.95128e-06
-3.61088e-06
6.88892e-06
-3.07417e-06
-3.14229e-06
4.38695e-06
-1.42029e-06
-3.20733e-06
3.00337e-07
1.465e-06
-5.02874e-06
-8.68935e-07
3.45158e-06
-7.69698e-06
-1.84617e-06
4.64816e-06
-1.96621e-06
3.42067e-06
-1.9812e-08
2.83068e-06
-4.20773e-06
-1.30553e-06
4.57006e-06
-5.60464e-06
-2.35208e-06
5.2465e-06
-4.3799e-06
-2.97429e-06
7.1366e-06
-3.13365e-06
-3.09338e-06
7.36276e-06
-1.48482e-06
-2.96233e-06
3.73766e-06
7.35521e-07
-4.52941e-06
7.20372e-08
3.48071e-06
-7.00148e-06
-4.22319e-07
4.73577e-06
-9.88418e-06
-5.87504e-08
4.02792e-06
5.9171e-07
4.67435e-07
7.29487e-07
3.7176e-06
-1.51815e-06
-7.2938e-07
6.80839e-06
-3.17516e-06
-2.16019e-06
7.19255e-06
-2.23745e-06
-2.81103e-06
8.27033e-06
-1.24507e-06
-2.59499e-06
7.13646e-06
9.75028e-08
-2.99116e-06
2.76812e-06
2.77659e-06
-5.56189e-06
2.56715e-07
4.93399e-06
-8.41435e-06
6.08567e-07
5.01087e-06
-1.07722e-05
2.07398e-06
2.15433e-06
2.5516e-06
-1.69554e-06
1.10374e-06
3.6911e-06
5.14378e-08
-3.23252e-07
8.52571e-06
-1.42795e-06
-1.73103e-06
8.88325e-06
-8.33636e-07
-1.94544e-06
8.87994e-06
9.99192e-08
-1.67523e-06
6.55214e-06
1.54505e-06
-3.20641e-06
2.17577e-06
4.18265e-06
-6.52398e-06
9.95196e-07
5.77681e-06
-9.52289e-06
2.20796e-06
4.51264e-06
-1.13278e-05
3.80907e-06
7.59266e-07
3.24282e-06
-2.35958e-06
5.96029e-07
3.74841e-06
1.35562e-07
1.58819e-07
9.37346e-06
-5.80598e-07
-5.05352e-07
9.95131e-06
-8.94338e-09
-3.60766e-07
8.91781e-06
1.10318e-06
-1.04753e-06
5.96368e-06
3.18436e-06
-3.87518e-06
2.12442e-06
5.35679e-06
-7.37133e-06
2.04082e-06
6.02125e-06
-9.44349e-06
3.57191e-06
3.48522e-06
-1.019e-05
4.5446e-06
-2.11148e-07
3.24642e-06
-2.88026e-06
-1.87004e-07
4.43782e-06
-3.33574e-07
9.70064e-07
9.17317e-06
-5.49912e-07
1.2115e-06
9.97523e-06
5.87593e-07
6.4283e-07
8.79035e-06
2.31087e-06
-1.33647e-06
5.49358e-06
4.63354e-06
-4.79138e-06
2.42031e-06
6.05539e-06
-7.58106e-06
2.83105e-06
5.43216e-06
-8.39811e-06
4.21951e-06
2.13317e-06
-8.17739e-06
4.86428e-06
-9.8787e-07
3.38506e-06
-3.03004e-06
-3.74723e-07
5.44955e-06
-8.83171e-07
1.51524e-06
8.41843e-06
-9.07252e-07
1.76366e-06
9.47785e-06
1.18852e-06
4.3483e-07
8.36314e-06
3.59751e-06
-2.20035e-06
4.83497e-06
5.5395e-06
-5.40865e-06
2.88015e-06
5.84262e-06
-6.97474e-06
3.36566e-06
4.07223e-06
-6.66734e-06
4.45506e-06
8.10382e-07
-5.93624e-06
5.15476e-06
-1.51792e-06
4.03404e-06
-2.90623e-06
-1.06998e-07
-1.37758e-06
6.47222e-06
1.22074e-06
-1.13314e-06
8.05452e-06
7.24922e-07
1.91299e-06
9.09484e-06
-1.26813e-06
4.67966e-06
7.64771e-06
-3.78858e-06
5.51158e-06
4.06464e-06
-5.91011e-06
4.79669e-06
3.21372e-06
-6.03227e-06
2.5017e-06
3.65762e-06
-4.77074e-06
-4.63514e-07
4.63157e-06
-3.57227e-06
-2.1716e-06
5.56821e-06
-3.1161e-06
5.24524e-06
-1.38532e-07
1.41531e-07
-1.41295e-07
-1.46316e-07
-7.55167e-08
-7.01401e-08
-5.03556e-08
-1.92529e-07
-8.92034e-08
-3.47185e-08
-5.76279e-08
-1.23543e-07
-5.74303e-08
1.97595e-08
-1.40569e-07
-8.76079e-08
4.38826e-08
-1.52062e-07
-1.09216e-07
3.96173e-08
-1.61458e-07
-1.1902e-07
2.47638e-08
-1.69616e-07
-1.16924e-07
4.20052e-09
-1.70826e-07
-3.36178e-08
-1.72207e-07
-2.02734e-07
3.60911e-07
-2.64913e-07
-1.12127e-07
-2.77723e-07
-3.10184e-08
4.43016e-08
-5.18873e-07
-2.2049e-08
6.0142e-09
-1.24556e-07
-1.44395e-07
-7.79013e-08
8.28673e-08
-2.08064e-07
-1.34612e-07
1.19879e-07
-2.22093e-07
-1.58722e-07
9.31089e-08
-2.24416e-07
-1.54885e-07
4.9733e-08
-2.24426e-07
-1.29787e-07
-1.00757e-09
-2.12512e-07
-6.68486e-08
-2.00973e-07
-9.06183e-08
5.22148e-07
-2.97164e-07
1.90479e-07
-5.91708e-07
1.72599e-07
3.72932e-07
-8.47533e-07
2.33401e-07
2.64072e-07
-1.70413e-07
-2.0756e-08
6.55735e-08
2.14858e-07
-2.01225e-07
-5.85935e-08
2.5044e-07
-2.54321e-07
-1.1029e-07
1.85884e-07
-2.58993e-07
-1.24148e-07
1.24008e-07
-2.60214e-07
-1.23582e-07
8.07518e-08
-2.49134e-07
4.05642e-09
-2.28536e-07
1.15965e-07
5.69742e-07
-3.35087e-07
3.77265e-07
-6.80364e-07
2.50381e-07
4.21202e-07
-8.48767e-07
3.07947e-07
3.12603e-07
-8.11856e-08
-3.05522e-09
1.25201e-07
3.73624e-07
-2.22387e-07
-2.44273e-08
4.29979e-07
-3.06516e-07
-1.20016e-07
3.67498e-07
-3.04781e-07
-1.83585e-07
3.2156e-07
-2.80358e-07
-1.98984e-07
2.95635e-07
-2.45199e-07
1.86736e-07
-2.11397e-07
2.62301e-07
6.96628e-07
-4.1807e-07
3.19223e-07
-2.37976e-07
1.0359e-07
1.27612e-07
-3.64416e-07
1.51499e-07
4.6964e-08
2.21584e-07
-1.24756e-07
-4.89801e-08
5.68119e-07
-2.59411e-07
-1.04427e-07
5.8756e-07
-2.76556e-07
-1.51276e-07
5.63437e-07
-2.46007e-07
-2.19865e-07
6.21873e-07
-2.56803e-07
-2.55438e-07
6.51143e-07
-2.9392e-07
4.50532e-07
-3.14732e-07
2.84007e-07
1.00378e-06
-3.9451e-07
1.59365e-07
4.43676e-07
-6.55392e-09
-1.24578e-07
3.7714e-07
3.70847e-08
-2.19255e-07
6.95701e-07
-1.52515e-07
-1.95509e-07
8.10513e-07
-2.75278e-07
-1.50761e-07
8.23253e-07
-3.82099e-07
-1.4888e-07
8.802e-07
-5.01403e-07
-1.55555e-07
9.54512e-07
-5.74179e-07
-1.45787e-07
9.71028e-07
-5.98572e-07
7.97117e-07
-6.4058e-07
3.0014e-07
1.21942e-06
-4.32203e-07
-6.80395e-08
1.0652e-06
-1.63098e-07
-3.44604e-07
1.13788e-06
-1.12111e-07
-3.6977e-07
1.23928e-06
-4.72495e-07
-3.71793e-07
1.30592e-06
-9.793e-07
-4.74459e-07
1.45008e-06
-1.42324e-06
-5.58453e-07
1.50607e-06
-1.59105e-06
-4.90466e-07
1.3973e-06
-1.51693e-06
-3.16068e-07
1.25475e-06
-1.35303e-06
1.10638e-06
-1.29116e-06
2.42986e-08
1.53729e-06
-9.96801e-07
-4.56585e-07
1.67319e-06
-6.42592e-07
-8.30873e-07
1.96575e-06
-8.54697e-07
-1.15544e-06
2.21447e-06
-1.61621e-06
-1.45229e-06
2.30186e-06
-2.16154e-06
-1.67993e-06
2.36286e-06
-2.17395e-06
-1.75024e-06
2.24059e-06
-2.00931e-06
-1.56166e-06
1.92801e-06
-2.09021e-06
-1.15942e-06
1.69297e-06
-2.38802e-06
1.61177e-06
-2.64308e-06
-4.56614e-07
1.88853e-06
-7.26509e-07
-7.79599e-07
1.92415e-06
-8.526e-07
-8.44895e-07
2.41378e-06
-1.4289e-06
-1.05494e-06
3.02852e-06
-1.65741e-06
-1.27577e-06
2.93674e-06
-9.04443e-07
-1.46513e-06
2.56176e-06
2.1416e-07
-1.55646e-06
1.39414e-06
1.74378e-06
-1.37919e-06
-7.63452e-07
3.73762e-06
-1.34777e-06
-2.28318e-06
5.49499e-06
-2.44381e-06
5.53365e-06
3.46159e-08
4.03816e-07
2.28921e-06
1.08599e-07
2.50062e-07
2.21775e-06
5.2081e-07
-1.30488e-07
2.77897e-06
6.93632e-07
-1.32414e-06
6.14759e-06
1.26818e-06
8.43142e-07
5.71237e-06
-7.96624e-07
5.07474e-06
4.51674e-06
-2.43956e-06
2.23348e-06
3.08662e-06
-3.13978e-06
-1.07656e-06
1.81593e-06
-4.10543e-06
-1.64835e-06
3.54886e-07
-2.18419e-06
-5.62802e-07
1.56111e-06
-3.54488e-06
8.5503e-06
2.34519e-06
1.16961e-06
5.75631e-06
2.30666e-06
3.5858e-06
2.23382e-06
4.54835e-07
3.34656e-06
-3.32224e-07
-1.32786e-06
4.50964e-06
4.11351e-07
-2.19577e-06
6.03746e-06
1.45108e-06
-2.96412e-06
2.47001e-06
2.03976e-06
-4.01577e-06
-3.20624e-07
2.21539e-06
-4.31094e-06
-1.30799e-06
1.82237e-06
-2.83626e-06
2.66541e-06
-1.69519e-06
-7.16572e-07
-1.42658e-06
-2.59751e-06
2.78012e-06
-2.87286e-06
-1.95051e-06
2.83344e-06
-5.17199e-06
-7.04518e-07
2.90222e-06
-4.45029e-06
-2.3338e-07
4.42147e-06
-2.47799e-06
-7.05757e-08
5.4463e-06
-6.91978e-07
-8.33129e-07
2.57692e-06
1.1546e-06
-3.01783e-06
6.81029e-07
3.53729e-06
-4.71797e-06
-9.15577e-07
5.17012e-06
-2.30685e-06
4.91399e-06
-1.01827e-06
6.98613e-07
-5.60442e-06
-1.51759e-06
2.85268e-06
-6.50786e-06
-1.14496e-06
1.64057e-06
-5.68944e-06
-4.83861e-07
1.37413e-06
-4.08429e-06
4.74867e-08
2.79307e-06
-1.97713e-06
2.65602e-07
3.9349e-06
-1.27003e-07
-1.66663e-07
2.25608e-06
2.21811e-06
-2.26327e-06
1.86211e-06
4.3671e-06
-5.15106e-06
1.10269e-06
5.51769e-06
5.81677e-07
2.86187e-06
8.16398e-07
6.64155e-07
-4.98969e-06
4.35148e-07
2.60991e-06
-4.9806e-06
2.38609e-07
1.22332e-06
-3.76611e-06
2.41202e-08
1.05711e-06
-2.60214e-06
-2.29404e-07
2.22625e-06
-6.6447e-07
-2.88047e-07
3.14958e-06
1.57949e-06
-9.47407e-07
2.20185e-06
4.19431e-06
-2.70799e-06
2.92883e-06
5.42963e-06
-5.0737e-06
3.16888e-06
4.32745e-06
3.41365e-06
-2.14304e-07
1.05047e-06
4.71688e-07
-2.37614e-06
7.29448e-07
2.39965e-06
-2.64389e-06
9.20187e-07
1.65184e-06
-2.85671e-06
7.07746e-07
1.79697e-06
-1.77249e-06
-2.93059e-08
3.12672e-06
-6.59125e-08
-5.12661e-07
3.29961e-06
3.10991e-06
-1.6651e-06
2.32457e-06
5.9637e-06
-3.41341e-06
3.88066e-06
5.80734e-06
-5.86196e-06
5.33671e-06
2.43506e-06
5.92814e-06
-1.9081e-06
2.67261e-07
9.73749e-07
-7.17896e-07
9.98148e-07
2.48892e-06
-2.24809e-06
1.59803e-06
2.34903e-06
-2.13071e-06
1.08333e-06
3.25139e-06
-8.39796e-07
2.04863e-07
4.34881e-06
1.20142e-06
-7.45323e-07
3.36324e-06
5.06921e-06
-2.5023e-06
2.72468e-06
7.13368e-06
-4.15578e-06
4.84201e-06
5.20476e-06
-6.11089e-06
7.11215e-06
9.3894e-07
7.42757e-06
-2.17252e-06
-1.59573e-07
1.92671e-06
-6.57822e-07
1.48918e-06
2.52655e-06
-2.26697e-06
2.07162e-06
3.32406e-06
-1.56643e-06
1.08238e-06
4.89502e-06
4.48796e-07
1.14863e-08
5.05661e-06
3.54745e-06
-1.52349e-06
3.19089e-06
7.06412e-06
-3.30983e-06
3.31238e-06
7.21988e-06
-4.35437e-06
5.5317e-06
3.84007e-06
-5.16946e-06
7.88628e-06
-1.70181e-07
7.81536e-06
-2.55816e-06
-2.50313e-07
3.1229e-06
-1.27945e-06
1.40235e-06
3.0597e-06
-2.73574e-06
1.69152e-06
4.48875e-06
-8.66273e-07
5.65688e-07
5.9397e-06
2.39201e-06
-1.07362e-06
5.21164e-06
6.11783e-06
-2.60327e-06
3.02951e-06
7.74641e-06
-3.50486e-06
3.65159e-06
5.99453e-06
-3.57302e-06
5.52888e-06
2.20415e-06
-3.39888e-06
7.79594e-06
-1.07169e-06
7.63784e-06
-3.15545e-06
-3.62654e-07
4.42033e-06
-1.81796e-06
3.47249e-07
4.11938e-06
-2.67683e-06
2.80012e-07
5.33588e-06
4.08626e-07
-1.07527e-06
6.37947e-06
4.51302e-06
-2.42647e-06
4.78476e-06
7.31757e-06
-3.30499e-06
3.12291e-06
6.62774e-06
-2.98565e-06
3.62985e-06
3.77463e-06
-2.05453e-06
5.09446e-06
3.1368e-07
-1.1696e-06
7.24873e-06
-1.85565e-06
7.51256e-06
-3.77381e-06
-6.76484e-07
-1.90763e-06
5.62687e-06
-9.30991e-07
-1.92024e-06
5.16098e-06
-1.84817e-06
1.93885e-06
6.2272e-06
-3.0276e-06
5.79503e-06
6.44352e-06
-3.78262e-06
6.6197e-06
4.43168e-06
-3.41286e-06
4.22866e-06
3.32119e-06
-1.71596e-06
9.77733e-07
3.45691e-06
-1.88101e-08
-1.62475e-06
4.55855e-06
1.27217e-06
-2.82469e-06
6.61084e-06
-4.39077e-06
7.53698e-06
-1.06728e-07
1.22474e-07
-1.5704e-07
-1.29199e-07
8.64663e-10
-4.85335e-08
-8.28662e-08
-6.24608e-08
-7.3076e-08
-7.63345e-08
-1.27736e-08
-1.17302e-07
-9.63655e-08
2.78863e-08
-1.48424e-07
-1.21524e-07
4.03887e-08
-1.67292e-07
-1.36958e-07
3.34975e-08
-1.79522e-07
-1.37734e-07
1.74716e-08
-1.86312e-07
-1.27126e-07
-4.3891e-09
-1.77045e-07
-3.09336e-08
-1.70867e-07
-1.81264e-07
3.1526e-07
-2.76435e-07
-1.95423e-07
3.77233e-08
-5.37177e-08
-9.46207e-08
-1.3642e-07
-4.88921e-08
-9.79186e-08
-3.77539e-09
-1.50095e-07
-1.40626e-07
7.77244e-08
-2.15195e-07
-1.75948e-07
9.29263e-08
-2.39308e-07
-1.86393e-07
6.41406e-08
-2.44614e-07
-1.65329e-07
1.36053e-08
-2.41624e-07
-1.30038e-07
-3.4981e-08
-2.17211e-07
-8.14652e-08
-1.91448e-07
-1.76905e-07
5.06479e-07
-3.11478e-07
-9.52039e-08
6.29507e-08
6.56711e-08
6.59305e-08
-2.04839e-07
1.40685e-07
4.01855e-08
4.29326e-08
-4.1719e-08
-5.49103e-08
1.70519e-07
-1.98923e-07
-1.34388e-07
1.81487e-07
-2.63404e-07
-1.73334e-07
1.29473e-07
-2.85379e-07
-1.7505e-07
5.45698e-08
-2.99462e-07
-1.50047e-07
-4.74433e-09
-3.04374e-07
-5.45138e-08
-3.13061e-07
-5.88486e-08
6.38078e-07
-4.07837e-07
9.10499e-08
1.47792e-07
1.56406e-08
2.05847e-07
-1.48444e-07
1.36755e-07
1.53162e-07
1.35567e-07
-4.30042e-08
2.08249e-08
3.01038e-07
-2.20569e-07
-1.00012e-07
3.17812e-07
-3.22004e-07
-1.87692e-07
2.63606e-07
-3.51233e-07
-2.34836e-07
1.82453e-07
-3.61096e-07
-2.26138e-07
1.42699e-07
-4.01341e-07
1.08887e-07
-4.92728e-07
9.88849e-08
7.89317e-07
-6.68194e-07
1.9055e-07
4.29243e-07
-2.69525e-07
1.6587e-07
1.70805e-07
-1.4307e-07
8.54401e-08
3.52354e-07
-2.61113e-07
1.75058e-08
4.43031e-07
-3.3347e-07
-4.23909e-08
4.68886e-07
-3.67734e-07
-1.51061e-07
5.31164e-07
-4.04895e-07
-2.96029e-07
5.35225e-07
-4.64607e-07
-3.47685e-07
4.77951e-07
-5.77516e-07
3.66361e-07
-7.48185e-07
1.54159e-07
9.98889e-07
-7.58241e-07
1.13215e-07
8.10795e-07
-3.47162e-07
-3.3211e-08
6.6329e-07
-3.08976e-07
-7.61446e-08
7.06212e-07
-4.6344e-07
-5.68697e-08
7.22826e-07
-5.74348e-07
-8.61914e-08
8.32365e-07
-7.16256e-07
-1.84758e-07
9.53855e-07
-8.25526e-07
-2.98427e-07
9.56935e-07
-8.82221e-07
-3.20492e-07
8.59553e-07
-9.58109e-07
6.93893e-07
-1.1474e-06
4.29956e-08
1.26057e-06
-7.36878e-07
-2.72221e-07
1.28039e-06
-3.17477e-07
-4.54518e-07
1.21523e-06
-4.81751e-07
-5.17678e-07
1.21984e-06
-9.22962e-07
-6.13877e-07
1.2969e-06
-1.45717e-06
-7.84626e-07
1.455e-06
-1.87512e-06
-8.8871e-07
1.51496e-06
-2.04807e-06
-8.16608e-07
1.39042e-06
-2.02251e-06
-5.6478e-07
1.16176e-06
-1.90707e-06
9.10082e-07
-1.83408e-06
-4.56133e-07
1.79096e-06
-1.07106e-06
-9.03396e-07
1.90049e-06
-8.15428e-07
-1.24666e-06
2.00598e-06
-1.30219e-06
-1.68815e-06
2.18263e-06
-2.13752e-06
-2.08242e-06
2.19857e-06
-2.66895e-06
-2.28762e-06
2.16705e-06
-2.68081e-06
-2.39505e-06
2.34697e-06
-2.73389e-06
-2.33972e-06
2.53463e-06
-3.28975e-06
-1.88592e-06
2.17019e-06
-3.85024e-06
1.65152e-06
-4.09102e-06
-9.58148e-07
2.43765e-06
-4.15051e-07
-1.30881e-06
2.17729e-06
-7.78736e-07
-1.41442e-06
2.49564e-06
-1.81294e-06
-1.58507e-06
2.94792e-06
-2.25204e-06
-1.60292e-06
2.59656e-06
-1.28458e-06
-1.33462e-06
1.23472e-06
8.78188e-07
-1.55403e-06
-1.72842e-07
4.48299e-06
-2.22323e-06
3.08059e-06
3.86085e-06
-2.181e-06
5.24778e-06
2.37517e-06
5.68797e-06
1.10116e-06
-1.37562e-07
6.05811e-07
4.25861e-06
1.03991e-07
-8.32792e-07
4.98628e-06
4.32219e-07
3.92935e-06
1.01703e-06
1.70773e-06
6.27123e-06
1.54876e-06
6.6997e-07
5.35542e-06
3.99126e-06
-2.48045e-06
4.24994e-06
4.65195e-06
-4.38026e-06
1.2029e-06
3.61069e-06
-4.60292e-06
2.81973e-06
2.29945e-06
-4.58872e-06
4.31749e-06
1.27095e-06
3.37509e-06
1.00222e-06
-4.81728e-07
1.95025e-06
7.68759e-06
-1.73441e-06
3.38766e-06
2.78853e-06
-7.07974e-07
6.35074e-06
-1.21401e-06
7.37305e-07
5.51931e-06
-1.02559e-06
1.14407e-06
5.58067e-06
-2.20664e-07
-8.93948e-07
5.6406e-06
2.09843e-06
-4.02164e-06
2.8927e-06
3.47766e-06
-5.06448e-06
1.25765e-06
4.82029e-06
-5.29773e-06
1.4286e-06
4.94451e-06
-7.08715e-08
5.5378e-06
-1.86459e-06
2.84338e-06
-4.55122e-07
-2.2345e-06
3.92745e-06
-3.04273e-06
-4.74742e-07
3.10321e-06
-3.68423e-06
1.08561e-06
2.4216e-06
-2.91294e-06
2.1032e-06
3.36938e-06
-1.28429e-06
1.78551e-06
4.51593e-06
7.50385e-07
-2.7005e-07
3.61243e-06
2.49044e-06
-3.13912e-06
2.29079e-06
5.37323e-06
-4.61912e-06
1.15504e-06
6.92368e-06
2.73293e-08
5.32982e-06
-5.38135e-07
1.93055e-06
-4.15346e-06
-9.80415e-08
1.96299e-06
-4.9835e-06
1.19718e-06
-2.86756e-07
-3.59471e-06
2.00139e-06
2.45714e-07
-2.71261e-06
1.95733e-06
2.12905e-06
-6.92753e-07
1.6465e-06
3.49105e-06
1.20871e-06
1.08975e-06
3.6398e-06
2.74748e-06
-1.14568e-06
3.82181e-06
5.07151e-06
-3.8366e-06
3.28484e-06
6.07881e-06
2.70694e-06
1.95626e-06
6.01546e-07
3.75882e-07
-4.03657e-06
8.72116e-07
-4.19622e-07
-2.86857e-06
1.55327e-06
-1.49144e-06
-3.24258e-06
1.55858e-06
4.11754e-07
-2.77349e-06
7.73507e-07
2.70864e-06
-4.58982e-07
5.06802e-07
3.59212e-06
1.74512e-06
8.10297e-07
3.83887e-06
3.69174e-06
-7.97816e-07
5.29215e-06
5.56739e-06
-3.82105e-06
5.74653e-06
4.889e-06
5.15699e-06
2.42083e-07
9.08823e-08
-4.20747e-07
-1.67041e-06
5.42089e-07
-1.4729e-06
-2.04182e-06
8.77356e-07
-8.11818e-07
-3.8716e-06
1.74546e-07
1.72039e-06
-2.37832e-06
-6.41696e-07
3.91939e-06
-4.60419e-07
-9.18786e-08
4.13457e-06
2.01764e-06
4.42422e-07
4.1854e-06
5.08286e-06
-1.16604e-06
6.58987e-06
6.11809e-06
-4.4962e-06
7.87061e-06
3.64115e-06
6.84585e-06
-5.18913e-07
-4.73993e-07
-8.59346e-08
-5.78701e-07
6.24947e-08
-9.88378e-07
-3.2691e-06
-2.34176e-07
5.81135e-07
-3.22701e-06
-1.14914e-06
3.20295e-06
-1.40739e-06
-1.2221e-06
4.65876e-06
5.35014e-07
-2.24669e-07
4.39619e-06
3.81016e-06
-1.7836e-07
4.49979e-06
6.77297e-06
-1.62162e-06
7.43784e-06
5.80004e-06
-4.33564e-06
9.15076e-06
2.3728e-06
7.60552e-06
-1.23512e-06
-8.3872e-07
8.79086e-07
-7.84125e-07
-5.59102e-07
5.09003e-08
-3.58587e-06
-8.81919e-07
1.61595e-06
-2.27843e-06
-1.5927e-06
3.80011e-06
5.62417e-07
-1.27469e-06
4.57835e-06
3.30984e-06
-5.64515e-07
4.17912e-06
6.571e-06
-8.45098e-07
4.79771e-06
7.20252e-06
-1.7503e-06
7.80568e-06
4.37743e-06
-3.06855e-06
9.51698e-06
7.81832e-07
7.53142e-06
-2.61074e-06
-1.36248e-06
2.13889e-06
-1.17677e-06
-1.62535e-06
9.14874e-07
-3.33684e-06
-1.70824e-06
2.00425e-06
-1.17169e-06
-2.01116e-06
3.7259e-06
2.76915e-06
-1.90264e-06
4.28024e-06
6.30742e-06
-1.4125e-06
3.86973e-06
7.56566e-06
-1.21158e-06
5.00701e-06
5.58431e-06
-1.18302e-06
7.80039e-06
2.18089e-06
-1.06162e-06
9.30035e-06
-9.76466e-07
7.43418e-06
-4.41683e-06
-1.97565e-06
3.42072e-06
-1.12413e-06
-2.93969e-06
1.83146e-06
-2.62937e-06
-3.16419e-06
2.65127e-06
-1.38894e-08
-3.09734e-06
3.97478e-06
4.1973e-06
-2.69347e-06
4.23078e-06
6.96316e-06
-1.89724e-06
3.9318e-06
5.76944e-06
-8.49602e-07
5.13557e-06
2.59844e-06
2.06852e-08
7.42641e-06
-1.82614e-07
1.37955e-06
8.84522e-06
-2.75938e-06
7.74299e-06
-5.7475e-06
-2.60159e-06
-5.40464e-07
4.65513e-06
-4.21831e-06
-1.50154e-06
3.02948e-06
-4.47969e-06
8.95386e-07
3.95611e-06
-3.86514e-06
4.10095e-06
5.05433e-06
-2.71889e-06
4.63549e-06
5.06875e-06
-1.23195e-06
1.81613e-06
4.85738e-06
5.6038e-07
-1.24695e-06
5.56791e-06
2.10137e-06
-2.98177e-06
7.24244e-06
3.73908e-06
-4.19941e-06
8.58222e-06
-6.03134e-06
8.30018e-06
-8.69616e-08
1.05468e-07
-1.75547e-07
-1.12356e-07
3.2953e-08
-5.60927e-08
-1.01264e-07
4.05746e-09
-8.82255e-08
-1.06653e-07
1.70393e-08
-1.28951e-07
-1.25817e-07
2.89471e-08
-1.58208e-07
-1.45688e-07
3.02969e-08
-1.77718e-07
-1.5554e-07
2.21276e-08
-1.91798e-07
-1.48099e-07
7.6634e-09
-2.01415e-07