/*--------------------------------*- C++ -*----------------------------------*\
| =========                 |                                                 |
| \\      /  F ield         | OpenFOAM: The Open Source CFD Toolbox           |
|  \\    /   O peration     | Version:  2312                                  |
|   \\  /    A nd           | Website:  www.openfoam.com                      |
|    \\/     M anipulation  |                                                 |
\*---------------------------------------------------------------------------*/
FoamFile
{
    version     2.0;
    format      ascii;
    arch        "LSB;label=32;scalar=64";
    class       volVectorField;
    location    "1";
    object      U;
}
// * * * * * * * * * * * * * * * * * * * * * * * * * * * * * * * * * * * * * //

dimensions      [0 1 -1 0 0 0 0];

internalField   nonuniform List<vector> 
8000
(
(-0.00252072 0.00261825 -0.0030308)
(-0.00424513 0.0025463 -0.00475319)
(-0.00400162 0.00233999 -0.00492963)
(-0.00441643 0.00213619 -0.00384359)
(-0.00544529 0.0021782 -0.00312368)
(-0.00662343 0.00225467 -0.00295253)
(-0.00749353 0.0022394 -0.00309258)
(-0.00780341 0.00204957 -0.00343398)
(-0.00719539 0.00175126 -0.00379774)
(-0.00516662 0.00149365 -0.00420135)
(-0.00411629 0.0116476 -0.00503615)
(-0.00662526 0.0115402 -0.00882473)
(-0.00747735 0.0108497 -0.00907753)
(-0.00853048 0.00983683 -0.00675836)
(-0.00970981 0.00862197 -0.00480065)
(-0.0106206 0.00794501 -0.00415857)
(-0.0108602 0.00748716 -0.00411694)
(-0.0103317 0.00683121 -0.00420731)
(-0.00881777 0.00562756 -0.00419526)
(-0.00571332 0.00411292 -0.00432357)
(-0.00182872 0.022568 -0.00329294)
(-0.00236815 0.020712 -0.00777631)
(-0.00705956 0.020031 -0.0108071)
(-0.00929405 0.0193805 -0.00849084)
(-0.0103713 0.016924 -0.00607827)
(-0.0108091 0.0146515 -0.00449989)
(-0.0111967 0.0128126 -0.00389853)
(-0.0116168 0.0106763 -0.00337691)
(-0.0113252 0.00789614 -0.00208173)
(-0.00738141 0.00551251 -0.000692234)
(0.0030494 0.0219665 -0.000221257)
(0.00437896 0.019399 -0.00287781)
(-0.00667163 0.0271452 -0.00708392)
(-0.012006 0.0281843 -0.00594414)
(-0.0132437 0.0255433 -0.00526659)
(-0.013432 0.0222751 -0.00379703)
(-0.0154134 0.0200566 -0.00225789)
(-0.0186846 0.0175227 0.000451526)
(-0.0181335 0.00889661 0.00422587)
(-0.00911788 -0.00557419 0.00495747)
(0.012491 0.0172477 0.00276166)
(0.0160122 0.0126028 0.00457516)
(-0.00332967 0.027364 0.000314951)
(-0.0183808 0.0323927 0.00139966)
(-0.0225011 0.0309478 0.000676256)
(-0.0229664 0.0285655 0.0007149)
(-0.0245747 0.0249438 0.00195738)
(-0.0250541 0.0131325 0.00382751)
(-0.018008 -0.0108705 0.00237477)
(-0.00591034 -0.0276782 -0.00288871)
(0.0163332 -0.0164027 0.0168539)
(0.0055512 -0.00373679 0.017192)
(-0.0107392 0.031058 0.00726197)
(-0.0285449 0.0352897 0.0087609)
(-0.0313002 0.0308162 0.00606116)
(-0.0284745 0.0268639 0.00402413)
(-0.0244207 0.0196509 0.00293085)
(-0.0180911 0.00185731 -0.00148659)
(-0.00927632 -0.0207917 -0.0105618)
(-0.00473683 -0.027434 -0.014823)
(-0.000699108 -0.0404815 0.024597)
(-0.0163968 -0.0151744 0.0204983)
(-0.022644 0.0164576 0.0185383)
(-0.034656 0.0207758 0.011247)
(-0.0321106 0.0213467 -0.000963787)
(-0.0245243 0.0231405 -0.00721241)
(-0.0177315 0.0203702 -0.00889653)
(-0.0128575 0.00847699 -0.0131447)
(-0.0134297 -0.00570987 -0.0195981)
(-0.0154614 -0.0108379 -0.0217556)
(-0.00696312 -0.031352 0.00970018)
(-0.0172491 -0.0113795 -0.000134989)
(-0.0241665 0.0060739 0.00872583)
(-0.0308632 0.015678 -0.00436827)
(-0.0293238 0.0283633 -0.0139161)
(-0.0335365 0.0413373 -0.0110593)
(-0.0429137 0.0439476 -0.00783584)
(-0.0508187 0.0349092 -0.00999731)
(-0.0519059 0.0211122 -0.0154383)
(-0.0406133 0.0107655 -0.0200842)
(-0.00429725 -0.014875 -0.00400843)
(-0.00200067 0.00909476 -0.0238731)
(0.00236348 0.029564 -0.00881197)
(-0.0101135 0.049495 -0.00669518)
(-0.0335616 0.078287 -0.00182932)
(-0.0691617 0.0916756 0.00732426)
(-0.0966712 0.0825354 0.00930354)
(-0.102779 0.0651382 0.00526355)
(-0.0875815 0.0465249 0.000437283)
(-0.0598707 0.0312604 -0.00171024)
(-0.00275796 0.0210885 -0.0119732)
(0.0203007 0.0584201 -0.0408096)
(0.0544668 0.0785902 -0.0257698)
(0.0589141 0.0989784 -0.00304673)
(0.0276221 0.104974 0.014271)
(0.00427493 0.0947702 0.0244528)
(-0.0199571 0.0657398 0.0174852)
(-0.0267151 0.0120474 -0.00282437)
(-0.0340088 -0.0581582 -0.0298912)
(-0.060317 -0.0817483 -0.0266847)
(0.0120433 -0.0314203 0.00473832)
(0.0668961 -0.00550154 -0.0292636)
(0.136279 0.0136167 -0.0355947)
(0.157813 0.0475022 -0.0158271)
(0.179682 0.0484064 0.00499348)
(0.0614339 0.0216722 0.0193696)
(-0.0925917 -0.0115399 -0.00451697)
(-0.0975661 0.0335039 -0.00818644)
(-0.0790121 0.0473909 -0.0027867)
(-0.0483489 0.0199472 0.00167504)
(-0.0135377 -0.236048 0.0911645)
(-0.0634227 -0.230227 0.0136929)
(-0.0619863 -0.16064 -0.0459888)
(-0.141548 -0.13062 -0.0700894)
(-0.119301 0.109533 -0.0130037)
(-0.204365 0.135553 0.00160541)
(-0.16637 0.03607 0.00199804)
(-0.140033 -0.0398132 0.0125032)
(-0.125379 -0.091096 0.0330223)
(-0.124451 -0.139696 0.0547533)
(-0.0328923 -0.00196415 -0.012504)
(-0.102104 0.0343376 -0.106564)
(-0.122686 0.100643 -0.112076)
(-0.179003 0.159741 -0.0803163)
(-0.228804 0.222231 -0.0346946)
(-0.205828 0.134877 -0.013094)
(-0.15051 -0.0183563 0.0160572)
(-0.180191 -0.0727297 0.0361995)
(-0.220834 -0.146728 0.0605289)
(-0.305171 -0.210315 0.055295)
(-0.0246029 0.107088 -0.0156723)
(-0.0878932 0.176368 -0.119364)
(-0.115899 0.257977 -0.0985916)
(-0.155199 0.326235 -0.0602319)
(-0.19719 0.288152 -0.0312153)
(-0.147102 0.104028 0.00273586)
(-0.163795 -0.0453252 0.0360107)
(-0.253576 -0.106777 0.0557969)
(-0.378598 -0.183414 0.0441068)
(-0.484249 -0.242067 -0.00778696)
(-0.0145252 0.191876 0.0293553)
(-0.059011 0.322749 -0.0881781)
(-0.0981756 0.391791 -0.0648801)
(-0.126074 0.428048 -0.0322157)
(-0.147642 0.312996 -0.0110444)
(-0.101646 0.0648989 0.0298855)
(-0.189694 -0.043087 0.0535569)
(-0.340338 -0.101937 0.052308)
(-0.506491 -0.158766 -0.0070125)
(-0.581278 -0.190756 -0.0834181)
(-0.0151027 0.196464 0.0432197)
(-0.0320049 0.439389 -0.0468553)
(-0.0775116 0.479017 -0.0284775)
(-0.0963456 0.454396 -0.00677076)
(-0.0976776 0.279265 0.0142034)
(-0.0825467 0.0366302 0.0457607)
(-0.218419 -0.0250281 0.0640639)
(-0.403518 -0.0635652 0.0394084)
(-0.561947 -0.092596 -0.0450189)
(-0.597838 -0.122791 -0.120154)
(-0.0283824 0.173317 0.0248468)
(-0.0143626 0.491162 -0.0100133)
(-0.0465993 0.503157 -0.00263641)
(-0.0589361 0.423494 0.0133572)
(-0.0476018 0.213841 0.0390033)
(-0.0904026 0.028727 0.0519684)
(-0.254077 -0.00738711 0.066677)
(-0.441207 -0.0140295 0.0276855)
(-0.563051 -0.0177166 -0.0567167)
(-0.568383 -0.0521805 -0.118808)
(-0.0393269 0.175417 -0.000519883)
(-0.00538586 0.472621 0.00416821)
(-0.00944771 0.481286 0.00590604)
(-0.0151267 0.370632 0.0276487)
(-0.0172374 0.162988 0.0502693)
(-0.118199 0.0377434 0.0579159)
(-0.301303 0.0167571 0.0561595)
(-0.458481 0.0324815 0.00476488)
(-0.526875 0.0459724 -0.0511584)
(-0.519213 0.0185265 -0.0927972)
(-0.0387433 0.199689 -0.0151934)
(-0.000739256 0.422024 0.00151908)
(0.0226402 0.43786 0.0108345)
(0.0169377 0.318025 0.0422287)
(-0.016383 0.137549 0.0451637)
(-0.13822 0.0606296 0.0621751)
(-0.319516 0.0467651 0.0501918)
(-0.447132 0.0661494 0.000351807)
(-0.485255 0.0854686 -0.0373599)
(-0.474448 0.070257 -0.0551378)
(-0.0249684 0.23363 -0.0151606)
(0.00710194 0.378177 -0.000746317)
(0.0371571 0.394933 0.024926)
(0.0199798 0.271893 0.0468991)
(-0.0345005 0.121538 0.0384725)
(-0.154708 0.0863078 0.0679671)
(-0.315743 0.0785024 0.0580457)
(-0.424665 0.0966252 0.0127893)
(-0.447652 0.116318 -0.0195254)
(-0.438058 0.108175 -0.0276323)
(-0.00419118 0.00245325 -0.00535814)
(-0.00622853 -0.000317948 -0.00751872)
(-0.0026059 -0.00126684 -0.00875957)
(-0.000534186 -0.000479674 -0.00710809)
(-0.000739195 0.000499996 -0.00576686)
(-0.00180267 0.000982229 -0.00536263)
(-0.00281594 0.00110272 -0.00549128)
(-0.00351829 0.00104128 -0.0059357)
(-0.0039941 0.000968103 -0.00641629)
(-0.00364937 0.000758009 -0.00707043)
(-0.00783196 0.0108381 -0.00889455)
(-0.00547412 0.00142914 -0.00835363)
(0.00118824 -0.00278219 -0.0114357)
(0.000956892 0.00218513 -0.0116347)
(-0.00158577 0.00408449 -0.00924444)
(-0.00390936 0.0045163 -0.00767213)
(-0.00512413 0.00419772 -0.00725249)
(-0.00551863 0.00364836 -0.0072625)
(-0.00541323 0.00281227 -0.00717095)
(-0.00411599 0.00106048 -0.00715606)
(-0.00683346 0.0194861 -0.0064742)
(0.0111599 -0.013028 0.00510316)
(0.0133635 -0.0122509 -0.000955245)
(0.0104406 0.00482445 -0.0103418)
(0.00330648 0.0106516 -0.0117186)
(-0.00110429 0.0100437 -0.00955514)
(-0.00311183 0.00800889 -0.00789362)
(-0.00401148 0.00615616 -0.006822)
(-0.00517777 0.00410636 -0.00493483)
(-0.00456823 0.00108194 -0.00233371)
(-0.000133858 0.0152217 -0.0026072)
(0.0252488 -0.0295534 0.0222597)
(0.0140159 -0.0236035 0.0172628)
(0.00810765 0.0080351 -0.00115518)
(0.00162895 0.0189892 -0.010183)
(-0.0016927 0.0176309 -0.0100666)
(-0.00435059 0.0140644 -0.0070448)
(-0.0078633 0.013016 -0.00324856)
(-0.0115128 0.012276 0.00245382)
(-0.00837758 0.00430366 0.00786758)
(0.0112898 0.00498399 0.00674081)
(0.0232682 -0.0329387 0.0348641)
(-0.00138788 -0.0118467 0.0274309)
(-0.00774604 0.0148656 0.00870508)
(-0.011276 0.0257769 -0.00369417)
(-0.0116851 0.0258024 -0.00496846)
(-0.0122931 0.0240092 -0.00185555)
(-0.0125606 0.0221552 0.00236407)
(-0.0109149 0.0143728 0.00681081)
(-0.00154366 -0.00380365 0.00757461)
(0.015166 -0.00583062 0.0185722)
(-0.00196285 -0.024158 0.0351038)
(-0.0193483 0.00628184 0.0334584)
(-0.0226206 0.0256776 0.0171954)
(-0.0235932 0.0305209 0.00451308)
(-0.0191256 0.0262802 -0.000114905)
(-0.012161 0.0198255 -0.0029594)
(-0.00286792 0.0150763 -0.00549272)
(0.00450295 0.00858378 -0.00540656)
(0.00797916 -0.00455714 -0.00549223)
(0.0120528 0.00581222 0.0126199)
(-0.0105558 0.000904346 0.0118132)
(-0.0260583 0.016681 0.0289273)
(-0.0233931 0.0340468 0.0136764)
(-0.0214837 0.0392938 -0.00937765)
(-0.0158446 0.036562 -0.0256789)
(-0.0114927 0.0337255 -0.0317686)
(-0.00610776 0.0288132 -0.0311548)
(-0.00289206 0.022141 -0.0278417)
(-0.00206939 0.0168919 -0.0257288)
(0.0135758 0.0239739 -0.0181544)
(-0.00943337 0.0300521 -0.0195156)
(-0.0274247 0.0376036 -0.00600277)
(-0.0298512 0.0481708 -0.0250507)
(-0.0361448 0.0522901 -0.0445289)
(-0.0394022 0.0549568 -0.0458596)
(-0.0433338 0.051034 -0.0402914)
(-0.0415886 0.0401498 -0.0406934)
(-0.0344375 0.0293927 -0.047041)
(-0.0233902 0.0232307 -0.0530148)
(0.0129812 0.0530683 -0.0336907)
(-0.00970537 0.0701819 -0.0399142)
(-0.019858 0.0805122 -0.0345896)
(-0.0182876 0.0910791 -0.0319542)
(-0.0321336 0.0981178 -0.013801)
(-0.0483576 0.104206 0.00790371)
(-0.0599111 0.0937342 0.0183367)
(-0.059092 0.0777368 0.0254421)
(-0.0509555 0.0654462 0.0334046)
(-0.0410577 0.0578756 0.0409665)
(0.0193598 0.0715992 0.0129141)
(0.00883502 0.0953593 0.00036679)
(0.0174295 0.104711 0.0128549)
(0.0359286 0.123192 0.0366982)
(0.0216468 0.143565 0.0680005)
(0.0269199 0.13185 0.0927305)
(0.02401 0.089756 0.0945184)
(-0.0396225 0.00859733 0.0334171)
(-0.096994 -0.0535835 0.0182004)
(-0.101034 -0.0711614 0.0117431)
(0.0281054 -0.044869 0.109277)
(0.0939015 -0.00378284 0.118876)
(0.174921 0.0148044 0.122286)
(0.215406 0.00714214 0.11391)
(0.1123 -0.113383 0.0776423)
(-0.129729 -0.0677341 0.0643583)
(-0.132275 0.116152 0.0571632)
(-0.143152 0.0539401 0.0466912)
(-0.140368 0.0269226 0.0527384)
(-0.109466 -0.0368691 0.073937)
(-0.00257834 -0.408559 -0.0422361)
(-0.0815017 -0.434054 -0.100347)
(-0.0901723 -0.213887 -0.125851)
(-0.0476942 0.0670781 -0.1006)
(-0.162362 0.184391 -0.0721966)
(-0.188687 0.149942 -0.0158245)
(-0.137477 0.0589229 0.0311864)
(-0.134696 -0.0428425 0.0694558)
(-0.182433 -0.115934 0.116271)
(-0.218649 -0.17908 0.149823)
(-0.0176091 -0.00805199 -0.171806)
(-0.0899368 0.00740146 -0.23022)
(-0.123328 0.0629551 -0.224247)
(-0.119441 0.179765 -0.185408)
(-0.145445 0.25927 -0.110741)
(-0.138467 0.188076 -0.0476525)
(-0.0970886 0.0255359 0.0590118)
(-0.154739 -0.0297859 0.111563)
(-0.253909 -0.0980644 0.157162)
(-0.381902 -0.139704 0.14788)
(0.0221403 0.0399299 -0.135425)
(-0.0240558 0.104448 -0.207642)
(-0.0873445 0.151511 -0.173503)
(-0.10803 0.249911 -0.129908)
(-0.125398 0.290957 -0.0669411)
(-0.106925 0.168531 0.0205966)
(-0.118346 0.00140402 0.113581)
(-0.231578 -0.0356202 0.158283)
(-0.358788 -0.0561024 0.153881)
(-0.455796 -0.0371415 0.0698361)
(0.040905 0.139556 -0.0322081)
(0.0164858 0.220612 -0.130242)
(-0.077217 0.248286 -0.0905799)
(-0.10704 0.31343 -0.040556)
(-0.116204 0.29351 0.0129671)
(-0.0694963 0.126051 0.0940742)
(-0.155682 0.00150911 0.155715)
(-0.29951 -0.00603324 0.172757)
(-0.418404 0.0420264 0.109394)
(-0.448607 0.0858467 -0.0128497)
(0.0321558 0.157501 0.0276091)
(0.0461065 0.316373 -0.0603613)
(-0.0687971 0.329336 -0.023785)
(-0.08061 0.351547 0.0358475)
(-0.0752217 0.274022 0.0786378)
(-0.0403453 0.0954805 0.132021)
(-0.202024 0.0196244 0.183119)
(-0.358976 0.0527203 0.164429)
(-0.434608 0.126486 0.0611111)
(-0.453669 0.123306 -0.0615442)
(-0.0129833 0.144834 0.0263213)
(0.0525681 0.378731 -0.00789749)
(-0.0328698 0.390683 0.0312437)
(-0.0143253 0.358704 0.080926)
(-0.0077626 0.25077 0.117512)
(-0.0627201 0.0837775 0.158612)
(-0.25462 0.0583064 0.197148)
(-0.375574 0.119311 0.142864)
(-0.390301 0.172761 0.0169818)
(-0.401463 0.128178 -0.101694)
(-0.0534949 0.16004 0.0103062)
(0.0413654 0.38372 0.0272214)
(0.0294174 0.406687 0.0663121)
(0.0496578 0.352756 0.0999157)
(0.025322 0.23396 0.13767)
(-0.118803 0.0867186 0.180849)
(-0.287584 0.0987384 0.188136)
(-0.350239 0.16154 0.107471)
(-0.316615 0.192092 -0.0061797)
(-0.321464 0.133273 -0.107238)
(-0.0573582 0.193791 -0.00947155)
(0.0312075 0.343199 0.0172005)
(0.0731251 0.383088 0.0665178)
(0.0676281 0.347371 0.107773)
(-0.0145806 0.210466 0.153135)
(-0.168495 0.104299 0.18608)
(-0.286931 0.127499 0.160307)
(-0.29169 0.178794 0.0710374)
(-0.232406 0.202368 -0.0218557)
(-0.230289 0.145803 -0.0946077)
(-0.0370583 0.236233 -0.0290604)
(0.0236169 0.318107 -0.0191332)
(0.0587793 0.365304 0.0514914)
(0.0146277 0.330198 0.12352)
(-0.102118 0.172649 0.157899)
(-0.215515 0.122309 0.171492)
(-0.269155 0.1421 0.127388)
(-0.226847 0.183182 0.0359161)
(-0.147349 0.215622 -0.0430021)
(-0.131376 0.186571 -0.0884972)
(-0.00444226 0.00207015 -0.00544785)
(-0.00745896 -0.00172238 -0.00413704)
(-0.0035315 -0.00325316 -0.00523346)
(-0.00111818 -0.00169173 -0.00576679)
(-0.00169884 -0.000149756 -0.00573413)
(-0.00303282 0.000490281 -0.00590198)
(-0.00408399 0.000532325 -0.00622682)
(-0.00460597 0.000417813 -0.00666675)
(-0.00485329 0.000260655 -0.0069543)
(-0.00426645 -0.000151196 -0.00724893)
(-0.0082881 0.00971595 -0.0101771)
(-0.0091357 -0.00439299 -0.00194029)
(0.00131011 -0.0114969 -0.00223917)
(0.00193492 -0.00272863 -0.00726839)
(-0.00165343 0.00184109 -0.00877456)
(-0.00472966 0.00310165 -0.00868811)
(-0.00619551 0.00271684 -0.00860954)
(-0.00637964 0.00167601 -0.00864926)
(-0.00586871 0.000122678 -0.00842486)
(-0.00434315 -0.00233482 -0.00813898)
(-0.0102227 0.0174698 -0.0108161)
(0.0021549 -0.0183798 0.00748424)
(0.0139699 -0.0300674 0.00865127)
(0.0147604 -0.00693744 -0.00223917)
(0.00599726 0.00521459 -0.00917819)
(-0.000978799 0.00684319 -0.0104071)
(-0.00401718 0.00499726 -0.00998006)
(-0.00474656 0.00235969 -0.00960113)
(-0.00519754 -0.000327662 -0.00870373)
(-0.00449119 -0.00344998 -0.0070904)
(-0.00881883 0.0223854 -0.0112095)
(0.0172092 -0.0314189 0.0139282)
(0.0144797 -0.0402783 0.0131125)
(0.0173158 -0.00763742 0.000275077)
(0.00847623 0.0116001 -0.00947918)
(0.00104232 0.0135666 -0.0123936)
(-0.00353995 0.0104485 -0.0112261)
(-0.00606801 0.00816214 -0.00911132)
(-0.00835496 0.00734876 -0.00620185)
(-0.00717579 0.00402286 -0.00228988)
(-0.00310756 0.0247135 -0.0100193)
(0.0228631 -0.022577 0.0127812)
(0.00398218 -0.0287704 0.0111117)
(0.00510508 0.000627897 -0.00085167)
(-0.00103423 0.0186479 -0.00905091)
(-0.00395773 0.022388 -0.00993685)
(-0.00528557 0.0207761 -0.00711223)
(-0.00677337 0.0192651 -0.00533703)
(-0.0109641 0.0179541 -0.00451794)
(-0.00922867 0.012313 -0.00260409)
(0.00273776 0.0321203 -0.00426128)
(0.020261 0.00403389 0.00621804)
(-0.0066627 -0.000356301 0.00794779)
(-0.00608547 0.0168451 0.000702336)
(-0.00967029 0.0239125 -0.00608414)
(-0.00747022 0.0205473 -0.0100319)
(-0.00565585 0.0199991 -0.0144916)
(-0.0057831 0.026114 -0.017517)
(-0.00700218 0.02944 -0.0175213)
(-0.00473127 0.0196677 -0.0166384)
(0.0111373 0.0485466 -0.00646343)
(0.0131098 0.0328758 -0.00560151)
(-0.0173925 0.0337002 0.000228949)
(-0.0138094 0.0442473 -0.0107295)
(-0.0146819 0.0481756 -0.0314091)
(-0.0171613 0.0538942 -0.0502504)
(-0.0222228 0.0594794 -0.057496)
(-0.0223428 0.0595431 -0.0544543)
(-0.0164404 0.0577951 -0.0473826)
(-0.00926042 0.0528638 -0.0445455)
(0.00761613 0.0509272 -0.0373326)
(-0.0058842 0.0539567 -0.0260461)
(-0.0304703 0.061274 -0.0285774)
(-0.0385845 0.061126 -0.0553574)
(-0.0550255 0.0572971 -0.0776424)
(-0.0651045 0.0566945 -0.0796919)
(-0.0705987 0.051475 -0.0745269)
(-0.0682312 0.0400728 -0.0772571)
(-0.0556271 0.0291193 -0.0873476)
(-0.0375687 0.0219073 -0.0956918)
(-0.0101932 0.0752684 -0.0377583)
(-0.0283649 0.0840871 -0.039194)
(-0.0361048 0.0947923 -0.055658)
(-0.0378427 0.104843 -0.0637334)
(-0.0495121 0.109669 -0.0366482)
(-0.0575227 0.109784 0.00527614)
(-0.0611308 0.102027 0.0339119)
(-0.0592506 0.0891645 0.0519005)
(-0.0535134 0.0807235 0.0597625)
(-0.0475267 0.0792391 0.0602454)
(0.0019149 0.0974582 0.0493085)
(-0.00174234 0.0915216 0.0415892)
(0.00965995 0.104072 0.0269496)
(0.0230828 0.126553 0.0741607)
(0.0285585 0.152644 0.176849)
(0.0444444 0.137802 0.222354)
(-0.0657962 0.040583 0.119714)
(-0.128998 -0.12099 0.0316894)
(-0.159392 -0.188904 -0.0383442)
(-0.158995 -0.183172 -0.0437406)
(0.0264416 -0.0494146 0.283387)
(0.0945744 -0.0532171 0.345549)
(0.100023 -0.0634804 0.241446)
(0.0545629 -0.103502 0.0557992)
(-0.0085341 0.0283741 0.065869)
(-0.0732111 0.228585 0.0748813)
(-0.0990708 0.0994565 0.0619923)
(-0.149008 -0.00174192 0.0811961)
(-0.18717 0.00306475 0.0689355)
(-0.157246 -0.0613019 0.102741)
(-0.0653712 -0.151032 -0.0191762)
(-0.0718775 0.108661 -0.0343357)
(-0.10948 0.196224 -0.214715)
(-0.0495304 0.160658 -0.170725)
(-0.0106337 0.206093 -0.0922461)
(-0.00763653 0.265167 -0.0573341)
(0.00467243 0.123342 0.0120137)
(-0.0678318 -0.0044572 0.1144)
(-0.180229 -0.0857639 0.180766)
(-0.210756 -0.155066 0.183932)
(-0.0210082 0.0390465 -0.221062)
(-0.0584859 0.133819 -0.277672)
(-0.0593796 0.0932865 -0.261461)
(-0.0301327 0.0755431 -0.190592)
(-0.00943142 0.13717 -0.115312)
(0.013912 0.176053 -0.0499297)
(0.0180571 0.0955936 0.0640897)
(-0.0276789 0.0562533 0.155272)
(-0.163767 0.00365307 0.203834)
(-0.27097 -0.0434507 0.126513)
(0.0305164 0.0128729 -0.194686)
(0.0281756 0.0864871 -0.234349)
(0.00805044 0.0388816 -0.163072)
(0.00679078 0.0317234 -0.100315)
(-0.00333071 0.0798171 -0.0372689)
(-0.0115492 0.127694 0.0437094)
(-0.00593482 0.0810411 0.157443)
(-0.0701983 0.0937164 0.209054)
(-0.172312 0.0759051 0.172017)
(-0.251282 0.0861545 -0.00831081)
(0.0276991 0.0141259 -0.0851927)
(0.0450213 0.0951219 -0.123858)
(0.0200075 0.0568779 -0.0777443)
(0.041165 0.0513677 -0.0462207)
(0.0105059 0.0968354 0.000342496)
(-0.00197227 0.126117 0.121151)
(-0.0339682 0.0893849 0.225286)
(-0.11432 0.129141 0.224601)
(-0.186689 0.166577 0.0949281)
(-0.27188 0.19265 -0.0915608)
(-0.0155865 0.0308243 -0.0193539)
(0.0325669 0.110419 -0.045475)
(0.0474856 0.0798183 -0.0376574)
(0.0677689 0.0950253 -0.0216092)
(0.0122813 0.146791 0.0436469)
(0.0215456 0.137674 0.18817)
(-0.0800435 0.0960565 0.262558)
(-0.150123 0.170104 0.201486)
(-0.191395 0.254837 0.0274194)
(-0.278778 0.271763 -0.100329)
(-0.0439432 0.0552258 -0.011056)
(0.0308198 0.0973901 -0.03329)
(0.0743487 0.107538 -0.0339202)
(0.07778 0.157837 0.00730584)
(0.0196069 0.194533 0.122051)
(-0.00881916 0.13388 0.25023)
(-0.130082 0.11766 0.268157)
(-0.163549 0.212202 0.150474)
(-0.170353 0.309364 -0.0215943)
(-0.23187 0.310876 -0.108404)
(-0.0419087 0.0963854 -0.0354288)
(0.0239457 0.100763 -0.0776614)
(0.0689405 0.149396 -0.0305717)
(0.0556511 0.220275 0.0686122)
(0.00817253 0.217518 0.210646)
(-0.0817022 0.121039 0.280714)
(-0.151429 0.142607 0.234723)
(-0.143363 0.231365 0.0859291)
(-0.126067 0.322838 -0.0527891)
(-0.143282 0.314246 -0.118591)
(-0.0280903 0.149087 -0.0646211)
(-0.00537327 0.13715 -0.102892)
(0.0235882 0.195971 0.00784851)
(0.00256924 0.258377 0.153684)
(-0.0614546 0.206118 0.262362)
(-0.143427 0.1214 0.257144)
(-0.14172 0.152196 0.162499)
(-0.0934761 0.221442 0.0162908)
(-0.0636374 0.309194 -0.0763361)
(-0.0333283 0.307112 -0.123788)
(-0.0194673 0.200927 -0.0818135)
(-0.0506515 0.183651 -0.0812644)
(-0.0461218 0.235478 0.0802612)
(-0.075518 0.263643 0.220023)
(-0.148769 0.178822 0.252979)
(-0.171987 0.126074 0.186092)
(-0.109198 0.139348 0.068498)
(-0.0189779 0.191941 -0.0590341)
(0.0188713 0.280217 -0.106224)
(0.0755963 0.30343 -0.144108)
(-0.00335671 0.00181789 -0.00596194)
(-0.00585843 -0.000844347 -0.00191758)
(-0.00412197 -0.0017711 -0.00270427)
(-0.00282762 -0.000734032 -0.00452436)
(-0.00335272 0.000143757 -0.00570237)
(-0.00445416 0.000500577 -0.00642094)
(-0.00532285 0.000509186 -0.00683355)
(-0.00554504 0.000478319 -0.00701506)
(-0.00538592 0.000425585 -0.00676367)
(-0.0045583 0.000144482 -0.00654475)
(-0.00581299 0.0083703 -0.0109055)
(-0.00967378 0.00103639 -0.00110187)
(-0.00508529 -0.00306817 -0.000385157)
(-0.00318007 -0.000295797 -0.00522196)
(-0.00478466 0.00215527 -0.00825918)
(-0.00662305 0.00283297 -0.00927154)
(-0.0075548 0.00229984 -0.00946929)
(-0.00716352 0.00102049 -0.00940439)
(-0.00596783 -0.000607814 -0.00866178)
(-0.00424361 -0.00246291 -0.00796323)
(-0.00725028 0.0162368 -0.0124327)
(-0.00815289 0.00167054 0.00540034)
(0.00156393 -0.00761435 0.00900095)
(0.00344212 0.000108167 -0.000171488)
(-0.000383229 0.00430019 -0.00750437)
(-0.00432332 0.00492276 -0.0103658)
(-0.00660449 0.00304441 -0.0111024)
(-0.00712171 8.61005e-05 -0.0115044)
(-0.00676337 -0.00234037 -0.0113376)
(-0.00496886 -0.00414102 -0.0111349)
(-0.0059904 0.0227603 -0.0155622)
(0.000292987 0.00204119 0.00485582)
(0.00745083 -0.00996749 0.0099654)
(0.00852991 0.00283984 -0.00039795)
(0.00344526 0.009725 -0.00846507)
(-0.00201817 0.0100527 -0.0126753)
(-0.00625318 0.00783122 -0.0136088)
(-0.00844972 0.00463159 -0.0135166)
(-0.0100631 0.00256756 -0.013782)
(-0.00769519 0.000751486 -0.0151304)
(-0.00120737 0.030262 -0.0241795)
(0.00841705 0.0110656 -0.00497736)
(0.00711784 -0.00183616 -5.19775e-05)
(0.00566214 0.00793264 -0.00878238)
(0.00141904 0.0155203 -0.0123686)
(-0.000661098 0.0172485 -0.0134045)
(-0.00327111 0.0151193 -0.0137904)
(-0.00855525 0.0113867 -0.0159412)
(-0.0149268 0.0099476 -0.0198304)
(-0.0123929 0.00897524 -0.0232929)
(0.00206225 0.0316698 -0.0281238)
(0.00997143 0.0226309 -0.00810411)
(-0.000876915 0.014941 -0.00560764)
(-0.00304327 0.0183187 -0.0143485)
(-0.0035337 0.0163886 -0.0174863)
(-0.00261176 0.0165466 -0.0223358)
(-0.00496486 0.024361 -0.0271813)
(-0.00931868 0.0292468 -0.029927)
(-0.01421 0.0265036 -0.0320034)
(-0.0114835 0.0187283 -0.0362381)
(0.00451087 0.0511953 -0.0288232)
(-0.00140996 0.0462906 -0.00914227)
(-0.0192768 0.0435646 -0.0122519)
(-0.0192035 0.0453719 -0.0292537)
(-0.0224703 0.050394 -0.0494293)
(-0.0291201 0.060333 -0.0663461)
(-0.0353967 0.0628708 -0.0727896)
(-0.0357933 0.0582328 -0.0705745)
(-0.0288236 0.0524106 -0.0648398)
(-0.0169948 0.0455751 -0.0629301)
(-0.0105317 0.0533292 -0.0448739)
(-0.027201 0.0613211 -0.0284416)
(-0.0442014 0.0591097 -0.0440424)
(-0.0576035 0.0537912 -0.0773087)
(-0.0788186 0.0466537 -0.0980668)
(-0.0910825 0.0417158 -0.0980478)
(-0.0960686 0.037725 -0.0960621)
(-0.0973838 0.0278476 -0.10799)
(-0.0867923 0.0142505 -0.125417)
(-0.0621321 0.00310726 -0.136836)
(-0.0336723 0.0879413 -0.0266481)
(-0.0484968 0.085849 -0.0363744)
(-0.0576476 0.0890036 -0.0692326)
(-0.0634647 0.0995694 -0.0809628)
(-0.0664515 0.102328 -0.0486917)
(-0.0649014 0.101588 0.00822108)
(-0.0616494 0.111438 0.0731471)
(-0.0717429 0.129047 0.159467)
(-0.0835823 0.141198 0.247031)
(-0.0822201 0.136271 0.255733)
(-0.0187967 0.110053 0.104698)
(-0.00419815 0.0884274 0.0946257)
(0.00247017 0.114274 0.112469)
(0.0406445 0.157834 0.260684)
(0.0859972 0.15706 0.283875)
(-0.018394 0.0552137 0.21565)
(-0.176694 -0.0516876 0.128177)
(-0.177582 0.192857 0.0984116)
(-0.190061 0.270957 0.0766162)
(-0.173138 0.266809 0.0434409)
(0.0129659 -0.0518484 0.395324)
(-0.0512974 -0.0867606 0.180866)
(-0.0638832 0.225483 -0.000738983)
(-0.00482671 0.292431 -0.00763953)
(0.061611 0.237106 0.0105087)
(0.0201092 0.219898 0.0622953)
(-0.0984836 0.0661357 0.10501)
(-0.197724 0.0289463 0.129812)
(-0.225408 0.124136 0.118533)
(-0.202102 0.0611907 0.156737)
(-0.0414824 0.154267 -0.0405995)
(-0.0959324 0.205116 -0.155805)
(-0.0581945 0.231454 -0.182198)
(0.0132077 0.183971 -0.162483)
(0.067485 0.186487 -0.0820493)
(0.0903249 0.216473 0.00869828)
(0.050145 0.152735 0.0710716)
(-0.065111 0.0601744 0.174197)
(-0.192788 -0.00715886 0.245936)
(-0.190937 -0.0676944 0.222059)
(-0.015813 0.12758 -0.197326)
(-0.0262445 0.148995 -0.231943)
(0.0240494 0.0395503 -0.171059)
(0.0676144 0.0237893 -0.122745)
(0.0803115 0.0839248 -0.0407987)
(0.0774621 0.143503 0.0351225)
(0.0673652 0.144904 0.0973805)
(0.0296818 0.125854 0.185872)
(-0.129676 0.0898669 0.240914)
(-0.196707 0.0664136 0.111816)
(0.0174988 0.0341703 -0.181854)
(0.0251763 0.0111588 -0.146433)
(0.0508628 -0.0587601 -0.12427)
(0.0619263 -0.00452759 -0.106888)
(0.0538659 0.0835453 -0.0200158)
(0.0181225 0.132211 0.0708281)
(0.0347281 0.143531 0.163541)
(0.0306993 0.18211 0.222592)
(-0.1053 0.179835 0.190579)
(-0.212046 0.168601 -0.00236259)
(-0.00371218 -0.0169195 -0.0852693)
(0.00982355 -0.0536478 -0.0696899)
(0.0330716 -0.0564766 -0.151737)
(0.0249284 0.036614 -0.102242)
(-0.0121898 0.137324 -0.00808272)
(-0.0278423 0.156091 0.113473)
(0.023513 0.160612 0.2426)
(0.00342574 0.235705 0.245835)
(-0.106675 0.271737 0.119585)
(-0.250067 0.237436 -0.0466132)
(-0.0343613 -0.019653 -0.0340934)
(7.99012e-05 -0.0574785 -0.127114)
(0.00154957 -0.00309287 -0.137801)
(-0.0261133 0.102467 -0.0562382)
(-0.062986 0.173483 0.0422415)
(-0.0135522 0.1752 0.202537)
(-0.00136267 0.171053 0.303248)
(-0.0215622 0.280242 0.224396)
(-0.109068 0.345597 0.0590767)
(-0.231145 0.290118 -0.0634211)
(-0.0344286 0.0138903 -0.0407728)
(-0.0276247 -0.0167901 -0.15081)
(-0.0336309 0.0466799 -0.0963032)
(-0.0493243 0.142357 0.017759)
(-0.0643278 0.186911 0.147143)
(-0.0138136 0.175094 0.299711)
(-0.0410031 0.183261 0.3068)
(-0.0379626 0.308453 0.163226)
(-0.0964615 0.380191 0.00608322)
(-0.150676 0.307298 -0.100657)
(-0.0355323 0.0594368 -0.0621367)
(-0.0794615 0.0186563 -0.139744)
(-0.0807947 0.0716941 -0.0397217)
(-0.0667446 0.151957 0.113232)
(-0.0682798 0.183748 0.262787)
(-0.0669081 0.159958 0.325913)
(-0.0626234 0.199374 0.241223)
(-0.0354563 0.31905 0.0826276)
(-0.0596701 0.382399 -0.0465202)
(-0.0309955 0.301274 -0.150608)
(-0.0465951 0.109442 -0.0707761)
(-0.133063 0.0499965 -0.106093)
(-0.135406 0.0900253 0.028085)
(-0.108357 0.155332 0.209571)
(-0.109808 0.170044 0.313618)
(-0.109359 0.151773 0.263117)
(-0.0539201 0.20444 0.129512)
(-0.00806094 0.310286 -0.00299502)
(0.00742434 0.369087 -0.0948864)
(0.0948785 0.305547 -0.198932)
(-0.0638357 0.160852 -0.0585244)
(-0.175343 0.0941355 -0.0610845)
(-0.183852 0.130568 0.0901587)
(-0.152451 0.177308 0.254627)
(-0.138147 0.175092 0.276973)
(-0.0918429 0.165972 0.148766)
(-0.00853389 0.212376 0.00251509)
(0.0593735 0.296172 -0.0864523)
(0.102172 0.351317 -0.140574)
(0.186679 0.322908 -0.224439)
(-0.00274018 0.00178812 -0.00681923)
(-0.00471877 4.53465e-05 -0.0020515)
(-0.00423855 -0.00048622 -0.00317123)
(-0.00401124 -7.55363e-05 -0.00491061)
(-0.00461996 0.000289535 -0.00621055)
(-0.00549174 0.000488531 -0.00700909)
(-0.00618417 0.000603715 -0.00753592)
(-0.00610057 0.000709619 -0.00784294)
(-0.00562881 0.000949613 -0.00738789)
(-0.00487774 0.00126382 -0.00712481)
(-0.00409162 0.00684599 -0.0115452)
(-0.00749265 0.00266734 -0.00333476)
(-0.00667772 0.00085119 -0.00367543)
(-0.0060165 0.0014581 -0.00683867)
(-0.00679959 0.00208901 -0.00897639)
(-0.00781504 0.00203211 -0.00987606)
(-0.0082105 0.00125086 -0.0100853)
(-0.00720659 -2.91101e-05 -0.00984512)
(-0.00552723 -0.000711526 -0.00864623)
(-0.00387088 -0.000584787 -0.00740113)
(-0.00486904 0.0132699 -0.0127642)
(-0.0094794 0.0073445 -6.49702e-05)
(-0.00676742 0.00309194 0.00182893)
(-0.00480601 0.00304605 -0.0036652)
(-0.0055085 0.00315733 -0.00856468)
(-0.00713622 0.00248563 -0.010721)
(-0.00879621 0.000448637 -0.0116161)
(-0.0090302 -0.002169 -0.0122406)
(-0.00801737 -0.00304491 -0.0128746)
(-0.00557561 -0.00187853 -0.0139454)
(-0.00397384 0.0191489 -0.0170908)
(-0.00757974 0.0128708 -0.00319155)
(-0.00484132 0.00721996 0.000903958)
(-0.00314051 0.00716415 -0.00389284)
(-0.00407031 0.00640336 -0.00961403)
(-0.00625556 0.00558294 -0.0129946)
(-0.00915907 0.00325332 -0.0143472)
(-0.0113044 -0.000736207 -0.0154149)
(-0.0122811 -0.00179362 -0.0185743)
(-0.00780593 -0.000469545 -0.0242313)
(0.000992807 0.0277179 -0.0294063)
(-0.00136823 0.0213683 -0.0156527)
(-0.0015023 0.0132637 -0.0107143)
(-0.00154254 0.0108014 -0.0129203)
(-0.00205777 0.00910148 -0.0145266)
(-0.00247181 0.00826962 -0.0156289)
(-0.00678856 0.00557004 -0.0183289)
(-0.0123991 0.00107454 -0.0216144)
(-0.0165602 -0.0014931 -0.0273217)
(-0.0101523 -0.000233268 -0.0373614)
(-0.00081872 0.0179707 -0.0340785)
(-0.00479134 0.0221556 -0.0189442)
(-0.00896159 0.0161278 -0.0183883)
(-0.00885728 0.0104338 -0.0233387)
(-0.00915068 0.00468438 -0.0283665)
(-0.0102982 0.00804446 -0.0339495)
(-0.0135273 0.0147258 -0.0376388)
(-0.0173586 0.0122819 -0.0392206)
(-0.0204197 0.00532996 -0.0432883)
(-0.0124162 0.00363922 -0.0539419)
(-0.00848099 0.0440185 -0.032285)
(-0.0229901 0.0464898 -0.0161072)
(-0.035019 0.0379382 -0.026386)
(-0.0393961 0.0363173 -0.0451894)
(-0.0483821 0.0391132 -0.0664497)
(-0.0556715 0.0393813 -0.081851)
(-0.0590416 0.0300801 -0.0883012)
(-0.0555181 0.0173961 -0.0878962)