/*--------------------------------*- C++ -*----------------------------------*\
| =========                 |                                                 |
| \\      /  F ield         | OpenFOAM: The Open Source CFD Toolbox           |
|  \\    /   O peration     | Version:  2312                                  |
|   \\  /    A nd           | Website:  www.openfoam.com                      |
|    \\/     M anipulation  |                                                 |
\*---------------------------------------------------------------------------*/
FoamFile
{
    version     2.0;
    format      ascii;
    arch        "LSB;label=32;scalar=64";
    class       volScalarField;
    location    "1.49";
    object      p;
}
// * * * * * * * * * * * * * * * * * * * * * * * * * * * * * * * * * * * * * //

dimensions      [1 -1 -2 0 0 0 0];

internalField   nonuniform List<scalar> 
8000
(
384.556
384.294
383.875
383.336
382.624
381.786
380.873
379.943
379.036
378.197
336.053
335.745
335.22
334.565
333.848
333.023
332.091
331.119
330.175
329.303
288.175
287.915
287.252
286.45
285.539
284.594
283.585
282.527
281.493
280.519
240.948
240.673
239.915
239.007
237.85
236.632
235.41
234.167
232.982
231.897
194.418
194.143
193.3
192.172
190.769
189.231
187.704
186.22
184.781
183.567
148.882
148.636
147.558
146.178
144.471
142.541
140.586
138.705
137.065
135.665
103.849
103.685
102.663
101.255
99.3096
96.9707
94.5543
92.263
90.1993
88.4471
56.7004
57.4724
57.7449
57.2267
55.5063
52.9086
50.1118
47.534
45.198
43.061
17.0037
19.3686
21.153
21.6396
20.5187
18.3894
16.1883
14.2681
12.5011
10.8266
0.929639
1.17994
1.47535
1.47185
1.07156
0.55476
0.140684
-0.135709
-0.300189
-0.37494
-0.299292
-0.332157
-0.408298
-0.464605
-0.498281
-0.507029
-0.501088
-0.488876
-0.474224
-0.463916
-0.458803
-0.460553
-0.487333
-0.518296
-0.537814
-0.542391
-0.534019
-0.522442
-0.513372
-0.506964
-0.51458
-0.514242
-0.539339
-0.564275
-0.574504
-0.575611
-0.570201
-0.564604
-0.561382
-0.56193
-0.581116
-0.592861
-0.604589
-0.622297
-0.620648
-0.612531
-0.60954
-0.61104
-0.613048
-0.613737
-0.642035
-0.657887
-0.671459
-0.680836
-0.668317
-0.657188
-0.658422
-0.6623
-0.66444
-0.66466
-0.703954
-0.716278
-0.732568
-0.734936
-0.717915
-0.710936
-0.712717
-0.715402
-0.716509
-0.715094
-0.763169
-0.77108
-0.784999
-0.7806
-0.769601
-0.766656
-0.767255
-0.769067
-0.769053
-0.766002
-0.814052
-0.818975
-0.829847
-0.824437
-0.819424
-0.818969
-0.820138
-0.821562
-0.821466
-0.81759
-0.861752
-0.866067
-0.872649
-0.871252
-0.868533
-0.868743
-0.87063
-0.873236
-0.873522
-0.869964
-0.913059
-0.916919
-0.920992
-0.921483
-0.917797
-0.91897
-0.9213
-0.924875
-0.925892
-0.924071
384.222
383.907
383.428
382.848
382.198
381.444
380.562
379.645
378.747
377.945
335.675
335.223
334.621
333.949
333.303
332.601
331.73
330.782
329.846
328.999
287.811
287.393
286.649
285.793
284.964
284.102
283.144
282.113
281.087
280.134
240.422
240.088
239.402
238.357
237.218
236.039
234.861
233.625
232.377
231.321
193.631
193.482
192.764
191.495
190.007
188.451
186.935
185.416
183.943
182.729
147.921
147.705
146.691
145.18
143.33
141.335
139.388
137.542
135.848
134.473
102.865
102.419
101.286
99.6261
97.4431
94.9449
92.4008
90.0128
87.9331
86.2661
56.5959
56.3144
55.8014
54.6993
52.4361
49.408
46.2683
43.5332
41.2802
39.4408
18.1183
18.1208
18.1597
17.6476
15.5601
12.8605
10.5542
9.06507
8.03429
7.17806
0.653692
0.586906
0.503628
0.34339
0.01169
-0.228119
-0.337051
-0.378753
-0.408763
-0.420449
-0.458575
-0.503879
-0.518695
-0.53149
-0.537023
-0.527524
-0.503454
-0.481117
-0.46803
-0.463317
-0.479908
-0.497588
-0.519489
-0.540106
-0.551992
-0.551402
-0.535316
-0.519761
-0.512965
-0.51029
-0.522216
-0.534308
-0.557026
-0.573117
-0.578747
-0.5788
-0.57105
-0.564894
-0.563733
-0.562311
-0.59145
-0.606458
-0.622289
-0.630247
-0.617768
-0.607224
-0.607929
-0.612345
-0.615102
-0.613605
-0.660028
-0.677835
-0.687599
-0.686805
-0.660473
-0.648402
-0.656698
-0.666826
-0.667959
-0.666376
-0.721128
-0.735388
-0.74863
-0.735898
-0.711093
-0.705788
-0.717113
-0.722459
-0.722472
-0.719145
-0.774659
-0.78255
-0.791822
-0.779418
-0.768279
-0.771284
-0.777146
-0.77795
-0.776281
-0.771514
-0.818798
-0.824218
-0.826659
-0.821764
-0.821006
-0.826682
-0.832238
-0.831943
-0.829306
-0.824148
-0.862071
-0.868547
-0.869886
-0.868125
-0.868238
-0.873723
-0.882582
-0.884779
-0.882356
-0.878036
-0.909423
-0.916637
-0.919807
-0.918795
-0.916332
-0.920391
-0.929134
-0.936066
-0.93712
-0.934636
383.672
383.345
383.003
382.404
381.651
380.867
380.017
379.12
378.254
377.477
335.02
334.566
334.165
333.335
332.56
331.903
331.107
330.196
329.292
328.474
287.081
286.489
286.039
285.025
284.046
283.246
282.382
281.407
280.433
279.531
239.583
239.034
238.577
237.393
236.167
235.002
233.904
232.756
231.614
230.599
192.623
192.241
191.557
190.306
188.693
187.125
185.657
184.228
182.863
181.667
146.518
145.981
144.852
143.283
141.416
139.487
137.634
135.885
134.282
132.942
101.226
100.179
98.5725
96.6633
94.3809
91.8691
89.3651
87.0861
85.1837
83.6105
55.6216
54.2066
52.3348
50.2438
47.4944
44.3645
41.3807
38.8901
36.8809
35.2865
18.1948
16.5267
14.5108
12.4652
9.97018
7.76842
6.16942
5.16972
4.56933
4.13597
0.508009
0.1933
-0.0916045
-0.25344
-0.348908
-0.397106
-0.428188
-0.421703
-0.419516
-0.423861
-0.524647
-0.5529
-0.51813
-0.51257
-0.52145
-0.51489
-0.497201
-0.4786
-0.46602
-0.461693
-0.515238
-0.536762
-0.541351
-0.546957
-0.555883
-0.553263
-0.538301
-0.522432
-0.512032
-0.508347
-0.550296
-0.567115
-0.579428
-0.582207
-0.585168
-0.583673
-0.575108
-0.568197
-0.563605
-0.558777
-0.608053
-0.62832
-0.63607
-0.630788
-0.617466
-0.610847
-0.614119
-0.617579
-0.616449
-0.613214
-0.66726
-0.686816
-0.691318
-0.680555
-0.658773
-0.655603
-0.667922
-0.672519
-0.672139
-0.669828
-0.722087
-0.737014
-0.741377
-0.726812
-0.710901
-0.71617
-0.728048
-0.730587
-0.729038
-0.72414
-0.774396
-0.782782
-0.784274
-0.773987
-0.768491
-0.779268
-0.786144
-0.78754
-0.782716
-0.776303
-0.816436
-0.821764
-0.822434
-0.820953
-0.824414
-0.834956
-0.839538
-0.838165
-0.834091
-0.827318
-0.861284
-0.864962
-0.864858
-0.866823
-0.871031
-0.87917
-0.887407
-0.886458
-0.884326
-0.879441
-0.906401
-0.914629
-0.915085
-0.916115
-0.917338
-0.922589
-0.931474
-0.936287
-0.937907
-0.934973
383.033
382.656
382.485
381.956
381.046
380.159
379.308
378.427
377.583
376.882
334.215
333.77
333.467
332.831
331.939
331.106
330.322
329.434
328.573
327.809
286.079
285.495
285.07
284.246
283.138
282.264
281.448
280.51
279.587
278.749
238.493
237.839
237.254
236.233
234.887
233.737
232.713
231.637
230.597
229.658
191.35
190.648
189.789
188.549
186.977
185.439
184.059
182.74
181.509
180.463
144.782
143.819
142.462
140.883
139.077
137.257
135.524
133.904
132.416
131.133
99.1713
97.438
95.2511
93.0883
90.7718
88.4092
86.2266
84.2397
82.517
81.102
53.7336
51.3081
48.0438
45.0458
42.1514
39.4482
37.0674
35.0141
33.1043
31.6656
17.1111
14.4071
10.7621
8.18907
6.30349
4.96231
4.07471
3.49633
3.11854
2.82246
0.323714
-0.0867595
-0.301044
-0.386428
-0.432503
-0.433427
-0.428329
-0.424714
-0.417353
-0.416038
-0.530556
-0.526132
-0.498881
-0.511075
-0.511609
-0.498551
-0.483365
-0.47441
-0.466132
-0.461267
-0.5362
-0.543253
-0.544386
-0.552496
-0.554212
-0.547012
-0.533554
-0.524023
-0.516967
-0.510605
-0.574024
-0.582771
-0.582265
-0.58467
-0.587846
-0.584561
-0.578297
-0.575152
-0.570803
-0.564164
-0.624179
-0.637575
-0.631348
-0.625325
-0.622132
-0.621243
-0.625781
-0.62769
-0.623772
-0.616873
-0.674332
-0.686947
-0.681109
-0.673453
-0.667592
-0.671641
-0.680399
-0.682435
-0.67928
-0.670942
-0.722282
-0.733359
-0.728746
-0.721974
-0.718944
-0.728281
-0.735367
-0.73658
-0.735235
-0.728533
-0.771524
-0.776836
-0.774646
-0.770508
-0.77088
-0.783242
-0.787688
-0.788535
-0.789781
-0.782884
-0.812591
-0.817648
-0.818804
-0.818718
-0.822548
-0.833145
-0.835199
-0.835963
-0.838353
-0.833435
-0.85861
-0.863116
-0.864327
-0.867862
-0.872154
-0.87817
-0.879642
-0.879525
-0.882731
-0.880684
-0.904987
-0.913901
-0.913926
-0.915265
-0.91748
-0.920589
-0.923315
-0.925239
-0.929691
-0.930044
382.218
381.826
381.546
381.066
380.203
379.32
378.463
377.614
376.826
376.15
333.354
332.841
332.424
331.958
331.116
330.26
329.417
328.552
327.738
327.028
284.951
284.358
283.714
283.099
282.147
281.26
280.401
279.48
278.603
277.831
237.073
236.39
235.586
234.665
233.501
232.41
231.39
230.342
229.366
228.527
189.62
188.737
187.688
186.491
185.052
183.627
182.312
181.08
179.958
179.026
142.642
141.361
139.814
138.247
136.562
134.88
133.219
131.675
130.289
129.191
96.748
94.4318
91.7696
89.3968
87.2244
85.2253
83.3337
81.3768
79.6049
78.2949
51.3628
48.0406
43.5975
40.1176
37.6597
35.6038
33.3698
31.2066
29.3038
27.9878
15.4203
11.9116
7.613
5.34507
4.27375
3.63081
3.18136
2.72904
2.31711
2.03532
0.0485035
-0.263048
-0.368873
-0.422905
-0.428843
-0.425034
-0.416673
-0.414011
-0.411047
-0.411063
-0.525572
-0.503779
-0.499435
-0.502963
-0.49086
-0.481019
-0.471426
-0.467081
-0.463219
-0.461332
-0.541565
-0.540244
-0.544097
-0.54924
-0.540402
-0.531338
-0.523944
-0.521277
-0.517175
-0.514182
-0.582746
-0.582887
-0.578835
-0.582843
-0.583051
-0.578182
-0.575374
-0.575061
-0.5706
-0.566609
-0.629786
-0.632093
-0.622511
-0.622882
-0.62484
-0.626301
-0.628601
-0.627919
-0.6238
-0.618055
-0.674855
-0.67789
-0.67211
-0.671088
-0.672961
-0.6799
-0.683996
-0.681437
-0.678366
-0.671531
-0.720329
-0.72404
-0.720994
-0.720202
-0.723014
-0.733523
-0.737356
-0.734695
-0.735803
-0.728449
-0.766202
-0.769814
-0.768894
-0.768352
-0.772486
-0.784121
-0.787872
-0.786338
-0.790065
-0.787066
-0.809424
-0.814168
-0.816281
-0.815892
-0.820014
-0.830214
-0.834499
-0.834387
-0.837544
-0.835169
-0.856165
-0.861207
-0.864531
-0.865387
-0.867855
-0.873817
-0.874898
-0.876148
-0.880757
-0.880023
-0.904486
-0.913847
-0.914536
-0.915765
-0.915873
-0.915158
-0.914443
-0.917354
-0.923573
-0.92588
381.272
380.955
380.522
379.955
379.189
378.372
377.541
376.736
376.002
375.374
332.406
331.978
331.456
330.882
330.104
329.277
328.431
327.604
326.842
326.19
283.828
283.264
282.551
281.869
281.043
280.163
279.269
278.371
277.548
276.852
235.606
234.925
234.004
233.116
232.095
231.031
229.979
228.955
228.049
227.31
187.772
186.754
185.625
184.447
183.154
181.823
180.533
179.31
178.267
177.472
140.339
138.882
137.231
135.708
134.15
132.527
130.872
129.317
128.029
127.149
94.1936
91.4454
88.4367
86.115
84.1909
82.2672
80.1788
78.0426
76.258
75.1414
48.9532
44.7867
39.5867
36.3129
34.2489
32.1736
29.8656
27.5456
25.6996
24.6217
13.8437
9.67999
5.46115
3.8007
3.32126
3.00671
2.5035
1.91874
1.49663
1.28473
-0.177899
-0.347277
-0.394121
-0.416563
-0.410187
-0.409355
-0.407405
-0.403951
-0.400784
-0.402967
-0.514043
-0.492509
-0.489874
-0.484597
-0.472694
-0.466087
-0.461952
-0.457762
-0.453856
-0.45419
-0.539641
-0.537349
-0.537646
-0.536307
-0.526084
-0.518893
-0.516671
-0.513643
-0.510753
-0.50947
-0.582318
-0.579988
-0.575857
-0.577714
-0.574215
-0.571585
-0.570654
-0.570471
-0.569984
-0.566855
-0.627143
-0.625736
-0.619478
-0.62167
-0.621123
-0.623394
-0.625169
-0.626073
-0.625505
-0.620952
-0.670414
-0.67124
-0.668926
-0.669807
-0.670464
-0.677195
-0.679506
-0.680414
-0.680171
-0.67441
-0.715575
-0.718761
-0.718163
-0.718732
-0.720591
-0.729342
-0.732426
-0.733506
-0.735701
-0.729652
-0.762357
-0.766414
-0.766832
-0.767168
-0.77045
-0.779654
-0.782945
-0.784201
-0.787114
-0.785399
-0.8078
-0.813499
-0.815168
-0.81571
-0.818716
-0.825978
-0.82864
-0.830183
-0.832529
-0.832085
-0.856503
-0.862174
-0.864681
-0.863411
-0.865827
-0.868644
-0.869607
-0.870945
-0.874366
-0.875085
-0.907126
-0.916329
-0.915456
-0.914298
-0.912095
-0.910472
-0.910051
-0.911662
-0.915978
-0.920288
380.299
380.016
379.554
378.953
378.22
377.419
376.619
375.862
375.179
374.607
331.397
331.048
330.516
329.865
329.098
328.269
327.443
326.654
325.945
325.356
282.693
282.206
281.533
280.79
279.928
279.022
278.115
277.251
276.492
275.88
234.205
233.536
232.666
231.742
230.7
229.614
228.549
227.557
226.728
226.1
186.022
184.866
183.807
182.664
181.373
180.031
178.704
177.508
176.573
175.937
138.242
136.608
134.965
133.457
131.82
130.11
128.387
126.852
125.713
125.066
91.5344
88.6618
85.6641
83.3911
81.2889
78.9618
76.548
74.3293
72.7263
71.9478
46.6131
41.9615
36.6191
33.5527
31.1341
28.6551
26.0956
23.8295
22.3231
21.7176
12.4193
8.11946
4.32378
3.06792
2.68664
2.16322
1.54331
1.03768
0.738979
0.630031
-0.327119
-0.385608
-0.398786
-0.405099
-0.401082
-0.398539
-0.394565
-0.388972
-0.385557
-0.389195
-0.495946
-0.483168
-0.473636
-0.466978
-0.460949
-0.456145
-0.451441
-0.446062
-0.442354
-0.442373
-0.533549
-0.532319
-0.525632
-0.521079
-0.516333
-0.512768
-0.510525
-0.508302
-0.507496
-0.503884
-0.577369
-0.576353
-0.571466
-0.571953
-0.568139
-0.566297
-0.568128
-0.570875
-0.572707
-0.56678
-0.621207
-0.620604
-0.61817
-0.620797
-0.617898
-0.618844
-0.623026
-0.628511
-0.630867
-0.624205
-0.665733
-0.667563
-0.667846
-0.670291
-0.669185
-0.671929
-0.676392
-0.682342
-0.684254
-0.678623
-0.713313
-0.717034
-0.717394
-0.719049
-0.719728
-0.724171
-0.729486
-0.733937
-0.736557
-0.731545
-0.762107
-0.766121
-0.766704
-0.767511
-0.769299
-0.774536
-0.779656
-0.782725
-0.783813
-0.781193
-0.808763
-0.81527
-0.816618
-0.816182
-0.816954
-0.820578
-0.823116
-0.824964
-0.825468
-0.823951
-0.86057
-0.866819
-0.867601
-0.865471
-0.863011
-0.862351
-0.862026
-0.864165
-0.866626
-0.867854
-0.914154
-0.922088
-0.918314
-0.913991
-0.907986
-0.903999
-0.903331
-0.904804
-0.909681
-0.916725
379.403
379.126
378.658
378.043
377.314
376.536
375.767
375.054
374.422
373.904
330.442
330.111
329.585
328.918
328.14
327.322
326.515
325.763
325.105
324.574
281.609
281.144
280.5
279.726
278.84
277.918
277.019
276.188
275.485
274.941
232.878
232.219
231.4
230.458
229.369
228.253
227.185
226.227
225.466
224.921
184.307
183.239
182.198
181.039
179.685
178.266
176.924
175.787
174.964
174.457
136.212
134.64
132.979
131.334
129.533
127.649
125.893
124.459
123.509
123.098
88.9284
86.2183
83.3114
80.7415
78.1311
75.397
72.7695
70.7214
69.5556
69.294
44.5059
39.6634
34.4825
30.8531
27.8597
24.9359
22.3015
20.4915
19.7147
19.7893
11.248
7.1454
3.69082
2.46901
1.83901
1.21088
0.687745
0.371003
0.228532
0.210975
-0.373713
-0.393044
-0.397655
-0.399113
-0.393264
-0.386342
-0.377553
-0.370326
-0.368066
-0.372441
-0.474628
-0.472518
-0.463663
-0.453428
-0.450014
-0.445576
-0.440445
-0.435379
-0.431369
-0.428554
-0.522448
-0.525789
-0.516006
-0.508393
-0.507942
-0.507473
-0.507518
-0.50688
-0.503138
-0.493944
-0.569907
-0.570003
-0.565063
-0.564996
-0.565204
-0.567105
-0.571334
-0.573406
-0.572088
-0.561625
-0.613761
-0.614087
-0.61381
-0.618201
-0.618404
-0.621957
-0.62728
-0.632522
-0.634122
-0.622568
-0.660609
-0.663688
-0.664571
-0.669316
-0.670709
-0.674482
-0.679268
-0.68557
-0.68864
-0.679119
-0.710176
-0.715247
-0.715806
-0.71933
-0.7214
-0.725044
-0.730438
-0.735823
-0.735963
-0.729908
-0.762537
-0.765471
-0.766284
-0.768272
-0.770291
-0.773607
-0.779472
-0.782113
-0.778716
-0.773289
-0.810448
-0.816958
-0.817901
-0.817043
-0.816769
-0.818054
-0.820732
-0.821467
-0.819194
-0.816902
-0.862597
-0.87202
-0.87157
-0.866697
-0.861366
-0.858021
-0.85787
-0.860123
-0.863647
-0.866709
-0.924221
-0.928312
-0.922774
-0.915447
-0.905826
-0.901183
-0.902172
-0.906881
-0.915512
-0.922975
378.662
378.385
377.908
377.285
376.563
375.798
375.046
374.359
373.769
373.304
329.647
329.313
328.782
328.106
327.33
326.516
325.72
324.989
324.373
323.875
280.681
280.212
279.584
278.795
277.894
276.962
276.071
275.262
274.595
274.08
231.739
231.059
230.28
229.316
228.198
227.055
225.991
225.063
224.346
223.83
182.873
181.859
180.799
179.588
178.14
176.661
175.337
174.266
173.521
173.122
134.504
132.935
131.212
129.353
127.387
125.404
123.641
122.311
121.55
121.413
86.972
84.1928
81.1557
78.2537
75.2149
72.1164
69.339
67.4847
66.831
67.264
42.0214
37.4896
32.4456
28.2197
24.7466
21.5691
19.0145
17.6698
17.6376
18.5577
10.0992
6.42584
3.19119
1.82528
1.09994
0.524159
0.13792
-0.0590897
-0.127477
-0.0709981
-0.367064
-0.380858
-0.392269
-0.396953
-0.386513
-0.375498
-0.363693
-0.356945
-0.354306
-0.358791
-0.451029
-0.457303
-0.455922
-0.44643
-0.440158
-0.436705
-0.434512
-0.432207
-0.425089
-0.42124
-0.506676
-0.513869
-0.508534
-0.500935
-0.500577
-0.50326
-0.50613
-0.505988
-0.498093
-0.488991
-0.556507
-0.560071
-0.557762
-0.557823
-0.561236
-0.567639
-0.572157
-0.574148
-0.568157
-0.556924
-0.605911
-0.607447
-0.60653
-0.612099
-0.617424
-0.62578
-0.630616
-0.63427
-0.629748
-0.61921
-0.655894
-0.660304
-0.659529
-0.665303
-0.67102
-0.678677
-0.682733
-0.687165
-0.683782
-0.674685
-0.708445
-0.713826
-0.713386
-0.717652
-0.72239
-0.727696
-0.731476
-0.735579
-0.729991
-0.72467
-0.76191
-0.765149
-0.765531
-0.768207
-0.771252
-0.774181
-0.778802
-0.779917
-0.773812
-0.773588
-0.812143
-0.818294
-0.818369
-0.817826
-0.817596
-0.817826
-0.820063
-0.819679
-0.819626
-0.824877
-0.865575
-0.876047
-0.874159
-0.868292
-0.861806
-0.8575
-0.858099
-0.863467
-0.872615
-0.878757
-0.930281
-0.932681
-0.928177
-0.918732
-0.90727
-0.903758
-0.907919
-0.918514
-0.929937
-0.933986
378.135
377.855
377.373
376.747
376.026
375.262
374.516
373.837
373.262
372.716
329.075
328.742
328.201
327.521
326.742
325.924
325.13
324.413
323.806
323.349
279.984
279.526
278.892
278.106
277.197
276.253
275.365
274.571
273.912
273.505
230.868
230.184
229.394
228.442
227.318
226.147
225.084
224.176
223.476
223.167
181.778
180.782
179.679
178.418
176.925
175.413
174.091
173.048
172.363
172.252
133.132
131.534
129.72
127.774
125.745
123.683
121.842
120.498
119.865
120.152
85.2179
82.5835
79.4857
76.3426
72.9469
69.4759
66.3447
64.3605
64.0928
65.3515
39.8622
35.6435
30.6798
26.0305
22.0408
18.5421
15.8688
14.7513
15.3097
17.1257
8.99022
5.96223
2.85209
1.34847
0.57466
0.0561157
-0.200754
-0.242136
-0.23016
-0.198655
-0.362367
-0.370819
-0.389833
-0.399765
-0.384591
-0.369963
-0.358875
-0.354511
-0.348521
-0.348581
-0.437261
-0.443141
-0.45005
-0.44671
-0.436016
-0.43114
-0.429272
-0.424195
-0.415495
-0.414463
-0.495488
-0.498295
-0.501237
-0.498072
-0.494881
-0.496243
-0.498713
-0.497269
-0.4867
-0.482587
-0.54756
-0.54961
-0.551432
-0.552078
-0.5539
-0.55951
-0.56415
-0.568196
-0.557914
-0.5531
-0.597467
-0.600233
-0.60126
-0.605491
-0.611
-0.619135
-0.627449
-0.631718
-0.623176
-0.614494
-0.650719
-0.655745
-0.655637
-0.660344
-0.666822
-0.674891
-0.684257
-0.68769
-0.678217
-0.669965
-0.705963
-0.711805
-0.711647
-0.715216
-0.720792
-0.727105
-0.733074
-0.735473
-0.726532
-0.723157
-0.758888
-0.761608
-0.764706
-0.767818
-0.771184
-0.774641
-0.779168
-0.780189
-0.774689
-0.777067
-0.810827
-0.815089
-0.817565
-0.81861
-0.818528
-0.818861
-0.821618
-0.822949
-0.826451
-0.832947
-0.867073
-0.87517
-0.873059
-0.870185
-0.863908
-0.859846
-0.862694
-0.87155
-0.88278
-0.887936
-0.92995
-0.935839
-0.93387
-0.922358
-0.910097
-0.908251
-0.916705
-0.929525
-0.939
-0.940397
377.875
377.591
377.106
376.474
375.748
374.978
374.226
373.554
372.982
372.482
328.785
328.474
327.922
327.224
326.436
325.61
324.81
324.096
323.493
323.067
279.632
279.188
278.563
277.752
276.831
275.875
274.974
274.179
273.53
273.125
230.413
229.751
228.952
227.973
226.835
225.65
224.562
223.64
222.951
222.623
181.183
180.208
179.06
177.751
176.252
174.704
173.332
172.248
171.558
171.415
132.28
130.699
128.845
126.927
124.822
122.672
120.738
119.253
118.513
118.759
84.0389
81.6428
78.6265
75.3265
71.693
67.9216
64.2977
62.0725
61.6555
63.0394
38.3396
34.4489
29.5868
24.9584
20.4645
16.4339
13.4626
12.6816
13.1465
14.9204
8.11643
5.6756
2.76819
1.1744
0.321159
-0.181941
-0.25505
-0.264098
-0.252714
-0.224939
-0.366368
-0.375249
-0.398972
-0.407601
-0.389636
-0.369013
-0.355414
-0.346089
-0.340212
-0.34485
-0.43667
-0.443094
-0.452112
-0.449977
-0.437409
-0.425354
-0.419491
-0.414862
-0.408499
-0.411657
-0.495539
-0.498381
-0.498836
-0.496047
-0.489398
-0.483682
-0.483219
-0.484943
-0.477409
-0.479375
-0.548603
-0.552626
-0.552252
-0.548631
-0.543805
-0.540813
-0.547612
-0.556566
-0.548536
-0.550203
-0.598382
-0.602947
-0.604594
-0.603068
-0.600403
-0.59868
-0.616759
-0.625771
-0.614016
-0.611549
-0.644882
-0.651353
-0.657724
-0.6588
-0.657836
-0.66037
-0.684206
-0.686114
-0.670278
-0.666675
-0.700636
-0.70393
-0.712124
-0.714315
-0.714932
-0.721798
-0.740154
-0.736329
-0.721383
-0.718108
-0.753715
-0.755531
-0.76352
-0.767735
-0.76944
-0.777374
-0.787215
-0.782965
-0.773403
-0.772025
-0.805569
-0.806147
-0.814924
-0.819568
-0.820156
-0.825178
-0.829513
-0.828729
-0.829552
-0.83056
-0.865618
-0.870316
-0.871375
-0.872063
-0.867964
-0.866995
-0.871994
-0.879902
-0.886994
-0.887983
-0.927225
-0.933707
-0.935464
-0.926166
-0.914678
-0.914462
-0.926549
-0.93808
-0.943441
-0.941419
377.899
377.619
377.127
376.485
375.745
374.964
374.202
373.514
372.93
372.468
328.825
328.514
327.947
327.241
326.442
325.605
324.793
324.057
323.443
322.973
279.68
279.29
278.638
277.783
276.851
275.878
274.952
274.125
273.461
272.996
230.441
229.826
229.065
228.073
226.89
225.657
224.515
223.543
222.828
222.419
181.154
180.214
179.129
177.855
176.327
174.71
173.239
172.052
171.275
171.012
132.089
130.628
128.962
127.016
125.006
122.752
120.652
118.954
117.969
117.979
83.6309
81.3237
78.5754
75.8367
72.2162
68.2733
64.2965
61.5264
60.5717
61.4681
37.6909
34.3149
29.748
25.8153
21.4578
16.9213
13.1425
11.9794
12.1881
13.3871
7.61906
5.64743
2.96281
1.37665
0.465042
-0.165393
-0.246194
-0.263038
-0.261727
-0.246978
-0.366074
-0.388967
-0.413024
-0.409795
-0.390206
-0.371968
-0.351121
-0.348146
-0.34805
-0.349101
-0.442596
-0.45434
-0.460413
-0.451171
-0.432904
-0.419989
-0.414614
-0.415012
-0.416892
-0.420856
-0.502416
-0.506727
-0.501537
-0.490421
-0.479123
-0.473406
-0.474861
-0.479287
-0.480112
-0.485171
-0.556159
-0.56157
-0.554982
-0.54223
-0.531832
-0.526198
-0.538391
-0.545657
-0.546212
-0.55187
-0.606373
-0.611719
-0.608876
-0.598405
-0.587161
-0.583939
-0.609651
-0.614263
-0.607519
-0.612174
-0.651877
-0.656037
-0.659086
-0.653857
-0.645417
-0.654884
-0.687974
-0.677159
-0.661542
-0.663878
-0.695835
-0.700176
-0.706048
-0.707783
-0.707152
-0.73017
-0.752836
-0.732575
-0.710357
-0.71202
-0.75028
-0.747388
-0.754803
-0.761595
-0.769246
-0.794782
-0.804073
-0.782726
-0.762233
-0.762603
-0.801308
-0.796439
-0.808133
-0.816984
-0.825703
-0.843487
-0.845737
-0.832166
-0.822291
-0.822541
-0.862141
-0.860877
-0.867492
-0.872385
-0.876048
-0.883139
-0.88628
-0.885553
-0.885241
-0.883705
-0.927556
-0.929498
-0.931092
-0.92912
-0.923568
-0.926378
-0.937914
-0.944872
-0.945073
-0.940724
378.206
377.926
377.432
376.784
376.026
375.227
374.446
373.734
373.117
372.636
329.165
328.841
328.29
327.58
326.764
325.91
325.076
324.316
323.673
323.185
280.093
279.713
279.051
278.203
277.247
276.26
275.305
274.448
273.755
273.274
230.941
230.335
229.584
228.597
227.409
226.154
224.971
223.958
223.203
222.754
181.712
180.761
179.806
178.596
177.039
175.387
173.857
172.602
171.741
171.368
132.683
131.309
129.863
128.211
126.118
123.789
121.595
119.774
118.581
118.31
84.3224
82.1417
79.7035
77.2325
73.8592
70.0477
66.1295
62.9491
61.3186
61.5713
37.9559
34.9241
30.8977
27.3788
23.6167
19.152
14.9082
12.6065
12.223
13.0523
7.39776
5.67215
3.24489
1.74344
0.860292
0.106036
-0.230478
-0.257836
-0.263893
-0.254028
-0.359229
-0.393421
-0.411658
-0.403852
-0.391257
-0.381166
-0.364452
-0.35908
-0.361328
-0.360639
-0.445778
-0.463336
-0.46174
-0.449525
-0.435461
-0.42773
-0.42437
-0.425058
-0.432178
-0.437867
-0.50652
-0.510753
-0.50267
-0.493942
-0.484976
-0.480556
-0.482515
-0.483388
-0.49141
-0.504274
-0.557489
-0.562302
-0.556384
-0.546996
-0.53683
-0.532793
-0.541636
-0.542265
-0.549975
-0.56308
-0.604932
-0.612785
-0.609467
-0.600713
-0.58981
-0.588446
-0.604776
-0.605102
-0.608641
-0.619657
-0.64947
-0.657896
-0.659067
-0.653791
-0.645972
-0.656905
-0.672382
-0.664749
-0.661253
-0.669041
-0.691863
-0.699059
-0.706286
-0.708395
-0.709462
-0.733065
-0.742549
-0.718458
-0.704122
-0.713246
-0.740271
-0.740719
-0.753181
-0.764899
-0.777711
-0.809163
-0.807465
-0.770487
-0.749543
-0.761955
-0.800084
-0.788388
-0.80488
-0.821539
-0.842858
-0.867166
-0.857806
-0.826641
-0.807556
-0.818572
-0.858733
-0.851242
-0.865709
-0.877538
-0.892624
-0.906133
-0.901269
-0.885813
-0.876365
-0.878051
-0.927004
-0.924297
-0.928265
-0.932833
-0.937625
-0.943171
-0.949358
-0.94857
-0.942804
-0.939952
378.761
378.472
377.978
377.338
376.564
375.737
374.923
374.169
373.51
372.998
329.769
329.431
328.885
328.187
327.356
326.48
325.617
324.816
324.129
323.601
280.828
280.407
279.727
278.892
277.954
276.961
275.981
275.083
274.342
273.804
231.885
231.235
230.489
229.476
228.315
227.078
225.874
224.813
223.988
223.451
182.864
181.899
181.017
179.797
178.285
176.655
175.113
173.803
172.84
172.308
134.019
132.738
131.436
129.868
127.859
125.654
123.475
121.608
120.282
119.712
86.0032
83.8999
81.6011
79.2054
76.353
72.9711
69.405
66.2594
64.1835
63.7092
39.2111
36.3975
32.6136
29.4858
26.2402
22.5544
18.5703
15.4164
13.9622
14.1306
7.56519
5.94333
3.6626
2.13876
1.38943
0.683164
0.0575435
-0.211974
-0.237462
-0.236038
-0.345524
-0.386728
-0.406063
-0.4079
-0.401415
-0.393579
-0.385914
-0.374104
-0.37196
-0.369335
-0.444357
-0.467919
-0.472289
-0.469296
-0.456033
-0.443786
-0.436151
-0.432865
-0.438441
-0.446474
-0.507629
-0.520202
-0.527391
-0.525659
-0.506819
-0.496662
-0.492863
-0.490497
-0.498914
-0.513645
-0.560483
-0.575179
-0.581115
-0.57119
-0.553795
-0.546786
-0.548509
-0.548218
-0.558617
-0.572454
-0.612532
-0.627542
-0.62889
-0.615599
-0.601401
-0.599251
-0.602541
-0.606512
-0.618242
-0.626876
-0.658122
-0.671423
-0.672639
-0.662158
-0.656021
-0.654187
-0.657219
-0.661052
-0.668976
-0.6738
-0.698946
-0.709512
-0.716538
-0.715691
-0.713108
-0.716814
-0.717771
-0.71063
-0.712205
-0.719142
-0.742531
-0.748681
-0.762451
-0.769957
-0.777836
-0.789856
-0.782069
-0.758727
-0.754825
-0.769574
-0.795216
-0.792338
-0.810509
-0.827677
-0.84588
-0.865144
-0.846547
-0.812788
-0.804855
-0.824278
-0.859629
-0.849002
-0.867073
-0.884634
-0.905703
-0.919158
-0.903334
-0.876788
-0.869311
-0.883813
-0.923772
-0.917443
-0.926787
-0.937737
-0.950066
-0.956956
-0.954148
-0.944947
-0.938338
-0.944213
379.5
379.186
378.697
378.082
377.292
376.44
375.592
374.792
374.091
373.539
330.575
330.186
329.623
328.949
328.14
327.254
326.362
325.516
324.779
324.202
281.793
281.281
280.547
279.723
278.846
277.884
276.9
275.956
275.149
274.536
233.139
232.456
231.616
230.595
229.483
228.298
227.106
225.994
225.078
224.432
184.568
183.527
182.678
181.396
179.916
178.328
176.818
175.452
174.364
173.673
136.023
134.855
133.689
132.08
130.145
128.081
125.98
124.109
122.682
121.868
88.426
86.5501
84.3494
81.9336
79.4047
76.5332
73.468
70.6251
68.5348
67.5346
41.4727
39.0097
35.3744
31.8888
29.1679
26.2543
23.0201
20.0176
17.9934
17.2843
8.15168
6.732
4.52869
2.80501
1.93891
1.39216
0.800088
0.308348
0.0568203
-0.0185961
-0.320497
-0.375278
-0.403857
-0.415118
-0.412438
-0.402535
-0.39632
-0.3917
-0.384808
-0.378563
-0.441357
-0.476739
-0.490832
-0.492226
-0.476615
-0.456992
-0.445311
-0.44184
-0.442854
-0.444154
-0.510544
-0.531801
-0.545292
-0.543171
-0.523358
-0.508102
-0.498766
-0.49825
-0.506944
-0.513511
-0.566058
-0.583634
-0.594724
-0.585064
-0.567605
-0.559925
-0.556556
-0.554624
-0.565129
-0.574784
-0.622262
-0.639706
-0.643814
-0.627595
-0.614448
-0.609902
-0.608943
-0.611731
-0.622517
-0.626384
-0.671015
-0.690946
-0.691277
-0.67428
-0.665213
-0.656389
-0.657906
-0.668699
-0.673664
-0.67313
-0.713519
-0.729851
-0.732321
-0.72603
-0.716558
-0.7066
-0.7084
-0.714305
-0.719197
-0.721758
-0.755357
-0.766231
-0.775706
-0.777031
-0.773023
-0.767431
-0.763098
-0.75798
-0.765786
-0.776577
-0.803326
-0.806205
-0.821084
-0.830561
-0.83533
-0.83661
-0.825312
-0.807931
-0.815255
-0.831793
-0.863272
-0.854045
-0.870521
-0.885485
-0.898785
-0.905256
-0.889573
-0.86815
-0.872522
-0.889546
-0.919536
-0.911817
-0.924512
-0.938081
-0.949837
-0.955895
-0.94696
-0.934645
-0.939065
-0.949126
380.327
379.953
379.513
379.005
378.167
377.258
376.39
375.54
374.794
374.201
331.457
330.951
330.409
329.893
329.093
328.155
327.245
326.35
325.564
324.938
282.857
282.264
281.427
280.749
279.867
278.935
277.973
276.989
276.119
275.436
234.592
233.896
232.994
232.003
230.867
229.702
228.546
227.389
226.391
225.642
186.543
185.658
184.782
183.453
181.89
180.319
178.808
177.385
176.195
175.353
138.609
137.577
136.576
134.908
132.909
130.83
128.79
126.925
125.403
124.388
91.4894
89.9944
88.0939
85.6813
83.0773
80.4196
77.702
75.1606
73.1586
71.9085
44.7655
42.7931
39.6742
36.151
32.9701
30.2558
27.424
24.8649
22.8896
21.7332
9.52555
8.31397
6.23109
4.28676
2.98047
2.15303
1.60765
1.151
0.80225
0.592616
-0.254419
-0.335344
-0.388374
-0.415824
-0.418759
-0.407625
-0.397496
-0.396612
-0.39506
-0.392921
-0.44155
-0.483626
-0.498507
-0.502973
-0.487883
-0.466958
-0.451053
-0.446671
-0.447726
-0.447479
-0.51536
-0.535052
-0.544716
-0.544147
-0.532306
-0.517092
-0.505294
-0.502538
-0.510329
-0.511882
-0.566951
-0.57811
-0.58681
-0.585595
-0.575888
-0.568275
-0.562326
-0.555537
-0.567967
-0.574374
-0.620148
-0.632735
-0.639154
-0.632227
-0.621611
-0.617028
-0.616555
-0.610724
-0.62078
-0.627869
-0.672846
-0.689611
-0.694187
-0.681857
-0.671085
-0.664604
-0.664549
-0.669914
-0.67239
-0.674996
-0.720941
-0.740313
-0.745731
-0.734929
-0.723529
-0.711168
-0.709675
-0.717402
-0.72079
-0.724599
-0.764272
-0.78267
-0.793098
-0.788467
-0.777556
-0.762365
-0.759595
-0.763976
-0.770697
-0.781352
-0.809014
-0.820821
-0.836655
-0.839875
-0.833484
-0.821057
-0.81083
-0.810498
-0.820304
-0.837402
-0.856815
-0.863067
-0.879756
-0.890965
-0.89158
-0.882585
-0.869449
-0.864827
-0.877192
-0.893502
-0.905025
-0.910076
-0.9233
-0.937784
-0.943135
-0.941078
-0.932101
-0.926101
-0.937575
-0.950048
381.124
380.674
380.338
379.894
379.05
378.107
377.201
376.321
375.535
374.904
332.311
331.752
331.258
330.828
329.998
329.062
328.154
327.232
326.402
325.73
283.959
283.32
282.632
281.971
280.956
279.995
279.098
278.086
277.167
276.423
236.158
235.408
234.635
233.687