/*--------------------------------*- C++ -*----------------------------------*\
| =========                 |                                                 |
| \\      /  F ield         | OpenFOAM: The Open Source CFD Toolbox           |
|  \\    /   O peration     | Version:  2312                                  |
|   \\  /    A nd           | Website:  www.openfoam.com                      |
|    \\/     M anipulation  |                                                 |
\*---------------------------------------------------------------------------*/
FoamFile
{
    version     2.0;
    format      ascii;
    arch        "LSB;label=32;scalar=64";
    class       volScalarField;
    location    "1.35";
    object      p;
}
// * * * * * * * * * * * * * * * * * * * * * * * * * * * * * * * * * * * * * //

dimensions      [1 -1 -2 0 0 0 0];

internalField   nonuniform List<scalar> 
8000
(
374.586
374.656
374.723
374.854
375.054
375.304
375.599
375.938
376.317
376.744
325.329
325.402
325.322
325.401
325.652
325.966
326.273
326.608
326.993
327.447
275.778
275.923
275.831
275.869
276.054
276.352
276.669
276.994
277.375
277.794
225.534
225.769
225.88
226.134
226.389
226.611
226.804
226.978
227.23
227.635
174.333
174.769
175.355
175.919
176.32
176.498
176.472
176.384
176.394
176.732
122.019
122.49
123.733
124.825
125.48
125.672
125.412
124.911
124.577
124.795
68.2297
69.1374
71.3954
73.3034
74.3712
74.4728
73.6342
72.3102
71.3019
71.1669
20.2598
21.5218
24.4357
26.7493
27.9486
27.8546
26.3764
24.2107
22.4834
21.8169
0.749277
0.968998
1.73421
2.56308
3.08644
3.11357
2.60906
1.88381
1.36517
1.16705
-0.329931
-0.343501
-0.365658
-0.381374
-0.393088
-0.398526
-0.393949
-0.383855
-0.369822
-0.35848
-0.382882
-0.398309
-0.414203
-0.426183
-0.43654
-0.444747
-0.447546
-0.441648
-0.430414
-0.422327
-0.438597
-0.451552
-0.463479
-0.471513
-0.478599
-0.488756
-0.49765
-0.496672
-0.48879
-0.483826
-0.498951
-0.505017
-0.517657
-0.524917
-0.532325
-0.541712
-0.546893
-0.546349
-0.540913
-0.535995
-0.560166
-0.564959
-0.572701
-0.580117
-0.588626
-0.595142
-0.597305
-0.595759
-0.59119
-0.586008
-0.617459
-0.622221
-0.62542
-0.632328
-0.638286
-0.645771
-0.648789
-0.647848
-0.644959
-0.641387
-0.670983
-0.675934
-0.676789
-0.684663
-0.68629
-0.691393
-0.700255
-0.704874
-0.704315
-0.70129
-0.727433
-0.733473
-0.735086
-0.740961
-0.741741
-0.746246
-0.755489
-0.764026
-0.76351
-0.759122
-0.788524
-0.793102
-0.796437
-0.797254
-0.800449
-0.805906
-0.811939
-0.81731
-0.820074
-0.814562
-0.846535
-0.854384
-0.857114
-0.855145
-0.859541
-0.863694
-0.868621
-0.874777
-0.877435
-0.870138
-0.907523
-0.916903
-0.918861
-0.917385
-0.918087
-0.919969
-0.924426
-0.931066
-0.934517
-0.927783
374.671
374.847
374.922
375.036
375.229
375.486
375.789
376.138
376.518
376.93
325.423
325.51
325.461
325.515
325.781
326.138
326.471
326.817
327.199
327.648
275.891
275.913
275.738
275.81
276.129
276.523
276.895
277.249
277.65
278.082
225.391
225.511
225.726
226.112
226.522
226.87
227.147
227.366
227.573
227.921
173.795
174.192
175.066
175.919
176.534
176.869
176.933
176.867
176.833
177.121
121.623
122.147
123.423
124.681
125.535
125.916
125.826
125.448
125.181
125.478
68.9199
69.6517
71.6827
73.5177
74.5926
74.7055
74.0192
73.0035
72.3388
72.5142
20.9225
22.2548
24.8602
27.0956
28.3748
28.2285
26.779
24.9675
23.7144
23.4637
0.820576
1.02071
1.71649
2.51844
3.18004
3.26638
2.68934
1.86826
1.33527
1.17425
-0.32316
-0.349939
-0.373514
-0.38922
-0.401702
-0.400646
-0.394848
-0.386673
-0.371483
-0.359931
-0.377257
-0.405643
-0.42433
-0.435905
-0.445558
-0.451292
-0.453099
-0.447751
-0.437808
-0.431011
-0.429916
-0.455284
-0.468441
-0.473778
-0.481589
-0.495434
-0.506036
-0.505323
-0.49887
-0.494774
-0.490256
-0.511225
-0.518783
-0.523048
-0.530741
-0.545097
-0.555363
-0.555085
-0.549935
-0.544041
-0.554911
-0.569064
-0.573668
-0.580114
-0.588564
-0.598685
-0.60384
-0.601818
-0.596492
-0.591652
-0.619978
-0.627223
-0.628367
-0.63594
-0.645921
-0.654399
-0.653078
-0.646981
-0.645272
-0.648954
-0.681737
-0.683398
-0.681744
-0.687101
-0.695162
-0.701641
-0.701683
-0.70261
-0.709331
-0.71452
-0.731813
-0.737535
-0.736136
-0.740282
-0.744009
-0.750535
-0.756788
-0.767932
-0.775362
-0.770821
-0.785941
-0.789568
-0.792982
-0.797245
-0.801723
-0.808626
-0.818973
-0.829856
-0.835987
-0.827883
-0.840279
-0.84551
-0.851183
-0.855826
-0.860873
-0.866335
-0.875007
-0.887362
-0.895666
-0.886988
-0.902503
-0.91368
-0.918925
-0.919387
-0.918479
-0.921756
-0.928856
-0.941205
-0.952256
-0.947073
374.759
375.043
375.486
375.695
375.741
375.876
376.153
376.504
376.882
377.279
325.351
325.542
325.8
325.892
326.112
326.468
326.821
327.173
327.548
327.981
275.775
275.722
275.871
275.911
276.217
276.736
277.211
277.606
278.009
278.469
225.402
225.421
225.768
226.095
226.509
227.019
227.462
227.764
228.034
228.427
174.373
174.566
175.201
175.921
176.561
177.07
177.326
177.393
177.491
177.835
123.069
123.125
123.84
124.798
125.634
126.194
126.358
126.287
126.324
126.757
70.8482
71.2212
72.7823
74.21
75.0744
75.2293
74.816
74.1846
73.8224
74.1194
22.8175
23.9404
26.2744
28.3791
29.3303
29.0243
27.8705
26.4371
25.2966
25.0008
1.21019
1.46122
2.24303
3.11418
3.64948
3.44366
2.65256
1.79941
1.2777
1.11788
-0.329865
-0.358979
-0.384012
-0.399613
-0.402833
-0.394315
-0.395273
-0.390489
-0.376644
-0.365471
-0.382215
-0.415449
-0.434238
-0.443887
-0.450463
-0.454142
-0.455581
-0.450493
-0.441117
-0.433696
-0.430778
-0.460868
-0.472585
-0.48241
-0.491748
-0.502085
-0.508526
-0.506336
-0.500446
-0.494841
-0.483597
-0.508241
-0.516481
-0.526151
-0.541683
-0.556088
-0.562502
-0.560662
-0.554213
-0.548249
-0.542894
-0.562403
-0.571691
-0.579876
-0.593449
-0.604471
-0.609011
-0.608575
-0.6049
-0.601701
-0.607795
-0.62162
-0.629554
-0.639788
-0.649094
-0.655233
-0.656037
-0.656808
-0.659968
-0.661379
-0.676028
-0.682143
-0.684342
-0.695096
-0.703933
-0.706318
-0.706674
-0.71355
-0.723477
-0.72317
-0.730269
-0.737115
-0.7365
-0.743801
-0.752117
-0.757989
-0.764725
-0.779091
-0.78739
-0.781619
-0.78089
-0.786827
-0.788476
-0.797263
-0.805726
-0.815312
-0.828831
-0.843527
-0.847722
-0.839695
-0.834024
-0.839825
-0.84671
-0.856224
-0.863696
-0.872905
-0.886646
-0.901946
-0.908773
-0.897979
-0.896857
-0.905214
-0.913794
-0.920111
-0.921734
-0.926977
-0.937705
-0.952435
-0.964004
-0.95591
374.972
375.243
376.006
376.333
376.276
376.357
376.635
376.99
377.375
377.78
325.474
325.715
326.228
326.604
326.763
326.994
327.322
327.693
328.087
328.512
275.823
275.832
276.202
276.481
276.796
277.274
277.761
278.171
278.576
279.033
225.824
225.794
226.144
226.523
226.927
227.468
227.975
228.353
228.717
229.168
175.285
175.309
175.726
176.336
176.945
177.514
177.881
178.097
178.35
178.785
124.141
123.986
124.466
125.26
126.124
126.816
127.138
127.203
127.348
127.791
72.5087
72.7086
73.9058
74.9565
75.643
75.7984
75.4892
75.0853
74.9109
75.2972
24.8484
25.7718
27.9134
29.5383
30.1611
29.8355
28.4874
26.7688
25.564
25.2694
1.75392
2.00335
2.84179
3.5786
3.7401
3.26407
2.31714
1.55206
1.15535
1.06905
-0.345126
-0.373098
-0.392539
-0.403688
-0.39955
-0.400126
-0.411827
-0.412238
-0.401094
-0.392606
-0.400702
-0.43214
-0.442751
-0.450485
-0.458262
-0.464528
-0.467791
-0.463354
-0.455096
-0.447512
-0.449902
-0.475859
-0.485312
-0.493081
-0.500347
-0.510881
-0.514908
-0.512289
-0.506789
-0.501432
-0.495566
-0.516986
-0.525495
-0.540311
-0.553301
-0.559154
-0.560259
-0.55823
-0.554375
-0.551244
-0.544648
-0.565202
-0.573798
-0.588627
-0.600679
-0.605298
-0.606834
-0.606038
-0.60519
-0.605351
-0.602711
-0.619588
-0.630205
-0.642213
-0.65285
-0.656982
-0.658183
-0.659622
-0.663327
-0.664847
-0.671521
-0.679099
-0.685929
-0.698494
-0.709437
-0.712944
-0.714908
-0.720551
-0.726492
-0.725727
-0.728869
-0.735213
-0.737102
-0.748215
-0.760471
-0.768
-0.776015
-0.786395
-0.789283
-0.784391
-0.779541
-0.78425
-0.787873
-0.799502
-0.812351
-0.823609
-0.835718
-0.846474
-0.849262
-0.841444
-0.831789
-0.838369
-0.84565
-0.858276
-0.868592
-0.878968
-0.890693
-0.900701
-0.902862
-0.895604
-0.896088
-0.902206
-0.911496
-0.921095
-0.926368
-0.932539
-0.941284
-0.950183
-0.951825
-0.943418
375.294
375.477
376.145
376.502
376.627
376.842
377.184
377.584
378.007
378.427
325.84
326.027
326.519
327.055
327.299
327.548
327.913
328.335
328.775
329.215
276.173
276.257
276.552
277.117
277.58
278.007
278.452
278.898
279.349
279.812
226.377
226.432
226.629
227.136
227.703
228.25
228.743
229.186
229.63
230.11
176.032
176.047
176.356
176.946
177.618
178.23
178.678
179.045
179.428
179.916
125.01
124.701
125.088
125.846
126.78
127.584
127.919
128.117
128.414
128.947
73.848
73.873
74.814
75.4955
76.0142
76.2121
76.1892
75.9955
76.0697
76.7251
26.6694
27.4853
29.2253
30.424
30.8944
30.4623
28.9866
27.0519
26.0217
26.2172
2.39717
2.57057
3.25032
3.63584
3.62768
3.21863
2.47544
1.94985
1.69079
1.74321
-0.360543
-0.381008
-0.398217
-0.410141
-0.407718
-0.423663
-0.452843
-0.457916
-0.435614
-0.416857
-0.415323
-0.441991
-0.447887
-0.458069
-0.472296
-0.484662
-0.491422
-0.48976
-0.481852
-0.471632
-0.467357
-0.487768
-0.493834
-0.502072
-0.513818
-0.525736
-0.530986
-0.529
-0.523399
-0.516353
-0.512837
-0.529054
-0.536799
-0.549502
-0.560291
-0.567502
-0.570069
-0.568884
-0.566111
-0.562563
-0.556113
-0.574343
-0.582237
-0.595326
-0.605189
-0.610385
-0.612261
-0.612435
-0.61281
-0.612499
-0.604937
-0.623385
-0.632229
-0.646129
-0.656315
-0.660565
-0.661848
-0.662968
-0.665759
-0.665488
-0.669108
-0.679712
-0.685028
-0.69965
-0.712449
-0.717417
-0.719387
-0.721401
-0.724229
-0.722712
-0.728703
-0.736379
-0.738773
-0.75131
-0.765419
-0.774141
-0.779077
-0.781897
-0.782551
-0.780584
-0.781335
-0.78526
-0.790132
-0.804107
-0.818534
-0.828505
-0.834974
-0.837972
-0.838655
-0.837323
-0.83383
-0.838887
-0.84835
-0.861851
-0.872851
-0.88108
-0.887233
-0.890438
-0.891988
-0.891037
-0.897629
-0.901223
-0.911426
-0.922253
-0.929203
-0.934601
-0.939743
-0.94297
-0.942837
-0.937959
375.628
375.798
376.235
376.619
376.964
377.346
377.79
378.27
378.747
379.187
326.29
326.45
326.84
327.304
327.687
328.097
328.577
329.09
329.594
330.062
276.716
276.818
277.083
277.646
278.184
278.688
279.216
279.757
280.28
280.766
226.96
227.101
227.249
227.764
228.424
229.04
229.623
230.196
230.744
231.253
176.659
176.662
176.973
177.587
178.353
179.071
179.687
180.246
180.774
181.307
125.678
125.262
125.656
126.491
127.53
128.339
128.929
129.394
129.904
130.539
74.8389
74.7168
75.2141
75.7944
76.482
77.26
77.4524
77.5786
78.0433
78.9298
28.1648
28.8203
30.0396
31.0694
31.6779
31.1581
29.7652
28.3499
27.9401
28.528
3.13212
3.14729
3.42101
3.69729
3.98796
3.84758
3.26085
2.70477
2.56584
2.7407
-0.373124
-0.384368
-0.402442
-0.417329
-0.421617
-0.441321
-0.478041
-0.481256
-0.456112
-0.422375
-0.423271
-0.439912
-0.453489
-0.470397
-0.487542
-0.502238
-0.515667
-0.519855
-0.513352
-0.497334
-0.474067
-0.488199
-0.49766
-0.511586
-0.526682
-0.540826
-0.548677
-0.547093
-0.539183
-0.527059
-0.523102
-0.534328
-0.542196
-0.555291
-0.56826
-0.579927
-0.586029
-0.585283
-0.579277
-0.571414
-0.570921
-0.582147
-0.588998
-0.60125
-0.610781
-0.620487
-0.62525
-0.625537
-0.623082
-0.619166
-0.614437
-0.628594
-0.637656
-0.650625
-0.66146
-0.668847
-0.672647
-0.673109
-0.672164
-0.668224
-0.6703
-0.682247
-0.687401
-0.704448
-0.718156
-0.725982
-0.730256
-0.730146
-0.727469
-0.721177
-0.729532
-0.737494
-0.741747
-0.755489
-0.772357
-0.782317
-0.787427
-0.787749
-0.782641
-0.777116
-0.785668
-0.78823
-0.795251
-0.80917
-0.823483
-0.832644
-0.83726
-0.838506
-0.837137
-0.833201
-0.840279
-0.842085
-0.852494
-0.86494
-0.874653
-0.880862
-0.885171
-0.88786
-0.891204
-0.886447
-0.904359
-0.900661
-0.910193
-0.921744
-0.928272
-0.932934
-0.93751
-0.94116
-0.942563
-0.937203
375.993
376.17
376.528
376.946
377.402
377.905
378.453
379.016
379.549
380.004
326.702
326.881
327.23
327.669
328.163
328.715
329.317
329.928
330.5
330.992
277.255
277.387
277.674
278.17
278.76
279.395
280.063
280.727
281.332
281.852
227.494
227.672
227.887
228.394
229.095
229.853
230.619
231.367
232.036
232.592
177.184
177.161
177.535
178.199
179.089
180.017
180.87
181.645
182.334
182.918
126.226
125.811
126.341
127.307
128.414
129.479
130.352
131.104
131.84
132.551
75.5035
75.2218
75.5934
76.4072
77.7989
78.7862
79.3668
79.8765
80.6671
81.6986
29.2103
29.5811
30.4102
31.4346
32.0734
32.0343
31.1926
30.3638
30.3384
31.2237
3.79025
3.56623
3.5258
3.94666
4.49436
4.43877
3.89023
3.43618
3.41621
3.72869
-0.3827
-0.391633
-0.411553
-0.424953
-0.425016
-0.43728
-0.480359
-0.503957
-0.475092
-0.413228
-0.430565
-0.443903
-0.463928
-0.483618
-0.496914
-0.509882
-0.527085
-0.536901
-0.529891
-0.505559
-0.473879
-0.48651
-0.502127
-0.519926
-0.5364
-0.550875
-0.560076
-0.558662
-0.547798
-0.530973
-0.522914
-0.531347
-0.542177
-0.55838
-0.574387
-0.589738
-0.598365
-0.597229
-0.588109
-0.574815
-0.57696
-0.585021
-0.590768
-0.602546
-0.615786
-0.630639
-0.637807
-0.63789
-0.63297
-0.624695
-0.626162
-0.636231
-0.641
-0.653592
-0.665481
-0.678457
-0.684046
-0.683117
-0.67785
-0.671806
-0.674833
-0.686268
-0.690046
-0.707653
-0.722664
-0.735215
-0.741711
-0.739359
-0.731932
-0.723198
-0.730379
-0.7403
-0.743432
-0.759346
-0.777128
-0.790445
-0.798608
-0.79616
-0.78603
-0.776726
-0.789113
-0.795504
-0.799367
-0.811941
-0.826253
-0.836864
-0.84367
-0.843524
-0.837401
-0.829612
-0.849993
-0.850951
-0.857466
-0.865739
-0.873992
-0.880239
-0.885772
-0.887826
-0.887182
-0.882025
-0.91093
-0.912637
-0.912213
-0.91835
-0.923692
-0.928614
-0.934261
-0.938821
-0.938388
-0.932916
376.353
376.549
376.901
377.35
377.883
378.485
379.128
379.765
380.35
380.813
327.076
327.293
327.648
328.123
328.703
329.369
330.079
330.781
331.419
331.925
277.741
277.897
278.203
278.719
279.388
280.146
280.947
281.734
282.43
282.989
227.955
228.131
228.428
229.027
229.834
230.743
231.691
232.617
233.421
234.044
177.635
177.607
178.05
178.869
179.938
181.064
182.143
183.147
184.02
184.695
126.771
126.472
127.147
128.194
129.512
130.819
131.993
133.051
134.002
134.805
76.0469
75.6586
76.1798
77.4278
79.0034
80.3804
81.476
82.4531
83.5194
84.7005
29.8377
29.9529
30.4747
31.2853
32.2104
32.6437
32.6143
32.6123
32.9015
34.1278
4.19471
3.84473
3.66132
4.11879
4.5312
4.5022
4.23174
3.99876
4.03412
4.53985
-0.390692
-0.404505
-0.420357
-0.426228
-0.416616
-0.418547
-0.475023
-0.525545
-0.483535
-0.390164
-0.437129
-0.454868
-0.475032
-0.490759
-0.500573
-0.511008
-0.530243
-0.544537
-0.531436
-0.497051
-0.473928
-0.489072
-0.507847
-0.526079
-0.541874
-0.555896
-0.565832
-0.564039
-0.549169
-0.5272
-0.518123
-0.527202
-0.541867
-0.560059
-0.578802
-0.596063
-0.606028
-0.604839
-0.593593
-0.575609
-0.571682
-0.581994
-0.587773
-0.601153
-0.619816
-0.637356
-0.645348
-0.645919
-0.641202
-0.631285
-0.632526
-0.64103
-0.641149
-0.65176
-0.668326
-0.684601
-0.688781
-0.687093
-0.682205
-0.675972
-0.683669
-0.693188
-0.693489
-0.707418
-0.723814
-0.740735
-0.744956
-0.740057
-0.732598
-0.725795
-0.734729
-0.744446
-0.744559
-0.760036
-0.777359
-0.794517
-0.802416
-0.794389
-0.785526
-0.778389
-0.79249
-0.803948
-0.801399
-0.811373
-0.824277
-0.836536
-0.842814
-0.839396
-0.833837
-0.829072
-0.860291
-0.862946
-0.861859
-0.863623
-0.869651
-0.875214
-0.879561
-0.881314
-0.880926
-0.878455
-0.922657
-0.93176
-0.920402
-0.912413
-0.915676
-0.91799
-0.922404
-0.928553
-0.932366
-0.929785
376.691
376.898
377.254
377.737
378.334
379.015
379.733
380.432
381.061
381.547
327.461
327.674
328.041
328.558
329.212
329.968
330.766
331.545
332.247
332.783
278.093
278.32
278.67
279.241
279.988
280.844
281.751
282.645
283.447
284.053
228.347
228.539
228.921
229.637
230.561
231.597
232.69
233.77
234.734
235.428
178.064
178.086
178.623
179.596
180.808
182.087
183.36
184.59
185.694
186.477
127.353
127.185
127.9
129.076
130.553
132.086
133.575
134.958
136.192
137.123
76.6346
76.1363
76.7932
78.0977
79.9071
81.7615
83.5022
85.0484
86.4794
87.8212
30.288
30.2604
30.4046
30.7934
31.9288
33.0762
34.2621
35.1766
36.0192
37.5989
4.41215
4.14578
3.82096
4.01047
4.25271
4.54875
4.74184
4.66772
4.8147
5.47608
-0.39613
-0.410099
-0.423018
-0.424132
-0.412912
-0.401501
-0.46364
-0.525927
-0.466487
-0.362703
-0.440362
-0.459363
-0.479017
-0.494307
-0.502347
-0.512449
-0.533803
-0.544264
-0.520436
-0.479842
-0.474631
-0.490427
-0.510262
-0.529442
-0.544382
-0.558119
-0.568721
-0.564719
-0.545331
-0.519277
-0.515618
-0.52341
-0.541014
-0.561638
-0.582146
-0.600022
-0.609749
-0.607283
-0.594707
-0.574465
-0.565173
-0.57427
-0.581731
-0.599079
-0.622615
-0.641096
-0.648548
-0.648671
-0.644656
-0.636121
-0.624844
-0.639474
-0.637775
-0.648785
-0.670098
-0.685445
-0.687758
-0.686495
-0.683294
-0.677955
-0.691966
-0.701032
-0.695985
-0.70563
-0.722876
-0.739073
-0.738681
-0.735565
-0.730243
-0.725914
-0.739815
-0.751995
-0.749725
-0.759595
-0.774231
-0.791467
-0.792507
-0.788351
-0.783345
-0.779904
-0.799083
-0.80966
-0.810005
-0.81082
-0.819601
-0.831138
-0.834571
-0.832547
-0.833215
-0.83204
-0.867359
-0.875978
-0.871627
-0.86463
-0.865717
-0.868191
-0.870666
-0.87439
-0.880677
-0.88028
-0.930908
-0.942074
-0.931891
-0.916322
-0.906505
-0.90461
-0.907958
-0.921432
-0.932059
-0.931737
376.953
377.168
377.534
378.045
378.686
379.415
380.183
380.915
381.576
382.12
327.735
327.971
328.35
328.9
329.607
330.425
331.28
332.102
332.852
333.504
278.386
278.625
279.024
279.648
280.451
281.378
282.353
283.329
284.205
284.928
228.664
228.863
229.314
230.117
231.132
232.265
233.458
234.655
235.719
236.541
178.463
178.567
179.154
180.215
181.526
182.938
184.372
185.786
187.051
188.006
127.907
127.861
128.583
129.854
131.452
133.193
134.944
136.635
138.169
139.298
77.2439
76.7077
77.2485
78.6722
80.7628
83.1169
85.3925
87.5546
89.4717
91.0199
30.6975
30.4897
30
30.5041
32.0796
34.2207
36.2056
38.1168
40.0969
42.0568
4.53574
4.34591
3.91306
3.97673
4.33167
5.17453
5.63956
5.8738
6.5009
7.30052
-0.389353
-0.405122
-0.435783
-0.454216
-0.406561
-0.374607
-0.466684
-0.513392
-0.438356
-0.341532
-0.437984
-0.455454
-0.481095
-0.497489
-0.500731
-0.510333
-0.534446
-0.538316
-0.511683
-0.47292
-0.469229
-0.486596
-0.510736
-0.530409
-0.542788
-0.560713
-0.571409
-0.563819
-0.542292
-0.51516
-0.510404
-0.518755
-0.538662
-0.563952
-0.585973
-0.605038
-0.612983
-0.607079
-0.592562
-0.571988
-0.558308
-0.56093
-0.573647
-0.59878
-0.627079
-0.646092
-0.651622
-0.648461
-0.64204
-0.634411
-0.614893
-0.627751
-0.630758
-0.646529
-0.672713
-0.686811
-0.687851
-0.685052
-0.680054
-0.674715
-0.686415
-0.704093
-0.699221
-0.704622
-0.723116
-0.733899
-0.732363
-0.729127
-0.723467
-0.719207
-0.749775
-0.761309
-0.757559
-0.760193
-0.771832
-0.785438
-0.783812
-0.781763
-0.777303
-0.773993
-0.807706
-0.815473
-0.814733
-0.813723
-0.81875
-0.829648
-0.829075
-0.830971
-0.833365
-0.834744
-0.871035
-0.878026
-0.877644
-0.872706
-0.871335
-0.869193
-0.867289
-0.877103
-0.88767
-0.892467
-0.93485
-0.940601
-0.932847
-0.92543
-0.911566
-0.903152
-0.911655
-0.931814
-0.943853
-0.946
377.131
377.348
377.725
378.241
378.892
379.638
380.405
381.14
381.797
382.344
327.941
328.181
328.564
329.117
329.834
330.668
331.539
332.366
333.111
333.752
278.574
278.852
279.28
279.914
280.736
281.681
282.696
283.677
284.566
285.258
228.906
229.13
229.607
230.433
231.486
232.668
233.922
235.15
236.256
237.066
178.799
178.979
179.578
180.636
182.001
183.498
185.032
186.531
187.899
188.865
128.37
128.416
129.172
130.461
132.151
134.022
135.91
137.78
139.584
140.859
77.8407
77.3034
77.8401
79.3752
81.7412
84.3907
86.9838
89.5029
91.8995
93.6159
31.1107
30.6883
30.4117
31.3164
33.5325
36.102
38.4072
41.1345
44.4996
46.6875
4.59751
4.35337
4.13265
4.44689
5.18431
6.33551
7.07644
7.75935
9.35905
10.557
-0.36437
-0.396988
-0.475817
-0.488049
-0.414043
-0.44415
-0.520844
-0.50751
-0.410158
-0.277724
-0.425134
-0.438576
-0.471227
-0.493667
-0.492173
-0.510028
-0.536842
-0.542411
-0.527916
-0.494799
-0.460418
-0.479088
-0.507382
-0.533051
-0.549595
-0.568275
-0.576255
-0.567055
-0.546667
-0.52057
-0.50157
-0.510347
-0.537154
-0.57065
-0.595531
-0.613659
-0.61771
-0.607483
-0.590588
-0.571443
-0.551989
-0.548456
-0.565895
-0.603805
-0.636915
-0.655213
-0.657677
-0.64974
-0.637786
-0.629105
-0.611847
-0.613642
-0.620533
-0.649141
-0.681196
-0.694224
-0.692809
-0.686235
-0.677657
-0.671376
-0.679474
-0.694699
-0.698885
-0.706803
-0.727919
-0.735326
-0.732799
-0.725851
-0.716868
-0.711639
-0.755259
-0.764427
-0.764673
-0.763592
-0.774736
-0.784522
-0.784548
-0.778238
-0.772314
-0.770313
-0.815187
-0.81841
-0.819445
-0.820575
-0.828011
-0.837446
-0.83644
-0.838016
-0.842171
-0.848295
-0.874367
-0.875921
-0.877382
-0.883647
-0.887392
-0.887823
-0.890559
-0.902861
-0.91433
-0.923523
-0.936015
-0.937043
-0.930458
-0.931824
-0.931151
-0.934454
-0.949869
-0.966852
-0.976407
-0.980281
377.197
377.41
377.779
378.283
378.907
379.617
380.356
381.068
381.7
382.179
328.023
328.246
328.622
329.161
329.849
330.642
331.474
332.276
332.989
333.527
278.694
278.978
279.375
279.973
280.759
281.669
282.636
283.579
284.417
285.055
229.066
229.291
229.763
230.554
231.563
232.71
233.922
235.101
236.139
236.898
179.025
179.185
179.817
180.861
182.188
183.655
185.159
186.607
187.917
188.875
128.686
128.764
129.549
130.828
132.526
134.393
136.235
138.059
139.835
141.175
78.2983
77.8246
78.4331
80.0145
82.4854
85.1112
87.609
90.2069
92.736
94.6038
31.6146
31.1654
31.2617
32.6764
35.3233
37.9072
40.1372
43.0151
46.5667
49.1011
4.84961
4.47761
4.34128
4.98953
6.18166
7.32225
8.07115
9.28953
11.3997
13.1024
-0.33688
-0.374613
-0.458774
-0.52866
-0.499978
-0.52121
-0.567577
-0.522606
-0.377377
-0.205665
-0.4204
-0.432509
-0.455345
-0.486581
-0.503885
-0.527689
-0.553453
-0.56349
-0.556177
-0.535211
-0.459649
-0.483188
-0.513323
-0.543287
-0.563531
-0.579758
-0.585271
-0.574458
-0.554527
-0.533899
-0.498506
-0.513297
-0.545471
-0.582593
-0.608293
-0.623266
-0.624321
-0.608162
-0.587022
-0.573565
-0.551354
-0.54878
-0.572489
-0.61668
-0.651209
-0.667406
-0.667235
-0.655623
-0.635638
-0.626887
-0.616219
-0.608548
-0.619617
-0.661558
-0.696958
-0.70772
-0.703356
-0.693873
-0.683934
-0.676262
-0.684981
-0.686809
-0.695088
-0.716055
-0.740744
-0.746495
-0.74185
-0.732554
-0.7194
-0.7136
-0.757345
-0.758761
-0.766807
-0.771354
-0.785964
-0.795841
-0.795563
-0.786078
-0.776008
-0.776856
-0.817673
-0.818279
-0.824044
-0.829553
-0.843731
-0.859987
-0.859015
-0.858649
-0.862732
-0.87674
-0.876556
-0.876186
-0.88064
-0.89339
-0.909926
-0.921379
-0.932325
-0.947713
-0.96451
-0.978312
-0.935738
-0.937608
-0.934955
-0.944351
-0.962195
-0.981848
-1.01058
-1.0279
-1.03964
-1.04454
377.147
377.35
377.716
378.198
378.77
379.411
380.082
380.738
381.322
381.771
327.966
328.16
328.543
329.061
329.688
330.401
331.154
331.886
332.537
333.04
278.656
278.911
279.277
279.847
280.573
281.399
282.273
283.119
283.859
284.442
229.038
229.232
229.703
230.443
231.359
232.405
233.503
234.557
235.466
236.143
179.024
179.121
179.798
180.811
182.033
183.369
184.721
186.01
187.157
188.009
128.713
128.756
129.663
130.882
132.448
134.166
135.834
137.437
138.958
140.128
78.3874
78.0686
78.7403
80.2372
82.5302
84.9704
87.2081
89.4807
91.7241
93.4044
31.9118
31.9582
32.4431
33.738
36.2496
38.5443
40.3377
42.5925
45.4167
47.8483
5.21242
5.00197
4.89181
5.34907
6.59226
7.54437
7.88287
8.79643
10.6861
12.5834
-0.395099
-0.410143
-0.415317
-0.490216
-0.537849
-0.459999
-0.495337
-0.558163
-0.484178
-0.315533
-0.458048
-0.474038
-0.466141
-0.486018
-0.522894
-0.538684
-0.550513
-0.562667
-0.56425
-0.556926
-0.481741
-0.510273
-0.52545
-0.546243
-0.567443
-0.581161
-0.585705
-0.575
-0.55735
-0.547274
-0.511989
-0.536198
-0.563446
-0.591824
-0.614762
-0.626746
-0.626044
-0.606842
-0.580852
-0.575871
-0.558252
-0.568127
-0.597205
-0.637184
-0.666698
-0.678388
-0.676247
-0.662594
-0.635357
-0.626693
-0.622277
-0.620872
-0.638789
-0.684631
-0.717571
-0.723607
-0.71576
-0.703236
-0.68973
-0.685807
-0.686626
-0.689916
-0.699246
-0.731817
-0.758924
-0.761883
-0.755782
-0.746692
-0.739504
-0.737154
-0.750269
-0.756192
-0.763316
-0.781471
-0.801048
-0.811355
-0.809365
-0.800434
-0.790936
-0.791318
-0.813801
-0.819062
-0.826417
-0.837161
-0.859306
-0.877085
-0.877854
-0.873962
-0.870513
-0.878611
-0.876131
-0.879831
-0.884042
-0.900708
-0.925805
-0.944515
-0.958607
-0.970873
-0.980697
-0.993527
-0.935288
-0.939947
-0.940515
-0.956812
-0.985579
-1.01499
-1.04553
-1.0651
-1.07359
-1.07321
376.998
377.186
377.558
378.019
378.52
379.064
379.641
380.216
380.737
381.15
327.788
327.983
328.369
328.857
329.4
330.001
330.643
331.279
331.854
332.31
278.441
278.643
279.002
279.569
280.227
280.932
281.672
282.392
283.028
283.531
228.814
229.006
229.425
230.098
230.925
231.822
232.743
233.625
234.388
234.965
178.812
178.879
179.597
180.515
181.574
182.704
183.823
184.877
185.794
186.491
128.346
128.343
129.543
130.65
131.941
133.388
134.778
136.054
137.189
138.073
77.9391
77.7751
78.5036
79.7546
81.6738
83.8462
85.8048
87.5562
89.2042
90.4813
31.1862
31.6815
32.6645
33.9075
35.7492
37.7139
39.0717
40.2512
41.9286
43.6671
4.54498
4.46053
4.58547
5.17508
6.16403
6.99818
7.22532
7.41145
8.33464
9.62699
-0.428384
-0.445786
-0.459381
-0.488637
-0.495047
-0.42201
-0.409578
-0.494047
-0.535449
-0.472239
-0.483073
-0.504708
-0.506266
-0.514997
-0.530222
-0.538443
-0.536109
-0.539777
-0.546017
-0.550314
-0.505001
-0.535818
-0.549908
-0.552485
-0.559774
-0.57087
-0.57359
-0.563712
-0.551175
-0.55158
-0.532967
-0.566802
-0.595326
-0.607432
-0.614469
-0.622059
-0.620423
-0.600654
-0.573386
-0.576244
-0.569719
-0.599134
-0.637484
-0.669448
-0.683593
-0.685198
-0.678333
-0.661801
-0.634259
-0.633055
-0.620884
-0.641559
-0.672608
-0.715562
-0.737419
-0.734694
-0.721807
-0.703835
-0.688452
-0.692884
-0.680352
-0.697095
-0.715509
-0.749727
-0.772263
-0.771439
-0.760002
-0.746126
-0.738914
-0.746824
-0.745565
-0.758304
-0.768661
-0.789336
-0.807953
-0.81577
-0.812574
-0.802624
-0.79776
-0.805184
-0.811807
-0.819952
-0.825257
-0.839923
-0.861285
-0.876321
-0.877072
-0.870957
-0.868408
-0.87465
-0.875135
-0.8812
-0.882679
-0.89936
-0.923656
-0.94115
-0.949395
-0.951227
-0.953688
-0.954706
-0.931928
-0.939256
-0.939008
-0.957601
-0.985272
-1.01133
-1.02923
-1.03623
-1.03366
-1.02168
376.781
376.96
377.378
377.815
378.22
378.642
379.102
379.578
380.021
380.383
327.517
327.704
328.141
328.649
329.082
329.522
330.024
330.545
331.026
331.415
278.032
278.175
278.519
279.183
279.797
280.355
280.935
281.516
282.036
282.445
228.359
228.529
228.783
229.478
230.33
231.077
231.794
232.486
233.084
233.536
178.318
178.444
179.119
179.958
180.898
181.792
182.633
183.42
184.08
184.598
127.62
127.645
128.955
130.103
131.13
132.246
133.253
134.155
134.871
135.453
76.8522
76.8508
77.9074
78.8043
79.9793
81.7822
83.3731
84.6528
85.6659
86.4984
29.5429
30.2495
31.7336
32.9885
34.535
35.7452
36.7108
37.0613
37.4188
38.1573
3.43402
3.47559
3.83256
4.22116
4.96209
5.80579
6.08072
6.00894
6.15989
6.57427
-0.43822
-0.449739
-0.460146
-0.475831
-0.485758
-0.465658
-0.441149
-0.461835
-0.490168
-0.482097
-0.48531
-0.506509
-0.513526
-0.521628
-0.527702
-0.52941
-0.526102
-0.526212
-0.530474
-0.535881
-0.513679
-0.549257
-0.563581
-0.561392
-0.552878
-0.554263
-0.555975
-0.54934
-0.543317
-0.550903
-0.543361
-0.58747
-0.620721
-0.625984
-0.613111
-0.60937
-0.607128
-0.592353
-0.574172
-0.581282
-0.572294
-0.618154
-0.665597
-0.692313
-0.69016
-0.679582
-0.667304
-0.646295
-0.632851
-0.644271
-0.618023
-0.648548
-0.690652
-0.730889
-0.740449
-0.729592
-0.712775
-0.69198
-0.681428
-0.698581
-0.678753
-0.695133
-0.721468
-0.752325
-0.766708
-0.760559
-0.745204
-0.727165
-0.724944
-0.747213
-0.747094
-0.75407
-0.764646
-0.783205
-0.797604
-0.800172
-0.792688
-0.779939
-0.778893
-0.797968
-0.813478
-0.814388
-0.816626
-0.82803
-0.84467
-0.853469
-0.853669
-0.845284
-0.845663
-0.857933
-0.871999
-0.871709
-0.873111
-0.883
-0.902715
-0.916952
-0.919604
-0.915886
-0.913219
-0.91532
-0.926219
-0.931134
-0.929219
-0.940983
-0.962388
-0.9798
-0.98769
-0.985937
-0.977702
-0.968075
376.546
376.717
377.287
377.712
377.942
378.189
378.523
378.892
379.25
379.556
327.188
327.353
327.858
328.487
328.802
329.035
329.37
329.763
330.142
330.461
277.513
277.619
277.91
278.682
279.282
279.704
280.134
280.575
280.978
281.304
227.734
227.814
228.012
228.768
229.564
230.195
230.758
231.268
231.706
232.044
177.554
177.762
178.347
179.159
179.981
180.706
181.31
181.825
182.241
182.588
126.649
126.789
127.915
128.98
129.986
131.085
131.581
132.091
132.449
132.75
75.3835
75.4612
76.8283
77.8255
78.5735
79.3138
80.4936
81.2969
81.8079
82.2565
27.6444
28.2797
30.1219
31.5464
32.5819
33.4297
33.8037
33.4066
32.7478
32.7023
2.60581
2.69073
3.28223
3.59679
3.90293
4.31104
4.45569
4.24962
3.94556
3.97861
-0.436852
-0.442018
-0.44891
-0.453894
-0.462175
-0.458556
-0.451425
-0.468807
-0.477036
-0.469991
-0.478932
-0.49864
-0.50654
-0.506634
-0.509697
-0.511707
-0.512039
-0.515218
-0.519304
-0.521592
-0.51088
-0.546532
-0.563173
-0.555135
-0.534112
-0.529274
-0.531527
-0.533569
-0.53305
-0.545151
-0.540443
-0.581204
-0.61834
-0.623693
-0.601495
-0.583932
-0.581651
-0.582456
-0.580124
-0.587672
-0.571837
-0.609238
-0.655304
-0.677548
-0.673671
-0.657503
-0.640825
-0.630016
-0.635486
-0.649225
-0.619674
-0.641573
-0.67865
-0.708115
-0.713548
-0.703123
-0.683538
-0.669405
-0.679907
-0.696936
-0.67944
-0.686486
-0.70729
-0.730535
-0.738329
-0.731079
-0.713551
-0.701101
-0.720028
-0.740511
-0.743499
-0.738962
-0.74907
-0.762806
-0.769501
-0.767903
-0.753902
-0.748151
-0.770967
-0.790245
-0.80317
-0.793749
-0.799789
-0.806864
-0.816049
-0.820296
-0.816104
-0.814413
-0.831956
-0.844122
-0.862542
-0.855838
-0.853752
-0.860584
-0.873942
-0.883566
-0.883634
-0.884677
-0.895579
-0.901676
-0.917824
-0.920921
-0.913445
-0.917721
-0.932478
-0.943875
-0.947098
-0.948156
-0.952102
-0.953627
376.324
376.542
377.16
377.594
377.645
377.712
377.934
378.216
378.499
378.759
326.875
327.082
327.57
328.169
328.384
328.498
328.717
329.004
329.295
329.557
277.156
277.193
277.508
278.092
278.537
278.926
279.305
279.643
279.944
280.209
227.191
227.126
227.415
228.016
228.58
229.155
229.672
230.058
230.362
230.609
176.672