/*--------------------------------*- C++ -*----------------------------------*\
| =========                 |                                                 |
| \\      /  F ield         | OpenFOAM: The Open Source CFD Toolbox           |
|  \\    /   O peration     | Version:  2312                                  |
|   \\  /    A nd           | Website:  www.openfoam.com                      |
|    \\/     M anipulation  |                                                 |
\*---------------------------------------------------------------------------*/
FoamFile
{
    version     2.0;
    format      ascii;
    arch        "LSB;label=32;scalar=64";
    class       surfaceScalarField;
    location    "1.35";
    object      phi;
}
// * * * * * * * * * * * * * * * * * * * * * * * * * * * * * * * * * * * * * //

dimensions      [0 3 -1 0 0 0 0];

oriented        oriented;

internalField   nonuniform List<scalar> 
22600
(
8.22009e-08
-1.75091e-07
9.28902e-08
1.83135e-07
-1.11497e-07
1.05628e-08
2.84324e-07
-1.27289e-08
-8.84611e-08
3.60982e-07
2.27729e-08
-9.94301e-08
3.75739e-07
-3.25232e-09
-1.15049e-08
3.27281e-07
-2.96683e-08
7.8126e-08
2.42239e-07
-2.84481e-08
1.1349e-07
1.44561e-07
-2.35402e-08
1.21218e-07
5.54053e-08
-3.10668e-08
1.20223e-07
-5.1261e-08
1.12018e-07
1.58103e-07
-4.50821e-07
1.17627e-07
2.61559e-07
-4.16803e-07
2.01851e-07
2.70357e-07
-1.73572e-07
1.52045e-07
2.85994e-07
-4.81413e-08
5.52773e-08
3.04605e-07
-2.82356e-08
6.37292e-09
2.73082e-07
-4.86572e-08
5.05115e-08
2.0021e-07
-5.72555e-08
1.01679e-07
1.07229e-07
-5.49668e-08
1.24408e-07
2.76382e-08
-9.09607e-08
1.39485e-07
-1.94153e-07
1.66408e-07
2.68299e-07
-9.85849e-07
2.66728e-07
4.30311e-07
-1.01894e-06
4.40127e-07
3.58784e-07
-5.09521e-07
4.07476e-07
2.57395e-07
-2.90773e-07
3.44021e-07
2.35418e-07
-2.14183e-07
2.07925e-07
2.33326e-07
-1.6649e-07
1.19925e-07
1.64079e-07
-1.21747e-07
1.33738e-07
4.87756e-08
-1.23542e-07
1.83878e-07
3.13414e-09
-3.09271e-07
2.63952e-07
-5.37553e-07
3.29005e-07
2.28957e-07
-1.70733e-06
4.92522e-07
4.76776e-07
-1.81615e-06
5.49393e-07
4.52399e-07
-1.03994e-06
5.54793e-07
3.17208e-07
-6.73984e-07
5.18402e-07
2.47276e-07
-5.54579e-07
4.10327e-07
2.05038e-07
-4.10075e-07
2.85822e-07
1.27221e-07
-3.08712e-07
2.64782e-07
8.95692e-08
-4.12768e-07
3.26878e-07
8.57357e-08
-7.24368e-07
4.18931e-07
-8.7404e-07
4.10991e-07
1.58193e-07
-2.26768e-06
4.02157e-07
3.83065e-07
-2.37424e-06
3.33214e-07
4.28171e-07
-1.62552e-06
5.40474e-07
3.75103e-07
-1.21138e-06
5.90465e-07
3.43518e-07
-1.0472e-06
5.24209e-07
3.23803e-07
-8.45667e-07
4.55306e-07
3.25914e-07
-7.48485e-07
4.37662e-07
3.3092e-07
-8.72859e-07
4.55085e-07
2.09735e-07
-1.03393e-06
4.30744e-07
-1.0259e-06
3.57197e-07
1.92366e-07
-2.4909e-06
3.08552e-08
3.80421e-07
-2.53245e-06
-2.98469e-08
5.17203e-07
-2.06395e-06
3.0165e-07
5.76687e-07
-1.74268e-06
4.71814e-07
5.93669e-07
-1.54267e-06
4.7849e-07
5.93919e-07
-1.32663e-06
4.80712e-07
5.70085e-07
-1.20998e-06
4.85332e-07
4.42995e-07
-1.19718e-06
4.51411e-07
2.16539e-07
-1.16274e-06
3.55268e-07
-1.08834e-06
2.59343e-07
1.02701e-07
-2.5441e-06
-4.94976e-08
2.36177e-07
-2.54227e-06
-1.2365e-07
4.07177e-07
-2.29417e-06
5.92249e-08
4.87174e-07
-2.07209e-06
2.49413e-07
5.04102e-07
-1.87421e-06
3.14605e-07
4.86859e-07
-1.67131e-06
3.61926e-07
4.00673e-07
-1.50658e-06
3.82781e-07
2.30636e-07
-1.34783e-06
3.20682e-07
8.1089e-08
-1.21958e-06
2.06388e-07
-1.14098e-06
1.35141e-07
1.98875e-08
-2.66056e-06
9.65728e-08
1.54268e-07
-2.73958e-06
6.29239e-08
3.35355e-07
-2.70512e-06
2.29857e-07
3.96337e-07
-2.53942e-06
4.06347e-07
3.41643e-07
-2.24022e-06
4.20706e-07
2.2451e-07
-1.91826e-06
3.64082e-07
5.5013e-08
-1.6293e-06
2.92221e-07
-8.7616e-08
-1.40679e-06
2.01592e-07
-1.77384e-07
-1.27659e-06
1.46782e-07
-1.24703e-06
1.36975e-07
5.98892e-07
-3.00808e-06
-2.51372e-07
8.10747e-07
-3.24768e-06
2.96241e-07
9.1402e-07
-3.5873e-06
7.78912e-07
8.99514e-07
-3.46653e-06
9.41618e-07
7.27302e-07
-2.90388e-06
8.35869e-07
5.04093e-07
-2.2248e-06
5.29744e-07
2.24626e-07
-1.53559e-06
1.85755e-07
-1.87341e-07
-1.25566e-06
2.60838e-07
-8.02323e-07
-1.24429e-06
5.82677e-07
-1.28962e-06
6.08399e-07
1.91802e-06
-3.69807e-06
-1.22805e-06
2.98049e-06
-4.54153e-06
2.31374e-07
2.16307e-06
-3.90755e-06
1.13766e-06
9.62966e-07
-3.57759e-06
1.31117e-06
-9.1932e-08
-2.98263e-06
1.13365e-06
-7.46172e-07
-1.80357e-06
2.33008e-07
-1.20473e-06
-5.83901e-07
-4.93135e-07
-2.04186e-06
-5.68466e-07
1.49937e-07
-3.04206e-06
-9.63575e-07
7.19484e-07
-1.01203e-06
1.24742e-07
1.179e-06
-3.42055e-06
-1.45649e-06
9.07947e-07
-4.49811e-06
2.27595e-07
-7.48539e-07
-3.18508e-06
9.34009e-07
-1.98949e-06
-2.60446e-06
2.67815e-07
-2.39359e-06
-1.69531e-06
-8.8322e-07
-2.44039e-06
-1.47295e-07
-1.60948e-06
-2.49377e-06
6.28609e-07
-1.15914e-06
-3.24581e-06
2.74602e-07
-9.10298e-08
-4.31708e-06
-1.67564e-07
2.75268e-07
-1.273e-07
-6.24536e-07
1.35322e-07
-2.02299e-06
-1.53285e-06
-1.13464e-06
-3.47767e-06
2.49526e-07
-2.70571e-06
-2.08654e-06
4.72537e-07
-2.92875e-06
-1.90138e-06
-4.80024e-07
-2.21001e-06
-8.32701e-07
-1.58134e-06
-1.49812e-06
9.11833e-07
-1.77101e-06
-1.37977e-06
1.4014e-06
-8.91142e-07
-2.15432e-06
7.59821e-07
2.89339e-07
-3.51371e-06
3.25106e-07
8.66708e-07
-1.84895e-08
2.15383e-07
-1.15361e-07
-1.9312e-07
-1.71452e-06
-1.48411e-06
-2.40581e-06
2.96885e-07
-2.85788e-06
-1.4419e-06
7.29137e-07
-3.24439e-06
-1.91447e-06
3.99588e-07
-2.57668e-06
-1.4345e-06
-6.59164e-08
-1.62946e-06
4.97887e-07
-5.33275e-07
-1.62133e-06
1.3041e-06
8.91752e-08
-2.69752e-06
6.76766e-07
1.15924e-06
-3.5563e-06
-3.67309e-08
1.22059e-06
-1.10504e-06
8.43567e-07
2.6663e-07
1.21095e-06
-1.67071e-06
-8.1139e-07
-1.68958e-06
3.61794e-07
-2.12371e-06
-1.14263e-06
1.01304e-06
-3.39646e-06
-1.68908e-06
1.04736e-06
-3.98528e-06
-1.74252e-06
8.9685e-07
-4.05606e-06
-3.53087e-08
6.03969e-07
-4.31711e-06
1.03256e-06
5.32591e-07
-4.8376e-06
6.54422e-07
5.42839e-07
-4.72507e-06
-5.19013e-07
3.69756e-07
-2.33293e-06
6.31573e-07
9.17459e-07
1.2411e-06
-9.47598e-07
2.5592e-07
-1.56417e-06
5.3613e-07
-1.00617e-06
-9.6223e-07
1.0817e-06
-2.99585e-06
-9.77953e-07
1.27854e-06
-4.65987e-06
-1.36102e-06
1.28251e-06
-5.53984e-06
1.23787e-07
7.20869e-07
-5.59928e-06
1.04499e-06
4.7004e-08
-5.4748e-06
6.41331e-07
-1.11401e-07
-5.24754e-06
-1.07971e-06
3.33418e-07
-3.05754e-06
8.89175e-07
1.58904e-06
-3.1054e-07
-3.74106e-08
1.09571e-06
-1.89774e-06
8.26885e-07
-1.5145e-08
-7.30341e-07
8.7897e-07
-2.01991e-06
-7.18962e-08
1.09871e-06
-4.1512e-06
-6.58877e-07
1.42915e-06
-5.52496e-06
8.84263e-07
6.13281e-07
-5.68026e-06
1.38466e-06
-1.8436e-07
-5.59944e-06
3.77385e-07
1.83132e-07
-5.82829e-06
-1.74479e-06
8.93934e-07
-3.37048e-06
6.70066e-07
1.39961e-06
-1.65053e-06
-5.96154e-08
1.16309e-06
-1.943e-06
2.81787e-07
3.78713e-07
-1.39279e-07
1.93313e-07
-6.88632e-07
3.27584e-07
6.67857e-07
-1.93284e-06
-6.85132e-07
1.27046e-06
-3.24892e-06
9.51574e-07
1.24876e-06
-4.11088e-06
1.22765e-06
1.01897e-06
-4.99941e-06
-8.38402e-08
1.34975e-06
-6.00267e-06
-1.83989e-06
1.09836e-06
-2.77723e-06
-5.16107e-07
9.87753e-07
-1.85694e-06
-7.81354e-07
3.34695e-07
-4.98894e-07
-7.91052e-07
-2.41665e-07
8.18766e-07
-3.81683e-07
-5.98182e-07
-8.9547e-08
7.73651e-07
-1.28431e-06
-1.39967e-06
1.40067e-06
-1.87778e-06
-2.14913e-07
1.75996e-06
-3.14821e-06
3.77293e-07
2.12078e-06
-5.00289e-06
-2.67771e-07
2.03861e-06
-6.35679e-06
-1.08216e-06
5.96167e-07
-1.5858e-06
-1.45511e-06
2.41845e-07
-9.03892e-07
-1.19488e-06
-8.59514e-07
1.76808e-06
-1.16561e-06
-1.65176e-06
1.51637e-06
9.46453e-08
-1.79491e-06
-1.07255e-06
1.12616e-06
-2.23797e-06
-2.29513e-06
1.3385e-06
-2.6964e-06
-1.61727e-06
1.86079e-06
-4.01076e-06
-5.21251e-07
2.2129e-06
-5.82416e-06
-2.41796e-07
1.78744e-06
-6.69951e-06
-3.85153e-07
1.78346e-07
-5.3269e-07
-1.56505e-06
-3.16629e-07
-9.88556e-07
4.01283e-07
-1.52574e-06
-4.99788e-07
3.47697e-06
-2.53222e-06
7.99146e-07
1.7237e-06
-2.96252e-06
1.05866e-06
-1.70091e-06
-3.10069e-06
8.87673e-07
-3.04461e-06
-3.34942e-06
1.28612e-06
-2.65466e-06
-4.25572e-06
1.77868e-06
-1.39362e-06
-5.74765e-06
1.60481e-06
-3.54661e-07
-6.61027e-06
4.86686e-07
-9.20928e-09
-1.01847e-06
1.15152e-07
3.09818e-08
-1.36689e-07
1.98598e-07
1.93007e-07
-2.88811e-07
1.37349e-07
3.7708e-07
-3.11663e-07
3.9129e-08
4.9241e-07
-1.83467e-07
-3.12926e-08
5.195e-07
-6.85461e-08
2.99517e-08
4.74132e-07
-3.32772e-08
1.56771e-07
3.80028e-07
-3.21605e-08
2.39755e-07
2.59116e-07
-2.87082e-08
2.70839e-07
1.25537e-07
-2.49071e-08
2.78709e-07
-4.57617e-08
2.71937e-07
2.47527e-07
-4.90188e-07
2.23598e-07
6.00858e-07
-9.73809e-07
5.33517e-07
6.80594e-07
-8.07905e-07
5.68551e-07
6.05095e-07
-4.43792e-07
3.91101e-07
5.38467e-07
-1.67477e-07
1.71932e-07
4.63224e-07
-4.99277e-08
1.42405e-07
3.58426e-07
-5.09001e-08
2.25217e-07
2.3771e-07
-6.78889e-08
2.84304e-07
1.06317e-07
-6.27702e-08
3.08741e-07
-1.31657e-07
3.38829e-07
4.22095e-07
-1.08249e-06
4.36931e-07
7.41538e-07
-1.71372e-06
8.60598e-07
7.42198e-07
-1.31335e-06
9.12259e-07
5.63302e-07
-7.51462e-07
8.30587e-07
4.73744e-07
-3.90509e-07
5.20515e-07
4.50268e-07
-1.91497e-07
2.8497e-07
3.82068e-07
-1.29009e-07
2.80047e-07
2.33314e-07
-9.60965e-08
3.6084e-07
8.26097e-08
-1.02445e-07
4.5433e-07
-3.3018e-07
5.76641e-07
3.75288e-07
-1.62757e-06
6.62314e-07
5.09397e-07
-2.10722e-06
8.08778e-07
4.59359e-07
-1.66366e-06
9.55141e-07
3.38101e-07
-1.13565e-06
1.02385e-06
3.39665e-07
-8.00615e-07
8.18869e-07
3.87048e-07
-5.06587e-07
5.53529e-07
3.45363e-07
-3.06189e-07
4.83647e-07
2.32608e-07
-2.22757e-07
5.66293e-07
1.75484e-07
-3.18176e-07
6.91787e-07
-5.86584e-07
7.69626e-07
2.98421e-07
-1.93432e-06
4.10486e-07
3.62199e-07
-2.24165e-06
4.03868e-07
3.88252e-07
-1.93777e-06
7.88533e-07
4.05402e-07
-1.58968e-06
1.02734e-06
4.40258e-07
-1.30066e-06
9.89395e-07
4.84455e-07
-9.71193e-07
8.75715e-07
5.17313e-07
-7.18248e-07
8.16863e-07
5.49882e-07
-6.27239e-07
8.26998e-07
5.04407e-07
-6.58324e-07
8.16368e-07
-6.96677e-07
7.62923e-07
3.55746e-07
-2.2533e-06
-5.90864e-09
4.0418e-07
-2.34695e-06
2.70231e-08
5.17463e-07
-2.11331e-06
3.63909e-07
6.80789e-07
-1.93535e-06
6.54155e-07
7.70669e-07
-1.69713e-06
7.85077e-07
8.24703e-07
-1.40132e-06
8.56807e-07
8.66095e-07
-1.14611e-06
8.71806e-07
8.38351e-07
-9.72449e-07
8.24364e-07
6.46199e-07
-8.34572e-07
7.23668e-07
-7.07911e-07
6.4418e-07
1.49016e-07
-2.45935e-06
7.53343e-09
9.95419e-08
-2.37635e-06
-4.47805e-08
2.4919e-07
-2.24062e-06
3.68818e-08
4.81235e-07
-2.14641e-06
2.28427e-07
6.42718e-07
-1.96073e-06
4.16726e-07
7.42472e-07
-1.70915e-06
5.69996e-07
7.69163e-07
-1.4388e-06
6.48774e-07
6.78552e-07
-1.1951e-06
6.33949e-07
4.78353e-07
-1.0159e-06
5.8791e-07
-8.81341e-07
5.71666e-07
-2.57976e-07
-2.51854e-06
4.13745e-07
-2.6267e-07
-2.66847e-06
3.59739e-07
2.89527e-08
-2.66298e-06
3.606e-07
2.8881e-07
-2.48863e-06
4.88708e-07
3.97569e-07
-2.21547e-06
5.66688e-07
3.91585e-07
-1.91892e-06
5.79839e-07
2.99669e-07
-1.61928e-06
5.64619e-07
1.62372e-07
-1.40048e-06
5.44269e-07
4.53571e-08
-1.31758e-06
5.65487e-07
-1.28062e-06
6.16742e-07
-3.06926e-07
-3.13497e-06
6.71981e-07
-2.47533e-07
-3.68775e-06
1.25613e-06
1.9544e-07
-3.72564e-06
1.3986e-06
5.5703e-07
-3.24495e-06
1.33635e-06
6.27607e-07
-2.6521e-06
1.20192e-06
3.36869e-07
-2.01857e-06
9.20136e-07
-2.18111e-07
-1.56757e-06
6.89023e-07
-8.59113e-07
-1.55925e-06
1.0606e-06
-1.39928e-06
-1.75962e-06
1.56488e-06
-2.02312e-06
1.63347e-06
3.4352e-07
-5.53409e-06
8.27542e-07
3.26775e-07
-5.55984e-06
2.12028e-06
1.8227e-07
-4.84576e-06
2.40229e-06
6.67122e-11
-3.66349e-06
1.91193e-06
-5.58566e-07
-1.97573e-06
1.01591e-06
-1.60817e-06
-1.93369e-07
-5.42577e-07
-2.92683e-06
4.21229e-07
-1.16326e-06
-4.45906e-06
-1.29111e-07
2.5204e-07
-5.21651e-06
-8.80095e-07
5.97408e-07
-1.76005e-06
-3.04892e-07
-2.26295e-06
-5.52408e-06
7.96439e-07
-3.49203e-06
-5.94198e-06
1.83881e-06
-3.81728e-06
-4.55869e-06
9.72197e-07
-4.0306e-06
-2.42198e-06
-7.60375e-07
-4.79689e-06
-3.65221e-09
-2.089e-06
-5.71883e-06
1.54566e-06
-2.42657e-06
-6.54294e-06
1.76408e-06
-1.67788e-06
-7.12921e-06
1.01927e-06
-6.53143e-07
-6.91143e-06
-2.08923e-07
-6.13681e-07
-1.9899e-06
-1.27548e-06
-3.71685e-06
-3.70948e-06
3.69404e-07
-5.39023e-06
-5.06573e-06
1.04664e-06
-5.25516e-06
-4.15044e-06
-7.07781e-08
-4.84863e-06
-1.79603e-06
-1.51252e-06
-5.22854e-06
1.0081e-06
-2.21318e-06
-5.84895e-06
2.39716e-06
-2.00211e-06
-6.08123e-06
2.18752e-06
-1.0823e-06
-6.02059e-06
1.32616e-06
-7.82009e-08
-5.60734e-06
2.56203e-09
2.41942e-07
-2.31403e-06
-5.83382e-08
-3.45556e-06
-1.59011e-06
-3.78321e-07
-5.43117e-06
-3.5446e-06
7.51368e-07
-5.34629e-06
-3.92141e-06
4.1521e-07
-4.0139e-06
-2.5934e-06
-1.35428e-07
-2.88299e-06
5.34868e-07
-7.23604e-07
-3.25709e-06
3.05895e-06
-8.20966e-07
-4.02283e-06
3.18244e-06
-1.40001e-07
-4.48755e-06
2.0824e-06
8.67731e-07
-4.68683e-06
2.1631e-07
1.2061e-06
-2.66969e-06
1.09094e-06
-2.55332e-06
2.37874e-07
-9.45377e-07
-4.40703e-06
-2.12911e-06
8.0001e-07
-5.28768e-06
-2.94618e-06
9.18465e-07
-4.7669e-06
-2.83991e-06
7.73091e-07
-3.23569e-06
-5.65148e-07
4.65659e-07
-2.39612e-06
2.57595e-06
2.47394e-07
-3.02479e-06
3.76704e-06
5.76651e-07
-4.06503e-06
2.32723e-06
1.33825e-06
-5.02877e-06
-3.48253e-07
1.89804e-06
-3.41114e-06
1.86366e-06
-1.64838e-06
1.88722e-06
-9.48561e-07
-3.04557e-06
-1.35198e-06
1.1562e-06
-4.54663e-06
-1.83282e-06
1.46938e-06
-5.34397e-06
-2.18889e-06
1.42486e-06
-4.70504e-06
-7.64734e-07
8.43166e-07
-3.70483e-06
1.87938e-06
4.17228e-07
-3.88152e-06
3.18441e-06
8.06331e-07
-5.0831e-06
1.58238e-06
1.83503e-06
-6.14525e-06
-1.35679e-06
2.40409e-06
-3.46651e-06
1.38751e-06
-5.08335e-07
2.82147e-06
-4.63327e-07
-1.51569e-06
-7.90827e-07
1.27308e-06
-3.36811e-06
-8.40913e-07
1.73948e-06
-5.39086e-06
-1.11127e-06
2.04384e-06
-6.13612e-06
-4.2e-08
1.45168e-06
-5.84974e-06
1.58182e-06
6.24458e-07
-5.95617e-06
1.92828e-06
1.17819e-06
-6.66919e-06
2.41183e-07
2.23735e-06
-6.93964e-06
-1.95841e-06
1.766e-06
-2.84316e-06
-6.54179e-07
6.44835e-07
2.18574e-06
-6.87287e-08
-4.92946e-07
-1.5291e-07
7.81658e-07
-2.39513e-06
-8.11491e-08
1.33573e-06
-4.66956e-06
-4.37841e-07
2.26886e-06
-6.30979e-06
3.96783e-07
2.47189e-06
-6.89695e-06
1.31069e-06
2.10705e-06
-6.96605e-06
7.74715e-07
2.24163e-06
-6.91177e-06
-4.90976e-07
2.02763e-06
-6.33154e-06
-1.40719e-06
-3.31011e-08
-1.88498e-06
-2.59655e-06
9.46496e-07
8.10582e-07
-3.52697e-07
-5.10853e-07
5.33119e-07
-1.97401e-08
-2.18922e-06
1.75314e-07
1.04022e-06
-3.48366e-06
-7.71544e-07
2.40178e-06
-4.60782e-06
-1.18656e-07
3.0403e-06
-5.4583e-06
6.48886e-07
3.27225e-06
-6.06944e-06
4.87192e-07
3.01945e-06
-6.20488e-06
4.23478e-08
1.64073e-06
-5.64903e-06
-3.96145e-07
-9.70731e-07
-1.15584e-06
-3.12153e-06
-5.95175e-08
5.12887e-07
-8.37664e-07
-2.24454e-06
1.71901e-06
-1.66462e-07
-3.82506e-06
2.57929e-07
1.59255e-06
-4.28925e-06
-1.58391e-06
2.4027e-06
-4.54686e-06
-1.26486e-06
2.74232e-06
-4.99283e-06
-1.36567e-07
3.09221e-06
-5.47897e-06
4.7369e-07
2.71255e-06
-5.43157e-06
5.82717e-07
1.19967e-06
-5.00399e-06
2.33565e-07
-8.78936e-07
-5.27948e-07
-2.81047e-06
-9.38345e-07
-6.59761e-07
1.12242e-06
-3.17432e-06
2.6347e-07
3.19171e-06
-4.60267e-06
1.77758e-06
7.07846e-07
-4.95503e-06
2.06452e-06
-2.2374e-06
-4.81938e-06
2.07962e-06
-2.59247e-06
-4.66402e-06
2.33251e-06
-1.33829e-06
-4.70342e-06
2.2347e-06
5.70704e-08
-4.61489e-06
1.34463e-06
7.54364e-07
-4.34467e-06
-2.93913e-07
7.43939e-07
-2.27953e-06
3.42227e-07
-8.39403e-08
-3.25413e-08
3.15079e-07
1.21816e-07
-4.48e-07
3.79593e-07
4.93014e-07
-7.38123e-07
4.06054e-07
7.20756e-07
-5.97297e-07
3.38263e-07
7.19313e-07
-2.7209e-07
3.03485e-07
5.79844e-07
-4.56932e-08
3.41932e-07
4.23309e-07
5.83341e-09
3.90456e-07
2.747e-07
3.59755e-09
4.15851e-07
1.25247e-07
2.24031e-09
4.25921e-07
-2.2867e-08
4.24826e-07
1.6076e-07
-2.32028e-07
2.62325e-07
6.19278e-07
-1.05186e-06
6.78862e-07
8.6375e-07
-1.30271e-06
8.8867e-07
8.78221e-07
-9.55239e-07
7.34572e-07
7.84108e-07
-4.59485e-07
4.53439e-07
6.07703e-07
-6.72644e-08
3.40381e-07
4.16149e-07
4.04472e-08
3.82157e-07
2.59848e-07
9.75444e-09
4.34448e-07
1.20196e-07
-1.02276e-08
4.60861e-07
-5.02001e-08
4.80896e-07
3.36759e-07
-5.19364e-07
3.87509e-07
7.05463e-07
-1.48279e-06
9.22821e-07
7.78079e-07
-1.60656e-06
1.14349e-06
6.97279e-07
-1.10533e-06
1.06147e-06
6.52122e-07
-5.91877e-07
6.98064e-07
5.90829e-07
-1.63745e-07
4.42743e-07
4.69458e-07
8.05725e-09
4.33807e-07
3.19264e-07
1.31997e-08
5.07589e-07
1.39885e-07
4.85479e-08
5.74934e-07
-3.54891e-08
6.75552e-07
4.28611e-07
-8.1813e-07
5.32468e-07
5.09192e-07
-1.55034e-06
7.95747e-07
4.16769e-07
-1.63398e-06
1.07499e-06
3.74288e-07
-1.23859e-06
1.1996e-06
4.40481e-07
-7.96053e-07
9.56853e-07
5.12855e-07
-3.47528e-07
6.64937e-07
4.74758e-07
-6.88365e-08
5.98638e-07
3.17948e-07
5.19635e-08
6.84339e-07
1.48313e-07
1.16381e-07
7.93588e-07
-5.43983e-08
9.12831e-07
4.57434e-07
-1.21681e-06
3.51732e-07
5.02661e-07
-1.64971e-06
4.58016e-07
4.11194e-07
-1.61499e-06
8.61004e-07
4.08115e-07
-1.3748e-06
1.16664e-06
4.55454e-07
-1.03308e-06
1.17909e-06
5.40887e-07
-6.16442e-07
1.0592e-06
5.71235e-07
-2.75927e-07
9.93606e-07
4.99099e-07
-6.30255e-08
1.01412e-06
3.67878e-07
3.80473e-08
1.02592e-06
-6.25235e-08
1.02203e-06
4.59936e-07
-1.80284e-06
1.2019e-07
5.78496e-07
-1.9807e-06
2.39447e-07
6.03697e-07
-1.78671e-06
5.1043e-07
6.63607e-07
-1.57202e-06
7.91463e-07
7.04799e-07
-1.28753e-06
9.98327e-07
7.57508e-07
-9.39394e-07
1.12705e-06
7.88745e-07
-6.02489e-07
1.16713e-06
7.29313e-07
-3.42974e-07
1.16374e-06
5.39291e-07
-1.67587e-07
1.11932e-06
-1.22591e-07
1.05777e-06
1.72141e-07
-2.17218e-06
2.04725e-07
1.9505e-07
-2.15781e-06
1.09424e-07
3.3146e-07
-2.00368e-06
1.17438e-07
4.88414e-07
-1.81825e-06
3.17699e-07
6.02722e-07
-1.57619e-06
5.91076e-07
6.89369e-07
-1.28641e-06
8.30367e-07
7.08659e-07
-9.5658e-07
9.83576e-07
6.207e-07
-7.0051e-07
1.07944e-06
4.41225e-07
-5.31619e-07
1.13142e-06
-4.22235e-07
1.12726e-06
-2.5243e-07
-2.24872e-06
7.42715e-07
-2.79496e-07
-2.34235e-06
5.71344e-07
-1.97863e-08
-2.32518e-06
4.22393e-07
2.3262e-07
-2.1279e-06
5.4596e-07
3.77214e-07
-1.871e-06
7.16911e-07
4.2304e-07
-1.59634e-06
8.43938e-07
3.83286e-07
-1.28714e-06
9.3493e-07
2.97232e-07
-1.10489e-06
1.03471e-06
2.11419e-07
-1.01987e-06
1.13955e-06
-9.15241e-07
1.19772e-06
-3.80478e-07
-3.00006e-06
1.8038e-06
-4.47864e-07
-3.17593e-06
2.1571e-06
-2.15778e-08
-3.28593e-06
1.93307e-06
4.02445e-07
-2.97816e-06
1.76258e-06
5.36571e-07
-2.56929e-06
1.76608e-06
2.25172e-07
-2.17451e-06
1.80971e-06
-3.6513e-07
-2.03612e-06
2.02831e-06
-9.31246e-07
-2.00717e-06
2.52899e-06
-1.39582e-06
-2.06791e-06
3.0775e-06
-2.39882e-06
3.33138e-06
4.95676e-07
-5.78383e-06
3.11561e-06
3.92523e-07
-4.72364e-06
3.77115e-06
6.84741e-08
-3.61177e-06
3.05216e-06
-5.54628e-07
-2.4331e-06
1.98996e-06
-2.12384e-06
-8.43664e-07
8.59498e-07
-4.39491e-06
-2.76685e-07
-1.6934e-07
-6.52222e-06
-7.6235e-07
-3.0971e-07
-7.40895e-06
-1.3496e-06
4.81212e-07
-7.08526e-06
-2.53747e-06
7.4329e-07
-4.18345e-06
3.13446e-07
-2.04775e-06
-5.9853e-06
3.04565e-06
-3.03648e-06
-4.71806e-06
2.82197e-06
-3.86327e-06
-2.39508e-06
5.82308e-07
-5.15544e-06
-6.22207e-07
-1.2791e-06
-6.82573e-06
5.49561e-07
-1.81194e-06
-7.98967e-06
4.75052e-07
-2.01437e-06
-8.48884e-06
-3.72107e-07
-1.56895e-06
-8.15319e-06
-1.45204e-06
-8.86356e-07
-7.02344e-06
-3.64897e-06
-6.31901e-07
-5.90363e-06
-8.4831e-07
-3.56495e-06
-4.45944e-06
2.4085e-06
-4.87448e-06
-4.06133e-06
1.69945e-06
-5.44308e-06
-1.3094e-06
-5.87857e-07
-6.56153e-06
9.38456e-07
-1.95472e-06
-7.35013e-06
1.20986e-06
-2.08488e-06
-7.73146e-06
5.68457e-07
-1.71418e-06
-7.77754e-06
-3.03122e-07
-1.1052e-06
-7.15906e-06
-1.62648e-06
-5.22246e-07
-6.17655e-06
-4.03007e-06
-3.59481e-07
-5.97365e-06
-8.13039e-07
-3.77954e-06
-2.50113e-06
1.44291e-06
-4.99957e-06
-3.50456e-06
1.41463e-06
-4.44644e-06
-1.81786e-06
3.70541e-07
-4.27486e-06
1.1901e-06
-5.58665e-07
-5.37261e-06
2.69447e-06
-1.11046e-06
-6.32917e-06
1.9414e-06
-1.23735e-06
-6.71754e-06
7.86489e-07
-8.41246e-07
-6.42312e-06
-8.28257e-07
-2.24901e-07
-5.85746e-06
-3.30399e-06
-8.56314e-08
-4.89293e-06
-7.21374e-07
-3.66279e-06
-3.99814e-07
6.1609e-07
-5.13181e-06
-2.54533e-06
1.3098e-06
-4.47458e-06
-2.58323e-06
1.0266e-06
-3.05014e-06
-1.68209e-07
7.06958e-07
-3.03837e-06
2.91285e-06
2.35515e-07
-4.32211e-06
3.61471e-06
-1.42175e-07
-5.40407e-06
2.24865e-06
1.96437e-07
-5.73339e-06
1.70634e-07
6.68672e-07
-5.57843e-06
-2.29373e-06
7.32811e-07
-3.63144e-06
-1.56722e-07
-3.14303e-06
1.65512e-06
1.39534e-07
-4.77616e-06
-1.2567e-06
1.50071e-06
-5.04378e-06
-2.33501e-06
1.48877e-06
-3.94109e-06
-9.17576e-07
1.07154e-06
-3.0977e-06
2.29839e-06
6.14225e-07
-3.80962e-06
4.22276e-06
5.2109e-07
-5.04314e-06
3.16691e-06
1.12158e-06
-5.63428e-06
8.60227e-07
1.73658e-06
-5.38079e-06
-1.36409e-06
1.22096e-06
-2.51859e-06
-7.94502e-07
-2.0117e-06
3.05438e-06
1.49109e-07
-3.72285e-06
-1.59999e-07
1.88752e-06
-5.17757e-06
-1.46904e-06
2.32824e-06
-5.55971e-06
-4.94146e-07
2.00256e-06
-4.95976e-06
1.91982e-06
1.2303e-06
-4.99183e-06
3.60142e-06
1.27787e-06
-5.64729e-06
2.88103e-06
2.11954e-06
-5.79151e-06
9.93972e-07
2.24782e-06
-4.89119e-06
-8.52321e-07
3.53917e-07
-2.28547e-06
-2.30899e-06
-5.94938e-07
3.28829e-06
2.92299e-07
-2.43688e-06
8.47172e-07
1.61643e-06
-4.84057e-06
-4.9251e-07
2.76287e-06
-6.64688e-06
3.1275e-07
3.26827e-06
-7.07863e-06
1.90157e-06
2.92188e-06
-6.7256e-06
2.66395e-06
2.6915e-06
-6.24542e-06
2.05949e-06
2.583e-06
-5.25791e-06
7.7155e-07
1.26254e-06
-3.85467e-06
-9.90975e-07
-1.29768e-06
-2.90405e-06
-2.99145e-06
4.90674e-07
2.20394e-06
2.4097e-07
-1.5227e-06
1.79965e-06
1.04116e-06
-4.08511e-06
2.79509e-07
2.83063e-06
-5.91019e-06
7.44608e-07
3.79501e-06
-6.78127e-06
1.8551e-06
3.95786e-06
-6.51505e-06
2.14157e-06
3.52841e-06
-5.49614e-06
1.70834e-06
2.35169e-06
-4.04442e-06
6.48133e-07
3.12419e-07
-2.90473e-06
-1.63314e-06
-1.46825e-06
-3.50398e-06
-2.83316e-06
-5.24422e-09
1.24624e-06
1.25296e-07
-2.3258e-06
2.7973e-06
1.15643e-06
-4.48596e-06
8.58199e-07
3.174e-06
-5.26775e-06
2.66577e-07
3.66252e-06
-5.40874e-06
1.01236e-06
3.72605e-06
-4.94934e-06
1.49756e-06
3.27683e-06
-3.78567e-06
1.22539e-06
2.03183e-06
-2.44384e-06
1.65974e-07
3.40002e-07
-1.90726e-06
-2.02213e-06
-1.02652e-06
-3.57405e-06
-2.62341e-06
-1.06648e-06
3.86455e-07
1.26648e-06
-3.07462e-06
1.44897e-06
3.61997e-06
-4.77391e-06
2.99786e-06
1.33721e-06
-4.96107e-06
3.18537e-06
-6.67086e-07
-4.27559e-06
3.25575e-06
-8.49241e-07
-3.15139e-06
3.06589e-06
-3.60006e-07
-1.80261e-06
2.34293e-06
-2.31626e-07
-6.60404e-07
1.10355e-06
-7.35139e-07
-6.22056e-07
-3.60678e-07
-1.99371e-06
-2.30224e-06
-3.18957e-06
-1.3159e-07
8.85461e-09
4.37814e-07
3.23172e-09
-3.39483e-07
5.84255e-07
4.24346e-07
-7.66218e-07
7.51157e-07
7.33763e-07
-6.99771e-07
7.28617e-07
7.47766e-07
-3.23873e-07
6.13354e-07
5.91871e-07
-3.93814e-08
5.37209e-07
4.18776e-07
4.49662e-08
5.18585e-07
2.61e-07
5.48345e-08
5.18792e-07
1.08044e-07
5.4308e-08
5.2457e-07
3.26886e-08
5.27214e-07
3.29834e-08
-8.48586e-08
3.23055e-07
3.90168e-07
-7.15949e-07
6.98144e-07
7.4145e-07
-1.23697e-06
1.00814e-06
9.13961e-07
-1.07835e-06
9.40637e-07
8.66273e-07
-5.30098e-07
7.07353e-07
6.5015e-07
-4.40611e-08
5.61183e-07
4.25057e-07
1.14284e-07
5.37934e-07
2.57012e-07
9.85184e-08
5.5881e-07
1.14943e-07
7.2013e-08
5.85224e-07
3.8862e-08
6.05513e-07
2.63223e-07
-2.83313e-07
3.2274e-07
6.30584e-07
-9.32962e-07
7.72473e-07
7.7987e-07
-1.35701e-06
1.11425e-06
8.35559e-07
-1.16429e-06
1.09173e-06
8.3225e-07
-6.37819e-07
8.09094e-07
6.981e-07
-9.06126e-08
6.23445e-07
4.95786e-07
1.48749e-07
6.01656e-07
3.18302e-07
1.4454e-07
6.39052e-07
1.46502e-07
1.43714e-07
6.75032e-07
1.35533e-07
7.24513e-07
4.13285e-07
-5.33814e-07
3.69683e-07
6.49368e-07
-9.8825e-07
6.14951e-07
6.44786e-07
-1.26138e-06
9.83938e-07
6.48269e-07
-1.11628e-06
1.14811e-06
6.94584e-07
-6.83059e-07
9.55777e-07
6.6953e-07
-1.55985e-07
7.55363e-07
5.30879e-07
1.55741e-07
7.30298e-07
3.28942e-07
2.38735e-07
7.9208e-07
1.22649e-07
2.9153e-07
8.52065e-07
2.77528e-07
9.04201e-07
5.13878e-07
-1.03439e-06
3.3843e-07
7.34986e-07
-1.25778e-06
5.06441e-07
6.99801e-07
-1.22801e-06
8.62817e-07
6.48951e-07
-1.04716e-06
1.14836e-06
6.59093e-07
-7.0456e-07
1.19045e-06
6.92568e-07
-2.46491e-07
1.11623e-06
6.3167e-07
1.24229e-07
1.08602e-06
4.37297e-07
3.22932e-07
1.1243e-06
1.992e-07
4.25861e-07
1.12969e-06
4.08791e-07
1.08634e-06
4.33871e-07
-1.69547e-06
3.47404e-07
6.63733e-07
-1.74801e-06
4.99809e-07
7.27725e-07
-1.49671e-06
7.15143e-07
7.30093e-07
-1.21091e-06
9.52841e-07
7.40314e-07
-8.93867e-07
1.17741e-06
7.85703e-07
-5.12023e-07
1.34719e-06
7.77034e-07
-1.3226e-07
1.43229e-06
6.14242e-07
1.96877e-07
1.45259e-06
3.36349e-07
4.14208e-07
1.40887e-06
4.78604e-07
1.27748e-06
6.23301e-08
-1.99384e-06
4.40758e-07
1.33134e-07
-1.95049e-06
2.411e-07
2.84236e-07
-1.76351e-06
2.33126e-07
4.16497e-07
-1.50103e-06
4.7556e-07
5.34175e-07
-1.23324e-06
8.12768e-07
6.22026e-07
-9.2411e-07
1.1546e-06
6.164e-07
-5.21993e-07
1.37894e-06
4.92939e-07
-1.38433e-07
1.53822e-06
2.98198e-07
1.47593e-07
1.59277e-06
3.09332e-07
1.51272e-06
-1.84072e-07
-2.00165e-06
9.34596e-07
-2.41731e-07
-2.01426e-06
6.92773e-07
-5.91623e-08
-2.00032e-06
4.76634e-07
1.68883e-07
-1.79286e-06
6.09743e-07
3.48017e-07
-1.53324e-06
8.37782e-07
4.41697e-07
-1.20224e-06
1.02838e-06
4.1818e-07
-7.50817e-07
1.18727e-06
3.26756e-07
-4.08629e-07
1.39633e-06
2.19174e-07
-1.72648e-07
1.56737e-06
2.28787e-08
1.62214e-06
2.7504e-08
-2.63992e-06
2.41457e-06
1.91909e-08
-2.7155e-06
2.86666e-06
3.32858e-07
-2.84915e-06
2.46823e-06
6.67635e-07
-2.73448e-06
2.36943e-06
7.28476e-07
-2.39477e-06
2.56677e-06
4.61418e-07
-2.01078e-06
2.88531e-06
-8.01183e-08
-1.60175e-06
3.42078e-06
-6.6647e-07
-1.05249e-06
3.7592e-06
-1.19639e-06
-5.37036e-07
3.97181e-06
-3.88127e-07
4.03987e-06
1.39135e-06
-5.32338e-06
4.40771e-06
1.39948e-06
-3.69779e-06
4.74532e-06
7.94479e-07
-2.7648e-06
3.57281e-06
-1.03788e-06
-1.57546e-06
2.66331e-06
-4.19769e-06
-5.55789e-07
2.18033e-06
-7.1123e-06
-1.16569e-06
1.90018e-06
-8.66586e-06
-2.33862e-06
1.98073e-06
-8.47817e-06
-2.93091e-06
2.17194e-06
-7.13351e-06
-3.00406e-06
1.86568e-06
-3.04334e-06
1.54588e-06
-8.56495e-07
-5.80706e-06
4.38583e-06
-1.62208e-06
-3.27329e-06
3.16306e-06
-3.17151e-06
-1.11822e-06
4.85151e-07
-5.62383e-06
-1.79622e-08
-3.84284e-07
-7.40384e-06
2.11349e-08
-6.08851e-07
-7.65516e-06
-1.6195e-06
-1.30923e-06
-7.31323e-06
-2.77204e-06
-1.47746e-06
-6.59648e-06
-3.18738e-06
-1.34662e-06
-5.4717e-06
-3.46645e-06
-1.29427e-06
-3.57565e-06
-1.51143e-06
-2.69989e-06
-4.59352e-06
3.89485e-06
-4.13413e-06
-1.98531e-06
1.8457e-06
-5.59021e-06
7.34829e-07
-9.84821e-07
-6.58067e-06
7.82111e-07
-1.76434e-06
-6.41615e-06
-2.83845e-07
-1.94442e-06
-6.26852e-06
-1.24841e-06
-2.2329e-06
-6.17525e-06
-1.6667e-06
-2.3038e-06
-5.55082e-06
-2.09865e-06
-2.23541e-06
-4.42542e-06
-2.60231e-06
-2.34904e-06
-2.95269e-06
-2.75164e-06
-3.31296e-06
-2.98733e-06
3.14968e-06
-4.32137e-06
-1.43831e-06
1.87603e-06
-4.56011e-06
1.4728e-06
-1.28697e-07
-5.40221e-06
2.25138e-06
-1.18583e-06
-6.07001e-06
1.24005e-06
-1.96657e-06
-6.23735e-06
2.38903e-07
-2.55733e-06
-5.90222e-06
-3.32062e-07
-2.51101e-06
-5.06524e-06
-9.99973e-07
-2.16056e-06
-3.78063e-06
-1.78739e-06
-2.18516e-06
-2.46576e-06
-2.70926e-06
-3.61004e-06
-1.15772e-06
2.39651e-06
-4.15595e-06
-1.69701e-06
2.11442e-06
-3.02859e-06
1.1267e-08
1.36077e-06
-3.0018e-06
2.26632e-06
6.6522e-07
-4.43415e-06
3.03e-06
-1.22071e-07
-5.63595e-06
2.34093e-06
-1.0424e-06
-5.65984e-06
1.26833e-06
-1.38007e-06
-4.81388e-06
1.47635e-07
-1.3249e-06
-3.37291e-06
-9.191e-07
-1.57647e-06
-1.96662e-06
-2.30704e-06
-3.74799e-06
1.13571e-06
1.59409e-06
-4.81794e-06
-1.23947e-06
2.11311e-06
-3.77283e-06
-1.50445e-06
1.95937e-06
-2.79243e-06
8.47849e-07
1.50959e-06
-3.59618e-06
3.39206e-06
1.05591e-06
-5.14621e-06
3.88011e-06
5.31931e-07
-5.53344e-06
2.64918e-06
1.2796e-07
-4.54715e-06
1.19726e-06
-2.99334e-07
-2.80022e-06
-2.66047e-07
-1.17902e-06
-2.14342e-06
-2.29849e-06
-2.89158e-06
2.96002e-06
1.21638e-06
-4.64702e-06
-1.03141e-07
2.50663e-06
-5.26622e-06
-1.30005e-06
2.74304e-06
-5.01967e-06
4.13939e-07
2.18993e-06
-5.03357e-06
2.83743e-06
1.79886e-06
-5.55035e-06
3.94505e-06
1.7297e-06
-5.31298e-06
3.24604e-06
1.28532e-06
-3.88477e-06
1.84204e-06
1.74825e-07
-1.90871e-06
-5.30414e-07
-1.35777e-06
-3.33774e-06
-2.37476e-06
-1.17962e-06
3.35676e-06
1.07518e-06
-3.1926e-06
1.00786e-06
2.51842e-06
-5.4131e-06
-1.67473e-07
3.85077e-06
-6.55815e-06
1.15378e-06
3.67347e-06
-6.53247e-06
2.77014e-06
2.96348e-06
-5.90026e-06
3.47943e-06
2.5249e-06
-4.66096e-06
3.02294e-06
1.5668e-06
-2.80632e-06
1.31377e-06
-6.38192e-08
-1.07305e-06
-1.99952e-06
-1.56183e-06
-4.62871e-06
-2.29717e-06
2.68682e-07
2.25534e-06
1.07369e-06
-1.81102e-06
2.12649e-06
2.00223e-06
-4.60162e-06
1.12417e-06
4.3296e-06
-6.34391e-06
2.09151e-06
4.59957e-06
-6.47833e-06
2.98102e-06
3.88141e-06
-5.22155e-06
2.93204e-06
2.81904e-06
-3.17911e-06
2.07307e-06
1.25913e-06
-1.1637e-06
-7.37067e-08
-3.15504e-07
-1.90268e-07
-3.36664e-06
-1.07457e-06
-5.11672e-06
-2.17652e-06
1.04673e-07
1.00312e-06
1.27287e-06
-1.9365e-06
3.19148e-06
2.13261e-06
-4.2252e-06
2.02351e-06
4.56337e-06
-5.04535e-06
1.94456e-06
4.62963e-06
-4.7e-06
2.26715e-06
4.09455e-06
-3.25664e-06
1.75362e-06
3.01189e-06
-1.16708e-06
4.31781e-07
1.58356e-06
4.53929e-07
-1.78995e-06
4.35239e-07
7.60337e-07
-4.27345e-06
-4.26114e-07
-5.16228e-06
-1.98711e-06
-8.69981e-07
1.50754e-06
7.52003e-07
-2.46305e-06
2.43158e-06
3.80193e-06
-4.06669e-06
4.08921e-06
2.5358e-06
-4.08554e-06
4.06938e-06
1.07938e-06
-3.05416e-06
3.96208e-06
5.29441e-07
-1.44201e-06
3.38981e-06
-1.82431e-07
3.17422e-07
2.39229e-06
-1.37701e-06
1.61562e-06
1.10024e-06
-3.08484e-06
1.71529e-06
1.29766e-08
-4.74677e-06
-1.59698e-06
-5.19911e-06
-4.66349e-08
-2.18104e-09
4.8663e-07
1.06766e-08
-1.30151e-07
6.57095e-07
3.28184e-07
-4.21149e-07
8.548e-07
5.97543e-07
-3.80896e-07
8.40154e-07
6.33737e-07
-1.35246e-07
7.12407e-07
5.28402e-07
3.1794e-08
6.1075e-07
3.85393e-07
9.4605e-08
5.6699e-07
2.38492e-07
1.14264e-07
5.5143e-07
8.72398e-08
1.24932e-07
5.5089e-07
1.28972e-07
5.36808e-07
-2.42963e-08