/*--------------------------------*- C++ -*----------------------------------*\
| =========                 |                                                 |
| \\      /  F ield         | OpenFOAM: The Open Source CFD Toolbox           |
|  \\    /   O peration     | Version:  2312                                  |
|   \\  /    A nd           | Website:  www.openfoam.com                      |
|    \\/     M anipulation  |                                                 |
\*---------------------------------------------------------------------------*/
FoamFile
{
    version     2.0;
    format      ascii;
    arch        "LSB;label=32;scalar=64";
    class       volVectorField;
    location    "1.35";
    object      U;
}
// * * * * * * * * * * * * * * * * * * * * * * * * * * * * * * * * * * * * * //

dimensions      [0 1 -1 0 0 0 0];

internalField   nonuniform List<vector> 
8000
(
(0.0015503 -0.00366653 0.00187416)
(0.00505993 -0.00125476 -0.000198293)
(0.00920158 0.000672637 -0.00232958)
(0.0131913 0.000440202 -0.00149378)
(0.0152149 -0.000755208 0.000876878)
(0.014318 -0.00109718 0.00191609)
(0.0114271 -0.00077295 0.00202444)
(0.00764885 -0.00049678 0.00185505)
(0.00366944 -0.000370494 0.0016462)
(0.000815323 -0.000750475 0.0013635)
(0.00336776 -0.010457 0.00227369)
(0.00948742 -0.00794585 0.000367683)
(0.010349 -0.00198921 -0.00233533)
(0.0110726 0.00107298 -0.00192424)
(0.0120917 0.000335605 5.42751e-05)
(0.0118334 -0.00124539 0.00137573)
(0.00950421 -0.00158362 0.00171231)
(0.00615903 -0.00148324 0.00172107)
(0.00218969 -0.00218302 0.00208291)
(0.000262616 -0.00311412 0.00290839)
(0.00592632 -0.0243918 0.00542813)
(0.016312 -0.023998 0.00652456)
(0.0166634 -0.0110142 0.0023637)
(0.0113576 -0.00480123 0.00197214)
(0.00929497 -0.00294118 0.00246328)
(0.0097225 -0.00307539 0.00235652)
(0.00855915 -0.00324169 0.00267194)
(0.00416845 -0.00272285 0.00370183)
(-0.000303397 -0.00459399 0.00628866)
(0.000465933 -0.0123458 0.0067632)
(0.00388554 -0.0537568 0.0128803)
(0.015192 -0.0575198 0.0141909)
(0.02163 -0.0297641 0.00981887)
(0.014617 -0.0175967 0.0077245)
(0.010266 -0.0133827 0.00704023)
(0.00930496 -0.00984226 0.00571643)
(0.00685802 -0.00619486 0.00588248)
(0.00295959 -0.00708578 0.0077515)
(0.00394128 -0.0203472 0.00886404)
(0.00282006 -0.0306945 0.00637319)
(0.00213246 -0.0833428 0.0125407)
(0.0112852 -0.0875852 0.00980109)
(0.0188807 -0.0525714 0.012684)
(0.0155393 -0.0355778 0.0124281)
(0.0140816 -0.0300002 0.0109598)
(0.0130959 -0.0221058 0.00958564)
(0.012213 -0.0180419 0.00961385)
(0.0133944 -0.0256558 0.00992912)
(0.0123423 -0.037804 0.00737674)
(0.00447576 -0.0396351 0.00394862)
(0.00396685 -0.0985313 0.00248536)
(0.011847 -0.102509 -0.00188444)
(0.0192694 -0.0776885 0.00913621)
(0.0220954 -0.0622882 0.0140617)
(0.0235158 -0.0550907 0.0129858)
(0.0235411 -0.0467234 0.0120205)
(0.0231821 -0.0426399 0.0119019)
(0.0214968 -0.0449595 0.0104744)
(0.0129513 -0.0456398 0.0061608)
(0.00447148 -0.0429805 0.00185932)
(0.00131544 -0.103757 -0.00242599)
(0.00645171 -0.104204 -0.00718358)
(0.0143289 -0.092759 0.00254532)
(0.0186994 -0.0825437 0.0106653)
(0.0197953 -0.0732592 0.0116694)
(0.0198928 -0.0635933 0.0110009)
(0.0179956 -0.0573639 0.0103029)
(0.0124935 -0.0532429 0.00772809)
(0.00497717 -0.0492742 0.00251349)
(0.00146539 -0.0460879 -0.00148797)
(-0.00187062 -0.105371 -0.00252096)
(0.00335461 -0.1023 -0.00528054)
(0.0116065 -0.0921007 0.0040155)
(0.016093 -0.0835227 0.0125314)
(0.0153744 -0.0755009 0.0135991)
(0.011695 -0.0683681 0.0110383)
(0.00525265 -0.0635893 0.00727626)
(-0.00149686 -0.0588894 0.00292744)
(-0.00613826 -0.0554681 -0.000480335)
(-0.0079721 -0.0537287 -0.00220501)
(0.0122613 -0.116131 -0.0240977)
(0.0333849 -0.124896 -0.0115029)
(0.0367691 -0.120507 0.0112042)
(0.0384678 -0.110267 0.0210977)
(0.0331598 -0.0938453 0.0214315)
(0.0241814 -0.0766379 0.0172275)
(0.0139808 -0.061433 0.0076236)
(0.00160566 -0.0531419 0.000896892)
(-0.0177372 -0.051891 0.0108382)
(-0.0468348 -0.0536733 0.0152762)
(0.0379327 -0.131114 -0.0620926)
(0.11156 -0.152652 -0.0332973)
(0.111214 -0.169749 0.0151131)
(0.0636671 -0.169654 0.0329339)
(0.0109315 -0.145977 0.0333764)
(-0.0191978 -0.108663 0.0171526)
(-0.0347679 -0.0592804 -0.00157735)
(-0.0611651 -0.0391987 0.00161164)
(-0.0980761 -0.0431765 0.0294473)
(-0.13939 -0.0475411 0.0251565)
(0.0147396 -0.149901 -0.0860051)
(0.0650854 -0.190369 -0.0371101)
(0.00304722 -0.146153 0.0203345)
(-0.0635001 -0.123932 0.0208914)
(-0.0931529 -0.0965246 -0.0040109)
(-0.0971266 -0.0387332 -0.042223)
(-0.0989078 0.00424817 -0.0429587)
(-0.105232 -0.0126795 0.000468028)
(-0.143682 -0.033068 0.0353536)
(-0.193601 -0.0251327 0.00109185)
(-0.00195784 -0.110224 -0.0903482)
(0.00656531 -0.155602 -0.0175234)
(-0.0953001 -0.0980109 0.0205673)
(-0.125575 -0.0743506 0.00393069)
(-0.101203 -0.0250239 -0.023827)
(-0.0724591 0.0340131 -0.0441691)
(-0.0591071 0.0513568 -0.0315382)
(-0.0526318 0.0360754 0.0199136)
(-0.108157 0.0212322 0.048265)
(-0.165022 0.0131898 0.0181392)
(-0.0057809 -0.0461924 -0.0887421)
(-0.00892644 -0.116544 -0.0137437)
(-0.103764 -0.0717628 0.0246726)
(-0.130297 -0.0826215 0.0218263)
(-0.125923 -0.0525502 0.0144277)
(-0.0813693 0.0307424 0.0111001)
(-0.0545987 0.0580347 0.0262879)
(-0.0765122 0.0294762 0.0478938)
(-0.131807 0.00780682 0.0365055)
(-0.149135 -0.01322 0.0133598)
(-0.00131074 0.0270703 -0.0819644)
(0.0156072 -0.0800344 -0.0148247)
(-0.0685313 -0.0507307 0.0264626)
(-0.111736 -0.0770391 0.0371405)
(-0.15923 -0.0681438 0.0374684)
(-0.164895 0.00639701 0.0256545)
(-0.158058 0.0417952 0.013845)
(-0.186472 0.0236539 -0.00878659)
(-0.199879 -0.00958753 -0.0277187)
(-0.1741 -0.070261 -0.0187604)
(0.0124693 0.0638451 -0.0481436)
(0.0486614 -0.0584179 -0.00726778)
(-0.020311 -0.0406926 0.0191988)
(-0.0734719 -0.0566855 0.032991)
(-0.159803 -0.0671162 0.0416801)
(-0.219459 -0.0077346 0.0114985)
(-0.226151 0.0393528 -0.0330227)
(-0.221161 0.0306942 -0.0504951)
(-0.211723 -0.0310651 -0.0337153)
(-0.207157 -0.113547 0.00128714)
(0.0348301 0.0289698 0.00545086)
(0.0746001 -0.058863 0.0114415)
(0.028011 -0.0315494 0.0137175)
(-0.032012 -0.0187509 0.0176336)
(-0.117212 -0.0349271 0.0372389)
(-0.215725 0.0207316 0.00783014)
(-0.234227 0.0496239 -0.0419417)
(-0.223304 0.0191653 -0.0350545)
(-0.222744 -0.0608648 0.0106156)
(-0.242126 -0.135761 0.0275492)
(0.0380431 -0.0513612 -0.00736242)
(0.061588 -0.0926279 -0.00695894)
(0.0391745 -0.0287236 -0.00295038)
(-0.01009 0.0101775 -0.00210435)
(-0.0402568 -0.0221708 0.0237571)
(-0.110402 0.0467434 0.0303183)
(-0.157507 0.0592141 0.013991)
(-0.179025 0.00782536 0.0308407)
(-0.221518 -0.0753364 0.0504701)
(-0.255624 -0.129954 0.0237423)
(0.0401946 -0.0789203 -0.0356861)
(0.0293395 -0.0630424 -0.0401437)
(0.000448965 0.0197268 -0.0286014)
(-0.0144967 0.0189169 -0.00122025)
(-0.0401056 -0.0364777 0.0245959)
(-0.0595664 0.021727 0.0337024)
(-0.0950241 0.0340788 0.0471703)
(-0.161133 -0.0124146 0.0656018)
(-0.245621 -0.0646414 0.0506007)
(-0.262774 -0.0894176 -0.00499758)
(0.0248558 -0.0628858 -0.0438683)
(-0.01143 0.02898 -0.0534477)
(-0.0509184 0.0539622 -0.0225115)
(-0.0687643 -0.0243672 0.0195121)
(-0.0855399 -0.0727938 0.0249633)
(-0.0913058 -0.038567 0.041625)
(-0.124111 -0.00557448 0.0616955)
(-0.203672 -0.0135922 0.0665253)
(-0.270932 -0.0294256 0.0353918)
(-0.265367 -0.0408514 -0.0189965)
(0.00308205 -0.00612421 -0.0387467)
(-0.036432 0.107523 -0.0355184)
(-0.0820271 0.0615876 0.00473927)
(-0.112276 -0.0632265 0.0186856)
(-0.125044 -0.111937 0.0125134)
(-0.123086 -0.0901241 0.0296914)
(-0.143249 -0.039437 0.0565912)
(-0.204948 -0.00850551 0.0641531)
(-0.264903 -0.0036801 0.0411348)
(-0.265101 -0.00450552 -0.00159232)
(-0.000415614 -0.00188621 0.00552545)
(0.00325413 -0.0018446 0.00122119)
(0.0117202 -0.00500657 -0.00535632)
(0.0180853 -0.00335998 -0.00724891)
(0.0208874 -0.00164051 -0.00192008)
(0.0202201 -0.00136353 0.00404124)
(0.0171905 -0.00097027 0.0068461)
(0.0128672 -0.000546574 0.00769662)
(0.0075754 -0.000155708 0.00784759)
(0.00249934 -0.000239987 0.00747837)
(0.000385045 -0.00918715 0.00764299)
(0.0193854 -0.0217679 0.0156987)
(0.0279 -0.0206637 0.0139636)
(0.0258986 -0.0121293 0.00598163)
(0.0229634 -0.00429832 0.000345263)
(0.0200672 -0.00142927 0.00249688)
(0.0162629 -0.00172648 0.00627982)
(0.011919 -0.00189679 0.00813775)
(0.00670082 -0.00198538 0.00895533)
(0.00202378 -0.00342611 0.0102908)
(0.00859598 -0.0281548 0.0168057)
(0.0250528 -0.0549792 0.0284386)
(0.0327324 -0.0445818 0.0288158)
(0.0260935 -0.0244862 0.0243906)
(0.0196479 -0.00993095 0.0138427)
(0.0184804 -0.00305668 0.00728178)
(0.0169323 -0.00264838 0.00807419)
(0.0129619 -0.00349801 0.0110641)
(0.00543141 -0.00247977 0.0149194)
(0.00104282 -0.00636433 0.0196094)
(0.0118534 -0.057633 0.0258433)
(0.0179169 -0.0814471 0.0286114)
(0.0219286 -0.0599235 0.0330037)
(0.0148795 -0.0347958 0.032681)
(0.0121071 -0.020707 0.0256979)
(0.0148855 -0.0118631 0.0177034)
(0.0156634 -0.0073168 0.0159845)
(0.0116199 -0.00374627 0.019059)
(0.00632045 -0.00574058 0.0244394)
(0.00724116 -0.0206437 0.0258177)
(0.0096873 -0.0748585 0.0166659)
(0.0140344 -0.088321 0.0142609)
(0.0156324 -0.072052 0.0286663)
(0.0155464 -0.0541997 0.0341801)
(0.0166028 -0.0415004 0.0315181)
(0.0183726 -0.027144 0.0279121)
(0.0197926 -0.0162603 0.0264971)
(0.0210491 -0.0136695 0.0271431)
(0.0218113 -0.019815 0.0268608)
(0.0181326 -0.0267766 0.0239666)
(0.0118541 -0.0816705 -0.00136454)
(0.0165619 -0.0922674 -0.00123903)
(0.016969 -0.0849096 0.0129831)
(0.0245808 -0.0756079 0.0225671)
(0.0294522 -0.0651127 0.0250713)
(0.0318352 -0.0524584 0.0266961)
(0.0334342 -0.0423222 0.0272979)
(0.034815 -0.0372573 0.0257539)
(0.0308466 -0.0335305 0.0219403)
(0.0210921 -0.0294307 0.0186504)
(0.00622787 -0.0976503 -0.00215253)
(0.00444369 -0.0977613 -0.00373567)
(0.00523544 -0.0883474 0.00140356)
(0.0154647 -0.0837162 0.00856316)
(0.0226328 -0.075317 0.0132394)
(0.027895 -0.0642594 0.0177124)
(0.03039 -0.0534871 0.0203396)
(0.0296796 -0.044304 0.0186843)
(0.0235384 -0.0367931 0.0154504)
(0.014863 -0.030763 0.0141052)
(-0.0068157 -0.102815 0.00978357)
(-0.013711 -0.0938245 0.0100585)
(-0.00528922 -0.088895 0.0138782)
(0.00829645 -0.0842218 0.0195633)
(0.0149648 -0.0769388 0.0200889)
(0.0160518 -0.068546 0.0182075)
(0.0133285 -0.05964 0.0165002)
(0.0090766 -0.0505054 0.0145462)
(0.00375774 -0.0442303 0.014307)
(9.26674e-05 -0.0397296 0.0158159)
(-0.00995174 -0.11517 0.0020567)
(-0.0158449 -0.130288 0.0326519)
(-0.000766676 -0.126016 0.0471983)
(0.0177887 -0.111609 0.0499964)
(0.0280899 -0.0935297 0.0437791)
(0.0216718 -0.0770405 0.0266742)
(0.00297034 -0.0633994 0.00934854)
(-0.0236366 -0.0599237 0.0217295)
(-0.0461316 -0.0646989 0.0379834)
(-0.0658138 -0.0685997 0.0364477)
(0.00507955 -0.16081 -0.0196332)
(0.0102053 -0.183199 0.0517133)
(0.0118314 -0.186755 0.0750775)
(0.00546191 -0.165636 0.0679142)
(-0.00900611 -0.132464 0.0440442)
(-0.0309839 -0.0891504 -0.00654024)
(-0.0887898 -0.0527985 -0.0413971)
(-0.154037 -0.0542289 0.00920537)
(-0.197395 -0.0666208 0.0247617)
(-0.216006 -0.0814602 -0.0176311)
(-0.0761611 -0.238475 -0.012566)
(-0.131232 -0.239958 0.0545759)
(-0.150152 -0.190862 0.0455392)
(-0.150375 -0.119958 -0.00692103)
(-0.171671 -0.025248 -0.0769043)
(-0.209794 0.0671373 -0.0981025)
(-0.248671 0.0789056 -0.0599106)
(-0.277345 0.0413775 -0.0132355)
(-0.284943 -0.00704306 -0.0202623)
(-0.266912 -0.0653619 -0.0607879)
(-0.120388 -0.185574 -0.0159211)
(-0.205255 -0.220625 0.0378992)
(-0.224186 -0.160378 0.0123758)
(-0.188532 -0.0552476 -0.0392367)
(-0.192044 0.031785 -0.0960996)
(-0.230932 0.0683703 -0.101241)
(-0.246822 0.0693963 -0.0530114)
(-0.239522 0.0408357 -0.00280249)
(-0.230221 -0.0120609 0.00734205)
(-0.218781 -0.0994058 -0.00770238)
(-0.111761 -0.109411 -0.0344675)
(-0.193576 -0.179411 0.0347115)
(-0.233074 -0.172177 0.0274735)
(-0.190882 -0.0920082 0.0116679)
(-0.12016 0.0482925 -0.0169297)
(-0.1199 0.120204 -0.0485093)
(-0.15203 0.106451 -0.0214042)
(-0.165642 0.0688591 0.0331522)
(-0.185075 0.0137096 0.0482243)
(-0.18808 -0.0812587 0.04535)
(-0.0876343 -0.0242591 -0.047873)
(-0.139149 -0.110712 0.0393211)
(-0.205165 -0.142507 0.0489619)
(-0.215729 -0.120762 0.0445095)
(-0.167133 -0.00986027 0.0323126)
(-0.0976195 0.114612 0.0177214)
(-0.0991655 0.143873 0.0216218)
(-0.138707 0.0957623 0.0463549)
(-0.181221 0.00728897 0.0560499)
(-0.215273 -0.121483 0.0716519)
(-0.0653812 0.0403643 -0.0408855)
(-0.0807219 -0.0680539 0.0440072)
(-0.153571 -0.0983542 0.0603259)
(-0.209836 -0.107348 0.0674633)
(-0.222306 -0.0359184 0.0514609)
(-0.16473 0.0854656 0.0328382)
(-0.12973 0.152627 0.0349523)
(-0.170895 0.0993126 0.0467798)
(-0.228943 -0.0326195 0.0667355)
(-0.269533 -0.149448 0.072548)
(-0.0342948 0.102302 -0.0139538)
(-0.0129101 -0.0424649 0.0449313)
(-0.0934999 -0.049656 0.052063)
(-0.181041 -0.0654456 0.0743968)
(-0.253507 -0.0161848 0.0704415)
(-0.24613 0.0742514 0.0302024)
(-0.217064 0.111774 0.0267333)
(-0.250841 0.0313435 0.0542483)
(-0.287716 -0.0856991 0.0661525)
(-0.276097 -0.136731 0.0191428)
(0.0104142 0.118093 -0.000694473)
(0.0293529 -0.0185649 0.023634)
(-0.0576674 -0.0166788 0.0225719)
(-0.140898 -0.0217798 0.0615575)
(-0.230797 0.0165237 0.0825593)
(-0.275403 0.0581625 0.0699978)
(-0.276707 0.0414629 0.0692304)
(-0.282985 -0.0207808 0.0778846)
(-0.278386 -0.0744274 0.0297169)
(-0.230879 -0.0906439 -0.0710455)
(0.0339276 0.0644709 -0.0215301)
(0.032359 0.00831563 -0.018395)
(-0.0650548 0.0118863 0.00368871)
(-0.118472 -0.01468 0.0651701)
(-0.160495 0.0113639 0.091769)
(-0.205714 0.0387325 0.110892)
(-0.234098 0.018046 0.119236)
(-0.257166 -0.013479 0.0862036)
(-0.24968 -0.0335668 -0.0152214)
(-0.201721 -0.0574357 -0.121565)
(0.0186706 0.00989406 -0.0451392)
(-0.0259207 0.0439834 -0.0295359)
(-0.14328 0.00750769 0.033453)
(-0.168415 -0.0438106 0.0709703)
(-0.175004 -0.0239929 0.0843925)
(-0.185678 0.0098288 0.110531)
(-0.213578 0.0182913 0.114237)
(-0.233417 0.0149495 0.0659728)
(-0.215995 -0.0020632 -0.0302581)
(-0.184381 -0.036517 -0.121214)
(-0.00875504 0.0298284 -0.0369655)
(-0.0766432 0.0901167 -0.00576908)
(-0.174937 0.00851664 0.0540657)
(-0.192767 -0.0831401 0.0615744)
(-0.197674 -0.0751551 0.0590825)
(-0.185778 -0.0228451 0.0762477)
(-0.187211 0.0169778 0.0851898)
(-0.197587 0.0298198 0.0548621)
(-0.188234 0.0195976 -0.0147375)
(-0.165931 -0.00631657 -0.0988679)
(-0.00403958 0.00039337 0.0098026)
(-0.00280617 -0.00703559 0.0100494)
(0.0134004 -0.0179049 0.00905786)
(0.0255647 -0.0142698 0.00521673)
(0.0303803 -0.00558738 0.00481747)
(0.0265759 -0.00146024 0.00888422)
(0.0197824 -0.000364745 0.0123154)
(0.0138239 0.000122594 0.0137394)
(0.00787517 0.000426588 0.0141286)
(0.00215312 0.000211989 0.0138809)
(-0.00499368 -0.00339012 0.00915039)
(0.0178013 -0.0297163 0.0264949)
(0.0325896 -0.042842 0.0322561)
(0.0354156 -0.0353102 0.0255752)
(0.0342873 -0.0169318 0.0134132)
(0.0283797 -0.00223749 0.00879615)
(0.0197398 0.000820238 0.0115392)
(0.0130388 0.000144043 0.0142502)
(0.00738752 -0.000267015 0.0152998)
(0.00223347 -0.00217024 0.0162702)
(0.000259154 -0.0137207 0.0167512)
(0.0256034 -0.0545841 0.0390874)
(0.0318498 -0.0620133 0.0447391)
(0.0289066 -0.0427129 0.0411348)
(0.0270782 -0.0213971 0.0263027)
(0.025957 -0.00376959 0.014562)
(0.0209021 0.00223574 0.0136932)
(0.0158156 0.000644135 0.0171144)
(0.00915828 -0.00029946 0.0204986)
(0.00211651 -0.0013154 0.0256105)
(0.00953339 -0.0279339 0.025845)
(0.023496 -0.0637208 0.0347971)
(0.0182162 -0.0660877 0.0435471)
(0.0142616 -0.0449499 0.0478861)
(0.0154632 -0.0255725 0.0377539)
(0.0201949 -0.00920902 0.0249934)
(0.0205977 -0.00153106 0.0214583)
(0.0166503 0.000543086 0.0250053)
(0.00805277 0.00432264 0.0302104)
(0.00343134 -0.00175583 0.0356987)
(0.0114003 -0.0391447 0.0173557)
(0.0241922 -0.0605823 0.0186549)
(0.0168994 -0.0634614 0.0343177)
(0.0157871 -0.0521701 0.0463023)
(0.0165922 -0.0360732 0.0455336)
(0.0199897 -0.0171008 0.0403317)
(0.0227378 -0.00327679 0.0374302)
(0.0220685 0.00382597 0.0378925)
(0.0169069 0.00470703 0.0383372)
(0.012181 -0.00300203 0.0377135)
(0.0113439 -0.0584937 0.00142131)
(0.0241609 -0.0726233 0.00452706)
(0.0226659 -0.0685651 0.0164589)
(0.0256886 -0.0612241 0.0286921)
(0.0272566 -0.0495525 0.0362065)
(0.0289831 -0.034183 0.0404174)
(0.0307991 -0.0196586 0.0414893)
(0.0312921 -0.00870021 0.0405927)
(0.026158 -0.00122656 0.0377698)
(0.0166272 -0.00082191 0.0350684)
(0.00479088 -0.0857669 0.00332928)
(0.00736359 -0.0883484 0.000915181)
(0.00996276 -0.0780256 0.00233956)
(0.0170236 -0.0689378 0.00990528)
(0.0216417 -0.0584444 0.0197611)
(0.0257775 -0.0460841 0.0278312)
(0.0282 -0.0332522 0.032094)
(0.0272134 -0.0227008 0.0332477)
(0.0215834 -0.0151074 0.0333275)
(0.0133872 -0.0115066 0.0333596)
(-0.00687094 -0.0899325 0.024661)
(-0.0136279 -0.083643 0.0196939)
(-0.00684326 -0.0781235 0.0157631)
(0.00550304 -0.0703645 0.020138)
(0.0131155 -0.0610521 0.0257077)
(0.0160374 -0.050811 0.0293654)
(0.0162747 -0.0379675 0.0313768)
(0.0134417 -0.0289038 0.0327495)
(0.00986145 -0.0242322 0.034488)
(0.00681871 -0.0200473 0.0363111)
(-0.0102699 -0.103948 0.0539527)
(-0.021176 -0.110916 0.0704207)
(-0.0110492 -0.105707 0.0682132)
(0.0105735 -0.0928784 0.0615675)
(0.0222722 -0.0799389 0.0562968)
(0.0199782 -0.0686988 0.0500583)
(-0.00485606 -0.0597038 0.048502)
(-0.0272384 -0.0589095 0.0654826)
(-0.0481079 -0.0618588 0.0880594)
(-0.063595 -0.0620546 0.0929631)
(0.00821154 -0.164206 0.0815532)
(0.0166575 -0.161163 0.118305)
(0.00986612 -0.165992 0.110063)
(-0.00553827 -0.152279 0.0757405)
(-0.0409605 -0.122356 0.0326731)
(-0.107598 -0.0859905 -0.0257138)
(-0.245945 -0.0856753 -0.0356358)
(-0.291331 -0.0908667 0.0148057)
(-0.294086 -0.0971615 0.0328404)
(-0.265428 -0.124828 -1.67394e-05)
(-0.0772697 -0.256788 0.0755293)
(-0.115822 -0.200765 0.0936874)
(-0.128059 -0.130301 0.029009)
(-0.172441 -0.0531047 -0.0551611)
(-0.241532 0.0399597 -0.0871606)
(-0.299946 0.0528454 -0.0882943)
(-0.340879 0.0111242 -0.0642995)
(-0.341112 -0.0247627 -0.0295304)
(-0.30699 -0.108638 -0.0193102)
(-0.252457 -0.209743 -0.0282997)
(-0.127439 -0.206752 0.050549)
(-0.189549 -0.163029 0.052498)
(-0.192126 -0.0442102 -0.016124)
(-0.236765 0.0125877 -0.0850215)
(-0.285786 0.0132767 -0.09067)
(-0.305276 -0.00334055 -0.062619)
(-0.317165 -0.0364802 -0.0271931)
(-0.303736 -0.0869436 0.00286429)
(-0.263928 -0.179432 0.016082)
(-0.229689 -0.258936 0.00808917)
(-0.132683 -0.141232 0.0126281)
(-0.202095 -0.154265 0.0349142)
(-0.186747 -0.0531339 0.0150589)
(-0.153825 0.0700442 -0.0188232)
(-0.196584 0.0833479 -0.0474044)
(-0.242503 0.0413695 -0.0292781)
(-0.267448 0.00848726 0.00465782)
(-0.264093 -0.0485918 0.0315341)
(-0.243252 -0.145039 0.0462221)
(-0.225355 -0.216124 0.0384442)
(-0.12636 -0.0583584 -0.0124772)
(-0.195981 -0.127148 0.0348401)
(-0.205325 -0.100368 0.0315849)
(-0.144697 0.0173617 0.02436)
(-0.105183 0.125417 0.00867547)
(-0.14573 0.117575 7.46874e-05)
(-0.200076 0.0626895 0.0216799)
(-0.225556 -0.0131935 0.0554956)
(-0.229543 -0.110335 0.0843323)
(-0.219566 -0.169339 0.062884)
(-0.10971 0.0234505 -0.0200146)
(-0.163409 -0.0825671 0.0565164)
(-0.209642 -0.111004 0.0606824)
(-0.194749 -0.036183 0.0427102)
(-0.128141 0.101092 0.0174375)
(-0.120252 0.166261 0.00734986)
(-0.180338 0.118806 0.0331554)
(-0.219419 0.0312585 0.0878657)
(-0.231643 -0.0679107 0.103618)
(-0.207695 -0.119878 0.0242783)
(-0.0746074 0.0962459 -0.0127776)
(-0.100755 -0.0267891 0.0650091)
(-0.182285 -0.0782811 0.0869827)
(-0.237087 -0.0332625 0.0818187)
(-0.216731 0.0846766 0.0396784)
(-0.17889 0.17312 0.0244061)
(-0.211444 0.136137 0.0691607)
(-0.240607 0.0386914 0.111864)
(-0.232739 -0.045897 0.0587606)
(-0.166176 -0.0862422 -0.0730609)
(-0.0234392 0.145406 -0.00217135)
(-0.0337984 0.0142501 0.0471653)
(-0.143477 -0.0361264 0.084401)
(-0.246927 6.43839e-05 0.117337)
(-0.290921 0.0765736 0.109518)
(-0.272508 0.121752 0.0965354)
(-0.262321 0.092654 0.107756)
(-0.245334 0.031611 0.076206)
(-0.186538 -0.027701 -0.0377491)
(-0.120733 -0.0994213 -0.137316)
(0.0232196 0.125384 -0.00471022)
(0.00845516 0.0632218 0.0181275)
(-0.119663 0.00156835 0.0793962)
(-0.210307 0.0248995 0.130626)
(-0.265104 0.0723314 0.150855)
(-0.274447 0.0866678 0.148201)
(-0.248906 0.0686935 0.116183)
(-0.200479 0.0296484 0.0337304)
(-0.131642 -0.0513171 -0.0704829)
(-0.0993098 -0.133833 -0.135318)
(0.0203324 0.0583751 -0.0165069)
(-0.0202959 0.091444 0.0192738)
(-0.165462 0.0263886 0.0962365)
(-0.200908 0.0332385 0.123576)
(-0.215922 0.0713523 0.135162)
(-0.214093 0.0804699 0.132297)
(-0.184798 0.0632942 0.0907746)
(-0.129539 0.0172009 0.0147598)
(-0.0780856 -0.0790293 -0.0525231)
(-0.0725948 -0.144423 -0.116835)
(-0.0137759 0.0445258 -0.0104571)
(-0.0687239 0.121973 0.0327121)
(-0.185626 0.035372 0.0960658)
(-0.199377 -0.0117058 0.1062)
(-0.188503 0.0110833 0.108399)
(-0.149901 0.0414496 0.106722)
(-0.103969 0.0385554 0.0832594)
(-0.0500171 -0.00152446 0.0385059)
(-0.0168035 -0.0810263 -0.018144)
(-0.0316493 -0.137011 -0.0953718)
(-0.00336304 0.000724511 0.0153748)
(-0.00787717 -0.00587675 0.0199031)
(0.00844254 -0.0182195 0.0241787)
(0.0248765 -0.0155628 0.0226296)
(0.0317147 -0.00670318 0.0195756)
(0.0275475 -0.00142505 0.0182764)
(0.0198614 0.000559091 0.0185567)
(0.0133723 0.00128826 0.0190431)
(0.00724024 0.001599 0.0193858)
(0.00142165 0.00147663 0.0195298)
(-0.00432761 -0.000154347 0.0115525)
(0.00689858 -0.0220096 0.0275475)
(0.0254415 -0.0446747 0.0394659)
(0.0341167 -0.0407074 0.0348092)
(0.037498 -0.0188624 0.0239611)
(0.0311589 -0.0015859 0.018673)
(0.0206225 0.00295397 0.0187118)
(0.0130056 0.00298392 0.0200135)
(0.00723952 0.00267105 0.0210167)
(0.0019101 0.00109903 0.0216252)
(-0.00159631 -0.00634459 0.0132518)
(0.0215699 -0.0363719 0.0343449)
(0.0301093 -0.0554145 0.0469391)
(0.0315417 -0.0475327 0.0450453)
(0.0345058 -0.0251437 0.0305344)
(0.0322642 -0.00236228 0.0212262)
(0.0232617 0.00608798 0.0207604)
(0.0157105 0.00500567 0.0230139)
(0.00923062 0.00329739 0.0249562)
(0.00243684 0.00224859 0.027753)
(0.00518589 -0.0155984 0.0167474)
(0.0263738 -0.0381104 0.0287504)
(0.0267371 -0.0527818 0.0425464)
(0.024201 -0.045345 0.0489549)
(0.0269039 -0.0261193 0.0391028)
(0.0289991 -0.00502562 0.0279579)
(0.0243601 0.00564409 0.0260332)
(0.0172777 0.00664978 0.0291398)
(0.00841272 0.00842911 0.0326127)
(0.00116878 0.00874905 0.0367373)
(0.00981492 -0.0273071 0.0121001)
(0.0298708 -0.0396647 0.0187456)
(0.029574 -0.0465774 0.0347659)
(0.0261621 -0.0420394 0.0474633)
(0.0252578 -0.0267536 0.0485903)
(0.0274893 -0.0064667 0.043837)
(0.027266 0.00724561 0.0413668)
(0.0223689 0.012428 0.0426316)
(0.0118993 0.0146941 0.0432373)
(0.00379246 0.0132471 0.0434433)
(0.00814899 -0.0567878 0.00850942)
(0.0246939 -0.06364 0.0149823)
(0.0284633 -0.0553642 0.0245762)
(0.0296403 -0.0453863 0.0348995)
(0.0288009 -0.0321972 0.0439026)
(0.0303262 -0.0141846 0.0501076)
(0.0317135 0.0029429 0.0525617)
(0.0293224 0.0143857 0.0526244)
(0.0189466 0.0206649 0.0509368)
(0.00755195 0.0207173 0.0480508)
(-6.03827e-06 -0.0802966 0.0128933)
(0.00389198 -0.0787463 0.0082118)
(0.00807275 -0.0680627 0.00754201)
(0.0146568 -0.0563374 0.0159407)
(0.0186106 -0.0448312 0.027997)
(0.0232576 -0.031906 0.0390419)
(0.0252695 -0.0163547 0.0463339)
(0.0228271 -0.001282 0.0523142)
(0.0156837 0.00965594 0.0556859)
(0.00778302 0.0152902 0.0548219)
(-0.0050832 -0.0782737 0.0351448)
(-0.0101582 -0.0732349 0.0265456)
(-0.00705606 -0.0662818 0.018605)
(0.00269524 -0.0557444 0.0239339)
(0.0109885 -0.0456362 0.0323369)
(0.0164566 -0.034288 0.0391007)
(0.0175303 -0.0197988 0.0429376)
(0.0143229 -0.00796232 0.0468952)
(0.0110318 0.000935951 0.0517814)
(0.00640815 0.00681504 0.0538384)
(0.00289237 -0.0904205 0.0912415)
(-0.00180486 -0.0926555 0.102595)
(0.00535413 -0.0895458 0.0878594)
(0.0226633 -0.0800882 0.0805129)
(0.0310507 -0.0699301 0.0840937)
(0.0256524 -0.0580521 0.0901877)
(0.0061667 -0.0443374 0.104191)
(-0.0132975 -0.0355496 0.123101)
(-0.0403748 -0.0255867 0.141734)
(-0.0551999 -0.0130382 0.155712)
(0.0315394 -0.14544 0.158119)
(0.0584761 -0.136641 0.172043)
(0.0498042 -0.143813 0.131495)
(0.00712734 -0.137702 0.0890734)
(-0.0801912 -0.10442 0.0510908)
(-0.235766 -0.0787533 0.0153404)
(-0.351171 -0.0784144 0.0182866)
(-0.352851 -0.0659964 0.0266013)
(-0.312943 -0.0401837 0.0243751)
(-0.255141 -0.0363974 0.0168692)
(-0.0446707 -0.251374 0.153456)
(-0.0468864 -0.15695 0.117293)
(-0.0700075 -0.0880555 0.0142766)
(-0.177627 -0.00351407 -0.043009)
(-0.275477 0.0420501 -0.0499458)
(-0.313351 -0.0378585 -0.0662241)
(-0.30391 -0.116672 -0.0574155)
(-0.281117 -0.144013 -0.0382868)
(-0.242322 -0.154436 -0.0300411)
(-0.194475 -0.160241 -0.0426072)
(-0.106566 -0.206948 0.125628)
(-0.136774 -0.0919536 0.0702933)
(-0.181917 0.00635298 -0.0390552)
(-0.260412 0.00421829 -0.0776207)
(-0.264921 -0.0328041 -0.073319)
(-0.251711 -0.0775991 -0.0687)
(-0.252829 -0.0926031 -0.0562492)
(-0.23931 -0.103893 -0.0404415)
(-0.201702 -0.11733 -0.0411032)
(-0.151589 -0.123846 -0.0686343)
(-0.130263 -0.148879 0.0910711)
(-0.162956 -0.0559533 0.0697509)
(-0.161507 0.0621931 0.00760306)
(-0.205097 0.0608641 -0.0368795)
(-0.236909 0.00605518 -0.0501906)
(-0.248879 -0.0269818 -0.063408)
(-0.24721 -0.0431291 -0.0581183)
(-0.222711 -0.0625726 -0.0400325)
(-0.17979 -0.0858704 -0.0467293)
(-0.123169 -0.107152 -0.084708)
(-0.141754 -0.0805277 0.0576962)
(-0.176675 -0.0567352 0.0668548)
(-0.136865 0.050491 0.0520532)
(-0.107527 0.117938 0.0275234)
(-0.143711 0.0984838 0.0050343)
(-0.209388 0.0516893 -0.00778674)
(-0.236047 0.0188453 -6.32346e-05)
(-0.21458 -0.014319 0.00855571)
(-0.168369 -0.0533864 -0.0144648)
(-0.103854 -0.0877897 -0.0718046)
(-0.138195 -0.00897028 0.0328114)
(-0.18835 -0.0785739 0.0673014)
(-0.182824 -0.0532052 0.0623811)
(-0.123743 0.0549505 0.0465776)
(-0.107238 0.139585 0.0324674)
(-0.177918 0.135409 0.0338263)
(-0.22875 0.0838355 0.0557557)
(-0.211997 0.0276573 0.0550096)
(-0.153836 -0.0231088 0.00331239)
(-0.0764501 -0.0743884 -0.0836633)
(-0.101559 0.0837871 0.026383)
(-0.147958 -0.0303664 0.0882956)
(-0.208114 -0.0695492 0.101708)
(-0.220261 0.0117056 0.0787488)
(-0.190071 0.127628 0.0600948)
(-0.208695 0.16814 0.0755058)
(-0.230146 0.124997 0.0936247)
(-0.195934 0.0659131 0.0632068)
(-0.119841 -0.00200922 -0.0273643)
(-0.0404691 -0.101235 -0.107999)
(-0.0418285 0.14607 0.0259003)
(-0.0647161 0.0203152 0.0835943)
(-0.173719 -0.0311216 0.136725)
(-0.262099 0.0256069 0.142911)
(-0.271373 0.108076 0.121748)
(-0.248864 0.151316 0.113685)
(-0.220776 0.131261 0.0913992)
(-0.158912 0.0708857 0.0172363)
(-0.0692663 -0.0432634 -0.067349)
(-0.017896 -0.167625 -0.10305)
(0.0160668 0.133778 0.0249702)
(0.000193368 0.071518 0.0626785)
(-0.134918 0.0220688 0.146637)
(-0.238174 0.0664161 0.172279)
(-0.273687 0.11146 0.162509)
(-0.243257 0.125008 0.128714)
(-0.17571 0.105712 0.0664089)
(-0.0873269 0.0293591 -0.0123718)
(-0.0102492 -0.113696 -0.0469174)
(-0.00317617 -0.201438 -0.0885908)
(0.015744 0.052907 0.0256092)
(-0.0057684 0.105691 0.0679596)
(-0.149861 0.0686117 0.15561)
(-0.195789 0.0977849 0.167862)
(-0.205328 0.124429 0.159137)
(-0.169846 0.108006 0.124409)
(-0.0946844 0.0604561 0.0679371)
(-0.00628497 -0.0344794 0.0170133)
(0.0400386 -0.15475 -0.0181514)
(0.0228149 -0.204843 -0.0799123)
(-0.0158788 0.0329261 0.0383362)
(-0.0463189 0.138167 0.0798898)
(-0.159153 0.0857879 0.141715)
(-0.170992 0.0566714 0.14672)
(-0.14962 0.0584741 0.147059)
(-0.0933244 0.0367962 0.131822)
(-0.0239695 -0.0214807 0.10064)
(0.0447486 -0.104174 0.0575092)
(0.0791358 -0.184998 0.00142)
(0.0604195 -0.20629 -0.0676499)
(-0.000136776 -0.000277702 0.0191128)
(-0.00400047 -0.00265348 0.0258969)
(0.00537114 -0.00847383 0.0340267)
(0.0201789 -0.00769054 0.0336706)
(0.0262469 -0.00322737 0.0282796)
(0.0238386 0.000233187 0.0239691)
(0.0181161 0.00196611 0.022271)
(0.0123656 0.00271593 0.0218019)
(0.0064444 0.00318931 0.0219298)
(0.000547336 0.00354047 0.0219922)
(-0.000891556 -6.48188e-05 0.0147588)
(-0.00127339 -0.00811274 0.0277043)
(0.0140517 -0.0255471 0.0400483)
(0.0258919 -0.0221777 0.0393724)
(0.0308508 -0.00724785 0.0318075)
(0.0264734 0.00231297 0.0255364)
(0.0190458 0.00545788 0.023671)
(0.0129377 0.00634112 0.0239947)
(0.00751989 0.006829 0.025114)
(0.00169385 0.00690192 0.0260941)
(0.00190219 -0.00428125 0.0128991)
(0.0113261 -0.0155834 0.0273857)
(0.023889 -0.0328909 0.0411285)
(0.0303792 -0.0306465 0.0421646)
(0.034205 -0.0115733 0.0345464)
(0.0304416 0.00455831 0.0285169)
(0.0219242 0.00959491 0.0267984)
(0.0146422 0.00946805 0.0274242)
(0.00843635 0.00948663 0.0283406)
(0.00203828 0.0102774 0.0293973)
(0.0076092 -0.0137787 0.0126258)
(0.0222453 -0.0191915 0.0207282)
(0.0311057 -0.0296793 0.0353071)
(0.0337414 -0.0289084 0.0427523)
(0.0354505 -0.0134709 0.0381292)
(0.0327953 0.00450265 0.0328587)
(0.0247388 0.0131235 0.0319199)
(0.0160241 0.0141725 0.0334672)
(0.0077723 0.015542 0.0346076)
(0.00109414 0.0183824 0.034519)
(0.00952829 -0.032657 0.0143243)
(0.0279538 -0.0315644 0.0215767)
(0.036441 -0.0292481 0.0338433)
(0.0381922 -0.0242371 0.0441435)
(0.0381387 -0.0110502 0.0467864)
(0.0372573 0.00614628 0.0451933)
(0.0319307 0.017701 0.0446628)
(0.0226614 0.0205105 0.0462092)
(0.009685 0.0227914 0.0457864)
(0.00099527 0.0272048 0.0420377)
(0.00322245 -0.0626568 0.0186316)
(0.0197217 -0.060879 0.024353)
(0.028459 -0.046167 0.0320353)
(0.033498 -0.0310289 0.040777)
(0.0350413 -0.013984 0.0497466)
(0.0374138 0.00574383 0.0569209)
(0.0367669 0.0214632 0.060063)
(0.0294887 0.0306141 0.0612274)
(0.0144333 0.0349035 0.0592861)
(0.00298659 0.0379777 0.0518169)
(-0.005318 -0.0749335 0.0220902)
(-0.00287931 -0.069758 0.0109743)
(0.00176741 -0.0566024 0.0108881)
(0.00963693 -0.0430905 0.0215889)
(0.0165089 -0.0282108 0.0358044)
(0.0239842 -0.00805046 0.0507103)
(0.0266806 0.0137824 0.0618613)
(0.0236257 0.0319415 0.0680539)
(0.0152396 0.0434188 0.068747)
(0.00755488 0.0505544 0.0632894)
(-0.00512995 -0.0665587 0.0396207)
(-0.0103503 -0.0633121 0.0294826)
(-0.0106673 -0.0536182 0.0198325)
(-0.000676274 -0.0428089 0.0250937)
(0.00917584 -0.0299974 0.0344613)
(0.0148665 -0.0112193 0.0409762)
(0.0139583 0.0086349 0.0477344)
(0.0119311 0.0234979 0.0590578)