/*--------------------------------*- C++ -*----------------------------------*\
| =========                 |                                                 |
| \\      /  F ield         | OpenFOAM: The Open Source CFD Toolbox           |
|  \\    /   O peration     | Version:  2312                                  |
|   \\  /    A nd           | Website:  www.openfoam.com                      |
|    \\/     M anipulation  |                                                 |
\*---------------------------------------------------------------------------*/
FoamFile
{
    version     2.0;
    format      ascii;
    arch        "LSB;label=32;scalar=64";
    class       volScalarField;
    location    "0.945";
    object      alpha.water;
}
// * * * * * * * * * * * * * * * * * * * * * * * * * * * * * * * * * * * * * //

dimensions      [0 0 0 0 0 0 0];

internalField   nonuniform List<scalar> 
8000
(
1
1
1
1
1
1
1
1
1
1
1
1
1
1
1
1
1
1
1
1
1
1
1
1
1
1
1
1
1
1
1
1
1
1
1
1
1
0.999993
1
1
1
1
1
1
1
1
1
0.99996
0.996915
0.99955
1
1
1
1
1
1
1
1
0.977192
0.972022
0.977668
0.988069
0.993543
0.996097
1
1
1
1
0.981559
0.970775
0.780624
0.811952
0.808458
0.780235
0.720881
0.708758
0.80438
0.928424
0.968306
0.969676
0.179432
0.172723
0.15053
0.118093
0.0893578
0.0971711
0.21375
0.494251
0.751714
0.95026
0.000612743
0.000557769
0.000514534
0.000563842
0.00108348
0.00247939
0.00550475
0.0424789
0.246004
0.593808
9.83806e-05
9.69788e-05
8.69499e-05
0.000118863
0.000191528
0.000568188
0.00130283
0.00212186
0.00286903
0.0446011
0.000175657
0.000275553
0.000185398
6.69665e-05
4.15484e-05
0.000160458
0.000292434
0.00028686
0.000605502
0.000584177
0.00020336
0.000189575
0.000120277
6.71721e-05
2.41218e-05
4.79786e-05
0.000168025
0.000118701
0.000201703
0.000346232
0.000165551
4.14479e-05
2.85673e-05
2.0442e-05
0.000114257
0.000151447
8.45635e-05
9.47855e-05
0.000135679
7.67949e-05
6.52877e-05
8.16993e-05
0.000154352
8.0784e-05
1.71433e-05
2.05159e-05
5.13257e-05
3.65269e-05
6.20827e-05
2.88511e-05
8.35632e-05
0.000348226
0.000389472
0.000143169
1.87055e-05
1.8941e-05
1.902e-05
1.40467e-05
1.56294e-05
1.99297e-05
0.000318956
0.00039806
0.000423934
6.99863e-05
2.0531e-05
1.69641e-05
1.4047e-05
1.3431e-05
1.28618e-05
1.95092e-05
0.000347618
0.000371896
0.000135371
9.2401e-05
8.97071e-05
0.000125971
2.18396e-05
1.2862e-05
1.26754e-05
1.96267e-05
0.000287893
0.000153528
3.83199e-05
6.1085e-05
0.000315242
0.00050335
0.000302333
2.97787e-05
1.2314e-05
1.54136e-05
1.84433e-05
1.76621e-05
2.02992e-05
0.00021635
0.0004384
0.000467865
0.000443529
0.00016777
2.22442e-05
1.6423e-05
1
1
1
1
1
1
1
1
1
1
1
1
1
1
1
1
1
1
1
1
1
1
1
1
1
1
1
0.999994
1
0.99999
1
1
1
1
1
1
1
0.999934
0.998908
0.99999
1
1
1
1
1
1
1
0.999999
0.985608
0.999999
1
1
1
1
1
1
1
0.998287
0.986903
0.999999
0.999997
1
1
1
1
1
1
1
0.999977
0.999968
0.792876
0.832166
0.818158
0.767981
0.719207
0.73593
0.802288
0.881311
0.898335
0.908827
0.0617435
0.0632717
0.0602555
0.0583943
0.0624144
0.0785944
0.124286
0.20621
0.288476
0.453876
2.02287e-05
1.82787e-05
1.85916e-05
3.90715e-05
0.000270054
0.00064866
0.00129544
0.00212693
0.00885053
0.0869405
1.23634e-05
2.13743e-05
1.88345e-05
7.71801e-05
0.000169065
0.0001502
0.00027782
0.000287668
0.000542575
0.000584186
7.78492e-05
0.000184257
0.000212236
0.000209021
0.000170523
0.00014427
0.000155784
4.09708e-05
6.88636e-05
0.000162436
0.000206586
0.000206381
0.000210652
9.85469e-05
1.96388e-05
6.51315e-05
0.000198729
4.7614e-05
4.74349e-05
0.000772074
0.000204338
0.000206093
9.15093e-05
1.78813e-05
1.60586e-05
8.02807e-05
0.000116172
0.000372313
0.000364903
0.000436895
0.000201688
8.49893e-05
2.40852e-05
1.77441e-05
1.52602e-05
1.6011e-05
7.7371e-05
0.000361573
0.000409911
2.68163e-05
6.38701e-05
0.000108604
0.000155343
0.000117839
2.48127e-05
1.85255e-05
1.95384e-05
7.23739e-05
0.000358596
1.48223e-05
2.77934e-05
0.000269545
0.000469967
0.000334089
5.20529e-05
4.70606e-05
1.71773e-05
1.4047e-05
3.35861e-05
1.21253e-05
4.77334e-05
0.000355627
0.000474712
0.000482557
0.000502102
0.000494716
0.000220716
1.32423e-05
1.21253e-05
1.17097e-05
6.08749e-05
0.000174576
0.000186285
7.51155e-05
0.000203169
0.000521338
0.000529725
0.000138308
1.16882e-05
1.16059e-05
7.97272e-05
3.58019e-05
6.58835e-06
1.05474e-05
1.95944e-05
0.000249788
0.000522026
0.000377213
1.16335e-05
1.16012e-05
1
1
1
1
1
1
1
1
1
1
1
1
1
1
1
1
1
1
1
1
1
1
1
1
1
1
0.999999
1
0.999989
1
1
1
1
1
1
0.999999
0.999992
0.999998
0.999924
0.999968
1
1
1
1
1
1
0.999999
0.999891
0.999999
0.999994
1
1
1
1
1
1
1
0.993956
0.999997
1
0.999986
0.999997
1
1
1
1
1
1
0.999977
0.999999
0.801111
0.830154
0.819452
0.780664
0.726678
0.726142
0.763763
0.757227
0.650007
0.582153
0.039392
0.0474491
0.0408357
0.0338558
0.0418515
0.0578607
0.0757764
0.0779522
0.0555079
0.0480543
1.07023e-05
1.03323e-05
1.15109e-05
1.37934e-05
9.53616e-06
7.99944e-05
0.000211377
0.000443254
0.000574386
0.000620235
1.9301e-06
2.16733e-06
3.27318e-06
7.8431e-05
0.000183488
0.000151117
0.000129373
4.09691e-05
6.88636e-05
0.000279379
2.86977e-06
2.28093e-05
0.000123885
0.000194278
0.000187438
0.000164764
0.000150406
1.77063e-05
2.00106e-05
0.000160995
3.70831e-05
0.000112873
0.000190268
0.000188788
7.09753e-05
3.34901e-05
4.79539e-05
5.01841e-05
1.29452e-05
1.5911e-05
3.7172e-05
9.38011e-05
0.000181186
9.1381e-05
1.45492e-05
1.39458e-05
2.4781e-05
0.000111973
6.81007e-05
0.000285397
2.31358e-05
8.90497e-05
0.000113024
2.0655e-05
1.50083e-05
1.47304e-05
2.72623e-05
0.000198742
0.000252875
0.000113974
2.67419e-05
8.54251e-05
4.12372e-05
2.00142e-05
1.84598e-05
1.6011e-05
2.04766e-05
0.000112797
0.000221354
1.27013e-05
1.68136e-05
6.56094e-05
0.00019723
0.000351587
0.000372226
0.000226462
6.43875e-05
1.91468e-05
3.16965e-05
1.17485e-05
2.02623e-05
7.79584e-05
0.000452685
0.000502102
0.0005107
0.000522344
0.000533499
3.00129e-05
1.17485e-05
1.16059e-05
1.40584e-05
8.33632e-05
0.000216247
0.000114038
0.000108214
0.000373153
0.000532234
0.000418796
1.16059e-05
1.16012e-05
7.47037e-06
2.63086e-05
1.33963e-05
1.98592e-05
6.73109e-05
6.85628e-05
0.000529725
0.000475784
1.16012e-05
1.16012e-05
1
1
1
1
1
1
1
1
1
1
1
1
1
1
1
1
1
1
1
1
1
1
1
1
1
1
0.999999
0.999995
0.999997
1
0.999999
1
1
1
1
1
0.999982
0.999981
0.999995
1
0.999985
0.999999
1
1
1
0.999999
0.999988
0.999999
1
1
0.999986
1
1
1
1
1
1
1
1
1
0.999955
0.999984
0.999995
1
0.999985
1
1
1
1
0.999999
0.886879
0.894932
0.882037
0.835129
0.766973
0.731809
0.731825
0.65226
0.449845
0.322632
0.147103
0.154512
0.134929
0.0985644
0.0676857
0.0594329
0.0498575
0.0270415
0.00520528
0.000776776
1.9302e-06
2.16747e-06
2.89147e-06
5.64398e-06
6.5125e-06
5.98499e-06
6.32362e-06
0.000108722
0.000184988
0.000170333
1.26594e-06
1.56492e-06
1.71765e-06
1.20103e-05
4.35439e-05
4.4883e-06
1.17837e-05
1.40861e-05
0.000116145
0.000685738
1.9302e-06
2.00885e-06
5.85431e-06
4.14079e-05
7.0463e-05
6.98998e-05
7.7092e-06
9.94911e-06
0.000121099
6.43589e-05
2.6937e-06
2.60265e-06
1.1666e-05
5.81312e-05
0.000145139
9.94845e-05
1.32192e-05
3.10838e-05
1.30103e-05
1.09165e-05
4.11863e-06
3.55343e-06
3.68901e-05
0.000132725
6.01944e-05
1.28774e-05
1.34134e-05
0.000199843
0.00046957
0.000405281
4.77413e-06
8.1708e-06
6.94851e-05
7.32611e-05
1.46428e-05
1.39458e-05
1.44758e-05
1.80357e-05
0.000314931
0.000554316
4.3881e-06
2.97491e-05
4.67523e-05
2.20968e-05
4.63631e-05
7.45607e-05
2.95639e-05
4.34431e-05
3.12817e-05
0.000339342
2.28963e-06
3.57542e-05
0.000221352
0.00048692
0.000658255
0.000574516
0.000326959
4.63521e-05
1.97099e-05
4.05054e-05
1.67645e-05
7.99299e-05
8.99502e-05
0.000213745
0.000428614
0.000561493
0.000540439
0.000500092
1.56118e-05
6.53972e-05
1.53923e-05
8.75578e-05
4.98137e-05
0.000194011
0.000346639
0.000351171
0.000533813
0.000532234
1.52525e-05
2.39648e-05
5.16343e-06
4.13092e-05
3.09146e-05
0.000263667
0.000706544
0.000460291
0.000532234
0.000476602
3.00487e-05
1.16012e-05
1
1
1
1
1
1
1
1
1
1
1
1
1
1
1
1
1
1
1
1
1
1
1
1
1
1
1
0.999999
0.999999
1
1
1
1
1
1
1
0.999997
0.999993
0.999999
1
0.999961
0.999989
1
1
1
0.999999
0.999995
1
1
1
0.999251
0.999895
1
1
1
1
1
1
1
1
0.999568
0.999914
0.999988
0.999994
0.999998
0.999977
1
1
0.998088
0.973258
0.973699
0.972623
0.95946
0.915775
0.83255
0.747956
0.711744
0.630696
0.392715
0.280399
0.356278
0.3491
0.293296
0.206565
0.127965
0.0750357
0.0406882
0.00955238
0.000200099
6.34198e-05
1.26595e-06
1.56494e-06
1.71766e-06
1.80858e-06
2.61566e-06
3.02846e-06
5.19278e-06
6.37594e-06
7.3696e-05
2.2415e-05
1.11576e-06
1.26595e-06
1.56494e-06
1.71766e-06
1.80855e-06
2.00122e-06
6.6409e-06
7.90857e-06
0.000130802
9.75086e-05
2.29538e-06
1.60604e-06
1.71766e-06
1.80853e-06
2.04663e-06
2.11253e-06
3.08913e-06
4.2849e-06
1.2012e-05
1.75605e-05
5.18702e-06
2.00885e-06
1.99162e-06
1.03469e-05
2.17614e-05
8.37124e-06
5.83697e-06
3.05925e-05
1.03e-05
1.04192e-05
8.1342e-06
2.32534e-06
2.80029e-05
0.000121836
3.94276e-05
1.13243e-05
7.81916e-05
0.000257673
7.63044e-05
1.09165e-05
9.32372e-06
1.64837e-05
7.77274e-05
5.9248e-05
1.51455e-05
1.35774e-05
1.70474e-05
0.000151238
0.000554125
0.00055514
3.52044e-06
6.46995e-05
0.000110132
0.000105807
0.000142255
0.000221264
0.000262718
0.000126304
0.000338928
0.000556426
2.27772e-06
6.26774e-05
0.00046625
0.000673426
0.000699749
0.000643458
0.00059442
0.000535365
0.000207199
0.00055529
4.287e-06
7.69046e-05
0.000165345
0.000357139
0.000496061
0.000365742
0.000555776
0.000543119
0.00026232
0.000169162
4.02352e-06
8.54494e-05
7.18014e-05
0.000772852
0.000860756
0.000593487
0.000455156
0.000473133
0.000302609
2.02998e-05
1.86095e-06
4.65313e-05
0.000189371
0.000861335
0.000870183
0.000860757
0.000248909
8.24684e-05
7.8999e-05
1.30679e-05
1
1
1
1
1
1
1
1
1
1
1
1
1
1
1
1
1
1
1
1
1
1
1
1
1
1
1
1
1
1
1
1
1
1
1
1
1
1
1
1
0.99997
0.999977
0.999997
1
1
1
1
1
1
1
0.999237
0.999664
0.999998
1
1
1
1
1
1
0.999999
0.999609
0.999705
0.99999
0.999995
0.999994
0.999996
1
1
0.994839
0.965183
0.999243
0.999099
0.995179
0.973611
0.904254
0.806471
0.694905
0.647483
0.454965
0.305802
0.638723
0.607299
0.497751
0.359468
0.211512
0.108911
0.0464792
0.00263772
6.20726e-05
2.2415e-05
2.03554e-06
3.44856e-06
2.44931e-06
1.97421e-06
2.04817e-06
2.06795e-06
2.89572e-06
6.25941e-06
2.1644e-05
9.9356e-06
1.04702e-06
1.4147e-06
1.71766e-06
1.80858e-06
1.97421e-06
2.04817e-06
2.58865e-06
3.00861e-06
1.67977e-05
8.39369e-06
1.25206e-05
1.79004e-05
4.68894e-06
1.97421e-06
2.04817e-06
2.06796e-06
2.11253e-06
2.6625e-06
1.44719e-05
1.0571e-05
2.58796e-05
2.57454e-05
3.47976e-06
2.77478e-06
4.14038e-06
2.11253e-06
2.17344e-06
5.06777e-06
1.98296e-05
3.29482e-05
2.19554e-05
1.74549e-05
2.35716e-05
3.45134e-05
3.26037e-05
4.04268e-05
4.97998e-05
0.000139569
1.50438e-05
1.3023e-05
1.0678e-05
5.54057e-05
0.000179281
4.64513e-05
1.75643e-05
2.08255e-05
0.000146141
0.000404812
0.000256773
1.16607e-05
8.13811e-06
3.7957e-05
0.000295454
0.000387985
0.000215833
0.000253207
0.000592565
0.000616558
0.000604056
0.000161006
7.71436e-06
8.26666e-06
0.00014956
0.000716098
0.00073436
0.000617032
0.000518331
0.000656052
0.00067069
0.000386691
6.46764e-06
1.90405e-05
0.000178385
0.000809881
0.000778151
0.000129006
0.000132343
0.000518371
0.000692642
0.000250962
5.77932e-06
5.36723e-05
0.000522264
0.000850808
0.000832298
0.000229426
8.87043e-05
0.000106596
0.000661035
3.70394e-05
1.9286e-05
0.000159325
0.000863799
0.000872101
0.000861451
0.000594791
7.86469e-05
6.07242e-05
0.00015212
0.000216945
1
1
1
1
1
1
1
1
1
1
1
1
1
0.999999
1
1
1
1
1
1
1
1
0.999996
1
1
1
1
1
1
1
0.999999
1
0.999999
0.999999
1
1
1
1
1
1
0.999966
0.999989
0.999999
1
1
1
1
1
1
1
0.999709
0.999875
0.999998
1
1
1
1
1
1
0.999993
0.999805
0.999881
0.999993
0.999997
0.999996
0.999994
0.999997
0.999994
0.998528
0.976915
0.999617
0.999663
0.999793
0.996288
0.968513
0.896203
0.785121
0.685444
0.539038
0.370026
0.812794
0.785848
0.677522
0.519242
0.332258
0.177948
0.0784028
0.00927869
3.11128e-05
9.9356e-06
0.0668697
0.0530038
0.00814539
2.97374e-06
2.52533e-06
2.21045e-06
2.19286e-06
5.17932e-06
7.60594e-06
8.39369e-06
9.41103e-07
1.31823e-06
2.41748e-06
1.9742e-06
2.04817e-06
2.06796e-06
2.13592e-06
5.9489e-06
4.68997e-06
8.08054e-06
2.60568e-06
3.62619e-05
3.68935e-05
6.65298e-06
3.44909e-06
2.11253e-06
2.15409e-06
2.59692e-06
1.89367e-05
3.0307e-05
2.53189e-06
6.65689e-05
6.77018e-05
2.81881e-05
5.28748e-06
1.42745e-05
2.17748e-06
5.41264e-06
7.31278e-05
7.33582e-05
1.28777e-06
1.86325e-05
4.45892e-05
5.51874e-05
4.57339e-05
3.41958e-05
3.2804e-05
2.48503e-05
5.33147e-05
7.18711e-05
8.52423e-06
8.15615e-06
4.1807e-05
0.000110369
8.95537e-05
3.6551e-05
0.000246707
0.000300892
3.05802e-05
2.9145e-05
2.0679e-05
1.44628e-05
5.70665e-05
0.000432566
0.000453585
0.000279809
0.000574732
0.000592565
0.000293076
2.99181e-05
2.03002e-05
1.8136e-05
0.00016618
0.000673397
0.000710511
0.000435009
0.000256139
0.000566303
0.000576475
5.79025e-05
1.05903e-05
2.80271e-05
0.000489442
0.000641301
0.000544863
0.000119242
0.000111746
0.000154862
0.000702802
7.54554e-05
7.09159e-06
0.00019729
0.000724229
0.000435651
0.000216744
9.97718e-05
9.71613e-05
0.00020038
0.000701404
0.000136797
0.000256089
0.000710156
0.000782054
0.000685751
0.000328051
9.08355e-05
8.64232e-05
0.000211221
0.000528382
0.000720435
1
1
1
1
1
1
1
1
1
1
1
0.999994
0.999987
1
1
1
1
1
1
1
1
0.999995
0.999979
0.999998
1
0.999997
1
1
1
1
0.999997
0.999997
0.999989
1
0.999995
0.999984
1
1
1
1
0.999905
0.999971
1
1
0.999998
1
1
1
1
1
0.999929
0.999995
1
1
0.999999
0.999999
1
1
1
0.99999
0.999944
0.999991
0.999996
0.999998
0.999997
0.999994
0.999996
0.999986
0.999951
0.992074
0.999827
0.999863
0.999864
0.999919
0.994533
0.963803
0.879771
0.786746
0.637398
0.467979
0.887172
0.873777
0.785749
0.645048
0.473137
0.290451
0.142825
0.054309
7.59045e-06
1.2272e-05
0.142631
0.123581
0.0734994
0.00580913
5.55738e-06
3.48588e-06
2.38308e-06
3.24638e-06
4.68997e-06
8.08367e-06
9.68528e-07
1.52572e-06
4.23266e-06
2.97361e-06
2.52509e-06
2.21027e-06
2.19283e-06
3.46e-06
3.78864e-06
7.91324e-06
3.66546e-06
2.77986e-05
3.75859e-05
5.16938e-06
1.29187e-05
9.61442e-06
2.17742e-06
2.7398e-06
5.10737e-06
2.6374e-05
2.8589e-06
6.58711e-05
6.65689e-05
1.36169e-05
3.66493e-05
3.40937e-06
2.19684e-06
2.67211e-06
6.72282e-05
3.8317e-05
1.53959e-06
2.80055e-06
4.75344e-05
0.000202614
0.000112779
9.01351e-05
1.96934e-05
4.32231e-05
0.000106097
6.70067e-05
2.03411e-06
2.59295e-06
4.96175e-05
0.000605873
0.000527281
0.000369242
0.000196296
0.000151702
6.94826e-05
0.000139127
3.07942e-06
6.97546e-06
0.000344971
0.000618882
0.000606685
0.000599291
0.000568012
0.000555159
0.000120102
0.000135427
5.39753e-06
6.428e-05
0.000575263
0.000614924
0.0005015
0.00013296
0.000317365
0.000618321
0.000596809
7.66629e-05
0.000109857
0.000278816
0.00020712
0.000114966
5.04552e-05
9.31287e-05
0.000121876
0.000342221
0.000702186
8.77109e-05
0.00043777
0.000372646
1.53322e-05
2.67529e-05
3.25117e-05
9.04983e-05
0.000101814
0.00032905
0.000722205
0.000328595
0.000387108
0.000207245
2.39586e-05
3.02938e-05
3.97651e-05
5.10533e-05
0.000182496
0.000414769
0.000748509
0.000755035
0.999998
1
1
1
1
1
1
1
1
1
1
0.999995
0.99999
1
1
1
1
1
1
1
1
0.999982
0.999979
0.999993
0.999998
0.999973
0.999989
1
1
1
0.999991
0.999999
0.99999
0.99999
0.99979
0.999742
0.999919
1
1
1
0.999995
0.999934
0.999935
0.999982
0.999931
0.999748
0.999993
0.999998
0.999966
0.99999
0.999995
0.999494
0.999432
0.999933
0.999996
0.999573
0.999993
0.999998
0.999955
0.999358
0.999995
0.999931
0.999893
0.999933
0.99996
0.999931
0.999985
0.999979
0.999867
0.997466
0.999952
0.999871
0.999825
0.999894
0.999786
0.992162
0.940576
0.862654
0.72063
0.555485
0.942727
0.928695
0.858148
0.733025
0.591314
0.412722
0.227789
0.113563
0.0170501
1.65055e-05
0.234984
0.201454
0.126572
0.0588741
0.00169385
9.75133e-06
3.95499e-06
4.48162e-06
5.34899e-06
7.62426e-06
1.23859e-06
2.64725e-06
4.8116e-06
5.16939e-06
5.55717e-06
3.48565e-06
2.38305e-06
4.44562e-06
4.63117e-06
7.97916e-06
1.61412e-05
2.0789e-05
6.13942e-06
8.94335e-06
2.41014e-05
2.0098e-05
9.59532e-06
8.76464e-06
5.78243e-06
1.22058e-05
2.79671e-05
6.55504e-05
1.7313e-05
1.86842e-05
6.90194e-05
0.000304446
9.27402e-06
3.12979e-06
2.96596e-05
8.47628e-06
4.19111e-06
6.07062e-05
0.00017696
0.000160768
0.000151892
0.000463113
7.11663e-05
3.45998e-05
5.81806e-05
3.07068e-05
2.59296e-06
7.66168e-06
0.000326016
0.000568209
0.000556869
0.000496054
0.000389749
0.00011245
0.000106359
0.000135071
3.27692e-06
6.80553e-06
0.000296166
0.000605873
0.000599291
0.000504511
0.000566008
0.000578973
0.000105565
0.000150476
3.96943e-06
1.12942e-05
6.82943e-05
0.000224791
0.000145668
0.000151459
0.000359433
0.000628712
0.000516236
0.000121446
6.09113e-06
9.13772e-06
9.74113e-06
1.08819e-05
4.13815e-05
0.000397992
0.000173765
0.000672066
0.00070263
7.40679e-05
1.06435e-05
1.05424e-05
1.0882e-05
1.58323e-05
0.000144849
0.000464871
0.000463065
0.000295502
0.000452213
0.00016736
1.80899e-05
1.25573e-05
1.53322e-05
2.39586e-05
0.000126836
0.000114105
0.000442668
9.24085e-05
0.0005663
0.000754633
0.989853
1
1
1
1
1
1
1
1
1
0.993995
1
0.999999
1
1
1
1
1
1
1
0.99717
0.999978
0.999999
0.999996
0.999999
1
0.999931
0.999999
1
1
0.99193
0.999999
0.999999
0.999999
0.999989
0.999815
0.998899
0.999999
1
1
0.99009
0.99972
0.999991
0.99994
0.999992
0.995349
0.998762
0.999999
0.999882
0.999679
0.990085
0.999624
0.999359
0.998308
0.996659
0.995165
0.999055
0.999999
0.99972
0.995475
0.992618
0.999594
0.9998
0.999497
0.9979
0.996338
0.999518
0.999981
0.999748
0.995443
0.998935
0.999688
0.999772
0.999799
0.999955
0.999714
0.977361
0.903868
0.768021
0.607764
0.983537
0.9689
0.902603
0.784091
0.647884
0.508656
0.303814
0.156265
0.0411114
0.00223671
0.36851
0.301043
0.184445
0.0909063
0.0277542
1.92546e-05
9.84037e-06
6.11417e-06
7.04276e-06
8.18876e-06
1.62351e-06
2.44051e-06
3.30674e-06
6.58318e-06
1.12077e-05
9.48491e-06
3.95498e-06
5.80605e-06
6.89959e-06
8.13118e-06
7.14119e-06
8.10595e-06
8.1842e-05
0.00010681
4.15696e-05
4.60463e-05
7.58268e-05
2.14736e-05
6.91217e-06
7.59571e-06
2.76546e-05
1.4039e-05
0.000112167
0.000165122
0.000167937
0.00039355
6.03667e-05
1.24364e-05
7.80798e-06
8.16895e-06
1.49278e-05
8.4793e-06
1.6825e-05
3.82856e-05
0.000179229
0.000449531
0.000112736
1.30385e-05
9.75936e-06
8.31791e-06
3.27705e-06
1.13917e-05
3.95217e-05
6.85053e-05
0.000269684
0.000463845
0.000487643
5.2218e-05
5.93778e-05
8.6775e-06
4.3944e-06
8.99205e-06
3.25061e-05
8.80334e-05
0.000161172
0.00037667
0.000514385
0.000383116
8.1153e-05
8.68456e-05
1.73022e-05
8.88897e-06
7.97706e-06
9.36595e-06
2.22748e-05
0.000143752
0.000265183
0.000616197
0.000458317
0.000183952
4.31603e-05
9.20207e-06
8.88896e-06
1.34492e-05
0.000227584
0.000470326
0.000346384
0.000626004
0.000672066
5.26525e-05
3.15567e-05
1.1131e-05
4.64416e-05
0.000127277
0.000470326
0.000472041
0.00047203
0.000433694
0.000402864
3.1929e-05
2.92788e-05
7.18976e-05
9.00246e-05
0.000249923
0.000462398
0.000470326
0.00047203
9.87657e-05
0.000113389
0.00025848
0.98846
0.998586
1
1
1
1
1
1
1
1
0.988466
1
1
1
1
1
1
0.999999
1
1
0.988475
1
1
1
1
1
1
0.999998
1
1
0.991046
1
0.999998
1
0.999975
1
0.999694
1
0.999999
1
0.990523
0.998747
0.998619
0.999279
0.999998
0.997156
0.99688
0.999999
0.999826
0.999311
0.990074
0.997597
0.996616
0.996621
0.999023
0.995181
0.996649
0.999999
0.999742
0.994809
0.990427
0.998766
0.998791
0.998881
0.999431
0.997365
0.998979
0.999982
0.999765
0.995127
0.998961
0.999142
0.999588
0.999958
0.999964
0.999909
0.984718
0.916523
0.778826
0.615114
0.992568
0.982023
0.923911
0.807492
0.658901
0.519441
0.322889
0.163176
0.0414901
0.00287749
0.445145
0.356909
0.212657
0.0983636
0.0368585
3.11405e-05
1.77908e-05
9.0219e-06
8.62528e-06
8.21779e-06
1.61468e-06
2.06113e-06
3.53745e-06
1.11219e-05
1.85285e-05
1.75206e-05
1.14516e-05
6.96903e-06
8.15765e-06
8.18876e-06
2.06113e-06
2.07968e-05
0.000117526
0.000140725
8.09909e-05
0.000125733
0.00013421
2.98675e-05
7.45718e-06
8.16897e-06
8.29719e-06
4.93892e-05
0.000162704
0.000162704
0.000167225
0.000114887
9.69705e-05
1.12109e-05
8.23986e-06
8.27327e-06
4.82744e-06
3.00078e-06
5.63276e-05
0.000136705
8.41404e-05
0.000118989
3.70159e-05
8.79282e-06
8.38879e-06
8.34421e-06
4.69423e-06
4.83374e-06
6.35136e-06
8.52056e-06
4.33735e-05
0.00027198
0.000173761
1.52265e-05
5.21164e-05
8.38881e-06
3.7422e-05
9.78461e-06
5.94576e-06
7.26588e-06
1.18845e-05
9.34365e-05
0.000203857
0.000118327
0.000110994
2.70103e-05
0.000164178
7.97706e-06
7.26588e-06
7.97706e-06
9.80063e-06
1.49695e-05
5.86959e-05
0.000324635
0.000224068
0.000176458
0.000210526
1.13888e-05
7.97705e-06
8.58863e-06
5.78981e-05
0.000231547
0.000111389
0.000249351
0.000270746
5.61606e-05
0.000108457
2.51943e-05
9.4442e-05
0.000159278
0.000386738
0.000470326
0.000357399
9.22991e-05
0.000257677
3.02255e-05
5.25106e-05
0.000304832
0.000447831
0.000453278
0.000457347
0.000458546
0.000454571
0.000167035
0.000266912
2.87587e-05
0.999792
1
1
1
1
1
1
1
1
1
1
0.999994
0.999997
1
1
1
1
1
1
1
1
0.999999
1
1
0.999997
0.999999
0.999984
1
1
1
1
0.999976
0.999863
0.999914
0.999835
0.999672
0.999939
1
1
1
0.999334
0.992562
0.992527
0.998302
1
0.999349
0.999725
1
0.999988
0.999997
0.998481
0.991464
0.991618
0.998181
0.999999
0.999833
0.999835
1
0.999988
0.999979
0.999274
0.99466
0.997631
0.999831
0.999993
0.999991
0.999976
0.999984
0.999945
0.99903
0.999427
0.998971
0.999211
0.999871
0.999969
0.99799
0.959601
0.876747
0.729156
0.571446
0.987889
0.975758
0.903581
0.769068
0.614976
0.459183
0.266893
0.125763
0.018874
8.32735e-06
0.404626
0.323795
0.188068
0.0857855
0.0311125
2.33379e-05
1.61468e-05
1.12357e-05
8.3273e-06
8.27551e-06
1.87267e-06
1.95466e-06
2.56943e-06
6.85445e-06
1.93516e-05
1.21792e-05
1.16846e-05
8.15048e-06
8.2836e-06
8.21778e-06
1.95465e-06
2.47988e-06
6.20435e-05
0.000151189
0.000142138
0.000128425
0.000121607
3.96151e-05
2.16411e-05
8.25713e-06
2.28813e-06
2.77263e-06
6.61427e-05
0.000162704
0.000158211
2.33833e-05
4.6614e-05
4.18832e-05
1.26871e-05
8.32805e-06
2.83633e-06
2.76997e-06
2.57491e-06
1.2425e-05
0.000134169
1.17259e-05
9.20298e-06
8.69896e-06
8.42546e-06
8.38885e-06
1.09504e-05
2.94254e-06
2.73414e-06
8.33973e-06
2.77551e-05
5.34938e-05
1.04433e-05
9.20298e-06
1.74728e-05
8.4254e-06
0.000208817
1.31813e-05
3.86813e-06
3.22831e-05
3.61597e-05
7.30037e-06
5.5401e-06
9.39614e-06
0.000115911
8.6319e-06
0.000216953
0.000148963
5.68772e-06
1.17572e-05
2.25337e-05
6.20546e-06
3.17649e-06
1.1837e-05
5.49573e-05
0.000110963
0.000214102
8.33563e-05
7.11799e-06
5.33174e-06
4.49114e-06
4.2134e-06
2.51048e-06
4.64327e-06
2.49411e-05
0.000114858
3.75655e-05
2.5411e-05
6.92127e-05
4.24896e-05
2.4317e-05
1.70884e-05
2.86709e-06
2.36187e-06
1.28775e-05
4.23047e-05
1.89447e-05
0.000269435
0.00043581
0.000419181
0.000376319
0.000307234
7.69659e-05
3.06038e-06
7.24225e-05
2.87877e-05
1
1
1
1
1
1
1
1
1
1
1
0.999997
0.999996
1
1
1
1
1
1
1
1
1
0.999974
0.999998
0.999998
0.999998
0.999999
1
1
1
0.999994
0.999936
0.9996
1
0.999998
0.999988
1
1
1
1
0.999053
0.994267
0.999675
0.999999
1
1
1
1
1
1
0.999153
0.991541
0.999961
0.999999
1
0.999999
0.999999
1
1
0.999997
0.999695
0.998306
0.999945
0.999998
0.999999
0.999998
0.999995
0.999989
0.999983
0.995633
0.999747
0.999012
0.999876
0.999942
0.998418
0.985327
0.915444
0.809076
0.637949
0.503431
0.954936
0.926354
0.821622
0.675161
0.529518
0.359596
0.185885
0.0664115
1.07779e-05
9.26081e-06
0.272353
0.215126
0.119758
0.0514125
0.010275
1.21793e-05
1.20893e-05
1.08071e-05
9.26236e-06
8.32773e-06
1.82497e-06
1.87267e-06
2.2427e-06
4.99896e-06
1.17044e-05
7.21912e-06
1.27984e-05
1.23438e-05
1.5696e-05
8.27551e-06
1.87267e-06
2.19585e-06
3.93471e-05
0.000144509
0.000125845
4.15468e-05
1.45729e-05
1.74501e-05
6.74657e-05
1.29146e-05
2.19585e-06
2.133e-06
6.03436e-06
0.000100326
0.000152115
6.26758e-05
9.56205e-06
1.06603e-05
5.477e-05
8.88979e-06
5.46654e-06
2.68618e-06
2.36785e-06
2.57491e-06
3.90301e-05
0.000145303
6.45139e-05
1.624e-05
8.62192e-06
8.42526e-06
0.000148601
2.73414e-06
2.59525e-06
2.73414e-06
4.07221e-06
4.73768e-05
8.50802e-05
6.88195e-05
9.98431e-06
8.61867e-06
0.00021216
0.000109211
2.73414e-06
3.69701e-06
9.3077e-06
5.5401e-06
3.1765e-06
5.5401e-06
5.74852e-05
8.86034e-06
0.000214555
0.000201988
3.25951e-05
4.01401e-06
1.12868e-05
6.11935e-06
2.38482e-06
5.71857e-06
8.26781e-05
6.37184e-05
6.57734e-05
0.00010151
5.00436e-05
4.3788e-06
4.38115e-06
2.8356e-06
2.2219e-06
2.36188e-06
5.36463e-05
0.000114875
9.70951e-06
1.50696e-05
1.2585e-05
4.45133e-06
2.52123e-06
2.24815e-06
1.96648e-06
1.90833e-06
1.42259e-05
0.000114663
6.372e-06
1.87976e-05
0.000168669
0.000151326
5.39914e-05
2.14665e-06
1.73764e-06
1.67606e-06
3.92646e-06
4.15718e-05
1
1
1
1
1
1
1
1
1
1
1
1
0.999999
1
1
1
1
1
1
1
1
1
0.999998
1
1
1
1
1
1
1
0.999998
0.999978
0.999999
1
1
1
1
1
1
1
0.999743
0.999432
0.999997
1
1
1
1
1
1
1
0.999772
0.99914
0.999989
1
1
1
1
1
1
1
0.999808
0.999787
0.999988
0.999997
0.999998
0.999998
0.999999
0.999995
0.999373
0.991383
0.999744
0.999689
0.999845
0.996418
0.98473
0.945866
0.842562
0.710913
0.564782
0.451473
0.870199
0.810703
0.683294
0.538677
0.396391
0.243279
0.112794
0.0214771
4.30753e-05
1.04601e-05
0.10708
0.0710603
0.0172095
7.23791e-06
1.2279e-05
7.21914e-06
8.65067e-06
1.07338e-05
1.046e-05
9.26251e-06
1.81053e-06
1.82497e-06
1.97834e-06
3.04859e-06
5.82127e-06
6.07292e-06
6.59297e-06
9.54409e-06
1.16553e-05
6.31808e-05
1.82497e-06
1.93755e-06
1.56468e-05
6.64221e-05
8.22392e-05
7.21918e-06
7.15743e-06
8.27674e-06
6.85588e-05
0.000183862
1.9375e-06
1.95048e-06
2.133e-06
5.89386e-05
0.000143371
5.1676e-05
8.82235e-06
9.4664e-06
3.0876e-05
6.83951e-05
5.18682e-05
2.3773e-06
2.24167e-06
2.36785e-06
2.38906e-05
0.000150654
0.000153879
0.000127141
4.0615e-05
8.62508e-06
0.000204887
3.43469e-05
2.49241e-06
3.1141e-06
3.51619e-06
6.085e-06
0.000150476
0.000150924
6.93023e-05
8.86453e-06
0.000207249
0.000201144
7.64116e-05
1.53269e-05
6.94418e-06
6.92949e-06
4.39371e-06
2.74108e-05
2.85474e-05
9.49509e-06
7.74657e-05
0.000195398
0.000180932
6.4166e-05
1.34456e-05
8.25696e-06
2.2219e-06
2.38482e-06
4.9631e-05
9.42758e-06
7.84738e-05
4.00651e-05
1.67272e-05
9.66349e-05
7.0104e-05
1.1219e-05
1.96649e-06
8.00016e-06
5.08892e-05
9.93176e-05
8.33281e-05
3.05387e-05
1.33695e-05
2.72455e-05
4.7675e-05
1.1116e-05
1.7377e-06
3.37212e-06
3.65626e-05
9.64759e-05
5.75106e-06
7.10411e-06
5.74367e-06
4.70301e-06
2.8346e-06
2.53403e-06
1.67608e-06
1.63181e-06
2.66381e-05
1.69194e-05
1
1
1
1
1
1
1
1
1
1
1
1
1
1
1
1
1
1
1
1
1
0.999999
1
1
1
1
1
1
1
1
1
1
0.999995
1
1
1
1
1
1
1
0.999995
0.999943
0.999998
1
1
1
1
1
1
1
0.999263
0.998989
0.999989
1
1
1
1
1
1
1
0.999744
0.999702
0.99998
0.999993
0.999996
0.999999
1
1
0.99921
0.991909
0.99968
0.999367
0.991525
0.966535
0.931703
0.870996
0.766215
0.673623
0.54037
0.424355
0.689894
0.601352
0.460743
0.325833
0.21964
0.131683
0.066785
0.015145
3.67536e-05
2.41917e-05
1.81029e-06
1.82959e-06
2.05803e-06
3.60709e-06
6.30508e-06
6.07274e-06
6.58848e-06
1.41634e-05
2.66495e-05
1.04612e-05
1.81052e-06
1.80962e-06
1.8296e-06
2.05801e-06
3.60707e-06
5.51047e-06
6.07229e-06
6.59068e-06
3.72388e-05
0.000131253
1.81933e-06
1.8296e-06
3.15944e-06
3.54156e-05
4.47541e-05
9.51154e-06
6.59056e-06
7.15793e-06
7.70962e-05
0.000185068
1.83029e-06
1.90423e-06
1.95048e-06
6.75588e-06
6.87432e-05
8.43726e-05
2.05316e-05
1.74816e-05
2.47012e-05
0.000185068
5.17315e-05
1.95048e-06
2.07736e-06
1.15951e-05
1.65518e-05
8.73343e-05
0.000154103
0.000154103
0.000152022
1.4993e-05
0.000183299
4.27113e-05
2.31318e-06
1.05553e-05
6.39795e-05
1.47244e-05
0.000117023
0.000152515
0.000102162
1.01089e-05
0.000115604
0.000145343
4.32619e-05
1.18996e-05
5.53973e-05
3.96029e-05
9.99232e-06
0.000150924
3.31016e-05
9.42758e-06
3.27658e-05
5.80862e-05
6.45953e-05
6.30207e-05
0.000102471
7.31142e-05
1.0424e-05
5.2577e-05
2.05398e-05
8.00409e-06
7.29318e-05
5.54166e-05
8.06026e-05
0.000145294
0.000145294
0.000104075
4.52848e-06
2.4248e-05
2.16183e-05
1.4403e-05
0.000247271
0.00015998
3.56761e-05
5.44842e-05
9.97674e-05
5.53652e-05
1.95423e-06
6.45001e-06
2.63146e-05
1.51687e-05
7.83208e-06
1.02415e-05
5.7443e-06
4.63846e-06
3.42055e-06
2.31618e-06
1.69341e-06
1.67831e-06
2.83499e-05
8.93012e-06
1
1
1
1
1
1
1
1
1
1
1
1
1
1
1
1
1
1
1
1
1
1
0.999999
1
1
1
1
0.999999
1
1
1
1
0.999994
1
1
1
0.999997
0.999996
1
1
0.999732
0.999833
0.999998
1
1
1
0.999997
1
1
1
0.996344
0.997633
0.999999
1
1
1
1
1
1
1
0.998285
0.99967
0.999977
0.999987
0.999995
1
1
1
1
1
0.988473
0.974914
0.938828
0.883273
0.820487
0.778692
0.716846
0.649329
0.533153
0.417495
0.418116
0.342486
0.235174
0.138559
0.0718949
0.0495971
0.0394252
0.0203308
0.00303195
0.000736092
1.81052e-06
1.82768e-06
1.93206e-06
2.63934e-06
4.60893e-06
6.82812e-06
1.15099e-05
9.74503e-05
9.17953e-05
2.66428e-05
1.80936e-06
1.81053e-06
1.82768e-06
1.93204e-06
3.85089e-06
6.09093e-06
6.53056e-06
1.41498e-05
9.03354e-05
9.90835e-05
1.81036e-06
1.82759e-06
2.11158e-06
2.11108e-05
4.58729e-05
1.38665e-05
7.15795e-06
8.27684e-06
0.000160394
0.000176432
1.84059e-06
1.893e-06
1.69517e-05
9.85238e-06
6.01956e-06
8.66356e-05
0.000148017
7.41048e-05
3.47578e-05
0.000182633
1.32753e-05
1.95927e-06
2.09624e-06
6.92811e-05
3.08982e-05
1.47436e-05
0.000153958
0.000152377
9.61865e-05
0.000169441
3.85697e-05
2.66965e-06
2.21433e-06
9.16135e-05
0.000147584
8.0643e-05
2.04613e-05
0.000111457
4.93452e-05
7.45741e-05
2.3969e-05
7.33022e-06
2.91326e-06
6.46065e-05
0.000150573
0.000129514
1.67649e-05
3.72784e-05
2.04713e-05
2.23139e-05
2.97012e-05
1.17472e-05
6.58509e-06
8.34919e-05
0.000150366
0.000143254
1.5998e-05
2.89248e-05
1.05277e-05
5.63016e-06
0.000172546
2.55083e-05
4.44726e-05
0.000144562
0.000147727
7.06508e-05
7.34941e-06
1.36191e-05
5.63035e-06
4.56578e-06
0.000271967
9.87592e-05
1.76881e-05
5.08053e-05
4.00017e-05
7.63874e-06
1.39228e-05
2.4794e-05
5.35849e-06
3.82381e-06
3.4563e-05
1.49719e-05
7.02277e-06
4.25052e-06
3.03328e-06
6.06416e-06
2.46094e-05
4.24676e-05
9.77798e-06
3.40983e-06
1
1
1
1
1
1
1
1
1
1
1
1
1
1
1
1
1
1
1
1
1
1
1
1
1
1
0.999999
0.999996
0.999998
1
0.999983
0.999983
1
1
1
1
0.999988
0.999987
0.999999
1
0.999518
0.999923
1
1
1
0.999997
0.999989
1
1
1
0.999154
0.999967
1
1
1
1
1
1
1
1
0.999516
0.999941
0.999984
0.999991
1
1
1
1
1
1