/*--------------------------------*- C++ -*----------------------------------*\
| =========                 |                                                 |
| \\      /  F ield         | OpenFOAM: The Open Source CFD Toolbox           |
|  \\    /   O peration     | Version:  2312                                  |
|   \\  /    A nd           | Website:  www.openfoam.com                      |
|    \\/     M anipulation  |                                                 |
\*---------------------------------------------------------------------------*/
FoamFile
{
    version     2.0;
    format      ascii;
    arch        "LSB;label=32;scalar=64";
    class       volVectorField;
    location    "0.945";
    object      U;
}
// * * * * * * * * * * * * * * * * * * * * * * * * * * * * * * * * * * * * * //

dimensions      [0 1 -1 0 0 0 0];

internalField   nonuniform List<vector> 
8000
(
(-0.000955573 0.00125664 -0.00518134)
(0.0033225 0.00168078 -0.00497211)
(0.0061871 0.00224198 -0.00460218)
(0.00759613 0.002796 -0.00434533)
(0.00787386 0.00330436 -0.00439401)
(0.00716924 0.0038182 -0.0048781)
(0.00570907 0.00434253 -0.00610503)
(0.0046164 0.00471055 -0.00788522)
(0.00605026 0.00456618 -0.00784931)
(0.00411151 0.00543169 -0.0052055)
(-1.21611e-05 0.00384443 -0.00552409)
(0.00532579 0.00567769 -0.00561464)
(0.00914503 0.00729655 -0.00548609)
(0.0116203 0.0089954 -0.00538755)
(0.0126349 0.0109767 -0.0055847)
(0.0119976 0.0136776 -0.00650258)
(0.00957581 0.0172223 -0.00939058)
(0.00648042 0.0180201 -0.0133897)
(0.00664059 0.0164974 -0.011481)
(0.00532066 0.0190685 -0.00561337)
(0.00171651 0.00504553 -0.00380656)
(0.00779562 0.0086171 -0.00484326)
(0.0114022 0.0120988 -0.00543263)
(0.0140827 0.0158823 -0.00572381)
(0.0157254 0.0203736 -0.00633819)
(0.0161155 0.0266565 -0.0081673)
(0.011818 0.0339433 -0.0117583)
(0.00386179 0.0345993 -0.0144102)
(-0.00151257 0.0212716 -0.00391594)
(0.00258164 0.0293704 0.0010811)
(0.0026304 -0.0016774 0.000444235)
(0.0139499 0.012718 -0.00256403)
(0.0185044 0.0195761 -0.004576)
(0.0210206 0.0244567 -0.00521937)
(0.0232091 0.0309156 -0.00600838)
(0.0248783 0.0410838 -0.00743246)
(0.0159231 0.0532644 -0.00550815)
(-0.00760458 0.0385283 -0.00136155)
(-0.0223438 -0.00378932 0.0219287)
(-0.0092421 0.0235528 0.0118096)
(0.00104308 -0.0206855 -0.00588352)
(0.0165084 0.00075269 -0.00289679)
(0.0251717 0.0188336 -0.00170563)
(0.0308412 0.0299694 -0.000291186)
(0.0382037 0.0404918 0.00123592)
(0.0449487 0.0555689 0.00124728)
(0.0317167 0.0677818 0.00489743)
(0.00411767 0.0415642 0.0103223)
(-0.0193499 -0.0380124 0.0213202)
(-0.0258241 -0.0325527 0.00498768)
(0.000564162 -0.0145066 -0.0252433)
(0.0133456 0.00189185 -0.0206358)
(0.0267143 0.0196495 -0.0165748)
(0.0409161 0.0287218 -0.0149005)
(0.0557895 0.0353164 -0.0108578)
(0.0677142 0.0565132 -0.000521196)
(0.0601215 0.0812555 0.00866968)
(0.0442344 0.0620862 0.0169194)
(0.0286475 0.0286197 -0.0078735)
(-0.00451596 -0.0103191 -0.0292271)
(-0.00551386 0.0133437 -0.0466431)
(0.0174201 0.0226402 -0.0420274)
(0.0418621 0.0329985 -0.0386465)
(0.0693337 0.040978 -0.0406251)
(0.0913288 0.0489803 -0.0422792)
(0.100695 0.0628784 -0.0300031)
(0.0880502 0.0702872 -0.00445749)
(0.0623692 0.0592449 0.00285424)
(0.0437876 0.0798606 -0.0344847)
(0.0191866 0.0658244 -0.0502112)
(-0.0282273 0.0429082 -0.0689921)
(0.0145103 0.0467031 -0.0619965)
(0.0552131 0.0492737 -0.0551021)
(0.0991987 0.0537316 -0.0480871)
(0.135709 0.0641948 -0.0442209)
(0.143148 0.0903957 -0.046162)
(0.117826 0.112592 -0.0357789)
(0.0693215 0.12522 -0.0476221)
(0.0429973 0.158683 -0.0681845)
(0.0355162 0.158151 -0.0435421)
(-0.044373 0.0895888 -0.0777347)
(0.0110808 0.0859478 -0.0661781)
(0.0692048 0.0844904 -0.0494908)
(0.124861 0.0846153 -0.0511314)
(0.161944 0.114652 -0.0736297)
(0.138012 0.193079 -0.0865354)
(0.06829 0.236986 -0.0720641)
(0.0179858 0.249247 -0.0824902)
(0.0116862 0.271917 -0.097385)
(0.0461925 0.269233 -0.0492613)
(-0.0447119 0.220041 -0.0304341)
(0.00686307 0.210608 -0.0312207)
(0.0533459 0.216969 -0.0611145)
(0.0613514 0.229548 -0.0995016)
(0.0526533 0.323757 -0.0992316)
(0.0349227 0.461495 -0.117796)
(-0.00733422 0.515399 -0.129497)
(-0.06504 0.395392 -0.113031)
(-0.0542692 0.357661 -0.125068)
(0.040413 0.316614 -0.0627348)
(-0.0902635 0.144972 0.0482545)
(-0.0690678 0.146848 0.0332994)
(-0.0267979 0.183942 -0.0100091)
(0.00871809 0.266873 -0.0612605)
(0.0178899 0.427746 -0.0635097)
(-0.00426957 0.569602 -0.105657)
(-0.00743382 0.617153 -0.14403)
(0.0383017 0.533927 -0.158088)
(-0.027012 0.131052 -0.165258)
(0.0279134 0.194693 -0.0811458)
(-0.124113 -0.0761711 0.0685083)
(-0.127434 -0.0861201 0.0758704)
(-0.112974 -0.0223696 0.0743185)
(-0.067307 0.1453 0.0234293)
(-0.0228583 0.356972 -0.031474)
(-0.0123331 0.537722 -0.0760643)
(-0.0225774 0.643142 -0.129396)
(0.0354571 0.58173 -0.154149)
(-0.00514822 0.312703 -0.186617)
(0.0111043 0.142281 -0.125739)
(-0.160433 -0.156484 0.0565759)
(-0.20158 -0.186558 0.0636479)
(-0.199126 -0.188341 0.0799998)
(-0.153938 -0.100514 0.0874635)
(-0.0807356 0.130867 0.0537645)
(-0.0178184 0.417676 -0.0168591)
(-0.0159698 0.618443 -0.0749158)
(0.0252555 0.680083 -0.113003)
(-0.0133449 0.538681 -0.163333)
(0.00332407 0.351072 -0.087367)
(-0.275389 -0.203496 0.0313365)
(-0.304012 -0.251107 0.0241687)
(-0.279529 -0.2959 0.0145579)
(-0.228228 -0.287175 0.0291745)
(-0.149497 -0.161666 0.0698652)
(-0.0478733 0.147142 0.0769559)
(0.000529436 0.497257 0.012963)
(0.0329872 0.708535 -0.035025)
(-0.00578935 0.698814 -0.0963619)
(0.00443913 0.429783 -0.00905168)
(-0.385357 -0.213831 -0.00145172)
(-0.371266 -0.285519 -0.0266435)
(-0.333243 -0.352361 -0.0403993)
(-0.291853 -0.389109 -0.0287838)
(-0.227924 -0.350912 0.0157614)
(-0.130144 -0.167688 0.0825371)
(-0.0229582 0.228594 0.0997813)
(0.0342139 0.592844 0.0530186)
(0.0224561 0.718705 -0.00144879)
(0.0332527 0.37773 0.0647414)
(-0.446864 -0.206288 -0.0375062)
(-0.431201 -0.279578 -0.0659382)
(-0.411701 -0.3525 -0.0782731)
(-0.378197 -0.409758 -0.0827833)
(-0.307439 -0.440946 -0.0708956)
(-0.202415 -0.390688 -0.0203421)
(-0.100776 -0.150192 0.0688487)
(-0.00532215 0.31484 0.11009)
(0.0541694 0.578324 0.0822305)
(0.0792536 0.290736 0.0947594)
(-0.507054 -0.16371 -0.0601193)
(-0.514879 -0.219052 -0.0890342)
(-0.514411 -0.274975 -0.113242)
(-0.472499 -0.332122 -0.146362)
(-0.362851 -0.379309 -0.175309)
(-0.220794 -0.386041 -0.165015)
(-0.0990292 -0.310972 -0.0909118)
(-0.0358016 -0.0637491 0.0369413)
(0.0278439 0.280058 0.10589)
(0.0786434 0.213 0.0780434)
(-0.565302 -0.0794028 -0.0674266)
(-0.586487 -0.101374 -0.0989918)
(-0.586508 -0.133912 -0.134633)
(-0.518691 -0.183735 -0.189356)
(-0.374873 -0.239006 -0.235223)
(-0.211 -0.255348 -0.246505)
(-0.0653271 -0.203178 -0.209958)
(0.0231584 -0.123499 -0.116667)
(0.00583945 0.00801304 0.0315419)
(-0.00212317 0.119337 0.0476334)
(-0.593487 0.0250082 -0.0588356)
(-0.604287 0.0282163 -0.0902593)
(-0.580594 0.0109132 -0.115989)
(-0.485613 -0.0384738 -0.156027)
(-0.335985 -0.107846 -0.192022)
(-0.189378 -0.150615 -0.207912)
(-0.0634012 -0.122053 -0.211834)
(0.0391765 -0.0163121 -0.180223)
(0.0774013 0.00936463 -0.061752)
(-0.00754741 0.0364253 0.0392401)
(-0.593469 0.113883 -0.0152592)
(-0.584088 0.128815 -0.058227)
(-0.539275 0.114324 -0.0842038)
(-0.433394 0.0629772 -0.117871)
(-0.289583 -0.0122843 -0.143353)
(-0.157035 -0.0687182 -0.147065)
(-0.063948 -0.0641801 -0.148633)
(0.0136014 0.0277554 -0.14706)
(0.0628254 0.0713456 -0.0735375)
(0.0588414 0.0546303 0.0213049)
(-0.000916914 0.000290178 -0.00955975)
(0.00108206 0.000639145 -0.00931948)
(0.00214035 0.00105466 -0.00887638)
(0.00247185 0.00147229 -0.0087269)
(0.00208022 0.00173537 -0.00903393)
(0.000846325 0.00162118 -0.0100473)
(-0.000354838 0.000443497 -0.0123152)
(0.00150763 -0.00145366 -0.0150082)
(0.00837408 0.000118278 -0.0132391)
(0.00664149 0.00497526 -0.0105208)
(5.70382e-05 -0.000519429 -0.0102185)
(0.00335564 0.00186911 -0.0105755)
(0.00536396 0.00345048 -0.0106119)
(0.00606857 0.00508433 -0.0107613)
(0.00534281 0.0067864 -0.0115234)
(0.00205527 0.0080388 -0.0138295)
(-0.0037079 0.00684744 -0.0178117)
(-0.00579966 -0.00136514 -0.0156801)
(0.00546498 -0.00174947 -0.00586952)
(0.0111109 0.0182447 -0.0115806)
(0.00200872 -0.00222811 -0.00778016)
(0.00422258 0.00132122 -0.0105798)
(0.00520946 0.00520513 -0.011688)
(0.00612958 0.00966781 -0.0126287)
(0.00507095 0.0149838 -0.014822)
(-0.00109132 0.0204473 -0.018316)
(-0.0145364 0.0163817 -0.0139953)
(-0.0228917 -0.0210931 0.0103662)
(-0.0186787 -0.0269541 0.0253391)
(0.0086827 0.0314037 -0.00227207)
(0.00472968 -0.00196277 -0.00122868)
(0.0104793 0.00926533 -0.00840149)
(0.0110071 0.0126045 -0.0126212)
(0.0112206 0.0173861 -0.0152474)
(0.0108971 0.0270023 -0.0185724)
(0.00834197 0.0368676 -0.0169564)
(-0.0099233 0.0247693 0.00405163)
(-0.0165995 -0.0306768 0.0295442)
(-0.0353883 -0.046633 0.0253245)
(-0.00112052 0.028801 0.011666)
(0.0034042 -0.0172627 -0.00451579)
(0.0182204 0.00226881 -0.00599139)
(0.020927 0.0145481 -0.00886569)
(0.0240552 0.0244581 -0.0113145)
(0.0298369 0.0380774 -0.0143484)
(0.0356564 0.0512024 -0.0111248)
(0.0243071 0.0432666 0.0106062)
(0.0325855 -0.00630571 0.0280455)
(-0.0172374 -0.0342478 -0.026435)
(-0.00563342 0.0175309 -0.00819885)
(0.00198335 -0.0173017 -0.030636)
(0.00910167 0.0100747 -0.0278135)
(0.0233031 0.027032 -0.0261511)
(0.0389211 0.0376967 -0.0251986)
(0.0514968 0.0534757 -0.0216665)
(0.0614337 0.0704605 -0.0123003)
(0.0589877 0.0707299 0.00939848)
(0.0743011 0.0435012 0.0178122)
(0.021894 0.0347141 -0.0592109)
(-0.00265594 0.0605429 -0.0538779)
(0.000114363 -0.0145022 -0.0626303)
(0.0115502 -0.0111545 -0.0615847)
(0.0324221 -0.00431311 -0.0588698)
(0.0580661 0.012009 -0.053507)
(0.0759852 0.0411781 -0.0450858)
(0.0863353 0.0710755 -0.0311227)
(0.0836946 0.0773008 -0.0162102)
(0.0896905 0.0840286 -0.0304312)
(0.0426687 0.0994867 -0.0950497)
(0.00808882 0.101401 -0.100701)
(-0.00981797 0.00769064 -0.121244)
(0.0263755 0.0111464 -0.11319)
(0.0603398 0.0120724 -0.111059)
(0.0914632 0.0153873 -0.0992626)
(0.110319 0.0330272 -0.089394)
(0.116317 0.0674357 -0.0955984)
(0.101758 0.10683 -0.0976316)
(0.0967683 0.139122 -0.113414)
(0.0514553 0.160423 -0.137639)
(0.023082 0.168929 -0.104083)
(-0.0471534 -0.0111044 -0.274629)
(0.0106386 -0.00492286 -0.270477)
(0.0628742 0.0138475 -0.248325)
(0.106893 0.0512709 -0.217675)
(0.135286 0.0946472 -0.2024)
(0.139978 0.138291 -0.178493)
(0.111953 0.181022 -0.142248)
(0.103277 0.21102 -0.117667)
(0.0590144 0.246035 -0.0735065)
(0.0283482 0.26848 0.0118326)
(-0.111402 0.146369 -0.110362)
(-0.0639312 0.131819 -0.133307)
(-0.0157718 0.140846 -0.164039)
(0.0212399 0.159855 -0.164319)
(0.0184167 0.205131 -0.153905)
(0.054824 0.273713 -0.148979)
(0.0914491 0.307889 -0.135335)
(0.138132 0.319134 -0.0838273)
(-0.0360885 0.405114 0.0952523)
(0.0446932 0.376462 0.108214)
(-0.190962 0.123432 0.173828)
(-0.164956 0.0590059 0.165143)
(-0.10371 0.0278565 0.144176)
(-0.0415276 0.0691144 0.0984868)
(-0.00468212 0.15413 0.038993)
(0.00550012 0.234939 -0.00472547)
(0.0207052 0.276802 -0.0858876)
(0.0884847 0.323006 -0.112544)
(-0.0279487 0.340113 0.0220765)
(0.036644 -0.0551725 0.053364)
(-0.201841 -0.0996471 0.189139)
(-0.178333 -0.184303 0.189984)
(-0.166228 -0.19097 0.193234)
(-0.120763 -0.107518 0.198406)
(-0.0268491 0.0450427 0.18479)
(0.0474753 0.192133 0.133139)
(0.00222863 0.257685 0.0461899)
(0.00315555 0.307921 -0.116023)
(-0.0418401 0.296363 -0.121612)
(0.00526094 0.103925 -0.111758)
(-0.165487 -0.134087 0.154336)
(-0.190656 -0.207031 0.132209)
(-0.232271 -0.221966 0.13332)
(-0.212176 -0.199006 0.198156)
(-0.107639 -0.0831268 0.248038)
(0.042375 0.14769 0.219471)
(0.0629482 0.346741 0.136352)
(-0.0163663 0.371959 -0.0406476)
(-0.0676215 0.312072 -0.157639)
(-0.0146254 0.180662 -0.103576)
(-0.173451 -0.157574 0.104312)
(-0.224158 -0.183322 0.0507188)
(-0.259187 -0.165956 0.0505273)
(-0.24321 -0.203723 0.116276)
(-0.176947 -0.242598 0.185848)
(-0.0508176 -0.0885033 0.242405)
(0.0940016 0.327606 0.215863)
(0.0487023 0.509095 0.0814747)
(-0.0841345 0.411836 -0.0610113)
(-0.033234 0.24691 -0.0231527)
(-0.208652 -0.115723 0.0319672)
(-0.277614 -0.112305 -0.0140406)
(-0.28184 -0.121417 -0.00256877)
(-0.260973 -0.194442 0.0306254)
(-0.254441 -0.286106 0.0709945)
(-0.196734 -0.232021 0.180374)
(-0.0150072 0.126956 0.282657)
(0.0955395 0.573535 0.194218)
(-0.0604532 0.564642 0.070987)
(-0.0265563 0.308773 0.10079)
(-0.276021 -0.0330749 -0.0282915)
(-0.34293 -0.0667204 -0.0556343)
(-0.364278 -0.141533 -0.0632969)
(-0.380082 -0.230015 -0.0867699)
(-0.375195 -0.282292 -0.0870937)
(-0.316951 -0.28185 0.0243325)
(-0.179551 -0.0878163 0.213921)
(0.0368529 0.448132 0.267635)
(-0.00122095 0.642695 0.182083)
(0.0339403 0.340216 0.178354)
(-0.340286 0.045942 -0.0648452)
(-0.410215 -0.0111474 -0.109488)
(-0.484455 -0.0925798 -0.16295)
(-0.522644 -0.163735 -0.248483)
(-0.479782 -0.223555 -0.310542)
(-0.37221 -0.24332 -0.247805)
(-0.250129 -0.129302 -0.0203791)
(-0.0983589 0.152537 0.217029)
(0.0079566 0.536665 0.242456)
(0.0647544 0.355957 0.183999)
(-0.370166 0.143052 -0.0936632)
(-0.452593 0.11045 -0.162936)
(-0.521665 0.0377654 -0.256211)
(-0.512109 -0.0571319 -0.382593)
(-0.424996 -0.175031 -0.450357)
(-0.326504 -0.229366 -0.409767)
(-0.233864 -0.109124 -0.268669)
(-0.150301 0.142838 0.0316647)
(-0.0542877 0.335621 0.197441)
(0.00298948 0.323423 0.129913)
(-0.377434 0.235241 -0.11033)
(-0.430778 0.231418 -0.185873)
(-0.447734 0.168213 -0.273357)
(-0.379133 0.0590354 -0.376623)
(-0.278091 -0.0901313 -0.405144)
(-0.234145 -0.194376 -0.328489)
(-0.202134 -0.141022 -0.249099)
(-0.153057 0.131373 -0.152914)
(-0.118426 0.26104 0.0846913)
(-0.0685123 0.22136 0.0509858)
(-0.387812 0.287919 -0.0991168)
(-0.386338 0.305486 -0.174861)
(-0.349587 0.261914 -0.249246)
(-0.251368 0.169279 -0.331918)
(-0.152857 0.042627 -0.347327)
(-0.140256 -0.094638 -0.229262)
(-0.170949 -0.140716 -0.141258)
(-0.180808 0.10099 -0.150408)
(-0.126086 0.280936 -0.0400328)
(-0.0416176 0.114195 0.0254357)
(-0.0010203 -0.0010605 -0.0101729)
(0.00117898 -0.00051238 -0.0103138)
(0.00236025 -1.87268e-05 -0.0102773)
(0.0027261 0.0004367 -0.0104189)
(0.00224915 0.00073122 -0.0106572)
(0.000692431 0.000396947 -0.0111444)
(-0.000542202 -0.00155356 -0.0118392)
(0.00270736 -0.00419225 -0.0118354)
(0.0101369 -0.0022032 -0.00982751)
(0.00676032 0.00436044 -0.0122305)
(-0.000188261 -0.00548072 -0.011251)
(0.00311857 -0.002809 -0.0121274)
(0.00544636 -8.35375e-05 -0.0125688)
(0.0062005 0.00208511 -0.0130437)
(0.00511036 0.00380201 -0.0137308)
(0.00080682 0.00394161 -0.0148728)
(-0.00572935 -0.00163791 -0.0137059)
(-0.00548269 -0.0139017 -0.00403505)
(0.0115487 -0.00502634 -0.000288915)
(0.0124817 0.017002 -0.0159962)
(0.000911122 -0.0095837 -0.0107838)
(0.00322093 -0.0059615 -0.0138139)
(0.00504308 -0.00151663 -0.0152474)
(0.00579786 0.00382192 -0.0162356)
(0.0035377 0.00926871 -0.0178897)
(-0.00681763 0.0118632 -0.0180162)
(-0.0214841 -0.00140407 -0.00557915)
(-0.017458 -0.0369824 0.0190197)
(-0.00638126 -0.0223303 0.0245495)
(0.0156834 0.0335824 -0.0159539)
(0.00316784 -0.00726564 -0.00714376)
(0.0066613 -0.00201356 -0.0127288)
(0.00819589 0.0027005 -0.0171219)
(0.00938929 0.00971109 -0.0210237)
(0.00724703 0.0195857 -0.0243361)
(-0.00314165 0.024701 -0.0199769)
(-0.0151352 0.00174407 -0.00202003)
(-0.000803377 -0.0516657 0.0179246)
(-0.0227302 -0.0268716 0.0132111)
(0.00727346 0.0496656 -0.0122872)
(0.00465069 -0.0119717 -0.00828619)
(0.0144937 -0.00420543 -0.0155781)
(0.0156731 0.00165679 -0.0192805)
(0.0177084 0.0108507 -0.0239051)
(0.02099 0.0245502 -0.0287957)
(0.0208568 0.0338105 -0.0249636)
(0.0175691 0.0119487 -0.0120416)
(0.0355738 -0.0287443 -0.0113523)
(-0.0163181 -0.000820865 -0.0405402)
(-0.00276446 0.0614585 -0.0334864)
(0.00331773 -0.0112233 -0.030055)
(0.0138015 0.00647793 -0.0297809)
(0.0231383 0.0203641 -0.0291558)
(0.0333847 0.0287321 -0.0310806)
(0.0435778 0.0402864 -0.0339811)
(0.0479868 0.0497271 -0.0306456)
(0.050152 0.0359935 -0.0194918)
(0.0537183 0.0209312 -0.0357484)
(-0.00327444 0.041745 -0.0782031)
(-0.00770862 0.0891458 -0.0708758)
(0.0026909 -0.0231933 -0.078653)
(0.0144922 -0.0166625 -0.0736755)
(0.0256763 -0.00980944 -0.072704)
(0.0421053 0.00149519 -0.0725961)
(0.0587094 0.0235483 -0.0646517)
(0.070212 0.0528413 -0.0554051)
(0.072921 0.0690464 -0.0552796)
(0.0645788 0.0809462 -0.0823885)
(0.0111817 0.0970251 -0.122845)
(0.00419513 0.0996936 -0.132971)
(0.00149992 -0.0312951 -0.150661)
(0.0375714 -0.0209409 -0.144614)
(0.0683749 -0.0120986 -0.145278)
(0.0945918 -0.00621212 -0.147782)
(0.108946 0.00609406 -0.145458)
(0.106653 0.0315681 -0.137315)
(0.0900986 0.0693349 -0.133269)
(0.0780212 0.0910913 -0.152025)
(0.022276 0.0981553 -0.183618)
(0.0267275 0.111279 -0.17069)
(-0.0691529 -0.133265 -0.269926)
(-0.00586448 -0.122068 -0.261402)
(0.0472545 -0.0956801 -0.254967)
(0.10853 -0.0382814 -0.261278)
(0.157861 0.0288038 -0.267079)
(0.176806 0.0852294 -0.245025)
(0.14726 0.119306 -0.190808)
(0.115381 0.145696 -0.151388)
(0.0565111 0.194085 -0.0920532)
(0.032711 0.240353 -0.00783236)
(-0.211848 -0.130804 -0.0765163)
(-0.189911 -0.124526 -0.0408891)
(-0.173491 -0.0552059 0.00435283)
(-0.134623 0.021509 0.00562197)
(-0.0989907 0.0754602 -0.0245787)
(0.0616985 0.164455 -0.145509)
(0.110287 0.231572 -0.137039)
(0.101878 0.270263 -0.0704233)
(-0.0868904 0.321694 0.107584)
(-0.00466771 0.204391 0.267068)
(-0.270928 0.0767206 0.277784)
(-0.22915 0.0156581 0.270762)
(-0.150684 -0.0674952 0.241502)
(-0.0737729 -0.137045 0.185001)
(-0.0270028 -0.179717 0.107996)
(0.00208356 -0.13847 0.0062883)
(0.0346359 -0.0253739 -0.0831031)
(0.0455546 0.167695 -0.0750816)
(-0.068114 0.237313 -0.0435689)
(0.0328415 0.00889263 -0.0974744)
(-0.245611 -0.013358 0.27845)
(-0.176102 -0.103756 0.24556)
(-0.121526 -0.172958 0.214821)
(-0.0766438 -0.211334 0.177734)
(-0.0313205 -0.189209 0.13375)
(0.0249063 -0.123718 0.0738768)
(0.0678471 -0.0451625 -0.0406312)
(0.0657853 0.0752131 -0.124017)
(0.0365266 0.159392 -0.132499)
(0.0297908 0.0680996 -0.148404)
(-0.193497 0.046085 0.191561)
(-0.149494 -0.0409555 0.150925)
(-0.129603 -0.132048 0.112567)
(-0.11635 -0.179961 0.085599)
(-0.0905161 -0.160194 0.133506)
(0.0161507 -0.110379 0.176659)
(0.114311 -0.00612578 0.123387)
(0.13242 0.106126 -0.0492012)
(0.00610126 0.129898 -0.214231)
(-0.0140055 0.0504092 -0.260695)
(-0.157129 0.0761949 0.0959023)
(-0.112796 -0.0287876 0.0542228)
(-0.118067 -0.107666 -0.00520249)
(-0.135782 -0.0922684 -0.0264053)
(-0.12274 -0.0990044 0.100513)
(-0.016585 -0.143076 0.209881)
(0.119321 -0.00935734 0.254472)
(0.157219 0.200072 0.101346)
(0.0218468 0.18034 -0.159461)
(-0.0104774 0.0323255 -0.20094)
(-0.138723 0.0998187 0.00894624)
(-0.112665 -0.0384204 -0.0190104)
(-0.184349 -0.0607244 -0.0759239)
(-0.203085 0.00269101 -0.0255499)
(-0.15451 -0.0535651 0.0658976)
(-0.127658 -0.171351 0.114045)
(-0.034386 -0.0964088 0.250281)
(0.14749 0.276259 0.229737)
(0.0325931 0.314255 0.0121205)
(-0.00664726 0.144402 -0.0504664)
(-0.126057 0.0957763 -0.0418739)
(-0.176449 0.0120331 -0.0574634)
(-0.291382 0.0264547 -0.062256)
(-0.3273 -0.0315087 -0.0649087)
(-0.34387 -0.116049 -0.136609)
(-0.316139 -0.161908 -0.101974)
(-0.186557 -0.0886679 0.119946)
(0.0462139 0.241493 0.310111)
(0.0371084 0.431917 0.179978)
(0.0162011 0.244884 0.0975115)
(-0.109408 0.126197 -0.0563672)
(-0.279202 0.112669 -0.100467)
(-0.440569 0.0761403 -0.150961)
(-0.516665 -0.0149794 -0.270549)
(-0.506056 -0.113764 -0.382381)
(-0.415901 -0.171323 -0.371783)
(-0.27599 -0.080837 -0.18105)
(-0.0900078 0.180837 0.212667)
(0.0306823 0.473163 0.262527)
(0.0313839 0.331538 0.157289)
(-0.074447 0.197768 -0.0634785)
(-0.280648 0.259637 -0.154088)
(-0.414583 0.2028 -0.285866)
(-0.405599 0.0540393 -0.473354)
(-0.355573 -0.132654 -0.549449)
(-0.325013 -0.256428 -0.485528)
(-0.267348 -0.177112 -0.366666)
(-0.146159 0.184596 -0.112485)
(-0.0292434 0.449412 0.2317)
(0.00634539 0.37706 0.115653)
(-0.0484903 0.285867 -0.0770776)
(-0.209648 0.373181 -0.191084)
(-0.283513 0.297695 -0.352904)
(-0.203653 0.0982173 -0.522973)
(-0.147708 -0.0894284 -0.540126)
(-0.206782 -0.215634 -0.38412)
(-0.251327 -0.210945 -0.235476)
(-0.217082 0.13087 -0.203761)
(-0.0921052 0.449617 0.0825971)
(-0.0302398 0.338508 0.0526822)
(-0.064261 0.362477 -0.0951947)
(-0.134364 0.42792 -0.206006)
(-0.134558 0.346921 -0.34978)
(-0.0315666 0.143864 -0.477948)
(-0.012915 -0.00335839 -0.490017)
(-0.12023 -0.0988606 -0.289748)
(-0.233223 -0.194421 -0.0980071)
(-0.279647 0.0970608 -0.144671)
(-0.150853 0.430191 -0.0894806)
(-0.0640176 0.255027 0.0139529)
(-0.00122323 -0.00113599 -0.00885781)
(0.00106114 -0.000760234 -0.00950861)
(0.00261096 -0.000269763 -0.0102037)
(0.00319233 0.000160937 -0.0108846)
(0.00297367 0.000442365 -0.0112456)
(0.00184402 0.000219357 -0.0113046)
(0.00100238 -0.000963667 -0.0105868)
(0.00382883 -0.00295516 -0.00903715)
(0.00828452 -0.000920427 -0.00845804)
(0.00499372 0.00346187 -0.0142005)
(-0.000436877 -0.00650811 -0.00991475)
(0.00252426 -0.00474309 -0.0113099)
(0.00536287 -0.00212816 -0.0125459)
(0.0066335 0.000223819 -0.013642)
(0.00611581 0.00191101 -0.0143617)
(0.00347568 0.00218461 -0.0144472)
(-9.66557e-05 -0.00148395 -0.0116186)
(0.00311073 -0.00725972 -0.00409488)
(0.0136494 0.00104031 -0.00527121)
(0.00843299 0.0136124 -0.0194492)
(0.000556364 -0.0120628 -0.0119685)
(0.0030904 -0.00981277 -0.0141671)
(0.00597589 -0.00538124 -0.0160427)
(0.00713013 -6.62637e-05 -0.0172702)
(0.00550084 0.00480808 -0.017975)
(-0.00130097 0.00674111 -0.0165899)
(-0.00982645 0.00108351 -0.00509873)
(-0.00496929 -0.0124017 0.01577)
(0.0114649 0.00793474 0.0107972)
(0.0123214 0.0283731 -0.0238603)
(0.00284573 -0.0130033 -0.0144084)
(0.00678489 -0.0112336 -0.0165762)
(0.00932482 -0.00588592 -0.019259)
(0.0106483 0.0023773 -0.0220639)
(0.00788407 0.0106835 -0.0240721)
(-0.00115446 0.0154523 -0.0206741)
(-0.0096406 0.00662676 -0.00411797)
(0.00245584 -0.0176247 0.016013)
(-0.00230249 0.0146536 0.007914)
(0.00731497 0.0460209 -0.0327242)
(0.00468414 -0.0162093 -0.0212309)
(0.013077 -0.0139447 -0.0242658)
(0.0155187 -0.00902107 -0.0270973)
(0.016208 0.00108126 -0.0311056)
(0.0155597 0.013171 -0.0336768)
(0.0122271 0.0209815 -0.0306807)
(0.0104145 0.00913898 -0.0219634)
(0.018581 -0.00678503 -0.0171519)
(-0.00638365 0.0339389 -0.0353832)
(-0.00443525 0.0616936 -0.0563631)
(0.0069752 -0.0184481 -0.0322529)
(0.019008 -0.012561 -0.0336382)
(0.0249387 -0.00053235 -0.0322732)
(0.0287694 0.0123822 -0.0338923)
(0.0320486 0.0225837 -0.0369089)
(0.0320601 0.028561 -0.0372616)
(0.03303 0.0186243 -0.0356858)
(0.02542 0.015437 -0.0490795)
(-0.00336516 0.0599884 -0.0776095)
(-0.0128744 0.071139 -0.0903554)
(0.00734382 -0.0357019 -0.065987)
(0.0207224 -0.0285954 -0.062278)
(0.0275047 -0.0171172 -0.0599457)
(0.0343923 -0.00124208 -0.0595814)
(0.0429353 0.0157092 -0.0558514)
(0.0489222 0.0343264 -0.0545544)
(0.0458574 0.0487401 -0.0648699)
(0.0316071 0.058678 -0.0925593)
(0.00267982 0.0917101 -0.1235)
(0.00811792 0.0656152 -0.150602)
(0.00908032 -0.0764623 -0.115634)
(0.0370517 -0.065263 -0.10908)
(0.0619295 -0.0495557 -0.109721)
(0.0849869 -0.0331648 -0.116827)
(0.098252 -0.0131565 -0.125771)
(0.0911161 0.00691933 -0.128121)
(0.0707509 0.0238265 -0.129259)
(0.051165 0.0241005 -0.154168)
(0.00616221 0.0370837 -0.198592)
(0.0270404 0.048664 -0.195173)
(-0.0252033 -0.183752 -0.235274)
(0.0314322 -0.163798 -0.232737)
(0.0870109 -0.142199 -0.240124)
(0.144849 -0.10819 -0.246014)
(0.190391 -0.047142 -0.25555)
(0.22678 0.0303599 -0.26968)
(0.209839 0.0643585 -0.232045)
(0.172681 0.0816077 -0.172523)
(0.14844 0.147528 -0.0331371)
(0.0797298 0.224589 0.175062)
(-0.139084 -0.318314 -0.276712)
(-0.0452844 -0.290057 -0.297071)
(0.0145004 -0.235459 -0.272482)
(0.0446451 -0.158115 -0.184923)
(-0.0113726 -0.0605151 -0.0429814)
(0.12713 0.0851236 -0.147063)
(0.095277 0.182345 -0.0704542)
(0.0097412 0.234201 0.0839503)
(-0.0971287 0.246541 0.126169)
(-0.0158117 0.0837734 0.253798)
(-0.233537 -0.0789044 0.0320664)
(-0.198598 -0.0253301 0.0371623)
(-0.161151 0.0500726 0.0973892)
(-0.111321 0.0508398 0.164092)
(-0.0670268 -0.0329686 0.171946)
(-0.00985065 -0.00868197 0.0877339)
(0.0035464 0.0870338 0.0718847)
(0.00111621 0.134218 0.0808363)
(0.0302114 0.101125 0.0628737)
(0.0688003 0.0313351 0.0468015)
(-0.213195 0.0459168 0.106451)
(-0.180105 0.0608019 0.109224)
(-0.150801 0.0712128 0.144084)
(-0.0924606 0.0414131 0.136835)
(-0.0225062 -0.00484655 0.0545502)
(0.0289188 -0.0293852 -0.00988433)
(0.0220747 0.0105893 -0.0661652)
(0.0227336 0.0358278 -0.0645889)
(0.00153734 0.0358108 -0.0484751)
(0.0123557 0.0785799 -0.105337)
(-0.186681 0.123595 0.0575239)
(-0.160291 0.118736 0.0680566)
(-0.129853 0.0813268 0.0852279)
(-0.0718029 0.0109764 0.0590835)
(-0.0172967 -0.0641337 0.0139359)
(-0.00777891 -0.0804073 -0.0336611)
(0.00935522 -0.0329127 -0.089692)
(0.0866297 -0.0136338 -0.0635096)
(-0.0563279 0.0298645 -0.156265)
(-0.0131641 0.0530587 -0.183075)
(-0.15577 0.137428 -0.00181886)
(-0.121879 0.0933676 0.0292015)
(-0.0911016 0.00630187 0.0266801)
(-0.0585574 -0.0782409 -0.0312513)
(-0.0742122 -0.0194703 -0.051409)
(-0.0757487 -0.0063029 -0.00926957)
(0.0471642 -0.069384 0.128102)
(0.163495 0.0278901 0.10845)
(-0.0127213 -0.00691425 -0.0902397)
(-0.00301599 -0.0691286 -0.154225)
(-0.125942 0.111395 -0.042765)
(-0.102068 0.0394838 -0.000811337)
(-0.135513 -0.0635151 -0.0601698)
(-0.207065 -0.0246 -0.082961)
(-0.156658 0.046568 0.0306018)
(-0.104987 -0.0470778 0.0647732)
(-0.0456402 -0.15456 0.0973376)
(0.143421 0.0085259 0.165349)
(0.0936687 0.0784192 0.019877)
(0.0311224 -0.0131991 -0.0632032)
(-0.116265 0.0885647 -0.0677443)
(-0.15648 0.0569415 -0.0314408)
(-0.280942 0.0530672 -0.0538937)
(-0.321218 0.0375342 -0.0322739)
(-0.320723 -0.0415563 -0.0854556)
(-0.304505 -0.138338 -0.157872)
(-0.196903 -0.162896 -0.107926)
(0.0138672 -0.0164304 0.138947)
(0.111546 0.178171 0.104586)
(0.0314889 0.0812606 0.0295365)
(-0.118135 0.142652 -0.0784758)
(-0.272853 0.15361 -0.0624983)
(-0.440809 0.122364 -0.145126)
(-0.466901 0.00753445 -0.25817)
(-0.438034 -0.128275 -0.365586)
(-0.375256 -0.234532 -0.394249)
(-0.260888 -0.218153 -0.329859)
(-0.0817164 0.0366984 -0.104895)
(0.0888071 0.286641 0.156869)
(0.0208457 0.189881 0.0990669)
(-0.018794 0.22833 -0.0680745)
(-0.202879 0.278647 -0.106608)
(-0.321722 0.228186 -0.312296)
(-0.221838 0.0127045 -0.51746)
(-0.206264 -0.162223 -0.551705)
(-0.257327 -0.308857 -0.46245)
(-0.260008 -0.353745 -0.36851)
(-0.179957 -0.0743956 -0.290213)
(0.0142383 0.315827 0.115123)
(0.0310962 0.217915 0.106047)
(0.108961 0.287087 -0.0573419)
(-0.047714 0.352705 -0.12746)
(-0.121501 0.27234 -0.380623)
(-0.00365121 -0.0432594 -0.551818)
(-0.0499975 -0.172058 -0.520701)
(-0.179691 -0.252612 -0.355237)
(-0.282915 -0.331575 -0.201763)
(-0.27771 -0.0723029 -0.244947)
(-0.0864669 0.334134 -0.10002)
(0.0160352 0.264005 0.0269851)
(0.169754 0.312649 -0.0489417)
(0.0710082 0.378922 -0.15366)
(0.0649284 0.278547 -0.371474)
(0.137414 -0.00712865 -0.501411)
(0.030683 -0.119415 -0.456371)
(-0.161409 -0.171911 -0.231949)
(-0.313775 -0.279761 -0.0564029)
(-0.367905 -0.0599027 -0.168258)
(-0.202396 0.290645 -0.217186)
(-0.0288658 0.309716 -0.0760246)
(-0.00163056 -7.04391e-05 -0.0081811)
(0.000437835 -0.000361267 -0.00897461)
(0.00228697 -0.000209164 -0.0101392)
(0.00313699 4.13585e-05 -0.0110926)
(0.00324665 0.000303696 -0.0115466)
(0.00259977 0.000234675 -0.0115626)
(0.00216332 -0.000274307 -0.0107557)
(0.00365643 -0.00109914 -0.00919653)
(0.00575434 0.000241197 -0.00917852)
(0.00339457 0.00261056 -0.0158201)
(-0.000950599 -0.00459275 -0.00754303)
(0.000992933 -0.00477682 -0.00952252)
(0.00424948 -0.00343723 -0.011861)
(0.00614893 -0.00173513 -0.0136897)
(0.00647888 -0.0001068 -0.0147062)
(0.00524884 0.000821146 -0.0148326)
(0.00381009 7.03122e-05 -0.0130216)
(0.00619232 -0.00184953 -0.00904028)
(0.00952258 0.00247319 -0.0105605)
(0.00492518 0.00859546 -0.0214131)
(0.000156746 -0.00980983 -0.0112338)
(0.00235558 -0.0106749 -0.0125396)
(0.00585741 -0.00819349 -0.014899)
(0.00754165 -0.00368508 -0.0168716)
(0.00719216 0.000693236 -0.017709)
(0.00453494 0.00335291 -0.0167059)
(0.00147579 0.00289775 -0.0102454)
(0.0056524 0.00194586 0.000757454)
(0.0137591 0.0122377 -0.00588289)
(0.00677143 0.0188867 -0.027485)
(0.00297952 -0.0138552 -0.0178532)
(0.00710015 -0.0154676 -0.0167701)
(0.0104871 -0.0126439 -0.0186628)
(0.011724 -0.00570082 -0.0211671)
(0.0101245 0.00142707 -0.0225236)
(0.00553597 0.00684105 -0.0204698)
(0.00153037 0.00954758 -0.0103792)
(0.0058281 0.00957414 0.00366887)
(0.0105005 0.0262702 -0.0118746)
(0.00530678 0.028652 -0.0390637)
(0.00605937 -0.0194842 -0.0278626)
(0.0139472 -0.0216681 -0.0251706)
(0.0169212 -0.0187197 -0.026201)
(0.0171765 -0.00899562 -0.0302988)
(0.0153848 0.00157426 -0.0325062)
(0.0121475 0.0101487 -0.030526)
(0.00879806 0.0139485 -0.0236559)
(0.0101465 0.0178954 -0.0209934)
(0.00301813 0.0408909 -0.0439604)
(-0.0045616 0.0387196 -0.0656035)
(0.0105674 -0.0309453 -0.036914)
(0.0215055 -0.0313854 -0.032487)
(0.0236399 -0.0235553 -0.0302037)
(0.0235428 -0.0105486 -0.0330258)
(0.0233713 0.000316557 -0.0352647)
(0.0222382 0.00865999 -0.0369968)
(0.0178018 0.0142164 -0.0381433)
(0.0159719 0.0245067 -0.0538763)
(-0.00146549 0.0510854 -0.0805475)
(-0.00949238 0.0291579 -0.0947865)
(0.0132005 -0.0509697 -0.0542771)
(0.0251874 -0.0501539 -0.0456796)
(0.0276386 -0.03706 -0.0447008)
(0.0299307 -0.0213516 -0.0490648)
(0.0304941 -0.00645658 -0.0485772)
(0.0316193 0.0119196 -0.049909)
(0.0217227 0.0270378 -0.0587859)
(0.0198132 0.0389523 -0.0819895)
(0.00311668 0.0586183 -0.110257)
(0.0182521 0.0107347 -0.146079)
(0.012492 -0.0997529 -0.077029)
(0.0334442 -0.0889638 -0.0720464)
(0.0513051 -0.0667044 -0.0776657)
(0.0655371 -0.0478788 -0.0910217)
(0.0738228 -0.0307321 -0.10853)
(0.0740396 -0.0114169 -0.119235)
(0.0571282 -0.00774944 -0.119276)
(0.0391985 -0.0179479 -0.140945)
(-6.46957e-05 -0.0201924 -0.18546)
(0.0227046 -0.0109658 -0.183733)
(-0.00335697 -0.170535 -0.151331)
(0.0426076 -0.149906 -0.155556)
(0.0916404 -0.127473 -0.171982)
(0.143271 -0.10364 -0.198742)