/*--------------------------------*- C++ -*----------------------------------*\
| =========                 |                                                 |
| \\      /  F ield         | OpenFOAM: The Open Source CFD Toolbox           |
|  \\    /   O peration     | Version:  2312                                  |
|   \\  /    A nd           | Website:  www.openfoam.com                      |
|    \\/     M anipulation  |                                                 |
\*---------------------------------------------------------------------------*/
FoamFile
{
    version     2.0;
    format      ascii;
    arch        "LSB;label=32;scalar=64";
    class       volScalarField;
    location    "1.07";
    object      alpha.water;
}
// * * * * * * * * * * * * * * * * * * * * * * * * * * * * * * * * * * * * * //

dimensions      [0 0 0 0 0 0 0];

internalField   nonuniform List<scalar> 
8000
(
1
1
1
1
1
1
1
1
1
1
1
1
1
1
1
1
1
1
1
1
1
1
1
1
1
1
1
1
1
1
1
1
1
1
1
1
1
1
1
1
1
1
1
1
1
1
1
1
1
1
0.999994
0.999995
0.999998
0.999999
0.999999
1
1
1
1
1
0.999867
0.999892
0.999938
0.999949
0.999962
0.999979
0.999989
0.999992
0.999989
0.999988
0.983806
0.987072
0.991843
0.994747
0.995735
0.994408
0.98647
0.974832
0.935361
0.902676
0.422345
0.437216
0.471647
0.503504
0.511677
0.482181
0.422428
0.347397
0.253009
0.187759
4.25946e-06
4.27915e-06
4.38471e-06
4.7115e-06
6.47147e-06
1.12798e-05
1.69711e-05
2.28363e-05
8.05521e-05
0.000316761
4.25916e-06
4.29403e-06
4.44265e-06
4.93627e-06
8.58096e-06
1.56086e-05
2.2827e-05
0.000137212
0.000521951
0.000572514
6.90856e-06
6.27013e-06
4.93627e-06
3.63202e-05
0.000304525
0.000427807
0.000448342
0.000752163
0.000747522
0.000698149
5.82283e-05
2.76717e-05
7.7399e-06
0.000300201
0.000757508
0.000757627
0.000757231
0.000755049
0.000757981
0.000769185
6.0321e-05
2.36332e-05
2.57002e-05
0.000499923
0.000757575
0.000757508
0.00075625
0.000748969
0.000747476
0.000766075
6.03993e-05
2.16559e-05
2.94747e-05
0.000526223
0.000757508
0.000756982
0.00075482
0.000742673
0.000564894
0.000500183
6.22679e-05
2.49241e-05
2.34523e-05
0.000400752
0.000756982
0.00075482
0.000749594
0.000472705
2.3868e-05
9.0462e-06
6.37457e-05
6.50447e-05
1.74486e-05
0.00010793
0.000662977
0.000749723
0.000725316
0.000119658
4.11827e-06
3.99758e-06
2.28657e-05
9.1287e-05
1.51931e-05
1.84897e-05
0.000308811
0.000739626
0.000378222
3.45804e-06
3.48049e-06
3.4503e-06
1.51756e-05
9.35211e-05
1.21384e-05
2.11789e-05
0.000201931
0.000202848
9.04542e-06
3.96713e-05
0.000138994
7.79022e-05
2.50321e-05
3.29473e-05
4.78583e-06
2.35996e-05
0.000127824
3.72484e-05
5.91856e-06
5.20885e-05
0.000149276
0.00014967
1
1
1
1
1
1
1
1
1
1
1
1
1
1
1
1
1
1
1
1
1
1
0.999999
1
1
1
1
1
1
1
1
0.999793
0.999933
1
1
1
1
1
1
1
1
0.998871
0.999865
0.999999
1
1
1
1
1
1
0.999997
0.998907
0.999945
0.999997
0.999999
1
1
1
1
1
0.99993
0.998951
0.999891
0.99996
0.999972
0.999984
0.999992
0.999996
0.999996
0.999997
0.99412
0.995036
0.997036
0.997061
0.996313
0.99467
0.987855
0.980894
0.94171
0.910886
0.496725
0.514874
0.53321
0.529917
0.51421
0.481008
0.424726
0.365362
0.268726
0.200559
4.25916e-06
4.25975e-06
4.27915e-06
4.50119e-06
5.83573e-06
9.43428e-06
1.32348e-05
1.72553e-05
0.000107484
0.000146951
4.25593e-06
4.25916e-06
4.29403e-06
4.7063e-06
6.22532e-06
9.66109e-06
3.17936e-05
7.26161e-05
8.3919e-05
0.000109573
4.25593e-06
4.25658e-06
4.43741e-06
3.74753e-05
0.000102971
0.000114987
0.000169943
0.000340385
0.000322748
0.000253834
4.24748e-06
4.25491e-06
4.65297e-06
0.000171927
0.000702365
0.000488109
0.000101291
9.38467e-05
0.000430203
0.000608266
4.26571e-06
4.28585e-06
4.85141e-06
0.00031509
0.000757508
0.00064534
9.69674e-05
0.000197068
0.000388011
0.00032452
8.23769e-06
4.85091e-06
5.77446e-06
0.000367434
0.000756982
0.000684943
6.90194e-05
9.77489e-05
0.000109174
4.04092e-05
1.47393e-05
5.77447e-06
6.33506e-06
0.000326205
0.000752837
0.000619635
6.17795e-06
4.017e-06
1.33832e-05
3.04428e-05
1.28584e-05
6.26162e-06
6.28691e-06
0.000137752
0.000721489
0.000612696
4.017e-06
3.45804e-06
3.48049e-06
1.01806e-05
9.04832e-06
6.56408e-05
4.45265e-05
2.17632e-05
0.000361172
0.000642136
3.45804e-06
3.45372e-06
3.4503e-06
3.15364e-06
8.98048e-06
0.000104339
0.000102881
3.59876e-05
0.000311559
0.000296653
5.17373e-06
3.0861e-05
7.08131e-05
1.50793e-05
1.13722e-05
0.000104514
0.000104514
5.1345e-05
0.000243027
7.07642e-05
3.35868e-06
9.97087e-05
0.000114476
7.10756e-05
1
1
1
1
1
1
1
1
1
1
1
1
1
1
1
1
1
1
1
1
1
1
1
1
1
1
1
1
1
1
1
0.999898
0.999956
0.999995
1
1
1
1
1
1
1
0.998936
0.999366
0.999984
1
1
1
1
1
1
0.999999
0.998808
0.999169
0.999984
1
1
1
1
1
1
0.999981
0.999328
0.999593
0.999966
0.999991
0.999996
0.999998
0.999999
1
1
0.999353
0.998782
0.999146
0.999588
0.999124
0.99748
0.975024
0.950075
0.928605
0.907637
0.604755
0.60586
0.640838
0.620574
0.575346
0.514905
0.459399
0.40555
0.322966
0.259328
4.25916e-06
4.27856e-06
0.000202592
0.00157162
6.25842e-06
9.66183e-06
1.38241e-05
0.00109004
0.00263452
0.00014539
4.25916e-06
4.2583e-06
4.3062e-06
4.60043e-06
4.99867e-06
6.25839e-06
1.10589e-05
2.00097e-05
3.81598e-05
3.25274e-05
4.24683e-06
4.31676e-06
7.92251e-06
5.07172e-06
8.96971e-06
4.35592e-05
9.02374e-05
6.74933e-05
2.46275e-05
2.25062e-05
4.23588e-06
8.89854e-06
4.57676e-05
1.14686e-05
7.97103e-05
0.000182142
9.78302e-05
2.46278e-05
2.35255e-05
2.2798e-05
4.23592e-06
7.59125e-06
5.38693e-05
3.11495e-05
0.000153424
0.000236885
0.000117681
2.5898e-05
2.46279e-05
2.35254e-05
5.10103e-06
2.07571e-05
5.34061e-05
5.41153e-05
0.000239011
0.00032934
0.000133517
2.51492e-05
2.58981e-05
2.7902e-05
7.01559e-06
2.04679e-05
5.41901e-05
6.39452e-05
0.000367644
0.000532124
0.000128476
6.00225e-06
2.62406e-05
0.000156421
9.24634e-06
1.04894e-05
3.11057e-05
4.13129e-05
0.000375534
0.000623996
0.000185281
4.017e-06
2.04957e-05
1.57123e-05
9.58521e-06
1.84296e-06
1.94173e-05
1.04547e-05
0.000255885
0.00052986
0.000110076
3.45804e-06
3.75728e-06
2.78177e-06
9.55315e-06
2.62169e-06
2.09979e-05
1.85863e-05
0.00021638
0.000219609
2.44509e-06
4.9395e-06
2.66252e-06
2.69723e-06
3.3977e-06
1.90102e-06
4.33065e-05
9.04469e-05
0.000185842
5.62029e-05
2.09283e-06
2.47492e-06
2.52456e-06
2.65892e-06
1
1
1
1
1
1
1
1
1
1
1
1
1
1
1
1
1
1
1
1
1
1
1
1
1
1
1
1
1
1
1
0.999995
0.999991
0.999998
1
1
1
1
1
0.999999
1
0.999922
0.999827
0.999976
1
1
1
1
1
0.999988
1
0.999782
0.999703
0.999958
1
1
1
1
1
0.999999
0.999991
0.999786
0.99983
0.999965
0.999997
0.999999
1
1
1
1
0.999641
0.999474
0.999626
0.999802
0.99672
0.958187
0.946448
0.939748
0.928745
0.910847
0.633888
0.631991
0.652094
0.620763
0.565505
0.526993
0.470881
0.391163
0.323778
0.268594
0.00222057
0.00540527
0.0282473
0.0321005
0.0199132
0.00450095
0.00150575
0.00894256
0.00718656
0.000185329
4.25916e-06
4.27177e-06
4.566e-06
4.99867e-06
5.18812e-06
5.7107e-06
8.56752e-06
1.62906e-05
4.19645e-05
3.34203e-05
4.25829e-06
1.53591e-05
2.92161e-05
6.94859e-06
5.7107e-06
4.87985e-05
0.00012762
9.83222e-05
2.98203e-05
2.34027e-05
4.23592e-06
1.33289e-05
5.36061e-05
1.11143e-05
7.15118e-06
2.77583e-05
0.00012762
0.000120829
2.35418e-05
2.15108e-05
4.2358e-06
3.18842e-05
5.40524e-05
5.34323e-05
7.26802e-06
9.66034e-06
9.86421e-05
0.000142884
3.54366e-05
2.35418e-05
8.99946e-06
4.41205e-05
5.45126e-05
5.45336e-05
5.7834e-06
6.47172e-06
4.05339e-05
0.000134459
7.00723e-05
0.000105353
3.93994e-05
4.33919e-06
1.34207e-05
1.94738e-05
4.90262e-06
2.46669e-05
1.69069e-05
0.000100161
0.000118761
0.000147109
1.90207e-05
2.00085e-06
2.44084e-06
3.16375e-06
7.89945e-06
7.65303e-05
5.94068e-05
1.78638e-05
8.28461e-05
1.27201e-05
2.0104e-06
1.79742e-06
1.77012e-06
2.0632e-06
3.28926e-05
0.00011462
0.00013608
5.19367e-05
5.06223e-06
3.23285e-06
1.81481e-06
1.8051e-06
1.80714e-06
2.8263e-06
5.4387e-05
0.000217312
0.000129598
6.47018e-05
2.89544e-06
2.78167e-06
1.85152e-06
1.81481e-06
2.01219e-06
4.33425e-05
4.56821e-05
4.94288e-05
2.54974e-05
2.49652e-05
2.66775e-06
2.69702e-06
1
1
1
1
1
1
1
1
1
1
1
1
1
1
1
1
1
1
1
1
1
1
1
1
1
1
1
1
1
1
1
1
1
1
1
1
1
0.999998
0.999995
0.999999
1
1
1
0.999998
1
1
1
0.999999
0.999991
0.999999
1
0.999999
0.999998
0.999996
0.999999
1
1
1
0.999999
0.999999
0.999993
0.999992
0.999992
0.999996
1
1
1
1
1
1
0.999691
0.999732
0.999144
0.991703
0.93332
0.917267
0.905071
0.891518
0.872291
0.84929
0.6098
0.602944
0.60225
0.543593
0.487204
0.451464
0.396386
0.325483
0.267966
0.215156
0.00919424
0.017529
0.0472841
0.0606825
0.0508017
0.0281505
0.0152536
0.0128722
0.00449966
0.000119562
4.27097e-06
4.29127e-06
4.67154e-06
5.13491e-06
5.37969e-06
5.85487e-06
7.91128e-06
1.429e-05
3.3142e-05
2.79517e-05
4.2788e-06
1.89039e-05
1.80768e-05
1.09108e-05
5.85487e-06
4.43735e-05
9.89729e-05
3.99907e-05
2.7959e-05
2.59474e-05
4.23652e-06
1.40163e-05
3.85355e-05
7.99976e-06
7.03446e-06
1.04062e-05
0.000113001
0.000142247
9.38763e-05
2.35418e-05
4.23592e-06
3.73854e-05
5.36061e-05
3.2515e-05
7.44606e-06
6.47172e-06
7.60041e-05
0.000147733
0.000150182
6.38841e-05
4.32665e-06
1.74302e-05
5.23041e-05
5.02272e-05
5.94777e-06
5.65197e-06
1.07058e-05
0.000125346
0.000163353
0.000205323
3.94438e-05
6.33589e-06
7.27583e-06
2.12588e-05
3.7443e-06
4.49371e-06
5.53623e-06
2.21371e-05
9.82034e-05
6.63478e-05
1.20339e-05
1.81981e-06
1.76001e-06
1.69818e-06
1.80434e-06
3.02857e-06
4.34742e-06
5.32006e-06
1.13854e-05
1.02645e-05
1.79742e-06
1.77012e-06
1.74143e-06
1.75372e-06
1.84678e-06
2.74886e-06
3.05325e-05
1.66732e-05
4.90513e-06
4.0632e-06
1.86027e-06
2.35257e-06
1.77012e-06
1.8019e-06
3.72222e-05
0.000140335
0.000138635
4.07991e-05
5.08622e-06
3.24127e-06
1.71501e-05
8.86686e-06
1.8183e-06
1.56316e-05
6.22007e-05
9.67139e-05
0.000107097
1.95402e-05
4.62297e-06
3.2464e-06
1
1
1
1
1
1
1
1
1
1
1
1
1
1
1
1
1
1
1
1
1
1
1
1
1
1
1
1
1
1
1
1
1
1
1
1
1
0.999995
0.999963
0.999996
1
1
1
1
1
1
1
1
0.999946
0.99974
1
1
1
1
1
1
1
1
0.999995
0.99998
0.999995
0.999998
0.999998
1
1
1
1
1
1
1
0.998609
0.996954
0.984716
0.919628
0.890424
0.862948
0.82248
0.781235
0.733771
0.694968
0.560427
0.539671
0.5014
0.429832
0.380542
0.32527
0.264832
0.207667
0.154551
0.116632
0.00988773
0.0202183
0.0502023
0.068685
0.0564857
0.034744
0.0208782
0.00762343
0.000166149
6.65913e-05
4.27171e-06
4.28408e-06
4.3708e-06
4.88836e-06
5.39274e-06
5.7751e-06
9.72817e-06
4.77682e-05
6.13624e-05
4.33612e-05
4.24424e-06
4.31486e-06
1.18495e-05
1.60745e-05
5.7751e-06
8.25687e-06
2.21062e-05
4.37838e-05
0.000100388
3.24474e-05
4.24025e-06
1.50684e-05
4.95893e-05
4.16468e-05
6.62752e-06
7.73723e-06
6.51069e-05
0.000142304
0.000168119
0.00016779
4.23652e-06
2.91419e-05
5.29129e-05
2.5616e-05
1.26939e-05
9.54774e-06
8.80375e-05
0.000150678
0.000137701
0.000369131
4.24025e-06
5.23703e-06
9.26419e-06
4.95816e-06
9.56767e-06
1.08316e-05
3.97908e-05
0.000118361
5.63621e-05
0.000205381
3.69349e-05
1.82118e-06
1.76001e-06
2.34621e-06
3.00619e-06
1.12032e-05
5.35625e-06
1.35208e-05
6.25066e-06
5.05074e-05
1.49572e-05
1.76001e-06
1.66804e-06
1.53945e-06
1.55352e-06
6.00248e-06
3.55551e-06
4.2079e-06
5.32004e-06
1.74804e-05
1.6455e-05
3.10461e-06
1.7421e-06
1.66804e-06
1.70259e-06
2.32616e-06
3.48751e-06
3.98754e-06
4.39779e-06
4.90509e-06
2.47655e-05
1.9286e-06
1.7421e-06
1.06127e-05
3.1356e-05
1.27431e-05
1.12639e-05
4.39782e-06
7.01784e-06
3.39818e-05
9.89168e-05
9.45695e-06
2.06014e-06
2.83223e-05
6.11066e-05
3.27642e-05
1.59566e-05
4.20464e-05
9.4299e-05
6.77054e-05
1
1
1
1
1
1
1
1
1
1
1
1
1
1
1
1
0.999999
0.999999
1
1
1
1
1
1
1
1
0.999999
0.999996
1
1
1
1
1
1
1
1
1
0.999999
0.999971
0.999936
1
1
1
1
1
1
1
1
0.99994
0.999702
1
1
1
1
1
1
1
1
0.999999
1
0.999996
0.999998
1
1
1
1
1
1
1
1
0.991454
0.980434
0.917977
0.871025
0.830032
0.767798
0.691228
0.601544
0.508895
0.441962
0.499133
0.459453
0.389942
0.342265
0.281822
0.196943
0.129587
0.0773362
0.0368467
0.0221926
0.00505581
0.0169095
0.043244
0.0486426
0.0368972
0.0256499
0.0124829
0.000484573
0.000347553
7.27395e-05
4.28754e-06
4.30679e-06
4.82435e-06
5.39274e-06
5.57954e-06
4.69724e-05
5.2006e-05
0.00012936
0.000117395
6.62802e-05
4.27123e-06
1.40962e-05
7.07822e-05
1.9926e-05
6.43195e-06
1.59971e-05
3.38394e-05
0.000103553
9.76128e-05
6.33767e-05
4.24424e-06
1.53165e-05
2.79966e-05
5.55676e-05
1.24199e-05
1.12896e-05
4.38562e-05
9.30152e-05
0.000107463
0.000406805
4.24025e-06
5.86257e-05
1.02381e-05
3.71407e-05
9.92138e-06
1.23173e-05
7.90814e-05
0.000108148
4.90893e-05
0.00045861
4.8815e-06
4.07366e-05
8.61221e-06
2.3494e-06
3.59889e-06
1.34448e-05
5.56038e-05
6.45297e-05
1.04621e-05
0.000121582
3.11524e-05
3.54577e-05
1.09188e-05
1.53945e-06
1.55352e-06
9.1298e-06
7.07364e-06
6.05062e-06
8.87186e-06
3.85382e-05
4.61363e-05
4.19788e-06
3.04807e-06
1.47606e-06
1.42596e-06
1.55352e-06
2.49869e-06
4.14657e-06
1.62884e-05
1.87829e-05
0.000109894
3.20686e-06
1.66804e-06
1.53945e-06
3.30818e-06
7.10819e-06
3.43845e-06
4.34607e-06
2.30814e-05
8.44682e-05
0.000127746
7.49653e-06
1.76762e-06
3.99845e-06
1.19893e-05
2.4774e-05
2.60147e-05
1.6008e-05
0.000121041
0.000161633
0.000184558
5.08806e-05
1.97321e-06
8.16808e-06
1.68857e-05
8.35687e-06
3.14204e-05
9.54331e-05
0.000159793
0.000161403
1
1
1
1
1
1
1
0.999999
1
1
1
1
1
1
1
1
0.999999
0.999984
0.999986
1
1
1
1
1
1
1
0.999997
0.999984
0.999988
1
1
1
1
1
1
1
0.999999
0.999992
0.999974
0.999961
1
1
1
1
1
1
0.999998
0.999982
0.999931
0.999777
1
1
1
1
1
1
1
1
1
1
0.999997
1
1
1
1
1
1
1
0.970976
0.943238
0.978967
0.94275
0.869061
0.820552
0.750105
0.651549
0.529955
0.386587
0.287968
0.233146
0.440424
0.382268
0.321708
0.260186
0.180418
0.0960235
0.0372953
0.00688026
0.00177187
0.00127337
0.0024046
0.0138843
0.0219352
0.0105691
0.00379084
0.00476663
0.00097424
0.000386341
0.00025662
0.000185664
4.30679e-06
4.82932e-06
7.15878e-06
5.57954e-06
8.59846e-06
9.80898e-05
0.000104123
7.21022e-05
6.60984e-05
0.00011308
5.34458e-06
2.71877e-05
0.000118988
1.63677e-05
1.23843e-05
2.97826e-05
3.14653e-05
2.73115e-05
4.0905e-05
0.000133889
4.40364e-06
7.71879e-06
1.69741e-05
5.51805e-05
7.87433e-06
9.90382e-06
1.84224e-05
1.67876e-05
2.64872e-05
0.000315125
4.27882e-06
9.87358e-05
2.02962e-05
8.15085e-06
3.08132e-06
5.62957e-06
1.61373e-05
1.68949e-05
5.85283e-05
0.000286591
2.15043e-05
0.000232555
4.94642e-05
1.61951e-06
1.62859e-06
3.86761e-06
1.13486e-05
1.18568e-05
3.30231e-05
6.43471e-05
6.73406e-05
0.000274603
4.99643e-05
1.47606e-06
1.42596e-06
2.17579e-06
4.01708e-06
4.30131e-06
4.67546e-05
2.23911e-05
9.40371e-05
0.000276256
0.000102089
1.42596e-06
1.34882e-06
1.40134e-06
1.45283e-05
5.10949e-05
7.71175e-05
5.88657e-05
0.000205937
7.19685e-05
3.05109e-06
2.78202e-06
3.17225e-06
4.9237e-06
9.81269e-06
3.02767e-05
0.000153433
0.000161252
0.000222982
8.70611e-05
1.49561e-06
1.29569e-06
1.28267e-06
5.72417e-06
1.81712e-05
1.87261e-05
0.000160465
0.000161849
0.000213211
0.000179258
9.72539e-06
1.32342e-06
1.29586e-06
1.6926e-06
2.15669e-06
1.83122e-06
0.000128185
0.0001589
1
1
1
1
1
1
1
1
0.999994
1
1
1
1
1
1
1
1
0.999989
0.999985
1
1
1
1
1
1
1
1
0.999989
0.999987
1
1
1
1
1
1
1
0.999999
0.999996
0.999974
0.999867
1
1
1
1
1
1
0.999967
0.999661
0.999359
0.999025
1
1
1
1
1
1
1
1
0.999998
0.999996
0.999998
1
1
1
1
1
1
0.970117
0.928191
0.894116
0.964166
0.908914
0.835826
0.774686
0.677726
0.55527
0.397544
0.257456
0.167308
0.119107
0.405096
0.340027
0.270783
0.180646
0.0984767
0.037514
0.00579413
0.00192509
0.00111126
0.000587742
0.000730034
0.0111
0.00106618
0.000738256
0.000900409
0.000749155
0.000558186
0.000354844
0.000178787
0.00012123
4.98529e-06
7.16031e-06
2.11989e-05
0.000108991
0.000163887
0.000161538
0.000115155
6.98768e-05
4.40155e-05
8.20412e-05
5.43159e-06
3.04966e-05
0.000110102
2.76044e-05
4.04459e-05
3.59333e-05
2.36905e-05
1.5961e-05
2.41131e-05
5.86987e-05
4.99697e-06
2.20867e-05
1.93394e-05
4.09153e-06
8.60161e-06
8.06984e-06
6.3103e-06
6.24572e-06
2.52106e-05
0.000179798
1.17553e-05
0.000220371
0.000132
2.02202e-06
2.85888e-06
2.79516e-06
2.79239e-06
4.13099e-06
3.93008e-05
0.000122963
5.30571e-05
0.000281793
0.000119065
1.67157e-06
1.6045e-06
1.6623e-06
2.02844e-06
4.56288e-06
6.59752e-05
2.43541e-05
0.000102738
0.000281775
0.000115636
1.56666e-06
1.34881e-06
1.40562e-06
1.70979e-06
1.60562e-05
6.59752e-05
2.08606e-05
0.000123795
0.000281457
0.000223129
1.34292e-06
1.28895e-06
1.2978e-06
3.12329e-06
9.40101e-06
4.44287e-05
0.000134098
0.000205349
0.000272617
4.21948e-05
1.28305e-06
1.26256e-06
1.45936e-06
4.42753e-06
2.02672e-06
0.000115318
0.000161849
0.000239484
0.000249191
9.40248e-06
1.28272e-06
1.27008e-06
1.27206e-06
1.87714e-06
2.12983e-06
4.36065e-05
0.00015896
0.000177835
0.000200476
3.36156e-05
1.29569e-06
1.28272e-06
1.27945e-06
1.44108e-06
2.19762e-06
1.60248e-05
2.80929e-05
1
1
1
1
1
1
1
1
0.999801
0.991869
1
1
1
1
1
1
1
1
0.999818
0.991886
1
1
1
1
1
1
1
1
0.999789
0.995351
1
1
1
1
1
1
1
0.999996
0.999877
0.995524
1
1
1
1
1
1
0.999991
0.999979
0.998552
0.993995
1
1
1
1
1
1
1
1
1
0.999977
0.999999
1
1
1
1
1
1
0.949331
0.904907
0.871621
0.95226
0.894251
0.826511
0.756174
0.647679
0.510006
0.335079
0.207325
0.120417
0.0742853
0.397943
0.33527
0.24051
0.142615
0.0702097
0.0210791
0.00266058
0.00164385
0.000770634
0.000336775
3.18814e-05
0.00433467
0.000554455
0.000710369
0.000820578
0.000700458
0.000591007
0.000362534
0.000145431
7.14724e-05
1.45116e-05
2.63347e-05
7.41449e-05
0.000107226
0.000188713
0.000178483
0.00013718
8.39393e-05
3.31551e-05
3.60267e-05
1.10923e-05
4.80507e-05
6.70231e-05
2.72459e-05
4.15333e-05
4.2715e-05
3.00887e-05
2.07678e-05
1.51567e-05
3.34077e-05
7.00409e-06
5.55516e-05
0.000115458
6.22752e-06
9.76792e-06
1.01101e-05
7.75377e-06
8.6141e-06
1.14687e-05
2.46605e-05
1.90786e-05
0.000271513
0.000196163
2.55264e-06
2.97588e-06
3.14335e-06
3.01476e-06
5.95601e-06
1.52191e-05
9.8932e-06
6.90217e-05
0.000284991
0.000207268
2.02255e-06
1.53849e-06
1.59171e-06
1.89469e-06
1.06315e-05
6.222e-05
6.45879e-06
9.1005e-05
0.000282724
0.000260052
1.49641e-06
1.29383e-06
1.29779e-06
1.65017e-06
1.08909e-05
9.14541e-06
5.06043e-05
7.38581e-05
0.000281775
0.000264802
2.18859e-05
1.26255e-06
1.26167e-06
1.2978e-06
3.32542e-06
1.63238e-05
0.000154245
6.70508e-05
0.000205076
6.31542e-05
1.26256e-06
1.26152e-06
1.26167e-06
1.71825e-06
1.83795e-06
2.02672e-06
0.000156862
7.47079e-05
0.000128037
4.3437e-05
1.28304e-06
1.26256e-06
1.26167e-06
2.93406e-06
3.42126e-06
2.92276e-06
4.36291e-05
5.82151e-05
5.24613e-05
1.59044e-05
1.32339e-06
1.28339e-06
3.97387e-06
1.15186e-05
3.03901e-06
3.8861e-06
3.99995e-06
1
1
1
1
1
1
1
1
0.999793
0.991867
1
1
1
1
1
1
1
1
0.999986
0.994816
1
1
1
1
1
1
1
0.999998
0.999998
0.997673
1
1
1
0.999999
1
1
1
0.999999
0.999974
0.996758
1
1
1
0.999987
0.999978
0.999995
1
1
0.999265
0.993987
1
1
1
0.999998
0.999997
1
1
1
1
1
0.999999
1
1
1
1
1
1
0.954399
0.902581
0.861935
0.950765
0.898163
0.837109
0.768072
0.668822
0.536841
0.359306
0.216071
0.122107
0.0661271
0.390322
0.329189
0.231564
0.135148
0.067771
0.0240271
0.00315274
0.00153241
0.000737073
0.000341532
3.69533e-05
0.00106882
0.000620195
0.00062061
0.000587731
0.000655958
0.00058032
0.000359811
0.000152836
6.22638e-05
2.46796e-05
3.94629e-05
0.000115133
9.98749e-05
0.000136907
0.000177942
0.000145586
8.80538e-05
3.53925e-05
2.21342e-05
1.89758e-05
0.000108694
0.000132192
3.46482e-05
2.96686e-05
4.1522e-05
3.47927e-05
2.50926e-05
1.14562e-05
1.66161e-05
9.82085e-06
9.77531e-05
0.000224831
2.04363e-05
7.79896e-06
1.01741e-05
8.96408e-06
1.14475e-05
7.29386e-06
5.42385e-06
2.45368e-05
0.000279716
0.000264812
2.14388e-05
3.99981e-06
3.09952e-06
3.21202e-06
1.25581e-05
1.4791e-05
2.16584e-06
6.77973e-05
0.000286309
0.000284991
6.74544e-05
2.93716e-06
1.86862e-06
2.05254e-06
1.25171e-05
8.76543e-06
2.28689e-06
4.19354e-05
0.000284991
0.000280321
0.0002
1.53854e-06
1.59175e-06
1.72183e-06
3.01247e-06
5.16707e-06
3.7196e-05
7.10244e-06
9.71849e-05
9.90537e-05
1.36172e-05
6.74383e-06
6.27078e-06
6.81064e-06
5.63386e-06
3.70919e-06
0.000150575
1.03362e-05
1.78974e-05
1.3968e-05
2.12986e-06
1.26255e-06
1.26536e-06
3.77761e-06
3.65653e-06
3.01508e-06
7.59918e-05
2.12662e-05
1.90109e-05
1.03656e-05
3.53638e-06
1.33083e-06
1.30495e-06
2.90468e-05
4.68707e-05
9.76207e-06
4.87788e-06
3.02578e-05
2.85007e-05
2.28188e-05
6.41449e-06
1.46865e-06
1.72869e-05
5.09973e-05
4.63063e-05
1.65917e-05
4.48571e-06
1
1
1
1
1
1
1
1
1
1
1
1
1
1
1
1
1
0.999992
0.999992
1
1
1
1
1
1
1
0.999999
0.999982
0.999982
1
1
1
1
0.999999
0.999993
1
0.999999
0.99999
0.999988
1
1
1
1
0.999988
0.999947
0.999961
0.999999
1
1
1
1
1
1
0.999998
0.99999
0.999997
1
1
1
1
0.999994
1
1
1
1
1
1
0.967054
0.908667
0.860486
0.954939
0.908956
0.856333
0.799766
0.720796
0.60955
0.439073
0.266073
0.151303
0.0833759
0.388153
0.328253
0.243739
0.156755
0.0908858
0.0468644
0.00698993
0.00180613
0.000986435
0.000515629
2.03443e-05
0.00375067
0.000443321
0.000546241
0.000415392
0.000682131
0.000688127
0.000391963
0.000196338
8.85882e-05
2.2544e-05
2.54946e-05
0.000149101
0.000100015
9.30401e-05
0.000172409
0.000157843
8.42776e-05
3.73753e-05
1.5489e-05
2.64277e-05
0.000160656
0.000286147
4.15171e-05
2.12157e-05
3.59164e-05
3.42004e-05
1.87411e-05
8.15572e-06
3.68051e-06
3.15857e-05
0.000284679
0.000264529
2.41117e-05
8.75772e-06
8.39663e-06
7.98964e-06
6.6254e-06
3.67606e-06
2.32382e-06
4.34468e-05
0.000285887
0.000284679
0.000103511
5.80094e-06
3.78671e-06
3.87066e-06
4.91751e-06
5.12164e-06
2.19706e-06
4.78872e-05
0.000284991
0.000286235
0.000223106
3.78671e-06
2.96343e-06
2.91979e-06
6.20112e-06
1.06586e-05
7.72717e-06
7.55967e-06
0.000118118
0.000220636
0.000240039
0.000185669
4.05769e-05
2.15524e-06
2.85439e-06
5.05151e-06
2.22997e-05
6.88013e-06
5.80985e-06
4.59784e-06
4.30543e-06
3.49051e-06
8.48212e-06
8.40129e-06
3.15952e-06
3.50177e-06
4.4476e-05
1.22253e-05
1.31552e-05
1.66758e-05
1.00857e-05
2.03451e-06
2.13354e-06
9.38716e-06
1.23304e-05
4.28868e-06
2.37698e-05
6.73186e-05
7.2927e-05
7.14435e-05
2.25693e-05
1.67409e-06
2.52994e-05
5.1465e-05
5.14883e-05
2.27185e-05
5.58016e-06
7.68461e-05
8.24851e-05
6.02753e-05
8.23799e-06
6.07945e-06
2.47159e-05
4.57302e-05
0.000144706
4.46568e-05
4.87788e-06
1
1
1
1
1
1
1
0.999999
1
1
1
1
1
1
1
1
0.999998
0.999982
0.999986
1
1
1
1
1
1
1
0.999994
0.999982
0.999982
0.999996
1
1
1
1
0.999999
1
0.999998
0.999994
0.999995
0.999999
1
1
1
0.999999
0.999987
0.999999
1
1
1
1
1
1
1
1
0.999998
1
1
1
1
1
0.999991
0.999998
1
1
1
1
1
0.991671
0.936004
0.892419
0.966136
0.93543
0.888061
0.840789
0.785499
0.701154
0.575343
0.379323
0.228824
0.137794
0.398669
0.340991
0.277408
0.207449
0.144434
0.0990189
0.0349906
0.00368775
0.00170029
0.000935575
1.95573e-05
0.00270021
0.00101358
0.000366199
0.000457739
0.000795905
0.000969111
0.000565263
0.000323786
0.000169569
1.95849e-05
2.16582e-05
4.42307e-05
7.43133e-05
9.87029e-05
0.000175342
0.000187356
0.000100761
5.44685e-05
2.89571e-05
4.27208e-05
0.000206581
0.000249669
3.01258e-05
2.09255e-05
3.23618e-05
3.23487e-05
1.66968e-05
8.8723e-06
5.72329e-06
9.47045e-05
0.00028464
0.000263078
2.00761e-05
9.71053e-06
7.50356e-06
6.67761e-06
4.7825e-06
3.35636e-06
2.70014e-06
7.44338e-05
0.000285887
0.00028464
0.000195943
6.74614e-06
3.78936e-06
3.78671e-06
3.36565e-06
2.70207e-06
2.32393e-06
1.4524e-05
0.000221264
0.000282926
0.000283572
0.000128912
3.76617e-06
3.74571e-06
3.74702e-06
4.40095e-06
1.27904e-05
7.31339e-06
8.74266e-06
4.51547e-05
0.000108719
0.000183453
0.000148776
5.53581e-05
1.21658e-05
4.25533e-06
1.71045e-05
2.56637e-05
4.32181e-05
3.73824e-05
4.09482e-06
3.37626e-06
6.51454e-06
1.80808e-05
1.33186e-05
3.80745e-06
2.67347e-05
0.000144895
0.000143895
0.000141619
8.50803e-05
2.71275e-06
2.48935e-06
3.34901e-05
4.31573e-05
1.94753e-05
8.70793e-06
0.000144895
0.000144895
6.203e-05
6.55846e-06
8.94158e-06
3.2398e-05
3.186e-05
2.39461e-05
4.52008e-05
7.4647e-06
0.000144895
7.76309e-05
7.62739e-06
6.78864e-06
6.61247e-06
1.82592e-05
7.11263e-05
0.000165217
5.01684e-05
7.83342e-06
1
1
1
1
1
1
1
1
1
1
1
1
1
1
1
1
0.999999
0.999999
1
1
1
1
1
1
1
1
0.999999
0.999997
0.999997
0.999999
1
1
1
1
1
1
1
1
1
1
1
1
1
1
1
1
1
1
1
1
1
1
1
1
1
1
1
1
1
1
0.999992
0.999997
1
1
1
1
1
1
0.982326
0.949099
0.988095
0.980399
0.942353
0.880221
0.838354
0.784608
0.707091
0.572725
0.380997
0.259182
0.418069
0.37278
0.326394
0.259629
0.211818
0.168785
0.109451
0.0313274
0.00473294
0.00213252
1.91199e-05
1.92698e-05
0.00263019
0.0047953
0.00109591
0.000863337
0.00127916
0.000965396
0.000653972
0.000397201
1.79685e-05
3.2808e-05
2.72801e-05
4.50136e-05
6.81631e-05
0.000170483
0.000228273
0.000172588
0.000119125
7.08329e-05
5.4849e-05
0.00028193
0.000107945
2.52074e-05
3.19042e-05
2.91485e-05
3.50554e-05
2.84156e-05
2.08202e-05
1.30146e-05
0.000139332
0.000285463
0.000233244
2.72241e-05
2.00761e-05
1.00443e-05
6.88475e-06
6.46745e-06
5.57474e-06
3.99175e-06
6.3396e-05
0.00028464
0.000285464
0.000278942
3.80059e-05
6.82073e-06
3.87404e-06
3.85769e-06
3.38501e-06
2.70205e-06
3.37157e-06
4.63398e-05
0.000252078
0.000283572
0.000283572
5.76706e-05
3.78671e-06
3.74562e-06
3.85773e-06
6.73482e-06
7.67923e-06
8.17107e-06
1.94163e-05
1.96239e-05
7.16885e-05
0.000111889
5.63062e-05
1.23164e-05
3.90252e-06
1.13545e-05
0.000114769
0.00011335
0.000110292
0.000106796
2.04818e-05
7.04418e-06
1.56393e-05
1.06305e-05
3.89124e-06
4.34774e-06
0.000143895
0.00011213
5.66314e-05
2.04246e-05
4.75891e-06
1.63572e-05
4.31277e-05
4.29219e-05
2.44721e-05
6.80122e-06
0.000144895
8.52002e-06
6.04805e-06
6.28603e-06
6.46277e-06
1.68676e-05
1.85802e-05
2.03509e-05
4.37526e-05
1.56271e-05
0.000100864
6.53284e-06
6.65506e-06
6.55846e-06
6.46276e-06
8.11366e-05
0.00016371
0.000102396
3.51509e-05
9.23372e-06
1
1
1
1
1
1
1
1
1
1
1
1
1
1
1
1
1
1
1
1
1
1
1
1
1
1
1
0.999999
0.999998
1
1
1
1
1
1
1
1
0.999991
0.999967
1
1
1
1
1
1
1
1
1
0.999935
0.999947
1
1
1
1
1
1
1
1
0.999971
0.999967
0.999992
0.999997
0.999999
1
1
1
1
1
1
0.999999
0.993762
0.990863
0.993804
0.956264
0.88262
0.838281
0.794643
0.72172
0.601605
0.48019
0.470545
0.433223
0.416891
0.354137
0.269455
0.231715
0.191533
0.119272
0.0566908
0.0233297
1.79685e-05
1.91627e-05
2.44468e-05
1.66927e-05
0.0071972
0.00225327
0.00125698
0.00123151
0.00100329
0.000704271
1.64086e-05
5.44632e-05
1.87719e-05
1.15961e-05
9.60691e-05
0.000125328
0.000225766
0.000231659
0.000194411
0.000129151
2.58894e-05
0.000276198
0.000154959
2.02882e-05
2.89816e-05
2.9353e-05
3.85182e-05
4.39388e-05
4.00437e-05
2.48637e-05
9.18378e-05
0.00028193
0.000266896
2.4645e-05
2.269e-05
1.117e-05
1.14929e-05
1.01359e-05
1.0067e-05
7.1143e-06
2.58215e-05
0.000187787
0.000282973
0.000282006
0.000192026
1.00443e-05
6.88487e-06
4.53546e-06
4.54061e-06
3.91414e-06
2.60606e-06
3.37157e-06
6.25495e-05
0.000262321
0.000278938
0.000238893
3.87404e-06
3.85773e-06
3.9025e-06
4.25039e-06
2.88838e-06
6.77143e-06
9.86259e-06
1.79792e-05
7.35812e-05
0.000131102
0.000103701
3.90251e-06
3.90252e-06
3.93595e-06
1.03499e-05
1.78001e-05
3.48989e-05
5.73606e-05
1.8753e-05
9.19327e-06
8.36018e-06
3.97243e-06
3.90252e-06
3.97277e-06
0.00013701
6.05564e-06
6.05207e-06
2.09027e-05
6.52664e-06
8.67808e-06
1.03022e-05
8.65509e-06
3.97531e-06
1.57583e-05
7.35732e-05
5.84934e-06
5.91371e-06
6.0481e-06
6.28607e-06
1.65344e-05
2.21835e-05
1.81422e-05
3.69075e-05
2.65865e-05
6.53284e-06
6.05585e-06
6.04804e-06
6.67501e-06
6.63246e-06
0.000112658
0.000182724
9.59195e-05
4.5484e-05
1.0262e-05
1
1
1
1
1
1
1
1
1
1
1
1
1
1
1
1
1
1
1
1
1
1
1
1
1
1
1
0.999999
1
0.999999
1
1
1
1
1
1
1
0.999982
0.999933
1
1
1
1
1
1
1
1
1
0.99948
0.998355
1
1
1
1
1
1
1
1
0.999614
0.998357
0.999992
0.999995
0.999998
0.999999
1
1
1
1
1
0.999995
0.998276
0.996612
0.996704
0.996078
0.97907
0.897958
0.847335
0.805482
0.743953
0.68792
0.542233
0.502689
0.512883
0.473611
0.389586
0.290224
0.246237
0.181292
0.122842
0.0930139
1.50679e-05
2.32526e-05
1.97305e-05
1.15961e-05
3.05455e-05
0.0127546
0.00114293
0.000588669
0.000414264
0.000342598
1.08047e-05
4.01829e-05
1.06199e-05
1.03175e-05
9.94862e-06
3.29371e-05
0.000153685
0.000120654
0.000101699
7.77629e-05
0.000234918
0.000271106
0.000179436
1.69997e-05
2.17581e-05
3.37028e-05
3.25266e-05
3.4664e-05
3.20756e-05
2.22282e-05
1.95227e-05
0.000180143
0.000252663
3.07742e-05
2.82778e-05
2.38169e-05
1.32383e-05
8.7532e-06
7.7611e-06
6.77632e-06
2.60606e-06
1.43845e-05
0.00018337
0.000274972
0.000140364
1.67841e-05
8.75409e-06
5.1966e-06
4.4995e-06
4.44678e-06
2.60606e-06
2.60606e-06
3.91111e-06
0.000151871
0.000274304
0.000273048
7.46507e-05
4.49125e-06
3.94443e-06
4.03073e-06
7.83853e-06
4.96552e-06
5.55689e-06
7.67197e-06
0.000182817
0.000257418
0.000239427
1.879e-05
3.90252e-06
3.94443e-06
7.73096e-05
1.00154e-05
5.79747e-06
6.19027e-06
1.91459e-05
4.27662e-05
0.000103165
1.7009e-05
3.94443e-06
5.01994e-06
3.31153e-05
5.79706e-06
5.74777e-06
5.81057e-06
8.16428e-06
3.43613e-05
3.79898e-05
2.84093e-05
5.83241e-05
5.94991e-05
5.84922e-06
5.84922e-06
5.79709e-06
5.91372e-06
6.34729e-06
3.79608e-05
2.70714e-05
1.87037e-05
1.97457e-05
6.00953e-05
6.64083e-06
5.8493e-06
1.54837e-05
5.3104e-05
2.68093e-05
7.84477e-05
0.00011739
0.000119147
8.34821e-05
2.80623e-05
1
1
1
1
1
1
1
1
1
1
1
1
1
1
1
1
1
1
1
1
1
1
1
1
1
1
1
1
0.999996
0.99999
1
0.999996
0.999998
1
1
1
1
0.999998
0.99995
0.999947
1
1
0.999994
0.999999
1
1
1
1
0.999766
0.99931
1
0.999995
0.999995
0.999999
1
1
1
1
0.999858
0.998903
0.999988
0.999974
0.999983
0.999996
0.999999
1
1
1
0.999997
0.999997
0.999584
0.99902
0.999388
0.999116
0.997381
0.99604
0.925965
0.869262
0.833798
0.804481
0.629239
0.576779
0.588238
0.576774
0.524867
0.421856
0.303213
0.234435
0.173324
0.149411
1.08047e-05
1.80425e-05
1.41213e-05
0.00511653
0.00213258
0.00533153
0.0131461
0.00167298
0.000264982
0.000154948
8.93065e-06
9.91867e-06
8.61389e-06
8.37422e-06
9.29533e-06
9.94862e-06
3.75586e-05
7.76055e-05
7.1837e-05
5.09271e-05
0.000122694
0.000154294
9.94318e-05
4.04488e-05
3.63759e-05
0.000101448
3.3514e-05
3.11286e-05
4.65002e-05
1.95026e-05
2.90043e-06
1.34124e-05
0.000116046
0.000124827
2.86291e-05
2.5707e-05
2.22725e-05
1.83457e-05
1.04339e-05
5.45505e-06
2.76167e-06
2.90043e-06
4.23562e-05
0.000178737
1.80645e-05
1.75264e-05
1.83493e-05
1.37281e-05
4.74634e-06
4.8239e-06
4.47658e-06
3.03598e-06
7.1338e-06
8.55768e-05
0.000143849
0.000197598
0.000208263
4.60491e-05
4.22827e-06
4.44681e-06
9.00242e-05
1.05536e-05
5.79776e-06