/*--------------------------------*- C++ -*----------------------------------*\
| =========                 |                                                 |
| \\      /  F ield         | OpenFOAM: The Open Source CFD Toolbox           |
|  \\    /   O peration     | Version:  2312                                  |
|   \\  /    A nd           | Website:  www.openfoam.com                      |
|    \\/     M anipulation  |                                                 |
\*---------------------------------------------------------------------------*/
FoamFile
{
    version     2.0;
    format      ascii;
    arch        "LSB;label=32;scalar=64";
    class       volScalarField;
    location    "0.42";
    object      p_rgh;
}
// * * * * * * * * * * * * * * * * * * * * * * * * * * * * * * * * * * * * * //

dimensions      [1 -1 -2 0 0 0 0];

internalField   nonuniform List<scalar> 
8000
(
413.422
413.109
412.464
411.564
410.507
409.411
408.396
407.561
407.021
406.793
413.434
413.082
412.36
411.35
410.163
408.924
407.771
406.817
406.193
405.963
413.431
413.002
412.131
410.903
409.422
407.822
406.289
405.013
404.161
403.818
413.641
413.083
411.961
410.342
408.329
406.061
403.741
401.7
400.23
399.602
413.975
413.21
411.724
409.541
406.695
403.271
399.549
396.329
394.02
393.048
415.659
414.441
412.297
409.129
404.759
399.346
393.311
388.242
385.316
384.053
417.382
416.299
413.59
409.131
402.474
390.937
357.058
323.307
310.375
305.121
422.973
420.037
411.205
390.653
341.142
253.121
168.304
102.772
84.1377
91.0132
388.557
373.785
340.706
273.1
174.555
77.3159
10.773
3.2391
4.34977
6.41477
122.58
102.4
66.4866
28.8497
4.37259
0.157732
0.365927
0.58184
1.32107
2.64102
0.0361525
0.0286116
0.00694666
-0.0182313
-0.0426031
-0.0550255
-0.0453513
0.0844578
0.397853
0.901798
0.0338108
0.0310978
0.0200376
-0.0124968
-0.0217138
-0.0244104
0.00196171
0.0928879
0.24781
0.40787
0.0561091
0.0540172
0.0497055
0.038019
0.0349057
0.043711
0.0790663
0.174843
0.266221
0.304371
0.0778821
0.0805937
0.0824566
0.0820248
0.0844774
0.0964538
0.123634
0.20304
0.253578
0.251777
0.10697
0.109329
0.112251
0.114453
0.122012
0.139416
0.156894
0.179153
0.236865
0.286425
0.132499
0.132346
0.131011
0.135603
0.141836
0.164825
0.180866
0.179972
0.231145
0.364501
0.137834
0.13924
0.137385
0.13854
0.141869
0.151379
0.17948
0.170643
0.218142
0.381144
0.137124
0.137272
0.137671
0.138268
0.139758
0.141208
0.161615
0.158414
0.192775
0.382652
0.137712
0.137597
0.137579
0.136757
0.134799
0.129985
0.14076
0.152511
0.330475
0.384665
0.137369
0.136991
0.136803
0.135317
0.132057
0.123068
0.152797
0.283222
0.352084
0.296222
413.575
413.277
412.646
411.762
410.718
409.632
408.626
407.797
407.266
407.047
413.538
413.206
412.508
411.512
410.342
409.122
407.983
407.037
406.425
406.211
413.438
413.031
412.182
410.997
409.566
408.018
406.53
405.287
404.468
404.163
413.339
412.828
411.785
410.25
408.358
406.232
404.05
402.131
400.758
400.199
413.105
412.404
411.031
409.024
406.452
403.365
399.992
397.084
394.953
393.921
413.222
412.249
410.298
407.509
403.863
399.295
394.014
389.658
386.948
385.064
413.214
412.037
409.445
405.668
400.473
389.722
360.705
333.426
315.2
303.461
414.643
412.438
399.806
379.724
341.364
264.434
180.85
123.068
95.5873
76.425
204.062
186.78
158.41
117.521
70.5839
35.691
10.9268
1.8487
2.94219
4.3184
14.3724
11.916
6.14899
0.354528
0.0702769
-0.0181711
0.00593905
0.223873
0.751372
1.34801
0.0325778
0.0226192
0.00924388
-0.00152087
-0.0406708
-0.111347
-0.1773
-0.0573261
0.177052
0.391708
0.0400393
0.0263771
0.00796834
-0.00806583
-0.0434004
-0.0710421
-0.0698197
0.00677201
0.129764
0.192451
0.0610421
0.0351177
0.0222215
0.0174508
0.0137162
0.0242995
0.0492578
0.115952
0.195714
0.196364
0.0848022
0.0744284
0.0635379
0.0703844
0.0798909
0.0965394
0.125985
0.180257
0.223246
0.191264
0.111754
0.115228
0.114181
0.123247
0.13017
0.143112
0.163658
0.198389
0.222749
0.185974
0.128183
0.131713
0.134551
0.14287
0.15123
0.172452
0.184497
0.185867
0.219141
0.183824
0.135747
0.137836
0.14002
0.143537
0.148381
0.156682
0.179434
0.17093
0.196715
0.229094
0.138678
0.138938
0.140186
0.141089
0.141221
0.140002
0.151911
0.152912
0.206345
0.378296
0.13898
0.138545
0.138614
0.137361
0.133738
0.127234
0.125351
0.135637
0.357618
0.378406
0.138201
0.137458
0.137146
0.135086
0.129492
0.120173
0.121395
0.151878
0.379375
0.38438
414.009
413.735
413.121
412.246
411.222
410.157
409.174
408.367
407.856
407.647
413.926
413.623
412.948
411.981
410.837
409.653
408.56
407.658
407.086
406.884
413.711
413.352
412.557
411.416
410.055
408.601
407.215
406.058
405.311
405.039
413.301
412.86
411.902
410.494
408.774
406.889
404.981
403.29
402.093
401.625
412.549
411.951
410.723
408.935
406.709
404.137
401.312
398.789
396.957
396.053
411.444
410.567
408.957
406.554
403.595
400.125
396.103
392.391
389.512
387.666
409.263
408.553
406.527
403.53
399.763
394.833
378.151
353.194
329.311
314.577
385.975
379.525
367.296
350.221
327.078
282.083
217.967
161.174
117.428
93.5502
71.2093
68.4476
60.606
51.4747
40.6263
28.1766
17.6762
4.58038
1.77931
3.24607
0.236676
0.184231
0.141218
0.0933123
0.0626442
-0.0109094
-0.115654
-0.0686249
0.180092
0.599258
0.113635
0.100804
0.078368
0.0443259
-0.012359
-0.0946111
-0.183631
-0.207297
-0.0882049
0.0806649
0.0966312
0.0682709
0.0404662
0.0124325
-0.0226015
-0.0629356
-0.084749
-0.0616336
-0.0197878
0.0541346
0.0899344
0.0615491
0.0435037
0.0359986
0.0297146
0.0327969
0.0584034
0.105191
0.123072
0.111578
0.0899129
0.0900725
0.0872614
0.091417
0.0935689
0.0996663
0.135566
0.199047
0.225775
0.162468
0.106801
0.115117
0.119982
0.130912
0.138583
0.144102
0.159227
0.214734
0.36799
0.183857
0.124994
0.129893
0.135551
0.144783
0.152531
0.164073
0.171498
0.195587
0.361401
0.186838
0.13623
0.137234
0.140481
0.144348
0.147674
0.150339
0.161396
0.193588
0.347493
0.300862
0.139875
0.139175
0.140339
0.14083
0.140515
0.137726
0.141489
0.210451
0.321638
0.36423
0.140102
0.138548
0.138713
0.137373
0.134685
0.129369
0.130219
0.196906
0.175922
0.269299
0.139191
0.137488
0.137346
0.135119
0.1304
0.124949
0.123626
0.144485
0.147497
0.205021
414.807
414.567
413.973
413.1
412.073
411.018
410.055
409.276
408.789
408.584
414.72
414.456
413.803
412.844
411.712
410.552
409.504
408.658
408.13
407.938
414.479
414.159
413.401
412.291
410.977
409.611
408.341
407.298
406.638
406.398
413.929
413.51
412.608
411.296
409.71
408.043
406.431
405.034
404.07
403.721
412.777
412.206
411.08
409.497
407.581
405.497
403.314
401.332
399.884
399.252
410.588
409.881
408.5
406.492
404.085
401.541
398.824
396.215
393.908
392.673
405.782
405.553
404.666
402.544
399.788
396.586
392.715
379.932
361.29
349.313
340.465
342.016
337.808
325.486
312.266
298.692
266.027
219.686
178.86
160.359
28.6023
33.8443
33.7895
29.9559
26.0397
23.433
20.687
17.2314
9.22924
8.20543
0.144475
0.131235
0.110933
0.0835535
0.0565992
0.00596072
-0.079215
-0.127038
-0.00862516
0.381363
0.115049
0.101227
0.0809474
0.0549198
0.0207048
-0.0378309
-0.12001
-0.186262
-0.19453
-0.0366194
0.0981948
0.082489
0.062723
0.0416928
0.0216525
-0.00653347
-0.0448322
-0.0824462
-0.101473
-0.0132832
0.089727
0.0788939
0.0676874
0.0597212
0.0551819
0.0545533
0.0899761
0.0940806
0.0515651
0.0625974
0.0962822
0.0934006
0.0943107
0.0955567
0.0976167
0.100839
0.129975
0.243633
0.193178
0.12641
0.11418
0.114386
0.118355
0.124551
0.130081
0.13514
0.147084
0.283912
0.3283
0.158063
0.129829
0.129649
0.133312
0.138208
0.142177
0.146357
0.155366
0.257822
0.331222
0.329321
0.138911
0.136703
0.138717
0.140747
0.14221
0.144721
0.152617
0.175082
0.222443
0.220432
0.142432
0.138961
0.139598
0.139751
0.14036
0.140626
0.143613
0.144864
0.141203
0.142116
0.142628
0.138593
0.138745
0.137639
0.137121
0.136719
0.135104
0.132402
0.126104
0.12664
0.140963
0.137512
0.137623
0.135739
0.133016
0.130148
0.127035
0.124717
0.116249
0.119635
415.947
415.756
415.181
414.285
413.219
412.141
411.178
410.417
409.948
409.75
415.947
415.719
415.075
414.088
412.92
411.747
410.714
409.909
409.425
409.246
415.892
415.552
414.769
413.629
412.298
410.958
409.767
408.837
408.281
408.087
415.536
415
414.023
412.682
411.127
409.576
408.189
407.092
406.419
406.217
414.423
413.617
412.414
410.826
409.036
407.27
405.63
404.289
403.421
403.183
411.6
410.645
409.368
407.546
405.336
403.419
401.688
400.319
399.298
399.001
403.825
403.787
403.559
402.371
401.216
398.721
396.788
395.153
390.038
386.379
274.776
302.844
321.139
318.623
309.065
304.495
299.523
284.199
263.514
250.452
6.68016
16.7073
25.9739
22.9338
18.6195
19.4495
23.6852
27.7949
33.2009
67.6029
0.118137
0.11665
0.113432
0.101033
0.0823054
0.0582016
0.0201534
-0.00287339
-0.021729
0.195797
0.132701
0.115705
0.102295
0.0828853
0.0603914
0.0373775
0.00360832
-0.0503069
-0.110153
-0.0496884
0.120957
0.107792
0.0930263
0.0747258
0.0569953
0.0411605
0.0456319
0.00217625
-0.0932601
-0.0366829
0.116564
0.105023
0.0944342
0.0823238
0.0731451
0.0671999
0.0816226
0.0992958
0.00499174
0.0333313
0.122536
0.112648
0.107794
0.102353
0.0983666
0.0978369
0.110136
0.154016
0.0986867
0.0944914
0.13106
0.123045
0.122459
0.121703
0.12199
0.123656
0.129648
0.180043
0.190696
0.12801
0.138555
0.131411
0.132297
0.132837
0.134753
0.138309
0.140288
0.145314
0.218075
0.259889
0.14443
0.136608
0.137202
0.137232
0.13893
0.141643
0.141811
0.142297
0.16135
0.191357
0.146966
0.138851
0.138774
0.138074
0.139171
0.140539
0.139127
0.136741
0.138383
0.139329
0.147364
0.138564
0.138536
0.137148
0.136871
0.136177
0.135014
0.130227
0.129183
0.130913
0.144465
0.137068
0.137605
0.135928
0.134304
0.131281
0.12896
0.124975
0.123076
0.127326
417.4
417.245
416.687
415.747
414.602
413.455
412.459
411.694
411.235
411.042
417.61
417.377
416.72
415.661
414.403
413.161
412.1
411.305
410.85
410.685
417.932
417.502
416.648
415.382
413.938
412.545
411.365
410.509
410.042
409.9
418.11
417.355
416.22
414.656
412.953
411.385
410.098
409.205
408.779
408.728
417.593
416.389
414.939
413.021
411.019
409.315
407.959
407.095
406.775
406.924
415.526
413.623
411.952
409.759
407.54
405.689
404.462
403.958
404.081
404.774
404.611
404.324
404.606
403.308
401.99
401.165
400.183
400.229
400.657
402.201
204.946
256.861
307.853
318.555
313.165
308.398
312.997
328.356
342.234
343.089
0.968692
3.23134
22.3879
26.1596
21.5862
18.9781
26.6954
40.5157
66.7406
166.965
0.130703
0.108917
0.0990658
0.105667
0.095599
0.091415
0.0770314
0.098218
0.0843778
3.2668
0.143256
0.116327
0.102557
0.0939442
0.0825116
0.0731824
0.061129
0.048414
-0.0109018
-0.023295
0.133051
0.117252
0.104925
0.0925609
0.0806445
0.0688572
0.0593748
0.0540204
-0.0275242
-0.0281023
0.143095
0.117785
0.108447
0.0977419
0.0884576
0.0787583
0.0674176
0.0612227
5.88413e-05
0.0231514
0.142936
0.121053
0.116788
0.109326
0.103904
0.097812
0.087986
0.0698501
0.0501837
0.0754985
0.143317
0.125172
0.124827
0.120806
0.119304
0.117636
0.111748
0.105289
0.0962187
0.109362
0.148503
0.130312
0.131666
0.129122
0.129469
0.130433
0.128263
0.128917
0.157436
0.169369
0.156128
0.135713
0.135816
0.133914
0.134534
0.135861
0.13551
0.137222
0.158109
0.172216
0.160207
0.138094
0.137963
0.136097
0.136279
0.136886
0.13647
0.136398
0.137815
0.136781
0.155302
0.137202
0.138027
0.136387
0.135963
0.135458
0.134727
0.133307
0.133344
0.133675
0.145467
0.134134
0.1371
0.135928
0.135113
0.133551
0.131999
0.130381
0.130655
0.13235
418.96
418.857
418.31
417.333
416.088
414.838
413.769
412.976
412.515
412.326
419.405
419.186
418.557
417.415
416.022
414.66
413.527
412.712
412.265
412.107
420.164
419.694
418.873
417.432
415.775
414.236
412.993
412.15
411.732
411.632
421.075
420.249
419.09
417.153
415.086
413.33
412.026
411.226
410.954
411.016
421.742
420.409
418.721
416.074
413.487
411.511
410.238
409.645
409.662
410.093
422.146
419.549
416.858
413.274
410.229
408.248
407.213
407.193
408.02
409.461
413.28
410.978
409.047
406.009
403.741
403.099
403.345
404.257
406.109
409.168
211.321
242.006
295.514
317.465
318.812
319.436
324.885
350.22
380.753
393.404
3.38362
1.07399
17.1638
28.3442
26.3474
23.7072
30.5427
51.6798
113.37
268.993
0.328142
0.11463
0.0719579
0.109892
0.104871
0.109496
0.096304
0.13138
0.205971
27.2292
0.130635
0.0952249
0.088392
0.0958815
0.0953559
0.093729
0.0806583
0.0853281
0.032206
0.00736859
0.147139
0.114473
0.106333
0.0992274
0.0933012
0.0861807
0.0669125
0.0513135
0.0161784
-0.0144899
0.15112
0.124739
0.111843
0.102211
0.0960467
0.0873784
0.0652131
0.0453963
0.0179154
0.0250047
0.142785
0.129249
0.116824
0.109195
0.104517
0.0967918
0.079351
0.0601489
0.038156
0.0671878
0.134685
0.124288
0.120405
0.116691
0.11446
0.110566
0.101957
0.096741
0.0814724
0.100465
0.145675
0.124369
0.126001
0.124082
0.123287
0.122525
0.11872
0.129116
0.146013
0.148362
0.157231
0.129487
0.131323
0.129891
0.129553
0.129794
0.13
0.134971
0.157901
0.159694
0.157425
0.134861
0.134486
0.133443
0.133169
0.133231
0.133678
0.134884
0.136733
0.134856
0.143528
0.148965
0.135225
0.13487
0.13467
0.134342
0.13429
0.134591
0.135173
0.134089
0.135427
0.156013
0.134644
0.135216
0.135227
0.134604
0.134113
0.133906
0.134222
0.133963
420.204
420.364
419.86
418.831
417.493
416.133
414.978
414.135
413.65
413.465
420.79
420.85
420.344
419.117
417.585
416.076
414.842
413.982
413.526
413.364
421.806
421.7
421.104
419.519
417.623
415.86
414.499
413.618
413.203
413.125
423.232
422.97
422.158
419.881
417.34
415.231
413.785
412.999
412.801
412.923
425.06
424.583
423.207
419.679
416.212
413.744
412.325
411.841
412.024
412.612
426.996
426.231
423.566
417.838
413.277
410.793
409.771
410.004
411.167
413.015
423.427
423.028
417.529
409.602
405.869
405.129
406.222
407.613
410.206
414.074
394.988
353.996
301.229
294.509
311.488
326.522
339.724
366.301
399.402
413.133
201.932
85.5885
20.837
16.78
24.5798
29.3821
36.5945
61.8948
155.549
337.791
45.1894
0.0319599
0.0290817
0.0817008
0.100486
0.120723
0.112862
0.158056
4.61462
64.8232
4.25313
0.0452841
0.0540109
0.0887961
0.101966
0.107313
0.096372
0.108267
0.037583
0.0211593
0.100054
0.0942246
0.100008
0.100234
0.102565
0.0970384
0.0796253
0.0658287
0.0327732
0.0275855
0.126193
0.104004
0.11188
0.102033
0.100924
0.0919497
0.0684325
0.0497106
0.0268881
0.0435986
0.139751
0.119245
0.11378
0.104522
0.10215
0.0942486
0.0761502
0.0572383
0.0306993
0.0651561
0.161621
0.234498
0.114336
0.10925
0.107732
0.103497
0.0955113
0.0933941
0.0695495
0.0945395
0.0965802
0.340874
0.117265
0.116787
0.116489
0.115309
0.112178
0.132769
0.136812
0.129847
0.145939
0.349665
0.12335
0.124303
0.124698
0.124542
0.12472
0.135336
0.158312
0.156822
0.17542
0.239168
0.128398
0.12981
0.130345
0.130258
0.131026
0.133025
0.13604
0.135353
0.128831
0.167974
0.131178
0.133071
0.133539
0.133267
0.133505
0.134371
0.135038
0.133495
0.123349
0.169263
0.131567
0.134912
0.135336
0.134958
0.134754
0.134914
0.135019
0.134408
421.028
421.6
420.899
419.998
418.581
417.136
415.916
415.032
414.527
414.333
421.521
422.131
421.611
420.482
418.859
417.196
415.864
414.955
414.476
414.315
422.122
423.278
422.94
421.348
419.248
417.214
415.681
414.746
414.324
414.242
422.896
424.909
424.936
422.467
419.451
416.896
415.185
414.337
414.149
414.311
423.221
426.83
427.482
423.318
418.877
415.786
414.04
413.508
413.738
414.382
420.976
428.216
430.176
422.935
416.297
413.062
411.845
412.157
413.452
415.422
410.8
424.851
426.858
413.03
407.122
406.696
407.778
409.966
413.095
417.254
403.902
417.497
330.233
235.95
276.985
325.561
349.82
378.733
411.328
421.534
412.445
344.607
65.7156
1.18915
10.6056
29.2074
42.3069
72.4712
184.719
371.461
417.064
73.627
-0.0272352
0.0951793
0.0999073
0.120214
0.12742
0.183285
10.7128
99.7351
219.741
0.409916
0.00585297
0.0726123
0.102723
0.113807
0.102903
0.114685
0.0395272
0.0357478
41.6913
0.100633
0.0685799
0.0837797
0.10367
0.101111
0.087489
0.0776614
0.0392523
0.0381017
25.0562
0.0933342
0.0880392
0.08845
0.094957
0.0906654
0.0697469
0.0557774
0.0254048
0.050422
35.7447
0.0776046
0.0871975
0.0921573
0.0857202
0.0897619
0.0704468
0.0652075
0.029463
0.0613237
41.0823
0.0801699
0.0889626
0.0949141
0.0894735
0.0943587
0.0863942
0.0911363
0.0819562
0.089067
40.5267
0.0758667
0.0954403
0.103916
0.1024
0.106318
0.104586
0.114377
0.120883
0.11533
35.8772
0.0972651
0.109558
0.11837
0.117245
0.118617
0.119266
0.122966
0.131411
0.135227
38.9381
0.114713
0.121225
0.129192
0.127467
0.127499
0.128312
0.130455
0.13192
0.133626
59.4744
0.129996
0.128352
0.134791
0.132652
0.132381
0.132557
0.133742
0.134212
0.132483
74.3899
0.13886
0.132576
0.137467
0.135619
0.135212
0.134824
0.135003
0.13509
0.134218
418.699
422.805
422.189
421.054
419.348
417.753
416.472
415.555
415.032
414.832
413.194
423.066
423.187
421.82
419.813
417.906
416.47
415.521
415.021
414.857
407.555
424.473
424.862
423.141
420.542
418.125
416.397
415.395
414.962
414.872
404.385
426.491
427.584
424.932
421.231
418.096
416.057
415.1
414.907
415.076
397.639
428.171
431.393
426.578
421.11
417.295
415.114
414.447
414.679
415.344
373.452
427.978
435.867
427.271
418.689
414.555
413.07
413.357
414.693
416.742
348.35
423.896
434.417
414.655
407.135
407.208
408.549
411.095
414.607
418.895
339.25
421.797
347.49
190.064
236.364
316.633
354.526
386.412
415.758
424.276
412.828
437.258
137.965
4.54172
2.90687
22.1122
43.9852
79.9492
203.054
385.983
421.257
453.514
46.5963
0.35467
0.166591
0.129033
0.144189
0.231483
13.0102
119.48
503.95
257.547
11.9671
0.0864412
0.12946
0.122523
0.112204
0.116921
0.0493185
0.0325511
553.38
76.1387
0.0250507
0.0644178
0.110414
0.104244
0.0981874
0.0893887
0.0468187
0.0380258
595.447
41.3733
0.0761051
0.0723083
0.191374
0.10318
0.0820747
0.0658579
0.0228344
0.0492624
639.389
31.1032
0.081012
0.0843607
0.367107
0.145613
0.0745911
0.0664507
0.0321607
0.0587236
479.551
10.1877
0.0768001
0.0833287
0.396163
0.164471
0.0874389
0.0879531
0.0805197
0.0861713
238.526
0.0655927
0.0846284
0.108653
0.260303
0.143953
0.0997545
0.109279
0.121891
0.112878
164.982
0.122079
0.114319
0.154255
0.153364
0.125465
0.114577
0.118292
0.124668
0.126621
194.061
0.146807
0.132453
0.128456
0.125442
0.127457
0.125391
0.127633
0.128986
0.129052
252.58
0.147675
0.138567
0.135475
0.132828
0.131516
0.131296
0.132336
0.132871
0.13153
215.008
0.15028
0.136957
0.138144
0.135994
0.134936
0.134321
0.134386
0.134418
0.133627
418.67
421.278
421.831
420.986
419.371
417.812
416.542
415.624
415.098
414.897
413.207
421.317
422.854
421.801
419.846
417.965
416.545
415.593
415.089
414.923
407.285
424.744
424.835
423.234
420.655
418.209
416.481
415.476
415.037
414.944
402.634
426.971
427.891
425.274
421.505
418.262
416.172
415.194
414.989
415.154
396.593
428.741
432.054
427.493
421.701
417.592
415.281
414.555
414.773
415.437
376.797
428.208
436.356
428.625
419.682
414.963
413.272
413.442
414.82
416.874
347.807
423.551
433.583
414.772
407.103
407.242
408.6
411.256
414.756
419.037
350.927
421.532
358.173
188.817
223.567
305.263
351.193
386.259
415.88
424.311
409.804
438.171
139.301
3.73366
0.711527
16.4188
39.7476
78.2412
203.701
385.834
432.721
414.98
39.756
0.281576
0.158745
0.128413
0.143493
0.22848
12.8326
119.798
490.913
150.32
7.50396
0.113371
0.138942
0.125197
0.112418
0.112634
0.0431094
0.027787
451.568
7.76758
0.61228
0.369868
0.130247
0.109813
0.100137
0.0851795
0.0428357
0.035542
359.568
5.52551
0.153353
1.75492
0.745102
0.105082
0.0911518
0.0649434
0.0258192
0.0494479
385.787
17.3351
0.134809
1.95427
1.94776
0.232193
0.0787441
0.0706366
0.0421302
0.0606398
494.281
28.0167
0.161202
1.33552
2.10447
0.383026
0.0897689
0.0929174
0.0863994
0.0879405
542.648
33.2984
0.133365
0.117816
1.72004
0.367098
0.101604
0.107041
0.127409
0.116712
582.521
19.2085
0.116509
0.131828
0.10656
0.267596
0.113498
0.117293
0.125669
0.12954
613.231
5.77942
0.130391
0.144513
0.128567
0.138079
0.124182
0.12607
0.127715
0.128064
399.087
4.98537
0.140032
0.146519
0.135887
0.135278
0.130604
0.131089
0.131665
0.130585
47.9661
1.44595
0.135098
0.140613
0.137013
0.135233
0.133817
0.133551
0.13342
0.132739
421.313
422.397
421.395
420.373
418.876
417.396
416.15
415.245
414.727
414.527
421.781
422.763
422.171
420.895
419.177
417.472
416.111
415.177
414.68
414.512
423.534
424.132
423.607
421.836
419.634
417.528
415.953
414.987
414.545
414.454
424.994
426.389
425.953
423.162
419.977
417.293
415.496
414.597
414.382
414.535
426.121
429.386
429.146
424.42
419.626
416.291
414.404
413.8
413.993
414.64
424.861
432.238
432.603
424.445
417.242
413.602
412.236
412.508
413.78
415.747
418.526
429.418
428.718
413.822
407.667
406.919
407.877
410.137
413.413
417.701
411.015
419.79
327.98
237.703
275.023
321.909
348.729
379.565
411.78
421.021
427.177
333.223
60.4163
0.878606
9.971
26.8844
40.9962
72.7179
186.718
370.77
430.986
73.0627
0.0295992
0.0993651
0.0999919
0.115959
0.122665
0.17743
10.6749
99.0987
207.179
1.52176
0.0334255
0.0842633
0.100664
0.108139
0.0943757
0.100991
0.0280014
0.0250624
11.6591
0.0664335
0.0818471
0.0914402
0.0956341
0.0954666
0.0784741
0.0645923
0.0281025
0.0337401
4.46677
0.106205
0.108
0.137785
0.104648
0.0868648
0.072295
0.0501434
0.0238136
0.0528751
21.7997
0.100953
0.124962
0.21983
0.152765
0.0893069
0.0839811
0.0790537
0.0466623
0.067486
32.6858
0.0934378
0.121622
0.246015
0.238217
0.0984319
0.0939427
0.106693
0.0975067
0.0929759
48.2877
0.0878237
0.115135
0.264502
0.226416
0.108606
0.106982
0.117081
0.128916
0.119427
75.2446
0.105964
0.141639
0.191056
0.254179
0.116109
0.117247
0.119991
0.125475
0.128291
95.0495
0.149954
0.181138
0.137561
0.138057
0.12484
0.125041
0.126608
0.127489
0.126898
86.5645
0.169221
0.155859
0.137011
0.132144
0.130585
0.129777
0.130391
0.130698
0.129502
23.4237
0.152446
0.141009
0.137249
0.134301
0.133247
0.132486
0.132352
0.132187
0.131538
421.013
420.989
420.481
419.369
417.958
416.542
415.346
414.472
413.97
413.774
421.881
421.732
421.085
419.734
418.095
416.513
415.226
414.328
413.848
413.677
423.377
423.022
422.136
420.294
418.223
416.351
414.919
413.991
413.548
413.459
425.743
425.046
423.654
420.905
418.081
415.8
414.244
413.394
413.164
413.277
428.74
427.775
425.322
421.044
417.157
414.432
412.855
412.281
412.424
413.012
431.902
430.917
426.285
419.445
414.371
411.579
410.386
410.522
411.634
413.509
429.46
427.852
419.37
410.899
406.862
405.671
406.459
407.908
410.664
414.885
376.276
330.87
289.535
298.206
317.703
329.617
341.169
367.629
399.401
411.919
164.203
63.1646
15.2001
18.8256
27.4819
31.2802
38.2914
64.2024
158.596
335.844
41.7471
0.0631516
0.0496996
0.0864032
0.0936406
0.107814
0.0984453
0.132808
4.99346
62.6453
5.57619
0.0365182
0.0590053
0.088662
0.0944055
0.0960712
0.0787002
0.0860704
0.0152444
0.0035625
0.0655528
0.788749
0.0922903
0.0951886
0.0959743
0.0872677
0.0655992
0.0516494
0.0169411
0.0197012
0.327885
0.0893181
0.1017
0.0951178
0.0941765
0.0844366
0.06354
0.0419566
0.0249546
0.0476672
4.62865
0.0931878
0.106311
0.0986785
0.0964376
0.0905969
0.0800418
0.0738762
0.0482334
0.0719312
8.84231
0.0877324
0.109106
0.104264
0.101348
0.101231
0.0968132
0.107118
0.106705
0.0967166
8.51539
0.0900261
0.114228
0.111666
0.109585
0.111224
0.111839
0.1165
0.122365
0.120253
1.77476
0.113026
0.213199
0.120094
0.11833
0.119219
0.12079
0.122993
0.123887
0.125807
0.212512
0.161516
0.325231
0.128542
0.125896
0.125433
0.125998
0.127404
0.127692
0.125425
0.159484
0.65464
0.330654
0.131768
0.12994
0.129122
0.128858
0.12934
0.129664
0.1283
0.0814592
0.989976
0.155467
0.131193
0.131583
0.131238
0.130804
0.13075
0.130632
0.12996
419.902
419.706
419.074
418.007
416.679
415.362
414.244
413.416
412.932
412.733
420.483
420.142
419.404
418.147
416.652
415.211
414.017
413.16
412.688
412.52
421.501
420.897
419.893
418.278
416.483
414.839
413.518
412.621
412.176
412.067
422.98
421.912
420.402
418.177
415.906
414
412.585
411.718
411.415
411.471
424.349
422.703
420.399
417.332
414.473
412.293
410.862
410.176
410.161
410.595
425.129
422.446
418.705
414.603
411.326
409.181
407.954
407.771
408.546
410.005
415.756
413.071
410.201
407.064
404.658
403.717
403.772
404.629
406.558
409.766
209.109
232.979
290.135
321.122
325.531
325.637
327.974
351.531
379.961
391.948
4.17101
1.24214
14.7952
30.2731
30.0741
27.5999
33.9087
54.9556
117.149
265.094
0.285459
0.0802979
0.0657633
0.0949256
0.0902152
0.0912634
0.0706346
0.0925717
0.187166
25.3736
0.0566868
0.0627128
0.0745864
0.0872771
0.0864327
0.0791279
0.0586487
0.0558666
0.00166777
-0.017692
0.0761299
0.0887
0.096465
0.0960158
0.0886962
0.0760217
0.0544802
0.034208
-0.00215135
-0.0228098
0.109983
0.100249
0.105754
0.0942973
0.0908933
0.0813112
0.0633274
0.0434832
0.0216593
0.0327219
0.116852
0.106545
0.10764
0.102596
0.100239
0.0936892
0.0832138
0.0707737
0.0581523
0.0737233
0.125925
0.109693
0.11457
0.110142
0.109622
0.107037
0.103476
0.10451
0.0980469
0.104752
0.84803
0.167176
0.12009
0.116179
0.116956
0.116964
0.117597
0.123882
0.139001
0.136591
2.0285
0.248359
0.187855
0.121184
0.121888
0.122679
0.124182
0.126671
0.130251
0.126456
1.27979
0.173217
0.301422
0.125254
0.125552
0.125937
0.126672
0.127831
0.127662
0.12457
0.0982268
0.419253
0.352174
0.126704
0.127631
0.127649
0.127572
0.127874
0.127868
0.126475
0.0952776
0.430312
0.26545
0.127032
0.128805
0.128853
0.128466
0.128376
0.128339
0.127706
418.254
418.069
417.467
416.465
415.253
414.046
413.003
412.208
411.731
411.532
418.55
418.276
417.559
416.422
415.084
413.771
412.655
411.824
411.351
411.18
419.04
418.553
417.598
416.221
414.677
413.197
411.945
411.043
410.557
410.414
419.503
418.648
417.33
415.599
413.764
412.079
410.7
409.749
409.309
409.262
419.319
417.986
416.24
414.107
411.949
410.066
408.593
407.655
407.333
407.511
417.162
415.326
413.287
410.887
408.606
406.568
405.163
404.488
404.606
405.341
406.207
405.856
405.562
404.098
402.654
401.854
400.677
400.553
401.007
402.672
230.31
264.699
306.864
321.824
319.914
315.879
316.712
328.88
341.071
342.106
0.827745
5.71402
22.2227
28.8678
25.8851
23.1661
30.449
43.8961
69.9022
163.365
0.126556
0.0957819
0.092602
0.0964248
0.0814072
0.0704555
0.0423817
0.0431381
0.0382848
2.86386
0.10275
0.0979439
0.0921569
0.0902179
0.077736
0.060436
0.0310842
0.0264015
-0.0463776
-0.0505615
0.0941611
0.0985285
0.101242
0.0954003
0.0833534
0.0665888
0.0440818
0.0122353
-0.0321337
-0.0245896
0.0982322
0.0999953
0.101855
0.0922834
0.0883834
0.0807436
0.0690695
0.0579491
0.0278193
0.0370015
0.104741
0.103278
0.10332
0.101768
0.101023
0.0982295
0.0915554
0.0836414
0.0712379
0.0795226
0.113379
0.10972
0.112173
0.111205
0.112149
0.112881
0.11089
0.108658
0.107114
0.10774
0.123859
0.114563
0.119572
0.118412
0.119804
0.121935
0.123645
0.124618
0.135205
0.139172
0.177389
0.117152
0.123881
0.122731
0.12395
0.125783
0.127493
0.128566
0.130361
0.125762
0.580336
0.143937
0.125404
0.124914
0.125898
0.126816
0.127247
0.126743
0.126365
0.123901
0.565923
0.227964
0.124613
0.125629
0.126511
0.126533
0.125752
0.124853
0.123869
0.123678
0.107675
0.115559
0.12392
0.125966
0.126964
0.126481
0.124995
0.123881
0.123642
0.12506
416.734
416.549
415.95
415.01
413.893
412.768
411.77
410.984
410.503
410.302
416.778
416.552
415.878
414.839
413.611
412.384
411.308
410.477
409.982
409.804
416.814
416.466
415.635
414.428
413.025
411.617
410.371
409.412
408.85
408.666
416.605
416.039
414.971
413.534
411.89
410.252
408.791
407.657
407
406.825
415.698
414.82
413.464
411.759
409.853
407.963
406.218
404.832
404.025
403.875
413.05
411.95
410.46
408.564
406.331
404.206
402.228
400.723
399.803
399.667
405.562
405.147
404.345
402.901
401.6
399.146
397.055
395.196
390.33
390.076
302.516
312.945
321.498
320.548
313.74
307.635
300.377
282.477
262.193
250.735
15.1948
21.5105
27.2725
25.7943
22.9545
23.9868
27.465
30.3868
35.2871
68.1618
0.116057
0.114326
0.109401
0.0966071
0.0738013
0.0362043
-0.0290992
-0.0721276
-0.0714787
0.135264
0.111251
0.104854
0.0958289
0.0834627
0.0630076
0.035667
-0.0108968
-0.0439438
-0.129505
-0.0685862
0.101829
0.094685
0.0875558
0.0799364
0.0669662
0.0514091
0.0513993
0.031219
-0.0394503
-0.0175776
0.0989727
0.090342
0.0868031
0.0857847
0.0842183
0.0825132
0.0876906
0.14396
0.107577
0.0576362
0.0981363
0.0948879
0.0955681
0.0979438
0.101753
0.105952
0.108615
0.157125
0.187275
0.0966085
0.108052
0.106053
0.108383
0.110833
0.115503
0.120881
0.123634
0.131836
0.16973
0.135605
0.121375
0.115862
0.118608
0.119908
0.123552
0.128144
0.130919
0.129846
0.141307
0.148506
0.126456
0.120202
0.123615
0.124244
0.126501
0.129583
0.131261
0.129058
0.127254
0.126328
0.124457
0.121791
0.124858
0.125466
0.12666
0.128067
0.12809
0.125186
0.123436
0.121557
0.200145
0.123286
0.124507
0.125406
0.12574
0.125254
0.123652
0.121287
0.118132
0.117112
0.116685
0.119687
0.124134
0.125327
0.125236
0.123267
0.120348
0.119161
0.116165
0.117065
415.527
415.311
414.711
413.812
412.75
411.662
410.674
409.879
409.384
409.18
415.464
415.222
414.559
413.569
412.394
411.199
410.122
409.259
408.729
408.543
415.271
414.968
414.191
413.039
411.674
410.26
408.953
407.894
407.243
407.02
414.792
414.377
413.431
412.06
410.411
408.676
407.013
405.604
404.681
404.376
413.739
413.14
411.942
410.28
408.279
406.097
403.837
401.842
400.506
400.008
411.682
410.854
409.382
407.326
404.822
402.076
399.162
396.464
394.372
393.436
407.099
406.492
405.242
402.907
400.069
396.729
392.59
378.541
360.624
353.703
348.781
344.597
336.557
323.014
310.429
296.583
262.769
214.649
176.827
161.817
37.2338
37.1726
35.4506
33.0364
30.937
28.4336
23.8375
18.9818
11.5677
9.00177
0.138684
0.128422
0.106265
0.0839143
0.0504215
-0.0257443
-0.129465
-0.183634
-0.170744
0.317992
0.104062
0.0963296
0.0824673
0.0643709
0.0321254
-0.0206935
-0.0952933
-0.155282
-0.160526
-0.0364848
0.100901
0.0813676
0.0687219
0.0581232
0.0398081
0.0269443
0.0561204
0.087404
0.016742
0.0293362
0.0925476
0.0807352
0.0685076
0.0713892
0.0767528
0.0878938
0.124778
0.215662
0.186376
0.0952215
0.100506
0.0943052
0.0851606
0.0895077
0.102373
0.119755
0.138614
0.21803
0.286841
0.146344
0.106997
0.106602
0.101989
0.106708
0.11793
0.131676
0.143083
0.164635
0.289446
0.310867
0.116961
0.115008
0.116752
0.120086
0.126942
0.134941
0.141919
0.141843
0.177504
0.216455
0.126337
0.122315
0.124075
0.125499
0.128925
0.133294
0.136287
0.133792
0.12954
0.127656
0.127422
0.12404
0.125595
0.12611
0.127364
0.129196
0.129959
0.124414
0.120002
0.119025
0.122827
0.12306
0.125233