/*--------------------------------*- C++ -*----------------------------------*\
| =========                 |                                                 |
| \\      /  F ield         | OpenFOAM: The Open Source CFD Toolbox           |
|  \\    /   O peration     | Version:  2312                                  |
|   \\  /    A nd           | Website:  www.openfoam.com                      |
|    \\/     M anipulation  |                                                 |
\*---------------------------------------------------------------------------*/
FoamFile
{
    version     2.0;
    format      ascii;
    arch        "LSB;label=32;scalar=64";
    class       surfaceScalarField;
    location    "1.34";
    object      alphaPhi0.water;
}
// * * * * * * * * * * * * * * * * * * * * * * * * * * * * * * * * * * * * * //

dimensions      [0 3 -1 0 0 0 0];

oriented        oriented;

internalField   nonuniform List<scalar> 
22600
(
8.37811e-08
-1.79187e-07
9.54056e-08
1.8336e-07
-1.12508e-07
1.29286e-08
2.87399e-07
-2.14474e-08
-8.25917e-08
3.66141e-07
7.5352e-09
-8.62771e-08
3.826e-07
-1.93902e-08
2.93148e-09
3.36721e-07
-4.38127e-08
8.96919e-08
2.55161e-07
-4.13268e-08
1.22886e-07
1.61792e-07
-3.70892e-08
1.30458e-07
7.72865e-08
-4.50042e-08
1.2951e-07
-6.34621e-08
1.207e-07
1.5746e-07
-4.53408e-07
1.16762e-07
2.54301e-07
-4.06931e-07
1.97582e-07
2.67442e-07
-1.82435e-07
1.47847e-07
2.92235e-07
-6.50969e-08
4.78395e-08
3.14545e-07
-4.91721e-08
7.47165e-09
2.83018e-07
-7.21242e-08
5.98385e-08
2.12831e-07
-8.28811e-08
1.11742e-07
1.25339e-07
-8.34696e-08
1.33872e-07
5.07204e-08
-1.18694e-07
1.48308e-07
-2.16943e-07
1.74173e-07
2.8236e-07
-9.89685e-07
2.53917e-07
4.30291e-07
-9.90561e-07
4.35698e-07
3.5354e-07
-5.13477e-07
4.07793e-07
2.59134e-07
-3.13309e-07
3.42618e-07
2.44768e-07
-2.35239e-07
2.00432e-07
2.4496e-07
-1.93914e-07
1.21599e-07
1.77455e-07
-1.58957e-07
1.43581e-07
6.56375e-08
-1.67526e-07
1.95874e-07
2.38918e-08
-3.53669e-07
2.76721e-07
-5.83932e-07
3.45023e-07
2.65263e-07
-1.74954e-06
4.94597e-07
5.11116e-07
-1.80115e-06
5.64734e-07
4.66877e-07
-1.03332e-06
5.64082e-07
3.21806e-07
-6.9747e-07
5.29232e-07
2.50763e-07
-5.77656e-07
4.13462e-07
2.07299e-07
-4.39075e-07
2.88624e-07
1.26445e-07
-3.55252e-07
2.77148e-07
8.94808e-08
-4.77275e-07
3.46713e-07
9.90543e-08
-8.07791e-07
4.44548e-07
-9.69267e-07
4.39882e-07
1.75222e-07
-2.38724e-06
4.62474e-07
4.16541e-07
-2.43227e-06
3.89803e-07
4.42745e-07
-1.64205e-06
5.82529e-07
3.65665e-07
-1.24034e-06
6.19951e-07
3.21789e-07
-1.081e-06
5.47217e-07
2.94583e-07
-8.87259e-07
4.7539e-07
2.95848e-07
-8.19436e-07
4.62918e-07
3.16082e-07
-9.85034e-07
4.87525e-07
2.21625e-07
-1.17994e-06
4.66601e-07
-1.18188e-06
3.93213e-07
2.32159e-07
-2.70916e-06
8.98474e-08
4.62951e-07
-2.69093e-06
2.79482e-08
5.8514e-07
-2.14078e-06
3.76569e-07
6.11206e-07
-1.79262e-06
5.26223e-07
5.98232e-07
-1.58516e-06
5.17142e-07
5.74443e-07
-1.38102e-06
5.17556e-07
5.45429e-07
-1.31388e-06
5.23467e-07
4.34701e-07
-1.36738e-06
4.93076e-07
2.32269e-07
-1.37756e-06
4.0006e-07
-1.32013e-06
3.08232e-07
2.07799e-07
-2.85679e-06
-5.83836e-08
4.02028e-07
-2.76367e-06
-1.19778e-07
5.54473e-07
-2.38175e-06
8.94665e-08
5.89482e-07
-2.09451e-06
2.67435e-07
5.56184e-07
-1.88116e-06
3.29678e-07
4.94733e-07
-1.70685e-06
3.87567e-07
3.87217e-07
-1.62255e-06
4.16426e-07
2.21882e-07
-1.5723e-06
3.70482e-07
9.282e-08
-1.52086e-06
2.72554e-07
-1.47897e-06
2.07079e-07
8.06806e-08
-1.60175e-06
1.13241e-07
2.61025e-07
-1.64767e-06
4.08322e-08
3.93296e-07
-1.68218e-06
1.67672e-07
3.56278e-07
-1.63519e-06
3.37831e-07
2.2629e-07
-1.46568e-06
3.65203e-07
6.19822e-08
-1.23915e-06
3.2392e-07
-9.00657e-08
-1.04904e-06
2.73383e-07
-1.80654e-07
-9.02986e-07
2.09982e-07
-1.67924e-07
-8.29834e-07
1.56254e-07
-8.11597e-07
1.46052e-07
5.5115e-08
-1.35297e-10
2.20282e-08
1.2484e-07
-1.26496e-10
5.86128e-08
2.25432e-07
-1.25032e-10
1.44519e-07
2.46767e-07
-4.0127e-11
2.14377e-07
1.79589e-07
-2.81981e-11
2.06535e-07
7.08145e-08
-2.32201e-11
1.34285e-07
-3.86164e-09
-1.83254e-11
5.76039e-08
-4.41833e-08
-1.75905e-11
4.37625e-08
-6.81234e-08
-2.32445e-11
6.32538e-08
-2.8286e-11
7.06457e-08
1.38112e-11
-1.28914e-10
-1.74253e-11
1.82814e-11
-1.25913e-10
1.595e-12
1.26741e-11
-1.1628e-10
6.82684e-12
5.31922e-12
-2.90185e-11
5.9508e-12
1.7864e-12
-2.08394e-11
5.43172e-12
-5.28831e-13
-1.49839e-11
2.72384e-12
-1.69273e-12
-7.07678e-12
-1.97136e-12
-4.28016e-12
-6.90935e-12
-7.35916e-13
-9.19345e-12
-1.3476e-11
3.25816e-12
-1.83611e-11
2.94588e-12
3.08975e-11
-1.36846e-10
-1.31176e-10
1.54598e-11
-1.08682e-10
9.75982e-13
-4.22315e-12
-2.19898e-10
1.90451e-11
-1.32437e-11
-1.40658e-11
2.85954e-12
-1.23769e-11
-1.15846e-11
-2.53374e-12
-1.09313e-11
-2.07356e-12
-6.45689e-12
-8.15126e-12
1.63117e-12
-3.53877e-12
-8.6931e-12
3.98932e-13
-4.63166e-13
-1.2739e-11
-3.36387e-12
2.04694e-12
-5.7703e-12
4.8538e-13
2.44561e-11
-2.84087e-10
-4.28564e-10
-2.5059e-10
-4.34002e-10
2.48242e-11
-9.00514e-11
-1.64634e-10
3.88035e-11
-5.0986e-11
-3.69774e-11
-6.44424e-12
-2.38762e-11
-3.33851e-11
-1.7094e-11
-7.91985e-12
1.0295e-11
-2.21102e-12
-4.18056e-12
6.37618e-12
-6.58587e-12
-2.34919e-12
3.35301e-12
4.25583e-13
-1.34746e-11
1.10358e-12
5.85455e-12
-2.16061e-13
8.36768e-14
-6.17625e-11
-2.96404e-11
-4.86807e-10
-6.25185e-10
-5.74254e-10
3.05871e-11
-2.21555e-10
-1.80516e-10
5.21851e-11
-3.06253e-10
-5.44755e-11
3.24729e-11
-3.03169e-10
-1.8719e-10
7.72988e-12
-1.00349e-11
-1.06537e-11
-1.60926e-11
-5.97444e-12
4.17323e-12
-2.78141e-12
-8.99954e-12
3.04502e-12
2.48039e-12
-1.58145e-11
1.09979e-12
6.09698e-12
-4.95086e-13
9.13348e-12
7.30039e-11
2.06585e-10
-3.49854e-10
-4.74953e-10
-5.75245e-10
6.76879e-11
-2.85481e-10
-1.13299e-10
1.0989e-10
-4.67839e-10
-9.0955e-12
9.34893e-11
-4.72172e-10
-2.36545e-11
1.01727e-10
-1.62462e-11
-1.69984e-11
4.08416e-11
-1.72308e-11
2.39196e-12
1.60423e-12
-1.98568e-11
3.18063e-12
1.50667e-12
-2.16204e-11
5.19917e-13
8.75346e-13
-4.75608e-11
1.97912e-12
1.20253e-10
1.98603e-10
-2.51755e-10
1.95591e-11
-5.04689e-10
1.04292e-10
-1.19717e-11
-7.81849e-11
1.43161e-10
-1.58252e-11
-5.37163e-12
6.18567e-12
-3.94484e-11
-1.12558e-11
1.21139e-11
-2.14167e-11
-3.05834e-12
3.624e-11
-1.9669e-11
2.59616e-12
6.62701e-14
-2.42388e-11
7.41306e-12
-1.13075e-12
-2.03528e-10
-1.62927e-11
-2.19938e-12
-3.91944e-10
6.42174e-11
4.47327e-10
1.42664e-12
-1.59933e-11
3.82312e-10
-6.92061e-10
2.55288e-10
-1.7185e-11
-8.41339e-11
1.88549e-10
-1.61329e-11
-1.37438e-11
4.90164e-12
-1.55363e-11
-2.46493e-11
1.00914e-11
-2.56555e-11
8.14618e-13
4.0808e-12
-2.96748e-11
7.32293e-12
-2.78742e-12
-3.61473e-10
3.27189e-11
-1.25088e-11
-1.07424e-09
-1.37116e-10
6.42392e-11
-4.95828e-10
1.73034e-10
6.73189e-10
-6.4784e-10
-1.61937e-11
5.60241e-10
-7.62459e-10
1.89451e-10
4.43164e-11
1.21024e-10
7.83009e-11
-9.43164e-11
1.54986e-11
3.22641e-11
-1.45904e-11
-8.01469e-11
5.61829e-11
-2.16713e-11
1.21677e-12
5.06834e-12
-6.42765e-11
6.41673e-12
4.21113e-11
-5.40529e-10
1.37685e-11
7.83948e-11
-8.33456e-10
-1.04908e-10
1.87269e-10
-2.4559e-10
6.88517e-11
4.85089e-10
-8.01178e-10
-3.2714e-10
1.23578e-10
-2.9226e-11
-3.67237e-10
-8.01085e-11
1.9214e-10
-1.05222e-10
-1.53777e-10
-6.69242e-12
4.14383e-11
-1.32601e-10
-1.76841e-10
1.00203e-10
-1.0591e-11
-2.44102e-11
3.56316e-11
-1.31644e-11
2.32098e-14
7.59156e-12
-2.84388e-11
-1.01944e-12
2.48676e-11
-1.35883e-10
-7.51913e-12
2.5996e-11
-2.9638e-11
-4.42973e-12
5.81557e-11
-3.14573e-10
-5.39444e-10
-4.1445e-10
3.73e-10
-6.0278e-10
-4.10343e-10
-3.80972e-12
1.72318e-11
-3.70518e-10
-1.20005e-10
7.68358e-11
-3.43068e-10
-3.115e-10
1.24135e-10
-4.94738e-11
-2.07907e-10
1.01494e-10
-1.20779e-11
-4.59856e-11
7.24584e-12
-1.77498e-11
-2.10107e-12
5.38652e-12
-2.85516e-11
-2.73386e-12
4.64948e-12
-5.62841e-12
-1.14666e-11
-1.10219e-10
-4.27025e-10
2.26666e-10
-1.79738e-10
-9.51449e-11
4.37313e-11
-3.16746e-10
5.32165e-11
-3.3508e-13
-3.94258e-10
1.42288e-10
-1.67855e-10
-4.1288e-10
1.21209e-10
-3.97162e-10
-3.53174e-10
1.23817e-10
-3.74504e-10
-3.7956e-11
7.35227e-11
-1.64821e-10
-2.20277e-11
4.71575e-12
-2.41122e-11
-2.89047e-11
3.12299e-12
-1.37798e-12
-1.46397e-11
-1.18448e-12
3.19506e-08
-1.36789e-07
2.00244e-07
1.87601e-07
-2.78821e-07
1.36099e-07
3.75473e-07
-3.13899e-07
4.34359e-08
4.96687e-07
-1.92192e-07
-1.52982e-08
5.25617e-07
-8.05932e-08
5.45945e-08
4.81434e-07
-4.68204e-08
1.80695e-07
3.90646e-07
-4.48999e-08
2.58575e-07
2.74371e-07
-4.11288e-08
2.87861e-07
1.45883e-07
-3.73764e-08
2.95374e-07
-5.72721e-08
2.88255e-07
2.48022e-07
-4.83319e-07
2.1527e-07
5.94203e-07
-9.44152e-07
5.16729e-07
6.72384e-07
-8.02276e-07
5.58032e-07
6.0604e-07
-4.52047e-07
3.74032e-07
5.46973e-07
-1.80906e-07
1.66851e-07
4.7191e-07
-6.93762e-08
1.57458e-07
3.68973e-07
-7.47372e-08
2.44517e-07
2.5392e-07
-9.34163e-08
3.01212e-07
1.29445e-07
-8.88392e-08
3.24246e-07
-1.50769e-07
3.52164e-07
4.37981e-07
-1.0828e-06
4.15415e-07
7.71045e-07
-1.70221e-06
8.60692e-07
7.65433e-07
-1.30692e-06
9.18046e-07
5.80828e-07
-7.46473e-07
8.21648e-07
4.92098e-07
-3.89684e-07
4.97939e-07
4.66022e-07
-2.04634e-07
2.82933e-07
3.9669e-07
-1.57778e-07
2.95954e-07
2.53066e-07
-1.32853e-07
3.78935e-07
1.05262e-07
-1.34728e-07
4.70413e-07
-3.55168e-07
5.93245e-07
4.06199e-07
-1.66893e-06
6.74529e-07
5.43458e-07
-2.12477e-06
8.50043e-07
4.76893e-07
-1.6581e-06
9.81828e-07
3.46043e-07
-1.11759e-06
1.0312e-06
3.51704e-07
-7.82751e-07
8.00868e-07
3.98819e-07
-5.02854e-07
5.39728e-07
3.52408e-07
-3.26503e-07
4.92284e-07
2.35202e-07
-2.55119e-07
5.86185e-07
1.81532e-07
-3.51253e-07
7.14743e-07
-6.32082e-07
7.9966e-07
3.02383e-07
-2.01135e-06
5.02514e-07
3.67734e-07
-2.28771e-06
4.87398e-07
3.75444e-07
-1.9549e-06
8.71622e-07
3.71055e-07
-1.57596e-06
1.08271e-06
4.04293e-07
-1.28004e-06
1.01127e-06
4.52176e-07
-9.60848e-07
8.85501e-07
4.85552e-07
-7.34171e-07
8.37211e-07
5.24896e-07
-6.66956e-07
8.60019e-07
5.03681e-07
-7.19604e-07
8.56166e-07
-7.82281e-07
8.08155e-07
3.98991e-07
-2.38299e-06
6.2552e-08
4.91799e-07
-2.46086e-06
1.0835e-07
5.96217e-07
-2.17277e-06
4.90058e-07
7.19849e-07
-1.93469e-06
7.6134e-07
7.66297e-07
-1.66898e-06
8.59644e-07
7.90897e-07
-1.38176e-06
9.13872e-07
8.24916e-07
-1.16687e-06
9.22153e-07
8.15944e-07
-1.04384e-06
8.78937e-07
6.56452e-07
-9.45766e-07
7.85717e-07
-8.42695e-07
7.10865e-07
2.89067e-07
-2.73547e-06
6.56008e-09
2.8573e-07
-2.5561e-06
-1.98083e-08
4.10832e-07
-2.29503e-06
8.75435e-08
5.94593e-07
-2.12127e-06
2.70895e-07
6.99691e-07
-1.90158e-06
4.57617e-07
7.51355e-07
-1.66382e-06
6.1827e-07
7.55804e-07
-1.45686e-06
7.02196e-07
6.72869e-07
-1.29719e-06
7.06945e-07
4.98066e-07
-1.17741e-06
6.79141e-07
-1.06801e-06
6.65422e-07
-8.77315e-08
-1.51667e-06
3.78969e-07
-8.04479e-08
-1.55101e-06
2.74053e-07
1.05373e-07
-1.5971e-06
2.5845e-07
2.58375e-07
-1.55685e-06
3.87652e-07
2.87433e-07
-1.40407e-06
4.71132e-07
2.50729e-07
-1.20147e-06
4.94895e-07
1.83894e-07
-9.8645e-07
5.10887e-07
1.14264e-07
-8.1636e-07
5.04019e-07
7.52513e-08
-7.38521e-07
5.13171e-07
-7.0473e-07
5.51733e-07
-3.72823e-08
-5.60309e-10
1.37448e-07
-9.43608e-09
-1.8926e-10
2.00388e-07
9.13327e-08
-9.05461e-11
2.6627e-07
1.78657e-07
-4.63111e-11
3.13185e-07
1.59337e-07
-3.11261e-11
3.13109e-07
5.19558e-08
-2.1742e-11
2.4832e-07
-4.42328e-08
-2.08199e-11
1.77288e-07
-9.03199e-08
-2.01444e-11
1.76601e-07
-9.85027e-08
-3.02933e-11
2.01858e-07
-7.61446e-11
2.15628e-07
3.39221e-12
-5.92315e-10
1.3021e-11
1.57676e-12
-1.9069e-10
1.71002e-11
1.48178e-12
-8.71436e-11
1.46675e-11
2.05095e-12
-4.16561e-11
1.09005e-11
9.5765e-13
-2.22721e-11
7.3754e-12
-2.82729e-12
-6.52361e-12
5.47981e-13
-7.53089e-12
-1.5939e-12
-7.84892e-12
-1.34213e-11
-3.08466e-12
-3.79187e-12
-2.09459e-11
-1.33268e-11
2.44336e-12
-5.29328e-11
8.50096e-13
-1.23326e-10
-1.42022e-09
6.44022e-11
-7.42281e-11
-4.94924e-10
4.39645e-11
-3.13651e-11
-9.59108e-11
1.34167e-11
-2.20911e-11
-3.76345e-11
-5.2438e-13
-2.54934e-11
-1.89902e-12
-1.06203e-11
-5.54537e-11
2.38106e-11
-5.42331e-11
-5.23395e-11
4.70468e-11
-1.22165e-10
-3.10073e-11
1.26008e-11
-1.66514e-11
-3.03411e-11
4.93135e-13
-4.35265e-12
-2.74434e-11
-7.9228e-11
-8.08133e-10
-1.02127e-09
9.51663e-11
-9.34798e-10
-1.09138e-09
1.4032e-10
-5.17963e-10
-4.14821e-10
1.60248e-11
-2.03891e-10
-1.8632e-10
-1.53666e-11
-1.24187e-10
2.21245e-11
-7.25662e-11
-1.95585e-10
1.22914e-10
-1.70668e-10
-1.45375e-10
7.85763e-11
-9.18253e-11
-3.73555e-11
2.08373e-11
-1.42897e-11
-2.69124e-11
5.04431e-12
-9.8992e-12
-1.03908e-11
-7.62333e-11
-9.07531e-10
-3.84365e-10
-1.01643e-10
-1.173e-09
-5.42705e-10
1.80936e-11
-1.39252e-09
-3.44777e-10
2.80455e-11
-8.11041e-10
-5.43365e-10
2.26157e-12
-3.35416e-10
-1.04179e-10
-5.97334e-11
-8.57169e-11
2.35942e-10
-5.18252e-11
-4.38175e-11
2.19132e-11
-2.03179e-11
-1.64525e-11
1.90367e-11
4.11677e-12
-3.31584e-11
6.28016e-12
2.04985e-11
-5.78817e-12
8.85246e-12
-5.67558e-10
1.28902e-10
-1.80671e-10
-3.42192e-10
-2.2261e-10
3.00774e-11
-4.54576e-10
-1.28279e-10
-2.7141e-12
-7.96184e-10
-3.48786e-10
8.67201e-11
-5.1991e-10
-2.51918e-10
6.96892e-11
-1.92888e-10
1.80916e-10
2.16891e-11
-1.45846e-11
2.45845e-11
2.53354e-12
-1.55081e-11
1.66578e-11
3.34078e-12
-6.21379e-11
1.01484e-11
4.24411e-11
-8.2314e-11
7.70658e-11
-3.95303e-10
5.69603e-10
-1.86426e-10
-2.75243e-10
-1.30618e-10
3.08924e-11
-2.0256e-10
-6.08052e-11
4.41678e-12
-6.09459e-10
-1.87915e-11
6.73711e-11
-7.90969e-10
-8.57491e-11
1.27156e-10
-2.75814e-10
3.8174e-11
2.43068e-11
-2.25706e-11
3.75852e-11
2.90254e-12
-4.87562e-11
2.72887e-11
4.30633e-12
-2.68469e-10
9.59419e-13
6.08394e-11
-3.82993e-10
3.24075e-10
-1.4065e-10
2.63532e-10
-5.62409e-11
-2.74191e-10
-4.4699e-11
5.48666e-11
-2.69915e-11
-9.31778e-11
6.02228e-11
-3.78112e-11
-1.73912e-11
1.52503e-11
-1.41451e-10
-1.0418e-11
4.35026e-11
-1.10242e-11
4.33729e-12
1.00869e-11
-1.39334e-11
1.10208e-10
5.81071e-12
-6.3102e-10
7.02821e-11
5.5482e-11
-1.13027e-09
-1.89851e-10
2.29499e-10
-4.38901e-10
1.24045e-10
8.40661e-11
3.36072e-10
-1.09271e-12
-1.57629e-10
2.58328e-10
1.35726e-10
-1.72881e-10
9.63948e-12
7.3455e-12
-5.27375e-11
-2.19013e-11
1.85057e-11
-2.57735e-11
-2.57334e-12
8.42427e-12
-2.99614e-10
1.36373e-11
4.13098e-11
-1.03791e-09
9.1444e-11
2.58225e-10
-1.31607e-09
-5.54366e-12
3.14005e-10
-1.32951e-09
-1.5279e-10
1.45896e-10
-1.73907e-10
-1.44584e-10
3.28668e-10
5.60016e-10
-1.10654e-10
-2.53514e-10
4.69458e-10
1.89223e-11
-4.35621e-10
5.6143e-11
5.49973e-11
-1.94946e-10
-5.80206e-11
1.11898e-10
-6.15651e-11
-4.95417e-12
3.24758e-11
-8.81745e-11
3.15655e-12
7.98023e-12
-2.19154e-10
4.0866e-12
1.04862e-10
-2.49186e-10
-2.64516e-13
1.20326e-10
-2.24746e-10
-1.70732e-11
-2.25783e-11
-5.75897e-11
-4.14745e-10
-4.88052e-11
4.38169e-10
-3.64462e-10
-8.21036e-10
6.88463e-10
-3.92667e-11
-9.17792e-10
3.45562e-11
1.35436e-10
-4.59782e-10
-2.23143e-10
9.4314e-11
-8.96356e-11
-1.32034e-10
4.24443e-11
-2.16977e-11
-1.47504e-12
4.08176e-12
-2.35261e-11
1.43524e-12
8.04014e-12
-2.05407e-11
1.45221e-12
7.32016e-12
-1.96124e-10
8.84769e-12
-6.95649e-11
-1.33219e-11
-3.206e-10
-3.8801e-10
-2.58552e-10
6.66391e-10
-6.66459e-10
1.24495e-10
3.07411e-10
-7.60546e-10
1.26814e-10
1.27203e-11
-7.72476e-10
9.10785e-11
-2.07134e-10
-5.20127e-10
1.3403e-10
-3.80278e-10
-8.76231e-11
2.76877e-11
-1.45566e-10
-2.43601e-11
3.71691e-12
-1.55023e-13
-2.31905e-11
4.62409e-12
4.87276e-12
-1.29803e-10
-1.78928e-11
2.04089e-11
-2.12281e-10
3.41074e-11
-7.95742e-08
-4.27983e-08
3.22617e-07
1.20317e-07
-4.47963e-07
3.84172e-07
4.92159e-07
-7.44817e-07
4.16411e-07
7.20036e-07
-6.01467e-07
3.58298e-07
7.14423e-07
-2.71022e-07
3.31232e-07
5.7868e-07
-5.3367e-08
3.69805e-07
4.29519e-07
-7.63763e-09
4.15374e-07
2.87365e-07
-9.16788e-09
4.39184e-07
1.43536e-07
-1.02489e-08
4.49452e-07
-3.53989e-08
4.48654e-07
1.61134e-07
-2.48269e-07
2.59607e-07
6.16408e-07
-1.05314e-06
6.66665e-07
8.65254e-07
-1.31711e-06
8.81585e-07
8.86244e-07
-9.70293e-07
7.2192e-07
7.90205e-07
-4.637e-07
4.55577e-07
6.08881e-07
-7.71611e-08
3.62576e-07
4.21663e-07
1.57744e-08
4.08323e-07
2.72485e-07
-1.69709e-08
4.58193e-07
1.4013e-07
-3.79883e-08
4.84341e-07
-7.67382e-08
5.03735e-07
3.40213e-07
-5.49443e-07
3.76376e-07
7.32793e-07
-1.51241e-06
9.27332e-07
8.1292e-07
-1.63391e-06
1.1546e-06
7.33217e-07
-1.11575e-06
1.04674e-06
6.841e-07
-5.95953e-07
6.79309e-07
6.08072e-07
-1.71408e-07
4.53208e-07
4.79149e-07
-2.04758e-08
4.61127e-07
3.3364e-07
-2.72776e-08
5.3475e-07
1.62502e-07
4.58744e-09
5.98976e-07
-6.96782e-08
6.95612e-07
4.38308e-07
-8.61075e-07
5.47855e-07
5.31951e-07
-1.59284e-06
8.36424e-07
4.43921e-07
-1.67603e-06
1.11154e-06
4.08306e-07
-1.24655e-06
1.19757e-06
4.77235e-07
-7.89792e-07
9.25779e-07
5.35268e-07
-3.4505e-07
6.55336e-07
4.83153e-07
-9.3684e-08
6.17607e-07
3.25276e-07
5.34979e-09
7.11434e-07
1.59856e-07
6.45499e-08
8.202e-07
-9.69868e-08
9.382e-07
4.70401e-07
-1.2488e-06
4.19843e-07
5.05816e-07
-1.66151e-06
5.20422e-07
4.03827e-07
-1.64175e-06
9.39202e-07
4.0297e-07
-1.37448e-06
1.21151e-06
4.56364e-07
-1.01516e-06
1.18324e-06
5.41552e-07
-6.00626e-07
1.05589e-06
5.61826e-07
-2.86613e-07
1.00987e-06
4.80849e-07
-9.9094e-08
1.04544e-06
3.5649e-07
-1.75127e-08
1.06259e-06
-1.28779e-07
1.06047e-06
5.05817e-07
-1.88473e-06
1.92681e-07
6.49451e-07
-2.02856e-06
3.32731e-07
6.62262e-07
-1.80257e-06
6.37976e-07
6.96683e-07
-1.54848e-06
9.00937e-07
7.0767e-07
-1.24101e-06
1.07451e-06
7.38183e-07
-8.98613e-07
1.18135e-06
7.55454e-07
-5.94029e-07
1.2123e-06
6.94661e-07
-3.70945e-07
1.21158e-06
5.21485e-07
-2.28566e-07
1.16995e-06
-2.11544e-07
1.10637e-06
2.9034e-07
-2.39447e-06
2.2687e-07
3.63651e-07
-2.28961e-06
1.69714e-07
4.77834e-07
-2.0266e-06
1.97861e-07
5.82083e-07
-1.76464e-06
3.83175e-07
6.34844e-07
-1.48764e-06
6.51716e-07
6.69333e-07
-1.20465e-06
8.89953e-07
6.56422e-07
-9.19212e-07
1.04036e-06
5.69949e-07
-7.19833e-07
1.14234e-06
4.2199e-07
-6.03898e-07
1.20245e-06
-5.36342e-07
1.19647e-06
-8.96667e-08
-1.38758e-06
6.31241e-07
-7.25955e-08
-1.41606e-06
4.22083e-07
8.85166e-08
-1.42644e-06
2.91713e-07
2.14138e-07
-1.3208e-06
4.17416e-07
2.55831e-07
-1.14036e-06
5.82349e-07
2.56824e-07
-9.34517e-07
7.08733e-07
2.21279e-07
-6.86455e-07
7.96891e-07
1.84092e-07
-5.51513e-07
8.8329e-07
1.73244e-07
-5.04436e-07
9.74972e-07
-4.67266e-07
1.03278e-06
-4.48932e-08
-5.04279e-10
3.10724e-07
-3.56402e-08
-1.19259e-10
3.79333e-07
5.84481e-08
-4.04895e-11
4.12891e-07
1.52734e-07
-3.12511e-11
4.37712e-07
1.49739e-07
-2.74277e-11
4.65596e-07
6.4907e-08
-2.08407e-11
4.53082e-07
-1.89492e-08
-5.82537e-11
3.98979e-07
-5.75619e-08
-8.72564e-11
3.57075e-07
-6.93659e-08
-8.19775e-11
3.33976e-07
-2.69787e-10
3.28234e-07
5.00474e-12
-5.31664e-10
4.47496e-11
1.68528e-12
-1.12811e-10
2.49298e-11
1.18752e-12
-3.24629e-11
1.75461e-11
7.88379e-13
-2.26155e-11
1.27273e-11
-3.47645e-12
-1.3074e-11
7.20342e-12
-1.42694e-11
-2.15094e-13
3.13374e-13
-2.56046e-11
-3.62357e-11
-9.31934e-12
-3.45332e-11
-6.5324e-11
-8.09632e-12
-5.95757e-11
-4.41315e-11
-1.75633e-12
-2.37481e-10
-1.4165e-12
-9.54939e-11
-1.15644e-09
1.88668e-10
-2.86484e-11
-2.19403e-10
3.41825e-11
-2.40634e-11
-1.83115e-11
5.63839e-12
-2.33837e-11
-7.76761e-12
-5.6786e-12
-3.72256e-11
1.50152e-11
-1.48042e-11
-3.37488e-10
3.29889e-11
-6.98022e-11
-4.19811e-10
3.11991e-11
-1.65975e-10
-1.92405e-10
-5.69491e-12
-1.17257e-10
-2.18007e-10
-2.7256e-11
-6.42621e-11
-6.54613e-10
-7.87074e-11
-5.89944e-10
-9.81591e-10
6.02269e-10
-1.12072e-10
-3.64719e-10
3.19506e-11
-6.03751e-11
-4.00546e-11
-1.60574e-12
-1.28003e-10
2.77923e-11
-5.24939e-11
-4.4299e-10
1.66176e-10
-1.5575e-10
-4.65202e-10
9.5911e-11
-1.48343e-10
-3.724e-10
2.54661e-11
-1.14231e-10
-1.2579e-10
-1.52349e-11
-5.69728e-11
-9.70886e-10
-1.71309e-10
-3.47011e-11
-7.66218e-10
-4.02293e-11
-7.4358e-10
-6.06198e-10
3.82899e-10
-3.53816e-10
-2.67993e-10
3.65553e-11
-3.09203e-10
-1.30514e-10
1.1277e-11
-1.45774e-10
8.68759e-12
-1.49837e-11
-2.31273e-10
2.10238e-10
-8.06861e-11
-2.67427e-10
7.48685e-11
-5.27204e-11
-4.1464e-11
1.90514e-11
-8.55137e-12
-2.28083e-10
5.68377e-12
-8.04645e-12
-8.36269e-10
-2.45198e-10
-1.52439e-11
-6.93333e-10
-2.68667e-11
-6.39526e-10
-3.46264e-11
1.45625e-10
-6.67233e-10
-1.60344e-10
6.82283e-11
-7.50802e-10
-2.12549e-10
4.80048e-11
-4.16292e-10
-2.04948e-10
9.52324e-11
-1.47877e-10
2.74861e-10
2.34979e-11
-2.03155e-11
3.68267e-11
-2.23152e-13
-9.40166e-12
1.04295e-11
1.94412e-13
-2.22931e-10
1.38709e-11
7.92473e-12
-6.48761e-10
-1.99866e-10
5.94122e-11
-5.74521e-10
1.83419e-11
-5.3303e-10
2.50723e-10
3.04919e-11
-5.32246e-10
-5.90417e-11
7.42405e-11
-6.92223e-10
-1.54048e-10
8.93011e-11
-6.65766e-10
-1.79698e-10
1.45051e-10
-3.33254e-10
1.0213e-10
6.91106e-11
-3.46556e-11
1.88872e-10
4.54419e-12
-3.81543e-11
1.42282e-11
1.9992e-12
-8.33592e-11
2.43461e-11
1.43394e-11
-3.99172e-10
-8.8206e-11
1.30113e-10
-4.83231e-10
1.97009e-11
-2.08881e-10
1.87105e-10
1.77109e-11
-1.96195e-10
2.229e-11
-5.24067e-12
-2.89913e-10
-6.91005e-11
1.51587e-10
-5.34782e-10
-1.69682e-11
1.70822e-10
-2.68223e-10
2.42651e-11
1.69211e-10
-2.65593e-11
4.57794e-12
1.24388e-11
-5.52814e-11
4.39008e-11
3.90029e-12
-1.97157e-10
1.08806e-10
1.31389e-11
-4.12511e-10
-2.05453e-11
3.87219e-11
-1.10542e-10
-2.15048e-10
-3.6052e-11
2.46811e-10
7.29059e-12
-1.60072e-10
1.658e-10
9.59185e-12
-4.24101e-11
-7.02516e-11
3.86784e-11
-4.07022e-11
-1.6607e-11
1.75557e-11
-3.35533e-11
4.37692e-12
1.76249e-11
-1.72592e-10
2.52449e-11
2.14858e-11
-7.9341e-10
2.07203e-10
9.59126e-11
-5.80826e-10
1.45623e-10
1.30609e-10
-5.71393e-10
-2.10044e-11
-8.65912e-11
-3.12472e-10
-5.49312e-10
9.93143e-11
1.22331e-09
5.03573e-11
-2.02406e-10
3.95044e-10
-5.70646e-12
-4.67717e-10
1.67495e-11
6.62025e-11
-5.82778e-11
6.3369e-12
7.83985e-11
-4.08428e-11
5.97905e-12
1.11668e-11
-6.66206e-11
6.93232e-12
1.34748e-11
-1.17852e-10
1.01279e-11
7.25455e-11
-9.43775e-11
4.18058e-12
3.87629e-11
-5.71058e-10
-1.11003e-10
-1.63299e-10
-4.88583e-10
-4.40607e-10
-5.32419e-11
8.00991e-10
1.19783e-10
-4.78722e-10
8.54099e-10
1.95974e-10
-3.5649e-10
1.52172e-11
1.07161e-10
-5.0798e-11
-9.3267e-12
2.31351e-12
-1.63655e-11
8.11185e-12
5.0166e-12
-1.27335e-11
4.49184e-12
3.5249e-12
-6.41361e-12
1.62945e-12
5.34332e-12
-6.41942e-11
6.56301e-13
4.41692e-12
-2.50749e-10
-1.76787e-10
-1.98709e-11
-5.98867e-10
-3.08287e-10
-3.76588e-10
2.50324e-10
6.7478e-10
-4.25957e-10
3.37691e-10
7.4712e-10
-3.34585e-10
4.88269e-11
1.89054e-11
-3.00069e-10
2.30979e-11
-1.54261e-11
-7.08511e-11
1.82965e-11
-5.64915e-11
-1.01824e-11
4.74533e-12
-2.57919e-11
-2.54347e-12
3.29704e-12
-3.82946e-12
-5.76567e-12
3.02325e-12
-2.78958e-12
-2.28922e-11
-5.72961e-12
-1.29489e-10
-3.0724e-11
-2.88461e-10
-1.17803e-07
-7.54512e-09
4.47965e-07
1.17556e-08
-3.38642e-07
5.93255e-07
4.28207e-07
-7.58632e-07
7.58591e-07
7.27049e-07
-6.78371e-07
7.37828e-07
7.33312e-07
-3.02532e-07
6.27501e-07
5.85563e-07
-4.10479e-08
5.58602e-07
4.23997e-07
3.24469e-08
5.44492e-07
2.74148e-07
4.25601e-08
5.46472e-07
1.26864e-07
4.2447e-08
5.54289e-07
2.20641e-08
5.57622e-07
2.69949e-08
-1.09602e-07
3.34669e-07
3.76394e-07
-7.20697e-07
6.99339e-07
7.37592e-07
-1.24198e-06
1.00397e-06
9.13165e-07
-1.06586e-06
9.34028e-07
8.56735e-07
-5.04609e-07
7.14105e-07
6.40356e-07
-4.381e-08
5.81716e-07
4.27086e-07
9.02679e-08
5.63771e-07
2.69648e-07
7.21991e-08
5.85992e-07
1.34739e-07
4.71145e-08
6.14582e-07
1.60187e-08
6.3655e-07
2.62477e-07
-3.27006e-07
3.31304e-07
6.38923e-07
-9.5572e-07
7.86021e-07
8.05191e-07
-1.38007e-06
1.12631e-06
8.70255e-07
-1.16702e-06
1.08312e-06
8.55625e-07
-6.21449e-07
8.10848e-07
7.04494e-07
-8.80842e-08
6.48613e-07
4.99629e-07
1.20785e-07
6.35475e-07
3.29197e-07
1.0445e-07
6.7293e-07
1.66405e-07
1.00409e-07
7.08475e-07
9.65703e-08
7.5504e-07
4.16711e-07
-5.84951e-07
3.89089e-07
6.65777e-07
-1.01184e-06
6.43395e-07
6.81922e-07
-1.30014e-06
1.01535e-06
7.00265e-07
-1.13203e-06
1.1441e-06
7.3872e-07
-6.7484e-07
9.40721e-07
6.88039e-07
-1.53754e-07
7.71688e-07
5.33732e-07
1.25857e-07
7.66842e-07
3.34606e-07
1.83101e-07
8.31909e-07
1.39787e-07
2.25699e-07
8.89729e-07
2.23131e-07
9.32961e-07
5.30278e-07
-1.07002e-06
3.74638e-07
7.57797e-07
-1.25221e-06
5.33192e-07
7.29746e-07
-1.2438e-06
9.1068e-07
6.88442e-07
-1.05105e-06
1.1718e-06
6.99862e-07
-6.89713e-07
1.1867e-06
7.14823e-07
-2.36142e-07
1.12332e-06
6.32126e-07
9.96992e-08
1.11872e-06
4.30458e-07
2.59674e-07
1.17054e-06
2.00927e-07
3.42307e-07
1.17551e-06
3.31814e-07
1.12179e-06
4.88901e-07
-1.76338e-06
3.97146e-07
7.51242e-07
-1.76941e-06
5.87542e-07
8.05888e-07
-1.4855e-06
8.25481e-07
7.89288e-07
-1.17396e-06
1.04062e-06
7.79163e-07
-8.41762e-07
1.23668e-06
7.98602e-07
-4.67446e-07
1.39322e-06
7.64289e-07
-1.28262e-07
1.47457e-06
5.88655e-07
1.43595e-07
1.50329e-06
3.23626e-07
3.15125e-07
1.46216e-06
3.64595e-07
1.3193e-06
1.45778e-07
-2.15784e-06
4.76186e-07
2.73462e-07
-2.04606e-06
3.19196e-07
4.10929e-07
-1.74628e-06
3.21969e-07
4.92496e-07
-1.41764e-06
5.45669e-07
5.54518e-07
-1.12446e-06
8.72497e-07
5.95117e-07
-8.26143e-07
1.2081e-06
5.61123e-07
-4.84508e-07
1.43061e-06
4.43486e-07
-1.87424e-07
1.591e-06
2.86328e-07
3.01944e-08
1.64454e-06
1.46052e-07
1.56921e-06
-9.31537e-08
-1.26979e-06
7.80596e-07
-1.10601e-07
-1.25776e-06
4.91516e-07
-1.00132e-08
-1.22849e-06
3.02134e-07
9.47173e-08
-1.06652e-06
4.4045e-07
1.76478e-07
-8.79603e-07
6.69753e-07
2.14287e-07
-6.38179e-07
8.73079e-07
1.95338e-07
-3.84304e-07
1.04271e-06
1.6715e-07
-2.46851e-07
1.17764e-06
1.46008e-07
-1.7459e-07
1.28272e-06
-1.1839e-07
1.32954e-06
1.17826e-08
-3.24357e-10
4.44357e-07
3.33438e-08
-7.20445e-11
5.36494e-07
1.31285e-07
-3.36896e-11
5.31607e-07
2.04311e-07
-3.21622e-11
5.70354e-07
2.04885e-07
-2.44557e-11
6.12233e-07
1.17882e-07
-4.01727e-11
5.8344e-07
2.31674e-08
-1.84433e-10
4.94691e-07
-3.74888e-08
-3.07967e-10
3.93231e-07
-6.41231e-08
-3.36779e-10
3.35467e-07
-1.91186e-10
3.32312e-07
1.33614e-11
-3.28838e-10
4.82987e-11
7.55996e-12
-5.8244e-11
2.86051e-11
5.69876e-12
-2.46161e-11
2.108e-11
8.37423e-13
-2.01412e-11
1.58649e-11
-1.33139e-11
-5.23813e-12
1.22005e-11
-4.10604e-11
-1.18524e-11
9.55013e-12
-7.1293e-11
-1.63657e-10
7.15021e-12
-8.1706e-11
-3.03751e-10
7.09904e-12
-7.00401e-11
-3.52482e-10
5.64963e-12
-2.0052e-10
2.38809e-12
-1.26663e-11
-9.21056e-10
1.40542e-10
-8.99407e-12
-4.53827e-11
1.88849e-11
-1.36747e-11
-7.76398e-12
5.14114e-12
-2.10265e-11
-1.56435e-12
-3.78635e-12
-3.49345e-11
9.78073e-12
-5.43117e-12
-2.197e-10
-1.31609e-11
-2.14801e-11
-4.34679e-10
-1.36077e-10
-3.55726e-11
-4.9951e-10
-1.74717e-10
-3.31402e-11
-4.88687e-10
-1.63518e-10
-6.45747e-11
-2.08724e-10
-5.60476e-11
-3.23068e-10
-9.94055e-10
7.48204e-10
-6.92365e-11
-9.37825e-11
2.69649e-11
-6.47507e-11
5.30837e-12
-5.04766e-12
-3.58749e-10
5.85289e-11
-5.98472e-11
-3.63003e-10
4.91689e-11
-1.18592e-10
-3.5617e-10
-2.56506e-11
-7.87868e-11
-2.84583e-10
-1.86265e-11
-1.59584e-11
-3.43646e-10
-7.3207e-11
-2.43596e-11
-3.85052e-10
-1.64465e-10
-6.61182e-11
-1.30548e-10
-2.89203e-11
-4.86882e-10
-7.66196e-10
7.68361e-10
-7.81981e-11
-1.20407e-10
6.11746e-11
-5.73087e-11
9.72985e-12
1.13371e-12
-9.42801e-11
8.35615e-11
-3.67989e-11
-2.15414e-10
8.46204e-11
-7.24813e-11
-3.34503e-11
7.34387e-12
-5.92405e-11
-4.42511e-11
2.2152e-13
-4.28686e-12
-1.33851e-10
-3.91311e-12
-6.20143e-12
-1.73742e-10
-3.96537e-11
-1.48887e-11
-7.69818e-11
-4.87939e-11
-7.19874e-10
-2.82731e-10
5.19206e-10
-2.14356e-10
-1.33846e-10
1.36813e-10
-1.59096e-10
-1.60311e-11
1.44084e-11
-8.59555e-11
8.78723e-11
3.51275e-12
-1.64351e-11
1.90976e-10
1.8919e-12
-1.18138e-11
4.27902e-12
-1.82679e-12
-1.25737e-11
3.19414e-12
-1.87588e-12
-6.62157e-12
1.77926e-12
-3.92382e-12
-2.18352e-11
-1.49825e-11
-4.89855e-11
-1.27355e-10
-2.29569e-10
-6.89692e-10
1.85354e-10
3.35038e-10
-5.3052e-10
-3.37009e-11
2.53196e-10
-6.15226e-10
-1.56606e-10
1.33748e-10
-4.28098e-10
-4.86663e-11
2.2212e-10
-2.40117e-10
2.87606e-10
7.84266e-11
-1.58169e-11
4.38331e-11
1.37011e-12
-1.80075e-11
7.00629e-12
8.76618e-13
-9.47507e-12
7.86343e-12
2.61713e-13
-1.62186e-10
-2.57137e-12
-5.75228e-11
-3.01591e-10
-4.00116e-10
-8.07579e-11
1.80094e-10
8.58175e-11
-1.50823e-10
3.50749e-12
5.45112e-11
-6.74662e-10
-4.60621e-11
4.58149e-10
-7.45565e-10
-1.47388e-11
3.35552e-10
-6.65792e-11
8.24704e-11
1.48836e-10
-1.82571e-11
6.7491e-12
4.50718e-12
-1.62384e-11
7.09762e-12
2.67855e-12
-1.2187e-11
1.41856e-11
1.80705e-12
-4.54878e-10
-1.12646e-11
-6.91189e-11
-5.09164e-10
-4.19444e-10
-1.12213e-11
2.07548e-10
1.79534e-11
-2.6136e-11
3.49702e-11
1.8234e-11
-3.87335e-11
-1.37114e-11
3.13308e-11
-7.48109e-11
-5.41098e-12
5.57828e-11
-6.04395e-11
1.51563e-11
6.25058e-11
-3.94349e-11
1.80477e-11
1.61132e-11
-1.04106e-11
2.3023e-11
6.94237e-12
-1.26653e-10
4.35685e-11
-3.18188e-13
-3.40407e-10
-2.26694e-10
-1.53179e-10
-7.89641e-10
-4.27981e-10
6.42398e-11
1.10801e-09
2.8277e-10
-7.48141e-11
2.97564e-10
1.39819e-10
-1.62963e-10
2.64391e-11
3.47676e-11
-4.16291e-11
3.65525e-11
6.82856e-11
-2.84168e-11
3.85603e-12
8.39645e-12
-2.80819e-12
3.71417e-12
2.69169e-12
1.84159e-11
7.89456e-12
2.62968e-12
-5.84751e-11
1.85383e-12
4.16914e-13
-9.58688e-11
-1.10818e-10
-5.85393e-11
-7.70026e-10
-4.18143e-10
5.06396e-12
5.34443e-10
6.99378e-10
-1.31627e-10
7.77294e-10
6.66988e-10
-3.52112e-11
9.57394e-12
2.74228e-11
-9.84406e-12
3.66579e-12
8.97668e-12
-8.98102e-12
3.25826e-12
5.06887e-12
-5.2903e-12
2.63291e-12
3.18564e-12
-3.55966e-12
4.63528e-14
2.74035e-12
2.4041e-13
-5.31425e-12
1.52646e-12
1.81345e-11
-2.06969e-11
-5.42776e-13
-8.65415e-11
-2.4292e-10
-2.91843e-10
7.17602e-10
3.621e-10
-7.23294e-11
6.58859e-10
6.05679e-10
-3.13894e-11
1.29248e-11
6.2136e-12
-1.8335e-11
1.26372e-11
2.32445e-12
-5.68747e-12
9.59648e-12
5.60365e-13
-4.89699e-12
8.80668e-12
-2.05456e-12
8.56369e-15
4.07531e-12
-2.97989e-12
2.72328e-12
1.99275e-12
-7.16266e-12
9.40371e-12
1.22223e-13
-3.27259e-11
-2.8688e-11
-9.41013e-11
-2.81749e-08
-2.01338e-08
4.96274e-07
3.49583e-08
-1.34278e-07
6.644e-07
3.43628e-07
-4.00423e-07
8.50345e-07
5.95113e-07
-3.44292e-07
8.30635e-07
6.25327e-07
-1.15871e-07
7.13158e-07
5.28197e-07
2.9261e-08
6.26471e-07
3.95086e-07
8.53048e-08
5.92299e-07
2.54956e-07
1.04706e-07
5.81896e-07
1.0778e-07
1.16492e-07
5.84973e-07