/*--------------------------------*- C++ -*----------------------------------*\
| =========                 |                                                 |
| \\      /  F ield         | OpenFOAM: The Open Source CFD Toolbox           |
|  \\    /   O peration     | Version:  2312                                  |
|   \\  /    A nd           | Website:  www.openfoam.com                      |
|    \\/     M anipulation  |                                                 |
\*---------------------------------------------------------------------------*/
FoamFile
{
    version     2.0;
    format      ascii;
    arch        "LSB;label=32;scalar=64";
    class       volScalarField;
    location    "0.51";
    object      alpha.water;
}
// * * * * * * * * * * * * * * * * * * * * * * * * * * * * * * * * * * * * * //

dimensions      [0 0 0 0 0 0 0];

internalField   nonuniform List<scalar> 
8000
(
1
1
1
1
1
1
1
1
1
1
1
1
1
1
1
1
1
1
1
1
1
1
1
1
1
1
1
1
1
1
1
1
1
1
1
1
1
1
1
1
1
1
1
1
1
1
1
1
1
1
1
1
1
1
1
1
1
1
0.999999
0.999999
1
1
1
1
0.999999
0.999994
0.999977
0.999947
0.999914
0.99989
1
1
1
0.999995
0.98293
0.931287
0.845831
0.744883
0.670213
0.633338
1
0.999999
0.999985
0.92449
0.612891
0.33222
0.153142
0.061255
0.02206
0.00778334
0.999999
0.999983
0.785927
0.32555
0.0783451
0.000276577
8.46667e-06
7.86551e-07
4.04175e-07
4.05125e-07
0.999983
0.938268
0.378321
0.000763979
2.13848e-05
2.80952e-06
9.52714e-07
6.35995e-07
4.31898e-07
4.04268e-07
0.991906
0.677561
0.033687
2.12484e-05
3.52095e-07
5.28688e-07
7.86707e-07
8.17112e-07
1.93393e-06
9.09204e-06
0.333678
0.0863508
0.000450788
9.83347e-07
6.83502e-07
1.57094e-06
9.6407e-07
8.95375e-07
1.34368e-05
2.93438e-05
3.06502e-05
2.28888e-05
0.00120447
0.000122481
1.34393e-06
8.09483e-06
2.85473e-05
1.73768e-05
1.08313e-05
2.62179e-05
4.07508e-05
1.71916e-05
8.15003e-05
2.84552e-05
1.77653e-06
6.4335e-06
1.89211e-05
1.43947e-05
3.9456e-06
9.7243e-06
8.83402e-05
1.2655e-05
2.57874e-06
1.32279e-06
7.73092e-06
3.20036e-06
2.56832e-06
2.19491e-06
1.85614e-06
2.03547e-06
0.000136827
1.13228e-05
3.55052e-06
9.32052e-05
0.000107347
9.16747e-06
1.54831e-05
1.30073e-06
1.74449e-06
3.7303e-06
0.000137778
1.21076e-05
0.000160246
0.000182513
9.18187e-05
7.93378e-06
2.68595e-06
1.2909e-06
6.75355e-07
1.69771e-06
0.000147027
9.25505e-06
0.000189468
0.00018544
8.11691e-06
1.91361e-07
1.06912e-10
3.11065e-09
1.35954e-11
5.53538e-11
0.000154013
5.04936e-06
0.000134335
1.58109e-05
4.73965e-08
3.95306e-08
3.46133e-11
7.10469e-14
3.59547e-14
1.73818e-13
1
1
1
1
1
1
1
1
1
1
1
1
1
1
1
1
1
1
1
1
1
1
1
1
1
1
1
1
1
1
1
1
1
1
1
1
1
1
1
1
1
1
1
1
1
1
1
1
1
1
1
1
1
1
1
1
1
1
1
1
1
1
1
1
1
1
0.999997
0.99999
0.999979
0.99997
1
1
1
1
0.999995
0.994973
0.960618
0.89367
0.833664
0.801463
0.999999
1
0.999998
0.995342
0.75482
0.421126
0.20772
0.101175
0.0540282
0.0354537
0.999983
0.999627
0.84266
0.367799
0.0406683
2.8134e-06
1.04235e-06
6.25977e-07
4.46445e-07
4.04174e-07
0.943417
0.543319
0.130579
4.90297e-05
3.66222e-07
5.29519e-07
9.03282e-07
7.41465e-06
8.70927e-06
1.47961e-06
0.658003
0.0516917
2.62404e-07
1.90384e-07
3.23754e-07
5.66857e-07
7.42825e-07
2.22558e-06
7.19067e-06
2.58416e-05
0.078639
0.0536515
0.000477453
1.64946e-07
7.74397e-07
4.14001e-06
4.88622e-06
9.64088e-07
2.71532e-05
4.54379e-05
3.23592e-05
3.39186e-05
0.000127785
2.35231e-06
9.30954e-07
1.61893e-05
2.97103e-05
1.72387e-05
3.92784e-05
4.54379e-05
0.000116275
3.80091e-05
1.02885e-05
3.01416e-06
1.89223e-06
2.34498e-05
2.97103e-05
2.52469e-05
1.85005e-05
4.54379e-05
0.000296211
4.59899e-05
8.73036e-07
1.00554e-06
6.54596e-06
2.29807e-05
2.87122e-05
3.12588e-06
5.31842e-06
2.87016e-05
0.000292152
8.27703e-05
2.04604e-06
1.32279e-06
1.73463e-05
6.53018e-05
1.86838e-05
1.42569e-06
3.68202e-06
3.30057e-06
0.000148384
0.000124763
2.89416e-06
2.06811e-06
3.16493e-06
6.43354e-05
5.102e-06
1.22307e-06
1.5847e-07
3.72404e-10
0.000117308
7.70731e-05
3.94251e-06
2.89416e-06
6.23481e-05
4.00755e-05
9.66694e-08
1.23829e-13
3.03566e-12
1.79676e-12
0.000140673
7.90122e-06
0.000133803
9.62031e-05
0.000134327
9.05184e-06
1.24686e-13
1.14843e-13
1.40671e-14
4.21151e-14
1
1
1
1
1
1
1
1
1
1
1
1
1
1
1
1
1
1
1
1
1
1
1
1
1
1
1
1
1
1
1
1
1
1
1
1
1
1
1
1
1
1
1
1
1
1
1
1
1
1
1
1
1
1
1
1
1
1
1
1
1
1
1
1
1
1
1
0.999997
0.999993
0.999991
1
1
1
1
1
0.999056
0.98017
0.923031
0.863533
0.832304
0.999985
0.999998
0.999974
0.954584
0.757704
0.467647
0.234981
0.112985
0.0603646
0.0403245
0.771361
0.838665
0.623999
0.32019
0.0601439
3.3405e-06
2.97015e-06
1.07667e-06
6.25977e-07
4.46445e-07
0.324627
0.138953
0.0222526
1.90538e-07
2.73519e-07
5.02037e-07
5.80182e-06
3.29813e-05
3.30703e-05
1.26694e-05
0.0241505
2.59204e-07
1.40173e-07
1.65302e-07
1.90538e-07
3.63536e-07
2.43918e-06
5.81643e-06
1.23706e-06
2.34926e-06
0.000324347
0.000470436
1.3608e-07
1.40173e-07
6.74966e-07
1.08606e-06
9.16519e-07
1.23734e-06
1.62521e-05
3.01797e-05
0.00135413
0.000487155
1.16924e-07
1.43376e-07
4.06716e-06
9.68558e-06
1.53903e-05
9.83758e-06
4.26192e-05
4.35713e-05
0.000314517
0.000127731
1.37356e-07
3.97459e-07
4.45995e-06
6.06373e-06
2.5133e-05
2.88203e-05
4.25663e-05
2.94735e-05
0.000299277
0.000153075
4.02796e-06
5.2505e-07
9.39046e-06
3.00648e-05
2.96713e-05
4.94922e-06
2.48526e-05
1.65586e-05
8.13269e-05
0.000156239
4.61063e-05
1.15777e-05
1.21329e-05
8.47527e-05
1.18116e-05
1.49744e-06
2.76624e-06
8.41426e-07
2.28487e-05
0.000154231
3.92118e-05
1.87321e-05
4.89856e-06
8.47527e-05
2.25536e-06
6.82371e-07
1.00822e-10
1.33877e-11
1.70939e-05
8.27732e-05
0.000116624
5.0446e-05
0.000119243
7.11612e-05
1.67703e-08
1.56501e-13
4.8877e-13
7.19006e-13
2.08094e-05
2.81722e-06
0.000233536
0.000235812
0.000225964
2.88567e-05
1.565e-13
1.19906e-13
1.15362e-13
4.17747e-13
1
1
1
1
1
1
1
1
1
1
1
1
1
1
1
1
1
1
1
1
1
1
1
1
1
1
1
1
1
1
1
1
1
1
1
1
1
1
1
0.999999
1
1
1
1
1
1
1
1
1
1
1
1
1
1
1
1
1
1
1
1
1
1
1
1
1
1
1
1
1
1
0.999995
1
1
1
1
0.996469
0.920428
0.841606
0.786299
0.771312
0.915401
0.994775
0.953795
0.852242
0.670723
0.426038
0.24082
0.133043
0.0752063
0.0585955
0.321477
0.354915
0.309069
0.202425
0.0662957
0.00178583
1.11758e-05
1.69112e-06
1.07667e-06
7.85024e-07
0.000451463
9.42181e-05
2.19183e-06
3.89848e-07
1.21148e-06
9.92656e-07
2.20522e-06
2.95994e-05
2.8751e-05
1.37379e-05
1.22257e-06
7.29094e-07
1.97605e-07
1.90538e-07
1.99214e-06
3.91501e-07
1.72598e-06
4.34256e-06
3.71981e-07
3.42327e-07
7.06389e-07
1.97605e-07
1.19741e-07
1.99409e-07
1.65879e-07
8.0289e-08
1.05367e-07
1.44935e-07
2.15035e-07
2.02408e-07
0.000163432
1.36202e-07
9.15403e-08
1.71252e-06
3.04495e-06
7.26975e-08
5.70801e-08
1.85807e-06
2.5426e-06
1.3415e-07
0.000165101
2.42963e-05
1.36202e-07
8.98363e-07
6.42177e-06
4.21301e-07
2.68161e-06
1.52893e-05
2.13762e-05
1.74453e-06
5.94505e-07
7.85718e-05
7.33168e-05
8.75957e-07
1.16442e-05
7.21465e-06
3.33122e-06
8.48348e-06
1.10629e-05
1.02355e-06
3.34741e-09
3.02762e-05
0.000215791
0.00017157
4.56582e-05
1.22803e-05
8.85202e-10
3.28673e-07
4.03845e-07
8.32046e-10
3.14596e-09
3.34741e-09
0.00021744
0.000239484
0.000202695
1.64365e-05
1.57077e-10
1.26427e-08
7.41334e-12
4.95359e-10
2.7901e-09
3.14596e-09
0.000197597
0.000240672
0.000239484
1.73006e-05
5.06369e-13
2.16727e-13
4.6454e-13
7.92403e-12
3.14596e-09
1.54681e-08
0.000233469
0.00024086
0.000209237
5.60741e-06
2.16727e-13
1.80837e-13
1.38303e-13
5.94223e-13
1
1
1
1
1
1
1
1
1
1
1
1
1
1
1
1
1
1
1
1
1
1
1
1
1
1
1
1
1
1
1
1
1
1
1
1
1
1
0.999995
0.999987
1
1
1
1
1
1
1
1
1
0.999077
1
1
1
1
1
1
1
1
1
0.993406
0.999999
0.999998
1
1
1
1
1
1
1
0.999999
0.977255
0.999958
1
1
0.991017
0.944982
0.88358
0.811902
0.746379
0.722488
0.589651
0.732299
0.745987
0.667241
0.519353
0.382138
0.236757
0.129973
0.070111
0.0432325
0.077926
0.0350064
0.0534595
0.0639085
0.0453323
0.00800613
5.40534e-05
8.46802e-06
1.69112e-06
2.77204e-06
1.22374e-06
9.03298e-07
7.94502e-07
3.06114e-06
1.96784e-06
2.04271e-06
5.68267e-06
4.5801e-06
9.87823e-06
1.29772e-05
8.80589e-07
4.38465e-07
2.53637e-07
4.54439e-06
1.15252e-05
5.4994e-07
4.31674e-07
1.90649e-06
5.9515e-06
4.90642e-06
7.43644e-07
1.86405e-07
2.3283e-07
5.46347e-07
6.17109e-07
1.00094e-07
5.70697e-08
2.91985e-07
1.44755e-06
2.74069e-07
6.23887e-08
9.15403e-08
8.78662e-08
8.78662e-08
7.61902e-08
5.10633e-08
3.53336e-08
5.70801e-08
1.04597e-07
5.1834e-08
1.50535e-08
2.32278e-05
9.15403e-08
7.61902e-08
5.10633e-08
3.53336e-08
2.4812e-08
2.62302e-08
4.93032e-08
3.77992e-08
9.38115e-09
1.50535e-08
0.000115751
4.96776e-05
4.62063e-06
1.69533e-08
3.8084e-07
1.86261e-06
1.28974e-07
2.78595e-08
7.47252e-09
9.38115e-09
0.000222054
0.00023313
1.37118e-05
8.85202e-10
1.20582e-10
1.02645e-09
1.61732e-09
2.98923e-09
7.19615e-09
5.75865e-09
0.000230898
0.000238395
3.40843e-05
1.77011e-10
3.76081e-11
2.67084e-11
1.32936e-09
7.16378e-10
2.34342e-09
2.7901e-09
0.000204405
0.000239484
5.17226e-05
3.75769e-11
2.21148e-11
2.21825e-11
1.24598e-09
3.09851e-10
2.7901e-09
2.00026e-06
0.000122594
0.000183486
3.63351e-05
2.67909e-11
9.6286e-12
6.1637e-12
6.41186e-10
1.69276e-10
1
1
1
1
1
1
1
1
1
1
1
1
1
1
1
1
1
1
1
1
1
1
1
1
1
1
1
1
1
0.999999
1
1
1
1
1
1
0.999999
0.999996
1
0.999783
1
1
1
1
1
1
1
0.999954
0.988129
0.949849
1
1
1
1
1
1
1
1
0.867528
0.672544
0.999993
1
1
1
1
1
1
1
0.924567
0.759217
0.920405
0.994433
0.99885
0.992114
0.942523
0.890332
0.791473
0.646695
0.553436
0.514525
0.316756
0.400167
0.449802
0.418262
0.383912
0.313814
0.192362
0.0936463
0.020381
0.0282393
0.00431008
9.06552e-06
6.92643e-05
0.00286603
0.00746215
0.000834674
0.000173682
9.44379e-05
1.32045e-05
0.000163708
5.8728e-06
1.16496e-05
7.50166e-06
5.3369e-06
1.33121e-05
2.5863e-05
3.05109e-05
3.67571e-05
7.78876e-05
8.68075e-05
9.8556e-07
1.1803e-05
6.42666e-06
3.8692e-07
1.46641e-06
2.7943e-06
2.71361e-06
2.86925e-05
6.64447e-05
4.07383e-05
5.25107e-06
1.03101e-05
2.5168e-07
1.78366e-07
3.98392e-07
5.49939e-07
3.75744e-07
4.60206e-06
1.10203e-05
9.96991e-05
6.86315e-06
8.57305e-06
4.21782e-07
8.78662e-08
9.02106e-08
8.4364e-08
1.67661e-08
6.36079e-08
2.64505e-06
1.583e-05
2.51125e-06
9.97848e-08
1.3562e-07
1.28635e-05
1.10769e-07
1.67663e-08
3.39215e-10
2.18134e-08
8.02458e-07
5.18337e-08
1.50535e-08
5.30609e-08
3.66516e-05
9.05399e-05
1.33744e-08
3.39215e-10
1.7713e-10
5.82189e-10
3.20248e-08
3.74663e-08
6.41261e-09
2.42848e-08
0.000141428
8.99085e-05
7.18697e-09
1.7713e-10
1.47231e-10
1.7713e-10
6.10331e-08
1.34713e-06
1.25861e-09
3.9703e-06
4.74473e-05
3.66212e-05
8.7213e-10
1.20499e-10
9.87967e-11
2.22434e-10
6.11236e-08
9.56603e-07
7.83947e-14
4.08175e-07
2.80493e-06
1.13887e-05
2.40683e-09
6.39183e-11
3.76075e-11
1.6512e-09
4.91814e-08
2.98763e-08
3.08724e-08
1.84255e-08
2.53744e-07
2.79371e-06
1.24682e-09
8.04084e-11
7.74861e-11
9.6286e-12
1.38011e-08
2.42091e-08
1
1
1
1
1
1
1
1
1
1
1
1
1
1
1
1
0.99999
0.999973
0.999996
1
1
1
1
1
1
1
0.999952
0.999917
1
1
1
1
1
1
1
0.999998
0.999954
0.999974
0.999993
0.999969
1
1
1
1
1
1
1
0.994653
0.912823
0.853038
1
1
1
1
1
1
1
0.809918
0.41148
0.391724
0.999975
0.999997
1
1
1
1
0.990818
0.694368
0.302675
0.139356
0.83177
0.956695
0.978182
0.918349
0.88584
0.792121
0.585921
0.378996
0.20386
0.0781615
0.144711
0.186431
0.219065
0.239399
0.242185
0.193569
0.110984
0.0419396
0.0485798
0.0335035
4.9374e-05
2.99631e-06
6.34825e-06
1.43234e-05
2.55431e-05
5.17187e-05
0.00025019
0.000293633
0.000505812
0.000440834
1.94301e-06
4.21324e-05
0.000238377
0.000170628
1.90703e-05
3.20991e-05
5.39515e-05
8.8412e-05
0.000145516
6.46096e-05
6.94303e-07
2.4853e-05
2.34187e-05
1.784e-05
1.47372e-05
2.04463e-05
1.04725e-05
3.18367e-05
3.92355e-05
3.94498e-05
2.34312e-06
1.13345e-05
3.02111e-07
2.88598e-07
9.22388e-06
1.81629e-05
3.3936e-06
3.25234e-06
7.57113e-06
0.000280584
5.8604e-06
2.96963e-06
3.33345e-06
6.39076e-06
2.14679e-05
5.69273e-05
8.57172e-06
3.06332e-07
2.22356e-06
0.000377144
3.03246e-06
2.48038e-07
1.64108e-07
1.63726e-05
1.57139e-05
7.44929e-05
7.97427e-07
3.42331e-08
9.90879e-06
7.12903e-05
3.30729e-06
9.66415e-07
9.03634e-06
2.24948e-05
5.27786e-06
7.61072e-05
3.39217e-10
1.87381e-09
9.85528e-06
4.10539e-05
1.85268e-06
1.5228e-06
3.09066e-06
1.55238e-06
6.46787e-07
4.52555e-05
1.7713e-10
1.12925e-09
8.93564e-06
3.80417e-05
1.97422e-08
5.9946e-08
4.28983e-11
1.89261e-09
7.96651e-07
2.14115e-05
1.205e-10
1.21479e-09
1.16169e-05
4.74334e-05
5.94022e-14
7.83947e-14
7.17609e-13
4.28983e-11
1.67294e-10
1.59477e-10
6.39509e-11
1.344e-09
1.98287e-05
9.45918e-05
3.65767e-14
2.06705e-13
6.02305e-12
3.13041e-10
2.31701e-10
1.70688e-10
9.27273e-11
7.28472e-10
3.30226e-05
0.000144486
1
1
1
1
1
1
1
1
1
1
1
1
1
1
1
1
0.999971
0.999876
0.999975
1
1
1
1
1
1
1
0.999898
0.999737
0.999997
1
1
1
1
1
1
0.999996
0.999962
0.999961
0.999984
0.999998
1
1
1
1
0.999999
1
0.997316
0.940529
0.961715
0.999988
1
1
1
1
1
1
0.806076
0.378971
0.558402
0.748546
0.999944
0.999989
0.999997
1
1
1
0.664387
0.130043
0.104821
0.0899362
0.72826
0.885104
0.919599
0.852524
0.82254
0.648941
0.356282
0.0743626
0.00394584
0.00154476
0.0584624
0.0874954
0.105774
0.136903
0.136406
0.0900707
0.0227997
0.0354129
0.00780873
0.000896236
2.01452e-06
5.34443e-07
2.26904e-06
6.34825e-06
1.43244e-05
2.65745e-05
4.4564e-05
0.00123505
0.00558416
0.000492895
4.88539e-07
6.16152e-06
0.000263012
0.000363971
0.000364407
0.000129912
1.96759e-05
7.99906e-05
0.000338659
4.24063e-05
4.4139e-07
8.22605e-07
1.18532e-05
3.3769e-05
0.000156019
0.00036685
6.91243e-06
1.28371e-05
4.24054e-05
8.14292e-06
5.15711e-07
3.43401e-07
3.23983e-07
3.43401e-07
0.000176922
0.000653748
1.1115e-05
4.08593e-06
8.86021e-06
4.3708e-06
5.99815e-07
1.56148e-06
4.66863e-07
4.25383e-07
0.000124255
0.000662172
0.000303197
1.01548e-06
1.81938e-06
0.000486825
1.03401e-06
3.31817e-06
6.21607e-07
4.87132e-07
4.41352e-05
0.000662167
0.000662173
2.52941e-06
2.13209e-06
0.000572619
8.12394e-06
4.86939e-06
2.13205e-09
9.31518e-09
1.92905e-05
0.000662173
0.00028141
1.2025e-05
8.24995e-07
0.000316018
6.47708e-06
6.8826e-07
1.09155e-09
2.13205e-09
3.82178e-05
0.000661397
3.81683e-05
2.26651e-08
7.91286e-07
9.14118e-06
7.79849e-14
9.88919e-12
3.07002e-11
1.94151e-09
9.4373e-05
0.000655654
2.60481e-05
1.94551e-08
5.20404e-07
3.8923e-05
3.61111e-14
7.79849e-14
9.88919e-12
1.31313e-09
9.58595e-05
0.000276729
3.22126e-05
2.29365e-08
1.10604e-05
0.000312079
3.26505e-14
3.61111e-14
8.75818e-13
4.3458e-08
2.35655e-05
1.98014e-05
0.000137225
5.15383e-06
3.49145e-05
0.00130731
1
1
1
1
1
1
1
1
1
1
1
1
1
1
1
1
0.999997
0.999974
0.999999
1
1
1
1
1
1
1
1
0.999851
0.999867
1
1
1
1
1
1
1
0.999998
0.999982
0.999544
0.999949
1
1
1
1
0.999915
0.994169
0.937969
0.997881
0.999677
0.999997
0.999999
1
1
1
0.999367
0.823489
0.435052
0.646973
0.999798
0.999988
0.999911
0.999978
0.999993
1
1
0.889111
0.271351
0.0969659
0.427627
0.478604
0.654825
0.82442
0.863748
0.81569
0.780896
0.52946
0.154127
0.00394584
0.00118083
0.000954409
0.0208177
0.0470437
0.0599691
0.0867173
0.0756848
0.00033656
0.00872856
0.00341767
0.000477201
0.000762565
4.43732e-07
4.17936e-07
5.34443e-07
2.26904e-06
1.01406e-05
0.000540355
0.000642714
0.00158033
0.0002833
0.000258063
4.1078e-07
4.84939e-07
4.8631e-05
0.000288177
0.000224641
2.38055e-05
0.000160056
0.000570415
0.000261096
8.14293e-06
4.16781e-07
1.56135e-06
2.08098e-05
1.44312e-06
8.11889e-07
1.40509e-06
3.19437e-06
0.000116098
7.78805e-05
4.36678e-06
3.57465e-06
8.51103e-06
3.43401e-07
3.80482e-07
9.18391e-06
3.97586e-05
2.26998e-05
1.07074e-06
1.86849e-06
3.58321e-06
4.56882e-06
1.81786e-05
1.65489e-06
5.34974e-07
3.79172e-05
0.000253917
0.000117675
6.05672e-07
8.01947e-07
2.12063e-05
2.14506e-06
7.7016e-06
1.84324e-06
4.442e-07
7.6811e-05
0.000660533
0.00011322
3.02631e-07
6.05672e-07
6.17557e-05
8.16884e-06
9.90511e-07
9.31518e-09
2.45178e-08
0.000114503
0.000661397
0.0001155
4.43047e-08
1.27297e-05
8.60285e-06
8.16796e-06
2.69614e-07
1.17113e-09
1.58e-08
0.000171742
0.000657944
0.000317143
3.66561e-08
3.45765e-05
5.52976e-06
1.40625e-09
2.14102e-11
1.30633e-10
1.65583e-08
0.000244276
0.000655266
0.000617884
3.99532e-08
3.10532e-05
5.28471e-06
2.8107e-14
5.5726e-13
3.65381e-11
7.70786e-09
0.000232953
0.000655266
0.000653535
3.99532e-08
1.10406e-05
3.15688e-06
2.44015e-14
2.8107e-14
1.74696e-13
1.0955e-11
0.000114195
0.000653326
0.000649352
7.46501e-05
2.29071e-06
3.55931e-06
1
1
1
1
1
1
1
1
1
0.928944
1
1
1
1
1
1
1
1
1
0.928648
1
1
1
1
1
1
1
0.999998
1
0.918498
1
1
1
1
1
1
0.999999
0.999978
0.999963
0.917349
1
1
1
1
0.99909
0.96227
0.889774
0.999989
0.999993
0.927134
0.999999
1
1
1
0.933474
0.54725
0.450644
0.894331
0.999987
0.940173
0.99989
0.99997
0.999992
1
0.999989
0.522488
0.0760025
0.183824
0.596511
0.508938
0.621171
0.795073
0.836957
0.825312
0.755623
0.489121
0.0470308
0.00148292
0.000764266
0.00143939
0.0060373
0.0331398
0.0434135
0.0745038
0.0454878
6.01438e-05
0.00913958
0.000839102
0.000561021
0.00209117
4.00135e-07
4.01195e-07
4.17936e-07
6.65111e-07
2.43347e-06
2.30138e-06
0.00104384
0.000976107
0.00061943
0.0122716
4.05086e-07
4.03289e-07
2.56555e-06
2.05599e-05
3.33278e-05
1.54158e-06
2.30083e-06
0.000112026
0.000101
0.017774
4.1078e-07
6.63554e-07
1.33074e-06
1.6437e-06
5.29386e-07
1.03443e-06
1.54158e-06
3.33084e-06
1.17634e-05
0.0172558
6.03424e-06
1.42631e-05
5.05256e-07
8.22717e-07
5.6679e-06
1.08228e-05
3.07349e-06
2.12218e-06
3.95488e-05
0.00924451
1.42702e-05
2.74049e-05
5.89543e-07
1.28304e-06
1.59363e-05
1.48987e-05
1.74586e-07
1.98664e-06
0.000598829
0.00141527
5.52319e-06
1.83736e-06
8.20867e-07
1.33016e-06
1.61317e-05
1.06012e-05
1.89977e-08
1.55699e-05
0.000577505
5.40531e-05
8.06135e-06
3.38443e-07
2.40946e-08
8.23298e-07
1.99105e-05
2.87416e-05
4.72328e-06
3.25401e-06
3.42084e-05
2.26918e-05
6.48101e-06
8.54478e-07
8.68203e-09
1.01724e-06
3.04799e-05
4.9844e-05
3.45727e-05
3.37043e-08
7.73327e-08
1.05957e-06
2.82577e-08
1.38278e-11
8.65243e-10
1.89562e-06
3.49778e-05
5.04896e-05
4.83162e-05
2.29743e-08
9.43935e-07
1.99333e-06
6.46662e-14
1.57261e-13
1.37085e-11
2.75189e-06
1.99982e-05
1.36381e-05
2.64734e-05
1.4537e-06
1.47026e-06
1.68275e-06
2.8107e-14
4.70032e-14
1.99201e-14
4.10683e-07
3.8187e-06
4.79603e-09
3.36898e-10
2.19155e-05
8.82371e-07
1.56693e-06
1
1
1
1
1
1
1
1
1
0.949101
1
1
1
1
1
1
1
1
1
0.949758
1
1
1
1
1
1
1
0.999995
1
0.931916
1
1
1
1
1
1
1
0.999999
0.999999
0.917565
1
1
1
1
0.999813
0.96483
0.897825
0.999995
0.999974
0.929567
0.999999
1
1
1
0.91
0.560625
0.408581
0.796532
0.995477
0.898674
0.99989
0.99997
0.999992
1
0.990135
0.508377
0.0787311
0.0732998
0.286548
0.185903
0.621334
0.794216
0.834964
0.832411
0.754743
0.507961
0.0581692
0.00151819
0.000640499
0.00109137
0.0048191
0.0326369
0.0421763
0.0746241
0.0446309
0.055316
0.0360307
0.00122322
0.000334872
0.000851305
4.01195e-07
4.00101e-07
4.01195e-07
4.54029e-07
1.07167e-06
8.364e-06
0.00400172
0.000479824
0.000223642
0.00594996
5.39477e-07
4.01195e-07
4.03289e-07
4.11775e-07
1.29935e-06
2.66121e-05
9.56922e-06
0.000137962
0.000200221
0.0137853
1.01912e-06
7.86017e-07
5.53447e-07
3.24101e-07
1.60409e-07
5.4037e-07
2.72164e-06
4.33812e-06
4.38615e-07
0.0162039
5.21645e-06
2.24152e-05
7.88128e-06
1.73407e-06
8.88137e-08
3.49942e-07
3.04483e-06
2.1613e-06
4.29137e-07
0.0100016
1.29426e-05
2.76998e-05
1.45165e-05
7.55281e-06
7.39465e-08
5.99117e-08
1.95502e-07
4.47883e-07
2.57738e-07
0.00211991
8.63523e-06
2.65325e-05
8.54082e-07
7.29268e-06
8.10962e-07
8.63422e-08
1.52132e-08
6.97789e-08
8.31736e-08
0.000305793
4.14893e-06
1.05899e-05
1.07721e-05
3.17674e-06
1.8035e-07
1.52132e-08
1.2374e-08
1.29339e-08
5.16947e-08
0.000993677
3.91481e-06
3.2967e-06
1.69219e-06
2.06668e-07
1.46416e-07
8.71317e-09
7.18274e-09
1.2374e-08
8.47276e-08
0.00315457
1.34084e-06
1.43661e-07
3.054e-10
1.97612e-09
1.67214e-09
2.00483e-09
2.82496e-09
9.33171e-09
1.19007e-08
0.00512347
5.69225e-09
2.51928e-13
2.67202e-13
7.74873e-08
4.72541e-10
1.30711e-09
3.36898e-10
8.9943e-10
2.41923e-10
0.00692862
4.29914e-14
8.78874e-14
1.54537e-14
2.29809e-08
4.52038e-10
8.79007e-09
6.99768e-11
6.35141e-11
7.08049e-11
0.00820648
1
1
1
1
1
1
1
1
1
1
1
1
1
1
1
1
0.999997
0.999976
0.999996
1
1
1
1
1
1
1
0.999969
0.999825
0.999909
1
1
1
1
1
1
1
1
0.999999
0.999909
0.999999
1
1
1
0.999999
0.999976
1
0.968118
0.926454
0.999933
0.999997
0.999999
1
1
1
0.997314
0.882671
0.522304
0.386396
0.587181
0.589401
0.999911
0.999977
0.999992
1
1
0.905163
0.350945
0.0193363
0.00318832
0.00352141
0.654875
0.822495
0.860446
0.812526
0.755114
0.538078
0.165867
0.00318866
0.0012705
0.00195722
0.0163597
0.0462573
0.0574127
0.0788608
0.0708742
0.0213283
0.0389699
0.00636393
0.000593608
0.00165499
4.01195e-07
4.01195e-07
4.18375e-07
4.3314e-07
6.17989e-07
5.4874e-06
0.00026786
0.00596776
0.000319577
0.00213733
4.0398e-07
4.03289e-07
4.06074e-07
4.82687e-07
9.99288e-07
3.13916e-05
0.000119318
0.000766109
0.000274616
0.000168082
7.06126e-07
7.40778e-06
2.56514e-06
4.1997e-07
3.20493e-06
4.03423e-05
2.90575e-05
4.64561e-05
0.000111495
1.73737e-05
2.42909e-05
2.76968e-05
2.43263e-05
4.5332e-07
4.08202e-07
4.18858e-06
2.43177e-06
4.45397e-06
2.92007e-05
1.26044e-05
2.76998e-05
2.76892e-05
2.76963e-05
1.73787e-05
1.65891e-06
3.39804e-08
1.74582e-07
3.54893e-07
6.47618e-06
6.01173e-06
2.11468e-05
2.62342e-05
1.31543e-05
3.75823e-05
5.91947e-06
1.89392e-08
1.26691e-08
1.4041e-08
2.68935e-06
1.22408e-06
2.84272e-06
2.66663e-05
2.67538e-05
2.64667e-05
4.46432e-06
1.84749e-08
1.34372e-07
2.88662e-09
7.94435e-07
6.00702e-07
2.76926e-06
1.52409e-05
1.35024e-05
4.16638e-06
2.46371e-07
3.70766e-08
3.55804e-07
2.40635e-07
1.25896e-08
8.87081e-08
3.97313e-06
5.64743e-07
6.30333e-09
3.28973e-10
4.72541e-10
5.9244e-08
3.56284e-07
2.58246e-07
6.66767e-09
1.81956e-08
4.50823e-07
2.08702e-11
8.02241e-12
1.40517e-11
1.1999e-10
9.33271e-09
2.67571e-07
6.5538e-08
7.23543e-09
1.22608e-08
6.06273e-13
4.33952e-14
4.80066e-14
2.58931e-13
4.36063e-10
7.81355e-08
2.52724e-08
4.14699e-11
2.42494e-10
7.41452e-05
1
1
1
1
1
1
1
1
1
1
1
1
1
1
1
1
0.999966
0.999871
0.999986
1
1
1
1
1
1
1
0.999887
0.999747
0.999996
0.999999
1
1
1
1
1
0.999998
0.999975
0.999997
0.999996
0.999997
1
1
1
1
1
1
1
0.933145
0.694684
0.681105
1
1
1
1
1
1
0.939342
0.427038
0.156425
0.0884334
0.999943
0.999989
0.999996
1
1
1
0.790231
0.280149
0.0241728
0.0115192
0.72828
0.88302
0.914687
0.845177
0.781229
0.56671
0.286765
0.0938269
0.0102539
0.0035219
0.0532696
0.0881178
0.104283
0.119817
0.112701
0.073052
0.0237539
0.0116117
0.00503573
0.00458113
1.70985e-06
4.18375e-07
4.33139e-07
4.72951e-07
5.34994e-07
1.04355e-05
0.000397516
0.000365715
0.000310228
0.00116165
4.20154e-07
9.35459e-07
4.35552e-06
5.51372e-06
2.1311e-05
3.15009e-05
8.98306e-05
4.67772e-05
0.000203718
0.00011109
6.55052e-07
4.35633e-06
3.50307e-06
6.53782e-06
1.79651e-05
1.48264e-05
1.26691e-05
5.53969e-06
1.73645e-05
0.000111022
2.63639e-05
2.10547e-05
1.41105e-06
7.69139e-07
1.03941e-06
4.94312e-07
1.01285e-06
1.34955e-06
2.42387e-05
0.000319018
2.76231e-05
1.48218e-05
8.41079e-06
6.48058e-07
1.25398e-06
1.89392e-08
3.82839e-08
2.20979e-07
4.50547e-05
0.000420438
2.38247e-05
5.46718e-07
5.50738e-05
3.81283e-05
1.21696e-06
5.88142e-09
1.72413e-09
2.88662e-09
3.02148e-05
0.000907448
2.28392e-06
4.42617e-06
1.73829e-05
2.96933e-05
7.59814e-06
1.72413e-09
9.10585e-10
1.06165e-09
2.1459e-06
0.00111925
2.57408e-06
1.21847e-05
5.03837e-06
4.70951e-06
3.08851e-06
6.94029e-08
2.46064e-11
1.90499e-10
1.06162e-09
0.000537463
3.73194e-06
3.22461e-06
8.32879e-09
4.29179e-10
1.1999e-10
1.57041e-09
6.86453e-12
2.46064e-11
1.90471e-10
1.46468e-07
1.9351e-07
1.46643e-10
2.09623e-11
8.8329e-11
1.86053e-11
5.83348e-12
4.69115e-12
5.83348e-12
8.11419e-08
1.2131e-07
1.82969e-13
2.48147e-14
1.25137e-11
2.06063e-11
1.79322e-11
5.9192e-11
4.12111e-12
4.69114e-12
3.99945e-07
3.86134e-07
1
1
1
1
1
1
1
1
1
1
1
1
1
1
1
1
0.999988
0.999972
0.999997
1
1
1
1
1
1
1
0.999949
0.999921
0.999997
0.999998
1
1
1
1
1
0.999999
0.999957
0.999998
0.999998
0.994637
1
1
1
1
1
1
1
0.993244
0.81316
0.61893
1
1
1
1
1
1
1
0.900955
0.45508
0.227786
0.999974
0.999997
0.999999
1
1
1
0.987711
0.829842
0.501757
0.272242
0.831652
0.956015
0.975882
0.916002
0.857049
0.727812
0.474252
0.294413
0.218314
0.163423
0.144405
0.191532
0.220941
0.224741
0.20663
0.152547
0.0780237
0.0144568
0.0165275
0.0392803
6.20822e-05
1.71503e-06
4.72951e-07
5.34994e-07
6.54462e-05
5.42293e-05
0.000137997
0.000128518
0.0001131
0.000225512
1.71402e-06
1.76919e-06
1.31001e-05
9.46873e-06
5.29653e-06
8.59687e-06
2.77046e-05
2.28368e-05
0.000111915
8.18259e-05
7.67915e-07
4.4815e-06
1.53674e-05
1.2388e-05
3.01936e-06
1.46532e-06
3.45908e-06
6.84608e-06
8.256e-05
7.10746e-05
3.89723e-06
2.44619e-06
8.48767e-07
8.71282e-07
1.25722e-07
1.77782e-07
2.37951e-07
5.63019e-06
8.91452e-05
7.30359e-05
1.01239e-05
1.20583e-06
9.19906e-07
1.05921e-07
4.35396e-09
6.72988e-08
2.12287e-08
7.83856e-06
8.93016e-05
8.87632e-05
7.04771e-06
3.25746e-07
0.000122727
2.06501e-05
1.77379e-09
2.21342e-09
2.14829e-09
2.06767e-06
2.18781e-05
0.000138211
1.49345e-06
7.12063e-07
7.55243e-06
3.39346e-05
3.26456e-06
2.21399e-09
1.14844e-09
2.14823e-09
1.47047e-05
0.000161462
2.67032e-06
3.11099e-06
6.90116e-07
8.56223e-06
2.65198e-06
3.0055e-07
4.91858e-11
6.26678e-10
1.08951e-05
0.000125085
1.66872e-06
1.84479e-06
4.2814e-10
2.71812e-09
2.29947e-10
6.15756e-10
4.06888e-11
4.91852e-11
6.06593e-06
0.000112128
9.6838e-09
3.34814e-11
2.27329e-10
1.14333e-10
7.88599e-11
8.00674e-10
1.19674e-10
7.24051e-11
2.76121e-06
0.000106382
5.17127e-14
4.84886e-12
1.78165e-11
5.86153e-11
2.13698e-11
1.08749e-10
4.69114e-12
8.05954e-12
4.92334e-06
0.000125572
1
1
1
1
1
1
1
1
1
1
1
1
1
1
1
1
1
1
1
1
1
1
1
1
1
1
1
1
1
1
1
1
1
1
1
1
1
0.999998
1
0.99892
1
1
1
1
1
1
1
1
0.9802
0.852999
1
1
1
1
1
1
1
1
0.938549
0.837885
0.999993
1
1
1
1
1
1
1
0.964599
0.916218
0.918035
0.994597
0.998655
0.995873
0.932374
0.855749
0.72136
0.541337
0.480906
0.490717
0.321343
0.40716
0.451771
0.416977
0.355458
0.260088
0.13753
0.0617406
0.0058287
0.00105918
0.00976382
1.27476e-06
4.34233e-05
6.87277e-05
0.00824007
0.000984537
2.57342e-05
1.64849e-05
3.01538e-05
0.000803913
9.76964e-07
1.04081e-06
8.54198e-07
3.82301e-06
1.31413e-06
5.99332e-06
3.99241e-06
4.05946e-06
2.01592e-05
0.000230218
5.55971e-07
9.85824e-07
8.1661e-07
9.96972e-07
3.52274e-07
3.96981e-07
3.91062e-07
1.75432e-06
1.33288e-05
7.65977e-07
3.6453e-07
2.19284e-07
6.83628e-08
3.69241e-08
1.38561e-08
2.03193e-08
3.17729e-08
8.45936e-07
7.07854e-06
5.45721e-07
3.50097e-07
2.64417e-05
2.39192e-08
1.15899e-08
1.77379e-09
2.3433e-09
7.29412e-09
9.32657e-07
3.13186e-06
3.75555e-05
1.72886e-07
1.60819e-07
0.000138174
1.65889e-05
1.55492e-09
1.77626e-09
2.30149e-09
4.48623e-09
4.81433e-06
9.53436e-05
1.85611e-07
1.11425e-07
0.000121147
5.69714e-05
1.55853e-09
2.90135e-09
2.78078e-09
4.91688e-09
1.26963e-05
0.000125466
2.74377e-07
6.00886e-08
0.000143391
8.50931e-05
1.99487e-06
1.74778e-09
4.44515e-10
1.82162e-09
1.74897e-05
8.48688e-05
3.94407e-09
2.64575e-08
8.90646e-05
4.38267e-05
2.11953e-06
2.51191e-10
5.72284e-11
2.51143e-10
8.17589e-06
2.17872e-05
2.55395e-10
5.15697e-07
3.27409e-05
1.83106e-05
7.72678e-07
1.01536e-08
4.05472e-10
5.69995e-09
2.69841e-07
6.54936e-07
8.97362e-12
9.07136e-08
2.86425e-06
1.93983e-06
1.00286e-08
5.5706e-09
3.59776e-10
1.46577e-11
6.07839e-10
3.18158e-09
1
1
1
1
1
1
1
1
1
1
1
1
1
1
1
1
1
1
1
1
1
1
1
1
1
1
1
1
1
1
1
1
1
1
1
1
1
1
0.999986
0.999811
1
1
1
1
1
1
1
1
1
1
1
1
1
1
1
1
1
1
1
1
0.999999
0.999998
1
1
1
1
1
1
1
0.999996
0.975449
0.999918
1
1
0.993165
0.934164
0.850435
0.760063
0.687195
0.654412
0.59817
0.740211
0.750151
0.672299
0.513677
0.350661
0.197581
0.0997307
0.04532
0.0149193
0.0921176
0.0415527
0.0568096
0.063922
0.0433713
0.00741003
1.63181e-05
7.5028e-06
2.63264e-06
1.67628e-06
6.16737e-07
5.52163e-07
3.7744e-07
1.18675e-06
4.62472e-07
5.4356e-07
1.57397e-05
1.30848e-05
6.44048e-06
5.39905e-05
5.56866e-07
3.78565e-07
7.33904e-08
3.05167e-06
2.4423e-06
1.28194e-07
2.39264e-06
2.7091e-06
2.03626e-07
5.03176e-07
3.93313e-05
3.14324e-05
2.50733e-08
2.85157e-07
1.81937e-07
3.47606e-09
4.52458e-09
2.46693e-08
9.15446e-08
2.46172e-07
9.10457e-07
0.0001367
1.63685e-08
6.47121e-09
4.37731e-09
1.82339e-09
2.59265e-09
4.52901e-09
1.59094e-07
8.6728e-06
2.62301e-08
3.01669e-05
0.000163177
1.11967e-05
1.59637e-09
1.733e-09
1.8234e-09
2.59238e-09
2.43182e-06
2.48622e-05
1.61059e-08
5.96249e-05
0.000302829
3.78272e-05
1.55853e-09
6.86144e-09
1.92921e-09
1.52648e-07
7.40017e-06
2.82767e-05
6.126e-09
0.000131461
0.00030567
2.62289e-05
1.59637e-09
2.6467e-09
7.39239e-10
1.70983e-09
3.77696e-06
2.47273e-05
3.1189e-09
0.000122203
0.000306374
0.0001999
2.2684e-05
5.88614e-10
4.40808e-10
6.47377e-10
4.29558e-09
1.55223e-05
1.82411e-09
4.58787e-05
0.000306226
0.000306374
6.09915e-05
3.12276e-09
4.31544e-10
1.87461e-11
9.64238e-08
4.6527e-06
2.55395e-10
3.78656e-06
0.000231714
0.000208147
4.10799e-05
2.8785e-09
1.84252e-11
1.49224e-11
6.99246e-10
2.93435e-10
1
1
1
1
1
1
1
1
1
1
1
1
1
1
1
1
1
1
1
1
1
1
1
1
1
1
1
1
1
1
1
1
1
1
1
1
1
1
1
1
1
1
1
1
1
1
1
1
1
1
1
1
1
1
1
1
1
1
1
1
1
1
1
1
1
1
1
1
1
1
0.999996
1
1
1
1
0.999906
0.923107
0.832695
0.763787
0.733462
0.920484
0.995853
0.958183
0.861062
0.684291
0.437585
0.239103
0.123277
0.0631458
0.0424225
0.343427
0.372697
0.322732
0.21271
0.0690111
5.66484e-07
3.49239e-06
2.63264e-06
8.6698e-07
7.25189e-07
0.000303129
3.25448e-05
1.42872e-06
1.33127e-07
2.69102e-07
2.54739e-07
4.28058e-06
7.4714e-06
6.82858e-06
1.22677e-06
6.1673e-07
3.79345e-07
1.33127e-07
6.0026e-08
7.2134e-07
2.12398e-07
8.14366e-07
4.67214e-07
1.92077e-07
1.36569e-06
4.46363e-05
7.00889e-05
1.65867e-06
3.72899e-08
1.91777e-08
5.76108e-09
8.46751e-09
1.5806e-08
7.65329e-08
5.77841e-06
0.000378758
0.000219625
2.50733e-08
2.27612e-08
1.13338e-07
2.66077e-09
4.52906e-09
1.13111e-05
5.02739e-06
2.46191e-05
0.000382891
0.00037657
6.73429e-05
1.98186e-08
1.70488e-09
1.8234e-09
2.59266e-09
2.95038e-05
4.49262e-05
2.54657e-05
0.000375604
0.000373857
0.0001703
3.45465e-07
2.06984e-08
7.13697e-09
5.65512e-09
2.47715e-05
6.84768e-05
9.31891e-06
0.000209205
0.000369707
0.000166371
1.09059e-06
2.24904e-06
1.90272e-07
1.70953e-09
6.97509e-06
3.54839e-05
5.6685e-07
0.000139867
0.000369707
0.000272324
1.94175e-06
1.92612e-05
3.1134e-07
5.88583e-10
1.55796e-07
1.58088e-06
3.84324e-09
6.00978e-05
0.000293188