/*--------------------------------*- C++ -*----------------------------------*\
| =========                 |                                                 |
| \\      /  F ield         | OpenFOAM: The Open Source CFD Toolbox           |
|  \\    /   O peration     | Version:  2312                                  |
|   \\  /    A nd           | Website:  www.openfoam.com                      |
|    \\/     M anipulation  |                                                 |
\*---------------------------------------------------------------------------*/
FoamFile
{
    version     2.0;
    format      ascii;
    arch        "LSB;label=32;scalar=64";
    class       volScalarField;
    location    "0.475";
    object      p_rgh;
}
// * * * * * * * * * * * * * * * * * * * * * * * * * * * * * * * * * * * * * //

dimensions      [1 -1 -2 0 0 0 0];

internalField   nonuniform List<scalar> 
8000
(
391.94
392.103
392.851
394.13
395.816
397.73
399.659
401.367
402.66
403.397
392.263
392.45
393.259
394.64
396.466
398.55
400.662
402.541
403.958
404.796
392.868
393.116
394.065
395.666
397.785
400.208
402.674
404.882
406.549
407.549
394.083
394.411
395.548
397.454
399.984
402.902
405.902
408.619
410.662
411.912
396
396.43
397.773
400.064
403.182
406.789
410.55
413.986
416.508
418.097
398.651
399.221
400.874
403.703
407.431
411.978
416.896
421.466
424.851
427.031
401.523
402.263
404.098
407.411
412.312
418.445
425.165
431.472
436.332
438.834
401.808
402.266
403.915
406.067
404.765
417.623
434.912
444.284
451.627
455.433
176.194
175.884
179.49
197.845
243.242
307.188
396.623
460.723
472.523
479.021
0.214781
0.228287
0.260303
0.323485
1.09906
19.5848
92.989
321.178
495.966
506.952
0.22204
0.228876
0.241134
0.257509
0.265202
0.285914
0.486898
55.2457
402.681
538.032
0.214098
0.212271
0.216678
0.223313
0.225111
0.225987
0.177048
0.25067
135.771
521.269
0.20252
0.200926
0.187141
0.185782
0.185098
0.175214
0.143743
0.123915
9.53771
152.037
0.176308
0.172581
0.163441
0.160056
0.155313
0.130649
0.094307
0.0593475
0.151862
0.369527
0.155645
0.154971
0.152393
0.145627
0.134926
0.0958442
0.0362224
0.0372574
0.129519
0.137867
0.155534
0.153564
0.146929
0.138451
0.117894
0.0744697
0.0235113
0.0761673
0.118302
0.146245
0.153422
0.152078
0.143842
0.130434
0.108921
0.079645
0.0626452
0.106574
0.150785
0.2422
0.148926
0.147221
0.1421
0.132472
0.116501
0.0967111
0.0937379
0.112448
0.173815
0.312685
0.148679
0.14741
0.144699
0.139027
0.130359
0.117243
0.100181
0.0946502
0.126654
0.327727
0.149006
0.148505
0.147449
0.144679
0.140558
0.137568
0.124754
0.108751
0.192494
0.354625
390.949
391.088
391.838
393.143
394.87
396.832
398.808
400.553
401.875
402.637
391.135
391.295
392.11
393.527
395.4
397.542
399.71
401.63
403.074
403.939
391.535
391.732
392.68
394.317
396.507
399.013
401.553
403.814
405.511
406.541
392.353
392.616
393.77
395.75
398.371
401.418
404.527
407.319
409.398
410.686
393.763
394.081
395.444
397.883
401.127
404.958
408.876
412.414
414.919
416.586
396.115
396.577
398.24
401.22
405.202
409.961
414.944
419.566
423.151
425.103
398.358
399.134
401.015
404.694
410.15
416.629
423.302
429.426
434.439
436.593
405.28
405.947
407.123
410.752
416.677
424.692
433.902
442.632
449.198
452.057
197.674
201.796
214.382
241.086
286.907
356.02
428.421
458.705
468.307
473.266
0.180689
0.189755
0.20864
0.839322
9.16373
36.6715
132.629
329.189
472.808
497.295
0.200403
0.206373
0.215498
0.21918
0.207477
0.242392
0.418338
42.3259
227.673
411.447
0.193781
0.186933
0.186197
0.18534
0.181879
0.186557
0.143145
0.0824892
7.56476
136.332
0.192154
0.170495
0.156245
0.157315
0.163975
0.160898
0.12605
0.0938876
0.153403
9.14251
0.184542
0.163474
0.144484
0.144612
0.145947
0.13476
0.101358
0.0833076
0.110435
0.143996
0.182564
0.159512
0.142625
0.134423
0.115394
0.0773985
0.0434893
0.0517903
0.0947383
0.102435
0.157859
0.15375
0.14287
0.124752
0.108375
0.0706518
-0.000355738
0.0192837
0.0845529
0.107676
0.149913
0.148086
0.139938
0.124166
0.10814
0.129091
0.0623105
0.0463243
0.09168
0.124213
0.150011
0.147388
0.142812
0.132353
0.117297
0.150111
0.129607
0.113857
0.0827243
0.114017
0.150508
0.148993
0.146969
0.142311
0.13858
0.150056
0.191624
0.123864
0.0743822
0.112408
0.150485
0.150137
0.149792
0.148747
0.151157
0.159689
0.167703
0.130931
0.11046
0.323902
389.111
389.2
389.956
391.313
393.129
395.198
397.281
399.116
400.502
401.293
389.086
389.183
390.007
391.483
393.467
395.74
398.036
400.063
401.583
402.476
389.081
389.184
390.148
391.872
394.203
396.883
399.594
401.993
403.78
404.841
389.25
389.388
390.576
392.634
395.477
398.778
402.136
405.118
407.313
408.633
389.771
389.964
391.365
394.011
397.563
401.707
405.931
409.721
412.465
414.086
391.106
391.396
393.227
396.366
400.649
405.762
411.158
416.12
419.804
421.734
392.228
393.418
395.504
399.58
405.318
411.835
418.641
425.116
429.822
431.943
398.659
399.623
401.783
406.42
412.228
419.73
428.397
436.942
443.014
445.062
124.361
130.603
145.096
175.817
224.297
293.102
372.005
438.019
459.293
462.167
0.137014
0.14416
0.149233
0.327794
5.52364
22.0645
76.7478
191.762
337.908
341.798
0.165947
0.171584
0.177293
0.176143
0.163391
0.17727
0.317607
2.29254
44.8873
67.0453
0.180734
0.179538
0.176708
0.170218
0.163855
0.157956
0.152573
0.133758
0.0580618
0.23339
0.18432
0.164184
0.155779
0.147505
0.144293
0.135528
0.115091
0.107873
0.0823399
0.117853
0.191735
0.161046
0.153292
0.144802
0.134547
0.125199
0.104608
0.104036
0.0830957
0.0696315
0.167912
0.169856
0.149312
0.135018
0.113554
0.0918023
0.081565
0.0856393
0.0594811
0.0471459
0.156653
0.155709
0.146666
0.129143
0.117654
0.0975474
0.0603839
0.0571477
0.035708
0.0594489
0.154584
0.1507
0.144091
0.130485
0.126633
0.146493
0.12157
0.0534195
0.0509617
0.101628
0.154143
0.150917
0.147132
0.138197
0.122815
0.178914
0.158552
0.136346
0.0659273
0.105536
0.153494
0.151634
0.150737
0.147861
0.146052
0.168494
0.236746
0.230592
0.110507
0.147266
0.152896
0.15238
0.153086
0.153564
0.160329
0.17289
0.224879
0.256493
0.291049
0.34968
386.679
386.68
387.438
388.869
390.802
393.013
395.238
397.195
398.673
399.5
386.323
386.303
387.129
388.703
390.844
393.3
395.778
397.955
399.583
400.518
385.639
385.509
386.505
388.389
390.969
393.932
396.913
399.524
401.451
402.566
384.689
384.521
385.625
387.974
391.234
395
398.784
402.09
404.476
405.873
383.343
383.071
384.476
387.558
391.857
396.795
401.679
405.932
408.92
410.649
381.618
381.374
383.088
387.061
392.64
399.126
405.54
411.25
415.178
417.241
379.468
380.011
383.156
388.219
394.966
403.255
411.428
418.882
423.84
425.925
273.039
278.25
297.23
337.034
383.116
409.099
419.244
428.745
434.709
436.138
38.683
39.9678
44.4995
61.025
98.3866
174.165
278.854
375.535
434.793
410.146
0.0374747
0.0490319
0.073451
0.113866
0.245764
2.11477
21.6523
80.1267
147.952
112.131
0.14277
0.144491
0.149221
0.149393
0.183095
0.202106
0.201889
0.290327
0.45867
0.744403
0.192938
0.196903
0.197316
0.187646
0.177298
0.170009
0.157544
0.137052
0.129143
0.191257
0.18176
0.181929
0.172737
0.156548
0.143608
0.130446
0.114135
0.105325
0.105091
0.142021
0.176413
0.178114
0.169239
0.155012
0.138033
0.119016
0.0967696
0.0974593
0.0967832
0.107556
0.170128
0.170611
0.162753
0.148612
0.133212
0.139196
0.104978
0.0810194
0.0621501
0.0628292
0.16535
0.161705
0.155374
0.142812
0.13438
0.180335
0.156929
0.0495699
0.0229961
0.0607924
0.162757
0.15798
0.152998
0.141051
0.126374
0.173793
0.154812
0.095463
0.0324088
0.132589
0.159995
0.155643
0.15354
0.145414
0.132085
0.156674
0.181725
0.176711
0.152852
0.125047
0.157667
0.154836
0.155297
0.152311
0.150929
0.150285
0.213153
0.225162
0.183495
0.108627
0.155828
0.155019
0.156653
0.156856
0.160947
0.166909
0.171452
0.183093
0.146729
0.129052
383.903
383.779
384.539
386.059
388.127
390.501
392.891
394.99
396.575
397.451
383.133
382.964
383.791
385.479
387.805
390.482
393.177
395.536
397.296
398.288
381.638
381.191
382.164
384.262
387.162
390.487
393.806
396.689
398.795
399.989
378.934
378.306
379.616
382.356
386.163
390.538
394.879
398.618
401.265
402.779
374.312
374.002
375.877
379.619
384.845
390.861
396.695
401.626
404.931
406.833
363.57
367.963
370.891
375.998
383.066
391.206
399.061
405.868
410.174
412.363
326.843
362.564
366.403
372.072
381.522
392.804
403.196
412.317
417.323
419.449
147.263
156.992
150.735
187.515
266.364
362.005
409.354
420.358
425.89
423.067
2.66453
2.85185
4.05765
7.64494
26.4407
75.8926
178.09
301.633
373.277
330.309
0.0885351
0.0697822
0.140013
0.173336
0.222448
0.275439
2.43005
26.4019
48.6061
30.1175
0.212679
0.19002
0.208044
0.200276
0.193123
0.230053
0.210616
0.190544
0.241292
0.301799
0.228166
0.234809
0.239409
0.225723
0.208488
0.198203
0.181506
0.153017
0.174001
0.225384
0.200643
0.210193
0.206489
0.191804
0.174089
0.162985
0.179559
0.136527
0.122763
0.164086
0.190498
0.19537
0.19063
0.177814
0.161361
0.156794
0.196869
0.126901
0.107306
0.132782
0.184333
0.182594
0.177315
0.165055
0.148883
0.143073
0.191275
0.174789
0.100671
0.133771
0.181053
0.17405
0.168917
0.157382
0.140748
0.126735
0.165961
0.173342
0.164606
0.188751
0.176425
0.166818
0.163906
0.153071
0.138715
0.118565
0.135166
0.166044
0.177431
0.188233
0.169086
0.160436
0.161378
0.154213
0.145559
0.128184
0.133635
0.139403
0.124669
0.110574
0.161711
0.156723
0.160605
0.15768
0.15616
0.149189
0.134584
0.131713
0.13075
0.122538
0.157196
0.156578
0.160387
0.160314
0.162395
0.164647
0.153963
0.14335
0.136419
0.13177
381.221
380.931
381.715
383.283
385.465
387.983
390.526
392.762
394.453
395.378
380.096
379.628
380.461
382.255
384.758
387.646
390.553
393.094
394.989
396.043
377.444
376.498
377.578
380.005
383.258
386.973
390.651
393.821
396.113
397.399
372.44
370.902
372.987
376.369
380.855
385.927
390.887
395.104
398.036
399.698
363.267
363.203
365.96
370.867
377.334
384.581
391.515
397.266
400.922
403.087
260.372
328.364
355.152
363.352
372.699
382.843
392.339
400.563
405.281
407.727
85.527
190.838
309.585
352.098
367.496
381.661
395.301
405.337
410.763
413.297
8.85585
40.4213
62.4394
79.2272
150.172
271.252
388.347
412.879
418.009
411.322
0.604885
0.407418
1.04172
0.525133
3.01587
26.4424
103.118
236.319
312.875
275.53
0.42575
0.295603
0.277746
0.298258
0.24716
0.219199
0.264527
8.1735
15.3649
6.194
0.343897
0.281693
0.277872
0.264266
0.227024
0.191206
0.195651
0.183682
0.208714
0.255983
0.263888
0.271733
0.27319
0.260948
0.242553
0.216444
0.195854
0.168598
0.171108
0.21602
0.211343
0.236119
0.236341
0.226341
0.206081
0.18548
0.170952
0.171718
0.134889
0.16799
0.197703
0.211979
0.211412
0.202007
0.186108
0.168052
0.166019
0.205665
0.118961
0.14682
0.197446
0.197432
0.194703
0.185359
0.171513
0.155111
0.149452
0.206959
0.165861
0.139076
0.197144
0.185873
0.183964
0.174747
0.161949
0.145576
0.13271
0.163983
0.207613
0.188303
0.181655
0.173932
0.176244
0.167963
0.157783
0.141208
0.127418
0.124495
0.167018
0.172583
0.162152
0.162526
0.169593
0.165149
0.15888
0.147381
0.131923
0.127074
0.127337
0.127916
0.150634
0.156533
0.165323
0.164586
0.162467
0.158332
0.145778
0.139008
0.137239
0.134725
0.149799
0.157588
0.163845
0.16514
0.164973
0.164164
0.158227
0.1492
0.143637
0.141191
378.976
378.552
379.428
380.977
383.173
385.773
388.42
390.758
392.531
393.498
377.53
376.862
377.803
379.529
382.117
385.153
388.217
390.903
392.908
394.015
373.807
372.548
373.803
376.187
379.789
383.844
387.824
391.241
393.689
395.063
368.749
365.096
366.245
370.651
375.963
381.728
387.274
391.933
395.142
396.948
357.666
353.686
356.578
361.994
370.085
378.744
386.765
393.285
397.303
399.82
177.552
220.464
320.01
348.739
362.409
375.028
386.399
395.558
400.987
403.771
9.4332
19.6221
138.192
270.097
349.632
371.754
388.01
399.341
405.045
408.159
1.71427
1.0761
13.8829
28.3095
79.1621
192.71
345.502
406.962
411.939
411.269
0.68711
0.47841
0.530304
0.555407
0.486135
5.63344
63.4422
188.278
268.682
236.646
0.463989
0.409877
0.39409
0.369639
0.300273
0.197469
0.150939
1.53246
4.69922
0.350478
0.317618
0.366076
0.33191
0.302181
0.252125
0.20085
0.159536
0.179731
0.214083
0.267804
0.275842
0.316944
0.294823
0.281217
0.254803
0.225549
0.199289
0.180298
0.180038
0.225717
0.2174
0.269121
0.255172
0.249312
0.227105
0.203049
0.178424
0.167239
0.151844
0.18344
0.218054
0.234262
0.227657
0.222105
0.205603
0.186412
0.166587
0.167826
0.128028
0.153691
0.813189
0.222302
0.210854
0.204281
0.190128
0.172823
0.155583
0.160694
0.148462
0.14748
0.520863
0.210063
0.199703
0.192517
0.18032
0.165546
0.1498
0.151714
0.171429
0.145889
0.173683
0.201538
0.189662
0.18414
0.174352
0.162276
0.149302
0.147242
0.17017
0.182903
0.142268
0.189714
0.17746
0.17765
0.171192
0.162917
0.152768
0.145689
0.144781
0.145012
0.131511
0.178906
0.167974
0.173368
0.169933
0.165075
0.157752
0.15024
0.147226
0.145338
0.139194
0.172068
0.165924
0.171976
0.169759
0.166574
0.161614
0.154413
0.151001
0.14896
377.152
376.986
378.134
379.512
381.6
384.146
386.811
389.19
391.006
391.999
375.462
374.956
376.377
377.804
380.3
383.328
386.441
389.197
391.253
392.4
371.996
369.883
371.737
373.648
377.206
381.555
385.674
389.231
391.755
393.199
367.336
362.631
362.819
365.675
372.184
378.512
384.459
389.44
392.871
394.74
354.299
347.953
347.187
353.397
363.336
373.887
382.903
390.162
394.568
397.122
298.75
176.985
199.529
301.786
351.662
368.164
381.15
391.798
397.985
400.659
118.69
6.05599
33.538
141.97
300.799
364.561
382.054
394.481
400.538
404.424
1.67045
0.646525
0.850895
16.842
47.3199
146.598
305.36
401.8
407.584
408.932
0.763787
0.434049
0.489657
0.451224
0.446226
0.494286
38.3478
153.464
243.002
216.28
1.92926
0.431923
0.425544
0.370992
0.280864
0.204728
0.116334
0.137008
0.247892
0.307768
12.0284
0.385306
0.362811
0.31049
0.237147
0.197651
0.14633
0.17405
0.215361
0.260502
17.456
0.331332
0.303151
0.283916
0.248402
0.22271
0.199177
0.188573
0.194975
0.235064
13.0005
0.371406
0.263509
0.260235
0.233404
0.208098
0.185809
0.172161
0.168853
0.196995
4.92084
0.327256
0.238374
0.235135
0.215834
0.195551
0.184294
0.163316
0.148332
0.162986
1.45184
0.237177
0.2249
0.219304
0.202677
0.185687
0.176665
0.154572
0.138511
0.152977
0.69557
0.237155
0.218876
0.209845
0.194549
0.178314
0.171134
0.168223
0.142259
0.154457
2.67364
0.224637
0.209669
0.202284
0.188609
0.175761
0.165146
0.181541
0.184319
0.168426
4.19951
0.196008
0.190491
0.193214
0.18254
0.173616
0.16462
0.16175
0.165584
0.16151
0.676325
0.17116
0.171185
0.184085
0.177741
0.172119
0.165429
0.159515
0.155461
0.153658
0.123086
0.175295
0.16591
0.181043
0.175634
0.171378
0.166016
0.160818
0.157209
0.155296
375.947
375.932
377.742
379.175
380.966
383.299
385.854
388.202
390.016
391.014
373.118
373.32
376.28
377.619
379.753
382.441
385.406
388.122
390.187
391.34
367.136
366.772
371.714
373.447
376.499
380.525
384.473
387.977
390.542
391.974
356.546
356.403
361.547
364.82
370.252
376.729
382.817
387.87
391.345
393.272
332.325
338.753
312.394
330.529
355.855
370.231
380.377
388.054
392.751
395.369
321.275
285.203
106.217
163.692
318.552
362.446
377.482
388.896
395.35
398.531
339.197
95.9537
2.57533
36.2875
218.379
360.157
377.705
391.252
398.493
402.293
96.1975
0.692687
0.604625
1.29912
38.5516
132.065
278.472
398.96
406.808
407.016
1.6404
0.367435
0.558007
0.495235
0.428971
0.482537
24.8338
134.257
227.212
209.882
3.96244
0.387233
0.453419
0.361748
0.220475
0.197239
0.14757
0.157379
0.214882
0.254904
49.5062
0.393828
0.365141
0.287062
0.212268
0.190757
0.159992
0.167067
0.210169
0.243599
59.4619
0.361959
0.312001
0.280061
0.228778
0.199364
0.187022
0.189051
0.199536
0.23253
61.8645
0.330047
0.28045
0.26549
0.230963
0.204171
0.183671
0.186559
0.191556
0.20164
12.3857
0.281801
0.259824
0.247777
0.220675
0.199304
0.191414
0.19143
0.169544
0.170321
0.22949
0.265209
0.246208
0.235635
0.212553
0.194096
0.195179
0.185816
0.152016
0.159003
12.3559
0.255814
0.244317
0.23014
0.207879
0.189609
0.189151
0.185724
0.155673
0.160667
87.1553
0.283408
0.242644
0.226244
0.204206
0.188339
0.178015
0.180633
0.169317
0.163543
120.858
0.272813
0.222807
0.215491
0.196807
0.185984
0.174346
0.167374
0.167111
0.166193
58.2927
0.216179
0.179603
0.202044
0.18764
0.182143
0.173183
0.166363
0.161586
0.159695
19.7591
0.256277
0.174261
0.198459
0.183087
0.180939
0.171628
0.166098
0.162075
0.159905
374.637
377.066
379.485
380.528
381.51
383.312
385.624
387.857
389.627
390.607
368.448
373.35
378.841
379.499
380.64
382.496
385.17
387.748
389.761
390.897
357.43
363.862
375.361
377.098
377.818
380.847
384.267
387.551
390.049
391.447
342.202
344.215
360.395
367.164
370.67
376.441
382.409
387.311
390.717
392.624
329.641
324.623
270.676
261.634
336.423
367.679
379.161
387.139
391.95
394.577
345.528
317.917
115.726
48.7902
225.622
356.498
374.945
387.49
394.267
397.561
385.353
216.467
19.2919
6.76199
119.615
344.098
375.277
389.662
397.43
401.301
331.762
20.3871
0.4831
1.45532
25.4188
133.671
269.839
398.143
406.156
406.181
41.218
0.627773
0.407119
1.0707
0.779337
0.784442
21.7244
126.996
221.15
208.292
8.16031
0.349042
0.406368
0.545196
0.692999
0.505513
0.203033
0.178493
0.209539
0.236878
52.7714
0.358547
0.297591
0.298845
0.477554
0.681175
0.348787
0.163077
0.200541
0.230215
57.8676
0.378493
0.284544
0.272615
0.234666
0.326862
0.294527
0.179861
0.188965
0.22172
63.2588
0.360197
0.272116
0.266089
0.22726
0.196555
0.17287
0.188609
0.188425
0.194176
43.4508
0.341822
0.267938
0.264553
0.223794
0.197785
0.176229
0.191174
0.179848
0.171029
3.43276
0.313697
0.268787
0.259981
0.216572
0.197282
0.184882
0.191086
0.171309
0.161197
82.2627
0.30432
0.279281
0.248506
0.215819
0.194746
0.18167
0.190191
0.173719
0.162957
150.806
0.388074
0.334242
0.249697
0.213251
0.193434
0.179028
0.176428
0.173256
0.165018
160.582
0.46486
0.58714
0.246367
0.205286
0.189741
0.1781
0.169835
0.164775
0.164882
166.131
0.663648
0.878848
0.267378
0.193235
0.184677
0.176053
0.1695
0.164742
0.162679
133.987
5.10663
0.721053
0.287269
0.186369
0.181204
0.173708
0.168555
0.164563
0.162462
375.01
376.55
379.266
380.624
381.69
383.537
385.858
388.065
389.809
390.777
368.219
373.342
378.665
379.688
380.895
382.783
385.412
387.96
389.943
391.065
358.649
366.586
376.999
377.458
378.237
381.165
384.517
387.768
390.234
391.615
345.234
348.604
368.068
370.273
371.733
377.109
382.8
387.557
390.907
392.788
334.938
331.082
296.187
276.692
339.245
369.016
379.81
387.494
392.162
394.741
351.238
331.24
133.35
53.6214
216.858
358.101
375.756
387.875
394.475
397.698
425.316
247.089
21.4298
7.0901
108.268
339.808
375.881
390.063
397.649
401.434
422.321
37.9974
0.662592
1.28235
22.932
141.375
269.824
398.444
406.413
406.254
342.066
7.64564
0.488541
1.24708
1.07864
1.07114
26.8382
128.508
222.272
208.021
71.3878
0.992473
0.487156
0.66685
1.24984
0.751189
0.20371
0.172696
0.210602
0.242995
1.83212
2.59131
0.65337
0.346619
0.443969
0.688015
0.360692
0.153551
0.188007
0.224034
4.08778
7.24944
1.24639
0.26675
0.249128
0.335741
0.214327
0.165405
0.182423
0.216764
3.66711
8.1189
1.52742
0.236101
0.221705
0.191939
0.164973
0.165635
0.175745
0.192365
10.5003
6.89212
0.992777
0.233264
0.218294
0.203529
0.173779
0.180256
0.166616
0.166623
104.597
9.181
0.395502
0.249079
0.221013
0.205614
0.178771
0.188221
0.167925
0.158461
141.892
25.579
0.334888
0.272422
0.230262
0.197512
0.179109
0.184703
0.174122
0.161495
148.623
50.6712
0.355966
0.261327
0.222332
0.198614
0.180211
0.176263
0.17999
0.165944
157.648
68.1601
0.424974
0.207872
0.205386
0.192242
0.179781
0.170597
0.165957
0.165919
166.632
85.1702
5.90452
0.176411
0.192959
0.187362
0.178003
0.170696
0.165474
0.16328
163.531
141.954
31.0329
0.218669
0.208392
0.189203
0.177767
0.170295
0.165503
0.163196
378.005
378.454
379.717
380.825
382.238
384.294
386.644
388.842
390.564
391.517
375.646
376.265
378.635
379.542
381.165
383.499
386.224
388.771
390.732
391.837
370.333
371.905
375.888
376.227
378.337
381.741
385.339
388.643
391.086
392.462
358.637
365.479
371.662
369.53
372.655
378.23
383.792
388.558
391.876
393.737
334.409
350.72
330.138
339.956
359.191
372.006
381.434
388.772
393.275
395.809
340.627
270.375
101.715
165.854
318.707
363.714
378.233
389.518
395.782
398.874
307.956
67.8536
2.11537
29.3632
208.068
360.394
378.033
391.996
398.957
402.587
74.6215
0.033016
0.270214
0.948643
42.8249
132.918
279.111
399.54
407.139
406.882
34.7404
0.31385
0.473238
0.490444
0.440197
0.551171
31.1462
137.034
227.645
207.831
56.3487
0.525341
0.459082
0.34723
0.26135
0.162869
0.114362
0.146523
0.205343
0.254967
43.896
0.448272
0.378878
0.298027
0.246522
0.255985
0.196568
0.149384
0.190655
0.228509
3.04022
0.32072
0.329073
0.318025
0.221414
0.181248
0.161645
0.167403
0.179684
0.215763
0.21133
0.272579
0.30241
0.317826
0.232005
0.187611
0.166898
0.154898
0.155442
0.184169
0.240568
0.255371
0.276047
0.305855
0.226788
0.186565
0.172191
0.153486
0.142403
0.160056
0.314809
0.253926
0.281744
0.304708
0.229453
0.185115
0.172436
0.15689
0.141778
0.152744
0.951731
0.241903
0.315373
0.238473
0.2317
0.18689
0.176185
0.177056
0.161594
0.156592
5.80582
0.1864
0.37398
0.221445
0.212557
0.187742
0.174048
0.171387
0.170383
0.16287
16.6974
0.148304
0.581536
0.209444
0.193927
0.185089
0.175526
0.167322
0.161906
0.162161
19.637
0.161368
0.859356
0.212265
0.184176
0.181796
0.174747
0.168243
0.163395
0.161232
17.0665
0.212823
0.628192
0.25049
0.185138
0.181402
0.173685
0.168012
0.163813
0.161721
380.77
380.405
381.064
381.962
383.539
385.668
388.021
390.183
391.863
392.792
379.961
379.256
379.989
380.728
382.46
384.946
387.688
390.196
392.104
393.181
379.247
376.945
377.041
377.702
379.828
383.362
386.982
390.244
392.6
393.962
377.403
375.181
371.613
371.686
375.536
380.549
385.808
390.436
393.669
395.457
351.68
355.249
359.379
360.322
366.95
375.914
384.148
391.097
395.342
397.784
203.496
133.097
184.592
307.829
354.041
369.233
381.817
392.559
398.543
401.148
44.0885
2.10842
36.2401
139.753
297.05
364.66
381.617
395.47
401.168
404.824
1.39687
0.261772
0.708546
13.7548
43.7447
141.984
301.792
402.077
407.939
408.64
0.554139
0.413594
0.443258
0.416192
0.417612
0.467168
38.368
153.702
242.419
212.417
1.38921
0.430361
0.384732
0.331073
0.229483
0.161706
0.0727511
0.111599
0.235012
0.299335
3.86406
0.346113
0.31305
0.277608
0.202356
0.162152
0.111178
0.147623
0.193669
0.236571
2.00348
0.282073
0.269255
0.257854
0.225614
0.197802
0.172784
0.163512
0.17195
0.211592
0.304223
0.248425
0.240547
0.237755
0.216151
0.188192
0.163469
0.15118
0.13834
0.171544
0.204678
0.236262
0.226702
0.220633
0.202384
0.177931
0.15861
0.154614
0.140984
0.152517
0.220793
0.227204
0.221748
0.211843
0.194234
0.172975
0.155043
0.141402
0.160096
0.147998
0.254382
0.232212
0.235087
0.208185
0.192711
0.175585
0.160981
0.158551
0.143535
0.149641
0.238341
0.36658
0.257346
0.201155
0.191304
0.179532
0.16679
0.158156
0.155523
0.157978
0.233868
0.394832
0.223776
0.189116
0.186461
0.180207
0.171671
0.162714
0.156328
0.155419
0.22226
0.318424
0.164373
0.180313
0.180914
0.178329
0.17227
0.165223
0.159938
0.157538
0.242612
0.196927
0.162474
0.179463
0.178294
0.176214
0.170803
0.165239
0.160937
0.15882
382.823
382.379
382.781
383.817
385.481
387.625
389.923
392.014
393.631
394.524
382.098
381.35
381.713
382.745
384.614
387.086
389.744
392.156
393.994
395.022
380.536
378.838
379.101
380.235
382.66
385.912
389.377
392.48
394.748
396.038
379.89
374.885
373.924
375.656
379.202
383.875
388.785
393.113
396.133
397.853
349.428
364.429
365.389
367.43
373.267
380.669
388.012
394.346
398.203
400.638
112.646
204.011
317.979
351.827
363.926
375.939
386.798
396.595
401.73
404.395
7.93405
33.7238
144.355
260.922
348.409
371.481
387.459
400.312
405.707
408.617
1.13056
1.24211
15.138
20.7455
72.5786
185.63
341.954
407.109
412.302
410.452
0.563496
0.562821
0.484243
0.533464
0.469418
3.74121
59.8265
185.428
267.31
233.179
0.47066
0.323326
0.337006
0.342499
0.275517
0.168205
0.0949713
1.06528
4.68438
0.344394
0.259755
0.29557
0.292191
0.27395
0.223894
0.169586
0.118895
0.151615
0.191267
0.236782
0.224624
0.284459
0.271962
0.257847
0.231217
0.201945
0.171403
0.149833
0.154094
0.198979
0.218615
0.255868
0.241834
0.22997
0.208765
0.181331
0.154048
0.146298
0.123474
0.163009
0.207799
0.230995
0.219455
0.208562
0.189949
0.166227
0.146755
0.185816
0.145503
0.14617
0.24309
0.231817
0.206917
0.196306
0.180518
0.157575
0.138105
0.146285
0.195196
0.140766
0.27741
0.24398
0.200359
0.19147
0.178824
0.161771
0.145405
0.136562
0.166346
0.161157
0.262439
0.301217
0.2017
0.18915
0.181814
0.171856
0.160035
0.152923
0.150044
0.149759
0.20549
0.391159
0.21464
0.184795
0.182106
0.177634
0.170034
0.15875
0.15036
0.14806
0.190718
0.258763
0.198371
0.179406
0.1792
0.176957
0.171826
0.162672
0.155848
0.152655
0.196302
0.179212
0.175833
0.176257
0.175698
0.173563
0.169157
0.162512
0.157142
0.154729
384.636
384.466
384.989
386.144
387.871
389.977
392.191
394.189
395.725
396.577
384.153
383.687
384.12
385.353
387.284
389.684
392.222
394.506
396.24
397.218
382.632
381.779
382.073
383.566
385.984
389.066
392.304
395.191
397.317
398.526
379.507
377.992
378.449
380.367
383.701
387.985
392.448
396.372
399.147
400.736
367.926
370.923
371.875
374.855
379.952
386.342
392.804
398.322
401.888
404.011
260.108
333.458
359.102
365.529
374.146
383.829
393.187
401.247
406.044
408.429
111.436
214.437
307
351.065
367.491
381.624
395.113
406.064
411.362
413.813
21.9133
54.288
53.9503
76.05
146.055
265.442
386.76
412.887
418.357
410.356
0.505467
0.30204
0.369033
0.435779
1.98033
23.8857
97.7671
231.644
311.799
274.295
0.222753
0.167045
0.236551
0.26377
0.210355
0.184122
0.22948
7.75769
15.2199
6.11963
0.204715
0.217101
0.235281
0.22888
0.194457
0.157611
0.160515
0.147683
0.183027
0.222549
0.21951
0.24439
0.24798
0.235439
0.214028
0.184014
0.15423
0.135185
0.14904
0.191071
0.203364
0.224462
0.217974
0.205358
0.182657
0.14984
0.156597
0.112436
0.121189
0.156002
0.200691
0.205556
0.20009
0.185924
0.161788
0.1337
0.195807
0.149725
0.108624
0.138639
0.309286
0.191795
0.188404
0.174993
0.15223
0.127064
0.156456
0.186581
0.161145
0.123294
0.350378
0.183505
0.183314
0.174348
0.158072
0.136002
0.128689
0.115692
0.189793
0.146364
0.352178
0.178218
0.180842
0.178038
0.172797
0.161998
0.148676
0.140892
0.127351
0.134534
0.224068
0.174695
0.177681
0.178991
0.18036
0.180345
0.17307
0.158278
0.144186
0.140039
0.175838
0.172909
0.173814
0.176327
0.178802
0.180287
0.177523
0.163237
0.151694
0.146781
0.177831
0.172111
0.170863
0.17232
0.173665
0.173571
0.170512
0.161104
0.152229
0.149618
386.856
386.885
387.51
388.74
390.464
392.507
394.621
396.513
397.961
398.772
386.408
386.333
386.956
388.28
390.196
392.499
394.893
397.034
398.655
399.581
385.395
385.135
385.729
387.27
389.623
392.496
395.477
398.129
400.096
401.226
383.184
382.778
383.486
385.465
388.599
392.456
396.434
399.938
402.463
403.917
378.374
378.466
379.653
382.503
386.996
392.48
397.99
402.723
405.985
407.851
369.31
370.819
373.067
377.751
384.456
392.307
400.017
406.59
411.076
413.198
345.244
364.755
366.968
372.728
382.089
393.294
403.84
412.579
417.88
420.058
146.096
150.269
153.184
190.293
266.359
361.822
409.219
420.44
426.277
423.82
1.79648
2.80007
2.22085
6.43667
25.133
73.1278
174.053
298.991
372.724
331.79
0.0153405
0.0537515
0.118895
0.149709
0.186829
0.254474
2.05099
25.6389
47.8802
30.4094
0.145546
0.156555
0.169837
0.164459
0.155904
0.204087
0.181241
0.153423
0.223369
0.268186
0.209762
0.21219
0.210907
0.198037
0.181151
0.16003
0.13451
0.126023
0.162433
0.200862
0.193127
0.196581
0.189342
0.17211
0.139631
0.154781
0.108606
0.0915784
0.116956
0.146419
0.185035
0.185916
0.175865
0.15563
0.130361
0.213352
0.189075
0.0501219
0.0752647
0.122984
0.178596
0.173117
0.167386
0.147406
0.135887
0.246304
0.236868
0.122921
0.0553881
0.142951
0.188334
0.170368
0.167671
0.155304
0.140979
0.231714
0.289977
0.197216
0.150342
0.12535
0.2291
0.17112
0.170983
0.169645
0.167963
0.193979
0.213972
0.147087
0.112026
0.11483
0.248972
0.169312
0.172055
0.175885
0.18433
0.193347
0.183895
0.159551
0.135213
0.130008
0.197177
0.167695
0.170274
0.17445
0.181897
0.190469
0.187742
0.167988
0.147971
0.139432
0.165747
0.166185
0.167387
0.169836
0.173626
0.176775
0.17668
0.16444
0.148908
0.141649
389.188
389.345
390.055
391.308
393.002
394.968
396.977
398.766
400.129
400.902
388.936
389.08
389.825
391.183
393.053
395.243
397.493
399.497
401.011
401.892
388.411
388.507
389.325
390.917
393.168
395.83
398.567
401.001
402.818
403.882
387.462
387.479
388.438
390.444
393.34
396.784
400.317
403.45
405.743
407.093
385.573
385.751
387.043
389.739
393.682
398.318
402.992
407.104
410.052
411.755
381.779
382.603
384.67
388.435
394.008
400.32
406.603
412.176
416.146
418.205
377.637
380.282
383.561
388.555
395.792
404.075
412.197
419.468
424.544
426.707
271.423
282.102
305.128
342.221
385.707
409.378
419.545
429.115
435.308
436.762
34.8203
38.6787
45.6072
63.8288
100.519
175.247
279.621
376.158
436.338
414.124
0.0328967
0.0551938
0.0678295
0.107664
0.237634
2.07155
21.6941
80.7682
150.211
116.284
0.106453
0.115581
0.121667
0.128972
0.164591
0.18258
0.179244
0.28414
0.44202
0.711898
0.194417
0.185941
0.175774
0.163687
0.150421
0.135202
0.127913
0.11903
0.121564
0.184434
0.193217
0.185317
0.159397
0.136698
0.115942
0.0841235
0.0830234
0.087268
0.0988893
0.144321
0.18934
0.177832
0.15036
0.123467
0.156866
0.202897
0.106182
0.048475
0.0622536
0.131206
0.170583
0.16216
0.147322
0.12585
0.243378
0.241495
0.223625
0.0431511
0.11512
0.458445
0.162156
0.165229
0.150861
0.135692
0.235123
0.283174
0.26253
0.244845
0.0962594
0.152806
0.160435
0.160944
0.161038
0.162097
0.184735
0.354731
0.362212
0.171571
0.108271
0.0914327
0.160334
0.162769
0.166285
0.173884
0.1923
0.223725
0.240155
0.145549
0.11734
0.118624
0.159627
0.162481
0.165945
0.172248
0.185713
0.201997
0.193105
0.164142
0.136775
0.131388
0.159321
0.161094
0.163292
0.166847
0.173199
0.179942
0.174751
0.157266
0.141719
0.136276
391.283
391.517
392.276
393.534
395.191
397.084
399.003
400.704
401.999
402.744
391.273
391.522
392.336
393.699
395.513
397.602
399.73
401.623
403.052
403.902
391.262
391.536
392.466
394.057
396.199
398.684
401.224
403.49
405.192
406.212
391.298
391.622
392.747
394.702
397.354
400.462
403.653
406.511
408.635
409.918
391.462
391.938
393.381
395.863
399.215
403.187
407.273
410.963
413.668
415.269
391.688
392.533