/*--------------------------------*- C++ -*----------------------------------*\
| =========                 |                                                 |
| \\      /  F ield         | OpenFOAM: The Open Source CFD Toolbox           |
|  \\    /   O peration     | Version:  2312                                  |
|   \\  /    A nd           | Website:  www.openfoam.com                      |
|    \\/     M anipulation  |                                                 |
\*---------------------------------------------------------------------------*/
FoamFile
{
    version     2.0;
    format      ascii;
    arch        "LSB;label=32;scalar=64";
    class       volVectorField;
    location    "0.475";
    object      U;
}
// * * * * * * * * * * * * * * * * * * * * * * * * * * * * * * * * * * * * * //

dimensions      [0 1 -1 0 0 0 0];

internalField   nonuniform List<vector> 
8000
(
(0.00270254 0.000621998 -0.00503673)
(0.00650952 0.000714091 -0.00464231)
(0.00947924 0.000926832 -0.0040392)
(0.0112219 0.00122317 -0.00343182)
(0.0117077 0.00155408 -0.00291262)
(0.0110428 0.00184167 -0.00255787)
(0.00947044 0.00209118 -0.00234188)
(0.00698269 0.00219704 -0.00220097)
(0.00471849 0.00212908 -0.00211485)
(0.00208223 0.00270908 -0.00213004)
(0.00337169 0.00306668 -0.00600365)
(0.00826877 0.00349032 -0.00562862)
(0.0123433 0.00426583 -0.0050769)
(0.0151405 0.00529789 -0.00446484)
(0.0164408 0.00649888 -0.00392329)
(0.0161804 0.00770132 -0.00353127)
(0.0145423 0.00878596 -0.00331628)
(0.0113645 0.00935344 -0.00319721)
(0.00761181 0.00918124 -0.00309842)
(0.00319543 0.0108884 -0.00322051)
(0.00362681 0.00356557 -0.00548424)
(0.00896912 0.00431981 -0.00497322)
(0.0133168 0.00572849 -0.00432469)
(0.0162149 0.00779632 -0.00378473)
(0.0174617 0.0103709 -0.00339018)
(0.0170378 0.0131183 -0.00315137)
(0.0150915 0.0158054 -0.00311096)
(0.0115748 0.0179393 -0.00318703)
(0.00766307 0.0193621 -0.00333411)
(0.00337072 0.022707 -0.00340856)
(0.00403203 0.00513914 -0.0042766)
(0.0103606 0.00644477 -0.00389807)
(0.0156603 0.00867993 -0.0034924)
(0.0192874 0.0117837 -0.00312216)
(0.0207523 0.0155928 -0.00299842)
(0.0200802 0.0197427 -0.00308484)
(0.0177432 0.023686 -0.00326728)
(0.0143563 0.0255941 -0.00357086)
(0.00944285 0.0259453 -0.00349018)
(0.00355376 0.0302403 -0.00355983)
(0.00472584 -0.00270043 0.00317744)
(0.0128051 -0.000827198 0.00333968)
(0.0192309 0.00274857 0.00275215)
(0.023357 0.00833238 0.00150664)
(0.0249292 0.0158418 0.000107724)
(0.0237957 0.0234486 -0.00110846)
(0.0200577 0.0302555 -0.00232665)
(0.0148524 0.0353887 -0.00278512)
(0.00587703 0.0399706 -0.000805514)
(-0.000199751 0.0454044 -0.000496526)
(0.00565236 -0.0190515 0.0169102)
(0.0192178 -0.0150086 0.0167896)
(0.0308815 -0.00596607 0.0157194)
(0.0392323 0.00610578 0.0134065)
(0.0418376 0.0184303 0.00944906)
(0.0397085 0.0306929 0.00529419)
(0.0332167 0.042173 0.00224914)
(0.0236845 0.0486406 0.00153558)
(0.00590856 0.0461369 0.00592103)
(-0.00533366 0.0450756 0.0062744)
(0.00919447 -0.0741072 0.0159257)
(0.0291575 -0.0691843 0.0155762)
(0.0471656 -0.0575749 0.0163543)
(0.0614263 -0.0368267 0.0179643)
(0.0696601 -0.00488933 0.0186347)
(0.0660965 0.0252126 0.0161097)
(0.0508194 0.0465487 0.0122735)
(0.0307038 0.0571639 0.0099256)
(0.00623171 0.0481802 0.0114003)
(-0.00856604 0.0339745 0.0101342)
(0.0149565 -0.096429 -0.00746027)
(0.0419914 -0.0907084 -0.00763559)
(0.0663146 -0.0794678 -0.00678491)
(0.0857905 -0.0619643 -0.00441348)
(0.0950596 -0.0318258 0.00292314)
(0.0938836 0.0140476 0.0135217)
(0.0811166 0.0559944 0.0192586)
(0.0543912 0.0754283 0.0175567)
(0.019753 0.065545 0.0094384)
(-0.00434953 0.0360521 0.00143138)
(0.0211952 -0.106408 -0.0292625)
(0.058872 -0.0999261 -0.0327876)
(0.094847 -0.0831875 -0.0370265)
(0.121878 -0.0557026 -0.0398337)
(0.141262 -0.021026 -0.0405455)
(0.147425 0.0183326 -0.0377052)
(0.13957 0.0660682 -0.0245878)
(0.112131 0.107471 -0.00499094)
(0.0545961 0.110156 0.00105906)
(0.00516576 0.0770797 -0.0119987)
(0.0222727 -0.185795 -0.0132728)
(0.0530166 -0.171084 -0.028232)
(0.0849719 -0.122888 -0.0457466)
(0.065802 -0.0468519 -0.0674437)
(0.0574325 -0.00604707 -0.065254)
(0.119864 0.0569316 -0.0577292)
(0.115755 0.108271 -0.0549469)
(0.120611 0.161814 -0.0325201)
(0.0720104 0.186718 -0.0116455)
(0.0106699 0.149741 -0.0182434)
(0.0239683 -0.136807 -0.0447697)
(0.058066 -0.118923 -0.0594177)
(0.0999495 -0.0871523 -0.0623744)
(0.149301 -0.0263254 -0.0299845)
(0.157345 0.0183792 0.0258688)
(0.101893 0.0642726 0.0282219)
(-0.223352 0.203051 -0.00910025)
(0.0126396 0.197229 -0.033359)
(0.0501766 0.260692 -0.0191701)
(0.0187348 0.245039 -0.0249533)
(0.0404206 0.0218447 -0.143751)
(0.0739373 0.048223 -0.130043)
(0.0987749 0.0873936 -0.110798)
(0.119942 0.117067 -0.0899818)
(0.134139 0.13962 -0.0600132)
(0.164422 0.203742 0.00306215)
(0.122448 0.348729 0.0230428)
(-0.112146 -0.0665653 -0.0156549)
(-0.0267664 0.296365 -0.032269)
(0.0245188 0.333426 -0.028331)
(0.0571394 0.0958241 -0.0857573)
(0.0769664 0.107163 -0.0719535)
(0.097212 0.137303 -0.0561345)
(0.114365 0.177005 -0.0406785)
(0.130175 0.194378 -0.00745401)
(0.170691 0.205239 0.0355212)
(0.275266 0.394174 0.0399123)
(0.0491859 0.270409 0.013907)
(-0.10756 0.160689 -0.0539326)
(0.0214976 0.28786 -0.0254654)
(0.0590985 0.133608 -0.0472173)
(0.0753086 0.122482 -0.0310748)
(0.0911248 0.121713 -0.0141309)
(0.103338 0.128683 0.00916133)
(0.13468 0.0823513 0.0385213)
(0.142808 0.0221602 0.0517346)
(0.232124 0.312602 0.0460848)
(0.206604 0.478285 -0.00604106)
(0.0519957 0.284181 -0.0808812)
(0.00988718 -0.0332848 -0.0253054)
(0.0399462 0.130504 -0.0164618)
(0.0501304 0.102795 -0.00155034)
(0.0659049 0.0701707 0.0111798)
(0.0943842 0.0116084 0.0290024)
(0.146011 -0.0677252 0.0385185)
(0.104646 -0.10461 0.0557282)
(0.0330357 0.223656 0.065846)
(0.15372 0.596653 -0.0358097)
(0.0145307 0.609775 -0.0731121)
(-0.0197749 0.218495 0.0154665)
(0.0177826 0.0840889 0.00791254)
(0.0254019 0.0532708 0.0156301)
(0.0442396 0.00410736 0.0185432)
(0.0688363 -0.0641668 0.0106718)
(0.100427 -0.126242 -0.00025075)
(0.0291036 -0.143195 0.0324276)
(-0.158444 0.171312 0.107595)
(-0.0594013 0.68577 0.0282239)
(-0.0899899 0.764747 -0.0038203)
(-0.016504 0.197675 0.03734)
(0.00602171 0.0264343 0.0157944)
(0.0202308 0.00323512 0.0126209)
(0.031334 -0.0255517 0.00441194)
(0.03588 -0.0653948 -0.0130302)
(0.0478938 -0.113013 -0.0319735)
(0.00307918 -0.12664 -0.0244029)
(-0.20549 0.0689625 0.0839847)
(-0.214609 0.525574 0.12552)
(-0.114322 0.607832 0.0736464)
(0.0202818 0.0410259 -0.0077263)
(0.00331891 -0.00355757 0.00457023)
(0.0116872 -0.015019 0.00142803)
(0.0156701 -0.0308181 -0.00484725)
(0.0171853 -0.0544203 -0.0147348)
(0.0261467 -0.083677 -0.0325368)
(0.0144875 -0.0646203 -0.0620584)
(-0.108927 0.054613 -0.0421283)
(-0.186062 0.26653 0.0521495)
(-0.0731161 0.305665 0.0451143)
(0.0174569 0.00836379 -0.0403593)
(0.000858887 -0.0133167 -0.00154249)
(0.00418092 -0.0214086 -0.000768721)
(0.00447316 -0.0321059 -0.00447754)
(0.00686239 -0.0483146 -0.00968054)
(0.0112899 -0.0606115 -0.0184833)
(0.00784531 -0.000125699 -0.059341)
(-0.0368876 0.126105 -0.113113)
(-0.0920553 0.212218 -0.092746)
(-0.0459432 0.175559 -0.057382)
(0.0096185 0.0198466 -0.0451245)
(-0.00527401 -0.0154134 -0.00260949)
(-0.00393673 -0.0226573 -0.00123011)
(-0.00639427 -0.0313802 -0.00356904)
(-0.00265669 -0.0462971 -0.00412716)
(-0.00972732 -0.0445099 -0.00215653)
(-0.0283806 0.0594434 -0.028143)
(-0.0299748 0.194677 -0.102194)
(-0.0489859 0.245322 -0.127868)
(-0.0204612 0.172891 -0.0977696)
(0.00935539 0.0567064 -0.0399117)
(0.00214892 -0.00118213 -0.00729886)
(0.00457367 -0.00106768 -0.00680851)
(0.0066966 -0.00084784 -0.00619642)
(0.00817155 -0.000402411 -0.00560794)
(0.00882643 0.000145292 -0.00511804)
(0.00851761 0.000656574 -0.00480295)
(0.00741506 0.00106051 -0.00462011)
(0.005435 0.00119905 -0.00446138)
(0.00400372 0.00110503 -0.00418044)
(0.00206772 0.00213533 -0.00489033)
(0.00304531 -0.00337011 -0.00900126)
(0.00681052 -0.00206569 -0.00855212)
(0.00998441 -0.000449559 -0.00795529)
(0.0122304 0.00126656 -0.00743702)
(0.0132981 0.00307121 -0.00704204)
(0.0131037 0.00479675 -0.00682495)
(0.0117819 0.00618439 -0.00680206)
(0.0091131 0.00673397 -0.00678381)
(0.00637772 0.00634589 -0.00651958)
(0.00307174 0.00917502 -0.00773253)
(0.00339339 -0.0073864 -0.00827358)
(0.00759526 -0.00502786 -0.00785417)
(0.0107834 -0.0022249 -0.00719889)
(0.0129199 0.00112392 -0.0066238)
(0.0139425 0.00473038 -0.00632207)
(0.0135766 0.00822191 -0.00625991)
(0.011861 0.0113502 -0.00642303)
(0.00886115 0.0132907 -0.00662681)
(0.00626488 0.0141731 -0.00656594)
(0.00328746 0.0193915 -0.00782788)
(0.00371962 -0.00879317 -0.004309)
(0.00890388 -0.00485736 -0.00415505)
(0.0131498 -0.000255571 -0.00410916)
(0.0158911 0.0042073 -0.00421964)
(0.0167324 0.00893611 -0.00472756)
(0.0159252 0.0138622 -0.0055416)
(0.0138058 0.0180058 -0.00661625)
(0.0110243 0.0189744 -0.00777156)
(0.0073987 0.0180332 -0.00794327)
(0.0034048 0.0258288 -0.00974808)
(0.00384924 -0.0150122 0.00399083)
(0.0101465 -0.0115802 0.00360896)
(0.0145776 -0.00608542 0.00215763)
(0.0174006 0.00110414 0.00034363)
(0.0186589 0.00893322 -0.00159334)
(0.017646 0.0165279 -0.00362497)
(0.0138492 0.0233679 -0.00590489)
(0.0085429 0.0271893 -0.00599434)
(0.00159924 0.029967 -0.000975196)
(0.000436231 0.0394124 -0.00641994)
(0.00397773 -0.00686358 0.0214792)
(0.0137888 -0.00350307 0.0218263)
(0.0213527 0.00294435 0.0208958)
(0.025485 0.0102351 0.0178737)
(0.0257501 0.0182955 0.012016)
(0.0237154 0.0277666 0.00469586)
(0.0173765 0.036901 -0.000377795)
(0.00782253 0.0391061 0.00200802)
(-0.00608202 0.0371263 0.0109449)
(-0.00567633 0.0461706 -0.00103746)
(0.00635455 -0.0205595 0.0207229)
(0.0183164 -0.0182531 0.0207669)
(0.028616 -0.0105452 0.0233356)
(0.0366503 0.00142146 0.026365)
(0.0396804 0.0175397 0.0262808)
(0.0358918 0.0355391 0.0212453)
(0.0255539 0.0516812 0.0141189)
(0.0123836 0.0570021 0.0114964)
(-0.00797061 0.0497075 0.0108911)
(-0.01244 0.0483292 -0.000943046)
(0.0116663 -0.00804134 0.00591357)
(0.0299831 -0.00429598 0.00372412)
(0.0439284 0.00376222 0.001516)
(0.0533499 0.0160024 0.00169574)
(0.0581479 0.0313783 0.00457437)
(0.0576278 0.0513497 0.00756304)
(0.0488251 0.0735895 0.00746466)
(0.0342968 0.0857964 0.00312422)
(0.00927954 0.0791932 -0.00893155)
(-0.0101019 0.0645348 -0.0236207)
(0.0156711 -0.0285741 0.0286218)
(0.0458254 -0.0212773 0.0276382)
(0.0713894 -0.00452784 0.0208977)
(0.0905309 0.0203773 0.00805699)
(0.101153 0.0482613 -0.00641464)
(0.101479 0.0771032 -0.0150923)
(0.0885695 0.107822 -0.0177565)
(0.0678454 0.129314 -0.0205901)
(0.0350065 0.127792 -0.0321454)
(0.00227028 0.10884 -0.0635891)
(0.021531 -0.233756 -0.0356924)
(0.0743994 -0.219384 -0.0324725)
(0.112447 -0.186172 -0.0283787)
(0.175012 -0.144306 0.00571265)
(0.151702 -0.0502775 0.0463178)
(0.107547 0.0389124 0.0131355)
(0.0770773 0.11422 -0.0123629)
(0.0641966 0.174667 -0.0246992)
(0.0442821 0.200404 -0.0389006)
(0.0180636 0.187469 -0.0822968)
(0.0101557 -0.195642 -0.210938)
(0.0666967 -0.178286 -0.230717)
(0.109418 -0.151904 -0.244229)
(0.138525 -0.157973 -0.203777)
(0.147081 -0.110586 -0.0880615)
(0.110291 0.0196628 0.0386716)
(-0.12547 0.142302 0.0636098)
(-0.0417119 0.18349 -0.00567321)
(0.0202531 0.245583 -0.0214847)
(0.0263654 0.266868 -0.0615612)
(-0.0014451 -0.134128 -0.229613)
(0.0399644 -0.102275 -0.221734)
(0.0662471 -0.0426391 -0.219835)
(0.089717 0.0354353 -0.234016)
(0.100564 0.125957 -0.213497)
(0.143228 0.209263 -0.109566)
(0.153575 0.294878 -0.00353892)
(0.132068 0.0344818 -0.0438876)
(0.00215752 0.100093 -0.00876435)
(0.0338163 0.29685 0.0173878)
(-0.0284387 -0.0929457 -0.0687004)
(-0.0308473 -0.0490432 -0.0519918)
(-0.0248848 0.0154502 -0.0122359)
(0.00508925 0.0896897 0.0238512)
(0.0627161 0.173906 0.00211669)
(0.174007 0.277882 -0.0154338)
(0.2443 0.400402 -0.0208711)
(0.238512 0.333538 -0.0205634)
(0.0889595 0.175661 -0.103524)
(0.0429163 0.163036 0.107291)
(-0.0242695 -0.029893 -0.0123806)
(-0.0529563 -0.0243862 0.00604136)
(-0.0376793 0.00261727 0.0552437)
(0.0191211 0.031368 0.107568)
(0.0955429 0.0649534 0.151205)
(0.174719 0.149344 0.145861)
(0.272184 0.422058 0.0412595)
(0.286732 0.534981 -0.0319083)
(0.125245 0.447828 -0.163456)
(0.0412432 0.255057 -0.0581372)
(-0.0206242 0.0114839 0.0262833)
(-0.0422528 -0.0129366 0.0247855)
(-0.0360518 -0.0497966 0.0417694)
(0.0132472 -0.0890014 0.067353)
(0.0896102 -0.0756084 0.117118)
(0.118224 0.027372 0.179476)
(0.171793 0.418032 0.0923239)
(0.264047 0.646101 -0.0538473)
(0.106027 0.636123 -0.175815)
(0.0164127 0.549666 -0.0503183)
(-0.0098111 0.0199739 0.0523697)
(-0.00517256 -0.0013958 0.0415664)
(-0.00845049 -0.043498 0.0231986)
(-0.00650785 -0.102609 0.00502032)
(0.00687811 -0.0945223 0.0529528)
(-0.00440745 0.0509788 0.178468)
(-0.0341767 0.429569 0.158116)
(0.163541 0.760536 -0.038332)
(0.0055967 0.824931 -0.0973255)
(-0.0438636 0.628684 0.0652834)
(7.75698e-05 -0.00630296 0.0393746)
(0.00944405 -0.0144786 0.0323223)
(0.00651665 -0.0333938 0.0144391)
(-0.00538672 -0.0855026 -0.0196078)
(-0.0411586 -0.0849914 -0.0060111)
(-0.11963 0.129938 0.143253)
(-0.178068 0.486169 0.205187)
(-0.041882 0.882638 0.0715747)
(-0.12046 0.932676 0.0542361)
(-0.0754574 0.409429 0.112602)
(0.00626192 -0.0147265 0.0141199)
(0.00505762 -0.0229226 0.0142267)
(0.000109854 -0.0375241 0.00320761)
(-0.0120039 -0.0674485 -0.015228)
(-0.0485388 -0.0589003 -0.0324431)
(-0.161404 0.178928 0.0548817)
(-0.246391 0.58219 0.195483)
(-0.204036 0.917024 0.164636)
(-0.179788 0.848744 0.14276)
(-0.0100618 0.177227 0.0356717)
(0.00206503 -0.0208536 0.00161453)
(-0.000474495 -0.0275645 0.0068015)
(-0.0106389 -0.0401932 -0.00144103)
(-0.0209925 -0.0573686 -0.00728663)
(-0.0464349 -0.0251871 -0.0205306)
(-0.124442 0.176437 -0.0287834)
(-0.246576 0.59273 0.0971711)
(-0.238041 0.862949 0.151552)
(-0.158762 0.690801 0.106907)
(0.0704123 0.115806 -0.0551418)
(-0.00648762 -0.02024 -0.00303419)
(-0.00979204 -0.0284128 0.00371566)
(-0.0198258 -0.041169 -0.0022323)
(-0.0277561 -0.0513179 0.00263807)
(-0.0480018 0.000349827 0.00800861)
(-0.0685658 0.177259 -0.0327394)
(-0.16115 0.502573 -0.0207656)
(-0.166296 0.702847 0.0452719)
(-0.0459415 0.474368 -0.00088956)
(0.0706592 0.126474 -0.0643229)
(0.00253632 -0.0014514 -0.00608161)
(0.00521859 -0.00107471 -0.00627225)
(0.00745311 -0.00069257 -0.00644324)
(0.00906504 -0.000220418 -0.00653633)
(0.00974383 0.000353934 -0.0064989)
(0.00935228 0.000883562 -0.00643681)
(0.00808653 0.00125228 -0.0064086)
(0.00592292 0.00133283 -0.00625722)
(0.00429178 0.00119773 -0.00574605)
(0.00215685 0.00221054 -0.00726687)
(0.00344685 -0.00483271 -0.00877205)
(0.00763885 -0.00285075 -0.00916661)
(0.0111137 -0.000568235 -0.0094368)
(0.0133939 0.00161832 -0.00949127)
(0.0144273 0.00359632 -0.0095408)
(0.0141014 0.00533556 -0.00964559)
(0.0125477 0.00664862 -0.00984663)
(0.00960622 0.00709862 -0.00989193)
(0.00664925 0.00670559 -0.00937987)
(0.00318061 0.00935242 -0.0115892)
(0.00394205 -0.00835128 -0.00898667)
(0.00851353 -0.00537689 -0.00900001)
(0.012149 -0.00154944 -0.00916568)
(0.0143416 0.00237254 -0.00908344)
(0.0151993 0.00605337 -0.00908556)
(0.0146306 0.00922892 -0.00925827)
(0.0126834 0.011776 -0.00957302)
(0.0094238 0.0130873 -0.00977734)
(0.00646417 0.0132655 -0.00928609)
(0.00319352 0.0180154 -0.0117857)
(0.00530766 -0.00762365 -0.00901745)
(0.010904 -0.00533445 -0.00732914)
(0.0150162 -0.000413649 -0.00685641)
(0.0175076 0.00492731 -0.00697354)
(0.0180026 0.0099607 -0.00747618)
(0.0167052 0.0148091 -0.00842712)
(0.0141613 0.0187855 -0.00995694)
(0.0109004 0.0198061 -0.0114882)
(0.00756469 0.018662 -0.0118025)
(0.00357757 0.025494 -0.0147061)
(0.00738427 -0.004275 -0.00885516)
(0.014385 -0.00470673 -0.00508183)
(0.0182845 -0.000418457 -0.00473162)
(0.0206208 0.00687624 -0.00581926)
(0.0213872 0.0143165 -0.00735512)
(0.0199849 0.0201767 -0.0091761)
(0.0157839 0.0243178 -0.010915)
(0.0103825 0.0256402 -0.0104851)
(0.00564625 0.0267526 -0.007182)
(0.00289932 0.0351238 -0.0152497)
(0.00889622 0.00600635 -0.000846529)
(0.0178982 0.00171322 0.005611)
(0.0217108 0.0024911 0.00915771)
(0.0235095 0.00797453 0.0085288)
(0.0234285 0.0161848 0.00428411)
(0.0211682 0.0265817 -0.00192746)
(0.0147367 0.0362955 -0.00613024)
(0.00532841 0.0385165 -0.00369977)
(-0.00440012 0.0389207 -0.000487094)
(-0.0018122 0.0483862 -0.0192732)
(0.00978254 0.0170513 1.83461e-05)
(0.0201125 0.0144698 0.00215682)
(0.0248944 0.017505 0.00520936)
(0.0270987 0.0264177 0.00819959)
(0.0262239 0.0368856 0.00856038)
(0.0224127 0.0471108 0.00526822)
(0.0144083 0.0575552 0.000227867)
(0.00364476 0.0602841 -0.00197447)
(-0.0138249 0.0576129 -0.006863)
(-0.0116668 0.0565028 -0.0262249)
(0.0119869 0.00233285 -0.0274394)
(0.029281 0.0051136 -0.0277186)
(0.0429252 0.0140595 -0.0271158)
(0.0515783 0.0285138 -0.0236291)
(0.0539505 0.0461889 -0.0194276)
(0.0498308 0.0650645 -0.0177167)
(0.0384635 0.0825352 -0.018749)
(0.0245089 0.0910291 -0.0218249)
(-0.00106596 0.0860525 -0.0319558)
(-0.0161285 0.0723034 -0.0565951)
(0.0101316 -0.019364 0.0806272)
(0.0377802 -0.0113129 0.0768051)
(0.0558764 0.00640702 0.0615208)
(0.0668702 0.0332343 0.0366041)
(0.0730916 0.0630931 0.00620514)
(0.0748677 0.0902794 -0.0173047)
(0.0653276 0.113778 -0.0346654)
(0.0538333 0.128385 -0.0499381)
(0.027225 0.129381 -0.0656302)
(0.00910101 0.106017 -0.114922)
(0.0328012 -0.205776 0.0990658)
(0.0977917 -0.217969 0.0947008)
(0.136044 -0.205268 0.0830556)
(0.180909 -0.128238 0.100743)
(0.160423 -0.0414669 0.159037)
(0.0771337 0.0623787 0.0666137)
(0.0310424 0.127666 0.0046643)
(0.0341576 0.163931 -0.0320283)
(0.032253 0.176815 -0.0628164)
(0.037196 0.162821 -0.12702)
(0.0276945 -0.0449729 -0.303879)
(0.097314 -0.0388477 -0.316652)
(0.112746 -0.0030213 -0.332734)
(0.0995691 0.0473605 -0.292881)
(0.131393 0.108682 -0.123168)
(0.114671 0.0956027 -0.0536997)
(0.0581716 0.142591 -0.029924)
(-0.0299669 0.172221 0.0124889)
(0.00954243 0.185843 0.0314364)
(0.0380129 0.20535 -0.0245342)
(-0.00536105 -0.184505 -0.272394)
(0.0427818 -0.177589 -0.267276)
(0.0660067 -0.130244 -0.279562)
(0.0961071 -0.0235922 -0.309761)
(0.108481 0.147682 -0.285656)
(0.133428 0.24929 -0.2223)
(0.136544 0.295865 -0.170503)
(0.133471 0.305723 -0.162292)
(0.0464251 0.00580443 -0.148808)
(0.0204822 -0.0907343 0.110229)
(-0.0704126 -0.14588 -0.121131)
(-0.0776684 -0.0862891 -0.114778)
(-0.087688 -0.0172596 -0.102298)
(-0.0299356 0.0631329 -0.0980936)
(0.0567016 0.174332 -0.130623)
(0.14156 0.307519 -0.161649)
(0.154633 0.391807 -0.175304)
(0.167458 0.41439 -0.176196)
(0.00603188 0.309975 -0.224585)
(-0.0099027 0.249282 -0.0525675)
(-0.10131 -0.108881 -0.0372941)
(-0.140743 -0.0728302 -0.0330467)
(-0.140559 -0.0513232 0.0248514)
(-0.0632884 0.00599863 0.0998642)
(0.0437172 0.124889 0.129561)
(0.157077 0.298762 0.0646965)
(0.175719 0.457133 -0.0762275)
(0.156164 0.5259 -0.149789)
(-0.0218185 0.494276 -0.261832)
(-0.0133375 0.439218 -0.214696)
(-0.0620784 -0.0713304 0.0234256)
(-0.0942736 -0.0517282 0.0149953)
(-0.12427 -0.0709261 0.0244795)
(-0.0960803 -0.0585733 0.053931)
(-0.0012644 0.0698089 0.113556)
(0.124439 0.27572 0.148304)
(0.17872 0.517415 -0.00158619)
(0.142446 0.629415 -0.142608)
(-0.0445278 0.595544 -0.240087)
(-0.0188539 0.496196 -0.148799)
(-0.0248324 -0.0554743 0.0459439)
(-0.0274187 -0.0344092 0.0431756)
(-0.0483269 -0.0522024 0.0274818)
(-0.0756117 -0.0838442 0.0150587)
(-0.0758487 0.0311179 0.0268896)
(0.0308801 0.29477 0.0940933)
(0.126109 0.579342 0.0159963)
(0.112557 0.710675 -0.146055)
(-0.102215 0.692167 -0.108523)
(-0.0840974 0.478537 0.0814479)
(-0.000420766 -0.0480077 0.0327824)
(-0.00209528 -0.0355862 0.0394876)
(-0.0105127 -0.0452102 0.0270417)
(-0.0254085 -0.0838655 0.0197661)
(-0.0931402 -0.0133157 0.0225246)
(-0.0901586 0.315054 0.0409602)
(0.0188947 0.652399 0.0258729)
(0.0104761 0.814531 -0.0819036)
(-0.188581 0.752583 0.0754617)
(-0.0887425 0.254988 0.175922)
(0.00498727 -0.0385531 0.013927)
(0.0038087 -0.0373768 0.0259958)
(-0.0122529 -0.0496672 0.0165413)
(-0.0256039 -0.0688664 0.01567)
(-0.0881468 -0.0148118 0.0359254)
(-0.187899 0.309691 0.0410119)
(-0.129558 0.725337 0.0489976)
(-0.132971 0.916847 0.0447935)
(-0.219035 0.761538 0.165387)
(0.0652809 0.113169 0.0491993)
(-0.00089029 -0.0288643 0.000254038)
(-0.00185929 -0.0324246 0.0175173)
(-0.0224918 -0.0463024 0.00967034)
(-0.0394513 -0.0526427 0.0101055)
(-0.0779527 0.0104112 0.0286315)
(-0.1894 0.267295 0.0650907)
(-0.236003 0.702494 0.0761643)
(-0.187891 0.880474 0.102586)
(-0.115751 0.614484 0.115938)
(0.123206 0.11419 -0.0423985)
(-0.00716552 -0.0208511 -0.00579958)
(-0.00894985 -0.0293596 0.0133698)
(-0.0283384 -0.0418927 0.00705902)
(-0.0440374 -0.0391761 0.0102456)
(-0.0657111 0.0412295 0.0121772)
(-0.102531 0.229442 0.0510525)
(-0.192222 0.571442 0.0942487)
(-0.132272 0.709363 0.0942709)
(0.036222 0.395484 0.0331547)
(0.0823678 0.122207 -0.0357172)
(0.00236047 -0.000281913 -0.0070237)
(0.00492087 -6.05851e-05 -0.0076204)
(0.00760324 0.000142021 -0.00853777)
(0.0094645 0.000374541 -0.00906608)
(0.010258 0.000711803 -0.00917315)
(0.00979692 0.00107755 -0.00906168)
(0.00837558 0.00131926 -0.00892991)
(0.0061046 0.00126329 -0.00858886)
(0.0044907 0.00105432 -0.00785635)
(0.00230893 0.0021027 -0.00986097)
(0.00358595 -0.00231875 -0.0114602)
(0.00712508 -0.00130085 -0.0121922)
(0.0110874 0.000279085 -0.0129949)
(0.0138632 0.00215779 -0.0132293)
(0.0149604 0.00392578 -0.0132059)
(0.0144684 0.00542936 -0.0131327)
(0.0126831 0.00649734 -0.0131688)
(0.00957918 0.00667376 -0.0129917)
(0.0066987 0.00617956 -0.0121532)
(0.00331732 0.00883023 -0.0148519)
(0.00622939 -0.00217982 -0.0156324)
(0.00975104 -0.00192961 -0.0137355)
(0.0127676 0.000496234 -0.0133583)
(0.015 0.00395728 -0.0131128)
(0.0157082 0.00726432 -0.012936)
(0.0148583 0.00979407 -0.0129413)
(0.0126749 0.0114179 -0.013115)
(0.00929589 0.0117824 -0.0131037)
(0.00634402 0.0113661 -0.0122224)
(0.00315881 0.0159077 -0.0152899)
(0.0101636 0.0058108 -0.0233631)
(0.0152651 0.00308259 -0.0154207)
(0.0168491 0.00378644 -0.0126342)
(0.0180603 0.00747754 -0.0119591)
(0.0179872 0.0115632 -0.0119555)
(0.016089 0.0151987 -0.012462)
(0.0130766 0.0181271 -0.0136045)
(0.00965473 0.0186883 -0.0148208)
(0.0066346 0.0176478 -0.0145009)
(0.0033258 0.0238358 -0.0180994)
(0.0130154 0.0155185 -0.0306895)
(0.0219716 0.0119949 -0.0155302)
(0.0224603 0.0104288 -0.00957871)
(0.0218685 0.0141403 -0.00952434)
(0.0210376 0.0200243 -0.011223)
(0.0192107 0.0240961 -0.0136585)
(0.0154383 0.0252244 -0.0159445)
(0.010367 0.0236147 -0.0160074)
(0.00575476 0.0226727 -0.0129514)
(0.00259885 0.0299412 -0.0202005)
(0.0122932 0.0382867 -0.0358901)
(0.02717 0.0286531 -0.0172923)
(0.0286992 0.0195114 -0.00619979)
(0.0266876 0.0167241 -0.00338894)
(0.0235486 0.019125 -0.00524252)
(0.0189065 0.0247236 -0.00933948)
(0.0121995 0.0325675 -0.013017)
(0.0045185 0.0361764 -0.0121566)
(-0.00221173 0.0368924 -0.0114174)
(-0.00182829 0.0423544 -0.0302342)
(0.00913367 0.0610643 0.00379022)
(0.0188036 0.0532917 0.00554819)
(0.0250941 0.0496508 0.00544078)
(0.0274151 0.0505799 0.0032995)
(0.0252985 0.0550429 -0.0013207)
(0.0190961 0.0585411 -0.00699175)
(0.00890989 0.0609567 -0.0108746)
(-0.00196672 0.0585071 -0.0119287)
(-0.0168296 0.0529711 -0.0203918)
(-0.0132713 0.0464463 -0.047139)
(0.00951884 0.0496442 -0.00521377)
(0.0142934 0.0309084 -0.0106795)
(0.0307897 0.0222719 -0.0146116)
(0.0430288 0.0274743 -0.0208347)
(0.0500008 0.0418199 -0.0274247)
(0.0481168 0.0612998 -0.0320183)
(0.0353607 0.0786819 -0.034556)
(0.0193136 0.0838418 -0.0355641)
(-0.00653758 0.0741981 -0.0456333)
(-0.0181566 0.0523019 -0.0809548)
(0.00842169 0.00338011 0.146513)
(0.0388575 -0.0190441 0.174804)
(0.0391385 -0.0152888 0.177817)
(0.0297094 0.0122595 0.115157)
(0.0311688 0.0494428 0.0568828)
(0.03726 0.0824726 0.00516724)
(0.0353786 0.106629 -0.0340507)
(0.0375385 0.11495 -0.0631004)
(0.0213836 0.109149 -0.0863294)
(0.0254771 0.0670905 -0.140954)
(0.0627882 -0.196995 -0.195957)
(0.112649 -0.284056 -0.13856)
(0.0812999 -0.330341 -0.119291)
(0.059515 -0.269482 -0.0134891)
(0.0655336 -0.0740749 0.109404)
(-0.0183054 0.0732036 0.159568)
(-0.0481183 0.122499 0.0390815)
(-0.00348821 0.12935 -0.0314111)
(0.0162066 0.118627 -0.0788512)
(0.0556654 0.105555 -0.131603)
(0.0252299 0.0292308 -0.435463)
(0.123191 0.0834057 -0.40959)
(0.120667 0.110597 -0.401601)
(0.071095 0.149629 -0.382855)
(0.0399481 0.194709 -0.287377)
(0.0567659 0.265599 -0.103753)
(0.0300018 0.162336 -0.0858473)
(0.008866 0.123517 -0.0820813)
(-0.0589663 0.146486 0.126821)
(0.0128633 0.218878 0.234443)
(-0.00577042 -0.149838 -0.269442)
(0.0536901 -0.160074 -0.250908)
(0.0767439 -0.128696 -0.261346)
(0.104066 -0.0442566 -0.280756)
(0.102505 0.0772246 -0.295324)
(0.121604 0.196437 -0.264623)
(0.144345 0.218501 -0.227286)
(0.14957 0.236659 -0.193015)
(0.00501623 0.272607 -0.168776)
(-0.0146166 0.370428 -0.103966)
(-0.0321122 -0.136072 -0.127781)
(-0.0232041 -0.10682 -0.0978669)
(-0.0429433 -0.0567612 -0.111219)
(-0.0261054 -0.00404454 -0.11886)
(0.0334471 0.0534641 -0.135704)
(0.102012 0.129747 -0.168562)
(0.128568 0.204943 -0.183994)
(0.141288 0.301371 -0.171847)
(-0.00863346 0.364223 -0.230228)
(-0.0323142 0.419258 -0.263503)
(-0.0643807 -0.145646 -0.0265238)
(-0.0915885 -0.100369 0.000363468)
(-0.129305 -0.0723827 0.00501768)
(-0.0978672 -0.0407443 0.0170435)
(-0.00731353 0.0507981 0.012202)
(0.0921156 0.163405 -0.03534)
(0.0879561 0.247888 -0.100825)
(0.0241524 0.364237 -0.137815)
(-0.107706 0.375067 -0.24837)
(-0.0654581 0.309974 -0.247905)
(-0.0467729 -0.123969 0.0131292)
(-0.0604158 -0.0794932 0.0429766)
(-0.0910993 -0.06722 0.044178)
(-0.098455 -0.0661967 0.0347396)
(-0.0672148 0.0179695 0.00437737)
(0.0385792 0.194322 -0.0176749)
(0.0585356 0.333804 -0.0761965)
(-0.0692992 0.426741 -0.120386)
(-0.166467 0.330646 -0.157303)
(-0.075749 0.156407 -0.0724749)
(-0.0164723 -0.101493 0.0190044)
(-0.0158876 -0.0698232 0.0521121)
(-0.0265933 -0.0649328 0.0503458)
(-0.032707 -0.0839756 0.0551538)
(-0.0727576 -0.0297748 0.0304375)
(-0.0488327 0.18857 -0.0283153)
(0.0142296 0.403835 -0.0714063)
(-0.1165 0.469941 -0.0748945)
(-0.202697 0.298384 0.0131327)
(-0.0735405 0.0542576 0.107597)
(-8.69794e-05 -0.074687 0.0061754)
(0.00669362 -0.0601738 0.0440956)
(-0.009711 -0.0673102 0.0361174)
(-0.00591192 -0.08091 0.0481574)
(-0.049643 -0.0446601 0.075806)
(-0.12097 0.170835 0.0331331)
(-0.0685645 0.427022 -0.0181035)
(-0.143446 0.493406 0.0219167)
(-0.202795 0.31793 0.120822)
(0.0119124 -0.0327552 0.0945084)
(0.000259306 -0.0520018 -0.0132462)
(0.0107542 -0.0490284 0.0323449)
(-0.0169199 -0.0610297 0.0244307)
(-0.0252061 -0.0659707 0.0318009)
(-0.0536928 -0.0160227 0.0834982)
(-0.156546 0.163266 0.122081)
(-0.16263 0.413737 0.0871961)
(-0.144607 0.479099 0.11583)
(-0.110128 0.300683 0.147119)
(0.072301 0.000439251 0.0141015)
(-0.00232655 -0.0322004 -0.0239499)
(0.0048577 -0.0366491 0.0268119)
(-0.0263659 -0.0502115 0.0177226)
(-0.0408215 -0.0481987 0.0208627)
(-0.0627554 0.0273289 0.0545467)
(-0.12673 0.174019 0.160379)
(-0.186031 0.376003 0.175891)
(-0.116078 0.406018 0.154102)
(0.0125924 0.202394 0.0900238)
(0.0527494 0.0265562 -0.0226745)
(-0.00514558 -0.0187246 -0.024659)
(-0.00069547 -0.0294952 0.024701)
(-0.030542 -0.0401956 0.0149465)
(-0.0424372 -0.0362655 0.0183583)
(-0.0585496 0.0509883 0.0207609)
(-0.0702914 0.209866 0.102408)
(-0.115406 0.349636 0.187132)
(-0.0490694 0.336296 0.128741)
(0.0465814 0.171734 0.0331915)
(0.0155894 0.0531148 0.00574855)
(0.00281871 0.00153641 -0.00889712)
(0.00423334 0.000656922 -0.0102621)
(0.00699447 0.000470812 -0.011477)
(0.00941219 0.000587279 -0.0117664)
(0.0105416 0.000752078 -0.0115586)
(0.0101074 0.000981686 -0.0111121)
(0.00856171 0.00110389 -0.0106862)
(0.0062268 0.000906582 -0.0100881)
(0.00472275 0.00067147 -0.00911281)
(0.00254315 0.00187491 -0.0115407)
(0.00602135 -0.000121151 -0.0145581)
(0.00824528 -0.00108736 -0.0150191)
(0.0112741 -0.00071323 -0.0166603)
(0.0141788 0.00101341 -0.0168982)
(0.0154255 0.00292614 -0.0163942)
(0.0147763 0.00450765 -0.0157346)
(0.0126954 0.00549836 -0.0153161)
(0.00947526 0.00542814 -0.014782)
(0.00680087 0.00488563 -0.0136169)
(0.00356097 0.0078434 -0.016601)
(0.0114904 0.000716365 -0.0287922)
(0.014702 -0.000580738 -0.0198313)
(0.0150688 -0.000450765 -0.0181018)
(0.0161798 0.00257411 -0.0174806)
(0.0164069 0.0061146 -0.0166879)
(0.0150972 0.00866881 -0.0159743)
(0.0125561 0.0098279 -0.0156072)
(0.00911228 0.0092728 -0.0152088)
(0.00629448 0.00828576 -0.0139807)
(0.00323125 0.0132635 -0.017311)
(0.0145885 0.005538 -0.0473157)
(0.0225341 0.0075456 -0.0270214)
(0.0210809 0.00597285 -0.0195104)
(0.0199154 0.00781535 -0.0177614)
(0.0185762 0.0111536 -0.0169328)
(0.0157999 0.0136668 -0.0165198)
(0.0120174 0.0152926 -0.0167355)
(0.00827838 0.0148598 -0.0172913)
(0.00569108 0.013813 -0.0164357)
(0.00323618 0.0201753 -0.0203486)
(0.0135967 0.00938559 -0.0725935)
(0.0285817 0.0164009 -0.0388402)
(0.0269333 0.0161992 -0.0210453)
(0.0232353 0.0170309 -0.0160389)
(0.0199791 0.0210232 -0.0159071)
(0.0168593 0.0242258 -0.0174762)
(0.0132635 0.0238288 -0.0196936)
(0.008931 0.019279 -0.0202971)
(0.00380616 0.0156479 -0.0172248)
(0.00147796 0.0231415 -0.0237261)
(0.0116928 0.0491969 -0.0888594)
(0.0276715 0.0527084 -0.0513555)
(0.0317404 0.0448119 -0.0294781)
(0.0293333 0.0340586 -0.0196485)
(0.0235581 0.026988 -0.0171127)
(0.0160751 0.023423 -0.0181688)
(0.00772083 0.0243704 -0.0197356)
(0.000399957 0.0261635 -0.0195131)
(-0.00564428 0.0278476 -0.0202159)
(-0.00456737 0.0313955 -0.0375703)
(0.00959179 0.0775285 -0.022489)
(-0.0033586 0.0613737 -0.0103508)
(0.0116619 0.0570644 -0.0137002)
(0.0211792 0.0598534 -0.0111728)
(0.0211464 0.063992 -0.011894)
(0.0147654 0.0637732 -0.0180605)
(0.00386425 0.0577552 -0.0218545)
(-0.00805888 0.0474866 -0.0209823)
(-0.0234031 0.0371352 -0.0320693)
(-0.0167113 0.0254029 -0.0622855)
(0.0177096 0.145948 0.0261805)
(-0.0100145 0.0930859 0.0309409)
(0.00930562 0.0489708 0.0255028)
(0.0152955 0.0358157 0.00441275)
(0.0288979 0.0357445 -0.0203352)
(0.0389743 0.0456882 -0.0383317)
(0.0329401 0.0615572 -0.0472641)
(0.0173228 0.0665107 -0.0470824)