/*--------------------------------*- C++ -*----------------------------------*\
| =========                 |                                                 |
| \\      /  F ield         | OpenFOAM: The Open Source CFD Toolbox           |
|  \\    /   O peration     | Version:  2312                                  |
|   \\  /    A nd           | Website:  www.openfoam.com                      |
|    \\/     M anipulation  |                                                 |
\*---------------------------------------------------------------------------*/
FoamFile
{
    version     2.0;
    format      ascii;
    arch        "LSB;label=32;scalar=64";
    class       surfaceScalarField;
    location    "0.525";
    object      alphaPhi0.water;
}
// * * * * * * * * * * * * * * * * * * * * * * * * * * * * * * * * * * * * * //

dimensions      [0 3 -1 0 0 0 0];

oriented        oriented;

internalField   nonuniform List<scalar> 
22600
(
-3.46601e-08
-3.70283e-08
1.04069e-07
-1.05664e-07
-4.04867e-08
1.11491e-07
-1.72896e-07
-4.90422e-08
1.16274e-07
-2.27722e-07
-6.2924e-08
1.1775e-07
-2.60475e-07
-8.18847e-08
1.14637e-07
-2.6371e-07
-1.05159e-07
1.08394e-07
-2.36563e-07
-1.28738e-07
1.01592e-07
-1.75311e-07
-1.58132e-07
9.68798e-08
-8.87236e-08
-1.82436e-07
9.58485e-08
-1.7337e-07
8.46461e-08
-1.44331e-08
-7.4576e-08
8.77654e-08
-6.86191e-08
-8.06404e-08
9.43398e-08
-1.17701e-07
-9.71436e-08
9.71832e-08
-1.55298e-07
-1.2209e-07
9.6763e-08
-1.76052e-07
-1.53286e-07
9.21562e-08
-1.7574e-07
-1.89661e-07
8.41896e-08
-1.52979e-07
-2.26378e-07
7.4879e-08
-1.10278e-07
-2.69634e-07
6.88002e-08
-5.38837e-08
-3.0679e-07
6.79596e-08
-2.77295e-07
5.00422e-08
-2.38662e-08
-1.35143e-07
1.21593e-07
-9.1343e-08
-1.41862e-07
1.28698e-07
-1.54613e-07
-1.64638e-07
1.30764e-07
-2.05052e-07
-1.99781e-07
1.2813e-07
-2.35115e-07
-2.42917e-07
1.19693e-07
-2.38329e-07
-2.95374e-07
1.08926e-07
-2.14145e-07
-3.48287e-07
9.77254e-08
-1.5646e-07
-4.17604e-07
9.02848e-08
-7.75741e-08
-4.72365e-07
8.66893e-08
-4.26488e-07
7.16181e-08
-3.58263e-08
-2.83001e-07
2.21154e-07
-1.15077e-07
-2.84102e-07
2.2149e-07
-1.89244e-07
-2.98976e-07
2.08505e-07
-2.49822e-07
-3.30552e-07
1.91348e-07
-2.91568e-07
-3.6912e-07
1.6795e-07
-3.00901e-07
-4.29039e-07
1.42997e-07
-2.65675e-07
-5.03591e-07
1.20078e-07
-1.9017e-07
-5.96556e-07
1.03447e-07
-1.01973e-07
-6.70358e-07
1.09796e-07
-6.17544e-07
8.90836e-08
-4.02431e-08
-6.93195e-07
4.77325e-07
-1.21201e-07
-6.72782e-07
4.69638e-07
-2.12577e-07
-6.28423e-07
4.20822e-07
-3.05788e-07
-5.86311e-07
3.4897e-07
-3.81141e-07
-5.62987e-07
2.69219e-07
-4.12703e-07
-6.02305e-07
2.04829e-07
-3.86588e-07
-6.90969e-07
1.61262e-07
-3.31744e-07
-8.26106e-07
1.74706e-07
-2.42209e-07
-1.03932e-06
2.79425e-07
-1.08161e-06
2.21861e-07
2.17865e-08
-1.35479e-06
6.45433e-07
4.50717e-09
-1.31727e-06
6.61766e-07
-5.08905e-08
-1.24097e-06
6.67942e-07
-1.35838e-07
-1.14677e-06
6.45408e-07
-2.4629e-07
-1.0042e-06
5.51669e-07
-3.50516e-07
-9.04639e-07
4.0656e-07
-3.98511e-07
-9.62361e-07
3.19387e-07
-4.56479e-07
-1.15212e-06
3.83978e-07
-4.17433e-07
-1.64534e-06
5.66972e-07
-1.97015e-06
4.71101e-07
2.21773e-07
-1.38903e-06
-2.1211e-08
3.05782e-07
-1.35295e-06
3.14466e-09
3.01112e-07
-1.34961e-06
1.13088e-07
2.18665e-07
-1.3843e-06
3.19931e-07
2.94172e-08
-1.35023e-06
5.35303e-07
-2.28907e-07
-1.25428e-06
6.07989e-07
-4.43401e-07
-1.33076e-06
5.82894e-07
-5.86051e-07
-1.61917e-06
6.09705e-07
-5.3594e-07
-2.37198e-06
6.76533e-07
-3.07604e-06
5.69952e-07
1.40199e-08
-7.99554e-09
-5.14854e-07
1.23077e-08
-6.73936e-08
-5.54551e-07
9.84003e-08
-1.62856e-07
-6.08407e-07
1.89959e-07
-3.56486e-07
-6.00875e-07
1.44289e-07
-6.47813e-07
-3.78381e-07
-1.65431e-08
-1.10658e-06
8.89049e-08
-2.13927e-07
-1.58429e-06
4.51146e-07
-4.05068e-07
-2.04727e-06
6.19271e-07
-4.66785e-07
-2.87606e-06
5.65804e-07
-3.86106e-06
3.1824e-07
-8.08216e-09
-3.32612e-11
-9.42192e-12
-7.61903e-08
-2.15536e-10
4.05744e-10
-1.89656e-07
-1.12054e-08
-2.6049e-09
-4.18544e-07
-3.319e-08
-9.62798e-08
-5.84974e-07
-1.24323e-07
-3.04555e-07
-3.83035e-07
-6.10122e-07
-4.97908e-07
1.93987e-07
-1.35922e-06
-4.88427e-07
1.98227e-07
-2.14217e-06
9.13642e-08
-2.30202e-07
-2.86719e-06
4.19591e-07
-4.04917e-06
-4.20817e-08
-5.04361e-11
5.50471e-12
4.57695e-12
-3.76465e-10
3.38999e-12
9.35556e-11
-1.16711e-08
-9.00751e-12
1.23497e-10
-4.45722e-08
3.34671e-11
-6.26092e-11
-8.14723e-08
-1.08528e-09
9.28943e-09
-4.82393e-07
-6.6313e-08
2.92029e-08
-9.21065e-07
-5.13572e-07
-1.7566e-07
-2.01254e-08
-2.41908e-06
-3.38012e-07
-1.21799e-07
-2.88886e-06
1.24047e-07
-4.00979e-06
-1.60893e-07
3.45971e-13
4.86402e-12
-1.18216e-12
2.94093e-12
7.09057e-12
-3.39065e-12
4.73404e-12
-2.55592e-12
-2.03182e-12
4.87041e-11
2.52206e-12
-2.68434e-12
-1.04016e-09
1.77738e-12
2.19775e-12
-6.60337e-08
-1.54266e-09
6.46691e-11
-5.58455e-07
-4.90013e-08
2.24287e-08
-1.05469e-06
-1.15591e-06
9.78326e-08
-5.66335e-08
-3.88749e-06
3.22744e-07
-3.87786e-06
-1.83623e-07
2.36194e-13
2.15625e-11
-1.43791e-11
7.71525e-13
1.63999e-11
-3.21506e-12
1.32315e-12
3.87693e-12
-5.49327e-13
8.04812e-12
8.30014e-13
-2.91004e-12
1.01202e-11
1.01222e-12
-2.03727e-12
-1.59163e-09
5.82307e-11
-1.6117e-13
-5.32998e-08
-2.66882e-09
4.32899e-09
-7.18109e-07
-1.1084e-07
1.33524e-08
-3.83066e-07
-2.99426e-07
7.50029e-07
-2.12757e-06
3.09396e-07
9.76477e-12
1.85043e-10
-3.46124e-11
9.23576e-12
1.48708e-10
-2.39797e-13
2.86498e-13
1.19023e-11
-2.68976e-13
9.9761e-13
7.99935e-12
-4.74694e-13
6.44256e-13
1.79488e-12
-4.57169e-13
-2.06651e-11
7.89428e-11
-1.47368e-13
-9.21435e-09
5.6619e-10
-7.97696e-12
-5.62857e-09
-2.58094e-08
-8.1523e-09
-3.0097e-07
-4.26833e-09
2.83553e-10
-5.92309e-10
3.45116e-07
3.09986e-11
1.83324e-10
-2.71208e-11
3.35426e-11
1.91804e-10
-4.24807e-12
4.54139e-12
1.47794e-10
2.41541e-12
3.40202e-12
4.82896e-11
-4.2641e-13
2.00202e-12
2.92137e-12
-2.2573e-13
7.22153e-11
7.96305e-12
2.69821e-13
1.39489e-09
3.37541e-09
-4.07239e-11
2.82143e-09
-3.13668e-09
-4.44837e-09
1.2914e-11
-9.82771e-10
-3.42519e-10
-5.40381e-10
6.66679e-12
3.70814e-11
9.21656e-11
-1.59181e-11
2.31131e-11
7.0998e-11
2.65341e-12
4.74219e-12
6.26903e-11
1.08537e-11
-2.9231e-12
3.10122e-11
5.74119e-12
4.15264e-12
8.29224e-12
8.79936e-13
1.20259e-11
1.24932e-12
2.92906e-13
2.45956e-09
2.51488e-11
-4.24115e-13
3.48255e-10
-1.59606e-11
-8.50086e-11
8.82488e-11
-3.39138e-11
-2.0574e-10
-5.64309e-11
-9.74277e-11
6.94757e-12
-7.82706e-12
5.08571e-12
6.37035e-12
-5.16605e-12
5.65373e-12
7.46011e-12
-3.01646e-12
4.03752e-12
6.06554e-12
2.17105e-12
2.26507e-12
1.02861e-11
5.19573e-12
3.23413e-12
9.88611e-12
1.31315e-12
1.78394e-12
6.0535e-11
-1.2445e-11
4.48908e-12
2.30799e-11
-2.71002e-12
-4.68095e-12
1.14779e-10
2.38798e-11
-1.35303e-11
1.18746e-10
-4.56204e-11
1.61218e-12
-1.40361e-12
1.83504e-12
3.41101e-12
-5.82505e-13
2.08348e-12
4.0443e-12
1.78849e-13
1.33348e-12
9.91966e-13
-3.0768e-13
2.17914e-13
1.30345e-12
-9.6552e-14
-2.11321e-15
1.3728e-13
-3.76991e-16
2.49018e-12
2.93704e-12
5.91929e-13
5.60472e-13
4.19706e-12
2.81965e-12
-8.31673e-13
2.73027e-11
1.19042e-11
-6.26082e-12
6.20993e-10
3.71553e-12
2.01487e-13
5.47718e-15
1.42187e-13
1.11776e-12
1.47583e-14
2.57805e-13
4.1854e-13
-1.25883e-14
4.34432e-14
3.48534e-14
-4.26225e-15
-6.71159e-17
1.04855e-13
-2.34022e-16
-3.98518e-16
4.05233e-15
-7.56374e-18
1.04979e-13
5.4281e-13
1.60063e-12
1.00414e-11
7.01785e-14
5.70128e-12
-6.70618e-14
7.40327e-13
4.33576e-11
-5.6254e-12
4.15962e-10
1.15239e-10
4.80871e-15
4.42245e-17
-2.31166e-17
1.80597e-14
8.30144e-17
5.87011e-16
5.14573e-15
-8.66989e-17
-3.17677e-17
8.78098e-16
-4.2785e-18
-6.45814e-20
4.03231e-17
-7.82194e-19
5.94924e-16
-6.94293e-16
9.4951e-18
8.14015e-16
-6.41836e-13
1.16399e-13
2.12992e-12
1.67529e-12
4.47801e-12
-7.5112e-13
-9.78919e-11
1.83085e-10
-2.97025e-12
2.13784e-10
1.10499e-10
3.31655e-17
-4.63485e-19
1.69426e-19
1.09003e-16
-4.85888e-20
2.68809e-19
1.54294e-17
-3.03265e-20
-1.68485e-20
4.48907e-18
3.37275e-19
-7.10008e-18
2.83357e-18
3.40697e-18
-9.53173e-18
-4.68908e-14
4.59632e-14
9.30276e-16
-5.61183e-13
4.50398e-13
1.85823e-13
-1.37683e-12
1.29229e-14
5.59091e-12
-5.00856e-11
4.76345e-13
5.35621e-10
-8.76064e-12
1.83034e-10
-6.68876e-08
-1.28446e-07
3.38697e-07
-1.71272e-07
-1.19328e-07
3.35203e-07
-2.56989e-07
-1.1678e-07
3.18772e-07
-3.15418e-07
-1.2018e-07
2.96359e-07
-3.41352e-07
-1.29228e-07
2.69799e-07
-3.3227e-07
-1.43369e-07
2.42682e-07
-2.89509e-07
-1.60633e-07
2.19463e-07
-2.08521e-07
-1.88184e-07
2.04076e-07
-9.96869e-08
-2.13765e-07
2.0078e-07
-1.83302e-07
1.68261e-07
-3.80619e-08
-2.77567e-07
3.17797e-07
-1.24222e-07
-2.4897e-07
3.10142e-07
-1.97317e-07
-2.3654e-07
2.90038e-07
-2.47108e-07
-2.3752e-07
2.63894e-07
-2.68349e-07
-2.48182e-07
2.32351e-07
-2.60103e-07
-2.67952e-07
2.00525e-07
-2.23351e-07
-2.934e-07
1.70894e-07
-1.57477e-07
-3.3713e-07
1.51872e-07
-7.19856e-08
-3.80227e-07
1.4893e-07
-3.08255e-07
1.0301e-07
-4.41467e-08
-4.40371e-07
3.76136e-07
-1.47046e-07
-3.8931e-07
3.71937e-07
-2.39186e-07
-3.61541e-07
3.47905e-07
-3.0507e-07
-3.6222e-07
3.18715e-07
-3.36476e-07
-3.79424e-07
2.8234e-07
-3.31985e-07
-4.10144e-07
2.46627e-07
-2.93163e-07
-4.49076e-07
2.1458e-07
-2.07309e-07
-5.26955e-07
1.94256e-07
-9.45253e-08
-5.97908e-07
1.91587e-07
-4.77384e-07
1.46222e-07
-5.55507e-08
-6.06903e-07
4.92873e-07
-1.72187e-07
-5.57581e-07
5.06397e-07
-2.76782e-07
-5.22151e-07
4.7371e-07
-3.58807e-07
-5.1624e-07
4.27394e-07
-4.0727e-07
-5.3656e-07
3.73549e-07
-4.09665e-07
-5.82372e-07
3.17619e-07
-3.58024e-07
-6.43782e-07
2.63142e-07
-2.52539e-07
-7.54017e-07
2.25024e-07
-1.25423e-07
-8.40975e-07
2.25746e-07
-6.82943e-07
1.6922e-07
-6.90238e-08
-7.28917e-07
7.01446e-07
-1.98214e-07
-6.97636e-07
7.38882e-07
-3.39435e-07
-6.47205e-07
6.87098e-07
-4.63872e-07
-6.28543e-07
5.85709e-07
-5.44321e-07
-6.63922e-07
4.77029e-07
-5.70291e-07
-7.38059e-07
3.86486e-07
-5.43384e-07
-8.35307e-07
3.2588e-07
-4.58702e-07
-1.01866e-06
3.54663e-07
-2.8347e-07
-1.21008e-06
4.73295e-07
-1.05309e-06
3.08541e-07
-4.9089e-08
-9.39228e-07
9.10482e-07
-1.418e-07
-9.21182e-07
9.78022e-07
-2.68301e-07
-8.70495e-07
1.01773e-06
-4.20117e-07
-8.23382e-07
9.92063e-07
-5.70619e-07
-8.20735e-07
8.58985e-07
-6.78623e-07
-9.00166e-07
6.76671e-07
-7.34354e-07
-1.03713e-06
5.76939e-07
-7.4489e-07
-1.3131e-06
6.88955e-07
-5.33358e-07
-1.71312e-06
8.58484e-07
-1.65126e-06
5.3591e-07
6.05788e-08
-1.41816e-06
4.77099e-07
3.1856e-09
-1.35448e-06
4.93782e-07
-1.17779e-07
-1.22014e-06
5.83699e-07
-3.11005e-07
-1.06986e-06
7.59679e-07
-5.36405e-07
-9.70538e-07
9.10534e-07
-7.28525e-07
-1.04489e-06
9.44837e-07
-8.33951e-07
-1.26165e-06
9.12843e-07
-8.86879e-07
-1.60276e-06
9.52294e-07
-6.69425e-07
-2.19905e-06
9.4501e-07
-2.37169e-06
6.20959e-07
9.793e-08
-1.19823e-09
-9.49244e-08
1.11634e-07
-3.659e-08
-4.90745e-08
4.3312e-08
-4.89884e-07
-1.88577e-08
-1.8679e-07
-6.49607e-07
-2.75474e-08
-5.05819e-07
-8.32525e-07
9.41071e-08
-7.00997e-07
-1.13004e-06
3.80231e-07
-7.55895e-07
-1.40414e-06
6.4872e-07
-7.31613e-07
-1.81948e-06
8.11758e-07
-5.83808e-07
-2.48839e-06
7.0735e-07
-2.87615e-06
2.38894e-07
-7.97788e-10
-2.14674e-12
-4.22653e-10
-3.67396e-08
-9.23603e-11
-1.64035e-10
-7.00103e-08
-8.41754e-10
8.40997e-09
-2.55592e-07
-1.54389e-08
4.79731e-08
-5.43505e-07
-1.23546e-07
4.36372e-08
-6.22351e-07
-5.54996e-07
5.63115e-09
-3.23941e-07
-1.63858e-06
4.98972e-08
-3.28575e-07
-2.00143e-06
2.7965e-07
-3.65441e-07
-2.36637e-06
3.34906e-07
-2.85428e-06
-4.29344e-07
1.48108e-13
7.07562e-13
-2.85533e-12
9.42849e-13
-1.06859e-12
-2.33193e-12
-7.34573e-10
-3.43351e-12
6.75231e-12
-1.6197e-08
-2.58635e-11
-2.11798e-11
-1.31956e-07
-2.471e-12
1.49814e-09
-6.5548e-07
-5.37087e-09
3.18056e-09
-8.75287e-07
-2.39231e-07
4.75385e-08
-2.40142e-07
-1.25267e-06
2.05957e-07
-2.00143e-09
-2.24465e-06
2.14826e-07
-2.81556e-06
-2.00723e-07
4.99355e-13
8.71328e-13
-5.38412e-12
1.01291e-11
3.39722e-12
-1.99874e-11
1.05974e-11
1.62212e-12
-2.17067e-11
6.44361e-12
-6.5312e-13
-2.95459e-11
6.93595e-13
2.28606e-13
4.28299e-13
-5.33864e-09
-1.02873e-12
3.38824e-11
-2.1908e-07
-7.25206e-09
4.26805e-09
-3.8297e-07
-1.53112e-07
1.13216e-07
-2.69631e-07
-2.16165e-06
3.6567e-07
-3.78242e-06
9.10504e-07
-3.05596e-12
1.70895e-11
-4.91803e-13
-1.60609e-13
2.11677e-12
-8.24083e-13
1.91257e-12
1.46602e-12
-7.10405e-12
6.08552e-12
3.5041e-12
-1.96807e-11
4.05387e-12
1.70194e-12
-8.66193e-12
3.01683e-12
7.34096e-13
-1.51163e-12
-3.32125e-09
3.99875e-10
-3.69891e-13
-9.56565e-08
-4.74237e-08
-8.02972e-13
-7.32734e-07
-6.58975e-07
1.14095e-07
-3.45095e-07
6.74161e-07
-9.67131e-13
3.10932e-11
-6.76343e-13
-7.74765e-14
3.74951e-13
-5.80048e-13
1.44861e-13
5.25679e-13
-1.05084e-12
5.23346e-13
1.72896e-12
-5.55532e-13
9.97687e-13
2.03153e-12
-2.93547e-12
1.87002e-12
1.22882e-12
-1.5061e-12
3.72893e-10
3.44112e-11
-1.40332e-11
-1.15241e-08
6.44182e-10
-1.25455e-10
-7.92901e-10
-8.30427e-09
1.19131e-08
-4.02785e-09
3.29781e-09
-3.35959e-11
3.5461e-11
-8.13039e-12
-1.02176e-12
1.63274e-11
-2.12952e-12
4.25839e-13
3.77277e-12
-1.13435e-13
1.96717e-12
7.275e-12
-2.25594e-14
5.33728e-13
4.17616e-12
-1.45311e-13
1.51469e-12
1.78857e-12
-7.71405e-13
2.0499e-11
4.02261e-12
-2.98163e-11
3.95348e-09
1.00007e-10
-1.79791e-10
3.08373e-10
-2.90949e-10
-4.32093e-09
-7.35102e-10
-2.91443e-09
-3.62034e-11
4.76204e-11
-1.83035e-11
-3.83435e-12
2.16529e-11
-1.26183e-11
7.53169e-13
5.01603e-12
2.5291e-13
3.72223e-12
3.51495e-12
-5.06916e-13
7.26044e-12
4.76569e-12
2.92789e-12
2.1343e-12
8.57483e-12
1.92415e-13
1.05629e-10
7.30608e-11
-5.72628e-12
1.32597e-10
-5.41322e-12
-3.79806e-11
1.24787e-10
8.5543e-12
-2.20301e-10
-4.17266e-11
-1.31045e-10
-1.04345e-11
2.83191e-12
-1.16534e-13
4.61281e-14
8.6008e-12
6.2298e-13
-2.34169e-13
6.68659e-12
2.57206e-13
1.32523e-12
3.17489e-14
-4.89978e-14
6.92126e-12
2.9583e-13
9.31699e-13
1.00551e-10
2.83146e-11
9.8659e-12
7.6436e-11
7.62179e-11
7.35215e-12
2.81049e-11
2.6778e-11
3.51396e-12
2.59639e-11
1.8658e-11
-1.22745e-12
2.17035e-11
-2.1953e-11
3.70229e-13
-1.19523e-13
9.06514e-14
3.01619e-12
-2.05917e-13
7.09272e-13
1.57398e-12
-6.14212e-14
7.05561e-14
7.86105e-13
1.55881e-14
-5.74405e-15
4.90049e-11
3.55196e-13
-1.52928e-11
1.25102e-10
2.431e-11
7.30329e-12
1.43413e-10
1.09078e-10
7.26437e-14
8.69355e-12
5.09602e-11
1.0184e-11
9.40904e-12
2.07819e-11
1.47962e-13
5.40231e-11
-7.26623e-12
1.62819e-14
1.97389e-16
-2.17639e-16
6.25318e-14
-1.13289e-16
1.60095e-15
4.30992e-14
-2.26918e-16
-6.56855e-16
5.86156e-14
-3.80199e-19
-3.56809e-17
5.12241e-12
8.16566e-15
-4.72699e-12
1.13686e-10
5.96616e-11
2.21034e-11
3.37563e-11
1.06311e-10
-3.25567e-12
5.87112e-12
2.78536e-11
-5.96612e-12
7.18089e-12
2.8515e-11
-1.99368e-11
1.6853e-10
-4.08852e-12
1.6724e-16
1.46464e-18
-5.29256e-18
5.92879e-16
1.39003e-18
4.15648e-18
3.286e-16
2.57794e-18
-3.90756e-18
3.35726e-16
-8.80342e-19
-2.8861e-19
5.07004e-12
1.95557e-14
-2.89187e-12
5.25247e-11
1.69564e-10
6.95241e-11
-5.07316e-14
2.54292e-11
-5.96904e-12
2.23508e-12
2.75751e-11
-2.30043e-11
2.03964e-13
2.91714e-11
-1.92049e-12
1.17373e-10
1.59563e-11
6.62695e-19
-6.81e-20
4.57872e-20
1.28241e-18
1.04992e-20
2.39214e-19
5.27036e-19
-4.44151e-19
-3.0179e-19
1.29504e-16
-4.77789e-20
-1.36394e-16
1.30091e-11
7.39761e-14
2.53661e-12
-5.80648e-12
1.26329e-10
2.54569e-10
-1.23205e-12
-9.58068e-13
8.00416e-12
5.49824e-13
-1.81858e-11
2.38403e-11
-2.49128e-11
1.43834e-12
1.04547e-10
2.34448e-11
5.77215e-10
-6.37837e-08
-1.26887e-07
5.75892e-07
-1.7696e-07
-1.06351e-07
5.54731e-07
-2.68285e-07
-9.53413e-08
5.05437e-07
-3.28033e-07
-9.49092e-08
4.51017e-07
-3.52553e-07
-1.02037e-07
3.96356e-07
-3.41553e-07
-1.16284e-07
3.47967e-07
-2.95263e-07
-1.35199e-07
3.08373e-07
-2.12128e-07
-1.63992e-07
2.84932e-07
-1.00918e-07
-1.89538e-07
2.79108e-07
-1.59843e-07
2.27186e-07
-3.31044e-08
-2.71994e-07
5.52667e-07
-1.25773e-07
-2.30155e-07
5.26615e-07
-2.01289e-07
-1.98135e-07
4.68348e-07
-2.53786e-07
-1.87263e-07
4.08744e-07
-2.76031e-07
-1.95431e-07
3.47991e-07
-2.66322e-07
-2.18641e-07
2.93173e-07
-2.27608e-07
-2.48332e-07
2.45313e-07
-1.60673e-07
-2.9515e-07
2.16095e-07
-7.28116e-08
-3.40809e-07
2.1234e-07
-2.73362e-07
1.43718e-07
-3.55019e-08
-3.96662e-07
6.05545e-07
-1.47615e-07
-3.62511e-07
6.16405e-07
-2.42736e-07
-3.16397e-07
5.61289e-07
-3.10979e-07
-2.95738e-07
4.95432e-07
-3.41946e-07
-3.06017e-07
4.23893e-07
-3.34053e-07
-3.39202e-07
3.59295e-07
-2.91714e-07
-3.82296e-07
3.06204e-07
-2.07211e-07
-4.61363e-07
2.75966e-07
-9.58664e-08
-5.36385e-07
2.75818e-07
-4.25458e-07
2.02451e-07
-1.53978e-08
-4.70038e-07
6.61858e-07
-1.49223e-07
-4.90482e-07
7.68194e-07
-2.66895e-07
-4.57628e-07
7.32612e-07
-3.58946e-07
-4.28791e-07
6.52498e-07
-4.11931e-07
-4.40222e-07
5.60739e-07
-4.15592e-07
-4.88944e-07
4.71022e-07
-3.59801e-07
-5.63648e-07
3.88704e-07
-2.45737e-07
-6.83124e-07
3.3272e-07
-1.13179e-07
-7.71082e-07
3.27885e-07
-6.12547e-07
2.43129e-07
8.96368e-09
-4.43995e-07
7.40139e-07
-1.56364e-07
-5.3837e-07
9.52098e-07
-3.27735e-07
-5.51438e-07
9.52278e-07
-4.55383e-07
-5.48452e-07
8.33018e-07
-5.21552e-07
-5.82586e-07
6.85562e-07
-5.32725e-07
-6.46774e-07
5.55489e-07
-4.94063e-07
-7.42992e-07
4.66561e-07
-3.76083e-07
-9.22912e-07
4.76472e-07
-1.89417e-07
-1.043e-06
5.58545e-07
-8.53228e-07
3.59805e-07
1.57738e-08
-5.12722e-07
1.00654e-06
-1.66704e-07
-6.03919e-07
1.22605e-06
-4.02684e-07
-6.24059e-07
1.32633e-06
-6.03792e-07
-6.16185e-07
1.2609e-06
-7.2782e-07
-6.66473e-07
1.0669e-06
-7.86845e-07
-7.69887e-07
8.58809e-07
-7.9858e-07
-9.03673e-07
7.49355e-07
-7.19224e-07
-1.14132e-06
8.28005e-07
-4.28442e-07
-1.33672e-06
8.61424e-07
-1.19107e-06
4.45313e-07
4.07342e-08
-1.14084e-06
1.11251e-06
-1.31689e-07
-1.10626e-06
1.16854e-06
-4.26193e-07
-9.97516e-07
1.25167e-06
-7.44757e-07
-8.41237e-07
1.30332e-06
-9.7274e-07
-7.79543e-07
1.2516e-06
-1.07081e-06
-8.65366e-07
1.13839e-06
-1.06544e-06
-1.06822e-06
1.07202e-06
-9.93105e-07
-1.34094e-06
1.07958e-06
-6.65955e-07
-1.62243e-06
9.03574e-07
-1.69096e-06
4.54889e-07
1.33099e-07
-2.09321e-08
4.53827e-07
1.2995e-07
-4.6167e-08
5.65024e-07
-1.69817e-08
-4.56515e-07
6.74782e-07
-3.11009e-07
-5.95458e-07
6.48078e-07
-6.77817e-07
-7.51385e-07
6.33205e-07
-9.12554e-07
-9.28612e-07
6.78553e-07
-9.07356e-07
-1.23038e-06
8.05881e-07
-8.05672e-07
-1.55147e-06
9.20677e-07
-6.09931e-07
-1.84978e-06
7.39e-07
-2.13202e-06
7.00638e-08
-5.77292e-10
-5.58983e-11
-2.09313e-08
-4.4211e-08
-1.14633e-10
-2.61621e-09
-6.17453e-08
-1.20929e-10
5.0158e-08
-2.77178e-07
-9.42665e-09
2.7154e-07
-6.03494e-07
-1.11938e-07
5.13109e-07
-6.08731e-07
-6.01874e-07
6.01034e-07
-3.93213e-07
-1.27726e-06
5.25829e-07
-2.29764e-07
-1.6624e-06
3.98893e-07
-8.65331e-09
-2.02431e-06
2.90023e-07
-2.2092e-06
-3.59937e-07
1.42763e-12
-2.83624e-12
-4.92153e-11
1.09538e-11
-1.20364e-13
-1.3044e-10
-7.85452e-11
-1.24302e-11
-4.58108e-11
-9.41238e-09
-1.04465e-10
-1.7463e-11
-1.20935e-07
-3.11846e-11
1.11299e-09
-3.297e-07
-3.76194e-11
1.26373e-08
-5.08703e-07
-1.21211e-08
2.29252e-07
-2.11057e-07
-2.36119e-07
4.70145e-07
4.30606e-07
-1.29669e-06
8.18069e-07
-2.41138e-06
8.37217e-07
3.57233e-12
-4.54644e-13
-1.11661e-12
5.54712e-11
-5.60298e-13
-3.96779e-12
7.04564e-11
2.00364e-11
9.11149e-12
3.68795e-11
5.27281e-12
-4.29722e-11
1.70684e-12
-7.11302e-13
4.18781e-13
1.09868e-13
-1.19945e-12
-1.16075e-13
-7.84981e-09
-2.18853e-12
-6.73503e-13
-1.35358e-07
-2.15485e-12
4.60706e-09
-7.7649e-08
-1.65325e-07
2.28517e-07
-1.08147e-06
5.76856e-07
-1.83626e-13
-4.35442e-13
-5.68965e-13
2.35034e-13
-7.93989e-13
-9.79518e-13
1.76984e-11
-2.32823e-13
-1.9107e-11
1.91238e-11
4.7548e-13
-2.7237e-11
4.08692e-12
2.97244e-12
-1.40362e-11
1.24471e-12
2.07927e-13
-8.16895e-13
1.03656e-12
-6.2707e-14
-2.38778e-12
3.91384e-13
9.16731e-13
-3.49172e-12
-8.5994e-09
-4.6101e-08
3.46971e-09
-7.99779e-08
5.15267e-08
-7.56777e-13
-5.78823e-13
-8.15312e-13
-2.19505e-13
2.35085e-14
-4.29665e-13
2.99712e-13
-3.65627e-14
-1.02965e-12
3.58655e-13
1.28588e-13
-6.28094e-13
3.1938e-12
2.19206e-13
-1.55294e-12
3.87252e-12
4.34214e-13
-3.90083e-13
3.73662e-11
2.11926e-11
-6.57236e-11
9.14597e-11
1.1046e-11
-1.89573e-10
7.60493e-09
5.35695e-10
-4.15504e-10
-2.25391e-08
3.33485e-09
-1.64717e-12
-3.75244e-12
-8.91358e-13
-4.29045e-13
-1.60263e-12
-3.34436e-12
-8.45692e-16
1.23588e-14
-5.6788e-13
7.36034e-14
2.97748e-14
-1.88199e-13
5.36858e-13
1.84937e-13
-4.85938e-13
6.67032e-12
8.76748e-13
-2.1975e-13
8.57548e-11
2.5719e-11
-2.60159e-10
1.71403e-10
9.35229e-12
-2.6754e-10
4.19828e-09
-6.16802e-10
-2.79593e-10
-2.98176e-09
-9.80448e-10
-1.9539e-11
1.06304e-12
-1.7019e-12
-9.30764e-13
3.88053e-12
-1.12666e-11
-1.75258e-13
7.44691e-14
-7.32432e-13
3.90559e-13
1.40172e-13
-2.45085e-13
2.48728e-13
3.708e-12
-6.64132e-15
1.58059e-12
1.55093e-12
-8.6159e-14
1.58619e-11
7.49426e-12
-3.03857e-11
2.23507e-11
2.15751e-11
-9.09284e-11
5.38562e-11
-2.68896e-11
-2.97555e-10
-5.32686e-11
-2.5137e-09
-2.08266e-12
8.86352e-14
-1.78817e-14
8.22727e-14
1.18244e-12
-7.57325e-13
7.83258e-13
1.61813e-12
-4.13567e-13
2.57307e-12
1.43082e-13
-1.14771e-14
2.00107e-11
1.7257e-11
-5.30988e-12
3.37762e-12
2.17945e-11
2.5093e-14
1.1189e-11
1.41423e-11
-1.12641e-11
4.00007e-11
1.21955e-10
-3.31171e-10
1.33376e-11
1.71327e-10
-5.49205e-10
4.19429e-12
-1.42819e-10
-8.39764e-16
6.12347e-17
-2.01528e-15
1.45068e-13
9.57116e-16
-5.2756e-15
2.44937e-13
4.00377e-16
-6.00705e-15
2.73845e-14
4.63995e-15
-2.79574e-16
4.17826e-11
2.84448e-11
-2.89585e-12
1.71065e-11
2.70371e-10
-2.57497e-11
2.44991e-11
1.75581e-10
-5.75746e-11
4.06402e-11
1.45861e-10
-2.70845e-10
6.31255e-12
5.5293e-11
-2.00039e-10
1.38746e-11
-4.80834e-11
7.83378e-17
4.28953e-18
-1.90107e-16
2.39501e-15
5.8004e-18
-1.72447e-17
2.16765e-15
-1.14645e-17
-2.39631e-17
6.84438e-15
5.95391e-18
-6.20686e-17
1.04482e-10
1.05541e-11
-1.12391e-12
2.20565e-10
6.31532e-10
-1.25699e-10
1.02702e-11
5.97786e-10
-1.91994e-10
2.77406e-12
9.27749e-11
-8.47047e-11
-2.77058e-12
2.3191e-11
-2.49877e-11
4.44562e-12
-5.84029e-14
3.07397e-18
4.08554e-19
2.32448e-17
9.77969e-18
-4.51689e-20
1.30599e-18
1.03158e-17
4.03569e-20
-5.54936e-19
4.25919e-17
-6.77918e-20
-1.35748e-17
6.45607e-11
3.20585e-11
-3.3077e-12
2.00307e-10
7.32078e-10
-1.21466e-10
8.70178e-12
7.19113e-10
-2.2871e-10
-4.9981e-13
8.03635e-11
-7.99034e-12
-7.85415e-13
1.9518e-11
-5.90203e-13
1.93187e-11
1.37222e-13
5.5278e-20
4.53419e-19
6.3798e-20
7.3023e-20
4.09802e-20
1.23007e-20
4.11443e-18
-2.48564e-19
-2.36845e-18
8.62433e-18
-1.4633e-18
-1.38797e-19
3.74901e-11
-4.73608e-12
4.90299e-11
1.23532e-10
-7.75415e-11
8.9311e-10
7.45392e-12
-1.76164e-10
9.7227e-10
-8.87628e-12
-1.76745e-11
1.24593e-10
-6.64181e-11
1.5284e-12
1.00673e-10
1.77874e-11
4.237e-10
-8.12104e-08
-2.3813e-08
7.43103e-07
-2.12927e-07
-1.85692e-08
7.05016e-07
-3.08626e-07
-2.43604e-08
6.25497e-07
-3.6864e-07
-3.6996e-08
5.48028e-07
-3.90201e-07
-5.55933e-08
4.7351e-07
-3.72786e-07
-7.86809e-08
4.09233e-07
-3.19348e-07
-1.03895e-07
3.5883e-07
-2.26399e-07
-1.37055e-07
3.29038e-07
-1.04983e-07
-1.63972e-07
3.21664e-07
-1.32362e-07
2.54565e-07
-5.09583e-08
-5.78016e-08
7.24534e-07
-1.71562e-07
-6.25883e-08
6.91238e-07
-2.49642e-07
-6.82638e-08
5.90332e-07
-2.99176e-07
-7.92346e-08
5.00516e-07
-3.18105e-07
-1.05454e-07
4.1678e-07
-3.03108e-07
-1.46267e-07
3.45763e-07
-2.56995e-07
-1.92825e-07
2.8813e-07
-1.78749e-07
-2.51979e-07
2.52773e-07
-7.87822e-08
-3.0003e-07
2.48431e-07
-2.33105e-07
1.65678e-07
-7.06903e-09
-9.70338e-09
6.74793e-07
-1.73314e-07
-7.21186e-08
7.9218e-07
-2.90965e-07
-1.11681e-07
7.22357e-07
-3.64451e-07
-1.32464e-07
6.22147e-07
-3.91314e-07
-1.70437e-07
5.1574e-07
-3.74932e-07
-2.3102e-07
4.27666e-07
-3.21007e-07
-2.98266e-07
3.57721e-07
-2.25226e-07
-3.90465e-07
3.18672e-07
-1.02105e-07
-4.65415e-07
3.18083e-07
-3.60999e-07
2.28239e-07
7.8987e-08
1.05033e-07
6.19129e-07
-1.35825e-07
-3.98519e-08
9.50739e-07
-3.12841e-07
-1.4464e-07
9.42587e-07
-4.273e-07
-1.84771e-07
8.19264e-07
-4.83188e-07
-2.34015e-07
6.80205e-07
-4.8014e-07
-3.21324e-07
5.58277e-07
-4.1117e-07
-4.3639e-07
4.57857e-07
-2.77996e-07
-5.81902e-07
3.90984e-07
-1.26931e-07
-6.7395e-07
3.85354e-07
-5.27319e-07
2.82519e-07
1.41826e-07
3.62441e-07
4.86585e-07
-8.17956e-08
8.75453e-08
1.04832e-06
-3.42187e-07
-1.41814e-07
1.20984e-06
-5.22393e-07
-2.61207e-07
1.08966e-06
-5.89315e-07
-3.62596e-07
8.81066e-07
-5.73979e-07
-4.7048e-07
6.89309e-07
-4.99495e-07
-5.93821e-07
5.49509e-07
-3.5717e-07
-7.65488e-07
5.17732e-07
-1.72332e-07
-8.73602e-07
5.7336e-07
-7.30537e-07
3.90691e-07
1.22053e-07
4.10668e-07
9.24176e-07
-6.97603e-08
2.13532e-07
1.29188e-06
-3.92844e-07
1.79701e-08
1.48964e-06
-6.67152e-07
-1.46724e-07
1.42073e-06
-8.06964e-07
-3.57416e-07
1.20153e-06
-8.47139e-07
-5.28938e-07
9.57442e-07
-8.08907e-07
-6.97686e-07
8.14989e-07
-6.5952e-07
-9.14142e-07
8.27273e-07
-3.66126e-07
-1.06381e-06
7.5824e-07
-1.01902e-06
3.67668e-07
2.51949e-08
-1.38888e-07
1.6935e-06
-2.20493e-07
-6.92498e-08
1.69718e-06
-6.09707e-07
-5.53342e-08
1.71413e-06
-9.63429e-07
-1.50669e-07
1.661e-06
-1.14453e-06
-4.17684e-07
1.49298e-06
-1.19514e-06
-5.90067e-07
1.25013e-06
-1.158e-06
-7.90552e-07
1.12774e-06
-1.01522e-06
-1.07136e-06
1.09403e-06
-6.49749e-07
-1.2936e-06
7.67892e-07
-1.43807e-06
2.24197e-07
1.25435e-07
-3.45251e-07
1.28659e-06
3.19317e-08
-2.66909e-07
1.35163e-06
-2.2397e-07
-2.34359e-07
1.41814e-06
-5.59083e-07
-3.24162e-07
1.31618e-06
-7.89944e-07
-6.33158e-07
1.21687e-06
-9.17708e-07
-7.67072e-07
9.85927e-07
-8.5826e-07
-9.3896e-07
8.95062e-07
-6.95011e-07
-1.25171e-06
9.37969e-07
-4.57813e-07
-1.45404e-06
6.62437e-07
-1.70496e-06
-1.206e-07
1.46339e-09
-1.27347e-09
6.18708e-09
-8.6176e-09
-4.45936e-09
8.11572e-08
-9.39079e-08
-2.83308e-09
2.41435e-07
-3.64363e-07
-4.10756e-09
5.67801e-07
-8.26693e-07
-7.01964e-08
9.3206e-07
-8.41761e-07
-6.02504e-07
1.07306e-06
-5.42159e-07
-9.73065e-07
8.34997e-07
-5.86303e-08
-1.26447e-06
5.71264e-07
4.94203e-07
-1.62148e-06
5.10462e-07
-1.44189e-06
2.75374e-07
1.45958e-11
-2.21535e-12
-1.35819e-09
1.57241e-10
-2.27711e-11
-4.69436e-09
2.73164e-11
-2.93532e-11
-2.7204e-09
-3.95238e-09
-6.43187e-11
-2.26417e-11
-7.43576e-08
-6.23686e-11
1.3874e-09
-2.58412e-07
-3.63913e-12
2.59994e-08
-2.73459e-07
-3.94142e-11
2.2612e-07
-5.58651e-08
-8.15206e-09
3.03458e-07
2.16105e-07
-2.41108e-07
6.96653e-07
-5.39037e-07
4.74666e-07
1.85931e-13
-1.43881e-12
-2.17543e-12
9.8626e-12
-2.20344e-12
-3.01305e-11
8.54572e-11
2.83258e-11
9.79024e-11
5.92636e-11
4.9147e-12
2.23825e-11
1.56924e-12
-2.13005e-12
-1.46684e-12
1.2745e-13
-1.07887e-12
-1.10305e-12
-3.49145e-11
-3.05147e-12
-1.17022e-12
-3.54392e-09
-2.94682e-11
-1.8339e-12
-1.51841e-08
-4.13492e-09
3.35556e-09
-5.15043e-08
6.97822e-08
-2.26965e-13
-1.17425e-12
-1.1639e-12
9.83121e-14
-3.25975e-12
-4.36375e-13
1.84465e-11
-7.38831e-14
9.89587e-12
1.3424e-11
1.1412e-12
1.09342e-11
2.9452e-12
2.11003e-12
7.42722e-13
7.65331e-13
-5.73988e-14
-6.82373e-13
2.97276e-12
-6.23993e-12
-2.01182e-12
7.07958e-12
-1.19622e-12
-3.59274e-11
-8.82392e-10
2.58015e-10
-3.41982e-11
-2.42128e-09
1.6852e-09
-1.44811e-12
-7.61234e-13
-6.78261e-13
-7.25682e-13
-4.27536e-12
3.45391e-12
6.69542e-13
-1.35339e-12
3.03399e-12
8.73862e-13
-3.12699e-14
-5.81115e-13
1.45297e-12
-1.78388e-14
2.59944e-13
1.42633e-12
-3.97487e-14
-7.9699e-13
9.83125e-11
-8.63616e-11
-4.91982e-11
7.20728e-11
2.21556e-11
-2.52085e-10
1.41747e-11
6.21369e-11
-1.25874e-10
2.40842e-10
2.28035e-11
-2.72807e-12
-3.10696e-14
1.44963e-14
-1.37758e-12
-9.59927e-13
6.66992e-12
5.93858e-14
-8.93566e-14
5.10492e-13
8.17351e-14
5.00151e-15
-4.34671e-13
8.51574e-13
5.96871e-13
-1.18544e-13
1.67966e-13
1.59639e-14
-2.27543e-13
1.17066e-10
-3.06028e-11
-2.46753e-10
2.86276e-11
1.27434e-11
-4.69271e-10
2.03527e-10
4.1797e-11
-4.46968e-11
3.26119e-09
-7.12931e-11
-1.52901e-12
-4.90065e-16
-2.44714e-13
-4.78858e-13
6.95695e-13
-2.44895e-12
6.24477e-16
3.62787e-13
7.70082e-14
4.93305e-13
1.44121e-13
-4.02978e-14
7.99022e-12
3.15489e-12
-2.32572e-13
1.00421e-11
4.24101e-13
-3.16639e-12
4.93116e-11
5.07211e-11
-2.12138e-10
9.29383e-12
5.51256e-11
-3.50111e-10
-1.71902e-10
9.02141e-11
-9.54952e-11
-1.4722e-10
-1.69713e-11
-1.23051e-15
-1.26698e-16
-2.51153e-14
5.14441e-15
4.998e-15
-7.50788e-14
9.55867e-15
4.67439e-15
-6.05293e-14
1.35564e-14
8.06758e-15
-5.65942e-14
1.70833e-11
1.56461e-11
-1.13359e-14
4.1658e-12
2.00917e-11
-5.92667e-12
8.73411e-12
1.03211e-10
-1.16234e-10
-1.20788e-10
2.31226e-10
-2.90496e-10
-6.58802e-11
3.91482e-11
-4.41605e-10
-2.06915e-11
-2.87758e-10
2.00056e-16
4.63328e-17
-4.32961e-15
1.48301e-16
4.85406e-17
-6.59158e-16
2.52911e-16
3.12845e-17
-1.54453e-15
2.71939e-14
2.83935e-16
-1.9197e-14
2.68191e-11
1.95126e-12
-8.09329e-14
7.21965e-11
4.91552e-10
-1.3795e-11
1.64651e-11
6.40715e-10
-6.40289e-11
-6.2519e-11
3.17046e-10
-2.14617e-10
-9.35242e-11
1.2171e-11
-2.98904e-10
-1.83036e-11
-1.13785e-10
1.47904e-16
1.78014e-16
-6.16957e-16
3.05659e-17
4.19407e-17
9.6786e-17
3.39174e-17
1.14718e-18
-1.07354e-17
7.27441e-15
4.86101e-17
-7.07438e-15
6.1266e-11
1.6212e-12
-3.61332e-15
9.24886e-11
7.32895e-10
-6.39924e-11
-3.93673e-11
8.64348e-10
-1.64354e-10
-3.42916e-11
1.51364e-11
-7.83286e-11
-1.39117e-11
-5.11628e-12
-2.41861e-13
8.08914e-14
-3.8415e-13
1.87983e-16
1.22507e-16
-5.61267e-17
1.99877e-17
3.13694e-17
2.1662e-17
1.26472e-17
4.65837e-19
-4.53468e-19
1.88184e-15
7.0551e-18
-1.82489e-15
4.76878e-11
1.23648e-11
-2.27245e-15
2.63948e-11
7.48494e-10
-6.80932e-11
-4.96385e-11
9.15804e-10
-1.45593e-10
-5.83834e-12
2.8292e-11
-2.57495e-11
-9.09764e-14
1.40378e-12
-2.43069e-13
1.22124e-13
-1.4387e-15
7.33438e-18
1.20039e-16
3.74163e-18
1.21048e-18
3.48309e-18
4.29085e-19
8.88186e-19
1.33931e-20
-1.29927e-19
2.44878e-16
-2.25864e-16
4.78665e-19
2.16237e-11
-3.17313e-15
2.07843e-11
-3.30989e-11
-4.43718e-11
8.12539e-10
-1.29354e-10
-1.64906e-10
1.05279e-09
-3.60611e-12
-1.90387e-11
3.37662e-10
-1.34502e-12
-1.64046e-18
6.71101e-13
-1.64257e-15
8.22717e-12
-1.0193e-07
1.26795e-07
8.09033e-07
-2.77992e-07
9.19265e-08
7.89151e-07
-3.83818e-07
4.95557e-08
6.81767e-07
-4.4042e-07
1.81855e-08
5.86445e-07
-4.52156e-07
-1.53653e-08
5.00611e-07
-4.24478e-07
-4.71616e-08
4.28717e-07
-3.58172e-07