/*--------------------------------*- C++ -*----------------------------------*\
| =========                 |                                                 |
| \\      /  F ield         | OpenFOAM: The Open Source CFD Toolbox           |
|  \\    /   O peration     | Version:  2312                                  |
|   \\  /    A nd           | Website:  www.openfoam.com                      |
|    \\/     M anipulation  |                                                 |
\*---------------------------------------------------------------------------*/
FoamFile
{
    version     2.0;
    format      ascii;
    arch        "LSB;label=32;scalar=64";
    class       volScalarField;
    location    "0.525";
    object      p;
}
// * * * * * * * * * * * * * * * * * * * * * * * * * * * * * * * * * * * * * //

dimensions      [1 -1 -2 0 0 0 0];

internalField   nonuniform List<scalar> 
8000
(
367.471
368.086
369.257
370.857
372.723
374.664
376.492
378.034
379.136
379.703
318.09
318.778
320.087
321.874
323.953
326.112
328.142
329.852
331.069
331.692
268.278
269.122
270.73
272.92
275.457
278.084
280.547
282.622
284.094
284.841
217.85
218.948
221.05
223.909
227.21
230.624
233.824
236.523
238.461
239.435
166.651
168.084
170.893
174.711
179.148
183.768
188.105
191.77
194.514
195.858
113.501
115.528
119.522
124.796
131.028
137.553
143.663
148.758
152.635
154.471
56.3543
59.5783
65.4665
73.2408
82.4873
92.0593
100.724
107.714
112.761
115.35
10.8944
12.1374
17.2059
25.6471
36.1325
47.9072
60.5781
70.1617
76.5513
80.1247
0.0126891
0.00428707
0.453447
2.78147
7.15637
16.0909
27.5715
39.8604
46.7468
50.8561
-0.114478
-0.112271
-0.145136
-0.234326
-0.182733
1.24913
7.16144
17.6116
23.8669
28.1206
-0.221948
-0.227328
-0.252557
-0.279895
-0.28141
-0.241536
-0.0712465
2.14354
10.4141
15.2667
-0.315009
-0.313157
-0.313533
-0.312305
-0.31217
-0.28621
-0.314163
-0.634588
10.7734
17.2935
-0.391666
-0.389203
-0.386621
-0.383304
-0.384706
-0.396634
-0.493437
-0.771815
-0.627501
1.69528
-0.456352
-0.454151
-0.455043
-0.458844
-0.46794
-0.490526
-0.547296
-0.597958
-0.469041
-0.514972
-0.515864
-0.51177
-0.510924
-0.512886
-0.520515
-0.530245
-0.54194
-0.520082
-0.445611
-0.440037
-0.571504
-0.56799
-0.565006
-0.562906
-0.56358
-0.564095
-0.565743
-0.548188
-0.475066
-0.461528
-0.625099
-0.623613
-0.622354
-0.621572
-0.622383
-0.627047
-0.636249
-0.624885
-0.558634
-0.542768
-0.680411
-0.680318
-0.680585
-0.681828
-0.685863
-0.694418
-0.713144
-0.704777
-0.641157
-0.621978
-0.736698
-0.73728
-0.738463
-0.740909
-0.744687
-0.751358
-0.773294
-0.755943
-0.713177
-0.704311
-0.792372
-0.793509
-0.795782
-0.799656
-0.803552
-0.80772
-0.81327
-0.787288
-0.766101
-0.778799
367.15
367.761
368.919
370.5
372.337
374.242
376.032
377.537
378.608
379.15
317.786
318.469
319.764
321.526
323.567
325.678
327.658
329.318
330.492
331.084
268.042
268.88
270.467
272.615
275.09
277.64
280.021
282.017
283.417
284.11
217.759
218.832
220.895
223.68
226.881
230.173
233.24
235.816
237.625
238.481
166.773
168.169
170.921
174.654
178.954
183.37
187.482
190.943
193.442
194.545
113.708
115.646
119.578
124.944
131.074
137.314
143.037
147.73
151.2
152.587
57.0966
60.1632
66.167
73.7859
82.667
91.7279
99.901
106.294
110.727
112.5
12.923
14.0902
17.8588
25.8831
36.0097
47.4842
58.9712
67.5483
73.3039
76.2023
0.0127972
0.00322607
0.137907
1.9808
6.19915
14.0336
26.3261
36.0703
42.7516
46.4201
-0.125726
-0.121174
-0.134227
-0.198202
-0.290041
0.0433868
5.18764
16.9598
21.9424
23.7248
-0.231853
-0.23108
-0.249451
-0.280867
-0.29606
-0.222329
-0.275309
0.181891
2.36545
10.2596
-0.324539
-0.32203
-0.319873
-0.320419
-0.3251
-0.307956
-0.370082
-0.403217
0.0781005
10.0267
-0.399271
-0.398571
-0.399728
-0.399489
-0.401012
-0.404421
-0.470475
-0.539054
-0.648748
-0.630919
-0.46201
-0.461611
-0.467393
-0.472046
-0.479364
-0.488884
-0.525072
-0.564346
-0.569959
-0.476262
-0.521323
-0.518234
-0.516383
-0.516667
-0.522528
-0.52359
-0.51935
-0.49494
-0.471477
-0.45912
-0.577265
-0.572946
-0.567866
-0.564498
-0.565164
-0.563
-0.55415
-0.530173
-0.501094
-0.487881
-0.628362
-0.626149
-0.624203
-0.623687
-0.626352
-0.631306
-0.631025
-0.614186
-0.585955
-0.570145
-0.682033
-0.681641
-0.681971
-0.684499
-0.690394
-0.699273
-0.707776
-0.698855
-0.670594
-0.652335
-0.737978
-0.738439
-0.739936
-0.744494
-0.752016
-0.760739
-0.772854
-0.767643
-0.738427
-0.715732
-0.793166
-0.794464
-0.797333
-0.803353
-0.811599
-0.81922
-0.829118
-0.821184
-0.791451
-0.769336
366.415
367.029
368.178
369.735
371.531
373.38
375.105
376.545
377.564
378.074
317.076
317.768
319.052
320.777
322.76
324.791
326.679
328.248
329.348
329.896
267.446
268.294
269.85
271.922
274.289
276.701
278.929
280.774
282.051
282.671
217.454
218.493
220.472
223.109
226.117
229.164
231.965
234.279
235.86
236.581
166.995
168.224
170.798
174.298
178.287
182.297
185.968
188.983
191.003
191.843
115.397
116.832
120.258
125.127
130.669
136.178
141.136
145.104
147.783
148.8
60.6489
62.8087
67.8668
74.9046
82.9304
90.7791
97.598
102.805
106.275
107.603
14.9143
15.8262
19.6117
27.6229
37.6025
47.7324
56.6042
63.1953
67.4289
69.9233
0.0074885
0.0152342
0.285985
2.51034
7.54073
15.9396
24.5343
30.6968
35.9318
39.3767
-0.130236
-0.119401
-0.118553
-0.157833
-0.249945
0.0105946
4.60058
10.7668
17.1894
17.2323
-0.257582
-0.254412
-0.261958
-0.284307
-0.312201
-0.263023
-0.275983
-0.284071
0.263299
2.25014
-0.34331
-0.341159
-0.333717
-0.333421
-0.340135
-0.337612
-0.361239
-0.383661
-0.386367
-0.710551
-0.40521
-0.40379
-0.40211
-0.401603
-0.405681
-0.407684
-0.430986
-0.468673
-0.560578
-0.765897
-0.460761
-0.456626
-0.45985
-0.463974
-0.475483
-0.484727
-0.497901
-0.51679
-0.57438
-0.612709
-0.515477
-0.510863
-0.510907
-0.512389
-0.520105
-0.522342
-0.51794
-0.506094
-0.504573
-0.54135
-0.570462
-0.567385
-0.566793
-0.566402
-0.567871
-0.566789
-0.556058
-0.543313
-0.541427
-0.562353
-0.62594
-0.624753
-0.624764
-0.624978
-0.626234
-0.626018
-0.616708
-0.609603
-0.62263
-0.636817
-0.682325
-0.682373
-0.68301
-0.684813
-0.687898
-0.685623
-0.683447
-0.680377
-0.692282
-0.689503
-0.738958
-0.739451
-0.740963
-0.744795
-0.749963
-0.748637
-0.74882
-0.748556
-0.752088
-0.731174
-0.794032
-0.795119
-0.798081
-0.803882
-0.811369
-0.813408
-0.813707
-0.816514
-0.814586
-0.78486
365.228
365.862
367.024
368.573
370.34
372.134
373.784
375.143
376.097
376.57
315.828
316.565
317.88
319.6
321.538
323.486
325.266
326.721
327.728
328.225
266.222
267.135
268.723
270.76
273.035
275.29
277.327
278.979
280.104
280.643
216.366
217.462
219.466
222.002
224.82
227.582
230.049
232.025
233.341
233.937
166.6
167.711
170.168
173.433
177.052
180.543
183.618
186.043
187.61
188.241
116.59
117.566
120.39
124.638
129.558
134.194
138.161
141.217
143.173
143.814
64.5907
65.4023
68.9381
74.8975
81.9761
88.5453
93.8412
97.6707
99.9613
100.775
18.7686
19.0485
22.0881
28.8731
37.838
46.2965
52.5908
56.6782
58.8964
60.3497
0.107143
0.176695
0.941944
3.19544
8.01845
15.9573
21.8877
24.7306
26.2271
27.6395
-0.156474
-0.130992
-0.0788346
-0.130496
-0.21721
-0.0503414
2.50691
4.7483
5.31821
6.97238
-0.290858
-0.296584
-0.273716
-0.280313
-0.31356
-0.292023
-0.280833
-0.26451
-0.26818
-0.0846174
-0.371653
-0.384387
-0.359648
-0.346683
-0.352522
-0.356195
-0.360186
-0.366103
-0.382705
-0.351306
-0.416673
-0.41795
-0.406593
-0.397657
-0.402897
-0.407504
-0.416971
-0.443635
-0.496549
-0.529351
-0.461686
-0.451344
-0.451423
-0.448134
-0.46151
-0.474349
-0.482111
-0.511836
-0.548331
-0.56803
-0.512522
-0.501816
-0.505655
-0.504415
-0.511032
-0.516585
-0.516228
-0.520834
-0.529373
-0.547821
-0.568224
-0.563412
-0.565468
-0.565649
-0.566862
-0.566432
-0.561233
-0.560375
-0.560461
-0.56308
-0.625562
-0.624347
-0.625677
-0.626308
-0.62742
-0.624705
-0.617169
-0.617192
-0.630394
-0.628242
-0.683846
-0.68328
-0.684604
-0.686308
-0.688477
-0.685847
-0.679325
-0.682028
-0.691122
-0.681587
-0.741579
-0.740836
-0.742019
-0.74532
-0.749166
-0.748517
-0.745668
-0.750038
-0.751511
-0.735192
-0.796475
-0.795878
-0.797632
-0.802777
-0.808843
-0.810564
-0.813026
-0.81933
-0.815489
-0.796622
363.6
364.275
365.481
367.061
368.829
370.587
372.174
373.46
374.349
374.783
314.037
314.852
316.25
318.011
319.953
321.846
323.533
324.879
325.795
326.24
264.199
265.276
267.012
269.113
271.358
273.488
275.346
276.805
277.774
278.23
214.157
215.438
217.654
220.233
222.975
225.502
227.649
229.288
230.334
230.797
165.085
166.174
168.665
171.866
175.167
178.148
180.612
182.439
183.571
183.988
116.656
117.247
119.558
123.302
127.55
131.312
134.243
136.331
137.564
137.847
68.1832
67.2094
69.568
74.5132
80.1732
84.9873
88.5756
90.9258
91.9199
92.4071
19.0159
20.0849
23.732
30.1347
37.1557
42.5534
46.3212
47.869
47.5553
48.3632
0.0256523
0.0897946
0.661042
4.08616
8.3478
12.7069
16.0586
16.3954
14.1806
16.0513
-0.226542
-0.258374
-0.105926
-0.0442478
-0.16276
-0.19127
-0.102174
0.00704673
0.0241581
1.02973
-0.324787
-0.34084
-0.27576
-0.244886
-0.289937
-0.302296
-0.294648
-0.263116
-0.215233
-0.245049
-0.411899
-0.469573
-0.41453
-0.364377
-0.364639
-0.360067
-0.352647
-0.343178
-0.329109
-0.307061
-0.436482
-0.45926
-0.437264
-0.405991
-0.406685
-0.404548
-0.406175
-0.418013
-0.443265
-0.428968
-0.461073
-0.459746
-0.456597
-0.440545
-0.448931
-0.458694
-0.464614
-0.481346
-0.513081
-0.51152
-0.503734
-0.488905
-0.501642
-0.499511
-0.506621
-0.512634
-0.514257
-0.521684
-0.533349
-0.537643
-0.564355
-0.556315
-0.563815
-0.56559
-0.568572
-0.569679
-0.568586
-0.569499
-0.568707
-0.565193
-0.627134
-0.624261
-0.627949
-0.628876
-0.630118
-0.629099
-0.626706
-0.626478
-0.629341
-0.622387
-0.688778
-0.685703
-0.689087
-0.688928
-0.689918
-0.689475
-0.687574
-0.686769
-0.686154
-0.679587
-0.748005
-0.744167
-0.745223
-0.746387
-0.748338
-0.749852
-0.749712
-0.748388
-0.74439
-0.735889
-0.801459
-0.798255
-0.79884
-0.801403
-0.80538
-0.809465
-0.812106
-0.810472
-0.80557
-0.797505
361.618
362.341
363.608
365.258
367.096
368.864
370.42
371.651
372.486
372.885
311.789
312.681
314.208
316.084
318.102
319.995
321.631
322.894
323.728
324.127
261.165
262.571
264.632
266.956
269.32
271.418
273.149
274.448
275.277
275.656
209.788
212.043
214.833
217.811
220.658
223.044
224.956
226.305
227.101
227.44
157.973
162.336
165.745
169.305
172.599
175.227
177.189
178.497
179.216
179.421
117.254
115.907
117.64
120.992
124.589
127.519
129.621
130.868
131.388
131.386
73.3701
68.6441
67.8874
72.4734
77.0541
79.9807
81.9402
83.103
82.9364
82.9382
26.4606
19.6864
21.5949
28.0555
33.8183
36.8254
37.5918
37.6986
36.097
36.4304
-0.797533
0.258288
-1.02936
2.90108
7.30993
8.10906
7.9532
7.80346
6.42663
7.22864
-0.472677
-0.600354
-0.60646
-0.0156562
-0.0625192
-0.182119
-0.235174
-0.250562
-0.277452
-0.188992
-0.356061
-0.362105
-0.295909
-0.156669
-0.224
-0.286637
-0.297589
-0.290783
-0.285615
-0.280724
-0.454394
-0.569002
-0.46416
-0.363265
-0.358188
-0.351373
-0.338965
-0.331284
-0.32788
-0.315407
-0.471347
-0.516608
-0.493961
-0.429954
-0.413591
-0.40516
-0.400138
-0.404229
-0.41917
-0.403417
-0.485381
-0.509344
-0.486851
-0.450365
-0.451101
-0.456016
-0.459039
-0.468271
-0.492496
-0.485182
-0.513327
-0.530643
-0.519564
-0.503391
-0.508622
-0.513937
-0.515917
-0.522451
-0.539965
-0.532749
-0.566001
-0.575026
-0.578915
-0.573982
-0.57458
-0.574332
-0.573529
-0.576047
-0.579936
-0.570864
-0.627338
-0.623366
-0.633556
-0.636049
-0.63608
-0.633944
-0.631417
-0.630593
-0.631766
-0.624243
-0.692566
-0.68112
-0.694004
-0.693367
-0.693738
-0.692022
-0.689751
-0.687552
-0.685876
-0.681143
-0.756053
-0.745368
-0.751365
-0.748763
-0.748808
-0.748401
-0.74776
-0.745848
-0.742368
-0.737656
-0.809318
-0.800932
-0.801103
-0.800104
-0.801771
-0.803179
-0.804986
-0.80354
-0.800002
-0.795912
359.529
360.23
361.514
363.285
365.258
367.107
368.679
369.889
370.687
371.061
309.226
310.153
311.786
313.896
316.121
318.09
319.734
320.953
321.731
322.094
257.117
258.995
261.458
264.333
267.058
269.263
270.945
272.138
272.855
273.168
201.891
206.562
210.479
214.464
217.933
220.424
222.231
223.37
223.96
224.192
147.109
154.066
160.603
165.661
169.453
172.014
173.653
174.582
174.974
175.023
111.733
113.23
114.752
117.745
120.997
123.211
124.671
125.358
125.321
125.153
70.0148
66.4037
64.9488
68.1011
72.1799
73.9633
74.6714
75.0727
74.1151
73.6067
30.3714
21.853
19.419
23.1463
27.4834
28.901
28.2955
28.0945
26.3178
25.8032
7.14479
5.24847
0.992165
-2.07993
2.5434
3.50393
2.96402
2.77863
2.31644
2.94525
0.318037
0.0132826
-1.70425
-0.877089
-0.0942719
-0.099638
-0.146773
-0.154871
-0.187776
-0.207377
-0.321134
-0.30356
-0.445501
-0.183009
-0.154112
-0.25626
-0.268332
-0.264667
-0.268548
-0.268044
-0.4675
-0.486851
-0.498748
-0.388815
-0.352399
-0.354738
-0.338379
-0.323042
-0.316944
-0.31371
-0.474598
-0.492233
-0.503553
-0.454999
-0.425953
-0.412368
-0.402424
-0.398126
-0.401475
-0.390379
-0.523389
-0.590942
-0.515127
-0.463929
-0.463485
-0.463107
-0.462287
-0.46663
-0.478372
-0.470475
-0.55854
-0.665032
-0.59316
-0.527374
-0.520997
-0.520013
-0.521368
-0.527069
-0.540254
-0.529993
-0.584844
-0.650245
-0.64415
-0.603753
-0.589864
-0.582102
-0.580608
-0.582843
-0.590009
-0.576471
-0.631748
-0.646769
-0.678866
-0.660478
-0.649914
-0.6412
-0.6371
-0.635795
-0.635595
-0.626923
-0.699301
-0.668798
-0.719761
-0.710398
-0.704052
-0.696822
-0.692358
-0.688894
-0.685858
-0.681823
-0.766803
-0.74759
-0.7677
-0.759968
-0.754084
-0.749473
-0.746502
-0.743208
-0.740023
-0.737159
-0.817982
-0.811039
-0.806873
-0.803875
-0.801265
-0.79964
-0.799261
-0.797482
-0.794875
-0.792742
357.953
358.301
359.386
361.331
363.53
365.504
367.143
368.365
369.146
369.502
307.206
307.708
309.053
311.547
314.195
316.331
318.043
319.268
320.013
320.35
253.757
254.859
257.129
261.151
264.716
267.281
268.977
270.126
270.76
271.027
195.579
198.931
203.396
209.338
214.69
217.928
219.782
220.813
221.237
221.384
130.286
141.683
152.954
161.005
165.933
168.876
170.479
171.155
171.307
171.253
76.3745
96.5518
111.425
114.735
117.773
119.366
120.266
120.445
119.968
119.819
52.075
54.2759
63.2167
65.3352
67.6383
68.5273
68.2622
67.9099
66.4507
65.6488
33.4724
28.8804
18.7609
19.9977
20.7517
21.6389
20.8159
20.1564
18.6449
17.2691
20.855
12.003
1.95996
0.402224
-0.673547
0.335841
0.475363
0.335603
0.236545
0.562675
3.28796
2.73416
-1.10397
-1.5855
-0.495883
-0.175023
-0.141996
-0.121789
-0.125613
-0.133617
-0.572101
-0.0156132
-0.547032
-0.529403
-0.285938
-0.274202
-0.269267
-0.249
-0.240298
-0.243404
-0.489026
-0.276029
-0.517761
-0.589322
-0.462589
-0.393415
-0.351669
-0.324048
-0.31122
-0.307366
-0.397657
-0.231484
-0.385789
-0.521826
-0.490287
-0.442464
-0.41366
-0.39903
-0.392572
-0.381994
-0.507867
-0.59697
-0.467517
-0.498553
-0.505194
-0.485444
-0.472428
-0.469081
-0.469592
-0.459932
-0.575251
-0.829621
-0.683818
-0.568067
-0.554948
-0.53561
-0.531722
-0.532699
-0.536253
-0.527496
-0.595018
-0.67939
-0.69341
-0.642211
-0.617258
-0.595777
-0.591098
-0.589379
-0.593829
-0.580808
-0.635274
-0.60588
-0.685438
-0.689654
-0.66988
-0.651638
-0.645455
-0.641049
-0.640466
-0.630235
-0.736958
-0.623477
-0.719743
-0.742934
-0.719122
-0.703867
-0.696783
-0.691121
-0.687299
-0.682722
-0.800666
-0.717117
-0.756257
-0.788471
-0.762818
-0.753202
-0.747099
-0.741941
-0.738658
-0.736274
-0.817716
-0.781836
-0.794487
-0.822886
-0.805214
-0.7981
-0.795278
-0.792632
-0.790864
-0.789526
357.417
356.716
357.239
359.426
361.975
364.19
365.968
367.24
368.026
368.375
306.859
305.545
305.88
308.991
312.272
314.77
316.732
318.023
318.763
319.089
253.76
250.92
251.118
255.861
261.954
265.298
267.457
268.645
269.233
269.473
197.919
193.045
193.867
204.019
211.103
215.815
218.038
218.987
219.26
219.346
140.428
132.785
143.527
158.563
164.201
166.861
168.375
168.749
168.649
168.526
100.272
71.9393
110.225
113.626
116.994
117.225
117.455
116.945
116.018
115.93
66.3404
57.4648
64.8054
67.5858
66.1418
65.219
64.0405
62.2796
60.2253
59.6673
37.6882
38.7185
27.7209
18.6847
15.4227
16.5044
16.1853
15.3765
14.322
12.2574
10.6725
13.915
3.93936
0.621406
-0.0674616
-0.0119984
0.0308028
0.0233032
0.0160013
0.0323422
-1.7069
2.6728
0.155252
-0.608621
-0.313867
-0.135354
-0.111646
-0.106037
-0.0986788
-0.0897924
-1.09886
0.556655
-0.332842
-0.643947
-0.424802
-0.262906
-0.232089
-0.221558
-0.210928
-0.207767
-0.455479
0.454556
-0.363091
-0.811576
-0.614353
-0.443109
-0.360663
-0.32589
-0.307303
-0.298338
-0.42532
0.0984197
-0.292778
-0.638049
-0.572019
-0.479134
-0.428144
-0.40292
-0.391466
-0.380768
-0.564879
-0.594435
-0.853142
-0.689884
-0.597603
-0.521511
-0.485959
-0.472692
-0.467331
-0.457689
-0.507087
0.753342
-0.733231
-0.711326
-0.639729
-0.571892
-0.548128
-0.538767
-0.535955
-0.526609
-0.482425
0.581045
-0.534637
-0.682486
-0.660927
-0.618954
-0.604473
-0.596688
-0.595785
-0.583846
-0.526354
-0.642851
-0.675156
-0.722292
-0.687577
-0.662913
-0.654407
-0.647056
-0.644399
-0.633855
-0.387167
-0.675504
-0.742627
-0.781886
-0.728188
-0.708234
-0.700667
-0.693784
-0.689489
-0.684145
-0.444323
-0.75283
-0.767258
-0.801013
-0.762611
-0.753243
-0.746933
-0.741257
-0.737895
-0.735673
-0.812258
-0.806111
-0.797337
-0.824624
-0.797019
-0.792026
-0.790903
-0.78881
-0.787731
-0.786922
357.976
355.871
355.836
358.636
361.38
363.665
365.431
366.699
367.476
367.815
308.305
303.615
303.179
307.617
311.898
314.427
316.175
317.425
318.147
318.461
256.568
247.255
245.99
253.601
261.924
265.012
266.873
267.95
268.472
268.691
207.19
189.653
188.601
200.408
210.696
215.488
217.416
218.172
218.268
218.306
166.669
135.025
137.627
167.345
167.019
165.624
167.556
167.639
167.296
167.12
125.179
71.4015
108.398
122.817
121.905
116.976
116.404
115.274
113.957
113.795
76.9127
64.2109
69.0717
76.4045
68.6116
64.1379
62.118
59.4073
56.9446
56.2421
39.9681
49.0451
36.1052
23.3212
12.9987
15.0977
15.2609
13.7949
12.8839
11.0484
15.8565
25.2889
16.6704
0.687568
0.186286
0.0514021
0.0568651
0.0448131
0.0391274
0.0418284
4.32916
8.98044
6.17436
0.675405
-0.0808851
-0.0449306
-0.0522606
-0.0720154
-0.083243
-0.0775992
-0.16863
0.303955
0.693334
-0.414455
-0.500951
-0.284999
-0.208455
-0.20638
-0.201829
-0.198002
-0.302086
-0.619047
-0.581162
-0.900498
-0.702088
-0.480227
-0.375014
-0.330269
-0.308717
-0.298096
-0.326202
-0.427429
-0.515488
-0.709471
-0.576834
-0.493828
-0.441925
-0.410859
-0.396891
-0.385079
-0.418931
-0.395576
-0.932526
-0.754327
-0.625039
-0.546691
-0.505676
-0.482589
-0.473189
-0.462585
0.291779
1.3123
-0.946354
-0.762221
-0.664478
-0.59895
-0.564965
-0.547353
-0.540759
-0.530691
1.64448
0.546436
-0.779299
-0.736963
-0.676214
-0.636029
-0.615605
-0.603972
-0.600039
-0.587673
0.792872
-0.712797
-0.51204
-0.755311
-0.703863
-0.675886
-0.661366
-0.653015
-0.648267
-0.637408
-0.620666
-0.711081
-0.602252
-0.780568
-0.742249
-0.718832
-0.706101
-0.697612
-0.692071
-0.686278
-0.741251
-0.767399
-0.8004
-0.794911
-0.774797
-0.755716
-0.748328
-0.742426
-0.738544
-0.736069
-0.80331
-0.790597
-0.792443
-0.799998
-0.792991
-0.785291
-0.78715
-0.786698
-0.786066
-0.785517
357.862
355.627
355.661
358.475
361.393
363.707
365.488
366.761
367.537
367.875
308.583
303.247
302.435
307.283
311.8
314.434
316.246
317.494
318.212
318.522
257.15
245.731
244.135
252.923
262.534
265.333
266.998
268.032
268.543
268.756
208.809
185.962
189.554
199.888
210.944
216.505
217.59
218.299
218.352
218.375
168.965
127.969
140.292
173.155
166.518
166.132
167.782
167.798
167.376
167.192
112.862
89.8477
109.986
121.735
121.873
117.329
116.564
115.377
113.996
113.836
74.6171
76.8535
75.4506
78.9225
68.9915
64.2838
62.0688
59.4797
57.0355
56.2481
40.4365
65.3722
46.0584
28.4777
13.4954
14.9457
15.1446
13.7683
13.0077
11.1237
15.1284
37.0687
32.4175
4.35132
0.668343
0.112057
0.0703893
0.0536875
0.0454849
0.0566708
4.23809
11.6715
10.4785
2.22976
0.0794647
-0.0157724
-0.0226429
-0.0505689
-0.0722981
-0.0713592
1.5495
3.13247
3.50208
0.243378
-0.428119
-0.340675
-0.231024
-0.205593
-0.200642
-0.196734
1.09733
2.90521
1.24698
-0.408294
-0.568064
-0.473218
-0.38956
-0.343866
-0.314497
-0.30181
0.799678
2.56857
1.56508
-0.31813
-0.530639
-0.498279
-0.449747
-0.417278
-0.403717
-0.390919
0.570002
1.77685
0.937155
-0.506102
-0.629232
-0.574223
-0.521108
-0.493132
-0.483311
-0.470705
0.630931
1.20393
0.293295
-0.63862
-0.671829
-0.618022
-0.577611
-0.556131
-0.549653
-0.537811
1.00166
1.38255
-0.189558
-0.645026
-0.651987
-0.637829
-0.621641
-0.60871
-0.605672
-0.591795
1.31485
1.66201
-0.0076102
-0.538746
-0.649532
-0.661468
-0.660487
-0.654367
-0.650503
-0.639969
0.467773
0.205473
-0.645133
-0.535256
-0.726725
-0.705601
-0.702454
-0.697525
-0.69324
-0.688021
-0.806453
-0.835637
-0.886676
-0.853061
-0.800604
-0.75291
-0.745682
-0.741785
-0.738761
-0.736589
-0.834994
-0.832918
-0.838692
-0.825777
-0.805722
-0.782506
-0.783972
-0.784835
-0.784825
-0.784656
356.07
356.049
356.923
359.254
361.978
364.338
366.153
367.43
368.212
368.555
304.25
304.219
305.472
308.661
312.225
314.935
316.923
318.221
318.954
319.273
247.304
247.239
249.928
255.223
261.552
265.377
267.632
268.857
269.43
269.66
184.76
184.854
195.901
204.169
211.776
216.252
218.362
219.248
219.469
219.536
127.804
125.707
159.188
164.791
165.404
167.747
168.852
169.039
168.851
168.707
87.7785
91.8038
106.322
119.573
118.636
118.002
117.825
117.14
116.121
116.029
61.5801
68.7217
71.5298
72.4261
67.0849
65.5197
64.1863
62.4037
60.3436
59.6421
52.4773
53.8279
36.2052
20.0375
13.9626
15.8806
15.8545
15.2176
14.4472
12.343
29.697
24.3578
14.3843
6.14762
0.710083
0.0782744
0.0540381
0.0378639
0.039975
0.0568783
3.59491
3.73587
4.27108
1.4005
-0.110027
-0.092734
-0.0389204
-0.0600254
-0.0740672
-0.0742451
-0.684955
0.442433
-0.101888
-0.39134
-0.521399
-0.378408
-0.264373
-0.22762
-0.213118
-0.208415
-0.737852
-0.48843
-0.84211
-0.754329
-0.626895
-0.507163
-0.415088
-0.362785
-0.3304
-0.31565
-0.591103
-0.842702
-0.758077
-0.774334
-0.604047
-0.527115
-0.465494
-0.431941
-0.417316
-0.403374
0.712061
-0.878804
-0.736938
-0.756619
-0.653032
-0.58373
-0.53134
-0.504771
-0.496159
-0.482374
2.55907
-0.853112
-0.778045
-0.727076
-0.675631
-0.622192
-0.585175
-0.564792
-0.558181
-0.544092
1.60948
-0.838441
-0.794391
-0.730413
-0.686783
-0.652564
-0.628607
-0.614808
-0.610936
-0.594208
-0.0340856
-0.736928
-0.782055
-0.747156
-0.708357
-0.685519
-0.668957
-0.658737
-0.652806
-0.642268
-0.773873
-0.557548
-0.792823
-0.774106
-0.752011
-0.726696
-0.711338
-0.70232
-0.696065
-0.690955
-0.854068
-0.383075
-0.830354
-0.809217
-0.794907
-0.764688
-0.752584
-0.746296
-0.742088
-0.739358
-0.8324
-0.825356
-0.825657
-0.805526
-0.808464
-0.78927
-0.788512
-0.788115
-0.787546
-0.786854
356.441
357.379
359.03
361.29
363.68
365.774
367.444
368.667
369.441
369.792
304.55
306.397
308.634
311.495
314.375
316.66
318.38
319.591
320.318
320.645
247.545
251.386
256.331
260.989
265.154
267.803
269.399
270.487
271.077
271.326
187.473
196.542
204.506
211.084
216.081
218.872
220.36
221.227
221.567
221.682
133.975
155.533
160.537
164.746
168.264
170.133
171.157
171.573
171.618
171.532
106.335
102.289
112.123
117.695
119.618
120.32
120.728
120.692
120.118
119.994
71.3971
64.4585
65.615
67.4129
68.6211
68.9363
68.4393
68.0012
66.5013
65.6639
40.2243
36.55
20.3778
21.9537
20.9527
21.1621
20.1419
19.7321
18.5796
17.3034
9.72484
8.3591
7.85992
5.2665
0.661209
0.027529
0.281832
0.31572
0.299672
0.563476
0.52814
0.471135
0.942639
-0.136896
-0.535344
-0.20813
-0.0744801
-0.0610227
-0.079521
-0.11364
0.230611
-0.0990795
-0.449785
-0.609738
-0.577378
-0.403099
-0.302183
-0.257939
-0.242762
-0.246536
-0.358605
-0.606638
-0.800034
-0.757219
-0.680852
-0.537185
-0.435832
-0.377403
-0.348463
-0.338175
-0.787681
-0.877681
-0.819757
-0.755844
-0.648219
-0.54605
-0.477501
-0.446331
-0.432615
-0.418067
-0.255109
-0.815667
-0.75231
-0.717987
-0.640518
-0.579577
-0.535878
-0.51255
-0.508063
-0.492251
-0.103567
-0.76023
-0.722156
-0.686666
-0.646259
-0.611231
-0.58429
-0.567673
-0.561458
-0.54539
-0.400216
-0.843915
-0.746547
-0.695168
-0.668259
-0.645952
-0.628364
-0.616952
-0.610894
-0.593982
-0.714166
-0.865231
-0.758134
-0.721985
-0.699061
-0.683487
-0.670884
-0.661043
-0.653564
-0.644238
-0.784042
-0.80522
-0.770733
-0.751934
-0.736513
-0.723285
-0.713822
-0.705835
-0.698867
-0.694121
-0.79049
-0.788819
-0.79083
-0.781555
-0.771863
-0.7603
-0.754621
-0.749928
-0.745834
-0.742882
-0.797133
-0.792819
-0.803181
-0.798016
-0.796624
-0.791231
-0.791712
-0.791856
-0.791233
-0.790196
358.908
359.807
361.467
363.491
365.602
367.519
369.1
370.3
371.085
371.449
308.356
309.594
311.751
314.16
316.526
318.549
320.185
321.381
322.136
322.484
254.81
257.523
261.458
264.744
267.665
269.859
271.47
272.599
273.27
273.561
202.594
205.752
211.958
216.037
219.157
221.315
222.87
223.868
224.382
224.579
165.129
162.734
164.633
168.733
171.307
173.18
174.349
175.061
175.366
175.386
117.902
116.536
117.12
120.234
122.495
124.03
125.137
125.65
125.545
125.401
74.8485
69.6196
66.0624
69.5957
72.9808
74.3522
74.8709
75.1808
74.2239
73.6926
25.326
20.1382
19.8976
24.768
27.7755
28.7572
27.9805
27.7932
26.3637
25.7777
-0.319964
2.56274
3.92526
1.36915
2.181
2.9817
2.80972
2.70338
2.43063
2.94796
-1.23031
-1.1466
-1.13756
-0.94634
-0.299397
-0.109526
-0.0925979
-0.112209
-0.154371
-0.191094
-0.175063
-0.495435
-0.59013
-0.567635
-0.458097
-0.363547
-0.306062
-0.281906
-0.289332
-0.296703
-0.425209
-0.648363
-0.716967
-0.70254
-0.610576
-0.494197
-0.416845
-0.379033
-0.36619
-0.36186
-0.70426
-0.817257
-0.755756
-0.691869
-0.597646
-0.517165
-0.468238
-0.44966
-0.446048
-0.432847
-0.688222
-0.742256
-0.683065
-0.645837
-0.592138
-0.54591
-0.521262
-0.513134
-0.516722
-0.49808
-0.590095
-0.649879
-0.644614
-0.634236
-0.611331
-0.588617
-0.572356
-0.561492
-0.556811
-0.543425
-0.631989
-0.676618
-0.674158
-0.660762
-0.64383
-0.63157
-0.621672
-0.613614
-0.604538
-0.592681
-0.737442
-0.730183
-0.7136
-0.697985
-0.68406
-0.67612
-0.669507
-0.661656
-0.653435
-0.646117
-0.782929
-0.757118
-0.745895
-0.734883
-0.725155
-0.719793
-0.716557
-0.709435
-0.702031
-0.697334
-0.806442
-0.781746
-0.775811
-0.769264
-0.763686
-0.760267
-0.759749
-0.755485
-0.750401
-0.746855
-0.828053
-0.806992
-0.802828
-0.798182
-0.796764
-0.795548
-0.798355
-0.798124
-0.796535
-0.794669
361.721
362.484
363.922
365.701
367.601
369.388
370.937
372.151
372.968
373.356
312.102
312.878
314.64
316.624
318.677
320.565
322.174
323.407
324.217
324.6
261.972
262.768
265.321
267.726
270.061
272.077
273.743
274.985
275.773
276.128
212.428
212.947
216.747
219.293
221.774
223.81
225.619
226.863
227.596
227.904
167.821
165.87
168.758
171.433
174.111
176.508
177.912
179.027
179.675
179.851
121.419
118.614
119.539
122.495
125.542
128.035
130.067
131.231
131.721
131.719
70.7483
67.5884
68.0063
72.8317
77.3469
80.223
82.1677
83.2879
83.1838
83.1808
15.6637
15.7855
20.0401
27.5339
33.5178
36.7236
37.4897
37.6318
36.3801
36.4848
-0.292872
-0.469253
-1.53781
1.32179
6.53482
7.92642
7.87209
7.7305
6.57642
7.13185
-0.437277
-0.649275
-1.13008
-0.27697
-0.14607
-0.180718
-0.21002
-0.240234
-0.29715
-0.230441
-0.380867
-0.359749
-0.366443
-0.326043
-0.333885
-0.349205
-0.341972
-0.332457
-0.329405
-0.344916
-0.461199
-0.521296
-0.555108
-0.517204
-0.472997
-0.430499
-0.399449
-0.390031
-0.392117
-0.392063
-0.593469
-0.63912
-0.611033
-0.55352
-0.504096
-0.469206
-0.454602
-0.459804
-0.465877
-0.454149
-0.601262
-0.621386
-0.574465
-0.548512
-0.52475
-0.508762
-0.507127
-0.522737
-0.524988
-0.504579
-0.591237
-0.601212
-0.580321
-0.574766
-0.569087
-0.565359
-0.559579
-0.556221
-0.551972
-0.541875
-0.63422
-0.640219
-0.628842
-0.627068
-0.62555
-0.621561
-0.616749
-0.611352
-0.600163
-0.592024
-0.69718
-0.694766
-0.684818
-0.680152
-0.679131
-0.6761
-0.671843
-0.665523
-0.654159
-0.648313
-0.741037
-0.734723
-0.729758
-0.72676
-0.727417
-0.728228
-0.726762
-0.718719
-0.706418
-0.700596
-0.768872
-0.769109
-0.767963
-0.767231
-0.768778
-0.773407
-0.773767
-0.767431
-0.757128
-0.751615
-0.799567
-0.802094
-0.802552
-0.802309
-0.803
-0.806188
-0.81054
-0.808967
-0.804498
-0.800373
364.103
364.774
366.042
367.672
369.454
371.205
372.772
374.034
374.902
375.325
314.731
315.446
316.907
318.693
320.629
322.498
324.149
325.463
326.352
326.783
265.2
265.991
267.863
269.951
272.134
274.2
275.996
277.403
278.336
278.772
216.278
216.837
219.044
221.42
223.889
226.303
228.337
229.892
230.889
231.328
167.293
168.184
170.428
173.303
176.496
179.065
181.296
183.009
184.092
184.485
118.363
118.359
120.521
124.112
128.079
131.837
134.726
136.777
138.003
138.268
65.1258
65.6595
68.9582
74.2903
80.1759
85.1966
88.8624
91.2213
92.2883
92.7417
14.9776
17.0475
21.8736
29.1461
36.8421
42.5104
46.364
47.9931
48.0651
48.7675
-0.260624
-0.464532
-0.733833
3.19357
7.9506
12.5058
15.7199
16.052
14.7354
16.384
-0.372384
-0.265064
-0.280569
-0.105968
-0.199572
-0.234913
-0.135726
-0.0344359
0.116173
0.885057
-0.379912
-0.277055
-0.251254
-0.269261
-0.336496
-0.359833
-0.345531
-0.313097
-0.273462
-0.369124
-0.417137
-0.424801
-0.434343
-0.40884
-0.418977
-0.414709
-0.407968
-0.401857
-0.403825
-0.426595
-0.504298
-0.504868
-0.478199
-0.447232
-0.445933
-0.447702
-0.458335
-0.472755
-0.480065
-0.488116
-0.543679
-0.525623
-0.488088
-0.476436
-0.483276
-0.493105
-0.510179
-0.528525
-0.522482
-0.510704
-0.574356
-0.56235
-0.537391
-0.539078
-0.545035
-0.547963
-0.554832
-0.55842
-0.546497
-0.539341
-0.621676
-0.619543
-0.605173
-0.608922
-0.610306
-0.606844
-0.612658
-0.611252
-0.597806
-0.591999
-0.674724
-0.674823
-0.666724
-0.669766
-0.669955
-0.670753
-0.676453
-0.671353
-0.656446
-0.648319
-0.722516
-0.721427
-0.719206
-0.722123
-0.724863
-0.732412
-0.739345
-0.730955
-0.712221
-0.703397
-0.766047
-0.763757
-0.763365
-0.767356
-0.772331
-0.782095
-0.796352
-0.785434
-0.765137
-0.756684
-0.804614
-0.803457
-0.80356
-0.804986
-0.80764
-0.813054
-0.831403
-0.82643
-0.814823
-0.806959
365.933
366.554
367.728
369.287
371.045
372.818
374.442
375.774
376.708
377.169
316.658
317.335
318.651
320.363
322.277
324.193
325.936
327.358
328.341
328.824
267.216
268.028
269.619
271.622
273.837
276.036
278.018
279.624
280.718
281.239
218.046
218.68
220.586
223.012
225.706
228.373
230.757
232.67
233.947
234.524
168.354
169.189
171.387
174.482
177.978