/*--------------------------------*- C++ -*----------------------------------*\
| =========                 |                                                 |
| \\      /  F ield         | OpenFOAM: The Open Source CFD Toolbox           |
|  \\    /   O peration     | Version:  2312                                  |
|   \\  /    A nd           | Website:  www.openfoam.com                      |
|    \\/     M anipulation  |                                                 |
\*---------------------------------------------------------------------------*/
FoamFile
{
    version     2.0;
    format      ascii;
    arch        "LSB;label=32;scalar=64";
    class       surfaceScalarField;
    location    "0.465";
    object      alphaPhi0.water;
}
// * * * * * * * * * * * * * * * * * * * * * * * * * * * * * * * * * * * * * //

dimensions      [0 3 -1 0 0 0 0];

oriented        oriented;

internalField   nonuniform List<scalar> 
22600
(
-1.18022e-07
2.36085e-07
-1.18062e-07
-2.11575e-07
2.02596e-07
-1.09043e-07
-2.96452e-07
1.99367e-07
-1.14491e-07
-3.59857e-07
1.83605e-07
-1.202e-07
-3.92197e-07
1.59418e-07
-1.27079e-07
-3.88072e-07
1.33532e-07
-1.37657e-07
-3.44281e-07
1.08056e-07
-1.51848e-07
-2.60579e-07
8.56781e-08
-1.6938e-07
-1.45028e-07
6.94338e-08
-1.84985e-07
6.03118e-08
-1.99079e-07
-1.65527e-07
5.67589e-07
-1.65978e-07
-3.04635e-07
4.91758e-07
-1.50053e-07
-4.14944e-07
4.65592e-07
-1.55915e-07
-4.88734e-07
4.17507e-07
-1.60112e-07
-5.1761e-07
3.54358e-07
-1.66063e-07
-4.98105e-07
2.90843e-07
-1.76816e-07
-4.30403e-07
2.31768e-07
-1.91414e-07
-3.18366e-07
1.82952e-07
-2.09312e-07
-1.73137e-07
1.47948e-07
-2.23743e-07
1.27823e-07
-2.365e-07
-1.75618e-07
9.1862e-07
-1.75412e-07
-3.21602e-07
7.97103e-07
-1.59361e-07
-4.38232e-07
7.43821e-07
-1.61599e-07
-5.22092e-07
6.6318e-07
-1.61813e-07
-5.57198e-07
5.53421e-07
-1.63958e-07
-5.39134e-07
4.44132e-07
-1.71353e-07
-4.6902e-07
3.44988e-07
-1.83333e-07
-3.49745e-07
2.64293e-07
-2.00616e-07
-1.91472e-07
2.07354e-07
-2.17679e-07
1.73413e-07
-2.31842e-07
-2.07024e-07
1.33057e-06
-2.04924e-07
-4.02762e-07
1.17565e-06
-1.8281e-07
-5.35506e-07
1.06915e-06
-1.92582e-07
-6.25064e-07
9.33129e-07
-1.80392e-07
-6.62227e-07
7.60517e-07
-1.69933e-07
-6.38402e-07
5.84482e-07
-1.64174e-07
-5.51018e-07
4.21768e-07
-1.64164e-07
-4.06691e-07
2.92124e-07
-1.72158e-07
-2.21077e-07
2.01771e-07
-1.8003e-07
1.46615e-07
-1.87772e-07
-1.11115e-07
1.54701e-06
-1.05324e-07
-3.7527e-07
1.49505e-06
-5.52449e-08
-5.9467e-07
1.44284e-06
-1.54291e-07
-7.37114e-07
1.24216e-06
-1.66582e-07
-7.9533e-07
9.54455e-07
-1.35723e-07
-7.69737e-07
6.68513e-07
-1.09625e-07
-6.66067e-07
4.03312e-07
-8.5214e-08
-4.93944e-07
1.80692e-07
-6.06901e-08
-2.68355e-07
1.64186e-08
-4.0237e-08
-7.8358e-08
-3.48528e-08
-3.60794e-09
1.59055e-06
-3.99337e-08
-4.36897e-07
1.79276e-06
1.35576e-07
-8.88803e-07
1.85187e-06
4.28703e-08
-1.16553e-06
1.52532e-06
-6.43905e-09
-1.28587e-06
1.02165e-06
5.31448e-08
-1.27723e-06
4.89003e-07
1.70872e-07
-1.12234e-06
-2.17008e-08
2.70124e-07
-8.31525e-07
-4.2617e-07
3.16049e-07
-4.54013e-07
-6.86146e-07
3.25053e-07
-8.10709e-07
3.28271e-07
-2.2319e-08
1.68217e-06
-6.93031e-08
-5.99617e-07
2.22244e-06
1.47622e-07
-1.28814e-06
2.3023e-06
2.38095e-07
-1.78089e-06
1.72777e-06
2.90303e-07
-2.01855e-06
8.63711e-07
3.95593e-07
-1.94062e-06
-7.64465e-08
4.87433e-07
-1.6154e-06
-8.33125e-07
4.86207e-07
-1.14451e-06
-1.31032e-06
4.13263e-07
-5.99987e-07
-1.58235e-06
3.51701e-07
-1.70893e-06
3.4079e-07
-5.03929e-07
2.65692e-06
-4.70817e-07
-1.42995e-06
3.42228e-06
-2.73826e-07
-2.29267e-06
3.20565e-06
-4.06273e-08
-2.68385e-06
2.07463e-06
4.43293e-08
-2.66665e-06
6.90838e-07
4.98917e-08
-2.41295e-06
-3.48966e-07
-1.7813e-08
-1.93603e-06
-1.2475e-06
-9.72149e-08
-1.31087e-06
-1.80869e-06
-1.25716e-07
-6.36523e-07
-2.14667e-06
-1.10352e-07
-2.30759e-06
-7.07888e-08
-1.26585e-06
5.06966e-06
-1.14689e-06
-2.7979e-06
5.72026e-06
-7.65927e-07
-3.74032e-06
4.06849e-06
-6.63898e-07
-3.54282e-06
1.47432e-06
-6.21073e-07
-3.00884e-06
3.47338e-07
-5.23416e-07
-2.3084e-06
-1.26417e-07
-3.58825e-07
-1.69468e-06
-3.87451e-07
-2.37454e-07
-1.11945e-06
-5.60255e-07
-1.34322e-07
-5.42711e-07
-6.81375e-07
-8.1489e-08
-7.30578e-07
-7.86129e-08
-1.50881e-06
7.94738e-06
-1.36954e-06
-2.38238e-06
5.97599e-06
-8.22358e-07
-1.45024e-06
7.24535e-07
-4.07311e-07
-5.8585e-07
4.43822e-08
-1.39918e-07
-1.68e-07
6.85712e-09
-1.56605e-08
-2.13924e-08
-8.00455e-11
5.80465e-09
-1.22282e-08
-8.33106e-12
1.24743e-09
-1.17682e-08
-1.32519e-11
1.36818e-09
-7.83553e-09
-2.66076e-11
3.4942e-09
-3.88933e-11
6.36755e-09
-8.3288e-07
7.91097e-06
-6.42128e-07
-7.27692e-08
1.42551e-06
-2.88051e-07
-4.65092e-08
5.11008e-09
8.74438e-09
-7.4584e-09
7.45526e-09
-2.54006e-09
-8.18677e-12
5.09811e-10
-1.08138e-09
-2.39443e-12
-5.56181e-14
-7.99404e-11
-1.40737e-12
-7.99474e-12
-2.39585e-12
-7.51976e-13
-1.42575e-11
-1.73059e-12
-9.99526e-14
-2.81988e-11
-1.70436e-12
-3.7744e-11
-2.46301e-12
3.53476e-07
8.63213e-07
4.84115e-07
-1.61097e-11
-1.77024e-08
-2.68963e-08
-7.09509e-09
8.81856e-09
1.82414e-09
-6.11128e-10
1.67917e-09
-6.76087e-10
-4.26549e-11
7.62568e-11
-1.16613e-10
-2.42294e-11
1.13759e-11
-1.21527e-11
-1.43052e-11
5.36083e-11
-3.30732e-11
-9.5786e-12
3.79886e-11
-3.12108e-12
-1.40292e-12
2.98498e-11
-1.70035e-11
1.904e-11
-4.90138e-11
-3.80761e-09
6.88021e-09
-7.14609e-09
-9.09188e-09
-5.2512e-09
-1.0602e-08
-1.44085e-09
1.80977e-09
-6.67048e-10
-9.58809e-11
4.09266e-10
-7.06818e-11
-3.30524e-11
2.10155e-11
-8.99242e-13
-3.17779e-11
1.18652e-11
-2.53201e-12
-3.0633e-11
4.62395e-11
-4.2242e-11
-2.25731e-11
4.47892e-11
-5.96448e-11
1.18108e-11
2.55949e-11
-3.2625e-11
3.71374e-11
-1.14267e-10
2.73813e-09
8.01296e-10
1.69376e-09
-3.14443e-10
1.79607e-09
-1.99871e-09
-2.28022e-10
6.17178e-09
-2.91847e-10
-1.34021e-11
4.45889e-10
2.23078e-12
-1.22666e-11
6.01626e-12
1.0678e-11
-1.29645e-11
-2.4427e-12
1.08398e-11
-2.68496e-11
9.78091e-12
1.63056e-11
-4.87016e-12
1.32015e-11
-2.33501e-11
2.91765e-12
8.99117e-12
-7.88735e-13
8.77431e-12
-1.39964e-11
1.00474e-09
-3.27314e-10
1.15406e-09
1.39023e-09
1.13699e-09
1.96306e-10
9.94063e-10
5.79062e-09
-3.72056e-10
2.82061e-11
2.49457e-09
3.24686e-10
2.19646e-12
3.42807e-12
2.68914e-11
-4.01094e-12
-1.52806e-11
1.46155e-11
-4.67031e-12
-3.4944e-12
1.06108e-11
-1.87603e-12
3.45852e-12
4.73474e-12
6.71512e-13
6.93811e-12
-9.43143e-13
7.59443e-12
-9.46842e-13
2.74938e-10
-1.34769e-10
6.78514e-10
6.03334e-10
1.97517e-10
4.05598e-10
1.91153e-09
6.94658e-10
9.04277e-10
1.13262e-10
9.97828e-10
7.4154e-10
-1.04108e-11
4.22466e-12
7.24137e-11
2.12344e-12
-4.28148e-11
5.92256e-11
-3.64723e-12
-1.42464e-11
3.08348e-11
-1.16225e-12
1.54444e-12
4.0964e-12
3.5411e-13
2.57687e-12
2.39146e-12
3.89388e-12
2.99384e-12
-4.97986e-11
-3.21623e-10
3.73454e-10
8.20928e-12
6.02584e-11
8.56573e-11
2.28305e-10
-1.04659e-10
2.86759e-10
2.08917e-10
-1.70779e-11
2.35242e-10
6.65932e-11
3.00257e-11
2.18248e-11
2.47987e-11
-5.76729e-12
1.22254e-11
1.20365e-12
-7.89487e-12
1.28205e-11
-4.73037e-14
-9.25089e-13
4.91009e-12
1.06561e-13
2.98328e-13
3.63206e-12
2.53718e-12
5.16149e-12
-8.31261e-11
-7.73646e-11
8.37469e-11
-3.44385e-11
8.52496e-12
3.78257e-12
9.52458e-12
1.25807e-11
1.08864e-11
5.10597e-11
4.11689e-11
-2.51226e-11
4.72212e-11
3.64702e-11
-5.73406e-11
1.03291e-11
2.37932e-12
-1.78756e-12
7.11613e-13
-2.75103e-14
1.56e-12
-8.44612e-15
-6.01832e-15
6.54695e-13
6.69622e-15
-2.49443e-18
2.36189e-13
2.01851e-16
4.86749e-13
-4.83398e-11
3.66305e-10
1.29281e-11
-4.47517e-11
5.72371e-12
-1.91404e-12
-1.86085e-11
7.1354e-11
-4.7094e-11
8.06277e-13
2.41833e-11
-4.66821e-11
1.01566e-12
1.55082e-13
-3.46662e-13
3.37674e-14
2.93936e-15
1.04094e-13
6.03117e-15
-2.99129e-17
1.65362e-15
3.9285e-18
-7.16258e-19
1.15746e-17
2.04799e-19
-1.76824e-22
1.22942e-18
-7.14427e-21
2.00747e-16
-1.16284e-12
4.94696e-11
5.38355e-10
-5.02977e-12
-9.81381e-13
7.74836e-12
-1.53113e-12
-1.64916e-11
7.91452e-11
-7.15564e-14
4.96422e-13
4.15474e-12
-2.47702e-15
9.18818e-14
3.72916e-15
2.06029e-17
1.78282e-15
-1.35399e-19
7.18878e-19
4.76024e-18
-2.69417e-19
-2.29004e-23
1.00954e-20
-7.47024e-21
-2.09759e-22
4.11143e-22
-4.18114e-22
3.88429e-22
-5.76238e-21
-1.09011e-07
2.02474e-07
-2.11525e-07
-1.83227e-07
1.48079e-07
-1.82906e-07
-2.50568e-07
1.46937e-07
-1.94087e-07
-3.01304e-07
1.30492e-07
-1.99956e-07
-3.23031e-07
9.98526e-08
-2.05204e-07
-3.11051e-07
6.40072e-08
-2.13644e-07
-2.67014e-07
2.76609e-08
-2.23546e-07
-1.96647e-07
-4.44432e-09
-2.35302e-07
-1.08208e-07
-3.05394e-08
-2.42885e-07
-5.00751e-08
-2.52701e-07
-1.49759e-07
4.91384e-07
-3.05129e-07
-2.62731e-07
3.73893e-07
-2.62896e-07
-3.53112e-07
3.54853e-07
-2.73449e-07
-4.15939e-07
3.08886e-07
-2.75678e-07
-4.39344e-07
2.34555e-07
-2.7736e-07
-4.21364e-07
1.53478e-07
-2.84268e-07
-3.63062e-07
7.2576e-08
-2.94631e-07
-2.67213e-07
-3.23883e-09
-3.06366e-07
-1.46888e-07
-6.07233e-08
-3.13884e-07
-1.10014e-07
-3.20352e-07
-1.61216e-07
7.98633e-07
-3.21446e-07
-2.77601e-07
6.04919e-07
-2.74001e-07
-3.69958e-07
5.70504e-07
-2.84894e-07
-4.40715e-07
5.02221e-07
-2.84391e-07
-4.69593e-07
3.84341e-07
-2.84866e-07
-4.51552e-07
2.55413e-07
-2.9133e-07
-3.90798e-07
1.32564e-07
-3.04074e-07
-2.95429e-07
2.29344e-08
-3.22159e-07
-1.65296e-07
-7.54946e-08
-3.33041e-07
-1.61663e-07
-3.42363e-07
-1.86955e-07
1.18061e-06
-3.99947e-07
-3.46717e-07
9.21616e-07
-3.39746e-07
-4.54404e-07
8.31891e-07
-3.46283e-07
-5.29625e-07
7.19236e-07
-3.22186e-07
-5.60767e-07
5.41816e-07
-2.96265e-07
-5.41369e-07
3.55769e-07
-2.83927e-07
-4.69656e-07
1.80957e-07
-2.84271e-07
-3.48746e-07
2.39481e-08
-2.94081e-07
-1.90703e-07
-1.06497e-07
-3.0707e-07
-2.04454e-07
-3.30993e-07
-4.87034e-08
1.49938e-06
-3.75386e-07
-1.80602e-07
1.21035e-06
-2.1208e-07
-3.75817e-07
1.17809e-06
-3.05276e-07
-5.48426e-07
1.0614e-06
-3.36135e-07
-6.28872e-07
7.99624e-07
-3.13085e-07
-6.18356e-07
5.29016e-07
-2.93388e-07
-5.38543e-07
2.97486e-07
-2.81557e-07
-4.06463e-07
1.01747e-07
-2.70569e-07
-2.28453e-07
-5.94967e-08
-2.65247e-07
-1.53691e-07
-2.98672e-07
2.0644e-07
1.77162e-06
-5.18618e-07
1.93263e-08
1.62548e-06
-9.24431e-08
-3.52009e-07
1.69321e-06
-1.00909e-07
-6.54728e-07
1.5244e-06
-1.66724e-07
-8.1011e-07
1.11918e-06
-1.11026e-07
-8.32778e-07
7.25136e-07
-2.5792e-09
-7.56822e-07
4.28676e-07
6.29785e-08
-5.94062e-07
1.92274e-07
6.27615e-08
-3.47107e-07
-1.54581e-09
2.01478e-08
-7.96915e-08
-3.84371e-08
1.86516e-07
2.19055e-06
-6.74749e-07
-1.86966e-07
2.4204e-06
-2.73813e-07
-6.76125e-07
2.50237e-06
-8.19079e-08
-9.97273e-07
2.14695e-06
-1.10957e-08
-1.15543e-06
1.58186e-06
9.10737e-08
-1.15128e-06
1.05531e-06
1.53115e-07
-9.89288e-07
6.4082e-07
1.12098e-07
-7.10831e-07
3.36513e-07
-9.40692e-09
-3.89388e-07
1.49072e-07
-1.20324e-07
7.80484e-08
-1.74299e-07
-2.94261e-07
3.41102e-06
-1.39703e-06
-1.01434e-06
3.90945e-06
-1.04279e-06
-1.5768e-06
3.78885e-06
-7.64654e-07
-1.85125e-06
3.12005e-06
-6.54335e-07
-1.89254e-06
2.26609e-06
-5.93045e-07
-1.74468e-06
1.49056e-06
-6.0092e-07
-1.44967e-06
8.98809e-07
-6.50203e-07
-1.04147e-06
4.95445e-07
-6.9284e-07
-5.48183e-07
2.49581e-07
-7.04107e-07
1.45671e-07
-6.89257e-07
-8.19315e-07
5.8139e-06
-2.73046e-06
-1.795e-06
5.89474e-06
-1.77553e-06
-2.47227e-06
4.02635e-06
-1.35226e-06
-2.58703e-06
1.97226e-06
-8.75978e-07
-2.25835e-06
6.91816e-07
-4.61854e-07
-1.72844e-06
1.45426e-07
-1.14125e-07
-1.25398e-06
-6.8361e-08
1.08567e-07
-8.47366e-07
-2.43482e-07
2.69865e-07
-4.30591e-07
-3.40851e-07
3.10316e-07
-3.56409e-07
2.5904e-07
-7.91324e-07
6.03174e-06
-2.40016e-06
-1.04032e-06
3.10001e-06
-1.04584e-06
-8.03309e-07
2.77849e-07
-3.03862e-07
-4.33695e-07
4.48291e-09
-1.59427e-08
-2.07294e-07
8.0846e-10
1.0811e-07
-1.28854e-07
-2.2817e-09
1.00552e-07
-7.87703e-08
-1.92365e-11
8.58046e-08
-4.96534e-08
-4.92482e-12
6.76591e-08
-2.68731e-08
-9.17195e-12
6.80516e-08
-3.61945e-11
8.3219e-08
-1.40864e-07
1.03836e-06
-6.34442e-08
3.78966e-08
-1.2771e-08
9.77512e-09
-1.50025e-08
7.60439e-09
-1.70435e-08
-5.28701e-09
1.64945e-09
-1.01093e-08
-9.51419e-11
1.69852e-10
-5.45608e-09
-1.1112e-12
-4.63949e-12
-2.40469e-09
-5.64673e-13
-1.79082e-11
-6.35141e-12
-6.50173e-13
-1.5844e-12
-6.8951e-12
-9.01728e-13
-4.13352e-12
-8.57202e-12
-3.01185e-11
-1.18655e-11
-1.61048e-09
1.52649e-09
-1.53574e-08
-1.24612e-08
3.84796e-09
-2.46798e-08
-2.48337e-09
2.70918e-09
-4.25228e-09
-4.3731e-10
6.60334e-10
-1.51248e-09
-4.28295e-11
9.16229e-11
-4.19332e-10
-1.57021e-11
9.34224e-12
-4.38146e-11
-7.33559e-13
-7.93934e-12
-4.16339e-11
-1.02592e-12
-2.05447e-12
-4.85879e-12
-3.34662e-12
-2.33326e-12
-1.83927e-11
-1.02368e-10
-4.82411e-11
6.39124e-10
6.54072e-10
-7.41547e-09
-1.75795e-09
3.44898e-11
-4.47726e-09
-5.4009e-10
1.73403e-09
-8.97987e-10
-8.65765e-11
3.39638e-10
-1.86466e-10
-2.58152e-11
5.04806e-11
-2.23606e-11
-2.96379e-11
2.61191e-11
-2.29852e-11
-1.04286e-12
-7.98175e-13
-6.1191e-11
8.36089e-12
3.07235e-13
-4.59543e-11
1.02353e-11
6.08461e-12
-8.24357e-11
-2.46255e-11
-1.72189e-10
1.94479e-09
1.0651e-09
6.39026e-12
-1.69512e-10
1.55646e-09
-9.04624e-10
-1.37714e-10
1.72982e-09
-3.1048e-10
-2.35079e-11
2.49645e-10
-2.38631e-11
-5.83927e-12
3.35353e-11
5.53489e-12
3.3916e-12
1.57912e-11
4.67519e-12
5.35545e-11
-2.63803e-11
5.99675e-12
7.95572e-11
-1.11601e-11
-1.74529e-11
7.21373e-11
1.9328e-11
-3.72904e-11
2.15274e-11
-5.21558e-11
1.13705e-09
2.44404e-10
8.85328e-10
2.71419e-10
1.43065e-09
5.42617e-11
-2.72829e-11
7.95778e-09
-4.71684e-10
-9.5186e-13
1.45344e-09
-1.03179e-11
3.67317e-12
4.67597e-11
8.53541e-12
9.39689e-11
8.78957e-11
4.03899e-11
8.00163e-11
-7.42763e-11
2.26612e-11
4.11955e-11
-7.19171e-12
3.77905e-11
4.74803e-11
8.743e-12
1.2437e-11
2.8946e-11
3.15239e-11
6.88089e-10
-1.57169e-10
5.96374e-10
4.97453e-10
3.29385e-10
8.55608e-10
1.03201e-09
6.00435e-09
3.58924e-10
-4.30595e-11
3.25518e-09
3.37438e-10
4.55389e-11
5.6378e-10
1.50547e-10
1.90008e-10
1.48673e-10
9.09351e-11
1.83404e-11
-3.20513e-11
6.28595e-11
3.23519e-12
5.10329e-13
1.40265e-11
1.24002e-11
4.63745e-12
3.07043e-11
2.41911e-12
4.2325e-11
1.31448e-10
-3.14785e-10
5.36778e-10
2.07784e-11
1.5782e-10
3.16886e-10
1.03355e-09
3.8738e-10
1.50285e-09
7.90917e-10
1.611e-09
5.91748e-10
3.09629e-10
8.48147e-10
4.34392e-10
4.92197e-11
1.07976e-10
1.0997e-10
-7.4302e-12
4.98574e-12
3.37616e-11
2.03765e-13
1.87451e-12
4.95526e-12
3.99324e-13
1.96426e-13
8.12475e-12
-4.76828e-13
3.45806e-12
-1.06732e-10
4.62666e-12
1.07357e-10
-1.4813e-12
3.17897e-11
2.35575e-11
2.3942e-10
9.10516e-11
1.53933e-10
5.93498e-10
3.30278e-10
4.00835e-10
2.1339e-10
1.72278e-10
1.48515e-10
-7.83901e-13
-1.36231e-13
4.2517e-11
-5.58502e-14
1.27001e-14
8.61958e-12
-1.00828e-13
2.23928e-13
2.31624e-12
6.02066e-15
-4.89489e-15
2.35182e-14
-2.051e-16
1.57298e-14
-1.23728e-10
5.36584e-10
4.56125e-11
-1.1071e-10
1.28254e-11
1.11455e-12
1.14937e-11
1.96007e-10
3.41347e-11
5.90598e-11
1.68281e-11
6.03779e-11
1.3715e-12
1.77028e-12
2.16071e-11
5.61618e-14
3.05533e-14
1.0774e-12
1.1768e-14
-1.09575e-16
5.79664e-14
6.13156e-15
-6.92056e-17
2.00371e-14
3.32118e-17
-2.99485e-19
1.79061e-16
-5.43126e-20
2.4517e-17
-9.4894e-11
8.37661e-11
8.52078e-10
-9.69201e-11
-4.67403e-13
1.13055e-11
-1.1102e-11
-6.78554e-12
4.64409e-11
-7.92885e-13
5.68469e-12
-6.90397e-13
-1.42174e-14
8.81523e-13
2.47623e-14
5.42657e-16
1.95193e-14
-2.68762e-15
9.00142e-17
3.6245e-16
-2.12296e-17
2.93099e-19
2.42395e-17
-1.77267e-18
3.79667e-21
3.4163e-20
-1.78695e-21
1.51625e-21
-1.02787e-20
-1.14396e-07
1.99131e-07
-2.9626e-07
-1.9441e-07
1.47166e-07
-2.50058e-07
-2.68103e-07
1.46855e-07
-2.67249e-07
-3.24163e-07
1.31802e-07
-2.75698e-07
-3.49996e-07
1.01247e-07
-2.80618e-07
-3.40059e-07
6.32643e-08
-2.86845e-07
-2.94609e-07
2.21247e-08
-2.91121e-07
-2.20534e-07
-1.80543e-08
-2.91322e-07
-1.25417e-07
-5.48351e-08
-2.83168e-07
-8.54105e-08
-2.86019e-07
-1.55466e-07
4.65136e-07
-4.15667e-07
-2.7332e-07
3.55482e-07
-3.53358e-07
-3.72351e-07
3.44492e-07
-3.72054e-07
-4.43178e-07
3.04417e-07
-3.77466e-07
-4.73122e-07
2.33748e-07
-3.79917e-07
-4.58574e-07
1.51371e-07
-3.86922e-07
-3.9987e-07
6.42665e-08
-3.95477e-07
-2.99017e-07
-2.21814e-08
-4.03092e-07
-1.63043e-07
-1.05361e-07
-3.99333e-07
-1.70306e-07
-3.96628e-07
-1.61804e-07
7.45103e-07
-4.39608e-07
-2.86392e-07
5.73967e-07
-3.67898e-07
-3.90773e-07
5.53296e-07
-3.89317e-07
-4.71056e-07
4.9394e-07
-3.93632e-07
-5.07987e-07
3.8241e-07
-3.96597e-07
-4.96476e-07
2.54388e-07
-4.05858e-07
-4.37963e-07
1.23074e-07
-4.21395e-07
-3.3165e-07
-9.02863e-09
-4.41625e-07
-1.78485e-07
-1.30825e-07
-4.60742e-07
-1.98617e-07
-4.93583e-07
-1.94469e-07
1.07258e-06
-5.32953e-07
-3.51549e-07
8.38214e-07
-4.46913e-07
-4.64623e-07
7.77513e-07
-4.57427e-07
-5.52273e-07
6.9491e-07
-4.35506e-07
-5.9866e-07
5.48075e-07
-4.15543e-07
-5.93648e-07
3.80009e-07
-4.1456e-07
-5.29538e-07
2.03307e-07
-4.28613e-07
-4.06842e-07
3.25208e-08
-4.58326e-07
-2.2738e-07
-9.88842e-08
-5.18473e-07
-1.23249e-07
-6.34087e-07
-1.53903e-07
1.45044e-06
-5.99344e-07
-2.99212e-07
1.18181e-06
-4.10362e-07
-4.6557e-07
1.11151e-06
-4.72913e-07
-6.31925e-07
1.02611e-06
-5.00981e-07
-7.14763e-07
8.00873e-07
-4.83044e-07
-7.08715e-07
5.46463e-07
-4.65889e-07
-6.34191e-07
3.12757e-07
-4.65532e-07
-5.0242e-07
1.20961e-07
-4.9078e-07
-3.01396e-07
2.11442e-08
-5.863e-07
5.7195e-08
-7.75527e-07
6.66862e-08
1.83795e-06
-9.72815e-07
-5.13109e-08
1.68301e-06
-4.75646e-07
-3.28286e-07
1.67824e-06
-3.90667e-07
-6.04877e-07
1.55008e-06
-4.14098e-07
-7.56498e-07
1.20682e-06
-3.65353e-07
-7.89333e-07
8.9056e-07
-3.13841e-07
-7.35684e-07
6.41272e-07
-3.19185e-07
-6.09953e-07
4.54048e-07
-3.96057e-07
-3.89843e-07
3.77019e-07
-5.55837e-07
4.22787e-07
-7.76683e-07
2.52554e-07
2.27069e-06
-1.36004e-06
-3.85937e-08
2.4832e-06
-7.82863e-07
-4.47313e-07
2.51581e-06
-5.1076e-07
-7.4031e-07
2.27307e-06
-4.41095e-07
-8.95839e-07
1.83625e-06
-3.8283e-07
-9.18958e-07
1.42227e-06
-3.55474e-07
-8.29171e-07
1.04454e-06
-3.80962e-07
-6.65694e-07
7.16379e-07
-4.35215e-07
-4.16954e-07
5.10586e-07
-5.02631e-07
4.47073e-07
-6.14931e-07
-6.28693e-09
3.13737e-06
-2.25742e-06
-7.1085e-07
3.78946e-06
-1.64449e-06
-1.29538e-06
3.69269e-06
-1.35699e-06
-1.64634e-06
3.23093e-06
-1.26124e-06
-1.77792e-06
2.52245e-06
-1.14766e-06
-1.71127e-06
1.77576e-06
-1.02106e-06
-1.49624e-06
1.15586e-06
-9.76545e-07
-1.12912e-06
6.80667e-07
-1.02426e-06
-6.2228e-07
4.16411e-07
-1.11681e-06
3.41223e-07
-1.21417e-06
-5.73182e-07
3.94993e-06
-3.66666e-06
-1.29208e-06
4.07342e-06
-2.4861e-06
-1.66184e-06
2.46499e-06
-1.67593e-06
-1.603e-06
9.94694e-07
-8.97098e-07
-1.26817e-06
2.50259e-07
-2.52326e-07
-8.67441e-07
2.6158e-08
6.62338e-08
-5.70215e-07
-5.19212e-08
2.29136e-07
-3.77983e-07
-2.15043e-07
3.35148e-07
-2.20878e-07
-2.74346e-07
3.36992e-07
-2.46938e-07
2.38649e-07
-3.28485e-07
6.40675e-07
-1.31626e-06
-2.23851e-07
2.34918e-07
-7.93969e-07
-1.2093e-07
-1.31729e-08
-1.77725e-07
-9.37589e-08
2.42396e-09
8.66916e-09
-5.13671e-08
7.83577e-09
1.41585e-08
-5.47524e-08
3.72017e-09
1.94827e-08
-2.76358e-08
-2.95818e-11
2.96159e-08
-1.48804e-08
-4.46948e-11
2.06245e-08
-1.58928e-08
-6.81089e-11
1.5281e-08
-1.11142e-10
1.50996e-08
1.53701e-08
2.04558e-08
-4.21686e-08
1.61508e-08
2.19185e-08
-2.71677e-08
-3.59412e-09
3.56011e-09
-1.76495e-08
-5.58381e-09
1.56576e-09
-8.24048e-09
-1.48929e-09
7.04486e-10
-2.398e-09
-1.82448e-12
7.47799e-11
-7.10399e-11
-1.37373e-12
-5.19657e-13
-3.29113e-11
-2.79705e-12
3.40815e-14
-5.27734e-11
-4.06036e-12
-1.24891e-12
-7.67136e-11
-5.07107e-12
-1.24105e-10
3.53059e-09
8.19726e-09
-6.9595e-09
-2.77601e-10
4.34376e-09
-4.39072e-09
-7.04135e-10
1.47391e-09
-2.05751e-09
-3.75078e-10
4.24516e-10
-7.75535e-10
-4.37476e-11
4.95589e-11
-9.44027e-11
-9.69529e-12
1.58751e-13
-1.1313e-12
-6.95863e-13
-1.3528e-11
-2.03922e-12
-2.50822e-12
-1.36437e-12
-4.11289e-12
-7.1327e-12
-3.2844e-12
-1.27946e-11
-5.4487e-11
-1.57229e-11
6.53504e-10
8.84352e-10
-8.84315e-10
-7.06676e-11
1.22741e-09
-7.33171e-10
-1.00086e-10
8.77962e-10
-3.45558e-10
-3.99407e-11
2.63393e-10
-1.03334e-10
-1.44415e-11
3.47336e-11
-4.0336e-11
-8.67094e-12
3.81888e-12
-2.09878e-12
6.29673e-12
-3.55124e-11
-8.8013e-12
-9.43056e-13
-2.32147e-12
-6.43093e-12
-3.47997e-11
-1.72685e-11
-5.94325e-11
-1.45391e-10
-2.3242e-11
8.03959e-10
1.41681e-09
1.30605e-11
7.16884e-11
1.69397e-09
-6.70742e-10
-2.46856e-13
7.335e-10
-1.05173e-10
-6.32539e-12
2.67884e-10
-2.96227e-11
-1.28545e-12
5.81953e-11
-2.48063e-11
4.12136e-11
1.55313e-11
-5.25142e-12
9.08964e-11
-5.23791e-11
-1.18263e-11
8.10441e-11
-1.59699e-11
-7.35279e-12
1.00128e-11
3.34225e-12
-3.31154e-11
-6.75229e-11
-2.56252e-12
6.59397e-10
1.7748e-10
2.97731e-10
2.32094e-10
4.60584e-09
2.33697e-10
1.01193e-10
4.00312e-09
-5.176e-10
6.30331e-12
7.30692e-10
-1.87457e-10
1.36084e-11
4.7811e-10
4.38909e-12
9.82238e-11
1.11962e-11
8.33053e-12
9.76376e-11
-4.38082e-11
-1.10786e-12
1.07894e-10
-8.48069e-12
2.54188e-11
2.20346e-11
1.43083e-11
4.30034e-11
-3.27301e-11
2.43413e-11
1.14963e-09
-4.23563e-10
3.63474e-10
1.29689e-09
3.25523e-09
1.69618e-09
8.04049e-10
4.30944e-09
3.6053e-10
2.86441e-10
4.17807e-09
3.57393e-10
2.58001e-10
1.75223e-09
3.3868e-10
-2.83539e-11
1.85471e-12
5.4213e-11
1.21125e-11
-1.24041e-11
-3.03915e-12
1.45998e-11
-4.43655e-13
2.70071e-11
3.57131e-12
-5.96236e-14
4.0056e-11
-3.10672e-12
1.08248e-11
1.48895e-10
-1.19068e-10
2.17729e-11
7.33146e-10
6.52587e-11
9.48543e-10
1.20773e-09
1.72223e-09
1.56941e-09
1.23529e-09
3.30668e-09
1.19551e-09
3.53315e-10
6.79823e-10
5.35677e-10
-2.53947e-11
1.73449e-11
2.83572e-11
-2.32129e-13
4.97614e-13
1.01736e-12
1.04717e-12
-1.06451e-13
3.88734e-12
7.04671e-13
-1.18381e-13
2.77899e-12
-1.81216e-14
2.5466e-13
-2.10121e-11
3.21803e-11
-7.21467e-13
8.31668e-12
2.16214e-12
3.96718e-11
3.70165e-10
1.19095e-11
5.03181e-10
5.70216e-10
2.60596e-10
6.18433e-10
1.43521e-11
-2.57254e-11
9.97398e-11
-1.25374e-12
-9.01695e-13
1.3926e-12
3.29665e-13
-3.2963e-14
1.07023e-13
1.04454e-13
-6.23441e-15
1.31309e-13
2.78545e-15
-2.81856e-16
7.09957e-15
-2.54413e-17
3.78391e-16
-1.16244e-11
1.41626e-10
-1.70359e-13
-1.69695e-11
4.09854e-12
1.57097e-12
4.25442e-12
-1.97929e-11
2.69856e-11
1.67528e-11
-3.38742e-13
2.3287e-11
1.327e-13
-5.3915e-13
2.1793e-12
-9.51961e-15
-1.23429e-14
5.72253e-14
5.43914e-16
-1.88453e-16
2.25501e-15
5.94317e-17
-3.51975e-17
7.70855e-16
1.7753e-18
-1.65108e-20
9.29504e-18
-3.38963e-20
1.75797e-18
-7.2689e-12
1.26469e-11
3.57851e-10
-6.27359e-12
-3.11263e-13
3.86359e-12
-7.32028e-13
4.65428e-14
6.09542e-12
-1.37183e-13
1.38621e-12
9.90317e-13
-4.06119e-16
1.36417e-13
1.73812e-14
-8.64709e-17
4.26194e-15
2.24698e-15
9.56813e-18
8.01696e-17
-2.48669e-18
8.14436e-20
3.91982e-19
-7.91016e-19
-5.77083e-22
6.09045e-20
-4.35915e-20
6.03595e-18
-4.30216e-20
-1.19921e-07
1.83058e-07
-3.59398e-07
-2.00189e-07
1.3054e-07
-3.0033e-07
-2.76554e-07
1.31675e-07
-3.22559e-07
-3.37601e-07
1.20765e-07
-3.35417e-07
-3.67959e-07
9.30413e-08
-3.43301e-07
-3.59531e-07
5.6855e-08
-3.52127e-07
-3.11363e-07
1.8644e-08
-3.57934e-07
-2.26981e-07
-1.76765e-08
-3.58028e-07
-1.22454e-07
-4.61408e-08
-3.41554e-07
-5.95467e-08
-3.41847e-07
-1.59384e-07
4.16504e-07
-4.8973e-07
-2.75308e-07
3.09265e-07
-4.1616e-07
-3.77784e-07
3.04514e-07
-4.42418e-07
-4.5548e-07
2.75045e-07
-4.5405e-07
-4.93083e-07
2.13905e-07
-4.63177e-07
-4.82518e-07
1.3797e-07
-4.78602e-07
-4.18439e-07
5.39229e-08
-4.94835e-07
-3.00194e-07
-3.35669e-08
-5.05446e-07
-1.47535e-07
-9.79783e-08
-5.00154e-07
-1.04116e-07
-5.06326e-07
-1.60706e-07
6.62843e-07
-5.25241e-07
-2.84324e-07
5.06656e-07
-4.41671e-07
-3.94217e-07
4.95818e-07
-4.70729e-07
-4.82924e-07
4.52175e-07
-4.82055e-07
-5.3046e-07
3.5837e-07
-4.93526e-07
-5.28136e-07
2.43799e-07
-5.1401e-07
-4.72461e-07
1.16972e-07
-5.40118e-07
-3.6478e-07
-7.65672e-09
-5.75215e-07
-2.04464e-07
-6.66926e-08
-6.52344e-07
-7.29374e-09
-8.08671e-07
-1.79635e-07
9.34662e-07
-6.25138e-07
-3.23508e-07
7.29168e-07
-5.25552e-07
-4.39903e-07
7.01264e-07
-5.46478e-07
-5.42451e-07
6.56663e-07
-5.37446e-07
-6.10453e-07
5.48789e-07
-5.3796e-07
-6.2681e-07
4.04751e-07
-5.59155e-07
-5.81806e-07
2.38344e-07
-5.94989e-07
-4.85524e-07
1.02558e-07
-6.64823e-07
-3.06391e-07
9.0121e-08
-8.54418e-07
2.12416e-07
-1.18116e-06
-1.64462e-07
1.24675e-06
-7.4697e-07
-3.40339e-07
1.06978e-06
-5.75098e-07
-5.06661e-07
1.03151e-06
-6.36832e-07
-6.55231e-07
9.53995e-07
-6.49744e-07
-7.37881e-07
7.75783e-07
-6.27388e-07
-7.60055e-07
5.83237e-07
-6.222e-07
-7.31085e-07
4.04001e-07
-6.60159e-07
-6.41585e-07
3.02948e-07
-7.8067e-07
-4.191e-07
3.66279e-07
-1.08494e-06
5.24799e-07
-1.52775e-06
-2.3927e-09
1.51062e-06
-1.2343e-06
-1.6409e-07
1.50871e-06
-7.52879e-07
-4.05808e-07
1.54143e-06
-6.58871e-07
-6.55091e-07
1.44929e-06
-6.60107e-07
-8.27894e-07
1.23248e-06
-6.49244e-07
-9.08844e-07
1.04254e-06
-6.92191e-07
-8.94661e-07
8.88426e-07
-8.17793e-07
-7.86958e-07
8.43301e-07
-1.04411e-06
-5.16101e-07
9.38961e-07
-1.39938e-06
1.07726e-06
-1.83456e-06
2.7878e-07
1.73135e-06
-1.85955e-06
-1.35921e-08
2.1204e-06
-1.10218e-06
-4.33636e-07
2.26214e-06
-8.11424e-07
-7.76386e-07
2.13849e-06
-7.87551e-07
-9.83163e-07
1.83315e-06
-7.76729e-07
-1.04244e-06
1.50962e-06
-7.63283e-07
-9.60371e-07
1.20606e-06
-7.8066e-07
-7.65708e-07
1.01237e-06
-7.98955e-07
-4.52378e-07
9.51428e-07
-8.28462e-07
1.0233e-06
-1.01622e-06
1.04046e-07
2.0433e-06
-2.67341e-06
-5.77818e-07
3.08586e-06
-1.92809e-06
-1.19097e-06
3.22359e-06
-1.7053e-06
-1.56134e-06
2.84975e-06
-1.60212e-06
-1.6651e-06
1.71566e-06
-1.39314e-06
-1.46492e-06
9.27047e-07
-1.04473e-06
-1.13096e-06
3.83819e-07
-7.23551e-07
-7.3996e-07
1.07072e-07
-5.35185e-07
-3.21086e-07
2.51117e-09
-4.89219e-07
6.06293e-08
-5.90535e-07
-5.39982e-07
1.38731e-06
-3.46111e-06
-8.01027e-07
1.9006e-06
-2.56243e-06
-8.64664e-07
9.95546e-07
-1.59583e-06
-6.26381e-07
1.44661e-07
-6.1854e-07
-3.58222e-07
-7.16309e-09
-4.058e-08
-1.67357e-07
-1.94287e-08
1.1005e-07
-9.51911e-08
-2.95332e-08
1.19928e-07
-6.89748e-08
-2.09396e-08
5.96342e-08
-5.28899e-08
-1.65966e-08
3.57711e-08
-1.85613e-08
2.37172e-08
-1.02852e-07
4.57974e-08
-4.74253e-07
4.10501e-08
2.54887e-08
-3.7827e-07
3.45948e-08
4.8894e-09
-1.06842e-07
-1.93137e-09
1.09114e-08
-1.167e-08
-5.87847e-10
3.83388e-09
-7.31803e-10
-6.62613e-10
6.05528e-11
-9.13313e-12
-6.91522e-10
-1.65024e-10
1.78802e-10
-7.2564e-10
-9.68279e-11
-3.21481e-10
-8.75668e-10
-9.16905e-12
-1.319e-09
-3.30069e-10
-3.96176e-09
2.22785e-09
7.57808e-09
-6.50773e-09
2.62461e-09
4.19168e-09
-6.77287e-09
-4.03273e-09
2.32743e-09
-8.86508e-09
-1.45211e-09
1.30773e-09
-2.07743e-09
-5.1642e-11
1.83422e-10
-2.25528e-10
-2.26431e-12
9.95583e-13
-5.86073e-11
-3.14099e-12
9.3347e-13
-2.44879e-10
-1.21086e-11
-5.72481e-13
-2.04211e-10
-1.86565e-11
-5.22849e-13
-2.53782e-10
-4.82745e-13
-5.03693e-10
-2.20216e-10
1.25374e-09
-4.52076e-10
-8.34257e-10
9.09646e-10
-5.17515e-10
-5.81018e-10
6.34198e-10
-6.34006e-10
-1.02595e-10
8.833e-11
-1.56082e-10
-4.08438e-12
-1.80937e-13
-7.17197e-12
-1.36162e-13
-4.68899e-14
-6.47593e-13
-5.38407e-13
-1.21632e-13
-1.70284e-12
-2.45513e-12
-1.61441e-13
-3.3402e-12
-2.4899e-12
-9.93401e-13
-7.28259e-12
-5.42133e-13
-3.77213e-12
8.16843e-11
2.50312e-10
-4.1649e-11
-5.19307e-11
2.80321e-10
-4.96155e-11
-5.15937e-11
3.59488e-10
-6.77221e-11
-4.70018e-11
1.40662e-10
-4.81122e-11
-1.13385e-12
1.00948e-12
-7.51925e-12
-1.91511e-13
-3.07887e-12
-5.36353e-15
-2.16739e-13
-8.89551e-12
-5.17422e-15
-8.33976e-12
-4.01983e-13
-3.27119e-14
-7.28055e-13
-2.3161e-11
-5.21622e-13
-2.39474e-11
-4.37267e-13
6.96753e-10
8.67033e-11
1.3288e-10
2.83468e-10
1.69886e-09
-1.91803e-10
1.79355e-11
5.5085e-10
-2.78764e-11
-1.68371e-11
2.42855e-10
-4.40122e-11
-1.03921e-11
1.7093e-11
-1.26297e-11
-2.43856e-12
-2.81819e-12
-1.67572e-14
-1.90417e-13
-9.32782e-12
-1.65135e-13
-6.79912e-12
-9.43707e-12
-4.74741e-14
-1.54947e-11
-3.65357e-11
7.16643e-14
-2.10565e-11
-3.1925e-14
1.1363e-09
-2.53717e-10
1.73129e-10
1.35782e-09
1.97607e-09
1.42704e-10
3.07142e-10
3.06662e-09
-2.93815e-10
1.8714e-11
1.97135e-09
-1.60348e-11
-1.88269e-13
3.62527e-11
2.33084e-11
-1.08949e-13
-9.59654e-12
-5.22517e-14
4.00316e-12
-4.02192e-12
-2.50202e-14
5.25309e-12
-1.01751e-11
-9.70538e-13
-5.27293e-12
-2.41757e-11
2.35833e-12
-8.74875e-12
3.85783e-13
2.4692e-10
-1.34135e-11
-8.08274e-13
1.98499e-09
1.43259e-09
7.21508e-10
1.04273e-09
3.46702e-09
6.31003e-10
4.95705e-10
2.38645e-09
7.75624e-10
-2.19497e-11
4.59405e-11
6.61367e-11
-4.91714e-13
-5.95024e-12
2.03506e-13
8.81863e-13
-6.66659e-13
7.96807e-14
1.69043e-12
-3.23712e-12
5.23595e-12
1.08754e-13
-2.80982e-12
5.64277e-13
-2.74146e-13
3.32043e-13
1.64697e-11
-1.02174e-12
-1.21464e-12
4.71254e-10
7.21973e-11
5.8705e-10
8.05932e-10
3.24235e-09
1.74574e-09
3.07331e-10
7.0859e-10
8.81033e-10
-1.84293e-11
3.26405e-11
1.74896e-12
-2.94616e-13
-3.84899e-13
6.74747e-13
5.3054e-14
-7.72653e-14
5.5887e-14
1.59545e-13
-1.36335e-13
5.36069e-14
2.52793e-14
-9.19459e-15
2.38099e-14
-5.11904e-17
5.32011e-15
-2.28062e-12
3.89542e-13
-7.82907e-14
-5.38853e-11
-8.93661e-12
2.12099e-11
1.34578e-10
2.02518e-11
4.44084e-10
5.13044e-11
-2.5336e-11
1.04241e-11
-8.58712e-13
-3.5526e-12
-4.65305e-12
-1.73227e-14
1.33883e-14
-7.05263e-14
1.02039e-14
-2.30965e-15
3.80574e-15
2.45337e-15
-9.37116e-16
3.75972e-15
3.63812e-17
-7.05541e-18
3.24601e-16
-1.7406e-17
2.27363e-16
-4.53044e-13
6.80051e-13
-1.32236e-14
-7.88001e-12
-4.63706e-13
1.53232e-13
9.80342e-12
3.02348e-12
1.54431e-11
2.07844e-12
-4.33956e-12
1.91671e-12
-1.11433e-14
-5.15958e-14
1.39272e-13
-4.35225e-15
1.2921e-14
2.27375e-14
1.83283e-16
-5.19591e-16
3.8975e-16
3.25001e-18
-8.88028e-18
1.81929e-17
-9.91945e-19
-1.12096e-19
2.67936e-18
-4.43967e-17
2.92363e-15
-8.4413e-14
-1.25172e-18
1.34117e-11
-1.27814e-13
-7.97289e-15
2.18305e-12
3.15957e-13
5.26544e-14
1.22151e-12
1.20964e-13
9.70557e-14
2.38822e-13
9.01252e-17
4.16282e-14
1.36636e-13
4.50057e-15
2.09049e-14
3.81816e-14
1.74303e-17
2.4361e-15
-4.85313e-16
7.74122e-19
1.03612e-17
-3.54827e-18
-7.45253e-18
7.90697e-18
-8.04882e-20
4.18795e-15
-9.91208e-18
-1.26328e-07
1.58587e-07
-3.91656e-07
-2.04587e-07
9.95614e-08
-3.21633e-07
-2.809e-07
1.01085e-07
-3.47331e-07
-3.45479e-07
9.30814e-08
-3.63919e-07