/*--------------------------------*- C++ -*----------------------------------*\
| =========                 |                                                 |
| \\      /  F ield         | OpenFOAM: The Open Source CFD Toolbox           |
|  \\    /   O peration     | Version:  2312                                  |
|   \\  /    A nd           | Website:  www.openfoam.com                      |
|    \\/     M anipulation  |                                                 |
\*---------------------------------------------------------------------------*/
FoamFile
{
    version     2.0;
    format      ascii;
    arch        "LSB;label=32;scalar=64";
    class       surfaceScalarField;
    location    "1.23";
    object      phi;
}
// * * * * * * * * * * * * * * * * * * * * * * * * * * * * * * * * * * * * * //

dimensions      [0 3 -1 0 0 0 0];

oriented        oriented;

internalField   nonuniform List<scalar> 
22600
(
-6.69511e-08
2.03429e-07
-1.36478e-07
-9.91845e-08
2.55847e-07
-2.23613e-07
-8.216e-08
2.88101e-07
-3.05125e-07
-5.66912e-08
2.53593e-07
-2.79062e-07
-5.09221e-08
1.90945e-07
-1.96714e-07
-5.47476e-08
1.51162e-07
-1.47337e-07
-4.95889e-08
1.29296e-07
-1.34455e-07
-2.20338e-08
1.0968e-07
-1.37235e-07
3.71927e-08
8.34776e-08
-1.42704e-07
5.32675e-08
-1.51059e-07
-3.87771e-08
3.93518e-07
-1.51312e-07
-9.56239e-08
4.22802e-07
-1.10109e-07
-1.53066e-07
5.23504e-07
-1.7796e-07
-1.5922e-07
5.31077e-07
-2.7133e-07
-1.49703e-07
4.45632e-07
-2.64204e-07
-1.43838e-07
3.47646e-07
-2.02348e-07
-1.23966e-07
2.7688e-07
-1.67455e-07
-7.64946e-08
2.22234e-07
-1.60025e-07
5.29464e-09
1.53799e-07
-1.52111e-07
5.39146e-08
-1.33075e-07
9.16904e-08
3.78823e-07
-7.69947e-08
1.29167e-08
3.77959e-07
1.23618e-07
-1.68778e-07
6.24758e-07
8.04401e-08
-2.67168e-07
6.67566e-07
-3.80994e-08
-2.54509e-07
6.15106e-07
-1.82134e-07
-2.11695e-07
5.25081e-07
-2.20249e-07
-1.92859e-07
4.4732e-07
-1.89276e-07
-1.76125e-07
3.56906e-07
-1.51407e-07
-6.64031e-08
1.25662e-07
-8.15846e-08
-1.48508e-07
-1.09623e-08
1.72674e-07
1.1369e-07
9.24588e-08
1.46344e-07
1.416e-07
2.62688e-07
-1.31895e-07
6.76669e-07
2.26328e-07
-3.50936e-07
7.33568e-07
1.53038e-07
-3.91089e-07
6.76022e-07
-2.0763e-08
-3.65283e-07
6.37652e-07
-1.38378e-07
-3.52232e-07
5.71286e-07
-1.37017e-07
-2.68762e-07
3.43441e-07
-7.00044e-08
-6.25159e-08
-1.01616e-07
2.1032e-08
-3.71167e-07
2.45226e-08
-3.88339e-08
-4.10456e-08
1.93569e-07
-8.64859e-08
6.63305e-08
1.22922e-07
-3.28282e-07
6.71829e-07
2.46637e-07
-5.2396e-07
7.0215e-07
2.27096e-07
-5.52935e-07
6.11859e-07
9.31374e-08
-4.94683e-07
6.01415e-07
-2.20148e-08
-3.72387e-07
4.99638e-07
-5.06469e-08
-1.47752e-07
1.66181e-07
-4.73762e-08
2.08539e-08
-1.87533e-07
-8.26889e-08
-2.77954e-07
-1.6056e-07
-2.23132e-07
3.21089e-07
-1.39004e-07
-2.83072e-07
4.02222e-07
-2.75951e-07
-4.40402e-07
7.16538e-07
1.1262e-07
-5.28937e-07
6.76679e-07
1.14006e-07
-4.97249e-07
6.02945e-07
-2.27732e-08
-3.94485e-07
6.08133e-07
-1.09482e-07
-2.26265e-07
4.95987e-07
-1.6457e-07
-8.58642e-08
2.7209e-07
-2.4631e-07
-5.44567e-08
1.47673e-07
-3.66613e-07
1.22887e-07
-4.59936e-07
-2.21259e-07
1.22822e-06
-6.85877e-07
-3.09953e-07
1.22744e-06
-7.36522e-07
-3.78835e-07
1.2186e-06
-4.33184e-07
-3.98573e-07
1.14592e-06
-4.49499e-07
-3.8553e-07
1.08233e-06
-4.92426e-07
-3.22884e-07
1.02656e-06
-4.81069e-07
-2.42525e-07
9.28721e-07
-5.13093e-07
-2.23386e-07
8.57852e-07
-6.04901e-07
-1.88022e-07
8.53819e-07
-7.41511e-07
8.37813e-07
-8.48799e-07
-5.08924e-07
2.55714e-06
-8.19987e-07
-7.49083e-07
2.40458e-06
-9.36979e-07
-9.62232e-07
2.12072e-06
-6.88968e-07
-1.14396e-06
1.87093e-06
-5.43281e-07
-1.212e-06
1.70101e-06
-5.50643e-07
-1.10141e-06
1.59546e-06
-6.79492e-07
-9.02078e-07
1.59349e-06
-8.64099e-07
-7.22651e-07
1.73074e-06
-1.05232e-06
-5.4755e-07
1.8904e-06
-1.21168e-06
1.95072e-06
-1.30208e-06
-9.27606e-07
4.25239e-06
-7.67651e-07
-1.3787e-06
3.6506e-06
-7.9493e-07
-1.60042e-06
2.78859e-06
-4.46146e-07
-1.64249e-06
2.21626e-06
-3.03268e-07
-1.5454e-06
2.13166e-06
-5.27739e-07
-1.31291e-06
2.28408e-06
-9.21115e-07
-1.08879e-06
2.6526e-06
-1.28324e-06
-9.56467e-07
3.24402e-06
-1.6456e-06
-9.32265e-07
3.93964e-06
-2.07345e-06
4.29452e-06
-2.44051e-06
-5.09184e-07
4.99766e-06
-2.36081e-07
-3.02083e-07
3.63628e-06
-1.92791e-07
-2.49299e-07
2.48587e-06
2.49933e-07
-5.81859e-07
1.84231e-06
7.06521e-07
-2.79484e-07
9.85404e-07
8.43895e-07
-4.45747e-07
1.6426e-06
8.07737e-07
-9.29759e-07
2.56874e-06
5.67875e-07
-1.08132e-06
4.0539e-06
-6.58326e-07
-5.7424e-07
5.03905e-06
-1.60649e-06
4.9947e-06
-1.53641e-06
-6.46801e-07
4.64332e-06
1.00114e-06
-6.62345e-07
2.3846e-06
1.26724e-06
-1.49855e-06
1.44187e-06
1.8802e-06
-1.8216e-06
3.14898e-08
2.13387e-06
-1.93814e-06
-1.024e-06
2.12594e-06
-2.20707e-06
-2.16568e-07
2.12809e-06
-2.18077e-06
4.13998e-07
2.12843e-06
-1.35304e-06
1.25197e-06
1.97419e-06
-1.57259e-07
2.01722e-06
1.82606e-06
2.12885e-06
1.8227e-06
-7.154e-07
4.26429e-06
1.09443e-06
-1.71489e-06
1.21761e-06
2.16648e-06
-3.61108e-06
1.59487e-06
1.7432e-06
-4.0109e-06
-3.13634e-07
7.44949e-07
-4.85259e-06
-6.02817e-07
4.20521e-07
-5.62614e-06
-2.70221e-07
8.27219e-07
-5.13174e-06
-1.10494e-06
1.02454e-06
-3.4936e-06
-1.61139e-06
1.22521e-06
-1.58698e-06
-1.25852e-06
1.3691e-06
-6.84916e-07
1.48577e-06
-8.35955e-07
3.83322e-06
1.26702e-06
-2.81603e-06
1.57741e-06
1.62028e-06
-4.22423e-06
2.86302e-06
1.40054e-07
-5.16997e-06
1.04617e-06
-4.14075e-07
-6.75119e-06
8.95339e-07
8.306e-08
-7.47347e-06
2.40095e-07
2.11943e-07
-6.74775e-06
-1.76755e-06
-6.30989e-08
-5.0103e-06
-2.98092e-06
-3.67913e-07
-2.97693e-06
-2.73288e-06
-5.59022e-07
-1.83281e-06
-3.82977e-07
-7.63088e-07
3.4485e-06
1.14782e-06
-2.61133e-06
2.63701e-06
7.88637e-07
-3.84387e-06
4.73185e-06
-6.36297e-07
-5.31472e-06
2.59385e-06
-7.68207e-08
-6.95489e-06
1.57121e-06
9.64293e-07
-7.70469e-06
-1.71977e-07
1.16188e-06
-7.63958e-06
-2.6993e-06
8.66638e-07
-6.76519e-06
-4.10703e-06
2.51719e-07
-5.23528e-06
-3.70819e-06
-5.54598e-07
-2.2967e-06
-1.17314e-06
-4.1615e-07
2.96466e-06
8.99987e-07
-1.39665e-06
2.89234e-06
7.25174e-07
-2.58141e-06
6.23609e-06
-3.19473e-07
-4.54306e-06
3.89825e-06
6.57244e-07
-5.95571e-06
1.21727e-06
1.76659e-06
-6.91237e-06
-1.19593e-06
1.9806e-06
-7.70536e-06
-3.53873e-06
1.63242e-06
-7.845e-06
-4.93993e-06
9.72546e-07
-7.17217e-06
-4.49467e-06
1.13645e-07
-2.73653e-06
-7.27462e-07
-1.56095e-07
2.56543e-06
5.55321e-07
-2.54008e-07
2.09518e-06
8.95066e-07
-6.78936e-07
6.13169e-06
5.29321e-07
-2.27462e-06
4.33603e-06
1.15792e-06
-3.45272e-06
3.5055e-07
2.04482e-06
-5.16416e-06
-1.78125e-06
2.29677e-06
-7.22585e-06
-3.45094e-06
1.97391e-06
-8.28777e-06
-5.00878e-06
1.13077e-06
-8.22757e-06
-4.99588e-06
4.41019e-07
-3.40698e-06
-1.21883e-07
-2.78209e-07
2.7534e-06
9.0239e-08
-2.52642e-07
1.48187e-06
5.87749e-07
3.01341e-07
4.25604e-06
1.32167e-06
-9.78733e-08
3.09543e-06
1.63981e-06
-1.01373e-06
-6.22277e-07
1.88868e-06
-3.34186e-06
-1.76914e-06
2.31603e-06
-6.23882e-06
-2.8198e-06
2.26581e-06
-8.00584e-06
-4.24029e-06
9.98541e-07
-8.30771e-06
-4.73182e-06
3.78163e-08
-4.00163e-06
1.18762e-07
-6.90418e-07
3.78049e-06
-3.36678e-07
-1.60068e-06
2.17081e-06
2.21327e-07
-9.87657e-07
2.47915e-06
1.16387e-06
-4.95654e-07
1.12158e-06
1.48183e-06
-1.44442e-06
-1.3879e-06
1.7144e-06
-3.45217e-06
-2.22514e-06
2.46374e-06
-5.7215e-06
-2.97801e-06
2.42754e-06
-7.35491e-06
-3.63845e-06
1.03157e-06
-7.73967e-06
-3.95186e-06
-3.95206e-07
-3.89801e-06
-4.61498e-07
-9.3422e-07
5.30647e-06
-5.91742e-07
-2.30401e-06
3.55185e-06
-1.12522e-08
-2.36713e-06
1.84835e-06
6.93924e-07
-2.03977e-06
-4.79042e-07
1.27327e-06
-2.99096e-06
-2.36215e-06
1.92544e-06
-4.25509e-06
-3.33861e-06
2.37759e-06
-5.79844e-06
-3.70418e-06
2.26953e-06
-6.9544e-06
-3.67217e-06
1.18967e-06
-7.07009e-06
-3.4187e-06
-4.17485e-07
-3.2928e-06
-1.14647e-06
-3.58705e-07
-7.59645e-07
6.42481e-06
-1.27669e-06
-3.67945e-07
4.83778e-06
-1.88976e-06
5.63273e-07
1.89814e-06
-2.64852e-06
1.53418e-06
-1.25446e-06
-3.65578e-06
1.7191e-06
-3.07401e-06
-4.63726e-06
1.8665e-06
-4.22362e-06
-5.77304e-06
1.78994e-06
-4.35835e-06
-6.60953e-06
1.15969e-06
-3.99538e-06
-6.55015e-06
-1.11042e-07
-3.36703e-06
-1.13204e-06
-2.92135e-06
-1.36809e-07
2.34039e-07
-2.33708e-07
-1.2746e-07
7.7483e-08
-3.10445e-07
-9.24777e-09
-1.74276e-08
-4.0591e-07
7.36332e-08
5.56231e-08
-4.17565e-07
9.14799e-08
1.14074e-07
-3.28635e-07
8.22198e-08
1.10834e-07
-2.4891e-07
7.72646e-08
8.97158e-08
-2.19215e-07
8.39856e-08
7.1091e-08
-2.15047e-07
1.03171e-07
5.58846e-08
-2.17773e-07
2.33206e-08
-2.24102e-07
2.35521e-08
3.44833e-07
-2.85658e-07
1.87937e-07
-1.39943e-07
-5.70673e-08
1.89445e-07
-1.61793e-07
-3.51025e-08
1.39808e-07
9.46872e-08
-2.60756e-07
8.75639e-08
2.87798e-07
-3.85684e-07
4.03535e-08
2.91962e-07
-3.36265e-07
2.48953e-08
2.13412e-07
-2.75693e-07
4.02763e-08
1.47283e-07
-2.51599e-07
7.83005e-08
1.08894e-07
-2.43145e-07
3.8094e-08
-2.25378e-07
2.74573e-07
2.08835e-07
-2.1557e-07
4.90599e-07
-5.33951e-07
3.016e-07
3.37983e-07
-2.89272e-07
3.60534e-07
1.09508e-07
1.69552e-07
1.15511e-07
2.9263e-08
4.2039e-07
-2.3448e-07
1.8216e-08
4.49724e-07
-3.66963e-07
2.34738e-08
3.52227e-07
-3.33349e-07
1.60879e-08
2.83299e-07
-2.80036e-07
2.72218e-08
2.29651e-07
-2.13476e-07
-1.57137e-08
-9.79331e-08
3.13953e-07
-5.7058e-10
-1.2088e-08
2.73911e-07
-6.00064e-07
3.68842e-07
-2.37258e-08
-1.62847e-07
3.9754e-07
-2.59691e-07
2.64924e-07
2.93631e-07
-2.37661e-07
4.35372e-07
-5.7775e-08
-1.44331e-07
5.12287e-07
-2.9427e-07
-1.14402e-07
4.98219e-07
-3.12938e-07
-1.11681e-07
4.46341e-07
-2.35768e-07
-2.85269e-10
2.60114e-07
-1.20826e-07
-1.371e-07
-1.4555e-08
1.78162e-08
2.43689e-07
-6.8507e-08
-2.71685e-07
-1.32678e-07
-5.49633e-08
-5.27315e-07
1.01653e-07
2.37767e-07
-6.10187e-07
2.97633e-07
2.77259e-07
-5.02027e-07
3.74141e-07
4.62085e-08
-3.34646e-07
4.6321e-07
-1.40319e-07
-1.7088e-07
4.85869e-07
-2.02063e-07
3.86258e-08
3.9526e-07
-2.05801e-07
2.61203e-07
1.71106e-07
-2.16258e-07
-5.01805e-08
-2.40492e-07
-5.5828e-08
7.71974e-07
-6.11461e-07
-3.59172e-07
5.12194e-07
-6.17479e-07
-4.83682e-07
4.90657e-07
-1.51874e-07
-4.66095e-07
5.06652e-07
-1.126e-07
-3.7845e-07
5.11345e-07
-2.47622e-07
-2.19827e-07
5.37396e-07
-3.4229e-07
1.46768e-08
5.16158e-07
-4.29363e-07
2.66524e-07
4.29018e-07
-5.31915e-07
3.76674e-07
3.44973e-07
-6.50629e-07
3.04465e-07
-7.11604e-07
3.85588e-08
1.32406e-06
-1.27652e-06
-3.06565e-07
1.26503e-06
-1.14424e-06
-4.48124e-07
1.19166e-06
-9.92633e-07
-4.22021e-07
1.09467e-06
-1.06362e-06
-3.63096e-07
1.01077e-06
-1.05077e-06
-2.27258e-07
9.45851e-07
-1.02536e-06
-3.68903e-08
9.06144e-07
-1.09345e-06
1.05363e-07
8.64561e-07
-1.1827e-06
1.65279e-07
8.19915e-07
-1.27637e-06
7.86862e-07
-1.31744e-06
-4.56815e-07
2.28002e-06
-1.31912e-06
-1.05766e-06
2.26032e-06
-1.33142e-06
-1.31164e-06
2.06574e-06
-1.30906e-06
-1.33831e-06
1.8575e-06
-1.27944e-06
-1.2361e-06
1.68006e-06
-1.32215e-06
-1.01095e-06
1.52551e-06
-1.48429e-06
-7.41371e-07
1.45134e-06
-1.67887e-06
-5.34984e-07
1.46269e-06
-1.85683e-06
-4.12524e-07
1.48966e-06
-2.00389e-06
1.44218e-06
-2.07251e-06
-1.32456e-06
3.894e-06
-1.05708e-06
-2.24221e-06
3.45172e-06
-1.06868e-06
-2.53485e-06
2.8877e-06
-9.75462e-07
-2.44345e-06
2.55578e-06
-1.09295e-06
-2.2279e-06
2.50513e-06
-1.56836e-06
-2.02128e-06
2.60618e-06
-2.20841e-06
-1.90485e-06
2.91e-06
-2.85833e-06
-1.84949e-06
3.34566e-06
-3.58393e-06
-1.67045e-06
3.54423e-06
-4.30704e-06
3.42298e-06
-4.82938e-06
-1.09557e-06
4.81795e-06
-6.44665e-08
-1.48049e-06
3.65051e-06
-6.65466e-09
-1.653e-06
2.74173e-06
5.68423e-07
-1.54026e-06
2.02889e-06
1.12066e-06
-1.01639e-06
1.50838e-06
1.31677e-06
-1.24274e-06
2.63019e-06
1.01009e-06
-2.06764e-06
4.78566e-06
-4.82885e-07
-2.42442e-06
6.03213e-06
-2.98801e-06
-1.91907e-06
5.63877e-06
-4.20638e-06
5.1116e-06
-4.3016e-06
-1.79706e-06
6.10858e-06
1.50757e-06
-2.34169e-06
3.07156e-06
2.39082e-06
-3.07168e-06
1.65618e-06
3.69572e-06
-3.16302e-06
-2.04176e-07
4.45827e-06
-3.16101e-06
-7.74268e-07
4.40657e-06
-3.06364e-06
5.64076e-07
4.09683e-06
-2.61338e-06
2.73463e-06
3.72921e-06
-2.06067e-06
4.94295e-06
2.51066e-06
-1.29397e-06
5.91857e-06
7.7955e-07
6.02044e-06
-2.77155e-08
-1.46745e-06
6.06264e-06
2.6078e-06
-3.18717e-06
2.35225e-06
4.60548e-06
-5.37014e-06
7.82566e-07
4.79978e-06
-6.39462e-06
-1.88262e-06
3.44785e-06
-7.3539e-06
-2.10418e-06
2.70973e-06
-7.12228e-06
-1.92578e-06
3.08545e-06
-5.5556e-06
-1.17655e-06
3.36904e-06
-3.53774e-06
1.10233e-06
3.04797e-06
-1.87116e-06
3.70436e-06
1.91672e-06
5.28016e-06
1.1799e-06
-1.58702e-06
5.4372e-06
3.4795e-06
-4.74459e-06
2.71241e-06
4.4177e-06
-7.12655e-06
8.88959e-07
2.41563e-06
-8.80188e-06
-1.3096e-06
6.88228e-07
-9.79901e-06
-1.87467e-06
8.50681e-07
-9.28037e-06
-3.5291e-06
1.29661e-06
-7.57867e-06
-4.40018e-06
1.45884e-06
-4.90649e-06
-3.23164e-06
1.29389e-06
-2.18264e-06
-3.54938e-07
7.76422e-07
2.86183e-06
3.10723e-07
-1.77527e-06
4.97105e-06
3.38923e-06
-4.99674e-06
4.22676e-06
2.49576e-06
-7.08691e-06
2.07679e-06
2.66032e-07
-8.99663e-06
1.73301e-07
3.50007e-07
-1.01904e-05
-9.07942e-07
1.19128e-06
-1.02028e-05
-3.57261e-06
1.21787e-06
-9.37768e-06
-5.33283e-06
9.74142e-07
-7.49756e-06
-5.47516e-06
6.15122e-07
-4.46237e-06
-4.04844e-06
1.03702e-07
-9.53513e-07
-5.55548e-07
-1.55896e-06
4.71111e-06
2.71889e-06
-3.6057e-06
5.59611e-06
1.40256e-06
-5.65293e-06
3.58295e-06
2.21606e-07
-7.80036e-06
1.45734e-06
1.52062e-06
-8.81726e-06
-5.54474e-07
2.43002e-06
-9.27091e-06
-3.2248e-06
2.08644e-06
-9.47183e-06
-4.88434e-06
1.38486e-06
-9.00379e-06
-5.54518e-06
5.74535e-07
-7.53054e-06
-5.30316e-06
-1.0488e-07
-3.58003e-06
-9.05663e-07
-1.09675e-06
4.42095e-06
1.94223e-06
-1.77027e-06
6.36704e-06
7.97653e-07
-3.18953e-06
5.0692e-06
4.62332e-07
-5.08446e-06
2.23812e-06
2.27206e-06
-6.05846e-06
-8.92196e-07
3.35656e-06
-7.34314e-06
-2.75921e-06
3.11585e-06
-8.5066e-06
-3.69648e-06
1.94951e-06
-9.03337e-06
-4.39907e-06
5.11429e-07
-8.94157e-06
-4.74806e-06
-2.05892e-07
-4.28817e-06
-6.25385e-07
-8.25689e-07
4.09113e-06
1.24575e-06
-9.63677e-07
6.6425e-06
4.50293e-07
-1.01027e-06
5.43009e-06
1.00737e-06
-1.56846e-06
1.32352e-06
3.11263e-06
-2.75346e-06
-1.86726e-06
4.04873e-06
-5.24038e-06
-2.15251e-06
4.19626e-06
-7.22165e-06
-2.27484e-06
2.82544e-06
-8.2947e-06
-2.62704e-06
2.9957e-07
-9.00093e-06
-3.12147e-06
-8.82553e-07
-3.59401e-06
-5.73244e-07
-1.20335e-06
4.08627e-06
8.7153e-07
-1.74179e-06
6.62001e-06
7.82253e-07
-1.64722e-06
4.37217e-06
2.12721e-06
-1.99745e-06
-6.87446e-07
3.84303e-06
-3.55988e-06
-2.69312e-06
4.10268e-06
-5.2933e-06
-2.45033e-06
4.49499e-06
-6.67085e-06
-1.90666e-06
3.4369e-06
-7.52611e-06
-1.33128e-06
5.91076e-07
-8.30552e-06
-1.22542e-06
-1.51185e-06
-1.93736e-06
-1.53406e-06
-2.08857e-06
4.7796e-06
8.03497e-07
-2.97147e-06
6.08845e-06
1.40321e-06
-3.29266e-06
2.85816e-06
2.52913e-06
-4.04913e-06
-1.93474e-06
3.27701e-06
-5.27579e-06
-3.32065e-06
3.77964e-06
-6.17064e-06
-3.26889e-06
4.09099e-06
-6.68744e-06
-2.43359e-06
3.31326e-06
-6.86836e-06
-1.10505e-06
1.14437e-06
-6.99709e-06
-1.22448e-07
-1.39174e-06
-3.52237e-07
-2.72903e-06
-2.14252e-06
4.61152e-07
5.70132e-06
-2.60187e-06
1.05158e-06
5.12828e-06
-2.85003e-06
1.92361e-06
1.74597e-06
-3.94875e-06
2.73013e-06
-2.03198e-06
-5.43348e-06
3.04429e-06
-3.16111e-06
-6.43184e-06
3.07423e-06
-3.47827e-06
-6.70615e-06
2.67445e-06
-3.04378e-06
-6.45461e-06
1.39274e-06
-1.58964e-06
-6.01424e-06
-6.74851e-07
9.84587e-10
-2.58961e-06
5.25739e-07
-2.33306e-07
2.55011e-07
-2.55413e-07
-2.00936e-07
-1.37257e-07
-2.05558e-07
5.85401e-08
-4.75173e-07
-1.90213e-07
2.06615e-07
-3.32273e-07
-2.33368e-07
1.81227e-07
-4.17093e-08
-2.61537e-07
1.17188e-07
7.17632e-08
-2.56634e-07
8.26166e-08
6.81892e-08
-2.52833e-07
8.02429e-08
4.44356e-08
-2.57108e-07
9.77839e-08
2.27938e-08
-2.58108e-07
-1.6386e-08
-2.56604e-07
-6.88443e-08
4.25652e-07
-3.87455e-07
1.98607e-07
-4.1505e-07
-4.67259e-08
3.8084e-07
-8.14994e-07
1.22487e-07
3.73754e-07
-5.13056e-07
-7.2887e-08
2.56358e-07
-2.87514e-08
-2.81247e-07
1.11503e-07
2.16243e-07
-3.35889e-07
4.05693e-08
1.84469e-07
-3.21038e-07
4.18352e-08
9.9658e-08
-3.08087e-07
8.11803e-08
3.77948e-08
-2.97491e-07
-3.40988e-08
-2.8029e-07
1.26515e-07
4.98822e-07
-4.15256e-07
4.32392e-07
-6.05547e-07
1.86219e-07
4.38149e-07
-8.44285e-07
3.84068e-07
3.07769e-07
-3.98259e-07
1.31093e-07
2.23548e-07
6.38071e-08
-2.42818e-07
1.24474e-07
3.48379e-07
-4.00025e-07
6.58644e-08
3.11887e-07
-4.02158e-07
6.85133e-08
1.90465e-07
-3.73492e-07
8.24436e-08
1.48461e-07
-3.38072e-07
3.96739e-08
-2.59829e-07
2.02831e-07
6.42851e-07
-3.58947e-07
2.03284e-07
-3.51864e-07
1.14705e-07
-8.24653e-09
-5.42682e-07
3.07467e-07
-1.09539e-07
-1.63421e-07
1.60085e-07
-7.35122e-08
1.8932e-07
-2.19315e-07
-1.92505e-08
4.40754e-07
-4.40906e-07
-8.08103e-09
4.62975e-07
-4.75194e-07
-2.57633e-08
3.99929e-07
-4.2755e-07
-3.31864e-09
3.59081e-07
-3.53891e-07
1.28794e-07
-2.44716e-07
1.72151e-07
9.26999e-07
-5.24806e-07
-1.21049e-07
2.73193e-07
-3.8682e-07
-4.20476e-07
3.60478e-08
-4.1535e-08
-4.85716e-07
1.66812e-07
1.22659e-08
-3.93246e-07
3.32031e-07
-1.88972e-07
-2.27649e-07
4.96719e-07
-3.61881e-07
-9.28263e-08
5.56528e-07
-4.3044e-07
-1.19484e-08
5.57568e-07
-4.44318e-07
8.56271e-08
5.15618e-07
-4.7037e-07
2.77089e-07
-4.65327e-07
1.30939e-07
1.16964e-06
-9.85036e-07
-1.72527e-07
8.01473e-07
-8.42294e-07
-4.34408e-07
6.50873e-07
-5.04818e-07
-4.93499e-07
6.0335e-07
-4.90047e-07
-4.47112e-07
5.80948e-07
-5.42926e-07
-2.96243e-07
6.00975e-07
-5.97416e-07
-9.57872e-08
6.09796e-07
-6.83086e-07
8.19369e-08
6.28476e-07
-7.80548e-07
1.98872e-07
6.39399e-07
-8.91345e-07
5.18046e-07
-9.56807e-07
-1.27272e-08
1.34858e-06
-1.44274e-06
-3.51989e-07
1.27338e-06
-1.27688e-06
-5.72139e-07
1.22268e-06
-1.34429e-06
-6.58125e-07
1.07772e-06
-1.45201e-06
-6.70917e-07
9.48332e-07
-1.40536e-06
-5.66922e-07
8.64642e-07
-1.39302e-06
-3.85773e-07
8.01321e-07
-1.46612e-06
-1.80289e-07
7.62651e-07
-1.52236e-06
8.87271e-09
7.28033e-07
-1.55417e-06
6.49681e-07
-1.57618e-06
-5.54155e-07
2.08333e-06
-1.49972e-06
-1.1415e-06
2.10726e-06
-1.57796e-06
-1.41228e-06
1.96292e-06
-1.77852e-06
-1.54279e-06
1.78634e-06
-1.85755e-06
-1.54556e-06
1.56466e-06
-1.93571e-06
-1.39087e-06
1.32031e-06
-2.09465e-06
-1.11411e-06
1.11745e-06
-2.27176e-06
-7.89642e-07
9.78207e-07
-2.39685e-06
-4.77259e-07
8.80862e-07
-2.4691e-06
8.06269e-07
-2.50415e-06
-1.23599e-06
3.50667e-06
-1.24443e-06
-2.20655e-06
3.22329e-06
-1.21415e-06
-2.62716e-06
2.76275e-06
-1.35469e-06
-2.81165e-06
2.69645e-06
-1.81856e-06
-2.92381e-06
2.75165e-06
-2.64319e-06
-2.93975e-06
2.73835e-06
-3.61052e-06
-2.76783e-06
2.58171e-06
-4.4945e-06
-2.42089e-06
2.30617e-06
-5.25883e-06
-1.97348e-06
1.96761e-06
-5.84119e-06
1.63146e-06
-6.18272e-06
-1.04809e-06
4.05164e-06
4.3866e-07
-1.66171e-06
3.36666e-06
4.636e-07
-1.94575e-06
2.91542e-06
6.99786e-07
-1.80018e-06
2.73559e-06
9.35945e-07
-1.88079e-06
2.86977e-06
1.27926e-06
-2.96159e-06
4.04881e-06
7.80425e-07
-3.75235e-06
4.74771e-06
-1.85813e-06
-4.06332e-06
3.73764e-06
-4.1085e-06
-3.94611e-06
2.69457e-06
-5.05056e-06
2.11708e-06
-5.31311e-06
-2.13753e-06
5.60151e-06
2.09526e-06
-2.78549e-06
3.2818e-06
3.12362e-06
-3.04953e-06
2.53554e-06
4.33967e-06
-2.89351e-06
1.64747e-06
5.39038e-06
-3.0937e-06
1.95607e-06
5.52044e-06
-3.52924e-06
3.80403e-06
4.77715e-06
-3.65232e-06
5.55467e-06
3.04533e-06
-3.6603e-06
5.92307e-06
3.33216e-07
-3.59792e-06
4.88378e-06
-1.47203e-06
3.7804e-06
-2.00085e-06
-1.23843e-06
5.49417e-06
3.95357e-06
-2.58187e-06
2.99295e-06
6.23777e-06
-3.95642e-06
1.9021e-06
6.80776e-06
-4.88532e-06
1.0102e-07
5.92321e-06
-5.97655e-06
7.89837e-07
4.96718e-06
-6.22889e-06
2.69684e-06
4.44498e-06
-5.49473e-06
4.63362e-06
3.55593e-06
-4.50761e-06
6.01906e-06
1.96486e-06
-3.84216e-06
6.02388e-06
1.11171e-07
5.00124e-06
-4.73654e-07
-1.2448e-06
4.52996e-06
5.6885e-06
-4.01153e-06
3.14294e-06
7.03445e-06
-6.23019e-06
9.97195e-07
5.5392e-06
-7.49254e-06
-1.0743e-06
3.1259e-06
-7.65341e-06
-5.5114e-07
2.35253e-06
-7.00746e-06
8.13285e-07
2.53422e-06
-5.88091e-06
2.20873e-06
2.75717e-06
-4.70174e-06
3.51339e-06
2.62038e-06
-4.08301e-06
4.42785e-06
1.75374e-06
4.71936e-06
5.04264e-07
-2.13104e-06
4.19727e-06
5.85296e-06
-6.14956e-06
4.60436e-06
5.05284e-06
-8.97732e-06
1.6045e-06
2.48649e-06
-1.03226e-05
-7.85319e-07
1.4063e-06
-1.03251e-05
-1.22473e-06
1.86737e-06
-9.23034e-06
-1.45846e-06
2.39486e-06
-7.40748e-06
-1.30737e-06
2.66738e-06
-5.28259e-06
-7.58459e-07
2.7621e-06
-3.35848e-06
1.66365e-07
2.44106e-06
1.89651e-06
1.67696e-06
-2.24336e-06
4.2498e-06
4.90972e-06
-4.87839e-06
5.74476e-06
2.8972e-06
-6.92146e-06
2.75805e-06
1.11112e-06
-8.37879e-06
3.21702e-07
1.87092e-06
-9.51523e-06
-5.15066e-07
2.8568e-06
-9.94692e-06
-1.60666e-06
2.66632e-06
-9.74621e-06
-2.24988e-06
2.12665e-06
-8.69599e-06
-2.68279e-06
1.44865e-06
-6.43038e-06
-2.95668e-06
7.52551e-07
-1.9992e-06
3.13069e-07
-1.80163e-06
4.00814e-06
3.98552e-06
-2.97231e-06
6.00209e-06
1.71099e-06
-4.50365e-06
3.91603e-06
8.35688e-07
-5.55924e-06
6.26589e-07
3.02277e-06
-6.42035e-06
-7.31731e-07
4.43434e-06
-7.49884e-06
-1.09946e-06
3.68715e-06
-8.85274e-06
-9.75203e-07
2.02874e-06
-9.74088e-06
-1.40135e-06
1.18112e-07
-9.3936e-06
-2.64741e-06
-8.62441e-07
-3.36503e-06
-1.08619e-06
-1.29092e-06
3.22406e-06
3.32076e-06
-1.72361e-06
5.62878e-06
1.2563e-06
-2.42187e-06
4.85231e-06
7.69351e-07
-2.46927e-06
4.74361e-07
3.31226e-06
-3.08202e-06
-1.6186e-06
5.54835e-06
-4.78653e-06
-7.93852e-07
5.59516e-06
-6.56485e-06
1.05902e-07
3.52263e-06
-8.28492e-06
1.59155e-07
4.59152e-07
-9.35862e-06
-9.63997e-07
-1.49227e-06
-2.16399e-06
-2.02121e-06
-1.52497e-06
2.71072e-06
2.90983e-06
-1.99366e-06
5.27982e-06
1.59992e-06
-2.26134e-06
5.21626e-06
2.03095e-06
-2.37529e-06
9.10986e-08
4.34024e-06
-3.21683e-06
-2.20916e-06
5.5348e-06
-4.12062e-06
-1.2227e-06
5.82761e-06
-4.93407e-06
-9.78381e-08
4.45408e-06
-6.16706e-06
5.34427e-07
1.44881e-06
-7.74894e-06
3.74843e-07
-1.26882e-06
-1.31629e-07
-2.84324e-06
-2.30402e-06
3.47789e-06
2.34036e-06
-2.85871e-06
4.86972e-06
2.36799e-06
-2.9012e-06
4.47631e-06
3.31157e-06
-3.55769e-06
-4.39215e-07
4.46382e-06
-4.42644e-06
-2.4167e-06
4.85593e-06
-4.55752e-06
-2.02176e-06
5.02112e-06
-4.28548e-06
-1.17281e-06
4.1162e-06
-4.35371e-06
-1.39971e-07
1.88699e-06
-5.23317e-06
6.02158e-07
-7.39594e-07
1.06948e-06
-3.16556e-06
-1.87853e-06
1.23145e-06
4.58611e-06
-2.57766e-06
1.83163e-06
4.7888e-06
-2.31427e-06
2.8373e-06
3.29922e-06
-2.84022e-06
3.40263e-06
-5.85771e-07
-3.89306e-06
3.69119e-06
-2.01076e-06
-4.36372e-06
3.69181e-06
-2.16867e-06
-4.02499e-06
3.15934e-06
-1.99642e-06
-3.47422e-06
1.77229e-06
-1.0703e-06
-3.45671e-06
-3.1232e-07
2.22119e-07
-2.695e-06
1.38795e-06
-2.2095e-07
2.09387e-07
-2.43849e-07
-2.59471e-07
-6.37162e-08
-1.03321e-07
-5.9947e-09
-4.35587e-07
-8.10286e-09
1.55117e-07
-3.31263e-07
-6.32164e-08
1.36253e-07
-7.15046e-08
-1.71169e-07
8.07625e-08
3.78558e-08
-2.39e-07
5.15849e-08
4.71413e-08
-2.70796e-07
5.66343e-08
2.63388e-08
-2.88496e-07
8.52234e-08
1.1244e-09
-2.87822e-07
-3.2126e-08
-2.80401e-07
-2.02623e-07
4.19071e-07
-3.94515e-07
-7.38953e-08
-1.66202e-07
-7.29687e-08
1.98095e-07
-7.25972e-07
1.40882e-07
3.09354e-07
-5.41056e-07
2.56467e-08
2.11745e-07
-8.82849e-08
-1.66858e-07
7.35355e-08
1.3393e-07
-2.93753e-07
1.16968e-08
1.19108e-07
-3.31165e-07
2.5187e-08
4.08067e-08
-3.36045e-07
7.71728e-08
-3.04775e-08
-3.17875e-07
-9.46499e-08
-2.91471e-07
-1.21902e-08
5.32212e-07
-5.16207e-07
2.06111e-07
-1.42986e-07
-5.52976e-08
3.28622e-07
-6.81056e-07
2.16641e-07
3.54421e-07
-5.08529e-07
7.27669e-08
2.64985e-07
-5.22879e-08
-1.89378e-07
1.14743e-07
2.3754e-07
-3.53394e-07
2.8329e-08
2.1248e-07
-4.09116e-07
3.23175e-08
7.93533e-08
-4.16027e-07
7.5742e-08
-3.30763e-09
-4.08667e-07
-6.42542e-08
-3.75412e-07
1.24928e-07
6.90829e-07
-6.42492e-07
2.2338e-07
1.68431e-07
-2.95164e-07
1.7484e-07
-3.29092e-07
4.0438e-09
1.33812e-07
-2.50763e-07
-5.66528e-08
1.05046e-07
7.30349e-08
-3.15871e-07
4.12866e-08
3.30286e-07
-4.69892e-07
-2.47668e-08
3.3756e-07
-5.34221e-07
-4.59271e-08
2.11007e-07
-5.38044e-07
-4.00174e-09
1.27408e-07
-5.26531e-07
5.13524e-08
-5.10612e-07
1.93768e-07
8.55822e-07
-8.83567e-07
1.41197e-07
5.52404e-07
-7.18222e-07
-6.02234e-08
1.86678e-07
-3.55885e-07
-1.64091e-07
1.6725e-07
-3.01879e-07
-1.52337e-07
2.8403e-07
-4.11721e-07
-1.04393e-07
4.37768e-07
-5.17308e-07
-7.39646e-08
4.59361e-07
-5.82668e-07
-7.88562e-08
3.88456e-07
-6.16875e-07
-4.63326e-08
3.10195e-07
-6.8568e-07
1.87496e-07
-7.67136e-07
1.43818e-07
9.21711e-07
-1.19474e-06
-1.66662e-08
8.03256e-07
-9.32662e-07
-2.46756e-07
6.37057e-07
-7.25107e-07
-3.73557e-07
5.48673e-07
-7.44668e-07
-3.81783e-07
5.08937e-07
-7.59607e-07
-2.78374e-07
5.17236e-07
-7.80293e-07
-1.5703e-07
5.08406e-07
-8.53475e-07
-9.19932e-08
4.95228e-07
-9.52356e-07
-3.60184e-08
4.37173e-07
-1.0743e-06
3.01073e-07
-1.22825e-06
-2.29334e-07
1.14445e-06
-1.43615e-06
-5.30873e-07
1.16629e-06
-1.33838e-06
-7.61045e-07
1.09885e-06
-1.57591e-06
-9.25965e-07
9.53302e-07
-1.69172e-06
-9.60871e-07
7.9847e-07
-1.65999e-06
-8.47164e-07
6.55975e-07
-1.64547e-06
-6.63825e-07
5.24873e-07
-1.66593e-06
-4.49702e-07
4.45168e-07
-1.68642e-06
-1.92434e-07
3.71488e-07
-1.74575e-06
2.67548e-07
-1.84943e-06
-7.51408e-07
1.95798e-06
-1.56184e-06
-1.34817e-06
1.99177e-06
-1.80668e-06
-1.73246e-06
1.86739e-06
-2.16277e-06
-1.97152e-06
1.6511e-06
-2.31628e-06
-1.97414e-06
1.27583e-06
-2.41044e-06
-1.75392e-06
8.48531e-07
-2.50742e-06
-1.38794e-06
4.82644e-07
-2.59551e-06
-9.60517e-07
2.9169e-07
-2.6708e-06
-5.3202e-07
2.12047e-07
-2.73815e-06
1.41983e-07
-2.78492e-06
-9.48479e-07
3.19213e-06
-1.5301e-06
-1.99114e-06
3.14009e-06
-1.31981e-06
-2.77116e-06
2.89539e-06
-1.60266e-06
-3.44786e-06
2.91054e-06
-2.4013e-06
-3.89387e-06
2.50376e-06
-3.42511e-06
-3.89003e-06
1.66422e-06
-4.43006e-06
-3.44582e-06
6.29525e-07
-5.08559e-06
-2.87198e-06
5.48558e-08
-5.59583e-06
-2.36272e-06
-1.88303e-07
-5.95011e-06
-3.53524e-07
-6.12465e-06
-1.45288e-06
4.02985e-06
1.05383e-06
-2.13735e-06
4.25505e-06
3.30937e-08
-2.67948e-06
4.15304e-06
-1.57199e-08
-2.66478e-06
3.98104e-06
-1.49262e-07
-3.06811e-06
3.88939e-06
2.96957e-07
-4.34153e-06
3.75996e-06
-4.18959e-08
-5.79738e-06
2.19379e-06
-1.96654e-06
-7.07435e-06
5.74897e-07
-3.35158e-06
-7.57453e-06
-4.89527e-07
-4.24915e-06
-1.37007e-06
-4.39781e-06
-1.93796e-06
5.21202e-06
2.85104e-06
-2.25391e-06
3.49092e-06
4.20373e-06
-2.77311e-06
4.06446e-06
4.94743e-06
-3.18666e-06
3.55352e-06
6.23145e-06
-3.80145e-06
4.03384e-06
5.99079e-06
-4.32717e-06
4.88962e-06
4.1732e-06
-5.18378e-06
4.3126e-06
1.78313e-06
-6.2873e-06
2.23594e-06
-2.24304e-07
-6.87695e-06
-9.31873e-08
-1.27873e-06
-1.81904e-06
-1.42534e-06
-8.54853e-07
4.38448e-06
5.63598e-06
-1.73873e-06
3.01725e-06
7.59531e-06
-2.9664e-06
3.98208e-06
8.11782e-06
-4.17693e-06
3.15575e-06
7.53152e-06
-5.04573e-06
4.11134e-06
5.75847e-06
-5.0859e-06
5.26916e-06
4.10562e-06
-5.01346e-06
5.05482e-06
2.74128e-06
-5.38105e-06
3.3591e-06
1.20928e-06
-6.24717e-06
8.12613e-07
7.14995e-08
-1.30505e-06
-4.65741e-07
-7.09434e-07
3.08882e-06
7.69358e-06
-2.58771e-06
3.52922e-06
8.40075e-06
-4.09751e-06
3.41248e-06
7.6186e-06
-5.14808e-06
2.09873e-06
5.23348e-06
-5.35585e-06
2.83817e-06
3.83346e-06
-4.88795e-06
3.62585e-06
3.70963e-06
-3.92837e-06
3.20817e-06
3.64425e-06
-3.17715e-06
2.22192e-06
3.00634e-06
-3.55383e-06
1.12736e-06
1.81568e-06
1.07733e-07
7.25774e-07
-1.64996e-06
2.80846e-06
7.78328e-06
-4.63234e-06
4.80123e-06
6.76322e-06
-7.04791e-06
3.47779e-06
4.83674e-06
-8.38018e-06
1.29674e-06
3.54057e-06
-8.48875e-06
9.72218e-07
3.84189e-06
-7.84196e-06
8.78643e-07
4.49529e-06
-6.61611e-06
1.64003e-07
4.4857e-06
-5.04091e-06
-3.64028e-07
3.77284e-06
-3.30168e-06
-8.3937e-07
2.66856e-06
-9.2403e-07
1.69414e-06
-2.29905e-06
3.14708e-06
6.87016e-06
-4.97262e-06
5.57756e-06
4.79445e-06
-7.35219e-06
3.90901e-06
3.05947e-06
-8.4676e-06
1.00392e-06
3.27915e-06
-9.1954e-06
6.03908e-07
3.95291e-06
-9.74973e-06
4.42635e-07
3.65666e-06
-9.97233e-06
1.88609e-08
2.49439e-06
-9.49055e-06
-6.68761e-07
1.27161e-06
-7.84885e-06
-1.88509e-06
1.56576e-07
-2.89142e-06
-1.97131e-07
-1.81127e-06
2.94476e-06
5.99912e-06
-3.16695e-06
4.76051e-06
3.88371e-06
-4.5372e-06
3.70125e-06
2.41371e-06
-4.92391e-06
7.54501e-07
3.65892e-06
-4.99374e-06
1.07537e-07
5.00055e-06
-5.74821e-06
5.68534e-07
4.31572e-06
-7.33254e-06
1.11713e-06
2.51483e-06
-8.77734e-06
5.48949e-07
3.45201e-07
-8.98165e-06
-1.00283e-06
-1.5404e-06
-2.66326e-06
-2.34141e-06
-1.24734e-06
2.39613e-06
5.11673e-06
-1.46961e-06
2.72057e-06
3.51851e-06
-1.75939e-06
2.73626e-06
2.02413e-06
-2.16222e-06
1.21903e-06
3.25056e-06
-2.09745e-06
-2.83414e-09
5.59394e-06
-2.45303e-06
4.12577e-07
6.10669e-06
-3.4852e-06
1.36674e-06
4.3052e-06
-5.04506e-06
9.88334e-07
1.57962e-06
-6.36231e-06
-2.53613e-07
-9.24234e-07
-1.20126e-06
-3.11064e-06
-1.15066e-06
2.52993e-06
3.92668e-06
-1.6091e-06
1.77038e-06
3.00857e-06
-1.52613e-06
2.39127e-06
2.29297e-06
-1.40306e-06
2.03038e-06
3.4058e-06
-1.38993e-06
3.12576e-07
5.20627e-06
-1.39498e-06
3.13485e-07
5.93176e-06
-1.38995e-06
9.22105e-07
4.89368e-06
-1.88306e-06
6.25458e-07
2.3048e-06
-2.91659e-06
-1.88173e-07
-3.00736e-07
-1.81522e-07
-2.78933e-06
-6.16566e-07
3.15745e-06
2.32942e-06
-1.84258e-06
2.87283e-06
2.49155e-06
-2.04744e-06
2.89336e-06
3.01435e-06
-1.80451e-06
2.20626e-06
4.04503e-06
-1.94303e-06
4.4646e-07
4.86056e-06
-1.5961e-06
-9.41918e-08
5.08185e-06
-8.06789e-07
3.77265e-08
4.21127e-06
-2.87465e-07
-7.03018e-08
2.06341e-06
-5.43915e-07
-6.63359e-07
-7.96278e-09
-1.23967e-07
-2.60651e-06
1.00818e-06
6.67923e-07
2.71279e-06
-3.49448e-07
1.74447e-06
4.31762e-06
-1.35083e-06
2.90826e-06
3.82377e-06
-1.22437e-06
3.64469e-06
1.83774e-06
-1.37625e-06
3.95509e-06
3.34412e-07
-1.29467e-06
3.84563e-06
-3.29585e-07
-4.80382e-07
3.09841e-06
-7.15634e-07
5.69153e-07
1.54093e-06
-8.88486e-07
8.26201e-07
-1.33924e-07
-1.0988e-06
-2.47071e-06
-2.51414e-07
-1.34337e-07
1.42453e-07
-2.51966e-07
-1.91239e-07
4.7854e-08
-9.42725e-08
-6.61902e-08
-1.1868e-07
-1.44721e-08
3.37573e-08
-8.52095e-08
-7.79546e-08
4.30062e-08
-4.40186e-09
-1.76016e-07
2.12977e-08
3.0927e-08