/*--------------------------------*- C++ -*----------------------------------*\
| =========                 |                                                 |
| \\      /  F ield         | OpenFOAM: The Open Source CFD Toolbox           |
|  \\    /   O peration     | Version:  2312                                  |
|   \\  /    A nd           | Website:  www.openfoam.com                      |
|    \\/     M anipulation  |                                                 |
\*---------------------------------------------------------------------------*/
FoamFile
{
    version     2.0;
    format      ascii;
    arch        "LSB;label=32;scalar=64";
    class       volVectorField;
    location    "0.47";
    object      U;
}
// * * * * * * * * * * * * * * * * * * * * * * * * * * * * * * * * * * * * * //

dimensions      [0 1 -1 0 0 0 0];

internalField   nonuniform List<vector> 
8000
(
(-0.00241358 0.00331229 -0.00244632)
(-0.00561775 0.00268032 -0.00244793)
(-0.00828601 0.00269996 -0.00254947)
(-0.0110444 0.002518 -0.00271261)
(-0.0127203 0.0021917 -0.00295167)
(-0.0133088 0.00183004 -0.00333721)
(-0.0125574 0.00145065 -0.00387666)
(-0.0103586 0.00110981 -0.00453558)
(-0.00689431 0.000882069 -0.00512415)
(-0.00234603 0.000765874 -0.00556585)
(-0.00349769 0.0126981 -0.00354013)
(-0.00844801 0.0108048 -0.00344809)
(-0.0125906 0.0108129 -0.00357834)
(-0.0160378 0.010084 -0.00371474)
(-0.0177864 0.0088266 -0.00396402)
(-0.0179756 0.00744381 -0.00439914)
(-0.0164123 0.00608818 -0.00498072)
(-0.0131421 0.00490553 -0.00565413)
(-0.00853909 0.00401581 -0.00618341)
(-0.00285146 0.00349703 -0.00660603)
(-0.00376432 0.0256599 -0.00378668)
(-0.00874254 0.0221343 -0.00375107)
(-0.013047 0.0205341 -0.0036627)
(-0.0167857 0.0180989 -0.00364253)
(-0.018855 0.015037 -0.00372401)
(-0.0192242 0.0119852 -0.00400153)
(-0.0177215 0.00919429 -0.0044328)
(-0.0143537 0.0069309 -0.00502799)
(-0.00942855 0.00535177 -0.00565415)
(-0.00321019 0.00443409 -0.00619814)
(-0.00399623 0.034595 -0.0039775)
(-0.0107904 0.0299556 -0.00401567)
(-0.0163028 0.0292959 -0.00425142)
(-0.0200275 0.0271452 -0.00397258)
(-0.0223727 0.0229274 -0.00388064)
(-0.0227828 0.0184708 -0.00387883)
(-0.0209499 0.0143288 -0.00404305)
(-0.0168358 0.0108404 -0.00445189)
(-0.0109567 0.00827864 -0.00482554)
(-0.0037655 0.00669215 -0.00519944)
(-0.000112112 0.0514538 0.000251447)
(-0.00693489 0.0455409 -0.000611168)
(-0.0169733 0.0408004 -0.00356195)
(-0.0226253 0.0348725 -0.00334894)
(-0.0264346 0.0272327 -0.00220615)
(-0.0273313 0.0193889 -0.00122211)
(-0.0253628 0.0117948 -7.10173e-05)
(-0.0206795 0.00596943 0.00110259)
(-0.0135687 0.00205193 0.00183071)
(-0.00472079 -0.000343316 0.00187678)
(0.00689232 0.0504456 0.00649559)
(-0.00322347 0.053028 0.00661084)
(-0.0237525 0.0557801 0.00201708)
(-0.0357959 0.04902 0.0018273)
(-0.043368 0.036986 0.00454628)
(-0.0460043 0.0242961 0.00835572)
(-0.0440512 0.0120797 0.0118661)
(-0.0360658 0.000271993 0.013878)
(-0.0237638 -0.0090503 0.0146446)
(-0.00899468 -0.014015 0.0151664)
(0.00951897 0.040055 0.00853076)
(-0.00416797 0.0567325 0.0125283)
(-0.0321055 0.0649777 0.0118788)
(-0.053997 0.0527555 0.0134994)
(-0.0691665 0.0300151 0.0166319)
(-0.0733638 0.00132993 0.0190904)
(-0.0656887 -0.0285449 0.0188684)
(-0.0509758 -0.0498805 0.016979)
(-0.0321896 -0.0622155 0.0158472)
(-0.011668 -0.0677986 0.0159356)
(-0.000990487 0.0480093 0.000149686)
(-0.0276922 0.0789564 0.00751765)
(-0.0642867 0.0860722 0.0147336)
(-0.0892526 0.0631408 0.0165107)
(-0.0990576 0.0204632 0.0122336)
(-0.0963375 -0.0247246 0.00409534)
(-0.0842876 -0.0554747 -0.00251762)
(-0.0634707 -0.0739682 -0.00509004)
(-0.0388308 -0.0858049 -0.00545934)
(-0.0124753 -0.0922203 -0.00492346)
(-0.0162576 0.0979123 -0.0116641)
(-0.0697057 0.131253 -0.00440724)
(-0.127188 0.123956 -0.0102821)
(-0.154902 0.0743704 -0.0262914)
(-0.160956 0.0237719 -0.0373004)
(-0.149642 -0.0165534 -0.0387059)
(-0.123263 -0.0507836 -0.037049)
(-0.0901165 -0.0750771 -0.0335121)
(-0.052825 -0.0898865 -0.0290352)
(-0.0155065 -0.0961705 -0.0262548)
(-0.0249418 0.181536 -0.018272)
(-0.0875625 0.214185 -0.0170567)
(-0.134416 0.182415 -0.0350252)
(-0.152769 0.114267 -0.0543482)
(-0.168704 0.0473953 -0.0553386)
(-0.141309 -0.0402536 -0.0647374)
(-0.0845376 -0.0883851 -0.0871761)
(-0.082946 -0.14387 -0.0647825)
(-0.0407991 -0.176758 -0.0380611)
(-0.00326242 -0.183615 -0.0322957)
(-0.0269058 0.295527 -0.0255612)
(-0.0595548 0.308571 -0.0314531)
(-0.0199353 0.230281 -0.0309864)
(0.024287 0.21393 -0.00514802)
(-0.101004 0.0673058 0.000499373)
(-0.144763 -0.0662037 -0.0449447)
(-0.112813 -0.0775436 -0.0681056)
(-0.0650671 -0.11979 -0.0671167)
(-0.0264784 -0.140213 -0.0511685)
(0.00483295 -0.14912 -0.0314568)
(-0.0211452 0.362756 -0.029604)
(0.0312744 0.339784 -0.0507704)
(0.233502 0.226928 0.00484808)
(-0.142532 0.358218 0.00595849)
(-0.146904 0.200805 -0.0507678)
(-0.139277 0.120742 -0.119755)
(-0.120493 0.0925759 -0.147202)
(-0.0833218 0.0823569 -0.172013)
(-0.035381 0.0598679 -0.172345)
(0.0128104 0.0282143 -0.158204)
(-0.017432 0.292913 -0.0299404)
(0.0757066 -0.024272 -0.110753)
(-0.0921548 0.452923 0.00807505)
(-0.247102 0.439128 0.0150083)
(-0.21439 0.266848 0.0115134)
(-0.171544 0.200245 -0.0440039)
(-0.132197 0.167555 -0.104754)
(-0.0773471 0.144637 -0.139008)
(-0.00797792 0.122536 -0.134782)
(0.0441958 0.0977643 -0.106593)
(-0.0323146 0.0217022 -0.0238086)
(0.0183182 0.470991 -0.10515)
(-0.190172 0.590266 -0.0315758)
(-0.200448 0.452845 0.0236456)
(-0.175889 0.154566 0.0808912)
(-0.177491 0.0831958 0.0510974)
(-0.13912 0.149557 -0.0390896)
(-0.0691997 0.167652 -0.0929727)
(-0.00331189 0.164119 -0.0940703)
(0.0435612 0.1471 -0.0675172)
(-0.00262293 0.150328 0.0175004)
(0.0846819 0.742413 -0.0336879)
(-0.0464453 0.790685 -0.0334003)
(0.00980719 0.515258 0.0368084)
(0.0116721 0.0775643 0.0773775)
(-0.0924696 -0.0779281 0.0785561)
(-0.117711 0.0291505 0.0307769)
(-0.067914 0.125951 -0.0412646)
(-0.016403 0.161062 -0.0493851)
(0.0240074 0.154308 -0.029536)
(-0.0289778 0.0149252 0.0378834)
(0.10533 0.706129 0.0652071)
(0.122072 0.83395 0.0524946)
(0.203031 0.482022 0.0909164)
(0.167973 0.0273298 0.0604042)
(0.0214912 -0.104084 0.0396964)
(-0.0640452 -0.0435554 0.0373516)
(-0.0514081 0.0398715 0.00665241)
(-0.0168786 0.0890512 0.000968118)
(0.0110558 0.0991413 0.00592327)
(-0.066758 -0.0731689 0.0425834)
(0.0261599 0.408113 0.107783)
(0.142368 0.578482 0.103501)
(0.213112 0.273224 0.0521042)
(0.163253 0.00202841 -0.0245593)
(0.0668088 -0.0628858 -0.0113561)
(-0.000388199 -0.0424996 0.00441624)
(-0.0141032 -0.0180065 0.00995893)
(-0.00796709 0.00835727 0.0149506)
(-0.00147817 0.0307986 0.0171383)
(-0.0733815 -0.0795655 0.0158678)
(-0.0829975 0.155781 0.00506755)
(0.0111428 0.289513 -0.0220813)
(0.0853483 0.172926 -0.0899278)
(0.0840046 0.0459999 -0.0728984)
(0.0631655 -0.0101765 -0.0336868)
(0.0322091 -0.0190631 -0.0159009)
(0.0121755 -0.0160855 -0.00480815)
(-0.000771734 -0.00362852 0.000939311)
(-0.00580755 0.00413028 0.00563801)
(-0.0696199 -0.019718 -0.00292781)
(-0.120222 0.132106 -0.0665919)
(-0.0877709 0.217411 -0.109057)
(-0.0136539 0.168389 -0.0959443)
(0.0157362 0.0523292 -0.0448344)
(0.0325791 0.0149617 -0.022674)
(0.020945 0.00014652 -0.0109838)
(0.0074364 -0.00589732 -0.00374309)
(-0.000759113 -0.00414085 -0.00144749)
(-0.00301568 -0.00509023 0.000321798)
(-0.0617865 0.0607139 -0.000972564)
(-0.100735 0.187108 -0.0504959)
(-0.0889118 0.227327 -0.0748049)
(-0.0305318 0.145721 -0.0245502)
(-0.00913821 0.0362181 -0.003681)
(-0.00021788 0.00883595 -0.0010031)
(0.00496454 0.00167444 -0.00117203)
(-1.04538e-05 -0.00423432 0.000366618)
(-0.00350921 -0.00660043 0.00038282)
(-0.00630911 -0.00970545 0.000493438)
(-0.00241448 0.00267531 -0.00570163)
(-0.00491989 0.00156492 -0.00500382)
(-0.00674583 0.00158734 -0.00531212)
(-0.00899472 0.00138138 -0.00554711)
(-0.0101946 0.000892705 -0.00581257)
(-0.010398 0.000297192 -0.00623828)
(-0.00946025 -0.000306316 -0.00682046)
(-0.00745909 -0.000793508 -0.00755917)
(-0.00479893 -0.00100923 -0.00818364)
(-0.00153415 -0.0011429 -0.00880823)
(-0.00340613 0.0108118 -0.00854717)
(-0.00727872 0.00773614 -0.00736926)
(-0.0103791 0.00792121 -0.00765787)
(-0.0133037 0.00718184 -0.00776548)
(-0.0147423 0.00559287 -0.00791407)
(-0.0148427 0.00366949 -0.00828733)
(-0.0134971 0.00171446 -0.00884457)
(-0.0107164 -0.000116353 -0.00953617)
(-0.00697778 -0.00179494 -0.0101608)
(-0.00230584 -0.00319217 -0.0107101)
(-0.00374114 0.0221336 -0.00879112)
(-0.00760393 0.0165668 -0.00753707)
(-0.0106149 0.0153978 -0.00774353)
(-0.013718 0.0131739 -0.00767536)
(-0.0154605 0.00963507 -0.00767693)
(-0.0156843 0.00578545 -0.00793112)
(-0.0143407 0.00196115 -0.0084439)
(-0.0116496 -0.00151839 -0.00923929)
(-0.0078509 -0.00439599 -0.00992218)
(-0.00263432 -0.00688973 -0.010393)
(-0.00407904 0.0300922 -0.010708)
(-0.00914708 0.0216225 -0.00892262)
(-0.0134581 0.0217614 -0.00925147)
(-0.0164595 0.0202789 -0.00834328)
(-0.0184243 0.0159346 -0.00739911)
(-0.01877 0.0108044 -0.00680328)
(-0.0173896 0.00585923 -0.00656288)
(-0.0140295 0.0012507 -0.00673103)
(-0.00917714 -0.00334074 -0.00691575)
(-0.00308315 -0.0074253 -0.0070845)
(-0.000895486 0.0460187 -0.00676239)
(-0.00103594 0.0351736 -0.00175734)
(-0.00807141 0.0314187 -0.0065986)
(-0.0148933 0.026681 -0.00734096)
(-0.019742 0.0188987 -0.00568065)
(-0.0211439 0.0108994 -0.00422552)
(-0.0196637 0.0032632 -0.00299788)
(-0.0161657 -0.00347675 -0.00172278)
(-0.010997 -0.00892595 -0.00038897)
(-0.00409954 -0.0126611 0.000170014)
(0.00736816 0.0528972 -0.00582354)
(0.0118201 0.0433624 0.007622)
(-0.00224745 0.0451476 0.00475416)
(-0.0151141 0.0429628 0.00158179)
(-0.0246875 0.032754 0.00465933)
(-0.0283533 0.0219194 0.0105509)
(-0.0285403 0.0132942 0.0151775)
(-0.0246759 0.00605456 0.0171347)
(-0.0171483 0.000150364 0.0175057)
(-0.00728221 -0.00336795 0.0174141)
(0.0127279 0.0557629 -0.00730819)
(0.00950383 0.0593425 0.00651363)
(-0.0115716 0.0676617 0.0126304)
(-0.0256251 0.0616574 0.0149066)
(-0.0367836 0.0437286 0.020773)
(-0.0415141 0.0243928 0.0254751)
(-0.039249 0.00860551 0.0252459)
(-0.0307014 -0.00347128 0.0215607)
(-0.0198602 -0.01126 0.018387)
(-0.00849049 -0.0142819 0.0176901)
(0.00606262 0.0775975 -0.0265364)
(-0.0160302 0.0947123 -0.0163281)
(-0.0412517 0.100004 -0.00473265)
(-0.0544649 0.0855504 -0.000809099)
(-0.0626674 0.0619326 0.00113841)
(-0.0629938 0.0408042 0.000953784)
(-0.057357 0.0253271 -0.000202009)
(-0.0456058 0.0133247 -0.000348842)
(-0.029727 0.0054553 0.00133209)
(-0.0113359 0.00161936 0.00385282)
(-0.00584773 0.131622 -0.0650177)
(-0.0440922 0.150243 -0.0417944)
(-0.0773059 0.145535 -0.0304653)
(-0.0979688 0.120115 -0.020985)
(-0.11063 0.0877177 -0.0116917)
(-0.108445 0.0586364 0.000183548)
(-0.0958049 0.0329244 0.0127313)
(-0.0755395 0.00898659 0.0231813)
(-0.0478888 -0.00720408 0.0277289)
(-0.0161383 -0.0139088 0.0273498)
(-0.0172782 0.219208 -0.0841308)
(-0.0440312 0.227827 -0.0440781)
(-0.068815 0.193316 -0.0260548)
(-0.0906963 0.130108 -0.00538541)
(-0.136103 0.0513444 0.0286847)
(-0.182497 -0.0363275 0.0621685)
(-0.17681 -0.116302 0.0596666)
(-0.120772 -0.182405 0.00284066)
(-0.0810847 -0.208164 -0.0272209)
(-0.0290966 -0.212534 -0.0143975)
(-0.0222864 0.289559 -0.0474594)
(-0.0138209 0.268823 -0.0272303)
(0.0397147 0.224577 0.00349734)
(-0.0351291 0.163624 0.0289253)
(-0.092815 0.0355832 -0.0451752)
(-0.0874227 -0.112963 -0.164237)
(-0.0528851 -0.24181 -0.215898)
(-0.0615455 -0.211568 -0.226457)
(-0.0678762 -0.199283 -0.217866)
(-0.0397261 -0.225483 -0.200374)
(-0.0281519 0.350404 0.0497081)
(0.0319602 0.186344 0.0348628)
(-0.0868702 0.296161 -0.00491755)
(-0.121097 0.317464 -0.0491462)
(-0.109564 0.182652 -0.172913)
(-0.0792189 0.0321903 -0.241275)
(-0.0663113 -0.0203564 -0.245658)
(-0.0688436 0.00737829 -0.291486)
(-0.0673455 -0.0252502 -0.298082)
(-0.0375048 -0.10316 -0.264115)
(-0.0279652 -5.26684e-05 0.0714957)
(-0.0315539 0.282328 -0.24202)
(-0.149675 0.472063 -0.0430929)
(-0.131413 0.452131 -0.0757096)
(-0.130011 0.294113 -0.0866793)
(-0.0676014 0.12409 -0.0328872)
(-0.0331565 0.024476 -0.0465794)
(-0.0032553 0.0122139 -0.125148)
(0.00802668 -0.0141933 -0.151008)
(0.00438658 -0.0802882 -0.107413)
(0.01976 0.2632 0.00708858)
(0.0147384 0.546697 -0.258218)
(-0.163661 0.615512 -0.110442)
(-0.142131 0.544982 -0.0406661)
(-0.158733 0.314288 0.0914328)
(-0.0877671 0.109739 0.13945)
(0.0301858 0.00715108 0.0785208)
(0.0866098 0.0141983 0.00892856)
(0.0889823 0.043686 -0.053481)
(0.0473283 0.0119362 -0.0462228)
(0.0707267 0.29548 0.0676712)
(0.113736 0.757668 -0.120384)
(-0.113906 0.765701 -0.136149)
(-0.095442 0.648634 -0.00309548)
(-0.072139 0.321451 0.170652)
(-0.0136517 0.0482179 0.16825)
(0.0652764 -0.0690863 0.100828)
(0.0955383 -0.0448851 0.0608528)
(0.0846193 0.0448187 0.0209834)
(0.0346656 0.0553601 0.0160169)
(0.00360057 0.0136631 0.113474)
(0.18591 0.843753 0.0817531)
(0.0311129 0.98661 -0.0172984)
(0.0464249 0.772525 0.0837799)
(0.0896641 0.378431 0.181057)
(0.132134 0.0730762 0.118667)
(0.115498 -0.0720308 0.0732734)
(0.0499723 -0.0293683 0.0668969)
(0.0271802 0.056668 0.0561408)
(0.00584467 0.0654945 0.0599653)
(-0.0999309 -0.069647 0.0923475)
(0.156992 0.745404 0.236693)
(0.150571 1.04022 0.149682)
(0.188524 0.83706 0.169829)
(0.229098 0.44495 0.139896)
(0.231278 0.0929189 0.0493404)
(0.125512 -0.0292757 0.040313)
(0.0270859 -0.00421317 0.0550883)
(0.00254283 0.022345 0.06009)
(-0.00787485 0.0267322 0.062656)
(-0.110425 -0.0654342 0.0504561)
(0.0249704 0.503045 0.216585)
(0.139947 0.902258 0.197244)
(0.216784 0.760433 0.137832)
(0.256567 0.36503 0.0392269)
(0.199123 0.0834395 0.00936353)
(0.0893286 0.0177736 0.0251314)
(0.0347672 0.00838019 0.0288534)
(0.0115745 0.0105955 0.0312032)
(0.0021842 0.00809065 0.031124)
(-0.10594 -0.00322426 0.0119193)
(-0.112695 0.304008 0.0593813)
(0.0159243 0.619738 0.0766435)
(0.111937 0.500661 0.0103383)
(0.126745 0.217061 -0.00102482)
(0.085529 0.0761917 0.0168758)
(0.0477057 0.0237736 0.0151447)
(0.0264081 0.00453402 0.0141881)
(0.0110612 0.00133652 0.0140195)
(0.00281093 -0.00542173 0.0140519)
(-0.0899163 0.0922466 0.0132505)
(-0.13895 0.245545 -0.0300125)
(-0.0805638 0.375542 -0.0300557)
(-0.00909745 0.316147 -0.00503214)
(0.0065009 0.131146 0.0395884)
(0.0171122 0.0434233 0.0293617)
(0.0188707 0.0056725 0.0140116)
(0.0122753 -0.00344236 0.0112475)
(0.00485477 -0.00680276 0.0100219)
(-0.00451015 -0.0121642 0.00869202)
(-0.00251418 0.00269671 -0.00842737)
(-0.00522539 0.0015923 -0.00688147)
(-0.00729726 0.00167321 -0.00743079)
(-0.00978145 0.0015188 -0.00767652)
(-0.0111835 0.00104328 -0.00781473)
(-0.0115006 0.000409677 -0.00804343)
(-0.010571 -0.000254319 -0.00827129)
(-0.00841091 -0.000776979 -0.00842627)
(-0.00560745 -0.00117969 -0.00834083)
(-0.00187986 -0.00155177 -0.00841509)
(-0.00353203 0.0108267 -0.0127592)
(-0.00756069 0.00795184 -0.0105327)
(-0.0109388 0.0081471 -0.0110871)
(-0.0142209 0.00748035 -0.0111679)
(-0.0159458 0.00590936 -0.0111444)
(-0.0162271 0.00390852 -0.0112962)
(-0.0149398 0.001692 -0.0115456)
(-0.0120904 -0.000664009 -0.011805)
(-0.00793094 -0.00300979 -0.0116861)
(-0.00232875 -0.00500691 -0.0115317)
(-0.00361239 0.0205318 -0.0131962)
(-0.0077186 0.0154479 -0.0106101)
(-0.0111826 0.0149872 -0.0112423)
(-0.0147141 0.0133188 -0.0112266)
(-0.0167977 0.0103039 -0.0111759)
(-0.0173111 0.00672109 -0.0113614)
(-0.0161832 0.00273868 -0.0118028)
(-0.0133595 -0.00141332 -0.012343)
(-0.00883979 -0.00539924 -0.0125081)
(-0.0024035 -0.00829612 -0.0127306)
(-0.00423522 0.0294782 -0.0162786)
(-0.00935818 0.0220637 -0.013218)
(-0.0134211 0.0222659 -0.0132434)
(-0.0169988 0.0208288 -0.0120525)
(-0.0194877 0.016488 -0.0108203)
(-0.0204754 0.0112526 -0.0102863)
(-0.0195676 0.00583698 -0.0103847)
(-0.0164219 0.00021339 -0.0109875)
(-0.0112545 -0.00471242 -0.0119408)
(-0.00364838 -0.00660632 -0.0137166)
(-0.0036056 0.0412151 -0.017047)
(-0.00654209 0.031855 -0.00958272)
(-0.0115307 0.0292556 -0.0118935)
(-0.0180475 0.0267607 -0.0127617)
(-0.0229561 0.0220161 -0.0118155)
(-0.0244257 0.0161377 -0.0108813)
(-0.0232557 0.00892983 -0.0104188)
(-0.0199502 0.00162567 -0.0103568)
(-0.0146444 -0.00288106 -0.0112242)
(-0.00598 -0.00234766 -0.0144054)
(0.00250524 0.0561615 -0.0271513)
(0.00582772 0.0453171 -0.00772989)
(-0.00264656 0.0441719 -0.00516644)
(-0.0137007 0.0415627 -0.00628973)
(-0.0224732 0.0305096 -0.00321706)
(-0.0259697 0.0190316 0.00121212)
(-0.026316 0.0105192 0.00325313)
(-0.0237794 0.00506906 0.00211661)
(-0.0185485 0.0038615 -0.00158161)
(-0.00883454 0.00715904 -0.00624801)
(0.0118004 0.0638738 -0.0352755)
(0.0136161 0.0668784 -0.0161128)
(-0.0036909 0.0713801 -0.00610746)
(-0.0152022 0.0689723 -0.00219785)
(-0.0249658 0.0567844 0.00243219)
(-0.0292689 0.045381 0.00493037)
(-0.0295888 0.0347892 0.00340465)
(-0.0257628 0.024805 -0.000563166)
(-0.019563 0.0190809 -0.00456482)
(-0.00967267 0.0188003 -0.00756281)
(0.0155958 0.0850828 -0.0629626)
(-0.003176 0.0993045 -0.0437444)
(-0.0301812 0.10418 -0.0325697)
(-0.0444882 0.0934995 -0.0287441)
(-0.0563164 0.0731688 -0.0266201)
(-0.0602619 0.0529834 -0.0269747)
(-0.0579949 0.0355133 -0.0302013)
(-0.0487751 0.0221101 -0.0342149)
(-0.0327714 0.0137926 -0.0372899)
(-0.0112838 0.0101882 -0.0383751)
(-0.00736147 0.121297 -0.12447)
(-0.026878 0.146551 -0.0780004)
(-0.0585186 0.141093 -0.0591634)
(-0.0720495 0.123592 -0.0407294)
(-0.083714 0.0979496 -0.0205887)
(-0.0810357 0.0708112 0.00334803)
(-0.0713839 0.0442888 0.0319274)
(-0.0586537 0.0186533 0.0572046)
(-0.0410745 0.00274003 0.0672812)
(-0.0179678 -0.00342334 0.0669937)
(-0.0299818 0.17607 -0.133583)
(-0.0202349 0.194612 -0.0689689)
(-0.0289685 0.180574 -0.038426)
(-0.034255 0.145416 0.00265877)
(-0.0948607 0.0784335 0.077264)
(-0.185445 -0.0273078 0.173006)
(-0.179207 -0.112354 0.174926)
(-0.117387 -0.189216 0.0942373)
(-0.0960917 -0.22601 0.103314)
(-0.0496271 -0.205161 0.0941328)
(-0.0264762 0.211431 -0.0167872)
(0.0154454 0.211016 0.0345462)
(0.0509452 0.214911 -0.0518568)
(-0.0552883 0.20242 -0.0795513)
(-0.0986494 0.167688 -0.0891995)
(-0.079437 0.13271 -0.146887)
(-0.0228287 0.0213706 -0.255074)
(-0.0603321 0.0171143 -0.279361)
(-0.0887097 -0.000763322 -0.279264)
(-0.0557186 -0.0311169 -0.257044)
(0.0121229 0.203225 0.165802)
(0.037806 0.275895 -0.134101)
(-0.0350803 0.351914 -0.185646)
(-0.115386 0.336212 -0.194882)
(-0.131959 0.195144 -0.249477)
(-0.0929632 -0.00154287 -0.277046)
(-0.0669132 -0.0746234 -0.278082)
(-0.0750227 -0.0489242 -0.311767)
(-0.0843715 -0.0895474 -0.313827)
(-0.0633174 -0.159554 -0.280788)
(0.0434399 0.413496 -0.126527)
(0.0317796 0.439607 -0.300554)
(-0.0803356 0.487286 -0.221545)
(-0.0997197 0.432921 -0.210614)
(-0.123496 0.201002 -0.199529)
(-0.0719075 0.00685256 -0.160018)
(-0.0171764 -0.0519281 -0.145442)
(-0.0120665 -0.0181247 -0.15737)
(-0.0465724 -0.0574161 -0.165806)
(-0.0702394 -0.14926 -0.126183)
(0.0955416 0.413791 -0.110413)
(0.108653 0.540783 -0.302142)
(-0.0360466 0.593785 -0.25034)
(-0.0448634 0.518085 -0.17796)
(-0.0979098 0.287058 -0.0758637)
(-0.013557 0.0496301 -0.0335728)
(0.0701267 -0.0728846 -0.0433183)
(0.0907427 -0.0395383 -0.0695563)
(0.0484471 -0.0190804 -0.0792796)
(-0.0475743 -0.0965227 -0.0257372)
(0.124461 0.171133 0.106349)
(0.222784 0.556966 -0.104839)
(0.0726371 0.671916 -0.231969)
(-0.00962261 0.602823 -0.170364)
(-0.0481111 0.376999 -0.00786769)
(0.0695865 0.0661564 0.0247724)
(0.126771 -0.091619 0.0423391)
(0.113144 -0.046389 0.038369)
(0.0626091 0.0197531 0.0217786)
(-0.0202365 -0.0372002 0.0497618)
(0.00938804 -0.0552054 0.133219)
(0.265064 0.572649 0.122465)
(0.166418 0.778753 -0.0897891)
(0.03088 0.717118 -0.102215)
(0.0591359 0.42827 0.0196365)
(0.161728 0.0479203 0.0479592)
(0.130575 -0.0869317 0.083707)
(0.0524588 -0.0158729 0.095843)
(0.0171178 0.0328358 0.0899356)
(-0.0164165 -0.0154325 0.0897986)
(-0.0868467 -0.0770954 0.0712202)
(0.222054 0.570659 0.277358)
(0.208692 0.888224 0.121675)
(0.1176 0.824069 0.0522789)
(0.18936 0.411124 0.0694409)
(0.202744 0.0290117 0.0860429)
(0.0854187 -0.0378261 0.102046)
(0.0188195 0.00317216 0.10033)
(0.00790578 0.00934547 0.0941432)
(-0.000881446 -0.0157063 0.0789826)
(-0.119533 -0.0426559 0.0429823)
(0.0497154 0.454025 0.271151)
(0.152937 0.876113 0.235374)
(0.163622 0.742969 0.148005)
(0.223727 0.292327 0.119032)
(0.142259 0.0392873 0.111844)
(0.0519427 0.000219305 0.0829339)
(0.0277797 -0.00068656 0.0631602)
(0.0177134 -0.00135056 0.0540522)
(0.00605358 -0.0161457 0.0466676)
(-0.114094 0.0537451 0.0255096)
(-0.120938 0.338031 0.123081)
(0.0253159 0.670756 0.184288)
(0.0997658 0.493209 0.143868)
(0.112735 0.194568 0.135326)
(0.0559522 0.0573934 0.0897877)
(0.0342202 0.00540921 0.0513269)
(0.0212142 -0.00622537 0.0383516)
(0.0110976 -0.0079483 0.0325159)
(-0.00272765 -0.0164836 0.0291547)
(-0.0774042 0.166734 0.0324441)
(-0.132835 0.309859 -0.00220226)
(-0.0394096 0.457334 0.0600419)
(0.00484635 0.34596 0.119198)
(0.0134902 0.161341 0.102284)
(0.0177174 0.0577313 0.0533102)
(0.0214363 -0.000405238 0.0331048)
(0.0119107 -0.0120439 0.0272478)
(0.00475663 -0.0115688 0.023088)
(-0.0102449 -0.0162708 0.0198537)
(-0.00267362 0.00251578 -0.0112683)
(-0.00545397 0.00138929 -0.00920522)
(-0.00753853 0.0015219 -0.00997487)
(-0.0101658 0.00149084 -0.0103556)
(-0.0117873 0.00112045 -0.0105809)
(-0.0122531 0.000616036 -0.0108458)
(-0.011279 0.000157157 -0.0109678)
(-0.00883135 -0.000165737 -0.0107973)
(-0.00553851 -0.000405586 -0.010107)
(-0.00139179 -0.000536556 -0.0101143)
(-0.00366267 0.0100829 -0.0162928)
(-0.00765703 0.00721197 -0.0135432)
(-0.0110139 0.00748289 -0.014434)
(-0.0145058 0.00705526 -0.0147118)
(-0.0165573 0.00566035 -0.0148559)
(-0.0171063 0.00379165 -0.0152244)
(-0.0158492 0.00165162 -0.0156665)
(-0.0124611 -0.000543736 -0.0159902)
(-0.00747917 -0.00234506 -0.0157365)
(-0.00124893 -0.00306631 -0.0155685)
(-0.0035653 0.0181129 -0.0170862)
(-0.007582 0.0132419 -0.0139198)
(-0.0111121 0.0133646 -0.0149024)
(-0.0148997 0.0126032 -0.0151041)
(-0.0173885 0.0104172 -0.0152352)
(-0.0183556 0.00733361 -0.0156946)
(-0.0175163 0.0034587 -0.016491)
(-0.0146349 -0.000657749 -0.0176145)
(-0.0101181 -0.00336874 -0.0191748)
(-0.00291029 -0.00261521 -0.021709)
(-0.00390776 0.0272339 -0.0201313)
(-0.00829 0.0207064 -0.0163816)
(-0.0120677 0.0210005 -0.0169101)
(-0.0160375 0.0199792 -0.0160266)
(-0.0193299 0.0165108 -0.0153659)
(-0.0212552 0.0122069 -0.0156072)
(-0.0211753 0.00723679 -0.0166206)
(-0.0190088 0.00255799 -0.0186239)
(-0.0149107 0.00171263 -0.0230576)
(-0.00582597 0.00626408 -0.0308146)
(-0.00318926 0.0354665 -0.022977)
(-0.00734737 0.0274037 -0.0160982)
(-0.0129651 0.0272203 -0.0183384)
(-0.0187091 0.0278729 -0.0186181)
(-0.0230723 0.02612 -0.0171078)
(-0.0252248 0.021574 -0.0159094)
(-0.02582 0.0149924 -0.015957)
(-0.0246808 0.0100508 -0.0181582)
(-0.0204427 0.0112635 -0.0254125)
(-0.00855152 0.0169164 -0.0373954)
(0.00221628 0.0490942 -0.0388775)
(0.00146065 0.0432278 -0.0195806)
(-0.00600272 0.0417201 -0.0160253)
(-0.0151713 0.037312 -0.0154575)
(-0.0235274 0.0288678 -0.0127827)
(-0.028952 0.022985 -0.0114935)
(-0.0313236 0.0200799 -0.0130908)
(-0.0303771 0.0214422 -0.0181031)
(-0.0247466 0.0282224 -0.0272028)
(-0.0112549 0.0356156 -0.0391216)
(0.0129327 0.0523257 -0.0570375)
(0.014181 0.0605124 -0.0301244)
(-0.0021331 0.068322 -0.0178901)
(-0.0146383 0.0711187 -0.0147133)
(-0.0260474 0.0678379 -0.0115897)
(-0.0319618 0.0636975 -0.00864759)
(-0.0332568 0.0579542 -0.00694521)
(-0.0299075 0.0547037 -0.00608768)
(-0.0217102 0.0549091 -0.00538181)
(-0.0081485 0.0572017 -0.00699881)
(0.018328 0.064582 -0.0886494)
(0.00130604 0.0848831 -0.0578383)
(-0.0260872 0.0929622 -0.0470591)
(-0.042057 0.0850083 -0.044203)
(-0.0546423 0.0666364 -0.0397685)
(-0.0575856 0.0492277 -0.0334131)
(-0.0535046 0.03627 -0.0285886)
(-0.0431074 0.0291284 -0.0278365)
(-0.0259665 0.0279631 -0.0299234)
(-0.00212261 0.0360996 -0.0324203)
(-0.0228557 0.0724791 -0.151428)
(-0.0178263 0.118909 -0.0986764)
(-0.0383072 0.123483 -0.0721988)
(-0.038407 0.112937 -0.0393328)
(-0.0459062 0.089232 0.00401904)
(-0.0442504 0.0588966 0.0539592)
(-0.0372639 0.0255004 0.107407)
(-0.0365083 -0.00128385 0.168409)
(-0.0410039 -0.0199892 0.196171)
(-0.0241022 -0.0086841 0.160014)
(-0.0463741 0.110792 -0.134941)
(-0.00313012 0.127381 -0.0924081)
(0.0156098 0.140453 -0.0461571)
(0.0562688 0.143489 0.0378993)
(-0.00246034 0.107654 0.138785)
(-0.0657047 -0.068274 0.107447)
(-0.0636716 -0.222528 0.0514269)
(-0.0586139 -0.323997 -0.0558079)
(-0.105645 -0.259744 -0.103019)
(-0.0571379 -0.110195 -0.137149)
(-0.00622729 0.187312 0.015516)
(0.0590399 0.128976 -0.115448)
(0.0189922 0.167551 -0.133279)
(-0.0507431 0.260053 -0.0730524)
(-0.0724262 0.259747 -0.128608)
(-0.00503513 0.16311 -0.264423)
(0.00480235 0.118727 -0.343145)
(-0.0359777 0.12972 -0.377879)
(-0.081312 0.122069 -0.390084)
(-0.0556354 0.0803182 -0.379378)
(0.00745643 0.313255 -0.170246)
(-0.0196095 0.248656 -0.247541)
(-0.117208 0.320086 -0.191537)
(-0.192266 0.310588 -0.18937)
(-0.16674 0.124972 -0.220222)
(-0.11026 -0.0405992 -0.224024)
(-0.077029 -0.0799163 -0.228835)
(-0.0687717 -0.0508367 -0.270813)
(-0.0687379 -0.0759375 -0.276219)
(-0.0586191 -0.130813 -0.237383)
(0.0665228 0.364207 -0.214523)
(-6.27415e-05 0.353212 -0.29259)
(-0.150073 0.394732 -0.203014)
(-0.166179 0.27766 -0.180579)
(-0.146803 0.0192824 -0.153027)
(-0.106794 -0.0973398 -0.152053)
(-0.0710911 -0.0565255 -0.123322)
(-0.0646485 -0.0148306 -0.127323)
(-0.0773 -0.0655152 -0.132969)
(-0.0800541 -0.141619 -0.117248)
(0.11022 0.171244 0.0021545)
(0.165133 0.343491 -0.160317)
(0.0232866 0.435884 -0.202859)
(-0.0496166 0.314225 -0.153539)
(-0.0847016 0.00951491 -0.0850466)
(-0.0700585 -0.151343 -0.070867)
(-0.0350905 -0.105725 -0.0287571)
(-0.0202172 -0.041964 -0.00949253)
(-0.0480373 -0.0809658 -0.00456355)
(-0.076113 -0.151032 -0.00499098)
(0.0795722 -0.0454558 0.0941456)
(0.264515 0.230096 0.0151102)
(0.217528 0.441899 -0.128788)
(0.047233 0.38602 -0.124331)
(-0.0169275 0.047652 -0.0271529)
(-0.015673 -0.149657 0.00537423)
(-0.00213824 -0.117177 0.0467661)
(0.0118836 -0.0460708 0.0689015)
(-0.00768528 -0.0515599 0.0755608)
(-0.0457619 -0.114822 0.0618513)
(0.0248713 -0.103272 -0.00323436)
(0.267378 0.218944 0.102067)
(0.276013 0.473715 -0.00676436)
(0.083594 0.453976 -0.0274864)
(0.047235 0.0838995 0.0539465)
(0.0336976 -0.127029 0.0772849)
(0.00212133 -0.101858 0.103659)
(-0.00310456 -0.0366584 0.12043)
(-0.000880442 -0.0389611 0.115314)
(-0.0173692 -0.0843018 0.0855094)
(-0.0417436 -0.116256 -0.0390454)
(0.170908 0.247437 0.199661)
(0.211878 0.556592 0.141909)
(0.0921371 0.476818 0.126391)
(0.111566 0.0888595 0.14961)
(0.0592743 -0.0803524 0.133445)
(0.0046042 -0.0678536 0.115807)
(0.00284597 -0.0380199 0.110516)
(0.0124126 -0.0368123 0.0974013)
(-0.00108077 -0.0592926 0.0710393)
(-0.0791454 -0.0581032 -0.0242721)
(-0.0280961 0.210014 0.208013)
(0.0965268 0.561912 0.26023)
(0.0999119 0.385277 0.240771)
(0.128409 0.0948479 0.203334)
(0.0548611 -0.0109597 0.13759)
(0.0229721 -0.0357287 0.0867324)
(0.015461 -0.0317502 0.0726219)
(0.0115724 -0.0291717 0.0611031)
(-0.00970675 -0.0425102 0.0457181)
(-0.0638794 0.045222 -0.0204485)
(-0.116634 0.196115 0.0837324)
(0.00857509 0.428887 0.229808)
(0.0877821 0.300538 0.22031)
(0.083978 0.145444 0.178798)
(0.0416393 0.0476295 0.0908616)
(0.0295779 -0.0141341 0.0558551)
(0.0147186 -0.0248349 0.0515053)
(0.00569822 -0.0220052 0.0423651)
(-0.0191766 -0.027663 0.027888)
(-0.0216341 0.142465 0.00523605)
(-0.0686099 0.217093 -0.0237075)
(-0.00635725 0.340646 0.08842)
(0.0458434 0.307997 0.146132)
(0.0338015 0.19759 0.105625)
(0.0283752 0.0736568 0.0430229)
(0.0261199 -0.00668172 0.0399775)
(0.0103972 -0.0201534 0.0410067)
(0.000263968 -0.0167945 0.0326946)
(-0.0255782 -0.0194111 0.018724)
(-0.00290617 0.00220338 -0.0130158)
(-0.00569776 0.000908543 -0.0104722)
(-0.00765521 0.00105666 -0.0114275)
(-0.0103833 0.00113257 -0.0120057)
(-0.0122066 0.00085971 -0.0124172)
(-0.0127342 0.000442862 -0.0128985)
(-0.011594 7.48241e-05 -0.0132736)
(-0.00868407 -0.000216488 -0.0134276)
(-0.00536727 -0.000114885 -0.01269)
(-0.0009877 0.00117467 -0.0128425)
(-0.0039083 0.0087939 -0.0181314)
(-0.00778318 0.00559286 -0.0150635)
(-0.0109645 0.00590464 -0.0162264)
(-0.0146415 0.00565771 -0.0168114)
(-0.0171075 0.00424578 -0.0173494)
(-0.0179941 0.00214506 -0.0182426)
(-0.0168109 -0.000365641 -0.0191518)
(-0.0134869 -0.00282444 -0.019686)
(-0.00935314 -0.00382106 -0.0196329)
(-0.00262372 -0.00161663 -0.0207275)
(-0.00363822 0.0150665 -0.0192881)
(-0.00751679 0.00971959 -0.015839)
(-0.0109994 0.0104048 -0.0171206)
(-0.0150157 0.0104932 -0.0176806)
(-0.0180637 0.00861766 -0.018333)
(-0.0197097 0.00517868 -0.019478)
(-0.0196351 0.000515939 -0.020919)
(-0.0181365 -0.00373712 -0.0228238)
(-0.0155807 -0.00428125 -0.0279953)
(-0.00717466 -0.000499216 -0.0386015)
(-0.00374301 0.0227659 -0.0227293)
(-0.00715806 0.0161598 -0.0186156)
(-0.0106617 0.0166651 -0.0196092)
(-0.0152858 0.0166004 -0.0194596)
(-0.019752 0.0142145 -0.0199015)
(-0.0229555 0.0104956 -0.0212962)
(-0.0244415 0.00541867 -0.0233913)
(-0.0245103 0.00166343 -0.0276483)
(-0.0215881 0.00292926 -0.0397193)
(-0.00945161 0.00477655 -0.058606)
(-0.00189208 0.0278082 -0.0271799)
(-0.00540638 0.0196841 -0.0208158)
(-0.0117243 0.0227524 -0.0232928)
(-0.0170683 0.0265039 -0.0230962)
(-0.0219501 0.025923 -0.0218898)
(-0.026196 0.0213908 -0.0220716)
(-0.0296681 0.0152605 -0.0252416)
(-0.0306767 0.0119214 -0.0344914)
(-0.0253657 0.0130621 -0.0545364)
(-0.0107407 0.0112193 -0.079342)
(0.00459627 0.0363847 -0.0458073)
(0.003965 0.0329136 -0.0278753)
(-0.00389654 0.0311111 -0.0243637)
(-0.0135419 0.0295271 -0.0236904)
(-0.0243008 0.0293251 -0.0236234)
(-0.0329587 0.0325516 -0.0274059)
(-0.0377009 0.0374014 -0.036378)
(-0.0354341 0.0448518 -0.0500847)
(-0.0252463 0.0527095 -0.0689205)
(-0.0129991 0.0526383 -0.0913444)
(0.0155445 0.0306994 -0.0727653)
(0.0182999 0.0424815 -0.0405579)
(0.000719336 0.056357 -0.0278759)
(-0.0124635 0.0680341 -0.026619)
(-0.0235431 0.0729318 -0.0245122)
(-0.0304099 0.0705021 -0.022745)
(-0.032116 0.0649816 -0.0247551)
(-0.0240371 0.063476 -0.0258809)
(-0.0107977 0.0685424 -0.0232198)