/*--------------------------------*- C++ -*----------------------------------*\
| =========                 |                                                 |
| \\      /  F ield         | OpenFOAM: The Open Source CFD Toolbox           |
|  \\    /   O peration     | Version:  2312                                  |
|   \\  /    A nd           | Website:  www.openfoam.com                      |
|    \\/     M anipulation  |                                                 |
\*---------------------------------------------------------------------------*/
FoamFile
{
    version     2.0;
    format      ascii;
    arch        "LSB;label=32;scalar=64";
    class       volScalarField;
    location    "1.145";
    object      p;
}
// * * * * * * * * * * * * * * * * * * * * * * * * * * * * * * * * * * * * * //

dimensions      [1 -1 -2 0 0 0 0];

internalField   nonuniform List<scalar> 
8000
(
355.422
355.877
356.734
357.945
359.368
360.871
362.354
363.608
364.536
365.011
305.323
305.687
306.521
307.915
309.587
311.308
312.957
314.393
315.416
316.005
254.217
254.617
255.414
256.899
258.956
261.099
263.167
264.971
266.338
267.091
202.169
202.595
203.357
205.044
207.434
210.174
212.92
215.284
217.089
218.167
148.624
149.151
150.008
151.858
154.93
158.532
162.168
165.346
167.898
169.309
93.0786
94.0939
96.1157
98.7909
101.765
106.169
110.811
115.281
118.589
120.666
36.4013
37.3149
38.2466
40.6001
45.1669
52.1213
58.8934
64.7038
69.6073
72.5682
4.67244
4.73396
4.80493
5.59925
7.05489
9.34929
13.5017
19.6078
25.7582
29.4589
-0.0751199
-0.0797372
-0.0634286
-0.048819
-0.033334
-0.0489252
-0.0168619
0.377079
2.48463
4.59168
-0.150451
-0.151669
-0.159676
-0.174842
-0.192269
-0.200955
-0.218693
-0.251029
-0.284104
-0.290545
-0.23235
-0.236075
-0.259451
-0.289576
-0.313799
-0.321945
-0.33493
-0.356915
-0.374001
-0.377363
-0.318895
-0.328065
-0.35865
-0.395286
-0.417594
-0.419516
-0.412624
-0.421045
-0.432251
-0.443448
-0.408488
-0.418678
-0.44269
-0.466163
-0.478518
-0.492062
-0.497354
-0.503521
-0.511731
-0.520064
-0.495084
-0.504159
-0.518022
-0.53203
-0.557704
-0.587779
-0.606086
-0.608095
-0.608731
-0.601978
-0.582285
-0.590844
-0.598214
-0.611319
-0.64537
-0.677808
-0.695309
-0.694588
-0.685585
-0.670089
-0.670147
-0.680656
-0.685146
-0.697306
-0.719656
-0.743846
-0.756582
-0.755691
-0.746221
-0.732445
-0.751389
-0.764939
-0.769556
-0.772589
-0.778447
-0.793182
-0.804283
-0.810345
-0.805473
-0.793111
-0.818861
-0.832129
-0.835995
-0.832345
-0.834287
-0.844216
-0.857503
-0.868374
-0.865259
-0.851799
-0.87686
-0.887464
-0.891767
-0.891177
-0.892878
-0.902883
-0.915315
-0.924096
-0.921484
-0.905997
-0.931574
-0.939304
-0.945264
-0.946971
-0.95196
-0.961802
-0.971905
-0.977444
-0.971901
-0.955944
356.054
356.524
357.436
358.603
359.959
361.387
362.933
364.238
365.122
365.529
305.929
306.303
307.186
308.574
310.236
311.952
313.552
314.992
316.032
316.527
255.028
255.193
255.849
257.285
259.495
261.765
263.835
265.667
266.964
267.672
202.967
203.214
203.785
205.452
208.037
210.916
213.775
216.126
217.79
218.688
149.006
149.83
151.052
153.166
156.235
159.89
163.373
166.347
168.535
169.779
93.1636
94.3827
96.4832
99.3142
102.813
107.78
112.156
116.166
119.173
121.066
36.0433
37.091
38.8856
42.384
47.7106
54.7302
60.5437
65.7073
70.0524
72.889
4.30586
4.43425
4.83343
6.03392
7.96473
10.6461
14.8625
20.7275
25.8497
29.4052
-0.0672259
-0.0778036
-0.0677734
-0.0741246
-0.113999
-0.128148
0.0179518
0.812536
2.66915
4.59195
-0.147856
-0.15715
-0.177644
-0.211444
-0.236318
-0.252566
-0.274246
-0.310408
-0.335077
-0.343406
-0.235263
-0.248582
-0.286213
-0.342128
-0.371845
-0.387747
-0.408479
-0.439857
-0.455777
-0.459994
-0.329056
-0.351432
-0.401979
-0.440146
-0.455478
-0.456526
-0.455092
-0.465447
-0.478982
-0.49102
-0.416299
-0.442293
-0.488382
-0.498057
-0.500582
-0.503127
-0.512683
-0.521807
-0.528378
-0.530018
-0.49708
-0.520482
-0.554402
-0.563605
-0.580774
-0.600933
-0.616479
-0.621069
-0.618711
-0.602229
-0.580301
-0.596119
-0.620436
-0.63834
-0.670248
-0.702757
-0.705876
-0.704937
-0.697383
-0.676359
-0.667101
-0.675436
-0.689295
-0.708533
-0.734878
-0.762303
-0.772331
-0.771957
-0.762364
-0.744641
-0.75018
-0.75949
-0.761759
-0.770291
-0.784981
-0.803735
-0.820611
-0.831489
-0.827653
-0.810456
-0.819996
-0.831683
-0.830645
-0.827636
-0.835587
-0.851887
-0.874602
-0.892389
-0.890278
-0.872866
-0.878353
-0.889642
-0.88729
-0.885591
-0.893666
-0.912824
-0.934664
-0.948046
-0.94398
-0.926108
-0.93167
-0.944239
-0.944028
-0.945292
-0.956548
-0.976392
-0.991913
-0.99755
-0.990218
-0.970843
357.286
357.869
358.989
360.126
361.322
362.759
364.111
365.288
366.112
366.479
307.154
307.73
308.867
310.178
311.66
313.264
314.84
316.143
317.091
317.536
256.226
256.617
257.706
259.084
261.018
263.226
265.334
266.998
268.16
268.766
204.443
204.692
205.798
207.329
209.734
212.68
215.423
217.617
219.208
220.035
150.898
151.589
153.339
155.251
158.343
162.096
165.469
168.241
170.288
171.466
95.9102
96.7128
99.128
101.902
105.793
110.554
114.702
118.538
121.447
123.257
38.1478
39.0338
41.679
45.6917
51.565
58.0279
63.5919
68.5763
72.5026
75.3158
4.72393
4.77769
5.11283
6.70696
9.85402
13.7899
18.4995
23.5838
28.0232
31.398
-0.0740693
-0.0799121
-0.0877187
-0.123263
-0.181776
-0.165659
0.20365
1.50632
3.38235
5.29467
-0.167159
-0.17946
-0.207718
-0.241143
-0.274138
-0.301376
-0.322121
-0.332711
-0.342272
-0.350141
-0.268719
-0.285698
-0.315659
-0.356584
-0.381888
-0.404123
-0.431889
-0.454129
-0.472929
-0.478974
-0.370021
-0.398698
-0.421089
-0.442192
-0.45328
-0.46352
-0.471414
-0.481385
-0.491857
-0.498197
-0.454352
-0.483885
-0.505334
-0.507431
-0.505421
-0.509575
-0.51464
-0.518189
-0.51707
-0.512428
-0.529765
-0.556297
-0.574896
-0.577432
-0.58662
-0.60639
-0.625775
-0.630082
-0.609827
-0.581313
-0.605445
-0.625491
-0.638145
-0.655107
-0.683291
-0.722282
-0.731265
-0.733339
-0.715327
-0.677149
-0.680835
-0.695702
-0.702026
-0.721905
-0.752343
-0.782743
-0.793607
-0.796943
-0.786974
-0.759712
-0.751082
-0.767882
-0.764292
-0.779277
-0.80368
-0.825508
-0.844509
-0.855314
-0.850729
-0.827128
-0.812856
-0.831184
-0.828338
-0.833936
-0.852803
-0.872292
-0.894416
-0.910777
-0.909049
-0.888833
-0.869343
-0.882032
-0.88535
-0.889744
-0.904562
-0.927357
-0.948385
-0.960716
-0.958126
-0.940812
-0.925202
-0.932809
-0.939402
-0.944141
-0.9599
-0.983554
-1.00013
-1.00616
-1.00273
-0.985721
358.976
359.535
360.716
361.776
362.939
364.282
365.601
366.723
367.495
367.808
309.042
309.634
310.916
312.245
313.551
314.991
316.456
317.707
318.59
318.973
258.299
258.806
260.142
261.711
263.483
265.426
267.257
268.816
269.909
270.402
206.86
207.139
208.615
210.409
212.687
215.334
217.811
219.858
221.321
222.066
154.321
154.565
156.465
158.784
161.783
165.17
168.36
171.061
173.045
174.088
100.3
100.677
102.864
106.032
110.085
114.382
118.593
122.237
125.066
126.636
43.1473
43.6774
46.2456
50.4477
56.489
62.5217
67.9583
72.8392
76.9821
79.2972
6.61308
6.57617
7.04186
8.99834
12.8502
17.7211
22.974
27.869
32.3633
35.8948
-0.0885892
-0.0899327
-0.104799
-0.150423
-0.189681
0.0461789
1.1549
2.80785
4.869
7.15927
-0.198441
-0.210844
-0.235275
-0.267457
-0.309123
-0.334945
-0.338583
-0.328841
-0.32711
-0.325904
-0.305819
-0.325565
-0.344237
-0.364341
-0.386542
-0.409617
-0.426317
-0.428156
-0.430932
-0.43209
-0.398899
-0.42408
-0.433556
-0.433883
-0.441618
-0.463021
-0.48152
-0.492253
-0.498262
-0.50097
-0.476133
-0.496504
-0.501399
-0.498257
-0.505825
-0.528878
-0.543493
-0.546017
-0.539291
-0.535404
-0.54693
-0.565691
-0.574423
-0.568517
-0.591964
-0.629169
-0.653754
-0.650634
-0.622731
-0.595786
-0.617511
-0.634554
-0.646953
-0.648156
-0.691053
-0.74993
-0.775057
-0.763794
-0.734316
-0.682825
-0.685497
-0.700873
-0.711511
-0.720211
-0.759632
-0.806448
-0.828926
-0.831884
-0.815207
-0.774336
-0.748669
-0.762975
-0.771098
-0.78071
-0.809373
-0.842935
-0.867453
-0.881934
-0.875294
-0.842142
-0.809559
-0.821849
-0.829949
-0.837207
-0.86336
-0.88656
-0.905576
-0.922212
-0.920726
-0.898558
-0.871102
-0.880782
-0.888597
-0.897073
-0.916984
-0.935244
-0.948659
-0.962478
-0.962384
-0.947534
-0.930799
-0.94011
-0.945214
-0.950206
-0.967866
-0.984761
-0.997334
-1.00566
-1.00695
-0.994093
360.919
361.369
362.502
363.544
364.759
366.082
367.36
368.428
369.143
369.407
311.276
311.801
312.947
314.21
315.534
316.964
318.376
319.578
320.398
320.718
260.978
261.468
262.709
264.3
266.016
267.81
269.538
271.005
272.007
272.421
210.122
210.553
211.886
213.799
216.013
218.402
220.682
222.61
223.965
224.571
158.535
159.17
160.665
163.018
165.899
169.013
172.01
174.596
176.421
177.288
105.568
106.092
108.282
111.301
115.073
119.296
123.327
126.882
129.443
130.717
50.3023
50.971
53.732
57.6912
63.078
68.5424
73.7722
79.0068
82.6507
84.7807
9.80362
9.8309
11.1147
13.8303
18.1126
23.8111
29.2164
34.1196
38.8906
41.7633
-0.121625
-0.130533
-0.15823
-0.174524
0.0413456
1.40794
3.20111
5.12962
8.08265
10.7634
-0.236951
-0.248673
-0.281041
-0.313664
-0.333894
-0.3365
-0.328272
-0.34245
-0.351816
-0.322273
-0.331934
-0.343123
-0.357987
-0.369939
-0.38655
-0.405747
-0.416388
-0.432538
-0.442366
-0.442287
-0.408518
-0.422101
-0.428696
-0.426292
-0.439057
-0.464107
-0.486108
-0.508537
-0.513803
-0.513298
-0.480469
-0.493097
-0.496264
-0.49788
-0.518871
-0.558214
-0.582312
-0.583638
-0.570687
-0.563939
-0.550253
-0.564064
-0.573866
-0.57995
-0.621423
-0.675568
-0.695226
-0.68716
-0.660866
-0.630494
-0.620948
-0.634946
-0.650937
-0.661507
-0.70847
-0.769534
-0.797873
-0.78989
-0.762226
-0.719035
-0.689146
-0.702842
-0.71873
-0.731992
-0.767035
-0.820165
-0.852486
-0.856362
-0.835865
-0.79096
-0.753438
-0.766844
-0.778762
-0.788519
-0.812814
-0.851016
-0.880269
-0.89261
-0.883363
-0.845649
-0.819427
-0.832146
-0.838999
-0.844486
-0.861775
-0.885314
-0.906065
-0.916399
-0.912761
-0.892588
-0.881024
-0.895845
-0.898755
-0.902257
-0.917915
-0.932456
-0.942458
-0.951804
-0.951507
-0.938376
-0.937718
-0.953866
-0.953118
-0.95536
-0.968557
-0.982662
-0.989334
-0.997457
-1.0011
-0.990243
362.958
363.409
364.343
365.424
366.671
367.986
369.227
370.248
370.916
371.136
313.54
314.026
315.066
316.252
317.607
319.047
320.435
321.59
322.352
322.619
263.779
264.276
265.393
266.873
268.559
270.308
271.976
273.369
274.298
274.637
213.643
214.163
215.389
217.188
219.329
221.608
223.777
225.602
226.838
227.321
162.944
163.551
165.198
167.429
170.174
173.135
175.998
178.431
180.094
180.802
111.364
111.969
114.207
116.994
120.672
124.728
128.519
131.85
134.144
135.196
58.3944
59.3995
62.2773
66.0778
70.7991
75.3848
80.3842
85.272
88.8072
90.6771
14.1791
14.8245
17.2842
21.6013
26.4679
31.6702
37.0769
41.9702
46.1438
48.5478
-0.120914
-0.122804
-0.0445242
0.666223
2.37139
4.35695
6.67138
9.97778
13.8258
16.3935
-0.288977
-0.296996
-0.313641
-0.328679
-0.314364
-0.296386
-0.299087
-0.320018
-0.102025
0.362831
-0.35566
-0.357632
-0.370749
-0.389297
-0.394547
-0.395454
-0.409372
-0.435438
-0.463209
-0.4621
-0.420189
-0.424304
-0.431676
-0.437311
-0.455141
-0.474642
-0.499982
-0.53553
-0.553389
-0.539368
-0.488026
-0.497023
-0.502898
-0.515984
-0.550118
-0.595166
-0.620289
-0.627045
-0.617877
-0.593613
-0.557075
-0.570912
-0.585337
-0.604562
-0.657318
-0.71046
-0.723023
-0.718082
-0.699806
-0.667029
-0.630133
-0.644718
-0.665522
-0.685534
-0.731302
-0.787751
-0.813825
-0.80509
-0.780784
-0.742367
-0.700625
-0.717699
-0.737735
-0.753229
-0.782807
-0.828984
-0.861285
-0.863532
-0.841206
-0.799722
-0.770544
-0.789444
-0.802304
-0.808415
-0.824119
-0.851365
-0.876944
-0.884887
-0.874863
-0.844544
-0.834263
-0.853803
-0.858319
-0.857945
-0.86734
-0.883427
-0.896111
-0.901763
-0.898045
-0.881737
-0.887799
-0.906042
-0.906803
-0.906145
-0.91421
-0.927076
-0.935199
-0.937616
-0.933737
-0.925164
-0.937228
-0.95101
-0.951657
-0.951885
-0.959702
-0.972447
-0.983061
-0.98633
-0.98233
-0.978856
364.919
365.363
366.199
367.275
368.522
369.818
371.029
372.013
372.635
372.802
315.705
316.199
317.11
318.282
319.637
321.081
322.442
323.553
324.267
324.484
266.42
266.937
267.965
269.364
271.01
272.737
274.367
275.707
276.576
276.858
217
217.59
218.759
220.455
222.521
224.734
226.832
228.568
229.712
230.107
167.213
167.926
169.486
171.642
174.305
177.199
179.965
182.267
183.807
184.389
116.894
117.748
119.95
122.721
126.244
130.129
133.752
136.88
138.987
139.884
66.195
67.6302
70.4665
74.265
78.7261
82.8424
87.6551
92.3719
95.4508
96.9919
20.7679
22.4991
25.8287
30.3019
35.6789
41.3846
46.2045
50.9694
54.6558
56.8776
0.724846
1.02848
2.3049
4.27517
6.81988
9.94111
13.846
17.6228
21.1551
23.4195
-0.332343
-0.325777
-0.311833
-0.295971
-0.312819
-0.305845
-0.187808
0.389597
1.54374
2.50715
-0.391596
-0.394799
-0.398789
-0.403884
-0.406335
-0.42009
-0.451816
-0.482096
-0.472484
-0.444237
-0.444033
-0.442552
-0.44365
-0.453012
-0.474767
-0.512243
-0.563062
-0.579667
-0.561639
-0.529671
-0.502562
-0.50945
-0.51428
-0.537647
-0.587542
-0.633688
-0.652818
-0.660233
-0.65122
-0.622769
-0.572019
-0.582844
-0.598379
-0.625987
-0.680731
-0.726276
-0.739947
-0.738687
-0.727116
-0.699191
-0.649273
-0.666124
-0.684057
-0.704571
-0.746989
-0.796028
-0.815153
-0.805282
-0.790156
-0.76228
-0.723441
-0.752373
-0.764454
-0.770945
-0.794907
-0.829858
-0.852163
-0.850771
-0.836122
-0.809431
-0.79042
-0.822451
-0.824684
-0.820904
-0.828987
-0.84571
-0.860803
-0.867782
-0.862803
-0.845481
-0.844119
-0.868379
-0.869252
-0.862054
-0.862469
-0.868798
-0.877351
-0.884281
-0.884703
-0.877643
-0.88702
-0.904594
-0.908018
-0.902316
-0.902548
-0.907855
-0.914299
-0.919344
-0.919717
-0.919851
-0.929749
-0.942869
-0.946432
-0.945025
-0.948031
-0.95604
-0.964157
-0.969311
-0.970471
-0.974533
366.61
367.025
367.815
368.878
370.116
371.399
372.59
373.544
374.131
374.241
317.642
318.053
318.902
320.063
321.417
322.853
324.193
325.275
325.953
326.122
268.685
269.171
270.153
271.529
273.163
274.871
276.475
277.781
278.61
278.851
219.814
220.398
221.57
223.252
225.312
227.492
229.542
231.224
232.31
232.658
170.897
171.514
173.116
175.347
177.99
180.857
183.549
185.751
187.212
187.726
121.825
122.587
124.912
127.608
131.263
135.083
138.657
141.559
143.537
144.326
72.9087
74.2933
77.4156
81.491
86.001
90.5894
95.3924
99.0868
101.791
103.1
27.7222
29.4119
33.3148
38.8668
44.9402
49.4052
54.7712
59.589
62.9701
64.9913
3.37106
3.84568
6.04747
9.94594
14.8071
19.0388
22.7923
26.3691
29.5225
31.7968
-0.298839
-0.307095
-0.308434
-0.315197
-0.313117
0.108192
1.59282
3.25442
5.14241
6.82
-0.399821
-0.409459
-0.412872
-0.420795
-0.435753
-0.482198
-0.504326
-0.520815
-0.52652
-0.462932
-0.460206
-0.458901
-0.452084
-0.46545
-0.508166
-0.572866
-0.608089
-0.616203
-0.603571
-0.557535
-0.515954
-0.523543
-0.525104
-0.550852
-0.604769
-0.654704
-0.680184
-0.691945
-0.686312
-0.651092
-0.584271
-0.59715
-0.610328
-0.636487
-0.688915
-0.733913
-0.750335
-0.753738
-0.749466
-0.724618
-0.664453
-0.689773
-0.697388
-0.711548
-0.752263
-0.797473
-0.806226
-0.805706
-0.800645
-0.781748
-0.736076
-0.771138
-0.769324
-0.770525
-0.794094
-0.823957
-0.837064
-0.840676
-0.836943
-0.821278
-0.794188
-0.819146
-0.817857
-0.813823
-0.822438
-0.837854
-0.851849
-0.860218
-0.859946
-0.849403
-0.837362
-0.855274
-0.856326
-0.851501
-0.853445
-0.86117
-0.872379
-0.882339
-0.883364
-0.879474
-0.876591
-0.89168
-0.893996
-0.891923
-0.894272
-0.901062
-0.910871
-0.917749
-0.918258
-0.920175
-0.920807
-0.934335
-0.939959
-0.941288
-0.945564
-0.953182
-0.961815
-0.965937
-0.969173
-0.976012
367.795
368.203
368.977
370.036
371.272
372.552
373.731
374.673
375.246
375.354
318.93
319.363
320.201
321.364
322.725
324.157
325.484
326.558
327.232
327.382
270.285
270.774
271.742
273.127
274.766
276.464
278.048
279.344
280.184
280.411
221.82
222.386
223.602
225.35
227.432
229.588
231.596
233.254
234.371
234.722
173.586
174.134
175.84
178.182
180.891
183.698
186.296
188.471
189.985
190.496
125.549
126.171
128.65
131.675
135.21
138.985
142.372
145.266
147.296
148.05
78.203
79.3288
82.7042
87.0123
91.7112
96.2462
100.591
104.273
106.97
108.192
34.6108
35.8592
40.1512
45.7074
50.6729
55.669
61.2995
66.1849
69.9341
71.9372
7.05337
7.84212
11.6519
16.4155
21.7601
26.4236
30.5593
34.4046
37.9618
40.5906
-0.308365
-0.337767
-0.317107
-0.182591
0.881521
2.95808
5.55593
8.59699
11.8523
14.7803
-0.418495
-0.441077
-0.433932
-0.452234
-0.482481
-0.508808
-0.548831
-0.571648
-0.501551
-0.10267
-0.470927
-0.475492
-0.469312
-0.495767
-0.543151
-0.591655
-0.633703
-0.66141
-0.679968
-0.657266
-0.524285
-0.534979
-0.540428
-0.561388
-0.608329
-0.659682
-0.695866
-0.721886
-0.731796
-0.705492
-0.594401
-0.608937
-0.617916
-0.639742
-0.690699
-0.740109
-0.763987
-0.77445
-0.775236
-0.753017
-0.668268
-0.693792
-0.695931
-0.712385
-0.757609
-0.801465
-0.818158
-0.821373
-0.817421
-0.800419
-0.733864
-0.753737
-0.753506
-0.765897
-0.798335
-0.833342
-0.851842
-0.854205
-0.848152
-0.832776
-0.783481
-0.795411
-0.794883
-0.804874
-0.826727
-0.850905
-0.866385
-0.872683
-0.867778
-0.855049
-0.824231
-0.833986
-0.831222
-0.838582
-0.855085
-0.871501
-0.884377
-0.890529
-0.887589
-0.881551
-0.867663
-0.878905
-0.874898
-0.87974
-0.891706
-0.905071
-0.916447
-0.91908
-0.918913
-0.920929
-0.914073
-0.928138
-0.930485
-0.932776
-0.940732
-0.952175
-0.961871
-0.966521
-0.973011
-0.977942
368.342
368.763
369.539
370.61
371.861
373.156
374.333
375.254
375.83
375.985
319.565
320.004
320.838
322.02
323.4
324.844
326.175
327.236
327.922
328.197
271.077
271.607
272.566
273.958
275.601
277.305
278.894
280.194
281.053
281.445
222.845
223.4
224.654
226.461
228.564
230.707
232.703
234.37
235.517
235.97
174.961
175.561
177.385
179.793
182.534
185.283
187.845
190.01
191.561
192.251
127.481
128.305
130.822
134.086
137.699
141.236
144.629
147.45
149.548
150.517
80.9168
82.2356
85.7834
90.4599
94.9571
99.3536
103.671
107.43
110.328
111.792
38.4687
40.236
44.3219
49.1568
53.7407
59.054
65.1088
70.4224
74.48
76.7725
10.4987
12.2569
15.5666
19.853
25.0105
30.8393
35.8097
40.3979
44.4774
47.4231
-0.266495
-0.256679
0.113387
1.15835
3.18039
6.53747
11.1737
15.6146
19.8358
23.7672
-0.449677
-0.474951
-0.461228
-0.45861
-0.483601
-0.501697
-0.521317
-0.261695
1.45101
4.18648
-0.480646
-0.502529
-0.505891
-0.524426
-0.561528
-0.585997
-0.628198
-0.70496
-0.759525
-0.737992
-0.532042
-0.547578
-0.562975
-0.575305
-0.607536
-0.649696
-0.699071
-0.750074
-0.764484
-0.734489
-0.59909
-0.617786
-0.629654
-0.643418
-0.683778
-0.736307
-0.775724
-0.796268
-0.796308
-0.770695
-0.66556
-0.689488
-0.691288
-0.710133
-0.755746
-0.80972
-0.840899
-0.845884
-0.834284
-0.812704
-0.725487
-0.738985
-0.739411
-0.759716
-0.800003
-0.849234
-0.877806
-0.878905
-0.86185
-0.840833
-0.771056
-0.780238
-0.778326
-0.794401
-0.825096
-0.861765
-0.885338
-0.889818
-0.877384
-0.85796
-0.815023
-0.81978
-0.814873
-0.824204
-0.844975
-0.871303
-0.891624
-0.896749
-0.890497
-0.878734
-0.864486
-0.865139
-0.861256
-0.867736
-0.881701
-0.899796
-0.913427
-0.917222
-0.920404
-0.918762
-0.913126
-0.917331
-0.915575
-0.919749
-0.929538
-0.946911
-0.961715
-0.970864
-0.978353
-0.977482
368.204
368.636
369.425
370.505
371.768
373.077
374.27
375.209
375.792
375.969
319.453
319.905
320.752
321.926
323.317
324.776
326.125
327.207
327.908
328.171
270.96
271.531
272.503
273.886
275.53
277.249
278.864
280.199
281.089
281.404
222.753
223.349
224.606
226.405
228.511
230.674
232.71
234.427
235.633
236.072
174.859
175.54
177.334
179.746
182.486
185.273
187.902
190.147
191.806
192.532
127.397
128.378
131.134
134.261
137.745
141.3
144.718
147.682
149.948
151.05
80.8394
82.2003
86.0607
90.4876
94.9283
99.3895
103.879
107.871
110.973
112.608
38.0418
39.9217
43.9959
48.9173
53.6656
59.155
65.5127
71.2373
75.68
78.2317
9.68405
11.5327
14.6642
19.0811
24.5302
30.8512
36.515
41.7789
46.5475
49.8951
-0.214195
-0.118879
0.325293
1.38899
3.66452
7.4784
12.8462
18.5328
24.207
29.0908
-0.447649
-0.468547
-0.456582
-0.456535
-0.474706
-0.483567
-0.418669
0.858004
4.44471
9.6166
-0.484498
-0.511098
-0.524392
-0.534017
-0.558048
-0.571487
-0.619882
-0.695191
-0.806731
-0.836426
-0.540038
-0.557153
-0.577225
-0.583382
-0.600991
-0.633222
-0.688485
-0.75048
-0.78138
-0.763276
-0.60358
-0.625312
-0.637955
-0.642422
-0.668728
-0.718638
-0.773193
-0.805705
-0.805456
-0.780266
-0.663412
-0.68541
-0.688478
-0.702439
-0.740382
-0.802004
-0.852211
-0.864192
-0.843927
-0.81657
-0.716505
-0.732459
-0.733395
-0.748933
-0.785318
-0.844144
-0.889411
-0.895938
-0.870383
-0.843471
-0.761128
-0.771145
-0.770383
-0.779402
-0.804925
-0.849363
-0.8866
-0.896641
-0.881761
-0.856582
-0.818591
-0.816327
-0.805873
-0.808383
-0.82417
-0.853731
-0.882865
-0.894036
-0.889084
-0.871803
-0.87748
-0.872875
-0.860788
-0.855985
-0.860895
-0.875596
-0.895768
-0.91212
-0.922231
-0.915952
-0.921925
-0.929005
-0.926515
-0.91907
-0.922378
-0.942472
-0.962867
-0.976086
-0.98045
-0.975688
367.325
367.767
368.579
369.685
370.969
372.303
373.534
374.52
375.133
375.264
318.477
318.952
319.824
321.025
322.445
323.931
325.316
326.441
327.163
327.346
269.904
270.464
271.428
272.837
274.524
276.284
277.937
279.304
280.21
280.497
221.48
222.081
223.333
225.131
227.275
229.497
231.599
233.364
234.588
235.024
173.237
173.867
175.601
178.069
180.88
183.759
186.484
188.813
190.515
191.224
125.284
126.218
128.841
132.078
135.654
139.324
142.845
145.919
148.25
149.418
78.2503
79.5744
82.6718
87.1023
91.6545
96.442
101.183
105.441
108.727
110.545
34.4928
36.0924
39.8184
44.7192
49.5011
55.5306
61.9691
67.9742
72.8151
75.6934
6.64454
7.65003
10.3045
14.3987
19.8259
25.4232
31.2269
36.8666
42.6055
46.7185
-0.267191
-0.260074
-0.026312
0.655077
2.17481
5.10173
9.25775
14.4685
20.9127
26.0062
-0.43834
-0.462557
-0.462359
-0.461942
-0.47051
-0.471044
-0.445543
0.234112
3.68538
8.44056
-0.485423
-0.507976
-0.531862
-0.535933
-0.548976
-0.56376
-0.602605
-0.682964
-0.800489
-0.880008
-0.545088
-0.563954
-0.584431
-0.580352
-0.590127
-0.618895
-0.67354
-0.741674
-0.776924
-0.77312
-0.603333
-0.629893
-0.641464
-0.637072
-0.653593
-0.697011
-0.75787
-0.7985
-0.801997
-0.77688
-0.658833
-0.683241
-0.689684
-0.695843
-0.722198
-0.780646
-0.845221
-0.86978
-0.84711
-0.815024
-0.706716
-0.725869
-0.733152
-0.74077
-0.765097
-0.820677
-0.878216
-0.893764
-0.87115
-0.841833
-0.759654
-0.765775
-0.767503
-0.768936
-0.783913
-0.823206
-0.867618
-0.886977
-0.877841
-0.853363
-0.835691
-0.828932
-0.811956
-0.803618
-0.807838
-0.829978
-0.86257
-0.883673
-0.883204
-0.866252
-0.899129
-0.893191
-0.870457
-0.849161
-0.832613
-0.847401
-0.882701
-0.910643
-0.922119
-0.913937
-0.942792
-0.950429
-0.938685
-0.923364
-0.918562
-0.944047
-0.965136
-0.976679
-0.978773
-0.976835
365.784
366.25
367.11
368.278
369.587
370.961
372.238
373.267
373.911
374.062
316.799
317.288
318.209
319.439
320.915
322.452
323.884
325.05
325.798
326.012
267.935
268.467
269.517
270.988
272.728
274.546
276.26
277.673
278.598
278.905
219.088
219.726
220.992
222.816
225.011
227.315
229.502
231.336
232.589
233.032
170.219
170.799
172.526
175.034
177.924
180.92
183.759
186.191
187.936
188.663
121.405
122.157
124.861
128.112
131.812
135.645
139.299
142.495
144.869
146.045
73.3232
74.4562
77.2023
81.2227
86.091
91.2014
96.1696
100.658
104.136
106.01
28.7708
30.2558
33.4415
37.947
42.8364
49.1049
55.3511
61.3617
66.4208
69.4162
3.58436
4.04595
5.70274
8.46305
12.8453
17.1258
22.0916
27.8558
34.3137
38.5461
-0.300909
-0.346553
-0.383765
-0.243815
0.391643
1.92834
4.61548
8.17735
12.0083
14.6081
-0.421713
-0.442131
-0.462787
-0.467937
-0.464796
-0.458867
-0.465344
-0.391705
0.611624
1.78474
-0.480359
-0.499944
-0.524416
-0.52223
-0.532272
-0.550239
-0.581405
-0.650289
-0.712403
-0.756457
-0.544479
-0.571321
-0.58738
-0.567348
-0.574791
-0.600492
-0.65324
-0.720338
-0.769824
-0.776481
-0.600674
-0.629696
-0.641435
-0.628581
-0.640475
-0.67658
-0.736768
-0.785177
-0.796446
-0.773972
-0.649759
-0.677547
-0.688697
-0.689451
-0.706641
-0.754404
-0.819885
-0.855009
-0.843748
-0.813343
-0.696256
-0.715456
-0.728037
-0.731423
-0.745858
-0.789374
-0.847126
-0.874531
-0.861318
-0.837485
-0.763592
-0.761587
-0.758967
-0.75812
-0.765075
-0.793904
-0.837402
-0.862424
-0.864753
-0.848264
-0.854923
-0.849653
-0.816124
-0.801646
-0.794682
-0.808005
-0.842121
-0.869624
-0.873637
-0.861824
-0.928953
-0.917726
-0.883533
-0.851742
-0.829428
-0.846306
-0.882159
-0.909314
-0.916268
-0.912205
-0.964466
-0.961138
-0.943109
-0.927495
-0.925242
-0.94567
-0.966231
-0.976547
-0.97666
-0.9813
363.726
364.213
365.141
366.346
367.729
369.16
370.493
371.578
372.269
372.474
314.553
315.05
316.059
317.36
318.877
320.469
321.961
323.181
323.973
324.227
265.225
265.779
266.965
268.52
270.322
272.212
273.999
275.478
276.453
276.781
215.775
216.398
217.733
219.667
221.966
224.38
226.67
228.591
229.894
230.362
166.053
166.696
168.466
170.959
173.922
177.073
180.08
182.645
184.434
185.165
116.063
116.689
119.469
122.857
126.701
130.757
134.61
137.957
140.341
141.44
66.0427
67.1823
70.0883
73.8482
78.7854
84.2146
89.5265
94.3522
97.9466
99.6965
21.32
22.3714
25.4394
29.787
35.1989
41.1091
47.2159
53.0221
57.9903
60.6167
0.915744
0.983075
1.85949
3.62222
6.10301
9.40779
14.2077
19.2724
25.8531
29.4243
-0.302335
-0.319529
-0.353987
-0.362765
-0.327057
0.267233
1.92311
3.42957
4.69959
5.94402
-0.415853
-0.437392
-0.460447
-0.462802
-0.462768
-0.455129
-0.465581
-0.512582
-0.515337
-0.501254
-0.477219
-0.503377
-0.51677
-0.509104
-0.508328
-0.523098
-0.558403
-0.604447
-0.655338
-0.662083
-0.538205
-0.573196
-0.580503
-0.558063
-0.560113
-0.571558
-0.621742
-0.677441
-0.713591
-0.717002
-0.591094
-0.622942
-0.634274
-0.623084
-0.62888
-0.655569
-0.707937
-0.756966
-0.775835
-0.761565
-0.636465
-0.664775
-0.680531
-0.681095
-0.691933
-0.727299
-0.782211
-0.821503
-0.824586
-0.801671
-0.685139
-0.704008
-0.71673
-0.719523
-0.728449
-0.759705
-0.807315
-0.837036
-0.837909
-0.82585
-0.763098
-0.758975
-0.751231
-0.748995
-0.751414
-0.771759
-0.808132
-0.834947
-0.844229
-0.839204
-0.860641
-0.857295
-0.814895
-0.798679
-0.787374
-0.798161
-0.828188
-0.853068
-0.859735
-0.856271
-0.937778
-0.927682
-0.889424
-0.861028
-0.842935
-0.853587
-0.879395
-0.899152
-0.904405
-0.908605
-0.975073
-0.96597
-0.947369
-0.93166
-0.92931
-0.943982
-0.958024
-0.967696
-0.972586
-0.989286
361.334
361.833
362.893
364.152
365.588
367.084
368.48
369.621
370.363
370.603
311.907
312.408
313.625
314.99
316.553
318.192
319.746
321.029
321.87
322.154
262.034
262.566
264.035
265.693
267.574
269.537
271.405
272.959
273.986
274.334
211.734
212.282
213.746
215.962
218.468
221.025
223.438
225.463
226.82
227.301
160.965
161.66
163.479
166.169
169.347
172.677
175.854
178.606
180.503
181.244
109.477
110.109
112.907
116.474
120.721
125.206
129.36
132.941
135.377
136.409
57.0901
57.675
61.3367
65.6747
71.0238
76.3531
82.0838
87.3821
91.3152
93.0106
14.2929
14.3888
16.3519
20.6924
26.3641
32.4547
38.5447
44.621
49.5566
52.0533
-0.176985
-0.180504
-0.104744
0.484703
2.04306
4.57092
8.10264
12.6929
19.1534
21.5085
-0.28322
-0.293465
-0.301476
-0.321648
-0.338848
-0.241014
0.164904
0.423723
1.15568
1.56859
-0.381454
-0.406228
-0.41796
-0.434465
-0.443546
-0.431187
-0.449246
-0.483745
-0.521456
-0.533011
-0.460087
-0.493491
-0.494999
-0.495682
-0.486917
-0.499092
-0.538478
-0.578162
-0.615238
-0.629419
-0.525306
-0.560587
-0.564782
-0.557729
-0.547888
-0.553423
-0.585597
-0.6281
-0.663537
-0.678509
-0.575274
-0.608631
-0.623712
-0.622683
-0.61888
-0.633645
-0.672173
-0.715061
-0.743336
-0.744815
-0.618855
-0.649601
-0.667998
-0.672808
-0.677745
-0.701673
-0.741409
-0.774829
-0.78917
-0.778786
-0.672636
-0.692476
-0.704686
-0.709384
-0.715493
-0.736824
-0.770679
-0.797048
-0.807142
-0.806333
-0.755712
-0.756371
-0.748707
-0.74696
-0.747451
-0.760311
-0.784851
-0.807216
-0.821853
-0.82734
-0.851236
-0.855974
-0.818942
-0.804239
-0.79385
-0.799242
-0.817311
-0.834846
-0.844985
-0.850307
-0.92892
-0.926487
-0.893544
-0.87522
-0.864601
-0.863852
-0.873871
-0.884505
-0.891148
-0.903198
-0.9728
-0.965694
-0.948104
-0.935745
-0.927975
-0.93467
-0.94273
-0.951917
-0.964145
-0.993917
358.835
359.339
360.61
361.9
363.372
364.921
366.385
367.589
368.378
368.652
309.175
309.719
311.071
312.572
314.164
315.844
317.456
318.801
319.693
320.012
258.634
259.166
260.773
262.724
264.722
266.77
268.728
270.368
271.451
271.84
207.373
207.645
209.454
212.031
214.756
217.523
220.127
222.273
223.691
224.222
155.471
156.271
157.99
160.994
164.529
168.19
171.6
174.491
176.544
177.349
102.299
103.063
105.826
109.64
114.38
119.308
123.929
127.93
130.505
131.471
47.2404
47.6728
51.5645
56.7278
63.0726
69.3872
75.3178
80.3446
84.9562
86.6096
8.88715
8.90081
10.4474
13.1837
18.0371
24.7192
31.1193
37.5106
42.7322
44.7859
-0.207618
-0.206103
-0.204254
-0.168319
0.175962
1.65364
4.26431
7.87596
12.7953
14.3976
-0.284469
-0.288776
-0.291135
-0.291104
-0.295751
-0.328714
-0.300092
-0.288772
-0.224147
-0.167723
-0.368523
-0.389424
-0.391849
-0.396459
-0.41227
-0.418553
-0.416658
-0.423906
-0.450695
-0.47011
-0.448341
-0.477658
-0.476142
-0.463429
-0.459305
-0.4775
-0.493965
-0.525834
-0.566317
-0.589767
-0.509414
-0.541959
-0.548881
-0.538369
-0.527455
-0.53727
-0.553493
-0.584814
-0.620465
-0.649336
-0.556506
-0.588061
-0.606157
-0.606683
-0.604789
-0.613906
-0.637101
-0.670597
-0.702408
-0.718137
-0.601939
-0.631145
-0.649891
-0.658771
-0.664319
-0.679905
-0.706516
-0.733644
-0.751186
-0.753307
-0.661308
-0.681966
-0.692901
-0.700229
-0.70668
-0.721652
-0.74374
-0.764793
-0.77852
-0.783308
-0.742019
-0.749682
-0.747332
-0.747677
-0.7491
-0.756875
-0.770652
-0.786547
-0.799949
-0.811554
-0.830029
-0.842955
-0.823285
-0.81328
-0.806482
-0.805868
-0.810775
-0.821844
-0.833136
-0.844357
-0.908659
-0.917202
-0.896008
-0.88607
-0.879572
-0.87691
-0.877267
-0.882206
-0.887377
-0.902632
-0.961759
-0.963812
-0.948735
-0.945705
-0.938368
-0.938436
-0.938313
-0.946466
-0.962095
-0.993908
356.405
357.041
358.38
359.759
361.259
362.867
364.4
365.665
366.506
366.822
306.335
307.061
308.572
310.251
311.886
313.613
315.303
316.716
317.657
318.016
255.318
255.862
257.608
259.757
261.904
264.135
266.201
267.917
269.068
269.512
203.192
203.448
205.413
208.098
211.023
214.084
216.964
219.252
220.772
221.342