/*--------------------------------*- C++ -*----------------------------------*\
| =========                 |                                                 |
| \\      /  F ield         | OpenFOAM: The Open Source CFD Toolbox           |
|  \\    /   O peration     | Version:  2312                                  |
|   \\  /    A nd           | Website:  www.openfoam.com                      |
|    \\/     M anipulation  |                                                 |
\*---------------------------------------------------------------------------*/
FoamFile
{
    version     2.0;
    format      ascii;
    arch        "LSB;label=32;scalar=64";
    class       volScalarField;
    location    "1.025";
    object      alpha.water;
}
// * * * * * * * * * * * * * * * * * * * * * * * * * * * * * * * * * * * * * //

dimensions      [0 0 0 0 0 0 0];

internalField   nonuniform List<scalar> 
8000
(
1
1
1
1
1
1
1
1
1
1
1
1
1
1
1
1
1
1
1
1
1
1
1
1
1
1
1
1
1
1
1
1
1
1
1
1
1
1
1
1
1
1
1
1
1
1
1
1
1
1
0.999983
0.999999
1
1
1
1
1
1
1
1
0.999921
0.999999
1
1
1
1
1
1
1
0.997523
0.999934
0.999995
0.999998
0.999999
0.999999
1
1
0.999999
0.973671
0.951957
0.999721
0.999884
0.999909
0.999934
0.990785
0.901614
0.707328
0.487218
0.34913
0.289617
0.834647
0.864008
0.827693
0.774966
0.591061
0.278049
0.0680113
0.00143791
3.59367e-05
3.87504e-05
0.0593645
0.0762933
0.0824431
0.0691919
0.0273771
7.76e-06
1.54915e-05
2.33089e-05
2.45749e-05
0.00012258
4.50078e-06
4.68952e-06
5.04559e-06
5.50785e-06
5.44736e-06
6.09532e-06
1.11153e-05
1.95566e-05
2.47966e-05
3.38251e-05
4.4065e-05
6.44398e-05
6.72818e-05
2.59043e-05
5.33534e-06
3.13191e-05
0.000135936
0.000148119
3.03912e-05
8.50886e-05
6.76081e-05
7.38439e-05
7.33703e-05
2.72877e-05
6.14439e-06
5.56292e-05
0.000624499
0.000726065
8.1456e-05
0.000338165
4.65226e-05
7.38439e-05
7.34307e-05
4.46256e-06
5.20492e-06
0.000167213
0.000762552
0.00076289
0.00073218
0.000720216
1.38835e-05
7.38439e-05
4.01417e-05
3.81548e-06
4.33878e-06
0.00019039
0.00076289
0.000762947
0.000766647
0.000775964
7.30532e-06
4.3573e-05
1.83899e-05
3.63922e-06
3.81546e-06
7.52386e-05
0.000744025
0.00076289
0.000761439
0.000766672
7.36917e-06
1.58039e-05
1.04778e-05
3.44732e-06
3.63922e-06
0.000116426
0.000485571
0.000734822
0.000753797
0.000751435
2.82258e-05
6.08118e-06
4.69564e-06
3.0468e-06
1.16169e-05
0.000307753
0.000483815
0.000207831
0.000162813
0.000227854
3.53697e-05
5.54016e-06
2.27963e-06
2.57373e-06
2.88329e-05
0.000304275
0.000239806
5.62962e-06
3.0475e-05
5.69094e-05
1
1
1
1
1
1
1
1
1
1
1
1
1
1
1
1
1
1
1
1
1
1
1
1
1
1
1
1
1
1
1
1
0.999997
1
1
1
1
1
1
1
0.999991
0.99914
0.999957
1
1
1
1
1
1
1
0.999827
0.997153
0.999983
1
1
1
1
1
1
1
0.999952
0.999453
1
1
1
1
1
1
1
1
0.999979
1
1
1
1
1
1
0.994106
0.958377
0.936554
0.999916
0.999981
0.999969
0.977023
0.911193
0.812178
0.625543
0.422368
0.309688
0.265117
0.748753
0.73837
0.660671
0.60275
0.45344
0.2105
0.0545241
0.00291739
3.87504e-05
3.43709e-05
0.0328995
0.0424582
0.0441047
0.0306984
5.44736e-06
6.60144e-06
1.18799e-05
2.03711e-05
4.67898e-05
0.000125006
4.38786e-06
4.50067e-06
4.68951e-06
5.04559e-06
4.92114e-06
5.44736e-06
6.6888e-06
1.91926e-05
8.43607e-05
0.000104598
4.32111e-06
4.40268e-06
4.61186e-06
4.9084e-06
3.49682e-06
2.24266e-05
0.000133408
0.000176185
6.83484e-05
7.19664e-05
4.36519e-06
6.86122e-06
6.46675e-06
5.11772e-06
2.69427e-06
6.82136e-05
0.000454497
0.000416755
7.24174e-05
9.01344e-05
8.53687e-06
8.12572e-06
7.24928e-06
6.00711e-06
2.40975e-06
0.000119453
0.000596578
0.000398753
7.66839e-05
0.000430811
7.3108e-06
1.21824e-05
0.000135643
4.33881e-06
2.80634e-06
0.000133306
0.000604837
0.000272137
8.70752e-05
0.000538378
7.30532e-06
0.000142944
0.000166701
8.25502e-06
3.4594e-06
0.000107588
0.000445132
0.000249839
0.000227247
0.000404047
7.30406e-06
0.000166682
0.000166913
7.93054e-05
8.40513e-06
0.000154459
0.000288259
0.000110742
0.000208996
0.000214839
1.63838e-05
0.000162231
0.000166857
8.2833e-05
3.08557e-05
0.000305835
0.000186268
2.618e-05
0.000223987
0.000285793
3.52762e-05
3.44067e-05
0.000157886
2.30586e-05
4.07039e-05
0.000198811
6.2708e-05
4.43138e-06
0.000170566
0.000286287
1
1
1
1
1
1
1
1
1
1
1
1
1
1
1
1
1
1
1
1
1
1
1
1
1
1
1
1
1
1
1
1
1
0.999999
1
1
1
1
1
1
1
0.999774
0.999873
0.999998
1
1
1
1
1
0.999998
1
0.99842
0.998852
0.999995
1
1
1
1
1
1
1
0.999822
0.999939
1
1
1
1
1
1
1
1
1
1
1
1
0.997302
0.947074
0.881097
0.822782
0.790618
0.992503
0.978389
0.920855
0.83085
0.718445
0.574977
0.413031
0.275646
0.20019
0.171684
0.603091
0.529546
0.410175
0.331404
0.214707
0.0970102
0.0239792
0.000371142
3.43709e-05
3.31203e-05
0.00776343
0.00666169
0.00643374
6.85574e-06
4.68739e-06
7.10785e-06
1.26653e-05
2.96798e-05
4.54909e-05
8.21889e-05
4.32111e-06
4.38786e-06
4.69619e-06
4.68739e-06
3.76157e-06
6.20507e-06
8.58872e-06
6.20854e-05
0.000156383
0.00015434
4.28875e-06
4.32111e-06
6.5928e-06
5.02917e-06
3.59252e-06
4.03291e-06
2.14784e-05
0.000132576
0.0001554
8.40202e-05
4.29469e-06
4.36519e-06
3.5874e-05
2.54796e-05
2.26741e-06
6.17096e-06
8.14477e-05
0.000168536
0.000143865
9.12261e-05
5.2322e-06
7.87597e-06
7.05345e-05
4.29009e-05
1.8532e-06
2.06859e-05
0.000136575
0.000180706
6.61262e-05
0.000221011
5.85142e-06
5.20544e-05
5.132e-05
4.05906e-05
1.78124e-06
4.51817e-05
0.000230741
0.000177471
5.41786e-06
5.78712e-05
1.23301e-05
2.3788e-05
3.27738e-05
3.01925e-05
1.9701e-06
7.62333e-05
0.000343945
7.75514e-05
2.42612e-06
2.90588e-06
1.35599e-05
5.34328e-06
2.26603e-05
4.31293e-05
1.14785e-05
0.000162279
0.000120035
2.42605e-06
2.0129e-06
2.20139e-06
1.12318e-05
1.45596e-06
3.45307e-05
4.13133e-05
1.33766e-05
0.000105266
3.28315e-06
2.011e-06
1.92669e-06
2.00499e-06
2.89748e-06
1.45863e-06
3.09136e-05
1.52125e-05
1.63518e-05
2.25532e-05
2.02063e-06
1.92121e-06
1.90784e-06
2.13514e-06
1
1
1
1
1
1
1
1
1
1
1
1
1
1
1
1
1
1
1
1
1
1
1
1
1
1
1
1
1
1
1
1
0.999999
1
1
1
1
1
1
0.999998
1
1
0.999993
1
1
1
1
1
0.999998
0.999986
1
0.999999
0.99995
0.999999
1
1
1
1
1
1
1
0.999999
0.999998
1
1
1
1
1
1
1
1
1
1
1
0.981164
0.8747
0.786764
0.697278
0.622075
0.580585
0.918373
0.832227
0.717318
0.575978
0.421618
0.291504
0.188668
0.119945
0.0799955
0.0642043
0.405609
0.286071
0.169796
0.0946957
0.0471427
0.0194878
0.00312781
3.61133e-05
3.3148e-05
3.31503e-05
4.39261e-06
6.40204e-06
2.40228e-05
1.94889e-05
1.05028e-05
5.78703e-06
1.48023e-05
3.73434e-05
3.98026e-05
5.95552e-05
4.28875e-06
4.39261e-06
2.80799e-05
3.22479e-05
9.80379e-06
3.49721e-06
5.91104e-06
8.46767e-05
0.000157728
0.000156383
4.22969e-06
4.82408e-06
2.91587e-05
1.53441e-05
3.03752e-06
2.35157e-06
2.97039e-06
6.62955e-05
0.000156585
0.000112296
4.24427e-06
1.14513e-05
5.70849e-05
4.446e-05
2.14213e-06
2.14279e-06
2.35147e-06
8.37144e-06
0.000103714
0.000251993
1.5012e-05
3.81979e-05
5.81008e-05
2.38775e-05
1.77402e-06
1.85322e-06
2.45121e-06
3.83699e-06
5.21732e-05
0.000240511
2.39452e-05
1.64855e-05
1.47843e-06
2.08302e-06
1.68617e-06
1.78124e-06
3.08691e-06
8.32292e-06
4.42509e-05
9.39697e-05
1.83953e-05
1.4763e-06
1.47405e-06
1.74127e-06
1.6458e-06
1.79744e-05
0.000158367
2.70252e-05
1.20926e-05
4.23671e-06
3.92244e-06
1.47327e-06
1.47843e-06
1.49457e-06
7.45564e-06
0.000158653
0.000167505
2.52821e-05
2.42592e-06
2.90574e-06
1.64153e-06
1.47478e-06
1.49457e-06
8.56238e-06
4.72259e-05
0.000111895
2.85966e-05
1.42196e-05
2.0128e-06
2.20137e-06
1.71125e-06
1.45863e-06
1.88847e-06
3.0674e-05
5.00377e-05
1.6789e-05
2.19885e-06
2.0206e-06
1.9267e-06
1.99978e-06
1
1
1
1
1
1
1
1
1
1
1
1
1
1
1
1
1
1
1
1
1
1
1
1
1
1
1
1
0.999999
1
1
1
1
1
1
1
1
0.999998
0.99999
0.999999
1
1
1
1
1
1
1
0.999999
0.999986
0.999998
1
1
1
1
1
1
1
1
1
1
1
1
1
1
1
1
1
1
0.997374
0.990624
1
1
1
0.964878
0.808081
0.650164
0.524694
0.40262
0.314517
0.283829
0.803841
0.651459
0.474234
0.297812
0.171809
0.0955359
0.0459508
0.0154167
0.0045469
0.00258657
0.205941
0.111838
0.037558
0.00486326
0.00237218
0.000110502
9.41624e-05
0.000140107
3.59799e-05
2.61372e-05
4.88522e-06
1.91452e-05
8.11234e-05
0.000155298
2.31336e-05
1.30827e-05
1.56258e-05
3.76063e-05
3.69243e-05
2.81082e-05
4.22969e-06
2.589e-05
1.37378e-05
2.22691e-05
1.31301e-05
3.5384e-06
3.54581e-06
5.69964e-05
0.000157728
3.06488e-05
4.17447e-06
5.12664e-06
1.05256e-05
1.35816e-05
4.33487e-06
2.22255e-06
2.55409e-06
1.79375e-05
7.11219e-05
0.00012023
4.1787e-06
3.51793e-05
5.6296e-05
4.84188e-05
3.86929e-06
2.06473e-06
2.20033e-06
2.55409e-06
5.72396e-05
0.000278309
1.54321e-05
5.21591e-05
4.08088e-05
2.94191e-05
1.68617e-06
1.93378e-06
2.01246e-06
2.53677e-06
5.18822e-05
0.000227932
4.51213e-05
8.16177e-06
1.4833e-06
1.85882e-06
1.6458e-06
1.68617e-06
1.8477e-06
2.24934e-06
3.80064e-05
6.4627e-05
1.6025e-05
1.47414e-06
1.47819e-06
1.4833e-06
1.54831e-06
1.6458e-06
5.00383e-06
3.53204e-06
1.02098e-05
5.9783e-06
1.81685e-06
1.48439e-06
1.4833e-06
1.51846e-06
1.61287e-05
8.79161e-05
7.68182e-05
1.09503e-05
3.76004e-06
4.23673e-06
2.68269e-06
1.03588e-05
7.11335e-06
2.39767e-05
9.55679e-05
9.8712e-05
5.77593e-05
8.93894e-06
2.43648e-06
8.18315e-06
9.11834e-06
3.74656e-05
1.97081e-05
3.77437e-05
4.00629e-05
1.42659e-05
5.94525e-06
3.06482e-06
3.77129e-06
8.46446e-06
1
1
1
1
1
1
1
1
1
1
1
1
1
1
1
1
1
1
1
1
1
1
1
1
1
1
1
1
0.999999
1
1
1
1
1
1
1
1
0.999994
0.999953
0.999967
1
1
1
1
1
1
1
1
0.999947
0.999678
1
1
1
1
1
1
1
1
1
1
1
1
1
1
1
1
0.97863
0.943233
0.918269
0.911947
1
1
0.945646
0.789644
0.577441
0.393148
0.255987
0.179274
0.145802
0.13734
0.644845
0.440831
0.248696
0.114815
0.0464106
0.0119512
0.00111925
0.000521871
0.0001914
0.000102076
0.0705786
0.0281005
0.00121667
0.000146871
0.000174453
7.85507e-05
8.51768e-05
6.50826e-05
2.00329e-05
2.07126e-05
7.76765e-06
7.4143e-05
9.08022e-05
3.26395e-05
3.30637e-05
2.14585e-05
1.76463e-05
2.75723e-05
2.39002e-05
1.97155e-05
8.01245e-06
1.06587e-05
2.06477e-05
2.45954e-05
2.19681e-05
1.32094e-05
7.36957e-06
3.75892e-05
4.54332e-05
0.000105218
4.18957e-06
4.43664e-06
2.05586e-05
2.31592e-05
2.51205e-05
1.50158e-05
3.54584e-06
1.01581e-05
0.000158965
0.000241244
4.17452e-06
4.96622e-05
5.63912e-05
2.16549e-05
1.51978e-05
2.01358e-05
8.7659e-06
2.95092e-06
9.82991e-05
0.000230055
8.54105e-06
5.26963e-05
4.83155e-05
1.49807e-05
2.18216e-06
2.00918e-05
9.209e-06
2.45789e-06
2.97214e-05
2.46185e-05
4.51514e-05
3.28477e-06
1.48654e-06
2.9263e-06
1.76429e-06
9.95437e-06
2.88728e-06
2.21559e-06
2.41734e-06
4.84908e-06
2.29796e-05
1.48143e-06
1.4833e-06
1.48654e-06
1.54982e-06
1.65124e-06
2.02377e-06
2.13147e-06
2.23506e-06
2.67579e-06
4.27278e-06
1.09074e-05
1.48654e-06
1.59622e-06
5.62185e-06
4.89892e-06
3.57087e-06
5.91896e-06
9.11634e-06
5.36339e-05
1.1884e-05
3.19163e-05
6.87481e-06
1.92195e-06
3.1197e-05
1.15106e-05
9.53094e-06
7.18091e-06
2.32122e-05
0.000101499
1.18857e-05
0.000167022
0.000222769
3.75982e-05
5.16489e-06
4.34398e-06
3.83432e-06
3.22819e-06
9.72218e-06
5.76524e-05
1
1
1
1
1
1
1
1
1
1
1
1
1
1
1
1
0.999999
0.999998
0.999999
1
1
1
1
1
1
1
0.999999
0.999996
0.999996
1
1
1
1
1
1
1
1
1
0.999968
0.99991
1
1
1
1
1
1
1
1
0.999957
0.999415
1
1
1
1
1
1
1
1
0.999999
0.999992
1
1
1
1
1
0.975622
0.933183
0.895873
0.872062
0.863675
0.976504
0.944428
0.822796
0.610111
0.391912
0.236179
0.15881
0.119737
0.103542
0.100157
0.486033
0.281257
0.125152
0.0401322
0.00831903
0.000640014
0.000225022
2.79482e-05
7.23827e-06
7.12129e-06
0.0141218
0.00203118
3.19912e-05
3.55156e-05
6.6725e-05
5.7885e-05
2.5312e-05
7.02552e-06
6.85892e-06
1.48634e-05
1.6856e-05
5.31864e-05
3.42894e-05
3.55313e-05
2.40791e-05
1.39646e-05
2.28182e-05
8.74873e-06
1.47211e-05
0.000104083
6.12153e-06
1.37547e-05
2.93622e-05
7.63633e-05
1.71463e-05
5.24394e-06
6.78963e-06
1.3442e-05
5.31153e-05
0.000189865
4.31379e-06
8.26928e-06
2.95003e-05
4.59432e-05
2.81443e-05
3.68308e-06
3.35444e-06
1.26345e-05
6.95959e-05
0.000106096
4.18957e-06
5.74104e-05
5.70674e-05
5.34469e-06
1.03378e-05
7.36459e-06
8.66342e-06
9.46396e-06
4.19991e-05
1.15686e-05
4.24051e-06
5.31491e-05
3.15024e-05
1.61371e-06
1.80382e-06
1.17312e-05
1.10889e-05
2.44745e-06
4.14072e-06
6.13287e-06
4.39385e-05
3.51585e-06
3.24977e-06
1.56554e-06
1.60726e-06
3.23257e-06
6.08691e-06
2.11607e-06
2.21559e-06
1.08094e-05
3.12895e-05
7.8309e-06
3.56693e-06
1.53259e-06
1.56752e-06
1.60726e-06
1.79957e-06
2.05744e-06
2.13147e-06
5.5643e-05
1.58814e-05
0.000183495
0.00018414
1.60266e-06
1.60726e-06
1.89151e-05
6.49577e-05
7.41655e-05
7.70429e-05
0.000124613
2.96421e-05
0.000235669
0.000270464
0.000184812
2.92036e-05
1.91472e-06
8.78614e-06
2.74257e-05
5.86413e-05
0.000120586
1.56933e-05
0.000205558
0.000247776
0.0002345
0.00010091
1.96119e-06
2.1925e-06
3.48625e-06
1.10326e-05
6.18972e-05
1
1
1
1
1
1
1
0.999999
0.999999
1
1
1
1
1
1
1
0.999998
0.999982
0.999982
0.999999
1
1
1
1
1
1
0.999997
0.999982
0.999983
1
1
1
1
1
1
1
0.999999
0.999992
0.999974
0.999913
1
1
1
1
1
1
0.999997
0.999964
0.999913
0.999618
1
1
1
1
1
1
1
0.999999
0.999975
0.999793
1
1
1
1
0.993665
0.958106
0.914112
0.87708
0.85583
0.847726
0.939229
0.874242
0.710155
0.48888
0.302857
0.192637
0.134513
0.102576
0.0896463
0.0882072
0.357571
0.179193
0.0625403
0.0146615
0.000613711
5.68458e-05
1.07086e-05
1.91948e-06
1.6284e-06
3.08081e-06
0.000435174
3.19913e-05
3.19913e-05
3.19472e-05
3.20698e-05
1.29078e-05
3.71351e-06
1.77625e-06
2.05371e-06
3.68298e-05
9.49197e-05
5.24564e-05
5.11852e-05
9.99433e-05
1.77481e-05
5.35051e-06
5.16876e-06
1.71203e-06
2.42575e-06
8.47632e-05
1.27377e-05
3.60426e-05
9.11051e-05
0.000215886
4.1227e-05
3.32772e-06
3.04617e-06
1.70627e-06
1.13802e-05
3.9474e-05
4.89232e-06
1.68901e-05
5.35195e-05
7.51575e-05
2.69815e-05
2.66985e-06
3.02103e-06
5.40697e-06
2.42957e-06
3.74028e-06
4.32456e-06
5.79567e-05
1.89925e-05
3.99052e-06
2.78926e-06
2.54787e-06
2.75065e-06
2.66654e-06
2.57388e-06
5.39307e-06
4.26651e-06
5.80828e-05
6.30866e-05
2.5569e-05
2.23452e-06
2.50015e-06
2.55674e-06
2.62144e-06
2.63814e-06
5.74143e-05
3.59587e-05
1.78965e-05
0.00023346
0.000317746
7.29449e-05
1.88083e-05
2.82087e-05
2.43679e-05
5.81286e-05
0.000226169
4.53663e-05
6.6217e-05
0.00030541
0.000326407
0.000309467
0.000257963
0.000130683
7.68457e-05
9.89862e-05
0.000198499
1.93076e-05
0.000197473
0.000299402
0.000311097
9.34581e-05
1.91472e-06
2.27568e-06
2.53302e-06
4.99941e-06
1.2885e-05
1.09282e-05
0.000145915
0.000290521
0.0002275
6.46109e-06
1.68263e-06
4.59374e-06
1.10024e-05
1.08388e-05
1.34078e-05
3.82979e-06
8.6703e-05
0.000115709
3.95739e-05
2.08184e-06
1.83215e-06
3.46175e-05
7.19303e-05
7.86747e-05
1.81938e-05
1
1
1
1
1
1
1
1
0.999995
0.999937
1
1
1
1
1
1
1
0.999988
0.999986
0.999967
1
1
1
1
1
1
0.999999
0.999986
0.999983
0.999948
1
1
1
1
1
1
0.999996
0.999957
0.999927
0.999749
1
1
1
1
1
1
0.999923
0.999432
0.999198
0.998656
1
1
1
1
1
1
1
0.999996
0.999821
0.999088
1
1
1
1
0.989719
0.950332
0.901628
0.865055
0.849773
0.855679
0.899009
0.811046
0.635424
0.436816
0.280572
0.181796
0.123529
0.0929515
0.0826527
0.091206
0.270904
0.121687
0.0339691
0.003586
4.69152e-05
6.67814e-06
1.51402e-06
1.23613e-06
1.32049e-06
1.6284e-06
0.000766387
4.41509e-05
3.19298e-05
3.20757e-05
1.29099e-05
4.02491e-06
1.51243e-06
1.27385e-06
1.36552e-06
3.45998e-06
0.000146555
5.62226e-05
0.000145954
0.000268057
6.34477e-05
2.36267e-06
1.51178e-06
1.30225e-06
1.44534e-06
7.43872e-06
1.80633e-05
4.65316e-05
0.000210251
0.000187876
3.13249e-05
2.57544e-06
1.70016e-06
1.3914e-06
1.55904e-06
2.19639e-05
5.97117e-06
1.88497e-05
2.74319e-05
2.63559e-05
3.2648e-06
3.01843e-06
5.52467e-06
1.70017e-06
1.95277e-06
4.19487e-05
4.68314e-06
4.38908e-05
5.21805e-05
9.02366e-05
1.3862e-05
2.63874e-06
2.46498e-06
2.09391e-06
2.40608e-06
9.15442e-05
3.8074e-06
4.61925e-05
0.000266326
0.000345769
0.00018266
2.54787e-06
2.6951e-06
2.44046e-06
5.75155e-05
0.000262268
1.40134e-05
7.99495e-05
0.000336146
0.000340856
0.000336151
0.000109619
2.77963e-06
3.3122e-06
7.42383e-05
0.000304272
3.96231e-05
3.74762e-05
0.000287098
0.000336146
0.0003239
3.32862e-05
3.39044e-06
3.509e-06
6.94778e-06
0.000102448
4.46075e-05
5.10633e-05
0.00014489
0.000176661
6.62323e-05
1.82099e-06
2.3091e-06
2.72923e-06
1.12676e-05
1.22906e-05
4.13293e-05
1.92526e-05
4.1393e-05
2.29203e-05
1.10101e-06
1.57961e-06
2.73878e-05
2.91415e-05
0.000103202
5.28063e-05
3.85446e-05
7.34193e-06
2.10386e-06
1.10101e-06
1.10101e-06
1.3893e-06
6.73044e-05
0.000174867
0.0001754
8.68084e-05
1
1
1
1
1
1
1
1
0.999841
0.991896
1
1
1
1
1
1
1
1
0.999857
0.99218
1
1
1
1
1
1
1
1
0.999832
0.99554
1
1
1
1
1
1
0.999998
0.999989
0.9999
0.995764
1
1
1
1
1
1
0.999979
0.999892
0.998189
0.990719
1
1
1
1
1
1
1
0.999988
0.99907
0.993633
1
1
1
1
0.989919
0.943251
0.885236
0.846173
0.840661
0.865975
0.872602
0.775388
0.608861
0.429798
0.279632
0.174858
0.1105
0.0805414
0.0759721
0.0987923
0.227753
0.0916034
0.0200736
0.00098495
6.67831e-06
1.51403e-06
1.21932e-06
1.21983e-06
1.23613e-06
1.32049e-06
0.00103978
0.000122687
0.000153849
0.000217678
3.67312e-05
1.51248e-06
1.27028e-06
1.22578e-06
1.25487e-06
1.38461e-06
0.000112562
7.57748e-05
0.000168698
0.000219718
0.000122764
1.65512e-06
1.30239e-06
1.2379e-06
1.30241e-06
3.85202e-05
2.11644e-05
8.13494e-05
0.000289151
5.03592e-05
5.50551e-06
2.94197e-06
3.42957e-06
1.29029e-06
1.42845e-06
4.84267e-05
4.65491e-06
3.0802e-05
8.91833e-05
6.89316e-05
9.72564e-06
3.07965e-06
6.18574e-06
1.39141e-06
8.07127e-06
4.75572e-05
3.19527e-06
4.69564e-06
0.00010335
0.000351988
0.000221082
5.37929e-06
1.09695e-05
2.90326e-05
3.03276e-05
3.92869e-05
3.19596e-06
2.24858e-05
0.000291835
0.000348835
0.000346736
0.000177077
2.77963e-06
3.06306e-06
2.98062e-05
0.000205795
1.15906e-06
3.12772e-05
0.000257085
0.000345769
0.000341183
0.000265091
3.12088e-06
3.88167e-06
1.65389e-05
0.000171643
2.49279e-05
1.88955e-05
4.68631e-05
0.000165209
0.000205523
7.19396e-05
5.7211e-06
3.99781e-06
4.1662e-06
6.87341e-06
4.37786e-05
8.21189e-06
2.40376e-06
1.24996e-06
1.16264e-06
1.5804e-06
4.74585e-06
4.16389e-06
6.36853e-05
4.85822e-05
4.22734e-05
1.31298e-05
1.24996e-06
1.16264e-06
1.13275e-06
2.46617e-06
2.77724e-05
2.63075e-05
0.000172216
0.00016843
4.22734e-05
3.15444e-05
2.3656e-06
1.16953e-06
1.10101e-06
1.16953e-06
2.07444e-05
0.00010153
0.000174867
0.000172216
1
1
1
1
1
1
1
1
0.99983
0.991577
1
1
1
1
1
1
1
1
0.999997
0.995335
1
1
1
1
1
1
1
0.999999
0.999999
0.997953
1
1
1
0.999998
1
1
1
0.999998
0.999941
0.996036
1
1
1
0.999981
0.999977
0.999998
1
1
0.999118
0.990715
1
1
1
1
1
1
1
0.999996
0.999522
0.994732
1
1
1
1
0.993044
0.944694
0.885153
0.841192
0.830679
0.861123
0.871345
0.780061
0.630656
0.457423
0.288957
0.17259
0.105068
0.0738171
0.0692173
0.096393
0.222483
0.0943926
0.0245534
0.0032447
9.03772e-05
1.21928e-06
1.21315e-06
1.21548e-06
1.21983e-06
1.24964e-06
0.000712616
9.55053e-05
7.8935e-05
0.000136129
2.47368e-05
1.73096e-06
1.21932e-06
1.21835e-06
1.22578e-06
1.25477e-06
0.000104845
8.97224e-05
0.000180784
0.000187991
5.47958e-05
1.31924e-06
1.23432e-06
1.22578e-06
1.47558e-06
1.73703e-05
1.35718e-05
8.94624e-05
0.000318462
7.83974e-05
1.5011e-06
1.37892e-06
1.31161e-06
1.2379e-06
9.62486e-06
2.7411e-05
2.84556e-06
5.87599e-05
0.000326271
0.000293505
0.000115997
5.50023e-05
1.10206e-05
1.17381e-05
1.43697e-05
1.12718e-05
1.70716e-06
8.87439e-06
0.000204076
0.000353305
0.000351987
0.00029369
3.26167e-05
6.21256e-06
8.47759e-06
1.04058e-05
1.61105e-06
5.09681e-06
0.000207984
0.000351987
0.000349474
0.000346733
0.000143969
5.44813e-06
6.88267e-06
3.72816e-05
1.03128e-06
8.1541e-06
2.61937e-05
0.000227157
0.000346736
0.000341013
0.000199453
4.93389e-06
7.21917e-06
1.29291e-05
1.86374e-06
1.57592e-06
1.50569e-06
1.52969e-06
1.04869e-05
4.60739e-05
3.15366e-05
1.66192e-05
6.20809e-06
1.14733e-05
2.23781e-05
6.59482e-06
1.52969e-06
1.42948e-06
3.41326e-06
2.35263e-06
3.25613e-06
3.9973e-06
6.61243e-05
0.000115204
3.41003e-05
1.7979e-05
1.42948e-06
1.24996e-06
1.16264e-06
3.04086e-06
4.57487e-06
4.62074e-06
0.000166749
0.00016475
2.51711e-05
2.15832e-05
6.1032e-06
1.29138e-06
1.32536e-06
6.95756e-06
5.32926e-06
6.39167e-06
0.000172216
0.000152532
1
1
1
1
1
1
1
1
1
1
1
1
1
1
1
1
1
0.999991
0.999992
1
1
1
1
1
1
1
0.999999
0.999984
0.999981
1
1
1
1
0.999998
0.999991
0.999998
0.999999
0.999992
0.999988
1
1
1
1
0.999981
0.999912
0.999952
1
1
0.999996
1
1
1
1
1
1
1
0.999997
0.999998
0.999986
0.999991
1
1
1
1
0.999999
0.950893
0.884541
0.829168
0.807177
0.833822
0.898785
0.820957
0.693523
0.521609
0.323614
0.181663
0.106406
0.0701905
0.0595642
0.0804816
0.268031
0.125295
0.0452006
0.0135152
0.000291694
1.21383e-06
1.21403e-06
1.21399e-06
1.21548e-06
1.23926e-06
0.000438614
7.89346e-05
6.79538e-05
5.80917e-05
2.71471e-05
2.72348e-05
1.49515e-06
1.21548e-06
1.21835e-06
1.24511e-06
6.30054e-05
0.000114083
0.000163695
0.00016405
1.39196e-05
6.05175e-06
1.29444e-06
1.21964e-06
1.78767e-06
1.58364e-06
7.8169e-06
0.00011182
0.000329483
4.65932e-05
2.50974e-06
1.87532e-06
1.3664e-06
3.79987e-06
1.1215e-05
1.66289e-06
1.58889e-06
0.000111038
0.000342343
0.00023392
0.000107002
0.000151717
3.51968e-05
5.18491e-06
1.08768e-05
1.56793e-06
1.08503e-06
3.46673e-05
0.000353305
0.000353305
0.000353317
0.000351627
0.000162853
4.10905e-06
4.84242e-06
5.84576e-06
1.03127e-06
1.42354e-06
5.43685e-05
0.000353305
0.000351627
0.000349114
0.000345422
4.76135e-05
6.82093e-06
3.59044e-05
1.03128e-06
1.03127e-06
1.30732e-06
4.16997e-06
0.000101237
0.000202654
0.000274885
6.43146e-05
7.99072e-06
1.3415e-05
1.03128e-06
1.16453e-06
1.3629e-06
1.50569e-06
1.71282e-06
2.09131e-06
3.22514e-06
4.44983e-06
4.70321e-06
1.84597e-05
1.68561e-06
3.09011e-06
1.56772e-06
1.52969e-06
1.6655e-06
1.01372e-05
1.12343e-05
4.84704e-06
1.4659e-05
0.000139577
2.21111e-06
2.65688e-06
1.96213e-06
4.35477e-06
1.37189e-05
5.33112e-05
4.09222e-05
5.79664e-06
9.2887e-05
0.000160788
4.156e-06
4.4442e-06
2.83867e-06
7.62892e-06
3.15973e-05
5.96678e-05
1.91892e-05
8.59141e-06
0.000158492
0.000105509
1
1
1
1
1
1
1
0.999999
1
1
1
1
1
1
1
1
0.999998
0.99998
0.999984
0.999999
1
1
1
1
1
1
0.999993
0.99998
0.99998
0.999995
1
1
1
1
0.999998
1
0.999998
0.999994
0.999995
0.999998
1
1
1
0.999996
0.99998
1
1
1
0.999994
0.999998
1
1
1
1
1
1
1
0.999993
0.999973
0.99998
1
1
1
1
1
0.972756
0.905496
0.840895
0.803951
0.815124
0.943655
0.894754
0.790486
0.620596
0.409088
0.221419
0.127733
0.08479
0.0673501
0.0757152
0.3602
0.193191
0.0898172
0.0350657
0.00533048
2.84941e-05
1.19582e-06
1.21547e-06
1.21908e-06
1.25328e-06
0.000461061
0.000152633
6.55855e-05
6.10738e-05
3.73148e-05
3.08079e-06
1.21078e-06
1.21835e-06
1.22174e-06
1.32284e-06
4.23167e-05
0.000174521
0.000167981
5.79451e-05
1.22207e-05
1.65051e-06
1.23051e-06
1.22188e-06
1.23251e-06
1.40967e-06
8.4328e-06
0.000176982
0.000321829
9.91616e-05
4.78872e-06
1.57519e-06
1.4167e-06
1.35422e-06
1.94876e-06
1.48386e-06
1.20229e-06
9.63324e-05
0.000329483
0.000281012
1.7335e-05
9.06691e-05
8.00255e-05
1.44242e-06
6.78971e-06
1.4853e-06
1.06789e-06
1.4753e-05
0.000246175
0.000353105
0.000283321
0.000343777
0.000302789
1.94653e-06
4.0935e-06
4.93783e-06
1.08504e-06
1.16447e-06
1.38167e-06
4.68994e-05
0.00031075
0.000335858
0.000339146
0.000266004
4.52531e-06
2.28886e-05
1.10049e-06
1.4933e-06
2.68986e-06
3.43598e-06
4.38552e-06
1.30702e-05
0.000102988
4.70047e-05
7.9068e-06
8.45237e-06
2.81994e-05
2.82223e-05
1.79631e-05
2.57605e-06
5.45211e-06
1.45211e-05
1.03299e-05
5.27765e-06
6.37624e-06
1.50653e-05
6.96877e-05
5.98883e-05
3.945e-05
8.48866e-06
5.82624e-05
6.61477e-05
6.61867e-05
2.36284e-05
6.82109e-06
0.000118718
4.73006e-05
5.20082e-05
3.615e-05
4.11764e-05
6.36622e-05
6.53056e-05
6.61477e-05
1.1242e-05
2.27543e-05
0.000153754
7.92284e-06
3.32724e-05
3.4562e-05
5.95203e-05
6.05689e-05
6.36622e-05
2.3522e-05
1.32741e-05
6.29959e-05
6.79854e-05
1
1
1
1
1
1
1
1
1
1
1
1
1
1
1
1
0.999999
0.999998
0.999999
1
1
1
1
1
1
1
0.999999
0.999996
0.999996
0.999999
1
1
1
1
1
1
1
1
1
1
1
1
1
1
1
1
1
1
1
1
1
1
1
1
1
1
1
0.999996
0.999983
0.999983
1
1
1
1
1
1
0.952294
0.890133
0.845563
0.842108
0.996707
0.977387
0.901009
0.757241
0.544437
0.321697
0.186327
0.125187
0.100521
0.100316
0.509818
0.31726
0.173956
0.0822184
0.0255332
0.000611185
6.20446e-05
8.17656e-07
1.24596e-06
1.2651e-06
0.0199731
0.00219959
0.000137678
6.32598e-05
5.18603e-05
6.39807e-05
3.14293e-06
1.19766e-06
1.24356e-06
1.36785e-06
1.74957e-05
0.000125239
0.000217166
5.77544e-05
1.19736e-05
3.92371e-06
1.25131e-06
1.2325e-06
1.29979e-06
1.38399e-06
2.53787e-06
0.000238383
0.000311378
0.000162724
1.02487e-05
1.68402e-06
1.48084e-06
1.36085e-06
1.36004e-06
1.36005e-06
1.06789e-06
1.96967e-05
0.000268281
0.000274292
3.08003e-05
1.86823e-05
8.79602e-05
1.389e-05
1.36005e-06
1.40123e-06
1.05635e-06
1.16483e-06
4.93517e-06
0.000209414
0.000169833
0.000246953
0.000335291
0.000108828
1.40123e-06
2.25499e-06
1.06789e-06
1.28068e-06
1.54912e-06
2.45071e-06
6.37089e-05
0.00010687
0.000335291
0.000335473
2.17037e-05
2.58115e-05
4.31852e-06
1.86546e-06
8.78496e-06
1.63006e-05
8.48879e-06
1.00621e-05
2.91142e-05
2.76819e-05
7.8809e-06
8.28567e-06
0.000125439
9.55522e-05
7.42203e-05
7.16992e-05
6.4657e-05
2.59002e-05
6.83143e-06
5.97718e-06
6.76853e-06
1.61432e-05
0.000173257
0.000155121
6.25781e-05
1.22718e-05
2.94865e-05
6.62203e-05
6.61477e-05
1.56848e-05
6.83025e-06
0.000100719
0.000173179
0.000151534
5.07398e-05
5.66112e-06
9.72683e-06
4.4241e-05
1.47365e-05
8.25748e-06
7.55451e-06
6.99842e-05
0.000122638
0.000142903
7.7925e-05
2.02091e-05
1.95033e-05
8.35165e-06
6.38214e-06
2.39471e-05
2.23829e-05
5.65154e-06
1
1
1
1
1
1
1
1
1
1
1
1
1
1
1
1
1
1
1
1
1
1
1
1
1
1
1
0.999999
0.999995
1
1
1
1
1
1
1
1
0.999993
0.999971
1
1
1
1
1
1
1
1
1
1
1
1
1
1
1
1
1
1
1
0.999997
0.999999
1
1
1
1
1
1
0.997048
0.960635
0.924543
0.911279
1
1
1
0.916843
0.739864
0.513161
0.316856
0.2126
0.173583
0.1654
0.692968
0.5114
0.328451
0.18234
0.075609
0.0169647
0.000391403
0.000100045
7.73317e-07
1.32866e-06
0.0894383
0.0321789
0.00378719
0.00018174
5.25582e-05
0.000138423
2.56943e-05
4.81221e-06
1.33941e-06
1.37385e-06
6.61727e-05
9.63245e-05
8.36996e-05
4.36197e-05
1.93913e-05
2.00927e-05
3.06068e-06
1.29336e-06
1.38391e-06
2.04028e-06
0.000200479
0.000288424
0.00030251
8.8191e-05
1.39903e-05
3.51934e-06
1.68618e-06
2.43308e-05
4.19207e-06
2.95923e-06
1.05692e-06
1.31579e-06
0.000201327
0.000264787
4.518e-05
1.204e-05
5.92475e-05
0.000186587
1.40123e-06
1.4853e-06
1.06225e-06
1.0584e-06
1.31579e-06
0.000135836
0.0001385
2.21538e-05
0.00022414
0.000262378
4.03108e-05
1.66976e-06
2.23503e-06
4.31507e-06
9.31963e-06
9.14625e-06
4.08958e-05
3.35465e-05
0.000203897
0.00030185
0.000161953
5.57492e-05
2.34715e-06
1.03614e-05
1.06242e-05
7.52941e-06
6.99896e-06
2.35752e-05
9.89119e-05
8.05052e-05
7.18858e-06
8.46142e-06
0.00012137
8.65351e-06
5.34159e-06
5.66187e-06
5.83028e-06
7.86248e-05
4.25136e-05
6.80057e-06
6.83025e-06
4.03342e-05
0.000173165
5.29176e-06
5.35777e-06
5.39598e-06
5.57244e-06
2.08354e-05
1.56897e-05
7.47383e-06
7.18858e-06
8.0851e-05
0.000173305
5.33941e-06
5.36651e-06
5.38616e-06
5.60021e-06
5.88637e-06
6.50805e-06
7.55143e-06
1.30234e-05
1.36719e-05
0.000171605
1.82138e-05
5.38617e-06
5.38615e-06
5.49842e-06
5.71248e-06
5.88638e-06
1.39961e-05
4.27999e-05
1.39393e-05
1
1
1
1
1
1
1
1
1
1
1
1
1
1
1
1
1
1
1
1
1
1
1
1
1
1
1
0.999998
1
1
1
1
1
1
1
1
1
0.999979
0.999889
1
1
1
1
1
1
1
1
1
0.999458
0.997615
1
1
1
1
1
0.999999
1
1
0.999647
0.997319
1
1
1
1
1
1
1
0.999998
0.993461
0.983984
1
1
1
1
0.947462
0.773378
0.570965
0.416395
0.325931
0.296161
0.843328
0.727718
0.557139
0.376649
0.194377
0.0796163
0.021183
0.00234431
0.000334382
0.0003774
0.222581
0.110213
0.0443379
0.00758197
0.000274842
9.83128e-05
7.41451e-05
4.23004e-05
3.0626e-05
1.68153e-06
8.08452e-05
8.92e-05
7.88635e-05
6.98727e-05
4.6393e-05
2.36165e-05
1.00059e-05
4.82181e-06
4.16722e-06
2.93134e-06
0.000205891
0.000194569
9.01351e-05
3.52417e-05
1.83308e-05
1.00534e-05
3.52723e-06
6.05003e-05
6.55232e-05
4.7591e-06
0.000138038
7.61375e-05
9.95092e-05
0.000113459
2.54612e-05
1.48741e-05
1.65614e-05
0.000239719
0.000100757
1.66976e-06
2.33515e-05
1.22975e-05
2.55824e-05
5.71528e-05
7.57688e-05
1.31739e-05
2.8115e-05
0.000256139
0.000197963
1.88227e-06
2.34715e-06
5.08993e-06
1.30525e-05
3.23182e-05
8.3056e-05
3.10181e-05
1.37276e-05
0.000117842
0.00018149
0.000113457
1.17455e-05
5.17274e-06
5.37262e-06
8.14822e-06
4.47449e-05
9.0732e-05
5.16781e-05
5.34358e-05
0.000111388
0.000186563
9.39665e-05
5.28425e-06
5.2734e-06
5.37707e-06
1.16544e-05
0.000106507
0.000117268
0.000119428
5.85169e-05
0.000280396
0.000167669
5.27577e-06
5.29176e-06
5.52947e-06
6.00846e-06
3.57614e-05
0.000118967
0.00012083
0.000149804
0.000215159
0.000169296
5.29176e-06
5.33811e-06
5.64133e-06
6.10291e-06
6.48371e-06
1.56611e-05
1.33604e-05
1.19744e-05
1.18388e-05
0.000167967
5.33811e-06
5.36651e-06
5.49843e-06
5.71248e-06
5.88637e-06
6.48393e-06
7.99491e-06
2.50512e-05
2.33344e-05
1
1
1
1
1
1
1
1
1
1
1
1
1
1
1
1
1
1
1
1
1
1
1
1
1
1
1
1
0.999995
0.999986
1
1
1
1
1
1
1
0.999997
0.99993
0.99987
1
1
1
1
1
1
1
1
0.999709
0.998974
1
1
1
1
1
1
1
1
0.999845
0.99853
1
1
1
1
1
1
1
1
1
0.999997
1
1
1
1
1
0.974351
0.845805
0.70912
0.609752
0.564392
0.997686
0.931963
0.785718
0.608807
0.406533
0.213088
0.105281
0.0517182
0.0289448
0.0249477
0.428667
0.294928
0.160548
0.0647066
0.00833509
0.000261564
5.74706e-05
3.1859e-05
4.93581e-05
1.75352e-05
5.79453e-05
5.91024e-05
4.14835e-05
3.3208e-05
0.000139447
4.33579e-05
1.65076e-05
1.94651e-05
1.86334e-05
1.28185e-05
4.94292e-05
3.41299e-05
1.90518e-05
2.32428e-05
2.81838e-05
1.55057e-05
9.99448e-06
8.25119e-05
0.000156193
1.01982e-05
0.00011613
0.000111139
1.08263e-05
1.44696e-05
1.67304e-05
1.31525e-05
1.34015e-05
0.000216666
0.000213206
2.06625e-05
3.45099e-05
5.91268e-05
2.01903e-05
8.89788e-06
1.05601e-05
1.13054e-05
9.86e-06
0.000209979
0.000214035
9.13691e-05
4.59224e-05
5.32149e-06
7.68057e-06
1.28965e-05
2.13974e-05
1.48307e-05
8.42045e-06
3.3675e-05
6.5807e-05
5.78183e-05
0.000138026
5.34184e-06
5.54096e-06
5.89743e-06
1.60904e-05
3.71785e-05
7.9077e-06
9.55862e-06
6.12037e-05
0.000288983
0.000139578
5.44082e-06
5.37798e-06
5.5774e-06
6.29638e-06
3.5108e-05
4.40792e-05
4.55396e-05
0.000277783
0.000290455
0.000142068
5.29172e-06
5.49288e-06
3.0417e-05
3.21243e-05
1.76307e-05
3.1655e-05
3.35274e-05
9.4891e-05
0.00026986
7.60528e-05
5.33797e-06