/*--------------------------------*- C++ -*----------------------------------*\
| =========                 |                                                 |
| \\      /  F ield         | OpenFOAM: The Open Source CFD Toolbox           |
|  \\    /   O peration     | Version:  2312                                  |
|   \\  /    A nd           | Website:  www.openfoam.com                      |
|    \\/     M anipulation  |                                                 |
\*---------------------------------------------------------------------------*/
FoamFile
{
    version     2.0;
    format      ascii;
    arch        "LSB;label=32;scalar=64";
    class       volVectorField;
    location    "0.055";
    object      U;
}
// * * * * * * * * * * * * * * * * * * * * * * * * * * * * * * * * * * * * * //

dimensions      [0 1 -1 0 0 0 0];

internalField   nonuniform List<vector> 
8000
(
(-5.21265e-09 8.29587e-09 -2.2291e-09)
(-1.26836e-08 5.03747e-09 -2.09311e-09)
(-1.40526e-08 5.31673e-09 -2.11948e-09)
(-1.69246e-08 4.63876e-09 -2.75219e-09)
(-1.77683e-08 3.89584e-09 -3.25454e-09)
(-1.66791e-08 3.20811e-09 -3.68587e-09)
(-1.50283e-08 2.86041e-09 -3.89401e-09)
(-1.12392e-08 2.90195e-09 -3.53045e-09)
(-8.92212e-09 3.49301e-09 -4.22929e-09)
(-2.58402e-10 2.6089e-09 -3.53811e-09)
(-2.6612e-09 2.11719e-08 -5.34761e-10)
(-7.2014e-09 1.48642e-08 -5.09079e-10)
(-8.16651e-09 1.55772e-08 -4.34145e-10)
(-1.00461e-08 1.46939e-08 -1.16743e-09)
(-1.10856e-08 1.31795e-08 -1.90569e-09)
(-1.10767e-08 1.15653e-08 -2.46831e-09)
(-1.07596e-08 1.03843e-08 -2.89799e-09)
(-8.63351e-09 9.66514e-09 -2.28079e-09)
(-6.66315e-09 9.04439e-09 -3.4256e-09)
(-2.82616e-09 7.72366e-09 -3.59233e-09)
(-1.19451e-09 2.688e-08 1.16352e-09)
(-5.15387e-09 2.01618e-08 1.2231e-09)
(-7.60659e-09 2.10332e-08 1.22119e-09)
(-9.75415e-09 2.10772e-08 2.78607e-10)
(-1.12132e-08 2.06095e-08 -4.59063e-10)
(-1.12886e-08 1.98744e-08 -1.27822e-09)
(-1.10741e-08 1.93305e-08 -2.07007e-09)
(-9.36843e-09 1.80724e-08 -1.80138e-09)
(-5.57529e-09 1.78758e-08 -4.46949e-09)
(-4.416e-09 2.08904e-08 -6.9285e-09)
(-1.11677e-11 3.12566e-08 2.39889e-09)
(-4.03824e-09 2.58392e-08 2.57776e-09)
(-7.65249e-09 2.64747e-08 2.34489e-09)
(-9.83026e-09 2.60205e-08 1.32239e-09)
(-1.14818e-08 2.5294e-08 4.19826e-10)
(-1.16096e-08 2.42436e-08 -7.52995e-10)
(-1.19798e-08 2.37554e-08 -2.23842e-09)
(-9.25996e-09 2.19546e-08 -2.39121e-09)
(-5.08559e-09 2.34684e-08 -7.80859e-09)
(-4.69969e-09 3.69655e-08 -1.19594e-08)
(8.88186e-12 3.64184e-08 2.3239e-09)
(-4.15709e-09 3.38766e-08 2.80237e-09)
(-7.60897e-09 3.46499e-08 2.53694e-09)
(-1.01944e-08 3.5127e-08 1.66584e-09)
(-1.20787e-08 3.53537e-08 8.14745e-10)
(-1.18788e-08 3.5132e-08 -7.12895e-10)
(-1.21741e-08 3.57754e-08 -2.66605e-09)
(-7.17295e-09 3.0148e-08 -3.62472e-09)
(-1.85508e-09 4.08274e-08 -1.13872e-08)
(-1.08167e-08 5.88977e-08 -1.81302e-08)
(-1.2384e-09 3.00761e-08 5.43234e-10)
(-5.44125e-09 2.84912e-08 1.66502e-09)
(-6.3999e-09 2.85269e-08 1.64295e-09)
(-8.28907e-09 2.76979e-08 1.06293e-09)
(-1.04376e-08 2.6619e-08 7.94922e-10)
(-1.00971e-08 2.54448e-08 -2.55299e-10)
(-1.51612e-08 2.79085e-08 -1.2417e-09)
(7.64911e-10 2.45803e-08 -2.40316e-09)
(3.16577e-09 4.36403e-08 -1.13277e-08)
(-2.37891e-08 8.4086e-08 -1.59155e-08)
(-5.9798e-09 5.91309e-08 -4.03464e-09)
(-9.9255e-09 5.07462e-08 -5.58226e-10)
(-8.20023e-09 5.04365e-08 -2.76891e-10)
(-1.13529e-08 5.3232e-08 2.48759e-10)
(-1.34096e-08 5.40454e-08 4.93078e-10)
(-9.68534e-09 5.11056e-08 4.74059e-11)
(-1.14227e-08 5.3887e-08 -2.24985e-09)
(1.40325e-08 2.02319e-08 -5.23651e-09)
(3.86113e-08 1.30273e-07 -1.51394e-08)
(-7.13117e-08 1.39542e-07 -1.37228e-08)
(4.56733e-09 3.28236e-08 3.79615e-09)
(3.36307e-09 1.13894e-08 2.27939e-10)
(4.04794e-09 1.35239e-08 2.72655e-09)
(9.06211e-09 1.32654e-08 3.69166e-09)
(6.99154e-09 9.35046e-09 6.23099e-09)
(1.0032e-08 1.85524e-09 9.37563e-09)
(-2.3966e-08 -2.22617e-09 1.13764e-08)
(2.62323e-08 -2.16809e-08 2.2718e-08)
(-6.5879e-08 1.19463e-07 2.90469e-08)
(7.15153e-08 1.7755e-07 3.36962e-08)
(-4.91202e-07 1.67686e-07 -5.23099e-07)
(-1.52272e-06 3.12011e-07 -7.44004e-07)
(-2.26981e-06 3.00377e-07 -8.01554e-07)
(-2.91647e-06 2.23961e-07 -7.87609e-07)
(-3.29283e-06 2.12373e-07 -8.1677e-07)
(-3.06238e-06 1.28368e-07 -8.52343e-07)
(-4.26954e-06 4.35717e-07 -8.55736e-07)
(-4.26432e-06 1.10803e-07 -2.65763e-08)
(-1.30877e-06 -5.50862e-07 6.19247e-07)
(-5.47117e-06 -1.09254e-07 8.56901e-07)
(-1.14503e-06 4.49993e-06 -1.19401e-06)
(-2.61519e-06 4.30128e-06 -1.10442e-06)
(-2.87428e-06 4.06722e-06 -1.09774e-06)
(-3.38511e-06 3.65091e-06 -1.1612e-06)
(-3.61394e-06 3.48412e-06 -1.12506e-06)
(-3.69132e-06 2.98331e-06 -1.10637e-06)
(-3.10633e-06 4.52883e-06 -1.14264e-06)
(-1.22605e-06 -1.96364e-06 -1.82076e-06)
(-1.06696e-06 1.68607e-06 -2.17813e-06)
(1.11186e-06 3.72239e-06 -1.30287e-06)
(-1.19385e-06 8.8655e-06 -1.2522e-06)
(-2.75254e-06 7.10581e-06 -1.22995e-06)
(-3.39032e-06 6.70646e-06 -1.24535e-06)
(-4.02715e-06 6.04149e-06 -1.22425e-06)
(-4.25556e-06 5.33413e-06 -1.21522e-06)
(-4.08315e-06 4.58886e-06 -1.22388e-06)
(-2.89403e-06 4.19119e-06 -1.17864e-06)
(-2.15546e-06 3.41235e-06 -1.63623e-06)
(-2.14646e-06 2.67453e-06 -1.53576e-06)
(2.59548e-06 2.99732e-06 -1.8356e-06)
(-1.12978e-06 1.35117e-05 -1.21849e-06)
(-2.95223e-06 1.11075e-05 -1.23715e-06)
(-3.8614e-06 1.03428e-05 -1.1962e-06)
(-4.74897e-06 9.37047e-06 -1.17116e-06)
(-5.0535e-06 8.22151e-06 -1.17321e-06)
(-4.82494e-06 6.982e-06 -1.17066e-06)
(-4.14257e-06 5.88947e-06 -1.17279e-06)
(-2.76039e-06 4.26195e-06 -1.2369e-06)
(-1.74687e-06 3.95001e-06 -1.24965e-06)
(5.06232e-07 3.90973e-06 -1.36657e-06)
(-1.43262e-06 1.87183e-05 -1.54308e-06)
(-3.61612e-06 1.57776e-05 -1.5472e-06)
(-5.04361e-06 1.45008e-05 -1.50494e-06)
(-6.14668e-06 1.29552e-05 -1.52834e-06)
(-6.6436e-06 1.10757e-05 -1.53368e-06)
(-6.4147e-06 9.09879e-06 -1.53473e-06)
(-5.61234e-06 7.13428e-06 -1.54478e-06)
(-4.096e-06 5.42705e-06 -1.58579e-06)
(-2.5037e-06 3.91865e-06 -1.61219e-06)
(-4.056e-08 3.42053e-06 -1.78116e-06)
(-1.70282e-06 2.54263e-05 -1.83322e-06)
(-4.53804e-06 2.14874e-05 -1.81166e-06)
(-6.59086e-06 1.98303e-05 -1.82874e-06)
(-8.17257e-06 1.75659e-05 -1.8532e-06)
(-8.90993e-06 1.48718e-05 -1.84575e-06)
(-8.76639e-06 1.20004e-05 -1.83189e-06)
(-7.81432e-06 9.14165e-06 -1.83025e-06)
(-5.97609e-06 6.68062e-06 -1.85994e-06)
(-3.75333e-06 4.64111e-06 -1.92265e-06)
(-7.71767e-07 3.65527e-06 -2.05571e-06)
(-2.0382e-06 3.3431e-05 -2.18426e-06)
(-5.87233e-06 2.91751e-05 -2.22781e-06)
(-8.84826e-06 2.67692e-05 -2.26295e-06)
(-1.11033e-05 2.35673e-05 -2.27002e-06)
(-1.22091e-05 1.97552e-05 -2.2829e-06)
(-1.21449e-05 1.56978e-05 -2.31752e-06)
(-1.09322e-05 1.17633e-05 -2.35859e-06)
(-8.59661e-06 8.39381e-06 -2.41631e-06)
(-5.52898e-06 5.77517e-06 -2.49302e-06)
(-1.48026e-06 4.47547e-06 -2.5261e-06)
(-2.8037e-06 4.37321e-05 -2.9669e-06)
(-7.9342e-06 3.89515e-05 -3.03512e-06)
(-1.20823e-05 3.56276e-05 -3.01699e-06)
(-1.51846e-05 3.12449e-05 -3.01578e-06)
(-1.67795e-05 2.60205e-05 -3.04243e-06)
(-1.67584e-05 2.04977e-05 -3.08081e-06)
(-1.51184e-05 1.52255e-05 -3.12191e-06)
(-1.19643e-05 1.07657e-05 -3.15743e-06)
(-7.67166e-06 7.50335e-06 -3.17512e-06)
(-2.22966e-06 5.98724e-06 -3.13365e-06)
(-3.70536e-06 5.7228e-05 -3.8877e-06)
(-1.06096e-05 5.17264e-05 -3.89989e-06)
(-1.64328e-05 4.72713e-05 -3.90345e-06)
(-2.07084e-05 4.13151e-05 -3.94251e-06)
(-2.29564e-05 3.42575e-05 -3.99546e-06)
(-2.29399e-05 2.68347e-05 -4.0481e-06)
(-2.06643e-05 1.97966e-05 -4.08803e-06)
(-1.63189e-05 1.3886e-05 -4.1237e-06)
(-1.03074e-05 9.66788e-06 -4.13449e-06)
(-3.05359e-06 7.74741e-06 -4.11902e-06)
(-4.8235e-06 7.4987e-05 -5.03465e-06)
(-1.42487e-05 6.87815e-05 -5.08953e-06)
(-2.23599e-05 6.27987e-05 -5.14369e-06)
(-2.81961e-05 5.47202e-05 -5.226e-06)
(-3.126e-05 4.52061e-05 -5.3182e-06)
(-3.12194e-05 3.52138e-05 -5.40396e-06)
(-2.80671e-05 2.57467e-05 -5.4888e-06)
(-2.20931e-05 1.77733e-05 -5.53963e-06)
(-1.38103e-05 1.20762e-05 -5.58468e-06)
(-4.14351e-06 9.32143e-06 -5.61901e-06)
(-6.51289e-06 9.85616e-05 -6.75838e-06)
(-1.93469e-05 9.15787e-05 -6.87904e-06)
(-3.03626e-05 8.35458e-05 -6.98559e-06)
(-3.82988e-05 7.26359e-05 -7.10488e-06)
(-4.24629e-05 5.97892e-05 -7.22689e-06)
(-4.23994e-05 4.62906e-05 -7.34897e-06)
(-3.81049e-05 3.34764e-05 -7.45887e-06)
(-2.99895e-05 2.26154e-05 -7.54522e-06)
(-1.87593e-05 1.47879e-05 -7.61291e-06)
(-5.74528e-06 1.07221e-05 -7.66895e-06)
(-8.91536e-06 0.000130216 -9.20338e-06)
(-2.63089e-05 0.000122181 -9.39308e-06)
(-4.1182e-05 0.000111379 -9.51195e-06)
(-5.19506e-05 9.66701e-05 -9.65484e-06)
(-5.76053e-05 7.93435e-05 -9.81745e-06)
(-5.75322e-05 6.11215e-05 -9.98283e-06)
(-5.17423e-05 4.37843e-05 -1.01367e-05)
(-4.07816e-05 2.90353e-05 -1.02647e-05)
(-2.57036e-05 1.83259e-05 -1.03476e-05)
(-8.09799e-06 1.25769e-05 -1.03821e-05)
(-3.70431e-09 5.53576e-09 -3.80105e-09)
(-8.4197e-09 2.5777e-09 -3.5084e-09)
(-7.64548e-09 2.85365e-09 -3.67977e-09)
(-9.11677e-09 2.2727e-09 -4.50681e-09)
(-9.54941e-09 1.75849e-09 -5.12207e-09)
(-9.46955e-09 1.6545e-09 -5.58228e-09)
(-9.25639e-09 1.75274e-09 -5.73214e-09)
(-8.63694e-09 2.61304e-09 -5.53286e-09)
(-9.33946e-09 2.77741e-09 -6.11489e-09)
(-3.38368e-09 -7.18723e-11 -5.10671e-09)
(-1.13715e-09 1.57489e-08 -1.17203e-09)
(-2.81784e-09 9.76064e-09 -1.06235e-09)
(-1.36484e-09 1.04787e-08 -1.2417e-09)
(-1.88334e-09 9.78522e-09 -2.29924e-09)
(-2.24623e-09 8.7692e-09 -3.33272e-09)
(-3.13848e-09 8.13513e-09 -4.08396e-09)
(-4.04383e-09 7.97813e-09 -4.46946e-09)
(-5.2925e-09 8.9731e-09 -4.07812e-09)
(-5.87787e-09 8.11219e-09 -4.13512e-09)
(-4.24888e-09 1.54524e-09 -4.24452e-09)
(4.78116e-10 2.04741e-08 1.30136e-09)
(-5.96268e-10 1.45202e-08 1.31903e-09)
(-2.75217e-10 1.54405e-08 1.12501e-09)
(-7.94387e-10 1.58073e-08 -1.44213e-10)
(-1.27992e-09 1.57393e-08 -1.3533e-09)
(-2.03391e-09 1.59025e-08 -2.51077e-09)
(-2.48979e-09 1.67298e-08 -3.57216e-09)
(-3.99451e-09 1.76706e-08 -3.64059e-09)
(-1.57589e-09 1.69359e-08 -4.73302e-09)
(-6.10919e-09 8.90964e-09 -7.75271e-09)
(1.82882e-09 2.56282e-08 2.62216e-09)
(7.56784e-10 2.18909e-08 2.89318e-09)
(-9.84641e-14 2.20579e-08 2.51731e-09)
(-5.77795e-10 2.15269e-08 1.25292e-09)
(-9.79137e-10 2.05679e-08 -2.0755e-10)
(-1.07559e-09 1.97101e-08 -1.95755e-09)
(-1.23763e-09 2.00934e-08 -3.95287e-09)
(-1.83537e-09 1.96527e-08 -4.46476e-09)
(3.50496e-09 1.89724e-08 -7.83941e-09)
(-9.13595e-09 1.77571e-08 -1.23497e-08)
(2.03935e-09 3.27422e-08 2.3948e-09)
(5.24236e-10 3.24729e-08 2.80337e-09)
(-3.75472e-10 3.28618e-08 2.37318e-09)
(-1.19751e-09 3.24863e-08 1.22331e-09)
(-1.84925e-09 3.21648e-08 -1.51103e-10)
(-1.33238e-09 3.10849e-08 -2.13574e-09)
(-1.19865e-09 3.18871e-08 -4.92659e-09)
(1.12509e-10 2.57618e-08 -6.27594e-09)
(1.05247e-08 3.11756e-08 -1.35239e-08)
(-1.64494e-08 3.22506e-08 -1.79269e-08)
(1.10264e-09 2.72554e-08 -4.39009e-10)
(-4.75816e-10 2.93238e-08 9.23407e-10)
(4.25289e-10 2.82309e-08 9.33986e-10)
(-1.41823e-10 2.59894e-08 1.73724e-10)
(-1.08647e-09 2.31405e-08 -4.45308e-10)
(-2.52116e-10 1.94533e-08 -1.7028e-09)
(-5.42264e-09 1.81045e-08 -3.28572e-09)
(4.6151e-09 1.02087e-08 -4.45756e-09)
(1.60157e-08 1.99019e-08 -1.52981e-08)
(-2.40204e-08 4.44174e-08 -1.65816e-08)
(-1.82356e-09 4.89137e-08 -4.39069e-09)
(-3.75465e-09 5.07372e-08 -7.57709e-10)
(-3.2466e-09 5.06798e-08 -3.07921e-10)
(-5.35715e-09 5.25497e-08 7.47689e-11)
(-7.31982e-09 5.29056e-08 3.12073e-10)
(-5.58247e-09 5.03384e-08 4.4184e-11)
(-9.98232e-09 4.83004e-08 -2.88424e-09)
(8.54585e-09 4.82241e-09 -5.81093e-09)
(4.3465e-08 8.17832e-08 -1.98833e-08)
(-5.54368e-08 9.57631e-08 -1.98608e-08)
(1.03439e-09 1.14086e-08 4.63167e-10)
(2.44998e-09 1.20696e-08 -1.55784e-09)
(7.69716e-09 1.22584e-08 7.1984e-10)
(1.29371e-08 1.20733e-08 1.98647e-09)
(1.30967e-08 9.17347e-09 4.6886e-09)
(1.55607e-08 2.99551e-09 8.14003e-09)
(-1.05619e-08 -7.51391e-09 9.49737e-09)
(4.25131e-08 -5.48154e-08 2.43543e-08)
(-5.95735e-08 4.17129e-08 2.31472e-08)
(6.32631e-08 1.16648e-07 4.11768e-08)
(-7.00275e-07 3.07111e-07 -1.59649e-06)
(-1.71738e-06 2.79467e-07 -1.8106e-06)
(-2.27196e-06 2.56895e-07 -1.87121e-06)
(-2.8526e-06 2.00533e-07 -1.82568e-06)
(-3.26796e-06 1.70919e-07 -1.81716e-06)
(-3.01393e-06 -2.54898e-08 -1.77905e-06)
(-3.48752e-06 2.59881e-07 -1.80953e-06)
(-3.25197e-06 3.29399e-07 -5.22332e-07)
(-1.6288e-06 1.6077e-07 9.25526e-09)
(-2.59332e-06 5.90259e-08 5.46347e-07)
(-1.02948e-06 4.27629e-06 -2.80318e-06)
(-2.34512e-06 2.89463e-06 -2.63366e-06)
(-2.60211e-06 2.69506e-06 -2.62513e-06)
(-3.13507e-06 2.30957e-06 -2.71388e-06)
(-3.18872e-06 2.01754e-06 -2.72734e-06)
(-3.07978e-06 9.68973e-07 -2.7396e-06)
(-2.70579e-06 2.21556e-06 -2.67295e-06)
(-9.62225e-07 -4.33208e-07 -3.44009e-06)
(-1.08257e-06 2.53408e-06 -4.02296e-06)
(6.74549e-07 3.92323e-06 -2.9666e-06)
(-1.15172e-06 7.05494e-06 -2.94844e-06)
(-2.58955e-06 5.09691e-06 -2.85625e-06)
(-3.25414e-06 4.52447e-06 -2.8764e-06)
(-3.83721e-06 3.86029e-06 -2.88072e-06)
(-4.0298e-06 3.09776e-06 -2.89579e-06)
(-3.81352e-06 2.25766e-06 -2.94879e-06)
(-3.0502e-06 1.66239e-06 -2.89955e-06)
(-1.93249e-06 1.01821e-06 -3.62865e-06)
(-1.84955e-06 2.3886e-07 -3.37344e-06)
(1.71134e-06 9.01987e-07 -3.55637e-06)
(-1.13362e-06 1.10445e-05 -3.25549e-06)
(-2.838e-06 8.13723e-06 -3.21455e-06)
(-3.75506e-06 7.35874e-06 -3.19478e-06)
(-4.54855e-06 6.35583e-06 -3.18539e-06)
(-4.76934e-06 5.17013e-06 -3.19883e-06)
(-4.49404e-06 3.89686e-06 -3.21508e-06)
(-3.85147e-06 2.73605e-06 -3.24266e-06)
(-2.37626e-06 1.48759e-06 -3.3669e-06)
(-1.41942e-06 7.75329e-07 -3.442e-06)
(4.83333e-07 1.02933e-06 -3.5065e-06)
(-1.42585e-06 1.57262e-05 -3.97779e-06)
(-3.58793e-06 1.21767e-05 -3.99794e-06)
(-4.94157e-06 1.09036e-05 -3.96434e-06)
(-6.02379e-06 9.30494e-06 -4.00472e-06)
(-6.48821e-06 7.34214e-06 -4.02745e-06)
(-6.24693e-06 5.2462e-06 -4.04572e-06)
(-5.4579e-06 3.16215e-06 -4.08447e-06)
(-3.89325e-06 1.39041e-06 -4.18728e-06)
(-2.31227e-06 -2.974e-07 -4.23411e-06)
(5.44475e-08 -7.81082e-07 -4.42935e-06)
(-1.67438e-06 2.14401e-05 -4.96036e-06)
(-4.47297e-06 1.72106e-05 -4.93081e-06)
(-6.51843e-06 1.54727e-05 -4.95808e-06)
(-8.10815e-06 1.31449e-05 -4.99717e-06)
(-8.82806e-06 1.03627e-05 -5.01746e-06)
(-8.67403e-06 7.39382e-06 -5.04965e-06)
(-7.70723e-06 4.44266e-06 -5.09778e-06)
(-5.8359e-06 1.91509e-06 -5.17699e-06)
(-3.59099e-06 -2.6778e-07 -5.28275e-06)
(-6.81006e-07 -1.29346e-06 -5.42381e-06)
(-2.08115e-06 2.91314e-05 -6.33921e-06)
(-5.88894e-06 2.43726e-05 -6.37165e-06)
(-8.88304e-06 2.18609e-05 -6.41429e-06)
(-1.11317e-05 1.85734e-05 -6.44589e-06)
(-1.22393e-05 1.46477e-05 -6.49993e-06)
(-1.2167e-05 1.04705e-05 -6.57518e-06)
(-1.09366e-05 6.41054e-06 -6.66722e-06)
(-8.60375e-06 2.91391e-06 -6.76222e-06)
(-5.52087e-06 1.53404e-07 -6.87071e-06)
(-1.48523e-06 -1.24868e-06 -6.89726e-06)
(-2.87504e-06 3.89154e-05 -8.44236e-06)
(-8.02063e-06 3.34724e-05 -8.53331e-06)
(-1.21898e-05 3.00683e-05 -8.54001e-06)
(-1.53191e-05 2.55857e-05 -8.58565e-06)
(-1.6931e-05 2.02345e-05 -8.66435e-06)
(-1.69112e-05 1.4577e-05 -8.75716e-06)
(-1.52639e-05 9.16238e-06 -8.85504e-06)
(-1.20931e-05 4.55993e-06 -8.93145e-06)
(-7.75364e-06 1.20131e-06 -8.97922e-06)
(-2.27875e-06 -3.7643e-07 -8.95846e-06)
(-3.71629e-06 5.16862e-05 -1.11567e-05)
(-1.07056e-05 4.55851e-05 -1.12536e-05)
(-1.663e-05 4.10433e-05 -1.13169e-05)
(-2.09632e-05 3.49691e-05 -1.14333e-05)
(-2.32479e-05 2.77643e-05 -1.15706e-05)
(-2.32391e-05 2.01765e-05 -1.17113e-05)
(-2.09538e-05 1.29643e-05 -1.1837e-05)
(-1.65648e-05 6.91889e-06 -1.19326e-05)
(-1.04573e-05 2.59777e-06 -1.20064e-05)
(-3.12981e-06 6.12792e-07 -1.2025e-05)
(-4.87305e-06 6.87153e-05 -1.48644e-05)
(-1.44244e-05 6.19529e-05 -1.50408e-05)
(-2.26566e-05 5.58388e-05 -1.51806e-05)
(-2.85955e-05 4.75953e-05 -1.53744e-05)
(-3.17235e-05 3.78881e-05 -1.55909e-05)
(-3.17113e-05 2.76835e-05 -1.58135e-05)
(-2.85215e-05 1.80065e-05 -1.6013e-05)
(-2.24596e-05 9.86151e-06 -1.61769e-05)
(-1.40597e-05 4.01868e-06 -1.6314e-05)
(-4.26145e-06 1.13812e-06 -1.642e-05)
(-6.63456e-06 9.14821e-05 -2.00595e-05)
(-1.96577e-05 8.39217e-05 -2.03451e-05)
(-3.08448e-05 7.56995e-05 -2.05772e-05)
(-3.89114e-05 6.45563e-05 -2.08575e-05)
(-4.31597e-05 5.14382e-05 -2.11744e-05)
(-4.31207e-05 3.76524e-05 -2.14972e-05)
(-3.87757e-05 2.45689e-05 -2.18022e-05)
(-3.05526e-05 1.34446e-05 -2.20603e-05)
(-1.91806e-05 5.40635e-06 -2.22592e-05)
(-5.94165e-06 1.16256e-06 -2.23864e-05)
(-9.11897e-06 0.00012206 -2.7153e-05)
(-2.67777e-05 0.000113386 -2.75748e-05)
(-4.18903e-05 0.000102348 -2.78805e-05)
(-5.28545e-05 8.73305e-05 -2.8286e-05)
(-5.86273e-05 6.96379e-05 -2.87524e-05)
(-5.85806e-05 5.10316e-05 -2.92414e-05)
(-5.27293e-05 3.33204e-05 -2.97037e-05)
(-4.16222e-05 1.82234e-05 -3.00888e-05)
(-2.63417e-05 7.23781e-06 -3.03652e-05)
(-8.39033e-06 1.32607e-06 -3.05045e-05)
(-3.72736e-09 5.96921e-09 -3.24006e-09)
(-8.51701e-09 2.79042e-09 -2.69807e-09)
(-7.72674e-09 3.09515e-09 -2.84403e-09)
(-9.30074e-09 2.68901e-09 -3.11421e-09)
(-9.81677e-09 2.43455e-09 -3.45833e-09)
(-9.69641e-09 2.42633e-09 -3.73974e-09)
(-9.58608e-09 2.57335e-09 -4.12373e-09)
(-8.94712e-09 3.30119e-09 -4.18662e-09)
(-9.34973e-09 3.62463e-09 -5.05155e-09)
(-4.39997e-09 1.50959e-09 -3.96139e-09)
(-9.70086e-10 1.67183e-08 -1.85344e-09)
(-2.82846e-09 1.03077e-08 -1.24002e-09)
(-1.49598e-09 1.10818e-08 -1.47631e-09)
(-2.09953e-09 1.04576e-08 -1.90302e-09)
(-2.58498e-09 9.67033e-09 -2.32246e-09)
(-3.32863e-09 9.18812e-09 -2.80438e-09)
(-4.23147e-09 8.95992e-09 -3.04744e-09)
(-4.71241e-09 9.93575e-09 -3.12851e-09)
(-6.76737e-09 1.00615e-08 -2.71989e-09)
(-4.02258e-09 6.1329e-09 -2.2814e-09)
(6.62156e-10 2.11911e-08 -8.80958e-10)
(-4.87455e-10 1.51192e-08 -1.38546e-10)
(-3.0293e-10 1.60757e-08 -3.0936e-10)
(-9.29907e-10 1.64221e-08 -7.17796e-10)
(-1.44346e-09 1.6519e-08 -1.14578e-09)
(-2.20012e-09 1.68093e-08 -1.54084e-09)
(-2.92056e-09 1.75107e-08 -1.94501e-09)
(-3.74186e-09 1.90139e-08 -2.45077e-09)
(-4.00865e-09 2.07132e-08 -2.29604e-09)
(-3.94524e-09 1.20702e-08 -4.90172e-09)
(1.98285e-09 2.62959e-08 -4.88735e-10)
(9.0626e-10 2.23509e-08 3.04388e-10)
(-2.0861e-10 2.26245e-08 3.72471e-11)
(-7.7055e-10 2.21015e-08 -4.77856e-10)
(-1.14581e-09 2.1265e-08 -9.48759e-10)
(-1.40445e-09 2.04918e-08 -1.52461e-09)
(-1.93166e-09 2.04922e-08 -2.19775e-09)
(-1.74906e-09 2.12526e-08 -2.90375e-09)
(3.98957e-10 2.34613e-08 -2.86296e-09)
(-5.15125e-09 1.66069e-08 -7.83548e-09)
(2.12771e-09 3.29667e-08 -2.6948e-10)
(5.71125e-10 3.29819e-08 3.95354e-10)
(-4.36224e-10 3.34434e-08 2.34311e-10)
(-1.36533e-09 3.33001e-08 -2.53421e-10)
(-1.92548e-09 3.3054e-08 -7.13255e-10)
(-1.89582e-09 3.21613e-08 -1.16983e-09)
(-2.09181e-09 3.28082e-08 -2.3324e-09)
(-1.16363e-09 2.87539e-08 -2.98864e-09)
(6.61258e-09 3.62435e-08 -4.66473e-09)
(-1.2403e-08 2.88527e-08 -9.44436e-09)
(1.1343e-09 2.77399e-08 -1.00726e-09)
(-3.28185e-10 2.97864e-08 9.92783e-12)
(3.31693e-10 2.88499e-08 -2.19382e-10)
(-2.31337e-10 2.67744e-08 -6.61909e-10)
(-1.08683e-09 2.41086e-08 -1.02644e-09)
(-4.86071e-10 2.07342e-08 -1.1957e-09)
(-5.33802e-09 1.9313e-08 -1.96811e-09)
(2.20493e-09 1.30889e-08 -1.25881e-09)
(1.17962e-08 2.31842e-08 -5.28707e-09)
(-1.88339e-08 3.80945e-08 -8.51664e-09)
(-2.03578e-09 4.78598e-08 -1.35356e-09)
(-3.76478e-09 5.0716e-08 -6.92146e-10)
(-3.15876e-09 5.12312e-08 -6.86524e-10)
(-5.34728e-09 5.27809e-08 -1.02419e-09)
(-6.9731e-09 5.30698e-08 -1.09019e-09)
(-5.71608e-09 5.12619e-08 -7.97665e-10)
(-9.83525e-09 5.07557e-08 -1.67988e-09)
(4.21262e-09 1.31307e-08 -9.94966e-10)
(3.60713e-08 7.67729e-08 -7.56013e-09)
(-4.84611e-08 8.07166e-08 -1.28655e-08)
(2.53308e-09 1.47104e-08 -2.07394e-09)
(3.7274e-09 1.35849e-08 -1.29862e-09)
(7.78918e-09 1.47516e-08 -1.35907e-09)
(1.33926e-08 1.39682e-08 -1.53825e-09)
(1.35581e-08 1.07758e-08 -1.32914e-09)
(1.52891e-08 5.96818e-09 -1.02391e-10)
(-7.51456e-09 -2.83839e-10 2.77772e-10)
(3.92767e-08 -4.28106e-08 7.85948e-09)
(-5.31307e-08 3.42181e-08 -3.03629e-09)
(6.6053e-08 9.55221e-08 1.86144e-08)
(-7.45971e-07 2.7868e-07 -2.36019e-06)
(-1.76437e-06 2.41427e-07 -2.37465e-06)
(-2.24329e-06 2.21121e-07 -2.36098e-06)
(-2.77681e-06 1.8864e-07 -2.2952e-06)
(-3.14354e-06 1.81272e-07 -2.21007e-06)
(-2.93e-06 3.25274e-08 -2.06237e-06)
(-2.95048e-06 2.14609e-07 -2.06541e-06)
(-2.70131e-06 3.7805e-07 -1.27866e-06)
(-1.456e-06 2.70983e-07 -1.37008e-06)
(-1.9413e-06 2.38288e-07 -8.19013e-07)
(-1.03597e-06 3.89854e-06 -3.26806e-06)
(-2.34879e-06 2.52927e-06 -3.1667e-06)
(-2.67801e-06 2.32118e-06 -3.23857e-06)
(-3.20647e-06 2.0333e-06 -3.30936e-06)
(-3.27738e-06 1.80015e-06 -3.38056e-06)
(-3.0987e-06 9.18384e-07 -3.47189e-06)
(-2.93448e-06 1.62903e-06 -3.41182e-06)
(-1.2635e-06 5.84767e-07 -3.73767e-06)
(-1.07971e-06 2.13619e-06 -3.83518e-06)
(6.31409e-07 3.51326e-06 -3.64144e-06)
(-1.1732e-06 6.59439e-06 -3.76838e-06)
(-2.61517e-06 4.47994e-06 -3.75821e-06)
(-3.26476e-06 3.9541e-06 -3.77521e-06)
(-3.85812e-06 3.31463e-06 -3.80819e-06)
(-4.05618e-06 2.57756e-06 -3.84756e-06)
(-3.79409e-06 1.75633e-06 -3.90303e-06)
(-3.26191e-06 1.10957e-06 -3.87679e-06)
(-1.99985e-06 6.84683e-07 -4.26935e-06)
(-1.64746e-06 -1.34232e-07 -3.98437e-06)
(1.27119e-06 4.91613e-07 -3.96106e-06)
(-1.11516e-06 1.01761e-05 -4.42336e-06)
(-2.83944e-06 7.26914e-06 -4.43921e-06)
(-3.75637e-06 6.49306e-06 -4.44503e-06)
(-4.57013e-06 5.48629e-06 -4.4587e-06)
(-4.81586e-06 4.29139e-06 -4.49654e-06)
(-4.54658e-06 3.0145e-06 -4.55716e-06)
(-3.95053e-06 1.79328e-06 -4.59699e-06)
(-2.48992e-06 7.39674e-07 -4.7292e-06)
(-1.42964e-06 -1.5048e-07 -4.81137e-06)
(4.30259e-07 4.40569e-08 -4.78655e-06)
(-1.39601e-06 1.43808e-05 -5.68088e-06)
(-3.56392e-06 1.0865e-05 -5.66066e-06)
(-4.95225e-06 9.56835e-06 -5.67206e-06)
(-6.05771e-06 7.95823e-06 -5.71253e-06)
(-6.52742e-06 5.9942e-06 -5.75662e-06)
(-6.29158e-06 3.89686e-06 -5.81178e-06)
(-5.53563e-06 1.80238e-06 -5.88004e-06)
(-3.94335e-06 6.70797e-08 -5.97931e-06)
(-2.34641e-06 -1.6182e-06 -6.01757e-06)
(-3.33359e-08 -2.159e-06 -6.09085e-06)
(-1.70189e-06 1.97241e-05 -7.31178e-06)
(-4.50893e-06 1.54362e-05 -7.30991e-06)
(-6.5565e-06 1.36712e-05 -7.34325e-06)
(-8.14246e-06 1.13311e-05 -7.38605e-06)
(-8.87721e-06 8.52804e-06 -7.4369e-06)
(-8.7384e-06 5.54068e-06 -7.50682e-06)
(-7.78029e-06 2.56252e-06 -7.57569e-06)
(-5.91055e-06 4.41918e-08 -7.66782e-06)
(-3.65579e-06 -2.17946e-06 -7.75673e-06)
(-7.39643e-07 -3.16518e-06 -7.79321e-06)
(-2.12037e-06 2.66825e-05 -9.62313e-06)
(-5.93821e-06 2.18389e-05 -9.69761e-06)
(-8.933e-06 1.93266e-05 -9.74367e-06)
(-1.11987e-05 1.60132e-05 -9.80329e-06)
(-1.23178e-05 1.20534e-05 -9.88154e-06)
(-1.22571e-05 7.85075e-06 -9.97736e-06)
(-1.10321e-05 3.76183e-06 -1.00801e-05)
(-8.68536e-06 2.58442e-07 -1.01724e-05)
(-5.55581e-06 -2.49726e-06 -1.02301e-05)
(-1.48904e-06 -3.87734e-06 -1.0236e-05)
(-2.86024e-06 3.55473e-05 -1.29023e-05)
(-8.03102e-06 3.00402e-05 -1.30303e-05)
(-1.22514e-05 2.66119e-05 -1.30899e-05)
(-1.54134e-05 2.20879e-05 -1.31839e-05)
(-1.70397e-05 1.66957e-05 -1.32997e-05)
(-1.703e-05 1.09909e-05 -1.34294e-05)
(-1.53726e-05 5.54151e-06 -1.35576e-05)
(-1.21697e-05 9.2481e-07 -1.36551e-05)
(-7.7916e-06 -2.45449e-06 -1.37208e-05)
(-2.29269e-06 -4.06196e-06 -1.37314e-05)
(-3.71144e-06 4.71639e-05 -1.73206e-05)
(-1.07572e-05 4.09891e-05 -1.75115e-05)
(-1.67436e-05 3.63873e-05 -1.76254e-05)
(-2.11125e-05 3.02481e-05 -1.77877e-05)
(-2.34149e-05 2.29706e-05 -1.79728e-05)
(-2.34113e-05 1.53028e-05 -1.81664e-05)
(-2.10982e-05 8.03632e-06 -1.83579e-05)
(-1.66814e-05 1.92462e-06 -1.85076e-05)
(-1.05426e-05 -2.4599e-06 -1.86286e-05)
(-3.15675e-06 -4.51486e-06 -1.86885e-05)
(-4.91224e-06 6.26326e-05 -2.33528e-05)
(-1.45475e-05 5.5763e-05 -2.36189e-05)
(-2.28437e-05 4.95627e-05 -2.38106e-05)
(-2.88275e-05 4.12218e-05 -2.40641e-05)
(-3.19849e-05 3.13922e-05 -2.43651e-05)
(-3.19643e-05 2.10661e-05 -2.46771e-05)
(-2.87508e-05 1.12718e-05 -2.49646e-05)
(-2.26659e-05 3.0066e-06 -2.52293e-05)
(-1.4231e-05 -2.91865e-06 -2.54394e-05)
(-4.33233e-06 -5.85548e-06 -2.55914e-05)
(-6.72273e-06 8.3316e-05 -3.15046e-05)
(-1.98735e-05 7.55946e-05 -3.19238e-05)
(-3.11425e-05 6.72528e-05 -3.22218e-05)
(-3.92805e-05 5.59438e-05 -3.26272e-05)
(-4.35705e-05 4.26335e-05 -3.31004e-05)
(-4.35317e-05 2.86491e-05 -3.35957e-05)
(-3.91577e-05 1.53604e-05 -3.40662e-05)
(-3.08718e-05 4.07994e-06 -3.44786e-05)
(-1.94046e-05 -4.07228e-06 -3.48052e-05)
(-6.0181e-06 -8.35169e-06 -3.50194e-05)
(-9.23672e-06 0.000111079 -4.2526e-05)
(-2.70867e-05 0.000102185 -4.31509e-05)
(-4.23615e-05 9.09697e-05 -4.3618e-05)
(-5.34444e-05 7.56992e-05 -4.4253e-05)
(-5.92795e-05 5.77187e-05 -4.49919e-05)
(-5.92374e-05 3.88056e-05 -4.57723e-05)
(-5.332e-05 2.08015e-05 -4.65128e-05)
(-4.20984e-05 5.45353e-06 -4.71449e-05)
(-2.66626e-05 -5.70063e-06 -4.7612e-05)
(-8.49137e-06 -1.16715e-05 -4.78573e-05)
(-4.07816e-09 5.91115e-09 -3.90992e-09)
(-9.07339e-09 2.57583e-09 -3.13026e-09)
(-8.01527e-09 3.01536e-09 -3.29275e-09)
(-9.72162e-09 2.70994e-09 -3.63012e-09)
(-1.01751e-08 2.548e-09 -3.95032e-09)
(-1.0135e-08 2.40365e-09 -4.11334e-09)
(-9.71787e-09 2.46248e-09 -4.67706e-09)
(-9.5966e-09 2.73456e-09 -4.34765e-09)
(-9.0409e-09 2.57418e-09 -5.55665e-09)
(-5.39746e-09 2.41632e-10 -5.6371e-09)
(-1.25248e-09 1.68337e-08 -2.11847e-09)
(-3.44865e-09 1.01191e-08 -1.24741e-09)
(-1.99517e-09 1.09263e-08 -1.55542e-09)
(-2.6959e-09 1.03136e-08 -2.06085e-09)
(-3.13359e-09 9.50707e-09 -2.49154e-09)
(-3.83705e-09 8.8249e-09 -2.87431e-09)
(-4.33823e-09 8.33686e-09 -3.30623e-09)
(-4.88953e-09 8.39689e-09 -3.06206e-09)
(-5.60842e-09 7.841e-09 -3.76565e-09)
(-4.49132e-09 6.64838e-09 -1.37013e-09)
(3.64013e-10 2.149e-08 -1.01242e-09)
(-1.0595e-09 1.51358e-08 -2.21807e-10)
(-8.25541e-10 1.61474e-08 -4.51214e-10)
(-1.60871e-09 1.65456e-08 -9.62749e-10)
(-2.09125e-09 1.65346e-08 -1.44626e-09)
(-2.82344e-09 1.6666e-08 -1.84368e-09)
(-3.36628e-09 1.69595e-08 -2.29487e-09)
(-4.23509e-09 1.74752e-08 -2.54213e-09)
(-4.53544e-09 1.8404e-08 -3.28705e-09)
(-4.40725e-09 1.454e-08 -1.88648e-09)
(1.61018e-09 2.61104e-08 -5.4683e-10)
(4.93179e-10 2.20122e-08 -4.5371e-11)
(-7.61383e-10 2.23389e-08 -3.18737e-10)
(-1.55111e-09 2.18984e-08 -7.96608e-10)
(-2.01486e-09 2.10826e-08 -1.37356e-09)
(-2.31268e-09 2.02568e-08 -1.96812e-09)
(-2.61333e-09 1.9772e-08 -2.57225e-09)
(-2.38155e-09 1.9713e-08 -3.07401e-09)
(-1.29298e-09 2.15862e-08 -3.5566e-09)
(-4.65489e-09 1.69106e-08 -4.61459e-09)
(1.92673e-09 3.24169e-08 -5.62602e-10)
(2.31847e-10 3.2384e-08 -1.26596e-10)
(-1.0124e-09 3.29804e-08 -4.37979e-10)
(-2.13577e-09 3.28779e-08 -9.28777e-10)
(-2.75232e-09 3.28827e-08 -1.50679e-09)
(-2.93785e-09 3.23114e-08 -2.06761e-09)
(-3.01559e-09 3.27763e-08 -2.95616e-09)
(-2.18625e-09 2.87031e-08 -3.41879e-09)
(3.93429e-09 3.67522e-08 -4.3325e-09)
(-1.16308e-08 2.8083e-08 -7.41564e-09)
(7.80189e-10 2.65921e-08 -1.12927e-09)
(-8.36859e-10 2.89048e-08 -8.35455e-10)
(-2.39139e-10 2.81229e-08 -1.13684e-09)
(-9.40863e-10 2.61946e-08 -1.69045e-09)
(-1.60757e-09 2.39081e-08 -2.17598e-09)
(-1.18752e-09 2.10565e-08 -2.47281e-09)
(-5.50027e-09 1.96747e-08 -3.29731e-09)
(1.39879e-09 1.34547e-08 -2.68514e-09)
(8.83735e-09 2.43482e-08 -4.32744e-09)
(-1.7147e-08 3.52976e-08 -7.48789e-09)
(-1.86478e-09 4.83572e-08 -2.66209e-09)
(-3.75806e-09 5.0833e-08 -2.11632e-09)
(-3.57441e-09 5.10518e-08 -2.46471e-09)
(-5.75322e-09 5.20136e-08 -2.90615e-09)
(-7.08144e-09 5.28287e-08 -3.2003e-09)
(-6.16239e-09 5.25593e-08 -3.21765e-09)
(-1.01368e-08 5.39608e-08 -3.97853e-09)
(2.5749e-09 2.18538e-08 -3.4033e-09)
(3.14704e-08 8.35937e-08 -6.19114e-09)
(-4.40427e-08 7.58722e-08 -1.06621e-08)
(1.8137e-09 1.57881e-08 5.56572e-10)
(3.1557e-09 1.41359e-08 -3.97103e-11)
(7.45939e-09 1.47172e-08 1.82697e-12)
(1.29708e-08 1.2964e-08 -7.35741e-10)
(1.45369e-08 9.78938e-09 -9.61763e-10)
(1.71722e-08 5.8824e-09 -2.51391e-10)
(-2.59753e-09 1.50393e-09 7.96067e-10)
(3.91879e-08 -3.56667e-08 6.27136e-09)
(-4.8872e-08 3.78021e-08 -6.07531e-10)
(6.18108e-08 8.56169e-08 1.48014e-08)
(-7.02563e-07 2.00855e-07 -2.95722e-06)
(-1.70128e-06 2.03465e-07 -2.89036e-06)
(-2.19061e-06 1.98822e-07 -2.8683e-06)
(-2.69801e-06 1.78515e-07 -2.82999e-06)
(-3.03088e-06 1.80332e-07 -2.77299e-06)
(-2.86444e-06 6.74701e-08 -2.65064e-06)
(-2.70067e-06 1.99677e-07 -2.63055e-06)
(-2.56532e-06 3.05388e-07 -2.28099e-06)
(-1.21279e-06 5.44328e-08 -2.41818e-06)
(-1.06248e-06 2.03444e-07 -1.84876e-06)
(-1.09905e-06 3.35425e-06 -3.91596e-06)
(-2.42928e-06 2.10523e-06 -3.9263e-06)
(-2.73973e-06 1.96708e-06 -3.97305e-06)
(-3.26681e-06 1.69669e-06 -4.02593e-06)
(-3.33837e-06 1.48264e-06 -4.06606e-06)
(-3.09269e-06 7.64152e-07 -4.15377e-06)
(-2.94293e-06 1.17293e-06 -4.1067e-06)
(-1.34448e-06 7.12904e-07 -4.19064e-06)
(-1.00492e-06 5.62327e-07 -4.19703e-06)
(2.44578e-07 2.41285e-06 -4.05836e-06)
(-1.15462e-06 5.83008e-06 -4.56764e-06)
(-2.62367e-06 3.75079e-06 -4.55845e-06)
(-3.30026e-06 3.24029e-06 -4.58982e-06)
(-3.90197e-06 2.63104e-06 -4.61683e-06)
(-4.11447e-06 1.90197e-06 -4.66567e-06)
(-3.83193e-06 1.09407e-06 -4.71521e-06)
(-3.40557e-06 3.92435e-07 -4.74114e-06)
(-2.01931e-06 -5.8306e-09 -4.89618e-06)
(-1.52728e-06 -8.61707e-07 -4.77539e-06)
(9.24174e-07 -3.49674e-07 -4.71291e-06)
(-1.09133e-06 9.04843e-06 -5.54107e-06)
(-2.83304e-06 6.14069e-06 -5.50833e-06)
(-3.77144e-06 5.36579e-06 -5.53123e-06)
(-4.59263e-06 4.35553e-06 -5.55185e-06)
(-4.85762e-06 3.16403e-06 -5.59442e-06)
(-4.58267e-06 1.88899e-06 -5.64924e-06)
(-4.01113e-06 6.32635e-07 -5.69179e-06)
(-2.57479e-06 -3.22932e-07 -5.78252e-06)
(-1.46149e-06 -1.36824e-06 -5.85618e-06)
(2.95025e-07 -1.20314e-06 -5.86265e-06)
(-1.42283e-06 1.27447e-05 -7.02434e-06)
(-3.59972e-06 9.19727e-06 -7.0223e-06)
(-4.99112e-06 7.89779e-06 -7.05877e-06)
(-6.10167e-06 6.26976e-06 -7.09812e-06)
(-6.58045e-06 4.29184e-06 -7.1551e-06)
(-6.36271e-06 2.18365e-06 -7.22687e-06)
(-5.61672e-06 6.75018e-08 -7.29786e-06)
(-4.01987e-06 -1.66616e-06 -7.38801e-06)
(-2.41005e-06 -3.36496e-06 -7.46494e-06)
(-1.31143e-07 -3.9088e-06 -7.49761e-06)
(-1.73453e-06 1.73808e-05 -9.15472e-06)
(-4.54324e-06 1.3049e-05 -9.18157e-06)
(-6.59279e-06 1.12758e-05 -9.21463e-06)
(-8.19677e-06 8.9265e-06 -9.26947e-06)
(-8.9437e-06 6.10816e-06 -9.33707e-06)
(-8.807e-06 3.09729e-06 -9.40796e-06)