/*--------------------------------*- C++ -*----------------------------------*\
| =========                 |                                                 |
| \\      /  F ield         | OpenFOAM: The Open Source CFD Toolbox           |
|  \\    /   O peration     | Version:  2312                                  |
|   \\  /    A nd           | Website:  www.openfoam.com                      |
|    \\/     M anipulation  |                                                 |
\*---------------------------------------------------------------------------*/
FoamFile
{
    version     2.0;
    format      ascii;
    arch        "LSB;label=32;scalar=64";
    class       surfaceScalarField;
    location    "0.505";
    object      alphaPhi0.water;
}
// * * * * * * * * * * * * * * * * * * * * * * * * * * * * * * * * * * * * * //

dimensions      [0 3 -1 0 0 0 0];

oriented        oriented;

internalField   nonuniform List<scalar> 
22600
(
1.85166e-08
-3.81894e-08
1.96728e-08
4.38548e-08
-5.62413e-08
3.09031e-08
5.55125e-08
-4.10664e-08
2.94088e-08
5.23902e-08
-2.8106e-08
3.12282e-08
4.2034e-08
-2.33461e-08
3.37024e-08
2.8579e-08
-1.96766e-08
3.31315e-08
1.73311e-08
-1.90451e-08
3.02929e-08
1.49528e-08
-2.04363e-08
2.28146e-08
2.02506e-08
-2.23027e-08
1.70049e-08
-2.31531e-08
9.80526e-09
-1.81099e-08
-2.98745e-09
-1.70919e-08
-2.84022e-08
-4.55846e-08
-3.64447e-10
-3.652e-08
-3.09635e-08
-1.9851e-09
-4.52754e-08
-2.06468e-08
1.29628e-09
-5.21484e-08
-2.11193e-08
4.64611e-09
-5.38402e-08
-2.3619e-08
5.6341e-09
-4.57237e-08
-3.10644e-08
3.90288e-09
-2.68068e-08
-3.9153e-08
-2.00242e-10
6.44019e-10
-4.64731e-08
-3.28044e-09
-5.16352e-08
-7.46034e-09
-7.44571e-09
1.00899e-08
-5.63155e-09
-5.42374e-09
-5.85634e-08
1.09568e-08
-6.5756e-09
-3.98615e-08
1.00498e-08
-1.83712e-08
-2.46471e-08
1.57958e-08
-3.20947e-08
-3.05347e-08
2.31389e-08
-4.20809e-08
-4.24101e-08
2.87773e-08
-4.28619e-08
-6.05681e-08
3.02847e-08
-2.88413e-08
-8.04945e-08
2.73209e-08
-1.19668e-09
-9.73182e-08
2.32005e-08
-1.10658e-07
1.99453e-08
-1.19706e-08
2.88541e-08
-6.79365e-09
-1.85274e-08
-7.06469e-08
1.86403e-08
-1.23914e-08
-5.73717e-08
1.13742e-08
-2.26445e-08
-4.57322e-08
3.13381e-08
-4.08233e-08
-6.57239e-08
5.3368e-08
-5.72007e-08
-1.02429e-07
7.63963e-08
-5.87573e-08
-1.5182e-07
9.28088e-08
-4.102e-08
-1.99362e-07
1.0113e-07
-8.06614e-09
-2.39885e-07
1.09613e-07
-2.72094e-07
1.1563e-07
1.06854e-07
-1.96271e-07
1.18271e-07
6.53666e-08
-1.92777e-07
1.63618e-07
3.48979e-08
-9.39627e-08
6.70597e-08
7.81794e-09
-8.05527e-08
6.19004e-08
-3.5664e-08
-1.28105e-07
1.05863e-07
-8.30799e-08
-2.15979e-07
1.60965e-07
-1.06961e-07
-3.53662e-07
2.25723e-07
-8.96421e-08
-5.07652e-07
2.90971e-07
-3.85005e-08
-6.34598e-07
3.43572e-07
-7.10767e-07
3.6996e-07
3.02597e-07
-7.77995e-07
2.79127e-07
1.79618e-07
-4.90539e-07
4.20742e-07
-2.33366e-08
-1.8891e-07
2.97902e-07
-1.69788e-07
-1.80335e-07
2.46234e-07
-2.98605e-07
-3.34904e-07
3.35616e-07
-3.86869e-07
-6.1664e-07
4.88926e-07
-3.92217e-07
-9.56708e-07
6.08395e-07
-3.18225e-07
-1.24596e-06
6.64323e-07
-1.76316e-07
-1.46209e-06
6.85588e-07
-1.58361e-06
7.01202e-07
4.0319e-07
-1.54058e-06
3.59396e-07
2.32791e-07
-8.44714e-07
5.24573e-07
-1.08184e-07
-3.73655e-07
5.25719e-07
-4.25873e-07
-3.90016e-07
5.2737e-07
-6.83586e-07
-7.10795e-07
6.33613e-07
-8.02873e-07
-1.19444e-06
6.97129e-07
-7.71221e-07
-1.60641e-06
6.18177e-07
-5.96605e-07
-1.91411e-06
4.93773e-07
-3.13927e-07
-2.16374e-06
4.19334e-07
-2.32068e-06
4.04708e-07
1.75582e-07
-1.92718e-06
2.11015e-07
-5.57652e-08
-9.594e-07
3.46034e-07
-4.70136e-07
-4.28055e-07
4.68771e-07
-8.66881e-07
-4.32002e-07
4.35615e-07
-1.13663e-06
-6.6319e-07
2.52751e-07
-1.23846e-06
-7.1904e-07
-1.10157e-07
-1.04683e-06
-7.21456e-07
-3.89977e-07
-6.80952e-07
-7.07202e-07
-4.51152e-07
-3.05036e-07
-6.80772e-07
-4.29242e-07
-6.69622e-07
-4.09982e-07
-2.90467e-07
-1.48825e-06
-1.48458e-07
-9.26616e-07
-4.55632e-07
1.32382e-07
-1.4395e-06
1.26246e-07
-4.13355e-08
-1.26564e-06
2.96694e-08
-4.58399e-07
-5.42324e-07
-1.14622e-07
-6.63411e-07
-1.48298e-07
-3.96819e-08
-4.52025e-07
-5.4928e-08
-1.75778e-08
-2.30274e-07
-1.57223e-08
-1.89978e-09
-1.10858e-07
-2.53462e-09
-3.44037e-11
-7.07931e-08
-9.99322e-13
-5.81897e-08
-4.15177e-07
-8.10676e-07
-2.62397e-07
-9.33777e-07
1.7702e-07
-1.13962e-07
-4.98789e-08
-1.33667e-07
-4.56224e-07
1.74214e-07
-2.00126e-07
-3.50942e-07
6.16183e-08
-6.39346e-08
-5.71763e-08
1.99445e-08
-1.53174e-10
-1.26041e-09
1.9808e-09
3.43064e-11
2.7215e-10
3.36906e-11
-2.67344e-13
4.62934e-11
1.76396e-13
-1.95958e-12
9.88134e-13
-1.15252e-12
2.8953e-13
-4.45361e-07
-7.05058e-08
-2.9485e-07
1.21095e-08
2.37721e-07
-4.94239e-07
2.62004e-07
-7.00627e-07
-3.22609e-07
6.50006e-08
-6.50189e-09
2.08068e-09
3.83545e-10
-1.18293e-10
7.60536e-10
-2.42224e-11
4.39599e-11
1.30809e-10
-1.30619e-12
9.80673e-12
-1.06754e-12
-5.64188e-13
9.63102e-13
-3.94451e-12
-1.95391e-13
1.09827e-12
-3.32271e-12
1.7076e-12
-3.42577e-12
-6.25981e-08
-7.1574e-08
7.82965e-08
6.78236e-07
-1.19556e-06
4.1158e-07
1.26348e-08
-1.30668e-07
-3.50165e-11
6.43524e-11
3.00398e-10
5.74656e-09
-5.71515e-11
4.30325e-12
-2.81234e-13
-4.18273e-12
-1.13754e-11
-2.5257e-12
-2.39004e-12
8.38481e-12
-3.01174e-12
-2.1936e-12
4.10737e-12
-5.99161e-12
-2.50287e-12
2.57146e-11
-2.42043e-11
9.35601e-11
-6.59043e-11
7.09424e-07
-1.06515e-09
7.15698e-07
1.42016e-07
-1.77877e-09
2.22837e-07
1.71478e-09
3.91516e-10
-1.34847e-09
-2.00985e-11
1.58741e-09
4.81895e-10
-1.9415e-11
1.09117e-11
-7.31239e-13
-1.40863e-11
3.86592e-11
-1.17519e-11
-1.41474e-12
9.0122e-11
-2.08006e-11
-1.27093e-11
1.80772e-11
-5.3136e-12
2.34353e-13
6.51796e-11
-5.30929e-11
1.04605e-10
-6.42738e-11
-4.37442e-12
-5.4857e-10
5.37636e-11
-8.32418e-10
-4.28409e-10
-3.64249e-10
-5.21078e-10
5.99447e-10
-7.86599e-10
-3.65428e-11
6.50859e-10
4.75497e-11
-3.6314e-11
1.21735e-11
4.0189e-13
-6.39456e-11
4.65116e-11
2.93842e-12
-6.8389e-11
1.42907e-10
-1.78519e-11
-1.94543e-11
1.05295e-10
-3.86525e-11
4.73922e-12
2.47203e-11
-1.60297e-11
5.47574e-11
-5.23935e-11
-5.56332e-11
-8.48939e-11
-1.22167e-11
-4.13528e-10
3.63519e-11
-2.86119e-11
-2.81085e-10
3.17015e-10
-3.56172e-11
-2.12761e-11
2.32027e-10
5.02611e-12
-2.52125e-11
1.4736e-11
2.8873e-12
-3.92306e-11
1.09629e-11
2.07929e-11
-3.88078e-11
1.76376e-11
1.62375e-11
-8.25949e-12
6.16805e-12
2.65229e-12
-1.88e-13
4.91509e-12
1.36316e-13
1.01864e-11
-1.45137e-11
-2.09726e-10
-3.739e-11
1.87554e-10
-8.85499e-11
1.88973e-10
-6.45097e-11
-3.91373e-11
2.72393e-10
-7.80742e-12
-6.25573e-11
2.68956e-10
-1.20999e-12
-2.31735e-11
1.13914e-10
1.87862e-11
-1.68677e-11
-7.90923e-12
3.08343e-11
-7.38793e-12
4.49234e-12
3.31714e-11
-3.37009e-12
3.34659e-12
2.97087e-12
-8.79867e-13
3.09291e-12
3.26257e-12
5.37631e-12
6.31199e-12
-1.74106e-10
-4.767e-13
4.32166e-10
-7.04962e-11
1.69441e-10
-9.70351e-11
-2.27747e-10
2.24546e-09
-1.81579e-11
-1.00668e-10
1.35794e-09
-3.27524e-11
-8.94219e-11
3.66068e-11
1.10186e-10
-7.92905e-11
-1.84655e-11
8.59351e-11
-1.53912e-11
-5.6864e-12
2.1324e-11
-4.78954e-12
5.47592e-13
1.62077e-12
-2.18178e-12
1.03321e-12
3.15973e-12
4.80861e-12
3.52239e-12
-6.50623e-11
-1.01661e-10
2.10912e-10
-1.51832e-10
1.11526e-10
8.18051e-11
5.5773e-11
2.56018e-09
-2.57577e-11
4.50457e-10
1.44149e-09
-1.94511e-13
-2.58389e-12
-1.16101e-11
1.50528e-10
-1.15884e-11
-2.93108e-12
5.8524e-11
-3.76784e-12
-5.62748e-14
8.74042e-13
-1.22701e-12
-2.46862e-15
3.64701e-13
-1.11204e-12
-4.11714e-15
2.30465e-13
7.05217e-15
5.83874e-13
-1.52466e-10
-1.23488e-10
1.36768e-10
-2.13611e-10
3.65873e-11
9.99526e-11
2.3893e-10
2.12104e-09
3.10352e-10
1.08531e-10
2.66599e-10
2.04588e-10
-2.01e-13
-7.27478e-13
1.01776e-10
-4.18692e-15
-1.56174e-13
4.81949e-12
-3.33272e-17
-2.92722e-16
-6.04024e-14
-2.49106e-15
-3.26689e-19
-1.07867e-17
-6.71944e-15
-1.51058e-17
-1.86558e-18
1.68298e-17
1.8422e-16
-1.60588e-10
1.13486e-10
-4.3925e-11
-1.96825e-10
1.36718e-11
1.60373e-11
-6.76557e-12
4.60756e-10
9.6897e-11
-4.47034e-13
1.4857e-10
-8.59135e-13
-9.28256e-14
2.62353e-11
-5.08241e-14
-3.21774e-15
-3.95483e-13
-1.65294e-15
-3.71e-18
-3.50511e-15
-1.86783e-18
-2.51466e-18
-1.69712e-18
-6.42301e-21
-1.77099e-17
-1.04027e-19
-1.78427e-20
-5.99924e-20
-4.6664e-19
2.96312e-08
-5.57856e-08
4.58272e-08
7.50216e-08
-9.15394e-08
7.70522e-08
1.05232e-07
-7.63524e-08
7.5551e-08
1.16838e-07
-6.41114e-08
8.37338e-08
1.17319e-07
-6.46728e-08
9.78941e-08
1.10935e-07
-6.99516e-08
1.09466e-07
9.89512e-08
-7.94557e-08
1.21733e-07
8.29195e-08
-9.15404e-08
1.30387e-07
6.04454e-08
-1.03986e-07
1.43466e-07
-1.16613e-07
1.46821e-07
-1.29455e-09
-4.46911e-08
-2.68918e-08
1.43013e-08
-1.24022e-07
1.6522e-08
2.54812e-08
-1.04579e-07
1.50611e-08
2.92346e-08
-9.30286e-08
2.64601e-08
2.92771e-08
-1.05506e-07
4.5437e-08
2.7368e-08
-1.24684e-07
6.22758e-08
2.64667e-08
-1.51069e-07
7.64179e-08
2.75978e-08
-1.80773e-07
8.79009e-08
3.12667e-08
-2.13403e-07
1.02467e-07
-2.49628e-07
1.13213e-07
6.94159e-09
-5.56158e-08
-1.6484e-09
3.79116e-08
-1.89526e-07
4.54911e-08
6.23068e-08
-1.59534e-07
4.06095e-08
6.38032e-08
-1.34997e-07
5.62682e-08
5.95154e-08
-1.55635e-07
7.75552e-08
4.85696e-08
-1.84672e-07
9.97107e-08
3.69934e-08
-2.24476e-07
1.15268e-07
2.90732e-08
-2.72251e-07
1.26719e-07
3.08968e-08
-3.3341e-07
1.41384e-07
-3.97981e-07
1.517e-07
8.63834e-09
-6.19739e-08
-9.07394e-09
3.12023e-08
-2.39077e-07
4.56277e-08
6.11266e-08
-2.23657e-07
4.55734e-08
7.00529e-08
-1.99407e-07
8.68208e-08
6.14154e-08
-2.31891e-07
1.38262e-07
4.35103e-08
-2.74641e-07
1.84271e-07
2.74982e-08
-3.33749e-07
2.18094e-07
2.19877e-08
-4.04744e-07
2.39134e-07
2.82751e-08
-4.82992e-07
2.52907e-07
-5.55495e-07
2.52599e-07
1.62919e-07
-1.86136e-07
7.95138e-08
2.28164e-07
-3.56272e-07
2.15567e-07
2.26325e-07
-2.88468e-07
1.33709e-07
1.79773e-07
-2.21817e-07
1.30863e-07
1.24022e-07
-2.60343e-07
1.90065e-07
7.02008e-08
-3.20028e-07
2.60173e-07
2.04723e-08
-3.9636e-07
3.38062e-07
-6.80476e-09
-4.98928e-07
4.12432e-07
-9.96506e-10
-6.0651e-07
4.61281e-07
-6.81891e-07
4.60926e-07
4.62498e-07
-4.98692e-07
1.29185e-07
5.80976e-07
-5.34355e-07
4.80347e-07
4.41945e-07
-3.02749e-07
4.51213e-07
2.45801e-07
-1.74249e-07
3.9481e-07
5.90214e-08
-2.41829e-07
5.03882e-07
-8.40794e-08
-3.74975e-07
6.86974e-07
-1.63186e-07
-5.34148e-07
8.2529e-07
-1.66639e-07
-7.07109e-07
8.75958e-07
-1.05391e-07
-8.54514e-07
8.72347e-07
-9.36512e-07
8.53471e-07
5.58707e-07
-8.70337e-07
1.72333e-07
6.34483e-07
-6.30637e-07
5.45079e-07
3.90903e-07
-2.35531e-07
7.02081e-07
1.41652e-07
-1.4932e-07
7.51693e-07
-9.47806e-08
-2.41448e-07
8.69708e-07
-2.64848e-07
-4.60286e-07
9.52177e-07
-3.34357e-07
-7.50406e-07
9.03967e-07
-2.90239e-07
-1.05599e-06
7.98618e-07
-1.6733e-07
-1.29983e-06
7.41917e-07
-1.43925e-06
7.28898e-07
3.34456e-07
-9.85302e-07
-8.47583e-09
3.01135e-07
-5.24622e-07
2.7334e-07
1.59914e-07
-7.65359e-08
4.50999e-07
-1.58983e-09
5.04828e-08
3.97416e-07
-2.38502e-07
-4.84889e-08
2.99313e-07
-5.22027e-07
-4.04847e-07
1.67121e-07
-6.94649e-07
-6.73012e-07
3.57836e-08
-5.89664e-07
-8.80237e-07
4.25133e-08
-3.13889e-07
-9.78513e-07
1.09384e-07
-1.01214e-06
1.38002e-07
9.64635e-08
-4.4377e-07
-7.86454e-07
-1.5968e-07
6.01474e-09
-1.4211e-07
-5.14056e-07
3.06123e-07
-6.96159e-08
-8.98205e-07
4.06127e-08
-3.35726e-08
-6.92151e-07
-3.4502e-07
1.18104e-07
-3.83783e-07
-1.91918e-07
2.51455e-07
-2.06336e-07
-2.18224e-08
2.56136e-07
-1.03678e-07
-6.96285e-10
2.0354e-07
-4.6519e-08
-3.87761e-11
1.43326e-07
-9.14209e-12
1.08779e-07
-1.42746e-07
1.93594e-07
-7.56856e-07
-3.09187e-07
3.45291e-07
-2.86795e-07
1.34285e-07
-2.18616e-07
-2.7907e-07
2.60523e-07
-3.82499e-07
8.53495e-09
2.18326e-07
-4.054e-08
1.65508e-08
2.25731e-08
-8.70803e-10
3.68395e-09
6.4939e-10
-7.73496e-12
3.76458e-10
-1.78082e-13
-1.89673e-11
1.67223e-11
-4.66629e-13
-3.78425e-11
4.01148e-13
-8.43116e-12
-7.0526e-13
-4.45311e-07
1.71357e-07
1.47638e-07
3.28695e-07
-4.97728e-07
3.52339e-07
4.22928e-07
-4.87094e-09
1.15476e-07
4.05502e-08
-5.57992e-09
7.21966e-09
7.57138e-10
-9.39387e-12
2.6367e-11
-1.31976e-12
3.76572e-12
1.04812e-11
-4.46212e-12
1.4741e-12
-1.09225e-11
-1.23843e-11
1.69407e-12
-7.41351e-11
-3.7511e-12
-2.65444e-12
-1.628e-10
-1.51044e-12
-2.45474e-11
4.1022e-07
-1.14334e-06
6.26845e-07
-2.02376e-10
-2.48026e-07
6.73927e-08
-1.8601e-10
-4.88549e-09
-1.0062e-12
-2.77434e-12
1.14391e-11
-4.87488e-13
-4.36151e-12
1.1543e-12
-1.19484e-12
-3.67521e-12
4.40915e-12
-6.71634e-12
-4.04428e-12
4.64814e-12
-9.65827e-12
1.91423e-12
3.8942e-12
-2.74736e-11
-2.35003e-11
1.35271e-12
-2.06903e-11
-4.14003e-11
-4.64189e-11
2.48343e-07
-3.27136e-09
1.01639e-07
8.47015e-09
-3.92272e-09
2.59744e-08
-7.7045e-10
3.01042e-09
-1.06689e-12
-1.32406e-11
3.23439e-11
-3.27874e-12
-1.56347e-11
6.46268e-12
-3.89344e-12
-2.80982e-11
6.14921e-11
-1.70692e-11
-4.72092e-13
6.03876e-11
-1.68831e-11
-5.59939e-12
2.39503e-11
-7.17795e-12
-5.03665e-11
4.57867e-11
-1.06098e-10
-4.56928e-13
-8.37376e-11
-1.4958e-10
-1.34194e-09
-1.46741e-09
-5.7115e-10
-2.04599e-11
-4.12258e-09
-1.29217e-10
2.33916e-10
-1.24758e-12
-1.50622e-11
5.37582e-11
-1.27558e-11
-9.27155e-12
1.24783e-11
-6.23598e-12
-5.64645e-11
8.74133e-11
-1.32105e-11
-1.58549e-11
6.39932e-11
-3.58404e-11
7.8774e-12
6.24209e-11
-4.82482e-11
7.43866e-12
4.68111e-11
-9.85432e-11
5.56874e-11
-5.90214e-11
-1.12891e-10
-8.31189e-10
-1.04593e-09
-7.54496e-11
1.508e-10
-8.15921e-10
-2.40047e-11
3.10038e-11
-1.90036e-12
-3.89852e-12
1.46226e-11
-5.2721e-12
-2.10192e-11
2.45879e-11
2.7001e-12
-8.89956e-11
6.04939e-11
3.45061e-11
-2.36304e-11
9.31787e-12
3.17745e-11
3.39666e-12
7.60801e-12
1.02562e-11
8.74873e-12
6.85243e-12
-2.60357e-11
6.76707e-11
-1.02251e-11
-7.20966e-11
-7.51531e-10
3.31492e-10
-4.39172e-11
7.41757e-10
-8.26844e-10
-1.32441e-11
3.40199e-11
-3.55755e-11
-4.76801e-12
2.02157e-11
-2.93179e-12
-3.41696e-11
5.72994e-11
1.05833e-11
-8.85303e-11
4.61876e-11
6.94142e-11
-2.95152e-11
-2.60158e-11
4.18119e-11
-4.88122e-12
-5.06006e-13
5.4508e-12
-1.07496e-11
2.58145e-12
9.11808e-12
1.66663e-12
1.57015e-11
-9.16474e-11
-6.91905e-10
3.86249e-10
-5.12807e-11
1.50359e-09
-4.31422e-10
-9.33733e-12
6.90434e-11
-9.81414e-11
-1.80205e-11
3.26945e-11
-2.42491e-11
-6.33219e-11
1.12012e-10
6.30079e-12
-1.10832e-10
9.53011e-11
1.23117e-10
-2.10733e-11
-1.13433e-11
1.95554e-11
-9.60971e-12
-5.16721e-13
2.18458e-12
-4.00605e-12
6.67631e-13
4.32558e-12
-5.34155e-13
3.08215e-12
-7.49745e-12
-3.47012e-10
1.81828e-10
-1.82195e-11
1.08e-09
1.99118e-10
-6.6148e-12
1.64139e-10
-1.15728e-10
-6.86404e-13
6.87807e-11
-2.54216e-11
1.13571e-11
2.80578e-10
9.61253e-12
1.76349e-12
6.74436e-11
9.31184e-11
-2.63976e-12
-7.42152e-13
3.61312e-12
-7.02228e-13
-2.12209e-14
6.31865e-13
-4.14326e-14
2.68386e-16
5.63787e-14
1.7536e-17
7.22177e-15
-5.42471e-11
-1.34992e-10
5.84538e-11
-4.43726e-11
4.47824e-11
3.20475e-10
-6.61025e-12
2.99272e-09
7.22496e-11
3.20521e-11
1.25629e-09
-8.04121e-11
1.27184e-10
1.0421e-09
3.87756e-10
9.7586e-13
2.2176e-11
8.24368e-11
2.08936e-14
-5.49936e-14
2.27105e-13
-3.3083e-16
-4.10086e-17
1.53142e-16
-1.80005e-16
3.58431e-18
8.3947e-17
4.27743e-19
7.29236e-18
-4.31675e-11
9.01044e-11
-7.75712e-12
-9.58814e-11
4.36176e-11
2.09514e-11
5.39575e-12
7.35424e-10
3.0163e-09
1.47788e-10
3.50072e-10
2.64567e-09
5.89027e-11
2.69786e-10
5.95357e-10
9.77219e-14
1.01411e-11
1.11116e-12
5.42124e-17
4.24153e-14
-1.77346e-15
-3.66018e-18
1.52545e-17
-3.84212e-19
-3.41524e-19
1.1736e-19
-3.67988e-22
6.10049e-21
2.01026e-21
2.86895e-08
-4.02758e-08
5.74135e-08
7.39447e-08
-7.51746e-08
1.06972e-07
1.02965e-07
-5.88732e-08
1.05404e-07
1.1403e-07
-4.55316e-08
1.182e-07
1.13692e-07
-4.31146e-08
1.41347e-07
1.0575e-07
-4.76608e-08
1.65069e-07
9.44501e-08
-5.97213e-08
1.92754e-07
7.98301e-08
-7.65036e-08
2.2151e-07
6.00317e-08
-9.74999e-08
2.60764e-07
-1.17576e-07
2.77375e-07
-2.78627e-09
-2.96013e-08
-3.478e-08
1.26293e-08
-1.0194e-07
2.78715e-08
2.19918e-08
-7.79246e-08
2.47498e-08
2.12241e-08
-6.03922e-08
4.20885e-08
1.78964e-08
-6.58886e-08
7.15387e-08
1.37977e-08
-7.9344e-08
9.80579e-08
1.34948e-08
-1.07828e-07
1.24827e-07
2.11441e-08
-1.47469e-07
1.51217e-07
3.67635e-08
-1.98832e-07
1.8818e-07
-2.3929e-07
2.14551e-07
7.85868e-09
-3.45724e-08
-4.53604e-09
3.61341e-08
-1.52153e-07
6.74285e-08
5.47354e-08
-1.15446e-07
5.95293e-08
5.52086e-08
-8.48707e-08
8.02734e-08
4.60502e-08
-9.394e-08
1.14765e-07
3.37851e-08
-1.17133e-07
1.49764e-07
1.9949e-08
-1.58188e-07
1.79464e-07
2.05103e-08
-2.22442e-07
2.01131e-07
4.0787e-08
-2.91295e-07
2.1357e-07
-3.16739e-07
2.00627e-07
5.56212e-09
-4.59756e-08
-3.23295e-09
3.42357e-08
-2.10836e-07
7.56376e-08
6.87e-08
-1.87547e-07
8.32101e-08
7.41007e-08
-1.40506e-07
1.37055e-07
5.62914e-08
-1.38667e-07
2.00798e-07
2.46455e-08
-1.5858e-07
2.57364e-07
-1.14231e-09
-2.14867e-07
3.00561e-07
-8.40565e-09
-2.9551e-07
3.19466e-07
1.62652e-08
-3.50975e-07
2.87917e-07
-3.23931e-07
1.98129e-07
6.13538e-08
-7.19443e-08
4.41286e-08
1.2624e-07
-2.6924e-07
2.09085e-07
1.53594e-07
-2.41453e-07
1.60262e-07
1.21943e-07
-1.58015e-07
1.80022e-07
7.88421e-08
-1.75474e-07
2.69973e-07
3.4442e-08
-2.26924e-07
3.72917e-07
-9.8604e-09
-2.95344e-07
4.62841e-07
-4.46017e-08
-3.60366e-07
5.12029e-07
-2.69867e-08
-3.67146e-07
4.59837e-07
-2.84257e-07
3.21013e-07
3.03919e-07
-1.77369e-07
-6.93096e-08
4.7315e-07
-2.93215e-07
3.35091e-07
4.6063e-07
-1.96026e-07
4.18305e-07
3.32466e-07
-6.02808e-08
4.2524e-07
2.01243e-07
-1.00788e-07
5.6042e-07
8.39336e-08
-1.61128e-07
7.38487e-07
-1.94979e-08
-2.42636e-07
8.76014e-07
-8.86126e-08
-3.44184e-07
9.28891e-07
-8.20192e-08
-3.92928e-07
8.91536e-07
-3.65423e-07
8.0866e-07
5.22498e-07
-3.65668e-07
-1.61866e-07
7.24618e-07
-2.4382e-07
2.93565e-07
6.67094e-07
-5.48828e-08
6.18462e-07
5.4041e-07
9.08566e-08
7.2724e-07
3.74462e-07
4.82952e-08
8.86574e-07
1.84919e-07
-6.56858e-08
1.04628e-06
2.87776e-08
-3.16888e-07
1.13436e-06
-6.5819e-08
-6.1326e-07
1.16232e-06
-7.82389e-08
-8.35368e-07
1.19684e-06
-9.52874e-07
1.20205e-06
4.64744e-07
-4.2025e-07
-4.18638e-07
4.73929e-07
-8.20897e-08
1.02428e-07
3.9073e-07
1.30076e-07
3.49238e-07
2.31723e-07
2.78087e-07
3.69193e-07
-6.49497e-08
2.3774e-07
4.06541e-07
-4.16955e-07
-3.90616e-08
4.96535e-07
-6.40204e-07
-4.29301e-07
5.64053e-07
-5.78571e-07
-6.73457e-07
6.26894e-07
-3.31865e-07
-7.7472e-07
6.9969e-07
-8.09569e-07
7.03356e-07
-1.32915e-09
1.28385e-07
-1.33367e-06
-5.27595e-08
3.30909e-07
-5.03676e-07
-1.92695e-07
3.90034e-07
-1.89638e-07
-3.76198e-07
1.42377e-07
2.24035e-07
-3.61063e-07
-1.51941e-07
6.47094e-07
-2.34545e-07
-1.72093e-07
8.73747e-07
-1.42077e-07
-1.63934e-08
7.13823e-07
-8.27155e-08
-1.71419e-10
5.08395e-07
-4.65655e-08
-1.20417e-10
3.47696e-07
-9.02125e-11
2.69245e-07
-4.04316e-07
-2.00129e-07
7.38281e-08
-2.13178e-07
-2.57718e-07
1.94688e-07
2.30337e-07
-4.11372e-07
2.51568e-07
3.01086e-07
-1.64751e-07
3.56466e-07
1.90906e-07
-2.06091e-09
1.46537e-07
1.64993e-08
8.40474e-11
6.22988e-09
1.20893e-10
-1.43379e-12
3.40217e-10
-1.63765e-12
-3.32458e-11
2.29768e-12
-1.97186e-12
-1.19867e-10
-1.63683e-12
-7.71541e-11
-1.52598e-11
-2.35788e-07
-5.3754e-07
2.72777e-07
1.26573e-07
-1.20573e-07
4.07969e-07
1.63325e-07
-1.00721e-11
1.67926e-07
1.88845e-09
-1.17103e-11
4.15309e-09
-1.1812e-10
-2.66231e-11
1.67212e-11
-1.04933e-11
-1.30399e-12
-1.9784e-12
-5.43392e-11
9.27871e-13
-1.62507e-11
-8.13438e-11
1.62561e-11
-1.70028e-10
-5.02079e-11
-7.01804e-12
-1.54279e-10
5.75374e-12
-1.39055e-10
2.73227e-08
-8.42043e-08
5.8925e-09
-1.89716e-13
-2.82327e-08
2.41082e-09
-1.80329e-12
-2.8558e-13
-6.46477e-12
-2.32077e-12
4.63181e-13
-1.53104e-12
-4.724e-12
3.8762e-14
-3.24269e-12
-3.24226e-12
-1.04347e-13
-5.18284e-12
-1.60326e-11
7.81448e-13
-9.25013e-12
-4.75619e-12
-2.41539e-13
-3.77173e-11
-4.78712e-12
-4.20049e-12
-9.23811e-12
-3.43897e-11
-3.94755e-12
1.13348e-08
8.67797e-10
2.55207e-09
-1.31923e-12
9.25839e-09
-1.7765e-10
-1.29209e-12
7.40697e-13
-1.1594e-12
-2.11976e-12
7.86075e-13
-1.54184e-12
-7.03669e-12
1.98314e-12
-1.47373e-12
-6.51423e-12
1.6468e-12
-3.09214e-12
-1.87566e-12
2.90807e-12
-1.95108e-12
-9.11787e-12
2.26969e-12
-1.29082e-12
-5.95307e-11
-1.63106e-11
-7.00624e-12
-6.29707e-11
-9.72909e-12
4.11751e-11
1.80585e-10
-1.03288e-09
-2.40589e-12
1.31581e-09
-3.36713e-10
-2.45731e-12
9.03226e-13
-1.09983e-12
-3.58262e-12
1.87414e-12
-1.17576e-11
-1.5021e-12
1.49093e-11
-1.83132e-11
-4.16469e-11
1.57642e-11
-8.32847e-13
-5.94831e-12
-2.98641e-12
-6.26625e-12
-9.89137e-12
-4.72613e-13
-1.94973e-11
-5.81161e-11
9.18215e-12
-5.69803e-11
-4.02148e-11
-1.27623e-11
3.67568e-10
-4.29848e-10
-1.16055e-09
-5.18322e-12
2.7454e-10
-3.10235e-10
-2.72952e-12
3.36322e-12
-5.85315e-12
-6.59277e-12
1.19615e-11
-4.9785e-12
-5.6935e-12
3.1307e-11
-1.32541e-11
-2.13127e-11
4.95928e-11
-1.24109e-12
-4.16237e-13
-2.71569e-11
-8.25294e-13
2.00867e-11
-5.67269e-12
-8.03491e-12
-1.2156e-11
4.3063e-11
-1.24004e-11
3.07677e-12
-2.99679e-12
6.5281e-10
-3.37318e-10
-4.78855e-11
2.75162e-11
1.10019e-09
-8.77028e-10
-2.88392e-12
2.32087e-10
-1.81089e-10
-8.72871e-13
2.20193e-11
-6.32544e-12
-5.48919e-11
7.64809e-11
-1.75522e-11
-4.48982e-11
1.96423e-10
9.13886e-12
-1.10034e-11
-2.67445e-11
1.40177e-11
-1.63969e-11
-1.14233e-12
6.38843e-12
-2.01047e-11
2.72855e-14
1.62007e-11
1.08889e-12
3.14959e-12
3.23056e-10
-1.18673e-10
-3.55891e-14
4.50049e-10
9.24229e-10
-2.80447e-10
6.89287e-12
8.17136e-10
-4.96319e-10
-9.6569e-12
2.16418e-10
-2.81557e-10
-9.69124e-11
1.66999e-10
-5.99524e-11
-2.58782e-11
2.52039e-10
3.9081e-11
-9.37051e-12
-4.68435e-12
8.00532e-12
-5.09879e-12
-1.9839e-13
1.74452e-12
-1.41818e-12
7.73205e-14
2.37613e-12
-2.61828e-15
9.26152e-14
1.46294e-10
-4.5849e-11
-6.53194e-14
4.16941e-10
9.59853e-10
-8.70604e-13
1.67239e-11
2.05001e-09
-1.87787e-10
-8.3918e-12
8.09128e-10
-6.89045e-10
-4.15466e-11
1.03998e-09
-5.48332e-11
2.35233e-12
2.33347e-10
1.10526e-10
-1.63727e-12
-3.09711e-13
2.38438e-12
-1.33265e-13
-1.55979e-16
1.66872e-13
-3.99197e-15
-3.12928e-17
3.52546e-15
-1.69493e-18
4.24474e-16
9.0021e-11
-1.82443e-11
-6.76443e-14
6.3045e-10
1.04402e-10
2.0496e-10
2.0395e-10
3.67725e-09
3.41551e-10
-2.68485e-11
3.44677e-09
-3.92731e-10
4.84516e-11
2.11925e-09
2.15843e-10
4.26985e-13
7.70217e-11
1.12955e-10
-6.89364e-17
-1.37471e-13
4.82037e-13
-4.1082e-17
-3.82459e-17
2.16745e-18
-4.16798e-18
4.29531e-18
4.63765e-18
3.39756e-20
-1.8195e-18
1.22595e-12
-4.37781e-14
1.27642e-11
8.70515e-11
4.22253e-11
3.35352e-11
2.3799e-10
7.31455e-10
3.63652e-09
9.79957e-11
1.81088e-10
3.8142e-09
2.89102e-10
5.45366e-10
1.82616e-09
2.40579e-13
3.94776e-11
6.81914e-12
5.00005e-17
1.54829e-13
-5.60207e-15
-8.47098e-19
3.0156e-17
-9.10709e-18
-1.84923e-19
4.486e-20
1.19756e-20
5.14136e-18
4.44981e-20
3.0862e-08
-2.6907e-08
5.34585e-08
8.24543e-08
-6.28947e-08
1.18274e-07
1.16905e-07
-4.48903e-08
1.15844e-07
1.2782e-07
-2.47336e-08
1.32018e-07
1.28457e-07
-1.70052e-08
1.57716e-07
1.20669e-07
-1.53852e-08
1.88242e-07
1.12316e-07
-1.89261e-08
2.20033e-07
1.04165e-07
-2.66837e-08
2.56345e-07
8.4849e-08
-3.44567e-08
3.14537e-07
-2.90964e-08
3.28826e-07
5.63296e-10
-1.69797e-08
-4.52708e-08
2.47917e-08
-8.91859e-08
2.99341e-08
4.02388e-08
-5.90997e-08
2.3512e-08
4.00425e-08
-2.54865e-08
4.30376e-08
3.53659e-08
-1.38922e-08
7.31023e-08
2.83154e-08
-1.26429e-08
1.02366e-07
3.31083e-08
-2.87011e-08
1.29809e-07
5.29176e-08
-5.72187e-08
1.61942e-07
7.62113e-08
-7.62909e-08
2.06721e-07
-4.16975e-08
2.16766e-07
1.46033e-08
-1.62008e-08
-1.99183e-08
5.28737e-08
-1.25085e-07
6.50574e-08
7.61701e-08
-8.03178e-08
5.7451e-08
7.84864e-08
-2.99432e-08
8.24137e-08
6.83255e-08
-9.82259e-09
1.20856e-07
4.80438e-08
-3.45677e-09
1.6086e-07
3.02422e-08
-2.4195e-08
1.92759e-07
2.29226e-08
-5.55881e-08
2.0682e-07
4.329e-08
-3.74077e-08
1.54319e-07
7.84549e-08
1.42844e-08
2.57895e-08
-2.60981e-08
-1.91251e-08
7.88254e-08
-1.81072e-07
7.85879e-08
1.27267e-07
-1.29453e-07
8.39039e-08
1.29869e-07
-3.4842e-08
1.39351e-07
1.00847e-07
1.71618e-08
2.02836e-07
5.33328e-08
4.17033e-08
2.59718e-07
-1.07688e-09
2.8813e-08
3.01962e-07
-4.53444e-08
2.56944e-08
2.82451e-07
-1.37235e-08
1.27606e-07
9.12816e-08
3.11533e-07
-1.88378e-07
5.94811e-08
-5.09332e-08
9.48257e-09
1.17473e-07
-1.9384e-07
1.63862e-07
1.6328e-07
-1.42238e-07
1.2724e-07
1.70929e-07
-4.86789e-08
1.86209e-07
1.40266e-07
7.29089e-09
3.10508e-07
7.26383e-08
4.42542e-08
4.37994e-07
-2.44753e-08
7.63324e-08
5.12435e-07
-1.03803e-07
1.79568e-07
4.37483e-07
-5.49009e-08
4.28132e-07
1.1041e-07
6.87305e-07
-2.43951e-07
2.40049e-07
-1.50926e-07
-2.09366e-07
3.73997e-07
-1.62202e-07
1.69505e-07
4.12542e-07
-5.72493e-08
2.94772e-07
3.47968e-07
8.38766e-08
3.57259e-07
2.42671e-07
1.62021e-07
5.10986e-07
1.1523e-07
2.61922e-07
6.4826e-07
-1.30323e-08
3.65405e-07
7.15203e-07
-9.12474e-08
4.97082e-07
6.89591e-07
-5.75452e-08
6.83333e-07
6.02633e-07
8.20877e-07
5.31935e-07
4.97053e-07
-3.30191e-07
-4.79655e-07
7.09088e-07
-1.48612e-07
6.79396e-08
7.0094e-07
8.54642e-08
4.83897e-07
6.02452e-07
2.99988e-07
6.09616e-07
4.57194e-07
3.89711e-07
8.04142e-07
2.872e-07
4.72817e-07
1.00538e-06
1.18126e-07
5.41303e-07
1.12754e-06
1.69757e-08
5.10237e-07
1.25031e-06
-1.14496e-08
3.73119e-07
1.53548e-06
2.69895e-07
1.68115e-06
4.48922e-07
-3.80787e-07
-8.21821e-07
4.04395e-07
5.82287e-08
-5.97519e-08
3.79105e-07
2.76112e-07
1.83879e-07
2.68633e-07
5.1529e-07
2.64363e-07
5.29884e-08
4.80064e-07
5.31833e-07
-1.4257e-07
2.3348e-07
8.60816e-07
-2.62386e-07
4.81049e-08
1.02216e-06
-2.34789e-07
-1.20711e-07
1.08341e-06
-1.42206e-07
-2.75785e-07
1.19663e-06
-3.55237e-07
1.19285e-06
-4.04799e-07
8.95151e-09
-1.12863e-06
-1.85606e-08
3.61312e-08
-8.30918e-07
2.35435e-07
1.26506e-07
-3.51718e-07
2.73832e-07
1.18137e-07
2.80581e-07
1.87946e-07
-6.50527e-08
8.06032e-07
4.49824e-08
-7.71107e-08
9.67156e-07
-2.87693e-08
-2.76211e-08
8.57324e-07
-3.70703e-08
-1.05396e-09
6.95257e-07
-3.88468e-08
-1.24951e-10
5.37204e-07
-3.2516e-10
4.25625e-07
-3.0744e-07
-2.15955e-07
1.98008e-07
1.97789e-08
-3.66414e-07
2.54064e-07
3.43627e-07
-1.7223e-07
3.01151e-07
3.58919e-07
-9.29613e-09
3.62313e-07
1.20349e-07
-2.52163e-10
2.54721e-07
2.89797e-08
-2.61577e-10
2.01903e-08
1.03581e-09
-3.46086e-10
9.0488e-10
-2.31048e-13
-1.24025e-11
2.60904e-12
-4.63233e-12
-3.62362e-11
-8.47321e-11
-7.0626e-11
-2.73985e-10
1.70013e-09
-4.68111e-09
5.34753e-08
1.14883e-08
-3.32977e-09
3.4157e-08
5.12492e-09
-5.7579e-11
2.42704e-09
4.17846e-11
-3.83492e-11
-2.03343e-12
-1.51398e-10
-2.34457e-11
-6.35863e-12
-4.94418e-11
-3.57617e-11
-3.01377e-10
-9.83665e-11
-7.01858e-12
-1.32715e-10
-1.07037e-10
3.79211e-11
-5.48457e-11
-1.77465e-10
-1.53011e-12
3.83022e-11
-1.01127e-11
3.52888e-11
9.62174e-10
2.71791e-10
-1.98718e-11
4.57489e-11
1.02832e-11
-3.30823e-12
-2.50272e-12
1.14886e-12
-5.79114e-12
-1.24105e-11
-6.37222e-14
-1.67355e-11
-1.08606e-11
-1.49388e-13
-1.17782e-11
-1.0627e-11
9.3435e-14
-4.17823e-11
-1.82578e-11
9.24503e-13
-1.11887e-11
-5.32895e-12
1.24588e-12
-1.24413e-11
-5.3657e-13
-3.95148e-13
5.48367e-13
-1.29313e-12
-1.49391e-11
2.95922e-10
2.56288e-09
-2.33831e-11
-1.48053e-12
1.75452e-10
-3.42432e-11
-1.7841e-12
7.50963e-13
-8.77868e-13
-1.31244e-12
1.1063e-12
-2.19554e-12
-5.74004e-13
-8.22741e-13
-1.70397e-12
-5.48296e-13
-5.33372e-14
-3.47275e-12
-4.4573e-13
-3.115e-15
-2.15893e-12
-4.02066e-13
2.33611e-13
-1.39267e-12
-4.55954e-13
-3.56892e-12
-5.15293e-12
-8.83362e-13
-1.16933e-11
2.56845e-10
8.50597e-10
-3.45725e-10
-1.34365e-12
6.10604e-11
-5.08797e-12
-5.0347e-12
3.18863e-12
-2.77897e-13
-1.84717e-11
4.8172e-12
-4.60337e-13
-4.77436e-13
2.86906e-13
-8.15915e-13
-4.65347e-13
-1.16982e-12
-3.18764e-13
-6.24653e-12
-1.02418e-12
-1.41434e-13
-1.00385e-11
2.7772e-12
-5.01084e-13
-9.53377e-13
-8.93972e-12
-4.32789e-12
-4.55326e-12
-1.29827e-12
2.83941e-10
1.3834e-10
-3.26254e-11
5.79461e-11
4.57388e-10
-1.93285e-10
-1.06573e-12
6.63149e-11
-9.74645e-12
-1.73235e-11
2.10031e-11
-6.11176e-13
-5.82777e-12
4.9854e-12
-7.09922e-12
-1.12322e-12
-2.65886e-12
-2.90299e-13
-8.58938e-12
-2.67977e-12
-9.80813e-13
-2.13015e-11
2.29659e-12
-3.94234e-12
-1.51403e-11
-1.99866e-13
-5.40903e-12
-2.24394e-12
-4.16348e-13
8.59772e-11
-3.02573e-16
-7.28877e-13
4.99825e-10
2.7302e-10
-1.47219e-10
2.41965e-10
1.50018e-09
-4.71849e-10
-1.51211e-11
4.68886e-10
-1.84627e-10
-2.97236e-11
1.74331e-10
-2.37037e-11
-9.20614e-12
-4.85822e-12
-2.26804e-13
-8.40812e-12
-3.22451e-13
-5.32334e-13
-1.29062e-11
-9.18379e-15
4.36083e-12
-4.99657e-12
9.69081e-14
4.47648e-13
-7.72464e-14
-1.99206e-14
5.69736e-14
-4.83479e-15
-3.54674e-14
9.61399e-10
8.21963e-11
-1.02502e-10
8.18851e-10
1.86162e-09
-5.57441e-10
4.89991e-11
2.00155e-09
-4.95744e-10
-9.76938e-11
1.04506e-09
-3.82961e-11
-8.36457e-12
1.24737e-12
4.20391e-12
-6.75149e-13
-3.52935e-14
4.40828e-14
-4.38095e-13
-3.13447e-14
6.89836e-14
-1.19878e-14
-3.23441e-15
8.15868e-15
-1.70047e-16
-4.75002e-16
4.38474e-14
-6.78152e-15
-5.78603e-14
4.68552e-10
1.0464e-11
-5.01929e-13
9.65819e-10
1.7972e-09
-4.08052e-10
1.59084e-10
2.5435e-09
-3.58182e-10
-1.61766e-10
1.73567e-09
3.15517e-11
-2.3943e-12
8.66491e-12
1.21312e-11
-6.21229e-14
-5.10967e-15
2.49742e-14
-3.85551e-16
-7.42865e-19
2.99025e-16
-2.30274e-16
-8.16811e-19
9.54406e-17
-5.47992e-18
-5.67226e-15
7.83609e-15
-2.44532e-14
-2.56941e-14
2.08217e-10
7.66671e-12
-4.01401e-13
7.46402e-10
2.09401e-09
2.77796e-11
1.36054e-10
2.82801e-09
-8.88252e-12
-5.98129e-11
1.0387e-09
2.53911e-10
-4.76079e-13
7.9599e-12
8.04673e-12
-1.22447e-18
-3.46289e-15
4.31008e-15
-3.08909e-18
-7.11251e-19
1.06472e-18
-4.03046e-17
1.4863e-19
4.1369e-17
3.18068e-17
1.15339e-16
1.21146e-14
-1.01544e-13
7.07106e-14
5.05677e-11
1.46775e-13
1.65176e-12
4.73669e-10
3.30163e-10
2.1784e-09
1.36907e-10
4.3672e-10
2.95458e-09
1.79907e-11
1.85905e-10
3.80843e-10
-1.5131e-13
7.38727e-13
1.70662e-12
-1.03269e-18
4.57918e-16
-3.86071e-16
-5.94886e-19
1.08481e-18
-3.89986e-19
-5.0867e-17
4.33411e-17
3.10256e-19
1.94279e-16
7.44945e-17
3.35994e-08
-2.10696e-08
4.09288e-08
9.68832e-08
-6.26495e-08
1.1764e-07
1.38644e-07
-4.16919e-08
1.15775e-07
1.55713e-07
-1.63256e-08
1.31274e-07
1.54914e-07
-3.99609e-09
1.6251e-07
1.49749e-07
2.06115e-09
1.91346e-07
1.45869e-07
2.61185e-10
2.23652e-07
1.43415e-07
-4.31358e-09