/*--------------------------------*- C++ -*----------------------------------*\
| =========                 |                                                 |
| \\      /  F ield         | OpenFOAM: The Open Source CFD Toolbox           |
|  \\    /   O peration     | Version:  2312                                  |
|   \\  /    A nd           | Website:  www.openfoam.com                      |
|    \\/     M anipulation  |                                                 |
\*---------------------------------------------------------------------------*/
FoamFile
{
    version     2.0;
    format      ascii;
    arch        "LSB;label=32;scalar=64";
    class       volScalarField;
    location    "0.505";
    object      alpha.water;
}
// * * * * * * * * * * * * * * * * * * * * * * * * * * * * * * * * * * * * * //

dimensions      [0 0 0 0 0 0 0];

internalField   nonuniform List<scalar> 
8000
(
1
1
1
1
1
1
1
1
1
1
1
1
1
1
1
1
1
1
1
1
1
1
1
1
1
1
1
1
1
1
1
1
1
1
1
1
1
1
1
1
1
1
1
1
1
1
1
1
1
1
1
1
1
1
1
1
1
1
0.999999
0.999999
1
1
1
1
1
0.999996
0.999982
0.999956
0.999925
0.999903
1
1
1
0.999998
0.984397
0.942547
0.873221
0.788588
0.725357
0.694468
1
1
0.999994
0.934185
0.638707
0.352749
0.170705
0.0813319
0.0417557
0.0270567
1
0.999986
0.792697
0.311724
0.0749354
0.000144005
4.51252e-06
5.31098e-07
3.87575e-07
3.87287e-07
0.999985
0.940709
0.366202
0.000730311
1.63517e-06
4.52728e-06
6.76322e-07
5.86435e-07
4.14187e-07
3.85456e-07
0.999471
0.683851
0.0292329
1.35349e-06
8.35077e-07
8.1031e-07
6.99085e-07
6.76475e-07
1.94659e-06
1.0538e-05
0.412516
0.135906
0.000976862
7.70254e-07
1.01577e-06
3.27584e-06
3.00885e-06
6.9905e-07
1.34016e-05
2.85184e-05
3.14499e-05
2.21899e-05
0.00135631
0.000147379
1.19866e-06
8.09288e-06
3.01359e-05
2.14292e-05
9.34632e-06
2.28578e-05
5.48055e-05
1.99872e-05
7.42493e-05
2.47749e-05
1.45362e-06
5.41346e-06
1.51344e-05
1.2349e-05
3.24717e-06
7.32169e-06
9.07389e-05
2.01647e-05
2.17369e-06
1.61203e-06
1.07912e-05
3.77007e-06
2.68818e-06
1.97438e-06
2.00337e-06
2.11774e-06
0.000149294
1.26541e-05
3.91255e-05
0.000133083
0.000118279
1.05777e-05
1.86734e-05
1.38929e-06
1.93238e-06
3.77572e-06
0.000137552
1.03858e-05
0.000204741
0.000203355
8.19866e-05
1.02118e-05
3.13943e-06
1.37903e-06
6.43791e-07
1.66952e-06
0.000144361
8.59057e-06
0.000207628
0.000158338
4.60064e-06
5.93831e-07
1.80208e-11
1.16186e-13
4.64256e-12
2.41734e-11
0.000154831
2.46791e-06
8.71877e-05
3.23437e-06
9.71989e-07
3.58985e-08
1.16186e-13
4.53519e-14
8.80004e-15
4.75857e-14
1
1
1
1
1
1
1
1
1
1
1
1
1
1
1
1
1
1
1
1
1
1
1
1
1
1
1
1
1
1
1
1
1
1
1
1
1
1
1
1
1
1
1
1
1
1
1
1
1
1
1
1
1
1
1
1
1
1
1
1
1
1
1
1
0.999996
0.999976
0.999999
0.999994
0.999987
0.999982
1
1
1
0.999998
0.999955
0.998262
0.977328
0.930445
0.88645
0.86243
1
1
1
0.999524
0.789495
0.46983
0.255689
0.147641
0.0980599
0.0778152
0.999986
1
0.856752
0.375833
0.0560802
7.63556e-06
8.39988e-07
6.02457e-07
4.32935e-07
3.87575e-07
0.943929
0.576682
0.17013
3.68073e-05
8.343e-07
8.87732e-07
7.63576e-07
3.06717e-06
7.2911e-06
6.23895e-07
0.661825
0.0193454
2.01563e-07
2.97378e-07
7.63132e-07
8.26483e-07
7.90196e-07
1.42628e-06
6.59685e-06
2.5247e-05
0.125449
0.0564462
1.41201e-07
4.64648e-07
8.25717e-07
5.6801e-06
8.16976e-06
1.07716e-06
2.5331e-05
4.56396e-05
2.8939e-05
1.66734e-05
4.24159e-05
7.67278e-06
9.90559e-07
1.54387e-05
3.05415e-05
1.97323e-05
3.58557e-05
4.56396e-05
9.20047e-05
1.22224e-05
3.12554e-06
2.97764e-06
1.71343e-06
2.01461e-05
3.05415e-05
2.39156e-05
1.57101e-05
4.56396e-05
0.000302993
3.35856e-05
1.01778e-06
1.17591e-06
6.17869e-06
2.15995e-05
3.04541e-05
3.73417e-06
5.01863e-06
2.58164e-05
0.000300127
0.000101826
2.17369e-06
1.61203e-06
1.13146e-05
6.6419e-05
2.3154e-05
1.89137e-06
3.86561e-06
3.25455e-06
0.000156404
0.000113444
2.79024e-06
2.2499e-06
2.84422e-06
6.44439e-05
5.712e-06
1.35008e-06
1.5566e-07
2.21672e-10
0.000119074
4.51036e-05
3.08509e-05
2.84422e-06
0.000102778
3.86519e-05
2.57069e-10
1.99708e-12
1.02349e-12
6.10643e-13
0.000141596
3.57575e-06
0.000223586
0.000198978
0.000131343
4.6631e-06
3.90947e-11
8.22768e-14
8.73983e-15
3.68386e-14
1
1
1
1
1
1
1
1
1
1
1
1
1
1
1
1
1
1
1
1
1
1
1
1
1
1
1
1
1
1
1
1
1
1
1
1
1
1
1
1
1
1
1
1
1
1
1
1
1
1
1
1
1
1
1
1
1
1
1
1
1
1
1
1
1
0.999999
1
0.999999
0.999997
0.999996
1
1
1
1
1
0.999946
0.990659
0.9513
0.905415
0.881009
0.999994
1
1
0.955222
0.770551
0.496048
0.27268
0.152238
0.0977442
0.0766715
0.774751
0.852387
0.640241
0.33324
0.0697536
2.06083e-05
2.04814e-06
1.15139e-06
6.02459e-07
4.32935e-07
0.318845
0.16894
0.0466769
2.9886e-07
5.8822e-07
1.15843e-06
3.60974e-06
3.4139e-05
3.48344e-05
1.60845e-05
0.0170111
2.01556e-07
1.41199e-07
1.86395e-07
2.9886e-07
7.51705e-07
1.69552e-06
5.03147e-06
1.75102e-06
2.5349e-06
0.00078815
1.39144e-07
1.31039e-07
1.6094e-07
6.93272e-07
1.60892e-06
1.53364e-06
1.26547e-06
1.79157e-05
3.25827e-05
0.00152682
0.000392028
1.00183e-07
1.31042e-07
3.94256e-06
9.49392e-06
1.82164e-05
1.0654e-05
4.38285e-05
4.54415e-05
0.000291798
0.000102496
1.31042e-07
5.92654e-07
4.5718e-06
5.07549e-06
2.3968e-05
2.84601e-05
4.36155e-05
3.06646e-05
0.000304535
0.000165367
5.92499e-06
7.98578e-07
8.21746e-06
3.32065e-05
3.00151e-05
4.83954e-06
2.30734e-05
1.66026e-05
9.16494e-05
0.000166859
3.43117e-05
1.0661e-05
8.99342e-06
8.70372e-05
1.31325e-05
1.70394e-06
2.8064e-06
7.23692e-07
2.39498e-05
0.00016399
4.57241e-05
8.06056e-06
1.30053e-05
8.70372e-05
2.3014e-06
7.41789e-07
4.28715e-11
6.42771e-12
1.96012e-05
6.42832e-05
0.000196109
0.000131184
0.000175127
6.51701e-05
2.86365e-12
1.03905e-12
1.63669e-13
6.48582e-13
1.84575e-05
3.27482e-06
0.000237881
0.000242237
0.000233166
1.8856e-05
6.40035e-11
1.63669e-13
9.45877e-14
3.00867e-13
1
1
1
1
1
1
1
1
1
1
1
1
1
1
1
1
1
1
1
1
1
1
1
1
1
1
1
1
1
1
1
1
1
1
1
1
1
1
1
0.999999
1
1
1
1
1
1
1
1
1
1
1
1
1
1
1
1
1
1
1
1
1
1
1
1
1
1
1
1
1
1
0.999935
0.999997
1
1
1
0.994853
0.916335
0.839166
0.788388
0.778495
0.925596
0.999357
0.954706
0.844613
0.657988
0.416668
0.246334
0.148192
0.0949892
0.0801653
0.306575
0.359929
0.320343
0.205901
0.0681592
0.00242941
9.0094e-06
2.05897e-06
1.15139e-06
8.40797e-07
0.000394085
2.63141e-05
6.79496e-07
5.54819e-07
1.99051e-06
1.6706e-06
4.35627e-06
3.47775e-05
3.47771e-05
2.52088e-05
1.24798e-06
6.66129e-07
1.62914e-07
2.51676e-07
2.59696e-06
9.29185e-08
1.75444e-06
4.86224e-06
1.04702e-06
2.98087e-07
5.65121e-07
1.62354e-07
1.28474e-07
2.02935e-07
1.50214e-07
5.56493e-08
7.78935e-08
7.90906e-08
1.35452e-07
1.88534e-07
0.000200369
6.59775e-07
6.30993e-08
1.76278e-06
4.35814e-06
4.34177e-08
3.06993e-08
2.59145e-06
4.57748e-06
1.94242e-07
0.000199171
3.3775e-05
1.10761e-07
9.393e-07
7.19648e-06
5.74265e-07
2.36129e-06
1.52923e-05
2.25798e-05
2.5137e-06
1.03547e-06
0.000118708
0.000105638
1.03905e-06
1.58007e-05
7.58415e-06
2.9312e-06
8.03676e-06
1.08593e-05
1.20613e-06
5.28533e-09
6.32405e-05
0.00022897
0.000192379
7.10438e-05
1.44554e-05
1.33469e-09
2.69363e-07
3.24282e-07
2.19899e-10
4.8665e-09
1.11561e-08
0.000235128
0.000241808
0.000216258
2.01403e-05
2.34429e-10
9.76767e-09
3.29695e-12
2.22269e-10
4.0558e-09
4.8665e-09
0.000227715
0.000242241
0.000241808
1.50227e-05
1.89702e-12
1.9007e-12
1.50876e-12
2.75179e-12
4.84217e-09
1.5773e-08
0.000241321
0.000242221
0.000163523
2.88998e-06
1.90508e-12
1.488e-12
1.63642e-13
4.72145e-13
1
1
1
1
1
1
1
1
1
1
1
1
1
1
1
1
1
1
1
1
1
1
1
1
1
1
1
1
1
1
1
1
1
1
1
1
1
1
0.999995
0.999986
1
1
1
1
1
1
1
1
1
0.999146
1
1
1
1
1
1
1
1
1
0.989049
1
0.999997
1
1
1
1
1
1
1
1
0.979174
0.999923
1
1
0.985193
0.925817
0.859481
0.789749
0.729451
0.712228
0.613075
0.76506
0.759867
0.654664
0.487152
0.339295
0.210425
0.125977
0.0774121
0.054989
0.0747357
0.0482928
0.0620122
0.064622
0.0388581
0.00264327
5.31798e-05
9.0094e-06
2.05897e-06
2.92112e-06
1.24557e-06
9.06746e-07
8.72623e-07
3.51022e-06
3.97233e-06
1.29236e-05
6.04012e-06
5.66576e-06
4.32363e-06
7.57267e-06
8.09329e-07
4.54785e-07
2.14299e-07
5.15422e-06
6.40243e-06
6.05124e-07
3.15728e-07
7.37396e-07
1.8992e-06
2.9431e-06
6.49896e-07
1.61293e-07
2.01553e-07
4.70404e-07
3.88302e-07
4.97983e-08
3.05934e-08
3.18457e-08
3.96093e-07
2.04774e-07
9.72604e-07
7.13041e-08
5.43686e-08
5.12898e-08
4.09959e-08
3.06993e-08
2.08423e-08
2.53035e-08
3.18965e-08
3.23309e-08
1.86439e-08
3.48882e-05
6.3322e-08
5.43686e-08
2.82326e-07
2.36861e-08
5.61046e-08
2.2893e-07
1.48356e-07
2.00854e-08
7.79791e-09
2.28895e-08
0.00017357
7.16449e-05
6.31381e-06
1.65546e-08
2.85397e-07
1.86197e-06
1.4628e-07
1.70503e-08
5.94822e-09
3.26101e-06
0.000233253
0.000238457
1.88431e-05
1.33469e-09
1.34959e-10
9.97792e-11
1.0843e-09
7.48101e-09
9.60115e-09
8.74528e-09
0.000233997
0.000239916
3.83482e-05
2.73803e-10
5.09306e-11
1.15564e-11
7.04607e-10
3.17614e-10
2.2142e-09
4.8758e-09
0.000204119
0.000232743
4.28276e-05
5.09189e-11
1.15562e-11
8.12719e-12
3.61684e-10
1.55645e-10
4.8758e-09
2.89385e-06
0.000106932
0.000139251
2.28611e-05
1.96395e-09
7.40557e-12
2.32593e-12
1.57034e-10
1.52513e-10
1
1
1
1
1
1
1
1
1
1
1
1
1
1
1
1
1
1
1
1
1
1
1
1
1
1
1
1
1
0.999999
1
1
1
1
1
1
0.999999
0.999996
0.999988
0.999847
1
1
1
1
1
1
1
0.999947
0.991256
0.954181
1
1
1
1
1
1
1
1
0.852317
0.658194
0.999995
0.999975
0.999999
1
1
1
1
0.997209
0.868458
0.635787
0.931591
0.998007
0.999925
0.990129
0.923361
0.858503
0.748664
0.594506
0.48955
0.406448
0.331788
0.442596
0.476083
0.41001
0.341515
0.256096
0.150196
0.0760536
0.0147835
0.0299876
0.00261433
6.43339e-06
4.9479e-05
0.0030733
0.0022223
0.000332694
0.000197107
5.55115e-05
2.03365e-05
0.000293669
5.46114e-06
9.41101e-06
5.44717e-06
7.61906e-06
1.53938e-05
3.05539e-05
2.79408e-05
1.26672e-05
2.56454e-05
3.82996e-05
1.06224e-06
1.02977e-05
7.36137e-06
4.06851e-07
1.32105e-06
2.8171e-06
1.97957e-06
5.11881e-06
2.81285e-05
3.07218e-05
6.29133e-06
1.05163e-05
2.05722e-07
1.14708e-07
2.5759e-07
6.03155e-07
1.50581e-07
2.58472e-07
5.86699e-06
7.45487e-05
6.80067e-06
8.95272e-06
4.21301e-07
5.43686e-08
5.12894e-08
3.69887e-08
2.82753e-09
1.24917e-08
2.02069e-06
1.49565e-05
2.13336e-06
1.56693e-07
1.59839e-07
1.62088e-05
5.077e-08
2.82757e-09
3.83645e-10
8.62626e-09
3.72027e-07
3.23308e-08
1.84228e-08
9.23139e-08
6.30689e-05
9.99986e-05
8.93839e-08
3.83642e-10
1.78717e-10
3.83645e-10
3.22586e-08
2.00849e-08
6.32431e-09
3.63382e-08
0.000160965
9.31285e-05
1.72367e-09
1.78717e-10
1.63555e-10
1.78717e-10
4.60921e-10
3.66691e-07
1.59879e-09
3.65805e-06
5.23033e-05
3.34059e-05
1.56366e-09
1.54544e-10
1.42312e-10
1.25027e-10
6.74693e-09
4.03969e-07
1.09411e-13
4.16243e-07
5.53223e-06
9.00049e-06
2.939e-09
1.10785e-10
1.09444e-10
8.22982e-11
1.09217e-08
1.85021e-08
2.70523e-08
2.55507e-08
6.03424e-08
6.82193e-07
1.91665e-09
7.64175e-10
1.42819e-10
6.54142e-12
1.37267e-08
2.26806e-08
1
1
1
1
1
1
1
1
1
1
1
1
1
1
1
1
0.99999
0.999972
0.999996
1
1
1
1
1
1
1
0.999951
0.999914
1
1
1
1
1
1
1
0.999998
0.999954
0.999943
0.999992
0.999963
1
1
1
1
1
1
1
0.995647
0.930293
0.860091
1
1
1
1
1
1
1
0.787135
0.408657
0.362867
0.99998
0.999999
1
1
1
1
0.968558
0.586534
0.228859
0.0802396
0.85842
0.974383
0.989441
0.91383
0.862748
0.750051
0.530437
0.306327
0.117825
0.0177919
0.158686
0.230339
0.255838
0.245176
0.218727
0.153174
0.0744158
0.0252545
0.0281767
0.0135921
1.35715e-05
2.0455e-06
6.05885e-06
1.56651e-05
2.58706e-05
6.15945e-05
0.000251255
0.000388373
0.00050769
0.00199619
1.17495e-06
3.12719e-05
0.000213235
0.000171703
1.44281e-05
2.31483e-05
4.28103e-05
7.88678e-05
0.000103596
3.3704e-05
6.14084e-07
2.49117e-05
3.27009e-05
1.91235e-05
7.24669e-06
9.39715e-06
6.98418e-06
1.37501e-05
2.22329e-05
2.64054e-05
3.85126e-06
1.20291e-05
2.46042e-07
2.05722e-07
2.49129e-06
7.38155e-06
2.42675e-06
1.32482e-06
4.85548e-06
0.000262686
6.3721e-06
3.20557e-06
3.47548e-06
6.30074e-06
1.13724e-05
3.82908e-05
4.33185e-06
1.36299e-07
3.70471e-06
0.000372839
2.57517e-06
2.91623e-07
2.372e-07
1.73587e-05
1.05121e-05
5.62846e-05
2.26287e-09
1.19277e-08
9.99628e-06
0.000117109
2.9586e-06
9.25759e-07
1.10079e-05
2.13032e-05
3.59877e-06
6.6346e-05
3.83645e-10
2.26287e-09
8.65091e-06
4.99003e-05
1.65568e-06
1.5083e-06
5.17e-06
8.06141e-07
2.87931e-07
4.60605e-05
1.78717e-10
4.60922e-10
8.10004e-06
4.42939e-05
3.01066e-08
8.34829e-08
2.59388e-10
3.10853e-08
4.0098e-07
2.84729e-05
1.54545e-10
6.03066e-10
9.37975e-06
4.27414e-05
7.20929e-14
1.09411e-13
3.22171e-12
2.59388e-10
3.50464e-10
2.43198e-10
1.24394e-10
5.22537e-10
1.30524e-05
6.11016e-05
3.92941e-14
3.26783e-13
1.94638e-11
1.55595e-09
3.45471e-10
2.56637e-10
1.54364e-10
6.19017e-10
2.1763e-05
0.000111049
1
1
1
1
1
1
1
1
1
1
1
1
1
1
1
1
0.99997
0.999875
0.999976
1
1
1
1
1
1
1
0.999896
0.999729
0.999995
1
1
1
1
1
1
0.999995
0.999939
0.999945
0.999979
0.999997
1
1
1
1
0.999998
1
0.997782
0.953704
0.968762
0.999987
1
1
1
1
1
1
0.787128
0.370401
0.554774
0.786102
0.999952
0.999994
0.999999
1
1
0.994327
0.551981
0.0913176
0.0898863
0.119226
0.770816
0.923394
0.948724
0.850503
0.802207
0.595586
0.283054
0.0361375
0.00138051
0.000770207
0.0751391
0.130058
0.144347
0.154336
0.136376
0.0749539
0.0157701
0.0212662
0.00350578
0.000410333
1.13349e-06
5.3404e-07
2.0455e-06
6.05921e-06
1.56654e-05
3.07829e-05
5.84022e-05
0.00155687
0.00285461
0.000245736
4.80429e-07
1.61946e-06
0.000247105
0.000457835
0.000457684
0.000187231
2.0311e-05
8.80175e-05
0.000204584
1.4977e-05
4.78675e-07
1.07796e-06
2.4265e-05
4.532e-05
0.000138044
0.000250651
6.4635e-06
1.21391e-05
1.3697e-05
5.22287e-06
4.14203e-07
2.72411e-07
2.45811e-07
2.72411e-07
0.000141763
0.000657255
7.49726e-06
2.7998e-06
2.94684e-06
3.84966e-06
5.15374e-07
1.43849e-06
4.37855e-07
3.78603e-07
0.000106319
0.000665263
0.000288131
7.64273e-07
5.83826e-07
0.000501013
1.23664e-06
2.99317e-06
5.49496e-07
5.48005e-07
2.52827e-05
0.000665779
0.000665178
1.0942e-05
4.86417e-07
0.000726816
8.31396e-06
4.77113e-06
1.4718e-08
1.61039e-08
8.64489e-06
0.000665779
0.000370359
1.6965e-05
4.81412e-07
0.000391208
6.19726e-06
8.20426e-07
1.40044e-09
2.88877e-09
2.80087e-05
0.000665779
6.75583e-05
1.62978e-08
5.43083e-07
3.16319e-05
7.20929e-14
2.54767e-12
1.53086e-11
1.40044e-09
8.8359e-05
0.000663601
4.32042e-05
1.34194e-08
2.88319e-08
5.27699e-05
3.22728e-14
7.20929e-14
8.55455e-12
1.12629e-09
9.57942e-05
0.000429834
4.02538e-05
1.64434e-08
5.16497e-06
0.000120468
3.68713e-14
3.22728e-14
3.27187e-13
5.28956e-09
2.64673e-05
4.22986e-05
0.000134538
6.02114e-06
2.66751e-05
0.000882643
1
1
1
1
1
1
1
1
1
1
1
1
1
1
1
1
0.999997
0.999976
0.999998
1
1
1
1
1
1
1
1
0.999846
0.999851
1
1
1
1
1
1
1
0.999997
0.999974
0.999544
0.999971
1
1
1
1
0.999901
0.995413
0.949584
0.999226
0.999635
0.999985
0.999999
1
1
1
0.997987
0.80289
0.431243
0.669017
0.999764
0.999979
0.999922
0.999987
0.999997
1
1
0.811837
0.175242
0.10254
0.495255
0.58656
0.709312
0.878622
0.906422
0.820323
0.766672
0.467202
0.0802799
0.00138051
0.000600974
0.000531209
0.0385163
0.0880083
0.0976276
0.110717
0.0849812
0.00078469
0.00738398
0.00227147
0.000364998
0.000434132
4.16983e-07
4.18061e-07
5.3404e-07
2.18272e-06
1.67777e-05
0.000764423
0.000787191
0.00156534
0.00030511
0.000243637
4.19066e-07
4.56385e-07
2.53925e-05
0.000361851
0.000404055
0.000191363
0.000392982
0.00073365
0.000209412
4.62678e-05
4.29564e-07
6.51695e-07
2.65657e-05
3.52337e-05
5.39576e-07
9.25737e-07
2.65319e-06
0.000136101
3.16247e-05
3.82339e-06
3.74437e-06
7.81595e-06
2.72411e-07
3.31522e-07
5.15897e-06
3.20409e-05
1.33614e-05
1.27871e-06
2.14867e-06
2.60249e-06
4.17163e-06
1.71911e-05
1.93899e-06
4.20995e-07
1.73922e-05
0.000153276
0.000110427
8.88617e-07
4.95715e-07
9.12309e-07
1.98248e-06
9.26242e-06
2.11288e-06
3.47213e-07
4.62655e-05
0.000594013
0.000118408
1.39106e-06
4.90995e-07
2.43954e-05
8.33901e-06
1.41796e-06
1.62984e-08
2.83129e-08
7.75308e-05
0.000665779
0.000122192
1.32422e-06
2.10403e-05
5.93504e-05
8.33899e-06
2.84351e-07
3.43459e-09
1.45371e-08
0.000128722
0.000663601
0.000304044
2.61389e-08
4.36751e-05
5.10284e-06
3.90817e-10
1.30473e-11
8.64888e-11
1.20559e-08
0.000205961
0.000660349
0.00060078
2.88319e-08
3.91719e-05
5.69582e-06
1.90327e-14
2.46495e-13
3.36195e-11
7.19338e-09
0.000216438
0.000659275
0.000657241
2.88319e-08
1.49952e-05
5.33126e-06
1.58904e-14
1.90327e-14
2.98575e-13
1.50813e-11
0.000112453
0.000657299
0.000653603
5.62729e-05
2.27807e-06
3.64503e-06
1
1
1
1
1
1
1
1
1
0.924087
1
1
1
1
1
1
1
1
1
0.923745
1
1
1
1
1
1
1
0.999999
1
0.913761
1
1
1
1
1
1
0.999994
0.999994
0.99998
0.911881
1
1
1
1
0.999085
0.958318
0.891548
0.999988
0.999992
0.917093
0.999999
1
1
1
0.925605
0.512526
0.405071
0.913081
0.999988
0.946447
0.999903
0.999982
0.999997
1
0.984372
0.382441
0.0441885
0.212906
0.698519
0.653942
0.681501
0.856851
0.88658
0.836131
0.741191
0.384087
0.00705008
0.000686621
0.00048634
0.000686621
0.0236241
0.0737287
0.0811699
0.100292
0.0601008
0.0144337
0.00639623
0.000488016
0.000409028
0.00070231
3.95506e-07
3.93329e-07
4.18061e-07
7.95906e-07
4.06071e-06
4.46556e-06
0.00153476
0.00173124
0.000624306
0.00507134
4.0483e-07
3.90594e-07
9.63652e-07
2.9034e-05
7.86233e-05
1.19163e-06
2.91238e-06
0.000387602
0.000518607
0.013304
4.19066e-07
6.24291e-07
1.95771e-06
2.57292e-06
2.64213e-07
5.37629e-07
1.18992e-06
2.90925e-06
1.0166e-05
0.0184419
7.537e-06
1.34481e-05
6.83805e-07
1.12239e-06
3.53339e-06
9.65553e-06
1.62572e-06
1.90518e-06
5.50763e-06
0.0198674
1.30489e-05
2.78177e-05
7.38447e-07
5.77355e-07
1.54674e-05
2.22735e-05
6.05483e-08
4.54146e-07
0.00060108
0.0107604
4.75758e-06
2.64841e-06
9.88782e-07
6.19028e-07
1.65549e-05
1.72654e-05
1.53084e-08
1.79464e-07
0.000813585
0.00184504
8.30429e-06
3.1742e-07
1.57932e-08
3.57659e-07
1.80559e-05
2.84638e-05
2.24365e-06
3.03359e-06
0.000193529
1.1924e-05
6.43586e-06
8.59653e-07
5.31025e-09
4.70929e-07
2.71332e-05
4.82203e-05
2.77354e-05
1.48134e-07
1.72971e-07
5.99213e-07
4.56172e-09
9.02762e-12
6.97745e-10
1.1639e-06
3.32598e-05
5.27009e-05
4.22744e-05
1.81254e-08
4.25145e-07
1.08664e-06
1.58904e-14
8.00438e-14
3.36287e-12
2.20377e-06
2.19505e-05
1.57352e-05
2.73527e-05
4.36145e-07
1.25261e-06
1.72668e-06
1.58904e-14
1.55129e-14
1.3916e-14
3.57744e-07
4.49322e-06
4.61456e-09
4.66773e-08
1.88677e-05
1.65279e-06
2.03019e-06
1
1
1
1
1
1
1
1
1
0.945678
1
1
1
1
1
1
1
1
1
0.945541
1
1
1
1
1
1
1
0.999995
1
0.925935
1
1
1
1
1
1
1
0.999997
0.999999
0.911922
1
1
1
1
0.999686
0.961569
0.899577
0.999991
0.999886
0.923523
0.999999
1
1
1
0.904149
0.525882
0.367495
0.803275
0.999076
0.927466
0.999904
0.999982
0.999997
0.999991
0.963399
0.372847
0.0420751
0.0888023
0.355469
0.303711
0.681401
0.855754
0.885285
0.843483
0.736565
0.384799
0.0113528
0.000660361
0.000409028
0.000660357
0.0222394
0.0730003
0.0801147
0.101285
0.0618006
0.062285
0.018322
0.000409028
0.000311905
0.000453601
3.93329e-07
3.90594e-07
3.93329e-07
4.49422e-07
1.376e-06
1.25473e-05
0.00359532
0.000444792
0.000268417
0.00248685
6.89734e-07
3.90594e-07
3.65059e-07
3.39524e-07
2.8799e-07
1.08681e-05
1.1534e-05
0.000279893
0.000121301
0.0110749
1.35432e-06
6.11465e-07
3.84241e-07
2.46512e-07
1.36547e-07
4.02469e-07
5.68375e-06
1.08862e-05
1.18149e-05
0.0187597
6.25277e-06
2.17934e-05
6.66228e-06
1.73478e-06
8.80954e-08
4.05177e-08
1.14035e-06
3.44568e-06
3.2737e-06
0.0201541
1.24127e-05
2.81315e-05
1.33826e-05
7.18987e-06
2.18058e-07
2.55472e-08
2.26673e-08
3.70616e-08
1.06931e-07
0.00941841
7.76526e-06
2.70629e-05
1.01533e-06
5.4177e-06
8.97788e-07
1.40051e-07
1.45411e-08
3.79243e-08
3.54036e-08
0.00123172
3.98481e-06
9.98145e-06
9.65865e-06
2.5399e-06
2.03487e-07
1.31834e-08
1.26942e-08
2.58802e-08
2.62193e-08
1.55487e-07
4.02144e-06
3.14247e-06
1.39456e-06
1.41471e-07
2.12178e-07
8.21893e-09
8.14426e-09
6.98579e-08
5.32117e-08
0.000283971
1.27027e-06
1.29735e-07
9.23723e-10
1.2537e-09
1.10581e-09
1.96554e-09
3.18294e-09
1.08678e-08
7.50323e-08
0.00136191
3.97325e-09
2.93256e-14
1.75396e-13
5.68891e-08
4.76526e-10
1.58056e-09
2.91331e-10
2.99607e-09
6.6202e-09
0.0027666
1.29654e-14
2.4372e-14
1.27144e-14
1.73372e-08
5.01121e-10
8.28006e-09
5.90729e-11
6.08669e-11
4.67612e-11
0.00544695
1
1
1
1
1
1
1
1
1
1
1
1
1
1
1
1
0.999997
0.999976
0.999995
1
1
1
1
1
1
1
0.999966
0.999817
0.9999
1
1
1
1
1
1
1
1
0.999998
0.999815
0.999997
1
1
1
0.999999
0.999976
1
0.969001
0.933468
0.999891
0.999994
0.999999
1
1
1
0.996235
0.864869
0.496358
0.351468
0.609864
0.641011
0.999922
0.999987
0.999997
1
1
0.835083
0.226478
0.00943563
0.00148422
0.00124568
0.708908
0.87701
0.904881
0.818727
0.741033
0.477492
0.0983361
0.00148423
0.00057011
0.000943125
0.0338152
0.0877776
0.0960932
0.103116
0.0825439
0.0207546
0.0248058
0.00389021
0.000325997
0.000992175
3.95148e-07
3.93329e-07
3.98074e-07
4.25189e-07
9.62626e-07
1.36001e-05
0.000379676
0.00346362
0.000248157
0.000833454
3.94684e-07
3.90594e-07
3.94684e-07
4.44774e-07
9.53353e-07
2.39874e-05
8.29335e-05
0.000259369
0.000242851
0.000101813
2.07779e-06
7.80446e-06
2.43523e-06
3.39524e-07
1.50811e-06
1.7488e-05
1.04896e-05
2.38894e-05
0.000126815
1.73347e-05
2.66231e-05
2.81315e-05
2.64917e-05
4.40457e-07
1.7864e-07
9.01323e-07
1.06927e-06
1.67816e-06
3.99199e-05
1.42173e-05
2.81315e-05
2.81323e-05
2.81315e-05
2.01706e-05
2.73825e-06
8.29283e-09
5.77696e-08
1.16406e-07
1.19445e-05
8.38135e-06
1.85287e-05
2.68371e-05
1.28047e-05
3.65806e-05
6.69928e-06
6.88612e-09
5.39448e-09
1.59576e-08
2.47682e-06
2.64397e-06
1.98529e-06
2.72538e-05
2.73442e-05
2.55255e-05
4.04983e-06
5.39448e-09
1.7403e-07
3.75448e-09
6.68562e-07
4.61177e-06
3.04203e-06
1.37656e-05
1.20695e-05
3.71074e-06
1.51815e-07
3.33097e-08
3.98493e-07
2.6081e-07
3.47356e-07
3.9495e-07
4.09284e-06
4.65738e-07
9.12143e-10
1.51233e-10
4.76526e-10
6.27594e-08
4.00828e-07
2.59459e-07
1.14253e-08
1.49894e-07
3.45691e-07
7.48709e-12
3.09513e-12
7.50719e-12
4.34192e-11
1.64442e-08
2.92105e-07
5.38547e-08
3.80626e-09
1.02376e-08
9.94987e-15
1.96796e-14
6.47554e-14
2.44531e-13
4.71882e-10
8.53721e-08
2.11836e-08
9.21903e-11
3.72531e-10
3.97977e-09
1
1
1
1
1
1
1
1
1
1
1
1
1
1
1
1
0.999964
0.999869
0.999986
1
1
1
1
1
1
1
0.999884
0.999737
0.999992
0.999998
1
1
1
1
1
0.999998
0.999971
0.999994
0.999991
0.999994
1
1
1
1
1
1
0.999998
0.927036
0.693897
0.701345
1
1
1
1
1
1
0.91779
0.390791
0.131073
0.096173
0.999952
0.999994
0.999999
1
1
0.999649
0.688178
0.176425
0.00877037
0.00443445
0.770203
0.922143
0.946274
0.846518
0.759189
0.514367
0.23519
0.0536924
0.00148422
0.00124558
0.0696981
0.132012
0.144443
0.140985
0.114993
0.0592855
0.0109959
0.00654702
0.00165457
0.0031252
7.29222e-07
3.98074e-07
4.25189e-07
4.742e-07
5.59568e-07
9.85602e-06
0.000240834
0.000240351
0.000839272
0.000267136
3.98801e-07
1.08523e-06
7.43431e-06
1.09057e-05
2.82418e-05
1.88891e-05
4.88738e-05
4.58031e-05
0.000405703
4.40932e-05
6.5978e-07
5.02505e-06
4.60896e-06
6.2812e-06
1.06845e-05
4.85454e-06
5.75627e-06
4.27513e-06
9.23112e-06
7.20211e-05
2.76547e-05
2.25142e-05
3.12641e-06
9.55009e-07
3.88076e-07
1.04645e-07
3.25485e-07
1.53119e-07
1.9454e-05
0.000223728
2.81041e-05
1.34117e-05
1.22288e-05
1.98913e-06
1.6738e-06
6.88842e-09
7.65088e-09
6.56395e-08
3.8274e-05
0.000293403
1.93099e-05
4.43206e-07
5.18496e-05
3.92978e-05
2.06586e-06
3.99007e-09
1.0004e-09
3.61834e-09
2.36824e-05
0.000356411
1.25311e-06
5.31109e-06
1.75041e-05
2.8863e-05
7.83398e-06
1.0004e-09
5.91545e-10
8.27389e-10
1.20972e-05
0.000818075
2.96832e-06
1.1602e-05
5.02759e-06
4.61285e-06
2.71437e-06
4.70167e-08
1.26335e-11
2.93126e-10
1.41647e-09
0.00109601
3.6254e-06
2.89342e-06
9.08372e-10
3.0887e-10
4.34192e-11
2.12886e-10
7.2666e-12
1.26335e-11
2.93126e-10
0.000647009
1.31685e-07
7.78105e-11
2.96724e-11
5.77946e-11
1.26252e-11
5.97387e-12
4.49169e-12
5.9738e-12
1.65505e-10
6.56196e-05
1.00149e-14
1.01826e-14
4.67501e-12
1.25959e-11
1.93535e-11
5.71134e-11
3.87976e-12
4.49169e-12
1.03578e-07
1.47969e-07
1
1
1
1
1
1
1
1
1
1
1
1
1
1
1
1
0.999988
0.999971
0.999997
1
1
1
1
1
1
0.999999
0.999947
0.999918
0.999999
0.999998
1
1
1
1
1
0.999998
0.999956
0.999997
0.999926
0.997143
1
1
1
1
1
1
1
0.991747
0.802979
0.614955
1
1
1
1
1
1
1
0.856335
0.390895
0.178796
0.99998
0.999999
1
1
1
1
0.971673
0.736499
0.341163
0.128034
0.857965
0.97418
0.988364
0.914261
0.834492
0.682197
0.418276
0.250255
0.14087
0.0735502
0.157421
0.235947
0.259026
0.236357
0.189243
0.121395
0.0540688
0.00722904
0.0127736
0.027642
2.01951e-05
1.19435e-06
4.74197e-07
5.59568e-07
2.38105e-05
8.77585e-05
0.000151862
0.0001132
0.000136392
0.000261691
8.41256e-07
1.35858e-06
1.86364e-05
1.97279e-05
5.8347e-06
1.30899e-05
2.33388e-05
1.51677e-05
0.000112219
0.000196605
9.9033e-07
3.6712e-06
1.47737e-05
1.36204e-05
3.76848e-06
1.20385e-06
2.11643e-06
4.4965e-06
8.80353e-05
8.66961e-05
4.05889e-06
2.11926e-06
5.56464e-07
6.14875e-07
9.8226e-08
1.99465e-07
1.60981e-07
3.99618e-06
9.7861e-05
4.9024e-05
7.89936e-06
1.31541e-06
7.75157e-06
6.80127e-07
2.51517e-09
1.43621e-07
1.79537e-08
5.92909e-06
9.82186e-05
4.18951e-05
4.67818e-06
3.43343e-07
0.000123389
2.3497e-05
1.81043e-09
2.02666e-09
1.70026e-09
2.264e-06
1.70609e-05
6.95984e-05
9.55367e-07
7.96054e-07
5.04284e-06
3.12427e-05
3.49772e-06
1.70026e-09
1.07489e-09
1.70026e-09
7.55461e-06
9.45103e-05
2.85162e-06
3.28038e-06
7.16883e-07
6.01438e-06
2.41373e-06
3.22106e-07
5.75501e-11
8.3329e-10
7.73027e-06
9.86437e-05
1.51845e-06
1.74782e-06
4.68874e-08
8.0652e-10
8.35638e-11
8.61475e-11
7.62119e-11
5.75472e-11
5.54524e-06
7.79366e-05
2.34321e-09
3.41979e-11
5.96645e-10
3.0887e-10
4.34192e-11
7.87022e-10
1.56123e-10
9.23475e-11
2.77224e-06
8.18913e-05
4.12238e-14
1.3252e-12
2.79417e-11
7.11695e-11
2.71328e-11
1.18803e-10
4.49169e-12
8.42211e-12
3.91484e-06
0.000114437
1
1
1
1
1
1
1
1
1
1
1
1
1
1
1
1
1
1
1
1
1
1
1
1
1
1
1
1
1
1
1
1
1
1
1
1
1
0.999997
1
0.998699
1
1
1
1
1
1
1
1
0.979912
0.859173
1
1
1
1
1
1
1
1
0.913165
0.756285
0.999995
0.999975
1
1
1
1
1
0.996627
0.920522
0.818513
0.929055
0.998126
0.999894
0.995263
0.914896
0.823645
0.677515
0.492546
0.429702
0.429608
0.336697
0.449507
0.480442
0.41207
0.32191
0.213954
0.108824
0.0508219
0.00359467
0.000882723
0.00675993
2.7294e-06
5.77687e-05
9.8223e-05
0.00324764
0.000116298
4.60852e-05
1.83275e-05
3.63357e-05
0.000575541
2.72978e-06
8.80019e-07
2.68246e-06
6.77711e-06
3.08912e-06
8.56574e-06
5.53013e-06
3.57998e-06
9.86393e-06
0.000238971
8.03972e-07
5.75251e-07
5.81938e-07
1.18669e-06
8.10516e-07
4.83597e-07
3.70661e-07
7.24864e-07
8.70127e-06
5.71934e-07
4.25599e-07
3.70319e-07
1.62642e-07
5.14347e-08
1.84636e-08
2.05579e-08
2.10994e-08
2.53296e-07
4.33071e-06
7.41103e-07
2.95664e-07
4.52242e-05
2.89057e-06
1.84636e-08
1.81043e-09
2.52712e-09
7.7145e-09
4.60376e-07
7.32039e-07
2.90301e-05
1.75185e-07
2.02772e-07
0.000166879
2.09139e-05
1.49633e-09
1.59335e-09
1.89472e-09
5.34909e-09
1.55105e-06
8.45033e-05
1.83125e-07
1.20097e-07
0.000136397
6.00191e-05
1.49947e-09
2.96871e-09
2.00706e-09
3.5585e-09
7.27146e-06
0.000118041
2.00649e-07
4.98641e-08
0.000151645
8.06317e-05
1.96674e-06
1.68288e-09
5.20837e-10
1.9242e-09
1.4517e-05
9.43735e-05
2.93637e-09
2.23993e-08
8.73855e-05
4.02105e-05
1.947e-06
9.47922e-11
9.73723e-11
3.2055e-10
7.76032e-06
2.87433e-05
2.23266e-10
5.61238e-07
2.36994e-05
1.35468e-05
6.31921e-07
1.23061e-08
3.56983e-10
5.47169e-09
2.72935e-07
4.06097e-07
1.35623e-12
6.07568e-08
3.10367e-07
1.25486e-07
1.22457e-09
3.82934e-09
3.46257e-10
2.28043e-11
5.19733e-09
3.92049e-07
1
1
1
1
1
1
1
1
1
1
1
1
1
1
1
1
1
1
1
1
1
1
1
1
1
1
1
1
1
1
1
1
1
1
1
1
1
1
0.999987
0.99981
1
1
1
1
1
1
1
1
1
1
1
1
1
1
1
1
1
1
1
1
1
0.999997
1
1
1
1
1
1
1
1
0.977415
0.999905
1
1
0.989222
0.917405
0.828817
0.740133
0.673927
0.648607
0.619916
0.771822
0.764725
0.662239
0.484088
0.316972
0.17849
0.0998127
0.0514007
0.0216839
0.0877271
0.0546337
0.0654957
0.0667815
0.0404266
0.00302705
1.83402e-05
6.33877e-06
2.23069e-06
1.34792e-06
9.59854e-07
8.13967e-07
6.02579e-07
2.42801e-06
1.90523e-06
2.49834e-06
3.4701e-05
1.82807e-05
2.33886e-06
2.02556e-05
6.95073e-07
6.02579e-07
2.68023e-07
3.92717e-06
2.23916e-06
5.68036e-08
3.23662e-06
2.53105e-06
1.46693e-07
3.3609e-07
8.04868e-05
6.02281e-05
1.82272e-07
3.25794e-07
1.776e-07
2.29421e-09
3.44222e-09
1.72107e-08
6.10165e-08
1.46693e-07
2.71585e-05
0.000185956
4.46755e-06
1.75196e-08
1.46667e-08
1.69032e-09
2.29415e-09
3.4612e-09
5.67537e-07
6.11385e-06
2.43076e-08
9.26276e-05
0.000197734
1.16042e-05
1.59335e-09
1.69039e-09
1.69026e-09
2.51823e-09
3.38357e-06
1.85168e-05
1.71173e-08
0.000100942
0.0003216
2.86775e-05
1.49631e-09
7.96906e-09
2.51853e-09
2.74905e-07
7.17176e-06
2.3309e-05
1.20463e-08
0.000160375
0.000322763
3.26985e-05
3.72622e-07
3.1058e-09
1.80875e-09
2.27632e-09
2.83332e-06
2.20675e-05
8.55292e-09
0.000124898
0.000322841
0.000244337
3.1131e-05
9.09925e-10
5.11451e-10
6.31655e-10
3.804e-09
1.42146e-05
2.75171e-09
3.03589e-05
0.000322813
0.000312007
5.36645e-05
4.98959e-09
4.21582e-10
2.36843e-11
2.63239e-08
4.60802e-06
2.23266e-10
3.03204e-06
0.000160061
0.000135801
2.91068e-05
2.78972e-09
1.88367e-11
2.11273e-11
8.54441e-11
2.76581e-10
1
1
1
1
1
1
1
1
1
1
1
1
1
1
1
1
1
1
1
1
1
1
1
1
1
1
1
1
1
1
1
1
1
1
1
1
1
1
1
1
1
1
1
1
1
1
1
1
1
1
1
1
1
1
1
1
1
1
1
1
1
1
1
1
1
1
1
1
1
1
0.999878
0.999997
1
1
1
1
0.922964
0.836073
0.772072
0.746626
0.929249
0.99962
0.95914
0.85451
0.674067
0.431812
0.251473
0.143948
0.0839073
0.0638798
0.326999
0.375751
0.332805
0.216237
0.0741744
1.56017e-05
3.80508e-06
2.23069e-06
8.52345e-07
6.89617e-07
5.93401e-05
2.09932e-06
3.40888e-07
1.89086e-07
7.52135e-07
3.47228e-07
3.71712e-06
7.25102e-06
7.3187e-06
1.94931e-06
8.10909e-07
3.40879e-07
1.89086e-07
6.61507e-08
1.03715e-06
1.95006e-07
7.92677e-07
3.22404e-07
2.40658e-07
2.19191e-06
4.45099e-05
5.95969e-05
1.82252e-06
5.83969e-08
3.60037e-08
1.10914e-08
1.16495e-08
2.23821e-08
1.13624e-07
8.69196e-06
0.000420301
0.000215614
1.36436e-06
3.15649e-08
2.28771e-08
1.01938e-08
3.46132e-09
1.36409e-05
7.37828e-06
2.73205e-05
0.000415885
0.000407195
7.63771e-05
2.41849e-08
1.73628e-09
1.69027e-09
2.51832e-09
2.95739e-05
4.8907e-05
2.87156e-05
0.000404077
0.000395145
0.000136772
2.85067e-07
4.67444e-09
8.40671e-09
6.92613e-09
2.22042e-05
6.67267e-05
1.02196e-05
0.000232468
0.000390382
0.000147264
1.00776e-06
4.2712e-06
2.32691e-07
2.70763e-09
5.40433e-06
3.40197e-05
5.57261e-07
0.000149117
0.000387836
0.000305913
1.91211e-06
4.20839e-05
4.27252e-07
3.08722e-09