/*--------------------------------*- C++ -*----------------------------------*\
| =========                 |                                                 |
| \\      /  F ield         | OpenFOAM: The Open Source CFD Toolbox           |
|  \\    /   O peration     | Version:  2312                                  |
|   \\  /    A nd           | Website:  www.openfoam.com                      |
|    \\/     M anipulation  |                                                 |
\*---------------------------------------------------------------------------*/
FoamFile
{
    version     2.0;
    format      ascii;
    arch        "LSB;label=32;scalar=64";
    class       volScalarField;
    location    "0.505";
    object      p;
}
// * * * * * * * * * * * * * * * * * * * * * * * * * * * * * * * * * * * * * //

dimensions      [1 -1 -2 0 0 0 0];

internalField   nonuniform List<scalar> 
8000
(
367.102
366.314
364.931
363.021
360.783
358.45
356.226
354.34
352.937
352.173
319.677
318.727
317.296
315.208
312.787
310.307
307.949
305.99
304.519
303.67
273.549
272.458
270.903
268.367
265.731
262.966
260.335
258.1
256.448
255.536
229.399
227.839
225.975
223.091
219.975
216.661
213.553
210.904
208.967
207.926
185.496
184.685
182.492
179.228
175.356
171.269
167.505
164.301
161.981
160.747
145.831
144.324
141.329
136.883
131.99
126.716
121.706
117.481
114.465
112.875
108.282
106.192
102.233
96.4076
89.5405
82.1299
75.0626
69.2531
65.2386
63.1505
74.3246
71.4859
65.7081
57.5875
48.0664
37.8733
28.9773
23.0232
19.5573
17.9116
46.4668
42.6815
34.5232
24.2252
15.6976
7.53602
3.6339
1.80758
0.925899
0.599155
25.3791
20.4235
15.4051
5.52358
0.532752
-0.184022
-0.172758
-0.15524
-0.170847
-0.176931
10.7235
5.96447
2.35256
-0.201465
-0.35374
-0.287099
-0.250929
-0.226735
-0.225971
-0.228956
9.76616
5.06124
-0.412161
-0.32609
-0.347363
-0.343111
-0.322526
-0.306542
-0.30821
-0.316557
11.8912
3.00688
-0.524835
-0.433768
-0.386817
-0.404994
-0.399854
-0.391105
-0.391837
-0.396106
-0.619326
-0.688556
-0.667508
-0.539997
-0.482809
-0.478364
-0.472965
-0.466368
-0.462186
-0.461699
-0.597558
-0.615107
-0.597433
-0.592063
-0.555759
-0.537448
-0.530157
-0.526118
-0.522716
-0.520694
-0.600531
-0.571023
-0.594644
-0.64293
-0.624195
-0.597497
-0.583842
-0.578819
-0.576347
-0.575227
-0.648348
-0.630775
-0.659216
-0.709051
-0.697321
-0.660617
-0.642736
-0.635143
-0.631527
-0.630296
-0.708345
-0.699885
-0.714738
-0.735956
-0.741784
-0.716462
-0.701655
-0.693469
-0.688914
-0.687483
-0.766984
-0.756814
-0.752089
-0.754773
-0.773832
-0.766802
-0.756412
-0.749577
-0.745738
-0.74448
-0.818031
-0.814298
-0.803703
-0.804855
-0.821301
-0.815595
-0.808189
-0.803141
-0.800441
-0.799823
366.245
365.433
364.034
362.115
359.856
357.459
355.143
353.146
351.67
350.878
318.666
317.633
316.187
314.159
311.801
309.263
306.796
304.638
303.068
302.247
272.432
271.415
269.785
267.472
264.804
261.961
259.221
256.856
255.121
254.186
227.799
226.626
224.763
222.09
218.965
215.632
212.435
209.672
207.674
206.601
184.61
183.497
181.324
178.156
174.383
170.335
166.48
163.2
160.848
159.603
144.238
142.821
139.932
135.894
131.214
126.108
121.176
116.951
113.936
112.334
106.171
104.513
100.82
95.5905
89.3222
82.0756
75.4151
70.1046
66.4819
64.5686
71.6256
69.4405
64.3679
56.4227
47.8158
39.9768
32.7805
28.2574
25.9359
24.8306
42.6205
40.1712
34.3004
26.4287
18.9329
10.4811
5.75328
3.36551
2.20659
1.72984
20.275
16.5201
14.0676
5.78789
0.608162
-0.252632
-0.219746
-0.193084
-0.208695
-0.210215
4.96548
4.76651
3.15064
-0.455041
-0.371779
-0.320893
-0.28674
-0.264054
-0.262688
-0.264597
4.76368
-0.57557
-0.425905
-0.399646
-0.38171
-0.37198
-0.346722
-0.331267
-0.330317
-0.334933
2.50966
0.0769612
-0.44937
-0.429392
-0.423752
-0.430479
-0.420039
-0.411502
-0.41116
-0.411542
-0.735034
-0.77965
-0.582448
-0.518786
-0.503453
-0.498985
-0.488056
-0.478519
-0.472715
-0.469074
-0.643425
-0.627609
-0.562384
-0.566066
-0.557317
-0.550578
-0.546477
-0.542535
-0.533156
-0.527857
-0.620146
-0.616328
-0.59144
-0.612141
-0.61313
-0.604725
-0.596468
-0.592995
-0.587301
-0.582682
-0.670171
-0.704931
-0.670882
-0.685609
-0.686737
-0.673251
-0.653009
-0.64183
-0.636628
-0.633875
-0.727679
-0.773465
-0.74776
-0.750124
-0.751285
-0.732152
-0.707871
-0.696849
-0.690674
-0.688443
-0.785409
-0.802549
-0.800722
-0.792264
-0.80032
-0.777685
-0.759702
-0.751317
-0.746364
-0.744829
-0.834397
-0.83959
-0.846224
-0.835678
-0.831774
-0.817888
-0.808879
-0.803295
-0.800502
-0.800018
364.716
363.89
362.446
360.451
358.068
355.514
353.025
350.861
349.243
348.362
317.084
316.043
314.571
312.472
309.964
307.264
304.622
302.322
300.606
299.674
270.692
269.638
267.974
265.65
262.875
259.884
256.94
254.372
252.49
251.459
225.834
224.615
222.747
220.087
216.887
213.437
210.11
207.064
204.969
203.818
182.255
181.163
179.095
176.018
172.285
168.147
164.136
160.615
158.197
156.889
141.008
139.754
137.248
133.492
128.919
123.995
119.156
114.955
112.05
110.501
101.912
100.65
97.6134
92.9706
87.2697
80.9338
74.7647
69.5989
65.9825
64.0647
65.1858
64.2279
60.4449
54.7476
47.6434
40.304
34.0545
29.6534
27.1135
25.9497
33.8249
34.284
30.6857
24.5088
19.1758
11.1473
6.17406
3.48417
2.17431
1.66056
13.8129
14.4539
13.9149
7.3244
1.14006
-0.317125
-0.256033
-0.219456
-0.241999
-0.236993
2.08476
2.38518
0.414819
-0.34301
-0.364748
-0.352556
-0.325318
-0.305554
-0.301992
-0.300708
-0.410842
-0.373425
-0.407651
-0.393675
-0.410557
-0.390315
-0.366667
-0.34917
-0.346164
-0.350789
-0.507093
-0.429515
-0.429789
-0.422287
-0.432781
-0.433544
-0.420435
-0.411106
-0.408292
-0.410379
-0.664852
-0.597293
-0.511976
-0.503117
-0.505702
-0.493615
-0.47729
-0.467881
-0.465359
-0.464567
-0.577862
-0.575866
-0.5527
-0.555126
-0.555572
-0.547369
-0.53412
-0.524772
-0.52239
-0.519921
-0.607915
-0.613725
-0.599999
-0.598794
-0.603757
-0.601229
-0.590234
-0.582875
-0.577702
-0.574628
-0.67698
-0.712938
-0.68251
-0.66344
-0.666827
-0.661923
-0.647802
-0.637968
-0.6323
-0.629727
-0.739579
-0.803862
-0.774675
-0.738342
-0.734148
-0.724289
-0.703322
-0.694103
-0.688221
-0.686054
-0.798547
-0.851663
-0.8439
-0.804494
-0.791671
-0.777663
-0.758087
-0.749395
-0.744801
-0.743593
-0.846195
-0.870454
-0.877861
-0.846815
-0.830387
-0.820961
-0.808859
-0.802687
-0.799923
-0.799797
362.587
361.753
360.231
358.092
355.503
352.692
349.919
347.488
345.636
344.607
314.767
313.794
312.25
310.019
307.293
304.315
301.365
298.779
296.817
295.715
267.919
267.102
265.425
263
260.029
256.754
253.408
250.495
248.377
247.182
222.626
221.713
219.857
217.102
213.645
209.889
206.237
202.771
200.447
199.018
178.777
177.781
175.79
172.806
169.19
164.534
159.999
156.02
153.322
151.701
136.452
135.511
133.257
129.699
125.01
120.012
114.765
109.934
106.63
104.701
95.9017
95.1729
92.7452
88.7295
83.4393
77.2609
70.806
65.1209
60.7576
58.3297
57.0047
55.8823
54.375
50.6615
44.7428
37.4254
31.0713
26.8248
23.9809
23.0333
23.907
26.2065
24.3828
20.6406
16.7276
9.64573
5.55641
3.39172
2.09586
1.69741
5.42058
5.76641
6.86916
4.93497
1.12519
-0.37205
-0.287214
-0.230267
-0.241928
-0.237861
-0.247771
-0.385197
-0.343162
-0.337434
-0.414007
-0.407975
-0.361351
-0.331701
-0.333832
-0.324829
-0.314491
-0.319481
-0.394024
-0.411007
-0.450537
-0.416098
-0.383765
-0.363174
-0.361738
-0.369738
-0.396161
-0.378967
-0.418467
-0.427465
-0.439204
-0.430556
-0.415226
-0.404061
-0.401358
-0.410538
-0.511201
-0.49058
-0.497159
-0.503035
-0.497302
-0.479947
-0.465618
-0.456967
-0.454425
-0.459062
-0.556632
-0.552372
-0.552693
-0.556151
-0.547987
-0.532982
-0.521306
-0.514007
-0.51266
-0.51251
-0.589214
-0.59959
-0.601864
-0.600322
-0.596716
-0.588984
-0.579538
-0.572086
-0.568098
-0.56638
-0.662153
-0.68383
-0.678128
-0.659762
-0.657104
-0.650426
-0.638852
-0.630367
-0.624897
-0.622415
-0.729884
-0.764077
-0.766013
-0.736872
-0.724539
-0.713552
-0.697806
-0.68892
-0.683233
-0.681003
-0.795081
-0.826402
-0.840121
-0.812848
-0.78841
-0.77146
-0.754621
-0.746344
-0.742005
-0.741139
-0.844331
-0.861173
-0.883475
-0.864723
-0.836085
-0.819976
-0.807466
-0.801348
-0.798898
-0.799397
360.067
359.204
357.55
355.194
352.301
349.132
345.97
343.147
340.962
339.728
312.064
311.145
309.444
306.984
303.907
300.512
297.144
294.136
291.78
290.449
265.018
264.143
262.347
259.731
256.305
252.49
248.611
245.214
242.816
241.007
219.236
218.299
216.346
213.315
209.584
205.217
200.72
196.758
193.986
191.828
174.603
173.721
171.733
168.752
164.316
159.086
153.671
148.904
145.509
142.699
131.245
130.594
128.421
124.778
120.125
114.201
107.615
101.457
96.8607
93.5973
88.7259
88.5967
86.7744
83.206
78.3566
71.9372
64.5985
57.8617
52.9389
49.3312
47.282
47.2354
47.0896
44.4813
40.0147
34.0512
27.8492
22.9944
20.1839
20.1426
15.3494
18.2349
18.8162
16.602
13.3043
8.48911
4.82428
2.7707
1.489
1.07783
0.694516
0.530452
0.90802
0.966109
0.192363
-0.33876
-0.284393
-0.248664
-0.289493
-0.320877
-0.381754
-0.364323
-0.381145
-0.420568
-0.46912
-0.430557
-0.364712
-0.343224
-0.368511
-0.348859
-0.373204
-0.382685
-0.413573
-0.449838
-0.473244
-0.423348
-0.386821
-0.368892
-0.382122
-0.388509
-0.388821
-0.414368
-0.430137
-0.44039
-0.440732
-0.420705
-0.400543
-0.388567
-0.387827
-0.408121
-0.477439
-0.491728
-0.494604
-0.49826
-0.483804
-0.460627
-0.442846
-0.433124
-0.429954
-0.448427
-0.54091
-0.547511
-0.546727
-0.547166
-0.534145
-0.517433
-0.504134
-0.495101
-0.491709
-0.499135
-0.588044
-0.597326
-0.597303
-0.594659
-0.585822
-0.575568
-0.565795
-0.557477
-0.552578
-0.552596
-0.654639
-0.669227
-0.669898
-0.654314
-0.647776
-0.637968
-0.628039
-0.619712
-0.613412
-0.610606
-0.720661
-0.741851
-0.74268
-0.724475
-0.716371
-0.701912
-0.689951
-0.681495
-0.675573
-0.673038
-0.781146
-0.79573
-0.800164
-0.789349
-0.77845
-0.761285
-0.749032
-0.741378
-0.737293
-0.737145
-0.833568
-0.841351
-0.85202
-0.846339
-0.826037
-0.812778
-0.804183
-0.798679
-0.797352
-0.799882
357.394
356.454
354.619
351.974
348.693
345.038
341.364
338.086
335.441
333.977
309.236
308.254
306.367
303.583
300.068
296.148
292.181
288.682
285.6
284.273
261.908
260.946
258.957
255.993
252.016
247.481
242.787
238.592
235.262
233.092
215.599
214.615
212.506
209.119
204.714
199.384
193.716
188.655
185.183
181.82
170.224
169.322
167.212
163.687
158.551
152.086
144.945
137.39
131.266
126.715
125.664
125.042
123.123
119.32
113.722
105.992
96.4696
86.858
78.7653
77.311
81.0721
81.1799
80.2052
76.7299
71.6138
63.7803
53.4148
42.8486
34.3201
25.967
36.9608
39.0307
39.7442
37.1681
34.0119
28.3693
21.0144
15.053
11.3536
10.0718
7.20956
9.66706
10.618
9.54958
8.5768
6.26464
3.35091
1.26501
-0.256467
0.0266268
-0.186685
-0.235475
-0.246175
-0.286936
-0.230678
-0.246403
-0.239475
-0.315213
-0.485199
-0.53793
-0.321294
-0.323875
-0.345992
-0.40055
-0.416738
-0.383472
-0.322176
-0.321878
-0.392762
-0.344868
-0.371948
-0.377174
-0.390317
-0.415539
-0.426871
-0.408132
-0.369225
-0.341997
-0.372223
-0.365499
-0.412886
-0.427783
-0.431244
-0.436976
-0.428132
-0.403726
-0.377013
-0.355285
-0.35659
-0.389505
-0.474425
-0.490492
-0.486018
-0.485975
-0.469442
-0.439076
-0.414641
-0.399414
-0.390592
-0.431252
-0.530239
-0.539114
-0.538601
-0.536284
-0.523475
-0.503968
-0.482808
-0.469417
-0.463609
-0.481862
-0.584893
-0.59131
-0.591436
-0.586395
-0.57797
-0.565143
-0.550752
-0.539532
-0.53255
-0.535018
-0.64712
-0.656468
-0.654583
-0.648174
-0.639255
-0.628866
-0.617664
-0.607682
-0.600407
-0.597575
-0.708979
-0.718901
-0.720415
-0.712361
-0.701193
-0.692131
-0.681464
-0.673347
-0.667765
-0.666233
-0.767207
-0.774749
-0.777754
-0.771984
-0.760526
-0.751498
-0.741914
-0.736113
-0.733503
-0.735866
-0.82043
-0.825694
-0.828731
-0.8251
-0.81126
-0.806654
-0.798807
-0.795977
-0.7977
-0.804428
354.793
353.736
351.678
348.699
344.968
340.759
336.496
332.678
329.601
327.731
306.494
305.382
303.251
300.107
296.096
291.534
286.775
282.53
279.03
276.626
258.89
257.79
255.539
252.085
247.482
242.025
236.215
230.82
226.558
223.573
212.122
211.012
208.669
204.865
199.481
192.87
185.302
178.969
174.549
168.699
166.115
165.099
162.71
158.551
152.292
143.722
132.526
120.632
112.134
105.945
120.375
119.824
117.849
113.424
106.176
95.2363
79.2231
60.9139
51.9535
38.9011
73.8219
74.3339
73.8125
69.8531
63.7021
52.5356
35.9531
20.0019
17.467
15.4717
28.0058
31.6909
33.4115
31.0278
27.9615
21.1074
12.6652
6.3378
1.50101
4.22914
3.35754
5.14197
5.78895
5.58669
5.13298
3.65784
1.53924
-0.0226688
-0.183256
0.617755
-0.173072
-0.183995
-0.185936
-0.179135
-0.179215
-0.213595
-0.280248
-0.409805
-0.448085
-0.113806
-0.270971
-0.298179
-0.314867
-0.343934
-0.354824
-0.364585
-0.333688
-0.285941
-0.291507
-0.170772
-0.353257
-0.363512
-0.372572
-0.390115
-0.410678
-0.412662
-0.364666
-0.282159
-0.294261
-0.246543
-0.416658
-0.431629
-0.425291
-0.427961
-0.420069
-0.39213
-0.35511
-0.299748
-0.294983
-0.32316
-0.47125
-0.48723
-0.478459
-0.477088
-0.461073
-0.422743
-0.387718
-0.359616
-0.345843
-0.385684
-0.52391
-0.532521
-0.531162
-0.527459
-0.516064
-0.490359
-0.466029
-0.444999
-0.431882
-0.454283
-0.579949
-0.585602
-0.585281
-0.580474
-0.572806
-0.558483
-0.539977
-0.524185
-0.512451
-0.515034
-0.639926
-0.646143
-0.643287
-0.637667
-0.6325
-0.624367
-0.608997
-0.596842
-0.585889
-0.58754
-0.69912
-0.703264
-0.702507
-0.697479
-0.692358
-0.687414
-0.673089
-0.665321
-0.65869
-0.66251
-0.755802
-0.758942
-0.759503
-0.75615
-0.750436
-0.746096
-0.734893
-0.730675
-0.730215
-0.735292
-0.809163
-0.811334
-0.81212
-0.809705
-0.803617
-0.802236
-0.793502
-0.792553
-0.800118
-0.809854
352.492
351.302
349.023
345.7
341.502
336.738
331.953
327.721
324.239
322.142
304.112
302.783
300.433
296.911
292.378
287.129
281.718
276.971
272.885
270.179
256.229
254.96
252.421
248.483
243.251
236.851
229.724
223.725
218.872
214.816
209.053
207.776
205.068
200.614
194.506
186.23
177.435
171.296
161.325
153.902
162.505
161.325
158.616
153.802
146.743
134.414
119.797
105.057
86.5126
81.302
115.864
115.247
113.187
107.943
98.9973
83.5113
58.9043
37.5973
21.5715
17.3227
67.7967
68.8474
68.4392
63.8126
55.9568
39.9653
16.8372
11.7225
3.64393
6.25344
21.9531
27.1482
29.0473
27.1931
23.3477
15.4651
6.90509
2.29933
2.19461
2.92224
1.6547
2.94652
3.26569
3.61872
3.2627
1.56604
0.596004
1.18562
1.37259
1.10307
-0.139641
-0.157792
-0.168596
-0.153469
-0.164672
-0.22199
-0.312733
-0.210747
0.203703
0.133539
-0.239655
-0.279192
-0.294799
-0.292399
-0.300026
-0.326863
-0.411411
-0.355104
-0.210418
-0.112886
-0.334678
-0.351603
-0.362689
-0.370396
-0.375666
-0.381457
-0.406563
-0.366352
-0.282247
-0.142922
-0.40942
-0.425687
-0.417991
-0.420544
-0.417349
-0.369202
-0.350716
-0.324081
-0.275894
-0.214856
-0.46648
-0.481484
-0.471526
-0.469663
-0.4636
-0.410622
-0.366018
-0.336928
-0.325627
-0.310893
-0.518728
-0.527842
-0.524658
-0.519355
-0.514046
-0.481438
-0.446233
-0.422259
-0.416567
-0.398856
-0.574704
-0.579891
-0.579553
-0.573398
-0.568833
-0.550757
-0.541122
-0.514341
-0.499477
-0.495421
-0.633803
-0.637292
-0.636421
-0.631833
-0.626307
-0.61812
-0.611547
-0.591557
-0.575221
-0.598289
-0.6919
-0.693801
-0.693139
-0.691718
-0.685674
-0.67827
-0.671371
-0.661208
-0.65465
-0.683182
-0.74781
-0.749085
-0.749013
-0.74849
-0.744352
-0.741333
-0.72941
-0.72801
-0.735501
-0.766004
-0.801385
-0.802173
-0.802307
-0.801881
-0.799428
-0.800715
-0.787094
-0.791114
-0.808468
-0.845076
350.691
349.396
346.912
343.261
338.622
333.355
328.111
323.488
319.704
317.614
302.255
300.758
298.196
294.287
289.185
283.277
277.495
272.309
267.566
264.931
254.171
252.754
249.942
245.547
239.533
232.068
224.014
217.568
210.976
207.985
206.704
205.258
202.315
197.348
190.392
180.603
171.983
161.802
145.304
143.902
159.793
158.487
155.478
149.984
141.387
125.977
110.446
86.5023
63.9115
74.6744
112.575
111.865
109.65
103.331
91.6451
69.9109
39.003
16.3786
13.4642
29.3183
63.6517
65.0089
64.537
58.6098
48.8617
24.6836
9.87028
2.58019
11.0082
22.9172
18.6497
24.8
26.5889
25.2211
21.5674
11.47
1.98913
1.67065
1.95303
3.10614
0.852801
1.97146
2.17334
2.57439
2.10936
0.722948
0.787211
1.2637
1.32539
1.10687
-0.151665
-0.17962
-0.196104
-0.19694
-0.171845
-0.124524
-0.0892905
0.149274
0.37053
0.259783
-0.232701
-0.274099
-0.293042
-0.289447
-0.274821
-0.271043
-0.334732
-0.28731
-0.144625
-0.105492
-0.321992
-0.341351
-0.354305
-0.354208
-0.349389
-0.353981
-0.397771
-0.402784
-0.326207
-0.177922
-0.400336
-0.412069
-0.409203
-0.405329
-0.396655
-0.384459
-0.37443
-0.365616
-0.325672
-0.277558
-0.461568
-0.471923
-0.461931
-0.456452
-0.446997
-0.426705
-0.398031
-0.370412
-0.351331
-0.357365
-0.514959
-0.523365
-0.514886
-0.50839
-0.499257
-0.475037
-0.461776
-0.437747
-0.428451
-0.433303
-0.570628
-0.574797
-0.570375
-0.564046
-0.55616
-0.535447
-0.527303
-0.512023
-0.502617
-0.508715
-0.629182
-0.630205
-0.627513
-0.622808
-0.616847
-0.600312
-0.589273
-0.583251
-0.581169
-0.607691
-0.686415
-0.686918
-0.685389
-0.682802
-0.679835
-0.664475
-0.649419
-0.653405
-0.662117
-0.697297
-0.742158
-0.742535
-0.742001
-0.741109
-0.742684
-0.726024
-0.713702
-0.718311
-0.734524
-0.772598
-0.796128
-0.796401
-0.79645
-0.795816
-0.802274
-0.783656
-0.775748
-0.778506
-0.794134
-0.826891
349.609
348.231
345.601
341.714
336.738
331.059
325.427
320.475
316.868
315.714
301.125
299.53
296.806
292.606
287.086
280.629
274.23
268.712
264.381
263.413
252.936
251.425
248.406
243.615
236.978
228.333
219.23
212.309
207.656
206.393
205.326
203.785
200.579
194.974
186.376
174.479
162.8
152.213
145.835
147.783
158.241
156.814
153.496
147.105
135.65
114.954
99.302
83.387
76.9755
91.7193
110.75
109.956
107.559
100.15
86.1737
62.1118
25.2532
9.11085
21.7194
52.1399
61.4801
62.9345
62.4276
55.6557
41.7653
15.7212
9.04602
0.502212
24.5945
28.1712
17.0808
23.7396
25.6569
25.0051
21.7955
10.0211
3.11123
2.06686
2.56707
4.02085
0.53266
1.65259
1.77736
2.23573
1.64824
0.913716
1.36262
1.65264
1.46143
1.58401
-0.160993
-0.174684
-0.198652
-0.218453
-0.198092
-0.182075
0.0424013
0.397095
0.581715
0.447592
-0.224941
-0.267413
-0.291652
-0.289073
-0.275285
-0.268997
-0.235836
-0.151107
0.000261705
0.0530652
-0.313835
-0.333623
-0.349318
-0.34852
-0.342086
-0.329775
-0.297388
-0.259541
-0.225002
-0.0904937
-0.391281
-0.402046
-0.402751
-0.396876
-0.384196
-0.364335
-0.336289
-0.316267
-0.306429
-0.227634
-0.455989
-0.462849
-0.454765
-0.446922
-0.434925
-0.416258
-0.393618
-0.377674
-0.370494
-0.379645
-0.513159
-0.518681
-0.507451
-0.498631
-0.489852
-0.477698
-0.462887
-0.450901
-0.455376
-0.514459
-0.569109
-0.572141
-0.564175
-0.556474
-0.550518
-0.542777
-0.531173
-0.519379
-0.52641
-0.522642
-0.626312
-0.626751
-0.622438
-0.616975
-0.613283
-0.609183
-0.597818
-0.58511
-0.585447
-0.570018
-0.682813
-0.682994
-0.680751
-0.677379
-0.676667
-0.675797
-0.664889
-0.652914
-0.65712
-0.669088
-0.738638
-0.738655
-0.737742
-0.736105
-0.737828
-0.738336
-0.729528
-0.716045
-0.719052
-0.718652
-0.792925
-0.792929
-0.79265
-0.791015
-0.794097
-0.793926
-0.78868
-0.775226
-0.767856
-0.739268
349.316
347.916
345.226
341.232
336.089
330.155
324.183
318.907
314.975
313.151
300.822
299.224
296.425
292.117
286.418
279.583
272.605
266.545
261.858
260.108
252.654
251.116
248.022
243.142
236.472
227.279
217.264
210.056
204.098
202.312
205.066
203.486
200.17
194.385
185.685
173.385
161.224
149.573
141.244
142.381
158.006
156.538
153.117
146.583
135.546
115.756
98.4405
80.0792
69.4125
85.1087
110.539
109.717
107.144
98.7031
87.5041
62.0818
22.6612
10.5426
25.8948
45.1606
61.3284
62.7663
62.1935
55.3383
42.4199
14.0093
8.47311
3.01247
11.466
15.933
16.9823
23.7694
25.6611
24.9173
21.5177
6.59064
3.10244
2.21753
2.06348
3.14727
0.504828
1.63118
1.76497
2.21214
1.33001
1.06829
0.635303
1.41927
1.33197
1.36645
-0.16211
-0.180467
-0.20539
-0.244127
-0.309551
-0.507879
-0.344566
0.4283
0.612847
0.647208
-0.22392
-0.266046
-0.298471
-0.318936
-0.349548
-0.403407
-0.339087
-0.0489893
0.131187
0.100666
-0.312267
-0.331746
-0.350089
-0.360435
-0.37313
-0.371282
-0.299782
-0.179187
-0.11375
-0.122353
-0.388593
-0.402269
-0.404562
-0.400602
-0.386274
-0.360827
-0.315723
-0.268757
-0.284582
-0.24573
-0.453999
-0.461968
-0.455505
-0.44741
-0.42979
-0.402469
-0.375103
-0.37209
-0.401911
-0.451362
-0.512878
-0.516716
-0.506458
-0.497062
-0.484141
-0.469497
-0.456172
-0.457131
-0.470038
-0.488871
-0.568765
-0.571351
-0.562554
-0.554751
-0.546533
-0.540028
-0.531429
-0.522823
-0.512893
-0.442391
-0.625175
-0.626417
-0.62132
-0.616983
-0.611546
-0.609015
-0.601227
-0.586744
-0.572952
-0.454284
-0.681343
-0.681932
-0.679647
-0.677897
-0.674787
-0.674703
-0.667484
-0.654348
-0.650819
-0.589898
-0.737031
-0.73737
-0.736306
-0.735586
-0.735084
-0.735866
-0.729786
-0.718442
-0.72192
-0.734361
-0.791571
-0.791699
-0.791113
-0.79086
-0.791749
-0.792033
-0.788301
-0.780421
-0.784761
-0.829544
349.84
348.492
345.832
341.896
336.807
330.891
324.804
319.203
314.552
311.844
301.356
299.886
297.094
292.849
287.22
280.368
273.395
266.843
261.026
256.885
253.356
251.854
248.811
243.998
237.311
228.702
219.452
210.384
201.285
193.291
205.955
204.405
201.167
195.575
187.256
175.492
162.5
150.147
135.34
122.282
159.117
157.687
154.382
148.269
138.725
121.933
104.935
82.2775
62.5055
57.4399
111.981
111.159
108.722
102.034
90.7829
70.8568
39.0286
9.36332
7.03405
17.2361
63.2409
64.5522
63.9096
57.7916
48.4587
26.2916
5.34973
4.89993
3.80967
5.30555
18.3862
24.8703
26.4957
24.5556
20.4942
11.062
2.93464
2.96699
2.70402
3.25079
0.75451
1.9746
2.1519
2.27807
1.65902
-0.0899209
-0.147863
1.31186
1.33978
1.45696
-0.156751
-0.182728
-0.207729
-0.245308
-0.317955
-0.517898
-0.596493
0.145462
0.333314
0.175554
-0.225861
-0.266095
-0.303764
-0.341525
-0.390923
-0.444685
-0.43657
-0.243382
-0.0422109
-0.211241
-0.314182
-0.332133
-0.350883
-0.364431
-0.372877
-0.371962
-0.336105
-0.276434
-0.201693
-0.297741
-0.389307
-0.403824
-0.407095
-0.400833
-0.372065
-0.327012
-0.281405
-0.274457
-0.291804
-0.359999
-0.455301
-0.465732
-0.458386
-0.449711
-0.424946
-0.379472
-0.337299
-0.3354
-0.378731
-0.432049
-0.51442
-0.519614
-0.510054
-0.500036
-0.484616
-0.464272
-0.437426
-0.434326
-0.46136
-0.491818
-0.569174
-0.573085
-0.566955
-0.559311
-0.549131
-0.539964
-0.528811
-0.524295
-0.537411
-0.546718
-0.625168
-0.627822
-0.624985
-0.620242
-0.613756
-0.609307
-0.603882
-0.601121
-0.613107
-0.627207
-0.681669
-0.682891
-0.681438
-0.678765
-0.675523
-0.673293
-0.670506
-0.668413
-0.678442
-0.658838
-0.737436
-0.737872
-0.736975
-0.735642
-0.734101
-0.7329
-0.731127
-0.727175
-0.727836
-0.687388
-0.791924
-0.791961
-0.791291
-0.790596
-0.789801
-0.789101
-0.788317
-0.782868
-0.774843
-0.733237
351.157
349.9
347.379
343.66
338.867
333.318
327.411
321.824
316.947
314.611
302.767
301.376
298.759
294.826
289.609
283.494
276.62
270.039
263.747
260.157
254.988
253.561
250.705
246.338
240.248
232.679
223.863
213.931
204.121
197.8
207.91
206.448
203.44
198.351
190.998
181.309
169.031
153.02
137.523
122.312
161.492
160.143
157.082
151.543
143.122
130.538
113.468
92.3946
63.9206
37.0963
115.014
114.243
111.878
106.115
96.5938
81.5541
59.7971
29.3725
10.2316
5.43846
67.2604
68.2
67.5202
62.3633
53.9625
38.5467
15.9435
3.32976
4.01311
4.82477
21.7771
27.2376
28.7605
26.2473
20.8912
12.6291
5.39425
2.5188
2.71223
3.7563
1.51345
3.00025
3.30784
3.21941
2.54187
0.5921
0.0554475
0.620607
1.23368
1.81384
-0.149061
-0.174993
-0.195924
-0.211161
-0.252671
-0.362961
-0.407894
-0.148373
0.30123
0.359777
-0.232364
-0.268426
-0.306619
-0.3387
-0.356778
-0.320776
-0.304628
-0.248613
-0.041921
0.0114565
-0.31769
-0.333572
-0.34909
-0.364223
-0.362065
-0.314782
-0.276885
-0.28352
-0.24027
-0.228551
-0.389963
-0.404519
-0.408456
-0.402626
-0.376298
-0.332678
-0.306919
-0.316614
-0.31014
-0.323155
-0.456652
-0.467899
-0.459669
-0.452708
-0.43034
-0.397995
-0.378149
-0.379128
-0.384775
-0.39841
-0.515955
-0.522703
-0.511589
-0.504562
-0.493427
-0.477414
-0.462293
-0.458397
-0.472256
-0.489692
-0.570701
-0.575679
-0.572096
-0.565061
-0.556992
-0.54797
-0.539239
-0.539162
-0.567871
-0.59826
-0.626825
-0.630716
-0.631129
-0.625737
-0.619555
-0.613721
-0.610522
-0.615288
-0.649569
-0.744494
-0.684013
-0.685995
-0.686633
-0.6844
-0.679847
-0.676315
-0.675488
-0.680805
-0.711647
-0.788699
-0.739896
-0.740741
-0.740818
-0.739619
-0.737305
-0.735278
-0.734839
-0.737184
-0.756771
-0.790836
-0.794074
-0.794102
-0.793775
-0.793304
-0.792195
-0.791079
-0.790917
-0.790888
-0.802765
-0.8113
353.182
352.009
349.66
346.231
341.84
336.771
331.388
326.239
321.84
320.361
304.915
303.723
301.219
297.63
292.897
287.338
281.301
275.158
270.249
267.872
257.39
256.195
253.646
249.651
244.208
237.604
230.302
221.279
214.088
212.404
210.732
209.476
206.744
202.379
196.146
187.896
178.084
165.082
153.955
149.69
164.895
163.728
160.973
156.254
149.057
139.066
125.821
106.349
84.9649
66.1765
119.399
118.69
116.385
111.42
103.588
91.9111
75.2106
52.8797
31.7707
25.6086
73.2611
73.62
72.8208
68.3841
61.4548
49.7564
34.0292
17.3671
2.75688
5.07395
28.0137
31.7383
33.1021
30.3834
25.9873
17.9363
10.225
5.47501
2.18132
2.10712
3.34281
5.26482
5.88339
5.31219
4.3167
2.74648
0.8644
0.0828246
0.112203
0.555714
-0.169446
-0.205844
-0.218293
-0.243648
-0.264814
-0.282737
-0.298491
-0.306348
-0.179705
-0.0619899
-0.265847
-0.294058
-0.319384
-0.344682
-0.362507
-0.34453
-0.309969
-0.299298
-0.24039
-0.157807
-0.332817
-0.347162
-0.363274
-0.377936
-0.384467
-0.364112
-0.336085
-0.340852
-0.332654
-0.297421
-0.389328
-0.403433
-0.409406
-0.409493
-0.395855
-0.371335
-0.355069
-0.360772
-0.359849
-0.350771
-0.45547
-0.465782
-0.458025
-0.456225
-0.442636
-0.421416
-0.40723
-0.407675
-0.411959
-0.402844
-0.515578
-0.523874
-0.510658
-0.509558
-0.502563
-0.490818
-0.479075
-0.47694
-0.485989
-0.484202
-0.570589
-0.577584
-0.575767
-0.569889
-0.565159
-0.557717
-0.548908
-0.549727
-0.565628
-0.579522
-0.628629
-0.634668
-0.636231
-0.630414
-0.626717
-0.620687
-0.616388
-0.619217
-0.638571
-0.658121
-0.687928
-0.691609
-0.694209
-0.691552
-0.686916
-0.682354
-0.679449
-0.681088
-0.695981
-0.709877
-0.744821
-0.746311
-0.748345
-0.747156
-0.743909
-0.740353
-0.737756
-0.737327
-0.745005
-0.750786
-0.798325
-0.798411
-0.799146
-0.798756
-0.797029
-0.794634
-0.792854
-0.790991
-0.797213
-0.802951
355.586
354.51
352.396
349.293
345.375
340.906
336.236
331.831
328.25
327.06
307.456
306.386
304.249
300.938
296.737
291.933
286.876
281.749
278.026
276.412
260.214
259.134
256.852
253.356
248.664
243.137
237.129
230.713
226.2
224.455
214.043
212.93
210.517
206.582
201.38
194.868
187.494
179.052
172.857
171.653
168.872
167.848
165.434
161.423
155.44
147.738
138.627
128.153
117.692
112.827
124.627
123.875
121.61
117.23
110.97
102.303
91.4275
78.8832
65.5867
52.2675
80.4807
80.4594
79.2125
75.1684
69.3387
60.6392
49.7804
39.1959
30.9532
26.3506
37.0183
38.9369
39.4569
36.2157
32.2631
25.4552
17.6141
12.3065
9.59791
10.5563
7.56619
9.85757
10.7075
9.42147
8.00639
5.13399
2.43725
0.486917
-0.350142
-0.69058
-0.142863
-0.250821
-0.258222
-0.309442
-0.285874
-0.311378
-0.267048
-0.316409
-0.38334
-0.44088
-0.323924
-0.329266
-0.345797
-0.377918
-0.40032
-0.374052
-0.330501
-0.324509
-0.334225
-0.322517
-0.363449
-0.370865
-0.382589
-0.395138
-0.405987
-0.384696
-0.35397
-0.360253
-0.379071
-0.363628
-0.382739
-0.392907
-0.40343
-0.410736
-0.406774
-0.391048
-0.375127
-0.379852
-0.392663
-0.381883
-0.45579
-0.458885
-0.451811
-0.460017
-0.453855
-0.439303
-0.428352
-0.428295
-0.43355
-0.424044
-0.51821
-0.524444
-0.509292
-0.515984
-0.512697
-0.503576
-0.494066
-0.493251
-0.495711
-0.490073
-0.572071
-0.581657
-0.58013
-0.576924
-0.573037
-0.567221
-0.558939
-0.559095
-0.564488
-0.566027
-0.633144
-0.644498
-0.648526
-0.639467
-0.635676
-0.629776
-0.622888
-0.62356
-0.632306
-0.638875
-0.695756
-0.704463
-0.707932
-0.701922
-0.697137
-0.691112
-0.683956
-0.683976
-0.690611
-0.698071
-0.753432
-0.756238
-0.761419
-0.759542
-0.754452
-0.74887
-0.741898
-0.740272
-0.743903
-0.748111
-0.805648
-0.804788
-0.807743
-0.807353
-0.804624
-0.800238
-0.796214
-0.79428
-0.797277
-0.800052
358.09
357.107
355.195
352.437
349.003
345.118
341.136
337.465
334.66
333.367
310.127
309.111
307.153
304.279
300.615
296.512
292.29
288.135
285.143
283.798
263.193
262.202
260.147
257.139
253.084
248.472
243.636
238.757
235.497
233.947
217.557
216.517
214.292
210.763
206.435
201.223
195.601
189.675
185.912
184.502
173.15
172.185
169.942
166.617
161.466
155.348
148.773
141.628
137.052
134.484
130.164
129.37
126.922
122.758
117.577
110.843
103.164
95.2871
89.0309
84.0832
88.104
87.8389
85.7596
81.7679
76.3492
69.2161
61.1545
53.5066
48.0055
44.9282
47.233
46.9472
46.6192
43.7546
38.6133
32.0454
25.4792
20.2812
17.7185
16.5392
15.7549
18.3563
18.8803
16.5742
12.8813
7.83157
4.01126
2.15266
0.691281
0.0977637
0.954127
0.615566
0.991557
1.08059
0.359896
-0.321653
-0.28879
-0.253478
-0.304584
-0.318277
-0.393112
-0.368659
-0.368991
-0.393326
-0.437188
-0.405885
-0.348495
-0.33239
-0.337291
-0.346897
-0.382757
-0.380606
-0.39861
-0.427243
-0.443825
-0.395166
-0.357559
-0.3481
-0.363217
-0.370189
-0.351533
-0.369281
-0.393076
-0.410787
-0.41311
-0.400518
-0.386646
-0.384437
-0.397187
-0.395789
-0.473103
-0.458984
-0.448402
-0.464385
-0.464343
-0.452138
-0.444309
-0.442518
-0.445646
-0.442539
-0.532106
-0.533923
-0.511265
-0.520269
-0.521945
-0.514387
-0.506556
-0.505217
-0.506258
-0.503666
-0.583531
-0.59896
-0.587244
-0.582023
-0.581677
-0.577553
-0.568906
-0.567823
-0.569483
-0.568901
-0.644574
-0.667499
-0.668714
-0.65124
-0.645235
-0.640851
-0.630519
-0.628559
-0.6307
-0.631717
-0.70801
-0.7307
-0.735225
-0.717622
-0.709907
-0.701631
-0.68972
-0.686454
-0.687681
-0.689103
-0.766557
-0.774161
-0.785041
-0.775817
-0.767352
-0.755928
-0.746104
-0.742178
-0.742168
-0.742739
-0.815409
-0.810786
-0.825325
-0.821429
-0.813451
-0.805557
-0.799054
-0.795927
-0.795704
-0.795792
360.506
359.573
357.825
355.346
352.304
348.93
345.519
342.423
340.082
338.925
312.728
311.695
309.913
307.339
304.168
300.627
297.044
293.643
291.069
289.929
266.023
265.109
263.21
260.449
257.049
253.108
249.131
245.178
242.513
241.2
220.907
219.912
217.829
214.711
210.725
206.447
202.005
197.344
194.53
193.081
177.443
176.272
174.045
170.745
166.656