/*--------------------------------*- C++ -*----------------------------------*\
| =========                 |                                                 |
| \\      /  F ield         | OpenFOAM: The Open Source CFD Toolbox           |
|  \\    /   O peration     | Version:  2312                                  |
|   \\  /    A nd           | Website:  www.openfoam.com                      |
|    \\/     M anipulation  |                                                 |
\*---------------------------------------------------------------------------*/
FoamFile
{
    version     2.0;
    format      ascii;
    arch        "LSB;label=32;scalar=64";
    class       surfaceScalarField;
    location    "0.925";
    object      alphaPhi0.water;
}
// * * * * * * * * * * * * * * * * * * * * * * * * * * * * * * * * * * * * * //

dimensions      [0 3 -1 0 0 0 0];

oriented        oriented;

internalField   nonuniform List<scalar> 
22600
(
-2.04442e-07
4.51922e-07
-2.4748e-07
-2.96113e-07
3.78774e-07
-2.87103e-07
-3.40642e-07
3.34586e-07
-2.90056e-07
-3.719e-07
2.74718e-07
-2.4346e-07
-3.82614e-07
2.04349e-07
-1.93634e-07
-3.64449e-07
1.44125e-07
-1.6229e-07
-3.21205e-07
1.01228e-07
-1.44473e-07
-2.51835e-07
6.86909e-08
-1.38061e-07
-1.58263e-07
4.28429e-08
-1.36414e-07
2.28162e-08
-1.43768e-07
-2.62651e-07
1.03125e-06
-3.1668e-07
-3.96204e-07
8.79299e-07
-3.66972e-07
-4.67456e-07
8.07188e-07
-4.0135e-07
-5.07864e-07
6.64383e-07
-3.49258e-07
-5.14388e-07
4.7412e-07
-2.63246e-07
-4.77128e-07
3.14602e-07
-2.07736e-07
-4.04724e-07
2.07648e-07
-1.78824e-07
-3.05837e-07
1.34612e-07
-1.64808e-07
-1.80611e-07
6.88821e-08
-1.51265e-07
1.53227e-08
-1.48599e-07
-2.14025e-07
1.54417e-06
-2.98893e-07
-4.11937e-07
1.2866e-06
-2.09394e-07
-5.7608e-07
1.28787e-06
-3.16545e-07
-6.49844e-07
1.11196e-06
-3.73814e-07
-6.37085e-07
7.91414e-07
-3.30054e-07
-5.68596e-07
5.01421e-07
-2.55308e-07
-4.7691e-07
3.163e-07
-2.00337e-07
-3.76392e-07
2.00079e-07
-1.65986e-07
-2.43018e-07
5.91105e-08
-1.23602e-07
-1.39694e-07
-7.4165e-08
-1.19095e-07
1.93387e-06
-2.70599e-07
-4.43479e-07
1.53145e-06
7.9539e-08
-7.92783e-07
1.69767e-06
-6.04883e-08
-9.69202e-07
1.48722e-06
-1.98843e-07
-9.32762e-07
1.02586e-06
-2.70886e-07
-8.00534e-07
6.16318e-07
-2.47125e-07
-6.92471e-07
3.9904e-07
-1.90803e-07
-6.04096e-07
2.3237e-07
-1.20667e-07
-3.72088e-07
-1.72606e-07
-2.90845e-10
-5.93517e-07
9.36158e-08
-1.00587e-07
2.25072e-06
-2.16267e-07
-7.26425e-07
1.88128e-06
2.76001e-07
-1.35885e-06
2.12012e-06
2.09975e-07
-1.64475e-06
1.73455e-06
3.85749e-08
-1.56545e-06
1.02639e-06
-7.98236e-08
-1.27858e-06
4.52555e-07
-1.23106e-07
-1.00632e-06
2.5397e-07
-1.27192e-07
-7.52275e-07
6.38157e-08
-8.54921e-08
-3.29046e-07
-6.10039e-07
1.42032e-08
-9.8922e-07
1.77433e-08
-1.10602e-06
3.49293e-06
-5.10087e-07
-2.12126e-06
2.84222e-06
-2.00415e-07
-2.53612e-06
2.32889e-06
2.06082e-07
-2.49421e-06
1.5783e-06
1.1434e-07
-2.14789e-06
7.88614e-07
-1.08545e-07
-1.55108e-06
1.00449e-07
-2.44704e-07
-9.7924e-07
-3.45154e-08
-2.83355e-07
-4.91963e-07
-8.93562e-08
-3.34106e-07
-9.31422e-08
-5.47929e-07
-4.60966e-07
-6.95925e-07
-5.4236e-07
-2.13317e-06
3.75722e-06
-1.69191e-06
-2.56232e-06
2.63573e-06
-2.02826e-06
-2.7899e-06
1.43589e-06
-8.89166e-07
-2.69775e-06
8.84203e-07
-4.82453e-07
-2.34865e-06
5.13248e-07
-6.50817e-07
-1.77622e-06
7.00983e-08
-7.10121e-07
-1.11745e-06
-1.33517e-07
-5.84773e-07
-4.88126e-07
-1.06964e-07
-5.90858e-07
-2.301e-07
2.33789e-08
-8.30076e-07
1.03649e-07
-1.02301e-06
-9.47693e-07
2.99827e-07
-1.30454e-06
-1.0988e-06
1.11257e-07
-1.55541e-06
-8.9219e-07
-7.47891e-08
-9.61078e-07
-6.2704e-07
-2.95291e-08
-6.18709e-07
-5.23178e-07
1.12854e-09
-3.93403e-07
-5.40086e-07
2.27905e-09
-2.00583e-07
-7.22642e-07
-3.14097e-08
-1.25367e-07
-6.95333e-07
-1.84543e-08
-2.32985e-07
-6.80952e-07
3.91338e-08
-5.05523e-07
1.63547e-07
-9.05267e-07
-2.79019e-09
1.11825e-07
-2.35298e-07
1.05693e-08
1.87573e-08
-2.15753e-07
-3.78641e-09
-4.77635e-09
-1.04428e-07
-4.25987e-09
1.213e-09
-5.02588e-08
-3.93702e-09
4.28709e-10
-1.37431e-08
-6.00805e-09
1.57304e-11
4.97175e-10
-3.73272e-08
1.3774e-10
-1.23096e-09
-3.09559e-07
-6.89794e-11
-2.0628e-08
-3.21992e-07
-2.80608e-09
-9.22519e-08
-3.99636e-09
-1.89236e-07
2.76782e-08
5.00311e-08
-3.0476e-08
1.18306e-08
1.96182e-08
-3.78079e-08
3.93501e-09
-4.9686e-09
-9.55648e-09
2.05692e-09
-6.13547e-10
-2.35764e-09
8.41852e-10
-1.25481e-09
-5.60947e-10
2.67762e-10
-7.31899e-11
-9.18616e-11
5.58128e-11
3.93709e-11
1.60808e-10
-1.56641e-09
3.06027e-11
1.43832e-09
-1.31562e-08
-6.53391e-11
1.35799e-09
3.83201e-10
3.27037e-09
1.22508e-08
1.26856e-08
4.82557e-09
7.90594e-09
1.15737e-08
-1.42192e-09
1.56195e-09
-9.09658e-10
-1.80911e-11
1.94478e-10
1.34424e-10
1.80915e-10
7.75153e-11
-4.085e-11
4.78186e-11
1.52322e-10
1.25086e-10
1.55876e-11
5.55082e-11
2.92411e-11
2.26184e-11
2.59884e-12
3.65563e-12
3.16962e-11
-4.69144e-10
1.41364e-11
1.24736e-10
-1.47446e-12
5.39617e-10
2.99938e-09
2.19941e-09
3.34519e-09
4.51789e-09
3.40967e-09
2.63459e-09
4.34164e-10
5.60888e-11
9.83068e-10
7.06475e-11
2.23912e-11
1.75024e-10
3.38632e-10
9.40499e-11
6.11845e-11
1.78865e-10
1.87994e-10
6.43089e-11
5.71484e-11
8.92551e-11
5.76145e-11
2.17374e-12
1.19109e-11
1.80356e-11
-2.80143e-11
3.22684e-12
1.45764e-11
-2.63413e-11
2.59667e-11
5.22105e-10
2.49897e-10
6.44189e-10
1.46197e-09
2.91076e-10
8.15454e-10
1.23656e-10
-7.8576e-11
2.75018e-10
9.65289e-11
2.60386e-11
2.06943e-11
3.36992e-10
8.66574e-11
1.12891e-11
2.19247e-10
1.55318e-10
6.75704e-11
5.08585e-11
6.82382e-11
7.04106e-11
-9.07061e-12
1.98571e-11
2.00871e-11
-4.87973e-11
9.80751e-13
2.06542e-11
-6.1587e-10
1.12746e-10
6.85669e-11
-7.48653e-11
7.51749e-11
2.49858e-10
-1.75896e-10
1.15581e-10
1.22283e-10
-6.34666e-12
4.04819e-11
2.01673e-10
3.23134e-11
-8.50375e-12
3.40258e-10
2.15674e-10
-1.50506e-12
1.74434e-10
1.58841e-10
7.56669e-11
-6.83792e-12
2.71429e-11
7.87075e-11
-7.10166e-11
3.53679e-11
2.80388e-11
-1.0408e-09
-3.17089e-10
1.70863e-10
-9.36704e-10
4.34599e-10
1.49859e-11
2.38332e-10
4.87526e-12
4.13866e-11
1.38595e-10
2.38237e-11
7.23409e-11
3.97146e-11
-6.55794e-12
1.55352e-10
2.35212e-11
-2.76819e-12
2.64757e-10
2.07842e-10
-3.94006e-11
5.76339e-11
7.44136e-11
8.27521e-11
-1.2726e-11
3.91667e-11
3.29745e-11
-8.79174e-10
-5.27355e-12
1.9059e-10
-1.12957e-09
-6.59125e-10
4.53327e-10
-9.42521e-10
1.98014e-10
-1.08499e-11
3.61604e-10
6.8404e-12
1.01452e-11
2.04011e-10
-1.04594e-12
1.18076e-11
1.05092e-11
-2.38148e-12
5.8461e-11
3.79403e-11
-5.16273e-12
1.06208e-10
1.92067e-10
-9.7626e-12
2.13295e-12
4.74864e-11
6.7708e-11
-5.33151e-10
1.43209e-10
1.08971e-10
-1.21229e-09
-2.34844e-10
3.90094e-10
-1.37195e-09
-7.16248e-10
2.60975e-10
-1.45989e-10
4.13049e-11
-1.28199e-11
3.82243e-10
2.35097e-11
-1.22128e-12
4.1696e-11
-8.32191e-13
3.94488e-12
6.37689e-12
-1.79649e-12
3.70558e-11
4.41631e-11
-4.50432e-12
2.35262e-11
4.08184e-11
2.40021e-11
-1.94691e-10
6.35874e-11
6.83015e-11
-1.25219e-09
3.4334e-10
2.53149e-10
-1.21034e-09
-2.36284e-10
3.83825e-10
-3.28114e-10
-1.87484e-10
5.67265e-11
-1.22298e-10
5.02546e-12
-2.59581e-12
3.74347e-10
4.22919e-11
-8.47946e-13
1.14225e-11
-6.16855e-13
7.74334e-13
5.60789e-12
-1.16487e-12
4.10374e-12
7.77259e-12
-1.27084e-12
-3.50893e-12
1.51233e-11
1.06376e-11
-3.60977e-10
1.06e-10
6.21218e-11
-1.40745e-09
4.15942e-10
1.69061e-10
-6.8679e-10
-5.12643e-11
3.65795e-11
-3.62329e-10
-3.77581e-11
-3.73291e-12
-4.00649e-11
5.72444e-12
-4.83547e-12
8.50333e-11
2.55614e-11
-3.93828e-13
6.95857e-12
-2.33877e-13
-9.6545e-14
5.72714e-12
-7.0217e-13
1.98978e-13
6.59647e-12
5.69069e-13
-9.64945e-12
1.44616e-11
8.23704e-12
-7.03736e-10
3.951e-10
1.04122e-10
-1.40885e-09
4.36955e-10
3.91904e-11
-3.05435e-10
4.95584e-11
-5.12095e-11
-3.12972e-10
-1.10168e-11
-8.92533e-12
-5.70618e-11
1.80594e-11
-7.13869e-13
1.17322e-11
1.53788e-10
-3.02943e-13
3.72427e-13
5.88962e-12
-4.71249e-13
6.333e-14
5.53494e-12
-1.88047e-12
1.44976e-12
6.27036e-12
-1.82699e-11
1.69157e-11
2.98603e-11
-7.99969e-10
7.34431e-11
3.71918e-10
-9.88535e-10
-5.52765e-11
4.9529e-10
-5.83699e-10
-7.24214e-11
1.8071e-11
-7.09658e-10
-1.16106e-13
4.66133e-11
1.07628e-10
-8.57522e-11
-2.4357e-07
3.6842e-07
-3.7233e-07
-2.74625e-07
9.78826e-08
-3.53931e-07
-2.26314e-07
2.92851e-08
-3.67652e-07
-2.09297e-07
6.79767e-08
-3.28454e-07
-2.07802e-07
7.7878e-08
-2.73008e-07
-1.95012e-07
5.39787e-08
-2.29059e-07
-1.65702e-07
2.35154e-08
-1.97298e-07
-1.2247e-07
-1.8135e-09
-1.79479e-07
-7.31338e-08
-1.78124e-08
-1.67939e-07
-3.6947e-08
-1.69344e-07
-3.01869e-07
8.45463e-07
-4.91854e-07
-2.45309e-07
4.10057e-08
-3.66655e-07
-1.77426e-07
-3.59873e-08
-4.03961e-07
-2.20591e-07
1.94018e-07
-4.32134e-07
-2.67251e-07
2.3478e-07
-3.73487e-07
-2.719e-07
1.52337e-07
-3.01445e-07
-2.32841e-07
6.00601e-08
-2.54427e-07
-1.70168e-07
-7.52143e-09
-2.21774e-07
-9.55245e-08
-4.78955e-08
-1.95825e-07
-1.05331e-07
-1.79602e-07
-1.11928e-07
1.20178e-06
-5.43279e-07
4.27654e-08
-2.00375e-07
-1.22707e-07
2.37438e-08
-1.43807e-07
-1.89704e-07
-1.2563e-07
3.642e-07
-3.94622e-07
-2.42644e-07
4.76215e-07
-4.54475e-07
-2.6731e-07
3.07886e-07
-3.86192e-07
-2.24348e-07
1.19669e-07
-3.02908e-07
-1.63002e-07
6.91186e-09
-2.41766e-07
-9.29816e-08
-5.93988e-08
-1.82118e-07
-1.95085e-07
-1.17841e-07
1.04761e-07
1.43759e-06
-6.11176e-07
6.32801e-08
-1.86791e-07
1.07435e-07
-2.01835e-07
3.39094e-09
5.74294e-08
-4.14161e-07
6.16097e-07
-2.38414e-07
-4.84433e-07
7.2038e-07
-4.44779e-07
-4.33051e-07
4.59004e-07
-4.49625e-07
-3.63702e-07
2.02671e-07
-3.43154e-07
-3.20745e-07
6.5388e-08
-2.221e-07
-2.14951e-07
-8.24475e-08
-8.30363e-08
-4.2028e-07
5.26969e-08
4.92701e-08
1.87022e-06
-6.9817e-07
-5.44721e-07
7.17863e-07
-3.46613e-08
-1.12583e-06
6.95726e-07
9.87488e-08
-1.32295e-06
9.43951e-07
-9.21578e-08
-1.20571e-06
8.4304e-07
-3.19724e-07
-9.45634e-07
4.52971e-07
-3.77151e-07
-7.09523e-07
1.38627e-07
-2.99258e-07
-4.60194e-07
-1.00393e-07
-1.6904e-07
-1.39911e-07
-3.77705e-07
-1.08229e-08
-7.67638e-07
8.22646e-08
-7.79025e-07
3.78515e-06
-1.66167e-06
-1.96271e-06
2.58982e-06
-1.41215e-06
-2.456e-06
1.71283e-06
-5.12181e-07
-2.29856e-06
1.19402e-06
-2.93171e-07
-1.90883e-06
7.61816e-07
-4.17057e-07
-1.33884e-06
1.60856e-07
-5.22574e-07
-7.10556e-07
-2.10599e-07
-5.62414e-07
-5.73391e-08
-4.88621e-07
-5.99103e-07
3.99031e-07
-7.44731e-07
-5.5032e-07
-8.19699e-07
-4.57924e-07
-1.3249e-06
3.1127e-06
-3.21846e-06
-2.3287e-06
2.54263e-06
-3.25141e-06
-2.70662e-06
1.61856e-06
-2.03496e-06
-2.64283e-06
9.5151e-07
-1.34901e-06
-2.07946e-06
3.63161e-07
-1.22701e-06
-1.33306e-06
-7.84002e-08
-1.30231e-06
-5.45811e-07
-2.90575e-07
-1.29214e-06
1.13086e-07
-4.1693e-07
-1.29014e-06
3.63158e-07
-4.92242e-07
-1.31544e-06
-5.15121e-07
-1.28366e-06
-6.22761e-07
9.3446e-08
-1.62802e-06
-9.31023e-07
8.41298e-08
-1.69769e-06
-8.9752e-07
2.27174e-08
-1.3235e-06
-8.99849e-07
1.77542e-08
-1.00124e-06
-7.97994e-07
1.78522e-08
-8.81654e-07
-7.03353e-07
-7.84691e-09
-7.91098e-07
-6.71375e-07
-7.31424e-09
-8.11776e-07
-6.18961e-07
1.22326e-08
-8.87835e-07
-6.22919e-07
2.56259e-08
-1.27492e-06
-3.55316e-08
-1.83746e-06
-3.635e-08
2.94033e-08
-2.08486e-07
-4.52414e-08
1.85321e-08
-1.71976e-07
-3.83493e-08
8.17874e-09
-1.09975e-07
-1.86167e-08
3.02152e-09
-6.18409e-08
-1.24032e-08
6.57685e-10
-6.08709e-09
-2.17498e-08
7.49637e-11
-1.05328e-09
-9.31416e-08
1.41192e-09
-5.43552e-09
-2.24322e-07
-2.12696e-09
-7.55415e-08
-1.60175e-07
-1.29701e-08
-2.20744e-07
-4.47201e-09
-3.9692e-07
-1.4885e-09
1.48122e-09
-1.89077e-08
-6.43124e-09
-1.02818e-10
-2.12871e-08
-2.5449e-09
2.2715e-10
-7.36655e-09
-2.69494e-10
-3.67529e-10
-1.62351e-09
1.9984e-11
-1.05612e-10
-1.23174e-10
-1.55659e-12
-1.1765e-10
1.1969e-12
-2.42731e-10
3.78451e-11
1.59109e-09
-1.37536e-09
-6.40098e-12
6.88958e-10
-1.04736e-08
-7.17166e-10
3.66278e-10
-4.23512e-11
-7.58971e-10
4.38684e-09
-9.57467e-10
5.54526e-10
6.70794e-10
5.0129e-10
-1.468e-10
1.24102e-10
2.95068e-10
-9.47606e-12
7.0663e-11
-3.16055e-12
-2.0599e-13
1.59071e-10
-3.79458e-12
5.88502e-12
1.25867e-10
2.13506e-12
2.59608e-11
5.74606e-11
1.44611e-11
8.06745e-11
-1.88398e-11
-3.56467e-13
7.18992e-11
-7.79895e-10
-7.20873e-12
1.94251e-10
8.20457e-11
4.93514e-10
1.47736e-09
-1.49163e-10
2.17022e-10
1.06856e-09
6.47384e-10
4.93609e-11
1.69586e-10
4.91535e-10
-1.9091e-12
-8.06641e-12
2.15842e-11
3.51901e-12
5.37648e-11
-1.40305e-13
7.4398e-13
1.13429e-10
1.84191e-11
1.03778e-11
6.7389e-11
7.46669e-11
2.36365e-11
-1.47637e-12
2.05294e-11
3.67295e-11
-7.49051e-11
1.68056e-11
4.24088e-11
1.41058e-12
7.84426e-11
1.98038e-10
2.60719e-11
3.7331e-11
3.85524e-10
-4.54712e-11
2.62891e-11
1.15426e-10
3.46681e-14
8.41162e-12
1.31745e-11
1.98468e-12
-3.6368e-12
2.61434e-11
3.12248e-12
-2.29153e-12
1.29383e-10
5.97626e-11
1.35076e-11
6.60666e-11
8.09342e-11
1.22591e-11
-5.90734e-12
3.85239e-11
3.55446e-11
-3.37721e-11
2.72939e-11
2.36321e-11
3.05919e-11
1.64256e-11
1.03637e-11
1.63793e-11
2.4879e-11
3.37425e-11
4.1764e-12
2.93797e-11
9.43212e-12
4.78999e-12
5.36113e-12
8.48613e-12
3.95848e-12
-1.08995e-11
9.92689e-12
5.82583e-12
-4.01772e-12
9.04954e-11
1.42232e-10
2.3921e-12
5.38576e-12
5.28933e-11
5.16061e-11
-2.33576e-11
4.87369e-11
3.38644e-11
-4.57679e-11
9.04328e-11
2.37413e-11
8.96139e-11
-2.20549e-11
-4.29964e-12
2.08545e-10
2.57459e-11
5.37595e-13
1.48355e-11
4.6997e-12
2.70096e-12
4.04679e-12
-8.93606e-12
5.05665e-12
4.46246e-12
-6.7104e-12
5.4433e-11
1.71713e-10
-5.51482e-11
1.21234e-11
1.274e-10
1.27521e-11
-3.22623e-11
6.65343e-11
6.01173e-11
-1.57693e-10
1.84256e-10
-4.41375e-12
-1.50218e-10
1.48479e-10
1.22956e-11
7.97902e-12
1.41926e-13
-1.12608e-11
2.56366e-10
4.71102e-11
-1.41082e-12
4.45863e-12
-1.05109e-12
-8.40139e-14
3.97943e-12
-4.36835e-12
1.3648e-12
1.03876e-11
-9.91527e-12
3.48923e-12
1.05693e-10
-5.61229e-11
-3.68854e-11
8.63095e-11
8.08816e-11
-2.48311e-10
2.43054e-10
4.52803e-11
-2.77423e-10
2.55485e-10
8.17672e-12
-2.29941e-10
4.2448e-11
-4.81906e-12
-1.3523e-10
2.38515e-11
-3.77812e-12
1.59569e-10
2.02246e-11
-2.27565e-12
3.84499e-12
-1.98687e-12
-1.23472e-12
4.44023e-12
-3.83044e-12
-3.48005e-12
7.42864e-12
-7.09856e-12
4.00973e-12
8.99898e-12
8.18186e-12
-1.67915e-10
1.34587e-10
1.07679e-10
-4.22804e-10
3.57097e-10
2.07263e-11
-3.7503e-10
1.44091e-10
8.57975e-12
-4.30505e-10
-4.1457e-11
-1.33945e-13
-1.7645e-10
-4.00584e-12
-2.88679e-12
6.87599e-11
4.28142e-12
-2.7897e-12
4.64768e-12
-1.70904e-12
-1.99787e-12
5.28878e-12
-3.07057e-12
-5.78668e-13
7.48235e-12
-3.10975e-12
-6.03479e-12
1.91869e-11
5.97096e-12
-2.55488e-10
2.31138e-10
1.01057e-10
-2.45276e-10
2.06958e-10
-3.16717e-11
-3.14018e-10
2.12719e-11
-1.33382e-12
-3.1931e-10
-2.58162e-11
-2.50027e-12
-1.96794e-11
-1.27007e-11
-2.04815e-12
1.60401e-11
1.69131e-12
-2.85806e-12
5.51069e-12
-4.32625e-13
-2.9012e-12
5.88977e-12
-1.51617e-12
-4.40319e-12
9.58154e-12
-2.81238e-13
-8.61107e-11
8.58657e-11
1.44946e-11
-1.69525e-10
2.07177e-10
7.56562e-12
-3.55972e-11
6.13647e-11
-4.28364e-12
-9.76278e-11
1.59372e-11
-1.85888e-12
-1.01925e-10
1.20861e-13
-3.03546e-12
3.60811e-11
9.72954e-12
-1.2953e-12
4.2084e-12
2.47131e-11
-2.56494e-12
6.71111e-13
6.27133e-12
-4.12517e-12
-2.64266e-13
7.49208e-12
-1.80058e-11
2.24491e-12
3.37995e-11
-1.00445e-10
4.8568e-11
1.36194e-10
-3.78205e-11
1.12351e-12
1.08153e-10
-4.51972e-11
-5.23542e-12
3.2117e-11
-2.27148e-10
-4.14706e-12
1.28665e-10
-6.08671e-10
1.97611e-11
3.57622e-11
1.11691e-10
2.27686e-10
-2.4855e-07
3.12843e-07
-4.36624e-07
-2.88877e-07
7.41325e-09
-3.21017e-07
-2.17172e-07
-1.25952e-07
-3.13405e-07
-1.90623e-07
-4.91763e-08
-3.05828e-07
-1.93159e-07
1.00078e-08
-2.80479e-07
-1.86947e-07
7.38463e-09
-2.42655e-07
-1.60502e-07
-1.93239e-08
-2.0442e-07
-1.2141e-07
-4.52909e-08
-1.7328e-07
-7.74655e-08
-6.55182e-08
-1.46364e-07
-9.4697e-08
-1.33491e-07
-3.46755e-07
7.49041e-07
-5.81297e-07
-2.89827e-07
-1.1136e-07
-3.04811e-07
-1.52879e-07
-3.85688e-07
-2.81173e-07
-1.68801e-07
-1.15648e-07
-3.49741e-07
-2.30417e-07
6.09603e-08
-3.62825e-07
-2.489e-07
4.62761e-08
-3.21854e-07
-2.20328e-07
-3.37528e-08
-2.6857e-07
-1.61685e-07
-1.01973e-07
-2.23735e-07
-9.22246e-08
-1.48605e-07
-1.82199e-07
-2.11384e-07
-1.51515e-07
-2.59732e-07
1.18211e-06
-7.16615e-07
-2.32943e-08
-3.19329e-07
-1.51176e-07
1.31257e-07
-6.5907e-07
-7.08727e-08
3.24253e-08
-1.43264e-07
-2.68175e-07
-1.26204e-07
1.65686e-07
-4.00573e-07
-2.04834e-07
1.27565e-07
-3.8885e-07
-1.91069e-07
-3.03891e-08
-3.20037e-07
-1.29329e-07
-1.50228e-07
-2.55251e-07
-6.43957e-08
-1.99209e-07
-1.96448e-07
-2.72302e-07
-1.49141e-07
-8.07628e-08
1.6157e-06
-9.64007e-07
6.7186e-08
-1.72424e-07
-1.87419e-07
7.56838e-08
-5.80092e-07
-3.00466e-08
-4.66056e-08
-1.70364e-09
-2.57685e-07
-2.02011e-07
3.27161e-07
-4.50849e-07
-2.64611e-07
2.17963e-07
-4.77423e-07
-2.34496e-07
-2.52999e-08
-3.78357e-07
-1.7858e-07
-1.60917e-07
-2.67328e-07
-1.16263e-07
-1.78356e-07
-1.66206e-07
-2.91682e-07
-8.89028e-08
6.86224e-08
2.27988e-06
-1.43097e-06
-2.23433e-07
8.38395e-07
-7.53426e-07
-6.36711e-07
3.26461e-07
-3.94526e-07
-7.90758e-07
4.88859e-07
-4.28673e-07
-7.68226e-07
5.10636e-07
-5.2573e-07
-6.16536e-07
1.80822e-07
-4.917e-07
-4.02077e-07
-2.08702e-07
-3.30315e-07
-2.4576e-07
-2.88115e-07
-1.98159e-07
-1.34346e-07
-1.78563e-07
-1.2203e-07
-3.63924e-07
-6.1554e-08
-3.3657e-08
3.11653e-06
-2.46467e-06
-9.49595e-07
2.1582e-06
-2.10918e-06
-1.6785e-06
1.66252e-06
-1.28789e-06
-1.7784e-06
1.17607e-06
-8.80486e-07
-1.498e-06
5.61723e-07
-7.48544e-07
-1.0123e-06
-1.63658e-07
-6.63793e-07
-5.60685e-07
-6.12572e-07
-6.10166e-07
-1.74061e-07
-7.13104e-07
-5.60742e-07
1.26301e-07
-5.8495e-07
-4.44295e-07
-6.2473e-07
-3.16953e-07
-4.68581e-07
2.19636e-06
-4.11372e-06
-1.68017e-06
2.04682e-06
-3.86967e-06
-2.47659e-06
1.79907e-06
-2.7617e-06
-2.56095e-06
1.11225e-06
-1.98866e-06
-2.01645e-06
1.68907e-07
-1.61651e-06
-1.35578e-06
-5.26245e-07
-1.64204e-06
-7.85562e-07
-8.06097e-07
-1.66125e-06
-3.61045e-07
-8.62486e-07
-1.56444e-06
6.48851e-08
-9.88505e-07
-1.33797e-06
-9.21965e-07
-1.16596e-06
-3.10914e-07
1.20585e-07
-1.99569e-06
-7.14853e-07
7.6048e-08
-1.74529e-06
-8.93576e-07
3.20039e-08
-1.40652e-06
-1.06301e-06
3.90926e-08
-1.24248e-06
-1.24502e-06
2.49326e-09
-1.4404e-06
-1.20751e-06
-4.12525e-08
-1.66666e-06
-9.66877e-07
-9.60888e-08
-1.85052e-06
-6.874e-07
-2.04495e-07
-1.86099e-06
-4.56336e-07
-4.88183e-07
-1.8575e-06
-8.30292e-07
-1.98207e-06
-2.10206e-08
1.98836e-08
-1.02662e-07
-3.28991e-08
1.73815e-08
-1.16893e-07
-2.90808e-08
6.8721e-09
-9.9237e-08
-5.51355e-09
1.66923e-09
-5.294e-08
-2.84945e-09
-8.25067e-11
-7.52648e-09
-2.2022e-08
-8.47307e-11
-2.28654e-08
-1.05501e-07
4.12672e-11
-3.11225e-08
-1.03058e-07
-7.22986e-10
-1.33165e-07
-1.03755e-07
-2.29061e-09
-2.98663e-07
-2.13095e-08
-5.36434e-07
7.00744e-10
-5.45896e-11
-1.60713e-09
-1.07056e-09
-8.78685e-11
-3.33225e-09
-2.48248e-11
-2.36411e-10
-1.84443e-09
2.79679e-10
-2.82404e-12
-2.93801e-10
5.55657e-11
7.74731e-12
-2.8913e-11
6.10917e-12
2.21719e-11
-4.74864e-11
-4.92345e-11
2.78502e-11
1.67717e-09
-1.84911e-10
-4.48997e-11
1.20986e-10
-1.5566e-09
-5.31366e-11
-5.69052e-10
-3.23043e-10
-2.12938e-08
6.0177e-10
-5.66659e-11
5.07454e-11
3.28547e-10
-1.0037e-11
4.80222e-11
4.87007e-11
-7.31714e-12
4.82904e-11
2.26832e-11
-1.06345e-11
1.95733e-13
2.52363e-11
-1.7748e-12
7.39618e-12
3.85553e-11
1.471e-11
1.32107e-11
4.91504e-11
1.83728e-11
8.37309e-11
-2.60541e-11
6.97067e-12
8.48224e-11
-1.49633e-10
1.36067e-11
1.36686e-10
-1.90573e-12
7.45836e-11
9.7118e-11
2.52164e-11
1.45599e-11
6.91471e-11
3.86506e-11
1.34998e-11
1.80417e-11
4.00644e-12
-3.22382e-13
1.0997e-11
-6.3994e-12
-4.3392e-12
1.17439e-11
-8.16888e-13
1.27456e-13
1.73358e-11
1.03851e-11
3.65593e-12
2.52845e-11
1.74762e-11
9.70341e-12
-2.15175e-12
6.25766e-12
3.4633e-11
-5.54261e-11
2.04787e-11
4.21956e-11
1.95008e-11
1.30264e-11
8.43677e-12
4.62222e-11
3.42114e-12
3.24705e-11
4.91392e-11
-3.9056e-12
2.52045e-11
2.06979e-11
1.10568e-12
4.67833e-12
-3.29189e-12
-8.40879e-12
7.76164e-12
1.3099e-12
-2.86007e-12
9.96084e-12
2.34054e-11
1.31852e-12
2.16473e-11
4.32813e-11
2.92925e-12
1.24472e-12
2.73125e-11
1.23898e-11
-2.01194e-11
2.66248e-11
2.66096e-11
2.4483e-11
1.63661e-11
2.05864e-12
3.73714e-11
2.23838e-12
3.43131e-11
5.21419e-11
9.56846e-11
2.7274e-11
2.30535e-11
-1.4717e-11
5.84965e-12
1.73829e-12
-1.74692e-11
7.07218e-12
5.95044e-12
-6.8899e-12
4.59719e-11
1.58496e-10
1.23802e-12
2.07104e-11
6.46594e-11
7.3207e-11
-3.5765e-12
3.22782e-11
4.13862e-11
-2.88769e-11
3.66043e-11
2.72952e-11
4.32851e-11
-4.43777e-12
-1.05046e-11
1.2358e-10
9.12715e-11
-3.15511e-12
9.15146e-12
4.04831e-11
1.03698e-13
4.77491e-12
-1.54606e-11
-1.67967e-12
2.8427e-12
-6.95753e-12
-1.71077e-11
9.40615e-11
-4.0217e-11
1.01296e-11
1.54787e-10
4.47535e-11
-1.91529e-12
4.60558e-11
9.02074e-11
-1.29874e-11
4.71459e-11
1.30871e-11
-2.06483e-11
3.66954e-11
8.11689e-12
2.51452e-11
-3.1892e-12
-1.71489e-11
7.51572e-11
9.71316e-11
-6.79599e-12
2.82367e-12
-7.17015e-12
-2.47264e-12
4.30431e-12
-9.17919e-12
-2.6267e-11
9.2343e-12
7.11167e-13
-5.59325e-11
9.89209e-11
-4.61013e-11
-1.93485e-11
1.347e-10
1.16533e-10
-2.11909e-11
6.79794e-11
6.56197e-11
-1.88115e-11
3.96343e-11
8.21356e-12
-1.62204e-11
2.25456e-11
-9.75228e-13
1.87116e-11
-1.75717e-12
-5.16954e-12
6.13465e-12
2.06154e-11
-5.73731e-12
3.3995e-12
-2.52697e-12
-2.66528e-12
3.42527e-12
-6.74905e-12
-2.01271e-11
8.16333e-12
-6.85e-13
-6.55018e-11
4.24844e-11
-1.13572e-11
-6.49443e-11
1.0505e-10
1.01737e-10
-2.63224e-11
8.52754e-11
1.03357e-11
-1.5069e-11
2.58961e-11
6.98982e-12
-8.59443e-12
1.42314e-11
5.33213e-13
1.23421e-11
-3.8914e-12
-3.23668e-12
8.44441e-12
3.79921e-12
-5.24676e-12
4.70491e-12
-2.29646e-12
-5.36587e-13
5.10062e-12
-1.1397e-11
-1.06004e-13
6.47078e-12
-4.71661e-12
-4.95469e-11
9.47458e-12
-2.59036e-12
-5.16703e-11
4.52564e-11
1.97455e-11
-1.40159e-11
5.20797e-11
1.24122e-11
-8.83905e-12
1.51368e-11
2.2594e-12
-6.77439e-12
9.28943e-12
-9.21105e-13
2.80178e-11
-3.03126e-12
-2.44617e-12
8.70216e-12
3.61966e-12
-4.05862e-12
5.18759e-12
5.05454e-13
-4.34428e-12
8.10385e-12
-4.48321e-12
-4.3137e-12
1.21887e-11
-7.93749e-12
-2.87445e-11
3.15202e-11
-6.68918e-13
-1.93908e-11
3.30054e-11
2.99014e-13
-5.6071e-12
2.28338e-11
-3.99094e-13
-6.19449e-12
1.40177e-11
-2.13273e-12
-1.04194e-11
1.13566e-11
-2.57182e-12
3.17775e-11
4.81071e-12
-1.97564e-12
5.11529e-12
9.67226e-12
-4.50739e-12
2.06421e-12
6.17991e-12
-8.90183e-12
-5.83996e-13
1.26555e-11
-1.70738e-11
-2.96339e-12
3.61863e-11
-1.77602e-11
-2.66072e-12
6.13704e-11
-8.45436e-12
-7.47114e-12
3.84974e-11
-5.52453e-12
-1.32767e-11
2.70023e-11
-1.03776e-11
-8.52641e-12
2.08739e-11
-4.84496e-11
1.33355e-12
6.72313e-11
3.02062e-11
1.56185e-10
-2.01253e-07
2.41135e-07
-4.76506e-07
-2.50699e-07
4.19851e-08
-3.13557e-07
-2.08716e-07
-5.91089e-08
-2.96279e-07
-1.87404e-07
-3.27524e-08
-2.94387e-07
-1.85452e-07
-5.21578e-09
-2.77215e-07
-1.77195e-07
-9.94508e-09
-2.40968e-07
-1.51239e-07
-3.14654e-08
-1.98911e-07
-1.1277e-07
-5.11657e-08
-1.60584e-07
-7.33229e-08
-6.77e-08
-1.18111e-07
-8.83226e-08
-9.44856e-08
-3.00216e-07
5.90812e-07
-6.30758e-07
-3.35716e-07
1.16368e-07
-3.43694e-07
-2.37093e-07
-1.45056e-07
-2.93848e-07
-2.187e-07
-6.24016e-08
-3.38486e-07
-2.4184e-07
9.58243e-09
-3.54482e-07
-2.41171e-07
-1.40479e-08
-3.1842e-07
-2.09198e-07
-7.09672e-08
-2.61042e-07
-1.46069e-07
-1.31203e-07
-2.06826e-07
-7.62773e-08
-1.76934e-07
-1.42756e-07
-2.16124e-07
-9.40096e-08
-3.20142e-07
9.93863e-07
-7.99523e-07
-2.56346e-07
2.00494e-07
-2.99098e-07
-9.60452e-08
-2.20209e-07
-1.56021e-07
-9.95523e-08
-6.51298e-08
-2.6194e-07
-1.79836e-07
5.50011e-08
-3.65707e-07
-2.18123e-07
-4.00964e-09
-3.60602e-07
-1.95175e-07
-1.15697e-07
-2.98255e-07
-1.35116e-07
-2.12102e-07
-2.34411e-07
-6.72848e-08
-2.61237e-07
-1.79977e-07
-2.9455e-07
-1.5408e-07
-1.87765e-07
1.37478e-06
-1.15716e-06
-8.9003e-08
4.46824e-07
-5.32511e-07
-9.93739e-09
-7.07881e-08
-2.58532e-07
-5.74063e-08
4.63681e-08
-3.21714e-07
-1.65216e-07
1.38137e-07
-4.26175e-07
-2.18615e-07
1.31939e-08
-4.41228e-07
-2.08264e-07
-1.38495e-07
-3.6591e-07
-1.6314e-07
-2.5563e-07
-2.68925e-07
-1.05836e-07
-2.8762e-07
-1.97127e-07
-3.0635e-07
-2.1906e-07
-3.48516e-08
1.82392e-06
-1.84525e-06
-1.37078e-07
9.9402e-07
-1.19839e-06
-3.19605e-07
5.0897e-07
-7.9176e-07
-4.41546e-07
4.33205e-07
-6.9357e-07
-4.43279e-07
2.45467e-07
-6.31328e-07
-3.16498e-07
-1.01094e-07
-5.04193e-07
-1.91759e-07
-2.32271e-07
-3.61278e-07
-1.83796e-07
-1.84676e-07
-2.77076e-07
-1.98504e-07
-1.27381e-07
-2.67559e-07
-2.51933e-07
-3.27572e-07
5.03677e-08
2.00211e-06
-2.69323e-06
-5.61951e-07
1.55625e-06
-2.0591e-06
-1.14352e-06
1.37028e-06
-1.56763e-06
-1.28611e-06
9.3305e-07
-1.23774e-06
-1.04177e-06
1.9872e-07
-9.46134e-07
-6.55972e-07
-3.88713e-07
-7.61977e-07
-3.59873e-07
-5.18635e-07
-6.19902e-07
-1.88131e-07
-4.57649e-07
-4.59512e-07
-8.3015e-08
-3.62961e-07
-3.13828e-07
-4.5565e-07
-3.37519e-07
-1.42921e-07
1.02628e-06
-3.97321e-06
-1.28771e-06
1.35131e-06
-3.58077e-06
-2.12891e-06
1.43737e-06
-2.81622e-06
-2.2307e-06
7.52701e-07
-2.15573e-06
-1.83821e-06
-1.40839e-07
-1.78052e-06
-1.37391e-06
-7.33247e-07
-1.76359e-06
-9.58483e-07
-9.35301e-07
-1.66011e-06
-5.02464e-07
-1.1458e-06
-1.33229e-06
-1.08505e-07
-1.14613e-06
-9.487e-07
-1.05733e-06
-8.23841e-07
-3.0237e-07
9.25589e-08
-2.66303e-06
-5.88127e-07
1.07488e-07
-2.11546e-06
-8.12744e-07
8.90571e-08
-1.53688e-06
-1.23053e-06
5.22618e-08
-1.53281e-06
-1.70851e-06
-6.41248e-08
-1.89841e-06
-1.90934e-06
-1.99636e-07
-2.19087e-06
-1.67867e-06
-5.35074e-07
-2.30185e-06
-1.16386e-06
-9.57616e-07
-2.2917e-06
-5.20626e-07
-1.45242e-06
-1.86269e-06
-1.74211e-06
-1.54758e-06
-1.14212e-08
1.62625e-09
-1.78645e-09
-1.8793e-08
3.05085e-09
-2.76886e-09
-1.2823e-08
2.58986e-09
-2.64469e-08
-4.32332e-09
2.94957e-10
-1.34741e-08
-2.60578e-08
-8.9526e-10
-4.92644e-08
-1.13628e-07
2.40896e-10
-1.34639e-07
-1.9716e-07
-2.03101e-09
-1.97576e-07
-2.60856e-07
-1.40607e-09
-4.60688e-07
-1.79299e-07
-3.42848e-08
-9.22946e-07
-2.05809e-07
-1.10566e-06
1.00512e-10
-5.22283e-11
-4.10639e-13
-1.65036e-10
-3.77816e-11
-1.26642e-11
6.76913e-10
-6.69406e-11
-2.29167e-11
6.13676e-10
1.71976e-11
-1.30108e-11
3.32199e-10
6.37384e-11
-7.26604e-10
5.26818e-10
7.71506e-11
-3.26539e-11
-1.92845e-11
-2.29047e-11
1.97807e-10
-1.42224e-09
-2.08388e-11
1.18433e-10
-1.66582e-08
-1.33433e-10
-1.94931e-08
-9.45435e-11
-2.29696e-07
7.56372e-12
-8.89914e-12
4.19862e-12
1.85834e-11
-6.2246e-12
7.3143e-12
7.95154e-12
-9.38002e-12
7.48388e-13
2.1822e-11
-7.5719e-12
2.81815e-12
6.47013e-11
8.21965e-12
1.31572e-11
1.07329e-10
3.179e-11
1.76008e-11
6.72799e-11
3.58773e-11
6.91734e-11
-7.09843e-13
9.16871e-12
9.16803e-11
-1.08332e-11
-2.61598e-13
2.37602e-11
-8.39718e-12
-1.09837e-12
1.12358e-13
5.36396e-12
-1.62644e-13
3.51393e-12
3.29055e-12
1.51167e-13
7.33151e-12
-1.14735e-11
-1.88753e-12
9.85213e-12
-1.27592e-11
-8.52177e-12
1.18905e-11
1.74019e-12
3.14389e-13
1.96996e-11
1.97409e-11
2.4283e-12
2.46826e-11
1.06691e-11
1.21785e-11
1.09713e-11
1.42871e-11
1.40279e-11
-2.178e-11
2.82516e-11
1.8802e-11
3.74719e-11
9.25967e-12
8.17858e-13
8.32807e-12
-4.74108e-13
2.00654e-11
3.02927e-11
4.37949e-13
4.43305e-11
-3.60545e-11
-1.63775e-11
4.44316e-12
-1.06068e-11
4.779e-13
6.46605e-12
3.56306e-12
-3.67534e-12
9.57941e-12
1.55823e-11
-1.77344e-12
3.71506e-11
1.5581e-10
2.06972e-11
2.31459e-11
5.10825e-11
3.18617e-11
-1.58557e-11
2.97397e-11
2.55716e-11
6.12284e-11
3.32172e-11
6.37555e-12
7.66842e-11
4.80047e-13
3.79663e-11
5.13761e-11
6.00199e-11
3.17288e-11
-1.46761e-11
-5.79642e-11
-1.74548e-13
-1.50459e-12
-1.44261e-11
3.12754e-12
5.44969e-12
-3.51488e-12
3.89612e-11
9.50117e-11
-4.56248e-12
3.80975e-11
1.95846e-10
9.77822e-11
1.05187e-11
4.60624e-11
8.77024e-11
-8.36901e-12
3.16473e-11
4.48889e-11
5.88179e-11
2.56875e-11
-2.81808e-11
1.32433e-10
9.20606e-11
-5.15569e-11
3.11321e-11
1.12723e-10
-1.36101e-11
1.46902e-12
-8.96603e-11
-4.28417e-12
5.77287e-13
-1.61552e-11
-4.41144e-11
1.69927e-11
-1.26955e-11
6.88068e-12
1.34017e-10
1.11325e-11
1.07466e-11
9.497e-11
1.39974e-10
1.76994e-12
2.4893e-11
5.60125e-11
-1.1149e-11
2.41212e-11
3.85621e-11
6.04346e-11
1.22088e-11
-5.73398e-11
8.44193e-11
2.21073e-10
-7.25441e-11
4.1867e-12
-1.96559e-11
-2.21804e-11
3.77597e-12
-1.03711e-10
-1.09842e-12
4.48809e-12
-2.04224e-11
-1.00391e-10
1.91243e-11
2.30201e-12
-1.14268e-11
1.28264e-10
4.87702e-11
3.93286e-13
2.29136e-11
1.00002e-10
-2.57786e-12
1.30581e-11
1.89479e-11
-1.04225e-11
1.88615e-11
2.3104e-11
1.73368e-11
-2.29829e-12
-1.63545e-11
1.4025e-11
9.22034e-11
-3.63316e-11
-2.89236e-13
-1.91684e-11
-1.97735e-11
1.63997e-12
-5.86758e-11
-1.04115e-11
4.93916e-12
-1.12192e-11
-4.3919e-11
9.33178e-12
-1.08426e-11
-6.89415e-12
2.26023e-11
3.47475e-12
-1.70299e-12
1.61417e-11
7.84498e-12
-3.066e-12
1.35131e-11
5.42562e-12
-3.05408e-12
1.50767e-11
2.52477e-12
1.38033e-11
-3.45498e-12
-5.09161e-12
7.43183e-12
1.55119e-11
-1.91349e-11
3.78657e-12
-1.46229e-12
-1.70947e-11
-7.42001e-14
-6.17274e-12
-1.23667e-11
6.21497e-12
-6.51818e-12
-1.48345e-11
1.91924e-11
-7.40526e-12
-3.67508e-12
3.18332e-11
-3.37873e-12
-5.52039e-13
2.34157e-11
2.65066e-14
-1.63452e-12
1.42755e-11
1.89801e-13
-9.88459e-13
1.39541e-11
-2.43317e-12
1.04752e-11
-9.11617e-12
-1.83509e-12
6.2748e-12
6.56952e-12
-5.10587e-12
5.20997e-12
2.09245e-12
-1.65355e-12
5.5016e-12
-4.10088e-12
-2.95034e-11
1.19685e-11
-9.46623e-12
-3.32141e-11
6.42465e-11
-5.70729e-11
-6.58041e-12
1.29681e-10
-1.09534e-10
1.10169e-14
7.48458e-11
-4.52358e-11
-8.85608e-14
2.22399e-11
-1.19861e-11
2.37503e-12
1.82971e-11
-1.06766e-11
1.09773e-11
-1.32253e-12
-9.83804e-13
5.64076e-12
6.61719e-12
-3.4059e-12
3.88848e-12
5.70915e-12
-5.80766e-12
-6.82629e-13
7.88624e-12
-1.71183e-11
-6.15342e-12
9.71359e-12
-7.33824e-11
-5.99362e-11
8.17217e-11
-3.37271e-11
-1.56416e-10
3.16824e-10
-5.03304e-12
-1.3823e-10
3.3294e-10
-6.51608e-13
-3.96347e-11
8.41111e-11
9.58929e-13
6.97517e-13
1.76708e-11
8.28146e-12
3.31596e-11
-1.51039e-07
1.61751e-07
-4.87219e-07
-1.95183e-07
4.38457e-08
-3.13259e-07
-1.8092e-07
-1.12248e-08
-2.99318e-07
-1.68139e-07
-1.54203e-08
-2.91748e-07
-1.62347e-07
-1.58313e-08