/*--------------------------------*- C++ -*----------------------------------*\
| =========                 |                                                 |
| \\      /  F ield         | OpenFOAM: The Open Source CFD Toolbox           |
|  \\    /   O peration     | Version:  2312                                  |
|   \\  /    A nd           | Website:  www.openfoam.com                      |
|    \\/     M anipulation  |                                                 |
\*---------------------------------------------------------------------------*/
FoamFile
{
    version     2.0;
    format      ascii;
    arch        "LSB;label=32;scalar=64";
    class       surfaceScalarField;
    location    "0.49";
    object      phi;
}
// * * * * * * * * * * * * * * * * * * * * * * * * * * * * * * * * * * * * * //

dimensions      [0 3 -1 0 0 0 0];

oriented        oriented;

internalField   nonuniform List<scalar> 
22600
(
-2.67185e-08
5.65114e-08
-2.97929e-08
-4.22746e-08
3.58925e-08
-2.03364e-08
-6.54663e-08
4.63205e-08
-2.31288e-08
-9.03391e-08
4.98616e-08
-2.49888e-08
-1.09755e-07
4.64431e-08
-2.70271e-08
-1.17508e-07
4.02038e-08
-3.24507e-08
-1.08181e-07
3.17046e-08
-4.10317e-08
-7.80536e-08
2.26082e-08
-5.27358e-08
-3.06632e-08
1.53756e-08
-6.2766e-08
1.11642e-08
-7.21088e-08
-6.74659e-08
1.94794e-07
-7.08166e-08
-1.22797e-07
1.45177e-07
-5.39536e-08
-1.67989e-07
1.48975e-07
-5.74632e-08
-2.01477e-07
1.40879e-07
-5.75283e-08
-2.17699e-07
1.20855e-07
-5.8191e-08
-2.11843e-07
9.77569e-08
-6.34092e-08
-1.81558e-07
7.25072e-08
-7.10872e-08
-1.27028e-07
4.90905e-08
-8.10122e-08
-5.39556e-08
3.13235e-08
-8.90204e-08
1.99004e-08
-9.60018e-08
-6.24553e-08
3.21724e-07
-6.4475e-08
-1.12138e-07
2.42534e-07
-4.7674e-08
-1.55116e-07
2.40074e-07
-4.81208e-08
-1.94299e-07
2.23972e-07
-4.39103e-08
-2.16872e-07
1.83445e-07
-4.00171e-08
-2.17642e-07
1.38427e-07
-3.99001e-08
-1.92614e-07
9.19952e-08
-4.45161e-08
-1.38498e-07
4.92607e-08
-5.4286e-08
-6.10586e-08
1.73019e-08
-6.34179e-08
-4.5547e-09
-7.025e-08
-7.35233e-08
4.67761e-07
-7.25134e-08
-1.45188e-07
3.66108e-07
-5.19103e-08
-1.86261e-07
3.36424e-07
-5.52761e-08
-2.26802e-07
3.01113e-07
-3.66006e-08
-2.56381e-07
2.32213e-07
-1.91882e-08
-2.62875e-07
1.51017e-07
-6.09537e-09
-2.35221e-07
6.07728e-08
3.56821e-09
-1.6891e-07
-2.30195e-08
5.96937e-09
-7.73674e-08
-8.24413e-08
8.20077e-09
-1.24755e-07
9.63279e-09
2.50923e-08
4.08867e-07
3.38018e-08
-7.8702e-08
3.84787e-07
8.51155e-08
-1.63674e-07
4.29653e-07
-8.2571e-09
-2.36252e-07
3.76302e-07
-2.61122e-09
-2.92342e-07
2.50089e-07
3.82132e-08
-3.17646e-07
9.27947e-08
8.35253e-08
-3.05032e-07
-8.27229e-08
1.30882e-07
-2.32507e-07
-2.78305e-07
1.82761e-07
-1.14013e-07
-4.27379e-07
2.26443e-07
-5.13484e-07
2.46452e-07
2.00344e-07
3.76484e-08
1.70874e-07
-2.33933e-08
2.90249e-07
3.18276e-07
-2.92182e-07
4.89901e-07
2.08541e-07
-4.82744e-07
3.91355e-07
1.7551e-07
-6.28795e-07
1.31969e-07
2.64171e-07
-7.01976e-07
-2.46408e-07
4.12385e-07
-6.48118e-07
-6.74002e-07
5.37421e-07
-4.98326e-07
-1.0284e-06
6.00304e-07
-2.7081e-07
-1.2788e-06
6.23906e-07
-1.41075e-06
6.37728e-07
2.81964e-07
-4.77931e-07
2.33616e-07
-1.09545e-08
1.65149e-07
4.18018e-07
-4.61397e-07
4.98661e-07
4.41682e-07
-8.53819e-07
3.06998e-07
4.76778e-07
-1.12918e-06
-1.85149e-07
5.92475e-07
-1.17799e-06
-9.04369e-07
7.06779e-07
-1.05011e-06
-1.50277e-06
7.00883e-07
-7.79566e-07
-1.9242e-06
6.25257e-07
-4.08474e-07
-2.22169e-06
5.71795e-07
-2.38896e-06
5.66814e-07
2.40704e-09
-5.11166e-07
3.08281e-08
-3.99497e-07
3.59436e-07
2.07617e-07
-9.5553e-07
6.77038e-07
3.77655e-07
-1.40478e-06
3.8329e-07
3.72956e-07
-1.69314e-06
-1.64239e-07
2.67456e-07
-1.81338e-06
-8.33705e-07
4.95747e-08
-1.62241e-06
-1.56092e-06
-1.32822e-07
-1.16753e-06
-2.19093e-06
-1.8815e-07
-5.7867e-07
-2.6457e-06
-1.64844e-07
-2.88121e-06
-1.33758e-07
-4.89879e-07
3.44416e-07
-3.65703e-07
-1.36572e-06
1.31426e-06
-7.89911e-08
-2.11068e-06
1.58458e-06
-1.62576e-07
-2.42467e-06
1.15932e-06
-4.62036e-07
-2.42564e-06
5.68603e-07
-7.31871e-07
-2.14549e-06
-2.86217e-07
-8.27638e-07
-1.76164e-06
-1.23933e-06
-7.05446e-07
-1.20252e-06
-2.23509e-06
-5.14966e-07
-5.61395e-07
-2.91075e-06
-3.76073e-07
-3.18231e-06
-3.44093e-07
-6.9678e-07
1.59876e-06
-5.57564e-07
-1.47897e-06
2.43796e-06
-3.41504e-07
-1.20004e-06
2.00421e-06
-6.98566e-07
1.85256e-08
9.56654e-07
-1.0159e-06
3.9252e-06
-2.37607e-06
-9.61996e-07
2.67833e-06
1.69551e-06
-7.34856e-07
1.14106e-06
-3.41444e-07
6.39379e-07
3.1191e-07
-2.11571e-06
7.09776e-07
5.01655e-08
-3.23635e-06
5.87342e-07
-3.46023e-06
4.1984e-07
-6.1194e-07
2.67901e-06
-4.6831e-07
-2.9191e-07
2.845e-06
-7.27068e-07
4.92046e-06
-2.10902e-06
-1.09914e-06
3.07154e-06
2.77951e-06
2.60656e-08
-8.56609e-07
1.27992e-06
2.7216e-07
-1.62366e-06
3.71506e-06
-1.25249e-06
-1.2287e-06
1.80398e-06
-2.54038e-06
-7.07428e-07
6.50595e-07
-3.28758e-06
-3.1229e-07
-1.2783e-07
-3.50365e-06
-5.16839e-07
-3.21179e-06
-6.01384e-08
2.61748e-06
1.21665e-07
2.00411e-06
9.79914e-07
-1.99162e-07
2.87471e-06
-2.81092e-06
-1.68696e-07
-6.09066e-07
4.66002e-06
1.60326e-06
-4.19552e-06
5.49587e-06
-6.29501e-07
-3.2716e-06
5.8989e-06
-3.10776e-06
-2.51845e-06
5.00728e-06
-3.95645e-06
-1.32848e-06
4.33089e-06
-4.87027e-06
-2.75722e-07
3.4811e-06
-4.66168e-06
2.63449e-06
-3.67154e-06
2.17806e-06
-1.73432e-06
2.17375e-06
1.13324e-05
-1.00225e-05
1.84799e-06
3.27324e-06
4.80591e-06
4.42358e-07
-3.04392e-06
9.87495e-06
1.10224e-06
-4.28459e-06
7.87787e-06
-1.14133e-06
-3.413e-06
6.5599e-06
-1.53259e-06
-2.65184e-06
6.20392e-06
-1.95779e-06
-1.11606e-06
5.67701e-06
-2.8819e-06
2.39427e-07
4.80879e-06
-2.68319e-06
3.85317e-06
-1.78566e-06
3.96309e-07
-2.56728e-06
4.36644e-07
-1.56208e-06
-3.53352e-06
-4.53054e-06
-3.47756e-06
8.51648e-06
-1.79509e-06
-5.76575e-06
1.16254e-05
5.37759e-07
-4.81219e-06
6.26242e-06
6.61889e-07
-3.66545e-06
4.02891e-06
1.38426e-06
-2.57335e-06
4.9992e-06
1.12622e-07
-1.0706e-06
5.18218e-06
-1.00793e-06
3.83867e-07
4.9171e-06
-1.56278e-06
4.3159e-06
-1.15531e-06
-1.34119e-06
-7.86972e-07
-4.39115e-07
-5.1029e-06
7.05389e-06
-6.82571e-06
-6.23516e-06
1.2472e-05
-2.82329e-06
-6.06825e-06
1.16243e-05
-1.65815e-07
-5.01771e-06
3.2885e-06
1.92337e-06
-4.02279e-06
8.66965e-08
2.9473e-06
-2.73576e-06
2.0831e-06
1.62907e-06
-1.38358e-06
3.44822e-06
3.81778e-07
-1.10764e-07
3.92644e-06
-2.82153e-07
3.78372e-06
-2.58633e-07
-1.03758e-06
-1.06003e-06
1.31063e-06
-3.05149e-06
1.29576e-05
-3.88985e-06
-3.19448e-06
1.54994e-05
-2.88441e-06
-1.99559e-06
1.13452e-05
-9.19838e-07
-2.34392e-06
1.35123e-06
2.2856e-06
-3.19269e-06
-1.93945e-06
2.87492e-06
-2.65918e-06
-3.83462e-07
1.93306e-06
-1.55424e-06
1.11447e-06
1.2288e-06
-4.83627e-07
2.0315e-06
8.24328e-07
2.33889e-06
7.63185e-07
-1.13805e-06
-1.76433e-06
1.84236e-06
-6.45821e-07
1.22025e-05
2.62921e-07
5.54729e-07
1.58455e-05
-1.54667e-06
2.45825e-06
9.30366e-06
1.38041e-07
6.75592e-07
1.92471e-07
2.94142e-06
-1.33615e-06
-1.98663e-06
2.05893e-06
-1.59126e-06
-1.10631e-06
9.77958e-07
-1.15476e-06
-2.8315e-07
9.61132e-07
-5.75119e-07
4.44872e-07
1.00699e-06
8.80016e-07
9.7656e-07
-1.50707e-06
-2.10017e-06
1.8429e-06
-1.7009e-07
7.22496e-06
3.64056e-06
2.22853e-06
1.2008e-05
1.43892e-06
3.33789e-06
5.93139e-06
2.26291e-06
1.18923e-06
-1.2946e-07
2.47059e-06
-2.25483e-07
-1.33006e-06
7.58143e-07
-5.44624e-07
-8.53818e-07
6.66522e-08
-6.0488e-07
-4.36187e-07
2.13302e-07
-4.84175e-07
-1.90937e-08
3.4327e-07
1.71373e-07
3.96077e-07
-2.03789e-06
-1.36214e-06
1.29986e-06
-1.71425e-06
3.48682e-06
3.41451e-06
5.32684e-07
6.98126e-06
2.77979e-06
9.58432e-07
3.58385e-06
1.92179e-06
1.61033e-07
5.03251e-08
6.1761e-07
-6.51816e-08
-6.77978e-07
-4.25862e-07
-2.53468e-07
-4.21694e-07
-2.43828e-07
-3.95426e-07
-2.75778e-07
-1.84397e-08
-3.30991e-07
-1.04878e-07
2.13553e-08
-7.74828e-08
5.0593e-08
-2.0246e-06
5.74347e-07
8.81224e-08
-2.80191e-06
1.28523e-06
2.9789e-06
-1.76418e-06
1.42094e-06
4.52259e-06
-1.00977e-06
1.35376e-07
2.69406e-06
-3.66527e-07
-7.54634e-07
1.61717e-07
-2.21827e-07
-4.44095e-07
-3.78578e-07
-2.67964e-07
-1.2687e-07
-2.48678e-07
-3.49026e-07
-4.89211e-09
-1.89818e-07
-3.19903e-07
-6.38164e-09
-1.2762e-07
-1.41828e-08
-1.51154e-07
-1.73239e-08
3.61449e-08
-4.86139e-08
-1.38273e-08
-3.9261e-09
-1.99069e-08
-1.95125e-08
7.96563e-09
-2.54092e-08
-3.14301e-08
1.07913e-08
-2.38625e-08
-3.98654e-08
1.1296e-09
-1.97214e-08
-3.98958e-08
-1.47645e-08
-1.76558e-08
-3.06608e-08
-3.30039e-08
-1.72628e-08
-1.3953e-08
-5.14843e-08
-1.79594e-08
7.48504e-09
-6.88049e-08
-1.5399e-08
-8.38402e-08
-1.66426e-08
-5.07815e-08
1.45614e-07
-1.29504e-07
-7.96403e-08
5.6988e-08
-8.60088e-08
-1.04659e-07
6.68046e-08
-9.12833e-08
-1.26645e-07
6.02935e-08
-8.50451e-08
-1.37602e-07
2.96361e-08
-7.57408e-08
-1.32465e-07
-1.34215e-08
-6.98885e-08
-1.11213e-07
-5.7142e-08
-6.82015e-08
-7.39366e-08
-1.01578e-07
-6.81948e-08
-2.48439e-08
-1.43707e-07
-6.32112e-08
-1.84584e-07
-5.90216e-08
-4.71793e-08
2.45419e-07
-1.17101e-07
-6.67775e-08
9.73435e-08
-6.84315e-08
-8.46222e-08
1.10809e-07
-7.42801e-08
-1.10044e-07
1.06299e-07
-6.44941e-08
-1.2541e-07
5.68697e-08
-5.18846e-08
-1.27176e-07
-7.43897e-09
-4.41164e-08
-1.13859e-07
-7.34708e-08
-4.15045e-08
-8.34492e-08
-1.43554e-07
-4.27192e-08
-3.19558e-08
-2.19384e-07
-3.92337e-08
-2.92126e-07
-3.65321e-08
-5.55058e-08
3.73775e-07
-1.45364e-07
-9.34552e-08
1.71188e-07
-8.78056e-08
-1.06869e-07
1.55012e-07
-8.60663e-08
-1.31234e-07
1.43566e-07
-4.9502e-08
-1.54047e-07
6.79273e-08
-7.43326e-09
-1.62321e-07
-2.96047e-08
2.43445e-08
-1.48558e-07
-1.26449e-07
4.27832e-08
-1.07585e-07
-2.28444e-07
4.98854e-08
-4.31209e-08
-3.27205e-07
5.15581e-08
-4.10178e-07
4.20573e-08
8.76884e-08
3.94363e-07
-7.44754e-08
8.66882e-08
1.91211e-07
6.60934e-08
1.6959e-08
2.25e-07
-8.51566e-09
-6.48177e-08
2.36729e-07
-1.39975e-08
-1.28726e-07
1.29891e-07
4.01579e-08
-1.64786e-07
-1.21429e-09
9.11946e-08
-1.76036e-07
-1.23429e-07
1.39113e-07
-1.47781e-07
-2.63102e-07
1.89165e-07
-7.61848e-08
-3.92619e-07
2.20261e-07
-4.78804e-07
2.08611e-07
3.68633e-07
2.8002e-07
-8.3416e-08
3.94366e-07
2.02292e-07
2.81461e-07
1.85176e-07
3.79143e-07
2.6359e-07
-4.12564e-08
4.1705e-07
2.21621e-07
-2.26291e-07
2.43052e-07
3.36044e-07
-3.52437e-07
3.5257e-08
5.0206e-07
-3.8235e-07
-1.84187e-07
6.28092e-07
-3.26829e-07
-3.80366e-07
6.62047e-07
-1.92931e-07
-5.3715e-07
6.34539e-07
-6.19288e-07
5.94582e-07
4.55845e-07
1.38827e-07
-8.10361e-08
4.08048e-07
3.60092e-07
3.08016e-07
8.43967e-08
6.5977e-07
4.84706e-07
-2.10961e-07
6.35978e-07
5.53208e-07
-4.55188e-07
3.8348e-07
6.96275e-07
-5.78852e-07
6.89219e-08
7.96778e-07
-5.70869e-07
-2.72527e-07
7.8124e-07
-4.46632e-07
-5.99185e-07
7.19839e-07
-2.5137e-07
-8.28077e-07
6.67459e-07
-9.48838e-07
6.45446e-07
2.00065e-07
3.35832e-07
-3.66242e-07
-1.34207e-08
8.29921e-07
-4.87267e-08
-2.87793e-07
1.12844e-06
1.83362e-07
-5.13992e-07
1.0118e-06
2.23337e-07
-7.10218e-07
6.54073e-07
1.93088e-07
-8.71778e-07
1.73169e-07
1.06888e-07
-9.48819e-07
-3.55336e-07
2.70269e-08
-7.76514e-07
-9.48792e-07
-1.08469e-08
-4.26825e-07
-1.37194e-06
2.93284e-08
-1.58541e-06
4.88843e-08
-1.17074e-07
1.33695e-06
-1.24975e-06
-5.61176e-07
1.74195e-06
-5.46921e-07
-1.03169e-06
1.80067e-06
-3.64302e-07
-1.51453e-06
1.23594e-06
-2.03333e-07
-1.86881e-06
2.32309e-07
4.41676e-08
-1.8403e-06
-1.19999e-06
5.17006e-07
-1.6399e-06
-2.28074e-06
1.01957e-06
-1.22747e-06
-3.32452e-06
1.44833e-06
-6.76119e-07
-3.93606e-06
1.6367e-06
-4.26276e-06
1.66237e-06
-3.75288e-07
2.50209e-06
-1.34742e-06
-6.65331e-07
2.32684e-06
-6.3635e-07
-6.34698e-07
1.46071e-06
-3.89239e-07
1.04068e-07
-6.26978e-07
1.08249e-07
2.7527e-06
-4.1253e-06
7.46983e-07
1.64265e-06
-2.51358e-06
1.68878e-06
3.52133e-07
-2.3273e-06
1.97646e-06
-7.39069e-07
-3.09138e-06
1.56784e-06
-1.00685e-06
-4.17876e-06
1.09783e-06
-4.99977e-06
5.92597e-07
-6.07046e-07
2.74537e-06
-1.04542e-07
1.0645e-06
-1.16e-06
1.08823e-06
9.6454e-06
-9.41474e-06
1.19541e-06
8.27761e-06
1.2463e-06
-4.79419e-07
3.52376e-06
1.53089e-07
7.4762e-07
-6.16952e-07
1.03768e-06
-6.63046e-07
-1.12564e-06
2.80738e-07
-4.63974e-06
-1.51769e-06
-1.35799e-07
-5.85112e-06
-1.46685e-06
-1.42155e-06
-6.31172e-06
-2.63708e-06
-6.31534e-06
-4.38748e-07
9.93882e-07
2.3119e-06
3.74238e-07
-2.41316e-06
2.41014e-07
-1.15424e-06
-4.7379e-06
-3.31707e-06
-2.01931e-06
5.26851e-06
-1.55387e-06
-3.76331e-06
4.44084e-06
-3.17327e-06
-3.16667e-06
3.03497e-06
-5.70168e-06
-2.5869e-06
1.94011e-06
-6.19559e-06
-1.97752e-06
1.47142e-06
-7.08688e-06
-1.3627e-06
-7.63411e-08
-6.62171e-06
-1.50842e-06
-5.22449e-06
2.11223e-06
-9.51198e-06
1.05674e-05
-4.2959e-07
1.80413e-06
1.72517e-07
-5.31816e-06
5.52196e-06
-4.92893e-06
-4.62068e-06
8.61014e-06
-2.93687e-06
-3.55349e-06
6.33606e-06
-4.10373e-06
-2.58096e-06
3.99601e-06
-3.46616e-06
-1.77353e-06
2.47177e-06
-3.29687e-06
-8.76546e-07
1.77155e-06
-4.07901e-06
-7.12002e-07
9.6919e-07
-3.89327e-06
-3.43113e-07
-2.57474e-06
-1.38462e-06
-4.87909e-06
-2.81164e-06
-4.29704e-06
7.03402e-06
-6.84801e-06
-5.94282e-06
1.049e-05
-5.11734e-06
-4.93981e-06
1.07999e-05
-2.65502e-06
-3.77538e-06
7.18195e-06
-1.34843e-06
-2.05422e-06
3.19008e-06
4.69024e-07
-3.60561e-07
1.08415e-06
-1.93408e-07
9.78254e-07
9.46463e-07
-1.52165e-06
9.46404e-07
1.59903e-06
-2.16076e-06
1.06939e-06
-1.28821e-06
-1.30648e-06
-8.08418e-07
-3.20331e-06
-4.3425e-06
1.12823e-05
-8.038e-06
-5.01516e-06
1.37107e-05
-5.3714e-06
-4.82062e-06
1.2803e-05
-2.36345e-06
-4.38571e-06
7.42507e-06
1.24535e-06
-2.55594e-06
1.63058e-06
2.67703e-06
-4.70056e-07
-7.87951e-07
1.41528e-06
6.66942e-07
-4.65182e-07
6.56427e-07
7.74054e-07
1.32908e-06
-1.19309e-07
1.65518e-06
1.00379e-07
6.79379e-07
-1.75822e-06
1.58106e-06
-2.30669e-06
1.45124e-05
-4.13383e-06
-3.34337e-06
1.6769e-05
-4.90594e-06
-3.05246e-06
1.47587e-05
-3.16641e-06
-2.6353e-06
7.72403e-06
1.56948e-06
-1.7298e-06
1.44029e-06
2.15971e-06
-8.36775e-07
-1.30943e-06
1.56152e-06
-6.16013e-07
-7.97723e-07
1.34059e-06
-3.47647e-07
8.65655e-07
1.01939e-06
1.34995e-06
1.0644e-06
4.94139e-07
-2.42431e-06
2.0143e-06
-5.51873e-07
1.54518e-05
3.69471e-07
-1.79562e-06
1.9501e-05
-3.03494e-06
-4.33169e-07
1.6628e-05
-3.09378e-06
3.24615e-07
8.43036e-06
1.47731e-06
2.6004e-07
1.91578e-06
1.64803e-06
-2.69278e-07
-9.85691e-07
1.18354e-06
-8.51803e-07
-6.07201e-07
1.35314e-06
-7.14799e-07
3.24634e-07
1.41102e-06
6.54308e-07
1.29904e-06
-1.95357e-08
-2.20508e-06
1.64322e-06
4.58907e-07
1.37856e-05
4.82831e-06
1.63852e-07
2.07438e-05
4.91172e-07
2.11159e-06
1.75489e-05
-6.05676e-07
2.34957e-06
8.86996e-06
1.79302e-06
1.79691e-06
1.79667e-06
1.42992e-06
6.29039e-07
-6.24275e-07
8.73114e-07
-2.10906e-07
-3.49922e-07
7.95977e-07
-3.30158e-07
5.8116e-08
7.29044e-07
1.37033e-07
6.57699e-07
-8.72974e-07
-1.22668e-06
1.19443e-06
2.53265e-07
9.9605e-06
6.1134e-06
1.30538e-06
1.89898e-05
3.48165e-06
2.85335e-06
1.60273e-05
1.89539e-06
3.10368e-06
7.39873e-06
1.8385e-06
1.97398e-06
1.35592e-06
1.1446e-06
6.84578e-07
-2.22134e-07
6.43444e-07
6.59109e-08
-2.0242e-07
4.52732e-07
-1.06045e-07
-7.94682e-08
3.30894e-07
-1.29887e-07
2.5925e-07
-1.78158e-06
6.68525e-07
4.60731e-07
-1.07226e-06
3.54577e-06
6.99065e-06
5.957e-07
4.08838e-06
1.46544e-05
1.86717e-06
2.34744e-06
1.25438e-05
2.05964e-06
1.42602e-06
5.0256e-06
1.05781e-06
9.36291e-07
9.77375e-07
3.54239e-07
4.6604e-07
-1.11473e-07
3.45861e-09
3.17948e-07
-1.74475e-07
-1.7182e-07
2.14819e-07
-1.25395e-07
1.13803e-07
-2.01923e-07
-2.00171e-08
4.71087e-08
-7.57055e-08
-1.9257e-08
8.80234e-09
-2.94694e-08
-2.83123e-08
2.18298e-08
-3.81838e-08
-4.34731e-08
2.68208e-08
-3.55226e-08
-5.48579e-08
1.89664e-08
-2.73031e-08
-5.66253e-08
3.42086e-09
-1.93094e-08
-4.64456e-08
-1.81187e-08
-9.32376e-09
-2.66829e-08
-4.24124e-08
4.69029e-09
6.1026e-10
-6.8054e-08
2.53619e-08
-9.15547e-08
3.39619e-08
-5.4151e-08
1.50566e-07
-1.78811e-07
-8.49169e-08
6.86812e-08
-1.15122e-07
-1.15096e-07
8.60175e-08
-1.25291e-07
-1.4233e-07
8.68854e-08
-1.17876e-07
-1.57677e-07
6.31324e-08
-1.0456e-07
-1.56451e-07
2.68082e-08
-9.45027e-08
-1.34951e-07
-2.16768e-08
-8.61426e-08
-9.07951e-08
-7.80819e-08
-7.66817e-08
-2.67752e-08
-1.3895e-07
-5.63352e-08
-1.86472e-07
-4.12599e-08
-4.60552e-08
2.44949e-07
-1.65429e-07
-7.06706e-08
1.16788e-07
-9.1923e-08
-9.59061e-08
1.40922e-07
-1.0395e-07
-1.27493e-07
1.46076e-07
-9.20978e-08
-1.49678e-07
1.07358e-07
-7.39255e-08
-1.56703e-07
4.99817e-08
-6.02649e-08
-1.43843e-07
-2.26512e-08
-5.33905e-08
-1.03036e-07
-1.09055e-07
-5.25527e-08
-2.97088e-08
-1.92897e-07
-5.86137e-08
-2.28783e-07
-8.45742e-08
-5.5977e-08
3.45998e-07
-1.90436e-07
-8.90767e-08
1.68101e-07
-1.06019e-07
-1.03363e-07
1.72684e-07
-1.03542e-07
-1.35549e-07
1.87894e-07
-5.91334e-08
-1.70213e-07
1.46309e-07
-1.17205e-08
-1.93308e-07
8.17954e-08
1.56262e-08
-1.91557e-07
-1.08157e-08
2.91964e-08
-1.48837e-07
-1.23166e-07
2.12766e-08
-6.37271e-08
-2.02991e-07
-2.34579e-08
-1.87381e-07
-1.30556e-07
-8.64161e-09
4.47276e-07
-1.67111e-07
-9.55499e-09
2.42269e-07
-7.16139e-09
-4.36359e-08
2.47498e-07
-4.92489e-08
-1.27888e-07
2.93045e-07
-3.48965e-08
-1.91187e-07
2.21564e-07
2.82017e-08
-2.26231e-07
1.07622e-07
1.00412e-07
-2.34786e-07
-1.54823e-08
1.52335e-07
-2.10749e-07
-1.23735e-07
1.65697e-07
-1.1878e-07
-1.61169e-07
8.64702e-08
-8.64059e-08
-7.73198e-08
2.22424e-07
4.96925e-07
-3.5549e-07
2.95834e-07
3.86314e-07
6.40069e-08
1.9986e-07
4.59721e-07
1.47341e-07
2.25028e-08
5.26645e-07
1.65378e-07
-1.15481e-07
4.00291e-07
2.95302e-07
-2.15026e-07
2.73421e-07
4.35806e-07
-2.80887e-07
1.63126e-07
5.15346e-07
-2.88988e-07
3.01712e-08
5.16241e-07
-1.93547e-07
-5.3137e-08
4.31066e-07
-1.75567e-08
2.88952e-07
4.47308e-07
5.0118e-07
-5.326e-07
5.15592e-07
6.45363e-07
-1.9317e-08
3.53153e-07
8.14985e-07
2.91882e-07
1.50279e-07
8.65762e-07
4.16965e-07
-3.15819e-08
6.867e-07
5.91726e-07
-1.70816e-07
4.55378e-07
7.54055e-07
-2.4111e-07
1.90234e-07
8.24425e-07
-2.58132e-07
-6.08643e-08
8.27897e-07
-1.86331e-07
-2.90904e-07
8.33425e-07
-3.90547e-07
7.97455e-07
3.86469e-07
6.72348e-07
-9.23879e-07
2.19242e-07
1.12189e-06
-3.58028e-07
-2.53711e-08
1.31681e-06
-7.38478e-08
-2.87144e-07
1.33971e-06
1.11666e-08
-5.7526e-07
1.05739e-06
1.10517e-07
-7.85163e-07
5.40846e-07
2.31323e-07
-9.08029e-07
4.69588e-08
2.93169e-07
-7.93097e-07
-5.2478e-07
3.38137e-07
-4.59208e-07
-9.49123e-07
3.5366e-07
-1.15612e-06
3.35754e-07
-1.16843e-07
1.5443e-06
-2.00485e-06
-3.39346e-07
1.83107e-06
-1.03359e-06
-6.09335e-07
1.83264e-06
-6.10146e-07
-9.05868e-07
1.4859e-06
-5.29984e-08
-1.19716e-06
6.62016e-07
7.30835e-07
-1.23335e-06
-7.24766e-07
1.81881e-06
-1.15064e-06
-1.83208e-06
2.8159e-06
-9.6183e-07
-2.96519e-06
3.69993e-06
-6.39365e-07
-3.79185e-06
4.15696e-06
-4.12815e-06
4.08779e-06
-5.89299e-07
1.66819e-06
-8.82018e-07
-2.98948e-07
1.4366e-06
-5.32229e-07
7.47772e-08
1.04329e-06
2.63875e-08
6.84576e-07
-3.56026e-07
1.34038e-06
2.73625e-06
-3.5662e-06
2.92353e-06
3.79708e-07
-2.65817e-07
3.58637e-06
-9.52215e-07
-4.71818e-07
1.94811e-06
-1.33648e-06
-1.48844e-06
4.75348e-07
-1.47094e-06
-2.72559e-06
1.66022e-07
-3.67001e-06
-8.03839e-07
-8.60166e-07
-3.10819e-06
5.53201e-06
1.27515e-06
-9.9887e-06
1.03782e-05
3.54935e-06
-4.3138e-06
4.27831e-06
2.47768e-07
2.45773e-06
8.40128e-09
-2.87577e-06
-4.40813e-07
7.45762e-07
-1.57276e-06
9.08149e-07
-3.14002e-06
-1.07819e-06
3.37279e-07
-5.94342e-06
-1.76491e-06
1.95492e-07
-6.84833e-06
-1.85468e-06
-1.5249e-06
-7.42264e-06
-3.15519e-06
-7.9671e-06
1.407e-08
-1.84953e-06
1.03917e-06
-2.2859e-06
-5.21294e-06
-2.23477e-06
-5.09352e-06
8.45499e-07
-5.66874e-06
-4.64473e-06
4.40997e-06
-3.95491e-06
-5.06231e-06
2.17372e-06
-5.37021e-06
-3.59204e-06
2.7638e-07
-6.54019e-06
-2.66494e-06
-1.52121e-07
-6.63328e-06
-2.10167e-06
-6.215e-08
-7.39251e-06
-1.65782e-06
-1.38702e-06
-7.20345e-06
-3.10648e-06
-5.73233e-06
2.25027e-06
4.42262e-06
2.04497e-06
-2.36581e-06
5.60125e-06
-6.02559e-06
-5.79195e-06
6.36819e-06
-7.02549e-06
-5.37797e-06
6.41721e-06
-5.35808e-06
-4.43895e-06
2.90672e-06
-5.77576e-06
-3.22256e-06
7.20015e-07
-5.12618e-06
-2.1674e-06
-1.26171e-07
-4.37798e-06
-1.87179e-06
1.64857e-07
-4.60163e-06
-2.09656e-06
-7.23685e-07
-4.33184e-06
-2.42346e-06
-3.11606e-06
8.17109e-07
4.42291e-06
-3.62904e-06
-1.80216e-06
9.69538e-06
-8.32289e-06
-4.19516e-06
1.00897e-05
-6.44582e-06
-4.16071e-06
8.29421e-06
-4.56647e-06
-3.70877e-06
4.65793e-06
-3.55159e-06
-2.02101e-06
1.89652e-06
-2.39523e-06
-8.14624e-08
-6.55633e-07
-1.60348e-06
5.98257e-07
-4.36389e-07
-1.60012e-06
-7.96821e-07
1.27134e-07
-1.6165e-06
-1.1136e-06
-9.37442e-07
2.48947e-06
9.32305e-07
-2.20218e-06
2.23508e-07
9.68657e-06
-5.76324e-06
-1.99594e-06
1.27335e-05
-5.79581e-06
-2.81501e-06
1.08293e-05
-4.07949e-06
-2.76558e-06
7.51192e-06
-1.65807e-06
-8.53174e-07
2.81323e-06
-1.52081e-07
7.43935e-07
-1.3336e-06
4.96145e-07
1.17214e-06
-7.87387e-07
5.79225e-07
3.51193e-08
8.70072e-07
2.74775e-07
-3.51589e-08
4.81791e-07
3.93156e-06
-1.49231e-06
7.41037e-08
2.59017e-06
9.48639e-06
-2.59226e-06
1.67161e-07
1.47168e-05
-4.46618e-06
-1.58078e-06
1.34497e-05
-4.03885e-06
-1.5539e-06
9.95149e-06
-8.96963e-07
1.59032e-08
2.88999e-06
5.13139e-07
3.14597e-07
-1.459e-06
1.38823e-06
-2.46435e-07
-6.25612e-07
1.73985e-06
-5.92462e-07
6.50913e-07
1.58458e-06
8.35597e-08
1.21945e-06
3.37306e-06
-2.02505e-06
-8.2601e-07
3.56626e-06
9.62554e-06
3.71188e-08
1.25318e-06
1.62337e-05
-2.23881e-06
-6.90516e-07
1.57301e-05
-3.4305e-06
-1.78519e-07
1.11988e-05
-2.81972e-07
5.98339e-07
2.54569e-06
1.21547e-06
-1.65823e-07
-1.18626e-06
1.67497e-06
-7.84586e-07
-4.63821e-07
1.81012e-06
-6.05242e-07
1.76701e-07
1.70589e-06
-8.11789e-08
1.18719e-06
2.24499e-06
-1.7828e-06
-8.4402e-07
3.69097e-06
9.67408e-06
3.3338e-06
1.65666e-06
1.78384e-05
9.20822e-07
5.65283e-07
1.76973e-05
-1.4815e-06
1.40141e-06
1.10014e-05
1.15424e-06
1.31886e-06
1.90198e-06
2.15619e-06
2.54675e-07
-8.68052e-07
1.61909e-06
-2.16435e-07
-4.33391e-07
1.23666e-06
-1.97823e-07
-9.11339e-08
9.78267e-07
-2.11167e-07
6.39871e-07
2.44097e-07
-3.15237e-07
-5.1723e-07
2.66797e-06
8.69477e-06
4.66884e-06
1.85878e-06
1.84144e-05
3.71487e-06
1.90792e-06
1.78683e-05
1.67524e-06
2.64597e-06
9.13562e-06
2.96625e-06
1.55249e-06
1.52138e-06
2.61869e-06
4.21558e-07
-3.95428e-07
1.30175e-06
-1.95179e-08
-3.68453e-07
8.28881e-07
-1.87357e-07
-1.83782e-07
5.9138e-07
-2.57865e-07
2.88551e-07
-1.46842e-06
-9.6711e-09
1.83138e-06
1.31097e-07
2.71371e-06
7.92731e-06
1.16521e-06
4.8258e-06
1.66428e-05
2.12484e-06
3.87855e-06
1.53776e-05
2.26489e-06
3.84034e-06
6.58126e-06
1.07547e-06
2.02485e-06
1.62224e-06
3.41673e-07
8.68287e-07
-6.38697e-08
-2.83578e-08
6.18718e-07
-2.99187e-07
-2.61629e-07
4.17182e-07
-1.52875e-07
1.1103e-07
-1.97189e-07
-2.18176e-08
5.09499e-08
-1.04838e-07
-1.76892e-08
1.20635e-08
-4.56613e-08
-2.56247e-08
2.72831e-08
-5.75316e-08
-4.27198e-08
3.81857e-08
-5.66132e-08
-5.68423e-08
3.58217e-08
-4.90023e-08
-5.91667e-08
2.50806e-08
-4.20656e-08
-4.51175e-08
9.19943e-09
-3.25724e-08
-1.47939e-08
-8.24757e-09
-1.73858e-08
1.73189e-08
-2.398e-08
1.72291e-08
-2.28151e-08
1.96537e-08
-5.41282e-08
1.43271e-07
-2.17003e-07
-7.85918e-08
6.31398e-08
-1.41735e-07
-1.07667e-07
8.82066e-08
-1.5714e-07
-1.38434e-07
1.04095e-07
-1.53018e-07
-1.59443e-07
9.59702e-08
-1.43699e-07
-1.61287e-07
7.25145e-08
-1.40093e-07
-1.34071e-07
3.31687e-08
-1.37328e-07
-7.41535e-08
-1.59156e-08
-1.28931e-07
3.71596e-09
-5.01675e-08
-1.08017e-07
-2.79885e-08
-1.09207e-07
-4.08881e-08
2.29627e-07
-2.10897e-07
-5.95325e-08
1.14849e-07
-1.24988e-07
-8.32489e-08
1.49987e-07
-1.42014e-07
-1.18046e-07
1.79167e-07
-1.32373e-07
-1.4828e-07
1.70424e-07
-1.18144e-07
-1.64192e-07
1.39491e-07
-1.1133e-07
-1.5646e-07
8.36715e-08
-1.11625e-07
-1.20438e-07
2.2394e-08
-1.26885e-07
-4.31156e-08
1.87974e-08
-2.04901e-07
1.11184e-07
-3.65631e-07
-3.52177e-08
3.12833e-07
-2.38425e-07
-4.8111e-08
1.6047e-07
-1.38746e-07
-5.58402e-08
1.97589e-07
-1.43415e-07
-9.44962e-08
2.62163e-07
-1.03473e-07
-1.46509e-07
2.79473e-07
-6.87577e-08
-1.9305e-07
2.55456e-07
-5.37966e-08
-2.17147e-07
1.94422e-07
-5.7458e-08
-2.12278e-07
1.52278e-07
-1.13475e-07
-1.18737e-07
2.20586e-07
-3.18788e-07
3.75874e-07
-6.37836e-07
-2.58745e-09
3.99416e-07
-2.51106e-07
-1.83801e-08
2.63074e-07
-9.39726e-08
-3.76727e-08
3.06929e-07
-1.39296e-07
-9.08168e-08
3.7524e-07
-9.48302e-08
-1.53451e-07
3.76584e-07
-6.27442e-09
-2.18746e-07
3.58272e-07
6.28914e-08
-2.81591e-07
3.34614e-07
7.49871e-08
-3.02536e-07
3.82921e-07
-4.40009e-08
-1.81944e-07
5.79769e-07
-3.93305e-07
7.95596e-07
-8.0468e-07
1.75538e-07
4.08555e-07
-5.40167e-07
2.14804e-07
4.20765e-07
-1.32951e-07
1.64587e-07
5.27297e-07
-2.28109e-08
3.62727e-08
6.39112e-07
2.98202e-08
-1.0411e-07
6.61285e-07
1.50983e-07
-2.40162e-07
7.15172e-07
2.14959e-07
-3.32522e-07
7.66426e-07
1.75894e-07
-3.48588e-07
8.74407e-07
4.08203e-08
-2.21882e-07
1.05526e-06
-1.7113e-07
1.19959e-06
-4.14566e-07
4.50267e-07
3.53346e-07
-9.27658e-07
5.25869e-07
6.29896e-07
-3.04051e-07
4.05212e-07
8.57055e-07
8.2782e-08
2.1271e-07
1.0391e-06
2.09479e-07
1.90962e-08
1.03911e-06
4.07519e-07
-1.40373e-07
1.04841e-06
5.8029e-07
-2.46033e-07
1.05879e-06
6.37723e-07
-2.57427e-07
1.01968e-06
6.94021e-07
-1.73063e-07
9.16887e-07
8.87434e-07
8.63416e-07
8.91276e-07
3.93685e-07
4.23645e-07
-1.38786e-06
2.45818e-07
1.01439e-06
-5.94659e-07
3.66367e-08
1.32956e-06
-3.37169e-07
-1.95448e-07
1.49602e-06
-2.13668e-07
-4.28001e-07
1.28294e-06
9.92396e-08
-5.86325e-07
8.96322e-07
5.41731e-07
-6.20166e-07
5.14557e-07
8.7124e-07
-4.91715e-07
1.87875e-07
1.04149e-06
-2.41652e-07
-1.6502e-07
1.1855e-06
-2.5348e-07
1.12752e-06
-4.06678e-07
1.14254e-06
-2.31708e-06
-1.76457e-07
1.24366e-06
-1.49308e-06
-3.70711e-08
1.47031e-06
-8.90282e-07
-4.40948e-09
1.40788e-06
2.48436e-09
-1.36496e-07
7.65719e-07
1.38014e-06
-3.74543e-07
-9.6001e-08
3.04918e-06
-5.38014e-07
-1.19046e-06
4.68439e-06
-6.13349e-07
-2.24874e-06
6.21188e-06
-5.8242e-07
-3.23138e-06
7.1924e-06
-3.00137e-06
6.45181e-06
-9.53149e-07
7.11219e-07
5.02457e-07
1.62071e-07
-8.13011e-07
4.09218e-07
1.41009e-06
-6.10064e-07
8.58737e-07
2.55503e-06
-1.05669e-06
2.66001e-06
3.53426e-06
-1.60017e-06
4.31019e-06
1.35589e-06
2.04768e-06
3.62107e-06
1.05497e-06
3.34638e-07
7.23924e-07
2.07396e-07
-2.88028e-07
-6.37799e-07
-3.43592e-07
-9.5993e-07
-1.55445e-06
-1.18104e-06
-3.55932e-06
-7.3125e-08
2.44044e-06
3.87592e-06
1.80194e-07
2.05068e-06
7.26119e-06
9.76401e-07
2.16844e-06
7.03596e-07
-2.43093e-07
1.34475e-06
-1.17356e-06
-1.53546e-06
1.54644e-06
-1.10849e-06
-1.04601e-06
1.9871e-06
-3.5689e-06
-1.69272e-06
9.33876e-07
-5.89595e-06
-2.65499e-06
1.19969e-06
-7.37378e-06
-2.86843e-06
1.70401e-07
-8.33952e-06
-2.14753e-06
-8.89277e-06
1.32318e-06
4.05598e-06
-1.89956e-06
-5.53865e-07
4.65939e-06
-2.96645e-06
-3.69428e-06
4.4527e-06
-4.81259e-06
-5.21122e-06
3.67937e-06
-4.77257e-06
-4.9746e-06
1.3903e-06
-5.45069e-06
-3.50093e-06
-5.11608e-08
-5.9756e-06
-2.67057e-06
-1.2496e-07
-6.40481e-06
-2.16057e-06
4.0018e-07
-7.103e-06
-1.36826e-06
-7.34148e-07
-7.09121e-06
-2.51996e-06
-5.69371e-06
1.35438e-06
8.19236e-06
-3.44579e-06
-2.33396e-06
7.91103e-06
-5.58891e-06
-5.74719e-06
6.42739e-06
-5.58695e-06
-6.19676e-06
3.96128e-06
-5.19042e-06
-5.03075e-06
-2.5968e-07
-5.2918e-06
-3.63887e-06
-1.56642e-06
-5.0028e-06
-2.88166e-06
-5.78236e-07
-4.68191e-06
-2.46853e-06
1.76493e-07
-4.79108e-06
-1.94257e-06
-1.04791e-06
-4.54403e-06
-2.67113e-06
-3.45822e-06
2.60779e-06
4.61075e-06
-2.65523e-06
-4.57831e-07
7.1008e-06
-4.44705e-06
-3.56678e-06
7.82246e-06
-4.73194e-06
-4.60076e-06
4.7722e-06
-4.34342e-06
-4.40725e-06
-3.47912e-07
-3.65686e-06
-3.12989e-06
-2.22228e-06
-3.01672e-06
-2.08646e-06
-1.22677e-06
-1.99838e-06
-1.73429e-06
-1.33788e-07
-1.64201e-06
-2.0273e-06
-8.52536e-07
-1.51886e-06
-2.28579e-06
-1.30542e-06
3.45444e-06
2.03607e-07
-1.24948e-06
3.10462e-06
4.438e-06
-2.75061e-06
6.10038e-07
8.37622e-06
-3.85499e-06
-2.04065e-06
7.23838e-06
-3.89497e-06
-3.04423e-06
1.49889e-06
-2.50128e-06
-2.1514e-06
-1.84284e-06
-1.42435e-06
-1.08799e-06
-1.73487e-06
-5.91658e-08
-6.73246e-07
-4.03617e-07
4.34311e-07
-1.2884e-06
-4.36623e-07
4.74019e-07
-1.59088e-06
4.37035e-08
3.95921e-06
-9.33882e-07
-2.74762e-06
5.25834e-06
3.34027e-06
-2.79365e-06
3.55193e-06
8.63797e-06
-3.02151e-06
3.99362e-08
9.75306e-06
-3.04154e-06
-1.70278e-06
3.70076e-06
-1.35611e-06
-1.63461e-06
-1.35032e-06
-4.75499e-08
-1.22422e-06
-1.78961e-06
1.03257e-06
-9.06287e-07
-5.72573e-07
1.59087e-06
-8.79431e-07
-3.6194e-07
1.48304e-06
-1.1043e-06
6.78352e-07
3.66528e-06
-1.95822e-06
-3.46695e-06
5.66562e-06
3.01107e-06
-1.63401e-06
4.32283e-06
9.29164e-06
-1.54969e-06
9.2947e-07
1.1312e-05
-1.59604e-06
-7.71154e-07
5.03593e-06
8.34777e-08
-1.12272e-06
-8.01815e-07
1.01853e-06
-1.15542e-06
-1.5439e-06
1.46196e-06
-8.26473e-07
-7.19739e-07
1.62834e-06
-5.26267e-07
-4.29972e-07
1.47371e-06
-7.70098e-07
6.66864e-07
2.28251e-06
-2.09073e-06
-2.99402e-06
4.95566e-06
3.15782e-06
5.13888e-07
3.66472e-06
1.08157e-05
6.87738e-07
1.10407e-06
1.20819e-05
3.09191e-07
1.54354e-07
5.37669e-06
1.76319e-06
-2.96573e-07
-2.01761e-07
2.00706e-06
-5.36325e-07
-1.10962e-06
1.42456e-06
-4.3472e-07
-7.53153e-07
1.16847e-06
-4.36242e-07
-4.3952e-07
9.89331e-07
-5.52923e-07
3.05052e-07
-1.31786e-07
-4.56965e-07
-2.01921e-06
2.57165e-06
3.95589e-06
1.16734e-06
2.31753e-06
1.20201e-05
2.76456e-06
1.41786e-06
1.19541e-05
2.70273e-06
1.08085e-06
5.13944e-06
3.54052e-06
4.22871e-07
7.28373e-07
2.34654e-06
-2.02679e-08
-5.38747e-07
1.17403e-06
-2.57327e-07
-6.04409e-07
9.17204e-07
-4.82787e-07
-3.46329e-07
7.23651e-07
-3.58887e-07
1.92577e-08
-1.66546e-06
-7.48783e-07
1.9476e-06
-3.44681e-07
4.50364e-07
4.89846e-06
1.06118e-06
3.83235e-06
1.16077e-05
1.50925e-06
4.52328e-06
1.08613e-05
1.35344e-06
3.9637e-06
5.17188e-06
6.60381e-07
1.69704e-06
1.74925e-06
1.93557e-07
9.14667e-07
-1.18299e-07
-1.98325e-07
7.92279e-07
-3.86084e-07
-5.23923e-07
5.75542e-07
-1.79091e-07
-1.2893e-07
-1.59206e-07
-2.37472e-08
4.78155e-08
-1.28906e-07
-1.33292e-08
2.63815e-09
-5.87176e-08
-1.72208e-08
1.98383e-08
-7.34785e-08
-3.51424e-08
3.63119e-08
-7.50036e-08
-5.15416e-08
3.65516e-08
-6.91547e-08
-5.30369e-08
2.58822e-08