/*--------------------------------*- C++ -*----------------------------------*\
| =========                 |                                                 |
| \\      /  F ield         | OpenFOAM: The Open Source CFD Toolbox           |
|  \\    /   O peration     | Version:  2312                                  |
|   \\  /    A nd           | Website:  www.openfoam.com                      |
|    \\/     M anipulation  |                                                 |
\*---------------------------------------------------------------------------*/
FoamFile
{
    version     2.0;
    format      ascii;
    arch        "LSB;label=32;scalar=64";
    class       volScalarField;
    location    "1.005";
    object      p_rgh;
}
// * * * * * * * * * * * * * * * * * * * * * * * * * * * * * * * * * * * * * //

dimensions      [1 -1 -2 0 0 0 0];

internalField   nonuniform List<scalar> 
8000
(
393.069
393.759
394.861
396.256
397.842
399.493
401.025
402.308
403.237
403.837
393.148
393.873
395.036
396.532
398.239
400.02
401.675
402.938
404.063
404.819
393.358
394.104
395.398
397.095
399.032
401.05
402.789
404.384
406.085
406.9
393.68
394.587
396.129
398.121
400.405
402.794
404.885
407.196
409.043
409.965
394.223
395.232
397.154
399.614
402.501
405.579
408.249
410.047
410.794
411.563
395.512
396.768
398.915
401.956
405.67
409.671
413.342
416.058
413.751
415.599
397.558
399.907
402.552
405.938
410.75
416.018
420.936
425.12
427.336
424.901
391.998
398.988
408.446
413.798
418.705
423.887
431.031
436.927
441.548
440.798
158.722
168.637
199.252
256.875
327.58
387.715
426.628
453.815
458.764
458.392
0.190548
0.192234
1.39577
18.3839
65.4912
153.808
247.689
328.701
407.278
445.083
0.220662
0.174333
0.150038
0.136267
0.126513
0.0750356
6.68879
13.6679
28.0758
41.5394
0.205443
0.157822
0.14034
0.0993953
0.073775
0.0529703
0.0571873
0.0661679
0.0609977
0.0688965
0.145593
0.150822
0.146705
0.126916
0.107115
0.0900655
0.100633
0.110614
0.101642
0.133255
0.12633
0.158692
0.18126
0.144417
0.118625
0.0956988
0.0854277
0.116205
0.122527
0.308975
0.290764
0.556947
0.574646
0.261366
0.107907
0.0844886
0.0672575
0.0819774
0.108024
0.364575
0.642712
0.710305
0.753269
0.705139
0.208947
0.0583627
0.0484771
0.0385594
0.102181
0.304364
0.64395
0.720322
0.761398
0.730675
0.463467
0.130036
0.0295725
0.0250858
0.0867597
0.061553
0.651858
0.71552
0.758432
0.745591
0.616899
0.482624
0.142431
0.020675
0.0562849
0.0513061
0.188253
0.242855
0.391939
0.691501
0.628618
0.589595
0.471418
0.0232145
0.0590561
0.0681534
-0.00852544
0.0521766
0.264716
0.455544
0.547965
0.598039
0.427115
0.0326575
0.0698709
0.0776736
392.488
393.213
394.335
395.755
397.355
398.993
400.496
401.756
402.54
403.143
392.448
393.219
394.417
395.94
397.665
399.434
401.051
402.148
402.905
403.845
392.329
393.189
394.561
396.312
398.284
400.24
401.885
403.187
404.366
405.546
392.328
393.284
394.891
396.989
399.311
401.572
403.27
405.112
406.487
408.741
392.264
393.398
395.503
398.089
400.968
403.948
406.175
408.625
409.515
412.518
391.815
393.279
396.184
399.619
403.428
407.376
411.061
414.643
416.327
418.771
394.031
395.713
398.772
402.696
407.256
412.384
417.622
423.057
426.948
429.337
371.129
380.267
392.319
406.283
414.292
420.418
426.484
432.235
437.934
443.945
110.227
119.059
141.159
185.349
251.127
323.171
376.256
420.236
446.469
454.955
0.18115
0.187049
0.272853
4.80929
28.9423
79.9312
151.458
227.637
288.134
347.027
0.213671
0.149563
0.142698
0.0901782
0.0309185
0.0468751
0.0598226
0.0330184
0.0836816
0.0849288
0.154462
0.141147
0.136188
0.103158
0.0515958
0.0538158
0.0567019
0.021856
0.0328633
0.0411402
0.0990485
0.118089
0.133397
0.121499
0.0951234
0.0810861
0.0831594
0.0803901
0.075948
0.0970504
0.0653545
0.193289
0.322301
0.20906
0.111082
0.0817393
0.0700617
0.067376
0.0811609
0.12255
0.152666
0.608712
0.66394
0.663898
0.182126
0.065015
0.0597414
0.0410306
0.0585051
0.350023
0.485554
0.610394
0.677039
0.677692
0.617594
0.0400853
0.0109125
0.0132842
0.119882
0.349224
0.553566
0.612994
0.676023
0.676402
0.641446
0.0904627
-0.0090304
0.0320392
0.168822
0.159701
0.439533
0.375559
0.67503
0.686514
0.577168
0.229168
-0.0107683
0.0362895
0.195067
0.0385756
0.419453
0.0244647
0.189029
0.709346
0.120447
0.385963
0.0370406
0.0118986
0.213598
0.0660914
0.115216
-0.027757
0.0661478
0.497266
0.138022
0.09409
0.239994
0.018062
0.0783545
0.0830814
391.502
392.268
393.432
394.894
396.535
398.227
399.89
401.368
401.935
402.416
391.309
392.138
393.383
394.958
396.742
398.622
400.475
401.975
402.486
403.003
390.844
391.787
393.231
395.059
397.125
399.174
400.992
402.824
403.368
404.128
390.235
391.293
393.01
395.229
397.689
400.027
401.758
404.029
405.015
406.789
389.17
390.64
392.779
395.499
398.544
401.689
403.853
406.997
408.886
410.739
386.883
388.683
391.627
395.362
399.608
403.951
407.673
411.38
415.033
416.538
385.71
388.275
392.407
397.088
402.175
407.539
412.774
418.906
423.082
425.46
276.301
299.453
332.679
366.267
396.455
412.393
419.552
427.38
433.084
438.203
37.5661
42.1583
54.4887
77.6828
122.388
198.199
281.891
354.253
406.72
422.056
0.147789
0.176947
0.226048
0.220744
0.901847
14.5403
55.0441
126.406
208.406
256.517
0.18136
0.261282
0.27138
0.16639
0.14062
0.0414622
-0.00954478
-0.0154866
-0.0315882
-0.0460803
0.216344
0.145531
0.155276
0.161353
0.132139
0.085429
0.0234494
0.0422958
0.0198928
0.0065347
0.124398
0.127653
0.149224
0.150867
0.133601
0.108053
0.077717
0.0645998
0.0584373
0.0658608
0.0776827
0.186697
0.374929
0.338092
0.130493
0.0976521
0.083457
0.0549337
0.0952681
0.0692775
0.0999386
0.568065
0.63115
0.65206
0.479307
0.111985
0.0491798
0.0188178
0.11007
0.239137
0.154574
0.532017
0.621429
0.642951
0.619064
0.244666
-0.0137205
-0.0201746
0.132521
0.358477
-0.0487457
0.0943822
0.572235
0.638118
0.616818
0.41796
-0.0576055
-0.0346029
0.164139
0.208433
-0.114932
-0.0882674
0.54718
0.64236
0.62031
0.154224
-0.0603276
0.00364941
0.193421
0.0360884
-0.0984542
-0.0854289
0.595158
0.664152
0.404676
-0.0638241
-0.0470829
0.0998859
0.240594
0.0698665
-0.0753001
-0.070248
0.457765
0.716953
0.22533
-0.0442962
-0.0175705
0.10783
0.230943
0.0967387
390.261
391.085
392.285
393.793
395.453
397.151
398.738
400.185
400.825
401.328
389.891
390.785
392.107
393.72
395.518
397.396
399.187
400.916
401.391
401.904
389.055
390.078
391.607
393.511
395.626
397.79
399.818
401.741
402.303
402.852
387.764
388.936
390.801
393.141
395.7
398.222
400.234
402.257
403.384
404.73
385.515
387.052
389.456
392.509
395.704
398.949
401.624
404.433
406.104
407.984
381.297
383.248
386.444
390.666
395.209
399.679
403.828
407.929
410.668
412.753
375.443
379.289
384.512
390.359
395.919
401.285
406.786
412.357
416.702
420.145
158.852
188.524
236.174
297.153
347.543
385.297
409.936
417.247
424.894
431.41
3.30446
5.21166
9.25386
17.3071
35.8046
75.6939
145.292
236.426
328.889
389.302
0.194713
0.196009
0.183787
0.228172
0.245514
0.513564
2.93416
34.3168
112.736
176.291
0.192777
0.240402
0.258703
0.199895
0.190998
0.192901
0.153031
-0.0150643
0.0150167
-0.00652499
0.228694
0.178951
0.182504
0.185843
0.168854
0.164745
0.122198
0.081411
0.0299985
0.0222763
0.126228
0.143276
0.152985
0.148601
0.150881
0.181199
0.197407
0.114453
0.0673555
0.0692632
0.158237
0.323425
0.353767
0.203771
0.15968
0.313428
0.367372
0.297464
0.0740849
0.0637999
0.244332
0.500221
0.596897
0.618589
0.385859
0.270518
0.263594
0.272107
0.307885
0.0843772
0.0154489
-0.0225825
0.17701
0.624953
0.514633
0.00433376
-0.0400141
0.195426
0.339267
0.361247
-0.118539
-0.0763447
0.0897457
0.622716
0.240404
-0.0725564
-0.0549638
0.166261
0.21966
0.208162
-0.112224
-0.0741635
0.58647
0.623882
0.0374343
-0.0859874
-0.052254
0.172898
0.101535
0.0335364
-0.0956202
-0.0317726
0.663696
0.616742
-0.0360086
-0.0697748
-0.0435757
0.113191
0.169876
0.071456
-0.0823756
0.0504876
0.71282
0.714012
-0.00686824
-0.0278961
0.0169027
0.105252
0.148613
0.103481
388.951
389.839
391.099
392.618
394.275
395.942
397.443
398.823
399.618
400.057
388.414
389.386
390.765
392.418
394.214
396.031
397.69
399.257
400.015
400.508
387.218
388.355
389.979
391.927
394.043
396.17
398.107
399.965
400.802
401.365
385.364
386.639
388.66
391.116
393.697
396.246
398.489
400.382
401.77
402.721
382.172
383.667
386.296
389.763
392.962
396.204
399.08
401.56
403.591
405.028
376.792
378.16
381.478
386.352
391.16
395.675
399.746
403.421
406.221
408.379
359.93
367.717
377.538
384.893
390.478
395.753
400.72
405.737
410.117
413.993
102.799
124.496
163.594
228.384
294.031
340.368
373.789
392.896
406.317
413.661
0.267314
0.295741
0.317326
0.432025
6.14807
25.4106
60.1181
114.014
213.712
323.484
0.233462
0.230473
0.224452
0.231351
0.231963
0.270895
0.462993
1.43024
24.2681
84.9574
0.196305
0.208641
0.210635
0.20804
0.200157
0.217055
0.23641
0.273974
0.294728
0.263733
0.168724
0.178988
0.182077
0.185526
0.188516
0.21159
0.229136
0.194371
0.112656
0.0763756
0.154648
0.206149
0.176178
0.153232
0.199541
0.386047
0.437584
0.349553
0.106448
0.0879684
0.296872
0.31458
0.239862
0.124277
0.198407
0.404044
0.396129
0.344207
0.0998958
0.0718968
0.219847
0.112933
0.0805788
0.127051
0.0619028
0.0638356
0.217886
0.278685
0.300099
0.0523156
-0.0667487
-0.0370629
0.0290509
0.208574
0.0300949
-0.00279838
-0.0419667
0.262377
0.325171
0.127277
-0.0843629
-0.0304486
0.22632
0.225878
-0.00194057
-0.0556265
-0.0841429
0.245847
0.365143
0.409863
-0.0686629
0.0872493
0.680681
0.457908
-0.0234718
-0.0804963
-0.0894738
0.206057
0.421079
0.193674
-0.0653092
0.495244
0.69331
0.60161
-0.0177841
-0.0612821
-0.0202365
0.193177
0.191608
0.081866
-0.0781642
0.651362
0.708386
0.768875
0.0633223
-0.0159992
0.0161155
0.161822
0.268116
0.235822
387.744
388.693
390
391.526
393.152
394.762
396.223
397.464
398.241
398.72
387.103
388.145
389.571
391.228
392.988
394.73
396.316
397.693
398.545
399.035
385.7
386.923
388.615
390.563
392.61
394.637
396.475
398.113
399.089
399.617
383.431
384.858
386.98
389.424
391.952
394.395
396.567
398.508
399.787
400.572
379.762
381.449
384.177
387.396
390.647
393.798
396.553
398.968
400.731
401.931
374.501
376.496
379.959
384.225
388.493
392.492
396.109
399.301
401.675
403.864
351.527
358.92
370.14
380.154
386.668
391.539
395.661
399.793
403.658
407.584
94.4473
112.373
147.364
200.579
263.369
305.723
334.856
356.363
372.37
387.055
0.271651
0.260046
0.27372
0.287056
0.321525
8.40196
26.1951
49.9668
115.716
228.895
0.199885
0.206739
0.215396
0.225714
0.231503
0.214522
0.238026
0.492821
1.51025
18.9086
0.180541
0.195731
0.203668
0.209933
0.210924
0.206585
0.198288
0.1847
0.288605
0.343343
0.191313
0.199142
0.190887
0.191744
0.209948
0.261067
0.282744
0.248561
0.180235
0.140816
0.292856
0.323869
0.202122
0.161271
0.225412
0.42354
0.44451
0.418538
0.167284
0.130129
0.22295
0.264789
0.16188
0.12358
0.139784
0.254318
0.337931
0.402671
0.21632
0.0923505
-0.0383688
0.00701215
0.0588836
0.0715142
0.0602874
0.0535508
0.0373335
0.142499
0.308519
0.0584407
-0.0392272
0.00418639
0.0353346
0.0361567
0.0340019
0.0238371
-0.00430429
0.00970523
0.313737
0.057685
-0.0159634
0.0160164
0.117046
0.133371
0.00486822
-0.0213356
-0.0471272
0.0252508
0.187423
0.142293
0.00142561
0.246911
0.695098
0.641079
-0.0160461
-0.059572
-0.0495728
0.157907
0.240056
0.321351
0.0261499
0.6999
0.69614
0.709385
0.198158
-0.061934
-0.0158243
0.260148
0.316942
0.336757
0.0582431
0.672315
0.691129
0.740939
0.64332
-0.0301493
0.00558329
0.304333
0.328041
0.334187
386.755
387.76
389.099
390.617
392.202
393.748
395.143
396.3
397.088
397.526
386.076
387.174
388.631
390.272
391.976
393.633
395.126
396.374
397.225
397.7
384.616
385.901
387.614
389.527
391.486
393.379
395.078
396.504
397.45
397.994
382.274
383.733
385.861
388.246
390.644
392.913
394.908
396.565
397.759
398.5
378.509
380.187
383.065
386.108
389.171
392.022
394.492
396.545
397.946
399.041
373.315
375.45
378.965
383.032
387.012
390.543
393.421
395.93
397.64
399.639
351.087
357.134
367.503
377.445
383.898
388.767
392.089
395.116
398.243
401.823
104.534
119.387
151.726
202.124
258.618
293.645
304.263
319.86
335.604
354.436
0.239844
0.248038
0.258021
0.266145
0.292372
4.11805
10.9853
22.8502
62.4714
140.076
0.204528
0.213273
0.217746
0.219631
0.209181
0.174867
0.143533
0.149896
0.65725
1.55035
0.196805
0.207258
0.202951
0.208043
0.205965
0.186024
0.153193
0.154667
0.195778
0.281104
0.232209
0.28773
0.235222
0.200061
0.2334
0.269281
0.26684
0.278693
0.209739
0.173463
0.14342
0.281998
0.275238
0.177772
0.246442
0.436069
0.481467
0.357278
0.221398
0.170833
0.0165878
0.0617668
0.116965
0.153382
0.129876
0.222514
0.33336
0.474213
0.380643
0.11749
0.0185841
0.0455336
0.0604393
0.0601795
0.048777
0.0446058
0.0530078
0.0648935
0.288318
0.0847902
0.0362026
0.0364023
0.0364919
0.0291274
0.0195561
0.0187531
0.0200321
0.0852781
0.0147833
0.0669252
0.0554414
0.0387472
0.048998
0.276917
0.109141
0.00678067
0.0837778
0.220448
0.0815106
0.105175
0.0637597
0.10635
0.329737
0.606513
0.296642
0.0415167
0.200071
0.23239
0.269329
0.177731
0.127314
0.569308
0.698824
0.448004
0.273836
0.06019
0.202324
0.241264
0.264566
0.303498
0.118743
0.676086
0.690801
0.18481
0.0604499
-0.0293548
0.0688049
0.24642
0.251308
0.251972
386.06
387.116
388.465
389.963
391.505
392.991
394.321
395.413
396.173
396.588
385.372
386.509
387.988
389.615
391.26
392.828
394.232
395.388
396.197
396.65
383.918
385.24
386.989
388.888
390.751
392.488
394.041
395.331
396.195
396.728
381.534
383.105
385.273
387.655
389.908
391.916
393.681
395.147
396.169
396.847
377.883
379.689
382.49
385.604
388.496
390.989
393.077
394.742
395.726
396.835
372.859
375.022
378.56
382.626
386.447
389.51
391.734
393.51
394.533
396.285
355.186
360.026
368.511
377.581
383.905
387.671
390.441
391.951
394.154
397.338
121.392
134.349
163.703
214.045
272.092
292.611
290.526
292.744
303.807
324.885
0.229688
0.258573
0.275905
0.282995
0.335382
4.10395
5.11975
10.096
36.2522
84.291
0.204803
0.238319
0.236917
0.227564
0.195329
0.158569
0.0896761
0.0304939
0.152642
0.985867
0.187935
0.334337
0.31178
0.212668
0.201321
0.180806
0.145064
0.267437
0.165832
0.240699
0.137884
0.310586
0.361985
0.238457
0.238678
0.300456
0.290475
0.355597
0.227784
0.188472
0.0686812
0.140832
0.208555
0.223537
0.293148
0.482041
0.5282
0.378686
0.246522
0.190004
0.0725762
0.0993284
0.124332
0.142332
0.166622
0.365393
0.489448
0.530255
0.508627
0.138332
0.0928894
0.187342
0.163978
0.133953
0.101273
0.0605345
0.129188
0.284758
0.259782
0.0995153
0.167593
0.190802
0.117317
0.151567
0.264148
0.143146
0.0405429
0.0500783
0.013939
0.11802
0.220285
0.0428765
0.0366289
0.168894
0.269966
0.262527
0.0842811
0.017694
0.0541063
0.245286
0.0733166
0.0290411
0.0233523
0.116889
0.287268
0.162603
0.026964
0.137086
0.0721223
0.475823
-0.00117404
-0.000234809
0.0298741
0.023094
-0.0166588
-0.0382521
-0.0447692
0.188319
-0.0109141
0.0277336
-0.0424044
0.0441616
0.00226518
-0.00333592
-0.0226833
-0.0414789
-0.0518493
-0.0164753
-0.0415608
-0.00512866
385.66
386.739
388.088
389.572
391.083
392.528
393.814
394.868
395.593
395.996
384.97
386.137
387.616
389.219
390.825
392.331
393.677
394.786
395.548
395.984
383.528
384.905
386.651
388.47
390.206
391.884
393.38
394.596
395.389
395.925
381.186
382.895
385.042
387.294
389.283
391.115
392.846
394.264
395.129
395.771
377.669
379.622
382.404
385.426
388.035
390.122
392.142
393.649
394.345
395.411
373.006
375.142
378.685
382.763
386.393
388.85
390.833
392.064
392.736
394.363
361.468
365.323
371.656
379.131
384.901
387.623
389.254
390.076
391.552
394.699
147.676
159.467
184.36
232.139
288.034
302.518
290.704
277.708
281.274
308.498
0.225782
0.264856
0.297126
0.314157
4.10367
7.53878
3.40112
3.55642
20.5119
58.4079
0.198593
0.249179
0.271563
0.241477
0.194992
0.16191
0.0788406
0.0164354
0.0576565
0.678749
0.172979
0.333143
0.371848
0.261192
0.205451
0.188224
0.154585
0.280985
0.231458
0.244203
0.148792
0.251076
0.345158
0.395343
0.291646
0.299428
0.292308
0.296841
0.263775
0.204113
0.132456
0.110191
0.177681
0.247528
0.335652
0.508503
0.553201
0.434925
0.280998
0.204108
0.113758
0.132195
0.225489
0.271322
0.176614
0.211599
0.501738
0.545907
0.531017
0.16851
0.15828
0.289298
0.360984
0.351578
0.146721
0.078277
0.169088
0.495626
0.428338
0.102865
0.342043
0.336954
0.314264
0.329287
0.305287
0.0929306
0.0429077
0.246046
0.206298
0.098008
0.313128
0.0945004
0.0443679
0.233701
0.275593
0.25978
0.0201671
0.00867842
0.0376708
0.314242
0.145431
0.0263366
0.0178641
0.0846287
0.269641
0.151711
-0.00719596
-0.0174624
0.0784124
0.512453
0.0039262
0.00409572
0.0108867
0.106463
0.159276
-0.0405894
-0.037458
-0.0341857
-0.00520169
0.386026
-0.0298164
-0.0259402
0.0111132
0.034159
0.00980348
-0.0508414
-0.0567996
-0.0460606
-0.0487537
-0.0188024
385.326
386.653
388.024
389.507
391.01
392.424
393.675
394.703
395.403
395.8
384.509
386.072
387.598
389.174
390.774
392.251
393.527
394.601
395.333
395.76
383.148
384.908
386.643
388.465
390.247
391.874
393.239
394.38
395.12
395.648
380.035
383.048
385.168
387.341
389.376
391.235
392.651
394.002
394.796
395.402
376.325
380.196
382.881
385.633
388.229
389.682
391.639
393.388
393.982
394.921
372.45
376.249
379.6
383.386
386.386
388.45
390.262
391.657
392.315
393.182
365.652
370.641
375.548
381.391
385.823
388.288
389.396
389.341
390.618
394.062
177.597
190.298
213.124
257.893
302.233
316.49
302.171
275.871
272.222
305.315
0.221095
0.267293
0.329632
0.369423
10.5687
13.5938
4.88974
0.284324
13.5743
51.2487
0.190295
0.224626
0.25198
0.235289
0.203954
0.180058
0.115589
0.112241
0.218323
0.565988
0.156652
0.23213
0.326399
0.289344
0.253638
0.20676
0.182793
0.229277
0.268614
0.249466
0.132728
0.158295
0.299104
0.367708
0.430374
0.418641
0.388881
0.307068
0.279007
0.211164
0.116117
0.0971191
0.0916816
0.296587
0.409278
0.455876
0.548531
0.555686
0.276183
0.205006
0.106909
0.118881
0.233346
0.265667
0.194863
0.119753
0.473317
0.542654
0.53553
0.164485
0.173584
0.300878
0.365721
0.348286
0.103859
0.0727272
0.11525
0.507609
0.447304
0.0950221
0.34522
0.350414
0.350325
0.335545
0.129683
0.0385036
0.045994
0.474675
0.415247
0.0639554
0.328949
0.288957
0.334915
0.321789
0.0343718
0.0125331
0.0441651
0.13312
0.424191
0.10316
0.137714
0.0284649
0.185911
0.307857
-0.00962966
-0.0198611
0.106405
0.0698044
0.43726
0.497939
0.0190204
0.00749422
0.145135
0.290893
-0.000118267
-0.0448252
0.165411
0.175108
0.135757
0.484473
-0.00873436
-0.0245571
0.125565
0.273793
0.0827059
-0.0673595
0.192813
0.237829
-0.0321849
0.202296
385.561
386.858
388.234
389.732
391.233
392.65
393.898
394.919
395.611
396.009
384.542
386.34
387.806
389.412
391.007
392.493
393.771
394.837
395.56
395.99
382.744
385.181
386.886
388.734
390.583
392.203
393.543
394.659
395.39
395.928
380.358
383.384
385.457
387.716
389.868
391.753
393.184
394.407
395.161
395.762
376.941
380.633
383.192
386.059
388.905
390.777
391.973
393.777
394.486
395.281
373.306
377.468
380.543
384.039
387.588
389.336
390.711
392.143
393.044
393.859
367.064
372.708
377.38
382.873
386.965
389.005
390.304
390.374
391.8
395.325
186.798
205.64
233.075
276.525
309.72
320.859
307.56
287.986
284.114
313.76
0.213555
0.263743
0.347756
1.58308
14.617
17.2348
8.24351
0.574022
15.0905
57.0711
0.175135
0.200131
0.227295
0.229741
0.200337
0.184443
0.132653
0.168634
0.317309
0.664641
0.134084
0.187727
0.271979
0.261877
0.283041
0.246115
0.18206
0.245316
0.280213
0.267975
0.105238
0.139743
0.258237
0.305002
0.357623
0.441524
0.404308
0.280485
0.257508
0.194371
0.0960544
0.0737493
0.0443611
0.116737
0.250402
0.433072
0.501615
0.503545
0.23591
0.17407
0.0928692
0.0827583
0.0847477
0.1261
0.0766118
0.114039
0.393094
0.511078
0.421311
0.113122
0.0925428
0.125733
0.305832
0.327308
0.296542
0.100455
0.085188
0.45309
0.451932
0.0694915
0.203014
0.318432
0.348676
0.327841
0.294544
0.27041
0.051079
0.149851
0.422353
0.0274085
0.201453
0.336536
0.336675
0.308394
0.154835
0.238767
0.262137
0.0669787
0.437289
0.0102265
0.0451912
0.128789
0.328104
0.284265
-0.0541339
-0.0209806
0.369277
0.212196
0.361068
0.168218
0.0296745
0.0110762
0.24367
0.191397
-0.0919734
-0.0665376
0.384269
0.443594
0.436232
0.466995
0.00202312
-0.0219206
-0.060658
-0.0982365
-0.11818
0.0106822
0.369376
0.438457
0.438719
0.458388
386.384
387.428
388.754
390.225
391.742
393.176
394.447
395.481
396.196
396.599
385.738
386.871
388.325
389.937
391.536
393.041
394.368
395.451
396.204
396.641
384.4
385.695
387.379
389.261
391.058
392.75
394.193
395.366
396.15
396.698
382.354
383.652
385.582
388.13
390.428
392.247
393.882
395.228
396.091
396.755
379.268
379.686
382.074
386.268
389.563
391.637
393.313
394.852
395.63
396.662
375.404
376.623
379.317
384.392
388.376
390.978
392.464
393.64
394.675
396.351
366.784
370.909
375.755
382.794
387.259
389.969
391.219
392.227
394.268
397.626
172.322
199.039
229.706
270.723
303.351
315.97
305.939
294.173
305.517
332.174
0.212743
0.265287
0.359975
0.390059
12.5268
16.1536
10.1179
6.39967
27.7358
80.2442
0.171869
0.19316
0.22027
0.228988
0.162997
0.144123
0.102591
0.11806
0.313492
0.796506
0.128843
0.186085
0.325789
0.339405
0.250501
0.187717
0.140258
0.200998
0.234371
0.249106
0.102486
0.164736
0.292178
0.278513
0.292517
0.342021
0.199218
0.228289
0.199731
0.13302
0.0920175
0.0615769
0.0221244
0.118697
0.229216
0.310832
0.398397
0.216264
0.168618
0.10996
0.0861366
0.0680692
0.0413069
-0.000251388
-0.0269855
0.0973369
0.364505
0.435687
0.116218
0.0702393
0.0885538
0.0687434
0.0802449
0.105329
0.029187
-0.00538813
0.0460441
0.39636
0.333805
0.0256707
0.0767739
0.102351
0.277342
0.329564
0.274556
0.0469036
0.00251595
0.201138
0.402047
-0.0130869
0.0331803
0.228365
0.324329
0.312796
0.282481
0.247344
0.0135908
0.00959355
0.406702
-0.0212349
0.0291595
0.133246
0.312232
0.278063
0.250973
0.226959
0.117437
-0.0144746
0.0157112
-0.0260714
0.111019
0.0131901
0.238622
0.158635
0.119237
0.192398
0.0488673
-0.0499163
0.138277
0.104756
0.0627116
-0.00824218
-0.0559061
-0.158548
-0.132954
0.167792
-0.0576471
-0.112405
0.261487
0.408332
387.188
388.224
389.556
391.042
392.545
394
395.297
396.363
397.112
397.525
386.609
387.705
389.164
390.764
392.373
393.916
395.283
396.411
397.209
397.662
385.401
386.571
388.286
390.187
392.028
393.743
395.247
396.49
397.36
397.893
383.423
384.518
386.661
389.176
391.445
393.457
395.175
396.592
397.625
398.298
380.64
380.454
384.183
387.543
390.479
392.958
394.936
396.586
397.731
398.676
376.384
377.021
380.996
385.243
389.182
392.146
394.211
395.946
397.418
399.024
364.297
369.128
375.584
382.01
387.435
390.92
393.214
395.171
397.917
401.301
155.217
182.092
208.386
248.106
290.799
310.942
310.458
311.118
335.45
357.32
0.217966
0.267483
0.370272
0.427858
8.16649
14.6283
13.8455
18.0098
56.0968
121.599
0.172741
0.195605
0.228983
0.216051
0.138054
0.0949378
0.0309065
-0.0250115
0.326528
0.72859
0.130323
0.169419
0.344678
0.345346
0.193194
0.0798158
0.0654231
0.177544
0.173079
0.167942
0.105241
0.137325
0.313499
0.309183
0.298162
0.167528
0.11455
0.131395
0.0799166
0.0530511
0.0945484
0.0723014
0.053446
0.203445
0.259674
0.159753
0.0958634
0.114651
0.0686995
0.0389335
0.0869632
0.0674713
0.0455859
0.0137203
0.0368606
0.142407
0.114721
0.100305
0.043647
0.0331577
0.102654
0.0646543
0.052678
0.0327243
-0.0131858
-0.00896954
0.203511
0.259336
0.0201917
0.00761397
0.0935384
0.0942418
0.0455675
0.0562513
0.0122978
-0.0430754
0.028556
0.245803
0.124463
-0.0172436
0.0321089
0.0393637
0.0961159
0.252647
0.111016
-0.0298289
-0.0659939
0.0134283
0.174331
-0.0313801
0.0219499
0.016515
0.225391
0.277924
0.272984
0.0385154
-0.0732476
-0.032421
0.0427297
-0.0412983
0.111718
0.0410457
0.241631
0.216071
0.195888
0.14161
-0.0932471
-0.0880147
-0.0820163
-0.0581741
0.13143
0.0290147
-0.0542476
0.126039
0.142629
0.106655
-0.102686
-0.109419
-0.0742298
-0.0180141
388.236
389.206
390.508
391.985
393.519
395.018
396.372
397.493
398.286
398.719
387.715
388.749
390.159
391.75
393.396
394.998
396.442
397.64
398.491
398.974
386.6
387.756
389.386
391.239
393.125
394.941
396.567
397.924
398.895
399.448
384.789
385.998
388.013
390.328
392.635
394.812
396.738
398.338
399.526
400.259
382.08
383.195
385.832
388.819
391.739
394.417
396.758
398.751
400.293
401.271
377.898
379.738
382.678
386.604
390.486
393.694
396.269
398.794
401.035
402.682
364.699
369.792
375.741
382.444
388.442
392.752
396.294
398.942
402.488
405.965
150.401
169.957
191.88
229.297
279.163
311.224
324.354
340.155
367.827
384.651
0.221228
0.25821
0.342651
0.431144
4.53768
14.7415
20.2218
36.0335
98.5968
188.297
0.167667
0.186822
0.22103
0.221661
0.158927
0.0950834
0.0219064
-0.0510644
0.497755
3.09318
0.127909
0.145167
0.223494
0.242938
0.138043
0.0538419
0.0131443
0.0646823
0.0517989
0.121089
0.102935
0.106835
0.206692
0.303408
0.179675
0.0547575
0.151701
0.266084
-0.00782278
-0.00574887
0.0897895
0.0788642
0.0806059
0.100304
0.111482
0.0479751
0.0739753
0.0906751
0.006581
-0.00144962
0.0790408
0.0660962
0.0517668
0.0469999
0.0735465
0.0703709
0.0333806
0.0361222
0.0182486
0.0151778
0.0866473
0.0658482
0.0449544
0.0350639
0.0292783
0.0388194
0.0432847
0.0254254
0.00813378
0.0151124
0.0417219
0.0769745
0.0505457
0.0311214
0.011426
-0.00674283
0.0321623
0.0516077
-0.0143408
0.000764487
0.0199248
0.029286
0.0254949
0.0370623
-0.00505703
-0.0240658
-0.0258551
0.00902559
-0.0355322
-0.0174377
0.0410171
0.0111658
-0.00434687
0.0314659
-0.0132425
-0.0507351
-0.0542331
-0.0307749
-0.0198357
-0.0338661
0.0659851
0.0486299
0.0299576
-0.0493905
-0.0499679
-0.0847007
-0.0774355
-0.059119
-0.0317345
-0.0474701
0.126927
0.147541
0.0880793
0.00527058
-0.0972193
-0.114694
-0.0988349
-0.0841324
-0.0546823
-0.0238982
389.42
390.332
391.588
393.06
394.623
396.181
397.607
398.8
399.629
400.085
388.953
389.932
391.291
392.88
394.565
396.244
397.786
399.075
399.973
400.476
387.975
389.074
390.637
392.479
394.416
396.345
398.122
399.614
400.639
401.234
386.383
387.631
389.494
391.744
394.117
396.456
398.579
400.344
401.635
402.468
384.034
385.401
387.622
390.428
393.412
396.346
398.97
401.246
403.006
404.257
380.221
382.091
384.826
388.355
392.197
395.82
399.091
402.161
404.903
406.809
369.468
373.806
379.521
385.825
391.318
396.038
399.696
403.508
407.808
411.378
160.154
174.29
195.331
232.424
281.015
322.474
350.406
373.882
397.545
408.99
0.233397
0.258993
0.320981
0.437496
5.35631
18.1208
33.3717
67.2653
170.553
274.811
0.163466
0.174985
0.199185
0.218247
0.189586
0.152624
0.133148
0.436852
5.35431
34.98
0.123793
0.129128
0.14307
0.144939
0.115225
0.0686714
0.0174873
-0.00165087
0.116556
0.118073
0.097551
0.101374
0.119799
0.138108
0.0921548
0.0512495
0.101313
0.15978
-0.0420534
-0.0433863
0.075969
0.0725706
0.084766
0.12288
0.0979147
0.0574149
0.0909824
0.0936334
-0.00565658
-0.00891866
0.0606738
0.0570776
0.0478657
0.062743
0.1051
0.0762481
0.0481073
0.0374755
0.0150892
0.014221
0.0417394
0.0475599
0.0450483
0.0243056
0.0721601
0.103785
0.0461774
0.0299519
0.0186283
0.0236328
0.0220085
0.0295993
0.0392967
0.032861
0.00581818
0.0474441
0.0444468
0.0181707
0.0111389
0.0254177
0.142692
0.0155863
0.0115506
0.00996741
-0.0199475
-0.0221325
-0.000364263
-0.00115856
-0.00671262
0.00468426
0.15107
-0.00565953
-0.0146693
-0.0235092
-0.0296073
-0.0373892
-0.0312541
-0.0190912
-0.0241298
-0.0170363
0.00264229
-0.0221632
-0.0464771
-0.0604002
-0.0399693
0.0140812
-0.0292076
-0.0301472
-0.0121437
-0.0327496
-0.0113512
-0.00707456
-0.0778563
-0.0982872
-0.0828058
0.0342455
0.0297985
-0.0444843
-0.0108439
-0.0101418
390.656
391.509
392.721
394.186
395.782
397.398
398.891
400.181
401.014
401.499
390.272
391.182
392.491
394.078
395.808
397.568
399.218
400.627
401.501
402.033
389.441
390.468
391.977
393.828
395.825
397.879
399.83
401.411
402.412
403.068
388.108
389.272
391.137
393.362
395.767
398.275
400.587
402.357
403.743
404.75
386.179
387.503
389.725
392.576
395.655
398.689
401.512
403.88
405.925
407.405
382.118
383.807
386.778
390.208
394.353
398.569
402.438
406.058
408.923
411.079
376.972
380.854
385.85
390.439
394.937
399.805
404.364
409
413.746
417.095
181.015
194.355
223.838
263.836
310.525
355.123
388.356
407.378
420.531
426.987
0.254235
0.271823
0.355615
4.62172
18.1944
38.6978
71.3377
145.62
270.6
351.917
0.184592
0.17512
0.17415
0.184877
0.203501
0.236398
0.592311
3.32266
54.0203
119.074
0.139398
0.137033
0.129601
0.13095
0.121898
0.102439
0.110286
0.252684
0.0343966
-0.0065663
0.102179
0.108289
0.110021
0.104028
0.0858038
0.05234
0.00590336
-0.0258839
-0.0725394
-0.0596998
0.0713453
0.0772064
0.115355
0.110484
0.0984301
0.0547935
0.0245925
0.027375
8.56863e-05
-0.00373255
0.0733769
0.0935545
0.0578373
0.0806179
0.110089
0.0747953
0.0493245
0.044823
0.0216031
0.0157169
0.120565
0.134707
0.0869538
0.0296561
0.0418561
0.11165
0.110231
0.0813573
0.0765785
0.0325029
0.206725
0.182997
0.107729
0.0284571
0.0017449
0.0540594
0.124111
0.120804
0.0921144
0.0389612
0.194863
0.223301
0.170172
0.00881659
-0.021265
-0.00803128
0.104554
0.112318
0.037959
0.022015
0.184436
0.179309
0.119118
0.00126335
-0.0280969
-0.00944643
0.0982676
0.0771252
-0.00340372
0.00203633
0.117973
-0.0394126
-0.0380782
-0.00424361
0.0402382
0.141593
0.113777
0.0237941
-0.0200899
-0.0168811
-0.0627293
-0.07344
-0.0852634
-0.076171
-0.0114135
0.0441939
0.0426271
-0.0308832
-0.0235051
-0.0286109
391.869
392.657
393.825
395.28
396.901
398.555
400.06
401.541
402.322
402.824
391.575
392.415
393.675
395.25
397.019
398.849
400.591
402.154
402.938
403.479
390.929
391.883
393.34
395.177
397.243
399.406
401.52
403.106
404.011
404.659
389.812
390.962
392.721
394.981
397.489
400.045
402.357
404.203
405.576
406.818
388.609
389.946
392.12
394.8
397.888
400.958
403.783
406.272
408.328
410.235
385.226
387.148
389.976
393.449
397.53
401.803
405.661
409.331
412.456
414.584
382.846
385.425
389.391
393.884
398.834
404.143
409.058
413.826
419.157
421.974
228.32
248.671
282.409
319.137
356.918
392.439
413.313
421.241
428.529
434.111
1.7141
5.79604
14.7715
31.5957
59.5541
101.138
175.359
275.041
364.635
405.241
0.167765
0.152096
0.136342
0.159115
0.292309
0.662434
4.47413
53.8324
147.004
230.264
0.143742
0.137872
0.117244
0.10724
0.112134
0.141848
0.307143
0.489935
2.93349
0.640922
0.11219
0.135358
0.118686
0.0931474
0.0791618
0.0535475
0.014746
-0.0671291
-0.127595
-0.070644
0.0797819
0.0905025
0.131291
0.0937029