/*--------------------------------*- C++ -*----------------------------------*\
| =========                 |                                                 |
| \\      /  F ield         | OpenFOAM: The Open Source CFD Toolbox           |
|  \\    /   O peration     | Version:  2312                                  |
|   \\  /    A nd           | Website:  www.openfoam.com                      |
|    \\/     M anipulation  |                                                 |
\*---------------------------------------------------------------------------*/
FoamFile
{
    version     2.0;
    format      ascii;
    arch        "LSB;label=32;scalar=64";
    class       surfaceScalarField;
    location    "1.15";
    object      phi;
}
// * * * * * * * * * * * * * * * * * * * * * * * * * * * * * * * * * * * * * //

dimensions      [0 3 -1 0 0 0 0];

oriented        oriented;

internalField   nonuniform List<scalar> 
22600
(
1.10472e-07
1.79168e-08
-3.23843e-08
8.837e-08
5.13806e-08
-2.92788e-08
3.96347e-08
7.30416e-08
-2.43063e-08
-2.26141e-08
8.9861e-08
-2.76123e-08
-8.60868e-08
1.12305e-07
-4.88323e-08
-1.3308e-07
1.60169e-07
-1.13175e-07
-1.46171e-07
2.20622e-07
-2.07531e-07
-8.38695e-08
1.36784e-07
-1.99085e-07
2.86229e-08
-7.19093e-08
-4.05832e-08
2.21623e-08
6.46045e-09
1.41947e-07
6.26449e-10
-2.12211e-08
1.40263e-07
8.71208e-08
-3.40566e-08
1.11785e-07
1.37955e-07
-3.6434e-08
6.31851e-08
1.85898e-07
-4.74378e-08
8.53399e-09
2.57607e-07
-9.06512e-08
-5.5211e-08
3.79265e-07
-1.55351e-07
-1.78269e-07
4.47369e-07
-1.03688e-07
-2.26035e-07
6.06926e-08
1.23857e-07
-6.02264e-08
-5.82837e-07
3.45119e-07
-1.65592e-07
1.27528e-07
2.31283e-07
-1.96423e-07
9.77971e-08
2.10653e-07
9.09639e-08
1.67868e-08
1.66518e-07
1.98213e-07
-1.61232e-08
1.408e-07
2.62431e-07
-5.08142e-08
1.23159e-07
3.58233e-07
-8.29848e-08
-8.28803e-09
5.02936e-07
7.7761e-09
-3.38616e-07
5.20167e-07
2.5753e-07
-4.47784e-07
-2.96122e-07
4.65982e-07
-2.42961e-07
-1.27151e-06
4.83855e-07
-6.7299e-07
2.64437e-07
2.84593e-07
-5.61838e-07
2.37814e-07
3.33526e-07
-1.0566e-07
1.47691e-07
3.04217e-07
1.62892e-07
6.46296e-08
2.83028e-07
2.70747e-07
1.28721e-08
2.85641e-07
3.39434e-07
1.61862e-08
1.2452e-07
4.38408e-07
2.25648e-07
-2.094e-07
3.40855e-07
5.13232e-07
-3.52986e-07
-6.64708e-07
5.12172e-07
-2.40241e-07
-1.54265e-06
1.58387e-07
-1.0706e-06
1.57373e-07
2.46438e-07
-7.89409e-07
1.61497e-07
3.54647e-07
-4.42947e-07
2.29078e-07
4.228e-07
-1.11986e-07
2.06725e-07
4.60237e-07
5.50767e-08
1.78234e-07
5.15497e-07
9.31875e-08
1.90986e-07
5.12297e-07
1.19066e-07
3.22543e-07
2.93378e-07
3.93224e-08
5.20451e-07
-3.25444e-08
-8.35718e-07
4.96932e-07
-8.86664e-08
-1.35569e-06
-1.30832e-07
-1.04864e-06
-1.1063e-07
2.52788e-07
-8.84954e-07
-2.16657e-08
4.01486e-07
-6.60282e-07
6.8636e-08
5.65693e-07
-3.85592e-07
1.09399e-07
6.7451e-07
-1.52515e-07
9.8775e-08
7.52742e-07
-1.22757e-07
1.37714e-07
7.49411e-07
-1.78157e-07
3.00553e-07
5.12538e-07
-2.57542e-07
5.33737e-07
4.14213e-08
-7.25393e-07
3.60792e-07
-4.70712e-08
-8.72741e-07
-3.94458e-07
-7.3172e-07
-3.63992e-07
3.64762e-07
-9.19894e-07
-2.65107e-07
5.46521e-07
-5.73698e-07
-2.68343e-07
6.63794e-07
-2.13207e-07
-2.89657e-07
7.64678e-07
2.26609e-08
-2.76061e-07
7.98371e-07
1.29733e-08
-1.69424e-07
6.85e-07
-8.44165e-08
1.96302e-08
3.8562e-07
-1.54442e-07
1.96281e-07
7.1188e-08
-2.00448e-07
-2.10514e-07
2.84687e-08
-2.30403e-07
-5.99618e-07
-2.88765e-07
-4.14487e-07
5.47537e-07
-8.00558e-07
-5.69626e-07
6.58832e-07
-1.60844e-07
-5.24149e-07
7.12219e-07
2.58735e-07
-5.25329e-07
6.9817e-07
5.48139e-07
-5.11429e-07
6.35607e-07
6.79235e-07
-6.03699e-07
5.89273e-07
8.64134e-07
-9.02216e-07
5.40865e-07
1.08445e-06
-1.19049e-06
5.57192e-07
1.15367e-06
-1.37044e-06
4.86289e-07
1.02723e-06
-1.18673e-06
7.03819e-07
-5.06294e-07
1.23624e-06
-2.60651e-06
2.36391e-07
2.70829e-06
-1.83453e-06
2.01641e-07
3.99576e-06
-1.18936e-06
1.60624e-07
4.83833e-06
-5.54057e-07
2.59626e-07
4.28444e-06
6.39122e-07
5.93997e-07
2.92272e-06
2.12469e-06
1.01171e-07
1.53793e-06
3.11793e-06
-6.48693e-07
7.50244e-07
3.12111e-06
-1.17976e-06
5.32056e-07
2.54847e-06
-1.30305e-06
1.01246e-06
2.23411e-07
-2.5191e-06
-7.11885e-06
3.43206e-06
-1.41525e-06
-6.30155e-06
3.36317e-06
-2.99711e-07
-5.46067e-06
3.15578e-06
7.91779e-07
-4.61302e-06
2.96747e-06
3.25889e-06
-4.04348e-06
2.21549e-06
3.97842e-06
5.67823e-07
8.37338e-07
3.02915e-06
5.15855e-06
-1.09134e-06
1.66459e-06
6.57626e-06
-2.0906e-06
1.07118e-06
6.2315e-06
-3.08963e-06
4.18988e-06
-2.10622e-06
-1.67727e-06
-8.67996e-06
2.08624e-07
-4.90337e-07
-8.16068e-06
6.72183e-07
6.28749e-07
-7.64466e-06
1.06491e-06
1.16777e-06
-6.52776e-06
1.37572e-06
1.81953e-06
-6.01218e-06
1.31693e-06
3.31316e-06
-2.76621e-06
1.8404e-06
3.04705e-06
4.63339e-06
7.91257e-07
1.82359e-06
8.35952e-06
-5.59809e-07
1.16032e-06
8.4617e-06
-1.56694e-06
6.32406e-06
-9.73885e-07
-1.58765e-06
-8.00468e-06
-2.09363e-06
-5.59998e-08
-8.31159e-06
-1.38072e-06
1.28416e-06
-8.41073e-06
-5.74081e-07
1.91648e-06
-7.28106e-06
1.20967e-07
1.67058e-06
-5.91605e-06
1.49757e-07
2.50636e-06
-4.58066e-06
9.7868e-07
2.74393e-06
2.56949e-06
1.82631e-06
1.76972e-06
8.49384e-06
8.39909e-07
1.00957e-06
9.43736e-06
-2.15493e-07
7.05478e-06
2.78848e-07
-2.24553e-06
-6.91455e-06
-2.63632e-06
-2.75239e-07
-7.88841e-06
-2.39348e-06
1.23968e-06
-8.41252e-06
-1.51314e-06
2.01314e-06
-7.53784e-06
-5.16683e-07
2.21965e-06
-5.56678e-06
-5.55762e-07
2.30755e-06
-4.21691e-06
-4.51652e-07
2.27257e-06
1.35585e-06
1.24861e-06
1.30978e-06
8.11291e-06
1.34372e-06
5.88374e-07
9.19353e-06
9.65234e-07
6.49299e-06
1.15017e-06
-3.36764e-06
-6.93706e-06
-1.3103e-06
-1.6183e-06
-8.13887e-06
-1.49886e-06
-2.24613e-07
-8.32407e-06
-1.48211e-06
7.68019e-07
-7.25216e-06
-1.2783e-06
1.77247e-06
-4.69377e-06
-1.87746e-06
1.93861e-06
-2.8016e-06
-1.58147e-06
1.32471e-06
1.8044e-06
1.65347e-07
2.80087e-07
7.8085e-06
1.34903e-06
-1.74477e-07
8.05588e-06
1.59221e-06
4.79841e-06
1.5201e-06
-4.62461e-06
-7.28501e-06
-4.59673e-07
-3.52044e-06
-8.2533e-06
-9.89742e-07
-2.28971e-06
-7.92405e-06
-1.63074e-06
-1.24251e-06
-6.05855e-06
-2.24083e-06
2.01289e-07
-2.91396e-06
-3.22362e-06
2.31377e-07
-6.05502e-07
-2.22619e-06
-9.24986e-07
3.11539e-06
-1.54619e-07
-1.80757e-06
7.12778e-06
1.5633e-06
-1.36011e-06
5.82073e-06
1.78769e-06
2.05789e-06
1.38041e-06
-6.21063e-06
-7.21295e-06
-2.29354e-07
-5.66064e-06
-8.04519e-06
-7.58094e-07
-4.69798e-06
-7.25339e-06
-1.63331e-06
-3.66412e-06
-4.64227e-06
-2.45014e-06
-2.51656e-06
-1.18263e-06
-2.87888e-06
-3.06493e-06
1.59594e-06
-1.65306e-06
-4.24914e-06
4.27384e-06
2.57684e-08
-3.96064e-06
5.54112e-06
1.29816e-06
-1.96904e-06
2.90318e-06
9.25953e-07
-2.02103e-09
9.08708e-08
-7.39588e-06
-6.73246e-06
-2.528e-07
-7.30185e-06
-7.6688e-06
-4.70402e-07
-6.81999e-06
-6.78375e-06
-9.5151e-07
-6.4551e-06
-3.97511e-06
-1.03204e-06
-6.37387e-06
-2.98442e-07
-9.6542e-07
-6.86104e-06
2.53849e-06
-4.5538e-07
-6.61917e-06
3.96593e-06
6.60277e-08
-4.64059e-06
3.69595e-06
-1.33408e-07
-1.79171e-06
1.14587e-06
-1.09157e-06
-4.26921e-07
-1.36681e-06
-7.66993e-06
-5.89424e-06
-5.76753e-07
-7.89272e-06
-7.04882e-06
-3.97193e-07
-7.51022e-06
-6.36455e-06
-8.01702e-07
-7.46626e-06
-4.07121e-06
5.21232e-08
-7.86968e-06
-8.86828e-07
9.91801e-07
-7.75747e-06
1.66293e-06
7.63349e-07
-6.39681e-06
2.54729e-06
5.79796e-08
-3.74101e-06
1.80183e-06
-7.61671e-07
-1.26803e-06
5.2745e-08
-1.37986e-06
-7.18877e-07
-9.76078e-07
-6.97575e-06
-4.86809e-06
-1.0662e-06
-7.33413e-06
-6.18442e-06
-5.06028e-07
-6.88627e-06
-5.8214e-06
-9.91015e-07
-6.09045e-06
-3.98038e-06
-8.86643e-07
-5.97627e-06
-1.70192e-06
7.00919e-07
-5.56998e-06
7.2669e-08
1.18399e-06
-4.21812e-06
8.95548e-07
2.99893e-07
-2.47182e-06
5.01911e-07
-4.46391e-07
-1.28016e-06
-4.52469e-07
-6.86453e-07
-7.55349e-07
-1.2437e-06
-5.86943e-06
-1.34427e-06
-3.98715e-06
-6.02525e-06
-8.70955e-07
-5.15764e-06
-5.94192e-06
-6.58122e-07
-5.24659e-06
-4.78966e-06
-1.40942e-06
-3.72323e-06
-3.72291e-06
-1.08457e-06
-1.6841e-06
-2.76282e-06
-3.17072e-07
-5.70349e-07
-1.5459e-06
-2.95228e-07
-2.61545e-08
-6.00417e-07
-7.13518e-07
2.69941e-07
-5.34869e-07
-5.49213e-07
3.11983e-08
-9.39455e-07
-3.50759e-07
6.70685e-08
-7.11819e-09
1.7546e-08
-5.80271e-09
3.11031e-08
1.24893e-08
-8.73541e-08
4.9836e-08
7.40909e-09
-1.71107e-07
6.42517e-08
-8.1114e-09
-2.48787e-07
8.33965e-08
-5.4549e-08
-2.96928e-07
8.67888e-08
-1.51823e-07
-2.49252e-07
-3.02627e-08
-2.24945e-07
-6.49998e-08
-2.64048e-07
-1.1929e-07
1.02736e-07
-2.60482e-07
5.21627e-08
1.0632e-07
2.87678e-09
1.05876e-07
-4.8335e-08
3.51121e-08
5.58772e-08
3.55121e-08
1.15329e-08
-1.53902e-08
8.89779e-08
-4.30862e-09
-1.13637e-07
1.57476e-07
-4.24151e-08
-2.53953e-07
2.55283e-07
-1.22222e-07
-4.47912e-07
2.57247e-07
-1.31851e-07
-6.42718e-07
-9.1476e-08
1.52331e-07
-5.36385e-07
-7.69339e-07
5.22815e-07
-1.10471e-07
-9.48699e-07
6.07421e-07
3.676e-08
8.66169e-08
1.71143e-07
-1.53325e-07
1.86104e-07
6.64148e-08
9.77549e-08
5.92723e-08
-1.76633e-08
1.52977e-07
3.9554e-09
-9.78527e-08
2.53753e-07
-6.69023e-08
-2.38941e-07
4.10105e-07
-9.67183e-08
-5.12134e-07
3.82517e-07
1.557e-07
-8.02482e-07
-1.33415e-07
5.89817e-07
-6.28513e-07
-1.19204e-06
7.14716e-07
-3.20817e-07
-1.4072e-06
6.34661e-07
-3.54571e-07
3.34951e-07
2.50232e-07
-4.18204e-07
4.1796e-07
1.94352e-07
8.00934e-08
2.21233e-07
9.39713e-08
2.34078e-07
8.39093e-08
6.79628e-08
3.247e-07
-3.20661e-08
6.88736e-08
4.48053e-07
-2.26726e-08
-5.37825e-08
4.17224e-07
3.13597e-07
-2.22899e-07
-1.22363e-07
6.71297e-07
-1.31679e-07
-1.33721e-06
5.66126e-07
-1.83935e-07
-1.29648e-06
9.99227e-08
-6.35215e-07
2.54083e-07
2.16493e-07
-5.89186e-07
4.00155e-07
2.57578e-07
-8.40692e-08
3.52156e-07
2.46548e-07
1.92523e-07
2.59311e-07
2.92789e-07
3.07414e-07
1.49279e-07
4.43242e-07
3.72886e-07
1.157e-07
5.53566e-07
3.11934e-07
3.17509e-07
4.60539e-07
-1.72159e-07
6.63273e-07
2.17405e-07
-1.10942e-06
5.12272e-07
-3.64326e-08
-8.32184e-07
-3.41292e-07
-4.83003e-07
-2.99274e-07
1.65283e-07
-5.97927e-07
2.21798e-07
1.94109e-07
-3.13796e-07
2.69537e-07
3.4628e-07
-9.77362e-08
2.47488e-07
4.91411e-07
9.76679e-08
1.6339e-07
6.43011e-07
1.99375e-07
1.59624e-07
7.34277e-07
1.86818e-07
3.34403e-07
5.94795e-07
-9.00475e-08
5.91108e-07
3.59111e-08
-3.60413e-07
1.70668e-07
-2.33785e-07
-2.56518e-07
-7.00429e-07
-2.43908e-07
-8.36873e-07
3.31302e-07
-7.25289e-07
-1.37087e-07
3.65256e-07
-4.49951e-07
-1.66142e-07
4.57413e-07
-2.11168e-07
-2.68382e-07
6.0401e-07
-1.1082e-08
-3.13909e-07
6.95607e-07
1.34063e-07
-1.95709e-07
6.36327e-07
2.79987e-07
-1.42588e-08
3.94746e-07
3.6868e-07
-2.08658e-08
-9.79795e-08
4.98539e-07
-5.7674e-07
-2.99845e-07
2.77415e-07
-9.31685e-07
-1.15924e-07
-8.42316e-07
4.39936e-07
-8.13762e-07
-7.62418e-07
4.61896e-07
-1.73925e-07
-8.22136e-07
4.97862e-07
1.2849e-07
-9.00952e-07
6.32614e-07
3.16237e-07
-9.73499e-07
8.3723e-07
4.74323e-07
-1.14858e-06
8.70266e-07
8.38352e-07
-1.49362e-06
8.16376e-07
1.08314e-06
-1.85106e-06
6.89504e-07
1.36647e-06
-2.11151e-06
3.86972e-07
1.71769e-06
-2.32448e-06
1.24707e-06
-1.48232e-06
5.13015e-07
-2.33675e-06
2.32559e-07
2.16896e-06
-1.3629e-06
-2.65328e-07
3.85663e-06
-7.79697e-07
-6.18862e-07
5.74031e-06
-1.64428e-07
-1.14339e-06
6.22097e-06
1.75275e-06
-1.16509e-06
5.94484e-06
3.75817e-06
-2.54251e-06
4.69364e-06
4.81094e-06
-3.12529e-06
2.85737e-06
4.76036e-06
-2.73738e-06
1.77906e-06
4.90005e-06
-3.4071e-06
5.86949e-06
-2.61995e-06
-5.20591e-06
-4.1552e-06
4.21046e-06
-3.92288e-06
-3.33372e-06
4.05096e-06
-2.14355e-06
-2.73986e-06
3.33663e-06
9.12261e-07
-2.45568e-06
2.20291e-06
4.89516e-06
-4.37795e-07
4.23131e-07
6.25958e-06
4.04947e-06
-8.18383e-07
4.71499e-06
6.6464e-06
-1.38221e-06
2.12435e-06
6.16889e-06
-9.08484e-07
9.1459e-07
5.87219e-06
-2.85202e-06
7.41054e-06
-2.73267e-06
-4.49519e-06
-5.54661e-06
6.25866e-07
-3.30909e-06
-4.17082e-06
3.23176e-07
-1.94318e-06
-3.37996e-06
3.39092e-07
-5.24398e-07
-3.89922e-06
1.40048e-06
2.2578e-06
-4.37071e-06
2.46766e-06
5.43961e-06
-5.91946e-07
3.30001e-06
4.98065e-06
5.79371e-06
2.10291e-06
2.18922e-06
7.39447e-06
1.00602e-06
4.73401e-07
6.70443e-06
-6.83363e-07
8.5415e-06
-1.63143e-06
-3.63142e-06
-4.82173e-06
-4.40203e-06
-1.71511e-06
-3.54604e-06
-3.92178e-06
-2.15387e-07
-3.14005e-06
-2.3137e-06
6.58788e-08
-4.42893e-06
3.69421e-07
4.59202e-07
-5.86667e-06
1.25237e-06
3.20993e-06
-5.00131e-06
2.63731e-06
4.79809e-06
2.46067e-06
3.57118e-06
2.82361e-06
7.53158e-06
2.67726e-06
5.21323e-07
7.62052e-06
1.17071e-06
8.98379e-06
3.5786e-07
-3.15688e-06
-5.55965e-06
-4.59706e-06
-2.78056e-07
-4.06334e-06
-4.75499e-06
1.45478e-06
-3.09784e-06
-3.28818e-06
8.33514e-07
-3.95259e-06
-3.71785e-07
2.36651e-07
-5.40032e-06
-4.25268e-07
1.34439e-06
-5.6906e-06
-8.70084e-07
3.70349e-06
-1.16579e-07
1.46677e-06
2.89117e-06
7.03113e-06
2.6565e-06
6.37952e-07
8.55481e-06
2.28416e-06
8.80986e-06
1.96204e-06
-4.94353e-06
-7.8344e-06
-1.67146e-06
-1.65846e-06
-6.48906e-06
-2.35823e-06
3.19929e-07
-4.03974e-06
-2.5186e-06
3.05304e-07
-3.57815e-06
-1.63812e-06
1.95033e-07
-4.23401e-06
-2.93347e-06
7.45554e-07
-4.33366e-06
-3.48893e-06
2.03465e-06
-3.37827e-07
-9.02501e-07
1.91752e-06
6.70233e-06
1.79496e-06
3.56757e-07
8.76257e-06
2.9452e-06
7.78371e-06
2.90301e-06
-6.64989e-06
-9.04934e-06
-6.39239e-07
-4.16714e-06
-8.5174e-06
-1.44412e-06
-1.74758e-06
-5.38969e-06
-2.70034e-06
-1.13795e-06
-3.0391e-06
-3.3895e-06
-9.14345e-07
-2.96846e-06
-4.71278e-06
-8.73083e-07
-2.48131e-06
-4.11981e-06
-2.65154e-07
9.03728e-07
-2.00411e-06
-1.15268e-07
6.59234e-06
1.52341e-06
-6.53137e-07
7.88868e-06
3.19945e-06
5.67593e-06
2.83505e-06
-7.54641e-06
-8.91132e-06
-4.01316e-07
-6.44014e-06
-9.60761e-06
-7.74142e-07
-4.20814e-06
-6.43567e-06
-2.81934e-06
-2.91009e-06
-2.47943e-06
-4.30787e-06
-2.80449e-06
-1.34041e-06
-4.61253e-06
-3.50563e-06
5.92614e-08
-3.4925e-06
-3.86935e-06
3.15809e-06
-1.86487e-06
-3.02513e-06
6.49127e-06
5.55022e-07
-1.66463e-06
5.7912e-06
1.66293e-06
2.73479e-06
1.36738e-06
-7.27694e-06
-7.32825e-06
-1.06763e-06
-7.76051e-06
-9.7562e-06
1.61744e-07
-6.59196e-06
-7.64449e-06
-9.11254e-07
-5.21698e-06
-2.18694e-06
-2.6995e-06
-5.33314e-06
6.12881e-07
-2.80254e-06
-6.4029e-06
2.69785e-06
-2.0242e-06
-6.65436e-06
4.77004e-06
-1.29446e-06
-4.77435e-06
5.2037e-06
-7.25844e-07
-1.83637e-06
2.75335e-06
-9.91711e-07
4.78778e-07
-9.47175e-07
-5.6498e-06
-4.59596e-06
-2.68514e-06
-7.40137e-06
-8.40402e-06
2.18938e-09
-7.94431e-06
-8.71338e-06
8.10138e-07
-7.33277e-06
-3.26498e-06
5.18617e-07
-7.5387e-06
1.51298e-06
2.97645e-07
-7.88836e-06
3.44029e-06
3.70577e-07
-7.29492e-06
4.03382e-06
2.00746e-07
-4.6713e-06
2.25654e-06
-4.38132e-07
-1.58491e-06
-5.70584e-07
-1.14233e-06
-7.79664e-07
-1.30255e-06
-3.27873e-06
-1.92604e-06
-4.17164e-06
-5.08331e-06
-5.36917e-06
-1.73628e-06
-6.99798e-06
-8.56022e-06
7.70498e-07
-7.11457e-06
-5.6674e-06
1.63236e-06
-7.39784e-06
1.00366e-07
2.39681e-06
-7.15752e-06
2.12207e-06
2.26187e-06
-5.51497e-06
1.59195e-06
1.09922e-06
-2.63736e-06
-7.59695e-07
-3.07773e-07
-7.1384e-07
-2.14335e-06
-1.03721e-06
-1.86973e-06
-8.67468e-07
-1.51714e-06
-4.29748e-06
-5.00226e-07
-2.02557e-06
-3.72008e-06
-2.0116e-06
-4.46547e-06
-4.58919e-07
-6.31953e-06
-5.4109e-06
1.11231e-06
-7.24371e-06
-4.77656e-06
1.9879e-06
-3.60644e-06
-3.80334e-06
2.22937e-06
-1.39759e-06
-1.87773e-06
1.08323e-06
-1.71212e-06
-1.02345e-07
-4.66611e-07
-2.78198e-06
3.65286e-07
-9.58315e-07
-2.20187e-06
-1.24054e-07
-2.31985e-06
5.62775e-08
-3.30983e-08
9.64778e-08
-2.00473e-08
7.65523e-09
8.11588e-08
-1.16573e-07
3.742e-08
6.65143e-08
-2.32251e-07
5.89449e-08
4.86219e-08
-3.74808e-07
6.49692e-08
2.30386e-08
-4.60187e-07
-7.05041e-08
4.06038e-09
-3.07774e-07
-4.34052e-07
5.66943e-08
6.53277e-08
-6.5623e-07
1.63839e-07
2.19619e-07
-2.47511e-07
1.45382e-07
2.16854e-07
5.64175e-09
9.11548e-08
-8.96324e-08
1.16598e-07
3.53333e-08
-7.35414e-09
8.23637e-08
-5.24067e-08
6.71804e-08
5.36709e-08
-2.09132e-07
1.62848e-07
1.04063e-08
-4.5733e-07
2.25479e-07
-3.45334e-08
-6.83843e-07
-4.06423e-08
6.48002e-08
-7.21707e-07
-6.76122e-07
4.32265e-07
-4.24193e-07
-1.16377e-06
7.32841e-07
2.48321e-09
-6.30796e-07
5.64029e-07
3.52508e-07
-4.65542e-08
1.1331e-07
-7.53122e-08
2.06129e-07
1.72665e-08
4.80951e-08
9.98666e-08
-7.2909e-08
1.22414e-07
3.88976e-08
-2.24979e-07
2.76376e-07
-2.83603e-08
-4.37843e-07
3.73906e-07
-3.22808e-08
-6.08672e-07
6.11904e-08
2.24696e-07
-6.82702e-07
-6.46949e-07
6.34675e-07
-5.13391e-07
-1.39628e-06
7.77915e-07
-2.26962e-07
-8.70853e-07
5.88289e-07
4.16752e-07
4.37454e-08
1.91945e-07
-1.07765e-07
4.08816e-07
9.48375e-08
1.47763e-07
2.18672e-07
2.77755e-09
2.16377e-07
8.20059e-08
-5.73123e-08
3.39612e-07
-3.52124e-08
-8.99451e-08
4.3399e-07
-5.01246e-08
-1.00947e-07
2.1533e-07
1.70459e-07
-7.35689e-08
-4.90179e-07
4.87149e-07
-1.15137e-07
-1.28664e-06
4.98055e-07
-2.52887e-07
-7.06237e-07
7.30572e-08
3.9488e-07
2.30677e-08
2.13929e-07
-1.72499e-07
4.67312e-07
1.85703e-07
2.16805e-07
3.11339e-07
1.16817e-07
3.71408e-07
1.73166e-07
1.37344e-07
4.50971e-07
1.73931e-08
2.35321e-07
4.99362e-07
-4.76484e-08
3.29484e-07
3.24177e-07
1.14499e-07
3.20183e-07
-2.88628e-07
4.71023e-07
4.29725e-08
-8.19182e-07
3.22023e-07
-2.11851e-07
-2.9618e-07
-4.96525e-07
4.22121e-07
-5.38366e-07
1.7786e-07
-1.23276e-07
3.49136e-07
1.45439e-07
2.04601e-07
3.14161e-07
1.92244e-07
3.13943e-07
2.58148e-07
3.08982e-07
3.7121e-07
1.26412e-07
4.42027e-07
4.63978e-07
6.19624e-08
4.82864e-07
4.04222e-07
2.13521e-07
2.85424e-07
9.19584e-08
4.07962e-07
-2.42583e-07
-3.86306e-08
-8.18756e-08
-4.04157e-07
1.55483e-08
-8.50584e-07
2.02406e-07
-1.02131e-06
2.67308e-07
-2.50278e-07
6.90788e-08
2.41076e-07
1.35573e-08
5.11332e-08
3.25043e-07
1.27505e-08
-5.11566e-08
4.61791e-07
8.98598e-08
-1.69307e-07
5.29737e-07
3.50221e-07
-1.49897e-07
4.31568e-07
5.84554e-07
-9.64211e-08
1.51306e-07
5.89122e-07
-2.37767e-07
-3.17023e-07
5.15053e-07
-6.62095e-07
-4.76667e-07
1.73905e-07
-9.30399e-07
-1.62009e-07
-9.54569e-07
3.91462e-07
-7.96274e-07
-4.75911e-07
4.06003e-07
-2.25188e-07
-5.97931e-07
3.34846e-07
-7.44676e-09
-8.09598e-07
3.78574e-07
1.45999e-07
-1.07337e-06
4.70867e-07
5.26411e-07
-1.41706e-06
5.22996e-07
7.27434e-07
-1.68863e-06
6.91961e-07
5.55175e-07
-1.98608e-06
7.80748e-07
6.75199e-07
-2.36044e-06
3.6299e-07
1.05531e-06
-2.78812e-06
8.76336e-07
-2.15768e-06
3.44718e-07
-1.76379e-06
4.20181e-08
1.70926e-06
-1.08683e-06
-7.68227e-07
3.38727e-06
-3.30739e-07
-1.97359e-06
5.14291e-06
1.01873e-06
-3.77176e-06
4.77774e-06
4.57334e-06
-4.84685e-06
4.28266e-06
4.5641e-06
-5.88409e-06
3.24947e-06
3.42536e-06
-4.96229e-06
2.50201e-06
2.49565e-06
-3.81038e-06
1.8342e-06
2.87481e-06
-4.55878e-06
4.30192e-06
-4.21134e-06
-5.74579e-06
1.17524e-06
7.74871e-07
-4.79824e-06
2.01611e-06
4.47574e-10
-2.20297e-06
2.76963e-06
-2.35901e-06
5.07632e-07
4.12925e-06
-3.61823e-06
2.70123e-06
6.11723e-06
-3.31437e-06
2.86611e-06
5.69397e-06
-2.11314e-06
1.47645e-06
4.32339e-06
-8.90599e-07
6.63031e-07
1.94712e-06
4.53487e-07
7.35719e-07
2.51196e-06
-2.56184e-06
6.2132e-06
-3.90826e-06
-8.10205e-06
2.68567e-06
-1.85289e-06
-6.22356e-06
3.84368e-06
-3.38288e-06
-3.64986e-06
4.61495e-06
-4.07995e-06
-1.38641e-06
5.20482e-06
-1.93856e-06
1.65694e-06
5.16755e-06
3.74024e-07
4.15734e-06
4.22876e-06
2.26482e-06
3.58998e-06
4.52844e-06
2.46521e-06
1.0094e-06
2.73026e-06
2.80348e-06
8.8235e-08
2.27223e-06
4.77519e-07
6.78994e-06
-2.11992e-06
-6.32851e-06
3.70733e-06
-6.00742e-06
-4.80025e-06
4.89648e-06
-6.50284e-06
-2.95909e-06
5.13033e-06
-4.67025e-06
-1.54903e-06
4.70426e-06
-5.4006e-07
5.8321e-07
1.43167e-06
2.85604e-06
3.72786e-06
1.85508e-08
3.70284e-06
5.29344e-06
2.26542e-06
4.26864e-06
3.20071e-06
3.47861e-06
4.02166e-06
7.16391e-07
2.97279e-06
2.95443e-06
7.20829e-06
6.55916e-07
-2.32366e-06
1.45749e-06
-4.09335e-06
-1.31553e-06
4.74444e-06
-5.61109e-06
-5.51132e-07
5.18661e-06
-4.10887e-06
3.6227e-07
3.35766e-06
6.14267e-08
1.25773e-06
-1.44385e-06
1.55479e-06
2.99201e-06
-2.86856e-06
2.82739e-07
4.99987e-06
-1.1497e-07
1.83931e-06
4.29829e-06
3.33383e-06
3.50285e-06
1.34062e-06
4.20504e-06
4.0096e-06
7.49614e-06
3.0148e-06
-2.43395e-06
-4.19369e-06
-1.44104e-07
1.03672e-06
4.43519e-07
-1.52798e-06
2.05939e-06
4.18559e-06
-2.54025e-06
1.32004e-06
2.82757e-06
-3.68673e-07
-7.21068e-08
-1.86609e-06
-1.11909e-06
-7.15219e-08
-3.61812e-06
-2.73996e-06
1.67659e-06
-7.53073e-07
-2.01251e-06
2.45266e-06
2.86378e-06
1.48893e-06
5.70413e-07
4.84266e-06
4.18983e-06
6.9577e-06
4.01187e-06
-5.81432e-06
-7.79206e-06
7.4524e-09
-1.27004e-06
-5.5552e-06
1.03315e-08
1.6857e-06
-1.90948e-07
-1.27954e-06
3.30456e-07
2.30217e-06
-1.50885e-06
-2.51256e-06
-1.256e-06
-2.47987e-06
-4.11786e-06
-3.13767e-06
-2.99497e-06
-3.55299e-06
-5.23641e-07
-2.79841e-06
-1.75455e-06
2.3297e-06
2.59045e-07
-1.08025e-06
4.52378e-06
2.84404e-06
5.24257e-06
3.46993e-06
-7.37368e-06
-7.83374e-06
-1.09863e-06
-5.08872e-06
-8.58282e-06
-3.14937e-08
-1.58654e-06
-5.1115e-06
-1.40098e-06
-1.30899e-06
1.96218e-07
-2.47946e-06
-4.25482e-06
-7.42488e-07
-2.18021e-06
-7.46309e-06
-1.88297e-06
-1.53893e-06
-7.65321e-06
-1.02233e-06
-1.17604e-06
-4.81372e-06
5.00522e-08
-4.83146e-09
-1.6631e-06
2.02123e-06
1.01486e-06
3.38192e-06
1.56492e-06
-6.53937e-06
-5.51614e-06
-3.02763e-06
-6.74566e-06
-8.34545e-06
1.30661e-07
-5.04973e-06
-7.65771e-06
-6.09657e-08
-3.70021e-06
-2.08186e-06
-1.77094e-06
-6.02159e-06
-6.63689e-08
-1.15726e-06
-8.75653e-06
-9.67359e-07
-2.04876e-07
-7.98329e-06
-2.80479e-06
-2.85247e-07
-4.46417e-06
-3.97456e-06
-2.20343e-07
-1.26126e-06
-2.17485e-06
1.44982e-09
1.26553e-06
-9.20409e-08
-4.33226e-06
-2.54184e-06
-5.3399e-06
-6.01838e-06
-5.58396e-06
-1.07316e-06
-6.92892e-06
-7.69084e-06
1.75381e-06
-5.79399e-06
-4.24971e-06
1.55154e-06
-6.55227e-06
-2.07128e-07
1.19667e-06
-7.28e-06
-1.2927e-06
1.42363e-06
-5.63981e-06
-4.92149e-06
6.7725e-07
-2.89605e-06
-7.03929e-06
-1.17156e-07
-8.52089e-07
-5.24209e-06
-1.19046e-07
-1.06542e-06
1.7631e-07
-2.02513e-06
-6.62719e-07
-6.39335e-06
-3.21602e-06
-2.08551e-06
-4.04383e-06
-5.92877e-06
-5.20666e-06
9.99066e-07
-6.20899e-06
-5.80402e-06
3.46688e-06
-5.35054e-06
-2.81161e-06
4.14283e-06
-4.95122e-06
-3.06911e-06
3.63897e-06
-3.93252e-06
-6.59568e-06
1.75471e-06
-2.39591e-06
-8.39139e-06
-4.9228e-07
-6.77046e-07
-6.92871e-06
-1.06945e-06
-2.71919e-06
1.09243e-07
-6.55153e-07
-5.94263e-06
-8.89766e-09
-2.09866e-07
-5.70582e-06
-5.45049e-07
-2.21826e-06
-2.11041e-06
-1.54677e-06
-4.72457e-06
2.46643e-06
-4.65183e-06
-4.43686e-06
4.53806e-06
-5.64948e-06
-4.01591e-06
4.35245e-06
-5.61314e-06
-4.02285e-06
1.90233e-06
-7.40783e-06
-3.32838e-06
-1.01637e-06
-8.5361e-06
-1.3769e-06
-2.22304e-06
-7.61548e-06
-8.56777e-07
-3.36336e-06
4.90759e-08
-1.46736e-08
1.55306e-07
-1.93208e-08
1.6125e-08
1.3343e-07
-1.09501e-07
4.63209e-08
1.10374e-07
-2.21386e-07
6.18008e-08
9.87061e-08
-3.54518e-07
5.15041e-08
1.04666e-07
-4.30344e-07
-7.71255e-08
1.57011e-07
-2.37893e-07
-4.20795e-07
2.85038e-07
1.78501e-07
-6.31771e-07
3.79216e-07
2.27759e-07
-1.16075e-07
2.122e-07
2.05664e-07
2.77365e-08
7.13194e-08
-6.09701e-08
1.99739e-07
1.66273e-08
-1.23523e-09
1.54416e-07
-6.09055e-08
6.95559e-08
1.07969e-07
-2.04756e-07
1.44918e-07
7.11391e-08
-4.3801e-07
1.85262e-07
6.49627e-08
-6.05628e-07
-4.27127e-08
1.98005e-07
-4.69623e-07
-6.61446e-07
5.36912e-07
-8.17338e-08
-1.04709e-06
7.60275e-07
1.57296e-07
-2.00825e-07
4.09748e-07
4.0988e-07
-9.34732e-08
8.37061e-08
-3.7123e-08
2.29963e-07
1.10739e-08
1.94514e-08
1.51812e-07
-7.58273e-08
1.10084e-07
8.52708e-08
-2.43226e-07
2.51764e-07
3.21928e-08
-4.55436e-07
3.28579e-07
3.66128e-08
-5.20988e-07
1.15061e-08
2.3603e-07
-4.05606e-07
-7.36335e-07
5.94181e-07
-2.96191e-07
-1.15495e-06
7.76355e-07
-1.25228e-07
-2.3403e-07
4.50531e-07
5.29865e-07
-2.01468e-07
1.53941e-07
5.65945e-08
3.09618e-07
6.55388e-08
1.23753e-07
2.02773e-07
-2.47566e-08
1.84431e-07
9.79544e-08
-1.35049e-07
3.21189e-07
5.65584e-09
-2.09284e-07
3.77241e-07
-2.45523e-08
-1.66413e-07
7.05783e-08
6.85161e-08
-6.25723e-08
-6.5815e-07
3.05123e-07
-1.92744e-07
-9.40418e-07
4.13697e-07
-3.03184e-07
-7.51253e-08
2.45917e-08
5.86188e-07
-3.36439e-07
2.15477e-07
1.11793e-07
3.6062e-07
1.54067e-07
2.49759e-07
2.46743e-07
4.86755e-08
3.44855e-07
1.18133e-07
-2.42516e-08
4.36829e-07
-2.53201e-08
-2.91524e-08
4.30037e-07
-9.55435e-08
3.10037e-08
1.34373e-07
-9.45235e-09
4.11948e-08
-4.07527e-07
2.10209e-07
-2.08635e-07
-4.63367e-07
9.48015e-08
-3.89562e-07
1.47095e-07
-5.37819e-07
4.08533e-07
-7.50273e-07
2.37878e-07
1.60467e-07
3.01246e-07
1.68296e-07
3.59872e-07
2.73631e-07
8.6892e-08
4.69779e-07
2.14628e-07
9.34633e-08
4.56677e-07
9.99935e-08
1.51169e-07
4.01019e-07
3.32749e-08
1.22631e-07
2.73104e-07
1.03329e-07
-1.10811e-07
6.77263e-08
1.6615e-07
-4.82718e-07
4.51133e-08
-2.1845e-07
-4.53596e-07
4.92616e-08
-7.81872e-07
-4.16187e-08
-1.02476e-06
3.47024e-07
4.60723e-08
1.66588e-07
2.50805e-07
2.86536e-07
2.20688e-07
2.01457e-07
3.16686e-07
1.51283e-07
2.34842e-07
2.35865e-07
1.81209e-08
2.60794e-07
2.72899e-07
-4.77295e-08
1.21212e-07
4.17286e-07
-1.0102e-07
-1.52842e-07
3.5344e-07
-2.49427e-07
-3.88161e-07
1.25204e-07
-5.06867e-07
-3.91859e-07
-1.48451e-07
-7.28988e-07
-4.74125e-07
-9.13921e-07
3.73501e-07
-5.51109e-07
-8.97427e-08
3.33993e-07
-3.82697e-08
-2.33617e-07
2.31269e-07
1.18363e-07
-5.08552e-07
1.69305e-07
6.3822e-08
-8.39359e-07
1.57349e-07
8.13811e-08
-1.21358e-06
2.80197e-07
4.90285e-08
-1.44322e-06
5.91081e-07
-2.77426e-07
-1.66609e-06
9.58158e-07
-5.91848e-07
-2.01047e-06
6.31211e-07
-1.71122e-07
-2.4385e-06
8.43848e-08
-2.08497e-06
2.80561e-07
-1.20273e-06
6.77346e-08
9.82016e-07
-8.86149e-07
-6.218e-07
2.18527e-06
-1.06953e-06
-1.98896e-06
4.88565e-06
-2.01798e-06
-4.39034e-06
4.19262e-06
2.62637e-06
-6.69882e-06
4.21283e-06
9.10391e-07
-6.76565e-06
4.00057e-06
4.13763e-07
-5.44122e-06
4.00002e-06
3.62655e-08
-4.43795e-06
2.85166e-06
1.68025e-06
-5.2618e-06
3.591e-06
-4.86631e-06
-6.49983e-06
3.38863e-06
-3.4189e-06
-6.39411e-06
3.13236e-06
-4.1238e-06
-4.91871e-06
1.70318e-06
-6.60711e-06
-3.67795e-06
-3.65522e-07
-6.51143e-06
-1.92543e-06
1.33975e-06
-3.78027e-06
-9.87172e-07
-3.63774e-07
-1.77722e-06
-2.31386e-07
-8.55933e-07
-3.76699e-07
1.09788e-06
-1.12902e-06
2.8949e-07
1.5099e-06
1.61634e-06
-2.90995e-06
5.48244e-06
-4.28982e-06
-7.01783e-06
5.55692e-06
-4.61583e-06
-5.9796e-06
5.1082e-06
-6.39695e-06
-4.40751e-06
3.27583e-06
-7.22467e-06
-3.00776e-06
1.02435e-06
-4.72819e-06
-1.07968e-06
1.00733e-06
-1.22165e-06
9.63316e-07
-1.0028e-06
8.60888e-07
1.05333e-06
-8.19346e-07
2.33861e-06
-6.15224e-08
-7.88192e-07
3.57748e-06
1.27215e-07
1.72083e-06
1.84316e-07
6.12151e-06
-2.6318e-06
-5.27337e-06
4.76058e-06
-6.02231e-06
-4.49939e-06
5.20818e-06
-7.3768e-06
-3.55359e-06
3.5516e-06
-5.8918e-06
-2.60263e-06
1.5692e-06
-2.03585e-06
-8.62308e-07
1.04896e-06
1.07407e-06
1.74611e-06
-2.04522e-06
2.13684e-06
2.8983e-06
-8.56984e-07
3.15405e-06
1.12191e-06
1.76887e-07
4.83297e-06
-1.26604e-07
1.82596e-06
4.09782e-06
6.56045e-06
9.03758e-08
-2.1831e-06
1.78904e-06
-2.43106e-06
-2.17192e-06
4.98023e-06
-5.3943e-06
-2.30847e-06
4.01787e-06
-4.43857e-06
-2.42672e-06
2.01453e-06
-2.65697e-07
-1.78603e-06
-2.36234e-08
1.98668e-06
-7.39265e-07
-3.5798e-06
7.70535e-07
1.25235e-06
-2.03246e-06
1.02318e-06
1.3548e-06
1.00247e-07
3.47706e-06
-2.31874e-08
2.26288e-06
4.95064e-06
6.61734e-06
2.93472e-06
-9.2425e-07
-3.4649e-06
1.07687e-06
6.79152e-07
2.61073e-06
-7.61896e-07
-3.58515e-07
5.29183e-06
-2.77653e-06
-2.42577e-06
3.50856e-06
2.04555e-07
-4.61363e-06
-7.96298e-07
1.84147e-06
-5.37918e-06
-5.43362e-06
-1.20577e-07
-3.75577e-06
-5.10402e-06
-5.64358e-07
-1.607e-06
-2.16958e-06
1.61e-06
-1.22343e-06
1.72326e-06
4.34587e-06
5.31939e-06
4.08639e-06
-4.16565e-06
-7.24019e-06
1.9584e-07
3.85304e-08
-3.02079e-06
1.43768e-06
1.39445e-06
3.07103e-06
-4.14649e-07
-1.74319e-06
4.64703e-06
4.90343e-07
-5.70048e-06
-1.13321e-06
1.81434e-06
-7.6291e-06
-6.90893e-06
4.08956e-07
-6.67763e-06
-8.35156e-06
-5.02346e-07
-3.69577e-06
-5.63617e-06
7.43764e-07
-1.54556e-06
-4.01921e-07
2.81901e-06
3.63132e-06
3.61244e-06
-6.68447e-06
-7.03605e-06
-1.99682e-06
-3.74479e-06
-7.08267e-06
1.0907e-06
-4.68268e-07
-2.66719e-06
1.06071e-06
-1.30796e-06
2.17265e-06
8.34612e-07
-4.89111e-06
-1.6179e-06
1.88763e-06
-7.16847e-06
-7.51776e-06
1.34725e-06
-6.64475e-06
-1.00378e-05
-1.35491e-08
-4.00162e-06
-8.30308e-06
1.89519e-08
-1.11785e-06
-3.47876e-06
1.20795e-06
2.30044e-06
1.77795e-06
-5.95258e-06
-4.48543e-06
-4.69242e-06
-6.11689e-06
-6.767e-06
-2.06922e-08
-4.13085e-06
-6.7749e-06
2.0607e-06
-2.7032e-06
-2.81563e-06
1.7897e-06
-4.70158e-06
-3.05705e-06
2.28026e-06
-6.89649e-06
-7.46133e-06
1.93361e-06
-6.76853e-06
-1.04451e-05
-5.93982e-09
-4.78988e-06
-9.66722e-06
-8.34847e-07
-1.84496e-06
-6.37464e-06
-4.75783e-08
-2.03448e-07
5.66876e-07
-3.40667e-06
-1.88741e-06
-6.75918e-06
-4.78863e-06
-3.89024e-06
-2.56796e-06
-5.64413e-06
-6.35187e-06
2.18628e-06
-4.63647e-06
-6.1404e-06
3.86865e-06
-5.12627e-06
-5.12944e-06
3.75886e-06
-6.49482e-06
-7.41719e-06
2.74802e-06
-6.63253e-06
-9.95841e-06
3.28325e-07
-5.18371e-06
-9.77988e-06
-1.45331e-06
-2.31211e-06
-8.02333e-06
-1.34196e-06
-2.49814e-06
1.58879e-07
-9.88368e-07
-2.06371e-07
-7.0742e-06
-1.77836e-06
-1.76759e-06
-5.37649e-06
-3.29682e-06
-3.24551e-06
-5.8885e-07
-4.03736e-06
-5.72318e-06
3.79021e-06
-4.23057e-06
-6.02433e-06
5.23092e-06
-5.03002e-06
-7.20535e-06
4.22659e-06
-5.65607e-06
-8.91564e-06
1.33801e-06
-5.13094e-06
-9.3298e-06
-1.46749e-06
-2.9334e-06
-8.89677e-06
-2.39355e-06
-4.19025e-06
-1.13206e-06
4.22113e-07
-6.89992e-06
1.07236e-06
3.73968e-07
-6.09675e-06
-1.32851e-06
5.33405e-07
-3.88819e-06
-1.62716e-06
-1.15246e-06
1.12776e-06
-2.69864e-06
-2.46067e-06
4.86609e-06
-5.04415e-06
-3.40002e-06
4.95416e-06
-6.86771e-06
-4.34616e-06
1.97174e-06
-8.03891e-06
-4.5015e-06
-1.35947e-06
-8.83137e-06
-3.16853e-06
-2.99338e-06
-9.4594e-06
-2.36213e-06
-5.85342e-06
3.87433e-08
4.80375e-08
1.53014e-07
-2.27006e-08
4.94876e-08
1.45387e-07
-9.88337e-08
6.12062e-08
1.25301e-07
-1.87728e-07
6.70438e-08
1.20557e-07
-2.76116e-07
5.50123e-08
1.38042e-07
-3.07694e-07
-5.50107e-09
1.9409e-07