/*--------------------------------*- C++ -*----------------------------------*\
| =========                 |                                                 |
| \\      /  F ield         | OpenFOAM: The Open Source CFD Toolbox           |
|  \\    /   O peration     | Version:  2312                                  |
|   \\  /    A nd           | Website:  www.openfoam.com                      |
|    \\/     M anipulation  |                                                 |
\*---------------------------------------------------------------------------*/
FoamFile
{
    version     2.0;
    format      ascii;
    arch        "LSB;label=32;scalar=64";
    class       volScalarField;
    location    "0.735";
    object      alpha.water;
}
// * * * * * * * * * * * * * * * * * * * * * * * * * * * * * * * * * * * * * //

dimensions      [0 0 0 0 0 0 0];

internalField   nonuniform List<scalar> 
8000
(
1
1
1
1
1
1
1
1
1
1
1
1
1
1
1
1
1
1
1
1
1
1
1
1
1
1
1
1
1
1
1
1
1
1
1
1
1
1
1
1
1
1
1
1
1
1
1
1
1
1
1
0.999997
1
1
1
1
1
1
1
0.999996
1
0.999999
1
1
1
1
1
0.999992
0.99474
0.972168
1
1
1
1
1
0.921858
0.790856
0.681025
0.579576
0.48041
1
1
1
0.998422
0.821216
0.545083
0.308264
0.13972
0.0769642
0.0576905
1
0.999996
0.941006
0.580266
0.221332
0.0540235
0.00251074
0.000912646
0.000493821
0.000399531
0.999986
0.887757
0.437068
0.0699339
0.00148981
0.000411947
0.000125405
0.000139207
0.000102859
9.08125e-05
0.581756
0.285909
0.0232013
0.000788899
0.000249238
5.98801e-05
2.11104e-05
7.15034e-05
4.66043e-05
2.55179e-05
0.02307
0.000702767
0.000174802
0.000139835
4.90838e-05
1.43744e-05
7.39506e-06
2.76855e-05
1.58442e-05
7.62614e-06
0.000234177
0.000190135
6.37591e-05
4.08642e-05
2.69754e-05
1.48612e-05
8.33347e-06
5.21383e-06
3.05291e-06
1.49921e-06
5.99061e-05
5.54726e-05
2.27674e-05
8.39736e-06
3.52524e-06
4.82469e-06
4.53894e-06
1.00628e-06
5.78411e-07
3.96196e-07
1.75727e-05
1.13248e-05
5.96547e-06
1.34407e-06
5.90421e-07
4.6709e-07
4.91852e-07
3.55511e-07
2.63404e-07
2.36677e-07
1.31018e-05
4.62141e-06
1.29761e-06
4.41737e-07
3.43015e-07
3.43382e-07
3.60943e-07
2.63717e-07
2.24083e-07
2.19934e-07
0.000145131
1.39678e-05
4.41813e-07
3.43147e-07
3.29e-07
3.26675e-07
1.77919e-06
2.36488e-07
2.19934e-07
2.18977e-07
0.000156758
0.000138468
1.71139e-05
3.40675e-07
3.14734e-07
1.99866e-06
2.29948e-05
2.69078e-05
1.05813e-05
5.11436e-06
0.000132824
0.000136977
2.92516e-05
3.74709e-07
3.19456e-07
1.22201e-05
2.36827e-05
1.03008e-05
1.79e-05
1.93448e-05
1
1
1
1
1
1
1
1
1
1
1
1
1
1
1
1
1
1
1
1
1
1
1
1
1
1
1
1
1
1
1
1
1
1
1
1
1
1
1
1
1
0.999998
1
1
1
1
1
1
1
1
0.999994
0.999398
0.999995
1
1
1
1
1
1
1
0.999997
0.999847
1
1
1
1
1
1
0.999999
0.983376
1
1
1
1
1
0.9933
0.890123
0.77693
0.632361
0.478797
1
0.999999
1
0.955991
0.668906
0.298732
0.122595
0.0380996
0.00576305
0.00204667
0.999999
0.987168
0.711392
0.286965
0.0475501
0.000412372
0.00012576
0.00013944
6.18484e-05
4.79114e-05
0.91909
0.557571
0.130428
0.0010145
0.000249246
5.99529e-05
2.10964e-05
6.28503e-05
4.14913e-05
2.54002e-05
0.323266
0.0539668
0.000217665
0.000139893
4.91081e-05
1.43669e-05
7.39595e-06
6.11681e-05
0.000104324
1.67607e-05
0.00070316
0.00017509
5.74907e-05
4.9339e-05
1.69538e-05
5.64333e-06
5.56037e-06
3.23525e-05
5.08765e-05
1.4393e-05
0.000189042
6.14208e-05
3.72607e-05
2.08342e-05
2.00127e-05
3.16622e-05
2.94823e-05
2.31876e-05
4.98418e-06
5.01788e-06
6.38305e-05
2.47828e-05
1.76468e-05
1.57279e-05
3.25048e-05
3.57343e-05
3.57343e-05
3.00549e-05
3.78263e-06
4.37168e-07
1.1128e-05
2.02723e-05
5.21426e-06
3.62167e-06
1.10133e-05
1.93937e-05
1.48983e-05
1.06072e-05
3.38217e-06
3.07429e-07
6.06174e-06
5.23237e-06
1.18791e-06
4.79606e-07
3.7964e-07
3.4907e-07
4.53993e-07
3.55512e-07
2.63404e-07
2.53874e-07
2.79118e-06
1.06437e-06
4.79638e-07
3.41729e-07
3.1433e-07
2.92716e-07
1.44051e-06
2.77819e-06
1.06919e-05
2.40754e-05
5.62402e-05
2.40534e-06
1.29754e-06
3.14734e-07
3.04595e-07
2.96136e-07
2.60964e-05
2.69057e-05
2.7026e-05
2.68263e-05
0.000186611
3.70081e-05
9.534e-07
3.19456e-07
3.14734e-07
8.56378e-06
2.41402e-05
2.64302e-05
2.50341e-05
1.94337e-05
1
1
1
1
1
1
1
1
1
1
1
1
1
1
1
1
1
1
1
1
1
1
1
1
1
1
1
1
1
1
1
1
1
1
1
1
1
1
1
1
1
1
1
1
1
1
1
1
1
1
1
1
1
1
1
1
1
1
1
1
1
1
1
1
1
1
1
1
1
0.999386
1
1
1
1
1
0.986425
0.920497
0.826175
0.699609
0.621233
1
1
0.977382
0.755472
0.437394
0.20185
0.103051
0.0321599
0.00129154
4.78154e-05
0.976758
0.705915
0.318379
0.0795312
0.00194786
0.000185009
6.32022e-05
5.9809e-05
1.22399e-05
1.28766e-05
0.509022
0.131111
0.00208524
0.000293257
9.05671e-05
2.47243e-05
1.31296e-05
5.12761e-05
3.98306e-05
3.70438e-05
0.0339688
0.000397723
0.00019973
5.5655e-05
1.87817e-05
5.64291e-06
5.5516e-06
0.000151007
0.000198767
0.000129947
0.00023368
7.02986e-05
3.91636e-05
1.47119e-05
4.58429e-06
1.96374e-06
4.17265e-06
2.90508e-05
2.94216e-05
1.83207e-05
5.19312e-05
1.72238e-05
7.72343e-06
3.90078e-06
1.90435e-06
1.62812e-06
5.60444e-06
2.11336e-05
1.77777e-05
3.55257e-06
1.9158e-05
6.35431e-06
2.54736e-06
1.60267e-06
4.92474e-06
2.1297e-05
3.53799e-05
3.48207e-05
2.12701e-05
6.25967e-07
9.61311e-05
4.79779e-06
9.94906e-07
8.32823e-07
7.38766e-06
1.53626e-05
1.04011e-05
7.62939e-06
3.98118e-06
3.23277e-06
0.000212289
7.57637e-06
5.21981e-07
4.04771e-07
1.97556e-06
5.1792e-07
6.87463e-07
1.96813e-06
1.48562e-05
2.74689e-05
0.000273551
1.13578e-05
3.41729e-07
2.94037e-07
2.92193e-07
2.63861e-07
6.00206e-06
2.66861e-05
2.75259e-05
2.75485e-05
0.000263463
9.39484e-06
3.18568e-07
3.05173e-07
2.94541e-07
2.84661e-07
1.93744e-05
2.7026e-05
2.73237e-05
2.31573e-05
0.000198628
8.04524e-05
4.38988e-07
3.1826e-07
3.0577e-07
7.76594e-06
1.24717e-05
1.31996e-05
8.58888e-06
2.07373e-06
1
1
1
1
1
1
1
1
1
1
1
1
1
1
1
1
1
1
1
1
1
1
1
1
1
1
1
1
1
1
1
1
1
1
1
1
1
1
1
0.999997
1
1
1
1
1
1
1
1
1
0.999933
1
1
1
1
1
1
1
1
1
1
1
1
1
1
1
1
1
1
1
0.999998
1
1
1
1
0.999998
0.968228
0.914044
0.802381
0.716914
0.740311
1
0.953864
0.719225
0.418109
0.186403
0.104511
0.0670282
0.0292291
0.00528526
0.0117176
0.666177
0.307339
0.0710345
0.00222456
0.000223337
9.23628e-05
8.16589e-05
1.22323e-05
1.07917e-05
1.13326e-05
0.0905855
0.00253299
0.000413868
0.000129678
3.60624e-05
1.03258e-05
4.96992e-05
0.000196301
6.63442e-05
4.17288e-05
0.000247927
0.000158548
7.41544e-05
3.12248e-05
8.65221e-06
1.95696e-06
3.74499e-05
0.000200551
0.000199982
0.000149406
3.82689e-05
2.73805e-05
1.51876e-05
6.03179e-06
2.00216e-06
5.91112e-07
3.27092e-06
6.27244e-06
6.41107e-06
5.40748e-07
1.13673e-05
6.43901e-06
2.53073e-06
1.0885e-06
5.84297e-07
3.55375e-07
3.13607e-07
1.74941e-06
2.57056e-06
3.50427e-07
6.44079e-06
2.53337e-06
7.80223e-07
4.35644e-07
3.66931e-07
5.25865e-07
9.15784e-06
1.69527e-05
1.06177e-05
4.58901e-06
0.000168166
1.13833e-05
4.52807e-07
3.02817e-07
8.23785e-07
2.53268e-06
2.53389e-06
3.89932e-06
1.26635e-06
1.90799e-05
0.000278279
4.68417e-05
5.69967e-07
2.81466e-07
6.55185e-07
4.85696e-07
1.30391e-06
1.09715e-05
1.4484e-05
1.10356e-05
0.000278279
0.000165018
4.08503e-06
2.82636e-07
2.64353e-07
2.56401e-07
5.3655e-06
1.3493e-05
1.76022e-05
1.10516e-05
0.000200035
0.000185256
1.1285e-05
2.94027e-07
2.83404e-07
1.42846e-06
4.36141e-06
4.61299e-06
3.48723e-06
3.54191e-06
7.75127e-05
0.000146437
2.55617e-05
3.74476e-07
2.96451e-07
1.7389e-06
3.53694e-06
1.28989e-06
1.85649e-07
5.67219e-08
1
1
1
1
1
1
1
1
1
1
1
1
1
1
1
1
1
1
1
1
1
1
1
1
1
1
1
1
0.999999
1
1
1
1
1
1
1
1
0.999999
0.999979
1
1
1
1
1
1
1
1
1
0.999994
0.99925
1
1
1
1
1
1
1
1
1
0.992214
1
1
1
1
0.999999
0.999951
0.996612
0.997601
0.999997
0.998629
1
1
1
0.98094
0.915973
0.761905
0.562513
0.518829
0.633515
0.781535
0.917712
0.715808
0.374914
0.140576
0.0499781
0.0250374
0.0116093
0.00496404
0.00370523
0.0706407
0.276512
0.0792158
0.00121568
0.000286882
8.5574e-05
5.49175e-05
4.911e-05
8.80775e-06
8.67006e-06
1.02708e-05
0.000707338
0.000399715
0.000161749
5.42115e-05
1.34957e-05
1.21388e-05
1.7674e-05
0.00015395
9.10892e-05
2.09101e-05
0.000142418
9.01428e-05
4.41519e-05
1.19545e-05
2.66019e-06
6.88091e-07
8.60473e-05
0.000198674
0.000198767
0.000154124
6.09934e-05
2.87089e-05
1.04059e-05
2.6634e-06
6.98586e-07
3.55359e-07
3.73565e-06
3.26744e-07
1.7919e-05
8.59274e-07
3.0036e-05
1.23491e-05
2.79809e-06
6.84094e-07
3.48523e-07
3.13581e-07
3.00806e-07
2.96692e-07
2.96692e-07
3.06126e-07
1.09562e-05
4.49958e-06
6.92916e-07
3.39249e-07
3.28474e-07
3.0737e-07
3.08961e-07
3.49843e-07
3.31985e-07
4.44669e-07
2.27897e-05
9.79216e-06
2.49881e-06
2.81466e-07
2.84226e-07
2.70867e-07
2.90558e-07
1.80295e-06
1.18165e-06
1.69033e-06
0.000154572
4.97658e-05
3.63581e-06
2.75953e-07
2.63339e-07
2.56401e-07
9.6943e-07
3.27034e-06
9.67828e-07
1.27011e-05
9.62657e-05
6.98795e-05
8.77577e-06
2.63339e-07
2.56401e-07
2.56401e-07
5.17317e-07
3.26201e-07
5.37195e-07
7.66747e-05
6.86254e-06
6.04379e-05
1.55776e-05
1.25673e-06
2.63339e-07
3.13097e-07
3.32008e-07
3.89918e-07
9.45755e-07
0.000114632
8.7328e-08
2.49738e-05
2.73841e-05
2.04268e-06
3.29159e-07
3.51342e-07
3.90899e-07
4.52952e-07
7.02167e-05
0.000111217
1
1
1
1
1
1
1
1
1
1
1
1
1
1
1
1
1
1
1
1
1
1
1
1
1
1
1
0.999999
1
1
1
1
1
1
1
1
1
0.999995
0.999806
0.999989
1
1
1
1
1
1
1
1
0.999078
0.999996
1
1
1
1
0.999999
0.999995
0.99999
0.999997
0.998004
0.979714
1
1
1
0.999997
0.995336
0.951784
0.909745
0.966344
0.982254
0.973969
1
1
0.965005
0.868646
0.561109
0.234303
0.152899
0.331003
0.606374
0.784388
0.705218
0.429196
0.138537
0.0280907
0.00275409
0.000453207
5.27557e-05
1.04073e-05
8.63299e-06
0.107721
0.077558
0.00542336
0.000589492
0.000175622
5.75392e-05
0.000730791
7.15531e-06
6.05367e-06
6.77985e-06
8.67065e-06
0.000565054
0.000458783
0.000156242
3.38539e-05
1.19771e-05
0.000652211
7.6871e-06
3.97517e-05
0.000133271
1.87127e-05
0.000343265
0.00016894
4.11925e-05
5.97511e-06
8.46523e-07
5.05551e-07
5.14528e-05
0.000192971
0.000196828
0.000127634
0.000188198
5.17096e-05
9.12611e-06
1.67754e-06
5.05502e-07
4.05953e-07
6.9412e-07
2.96584e-07
4.98438e-05
5.67568e-05
7.84901e-05
5.10817e-05
8.02871e-05
3.05047e-05
2.95024e-06
2.98807e-07
2.9617e-07
2.96692e-07
2.96578e-07
2.96692e-07
0.000111977
0.000249245
0.000191748
3.26503e-05
3.10984e-07
2.82088e-07
2.94173e-07
2.9617e-07
2.96692e-07
3.06126e-07
8.36813e-05
0.000305933
0.000121227
3.02816e-07
2.82085e-07
2.72003e-07
2.82089e-07
2.94138e-07
3.76356e-07
3.89697e-07
0.000227262
0.000162444
4.61243e-06
2.76454e-07
2.7094e-07
2.67009e-07
2.737e-07
2.89745e-07
3.68872e-07
4.11374e-05
8.59038e-05
5.06551e-05
1.42613e-05
2.27005e-05
1.8895e-06
2.56401e-07
2.82155e-07
3.08947e-07
8.98664e-07
0.000114632
8.73284e-08
6.31413e-07
4.45756e-05
4.46045e-05
1.75645e-05
3.00988e-07
3.00083e-07
3.21231e-07
7.68184e-05
0.000114886
2.12827e-08
8.71292e-08
1.36793e-05
2.4982e-05
9.57712e-06
2.35799e-07
2.69064e-07
2.4773e-06
0.000114878
0.000114858
1
1
1
1
1
1
1
1
1
1
1
1
1
1
1
1
0.999998
0.999998
1
1
1
1
1
1
1
1
0.999995
0.999983
0.999999
1
1
1
1
1
1
1
0.999998
0.999994
0.999999
0.999942
1
1
1
1
1
0.999999
0.999997
0.999997
0.996568
0.997948
0.999999
1
1
0.999999
0.999982
0.999933
0.999916
0.999981
0.951793
0.991538
1
1
0.999998
0.99242
0.880008
0.753704
0.781804
0.938556
0.943002
0.972677
0.961524
0.953976
0.874298
0.54442
0.123994
0.0175592
0.0600736
0.30176
0.650637
0.75875
0.467147
0.209614
0.0382193
0.0015595
0.00128237
0.00102524
7.1941e-06
6.06103e-06
6.74779e-06
0.112131
0.00768248
0.00229752
0.00177783
0.00106475
0.00342697
0.00232711
6.07012e-06
5.94311e-06
6.0733e-06
6.78304e-06
0.000784271
0.00184043
0.000936342
0.000243733
0.00159827
0.000806404
6.1028e-06
2.12979e-05
4.50053e-05
1.44622e-05
0.000676305
0.00073229
0.000191225
7.90004e-05
1.1798e-06
7.28868e-07
3.88267e-05
0.00017289
0.00019431
8.47621e-05
0.00193367
0.00161169
0.000456878
0.00011271
1.11087e-06
5.05579e-07
4.73885e-05
0.000158075
0.000169373
9.54918e-05
0.00532913
0.00309844
0.00155844
0.000373146
0.000104767
4.15922e-07
3.00806e-07
9.45388e-06
5.49474e-07
3.06125e-07
0.00606146
0.00362502
0.00260235
0.00106199
0.000239488
3.1099e-07
3.22669e-07
3.49843e-07
3.32976e-07
3.8896e-07
0.00247513
0.00330669
0.00309894
0.00159729
0.000255897
2.82265e-07
2.94172e-07
5.17997e-07
2.83924e-06
6.38129e-07
0.000494818
0.00246806
0.00226087
0.000492565
0.000178553
4.02988e-06
2.89757e-07
3.71155e-07
4.48343e-07
4.737e-05
0.000100478
0.000555879
0.000290066
7.52657e-06
7.31563e-05
5.65739e-05
2.20744e-06
3.26201e-07
4.50887e-07
0.000108647
5.12278e-07
3.22732e-07
8.85523e-07
6.93373e-06
2.5638e-05
4.0432e-05
5.68183e-06
4.50861e-07
5.15447e-05
0.000114632
6.371e-09
1.23828e-07
1.66858e-06
7.73447e-06
1.92026e-07
2.11085e-07
1.07352e-06
1.91309e-06
0.000113809
4.91985e-05
1
1
1
1
1
1
1
0.999998
1
1
1
1
1
1
1
1
0.999997
0.999942
0.999968
1
1
1
1
1
1
1
0.999983
0.999939
0.999972
1
1
1
1
1
1
1
0.999987
0.999987
0.999997
0.999592
1
1
1
1
0.999999
0.999996
0.999986
0.999503
0.983813
0.992624
1
1
1
0.99999
0.999901
0.999752
0.999858
0.994351
0.924
0.984864
0.999999
0.999999
0.999282
0.921261
0.68745
0.605141
0.827662
0.955652
0.935102
0.989182
0.892333
0.87731
0.66921
0.208548
0.0212061
0.00105037
0.124247
0.441615
0.720544
0.805444
0.273905
0.0947632
0.00671087
0.00652843
0.0126805
0.000790803
6.08791e-06
5.9761e-06
0.030084
0.102962
0.00251794
0.00363178
0.0109622
0.0179405
0.0234263
3.86261e-06
5.66464e-06
5.97766e-06
5.97735e-06
7.00588e-06
0.00217137
0.00400568
0.0207674
0.014558
0.00737046
2.68815e-06
5.57081e-06
6.1625e-06
7.00588e-06
9.6211e-06
0.000977647
0.0176892
0.0138908
0.00135687
1.24943e-06
1.96707e-06
1.16618e-05
0.000110904
2.92121e-05
4.05188e-05
0.00477051
0.0210751
0.00726685
0.000614472
1.02136e-06
7.28868e-07
8.74374e-07
0.000156476
0.000121955
3.18603e-05
0.0105805
0.00553973
0.0012156
0.000112766
1.28444e-06
8.08036e-07
4.26249e-07
9.31188e-05
0.000117442
5.13691e-05
0.00947458
0.000246503
7.26354e-07
8.98123e-07
1.66388e-05
1.64424e-05
5.6371e-06
3.91809e-07
3.38822e-05
4.19972e-05
0.00382361
7.46716e-07
5.05965e-07
7.97207e-07
7.32747e-05
8.27801e-05
3.252e-05
5.83245e-07
8.57442e-07
5.75489e-05
1.07845e-06
7.68925e-07
4.47531e-07
1.94094e-05
9.59039e-05
9.13877e-05
3.80972e-05
4.48343e-07
6.80272e-07
8.64767e-05
0.000137323
7.57057e-07
3.86417e-06
2.89903e-05
7.68104e-05
7.8787e-05
2.3656e-05
4.50887e-07
7.48887e-07
7.53761e-05
0.000614915
8.60877e-06
2.37432e-06
2.77639e-07
5.12417e-06
4.74905e-06
1.41707e-05
9.12767e-06
1.37438e-05
9.98846e-06
0.000339527
3.78516e-06
1.4367e-06
1.34319e-07
1.70477e-07
1.88592e-07
1.59586e-06
1.8423e-05
1.86855e-05
5.95776e-07
1
1
1
1
1
1
1
1
1
1
1
1
1
1
1
1
1
0.999972
0.999981
1
1
1
1
1
1
1
1
0.999939
0.999964
1
1
1
1
1
1
1
1
0.999983
1
1
1
1
1
1
0.999998
0.999996
0.982833
0.959369
0.979102
0.99833
1
1
0.999999
0.99998
0.999872
0.999552
0.941977
0.91919
0.918742
0.955319
0.999995
0.999995
0.989553
0.835909
0.647713
0.626498
0.875678
0.955803
0.970977
0.987235
0.820673
0.782234
0.444542
0.102599
0.0177224
0.0217703
0.215778
0.516166
0.7482
0.855181
0.177945
0.0520148
0.00479673
0.0149712
0.0141166
0.000252711
6.48592e-06
6.26983e-06
0.0522943
0.111817
0.00362906
0.00402575
0.0253397
0.0296575
0.032471
0.000199026
5.85571e-06
5.94816e-06
6.2699e-06
9.77843e-06
0.00442511
0.0092814
0.0404601
0.0405127
0.0210479
2.81053e-06
5.55581e-06
2.55432e-05
2.20343e-05
5.96664e-05
0.00273434
0.0349758
0.0404907
0.0223818
1.34626e-06
1.20707e-06
2.77962e-06
4.13873e-05
0.000204773
0.000245624
0.00846295
0.0193878
0.0109992
1.34626e-06
1.20707e-06
1.02136e-06
2.82143e-06
2.49714e-05
3.94927e-05
1.14935e-05
0.0117938
2.82434e-05
7.66264e-07
1.54388e-05
1.34626e-06
1.32939e-06
6.07626e-06
3.40649e-05
9.03612e-05
3.88143e-05
0.00837256
7.46716e-07
5.05965e-07
3.47447e-06
6.50203e-06
2.54674e-06
1.95541e-05
9.86145e-06
3.85729e-05
7.37297e-05
0.000436989
5.05965e-07
4.47531e-07
1.01243e-06
2.01697e-05
2.56224e-06
2.80631e-05
1.09913e-06
1.06945e-06
7.63078e-05
1.86151e-05
4.47524e-07
4.10307e-07
4.47531e-07
6.75354e-07
5.73119e-06
3.67215e-05
6.28455e-06
9.16113e-07
7.86974e-05
0.00328376
4.10103e-07
3.10457e-07
1.72777e-06
1.33634e-06
6.04639e-06
2.16967e-05
1.58765e-05
2.53917e-06
1.46055e-05
0.00622722
3.10109e-07
2.41745e-07
2.98565e-06
1.11953e-05
2.60604e-06
9.04659e-07
1.65877e-05
4.78261e-06
7.59336e-07
0.00484433
2.41674e-07
2.16284e-07
4.62466e-07
1.28335e-06
2.11085e-07
5.49603e-07
1.66148e-05
7.96402e-07
6.78296e-07
1
1
1
1
1
1
1
1
1
0.983598
1
1
1
1
1
1
1
0.999999
1
0.985161
1
1
1
1
1
1
1
0.999986
1
0.986371
1
1
1
0.999999
1
0.999999
1
1
1
0.981747
1
1
1
1
1
1
0.998195
0.99325
0.998585
0.9784
1
1
1
0.999998
0.982599
0.916
0.911072
0.966773
0.991107
0.97837
0.999987
0.999993
0.995269
0.925129
0.83716
0.83031
0.897772
0.966628
0.996601
0.998666
0.743724
0.724441
0.466047
0.157809
0.106768
0.164092
0.299108
0.56335
0.766605
0.8277
0.147086
0.0435531
0.00479673
0.00580745
0.000114544
1.98489e-05
9.29578e-06
7.92042e-06
0.0442279
0.0490715
0.00271374
0.00285399
0.00602301
0.0223109
0.00506963
8.41557e-06
1.03675e-05
6.2699e-06
7.92039e-06
1.83347e-05
0.00302929
0.0029504
0.0315222
0.0270221
0.00145742
4.63518e-06
8.22157e-05
0.000144503
0.000239982
0.00019885
0.00358878
0.0300894
0.0389956
0.000737869
1.86731e-06
6.06236e-05
6.76791e-05
3.17605e-05
0.000186112
0.000236063
0.0215371
0.0355825
0.0338962
0.000933002
1.34626e-06
1.20707e-06
1.99484e-06
3.72355e-06
4.16318e-06
3.91552e-06
0.0316335
0.0320926
0.00274162
0.000599283
1.63849e-06
5.04909e-06
4.8588e-05
4.84452e-06
5.29754e-06
6.9034e-06
0.013967
0.00154166
7.66265e-07
3.36678e-05
3.1939e-06
4.75553e-06
0.000112609
1.34304e-05
9.32693e-06
5.35022e-05
2.98916e-06
7.46714e-07
5.05965e-07
9.72969e-07
1.10302e-05
2.72032e-06
6.11756e-05
1.73952e-05
1.20401e-06
5.89898e-05
0.000532937
7.63832e-07
4.47479e-07
2.02017e-06
1.09573e-05
2.78205e-06
7.73927e-06
2.18799e-05
3.48507e-06
1.22538e-05
0.00616482
7.46707e-07
4.10058e-07
1.08184e-05
3.02886e-06
2.84304e-06
4.45405e-06
1.60382e-05
2.6678e-06
1.0507e-06
0.0062482
0.0024562
3.10427e-07
1.00692e-05
1.12091e-05
3.03252e-06
2.15321e-06
2.14388e-06
8.67513e-07
9.22718e-07
0.0062482
0.00461432
2.23533e-07
3.24358e-07
8.77206e-06
1.98729e-06
1.02237e-06
6.28525e-07
7.09974e-07
7.59382e-07
1
1
1
1
1
1
1
1
1
0.985102
1
1
1
1
1
1
1
1
1
0.991045
1
1
1
1
1
1
1
0.999991
1
0.983833
1
1
1
0.999982
1
1
1
1
1
0.978662
1
1
1
0.999761
0.998457
1
1
0.998663
1
0.978524
1
1
1
0.99937
0.978761
0.961674
0.969297
0.98869
0.999997
0.988735
0.998661
0.999995
0.999895
0.984481
0.917314
0.873388
0.917986
0.995439
0.999914
0.999484
0.68777
0.706049
0.65083
0.422097
0.302392
0.257458
0.393505
0.687634
0.791149
0.776259
0.143624
0.0491425
0.00778483
0.00633268
0.000733002
3.01673e-05
1.85747e-05
1.40776e-05
0.0322791
6.47742e-05
0.00160377
0.00114613
0.00123203
0.00339734
0.000971825
1.85745e-05
1.055e-05
7.92033e-06
1.40761e-05
5.06588e-05
0.00114624
0.000850844
0.0024554
0.00284189
9.70723e-05
0.000198638
0.000175373
0.000220446
0.00031467
0.000315219
0.00302659
0.00357073
0.00544781
0.00236483
5.70359e-05
9.77251e-05
0.000174607
2.82504e-05
4.53018e-05
7.3779e-05
0.00778946
0.00875285
0.00546212
0.00148553
3.27482e-06
2.29549e-06
2.2936e-05
4.16318e-06
3.91552e-06
3.76627e-06
0.0122709
0.00279915
0.000401254
0.0001872
4.29526e-06
1.20465e-05
6.39732e-05
5.2279e-06
4.03209e-06
3.78442e-06
0.00792251
1.94577e-06
4.28407e-05
4.75274e-06
3.5295e-06
5.19997e-06
0.000112346
3.4295e-05
8.06608e-06
3.71324e-06
0.00110558
1.38313e-06
6.06376e-06
9.3905e-06
3.90404e-06
4.07131e-06
0.00011268
5.71286e-05
1.1907e-05
3.4015e-06
0.000300738
1.3536e-06
4.1913e-06
1.40613e-05
4.87518e-06
3.31801e-06
0.000111625
4.49615e-05
4.5344e-06
1.19021e-06
0.00253494
1.36028e-06
2.92809e-06
1.677e-05
1.27192e-05
5.36406e-06
5.10088e-05
7.11449e-06
7.18478e-07
9.62459e-07
0.00433094
1.15993e-06
7.52413e-07
7.63851e-06
5.74512e-06
2.05969e-06
8.60379e-06
2.73467e-07
4.03838e-07
6.67713e-07
0.00437788
2.61568e-06
4.61542e-07
4.51895e-07
3.90346e-07
8.63593e-07
7.06747e-06
5.13123e-07
5.35889e-07
8.40588e-07
1
1
1
1
1
1
1
1
1
1
1
1
1
1
1
1
1
0.999984
0.999992
1
1
1
1
1
1
1
1
0.999942
0.999957
1
1
1
1
0.999997
1
1
0.999996
1
0.999998
0.999191
1
1
1
0.999901
0.998834
1
0.999987
0.995297
0.999018
0.998389
1
1
1
0.999378
0.993925
0.999758
0.999947
0.974917
0.982718
0.999316
0.999708
0.999999
0.999997
0.999313
0.980917
0.93597
0.95268
0.988164
0.994936
0.999241
0.669996
0.726599
0.774589
0.716573
0.503212
0.392275
0.476748
0.694387
0.749803
0.676014
0.164003
0.0604851
0.0379102
0.0285785
0.00711614
0.000939015
2.633e-05
2.2863e-05
0.00809705
0.000143528
0.00169547
0.00078779
0.000468679
0.000236312
7.60457e-05
2.62468e-05
2.42032e-05
1.45251e-05
2.28638e-05
0.000191654
0.000787824
0.000562174
0.000229261
0.000100228
4.42999e-05
0.000201231
5.02249e-05
5.57783e-05
0.000245297
0.000278066
0.00395096
0.00112711
0.000119248
0.000154214
1.70094e-05
1.94652e-05
3.0121e-05
5.04985e-06
4.0953e-06
7.08099e-06
0.000886166
0.000920464
0.00053073
0.000102278
1.25146e-05
2.22046e-05
9.85534e-05
4.0953e-06
3.7655e-06
3.7688e-06
0.000634438
0.000855278
0.00067541
5.52024e-05
5.07569e-06
1.67084e-05
0.000151315
5.52965e-05
5.62415e-06
3.61818e-06
0.00056082
0.000128616
0.000234023
8.27656e-05
3.95876e-06
4.30054e-06
9.1408e-05
0.000102143
2.26857e-05
3.01428e-06
0.00180424
7.16249e-06
2.3335e-05
3.5385e-05
4.35937e-06
4.31647e-06
6.44011e-05
0.000102412
2.32915e-05
2.61007e-06
0.001785
2.66621e-06
3.24075e-05
2.27258e-05
2.20836e-05
7.92521e-06
7.15997e-05
9.75093e-05
1.72855e-06
2.00997e-06
0.000930286
1.64794e-06
2.68887e-05
1.4828e-05
2.52171e-05
2.30329e-06
5.00214e-05
2.19133e-05
6.98461e-07
1.18995e-06
1.16698e-05
2.12935e-06
1.28701e-06
1.961e-06
2.35901e-06
1.07015e-06
4.43155e-06
1.5842e-07
2.73462e-07
1.3549e-06
4.91612e-05
2.12317e-06
2.10415e-06
7.07104e-07
7.57335e-07
9.64639e-07
1.6744e-07
2.41856e-07
1.07185e-06
2.66066e-05
1
1
1
1
1
1
1
0.999999
1
1
1
1
1
1
1
1
0.999997
0.99995
0.999982
1
1
1
1
1
1
1
0.999969
0.999942
0.999952
0.999998
1
1
1
1
0.999999
1
0.999993
0.999971
0.999979
1
1
1
1
0.999996
0.999968
1
1
0.999289
0.999996
1
1
1
1
0.999942
1
1
0.999999
0.995135
0.988757
0.999994
0.999999
1
1
1
0.999992
0.992898
0.993626
0.997622
0.948967
0.983708
0.71675
0.759146
0.821957
0.845385
0.702152
0.568696
0.551205
0.72245
0.790985
0.751385
0.204504
0.0827485
0.0767279
0.0721242
0.036444
0.0212799
0.0198542
0.0389041
0.0496001
0.0154566
0.00177467
0.000485305
0.000231484
0.000126452
2.56032e-05
2.84559e-05
2.63293e-05
2.28639e-05
2.81521e-05
3.37481e-05
0.00048534
0.000231645
0.000129057
3.82438e-05
1.76115e-05
0.000101136
2.84668e-05
2.81521e-05
6.4776e-05
0.000128172
0.00451003
0.000710184
3.83616e-05
1.77012e-05
1.70478e-05
3.31186e-05
0.000111659
4.84838e-05
4.43774e-06
3.90275e-06
0.00246618
0.00325785
0.000789733
1.96164e-05
1.32539e-05
4.74913e-05
0.00017424
9.18907e-05
4.0348e-06
3.76641e-06
0.000805889
0.00108577
0.00098956
0.000104129
6.20664e-06
4.96394e-06
0.000150117
8.37287e-05
1.46757e-05
3.78442e-06
0.00075258
4.9292e-05
0.000212114
0.000124107
4.93474e-06
2.95314e-06
3.31165e-07
2.69105e-07
1.11239e-05
3.64632e-06
0.000222026
2.98036e-05
5.62046e-05
3.19658e-05
4.12308e-06
5.41768e-06
2.54594e-07
2.54228e-07
0.000100204
3.01398e-06
0.000477728
4.73997e-05
5.67228e-05
7.53154e-06
3.97793e-05
2.64396e-05
2.48463e-07
2.04468e-07
0.000648163
0.00028612
0.000285897
5.52223e-06
3.94003e-05
5.74784e-06
6.69654e-05
3.84704e-05
2.04468e-07
1.5842e-07
0.00108473
0.000611331
2.91552e-06
2.35441e-06
2.72525e-05
4.66785e-05
6.84094e-05
1.88764e-05
1.5842e-07
1.33303e-07
0.000988123
0.000715372
2.38064e-07
6.94925e-07
6.16396e-06
7.20706e-06
1.4061e-06
1.41336e-06
1.36395e-07
1.23883e-07
0.000480094
0.00100373
1
1
1
1
1
1
1
1
1
1
1
1
1
1
1
1
0.999998
0.999998
1
1
1
1
1
1
1
1
0.999995
0.999981
0.999999
1
1
1
1
1
1
1
0.999996
0.999998
1
1
1
1
1
1
1
1
1
1
1
1
1
1
1
1
1
1
1
0.999999
0.999996
0.970758
1
1
1
1
1
0.999997
0.999986
0.999958
0.980824
0.893383
0.811803
0.842324
0.858852
0.86996
0.830951
0.743752
0.693995
0.766576
0.815725
0.84142
0.304544
0.109279
0.0778836
0.0557133
0.0318539
0.023826
0.0344319
0.0622819
0.0918362
0.103079
0.00286438
0.000623744
0.000168391
8.2166e-05
3.26994e-05
3.18915e-05
2.84654e-05
2.81521e-05
3.37481e-05
4.20841e-05
0.000623728
0.000168434
8.44877e-05
3.4521e-05
1.69247e-05
0.000183683
0.000408956
0.000257422
4.21197e-05
4.60836e-05
0.00554379
0.00223257
3.45295e-05
1.70448e-05
1.45514e-05
9.74184e-05
0.000549543
0.0005486
0.00050744
9.25135e-05
0.00594981
0.00538632
0.00189143
2.56167e-05
9.21181e-06
6.51267e-06
1.81871e-05
0.000547534
0.00120748
0.00103158
0.00269964
0.000612347
0.00129969
0.000293615
6.14903e-06
3.4749e-06
9.92749e-06
8.84042e-07
0.00120746
0.00119987
2.42927e-05
2.53116e-05
1.86937e-05
6.88003e-05
1.24832e-05
3.81285e-06
1.15325e-05
4.09785e-07
0.00120842
0.00109196
1.60597e-05
0.00016232
6.23224e-05
4.3148e-06
3.86123e-06
3.83322e-06
3.74067e-07
2.54626e-07
0.0012015
0.000459856
6.51577e-06
0.00012334
6.06685e-05
5.0185e-06
8.30358e-06
1.11912e-05
6.2367e-07
2.48463e-07
0.00118708
0.000452013
2.47775e-06
6.84173e-05
1.32408e-05
5.18886e-06
5.15892e-05
6.22373e-05
2.67254e-06
2.04468e-07
0.00116036
0.000779538
1.90363e-06
0.000157335
0.000162509
0.000105966
0.00010516
6.4446e-05
7.01055e-07
1.5842e-07
0.00057495
0.00046503
5.58816e-09
2.71225e-05
0.000179826
0.000191022
9.78207e-05
3.02917e-06
1.6744e-07
1.29367e-07
5.26172e-07
7.08862e-05
1
1
1
1
1
1
1
1
1
1
1
1
1
1
1
1
1
1
1
1
1
1
1
1
1
1
1
1
0.999999
1
1
1
1
1
1
1
1
1
0.999993
1
1
1
1
1
1
1
1
1
1
0.97112
1
1
1
1
1
1
1
1
0.999999
0.912451
1
1
1
1
1
0.999999
0.999995
0.999987
0.999969
0.903497
0.927664
0.963502
0.938746
0.900032
0.852617
0.809955
0.791472
0.786257
0.79333
0.85316
0.49461
0.228764
0.113061
0.0639463
0.0319275
0.0189408
0.0169952
0.0353314
0.0608473
0.0788879
0.0237641
0.00126255
0.000335849
0.000110735
2.74927e-05
2.78634e-05
3.13035e-05
4.3978e-05
4.21197e-05
4.60821e-05
0.00126252
0.000335943
0.000119007
3.66006e-05
1.92179e-05
4.6262e-05
0.000332609
0.000487937
5.23498e-05
0.000154012
0.00647201
0.00445683
0.000126304
1.9251e-05
1.3304e-05
2.18723e-05
0.000125881
0.000549643
0.000413189
0.00112668
0.00637064
0.00593063
0.0044206
0.00053376
1.2813e-05
3.26788e-06
1.82265e-06
0.000191645
0.000383233
0.00115704
0.00133797
9.55556e-05
0.000690068
0.000433326
2.94611e-05
1.82264e-06
1.14671e-06
1.00798e-06
0.00015233
0.00117708
1.86798e-05
1.57968e-05
8.64605e-06
9.52016e-06
1.1508e-05
6.88588e-06
1.00289e-06
7.24717e-07
4.99228e-05
0.00112215
2.08085e-05
0.000111614
6.43176e-05
4.90754e-06
7.82607e-06
3.83218e-06
9.42803e-06
1.18124e-06
2.60716e-05
0.000264121
1.7966e-05
2.04415e-05
2.01704e-05
4.99865e-06
4.34594e-06
3.98513e-06
1.68231e-05
9.35142e-06
2.559e-05
2.83995e-05
2.62282e-05
0.000129313
1.08484e-05
5.13492e-06
4.83859e-06
1.61604e-05
9.68087e-06
1.40281e-05
8.75242e-05
8.66794e-05
4.06327e-05
0.000308695
0.000111456
1.67796e-05
5.81199e-05
5.61068e-05
3.53826e-06
1.05324e-05
0.000149845
0.000111683
2.62573e-06
0.000224465
0.000288205
0.000277778
0.000207993
1.11206e-05
4.09302e-07
1.28486e-05
0.000154048
9.83796e-05
1
1
1
1
1
1
1
1
1
1
1
1
1
1
1
1
1
1
1
1
1
1
1
1
1
1
1
1
0.999999
1
1
1
1
1
1
1
1
1
0.999723
0.99854
1
1
1
1
1
1
1
1
0.999151
0.972942
1
1
1
1
1
1
1
1
0.999998
0.979607
1
1
1
1
1
1
0.999999
0.999996
0.999936
0.991815
1
1
1
0.967991
0.903154
0.855149
0.822401
0.791591
0.758886
0.772751
0.719029
0.593392
0.31569
0.125837
0.0552652
0.0255064
0.0154785
0.0142855
0.0148138
0.0124958
0.104412
0.03242
0.00105167
0.000367565
9.28619e-05
1.24623e-05
2.21583e-05
2.70929e-05
4.40322e-05
6.87632e-05
0.00323903
0.00105158
0.000312765
7.87202e-05
1.33501e-05
7.77846e-06
3.20939e-05
0.000169162
0.000390024
0.000470881
0.00486443
0.00144373
8.53004e-05
1.98969e-05
7.80026e-06
5.66021e-06
3.44026e-06
9.79971e-05
0.000565897
0.00114999
0.00427478
0.00470468
0.00417226
0.000574882
1.36052e-05
3.44023e-06
1.83129e-06
1.46175e-06
4.99739e-05
0.000545268
0.000575334
5.29563e-05
0.00110817
0.000995337
6.71072e-05
2.71068e-06
1.46175e-06
1.14671e-06
0.000158398
0.000169712
0.000223788
6.97496e-05
9.14801e-06
0.000244291
8.39088e-05
1.98538e-06
1.3162e-06
1.00916e-06
0.000178029
0.000184236
0.000101415
4.48851e-05
8.02103e-06
5.66609e-06
2.77632e-05
3.68482e-06
1.07508e-05
1.41189e-06
8.37125e-05
6.7252e-05
4.25166e-05
2.90594e-05
6.68047e-06
5.13491e-06
4.83857e-06
7.89737e-06
7.18347e-05
6.1788e-05
1.39464e-05
4.04566e-05
0.000281635
3.51826e-05
5.41508e-06
5.18886e-06
5.15975e-06
4.25772e-05
0.000136867
0.000104173
1.14597e-05
3.46395e-05
0.000330933
0.000314153
7.23285e-06
5.41508e-06
5.4984e-06
8.88197e-05
0.000100308
6.97359e-05
9.81195e-06
9.20511e-06
2.53349e-05
0.000310312
0.000301704
0.000159783
0.00015554
4.78753e-05
2.28252e-05
5.31e-05
1.06619e-05
2.32553e-06
1
1
1
1
1
1
1
1
1
1
1
1
1
1
1
1
1
1
1
1
1
1
1
1
1
1
1
1
0.999998
0.999977
1
1
1
1
1
1
1
1
0.99997
0.999675
1
1
0.999999
1
1
1
1
0.999999
0.999954
0.99951
1
1
1
1
1
1
1
1
1
0.999998
1
1
1
1
1
1
1
1
0.999998
0.999907
1
1
1
1
0.979671
0.910018
0.835511
0.767679
0.707738
0.67732
0.942777
0.907301
0.711612
0.385582
0.139551
0.0537503
0.0199744
0.00471857
5.58046e-05
0.000132086
0.377659
0.240578
0.0610414
0.00156236
0.000327269
5.92746e-05
5.8175e-06
1.53432e-05
2.70704e-05
5.88334e-05
0.00576762
0.00201078
0.000763107
0.000200662
4.04209e-05
6.40323e-06
4.52797e-06
4.3088e-06
0.000277193
0.000621625
0.000608005
0.000661438
0.000200674
4.26154e-05
8.59154e-06
4.63714e-06
3.8761e-06
2.34381e-06
0.000230246
0.000643379
0.00024701
0.000398038
0.000730105
0.000285046
1.5896e-05
3.75695e-06
2.37475e-06
2.11404e-06
4.27845e-05
6.61778e-06
2.34018e-05
2.65447e-05
0.000904789
0.000671604
4.84263e-05
4.1016e-06
2.86762e-06
2.94662e-06
2.89424e-05
5.81762e-06
1.56561e-05
2.57172e-05
0.000272275
0.000386949
4.71179e-05
3.63357e-06
1.98538e-06
5.28768e-06
1.46714e-05
5.79774e-06
1.53844e-05
1.37333e-05
9.01098e-06
1.42502e-05
1.29076e-05
4.4109e-06
3.63357e-06
2.57603e-05
9.24866e-06
9.66557e-06
0.000211771
2.32799e-05
7.48014e-06
6.04745e-06
6.68021e-06
5.90013e-06
3.26025e-05
5.1845e-05
1.50602e-05
1.01613e-05
0.000379633
3.50061e-05
6.42256e-06
5.41508e-06
2.7433e-05
0.000211167
0.000190113
8.00318e-05
1.01825e-05
1.03525e-05