/*--------------------------------*- C++ -*----------------------------------*\
| =========                 |                                                 |
| \\      /  F ield         | OpenFOAM: The Open Source CFD Toolbox           |
|  \\    /   O peration     | Version:  2312                                  |
|   \\  /    A nd           | Website:  www.openfoam.com                      |
|    \\/     M anipulation  |                                                 |
\*---------------------------------------------------------------------------*/
FoamFile
{
    version     2.0;
    format      ascii;
    arch        "LSB;label=32;scalar=64";
    class       volVectorField;
    location    "0.505";
    object      U;
}
// * * * * * * * * * * * * * * * * * * * * * * * * * * * * * * * * * * * * * //

dimensions      [0 1 -1 0 0 0 0];

internalField   nonuniform List<vector> 
8000
(
(0.00143252 -0.000887821 -0.00136963)
(0.00118324 -0.000886037 -0.00101259)
(0.00055942 -0.000878574 -0.000538904)
(-0.000455837 -0.000890923 -0.000141975)
(-0.00157102 -0.000958023 0.000150214)
(-0.00252485 -0.00112775 0.000281378)
(-0.00291464 -0.00134249 0.000311129)
(-0.00289298 -0.00170694 0.000317164)
(-0.00184234 -0.00202827 0.000308295)
(-0.00029984 -0.00171381 0.000246049)
(0.00201182 -0.00105546 -0.00197486)
(0.00262087 -0.000912939 -0.00163917)
(0.00287665 -0.000770579 -0.00122981)
(0.00273022 -0.000705125 -0.000857513)
(0.00230019 -0.000755631 -0.00059159)
(0.0017057 -0.00100835 -0.00045531)
(0.00124405 -0.00139106 -0.000432032)
(0.000781686 -0.00229166 -0.000454187)
(0.000567664 -0.00337349 -0.000404691)
(0.000575836 -0.00242215 -0.000625878)
(0.00210538 -0.00359547 -0.0012052)
(0.0026834 -0.00332362 -0.000721808)
(0.00276827 -0.00301251 -0.00022103)
(0.00232946 -0.00263298 8.62256e-05)
(0.00153935 -0.00221029 0.000184247)
(0.000659332 -0.00194723 0.000150201)
(-0.000102444 -0.00177888 8.95006e-06)
(-0.000580375 -0.00209964 -0.00014664)
(-0.000379361 -0.00232663 -0.00031104)
(0.000379605 -0.000180796 -0.000449087)
(0.0022159 -0.00589169 0.000779215)
(0.0030586 -0.00525737 0.0011252)
(0.00335889 -0.00448446 0.00131193)
(0.00302937 -0.00356132 0.00132621)
(0.00202096 -0.0027464 0.00109939)
(0.000688981 -0.00231737 0.000688595)
(-0.000450567 -0.0021573 0.000320867)
(-0.000320862 -0.00353456 -4.40889e-05)
(-0.000153315 -0.00514768 -1.80454e-05)
(7.21982e-05 -0.00233246 -0.000193245)
(0.00238732 -0.0159474 0.00975271)
(0.00430571 -0.0148912 0.00977408)
(0.00506474 -0.0132413 0.00871098)
(0.00436107 -0.0113189 0.00674106)
(0.00230756 -0.0086247 0.00453851)
(-0.000132104 -0.00629808 0.00275782)
(-0.00237409 -0.0051453 0.00144717)
(-0.00266986 -0.0053178 0.000881624)
(-0.0048652 -0.00482343 0.00274567)
(-0.00383255 -0.00148399 0.00305832)
(0.00305256 -0.0420595 0.0201006)
(0.00907212 -0.0387157 0.0202225)
(0.0130078 -0.0311138 0.0198104)
(0.0147207 -0.0212883 0.0182347)
(0.0131425 -0.0127941 0.0143716)
(0.00901023 -0.00797983 0.0094072)
(0.00366493 -0.00549755 0.00593187)
(-0.00049569 -0.0064405 0.00507135)
(-0.0092374 -0.0140332 0.00960853)
(-0.0101163 -0.0168408 0.0105369)
(0.00762167 -0.0875027 0.0031017)
(0.0204771 -0.0831699 0.00403097)
(0.0292541 -0.0747265 0.00676136)
(0.0335932 -0.0621643 0.0117363)
(0.0321058 -0.0423193 0.0175264)
(0.0243452 -0.0230419 0.018219)
(0.0119108 -0.0127747 0.0146412)
(-0.000578373 -0.0131278 0.0125542)
(-0.0131905 -0.0311317 0.0155346)
(-0.0142012 -0.0486586 0.0151186)
(0.0121373 -0.099554 -0.0375444)
(0.0313598 -0.0930762 -0.0378159)
(0.0465405 -0.0823723 -0.0362479)
(0.0558819 -0.0698367 -0.0300937)
(0.0557569 -0.0538579 -0.0155975)
(0.0413052 -0.0355428 0.00604186)
(0.026592 -0.0238173 0.0188007)
(0.00744857 -0.0225631 0.0200596)
(-0.00875663 -0.044682 0.0154108)
(-0.012651 -0.0792291 0.00890177)
(-3.99833e-05 -0.093955 -0.0411379)
(0.00329257 -0.0847688 -0.0493499)
(0.015857 -0.0641279 -0.0576049)
(0.00371531 -0.0407846 -0.0691909)
(0.0171054 -0.0251583 -0.0688048)
(0.0487295 -0.0146624 -0.0530665)
(0.0621309 -0.00887278 -0.027878)
(0.048959 -0.0150273 -0.00101028)
(0.015953 -0.0367579 0.0121412)
(-0.00881469 -0.0752531 0.000488811)
(-0.0159054 -0.048373 0.0648031)
(-0.0348754 -0.0379338 0.0689659)
(-0.094648 0.0115495 0.0595014)
(-0.329277 0.0389767 -0.0181833)
(-0.338339 0.00610263 -0.0558727)
(-0.157724 -0.0182648 -0.0617698)
(-0.0419232 0.0147617 -0.0559263)
(0.0394437 0.0215439 -0.0257132)
(0.0274688 -0.00974939 0.00166491)
(-0.00866585 -0.0504291 -0.00139154)
(-0.00227915 -0.029744 -0.0586058)
(0.0101489 -0.00838571 -0.0582275)
(0.043536 0.042806 -0.0522049)
(0.0503109 0.0871376 -0.0113693)
(0.0566517 0.0682693 0.0133917)
(-0.281511 -0.231357 0.00808971)
(-0.26737 -0.116693 -0.0281095)
(-0.0382502 -0.0465798 -0.0520695)
(0.0246321 0.0250972 -0.0261236)
(-0.00114157 -0.0239783 -0.00858609)
(0.00632841 0.08488 -0.0969041)
(0.0226045 0.108177 -0.090769)
(0.0516326 0.144624 -0.0926422)
(0.114198 0.163795 -0.0863524)
(0.201203 0.191221 -0.0303259)
(0.135692 0.0436744 0.021992)
(0.121883 -0.0120518 0.0595679)
(-0.187012 -0.254023 -0.0170437)
(-0.00690799 0.00622636 -0.0301868)
(0.00538419 0.0123188 -0.0113436)
(0.0229778 0.148455 -0.0706304)
(0.0388299 0.174752 -0.0607738)
(0.0541779 0.221299 -0.0540605)
(0.0772586 0.247348 -0.0525595)
(0.106967 0.267292 -0.0205833)
(0.131909 0.185177 0.0729166)
(-0.405898 -0.00571201 0.035681)
(-0.567877 -0.10695 -0.00443712)
(-0.127164 -0.115139 -0.00219306)
(-0.010712 0.00248515 0.0084208)
(0.0367082 0.16838 -0.0478591)
(0.0521597 0.178391 -0.033335)
(0.0643442 0.207444 -0.0185765)
(0.0679662 0.243897 -0.0105726)
(0.0737144 0.281288 0.00742039)
(0.158427 0.305087 0.0616474)
(0.0342967 0.270078 0.0558497)
(-0.293343 0.0817707 -0.0274929)
(0.161869 -0.902603 -0.168972)
(-0.223474 -0.382091 0.224091)
(0.0345078 0.175694 -0.0209885)
(0.048451 0.161422 -0.00390404)
(0.0623892 0.158686 0.00957571)
(0.0803124 0.164836 0.0211552)
(0.130469 0.166433 0.0305062)
(0.200908 0.148968 0.0308268)
(0.336912 0.265615 0.0372814)
(0.231742 0.123667 -0.0201095)
(0.206914 -0.0371662 -0.176529)
(-0.0287571 -0.210257 0.0316552)
(0.0201974 0.142011 0.00643474)
(0.0348655 0.119695 0.0185996)
(0.0574155 0.0957279 0.0263236)
(0.0979877 0.0625961 0.029605)
(0.175765 0.0246525 0.0247402)
(0.219868 -0.0308713 0.0250376)
(0.241851 0.131731 0.0273187)
(0.240351 0.245744 -0.0246666)
(0.147987 0.148738 -0.143903)
(-0.00424769 -0.0460032 0.0252563)
(0.008183 0.0791604 0.0173993)
(0.032646 0.0592761 0.0179562)
(0.0615897 0.0369777 0.0140977)
(0.0950027 0.0110273 0.00584453)
(0.151578 -0.0272557 7.28542e-06)
(0.165759 -0.0679475 0.0152695)
(0.0279107 0.124715 0.047865)
(0.107377 0.399743 -0.0446573)
(0.0234675 0.383963 -0.103633)
(0.0176129 0.0448284 0.0150325)
(0.00605182 0.0331702 0.00635976)
(0.0309908 0.0223446 0.00336325)
(0.0546457 0.0081586 -0.00180443)
(0.0793095 -0.0125862 -0.00422154)
(0.113026 -0.0432858 -0.00472828)
(0.100329 -0.054439 0.00464976)
(-0.114206 0.147577 0.0801693)
(-0.0569794 0.514477 -0.00080967)
(-0.0666795 0.510815 -0.0397839)
(0.0429506 0.0246184 -0.0370801)
(0.00531876 0.0132161 -0.00335961)
(0.0235182 0.00500467 -0.00213743)
(0.0407153 -0.00881148 -0.00568687)
(0.0629293 -0.0306307 -0.00519965)
(0.081583 -0.0492602 -0.00529856)
(0.060126 -0.0149799 -0.0103964)
(-0.149515 0.131815 0.077629)
(-0.160918 0.454321 0.0906615)
(-0.0641412 0.436305 0.0312234)
(0.0308637 0.0101541 -0.0446806)
(7.92807e-06 0.00379226 -0.00467276)
(0.012427 -0.00528366 -0.00313498)
(0.0236336 -0.0199745 -0.00633078)
(0.0436551 -0.0442635 -0.00357481)
(0.0472319 -0.0494141 -0.00413734)
(0.0363459 0.0280464 -0.030366)
(-0.095443 0.139254 0.00391539)
(-0.15611 0.297921 0.0757409)
(-0.0384888 0.251085 0.033526)
(0.0132867 0.0179403 -0.0285007)
(0.000966583 -0.00231566 0.00343662)
(-0.000783702 -0.00227344 0.00379759)
(-0.00241823 -0.00225611 0.00396175)
(-0.00382197 -0.0021433 0.00393282)
(-0.00481364 -0.00204417 0.00368181)
(-0.00539373 -0.00202815 0.00328111)
(-0.00523897 -0.00210123 0.00283958)
(-0.00462675 -0.0024455 0.00253985)
(-0.0026772 -0.00275419 0.0025039)
(-0.000361175 -0.00203841 0.0016608)
(0.00178582 -0.00697546 0.00260101)
(0.00111359 -0.00587912 0.00290962)
(0.000275973 -0.0048469 0.00301498)
(-0.000585038 -0.00406271 0.00284631)
(-0.00130004 -0.00354863 0.00241839)
(-0.00177327 -0.00331537 0.00180995)
(-0.00181693 -0.00338333 0.00115353)
(-0.00164146 -0.00424417 0.000681959)
(-0.000813655 -0.00546177 0.000647562)
(0.000353947 -0.00340309 -0.000720556)
(0.00201398 -0.013731 0.00452521)
(0.0013059 -0.0117198 0.00477266)
(4.68844e-05 -0.00995323 0.00484188)
(-0.00135418 -0.00834554 0.00458976)
(-0.00248057 -0.00692885 0.00392171)
(-0.00323792 -0.00596653 0.00309158)
(-0.00360051 -0.00532898 0.00223571)
(-0.00340235 -0.00573951 0.00166023)
(-0.00185825 -0.00641572 0.00149681)
(0.000234638 -0.00239446 0.00013925)
(0.00211266 -0.0193579 0.0105427)
(0.00164531 -0.0159896 0.01048)
(0.000593833 -0.0126565 0.00977236)
(-0.000809878 -0.0101736 0.00867595)
(-0.0025127 -0.00846046 0.0070637)
(-0.00389939 -0.00734284 0.00517658)
(-0.00458053 -0.00682041 0.00333478)
(-0.00362411 -0.00903051 0.00180427)
(-0.00223495 -0.011667 0.00144772)
(-0.000186302 -0.00532827 -0.000369153)
(0.00197072 -0.0272922 0.0220736)
(0.00229851 -0.0249034 0.0214899)
(0.000887138 -0.0216874 0.0189364)
(-0.00163019 -0.0183185 0.0152697)
(-0.00440593 -0.0149574 0.0113784)
(-0.00649779 -0.012544 0.0079239)
(-0.00841983 -0.0111188 0.00497433)
(-0.00859355 -0.012204 0.00459719)
(-0.00892106 -0.0127063 0.00912942)
(-0.00322079 -0.00558894 0.00390365)
(0.00200831 -0.0289807 0.037111)
(0.00530694 -0.0264679 0.0375633)
(0.0062754 -0.0205353 0.0370608)
(0.00478293 -0.0147133 0.0341065)
(0.000205582 -0.0118387 0.0271622)
(-0.00500073 -0.0108297 0.0181264)
(-0.0104839 -0.0104557 0.0120339)
(-0.0146648 -0.0146717 0.014559)
(-0.0196546 -0.0202558 0.023478)
(-0.0100062 -0.0141783 0.0129265)
(0.00459851 -0.0564389 0.0273816)
(0.010265 -0.0541146 0.0272951)
(0.0132902 -0.0481047 0.0300148)
(0.0129399 -0.0383397 0.0350468)
(0.00879665 -0.0254452 0.0379422)
(0.00122107 -0.0139595 0.0339402)
(-0.00854434 -0.00925346 0.0270039)
(-0.016475 -0.0152638 0.0257609)
(-0.0254913 -0.0295084 0.0277826)
(-0.0168692 -0.031507 0.0174184)
(0.00999511 -0.0513753 0.000120795)
(0.0228178 -0.0462915 -0.000848453)
(0.0292107 -0.0372088 -0.00260761)
(0.0276966 -0.0262446 -0.00208475)
(0.0159069 -0.0195406 0.00621385)
(0.00586974 -0.0188935 0.0175678)
(-0.00277247 -0.0146353 0.0227157)
(-0.00919905 -0.014438 0.0230152)
(-0.0167947 -0.0308229 0.0158742)
(-0.0165411 -0.0453934 0.00388198)
(0.00616023 -0.149173 -0.00768237)
(0.0208374 -0.133571 -0.00281791)
(0.0318788 -0.100513 0.00251708)
(0.0301648 -0.0569553 -0.00355169)
(0.0288585 -0.0206248 -0.011714)
(0.0399548 0.0078698 -0.0122213)
(0.0310191 0.0138878 -0.00499735)
(0.0120514 0.000782203 0.00456753)
(-0.00233433 -0.0191321 0.00314605)
(-0.00989903 -0.0386942 -0.0267352)
(-0.00544167 -0.234936 -0.0404587)
(0.00785271 -0.225819 -0.0160178)
(0.0226036 -0.187864 0.0415214)
(-0.191765 -0.152633 0.0283354)
(-0.272768 -0.139186 0.0127259)
(-0.181238 -0.100026 -0.0109896)
(-0.0404716 -0.0139845 -0.0167108)
(0.0177715 0.0235411 -0.0130235)
(0.0101027 0.00468638 -0.00781927)
(0.00340486 -0.0103798 -0.0398162)
(-0.0080115 -0.0632244 -0.20417)
(0.0358241 -0.0441424 -0.198291)
(0.0830009 0.0335289 -0.195044)
(0.0831738 0.0747835 -0.139514)
(0.0887096 -0.0247872 0.0342412)
(-0.198488 -0.276786 0.00205518)
(-0.233669 -0.201706 0.0220909)
(-0.0984652 -0.0471849 -0.00606611)
(0.00620806 0.0388938 -0.00727676)
(0.0325722 0.0288389 -0.0390075)
(-0.0312596 -0.0749927 -0.124305)
(-0.00251506 -0.0531342 -0.147082)
(0.0464117 -0.00777737 -0.199294)
(0.121635 0.0625007 -0.245269)
(0.192458 0.132361 -0.180426)
(0.162399 0.0706304 -0.0824571)
(0.110653 -0.0913435 0.081202)
(0.0800402 -0.435786 -0.061602)
(-0.0912553 -0.234863 0.0874634)
(0.034701 0.00956697 -0.00389955)
(-0.0596324 -0.014059 -0.0351018)
(-0.044991 0.0471778 -0.0282447)
(-0.0205002 0.104825 -0.0345594)
(0.0325524 0.142269 -0.0886949)
(0.0955333 0.195606 -0.14366)
(0.166915 0.204577 -0.0597469)
(0.173378 0.177075 0.058607)
(-0.257971 0.0604454 0.024032)
(-0.145788 -0.0655123 0.145296)
(-0.0015974 -0.118475 0.126274)
(-0.0549649 -0.00401112 -0.0176103)
(-0.049757 0.0214942 0.00921845)
(-0.0113612 0.0911389 0.0493113)
(0.0245251 0.161111 0.0668431)
(0.0641428 0.232064 0.0449051)
(0.164038 0.295908 0.0592272)
(0.315484 0.376465 0.0642369)
(0.306362 0.334946 -0.121162)
(0.286899 -0.410003 -0.283373)
(0.152872 -0.912409 -0.158855)
(-0.0382676 0.0349305 0.00904645)
(-0.0377571 0.0270198 0.0192855)
(-0.00613477 0.0249097 0.0442453)
(0.0547859 0.0385553 0.0672219)
(0.138219 0.0900258 0.0944835)
(0.214289 0.146172 0.105682)
(0.340331 0.32752 0.0786643)
(0.463445 0.365475 -0.100833)
(0.329999 0.128748 -0.33979)
(0.149027 -0.0509351 -0.216269)
(-0.016717 0.056778 0.0349988)
(0.00644798 0.0428193 0.0349729)
(0.0318617 0.0198748 0.0272479)
(0.0764214 -0.0112176 0.00629282)
(0.155872 -0.00873413 0.0210735)
(0.217469 0.00893045 0.068889)
(0.27315 0.236128 0.0619783)
(0.361124 0.417792 -0.0717498)
(0.250984 0.353376 -0.270455)
(0.0979855 0.118159 -0.143146)
(-0.00143856 0.0295896 0.0310554)
(0.0306007 0.0208914 0.0255206)
(0.0577837 0.00986792 0.0118908)
(0.0895611 -0.0245211 -0.0144234)
(0.131722 -0.0342232 -0.0107654)
(0.152819 0.00475687 0.0793192)
(0.132825 0.266324 0.0508624)
(0.229227 0.510195 -0.0922553)
(0.156379 0.519577 -0.197327)
(0.0321078 0.340891 -0.00869618)
(0.00899858 0.0134563 0.00517114)
(0.0285535 0.00669976 0.00577036)
(0.0486361 -0.00923822 -0.00477296)
(0.073668 -0.0415465 -0.0146396)
(0.0991708 -0.0381278 -0.00553377)
(0.0651345 0.0686056 0.11177)
(-0.0261171 0.333966 0.0801984)
(0.136852 0.590501 -0.105599)
(0.0552746 0.632355 -0.120277)
(-0.0327703 0.382491 0.0699707)
(0.00667932 0.00344945 -0.00743285)
(0.0195347 -0.0047043 -0.00143658)
(0.0306278 -0.0241437 -0.0110859)
(0.0464215 -0.0513952 -0.0112055)
(0.0597014 -0.0182474 -0.00362972)
(-0.00981594 0.158147 0.121332)
(-0.122311 0.413002 0.120632)
(0.0266228 0.67696 -0.0428481)
(-0.0435685 0.687939 -0.0182954)
(-0.044269 0.228275 0.0463359)
(-0.00113106 -0.000420707 -0.00979149)
(0.00539824 -0.0125651 -0.00340343)
(0.0105077 -0.0332176 -0.010944)
(0.0162901 -0.0521545 -0.0046222)
(0.0167079 0.0095646 -0.00709716)
(-0.0503761 0.238361 0.0926464)
(-0.165697 0.514053 0.144697)
(-0.0921566 0.740718 0.049733)
(-0.103665 0.650731 0.0627654)
(0.017315 0.113874 -0.00715143)
(0.00136671 -0.00215558 0.0109686)
(-0.000565314 -0.00185012 0.0106022)
(-0.00241159 -0.00169072 0.00965778)
(-0.00388687 -0.00158945 0.00851705)
(-0.00494224 -0.00148681 0.00728532)
(-0.0055213 -0.00151733 0.00613154)
(-0.00535068 -0.00166068 0.00508791)
(-0.00469053 -0.00207484 0.00441325)
(-0.00271783 -0.00245264 0.00435481)
(-0.000379168 -0.00170948 0.00264101)
(0.00222295 -0.00714453 0.00973803)
(0.00145596 -0.00539682 0.00914209)
(0.000579352 -0.00376601 0.00797186)
(-0.000419518 -0.00267864 0.00671517)
(-0.00127886 -0.00212997 0.00525929)
(-0.00182063 -0.00198934 0.00377198)
(-0.00187173 -0.00218545 0.00238943)
(-0.00173534 -0.00310301 0.00145948)
(-0.000846566 -0.00430865 0.00137131)
(0.000407828 -0.00235597 -0.001026)
(0.00272796 -0.012687 0.0121131)
(0.00173219 -0.0102265 0.0119468)
(0.000419172 -0.00750107 0.0107285)
(-0.00117441 -0.00539203 0.00921099)
(-0.00247924 -0.00406397 0.00743119)
(-0.00327153 -0.00357585 0.0055991)
(-0.00354547 -0.00361317 0.00396469)
(-0.00331589 -0.00461507 0.0029247)
(-0.00189902 -0.0058716 0.00290698)
(0.000107577 -0.00222044 0.000259048)
(0.00405386 -0.0150656 0.0157496)
(0.00325497 -0.0137688 0.0174976)
(0.00150824 -0.010385 0.0166983)
(-0.000538196 -0.00741873 0.0146091)
(-0.00276681 -0.00575807 0.0119506)
(-0.00446503 -0.00486483 0.00894843)
(-0.00512857 -0.00452579 0.0059023)
(-0.00420647 -0.00660164 0.0034067)
(-0.00223333 -0.00945007 0.00260831)
(-6.50189e-05 -0.00386018 -0.00028736)
(0.00553506 -0.0163213 0.0213149)
(0.00541799 -0.018036 0.0251433)
(0.00245593 -0.0155981 0.0239535)
(-0.000942225 -0.0110874 0.0198784)
(-0.00378639 -0.00758404 0.0151974)
(-0.00559499 -0.00663308 0.0108017)
(-0.0072508 -0.00759543 0.00727265)
(-0.00719489 -0.0109693 0.00668536)
(-0.0052571 -0.012953 0.00934619)
(-0.000936033 -0.00606089 0.00171356)
(0.00595836 -0.0100525 0.036962)
(0.00745678 -0.0154102 0.0415549)
(0.00381316 -0.0163661 0.0429304)
(-0.00133197 -0.014428 0.0398119)
(-0.00648214 -0.0124176 0.0318454)
(-0.01013 -0.00991131 0.022194)
(-0.0140524 -0.00821674 0.0159566)
(-0.0171016 -0.0124876 0.0179057)
(-0.01739 -0.0155744 0.020943)
(-0.0055289 -0.00763107 0.00367581)
(0.00583905 -0.0257115 0.0334913)
(0.00817552 -0.0271085 0.0338947)
(0.00470845 -0.02348 0.0366262)
(-0.00254235 -0.015473 0.0403249)
(-0.0108804 -0.00868483 0.0400638)
(-0.0172247 -0.00537839 0.034768)
(-0.0223538 -0.00460226 0.0282239)
(-0.0257866 -0.0101986 0.0260883)
(-0.0292553 -0.0154785 0.0210484)
(-0.0144162 -0.0147188 0.00353305)
(0.00891622 -0.0436733 0.0121872)
(0.0213336 -0.0396816 0.0118382)
(0.0265226 -0.0312066 0.00848069)
(0.0224566 -0.0189324 0.00636907)
(0.00954249 -0.00811357 0.0102986)
(-0.00376975 -0.00300687 0.0140183)
(-0.0138488 -0.00217589 0.0166876)
(-0.0168367 -0.00631295 0.0175914)
(-0.0234875 -0.0146754 0.0100923)
(-0.0198468 -0.026519 -0.0112713)
(0.00613428 -0.1226 0.084552)
(0.0205978 -0.111224 0.0865388)
(0.0224929 -0.0846507 0.0839325)
(0.0198195 -0.0415881 0.0650162)
(0.0135747 -0.00761276 0.0398285)
(0.0197573 0.0191711 0.0162612)
(0.0126327 0.0194628 0.00210613)
(0.00732295 0.0107915 -0.00556168)
(-0.00165271 -0.00108185 -0.0113374)
(0.00336221 -0.0192249 -0.0541676)
(0.0191901 -0.202623 -0.0764729)
(0.0563436 -0.197595 -0.0295472)
(0.0741273 -0.178456 0.0451841)
(-0.0683568 -0.144442 0.0687402)
(-0.244853 -0.0979117 0.0363014)
(-0.135653 -0.0688503 0.0333271)
(-0.0512045 -0.00559866 0.0171377)
(0.00479461 0.0299476 -0.00610403)
(0.0169 0.0241356 -0.0202905)
(0.0302823 0.0158031 -0.0474012)
(-0.0034867 -0.0662775 -0.305693)
(0.0794257 -0.024481 -0.291387)
(0.131272 0.0714977 -0.269589)
(0.116756 0.13157 -0.198526)
(0.0941378 0.111211 0.0131173)
(0.0133438 -0.309234 -0.0292697)
(-0.190553 -0.189695 0.053453)
(-0.117414 -0.116505 0.108217)
(0.00240412 -0.0415599 0.0915208)
(0.0516221 -0.0381643 0.0320176)
(-0.0407437 -0.150437 -0.171443)
(-0.0052771 -0.134624 -0.216743)
(0.0706163 -0.0750882 -0.277425)
(0.152288 0.0152239 -0.301671)
(0.213199 0.0923405 -0.243423)
(0.223144 0.0847258 -0.211175)
(0.140864 0.135616 -0.135348)
(0.245002 -0.31589 -0.307848)
(0.0735383 -0.421897 -0.0164454)
(0.0263558 -0.221072 0.195111)
(-0.0829456 -0.0773744 -0.104606)
(-0.0716172 -0.031873 -0.124629)
(-0.0272512 0.018719 -0.161229)
(0.0537044 0.0466957 -0.20469)
(0.130881 0.0795731 -0.248539)
(0.163856 0.100406 -0.2413)
(0.204751 0.147222 -0.186598)
(0.288195 0.102991 -0.335379)
(-0.0343371 0.0486343 0.325753)
(0.0010256 -0.104077 0.567629)
(-0.116818 -0.0640137 -0.0620251)
(-0.12192 -0.0383613 -0.0483041)
(-0.0737224 -0.00784331 0.00479241)
(0.00829864 0.0576594 0.0457367)
(0.0789036 0.129629 0.00707361)
(0.143669 0.184611 -0.0804312)
(0.20427 0.215046 -0.1523)
(0.279791 0.20806 -0.319078)
(0.0906542 0.314893 -0.274813)
(0.0254572 0.0812713 0.300067)
(-0.0687751 -0.0261071 -0.0285059)
(-0.0778318 -0.0167665 -0.0308412)
(-0.0655441 -0.0242596 -0.00785204)
(-0.00578352 -0.000124717 0.0379758)
(0.0843733 0.0898305 0.110455)
(0.160696 0.200207 0.0862573)
(0.206352 0.28331 -0.0635445)
(0.206228 0.287314 -0.237638)
(0.0470213 0.315169 -0.449013)
(0.0118467 0.0853309 -0.249796)
(-0.0251321 -0.0091991 0.000395773)
(-0.00466843 0.00778625 0.00129481)
(0.00137776 -0.00687786 -0.0129749)
(0.0221203 -0.016639 -0.0278891)
(0.0551635 0.0819743 0.00558561)
(0.145861 0.197624 0.0821115)
(0.197199 0.34703 -0.0250713)
(0.163593 0.396034 -0.180629)
(0.00702625 0.337738 -0.332347)
(0.00764864 0.155544 -0.226376)
(-0.000846542 -0.00798612 -0.000450978)
(0.0225205 0.00318553 0.00828793)
(0.038816 -0.00443295 -0.0075681)
(0.0673483 -0.0307025 -0.0219827)
(0.0536803 0.0447953 -0.0397821)
(0.107774 0.207653 0.0264581)
(0.173047 0.410937 -0.0474508)
(0.140572 0.492794 -0.169839)
(-0.0160186 0.4147 -0.191781)
(-0.0304864 0.258129 -0.0322297)
(0.00829751 -0.00186165 -0.0128982)
(0.0259183 -0.00222121 0.00104035)
(0.0346347 -0.0190918 -0.0129134)
(0.0617243 -0.0389706 -0.0189631)
(0.0522823 0.0343706 -0.0168405)
(0.0575536 0.245893 0.0117002)
(0.135168 0.474048 -0.069289)
(0.106669 0.560335 -0.166316)
(-0.0809744 0.485836 -0.0525423)
(-0.0878531 0.223461 0.116344)
(0.00560578 0.00295577 -0.0187904)
(0.0164461 -0.00612268 -0.000429754)
(0.0167965 -0.0273856 -0.0139612)
(0.0339663 -0.0424821 -0.0160574)
(0.0249505 0.0500301 -0.00410563)
(0.00372814 0.30524 0.0150309)
(0.0821086 0.540797 -0.0559554)
(0.0530611 0.627099 -0.128494)
(-0.13906 0.54499 0.054669)
(-0.0332214 0.11939 0.0867517)
(-0.00013845 0.00533222 -0.0165798)
(0.00353625 -0.0111016 0.000954384)
(-0.00235418 -0.0310798 -0.00980989)
(0.00167994 -0.0353099 -0.0123853)
(-0.0135232 0.0747484 -0.00502851)
(-0.0474959 0.363614 0.0153971)
(0.00586728 0.6186 -0.0201382)
(-0.0301238 0.712003 -0.050095)
(-0.163892 0.582505 0.108459)
(0.0598305 0.0916975 0.00218736)
(0.00133186 -6.16027e-05 0.0156122)
(-0.00145946 6.51818e-05 0.0147638)
(-0.00342363 -2.28483e-05 0.0127191)
(-0.00493282 -0.000245785 0.0106509)
(-0.00593811 -0.00048595 0.00877264)
(-0.00645277 -0.000773905 0.00715358)
(-0.00620631 -0.00110474 0.00579232)
(-0.0053529 -0.00168288 0.00498769)
(-0.00298894 -0.00214412 0.00491596)
(-0.000355887 -0.00139121 0.00263514)
(0.00259959 -0.00177337 0.0134977)
(0.000309938 -0.00105846 0.0125581)
(-0.000762904 -0.000348083 0.0103089)
(-0.00160189 5.88751e-05 0.00822546)
(-0.00245835 4.46893e-05 0.00617939)
(-0.0029906 -0.000363967 0.00428564)
(-0.00298435 -0.000977689 0.00259016)
(-0.00266229 -0.00221821 0.00151149)
(-0.00130831 -0.00349777 0.00149003)
(0.000396545 -0.00151099 -0.00152818)
(0.00538149 -0.00175283 0.013345)
(0.00231352 -0.00203679 0.0153881)
(-0.000557124 -0.00118788 0.0140406)
(-0.00258855 -0.000212881 0.0117876)
(-0.00408063 0.000204175 0.00922645)
(-0.00487035 -0.000436751 0.00669734)
(-0.00491028 -0.00164999 0.00450321)
(-0.0043165 -0.00373097 0.0031378)
(-0.00244727 -0.00554501 0.00317895)
(-2.97434e-05 -0.00203182 -0.000174394)
(0.00928227 0.00484488 0.0119234)
(0.00676925 0.00107865 0.0202181)
(0.00122213 -0.000448502 0.0209883)
(-0.00268028 -1.44752e-05 0.018306)
(-0.0054383 -6.96194e-05 0.0146025)
(-0.00730566 -0.00102614 0.0108168)
(-0.00780988 -0.00210823 0.00720662)
(-0.00643682 -0.00480451 0.00434774)
(-0.00359944 -0.00752947 0.00366554)
(-0.000416653 -0.00244749 -0.000154863)
(0.0106511 0.0134495 0.0124547)
(0.0114793 0.00692041 0.0273533)
(0.00409087 0.00230867 0.0315287)
(-0.00295522 0.00237144 0.0276871)
(-0.00745593 0.00332113 0.0212395)
(-0.0091663 0.00186588 0.0144255)
(-0.00948886 -0.00229085 0.00871337)
(-0.00824012 -0.00853914 0.00667913)
(-0.0054908 -0.0123803 0.00874339)
(-0.00134836 -0.00613149 0.00161621)
(0.00801632 0.0310652 0.0229181)
(0.0126009 0.0168892 0.0380334)
(0.00629989 0.00446721 0.0456853)
(-0.00286713 -0.00165267 0.0432134)
(-0.0105111 -0.00457913 0.0347291)
(-0.015177 -0.00587067 0.0244387)
(-0.0180478 -0.00577476 0.0168016)
(-0.018308 -0.00886277 0.0160715)
(-0.0150135 -0.0115431 0.0153029)
(-0.00569134 -0.00697433 -0.00194094)
(0.00529208 0.0236022 0.0592734)
(0.00623469 0.0216845 0.0592287)
(0.00115044 0.0215131 0.0607961)
(-0.00806528 0.0195432 0.0568206)
(-0.0179254 0.0145674 0.0477076)
(-0.0248314 0.00952117 0.0355196)
(-0.0299814 0.00374018 0.0272693)
(-0.0317528 -0.00440228 0.0241059)
(-0.0311069 -0.00927139 0.0119995)
(-0.0159095 -0.0144932 -0.0101058)
(0.00714156 0.00572696 0.0514221)
(0.0115004 0.0045586 0.0525097)
(0.012961 0.00423559 0.054249)
(0.00813101 0.00501618 0.04202)
(0.000436536 0.00664961 0.0294127)
(-0.00865266 0.0105301 0.0202721)
(-0.0169062 0.00968902 0.0155989)
(-0.0188943 -0.00189089 0.0153445)
(-0.0243046 -0.0155986 0.00397357)
(-0.0183004 -0.0301756 -0.0291984)
(0.00443327 -0.0745656 0.153373)
(0.0249808 -0.0698417 0.163063)
(0.0129619 -0.0627475 0.163845)
(-0.00680321 -0.0347259 0.146124)
(-0.0278131 -0.00863381 0.103817)
(-0.0182853 0.0213985 0.0526083)
(-0.0153115 0.0263205 0.0151131)
(-0.00207277 0.0190272 -0.0121064)
(0.00520961 0.0114203 -0.0313636)
(0.0283622 -0.011692 -0.0672352)
(0.0417841 -0.118417 -0.250033)
(0.0858729 -0.140112 -0.129755)
(0.0428969 -0.125748 -0.0438682)
(-0.10244 -0.0956725 0.0309738)
(-0.275497 -0.0800193 0.0787675)
(-0.16721 -0.0728894 0.115584)
(-0.0870869 -0.0119562 0.0788731)
(-0.0216058 -0.00261242 0.0439776)
(0.0172291 -0.00970922 0.0294705)
(0.0596753 0.0101247 0.0239129)
(-0.0133693 -0.160493 -0.335135)
(0.135492 -0.0073016 -0.334971)
(0.1648 0.128233 -0.31212)
(0.122041 0.14164 -0.209519)
(0.0505195 0.0990949 -0.069416)
(0.0376006 -0.320602 -0.0552497)
(-0.0781637 -0.253062 -0.0036744)
(-0.0611822 -0.181075 0.158596)
(-0.014826 -0.192522 0.211769)
(0.0379562 -0.106955 0.279658)
(-0.0485524 -0.208774 -0.207295)
(0.00673628 -0.131087 -0.283509)
(0.104118 -0.00634759 -0.333725)
(0.178464 0.057479 -0.316819)
(0.22518 0.0639479 -0.272018)
(0.225279 0.0244429 -0.271411)
(0.185711 0.0343912 -0.259613)
(0.127203 0.136851 -0.230635)
(-0.0256835 -0.0939106 -0.191189)
(-0.0366096 -0.131904 -0.0979237)
(-0.0466838 -0.126893 -0.133551)
(-0.0398686 -0.0820471 -0.165496)
(0.0151233 -0.0333596 -0.21955)
(0.0996185 -0.00614599 -0.253418)
(0.157758 -2.60954e-05 -0.262188)
(0.163441 -0.0360182 -0.255398)
(0.150666 -0.0543462 -0.235209)
(0.112222 0.0375477 -0.249013)
(-0.0502158 0.159622 -0.192937)
(-0.0241075 -0.00418273 0.423348)
(-0.0690795 -0.0929171 -0.072648)
(-0.0844377 -0.0550768 -0.0707515)
(-0.0666263 -0.0332527 -0.072817)
(0.00594996 -0.00963862 -0.0651522)
(0.0898503 0.0239454 -0.0915751)
(0.124984 0.0180047 -0.14451)
(0.106782 0.00837067 -0.17327)
(0.0325666 0.110458 -0.218124)
(-0.103855 0.347513 -0.309149)
(-0.0492725 0.273399 -0.0251474)
(-0.0453698 -0.0567175 -0.0470897)
(-0.0451064 -0.0208013 -0.0287714)
(-0.0469509 -0.0149784 -0.0327331)
(-0.016382 -0.00548722 -0.0327333)
(0.0404084 0.0572617 -0.0310528)
(0.110898 0.106295 -0.0608414)
(0.0900637 0.100582 -0.12279)
(-0.0281795 0.152849 -0.190566)
(-0.127701 0.24486 -0.327643)
(-0.0513695 0.24574 -0.319335)
(-0.015759 -0.0396853 -0.0409701)
(0.00424635 -0.0110686 -0.00984909)
(0.0104117 -0.00952822 -0.0193082)
(0.0355255 -0.0192896 -0.0183958)
(0.0230574 0.0449841 -0.0498879)
(0.0847298 0.170905 -0.0659047)
(0.0800784 0.199685 -0.113191)
(-0.0341939 0.211983 -0.154951)
(-0.104247 0.118615 -0.213901)
(-0.0389096 0.0287093 -0.175345)
(0.00149606 -0.0231421 -0.0427938)
(0.0249983 -0.00764616 -0.00402691)
(0.0280796 -0.0157487 -0.0209405)
(0.0595142 -0.0214625 -0.0211904)
(0.0494523 0.0286377 -0.023957)
(0.0504763 0.207907 -0.0893167)
(0.0551683 0.279434 -0.125456)
(-0.053493 0.257272 -0.12605)
(-0.107282 0.0979204 -0.0762459)
(-0.0412309 -0.0274755 -0.00860066)
(0.00724985 -0.0137739 -0.0466883)
(0.0271087 -0.00457391 -0.00287836)
(0.0202675 -0.0201783 -0.0221393)
(0.0421168 -0.0247674 -0.0254163)
(0.0463709 0.0352591 -0.0114544)
(0.0160931 0.240466 -0.0851194)
(0.0199589 0.347624 -0.125918)
(-0.104915 0.303466 -0.0777264)
(-0.140325 0.13519 -0.00403976)
(-0.0274648 -0.0166911 -0.000217304)
(0.00700652 -0.00663985 -0.0432714)
(0.0173605 -0.00263893 0.00402149)
(0.00463177 -0.0210231 -0.01847)
(0.0157555 -0.024129 -0.0217758)
(0.0180238 0.055267 -0.00506646)
(-0.0177126 0.270664 -0.0490559)
(-0.0261804 0.41134 -0.0942879)
(-0.149327 0.355716 -0.0129051)
(-0.14348 0.192319 0.0192252)
(0.000444956 0.00997328 -0.0464889)
(0.00321497 0.000499271 -0.0325505)
(0.00562429 -0.00375823 0.0107621)
(-0.0107714 -0.0197038 -0.00893499)
(-0.00892824 -0.0186707 -0.0135363)
(-0.0148325 0.0773365 0.00056049)
(-0.0492776 0.290731 0.00587618)
(-0.0715699 0.462424 -0.0318303)
(-0.149807 0.398109 0.03528)
(-0.0976186 0.215469 0.0259232)
(0.0120922 0.0206386 -0.0477858)
(0.00203948 0.0031625 0.0174802)
(-0.00294524 0.00220501 0.0159836)
(-0.00557865 0.00149582 0.0132063)
(-0.00688634 0.000961314 0.0110003)
(-0.00767155 0.000368466 0.00897819)
(-0.00800396 -0.000197472 0.00727472)
(-0.00751669 -0.000749905 0.00584141)
(-0.00630817 -0.0015397 0.00502769)
(-0.00339799 -0.00208755 0.00501989)
(-0.000321587 -0.00118715 0.00223615)
(0.0054188 0.00458321 0.0149519)
(0.000527593 0.00337069 0.0146127)
(-0.00249005 0.00230885 0.0109138)
(-0.00359276 0.0019541 0.00819018)
(-0.00435853 0.0014893 0.00590326)
(-0.0047916 0.000695877 0.00404093)
(-0.00464358 -0.000338767 0.00236988)
(-0.00398503 -0.00202216 0.00134857)
(-0.00191983 -0.00344159 0.00142038)
(0.000440961 -0.00111766 -0.001971)
(0.0108894 0.00834479 0.0061984)
(0.00622027 0.0063928 0.0160485)
(-0.000695734 0.00413098 0.0153423)
(-0.00444638 0.00364845 0.0123782)
(-0.00644771 0.00320486 0.00925659)
(-0.00729617 0.00177648 0.0065909)
(-0.00707627 -0.000461331 0.00429118)
(-0.00588481 -0.00375596 0.00282677)
(-0.00322363 -0.00628791 0.0029244)
(-0.000134227 -0.00229839 -0.000844352)
(0.0132801 0.0128218 -0.0023612)
(0.0117285 0.0142553 0.0195852)
(0.00202063 0.0104533 0.0231969)
(-0.00502222 0.00793382 0.0196509)
(-0.00904594 0.00575379 0.0147681)
(-0.011065 0.00238957 0.0104876)
(-0.0113941 -0.00105298 0.00675778)
(-0.00946375 -0.00512356 0.00397315)
(-0.00538952 -0.00791525 0.00335772)
(-0.000692109 -0.00261772 -0.000991799)
(0.0111408 0.0276067 -0.0201027)
(0.0142891 0.0241349 0.0174359)
(0.00428147 0.0192561 0.0328886)
(-0.00690265 0.015123 0.0314715)
(-0.0140907 0.0125772 0.0239437)
(-0.0164157 0.00828163 0.0158933)
(-0.0151113 0.00142972 0.00870573)
(-0.0115798 -0.0079493 0.00520352)
(-0.00833356 -0.0142555 0.0065968)
(-0.00267298 -0.00767447 -0.00020897)
(0.0066638 0.0651098 0.0155142)
(0.00897459 0.0499406 0.0300311)
(0.00355799 0.0383469 0.0414248)
(-0.00740149 0.0247243 0.0413143)
(-0.0182725 0.0123485 0.0329066)
(-0.0246404 0.000666676 0.0227829)
(-0.0265721 -0.00651258 0.0145114)