/*--------------------------------*- C++ -*----------------------------------*\
| =========                 |                                                 |
| \\      /  F ield         | OpenFOAM: The Open Source CFD Toolbox           |
|  \\    /   O peration     | Version:  2312                                  |
|   \\  /    A nd           | Website:  www.openfoam.com                      |
|    \\/     M anipulation  |                                                 |
\*---------------------------------------------------------------------------*/
FoamFile
{
    version     2.0;
    format      ascii;
    arch        "LSB;label=32;scalar=64";
    class       volScalarField;
    location    "0.37";
    object      p_rgh;
}
// * * * * * * * * * * * * * * * * * * * * * * * * * * * * * * * * * * * * * //

dimensions      [1 -1 -2 0 0 0 0];

internalField   nonuniform List<scalar> 
8000
(
354.469
355.899
358.157
361.244
364.975
368.746
372.266
375.266
377.449
378.599
351.97
353.585
356.194
359.774
363.877
368.041
371.95
375.273
377.688
378.961
346.672
348.626
352.048
356.493
361.565
366.585
371.27
375.244
378.134
379.654
338.287
340.659
345.486
351.486
357.987
364.405
370.307
375.323
378.968
380.878
324.696
328.225
336.001
344.303
352.601
360.68
368.394
375.019
379.841
382.349
259.902
271.912
313.686
334.429
346.748
356.631
366.479
375.22
381.694
384.946
36.4248
49.052
118.3
200.811
266.949
309.745
344.878
368.069
382.513
388.978
0.367807
0.35519
0.305996
0.34134
24.2355
80.6674
157.331
226.515
273.463
297.381
0.295975
0.249846
0.233274
0.247124
0.253957
0.306479
3.33309
19.8525
42.501
58.0956
0.392503
0.16646
0.156196
0.133276
0.0901929
0.0638882
0.128176
0.323791
0.6443
0.823364
0.359616
0.154696
0.10216
0.0835024
0.0558758
0.00830755
-0.0258467
-0.00802435
0.0337512
0.0548834
0.338738
0.128441
0.0678099
0.0573958
0.0537537
0.00357292
-0.0146862
-0.0307077
-0.0380122
-0.0376219
0.334644
0.0994907
0.0506431
0.038982
0.0254421
0.00774763
-0.00237204
-0.00666774
-0.00633898
-0.00751731
0.342291
0.090728
0.0443367
0.0323736
0.0223583
0.0157195
0.0133332
0.0152015
0.017459
0.0186554
0.355503
0.0972405
0.0395972
0.0459689
0.0559324
0.0455146
0.0393815
0.0257006
0.0253139
0.0260012
0.368866
0.173723
0.0359045
0.0752919
0.0766302
0.0638206
0.0529688
0.031981
0.0284992
0.030704
0.207751
0.24176
0.143101
0.0265054
0.0387758
0.0311778
0.0284874
0.0254891
0.0244533
0.0239334
0.0595138
0.241867
0.177877
0.00241777
0.0127331
0.017576
0.0189633
0.0190177
0.0188564
0.0184897
0.0297662
0.246593
0.0369923
-0.015298
0.00357349
0.0100565
0.0134273
0.0149583
0.0156952
0.0156388
0.0183256
0.0443085
-0.00863938
-0.0115016
0.000357825
0.00758555
0.0107401
0.0123566
0.0131518
0.013307
355.895
357.367
359.593
362.634
366.062
369.731
373.121
376.058
378.202
379.337
353.577
355.259
357.801
361.162
365.057
369.056
372.883
376.138
378.499
379.743
348.612
350.69
353.985
358.239
362.912
367.704
372.35
376.256
379.078
380.569
340.644
343.27
347.822
353.46
359.573
366.121
371.689
376.584
380.137
382.007
328.176
331.478
338.761
346.529
354.138
362.143
370.047
376.637
381.338
383.765
272.183
274.222
311.708
336.063
349.01
358.718
368.712
377.409
383.583
386.724
49.8033
50.8361
111.818
187.14
262.018
316.528
355.303
378.498
386.765
390.649
0.363635
0.338416
0.267918
0.268565
25.0311
76.7066
152.407
232.671
287.119
309.405
0.267948
0.227493
0.198034
0.191253
0.131095
0.105384
2.03274
15.3113
33.0295
43.0046
0.254312
0.145252
0.124339
0.115341
0.0480289
-0.0359393
-0.0503261
-0.0339664
-0.0125653
0.00280906
0.352431
0.0989609
0.0898449
0.0653804
0.053289
-0.0213285
-0.108411
-0.123455
-0.144153
-0.158308
0.325948
0.0648458
0.056866
0.0298956
0.0261714
-0.00225485
-0.100692
-0.137143
-0.155342
-0.159002
0.319839
0.0446151
0.0627523
0.022318
0.0226064
0.010561
-0.0564556
-0.0823904
-0.0889675
-0.081871
0.328258
0.0405713
0.160391
0.114519
0.00759333
-0.000286271
-0.00911166
-0.0167036
-0.0162721
-0.00176206
0.342868
0.0415162
0.164933
0.145849
0.0201268
0.0279258
0.0309856
0.0182818
0.0151057
0.0286473
0.200785
0.194057
0.169072
0.0442565
0.040533
0.0364907
0.0367091
0.0292565
0.0223
0.020455
0.0827133
0.236708
0.139702
0.0158462
0.0225742
0.0248367
0.0254197
0.0235851
0.0211137
0.018309
0.0699687
0.237779
0.0630573
-0.00417293
0.00479702
0.0136375
0.0167456
0.0179875
0.018103
0.0170405
0.0589626
0.234606
0.023205
-0.0223056
-0.00435694
0.00674995
0.0119688
0.0139125
0.0146671
0.0145895
0.0395272
0.24688
0.0616882
-0.0213433
-0.00684483
0.00487987
0.00983399
0.0116837
0.0125847
0.0127872
358.162
359.599
361.665
364.52
367.824
371.287
374.67
377.51
379.6
380.749
356.19
357.806
360.125
363.296
366.943
370.887
374.632
377.805
380.085
381.292
352.034
353.981
356.891
360.79
365.232
369.916
374.408
378.191
380.903
382.356
345.465
347.793
351.668
356.694
362.444
368.621
374.137
378.895
382.317
384.133
335.92
338.675
344.364
350.663
357.648
365.735
373.318
379.638
384.071
386.319
313.73
311.996
329.246
343.307
353.881
363.013
372.765
381.111
386.91
389.817
117.337
110.791
156.431
213.706
279.854
334.378
369.361
382.895
390.585
394.073
0.321609
0.273531
0.253744
3.56072
34.865
89.7266
178.857
266.331
316.347
338.3
0.246615
0.20299
0.198875
0.187256
0.0964265
0.229852
12.2526
39.1536
61.9628
70.0357
0.165126
0.110326
0.11199
0.0526174
0.0145041
-0.0156496
-0.0473399
-0.0394568
-0.0395541
-0.0345208
0.247134
0.091426
0.12206
0.0468235
0.0106436
-0.028482
-0.0684605
-0.0838607
-0.0948745
-0.0993862
0.235935
0.0650483
0.0839469
0.0270269
0.000310042
-0.0279481
-0.0601966
-0.0767407
-0.0869517
-0.0818942
0.131028
0.0359291
0.0571336
0.0357111
0.00647091
-0.0158098
-0.04989
-0.07012
-0.0725243
-0.0467594
0.0600342
0.0273497
0.0440857
0.0586131
0.0119102
-0.00316836
-0.01177
-0.0224526
-0.0244057
-0.00327517
0.0426168
0.0326748
0.0615277
0.0715395
0.0170686
0.0120299
0.0111331
0.00790773
0.000721083
0.00236344
0.0584127
0.0337677
0.0656124
0.0391985
0.0195646
0.018527
0.0180391
0.0154669
0.010822
0.00670261
0.0950409
0.053096
0.0699178
0.0196074
0.012032
0.015859
0.0169645
0.0160173
0.013755
0.0113803
0.084606
0.038536
0.0479794
0.00193422
0.00194008
0.00889813
0.0125483
0.0135339
0.0135744
0.0127631
0.0784893
0.0320525
0.0227167
-0.01253
-0.0062955
0.00360224
0.00932987
0.0113652
0.0121894
0.0121956
0.0187273
0.0875195
0.0505899
-0.0135991
-0.00818701
0.00267066
0.00832587
0.0103043
0.0112857
0.0115947
361.274
362.652
364.531
367.243
370.437
373.844
377.16
380.01
381.995
382.988
359.796
361.174
363.303
366.303
369.81
373.55
377.17
380.249
382.413
383.546
356.507
358.231
360.795
364.373
368.566
372.993
377.313
380.965
383.535
384.892
351.473
353.467
356.703
361.209
366.613
372.289
377.598
382.16
385.363
387.064
344.269
346.491
350.671
356.064
363.237
370.765
377.874
383.847
387.961
390.124
334.425
336.325
343.449
351.949
359.677
369.175
378.501
386.369
391.69
394.389
199.403
188.374
213.915
259.428
318.267
361.959
378.674
389.481
396.393
399.472
0.315806
0.287585
4.48498
22.2894
63.7341
141.909
244.302
318.006
358.027
378.859
0.268877
0.211478
0.187391
0.120185
0.0178904
1.07585
35.2014
90.6109
133.05
148.18
0.153757
0.084854
0.0731859
0.0206866
0.00445112
-0.00525003
-0.0236295
-0.0155474
-0.0180017
-0.0119583
0.0810437
0.0311711
0.0867203
0.0209519
-0.000321942
-0.023966
-0.0550941
-0.0599668
-0.067315
-0.0674739
0.0405153
0.00882479
0.0155229
0.00358156
-0.00188053
-0.0187774
-0.0418078
-0.0593337
-0.0626669
-0.0539978
0.0195405
0.00565325
0.00978987
0.0073405
0.000110151
-0.0138042
-0.0319585
-0.0454121
-0.0461182
-0.0312351
0.018648
0.0184541
0.018421
0.0180867
0.00976379
-0.00140464
-0.0108857
-0.0194144
-0.0230635
-0.0158416
0.0241922
0.024552
0.0261864
0.0276554
0.016815
0.00841524
0.00307754
-0.00223787
-0.00775896
-0.00943969
0.0236447
0.0211539
0.0239145
0.026456
0.0166291
0.0120718
0.00919161
0.00568277
0.00157991
-0.00103046
0.0133743
0.0103555
0.0119762
0.0175431
0.0121684
0.0108739
0.00994913
0.00861156
0.00669088
0.005086
-0.00811699
-0.0107274
-0.00354281
0.00588422
0.00505464
0.00713562
0.00852523
0.00899146
0.00900811
0.00869451
-0.0152289
-0.0270086
-0.0169523
-0.00710471
-0.00324434
0.00328939
0.00704258
0.00875411
0.00976566
0.010039
-0.0136906
-0.0247582
-0.0125983
-0.00896952
-0.00563974
0.00280765
0.00692713
0.0087792
0.0100527
0.0104925
365.034
366.113
367.861
370.458
373.5
376.747
379.877
382.548
384.409
385.39
363.933
365.111
366.964
369.828
373.125
376.666
380.128
383.072
385.054
386.031
361.608
362.937
365.259
368.587
372.507
376.666
380.77
384.252
386.618
387.911
357.998
359.581
362.476
366.637
371.526
376.771
381.801
386.132
389.046
390.75
352.607
354.168
357.716
363.325
369.879
376.799
383.318
388.948
392.706
394.751
346.649
349.098
354.108
359.68
367.85
376.802
385.583
392.882
397.673
400.181
265.288
260.33
278.213
317.999
358.638
376.234
387.858
397.583
403.913
406.901
17.4635
25.1479
34.5763
63.0302
129.823
229.367
323.902
378.566
404.092
415.405
0.294741
0.151692
0.0865102
0.0269703
0.109275
17.3747
93.6732
186.939
249.169
271.973
0.131493
0.0187967
0.0044211
-0.000951164
0.00198609
-0.017297
-0.00396613
0.0123215
0.0349506
0.0569941
0.0530627
-0.00549967
0.0337867
0.0144605
-0.0096625
-0.0354791
-0.0375709
-0.0331935
-0.0409874
-0.0384636
0.0254014
-0.00611945
-0.01312
-0.0205828
-0.0142263
-0.0162852
-0.0217345
-0.0258195
-0.0289982
-0.0293022
0.014514
-0.00229997
-0.0144517
-0.0148635
-0.010399
-0.0102474
-0.0162359
-0.0240112
-0.0268025
-0.0243745
0.0172284
0.0133198
0.00442913
0.000621836
0.000628157
-0.00391925
-0.0097725
-0.0139821
-0.0182125
-0.0170008
0.0259611
0.0298184
0.0196981
0.0119208
0.00818586
0.00251382
-0.00235735
-0.00687395
-0.0126985
-0.0140682
0.02681
0.0287207
0.0199115
0.0138474
0.0104423
0.00574911
0.00190997
-0.00172673
-0.0059714
-0.00819893
0.0180111
0.0159153
0.00929346
0.010259
0.00838724
0.00602591
0.00410588
0.00272326
0.00139422
0.00158
2.59532e-05
-0.00300999
-0.00165436
0.00379548
0.00394926
0.00455395
0.00461789
0.0051709
0.00596984
0.00735786
-0.00796143
-0.0120062
-0.00894114
-0.00373832
-0.000249198
0.00298151
0.0044897
0.00618531
0.00810643
0.00936513
-0.00663123
-0.0121371
-0.00987394
-0.00515948
-0.000307476
0.00337437
0.00507487
0.00691885
0.00924661
0.0102976
368.851
369.824
371.368
373.9
376.77
379.891
382.828
385.381
387.117
388.08
368.142
369.143
370.961
373.596
376.646
380.135
383.267
386.15
388.068
389.123
366.676
367.75
369.996
373.06
376.689
380.797
384.44
387.77
389.947
391.151
364.471
366.087
368.705
372.334
376.799
381.712
386.313
390.265
393.053
394.611
360.822
362.434
365.868
370.929
376.898
383.178
389.108
394.1
397.642
399.762
356.538
358.796
363.062
369.258
376.854
385.261
393.098
399.505
403.852
405.94
308.321
314.436
332.859
362.286
376.305
387.41
397.817
406.307
411.914
414.705
74.8487
77.1881
88.4657
140.935
230.889
327.479
395.706
417.382
423.511
426.441
0.296712
0.113365
0.626285
2.24973
19.2422
91.9169
206.998
305.831
361.157
378.812
0.0891432
-0.019192
-0.0166961
-0.00526323
-0.0184254
-0.0253844
0.0384581
4.58949
29.9487
38.3484
0.0321396
-0.0596532
0.00399402
0.0248423
-0.0312657
-0.0445281
-0.0355939
-0.00466712
-0.0173799
-0.00940817
0.0114969
-0.0508092
-0.0411403
-0.0364187
-0.0240892
-0.0277332
-0.0214511
-0.0175648
-0.0256313
-0.0256646
0.00749983
-0.023501
-0.0363931
-0.0303945
-0.0195376
-0.0203271
-0.0192906
-0.0171747
-0.0165359
-0.0129943
0.0149368
0.00638434
-0.00906776
-0.0112248
-0.00788192
-0.0104775
-0.0142998
-0.0165624
-0.0136394
-0.0374758
0.024602
0.023824
0.0122964
0.00341832
-1.56636e-05
-0.00518705
-0.00969927
-0.0163474
-0.024103
-0.047624
0.0240751
0.0265865
0.0169016
0.00833181
0.00384356
-0.0011003
-0.00583411
-0.0114785
-0.019672
-0.0301694
0.0180313
0.0173819
0.0112182
0.00751958
0.00469556
0.00166223
-0.00129146
-0.00275862
-0.00483195
-0.00238533
0.00754458
0.00647425
0.004681
0.0045425
0.00373546
0.0026009
0.00101898
0.00185686
0.00277084
0.0061542
0.00360911
0.00102246
0.000484088
0.00175892
0.00266869
0.0027679
0.00211358
0.00373876
0.00626144
0.00865585
0.00296702
0.000835677
0.000675542
0.00206041
0.00339954
0.00369822
0.00372444
0.00500563
0.00806893
0.00939757
372.43
373.276
374.808
377.27
379.962
382.901
385.679
388.027
389.639
390.591
372.12
373.041
374.775
377.285
380.222
383.42
386.537
389.085
390.836
391.957
371.458
372.523
374.57
377.448
380.869
384.506
387.837
391.119
393.024
394.11
370.509
371.874
374.311
377.74
381.892
386.374
390.561
394.156
396.646
398.119
368.692
370.396
373.603
378.095
383.409
389.185
394.491
398.837
402.112
403.851
366.697
369.133
373.019
378.671
385.805
393.212
400.073
405.73
409.664
411.677
344.397
355.625
369.582
378.766
387.941
397.967
407.187
414.602
419.547
422.095
162.363
160.809
181.861
242.197
325.359
397.037
419.282
427.46
432.899
435.489
4.58769
2.90373
12.9567
37.9594
97.5364
209.989
327.329
405.299
437.75
445.01
0.13646
-0.0196207
-0.0143645
-0.00464043
-0.0147589
0.0169203
32.9396
132.883
208.053
208.541
0.0244812
0.0162846
0.0755384
0.000265927
-0.0363531
-0.0442131
-0.0391323
-0.0374271
-0.0116542
0.350676
-0.0099945
-0.0147975
-0.051889
-0.0418849
-0.0278325
-0.0272165
-0.0325984
-0.018703
-0.0222624
0.0107112
-0.0125239
-0.0537665
-0.0525546
-0.0369497
-0.0174125
-0.0239296
-0.0242794
-0.0136094
-0.0117002
-0.0347239
0.00352468
-0.027153
-0.0288641
-0.0193292
-0.0135369
-0.018801
-0.0210679
-0.0185211
-0.00671423
0.00669702
0.0167136
0.00780127
-0.00137424
-0.00447427
-0.00696972
-0.0139256
-0.0184995
-0.0287423
-0.0287448
-0.094757
0.0218734
0.018166
0.00883307
0.00232833
-0.00205377
-0.00887933
-0.0159075
-0.0265558
-0.039932
-0.0401138
0.0163128
0.0150342
0.00889814
0.00428841
0.00688642
-0.0032322
-0.00729757
-0.00666698
-0.00666923
0.0159141
0.0103419
0.00931718
0.00640806
0.00418616
0.0141322
0.0026566
-0.00480069
0.00153294
0.00397669
0.0192749
0.00662904
0.00580365
0.004612
0.00378138
0.0148817
0.024732
0.00146594
0.000409269
0.00555764
0.017331
0.00565651
0.00527474
0.00482977
0.00455629
0.0100151
0.0772274
0.017148
0.000254518
0.00656484
0.0131817
375.494
376.276
377.708
380.164
382.668
385.489
388.063
390.24
391.623
392.388
375.517
376.37
378.014
380.419
383.207
386.306
389.153
391.509
393.179
394.015
375.532
376.529
378.44
381.171
384.424
387.947
391.234
393.795
395.559
396.7
375.671
376.91
379.18
382.4
386.336
390.394
394.241
397.532
399.653
401.09
375.518
377.133
380.067
384.205
389.283
394.258
398.981
403.314
405.737
407.518
375.877
378.09
381.646
386.771
393.136
399.706
405.817
410.864
414.313
416.282
368.732
379.578
383.668
389.927
397.907
406.548
414.689
421.23
425.607
428.119
238.559
244.647
275.656
320.853
380.524
417.961
427.542
434.968
439.908
442.661
24.9047
19.0976
42.3206
94.6553
190.716
309.496
406.302
451.833
458.447
461.896
0.343085
0.0276264
0.00995694
0.0361126
0.0610939
9.80151
135.777
286.819
431.735
430.684
0.0528884
0.363922
0.373464
0.134386
-0.0284865
-0.0139208
-0.0502712
0.119283
112.83
149.511
-0.023937
-0.0191772
-0.0201294
0.112694
0.182168
0.106613
-0.0303586
0.0231038
0.274851
67.5905
-0.0280598
-0.0928007
-0.0502579
0.0300585
0.288573
0.270596
-0.0128727
0.00580608
0.359093
84.6502
-0.00670659
-0.0394953
-0.0319459
-0.0177322
0.184845
0.215556
0.092798
-0.0136155
0.0502132
99.8568
0.00823689
-0.00662163
-0.0102296
-0.00802593
0.133998
0.130755
0.178524
-0.0595618
3.91716
12.0389
0.0194152
0.0107049
0.00222999
-0.00202772
0.0368177
0.274795
0.0928918
0.0289338
0.25936
-0.0995062
0.0158818
0.0113982
0.00626151
0.00167669
0.0155722
0.513043
0.0214426
0.0453978
-0.0313147
0.0111513
0.0110219
0.00941162
0.00644444
0.00338524
0.0937008
0.806147
-0.000677143
-0.00562889
0.0336436
0.0155363
0.0082751
0.00731614
0.00603077
0.00434928
0.189624
0.989574
-0.0116794
-0.00783597
-0.00885105
0.00562606
0.00691055
0.0065037
0.00607777
0.00538509
0.172437
1.04852
-0.00592106
-0.0117022
-0.00162644
0.261473
377.738
378.483
379.874
382.166
384.548
387.257
389.69
391.701
393.277
393.718
378.001
378.797
380.354
382.623
385.175
388.276
390.941
393.141
394.845
395.841
378.506
379.431
381.224
383.8
386.835
390.106
393.072
395.516
397.371
398.274
379.439
380.573
382.702
385.676
389.347
393.157
396.635
399.538
401.634
402.534
380.519
381.95
384.584
388.387
393.001
397.725
401.963
405.716
407.955
408.937
382.743
384.486
387.609
392.204
398.06
404.109
409.66
414.128
416.924
418.211
385.888
388.112
391.548
396.904
404.244
412.147
419.569
425.482
429.085
430.897
284.48
297.648
325.841
362.85
405.822
424.013
432.968
439.756
443.978
446.085
48.827
38.6602
68.8111
138.493
248.506
359.366
438.11
457.829
462.077
461.101
0.685913
0.102078
0.0238335
0.0330878
0.0732041
32.4907
208.623
430.139
483.412
450.861
0.0632842
0.326799
0.449624
0.100021
-0.0216751
-0.0166367
0.0153818
110.842
487.151
454.757
-0.0257231
-0.0777092
0.195492
0.340766
0.274504
0.0364782
-0.0245291
0.0255576
337.98
504.9
-0.0213676
-0.08272
-0.0423935
0.377025
0.402807
0.151486
-0.010527
0.177103
222.878
560.421
-0.00138536
-0.0267934
-0.0248038
0.0486469
0.441461
0.145806
0.0621359
-0.00885257
143.012
470.484
0.0121206
-0.00793034
-0.00992063
-0.00738621
0.472874
0.848465
0.139565
-0.169254
5.99539
132.533
0.0235165
0.00637627
-0.000691377
-0.0029335
0.197512
1.35328
0.338243
0.123307
-0.113898
27.4981
0.015808
0.00918395
0.00443134
0.000729242
0.0105795
1.47527
1.49974
0.307012
-0.0254902
51.5342
0.0107431
0.0091293
0.00613679
0.00284694
0.0913039
1.51674
1.54493
0.338064
-0.018005
37.2373
0.00878228
0.00781461
0.00626683
0.00409915
0.134575
1.47534
1.55672
0.673321
-0.00642756
8.30973
0.00745373
0.00700058
0.00631491
0.00523776
0.0521364
1.02007
1.62575
0.624943
-0.0076911
-0.0126965
378.927
379.655
381.047
383.192
385.551
388.206
390.53
392.439
393.28
391.176
379.315
380.082
381.598
383.79
386.226
389.24
392.059
393.872
395.652
384.275
380.074
380.968
382.717
385.175
388.097
391.254
394.141
396.568
398.255
378.26
381.417
382.508
384.618
387.383
390.883
394.629
398.051
400.869
402.419
371.814
383.103
384.405
386.777
390.527
394.996
399.619
403.776
407.224
408.62
361.49
386.104
387.665
390.514
394.914
400.693
406.491
411.774
416.05
417.496
358.649
390.664
392.025
394.965
399.863
407.066
414.909
422.106
427.72
429.552
367.214
309.752
315.543
341.535
380.44
415.809
426.731
435.607
442.104
442.406
421.58
63.799
47.3055
74.4747
147.519
263.669
372.943
446.931
460.847
442.594
416.129
0.910936
0.100205
-0.00426465
-0.0113158
0.115722
37.4553
224.678
457.932
416.125
292.471
0.0762038
-0.0437906
0.0332608
-0.0623386
-0.0417629
-0.00223278
0.390109
217.619
421.162
297.333
-0.0170065
-0.037736
0.0131397
-0.0448956
-0.0194621
-0.0199878
0.0392886
108.066
485.451
343.566
-0.00670742
-0.0765114
-0.0358323
-0.0206843
-0.0189857
-0.00321619
0.0431758
117.06
529.724
365.967
0.0123539
-0.0106033
-0.0178233
-0.0109384
-0.0182362
-0.0212972
0.0668545
92.7483
527.602
394.917
0.0261225
0.0127109
-0.00321065
-0.00526503
-0.0221327
-0.0368984
0.00295313
20.2512
123.862
503.027
0.0254256
0.00804132
0.000850573
0.000999895
-0.0166621
1.27426
4.51059
0.0197567
9.43101
711.985
0.0142499
0.00931655
0.00574674
0.00341716
-0.00210582
0.511688
2.95388
1.01603
0.0616818
648.885
0.0114669
0.0099063
0.00750904
0.00526864
0.0070687
0.0901209
0.0611352
1.28871
-0.0373712
489.447
0.00964672
0.00874851
0.0075309
0.00640526
0.017029
0.021626
0.0937872
1.37133
4.50614
269.291
0.00795444
0.00760451
0.00721616
0.00728972
0.0127303
0.0153366
0.501783
1.23066
-0.00637726
15.3111
378.909
379.63
381
383.207
385.537
388.172
390.44
392.391
393.147
390.801
379.302
380.064
381.579
383.785
386.225
389.21
391.935
393.783
394.842
384.24
380.064
380.954
382.7
385.159
388.077
391.206
394.032
396.35
398.175
377.663
381.41
382.495
384.593
387.361
390.828
394.521
397.919
400.626
402.227
370.899
383.105
384.397
386.758
390.504
394.951
399.538
403.63
406.926
408.336
361.258
386.095
387.648
390.464
394.836
400.623
406.413
411.623
415.752
416.015
358.45
390.744
391.987
394.868
399.804
407.056
414.874
422.007
427.539
426.272
360.406
310.573
315.884
341.41
380.149
416.046
426.752
435.614
442.077
437.89
388.896
65.4933
47.7623
72.7341
146.661
267.225
377.977
449.094
461.004
443.355
401.866
0.891274
0.00311769
-0.0633979
-0.022934
0.112078
42.7722
239.92
467.182
423.058
320.271
0.0550369
-0.137144
-0.0886101
-0.0715082
-0.0290363
0.00966752
0.51646
242.711
430.233
299.873
-0.00688231
-0.0860178
-0.0494852
-0.0493778
-0.0164417
-0.0177215
0.0340389
114.952
485.071
329.241
0.0051021
-0.0611065
-0.0348328
-0.027123
-0.0207541
-0.0162548
0.00813813
115.339
529.931
384.527
0.0219654
-0.00594523
-0.00552497
-0.0130736
-0.022551
-0.044351
-0.0229854
69.6122
523.858
568.134
0.030459
0.0173785
0.00965304
-0.00590502
-0.0192978
-0.0533408
-0.0693948
0.320812
125.9
667.187
0.0256597
0.0165508
0.00196168
-0.00275677
-0.00878879
-0.0155071
0.0213985
-0.034273
59.7282
712.639
0.0152934
0.0111841
0.00699322
0.00432567
0.0047102
0.0168985
0.0242164
0.0319103
161.769
760.707
0.0126778
0.0111405
0.00889893
0.00810182
0.0106575
0.0238475
0.0229665
0.0114593
184.922
790.853
0.0104129
0.00968905
0.00889833
0.00991366
0.0152732
0.0304469
0.0276193
0.00478843
154.229
800.478
0.00834996
0.00813413
0.0081487
0.00955291
0.0154072
0.0277464
0.0135103
0.00085928
136.572
740.694
377.68
378.414
379.77
382.156
384.51
387.18
389.607
391.68
393.365
394.578
377.951
378.74
380.288
382.574
385.153
388.177
390.862
393.046
394.796
395.814
378.472
379.387
381.165
383.729
386.755
389.971
392.943
395.397
397.388
398.298
379.426
380.54
382.64
385.589
389.244
392.983
396.499
399.352
401.684
402.649
380.554
381.947
384.536
388.291
392.882
397.546
401.839
405.302
408.017
409.24
382.824
384.513
387.548
392.085
397.877
403.845
409.321
413.798
416.949
418.744
386.472
388.13
391.403
396.738
404.05
411.862
419.148
425.066
429.099
431.642
288
300.022
325.448
361.359
405.763
423.533
432.486
439.305
443.979
447.254
53.0257
40.7554
66.5592
134.052
248.807
362.338
438.136
457.396
462.18
465.749
0.721621
-0.038483
-0.0816696
-0.0341094
0.045036
31.0367
206.226
417.503
486.393
486.147
0.0541898
-0.14763
-0.105103
-0.0788654
-0.0369735
-0.0111023
-0.00405186
85.0326
471.651
493.275
-0.0147674
-0.109812
-0.0667995
-0.0556145
-0.0237731
-0.0227007
-0.00541231
0.0209495
295.089
520.825
0.00781877
-0.0410002
-0.038214
-0.0339601
-0.0251695
-0.0195314
0.00698275
-0.0363156
193.686
533.327
0.0208516
-0.00705036
-0.00860662
-0.0140323
-0.0221473
-0.0233663
-0.0356616
-0.0714031
82.6681
448.457
0.0277811
0.0131546
-0.000410159
-0.00918836
-0.0198592
-0.0333958
-0.0702094
-0.168921
-0.283278
92.5495
0.0289212
0.0163948
0.00451945
-0.00116093
-0.00793702
-0.0148529
-0.0226839
-0.0363704
-0.0999016
28.0002
0.0212897
0.0142982
0.00874762
0.00450089
0.000927303
-0.00397637
-0.00937549
-0.0063948
-0.0676147
74.4096
0.0135964
0.0122402
0.00923134
0.00661728
0.00427797
0.000127249
-0.00612974
-0.00576416
0.31236
69.2307
0.0106102
0.00979645
0.0083377
0.00708193
0.00539329
0.00162973
-0.00985412
-0.0181306
-0.0717563
-0.154763
0.00836169
0.00804457
0.00740256
0.00674002
0.00522182
0.00112194
-0.011237
-0.0195232
-0.0394162
-0.059844
375.399
376.174
377.59
380.081
382.568
385.367
387.925
390.135
391.588
392.327
375.431
376.278
377.909
380.308
383.095
386.191
388.997
391.368
393
394.012
375.47
376.453
378.34
381.044
384.268
387.668
390.987
393.634
395.484
396.651
375.648
376.857
379.086
382.261
386.186
390.165
394.054
397.332
399.653
401.053
375.595
377.147
380.011
384.067
389.133
394
398.76
402.823
405.668
407.481
376.137
378.181
381.609
386.565
392.814
399.292
405.385
410.47
414.102
416.377
369.778
379.828
383.697
389.695
397.496
406.02
414.112
420.75
425.334
428.142
244.773
249.829
278.293
320.323
379.736
416.913
426.691
434.318
439.621
442.707
28.6099
21.7398
43.6107
92.0038
186.094
307.926
406.379
450.899
458.318
462.109
0.373903
-0.0476711
-0.071953
-0.0351644
0.015176
3.97089
128.797
278.013
423.238
422.827
0.0131802
-0.13216
-0.10875
-0.0792124
-0.0407274
-0.00894403
-0.0389626
0.04326
102.488
112.301
-0.0201196
-0.108993
-0.0697295
-0.058404
-0.0280559
-0.0185871
-0.0236572
0.00384847
-0.0240996
34.0513
0.00523807
-0.0332167
-0.0395923
-0.0398228
-0.0246808
-0.0183033
-0.0178192
-0.0150912
0.0595265
57.0968
0.0203213
0.00626383
-0.0112769
-0.0185891
-0.0160041
-0.0200322
-0.0286471
-0.0392881
-0.0418565
59.74
0.0249573
0.0140121
0.0026246
-0.00434128
-0.00945874
-0.019853
-0.0390693
-0.0830207
-0.178182
-0.210214
0.0277929
0.0195405
0.0101676
0.0030118
-0.00200088
-0.00795239
-0.0141315
-0.0187609
-0.0409674
-0.0169541
0.0207925
0.0177264
0.0114391
0.00626294
0.0030164
0.00104338
-0.00238347
-0.00334867
-0.0235334
-0.00956332
0.0140294
0.0123819
0.00935565
0.00671767
0.00532741
0.0053326
0.00163479
0.0046767
-0.0131646
0.0900559
0.00998791
0.00914299
0.00762639
0.00648324
0.00611322
0.00649317
0.00270346
0.00717369
-0.0300146
7.28578
0.00784159
0.00748308
0.00670063
0.00602154
0.00578195
0.00540014
0.000990328
-0.00245136
-0.0243433
-0.0477368
372.3
373.142
374.693
377.114
379.814
382.736
385.509
387.879
389.531
390.68
371.999
372.913
374.636
377.114
380.057
383.219
386.322
388.909
390.674
391.881
371.365
372.412
374.429
377.264
380.661
384.254
387.839
390.978
392.909
393.984
370.462
371.788
374.181
377.529
381.596
386.091
390.335
393.958
396.448
397.949
368.782
370.412
373.54
377.904
383.078
388.82
394.157
398.692
401.888
403.628
367.024
369.153
372.992
378.438
385.459
392.693
399.519
405.251
409.256
411.37
346.106
355.481
369.464
378.585
387.43
397.242
406.407
413.886
418.931
421.691
167.238
166.403
186.011
241.146
322.633
395.777
418.04
426.419
432.05
434.746
5.65539
3.8081
15.1489
37.7333
91.5945
201.824
322.057
402.092
435.736
443.667
0.142214
-0.0630384
-0.0809264
-0.0489825
-0.00541557
0.0351591
27.2245
129.42
204.973
204.1
-0.0177919
-0.124298
-0.110487
-0.085409
-0.0416981
-0.0296
-0.0253368
-0.0479255
0.0682295
0.170117
-0.0125843
-0.0912673
-0.0678747
-0.0591968
-0.0302463
-0.0176509
-0.0226839
-0.031205
-0.0276408
-0.0218362
0.0100638
-0.0283488
-0.0332142
-0.0348207
-0.0219884
-0.0161442
-0.0159269
-0.0200948
-0.0109155
0.164765
0.0223156
0.0126479
-0.00183652
-0.010806
-0.0100429
-0.0122937
-0.0179793
-0.0273318
-0.030253
-0.0353714
0.0274147
0.0265046
0.0148166
0.00386255
-0.00280389
-0.00956547
-0.0191527
-0.0385971
-0.0689374
-0.0865224
0.0265823
0.0260245
0.0175195
0.00827401
0.00185831
-0.00351181
-0.00911563
-0.0134344
-0.0218185
-0.00846934
0.0191915
0.0193524
0.0133565
0.00782637
0.00402116
0.00121776
-0.00129115
-0.000477169
0.0178682
0.0119567
0.0123727
0.0110283
0.00848008
0.0060252
0.00429083
0.00293229
0.00121528
0.00138289
0.0688459
0.707054
0.00781336
0.00716748
0.00580926
0.00477814
0.00405703
0.00311532
0.00104229
-0.000586764
-0.00590621
2.45735
0.00648871
0.00616398
0.00536987
0.00465587
0.00399974
0.00293571
0.000707594
-0.00138658
-0.00677993
-0.0145322
368.681
369.628
371.243
373.72
376.605
379.714
382.628
385.159
386.894
387.883
367.983
368.971
370.787
373.347
376.505
379.975
383.058
385.885
387.785
389.066
366.541
367.596
369.802
372.804
376.544
380.622
384.24
387.424
389.656
390.97
364.371
365.932
368.541
372.052
376.418
381.392
385.996
390.137
392.779
394.354
360.84
362.479
365.819
370.695
376.535
382.759
388.639
393.798
397.272
399.447
356.599
358.837
363.099
368.969
376.309
384.629
392.441
398.934
403.323
405.473
311.187
315.124
332.188
360.855
375.695
386.527
396.873
405.479
411.231
414.109
72.7958
79.02
92.5631
140.107
225.684
322.386
392.255
416.44
422.715
425.631
0.309473
0.101858
0.779354
2.43867
16.2297
82.9365
194.41
296.174
358.42
378.125
0.093085
-0.0410951
-0.0739236
-0.0440923
-0.0114771
-0.00267109
0.0282868
4.74883
29.6544
37.2835
0.0153465
-0.085882
-0.0750871
-0.0656228
-0.0365789
-0.0314276
-0.0300546
-0.00337534
-0.0142174
-0.0288105
0.00911374
-0.0427341
-0.0489513
-0.0485761
-0.0243393
-0.0154499
-0.017154
-0.0205645
-0.0274823
-0.0376476
0.0175171
-0.00224856
-0.018474
-0.0251547
-0.0159859
-0.0117602
-0.0146684
-0.0179733
-0.0188184
-0.00519477
0.0230842
0.0213527
0.0117562
0.000435563
-0.00314703
-0.00628951
-0.0115983
-0.0173367
-0.0154418
-0.0314508
0.0294927
0.033574
0.0250003
0.0121379
0.00393223
-0.00231779
-0.00927332
-0.0188519
-0.0293674
-0.0467848
0.0251617
0.0293875
0.0222409
0.0129166
0.00614705
0.00106537
-0.00365768
-0.00821262
-0.0128262
-0.0138746
0.0164329
0.0172426
0.0125148
0.00881215
0.0055128
0.00290499
0.00063219
-0.000825318
-0.00286952
-0.000618325
0.00761508
0.00639313
0.00474109
0.00409798
0.00351243
0.00299906
0.00207686
0.00163782
-0.0010562
0.00869753
0.00366061
0.00120591
0.000497888
0.00124515
0.00214626
0.00257274
0.00206954
0.00152688
-0.00246895
-0.00662008
0.00329834
0.00173773
0.00132518
0.00194947
0.00249931
0.00255294
0.00186623
0.000714891
-0.00181692
-0.00718477
364.844
365.918
367.696
370.274
373.316
376.56
379.662
382.315
384.182
385.152
363.74
364.892
366.824
369.633
372.946
376.524
379.908
382.806
384.749
385.73
361.43
362.755
365.089
368.38
372.309
376.511
380.526
383.953
386.308
387.631
357.851
359.431
362.329
366.399
371.22
376.45
381.467
385.794
388.701
390.389
352.502
354.124
357.769
363.092
369.563
376.432
382.868
388.462
392.282
394.33
346.572
349.087
354.172
359.593
367.444
376.118
384.831
392.243
397.089
399.62
265.155
261.541
280.096
316.932
357.203
375.302
386.765
396.615
403.204
406.27
13.5184
24.5016
38.5132
63.2524
124.547
220.391
315.16
372.496
401.172
413.832
0.307276
0.16789
0.0740943
0.0123537
0.117447
13.1843
84.4245
176.692
245.033
269.381
0.134097
0.0284736
-0.0184981
-0.0244171
0.00152532
-0.00329812
-0.011028
0.00957955
0.030226
0.0468439
0.046224
-0.00971341
-0.0301378
-0.0349211
-0.0162279
-0.0282661
-0.0370442
-0.0393853
-0.0398865
-0.0415416
0.0210596
-0.00354873
-0.0203696
-0.0274118
-0.00566198
-0.0100191
-0.0226029
-0.0275037
-0.0298906
-0.0310132
0.015771
0.00655028
-0.00298364
-0.00822914
-0.00727625
-0.00277633
-0.0147388
-0.0220589
-0.0246275
-0.0192158
0.0315359
0.020167
0.0180822
0.0102227
0.00527548
-4.02162e-05
-0.00651592
-0.0133046
-0.0159537
-0.0123036
0.0405943
0.0284787
0.0257204
0.017356
0.0104908
0.0041559
-0.00208517
-0.00815782
-0.0130055
-0.0158618
0.0235661
0.0237238
0.0186053