/*--------------------------------*- C++ -*----------------------------------*\
| =========                 |                                                 |
| \\      /  F ield         | OpenFOAM: The Open Source CFD Toolbox           |
|  \\    /   O peration     | Version:  2312                                  |
|   \\  /    A nd           | Website:  www.openfoam.com                      |
|    \\/     M anipulation  |                                                 |
\*---------------------------------------------------------------------------*/
FoamFile
{
    version     2.0;
    format      ascii;
    arch        "LSB;label=32;scalar=64";
    class       volScalarField;
    location    "0.39";
    object      alpha.water;
}
// * * * * * * * * * * * * * * * * * * * * * * * * * * * * * * * * * * * * * //

dimensions      [0 0 0 0 0 0 0];

internalField   nonuniform List<scalar> 
8000
(
1
1
1
1
1
1
1
1
1
1
1
1
1
1
1
1
1
1
1
1
1
1
1
1
1
1
1
1
1
1
1
1
1
1
1
1
1
1
1
1
1
1
1
1
1
1
1
1
1
1
0.781991
0.832728
0.952403
0.99838
1
1
1
1
1
1
0.0930364
0.142316
0.267881
0.495726
0.770129
0.931984
0.994842
1
1
1
0.000757124
0.000428609
9.68621e-05
0.0012347
0.0997918
0.367303
0.675066
0.870221
0.942621
0.965175
0.000337169
7.8926e-05
1.831e-05
6.73845e-05
0.000264442
0.0252826
0.153148
0.359665
0.519814
0.582547
0.000298065
2.06864e-05
6.06184e-06
1.27656e-05
4.9549e-05
0.000210524
0.000582284
0.00317509
0.0235191
0.0401257
0.000404568
2.92727e-05
3.8135e-06
5.91928e-06
1.41386e-05
3.38224e-05
1.79698e-05
0.000112372
0.000251327
0.000365176
0.000412255
5.8818e-05
3.34184e-06
5.2851e-06
4.25715e-05
1.22414e-05
2.87992e-05
7.23598e-06
1.78848e-05
4.05985e-05
0.000411811
4.94144e-05
3.34184e-06
6.4321e-06
2.23337e-05
7.66914e-06
9.58185e-06
1.24406e-05
2.41585e-05
2.97339e-05
0.000407671
2.88868e-05
5.20859e-06
5.04247e-06
5.09557e-06
6.1626e-06
5.02376e-06
4.43715e-06
6.16548e-06
6.92992e-06
0.00039968
1.31662e-05
1.08615e-05
5.05055e-06
1.91726e-05
7.12644e-06
4.68208e-06
2.80935e-06
3.54898e-06
4.92972e-06
0.000395586
1.91289e-05
1.09e-05
3.5732e-05
3.80863e-05
3.80863e-05
3.4035e-05
5.77316e-06
5.64788e-06
8.94868e-06
0.000391906
0.000118972
1.09925e-05
1.80336e-05
3.33948e-05
1.83098e-05
1.11399e-05
4.19512e-06
3.6672e-06
4.3093e-06
0.000334383
0.000259336
8.44864e-05
1.15297e-08
6.89631e-07
6.56995e-09
5.43899e-10
7.81826e-08
8.68144e-08
5.5963e-10
4.89319e-05
0.000258533
0.000152238
2.52191e-10
3.05582e-11
8.38455e-12
2.91886e-13
8.91259e-15
5.47198e-13
4.12581e-13
3.50601e-07
0.000255838
7.21946e-05
1.13713e-08
7.19559e-11
2.75427e-12
8.82608e-15
7.7219e-15
3.18633e-15
4.44824e-15
1
1
1
1
1
1
1
1
1
1
1
1
1
1
1
1
1
1
1
1
1
1
1
1
1
1
1
1
1
1
1
1
1
1
1
1
1
1
1
1
1
1
1
1
1
1
1
1
1
1
0.835149
0.842133
0.932769
0.99679
1
1
1
1
1
1
0.148483
0.183106
0.304566
0.528345
0.783283
0.950418
1
1
1
1
0.000484801
0.000408597
0.000388708
0.0123115
0.131928
0.376659
0.665855
0.834319
0.908201
0.937706
0.000104529
6.9604e-05
2.9501e-05
5.23357e-05
0.000118293
0.0172287
0.0875625
0.183699
0.258088
0.294073
4.51439e-05
2.15204e-05
1.04999e-05
1.24436e-05
5.7726e-05
2.83676e-06
5.5356e-07
4.19403e-07
5.17153e-06
0.000263231
0.000322338
1.45828e-05
7.10634e-06
5.51107e-06
6.05514e-05
1.92316e-05
5.07665e-07
3.49382e-07
3.76608e-07
7.22177e-07
0.000412255
1.15107e-05
4.34566e-06
4.97776e-06
5.11406e-05
7.10452e-05
3.02237e-05
3.20288e-07
1.58559e-06
1.42761e-05
0.00040965
8.15975e-06
2.63007e-05
5.51107e-06
4.82125e-05
7.1087e-05
3.00878e-05
1.21044e-05
2.41438e-05
4.6928e-05
0.000397377
8.1026e-06
0.000141295
8.85889e-05
9.5498e-06
4.21739e-05
7.73819e-06
1.13792e-05
2.23169e-05
3.8076e-05
0.000389252
8.11486e-06
0.000141287
0.000141178
1.06142e-06
5.34417e-06
7.99241e-06
2.5212e-06
9.02612e-06
2.75273e-05
0.000383883
1.19661e-05
0.000141297
9.10589e-05
1.41229e-05
1.60919e-05
1.95902e-05
5.27462e-06
4.44922e-06
9.50231e-06
0.000231743
0.000170399
0.00011315
7.61024e-07
9.71942e-06
5.47955e-06
4.89491e-06
2.72158e-06
1.77254e-06
8.39652e-07
9.70107e-05
0.000248999
6.78668e-05
6.82418e-09
1.41232e-07
2.53859e-09
4.63795e-12
6.29362e-09
1.17307e-09
1.70801e-11
7.14315e-05
0.000255298
3.30591e-05
3.05582e-11
1.13807e-11
4.07065e-12
8.89492e-13
1.06427e-13
1.48792e-14
5.82936e-13
4.99833e-05
0.000253946
5.2663e-05
5.68433e-09
2.59094e-11
3.73508e-12
7.72509e-13
5.88949e-14
1.16373e-14
1.37001e-14
1
1
1
1
1
1
1
1
1
1
1
1
1
1
1
1
1
1
1
1
1
1
1
1
1
1
1
1
1
1
1
1
1
1
1
1
1
1
1
1
1
1
1
1
1
1
1
1
1
1
0.956141
0.938198
0.975738
1
1
1
1
1
1
1
0.273699
0.315918
0.456535
0.66292
0.85799
0.983783
1
1
1
1
0.000128078
0.000481601
0.00979194
0.061187
0.209991
0.439369
0.656071
0.792059
0.869473
0.908835
6.04813e-05
6.53731e-05
4.82011e-05
2.94001e-05
0.000167539
0.0290183
0.0801631
0.142123
0.187978
0.20935
4.76575e-05
3.60955e-05
2.97335e-05
1.82555e-05
1.12844e-06
5.59475e-07
4.25119e-07
3.52571e-07
3.76196e-07
7.09844e-07
9.36566e-05
3.30612e-05
7.47711e-05
2.51096e-05
1.43018e-06
6.85454e-07
3.72044e-07
3.3116e-07
3.5257e-07
3.76495e-07
0.000406563
7.04765e-05
7.64292e-05
1.96184e-05
1.12752e-05
2.03389e-05
6.53814e-06
2.54576e-07
2.24056e-06
1.88321e-05
0.000392011
6.4029e-05
4.40567e-05
2.97593e-05
2.25539e-05
3.33387e-05
6.74816e-06
3.32701e-07
1.36599e-05
5.52357e-05
0.000177451
2.69908e-05
6.11583e-06
5.734e-05
5.54152e-06
7.10551e-06
1.31846e-06
2.11377e-06
1.69877e-05
4.32004e-05
6.56438e-05
8.50008e-06
1.42463e-05
7.16402e-05
1.67117e-07
2.01097e-06
3.85336e-06
1.85011e-06
7.02529e-06
1.32146e-05
3.542e-05
2.57713e-06
1.36556e-05
4.08296e-05
1.04751e-07
1.56606e-08
3.04852e-07
1.78001e-06
1.02627e-06
2.12283e-06
3.82466e-05
1.27719e-07
2.08445e-05
1.24461e-06
8.48568e-09
4.89549e-10
6.18699e-08
1.68024e-07
4.78109e-08
1.8757e-10
8.21068e-05
3.58054e-06
3.43298e-05
6.56828e-09
5.91146e-09
1.14616e-11
2.11834e-11
1.41924e-11
9.88978e-11
3.45066e-13
9.035e-05
1.19856e-05
2.19292e-05
1.96029e-10
4.0704e-12
1.48349e-12
1.30096e-12
5.19852e-13
6.43835e-14
9.16486e-14
9.03068e-05
5.88336e-05
2.97167e-05
2.28607e-07
1.18601e-10
7.78481e-12
6.64078e-12
6.05741e-13
1.07726e-13
9.14587e-14
1
1
1
1
1
1
1
1
1
1
1
1
1
1
1
1
1
1
1
1
1
1
1
1
1
1
1
1
1
1
1
1
1
1
1
1
1
1
1
1
1
1
1
1
1
1
1
1
1
1
0.99926
0.99752
1
1
1
1
1
1
1
1
0.497533
0.530208
0.661225
0.814129
0.954554
1
1
0.999991
1
1
0.00264515
0.0174651
0.0657157
0.164163
0.350789
0.574027
0.739726
0.85082
0.913072
0.945078
8.47442e-05
6.52294e-05
4.37516e-05
1.82873e-05
0.00500916
0.0465658
0.108838
0.193388
0.251734
0.277139
3.00008e-05
2.1825e-05
2.7946e-05
1.28533e-06
7.9798e-07
6.41095e-07
4.86932e-07
3.12864e-07
4.1563e-07
9.04099e-07
1.92452e-05
1.50267e-05
7.59337e-05
2.34927e-05
2.73362e-06
5.42601e-06
3.31298e-06
2.56415e-07
2.89286e-07
4.1558e-07
7.99496e-05
1.99126e-05
3.59191e-05
8.17927e-06
7.47461e-06
1.57807e-05
5.33481e-06
1.94483e-07
3.88742e-06
1.0442e-05
6.3061e-05
1.44151e-05
6.49265e-07
2.45811e-06
1.0991e-06
1.01493e-07
4.44641e-08
1.67057e-07
6.86971e-06
2.1876e-05
1.11213e-05
4.96862e-06
2.27673e-07
4.17869e-07
6.70666e-07
8.74297e-09
6.51788e-09
6.35995e-08
4.30797e-06
7.69219e-06
4.81427e-06
5.24662e-06
7.06081e-08
9.48683e-08
1.65945e-07
5.69237e-09
4.67196e-09
4.72131e-07
7.90788e-07
3.10399e-08
3.62715e-06
2.58543e-06
8.70344e-09
1.42411e-07
1.19245e-07
1.17297e-09
9.21065e-10
2.08374e-09
1.46535e-09
6.93218e-10
1.09398e-08
8.70344e-09
9.92243e-10
3.92364e-07
4.15521e-08
2.82939e-09
5.59714e-11
1.14907e-11
1.18497e-11
5.07027e-12
2.99184e-09
7.94554e-10
2.24125e-10
3.99955e-08
1.53087e-08
5.30513e-09
1.81211e-11
1.16294e-12
1.78022e-13
2.42554e-13
1.26827e-05
1.00827e-06
5.99619e-11
3.61586e-09
1.02569e-07
1.19664e-08
8.96627e-13
1.94698e-13
1.59114e-13
2.77671e-13
2.31915e-05
1.21898e-06
7.25736e-07
6.94244e-07
1.93886e-07
3.2923e-11
8.13355e-13
3.78648e-13
1.40299e-13
2.9232e-13
1
1
1
1
1
1
1
1
1
1
1
1
1
1
1
1
1
1
1
1
1
1
1
1
1
1
1
1
1
1
1
1
1
1
1
1
1
1
1
1
1
1
1
1
1
1
1
1
1
1
1
1
1
1
1
1
1
1
1
1
0.783384
0.780163
0.858122
0.956968
1
1
0.999997
0.999996
0.999997
0.999996
0.0894415
0.137355
0.214561
0.353158
0.54835
0.722114
0.865127
0.944254
0.974838
0.985267
0.000264149
9.38689e-05
0.00166594
0.00902505
0.0357873
0.0899418
0.192661
0.303117
0.369032
0.387812
4.43288e-05
1.1547e-05
1.77844e-06
8.75526e-07
6.75024e-07
5.13842e-07
5.36314e-07
3.8215e-07
3.82033e-07
6.32067e-06
9.57444e-06
3.67818e-06
6.09856e-05
3.58998e-05
1.00607e-05
2.25078e-06
1.46205e-06
3.1672e-07
2.24364e-07
3.81892e-07
3.32673e-06
1.89242e-06
1.89557e-05
5.73942e-07
5.43999e-08
7.88442e-06
7.75526e-06
1.15942e-06
2.2367e-07
1.26922e-07
1.89242e-06
1.40355e-06
1.92792e-07
1.47472e-07
2.96314e-08
8.45704e-07
1.14123e-06
2.74762e-07
2.3552e-07
1.9138e-07
1.92278e-06
1.80149e-06
1.6405e-06
4.43868e-07
8.74297e-09
2.56046e-09
3.49415e-09
6.75638e-10
6.23826e-09
1.32109e-08
4.66907e-06
4.10427e-06
1.47566e-06
1.32316e-08
1.52176e-08
3.53315e-10
1.98567e-10
7.02962e-10
1.36596e-09
6.1264e-10
3.73763e-06
3.19481e-06
4.60082e-07
1.53386e-09
2.96689e-09
8.91297e-11
3.44101e-11
8.03494e-11
6.66093e-11
1.85802e-11
3.0746e-07
1.85814e-07
1.08282e-08
4.99157e-09
1.28736e-08
3.23524e-09
5.92144e-12
1.65888e-12
9.46234e-13
-9.71709e-13
5.05649e-10
2.64363e-11
8.9446e-12
4.49902e-08
5.61046e-08
4.74646e-09
1.53527e-12
7.52782e-13
4.69707e-13
3.14865e-13
5.73295e-11
1.36283e-11
2.87914e-11
2.73095e-07
1.29852e-07
4.51811e-10
5.91942e-13
3.9117e-13
1.28084e-11
2.83419e-13
1.93869e-09
1.00451e-10
5.99424e-11
7.92018e-07
1.687e-07
2.63881e-11
5.80922e-13
2.29482e-13
1.1556e-10
1.96025e-13
1
1
1
1
1
1
1
1
1
1
1
1
1
1
1
1
1
1
1
1
1
1
1
1
1
1
1
1
1
1
1
1
1
1
1
1
1
1
1
0.999993
1
1
1
1
1
1
1
1
0.999995
0.999828
1
1
1
1
1
1
1
1
0.999995
0.99979
0.934395
0.946777
0.983086
1
1
0.999995
0.999994
0.999995
0.99999
0.999826
0.343091
0.38117
0.445162
0.574072
0.726307
0.86773
0.963747
0.992492
0.996715
0.995937
0.0255725
0.0204413
0.0372784
0.0593214
0.0966068
0.190068
0.331803
0.457301
0.514838
0.504845
0.000189402
3.42621e-06
2.04726e-06
9.80646e-07
7.05025e-07
2.32331e-07
3.79259e-07
4.636e-07
3.42008e-05
0.00018893
2.75377e-05
1.47956e-05
6.13437e-05
4.08031e-05
5.04744e-06
1.24105e-07
2.54569e-07
3.22766e-07
3.70713e-07
6.3079e-06
8.49963e-06
2.28384e-05
7.63661e-06
6.25405e-08
6.25516e-08
9.91934e-07
2.75329e-06
6.22965e-07
2.01415e-07
3.41456e-07
2.49462e-06
3.08529e-05
1.28082e-05
6.35495e-08
5.49193e-08
1.80628e-06
1.73319e-06
5.34676e-07
5.6568e-06
3.56811e-09
1.69406e-06
1.96922e-05
1.32559e-05
4.69535e-07
5.88502e-08
2.12115e-07
1.98568e-10
2.7366e-10
2.24438e-06
-5.49534e-11
2.41861e-06
2.32914e-06
2.49736e-06
3.055e-07
1.87578e-10
6.43133e-11
3.44129e-11
8.38097e-11
6.95282e-11
1.40766e-10
1.69831e-06
5.33506e-09
1.30626e-10
1.87578e-10
6.43133e-11
3.96185e-11
6.8875e-12
5.28306e-12
6.17507e-12
1.98124e-11
3.49768e-08
2.64292e-11
8.94452e-12
1.57916e-09
4.20546e-11
6.88741e-12
2.71315e-12
7.55582e-13
3.15333e-12
2.77587e-12
2.78789e-11
9.51907e-12
6.89957e-12
1.5912e-08
4.48473e-11
2.71289e-12
7.55579e-13
2.62734e-13
7.55582e-13
-6.42568e-12
2.64982e-11
9.21935e-13
2.50036e-11
2.96517e-08
2.68305e-11
1.09276e-12
2.44645e-13
2.29482e-13
2.44651e-13
2.94649e-13
8.30099e-12
1.19036e-11
6.05729e-11
9.37481e-09
3.48865e-11
1.22726e-12
2.29482e-13
2.01499e-13
5.74382e-11
9.40472e-09
1
1
1
1
1
1
1
1
1
1
1
1
1
1
1
1
1
1
1
1
1
1
1
1
1
1
1
0.999999
1
1
1
1
1
1
1
1
1
0.999994
0.999996
0.999945
1
1
1
1
1
1
1
0.999991
0.99998
0.999407
1
1
1
1
1
1
1
0.999992
0.999987
0.999414
0.991657
1
1
1
0.999997
0.999994
0.999994
0.999984
0.999978
0.99964
0.669567
0.677114
0.666514
0.740189
0.871515
0.966179
0.994441
0.999694
0.999669
0.999236
0.162288
0.100858
0.0934888
0.127246
0.205243
0.337809
0.485805
0.63422
0.720884
0.694743
0.000519608
5.913e-06
2.66038e-06
1.26781e-06
2.62436e-07
1.24105e-07
7.79617e-07
4.68533e-05
0.0218413
0.0210755
0.000123895
0.000316878
0.000126735
2.47767e-05
1.24105e-07
1.17573e-07
9.35208e-08
5.50591e-08
3.39691e-05
0.000188916
2.06494e-05
0.000164166
4.96474e-06
4.57136e-06
4.79783e-06
6.6845e-08
5.49245e-08
4.70968e-08
5.3383e-08
4.17395e-05
3.5718e-06
3.88169e-05
9.4326e-06
3.25172e-07
1.90761e-05
8.61956e-09
2.34809e-07
4.32819e-08
1.32712e-07
-6.4577e-07
1.13506e-06
8.31537e-07
1.78971e-06
3.94138e-07
1.58672e-08
7.49544e-10
3.63462e-10
3.61347e-10
3.72206e-10
-7.94878e-09
8.5238e-07
7.20101e-07
7.06956e-07
6.581e-08
2.02504e-09
2.6837e-10
1.98568e-10
3.05826e-10
3.67857e-10
-4.00699e-10
2.89987e-06
1.59551e-06
6.91612e-08
2.62588e-10
2.53576e-07
6.43133e-11
3.44129e-11
8.38099e-11
8.5562e-08
-1.34201e-08
1.51916e-06
4.82848e-07
1.38852e-11
8.52671e-11
7.15619e-06
9.7063e-07
6.88748e-12
6.89133e-10
2.19845e-09
-9.41571e-09
1.20856e-08
3.19956e-10
2.4515e-12
1.38857e-11
1.32539e-05
2.04856e-05
2.71291e-12
1.0611e-06
6.71494e-12
1.02932e-06
2.37135e-13
2.25228e-13
2.80436e-12
2.45226e-12
1.39544e-05
7.4588e-05
1.938e-05
2.44651e-13
2.13625e-08
7.45423e-07
4.04465e-14
2.51741e-13
3.16695e-12
9.63566e-12
7.3624e-06
0.000108871
4.51467e-05
2.29482e-13
1.22051e-10
1.43313e-08
1
1
1
1
1
1
1
1
1
1
1
1
1
1
1
1
1
0.999987
0.999998
1
1
1
1
1
1
1
0.999999
0.999595
0.999852
1
1
1
1
1
1
1
0.999994
0.999565
0.999749
0.999973
1
1
1
1
1
1
0.99999
0.999566
0.999778
0.999738
1
1
1
1
1
1
0.999991
0.99979
0.999934
0.999784
1
1
1
0.999995
0.999996
0.999995
0.999984
0.999807
0.999933
0.999888
0.879603
0.850602
0.807778
0.855272
0.945486
0.992275
0.999702
0.999582
0.999805
0.999687
0.3894
0.207261
0.158665
0.203737
0.3036
0.456826
0.643911
0.846632
0.958407
0.926283
0.00533216
1.63684e-05
5.91349e-06
2.66038e-06
1.26781e-06
4.26921e-06
5.86602e-05
0.143021
0.430239
0.435662
0.000204116
0.000521599
0.00053834
0.000218751
2.78133e-05
1.24104e-07
7.79604e-07
4.68522e-05
0.0586018
0.210887
7.75585e-06
5.69386e-06
4.10689e-05
0.000393822
0.000523495
0.000193902
1.0127e-07
4.78914e-08
0.0104594
0.202222
4.94136e-06
5.26655e-06
5.14322e-07
5.80987e-05
0.000544965
0.000454144
1.27542e-05
2.70441e-08
1.77541e-07
0.0860664
1.88753e-06
3.4648e-06
4.76176e-07
1.79377e-08
0.000264418
0.000191315
0.000139482
4.7389e-07
0.000403704
4.51664e-06
1.19945e-06
3.09979e-06
6.33546e-07
4.3943e-09
0.000101862
0.000123452
0.000153865
9.13091e-07
0.000638218
1.45244e-06
7.51311e-06
4.71412e-06
7.70753e-08
5.33725e-10
1.25984e-05
0.000343373
0.000130715
4.83479e-07
1.83533e-05
1.25095e-05
4.80489e-06
1.52263e-06
2.53284e-11
7.41655e-11
5.33725e-10
0.000736786
0.000155278
1.27684e-08
7.50004e-05
4.71784e-06
6.29277e-08
2.5415e-09
3.5929e-14
2.35431e-11
7.02709e-05
0.0011361
0.000103895
1.27727e-07
2.36229e-05
1.63096e-06
4.05063e-14
3.39584e-14
1.71181e-14
3.60587e-14
0.000196408
0.00117943
2.10591e-05
9.94478e-08
1.24351e-06
0.000149167
7.31342e-15
1.94414e-13
1.13437e-14
7.22286e-14
0.000196147
0.00117943
6.95405e-06
1.09598e-07
6.59246e-06
0.00046887
1
1
1
1
1
1
1
1
1
0.9814
1
1
1
1
1
1
1
1
1
1
1
1
1
1
1
1
1
0.99986
0.99995
1
1
1
1
1
1
1
0.999997
0.999589
0.999652
1
1
1
1
1
1
0.999996
0.999984
0.9996
0.999407
0.999999
1
1
1
1
1
0.999996
0.999987
0.999842
0.999421
0.999998
1
1
1
0.999999
0.999997
0.99999
0.999978
0.999859
0.999735
0.999897
0.953873
0.919303
0.881133
0.91612
0.972127
0.995055
0.999665
0.999747
0.999733
0.999868
0.551617
0.278567
0.199737
0.249665
0.350869
0.495423
0.725373
0.964706
0.999641
0.970208
0.0309701
2.40865e-05
1.63755e-05
8.94434e-06
1.97307e-05
6.43234e-05
0.0274319
0.443953
0.994558
0.89845
0.000197094
4.50224e-05
0.0005855
0.000317473
3.9756e-05
4.26921e-06
5.86598e-05
0.04996
0.827708
0.88505
2.73474e-05
3.54983e-05
0.000368953
0.000501417
0.000498388
0.000110937
1.85089e-06
0.00838597
0.406957
0.878639
7.02511e-06
7.19318e-06
5.97757e-07
0.000451594
0.000546913
0.000236557
1.09827e-05
2.39518e-07
0.0401934
0.594951
7.59459e-06
1.32082e-05
4.81602e-07
3.93758e-07
0.000546913
0.000526031
0.00019045
1.97448e-06
9.08926e-06
0.148711
7.57312e-06
5.74445e-06
3.7995e-07
3.96354e-09
0.000541142
0.00157827
0.000674732
4.31355e-06
1.76255e-05
0.0778008
1.44632e-05
7.59649e-06
6.36081e-09
6.15639e-10
0.000118923
0.0015793
0.0015364
0.000280565
1.75002e-05
0.0841593
8.05005e-06
1.96138e-06
1.09981e-11
2.42473e-11
6.15639e-10
0.00152205
0.00221385
0.000457356
7.5333e-06
0.0493991
9.74588e-09
6.41213e-13
1.71169e-14
7.41138e-13
2.13438e-05
0.00126705
0.00158893
0.000212668
4.64731e-06
0.00732092
7.31346e-15
1.24675e-14
1.13461e-14
1.70984e-14
0.000129772
0.00110537
0.00127076
0.000190411
1.94941e-06
0.000420346
7.18915e-15
1.49808e-14
1.03467e-14
-4.09259e-13
8.2392e-05
0.000900963
0.00133156
0.000125503
2.85336e-06
0.00146452
1
1
1
1
1
1
1
1
0.968635
0.81713
1
1
1
1
1
1
1
1
1
0.822829
1
1
1
1
1
1
1
0.999999
1
0.840065
1
1
1
1
1
0.999995
0.999967
0.999985
1
0.844857
1
1
1
1
1
0.999889
0.999673
0.999996
0.999999
0.80733
1
1
1
1
1
0.999883
0.999717
0.999996
0.999997
0.769442
1
1
1
1
0.999996
0.999928
0.999854
0.999992
0.997388
0.769334
0.97402
0.940979
0.908413
0.94218
0.979024
0.992394
0.999414
0.999886
0.99522
0.826557
0.60714
0.301211
0.210509
0.262872
0.353765
0.471141
0.723966
0.972375
0.943927
0.969705
0.0481184
0.00043453
1.33103e-05
1.89883e-06
2.29593e-05
0.000415322
0.0616191
0.609888
0.851195
0.784788
0.000468008
5.00511e-05
6.29974e-05
7.12743e-07
1.39346e-06
2.29599e-05
0.000415321
0.321145
0.814044
0.588163
5.84263e-05
7.08373e-05
2.06306e-05
3.21832e-06
1.74369e-06
5.16101e-06
0.000138148
0.233416
0.806654
0.596846
1.35197e-05
1.77169e-05
1.68516e-06
1.79539e-06
2.52673e-06
3.28097e-06
9.8027e-06
0.090535
0.697428
0.661112
1.82016e-05
2.34426e-05
4.63254e-06
7.91919e-06
3.34472e-06
2.59068e-05
0.000121376
0.00274067
0.229398
0.733898
1.83685e-05
2.06867e-05
5.1883e-06
7.60173e-08
2.63005e-08
0.000814142
0.00277574
2.87325e-05
0.0350475
0.889192
1.38433e-05
7.4652e-06
3.46761e-08
2.1033e-10
8.06421e-08
0.00152187
0.00303933
0.000174602
0.018275
0.895916
2.811e-06
7.12736e-07
3.94433e-10
1.27411e-12
2.10336e-10
0.000219993
0.00241119
0.00130651
0.00047597
0.505965
9.75154e-11
3.84765e-10
1.00007e-11
5.96111e-13
5.57088e-07
4.88559e-07
0.000163864
0.00162707
7.5247e-06
0.146984
7.33579e-15
1.52091e-14
1.03465e-14
1.38107e-14
7.23042e-06
4.04295e-06
0.000239157
0.00260909
0.0039852
0.0192859
7.31554e-15
7.98988e-14
1.02975e-14
-1.99201e-13
1.06108e-06
1.06468e-06
0.00037861
0.00355865
0.0102261
0.0132352
1
1
1
1
1
1
1
1
0.973385
0.818154
1
1
1
1
1
1
1
1
0.997303
0.822021
1
1
1
1
1
1
1
0.999999
1
0.839111
1
1
1
1
1
0.999995
0.999967
0.999986
1
0.840508
1
1
1
1
1
0.999905
0.999673
0.999996
0.999999
0.805304
1
1
1
1
1
0.999901
0.999757
0.999994
0.994843
0.769554
1
1
1
1
0.999996
0.999938
0.999763
0.999965
0.981747
0.769256
0.973294
0.942526
0.912698
0.943726
0.980718
0.99359
0.999348
0.999791
0.979094
0.783145
0.608358
0.301463
0.2105
0.264026
0.360494
0.485331
0.751662
0.988361
0.94895
0.895916
0.0498349
0.000437518
5.10716e-06
6.74344e-07
1.40955e-05
0.000367479
0.0821444
0.662405
0.868113
0.726719
0.000437707
5.28768e-06
5.42514e-07
1.75544e-07
1.2671e-08
1.25546e-05
0.000359323
0.3056
0.809698
0.592272
3.82936e-05
1.16518e-05
1.04971e-05
4.6805e-06
1.17734e-07
4.58046e-09
9.20986e-05
0.174102
0.80348
0.628022
3.0249e-05
2.95632e-05
1.62434e-05
8.53846e-06
5.27653e-08
-1.38346e-08
-1.42153e-06
0.0555038
0.615495
0.731426
1.14037e-05
3.32695e-05
2.60387e-05
3.56881e-06
4.70008e-08
4.96514e-09
-4.21488e-07
1.98921e-06
0.200781
0.918032
8.51794e-06
2.47794e-05
1.60439e-05
1.67406e-06
1.26582e-08
-5.96516e-08
2.04111e-06
3.15798e-05
0.12465
0.918083
1.02415e-05
1.26467e-05
1.27029e-06
2.3662e-10
7.77645e-10
-5.24648e-08
1.5373e-05
0.000261306
0.228409
0.917617
1.84029e-06
5.06182e-07
4.07712e-12
-1.90239e-13
1.84139e-10
3.69404e-07
1.22091e-05
2.61106e-05
0.256351
0.915088
1.3306e-10
3.7558e-13
-6.67209e-13
5.40468e-14
-1.55167e-11
1.95092e-07
2.67886e-06
-9.71901e-07
0.215323
0.831138
7.28172e-15
1.84566e-14
1.0712e-14
1.60657e-14
-4.92927e-10
4.51865e-07
4.13348e-06
-1.5626e-06
0.147554
0.67731
7.41933e-15
1.44196e-13
1.05699e-14
-9.73958e-14
-1.00963e-10
1.08641e-07
-2.81894e-08
-1.39305e-06
0.0834597
0.466436
1
1
1
1
1
1
1
1
1
1
1
1
1
1
1
1
1
1
1
1
1
1
1
1
1
1
1
0.999873
0.99996
1
1
1
1
1
1
1
0.999997
0.99959
0.999746
1
1
1
1
1
1
0.999997
0.999983
0.999617
0.999586
1
1
1
1
1
1
0.999997
0.999989
0.999885
0.999709
1
1
1
1
1
0.999997
0.999992
0.999981
0.999899
0.999899
0.999999
0.953835
0.920858
0.886984
0.918662
0.976089
0.99698
0.999705
0.999805
0.999899
0.999994
0.557201
0.276329
0.198006
0.253133
0.366438
0.521265
0.739195
0.962029
0.999805
0.999849
0.0344028
1.05689e-05
4.9539e-07
1.74877e-07
1.39578e-08
1.25576e-05
0.0288621
0.410046
0.99835
0.980751
0.00031203
5.49067e-07
1.41278e-07
1.39208e-08
6.48129e-09
5.24288e-09
4.40954e-06
0.0130151
0.725102
0.917802
3.33745e-05
9.39108e-06
1.21614e-05
4.43244e-06
1.741e-07
4.75492e-09
-7.66352e-09
0.000114632
0.228363
0.811046
2.93138e-05
5.91386e-05
2.86302e-05
1.00407e-05
1.40548e-07
3.02939e-09
1.44515e-09
7.87325e-10
0.000707146
0.481933
9.10781e-06
4.18485e-05
2.82081e-05
8.24754e-06
1.38916e-08
2.48549e-09
-2.88143e-11
-1.56144e-10
1.69811e-06
0.165162
4.90915e-06
1.05418e-05
5.14311e-06
1.21844e-08
7.89983e-08
4.42943e-10
1.24143e-06
4.93369e-05
3.18141e-06
0.0895498
1.03912e-05
6.80029e-06
3.38306e-07
9.04422e-10
2.16352e-10
-2.66927e-11
7.96814e-06
0.000414378
9.95633e-06
0.107696
6.67665e-06
1.89851e-06
2.02644e-10
4.63631e-12
1.98021e-09
4.61565e-07
1.75839e-05
5.29373e-05
1.50549e-05
0.0731846
7.35517e-08
1.1135e-10
5.34759e-14
8.73189e-14
4.67409e-12
3.95545e-06
7.48858e-06
-3.25943e-10
1.67087e-07
0.0018249
4.8288e-14
4.82845e-12
3.34217e-14
8.35842e-14
8.75352e-14
4.52421e-06
8.49767e-06
-4.80078e-10
1.34432e-09
3.81323e-06
7.54106e-15
8.31998e-14
4.05063e-13
5.33754e-14
8.33757e-14
2.77585e-06
5.78222e-08
1.32763e-09
1.96061e-09
2.13002e-09
1
1
1
1
1
1
1
1
1
1
1
1
1
1
1
1
1
0.999985
0.999997
1
1
1
1
1
1
1
0.999999
0.99959
0.999858
1
1
1
1
1
1
1
0.999995
0.99959
0.999789
0.999941
1
1
1
1
1
1
0.999992
0.999592
0.999917
0.999568
1
1
1
1
1
1
0.999993
0.999875
0.999981
0.999798
1
1
1
0.99999
0.999997
0.999996
0.999988
0.999881
0.999983
0.999994
0.883785
0.852695
0.812466
0.855876
0.948461
0.994766
0.999761
0.999698
0.999865
0.999903
0.403891
0.207404
0.156072
0.204101
0.315174
0.481281
0.665071
0.858319
0.960889
0.911407
0.00725298
4.98557e-07
2.34162e-07
1.06862e-07
6.48135e-09
5.24388e-09
4.40968e-06
0.146459
0.423548
0.350682
0.000148024
2.34162e-07
1.31464e-07
7.18617e-08
5.19973e-09
4.85027e-09
3.2916e-09
4.4081e-06
0.0322316
0.119448
1.5393e-05
3.54995e-06
1.01658e-05
3.01171e-06
6.53263e-09
3.89665e-09
1.45045e-09
-1.04968e-09
1.24715e-05
0.130586
1.43916e-05
5.09899e-05
3.44993e-05
3.11178e-06
4.22089e-09
2.22841e-09
3.91102e-10
4.79606e-10
-1.25966e-08
0.0591377
4.39396e-06
5.07816e-05
3.14356e-05
1.14869e-06
2.54232e-09
3.82789e-10
3.34989e-10
3.50848e-10
3.14938e-10
2.31367e-06
2.96754e-06
1.22422e-05
5.74551e-06
2.55215e-07
1.59842e-10
1.93071e-10
3.38742e-10
3.38741e-10
1.71948e-05
3.21733e-05
6.48203e-06
1.48959e-06
8.23417e-09
1.51735e-10
2.79943e-11
3.81762e-11
1.96103e-10
2.67223e-10
2.00805e-05
7.25802e-05
4.11639e-06
7.94611e-07
1.90217e-10
5.88968e-12
1.15878e-11
2.07764e-09
1.80867e-10
1.93212e-10
2.84355e-09
4.16329e-05
6.14116e-08
9.85321e-09
1.07286e-11
1.42657e-12
7.8102e-12
1.56696e-08
1.95627e-10
1.79234e-10
-4.77313e-09
0.00527198
6.19136e-14
5.59037e-12
2.36535e-13
8.75935e-14
1.47511e-12
2.44857e-08
1.98175e-10
9.79908e-11
7.99709e-05
0.00399804
3.29628e-14
6.19783e-14
3.67974e-13
8.33766e-14
2.24607e-12
1.16026e-08
6.80368e-11
3.7561e-08
1.26742e-09
2.85942e-09
1
1
1
1
1
1
1
1
1
1
1
1
1
1
1
1
1
1
1
1
1
1
1
1
1
1
1
0.999998
1
1
1
1
1
1
1
1
1
0.999992
0.999997
0.999937
1
1
1
1
1
1
1
0.999991
0.999989
0.999286
1
1
1
1
1
1
1
0.999992
0.999989
0.999301
0.993083
1
1
1
0.999998
0.999995
0.999995
0.999987
0.999981
0.999667
0.683322
0.679402
0.66136
0.734479
0.866159
0.966608
0.995969
0.999737
0.999699
0.999464
0.17412
0.102848
0.0902568
0.12002
0.197599
0.34238
0.505692
0.656041
0.734127
0.715158
0.000489219
2.64819e-07
2.28205e-07
1.47033e-07
3.25081e-08
1.37666e-08
2.09818e-08
2.8352e-05
0.0279113
0.0176796
2.55917e-05
3.89079e-07
3.11721e-07
3.3634e-08
6.48135e-09
5.24388e-09
1.97273e-08
8.27157e-09
2.83501e-05
9.50871e-05
4.38033e-06
2.01531e-06
1.88645e-06
5.14322e-06
3.01248e-07
4.80961e-09
8.47632e-08
7.49094e-09
4.67573e-09
2.46312e-05
3.68836e-06
7.95346e-06
1.52451e-05
9.91413e-06
9.7954e-08
3.30492e-09
6.04521e-08
7.64586e-09
1.16932e-08
-4.81354e-07
1.47728e-06
1.5751e-05
2.00327e-05
4.25097e-06
4.81039e-09
3.32419e-10
2.99607e-10
3.01476e-09
8.15298e-08
1.57008e-08
2.70247e-06
1.4352e-05
8.87856e-06
3.05778e-07
5.96126e-10
3.71004e-11
5.4143e-10
2.56362e-10
5.41376e-07
-1.44113e-08
3.54796e-06
2.65424e-06
3.79086e-07
3.01395e-10
3.80043e-11
1.99943e-11
7.4312e-09
1.24839e-08
7.34279e-06
2.47815e-08
1.30014e-06
1.12161e-09
2.08686e-10
2.01176e-10
2.46092e-10
1.50462e-11
1.02721e-08
1.2683e-07
6.60577e-05
0.000145883
6.73612e-11
8.14758e-11
1.85443e-10
5.97845e-12
1.63605e-10
1.30825e-11
1.5716e-08
4.0759e-13
9.67641e-05
0.00203118
1.81604e-11
1.46268e-11
2.7456e-12
9.9603e-13
1.36444e-11
1.16685e-11
9.35231e-09
3.44476e-13
5.83834e-10
0.00172004
6.19763e-14
5.74583e-12
7.41822e-12
1.27764e-12
6.6618e-12
9.53678e-12
1.06288e-11
8.90019e-08
1.18849e-10
1.06341e-08
1
1
1
1
1
1
1
1
1
1
1
1
1
1
1
1
1
1
1
1
1
1
1
1
1
1
1
1
1
1
1
1
1
1
1
1
1
1
1
0.999994
1
1
1
1
1
1
1
1
0.999997
0.999838
1
1
1
1
1
1
1
1
0.999997
0.999809
0.945644
0.946435
0.976832
1
1
0.999996
0.999994
0.999996
0.999992
0.999828
0.353917
0.384881
0.436824
0.558469
0.71267
0.856231
0.959816
0.992622
0.99734
0.99799
0.0294349
0.0232906
0.0365989
0.0524479
0.0850057
0.178554
0.328539
0.459804
0.526317
0.540802
0.000206294
2.81156e-06
2.64821e-07
2.29809e-07
1.90403e-07
1.56518e-07
4.65299e-08
7.39883e-07
5.85387e-05
9.51018e-05
2.75648e-05
5.22192e-06
6.13636e-06
2.414e-07
1.04423e-06
4.14726e-07
2.10226e-08
1.44777e-08
2.86529e-07
2.95834e-06
6.66411e-06
6.35194e-06
4.55803e-06
6.96675e-07
1.74603e-06
3.61617e-06
8.76122e-07
7.97588e-09
1.62703e-08
2.85147e-07
1.29799e-06
9.78697e-07
7.63373e-07
3.10188e-07
5.18684e-08
2.62833e-07
5.73964e-07
9.34959e-08
1.84221e-06
4.40559e-08
8.74291e-07
6.04208e-07
7.91333e-07
6.45742e-07
5.16169e-08
2.53486e-10
8.73871e-11
2.08062e-08
6.24706e-07
4.49236e-08
3.26941e-06
2.99128e-06
1.64931e-06
8.70364e-08
2.53981e-10
6.33445e-11
1.19635e-11
7.61386e-11
6.91262e-10
1.3656e-09
3.11127e-06
2.7874e-06
6.07296e-07
6.15535e-10
1.0296e-10
7.40229e-11
3.69382e-12
1.77249e-12
7.61386e-11
-1.44848e-08
1.35803e-07
1.61848e-07
2.16685e-08
1.37719e-08
2.65008e-09
1.19506e-10
1.77248e-12
4.07443e-13
1.77249e-12
1.6592e-05
1.06047e-10
1.10507e-09
4.13433e-08
3.6207e-08
3.02165e-09
7.95246e-11
1.25158e-11
3.01546e-13
1.67877e-06
5.73427e-05
6.21082e-11
4.3989e-08
1.17571e-07
3.46461e-08
4.16082e-10
8.96328e-11
3.4449e-13
1.95614e-13
3.4449e-13
3.32926e-05
9.0429e-12
6.2452e-08
6.26101e-08
1.55309e-10
1.49672e-11
3.49197e-11
1.25926e-09
2.0529e-13
1.18009e-12
1.18132e-10
1
1
1
1
1
1
1
1
1
1
1
1
1
1
1
1
1
1
1
1
1
1
1
1
1
1
1
1
1
1
1
1
1
1
1
1
1
1
1
1
1
1
1
1
1
1
1
1
1
1
1
1
1
1
1
1
1
1
1
1
0.797387
0.783646
0.851054
0.950203
1
1
0.999998
0.999996
0.999997
0.999996
0.0886845
0.139766
0.209894
0.336846
0.526436
0.701844
0.849471
0.936122
0.97248
0.986142
0.000276754
0.000137549
0.00259721
0.00904858
0.0313236
0.0833013
0.185999
0.297109
0.371256
0.402
5.2162e-05
2.69838e-05
1.2678e-06
2.95584e-07
2.90707e-07
4.99792e-07
1.5519e-07
7.10563e-08
7.50194e-07
3.26809e-06
1.46672e-05
1.05367e-05
1.36158e-06
1.14193e-06
9.59372e-06
5.68331e-06
8.65724e-08
6.33845e-08
7.10563e-08
6.19584e-07
5.85531e-06
7.29919e-06
1.13568e-06
8.81423e-07
1.14418e-05
1.64513e-05
1.76724e-06
2.81973e-08
6.52894e-08
1.20511e-06
1.04438e-06
5.3223e-06
1.4909e-06
1.45645e-06
1.44951e-08
1.8293e-06
1.41779e-06
5.63205e-08
4.03674e-07
3.41386e-06
6.10803e-07
3.69259e-07
5.49012e-08
9.92481e-08
1.2149e-08
1.25308e-09
6.43272e-10
1.57318e-08
6.80751e-08
2.46558e-07
1.64456e-07
5.49012e-08
1.62107e-08
3.13828e-08
1.43421e-08
1.67607e-10
8.06101e-11
6.73545e-10
3.0574e-09
1.62732e-08
2.2158e-06
1.62107e-08
4.91866e-09
4.00911e-09
1.86467e-09
9.49059e-11
5.11223e-12
5.72007e-11
4.54459e-10
2.81417e-10
1.94975e-07
3.45478e-08
2.9432e-08
3.47691e-08
1.87673e-09
5.69646e-11
3.63826e-12
4.52993e-13
5.72228e-11
4.54324e-10
3.37803e-07
1.13175e-06
8.34597e-07
2.41693e-07
4.01039e-11
3.85525e-12
3.02394e-12
1.95447e-13
4.63417e-13
1.40064e-10
5.48682e-07
2.97293e-06
2.96805e-06
9.79802e-07
1.01173e-10
1.67095e-12
1.95614e-13
1.72292e-13
1.03585e-08
7.95326e-07
2.24928e-07
3.21899e-06
3.4618e-06
1.31107e-06
2.15406e-08
7.99861e-12
2.0491e-13
9.77171e-14
2.97029e-13
7.94967e-10
1
1
1
1
1
1
1
1
1
1
1
1
1
1
1
1
1
1
1
1
1
1
1
1
1
1
1
1
1
1
1
1
1
1
1
1
1
1
1
1
1
1
1
1
1
1
1
1
1
1
1
0.99789
1
1
1
1
1
1
1
1
0.485665
0.529153
0.656528
0.809714
0.951065
1
1
0.999988
1
1
0.00303062
0.0204161
0.0685654
0.157352
0.329803
0.544524
0.710473
0.83106
0.903799
0.940633
0.000113716
8.52044e-05
2.48593e-05
2.45386e-05
0.00775374
0.0505987
0.111855
0.191922
0.249379
0.276307
5.26685e-05
2.79627e-05
3.96095e-06
7.73358e-07
5.25755e-07
4.96608e-07
3.78528e-07
1.53136e-07
2.78633e-07
7.43691e-07
0.000145748
1.7067e-05
2.34401e-06
2.38994e-06
1.2371e-05
6.62474e-06
4.42876e-07
7.10175e-08
1.68299e-07
2.78574e-07
0.0001833
2.25023e-05
1.90994e-06
6.86007e-06
1.80687e-05
1.88761e-05
2.99887e-06
2.21146e-06
3.10391e-06
1.56776e-05
0.000276018
3.70853e-05
1.95685e-05
1.03828e-05
3.38589e-06
9.53519e-06
1.85557e-06
4.76903e-06
3.5983e-06
2.96304e-05
0.00053363
8.29396e-05
3.90255e-05
7.7182e-08
1.44951e-08
6.42139e-09
1.65934e-08
3.53648e-06
1.47673e-06
1.58389e-05
0.000431741
7.60098e-05
2.69957e-05
2.68236e-08
9.80548e-09
1.25307e-09
2.5262e-09
1.71185e-08
1.40032e-06
9.27661e-06
0.00010414
4.14706e-05
9.81304e-06
5.24971e-08
1.21319e-09
1.5911e-10
4.20522e-11
2.13691e-09
7.22108e-09
4.62208e-07
2.11207e-07
2.60625e-06
4.38527e-08
1.13331e-07
5.4872e-09
3.4135e-10
5.03685e-12
6.0938e-12
1.49611e-10
4.0481e-10
1.5731e-06
5.43086e-08
1.56204e-08
9.21815e-09
8.5281e-09
3.50956e-09
3.57161e-11
4.50239e-13
4.90685e-11
1.87519e-10
4.94376e-06