/*--------------------------------*- C++ -*----------------------------------*\
| =========                 |                                                 |
| \\      /  F ield         | OpenFOAM: The Open Source CFD Toolbox           |
|  \\    /   O peration     | Version:  2312                                  |
|   \\  /    A nd           | Website:  www.openfoam.com                      |
|    \\/     M anipulation  |                                                 |
\*---------------------------------------------------------------------------*/
FoamFile
{
    version     2.0;
    format      ascii;
    arch        "LSB;label=32;scalar=64";
    class       volScalarField;
    location    "0.465";
    object      alpha.water;
}
// * * * * * * * * * * * * * * * * * * * * * * * * * * * * * * * * * * * * * //

dimensions      [0 0 0 0 0 0 0];

internalField   nonuniform List<scalar> 
8000
(
1
1
1
1
1
1
1
1
1
1
1
1
1
1
1
1
1
1
1
1
1
1
1
1
1
1
1
1
1
1
1
1
1
1
1
1
1
1
1
1
1
1
1
1
1
1
1
1
1
1
1
1
1
1
1
1
1
1
1
1
0.999999
0.999999
0.999999
1
1
1
1
1
1
1
0.999972
0.999975
0.999814
0.990147
0.963704
0.972661
1
1
1
1
0.618394
0.606188
0.583212
0.581635
0.613171
0.671639
0.8044
0.985487
1
1
0.00549769
0.00208338
5.61354e-07
7.09553e-07
0.0128661
0.0425653
0.125622
0.475714
0.939544
0.999984
7.28138e-07
5.61354e-07
4.77488e-07
5.61354e-07
7.09552e-07
5.55383e-07
0.000404545
0.0243554
0.469199
0.973943
1.01572e-05
8.12959e-06
8.46609e-06
8.13555e-06
1.29886e-06
1.61924e-06
2.03706e-05
0.000423307
0.0523681
0.543425
3.6963e-05
3.3724e-05
1.48446e-05
9.33794e-06
1.82179e-06
1.47825e-06
2.4826e-06
4.35424e-05
0.00046248
0.0243839
2.19551e-05
1.45684e-05
5.19395e-06
2.49415e-06
2.53193e-06
1.36049e-06
2.25596e-06
6.36894e-06
8.51469e-05
0.000673422
3.07895e-06
2.27282e-06
2.27328e-06
2.27139e-06
1.16695e-05
1.55396e-05
1.11725e-05
4.8683e-05
8.76272e-05
0.000102668
6.06166e-06
5.40126e-06
3.24569e-06
6.91601e-06
1.12289e-05
1.91914e-05
1.39514e-05
3.78259e-05
3.02691e-05
6.66632e-05
4.54095e-06
6.03537e-06
2.92185e-06
1.51369e-06
6.32268e-07
1.10172e-05
1.48204e-05
5.30704e-06
4.77992e-05
0.000175048
2.02849e-07
6.93952e-07
2.00542e-07
4.26358e-13
1.75613e-09
4.32392e-06
2.13238e-05
3.63142e-06
6.22593e-05
0.00023557
9.7135e-15
1.66893e-14
1.67938e-14
1.70496e-14
4.26358e-13
4.44214e-07
6.58654e-06
2.81718e-06
2.15992e-05
0.00024942
1.65173e-14
1.6626e-14
1.67076e-14
2.74115e-14
1.78375e-09
2.65346e-07
2.35461e-07
5.03254e-07
0.000151453
0.000249896
1
1
1
1
1
1
1
1
1
1
1
1
1
1
1
1
1
1
1
1
1
1
1
1
1
1
1
1
1
1
1
1
1
1
1
1
1
1
1
1
1
1
1
1
1
1
1
1
1
1
1
1
1
1
1
1
1
1
1
1
0.999999
0.999999
0.999999
0.999999
1
1
1
1
1
1
0.999998
0.999999
0.999999
0.999999
1
1
1
1
1
1
0.517332
0.520339
0.527375
0.555073
0.62774
0.736277
0.867044
0.981916
1
1
0.0186419
0.0164462
0.0170531
0.0201005
0.0263262
0.0553106
0.156628
0.430876
0.804642
0.948536
5.9441e-07
4.7576e-07
4.48131e-07
4.77487e-07
9.01292e-07
1.54084e-05
0.00041949
0.00904832
0.176009
0.482684
1.19923e-05
3.09929e-06
4.17031e-07
3.98706e-07
2.47229e-06
2.86846e-06
4.17932e-05
0.000369343
0.001029
0.0524251
5.31794e-05
2.26979e-05
4.11464e-07
8.81183e-07
9.13076e-07
9.91255e-07
3.79801e-06
5.0144e-05
0.000205765
0.000559188
5.31794e-05
2.4832e-05
4.12937e-07
1.12193e-06
8.72386e-07
9.10339e-07
1.14454e-06
7.13651e-06
7.37611e-05
8.39118e-05
5.31794e-05
2.19766e-05
2.93055e-06
2.59357e-06
4.82158e-06
7.59555e-06
5.00376e-06
7.44808e-06
1.8059e-05
3.21054e-05
1.29351e-05
1.16836e-05
6.5582e-06
1.22145e-06
1.35078e-05
8.36896e-05
0.000103058
5.91765e-05
9.37562e-06
1.26289e-05
4.93165e-07
2.09045e-06
1.54352e-06
2.93453e-07
7.36655e-06
9.9651e-05
0.000134606
0.000128955
7.98124e-06
8.65669e-06
6.88605e-09
1.44508e-08
1.16909e-12
8.88691e-11
1.3455e-08
3.61122e-05
0.000123931
7.97559e-05
8.40793e-06
8.60998e-06
1.32929e-14
1.67938e-14
1.70439e-14
4.24628e-13
2.4604e-10
1.23755e-06
1.73766e-05
1.23505e-05
7.88643e-06
6.50252e-05
9.31078e-14
1.82895e-14
6.51331e-14
1.23874e-13
9.49348e-12
9.97961e-10
9.63413e-08
1.81086e-06
3.84045e-06
0.000249031
1
1
1
1
1
1
1
1
1
1
1
1
1
1
1
1
1
1
1
1
1
1
1
1
1
1
1
1
1
1
1
1
1
1
1
1
1
1
1
1
1
1
1
1
1
1
1
1
1
1
1
1
1
1
1
1
1
1
1
1
0.999999
1
1
1
1
1
1
1
1
1
0.999762
0.999998
1
1
1
1
1
1
1
1
0.275199
0.289823
0.31236
0.353277
0.435044
0.547978
0.698606
0.86182
0.984436
0.991746
0.0100855
0.00698735
0.00730127
0.0103874
0.00754248
0.0163128
0.0587307
0.191923
0.442875
0.511654
1.01812e-06
5.65053e-07
4.17028e-07
5.48997e-07
4.89584e-06
8.31271e-05
0.000274891
0.000924388
0.0098414
0.0321403
9.20922e-07
1.07199e-06
3.92783e-07
3.20001e-07
1.38489e-06
9.04131e-06
3.67496e-05
0.000141067
0.000358388
0.000543303
3.25979e-05
6.04006e-06
3.8835e-07
3.70912e-07
4.7649e-07
1.31688e-06
6.20067e-06
2.84064e-05
4.9788e-05
5.70531e-05
4.906e-05
7.54648e-06
3.69355e-07
3.40236e-07
6.64132e-07
7.30375e-07
1.5266e-06
6.20105e-06
7.88418e-06
7.42096e-06
1.5748e-05
2.18864e-05
4.67912e-06
4.59401e-07
8.76816e-07
9.0745e-07
1.14745e-05
5.27094e-06
4.89267e-06
5.03555e-06
2.16245e-06
5.35537e-06
4.14104e-06
5.04456e-07
1.90105e-05
0.000101063
0.000132066
5.02794e-05
5.20792e-06
7.24811e-06
3.0372e-11
8.5449e-11
6.84571e-08
1.78266e-08
9.2032e-06
0.000118626
0.000136457
0.000132368
6.74893e-06
7.90497e-06
1.45047e-13
6.24097e-14
9.34377e-12
1.71682e-10
1.78266e-08
3.15543e-05
0.000134587
0.000132305
3.30908e-05
8.3015e-06
4.71681e-14
1.99059e-14
5.95226e-14
4.94716e-10
9.32922e-09
6.69049e-08
2.25941e-05
8.74827e-05
0.000145695
0.000130334
4.30557e-14
7.55517e-14
1.0656e-13
5.32838e-11
1.13341e-07
2.44984e-07
3.24003e-07
4.61206e-05
0.00015178
0.000244415
1
1
1
1
1
1
1
1
1
1
1
1
1
1
1
1
1
1
1
1
1
1
1
1
1
1
1
1
1
1
1
1
1
1
1
1
1
1
1
1
1
1
1
1
1
1
1
1
1
1
0.999999
1
1
1
1
1
1
1
1
1
0.999987
0.999998
1
1
1
1
1
1
1
1
0.649216
0.690168
0.748028
0.835044
0.927027
1
1
1
1
1
0.0578419
0.0644785
0.0682415
0.101504
0.164356
0.275529
0.475567
0.706889
0.882469
0.835056
9.19492e-06
7.67679e-06
2.63195e-06
3.0854e-06
6.1971e-06
0.000122629
0.00592931
0.0622854
0.17533
0.154302
1.42563e-06
6.42215e-06
9.71235e-07
1.14328e-06
2.65869e-06
3.55554e-06
7.23704e-05
0.000230124
0.000436773
0.000516232
2.82317e-07
4.72291e-07
4.41792e-07
2.68258e-07
2.86598e-06
2.69666e-06
1.56472e-05
3.14811e-05
4.25238e-05
3.79623e-05
1.61808e-07
4.1414e-06
1.91519e-06
2.86737e-07
7.71974e-06
1.42874e-05
1.203e-05
9.84548e-06
5.09886e-06
4.63622e-06
1.13747e-06
7.79579e-06
1.66004e-06
1.97329e-08
7.01952e-06
3.28128e-05
7.1044e-06
4.2417e-06
2.80328e-06
2.57943e-06
1.14108e-07
4.27117e-06
3.11561e-06
3.37708e-07
3.38931e-06
7.46132e-05
0.000104284
4.89407e-06
4.00788e-06
4.3675e-06
3.10901e-10
1.04428e-07
3.35039e-07
5.45655e-07
8.56753e-06
0.000101139
0.000136457
6.96477e-05
4.89267e-06
2.24728e-05
2.3225e-10
1.02101e-11
4.5762e-11
1.34679e-09
1.22795e-06
6.27753e-05
0.00013622
0.000136439
5.59236e-05
8.40285e-05
5.14045e-12
6.20572e-12
1.02101e-11
7.31885e-11
3.84986e-09
6.3789e-06
8.87339e-05
0.000133296
0.000129855
3.69487e-05
-2.42051e-12
6.24149e-14
5.57666e-12
1.07549e-08
6.69802e-08
5.74391e-08
8.36857e-06
4.75066e-05
3.75298e-05
2.16828e-07
-2.31393e-12
1.10725e-13
9.65079e-13
9.77993e-09
1.85695e-07
1.28813e-07
8.11407e-08
6.8384e-06
1.25552e-06
6.84826e-06
1
1
1
1
1
1
1
1
1
1
1
1
1
1
1
1
1
1
1
1
1
1
1
1
1
1
1
1
1
1
0.999987
1
1
1
1
1
1
1
1
1
0.999997
1
1
1
1
1
1
1
1
1
0.996989
0.999997
1
1
1
1
1
1
1
1
0.86716
0.970744
0.99998
0.999999
1
1
1
1
1
1
0.235057
0.283373
0.322817
0.452898
0.659703
0.868825
1
1
1
0.984488
0.000616091
0.00051983
0.000223185
0.00245676
0.0365804
0.117053
0.286602
0.567657
0.771849
0.717173
4.02528e-05
3.75546e-05
1.51774e-05
1.28535e-05
2.96924e-06
3.55752e-06
0.000122619
0.0202465
0.0728164
0.0635198
1.28718e-06
7.08646e-07
3.3571e-07
3.00403e-07
1.41442e-06
1.40627e-06
3.57446e-06
5.48553e-05
1.64357e-05
5.51826e-07
2.09605e-07
5.6719e-08
1.03817e-07
5.97314e-08
2.52454e-07
2.48513e-06
9.00061e-06
2.06917e-05
4.66769e-06
1.90949e-06
2.50445e-08
4.92351e-08
5.14988e-07
2.33906e-07
2.66741e-06
1.6744e-05
7.95543e-05
4.40905e-05
2.73155e-06
2.34962e-06
3.48539e-08
1.31228e-07
7.6658e-07
3.58112e-09
2.0104e-06
2.81576e-05
0.000109611
4.77708e-05
2.58303e-06
2.41299e-06
8.63537e-08
4.32373e-09
1.93749e-08
6.40297e-08
1.13689e-06
1.9116e-05
0.000110816
0.000130457
2.55882e-05
2.93821e-05
4.25762e-09
9.93839e-10
1.37911e-10
5.09216e-08
3.83455e-07
9.99517e-06
8.46672e-05
0.000130091
0.00012749
0.000126774
2.37759e-10
8.74137e-11
9.62592e-11
2.03271e-10
2.55221e-09
1.76178e-06
4.09169e-05
0.000102603
0.000126973
0.000117927
8.83153e-10
1.23537e-10
6.8757e-11
5.63299e-09
1.518e-08
2.94297e-07
8.21336e-06
2.57032e-05
1.4494e-05
1.99976e-10
5.11798e-09
4.47233e-09
1.84943e-11
8.92992e-09
6.12219e-08
2.27722e-08
2.79671e-07
5.20609e-07
3.6084e-13
1.4778e-12
5.39085e-09
7.906e-09
1.25578e-11
5.64982e-10
1.23116e-07
2.44009e-07
2.71187e-08
1.25802e-09
2.7515e-11
6.61912e-11
1
1
1
1
1
1
1
1
1
1
1
1
1
1
1
1
1
1
1
1
1
1
1
1
1
1
1
1
1
1
0.999999
1
0.999999
0.999999
1
1
1
1
1
1
0.999919
0.999938
1
1
1
1
1
1
1
1
0.836211
0.970256
0.999993
1
1
1
1
1
1
1
0.264299
0.557495
0.864511
0.97233
0.999999
1
1
1
1
1
0.00229484
0.0525435
0.108236
0.173774
0.358671
0.67561
0.942229
1
1
0.975424
0.00014159
0.000269698
0.000176395
1.94952e-05
0.000104182
0.0376343
0.175951
0.461349
0.679947
0.670642
7.16757e-06
2.75191e-05
4.23355e-05
2.58618e-06
5.27028e-06
1.40527e-06
4.67966e-06
0.0102856
0.0381175
0.0321567
1.08998e-06
5.53642e-07
2.65646e-07
5.82918e-08
9.67019e-08
6.35352e-07
1.03988e-06
4.18356e-06
8.36256e-07
6.31388e-07
5.44356e-07
9.96905e-08
2.33891e-08
3.85583e-08
5.53936e-08
6.57152e-08
3.04188e-06
1.19126e-05
8.41356e-06
1.49207e-06
2.0528e-07
3.55051e-07
2.19167e-08
4.30082e-08
2.25014e-07
6.53321e-08
1.73004e-05
4.65133e-05
5.4605e-06
2.43528e-06
1.78051e-07
2.29746e-07
5.89456e-09
2.77442e-09
2.84765e-07
7.06418e-07
2.92125e-05
9.85361e-05
2.41325e-06
2.37574e-06
1.32154e-07
8.3445e-08
2.85941e-09
2.26365e-10
7.82607e-08
4.56053e-08
1.52383e-05
0.000117294
6.00996e-05
3.75635e-06
5.92125e-08
2.5566e-07
3.5291e-09
1.07307e-10
6.60244e-10
1.51063e-08
1.02394e-06
5.40374e-05
0.00012805
7.39494e-05
1.3614e-07
4.5823e-07
3.3614e-09
6.12798e-10
2.43073e-10
4.34936e-09
1.09379e-07
5.11955e-06
5.96032e-05
6.27541e-05
2.07946e-07
3.83557e-07
3.45281e-09
2.12201e-09
6.47528e-09
7.79122e-10
8.4034e-09
1.23618e-08
2.6456e-07
2.86869e-06
2.8733e-07
4.2525e-07
3.04084e-09
8.46313e-10
8.28378e-09
1.37771e-08
6.66693e-10
4.00237e-13
2.44203e-14
4.11645e-13
5.2071e-07
8.32935e-08
8.8268e-10
3.49235e-10
8.40552e-09
3.7213e-08
4.3585e-08
1.13668e-11
1.24208e-13
6.66433e-11
1
1
1
1
1
1
1
1
1
1
1
0.999997
0.999977
0.999994
1
1
1
1
1
1
1
0.999974
0.999921
0.999971
1
1
1
1
1
1
0.999995
0.999998
0.999951
0.999974
1
1
1
1
1
1
0.99969
0.999944
0.999993
1
1
1
1
1
1
1
0.643163
0.803326
0.977936
0.999986
1
1
1
1
1
1
0.0448727
0.11779
0.446906
0.789499
0.970197
0.999999
1
1
0.999999
1
0.000246198
0.000269875
0.0187725
0.0698401
0.185004
0.483401
0.860808
1
0.999999
0.992731
5.52991e-05
3.14292e-05
1.58041e-05
2.02651e-06
1.52675e-05
0.00178756
0.112215
0.37958
0.612182
0.650671
2.01195e-05
6.53266e-06
6.63458e-07
1.67453e-07
7.96635e-07
8.77936e-06
1.0503e-06
0.011082
0.0288431
0.0171534
1.46812e-05
4.54669e-06
1.51963e-07
5.78141e-08
6.83229e-08
6.28992e-08
2.71931e-07
5.17981e-07
4.71699e-07
5.52198e-07
6.4319e-06
1.19995e-05
1.14735e-07
6.10719e-08
6.09262e-08
6.26932e-08
3.98929e-07
4.6218e-07
5.00757e-07
4.47279e-06
4.90019e-06
9.03409e-06
2.66804e-07
3.46718e-10
8.8378e-10
9.16592e-08
2.13412e-06
8.33089e-06
2.88414e-06
9.06588e-06
3.47276e-06
5.9796e-06
2.32141e-07
1.62226e-10
7.33218e-10
2.70973e-07
2.39464e-06
1.56415e-05
2.71446e-06
3.76575e-06
6.98991e-06
1.28232e-05
4.54544e-07
1.1345e-10
1.62228e-10
4.34913e-08
8.15675e-07
1.29534e-05
2.20056e-05
2.21158e-06
0.000637322
1.75417e-05
2.82545e-07
7.60608e-11
1.07306e-10
6.60368e-10
1.21175e-06
1.72957e-05
4.11684e-05
4.97971e-06
0.000562061
2.29084e-05
1.9574e-07
6.15042e-11
6.31e-11
2.43096e-10
4.34982e-09
1.07895e-05
4.56767e-05
5.05955e-05
4.27481e-05
2.74032e-05
9.15402e-08
4.25736e-11
1.14696e-10
2.2435e-10
6.52986e-10
9.27265e-07
6.2517e-06
5.62809e-06
1.42651e-05
2.75439e-05
3.13456e-11
3.47099e-11
3.41062e-10
1.05565e-09
6.10885e-10
2.44204e-14
1.33461e-14
1.2464e-14
1.42086e-05
1.92996e-05
1.84868e-11
2.79811e-11
4.24891e-10
2.54222e-12
4.31438e-09
7.49411e-14
1.19395e-15
1.89926e-13
1
1
1
1
1
1
1
1
1
1
0.999999
0.99998
0.999888
0.999979
1
1
1
1
1
1
0.999997
0.999818
0.999761
0.999935
1
1
1
1
1
1
0.999998
0.999912
0.999955
0.999969
1
1
1
1
1
1
0.999966
0.99972
0.999866
0.999969
1
1
1
1
1
1
0.991226
0.727115
0.752372
0.939674
0.999982
1
1
1
1
1
0.587857
0.0923706
0.110799
0.405701
0.848289
0.999984
1
1
1
1
0.0748299
4.47821e-05
0.000390525
0.0274204
0.107723
0.344743
0.781466
1
0.999999
0.999979
4.46074e-05
5.26396e-06
2.80954e-05
1.50838e-05
9.32764e-06
8.85666e-05
0.0625212
0.3278
0.576898
0.648791
5.17289e-06
1.31129e-06
1.23768e-06
7.86914e-07
1.00654e-06
5.17539e-06
1.14907e-06
0.00788718
0.0270855
0.0174151
0.0014966
2.46721e-07
4.14243e-08
1.56496e-08
1.7819e-07
1.4903e-07
5.27388e-07
4.69648e-07
4.73594e-07
4.71108e-07
0.0029189
3.59166e-05
1.57959e-08
4.73679e-10
3.02121e-07
7.20801e-08
1.49954e-07
4.97886e-07
4.69633e-07
8.16347e-06
0.00658274
0.00028553
4.73349e-10
4.44658e-10
4.73679e-10
6.65643e-07
4.79842e-06
3.65932e-06
3.87889e-06
9.06588e-06
0.0122312
0.000392483
4.44657e-10
4.08698e-10
6.3691e-10
2.22581e-06
1.72425e-05
2.62493e-06
2.54922e-06
4.51699e-06
0.0118992
0.000181407
3.08254e-10
1.11174e-10
3.08254e-10
2.74209e-06
1.83718e-05
2.60902e-06
2.21842e-06
2.16722e-06
0.00817561
7.79626e-09
8.86439e-09
7.12571e-11
9.22429e-11
6.93811e-09
1.25264e-05
2.72856e-05
2.16722e-06
2.16664e-06
0.000946807
1.73683e-08
2.29147e-08
5.23265e-11
2.14677e-11
4.5053e-10
1.45348e-06
3.08959e-05
4.56087e-05
2.48187e-05
0.000189218
4.40761e-08
2.05877e-08
2.14743e-11
8.21681e-12
7.43175e-12
1.8971e-09
5.25846e-06
1.48809e-05
1.0871e-05
0.000509181
1.19097e-07
1.67321e-09
4.552e-09
4.72132e-12
2.24536e-13
2.6199e-12
7.49464e-14
1.20286e-15
2.982e-16
0.000456262
6.80038e-09
8.23192e-10
7.26331e-08
2.54222e-12
1.62165e-13
7.27921e-14
8.69982e-16
1.11325e-16
8.87597e-17
1
1
1
1
1
1
1
1
1
1
1
0.999996
0.99997
0.999996
1
1
1
1
1
1
1
0.999869
0.99998
0.999994
1
1
1
1
1
1
1
0.999896
0.99993
0.999986
0.999994
0.999998
1
1
1
1
0.999998
0.999966
0.975179
0.993242
0.999535
1
1
1
1
1
0.999925
0.98953
0.442019
0.624147
0.953911
0.999986
1
1
1
1
0.99943
0.529965
0.019639
0.0840047
0.593012
0.989314
0.999999
1
0.999999
0.999999
0.715003
0.0349657
8.78458e-05
0.000624688
0.0638607
0.275518
0.724646
0.999999
0.999999
0.999974
0.060487
1.95026e-06
2.31635e-05
6.51402e-05
7.71941e-05
0.0001046
0.0414101
0.299677
0.561021
0.663064
1.8345e-06
3.02514e-07
7.56073e-06
5.53288e-06
9.33208e-06
2.87543e-05
5.48414e-06
0.00488307
0.0277555
0.0217774
0.00221056
1.63178e-07
5.06789e-07
4.31477e-06
1.94092e-05
7.89709e-06
2.43001e-06
5.17999e-07
4.69633e-07
5.2859e-07
0.0520268
1.24037e-07
2.25266e-07
1.19096e-06
1.42712e-09
4.27249e-06
1.07493e-05
4.96036e-06
1.09994e-06
8.87447e-06
0.117468
3.01795e-08
7.1163e-10
2.0714e-07
8.8378e-10
1.20624e-08
3.84989e-06
2.06739e-05
2.34396e-05
8.19865e-06
0.136852
7.28106e-10
4.89952e-10
4.44658e-10
4.89952e-10
8.50061e-07
1.88589e-05
3.58163e-05
1.42994e-05
2.28225e-06
0.0411434
1.11969e-09
6.93176e-10
4.71881e-10
8.75593e-10
1.65317e-06
3.08801e-05
3.53644e-05
4.41233e-06
2.16638e-06
4.07475e-07
7.90828e-10
3.7569e-10
1.11174e-10
3.08354e-10
2.43312e-07
2.08726e-05
3.50572e-05
9.17058e-06
2.16722e-06
0.00217562
3.51768e-09
2.21587e-10
4.38381e-11
1.63348e-11
2.82883e-10
4.21351e-06
1.92098e-05
1.60623e-05
5.79429e-06
0.0667096
1.4393e-08
4.77199e-09
1.0613e-09
8.35703e-12
2.01118e-13
2.39665e-12
9.87963e-07
6.65295e-06
7.75806e-06
0.114717
1.07961e-08
1.23338e-06
6.19921e-08
2.3426e-13
1.76247e-13
1.14027e-13
4.45632e-16
5.89881e-10
2.33332e-07
0.0956739
5.68718e-08
1.96181e-09
5.41884e-07
1.0035e-10
1.59589e-13
8.73876e-16
1.11235e-16
8.87575e-17
8.95801e-17
0.908662
1
1
1
1
1
1
1
1
1
0.906349
1
1
1
1
1
1
1
1
1
0.889337
0.999996
0.999996
0.999998
1
1
1
1
1
1
0.886086
0.999992
0.999942
0.999906
0.999995
0.999993
1
1
1
1
0.931091
0.999942
0.919343
0.931699
0.992854
0.999995
1
1
1
1
0.958479
0.999403
0.430319
0.285356
0.741269
0.999907
0.999999
1
1
1
0.865259
0.921289
0.132049
0.00204561
0.2912
0.932523
0.999996
0.999999
0.999999
0.999999
0.888542
0.323951
0.00193519
0.000202526
0.0214703
0.250399
0.701559
0.999996
0.999999
0.999969
0.733669
0.0369995
3.23651e-06
0.000121407
0.000181876
0.00019935
0.0390196
0.279952
0.551642
0.670248
0.091152
0.00156875
2.8929e-07
0.000113774
0.000482575
0.000162146
4.7786e-05
0.0105241
0.0308218
0.0253606
0.0156428
1.05424e-07
3.32304e-08
8.94101e-05
0.00103525
0.000805425
6.33444e-05
9.04252e-07
5.2859e-07
6.78483e-07
0.115372
3.36185e-08
1.43165e-08
1.11131e-05
0.00043137
0.000725035
0.000167895
1.9546e-06
9.90328e-07
8.80714e-06
0.144145
3.97291e-07
5.00519e-09
9.37076e-06
5.28042e-05
0.000101092
4.4088e-05
3.57123e-05
2.3445e-05
5.40836e-06
0.14386
5.7222e-09
7.28056e-10
2.07531e-05
1.25276e-05
8.62312e-07
4.86406e-06
3.58246e-05
2.56562e-05
2.47057e-06
0.0902829
2.04143e-08
1.11969e-09
2.44859e-05
2.38224e-08
5.28837e-06
1.24267e-05
3.58243e-05
2.32215e-05
2.17465e-06
4.45562e-05
7.4019e-05
7.90828e-10
6.98915e-06
1.47911e-08
2.11054e-06
6.25242e-06
3.08495e-05
2.68564e-05
2.16638e-06
0.0430847
0.000231377
3.51768e-09
2.21586e-10
1.5687e-07
6.195e-07
8.67361e-07
9.24084e-06
1.40616e-05
2.8868e-06
0.183453
2.02194e-08
7.41835e-06
1.79694e-07
7.12532e-08
1.41047e-07
3.25948e-13
1.11925e-09
1.47426e-07
2.18132e-06
0.195186
1.46503e-07
0.000128555
3.29302e-06
1.52038e-09
2.38456e-13
1.0536e-13
1.29884e-15
2.1428e-16
2.97512e-08
0.194207
2.24713e-06
0.000505003
3.05444e-05
3.19093e-08
1.13584e-13
1.3871e-13
1.07851e-15
9.04524e-17
8.52935e-17
0.892363
0.985121
1
1
1
1
1
1
1
1
0.891944
0.990366
1
1
1
1
1
1
1
1
0.891706
0.999993
0.999996
0.999999
1
1
1
1
1
1
0.891954
0.999993
0.999962
0.999932
0.999997
0.999992
1
1
1
1
0.930014
0.999962
0.952162
0.944657
0.993
0.999988
1
1
1
1
0.942016
0.999536
0.484301
0.296522
0.721105
0.999212
0.999999
1
1
1
0.874357
0.931356
0.137142
0.00221171
0.262132
0.908686
0.999994
0.999999
0.999999
0.999999
0.888542
0.380817
0.00213008
0.000271581
0.0143663
0.256708
0.688954
0.999994
0.999999
0.999967
0.888811
0.065122
7.1504e-05
0.00017736
0.000273622
0.00032282
0.0461221
0.280583
0.549746
0.669282
0.873158
0.0121177
3.64477e-06
0.000312925
0.00157185
0.000364591
6.80501e-05
0.0124701
0.0322298
0.0251811
0.569677
1.63158e-07
2.89338e-07
0.000427228
0.00157185
0.00142949
0.000117461
5.08688e-06
6.06635e-07
5.11888e-07
0.225846
0.00177186
3.32465e-08
4.24364e-05
0.00107398
0.00112127
0.000100298
8.88604e-07
2.7953e-07
8.62479e-06
0.0265019
0.0110344
0.000286468
8.66801e-06
0.00011085
6.3427e-05
7.75417e-06
1.33426e-05
1.91423e-05
8.44032e-06
0.00397117
0.0124617
0.00144594
5.28751e-06
4.21713e-06
3.36831e-05
6.43145e-06
3.55407e-05
2.06764e-05
3.00151e-06
7.96583e-05
0.00995402
0.00135232
3.69594e-06
3.66641e-06
2.22507e-05
7.70311e-06
3.58245e-05
2.80813e-05
2.17847e-06
0.0363172
0.00285935
0.00043217
1.66586e-06
7.47526e-06
5.91968e-06
2.63661e-06
2.53049e-05
2.82351e-05
2.17768e-06
0.184652
0.0166827
4.85061e-07
1.26988e-08
3.12766e-06
1.37511e-06
1.82256e-10
8.60956e-06
2.22828e-05
5.68275e-06
0.195496
0.0431544
1.12073e-05
1.26408e-07
3.53378e-08
5.49888e-09
1.84655e-12
3.72834e-12
1.01927e-06
3.13995e-06
0.195496
0.0702119
9.04839e-05
1.89108e-06
9.81646e-09
7.18197e-07
1.10946e-13
2.43046e-14
1.92956e-16
2.34451e-10
0.195511
0.0944249
0.00157909
7.10909e-06
8.74835e-08
1.88429e-10
2.44088e-14
2.51994e-16
8.83111e-17
8.0212e-17
0.991319
1
1
1
1
1
1
1
1
1
0.999124
1
0.999985
0.999999
1
1
1
1
1
1
0.999999
0.999952
0.999992
1
1
1
1
1
1
1
0.999998
0.99999
0.999962
0.999996
0.999995
0.999998
1
1
1
1
0.999991
0.99987
0.976591
0.993823
0.99957
1
1
1
1
1
0.99987
0.921647
0.418757
0.604908
0.944309
0.999987
1
1
1
1
0.988911
0.389717
0.00358944
0.0557374
0.550959
0.98064
0.999998
1
1
1
0.495357
0.0174137
7.91601e-05
0.000542339
0.0682635
0.280856
0.719796
0.999998
0.999999
0.999973
0.0934924
0.00123345
1.58425e-05
7.16627e-05
0.000233143
0.000262402
0.0505355
0.301039
0.558028
0.658451
0.0654608
1.72467e-06
4.00237e-06
1.76896e-05
7.13094e-05
0.000170391
2.67621e-05
0.00820602
0.0290505
0.0208724
0.136244
9.43926e-07
4.56829e-06
6.65946e-05
0.000215849
0.000191764
4.10176e-05
5.20124e-07
1.96002e-07
3.16504e-07
0.172125
1.72467e-06
2.90621e-05
6.91063e-05
3.33647e-08
1.21844e-07
9.55394e-06
2.68024e-06
1.66047e-07
8.24654e-06
0.0536704
1.97296e-06
4.0892e-05
0.000113075
3.97547e-06
1.7576e-07
1.03131e-05
2.19219e-06
3.12852e-07
1.2023e-05
1.65709e-06
2.20923e-06
4.58575e-05
0.000113077
1.19484e-05
2.15741e-07
1.37586e-05
3.1703e-06
4.00931e-07
7.27237e-06
1.09465e-06
6.51534e-07
4.69996e-05
0.00011303
2.82944e-05
1.99118e-07
1.39757e-05
1.44587e-05
2.76753e-06
2.17943e-06
1.40256e-05
1.09465e-06
6.74645e-05
4.04835e-05
4.47006e-05
1.69366e-07
8.49728e-06
2.63556e-05
2.47594e-05
2.17845e-06
3.41607e-07
1.38193e-06
7.12731e-05
1.46821e-10
1.55536e-05
8.98441e-10
5.8224e-11
8.51127e-06
1.67616e-05
7.17811e-06
0.000730652
4.05343e-06
3.86653e-05
2.88587e-07
1.16907e-11
1.74558e-09
7.79938e-14
5.99435e-14
4.1461e-07
2.44844e-06
0.00627006
4.48898e-06
0.000177241
5.0513e-06
5.98626e-09
1.87568e-08
5.37784e-14
1.49808e-14
2.07171e-16
8.02105e-17
0.0146496
7.15766e-08
0.00054125
2.03361e-05
1.65485e-07
4.96984e-10
4.51918e-14
4.45746e-14
8.0212e-17
7.85663e-17
1
1
1
1
1
1
1
1
1
1
1
0.999982
0.999923
0.999986
1
1
1
1
1
1
1
0.99996
0.99986
0.999959
1
1
1
1
1
1
0.999991
0.999962
0.999985
0.999993
1
1
1
1
1
1
0.99987
0.995572
0.998464
0.999954
1
1
1
1
1
1
0.743653
0.519966
0.645661
0.930296
0.999982
1
1
1
1
1
0.241023
0.00932967
0.0727054
0.379558
0.840295
0.99998
1
1
1
1
0.00968252
0.00010333
0.000431781
0.0211121
0.100977
0.330449
0.771873
1
0.999999
0.999979
0.000103331
1.77859e-05
3.31335e-05
2.59291e-05
2.83961e-05
0.000119543
0.060685
0.327601
0.573927
0.639832
1.4393e-05
2.58951e-06
1.90928e-06
1.50274e-06
2.4411e-06
9.55502e-06
2.91443e-06
0.00872724
0.0274068
0.0155336
2.31205e-06
1.73945e-06
3.0817e-07
2.6494e-08
3.31046e-08
1.92766e-07
6.15077e-07
1.69908e-07
1.66276e-07
1.96002e-07
0.00120232
0.000103621
6.22734e-08
2.94078e-10
4.10165e-10
3.98352e-08
1.08896e-07
1.50432e-07
1.64856e-07
8.98561e-06
0.0034
1.39079e-05
2.94078e-10
2.58566e-10
2.94078e-10
5.08188e-07
1.46013e-07
1.27108e-06
1.38418e-06
1.20546e-05
0.00161961
7.74376e-09
2.51252e-10
2.592e-10
2.51252e-10
1.00127e-06
2.37206e-06
2.08244e-06
1.13537e-05
7.69634e-06
0.000296196
1.03479e-07
1.78715e-10
1.1349e-10
1.78715e-10
6.2391e-07
5.53859e-06
4.63354e-06
8.53056e-06
2.18787e-06
5.70047e-05
5.47401e-06
1.61443e-05
8.79309e-11
1.966e-09
1.00334e-09
3.53054e-06
2.1077e-05
1.01835e-05
2.17943e-06
3.01846e-05
0.000185667
9.19235e-05
3.70313e-11
1.16909e-11
1.24821e-11
5.67097e-08
3.75699e-06
7.72564e-06
8.51956e-06
8.07759e-05
0.000275034
9.95096e-05
1.16909e-11
1.16909e-11
6.93483e-12
3.64972e-13
2.95571e-14
5.03346e-08
9.15955e-07
1.96812e-05
0.000274933
1.40555e-05
1.06927e-08
2.81412e-11
3.64972e-13
2.95574e-14
2.90579e-14
7.87511e-16
7.85663e-17
5.04011e-06
5.34972e-05
7.99468e-07
5.33392e-07
1.91273e-09
3.44591e-12
6.92877e-14
1.98297e-14
7.85663e-17
7.85663e-17
1
1
1
1
1
1
1
1
1
1
1
0.999998
0.999984
0.999996
1
1
1
1
1
1
1
0.999994
0.999953
0.999981
1
1
1
1
1
1
0.999987
0.999995
0.999988
0.999986
1
1
1
1
1
1
0.993787
0.999354
0.99998
1
1
1
1
1
1
1
0.494896
0.683597
0.945539
0.999984
0.999999
1
1
1
1
1
0.00364406
0.0703536
0.394536
0.772563
0.970475
0.999999
1
1
1
1
0.000192515
0.000750497
0.0212747
0.0603712
0.172913
0.464297
0.853874
1
1
0.9905
8.03878e-05
0.000101141
1.80578e-05
5.85399e-06
1.38425e-05
0.000257731
0.102458
0.37365
0.610378
0.642527
5.59311e-05
1.27391e-05
4.52849e-06
4.52457e-06
2.44437e-06
1.09488e-05
1.24102e-06
0.0118839
0.0288137
0.0150294
1.42673e-05
2.76929e-06
6.736e-06
6.45292e-06
1.78184e-06
1.27425e-07
1.33643e-07
4.94679e-07
1.87326e-07
3.07829e-07
5.6728e-06
7.006e-06
7.68627e-06
2.55883e-06
4.34585e-07
7.38445e-08
1.07749e-07
1.32955e-07
1.49962e-07
7.24268e-06
1.05661e-06
5.84409e-06
7.90741e-07
2.74212e-10
3.90299e-10
1.21809e-07
2.0297e-07
1.82741e-05
2.66331e-06
1.04434e-05
1.78359e-05
9.31203e-06
2.74212e-10
2.51252e-10
3.26328e-10
9.95223e-10
1.82033e-07
7.28026e-05
3.48464e-05
1.91607e-06
3.72254e-05
4.3202e-05
4.61915e-10
1.78715e-10
4.54557e-10
6.80214e-09
1.09802e-07
2.84973e-05
0.000111843
2.05645e-06
7.95108e-05
7.33124e-05
3.03684e-10
1.1349e-10
1.29399e-10
2.29731e-09
3.4754e-08
8.79121e-06
3.99731e-05
3.1432e-05
8.92788e-05
0.000124523
1.37179e-05
1.18093e-10
2.12333e-11
1.20389e-10
2.29905e-09
7.20466e-06
1.60274e-05
1.14737e-05
5.82855e-05
0.000238232
5.81096e-05
2.12858e-11
1.16811e-11
1.0777e-09
4.8034e-09
3.92097e-13
1.62752e-08
4.76858e-16
2.13291e-05
0.000180187
3.93999e-05
1.86376e-11
1.93909e-11
2.77465e-10
3.6497e-13
1.51951e-14
4.76858e-16
9.97393e-17
2.60572e-08
3.41304e-13
5.63658e-06
9.12882e-12
7.0858e-12
5.28358e-12
7.69921e-14
1.75775e-11
9.97384e-17
7.85663e-17
1
1
1
1
1
1
1
1
1
1
1
1
1
1
1
1
1
1
1
1
1
1
1
1
1
1
1
1
1
1
0.999999
0.999998
1
1
1
1
1
1
1
1
0.999118
0.999859
1
1
1
1
1
1
1
1
0.799827
0.957551
0.999989
1
1
1
1
1
1
1
0.276815
0.562836
0.860151
0.973582
0.999998
1
1
1
1
1
0.0167932
0.0769932
0.107604
0.175922
0.354117
0.667373
0.941402
1
1
0.972513
0.000192106
0.000275711
3.78631e-05
1.91219e-05
8.63051e-05
0.0329314
0.16808
0.454831
0.679804
0.665463
4.62286e-05
2.57742e-05
1.29584e-05
5.85568e-06
4.70842e-06
1.95954e-06
4.74327e-06
0.0106223
0.0383504
0.0306001
8.03306e-06
1.44292e-06
7.03707e-06
6.4949e-06
8.94294e-07
1.09982e-06
1.208e-06
3.99284e-06
7.14594e-07
4.6692e-07
1.54335e-06
6.23462e-07
7.22446e-06
3.22279e-06
1.41064e-07
4.45003e-08
5.17525e-06
4.85676e-07
2.76362e-07
1.15744e-06
3.17768e-08
2.05426e-07
6.85482e-10
4.87673e-10
5.50422e-10
3.94578e-09
6.37855e-05
2.2783e-05
8.36477e-07
1.59401e-06
3.65689e-08
2.45171e-09
1.6798e-09
7.28638e-10
7.78857e-09
5.77854e-06
0.000116739
0.000116545
2.03331e-05
1.71884e-06
7.6337e-05
3.90002e-09
2.26524e-09
4.61912e-10
6.80238e-09
1.12249e-07
2.33753e-05
0.000106201
0.000123997
4.47606e-06
0.000230495
6.30616e-09
5.78604e-10
5.87026e-09
2.65919e-09
3.46959e-08
2.19696e-07
7.35076e-06
0.000107648
3.19594e-05
0.000231385
6.85699e-10
3.67902e-10
1.51901e-08
1.28048e-10
2.29212e-09
2.65279e-08
1.78773e-06
6.71157e-06
8.31854e-06
0.000158188
3.679e-10
1.61474e-10
1.48259e-08
2.54389e-11
9.00531e-09
2.93718e-08
4.15727e-11
4.75234e-11
6.06021e-14
2.60572e-08
3.31763e-06
5.60801e-13
1.29621e-11
2.10805e-11
6.98864e-09
7.91586e-08
6.00206e-08
1.87439e-14
4.76858e-16
3.41304e-13
2.72061e-13
2.98173e-13
3.28055e-11
2.11931e-10
3.67005e-11
9.53181e-08
3.73106e-07
2.34885e-08
9.97393e-17
1
1
1
1
1
1
1
1
1
1
1
1
1
1
1
1
1
1
1
1
1
1
1
1
1
1
1
1
1
1
0.999984
0.999999
1
1
1
1
1
1
1
1
0.999971
1
1
1
1
1
1
1
1
1
0.998885
0.999995
1
1
1
1
1
1
1
1
0.910309
0.984996
0.999981
0.999999
1
1
1
1
1
1
0.251645
0.295336
0.347199
0.47272
0.667594
0.87371
1
1
1
0.985578
0.000267144
0.000598453
0.000124257
0.00260699
0.0352821
0.114444
0.28352
0.566078
0.772971
0.718138
2.22407e-05
1.62685e-05
7.29995e-06
1.00835e-05
2.01568e-06
1.6502e-06
1.92796e-06
0.0203654
0.0737093
0.0626453
1.65648e-06
1.94996e-06
8.73557e-07
3.48357e-07
1.55295e-06
1.66832e-06
1.64417e-06
7.93316e-05
1.67807e-05
8.06091e-07
7.09945e-07
2.32078e-06
1.2871e-06
3.22468e-07
1.87813e-07
1.35492e-05
8.70582e-06
9.19882e-06
1.1641e-06
1.44583e-06
7.1077e-06
3.83012e-06
2.42781e-07
6.85482e-10
1.00048e-06
0.000115007
0.000150123
3.53636e-06
1.05686e-06
1.77923e-06
2.77626e-06
5.86926e-06
2.92285e-07
1.62149e-09
8.88004e-06
0.000200002
0.000301095
2.98455e-05
2.60073e-06
3.19037e-06
1.65816e-06
3.84487e-07
3.90002e-09
1.15891e-08
8.79442e-06
0.000136812
0.000319405
0.000262783
6.70151e-05
3.77403e-05
1.04942e-05
9.71399e-09
1.48083e-09
5.81306e-09
1.66984e-07
3.02483e-05
9.94665e-05
9.83149e-05
0.000115359
5.40376e-05
5.82801e-05
1.64929e-06
4.31704e-10
6.08476e-10
3.87124e-09
8.70387e-07
5.34407e-06
6.78992e-07
8.0614e-06
7.79508e-06
9.80057e-05
8.99076e-07
2.28488e-10
4.91872e-10
1.03676e-08
1.0174e-08
3.29627e-08
7.3021e-10
2.82825e-08
2.22082e-12
5.0553e-05
2.72056e-13
2.14355e-08
5.94132e-10
8.25747e-09
7.05981e-09
3.59165e-07
1.93584e-06
1.20703e-06
6.06021e-14
2.72061e-13
2.72061e-13
2.80063e-12
1.94606e-12
1.32806e-11
9.15346e-08
1.70182e-06
3.454e-06
2.12497e-06
1.65115e-12
1
1
1
1
1
1
1
1
1
1
1
1
1
1
1
1
1
1
1
1
1
1
1
1
1
1
1
1
1
1
1
1
1
1
1
1
1
1
1
1
1
1
1
1
1
1
1
1
1
1
0.999999
1
1
1
1
1
1
1
1
1
0.999993
0.999998
1
1
1
1
1
1
1
1
0.680265
0.71691
0.772288
0.849788
0.935157
1
1
1
1
1
0.0548415
0.0646215
0.0736042
0.110759
0.170572
0.28278
0.480527
0.711107
0.88762
0.842669
3.26892e-06
2.25433e-06
1.13657e-06
1.89341e-06
3.78021e-06
1.88289e-06
0.00609573
0.0636285
0.180954
0.158346
9.56681e-07
6.71409e-07
5.06917e-07
7.7032e-07
7.01647e-07
1.33069e-06
7.88698e-05
0.000291942
0.000477758
0.000536712
3.27606e-05
9.6734e-06
4.47525e-07
9.87929e-07
2.59494e-07
6.98908e-07
1.09082e-05
4.66227e-05
4.33342e-05
3.68228e-05
3.7927e-05
3.06391e-05
2.53094e-07
4.06767e-06
3.4887e-05
8.04017e-05
5.50225e-05
1.17813e-05
3.53636e-06
3.06568e-06
3.83964e-05
3.41712e-05
2.53112e-06
1.74738e-06
0.00011974
0.00032593
0.000286658
1.84041e-05
4.12063e-06
3.32054e-05
2.25443e-05
1.4334e-05
7.71542e-06
2.35519e-06
0.0001537
0.000354285
0.000354641
0.000354483
5.96592e-05
0.000460499
4.891e-06
1.1102e-05
1.61326e-06
1.08097e-07
2.81367e-05
0.000246491
0.000354285
0.000188141
7.36045e-05
0.000188155
5.88889e-10
3.44532e-07
2.90435e-08
1.64817e-09
4.36446e-07
1.50634e-05
5.99692e-05
3.54402e-06
2.34352e-05
7.89778e-06
6.88091e-12
2.17493e-12
2.31795e-11
4.92453e-10
3.28522e-08
5.95561e-08
3.7472e-07
8.53642e-08
5.70479e-09
1.17775e-10
2.17493e-12
4.79766e-13
3.40656e-11