/*--------------------------------*- C++ -*----------------------------------*\
| =========                 |                                                 |
| \\      /  F ield         | OpenFOAM: The Open Source CFD Toolbox           |
|  \\    /   O peration     | Version:  2312                                  |
|   \\  /    A nd           | Website:  www.openfoam.com                      |
|    \\/     M anipulation  |                                                 |
\*---------------------------------------------------------------------------*/
FoamFile
{
    version     2.0;
    format      ascii;
    arch        "LSB;label=32;scalar=64";
    class       volScalarField;
    location    "0.465";
    object      p;
}
// * * * * * * * * * * * * * * * * * * * * * * * * * * * * * * * * * * * * * //

dimensions      [1 -1 -2 0 0 0 0];

internalField   nonuniform List<scalar> 
8000
(
373.433
373.717
374.511
375.776
377.419
379.286
381.177
382.867
384.153
384.883
324.595
324.902
325.754
327.116
328.902
330.95
333.041
334.92
336.352
337.196
275.949
276.311
277.284
278.858
280.936
283.334
285.802
288.041
289.758
290.787
227.82
228.263
229.394
231.238
233.717
236.634
239.681
242.475
244.621
245.938
180.4
180.965
182.205
184.366
187.372
190.999
194.869
198.461
201.175
202.909
133.67
134.168
135.815
138.432
142.046
146.596
151.683
156.59
160.359
162.888
88.0602
88.6732
90.2046
92.9767
97.417
103.304
110.158
117.067
122.727
126.216
46.4195
46.6531
47.1905
48.9239
52.8963
59.7434
69.5579
80.4296
89.3126
94.6336
16.9682
16.4432
15.2836
14.6423
15.9179
20.1058
30.3729
45.6814
60.4798
70.3988
-0.0425599
-0.0870864
-0.104044
-0.0991385
0.111593
0.803643
2.84243
12.2782
30.625
48.1013
-0.316088
-0.310234
-0.306281
-0.313097
-0.32192
-0.30145
-0.196513
0.197787
6.51173
28.3795
-0.384978
-0.387113
-0.38795
-0.385248
-0.387351
-0.38399
-0.382102
-0.388496
0.0354317
13.1622
-0.461843
-0.465006
-0.468077
-0.468184
-0.46626
-0.47506
-0.504646
-0.552733
-0.587093
-0.196811
-0.526826
-0.528761
-0.532613
-0.536878
-0.545841
-0.580387
-0.636207
-0.646689
-0.583891
-0.509447
-0.575538
-0.576631
-0.582037
-0.592605
-0.613992
-0.662
-0.729084
-0.716387
-0.644859
-0.609535
-0.619473
-0.621759
-0.628064
-0.640806
-0.665581
-0.709526
-0.741677
-0.707022
-0.66008
-0.664079
-0.664118
-0.666685
-0.672058
-0.682415
-0.698734
-0.729949
-0.746362
-0.713298
-0.694535
-0.706554
-0.709334
-0.710896
-0.713467
-0.718503
-0.725083
-0.740075
-0.766251
-0.766818
-0.762167
-0.75827
-0.755005
-0.755709
-0.756122
-0.757162
-0.757529
-0.756544
-0.770128
-0.79532
-0.801493
-0.789203
-0.802047
-0.801792
-0.801278
-0.800752
-0.799712
-0.796862
-0.792273
-0.802141
-0.810891
-0.811488
372.599
372.862
373.65
374.919
376.578
378.467
380.379
382.086
383.388
384.135
323.62
323.906
324.767
326.124
327.931
330.009
332.128
334.025
335.471
336.336
274.726
275.043
275.991
277.602
279.726
282.177
284.691
286.96
288.695
289.75
226.106
226.485
227.65
229.536
232.111
235.129
238.256
241.103
243.277
244.635
177.813
178.248
179.62
181.976
185.208
189.022
193.021
196.703
199.44
201.213
130.466
130.889
132.574
135.251
139.305
144.038
149.219
154.212
158.231
160.456
83.2268
84.0268
85.8946
89.1278
94.4078
100.612
107.548
114.363
120.072
122.94
40.3713
41.4415
43.1954
46.0031
50.9557
57.8763
67.0749
76.9395
85.2482
89.8295
14.0686
14.1102
14.1177
14.6265
16.3124
20.0497
28.1364
40.6646
53.3212
61.5572
0.0403999
0.0080872
-0.0074259
0.00312475
0.191288
0.942647
3.34074
10.7052
22.8049
32.4661
-0.371871
-0.363467
-0.362447
-0.378696
-0.39017
-0.371368
-0.308433
-0.195294
3.22948
7.87791
-0.42503
-0.42671
-0.429937
-0.433194
-0.430771
-0.420353
-0.416958
-0.457101
-0.577365
0.0554481
-0.481317
-0.485922
-0.491311
-0.492366
-0.482191
-0.480407
-0.50598
-0.52127
-0.547293
-0.584233
-0.535062
-0.539769
-0.548049
-0.554065
-0.55948
-0.581028
-0.620319
-0.612387
-0.592243
-0.582064
-0.580764
-0.58439
-0.592336
-0.606427
-0.636172
-0.697642
-0.74325
-0.726198
-0.673809
-0.645614
-0.621921
-0.625217
-0.633364
-0.650126
-0.690218
-0.765445
-0.816254
-0.776244
-0.719018
-0.672104
-0.663225
-0.666361
-0.672087
-0.682632
-0.705043
-0.763204
-0.823807
-0.785699
-0.748614
-0.71149
-0.707314
-0.709016
-0.711045
-0.71408
-0.714707
-0.726552
-0.770006
-0.792397
-0.795359
-0.770381
-0.752796
-0.753637
-0.753124
-0.751981
-0.743334
-0.728434
-0.733009
-0.772671
-0.797868
-0.801969
-0.800233
-0.800183
-0.798974
-0.797468
-0.792333
-0.778601
-0.769413
-0.78535
-0.801308
-0.812884
371.114
371.329
372.092
373.369
375.059
376.994
378.958
380.711
382.048
382.811
321.918
322.146
322.969
324.354
326.208
328.35
330.539
332.5
333.992
334.872
272.603
272.84
273.774
275.401
277.597
280.153
282.777
285.138
286.937
288.013
223.265
223.505
224.614
226.592
229.312
232.515
235.831
238.827
241.098
242.491
174.035
174.279
175.618
178.12
181.554
185.642
189.902
193.791
196.713
198.548
125.204
125.636
127.124
130.185
134.286
139.461
145.008
150.247
154.194
156.883
76.2313
77.3213
79.7337
83.6299
88.5714
95.0687
102.065
108.97
114.607
117.577
32.8545
33.9574
35.8092
39.0093
44.1804
51.1257
59.8319
69.47
77.3294
81.4372
6.16836
6.49263
7.13597
8.60334
10.9721
13.856
19.7666
30.3368
41.2599
47.4678
-0.313286
-0.354796
-0.318368
-0.2183
-0.135918
0.0216293
1.01445
4.53053
11.0945
13.9502
-0.418606
-0.408312
-0.400688
-0.399239
-0.381489
-0.371539
-0.370463
-0.339697
-0.185647
0.366672
-0.422762
-0.427734
-0.433635
-0.437476
-0.439412
-0.436551
-0.437922
-0.437934
-0.474912
-0.393285
-0.473629
-0.481128
-0.490342
-0.498835
-0.501763
-0.504691
-0.519832
-0.513146
-0.530486
-0.536244
-0.522074
-0.527438
-0.537212
-0.551111
-0.566627
-0.582996
-0.598785
-0.587199
-0.607175
-0.620999
-0.569061
-0.572276
-0.583386
-0.603095
-0.636829
-0.679864
-0.695425
-0.680393
-0.710365
-0.697623
-0.614314
-0.617582
-0.626235
-0.644027
-0.684861
-0.746349
-0.7797
-0.759616
-0.763337
-0.711941
-0.65769
-0.661064
-0.666209
-0.67491
-0.696202
-0.744101
-0.785842
-0.774644
-0.775935
-0.725481
-0.7026
-0.705032
-0.706288
-0.707413
-0.705082
-0.711933
-0.724149
-0.728847
-0.755671
-0.763692
-0.748682
-0.750711
-0.74958
-0.747358
-0.736493
-0.717844
-0.707987
-0.721451
-0.743405
-0.782762
-0.797517
-0.798084
-0.796244
-0.794006
-0.786842
-0.771605
-0.761201
-0.768573
-0.788752
-0.805336
369.242
369.379
370.095
371.363
373.076
375.058
377.082
378.894
380.279
381.059
319.77
319.881
320.644
322.034
323.935
326.155
328.435
330.48
332.036
332.937
269.845
269.899
270.763
272.421
274.728
277.439
280.228
282.728
284.622
285.73
219.497
219.385
220.393
222.468
225.421
228.934
232.56
235.803
238.232
239.679
168.292
168.111
169.4
172.178
176.147
180.844
185.639
189.91
193.071
194.984
116.425
116.279
117.888
121.399
126.529
132.769
139.231
145.09
149.411
152.067
62.299
63.0987
65.6959
70.7958
77.8931
86.2336
94.595
102.251
108.092
110.972
18.1907
18.7038
19.7863
24.0157
30.7229
39.5814
49.7715
60.1987
67.9433
71.0554
0.815278
0.833039
0.809198
1.75234
3.61732
6.23202
11.1251
20.092
29.2059
32.6661
-0.368706
-0.388828
-0.37204
-0.292558
-0.181271
-0.122865
-0.0715935
1.09956
3.81814
3.6225
-0.403207
-0.410544
-0.403945
-0.377074
-0.326668
-0.29993
-0.333279
-0.376621
-0.312354
-0.158752
-0.387619
-0.388696
-0.394968
-0.404356
-0.413741
-0.419934
-0.437722
-0.44967
-0.43877
-0.386815
-0.447631
-0.45474
-0.466105
-0.483635
-0.503178
-0.52313
-0.5426
-0.537603
-0.527011
-0.494494
-0.503791
-0.508511
-0.517441
-0.534523
-0.559878
-0.591404
-0.619473
-0.609217
-0.611616
-0.606779
-0.556014
-0.559482
-0.567929
-0.585049
-0.613931
-0.649889
-0.681429
-0.697076
-0.718345
-0.70219
-0.603955
-0.608001
-0.614912
-0.628923
-0.656884
-0.699775
-0.736229
-0.766422
-0.781751
-0.726871
-0.649497
-0.654197
-0.658181
-0.665973
-0.680825
-0.7148
-0.746662
-0.759721
-0.767675
-0.731439
-0.695869
-0.700068
-0.700771
-0.703067
-0.702983
-0.712786
-0.727841
-0.72774
-0.72831
-0.748189
-0.744083
-0.747369
-0.745636
-0.744729
-0.738998
-0.731978
-0.734554
-0.739069
-0.747187
-0.770391
-0.793762
-0.795847
-0.793129
-0.791475
-0.786499
-0.779285
-0.777572
-0.783148
-0.80026
-0.811151
367.234
367.279
367.935
369.159
370.871
372.888
374.967
376.839
378.274
379.077
317.497
317.432
318.111
319.46
321.395
323.688
326.063
328.199
329.829
330.759
266.926
266.635
267.385
269.042
271.477
274.365
277.347
280.015
282.026
283.183
215.25
214.635
215.541
217.738
220.936
224.83
228.848
232.409
235.042
236.573
160.929
160.246
161.821
165.012
169.652
175.205
180.786
185.604
189.06
191.1
104.18
104.419
106.537
110.811
117.237
124.965
132.786
139.558
144.322
147.049
42.0983
44.8839
47.7949
54.2677
64.1166
75.5072
86.412
95.3832
101.408
104.393
4.6263
6.65463
6.85659
9.70387
16.6453
27.3099
40.043
51.8274
59.1633
61.6025
-0.0916359
-0.0391443
-0.008152
-0.0570011
0.428283
2.54125
6.46223
14.3713
21.4659
22.6967
-0.211478
-0.233105
-0.209756
-0.208184
-0.198753
-0.147487
-0.132395
0.0533047
1.35356
1.31165
-0.28464
-0.299749
-0.293327
-0.294865
-0.306109
-0.285087
-0.29109
-0.368352
-0.3704
-0.290275
-0.337145
-0.336375
-0.339857
-0.354159
-0.374014
-0.387297
-0.407495
-0.441415
-0.443297
-0.393864
-0.418873
-0.417581
-0.425235
-0.441183
-0.461829
-0.484414
-0.51224
-0.532047
-0.527449
-0.484748
-0.485074
-0.485566
-0.493242
-0.508574
-0.529414
-0.555143
-0.581776
-0.601482
-0.59932
-0.570475
-0.542065
-0.545278
-0.551662
-0.566385
-0.58877
-0.618071
-0.644821
-0.661856
-0.669907
-0.635546
-0.592906
-0.598023
-0.602768
-0.614492
-0.633901
-0.665455
-0.694983
-0.711178
-0.716375
-0.682283
-0.639793
-0.64686
-0.649305
-0.657261
-0.667984
-0.691081
-0.715312
-0.721773
-0.718555
-0.7097
-0.6849
-0.694734
-0.694303
-0.698217
-0.700568
-0.70932
-0.724469
-0.726718
-0.723451
-0.734172
-0.734271
-0.744419
-0.740849
-0.741709
-0.739319
-0.737254
-0.745011
-0.75031
-0.756469
-0.767163
-0.789386
-0.794864
-0.789669
-0.789153
-0.786139
-0.781865
-0.783954
-0.792042
-0.803156
-0.809102
365.475
365.384
365.974
367.116
368.758
370.764
372.869
374.783
376.262
377.087
315.564
315.251
315.821
317.074
318.954
321.278
323.718
325.93
327.626
328.588
264.417
263.645
264.253
265.829
268.311
271.335
274.491
277.32
279.447
280.66
211.096
209.79
210.747
213.009
216.468
220.74
225.159
229.052
231.895
233.534
153.867
151.519
153.907
157.663
163.006
169.439
175.903
181.367
185.143
187.374
88.816
89.8074
94.2593
99.8128
107.668
117.064
126.4
134.251
139.54
142.46
10.8282
21.7484
30.6659
38.3688
49.8651
64.3602
78.201
88.9131
95.2818
98.6828
1.61289
1.07717
1.82357
3.48689
7.50707
17.1059
31.5179
45.009
52.3987
54.8914
0.0983632
-0.101112
-0.0545926
0.0291041
0.0310552
0.486566
3.82967
11.5702
17.8721
18.6592
-0.0545788
-0.127637
-0.12723
-0.112825
-0.151983
-0.18886
-0.168186
-0.113782
0.478936
0.554275
-0.172216
-0.209018
-0.214827
-0.229305
-0.260069
-0.30351
-0.311281
-0.36318
-0.377865
-0.315188
-0.304608
-0.302185
-0.30166
-0.315853
-0.336557
-0.36137
-0.387724
-0.424837
-0.441761
-0.397486
-0.408308
-0.395929
-0.394923
-0.407178
-0.426028
-0.448472
-0.474753
-0.503485
-0.522303
-0.483934
-0.482621
-0.472357
-0.472581
-0.483291
-0.499349
-0.518185
-0.540054
-0.564211
-0.583261
-0.551187
-0.538093
-0.535458
-0.536822
-0.546505
-0.561249
-0.579401
-0.598478
-0.617011
-0.626589
-0.602609
-0.585773
-0.590632
-0.591592
-0.599864
-0.611947
-0.629797
-0.647558
-0.661647
-0.663129
-0.64812
-0.631128
-0.641944
-0.640654
-0.646752
-0.654552
-0.667818
-0.682392
-0.690584
-0.692552
-0.689731
-0.676296
-0.692229
-0.687455
-0.691197
-0.694607
-0.700422
-0.711178
-0.717618
-0.721434
-0.726267
-0.735734
-0.745028
-0.735885
-0.737189
-0.737574
-0.738109
-0.744286
-0.752496
-0.758096
-0.763235
-0.798408
-0.796316
-0.786237
-0.785754
-0.78516
-0.785238
-0.787133
-0.795766
-0.801866
-0.804816
364.21
363.982
364.546
365.552
367.043
368.948
371.024
372.945
374.45
375.29
314.194
313.667
314.231
315.262
316.982
319.224
321.668
323.917
325.657
326.643
262.51
261.384
262.034
263.315
265.654
268.745
271.995
274.937
277.15
278.414
209.339
206.587
206.977
209.052
212.584
217.181
221.923
226.096
229.122
230.867
153.927
148.209
147.342
150.931
157.054
164.281
171.543
177.641
181.708
184.158
77.3375
73.5449
80.4504
88.3705
98.6045
109.893
120.741
129.715
135.346
138.643
13.0822
6.09438
13.4892
25.8506
38.0885
54.4422
70.886
83.4263
90.1492
93.9485
1.6048
0.508365
0.466255
1.68264
3.72118
10.4131
24.8602
39.6399
47.4849
50.9346
-0.0316825
-0.186915
-0.0192321
0.081197
0.0127484
-0.062355
1.8694
8.95867
16.2068
17.536
-0.152936
-0.136087
-0.106352
-0.0952269
-0.123304
-0.19669
-0.259385
-0.195705
0.227932
0.216406
-0.199019
-0.183157
-0.192988
-0.208681
-0.239116
-0.293443
-0.349585
-0.375449
-0.368635
-0.312967
-0.302919
-0.284125
-0.28771
-0.297049
-0.319324
-0.345187
-0.382739
-0.416525
-0.43271
-0.392839
-0.414746
-0.377677
-0.379214
-0.387072
-0.405117
-0.428637
-0.458398
-0.483051
-0.500618
-0.474775
-0.48982
-0.458346
-0.459553
-0.465075
-0.479502
-0.499848
-0.523248
-0.540139
-0.56678
-0.543609
-0.540075
-0.526973
-0.526031
-0.53068
-0.54215
-0.558796
-0.579315
-0.595532
-0.610178
-0.590604
-0.598279
-0.587813
-0.583184
-0.58662
-0.595608
-0.609087
-0.62548
-0.640027
-0.645557
-0.63461
-0.635193
-0.63937
-0.633106
-0.635987
-0.642772
-0.652412
-0.664247
-0.674636
-0.679333
-0.676271
-0.683722
-0.685954
-0.679559
-0.682352
-0.687467
-0.693753
-0.702184
-0.709841
-0.715123
-0.71725
-0.761628
-0.738292
-0.729528
-0.729848
-0.733343
-0.737449
-0.743283
-0.75002
-0.754675
-0.758119
-0.826248
-0.790105
-0.78232
-0.779697
-0.78189
-0.784777
-0.788779
-0.794615
-0.798757
-0.801323
363.257
363.161
363.916
364.687
365.935
367.652
369.615
371.497
372.998
373.845
313.076
312.683
313.639
314.315
315.755
317.786
320.121
322.348
324.1
325.091
261.524
260.042
261.258
261.976
264.009
266.913
270.126
273.092
275.338
276.637
209.977
205.349
205.332
206.463
209.943
214.641
219.507
223.821
226.971
228.784
152.792
146.916
141.889
144.68
151.928
160.239
168.169
174.756
179.045
181.687
74.4668
66.2744
58.0541
73.1755
89.2667
103.803
116.242
126.254
132.095
135.692
13.3148
5.33923
2.67838
12.5322
28.3333
46.8031
65.1467
79.4839
86.098
90.7025
1.80724
-0.0326559
0.1215
0.405188
2.18924
7.21589
20.011
36.1482
44.2671
48.6701
-0.0141754
-0.232949
-0.0799555
-0.0446023
-0.0322528
-0.0376884
0.906631
7.25054
15.3105
17.7731
-0.119739
-0.110184
-0.0914681
-0.0989392
-0.140424
-0.187475
-0.297888
-0.284941
0.228935
0.224869
-0.137182
-0.161143
-0.170295
-0.201672
-0.245724
-0.293872
-0.372505
-0.383101
-0.358408
-0.310136
-0.27236
-0.266823
-0.274125
-0.292673
-0.320013
-0.346543
-0.382567
-0.415005
-0.422174
-0.383496
-0.416233
-0.37445
-0.372454
-0.378425
-0.398375
-0.422517
-0.452741
-0.47366
-0.48269
-0.460426
-0.488137
-0.476599
-0.457583
-0.456027
-0.46993
-0.489628
-0.513908
-0.527968
-0.54615
-0.534505
-0.439269
-0.534484
-0.523765
-0.521619
-0.531503
-0.548009
-0.568262
-0.581176
-0.597283
-0.584084
-0.491819
-0.58522
-0.579938
-0.577311
-0.585016
-0.597726
-0.613209
-0.625981
-0.634451
-0.62456
-0.646318
-0.624813
-0.626547
-0.62589
-0.633177
-0.642665
-0.653494
-0.662938
-0.66859
-0.66651
-0.641913
-0.656615
-0.667682
-0.670883
-0.679212
-0.687159
-0.695257
-0.702698
-0.708152
-0.709704
-0.746374
-0.705801
-0.714746
-0.71741
-0.726391
-0.733126
-0.739753
-0.745841
-0.750514
-0.753072
-0.850705
-0.764471
-0.77371
-0.769302
-0.776512
-0.781378
-0.786649
-0.791647
-0.795411
-0.797806
362.382
362.634
363.816
364.593
365.487
366.93
368.729
370.532
372.007
372.847
311.202
311.898
313.971
314.505
315.467
317.066
319.176
321.31
323.035
324.028
257.807
258.525
262.399
262.541
263.758
266.103
269.037
271.904
274.138
275.434
201.431
201.824
206.527
207.285
209.192
213.492
218.152
222.387
225.554
227.399
135.111
138.665
136.582
138.94
148.071
157.628
166.107
172.905
177.397
180.109
65.0243
60.3317
45.9812
50.0282
78.4925
99.023
113.089
123.763
130.228
133.779
35.2282
6.09725
3.32504
3.19981
18.3592
41.1917
61.2853
76.3895
83.7533
88.7498
26.8119
0.354122
-0.030062
0.325927
0.833042
5.87207
17.8336
34.0257
42.2916
47.5131
2.08482
-0.221632
-0.207965
-0.0688491
-0.0765052
-0.0323146
0.568652
6.0435
14.9703
18.4244
0.102754
-0.178306
-0.125684
-0.109986
-0.118119
-0.190923
-0.285981
-0.339092
0.285077
0.308354
-0.0206041
-0.162208
-0.179206
-0.217417
-0.276442
-0.313871
-0.388892
-0.394978
-0.363105
-0.318808
0.101586
-0.27447
-0.280727
-0.300764
-0.33975
-0.365036
-0.394402
-0.419231
-0.420586
-0.382636
1.81277
-0.34743
-0.364831
-0.374728
-0.403179
-0.426501
-0.452547
-0.471624
-0.475918
-0.454149
2.78153
-0.411825
-0.44042
-0.447103
-0.466804
-0.486057
-0.509806
-0.522921
-0.535252
-0.525776
0.134846
-0.474554
-0.503868
-0.51009
-0.524808
-0.541836
-0.560946
-0.571757
-0.585241
-0.578141
-0.593514
-0.549013
-0.561642
-0.564416
-0.576531
-0.590317
-0.605111
-0.615868
-0.624485
-0.618103
-0.681804
-0.612148
-0.609362
-0.611817
-0.623758
-0.634868
-0.64621
-0.655254
-0.661115
-0.659744
-0.0484437
-0.641275
-0.650488
-0.654668
-0.669365
-0.679734
-0.689085
-0.696702
-0.702125
-0.70408
0.754977
-0.65264
-0.68898
-0.698906
-0.716712
-0.726351
-0.735042
-0.741585
-0.746609
-0.749244
0.277462
-0.692444
-0.748363
-0.752478
-0.768058
-0.775038
-0.783013
-0.788645
-0.792602
-0.795041
362.862
363.592
365.216
365.593
365.772
366.774
368.364
370.077
371.515
372.343
312.61
312.263
316.2
316.066
316.112
317.009
318.813
320.826
322.508
323.493
260.546
257.964
266.849
265.698
264.904
266.11
268.679
271.373
273.556
274.835
204.179
196.11
211.982
213.575
210.77
213.641
217.77
221.772
224.879
226.727
138.954
127.947
136.501
139.011
146.02
156.34
165.259
172.082
176.58
179.44
78.576
62.5053
52.5366
39.431
68.1049
95.5442
111.329
122.561
129.432
132.754
70.033
23.278
6.07265
7.61883
10.2601
38.3408
59.41
74.7445
82.4836
87.7986
85.3902
5.63128
0.0927703
0.814825
0.906043
5.73618
17.6891
33.0587
41.1214
46.9289
41.7505
0.553336
-0.20026
0.0808515
0.179242
0.0369661
0.559734
5.37709
14.7093
18.6969
2.098
-0.218877
-0.22553
-0.0638208
-0.00227308
-0.15051
-0.221567
-0.244027
0.319408
0.364701
-0.0776903
-0.213838
-0.229722
-0.23634
-0.231806
-0.295118
-0.386132
-0.409723
-0.38227
-0.335208
0.457554
-0.24364
-0.292603
-0.312264
-0.345573
-0.377396
-0.420129
-0.436572
-0.432641
-0.392403
3.46177
-0.323556
-0.370785
-0.3823
-0.412937
-0.444451
-0.471225
-0.481319
-0.48117
-0.458793
2.82826
-0.390133
-0.445095
-0.449181
-0.470672
-0.492754
-0.516335
-0.524929
-0.535549
-0.525244
1.128
-0.445181
-0.505971
-0.507661
-0.525034
-0.542449
-0.559836
-0.569294
-0.581223
-0.575964
-0.547101
-0.506175
-0.556428
-0.558066
-0.573479
-0.58796
-0.602318
-0.612575
-0.620707
-0.615726
-0.289727
-0.60515
-0.595633
-0.601917
-0.617972
-0.631133
-0.642959
-0.652045
-0.657718
-0.656911
2.87216
-0.633575
-0.62131
-0.638834
-0.661871
-0.67569
-0.68609
-0.693987
-0.699343
-0.701394
5.31881
-0.61185
-0.651891
-0.679487
-0.709445
-0.723045
-0.732667
-0.739519
-0.744563
-0.747141
4.11097
-0.633746
-0.737801
-0.746905
-0.763429
-0.772733
-0.781403
-0.787111
-0.791134
-0.793524
363.177
362.72
364.402
365.165
365.529
366.654
368.303
370.033
371.488
372.327
313.038
311.814
315.044
315.569
315.829
316.855
318.731
320.778
322.479
323.474
260.608
258.393
265.669
264.814
264.588
265.994
268.542
271.313
273.526
274.813
204.374
197.621
212.802
213.01
210.543
213.544
217.759
221.738
224.848
226.691
139.252
129.024
140.864
143.458
147.471
156.584
165.274
172.068
176.542
179.337
78.635
65.4317
55.2315
45.8819
70.4973
96.1583
111.41
122.553
129.397
132.831
84.6495
31.6841
7.03749
8.10774
10.542
38.7751
59.3274
74.728
82.5801
87.8456
100.255
9.53411
0.517821
0.937457
1.13365
6.04078
17.6975
33.1276
41.1148
46.9048
53.8235
0.923613
-0.0413412
0.146931
0.356755
0.139812
0.703101
5.48846
14.612
18.6704
22.8112
0.00192451
-0.176114
-0.0202845
0.091064
-0.173208
-0.205648
-0.0836212
0.308428
0.348403
10.8987
-0.116453
-0.193088
-0.201111
-0.19596
-0.319377
-0.39782
-0.421767
-0.397563
-0.344622
2.20768
-0.138855
-0.222176
-0.281708
-0.323186
-0.389859
-0.440791
-0.443105
-0.439037
-0.398899
-0.210143
-0.234107
-0.316577
-0.371346
-0.40712
-0.451528
-0.481606
-0.487574
-0.484815
-0.463434
-0.509386
-0.146734
-0.465156
-0.460944
-0.468316
-0.493422
-0.520406
-0.529186
-0.538601
-0.528888
-0.471774
-0.406048
-0.555008
-0.525197
-0.525354
-0.542638
-0.560518
-0.569754
-0.582306
-0.577547
-0.343725
-0.542956
-0.583629
-0.562081
-0.57384
-0.58683
-0.600824
-0.611297
-0.620745
-0.616334
3.24659
-0.502311
-0.56998
-0.588554
-0.613642
-0.628283
-0.641284
-0.650919
-0.657349
-0.6571
2.67084
-0.404907
-0.558137
-0.608242
-0.651813
-0.670707
-0.684285
-0.693111
-0.698875
-0.701046
1.5003
-0.192514
-0.637766
-0.67176
-0.699698
-0.71821
-0.730806
-0.738785
-0.74428
-0.746838
1.60314
0.228398
-0.802409
-0.774181
-0.763129
-0.771076
-0.779944
-0.786385
-0.790867
-0.793277
363.068
363.246
363.963
364.586
365.412
366.858
368.672
370.488
371.974
372.823
312.15
312.421
313.902
314.369
315.304
316.936
319.087
321.249
322.993
323.997
258.985
259.573
262.384
262.289
263.511
265.903
268.898
271.822
274.085
275.397
200.957
204.489
208.566
207.424
208.898
213.273
218.018
222.295
225.483
227.349
131.812
140.014
141.044
140.51
148.013
157.341
165.919
172.784
177.29
180.069
68.417
57.1622
42.156
46.0136
76.4868
98.3048
112.759
123.596
130.224
133.737
39.6114
4.80995
4.16823
3.83868
17.5364
40.9469
61.0809
76.2151
83.8453
88.7827
15.7835
0.0501481
0.137488
0.468262
1.09362
6.44062
18.2776
34.0574
42.2342
47.381
1.23809
-0.286838
-0.195609
-0.057449
0.00437129
0.0267979
0.624603
6.06179
14.8525
18.2703
0.17992
-0.164006
-0.126612
-0.106738
-0.108092
-0.20949
-0.294904
-0.313702
0.267566
0.264307
1.32685
-0.130284
-0.164563
-0.204965
-0.303504
-0.350692
-0.417937
-0.419598
-0.387637
-0.340291
3.52196
-0.217409
-0.255157
-0.288767
-0.344332
-0.386842
-0.420485
-0.441515
-0.441081
-0.402797
0.468303
-0.326185
-0.352919
-0.373232
-0.407593
-0.441372
-0.473549
-0.489798
-0.49319
-0.472435
-0.520218
-0.445043
-0.450668
-0.453427
-0.471579
-0.494309
-0.522012
-0.535536
-0.549171
-0.538022
-0.538881
-0.507776
-0.518644
-0.516805
-0.528713
-0.545584
-0.564983
-0.577275
-0.590313
-0.582401
-0.569884
-0.561077
-0.562567
-0.567167
-0.576811
-0.590272
-0.604158
-0.615659
-0.625591
-0.620175
-0.534747
-0.599693
-0.594159
-0.606937
-0.620628
-0.632717
-0.643622
-0.652937
-0.660465
-0.66053
-0.559179
-0.666467
-0.627995
-0.646557
-0.664549
-0.676949
-0.686915
-0.695004
-0.701229
-0.703477
-0.684991
-0.762254
-0.697441
-0.702725
-0.715753
-0.725611
-0.733995
-0.740684
-0.745682
-0.748298
-0.740153
-0.82423
-0.815087
-0.774956
-0.774401
-0.777473
-0.783298
-0.788439
-0.792303
-0.794559
364.555
363.955
364.241
364.783
365.917
367.598
369.561
371.454
372.969
373.823
314.78
313.736
313.985
314.393
315.683
317.684
320.03
322.283
324.057
325.061
264.852
262.035
261.686
261.984
263.835
266.726
269.952
272.999
275.282
276.598
215.058
208.877
206.207
206.321
209.549
214.362
219.354
223.701
226.897
228.732
152.203
144.74
140.779
143.877
151.212
159.726
167.855
174.549
178.955
181.642
64.357
43.9189
45.9383
68.9974
87.2854
102.769
115.705
125.869
132.099
135.629
7.88905
2.93542
2.57278
11.2222
27.4054
45.9645
64.5549
79
86.2659
90.7031
-0.0163929
-0.0539203
0.147911
0.303469
1.59125
6.80956
19.3134
35.915
44.2035
48.4509
-0.138756
-0.180814
-0.0828811
-0.0754363
-0.0511156
-0.0414757
0.848785
7.09407
15.1709
17.4508
0.0156874
-0.0670874
-0.0823276
-0.0996018
-0.143184
-0.202007
-0.320461
-0.303872
0.211428
0.160336
-0.04353
-0.137267
-0.160475
-0.202528
-0.261593
-0.316387
-0.402996
-0.413489
-0.386292
-0.338482
-0.42448
-0.288
-0.272993
-0.299342
-0.332841
-0.368888
-0.409271
-0.443463
-0.449571
-0.412118
-0.58625
-0.408283
-0.378004
-0.388195
-0.409461
-0.440649
-0.472786
-0.498236
-0.511567
-0.487503
-0.544665
-0.477659
-0.461545
-0.463966
-0.478147
-0.502168
-0.528354
-0.546131
-0.564905
-0.546917
-0.565076
-0.528957
-0.525073
-0.525454
-0.535668
-0.553874
-0.575201
-0.590739
-0.600306
-0.587496
-0.58848
-0.57304
-0.574487
-0.575342
-0.583256
-0.595761
-0.611302
-0.625602
-0.632475
-0.626166
-0.613925
-0.618094
-0.616299
-0.619842
-0.627451
-0.636651
-0.64732
-0.657855
-0.665981
-0.665973
-0.651437
-0.673833
-0.662521
-0.666188
-0.673572
-0.68112
-0.689344
-0.697683
-0.704651
-0.707264
-0.716741
-0.74421
-0.723761
-0.720887
-0.724525
-0.729905
-0.736299
-0.742809
-0.748055
-0.750952
-0.772165
-0.800795
-0.791614
-0.780159
-0.778943
-0.7813
-0.785878
-0.790674
-0.794547
-0.796859
365.524
364.864
364.983
365.728
367.084
368.934
370.996
372.923
374.437
375.285
315.713
314.602
314.621
315.384
316.969
319.168
321.611
323.876
325.633
326.629
264.656
262.501
262.303
263.296
265.534
268.605
271.881
274.866
277.111
278.393
213.739
208.019
206.855
208.647
212.265
216.906
221.74
225.98
229.059
230.828
155.398
145.55
145.351
149.593
156.122
163.724
171.199
177.433
181.616
184.108
58.087
53.5939
71.2312
84.517
96.7696
108.961
120.238
129.424
135.253
138.536
10.0464
3.59272
12.1106
23.9313
37.1355
53.5985
70.3379
83.2781
89.9073
93.8353
0.719787
0.311455
0.56067
1.46203
3.46343
9.81807
24.0287
39.3616
47.4156
50.7177
-0.157795
-0.104784
-0.00329883
0.0736803
0.0383218
-0.0431133
1.54392
8.75084
16.1198
17.1935
-0.0215502
-0.0996713
-0.0981199
-0.0990847
-0.118366
-0.192839
-0.290423
-0.202737
0.208398
0.148526
-0.166325
-0.170098
-0.195838
-0.213174
-0.24745
-0.305204
-0.383504
-0.410692
-0.401156
-0.346678
-0.351238
-0.293032
-0.296929
-0.308779
-0.334146
-0.369316
-0.414186
-0.455733
-0.462525
-0.424923
-0.454332
-0.396842
-0.389586
-0.398713
-0.418655
-0.449974
-0.486422
-0.520017
-0.532696
-0.498395
-0.51305
-0.474985
-0.467783
-0.474457
-0.48965
-0.515579
-0.543187
-0.568373
-0.578141
-0.552534
-0.554967
-0.534467
-0.529977
-0.534367
-0.545218
-0.565027
-0.587927
-0.606605
-0.607288
-0.594117
-0.588759
-0.582114
-0.580633
-0.583357
-0.589562
-0.601147
-0.616825
-0.631861
-0.637806
-0.633178
-0.624497
-0.626352
-0.626677
-0.628669
-0.632295
-0.638255
-0.647904
-0.66087
-0.671017
-0.671763
-0.672129
-0.674065
-0.673621
-0.67558
-0.678334
-0.682235
-0.688759
-0.698705
-0.707573
-0.7112
-0.72646
-0.732824
-0.725428
-0.726256
-0.728547
-0.731686
-0.73675
-0.744127
-0.750703
-0.754169
-0.776845
-0.7872
-0.781661
-0.780486
-0.781361
-0.783689
-0.787669
-0.79295
-0.797521
-0.800058
366.401
366.033
366.344
367.296
368.829
370.785
372.875
374.792
376.28
377.111
316.61
315.918
316.142
317.195
318.975
321.263
323.7
325.924
327.634
328.606
265.524
264.269
264.419
265.803
268.221
271.243
274.426
277.289
279.443
280.674
212.31
210.188
210.489
212.642
216.163
220.525
225.027
228.982
231.871
233.534
153.395
151.23
152.759
156.681
162.339
169.01
175.641
181.233
185.092
187.371
78.2551
82.2111
89.854
97.4928
106.528
116.444
126.077
134.118
139.437
142.412
12.4199
20.0051
28.8204
37.4945
49.2449
63.8018
77.8653
88.9352
94.9928
98.5282
1.12653
1.48794
2.02374
3.4678
7.26261
16.5164
30.9233
44.8221
52.4303
54.7967
-0.0542223
-0.134388
-0.0688001
-0.0108794
0.00538248
0.353345
3.60273
11.4169
17.8534
18.4303
-0.146578
-0.161305
-0.153285
-0.140052
-0.164072
-0.199259
-0.184864
-0.119108
0.458636
0.492313
-0.20472
-0.230368
-0.240322
-0.249193
-0.274456
-0.319288
-0.339288
-0.398106
-0.410816
-0.351021
-0.32141
-0.319449
-0.320902
-0.333677
-0.35769
-0.396321
-0.439479
-0.470158
-0.465424
-0.427099
-0.427048
-0.410124
-0.407967
-0.421445
-0.447477
-0.488234
-0.53414
-0.55235
-0.537119
-0.501875
-0.495427
-0.483463
-0.480344
-0.494664
-0.51586
-0.554924
-0.593659
-0.615398
-0.60357
-0.564653
-0.547067
-0.542076
-0.53961
-0.54845
-0.565099
-0.593664
-0.621014
-0.64062
-0.636533
-0.614745
-0.590694
-0.592377
-0.588842
-0.591852
-0.597765
-0.609737
-0.624037
-0.638498
-0.647004
-0.643816
-0.636987
-0.63948
-0.635455
-0.634623
-0.633593
-0.6344
-0.640368
-0.653413
-0.673166
-0.677611
-0.688321
-0.687045
-0.683206
-0.681013
-0.678708
-0.676791
-0.679652
-0.69448
-0.708486
-0.714775
-0.737862
-0.737116
-0.733275
-0.731321
-0.729919
-0.72932
-0.731958
-0.742751
-0.753471
-0.75784
-0.783594
-0.787007
-0.785022
-0.783913
-0.783478
-0.784354
-0.787632
-0.794937
-0.801897
-0.804088
367.855
367.737
368.225
369.326
370.963
372.943
375.012
376.887
378.33
379.139
318.069
317.847
318.347
319.581
321.449
323.717
326.092
328.239
329.881
330.821
267.31
266.935
267.489
269.071
271.446
274.337
277.344
280.04
282.075
283.249
215.699
214.737
215.37
217.481
220.758
224.726
228.805
232.414
235.086
236.642
160.152
159.662
161.121
164.442
169.275
174.968
180.668
185.579
189.099
191.207
100.637
101.624
104.626
109.801
116.725
124.713
132.689
139.549
144.296
147.255
40.9578
43.0503
47.2551
54.2005
64.0101
75.362
86.3231
95.3914
101.427
104.479
6.08199
6.94758
7.35154
10.0946
16.6931
27.0989
39.8106
51.79
59.3101
61.7027
-0.107552
-0.12707
-0.112984
-0.111604
0.424628
2.42546
6.36501
14.2929
21.5906
22.7087
-0.272961
-0.273343
-0.238196
-0.226949
-0.20567
-0.16066
-0.128245
0.0424111
1.36267
1.27632
-0.317723
-0.320877
-0.31514
-0.312853
-0.322184
-0.310209
-0.321491
-0.400682
-0.390994
-0.315561
-0.351385
-0.355471
-0.356158
-0.370171
-0.400117
-0.436928
-0.469836
-0.476852
-0.457159
-0.420984
-0.433849
-0.433151
-0.436451
-0.456133
-0.49846
-0.556739
-0.601795
-0.576546
-0.546031
-0.513139
-0.499029
-0.498486
-0.501517
-0.522888
-0.566523
-0.629559
-0.675006
-0.680132
-0.650071
-0.588489
-0.553442
-0.553785
-0.555584
-0.569391
-0.601618
-0.64796
-0.685663
-0.70937
-0.69755
-0.64769
-0.599778
-0.600444
-0.598715
-0.600607
-0.606572
-0.616812
-0.637559
-0.661737
-0.672198
-0.668276
-0.645392
-0.645353
-0.64172
-0.637503
-0.628497
-0.620978
-0.625541
-0.641135
-0.673863
-0.686905
-0.693627
-0.692261
-0.688217
-0.683164
-0.674343
-0.664236
-0.6651
-0.682909
-0.709196
-0.719534
-0.744032
-0.74121
-0.737781
-0.734024
-0.728924
-0.723494
-0.723368
-0.738714
-0.755696
-0.762748
-0.79147
-0.790451
-0.788618
-0.786819
-0.784867
-0.78423
-0.785686
-0.796018
-0.808099
-0.811229
369.624
369.7
370.325
371.522
373.188
375.149
377.168
378.985
380.376
381.163
320.124
320.158
320.826
322.155
324.021
326.23
328.514
330.569
332.137
333.048
270.047
270.066
270.823
272.465
274.762
277.484
280.296
282.819