/*--------------------------------*- C++ -*----------------------------------*\
| =========                 |                                                 |
| \\      /  F ield         | OpenFOAM: The Open Source CFD Toolbox           |
|  \\    /   O peration     | Version:  2312                                  |
|   \\  /    A nd           | Website:  www.openfoam.com                      |
|    \\/     M anipulation  |                                                 |
\*---------------------------------------------------------------------------*/
FoamFile
{
    version     2.0;
    format      ascii;
    arch        "LSB;label=32;scalar=64";
    class       volScalarField;
    location    "0.325";
    object      p;
}
// * * * * * * * * * * * * * * * * * * * * * * * * * * * * * * * * * * * * * //

dimensions      [1 -1 -2 0 0 0 0];

internalField   nonuniform List<scalar> 
8000
(
350.465
350.501
350.587
350.754
351.06
351.464
351.925
352.381
352.737
352.85
300.457
300.528
300.673
300.905
301.388
301.957
302.586
303.206
303.694
303.858
249.441
249.587
249.854
250.323
251.01
251.911
252.916
253.913
254.722
255.007
196.915
197.187
197.636
198.372
199.586
201.122
202.81
204.515
205.985
206.52
141.278
141.97
143.161
144.46
146.754
149.238
151.886
154.658
157.348
158.684
85.8685
87.3608
89.0732
90.679
92.4154
95.5972
99.558
103.674
108.186
111.696
21.5521
22.381
25.394
29.1739
34.1552
40.1252
46.7106
53.6615
61.0743
67.6812
1.23587
1.29584
1.64526
2.30842
3.592
5.94587
9.75925
14.6513
23.3678
32.149
-0.170767
-0.211128
-0.25794
-0.3033
-0.347981
-0.386982
-0.40913
-0.273234
0.395825
7.81602
-0.365295
-0.373479
-0.392274
-0.418163
-0.447735
-0.476679
-0.504983
-0.526101
-0.558749
-0.0378455
-0.488114
-0.493036
-0.503477
-0.516293
-0.530303
-0.541181
-0.543747
-0.543737
-0.497527
-0.491377
-0.57203
-0.577487
-0.585126
-0.592095
-0.597154
-0.596224
-0.582003
-0.561415
-0.519454
-0.500462
-0.640099
-0.643984
-0.647658
-0.650938
-0.653929
-0.649799
-0.637564
-0.614891
-0.580133
-0.544577
-0.700591
-0.70074
-0.700731
-0.700354
-0.701428
-0.701378
-0.698761
-0.68608
-0.654848
-0.624162
-0.755345
-0.754513
-0.753366
-0.752002
-0.753279
-0.755238
-0.761362
-0.759701
-0.738131
-0.711511
-0.807447
-0.807145
-0.806139
-0.807293
-0.811787
-0.821198
-0.835497
-0.834272
-0.814605
-0.790872
-0.859009
-0.859212
-0.859262
-0.86182
-0.867845
-0.880658
-0.907467
-0.901095
-0.878538
-0.856143
-0.911595
-0.911849
-0.912534
-0.914511
-0.918346
-0.928567
-0.942503
-0.937767
-0.918683
-0.904054
-0.964457
-0.964498
-0.964701
-0.965208
-0.966357
-0.969851
-0.971645
-0.961367
-0.9473
-0.945155
-1.01677
-1.01651
-1.0162
-1.01571
-1.01494
-1.01364
-1.00901
-0.999026
-0.990244
-0.994288
351.537
351.508
351.493
351.536
351.673
351.896
352.18
352.479
352.714
352.737
301.588
301.616
301.681
301.827
302.094
302.455
302.877
303.307
303.643
303.695
250.904
250.999
251.112
251.411
251.904
252.557
253.292
254.025
254.608
254.725
199.291
199.325
199.202
199.82
200.814
202.031
203.347
204.656
205.753
205.996
143.802
144.172
144.673
146.53
148.529
150.589
152.711
154.852
156.823
157.395
88.6989
89.3961
92.5833
93.4184
94.7659
97.3343
100.468
103.571
106.686
108.261
26.7008
26.0577
26.5793
30.7313
35.5142
40.8949
46.1023
50.9421
55.7356
60.8154
2.0387
1.87088
1.96067
2.6069
3.85127
5.87255
8.69677
11.4164
14.4158
22.9253
-0.270243
-0.284557
-0.302631
-0.322972
-0.363614
-0.404501
-0.42934
-0.42327
-0.27341
0.463651
-0.426497
-0.427798
-0.439231
-0.451318
-0.470858
-0.490363
-0.503756
-0.511745
-0.55194
-0.581759
-0.523686
-0.529549
-0.542111
-0.553447
-0.564696
-0.565845
-0.555769
-0.542216
-0.535425
-0.5316
-0.592885
-0.600059
-0.611387
-0.621297
-0.631055
-0.625343
-0.604035
-0.577205
-0.546701
-0.518123
-0.655475
-0.659159
-0.662653
-0.665809
-0.673979
-0.677557
-0.663277
-0.635972
-0.604826
-0.570264
-0.712667
-0.712164
-0.710611
-0.708617
-0.71234
-0.720206
-0.723948
-0.705475
-0.682295
-0.65478
-0.764367
-0.764912
-0.762579
-0.759365
-0.760749
-0.765636
-0.77578
-0.770013
-0.756674
-0.741482
-0.814121
-0.813667
-0.812086
-0.812084
-0.817404
-0.830916
-0.842509
-0.840935
-0.827155
-0.819078
-0.86219
-0.862315
-0.862497
-0.86502
-0.872235
-0.888931
-0.911513
-0.906146
-0.898838
-0.887372
-0.91334
-0.913636
-0.914409
-0.916107
-0.921306
-0.935898
-0.9549
-0.950479
-0.944896
-0.929682
-0.965541
-0.965547
-0.965606
-0.965815
-0.96705
-0.971965
-0.977284
-0.96899
-0.962511
-0.954876
-1.0173
-1.01705
-1.01663
-1.01589
-1.0146
-1.01193
-1.00624
-0.99573
-0.991533
-0.995378
353.114
353.002
352.83
352.654
352.521
352.448
352.431
352.454
352.476
352.377
303.459
303.373
303.249
303.145
303.092
303.098
303.156
303.244
303.307
303.206
253.381
253.295
253.18
253.16
253.238
253.407
253.631
253.867
254.031
253.921
202.596
202.494
202.265
202.432
202.798
203.279
203.807
204.314
204.681
204.544
149.951
149.802
149.617
150.602
151.561
152.52
153.48
154.336
154.959
154.763
97.3026
97.1998
97.9457
98.5689
99.3285
100.647
101.971
102.989
103.788
103.839
42.1478
40.983
40.131
42.1105
44.4787
46.797
48.4718
49.5671
50.9423
53.2911
6.14694
5.31768
5.03105
6.1488
7.59258
9.06014
10.5488
11.8935
11.9609
14.4874
-0.295523
-0.330646
-0.368857
-0.378205
-0.395758
-0.406391
-0.404069
-0.396554
-0.400979
-0.247474
-0.458071
-0.455269
-0.46393
-0.475564
-0.492373
-0.497194
-0.489551
-0.487094
-0.493242
-0.491987
-0.555652
-0.557301
-0.563258
-0.572391
-0.583642
-0.585155
-0.569368
-0.551065
-0.535438
-0.520566
-0.606363
-0.611043
-0.622004
-0.634474
-0.647696
-0.64809
-0.627434
-0.602506
-0.575626
-0.548308
-0.662933
-0.665335
-0.670866
-0.677688
-0.687651
-0.692753
-0.681068
-0.661712
-0.639676
-0.6082
-0.714045
-0.715681
-0.716693
-0.718197
-0.724069
-0.730364
-0.729296
-0.718197
-0.712322
-0.685826
-0.764396
-0.765769
-0.766073
-0.766389
-0.770846
-0.776242
-0.776889
-0.772511
-0.780425
-0.764558
-0.814301
-0.815363
-0.815867
-0.817279
-0.823267
-0.835602
-0.837367
-0.837848
-0.845502
-0.836997
-0.864776
-0.865362
-0.866152
-0.868363
-0.874913
-0.888874
-0.899334
-0.903098
-0.913989
-0.910339
-0.915913
-0.916239
-0.916764
-0.9181
-0.922641
-0.933834
-0.946552
-0.952621
-0.960398
-0.953557
-0.96709
-0.967126
-0.967064
-0.96712
-0.967902
-0.970355
-0.972741
-0.972568
-0.978836
-0.973624
-1.01809
-1.01797
-1.01754
-1.01681
-1.01552
-1.01262
-1.00635
-0.998673
-1.00204
-1.0067
355.274
355.045
354.66
354.167
353.66
353.182
352.762
352.423
352.17
351.913
305.978
305.748
305.352
304.889
304.402
303.931
303.506
303.151
302.871
302.578
256.601
256.347
255.916
255.432
254.938
254.464
254.024
253.634
253.297
252.918
206.979
206.65
206.143
205.66
205.208
204.754
204.289
203.827
203.381
202.839
156.922
156.446
155.869
155.513
155.141
154.69
154.178
153.556
152.853
152.002
106.789
106.092
105.381
104.849
104.51
104.118
103.433
102.182
100.754
99.7384
56.3172
54.6869
53.0286
52.8419
53.4006
53.0936
51.4692
48.8124
46.2118
46.5079
15.5406
13.405
11.3125
10.6961
12.135
12.4075
11.8581
10.8469
8.95209
9.69171
0.264939
0.0788807
-0.174832
-0.359305
-0.431812
-0.399295
-0.393278
-0.392609
-0.400765
-0.365403
-0.535577
-0.510455
-0.486686
-0.473581
-0.491904
-0.492378
-0.481535
-0.475132
-0.470895
-0.45561
-0.576343
-0.576373
-0.572089
-0.567439
-0.574741
-0.582406
-0.576495
-0.563078
-0.537642
-0.512286
-0.621195
-0.620432
-0.620845
-0.623076
-0.630416
-0.637592
-0.633647
-0.623055
-0.603166
-0.568816
-0.672344
-0.67172
-0.671753
-0.673375
-0.678919
-0.685557
-0.687016
-0.683226
-0.673972
-0.638744
-0.721016
-0.720835
-0.720489
-0.720649
-0.724871
-0.727792
-0.727556
-0.731617
-0.742495
-0.707049
-0.767203
-0.768786
-0.76916
-0.769639
-0.772785
-0.774084
-0.771268
-0.779261
-0.786704
-0.766232
-0.81369
-0.816949
-0.818413
-0.819975
-0.823605
-0.828315
-0.827351
-0.840108
-0.841401
-0.828656
-0.866543
-0.8677
-0.868658
-0.870285
-0.874227
-0.881537
-0.888677
-0.906122
-0.911033
-0.898304
-0.917913
-0.918547
-0.918869
-0.919729
-0.922254
-0.928285
-0.938277
-0.950476
-0.955787
-0.944558
-0.968408
-0.968854
-0.968717
-0.968662
-0.968853
-0.96936
-0.969886
-0.974735
-0.979905
-0.976016
-1.0187
-1.01908
-1.0187
-1.01813
-1.0171
-1.01507
-1.01129
-1.00791
-1.00997
-1.01327
357.727
357.38
356.749
355.917
354.982
354.043
353.168
352.426
351.871
351.436
308.739
308.397
307.727
306.853
305.881
304.879
303.918
303.079
302.433
301.931
260.107
259.694
258.931
257.936
256.805
255.621
254.455
253.398
252.545
251.891
211.744
211.192
210.26
209.062
207.713
206.265
204.756
203.293
202.043
201.12
163.823
163.046
161.865
160.413
158.752
156.826
154.719
152.598
150.68
149.295
116.634
115.379
113.665
111.618
109.412
107.026
104.217
100.894
97.5476
95.7049
71.2675
69.1168
66.3858
63.6435
61.4793
58.1602
53.276
47.0755
40.7511
39.9385
31.5453
28.1233
23.9689
20.0658
17.7856
16.0513
12.7069
9.2307
5.84978
5.91672
5.51643
4.0027
2.26287
0.505033
-0.326567
-0.389422
-0.384576
-0.385272
-0.371043
-0.347173
-0.473488
-0.523676
-0.563796
-0.531073
-0.504087
-0.486189
-0.473782
-0.469769
-0.459846
-0.435304
-0.567209
-0.56805
-0.571271
-0.571148
-0.571561
-0.57222
-0.565517
-0.559035
-0.542832
-0.510431
-0.634439
-0.630467
-0.628012
-0.623628
-0.62239
-0.623034
-0.625168
-0.628082
-0.617895
-0.583484
-0.679925
-0.678907
-0.676241
-0.6739
-0.673383
-0.673948
-0.678535
-0.687813
-0.691722
-0.654018
-0.726161
-0.72664
-0.725206
-0.72336
-0.723435
-0.722385
-0.727012
-0.736324
-0.74769
-0.714044
-0.768813
-0.772762
-0.773262
-0.772543
-0.77306
-0.773326
-0.776163
-0.782449
-0.781655
-0.761488
-0.807726
-0.818323
-0.821391
-0.822087
-0.823409
-0.825499
-0.828257
-0.834118
-0.829308
-0.816195
-0.869159
-0.87027
-0.871428
-0.871897
-0.873286
-0.876255
-0.880435
-0.887201
-0.88433
-0.873065
-0.920101
-0.921492
-0.921304
-0.92127
-0.921861
-0.923747
-0.927519
-0.932823
-0.932291
-0.924566
-0.969617
-0.971141
-0.97063
-0.970244
-0.969815
-0.969417
-0.969147
-0.970505
-0.971317
-0.969198
-1.01891
-1.02054
-1.02
-1.01952
-1.0186
-1.01716
-1.01511
-1.01338
-1.01342
-1.01479
360.268
359.789
358.922
357.739
356.385
354.961
353.624
352.477
351.624
351.009
311.677
311.138
310.19
308.886
307.388
305.859
304.366
303.049
302.047
301.338
263.62
263.027
261.949
260.443
258.675
256.782
254.904
253.2
251.86
250.951
216.326
215.58
214.258
212.377
210.134
207.688
205.183
202.778
200.784
199.531
170.074
169.074
167.393
164.972
162.053
158.707
155.135
151.588
148.549
146.721
125.269
123.731
121.425
118.062
114.016
109.452
104.57
99.472
94.9056
92.4325
83.1562
81.0415
77.8172
73.1148
67.6484
61.4879
53.5139
44.6626
35.4686
33.9741
45.0213
41.805
37.1199
31.0268
24.4311
18.1944
12.4977
7.63245
3.81373
3.56885
14.7621
11.6996
8.23875
4.71776
1.38507
-0.323423
-0.420905
-0.382128
-0.345013
-0.324844
1.72536
0.640086
-0.303795
-0.529541
-0.5413
-0.505357
-0.474347
-0.467276
-0.452497
-0.421563
-0.582968
-0.580198
-0.560575
-0.560305
-0.568849
-0.571796
-0.559216
-0.553108
-0.543893
-0.510448
-0.649426
-0.649916
-0.641934
-0.632403
-0.623925
-0.620862
-0.619007
-0.623133
-0.619408
-0.589626
-0.687851
-0.689005
-0.682564
-0.678225
-0.673985
-0.67172
-0.674329
-0.683765
-0.687056
-0.654986
-0.734245
-0.734654
-0.731724
-0.727694
-0.725104
-0.722832
-0.724538
-0.732569
-0.74202
-0.711861
-0.782435
-0.779977
-0.779214
-0.775978
-0.774268
-0.772783
-0.773152
-0.776956
-0.776655
-0.75849
-0.810968
-0.82207
-0.826073
-0.824429
-0.823408
-0.822826
-0.823048
-0.824555
-0.820229
-0.810191
-0.878119
-0.875141
-0.875716
-0.87365
-0.87264
-0.872459
-0.872946
-0.873905
-0.870652
-0.865223
-0.926713
-0.926975
-0.924687
-0.922935
-0.921685
-0.921103
-0.921038
-0.921221
-0.919431
-0.916686
-0.972553
-0.974839
-0.972845
-0.971769
-0.970483
-0.969292
-0.968091
-0.967199
-0.966391
-0.965717
-1.0194
-1.02273
-1.02119
-1.02074
-1.01966
-1.01831
-1.01673
-1.01535
-1.01474
-1.01496
362.596
362.096
360.984
359.469
357.711
355.868
354.102
352.579
351.457
350.675
314.529
313.819
312.556
310.838
308.853
306.799
304.821
303.069
301.748
300.838
266.862
266.098
264.754
262.77
260.41
257.878
255.359
253.079
251.32
250.205
220.316
219.447
217.851
215.374
212.338
208.993
205.58
202.352
199.727
198.237
175.255
174.151
172.152
168.944
164.916
160.323
155.424
150.56
146.487
144.327
131.952
130.558
127.882
123.555
117.993
111.526
104.757
98.5473
93.4537
90.6018
92.1154
90.3298
86.6797
80.7839
73.0311
63.5209
52.6358
42.2197
30.7976
28.8247
57.1882
54.1733
48.9509
40.932
31.0107
20.0397
10.7958
6.29141
2.62118
2.18542
27.0156
24.4013
18.4014
10.9456
4.64224
0.471336
-0.380101
-0.378042
-0.310389
-0.287261
9.26294
7.94478
3.35257
0.0374743
-0.534721
-0.535531
-0.46347
-0.462406
-0.444155
-0.404415
0.634219
-0.437843
-0.564425
-0.575706
-0.559041
-0.571263
-0.556979
-0.550936
-0.5434
-0.506149
-0.64749
-0.592994
-0.634862
-0.649192
-0.628325
-0.620566
-0.614421
-0.615845
-0.612873
-0.587118
-0.711232
-0.700579
-0.688843
-0.684778
-0.676688
-0.671388
-0.669904
-0.676227
-0.677293
-0.651168
-0.751235
-0.745777
-0.738452
-0.732485
-0.727221
-0.722701
-0.720968
-0.725561
-0.731452
-0.705111
-0.814828
-0.796536
-0.787349
-0.78046
-0.775843
-0.771964
-0.769814
-0.771271
-0.771626
-0.756099
-0.817993
-0.837002
-0.834686
-0.827723
-0.823654
-0.820731
-0.818893
-0.81846
-0.815263
-0.806856
-0.873709
-0.872929
-0.882624
-0.874923
-0.871972
-0.869875
-0.868486
-0.867291
-0.863873
-0.859947
-0.916268
-0.936374
-0.929155
-0.924673
-0.921522
-0.919435
-0.917954
-0.916625
-0.914679
-0.912796
-0.960352
-0.979909
-0.975199
-0.973248
-0.970904
-0.968976
-0.967337
-0.965943
-0.964758
-0.964014
-1.00354
-1.0251
-1.02195
-1.02174
-1.02035
-1.01883
-1.01731
-1.01604
-1.01521
-1.01493
364.59
364.043
362.778
360.959
358.864
356.671
354.563
352.721
351.378
350.468
317.034
316.231
314.668
312.529
310.126
307.641
305.248
303.135
301.561
300.545
269.664
268.733
267.118
264.73
261.886
258.836
255.797
253.051
250.972
249.691
223.712
222.667
220.78
217.809
214.173
210.135
205.993
202.1
199.023
197.428
179.538
178.222
175.87
172.074
167.258
161.68
155.663
149.482
144.587
142.851
137.86
135.886
132.755
127.75
121.215
113.391
105.094
97.7249
92.5154
89.1463
99.6376
97.1296
93.0803
86.4576
77.4802
65.9586
52.5077
39.9037
26.8075
24.9112
65.9571
62.6689
57.3915
48.7222
36.7905
23.5602
10.558
5.03
1.91209
1.51564
38.0075
32.9156
26.5881
18.1936
7.91446
2.0577
-0.213746
-0.379417
-0.286551
-0.242039
18.2781
12.9235
8.35675
3.25443
-0.311655
-0.557379
-0.465995
-0.458466
-0.43506
-0.384637
9.14439
2.3336
-0.152657
-0.568419
-0.553295
-0.566716
-0.560127
-0.551765
-0.53911
-0.499319
0.275183
-0.375647
-0.620119
-0.636604
-0.633454
-0.621664
-0.613387
-0.608907
-0.604737
-0.583527
-0.659325
-0.707015
-0.701398
-0.68774
-0.679947
-0.671881
-0.668617
-0.66913
-0.666582
-0.64732
-0.688831
-0.756505
-0.747951
-0.736147
-0.729209
-0.722476
-0.719387
-0.720283
-0.721989
-0.70187
-0.866633
-0.823591
-0.802526
-0.785425
-0.777202
-0.771167
-0.768004
-0.767655
-0.76675
-0.754357
-0.411384
-0.851166
-0.849745
-0.832029
-0.823223
-0.818751
-0.816312
-0.815167
-0.812272
-0.805071
-0.944893
-0.907852
-0.895617
-0.877257
-0.870101
-0.867132
-0.865496
-0.863654
-0.860121
-0.857055
-0.975681
-0.958956
-0.937222
-0.926482
-0.920921
-0.917796
-0.915973
-0.914269
-0.911857
-0.909844
-0.988135
-0.989374
-0.980318
-0.975128
-0.971218
-0.968499
-0.966638
-0.96511
-0.963664
-0.96264
-1.02764
-1.02839
-1.02514
-1.02324
-1.02109
-1.01908
-1.01747
-1.01618
-1.0152
-1.01465
366.78
365.692
363.966
362.027
359.695
357.268
354.912
352.857
351.356
350.346
319.826
318.279
316.186
313.744
311.036
308.268
305.6
303.216
301.456
300.361
272.449
270.989
268.724
266.074
262.939
259.555
256.175
253.11
250.816
249.387
226.439
225.248
222.727
219.439
215.466
211.01
206.424
202.22
198.989
196.924
182.332
181.271
178.317
174.108
168.893
162.771
156.111
149.447
143.803
141.722
140.553
139.56
135.935
130.434
123.487
114.962
105.608
96.6951
88.9932
87.5048
102.332
101.406
97.1299
90.0853
80.6534
68.4383
53.7797
40.0028
25.0638
22.4969
69.3113
67.821
62.7461
53.8921
41.2837
27.4467
12.42
4.92976
1.69211
1.15621
42.862
39.59
33.0921
23.6263
11.2094
3.62458
0.0143638
-0.319623
-0.264495
-0.19907
24.6094
19.3854
13.3044
8.02855
0.574246
-0.495918
-0.487925
-0.456696
-0.424032
-0.365034
13.5447
7.62546
2.70105
-0.459799
-0.560284
-0.555887
-0.566376
-0.556987
-0.533051
-0.491457
6.60949
6.70719
-0.410417
-0.606563
-0.640552
-0.621429
-0.613631
-0.604648
-0.597531
-0.57833
3.22597
-0.717768
-0.703855
-0.695415
-0.684931
-0.673084
-0.668226
-0.663489
-0.657303
-0.643247
3.5154
-0.797734
-0.757029
-0.74141
-0.730275
-0.722211
-0.718593
-0.716122
-0.713033
-0.699411
7.05266
-0.441338
-0.811302
-0.789906
-0.776875
-0.76986
-0.766617
-0.764768
-0.762913
-0.752638
4.30362
-1.00649
-0.884755
-0.839479
-0.820468
-0.815688
-0.813937
-0.812837
-0.810801
-0.803763
-1.05063
-0.935343
-0.926943
-0.869524
-0.862138
-0.862054
-0.862457
-0.861269
-0.85814
-0.855193
-0.962287
-0.984151
-0.959025
-0.930982
-0.920516
-0.915473
-0.914094
-0.912455
-0.909794
-0.907933
-0.896547
-1.00591
-0.995942
-0.97964
-0.971955
-0.967648
-0.965795
-0.964319
-0.962778
-0.961622
-0.894137
-1.03705
-1.03809
-1.0274
-1.02225
-1.01904
-1.01727
-1.016
-1.01496
-1.0143
369.334
367.109
364.528
362.584
360.175
357.6
355.116
352.94
351.356
350.283
325.39
319.669
317.056
314.575
311.6
308.602
305.803
303.273
301.401
300.264
278.632
272.413
269.602
266.981
263.558
259.969
256.402
253.164
250.725
249.223
232.986
226.722
223.764
220.39
216.177
211.54
206.714
202.297
198.997
196.632
188.578
182.937
179.697
175.242
169.778
163.475
156.522
149.504
143.335
140.947
145.658
141.439
137.87
131.904
124.767
116.08
106.21
96.6887
88.0111
85.6392
107.45
103.388
99.4366
92.0001
82.4885
70.4058
55.3169
41.3022
25.4081
20.6708
77.6869
70.2559
65.7306
56.5869
44.1778
30.7315
14.4617
5.64683
1.81443
1.06565
53.053
42.7695
37.1555
26.3406
13.9409
5.03389
0.20927
-0.287831
-0.254753
-0.161557
35.0844
23.5329
17.9562
8.47076
1.56504
-0.438869
-0.521618
-0.462128
-0.419417
-0.352617
18.7073
12.0634
9.74732
0.313727
-0.527025
-0.552134
-0.570751
-0.564688
-0.528555
-0.483589
12.9416
6.75692
0.0441876
-0.644049
-0.638794
-0.627499
-0.615113
-0.602779
-0.588519
-0.571936
10.8482
5.07145
-0.65276
-0.689745
-0.686044
-0.674095
-0.667839
-0.65807
-0.64774
-0.637501
11.4113
4.41628
-0.697386
-0.727673
-0.728564
-0.720962
-0.71763
-0.711626
-0.706729
-0.696466
12.0976
4.84872
-0.843407
-0.796628
-0.770295
-0.767294
-0.765165
-0.762486
-0.761131
-0.751479
6.76534
3.38385
-0.929367
-0.864723
-0.792218
-0.809904
-0.811652
-0.81153
-0.811163
-0.803112
1.75271
2.67632
-0.976008
-0.867491
-0.824212
-0.850858
-0.859306
-0.860168
-0.858352
-0.854541
4.85843
-1.10846
-0.936387
-0.910895
-0.913168
-0.911391
-0.912266
-0.911534
-0.90943
-0.907467
9.62891
-1.06556
-0.977713
-0.972977
-0.969139
-0.96581
-0.964956
-0.963859
-0.962401
-0.961207
10.1436
-1.02016
-1.02649
-1.02297
-1.02113
-1.01816
-1.017
-1.01588
-1.01485
-1.01415
368.848
366.604
364.421
362.522
360.154
357.582
355.1
352.922
351.335
350.263
325.269
319.83
316.86
314.502
311.561
308.581
305.786
303.253
301.376
300.243
278.323
272.621
269.487
266.915
263.523
259.946
256.382
253.141
250.694
249.198
232.471
226.746
223.636
220.332
216.188
211.536
206.697
202.264
198.955
196.602
188.135
182.879
179.563
175.235
169.859
163.519
156.538
149.531
143.374
140.953
145.912
141.435
137.802
132.002
124.925
116.169
106.251
96.7287
88.0424
85.609
109.021
103.619
99.5008
92.1455
82.6647
70.5536
55.4558
41.4206
25.5633
20.7147
79.7409
70.74
65.8713
56.7322
44.3531
31.0335
14.7049
5.77077
1.82509
1.09607
55.609
43.5291
37.1483
26.3388
14.0534
5.25234
0.266618
-0.288826
-0.256857
-0.165251
34.6912
24.3487
17.2151
7.9419
1.58719
-0.452562
-0.539323
-0.468056
-0.41797
-0.351212
18.0033
12.3262
8.06175
0.115158
-0.535726
-0.551496
-0.577758
-0.571172
-0.526619
-0.47996
12.947
7.22759
-0.312559
-0.628798
-0.629449
-0.624329
-0.615915
-0.602405
-0.58527
-0.568182
10.1896
5.60197
-0.700659
-0.693101
-0.682248
-0.672723
-0.667264
-0.655778
-0.64465
-0.634101
7.28197
3.60149
-0.703511
-0.733554
-0.726503
-0.720529
-0.716865
-0.709498
-0.705236
-0.694954
7.25735
3.85808
-0.765843
-0.787361
-0.774107
-0.768446
-0.765015
-0.76116
-0.760988
-0.750899
7.0975
6.68012
-0.866323
-0.877422
-0.825166
-0.815774
-0.81291
-0.811303
-0.811473
-0.802998
11.1911
10.9273
-0.769154
-0.929916
-0.865062
-0.859312
-0.860848
-0.860253
-0.858295
-0.854558
8.95014
-1.08329
-0.808406
-0.84652
-0.898056
-0.909121
-0.911904
-0.911453
-0.909464
-0.907613
7.67135
-1.02834
-0.984195
-0.956403
-0.967731
-0.965243
-0.965029
-0.963866
-0.962407
-0.961198
6.77804
-1.01428
-1.03199
-1.02388
-1.02085
-1.01862
-1.01726
-1.01595
-1.01486
-1.01413
366.762
365.675
363.902
361.982
359.654
357.225
354.865
352.803
351.298
350.287
319.802
318.123
316.077
313.691
310.989
308.226
305.551
303.158
301.389
300.297
272.433
270.824
268.595
265.998
262.893
259.518
256.124
253.043
250.738
249.311
226.467
225.048
222.516
219.336
215.43
210.984
206.373
202.125
198.897
196.826
182.478
181.036
178.091
174.044
168.906
162.793
156.133
149.473
143.913
141.67
140.906
139.358
135.791
130.443
123.526
115.007
105.63
96.6675
88.7665
87.103
103.016
101.323
97.0317
90.0656
80.6854
68.5505
54.0345
40.1983
25.0698
22.3681
70.3036
67.9168
62.6731
53.8411
41.3336
27.5892
13.0072
5.00801
1.65284
1.19386
43.7982
39.7682
32.7766
23.762
11.1949
3.85764
0.081428
-0.324821
-0.270018
-0.201582
26.0317
19.5309
12.5215
7.37593
0.56292
-0.502119
-0.513511
-0.466569
-0.419745
-0.362072
12.3777
7.55366
1.51611
-0.513309
-0.553872
-0.555422
-0.578569
-0.570637
-0.529512
-0.48591
6.4186
7.50808
-0.512639
-0.615019
-0.623592
-0.618854
-0.615333
-0.60512
-0.589672
-0.571878
4.41774
-0.728815
-0.738463
-0.689622
-0.677774
-0.670535
-0.666113
-0.65764
-0.646783
-0.636842
3.85627
-0.714432
-0.756928
-0.734664
-0.724733
-0.720252
-0.715762
-0.709907
-0.705101
-0.695224
3.11605
-0.211143
-0.749904
-0.768495
-0.768845
-0.768669
-0.764794
-0.761421
-0.761047
-0.749949
2.7397
-0.966791
-0.873719
-0.849992
-0.821669
-0.818293
-0.814173
-0.811554
-0.809955
-0.802221
3.58033
-1.07641
-0.968378
-0.909104
-0.874032
-0.867257
-0.864101
-0.861237
-0.858107
-0.854559
4.09804
-0.749009
-0.93545
-0.919027
-0.919036
-0.916552
-0.914829
-0.912506
-0.909812
-0.907846
-0.73633
-1.04443
-1.00512
-0.980014
-0.973765
-0.968502
-0.966356
-0.964427
-0.962694
-0.961421
-1.06537
-1.06191
-1.04539
-1.02722
-1.02321
-1.01958
-1.01769
-1.01616
-1.01494
-1.01418
364.471
363.911
362.692
360.885
358.794
356.596
354.482
352.633
351.285
350.373
316.992
316.128
314.568
312.451
310.05
307.562
305.162
303.039
301.457
300.44
269.588
268.652
267.033
264.661
261.818
258.761
255.705
252.938
250.845
249.563
223.666
222.574
220.677
217.744
214.112
210.062
205.894
201.958
198.86
197.236
179.529
178.127
175.768
172.03
167.229
161.654
155.621
149.28
144.382
142.604
137.715
135.806
132.69
127.725
121.191
113.367
105.012
97.5506
92.1075
88.7853
99.4344
97.0544
92.8962
86.2989
77.4023
66.0105
52.7031
39.6462
25.8429
24.8074
65.9153
62.7241
57.2266
48.6175
36.8408
23.8442
11.3507
4.84022
1.74901
1.49508
37.4854
32.8726
26.3805
18.0948
8.09086
2.1867
-0.179063
-0.361987
-0.295886
-0.250469
17.6253
12.7159
8.1779
3.06835
-0.365188
-0.552258
-0.4962
-0.470078
-0.431137
-0.385689
8.17632
1.23812
-0.322814
-0.562076
-0.550189
-0.56573
-0.576431
-0.567963
-0.534556
-0.497023
-0.171957
-0.474103
-0.66869
-0.642813
-0.624666
-0.619317
-0.615938
-0.609567
-0.596515
-0.577281
-0.636356
-0.728192
-0.714556
-0.686291
-0.675106
-0.669794
-0.665852
-0.661175
-0.652188
-0.640417
-0.713201
-0.739622
-0.745431
-0.733203
-0.72429
-0.720187
-0.715274
-0.710993
-0.706659
-0.696256
-0.823284
-0.739175
-0.773951
-0.779214
-0.772248
-0.76968
-0.764802
-0.761608
-0.759295
-0.749163
-0.901043
-0.880844
-0.84742
-0.840966
-0.824545
-0.819968
-0.815041
-0.811769
-0.808168
-0.801297
-0.942759
-0.977939
-0.917388
-0.895495
-0.875558
-0.869685
-0.865527
-0.862109
-0.858042
-0.854569
-0.765943
-0.964022
-0.961188
-0.930264
-0.924841
-0.919402
-0.916225
-0.913482
-0.910639
-0.908424
-0.652401
-1.00236
-1.02117
-0.977841
-0.97652
-0.970031
-0.96705
-0.964818
-0.962987
-0.961753
-1.01607
-0.985182
-1.04814
-1.02599
-1.02365
-1.01992
-1.01778
-1.01614
-1.01488
-1.01415
362.562
362.017
360.898
359.381
357.617
355.767
353.993
352.464
351.336
350.551
314.489
313.732
312.461
310.743
308.754
306.694
304.706
302.944
301.615
300.699
266.818
266.025
264.665
262.68
260.314
257.773
255.236
252.934
251.161
250.047
220.25
219.36
217.747
215.273
212.232
208.881
205.432
202.175
199.525
198.022
175.208
174.077
172.039
168.835
164.817
160.243
155.309
150.361
146.233
144.13
132.049
130.52
127.755
123.398
117.828
111.363
104.546
98.0856
92.8201
89.9469
92.2419
90.2045
86.3726
80.4462
72.7687
63.4693
52.7681
41.9212
30.0061
28.5056
57.0186
54.0546
48.6994
40.7263
30.8426
20.4993
11.2682
6.02619
2.32993
2.05931
26.9473
24.2484
18.3364
10.7473
4.29202
0.446961
-0.373532
-0.377623
-0.326424
-0.305416
8.8402
7.52125
2.98
-0.0644861
-0.539996
-0.532501
-0.480978
-0.476607
-0.44751
-0.41533
0.334368
-0.530334
-0.575369
-0.579377
-0.563768
-0.571479
-0.569478
-0.561413
-0.538714
-0.506771
-0.656554
-0.625027
-0.659413
-0.671115
-0.636448
-0.622778
-0.616686
-0.612191
-0.601277
-0.579647
-0.6883
-0.695606
-0.700022
-0.692657
-0.675627
-0.669549
-0.665772
-0.663526
-0.657236
-0.642733
-0.721366
-0.728124
-0.735936
-0.731335
-0.723353
-0.719865
-0.715447
-0.712499
-0.709446
-0.697398
-0.78581
-0.755335
-0.776661
-0.778126
-0.771869
-0.769665
-0.765275
-0.76231
-0.758318
-0.748685
-0.863396
-0.829537
-0.830246
-0.830982
-0.823007
-0.820221
-0.816238
-0.812883
-0.807714
-0.801701
-0.921671
-0.918936
-0.88942
-0.88523
-0.87464
-0.870635
-0.867127
-0.864051
-0.859822
-0.856022
-0.937138
-0.95835
-0.93457
-0.932342
-0.924208
-0.920258
-0.917262
-0.914698
-0.912085
-0.910043
-0.942138
-0.963741
-0.986022
-0.978549
-0.973307
-0.969832
-0.967251
-0.965096
-0.963338
-0.962323
-0.992499
-1.00255
-1.02608
-1.02316
-1.02133
-1.01941
-1.01749
-1.01583
-1.01458
-1.01402
360.183
359.688
358.812
357.625
356.263
354.834
353.491
352.339
351.483
350.865
311.575
311.028
310.07
308.764
307.262
305.727
304.226
302.901
301.894
301.182
263.525
262.929
261.837
260.323
258.546
256.647
254.751
253.03
251.681
250.77
216.231
215.472
214.136
212.244
209.996
207.549
205.004
202.573
200.561
199.305
169.971
168.958
167.263
164.828
161.912
158.645
154.945
151.315
148.226
146.421
125.101
123.637
121.253
117.849
113.727
109.021
104.201
98.9362
94.2184
91.7691
82.9242
80.8722
77.5138
72.7919
67.2781
61.1343
53.3394
44.2415
34.8691
33.6347
44.7898
41.5979
37.0285
30.9067
24.2741
18.2024
12.5896
7.47604
3.49073
3.32581
14.4764
11.492
8.47206
4.36556
1.02106
-0.330715
-0.427051
-0.390003
-0.370074
-0.352471
1.71321
0.659575
-0.353448
-0.572015
-0.53365
-0.50301
-0.485529
-0.477572
-0.463683
-0.440925
-0.563663
-0.558336
-0.564134
-0.568699
-0.576816
-0.576763
-0.56496
-0.553937
-0.539889
-0.51359
-0.637334
-0.634259
-0.642724
-0.645428
-0.637664
-0.623234
-0.614922
-0.6132
-0.603469
-0.580838
-0.679681
-0.679645
-0.681652
-0.675206
-0.670398
-0.667461
-0.66505
-0.665427
-0.663502
-0.645211
-0.718052
-0.72104
-0.719336
-0.720872
-0.720266
-0.71882
-0.71593
-0.714959
-0.712949
-0.698605
-0.762054
-0.76881
-0.773277
-0.773429
-0.770785
-0.769527
-0.766712
-0.76494
-0.76018
-0.750175
-0.833956
-0.830763
-0.829301
-0.826171
-0.822141
-0.820618
-0.818581
-0.816814
-0.811682
-0.805724
-0.893426
-0.894375
-0.884733
-0.878563
-0.873159
-0.871146
-0.869519
-0.868021
-0.8648
-0.860728
-0.932231
-0.947709
-0.933426
-0.92799
-0.922744
-0.920343
-0.918597
-0.917096
-0.915041
-0.912727
-0.967116
-0.986758
-0.980209
-0.97479
-0.971459
-0.969165
-0.967182
-0.965339
-0.96384
-0.963097
-1.01951
-1.02022
-1.02279
-1.02146
-1.02007
-1.01847
-1.01671
-1.01499
-1.01377
-1.01358
357.617
357.259
356.617
355.778
354.837
353.894
353.017
352.274
351.719
351.282
308.614
308.265
307.585
306.707
305.729
304.723
303.758
302.917
302.27
301.766
259.982
259.564
258.788
257.785
256.647
255.451
254.275
253.213
252.361
251.704
211.604
211.048
210.099
208.893
207.546
206.069
204.542
203.07
201.819
200.893
163.647
162.889
161.703
160.247
158.623
156.592
154.431
152.272
150.332
148.956
116.369
115.167
113.451
111.38
108.985
106.532
103.7
100.315
96.9873
95.2135
70.9062
68.8267
66.1438
63.4662
60.9355
57.4788
52.5992
46.4823
40.5832
39.9108
31.3275
27.9297
24.0645
20.6169
18.1756
15.646
12.2372
8.89933
5.62312
5.74538
5.32887
3.92755
2.25354
0.385502
-0.280581
-0.382981
-0.395908
-0.40116
-0.406591
-0.37903
-0.458442
-0.495875
-0.545952
-0.517514
-0.483939
-0.475032
-0.4743
-0.470518
-0.47146
-0.45441
-0.549496
-0.544548
-0.55962
-0.558225
-0.569012
-0.566779
-0.557201
-0.538743
-0.528369
-0.510828
-0.624861
-0.617547
-0.624118
-0.615306
-0.617474
-0.615536
-0.612744
-0.613342
-0.602906
-0.576378
-0.670436
-0.670592
-0.672388
-0.663953
-0.664073
-0.662069
-0.66413
-0.668288
-0.67696
-0.64933
-0.715944
-0.7176
-0.719555
-0.71797
-0.717185
-0.71741
-0.715755
-0.71769
-0.717128
-0.702995
-0.764614
-0.767064
-0.768642
-0.769663
-0.768674
-0.769407
-0.76847
-0.770009
-0.764942
-0.753619
-0.818957
-0.822144
-0.820562
-0.821536
-0.820289
-0.821337
-0.822317
-0.824779
-0.821767
-0.81375
-0.869703
-0.877662
-0.872868
-0.872903
-0.871346
-0.872359
-0.874892
-0.877883
-0.877217
-0.869686
-0.916682
-0.927212
-0.922407
-0.922366
-0.920745
-0.920682
-0.922052
-0.924551
-0.925026
-0.919356
-0.965042
-0.973223
-0.971425
-0.970811
-0.969432
-0.968278
-0.967144
-0.966392
-0.966221
-0.965057
-1.01694
-1.01792
-1.01949
-1.0194
-1.01848
-1.01713
-1.01529
-1.01327
-1.012
-1.01275
355.136
354.901
354.507
354.007
353.495
353.016
352.598
352.264
352.014
351.757
305.827
305.593
305.188
304.719
304.228
303.756
303.333
302.983
302.708
302.415
256.437
256.18
255.741
255.249
254.747
254.267
253.829
253.446
253.118
252.739
206.785
206.456
205.943
205.442
204.984
204.52
204.054
203.604
203.169
202.628
156.703
156.257
155.681
155.303
154.888
154.374
153.829
153.21
152.516
151.692
106.468
105.815
105.094
104.544
104.053
103.533
102.789
101.6
100.283
99.3821