/*--------------------------------*- C++ -*----------------------------------*\
| =========                 |                                                 |
| \\      /  F ield         | OpenFOAM: The Open Source CFD Toolbox           |
|  \\    /   O peration     | Version:  2312                                  |
|   \\  /    A nd           | Website:  www.openfoam.com                      |
|    \\/     M anipulation  |                                                 |
\*---------------------------------------------------------------------------*/
FoamFile
{
    version     2.0;
    format      ascii;
    arch        "LSB;label=32;scalar=64";
    class       volScalarField;
    location    "0.325";
    object      p_rgh;
}
// * * * * * * * * * * * * * * * * * * * * * * * * * * * * * * * * * * * * * //

dimensions      [1 -1 -2 0 0 0 0];

internalField   nonuniform List<scalar> 
8000
(
374.99
375.026
375.112
375.279
375.585
375.989
376.45
376.906
377.262
377.375
374.032
374.103
374.248
374.48
374.963
375.532
376.161
376.781
377.269
377.433
372.066
372.212
372.479
372.948
373.635
374.536
375.541
376.538
377.347
377.632
368.59
368.862
369.311
370.047
371.261
372.797
374.485
376.19
377.66
378.195
362.003
362.695
363.886
365.185
367.479
369.963
372.611
375.383
378.073
379.409
355.644
357.136
358.848
360.454
362.189
365.37
369.331
373.447
377.957
381.468
255.015
260.326
273.508
292.385
315.95
340.462
360.513
372.187
379.752
386.407
20.8762
23.665
30.6407
42.3517
64.6007
102.804
160.654
224.204
268.641
353.111
0.295048
0.243404
0.180271
0.114531
0.0695943
0.0303831
0.00820906
0.146675
16.6938
145.03
0.106118
0.096455
0.0761053
0.048511
0.0187201
-0.0102878
-0.038601
-0.0597169
-0.0923596
6.98597
0.0280176
0.0225884
0.0119725
-0.000775879
-0.0148268
-0.0257061
-0.0282711
-0.00426975
0.802963
0.129361
-0.00723852
-0.0131101
-0.0207825
-0.0276397
-0.0326435
-0.0316554
-0.0174349
0.00316039
0.241708
0.178802
-0.0253962
-0.0305667
-0.0342442
-0.0375237
-0.0278558
0.00858531
0.024295
0.00518201
0.0693373
0.194762
-0.0293564
-0.0354395
-0.038242
-0.0293116
-0.0107325
0.00777411
0.0185855
0.0225768
0.036145
0.0938066
-0.0294313
-0.0300016
-0.036773
-0.030434
-0.0375046
-0.041192
-0.0272971
-0.00412568
0.00410419
0.00850822
-0.0411444
-0.0416732
-0.042944
-0.046073
-0.051512
-0.060913
-0.0752108
-0.0570284
-0.0305483
-0.0299402
-0.0496842
-0.0498868
-0.0499342
-0.0524949
-0.0585204
-0.0712294
-0.0934575
-0.0850959
-0.0574714
-0.0467861
-0.0532198
-0.0534737
-0.0541592
-0.056136
-0.0599705
-0.0701909
-0.0811022
-0.0710711
-0.0550294
-0.0456759
-0.0570322
-0.0570735
-0.0572763
-0.0577834
-0.0589323
-0.0624259
-0.0637102
-0.0499406
-0.0359777
-0.0377302
-0.0602931
-0.0600357
-0.0597243
-0.0592364
-0.0584667
-0.0571638
-0.0525382
-0.0425317
-0.0335662
-0.037813
376.062
376.033
376.018
376.061
376.198
376.421
376.705
377.004
377.239
377.262
375.163
375.191
375.256
375.402
375.669
376.03
376.452
376.882
377.218
377.27
373.529
373.624
373.737
374.036
374.529
375.182
375.917
376.65
377.233
377.35
370.966
371
370.877
371.495
372.489
373.706
375.022
376.331
377.428
377.671
364.527
364.897
365.398
367.255
369.254
371.314
373.436
375.577
377.548
378.12
358.474
359.171
362.358
363.192
364.539
367.106
370.24
373.342
376.456
378.032
286.275
286.057
289.631
303.975
322.425
342.123
358.483
368.089
374.008
379.496
36.3157
34.6103
36.997
48.8983
70.3571
103.229
146.887
189.685
218.121
271.044
0.186773
0.16541
0.134315
0.09685
0.0538142
0.0128641
-0.0120444
-0.00597664
0.143886
17.678
0.0455485
0.0411907
0.0289803
0.0237524
-0.000781187
-0.0239736
-0.0373725
-0.0453579
-0.0855538
-0.115369
-0.00489405
-0.0136674
-0.0265655
-0.0326012
-0.0463511
-0.0503221
-0.0402934
-0.026739
-0.019765
0.364711
-0.0253934
-0.0352234
-0.046879
-0.0567038
-0.0640309
-0.0607484
-0.0394597
-0.0126306
0.0178794
0.287359
-0.01566
-0.0333285
-0.0426773
-0.0366818
-0.0332596
-0.0203584
-0.0182978
-0.022298
0.0167605
0.307137
-0.0216666
-0.0212006
-0.044072
-0.0429961
-0.0407342
-0.0340198
-0.0219396
0.0619562
0.107522
0.224021
-0.0231036
-0.0487249
-0.050832
-0.0458066
-0.0492483
-0.0543014
-0.060658
0.0892262
0.102769
0.0219629
-0.0538451
-0.053028
-0.0512502
-0.0518048
-0.0571286
-0.0706312
-0.0822227
-0.0297447
0.0833993
-0.0531618
-0.0528626
-0.05299
-0.053172
-0.0556946
-0.0629096
-0.0794436
-0.100831
-0.0960025
-0.0689149
-0.0707495
-0.0549647
-0.0552605
-0.0560336
-0.0577324
-0.062931
-0.0775143
-0.0935132
-0.0869563
-0.0832118
-0.0674767
-0.0581164
-0.0581221
-0.0581812
-0.0583897
-0.059625
-0.0645377
-0.0673999
-0.0555964
-0.0521001
-0.047342
-0.0608293
-0.0605704
-0.0601568
-0.059418
-0.0581237
-0.0554576
-0.049516
-0.0381655
-0.034575
-0.0389033
377.639
377.527
377.355
377.179
377.046
376.973
376.956
376.979
377.001
376.902
377.034
376.948
376.824
376.72
376.667
376.673
376.731
376.819
376.882
376.781
376.006
375.92
375.805
375.785
375.863
376.032
376.256
376.492
376.656
376.546
374.271
374.169
373.94
374.107
374.473
374.954
375.482
375.989
376.356
376.219
370.676
370.527
370.342
371.327
372.286
373.245
374.205
375.061
375.684
375.488
367.078
366.975
367.721
368.344
369.103
370.421
371.745
372.762
373.56
373.612
349.251
344.058
338.991
343.351
351.553
359.257
364.421
367.098
368.529
371.877
111.344
98.7439
94.777
110.126
130.094
152.183
174.106
194.663
196.931
227.19
0.159174
0.122338
0.115721
0.046161
0.0218572
0.0109511
0.0132465
0.0207448
0.0163258
0.169843
0.0106394
0.0118485
0.0183152
0.0288943
-0.0179729
-0.0307821
-0.023162
-0.0207082
-0.0268521
-0.025587
-0.0366851
-0.0413127
-0.0476609
-0.0540454
-0.061189
-0.0656171
-0.053081
-0.0355837
-0.0199464
-0.00411044
-0.0388205
-0.0363617
-0.0550976
-0.0686195
-0.0760917
-0.0780243
-0.0624926
-0.037926
-0.010938
0.0168465
-0.0276659
-0.0323603
-0.0544382
-0.0592991
-0.0660155
-0.066805
-0.0666196
-0.0305403
0.0732145
0.0564615
-0.0230445
-0.0423287
-0.0536761
-0.0560207
-0.061889
-0.067925
-0.0660348
0.048444
0.119724
0.179109
-0.0403233
-0.0545426
-0.054848
-0.0551634
-0.059621
-0.0650161
-0.0653536
0.0180402
0.0711006
0.0876392
-0.0540256
-0.0550879
-0.0555915
-0.0570036
-0.0629922
-0.0753258
-0.0769364
-0.0678827
-0.057054
-0.0586316
-0.0554506
-0.0560365
-0.0568273
-0.059038
-0.0655859
-0.0795259
-0.0900032
-0.0937559
-0.104299
-0.0986968
-0.0575378
-0.0578642
-0.0583886
-0.0597246
-0.0642659
-0.0754488
-0.0866999
-0.0915176
-0.0983677
-0.0916131
-0.0596651
-0.0597012
-0.0596387
-0.0596945
-0.060477
-0.0629291
-0.0636114
-0.0593886
-0.067205
-0.0659608
-0.0616137
-0.061491
-0.0610649
-0.0603317
-0.0590468
-0.0561403
-0.0496706
-0.0413088
-0.0448942
-0.0502277
379.799
379.57
379.185
378.692
378.185
377.707
377.287
376.948
376.695
376.438
379.553
379.323
378.927
378.464
377.977
377.506
377.081
376.726
376.446
376.153
379.226
378.972
378.541
378.057
377.563
377.089
376.649
376.259
375.922
375.543
378.654
378.325
377.818
377.335
376.883
376.429
375.964
375.502
375.056
374.514
377.647
377.171
376.594
376.238
375.866
375.415
374.903
374.281
373.578
372.727
376.564
375.867
375.156
374.624
374.285
373.893
373.208
371.955
370.526
369.512
375.142
373.512
371.854
370.604
371.415
371.102
368.962
365.107
359.112
360.295
238.972
212.418
189.475
188.597
201.457
200.512
191.248
177.576
150.261
160.535
22.7195
14.1115
6.3988
0.0693788
-0.013253
0.0183015
0.0240641
0.0247113
0.0165596
0.05192
-0.0671849
-0.0441565
-0.0206664
-0.00756429
-0.0258828
-0.0260626
-0.0151239
-0.00873942
-0.00449588
0.0108032
-0.061237
-0.0613168
-0.0570405
-0.0523733
-0.0596716
-0.0637546
-0.0580129
-0.0469993
-0.0204329
0.00350319
-0.0570549
-0.0561841
-0.0566647
-0.0588814
-0.0662031
-0.0646767
-0.0571756
-0.0553063
0.0398499
0.030442
-0.0573105
-0.0572579
-0.0585805
-0.060249
-0.0657872
-0.0710139
-0.0683249
0.0148237
0.0780337
0.0972486
-0.0539537
-0.0582868
-0.0583138
-0.0584743
-0.0626962
-0.0656147
-0.0627849
-0.0571969
0.0597574
0.126415
-0.055466
-0.0575606
-0.0579349
-0.0584139
-0.0615604
-0.0628016
-0.0596114
-0.0680068
-0.0512846
0.054974
-0.0534149
-0.0566737
-0.0581381
-0.0597001
-0.0633303
-0.0680398
-0.0670762
-0.079831
-0.081095
-0.0662168
-0.0572181
-0.0583749
-0.0593325
-0.0609598
-0.0649021
-0.0722079
-0.0793475
-0.0967874
-0.101021
-0.0876941
-0.0595377
-0.0601723
-0.0604936
-0.0613545
-0.0638795
-0.0698924
-0.0797418
-0.0917557
-0.0965477
-0.0855272
-0.0609827
-0.0614288
-0.0612922
-0.0612374
-0.0614277
-0.0619334
-0.062232
-0.0665195
-0.0713447
-0.0685787
-0.0622224
-0.0626074
-0.0622292
-0.0616594
-0.0606269
-0.0585936
-0.0547945
-0.0512932
-0.0533575
-0.0567957
382.252
381.905
381.274
380.442
379.507
378.568
377.693
376.951
376.396
375.961
382.314
381.972
381.302
380.428
379.456
378.454
377.493
376.654
376.008
375.506
382.732
382.319
381.556
380.561
379.43
378.246
377.08
376.023
375.17
374.516
383.419
382.867
381.935
380.737
379.388
377.94
376.431
374.968
373.718
372.795
384.548
383.771
382.59
381.138
379.477
377.551
375.444
373.323
371.405
370.02
386.409
385.154
383.44
381.393
379.187
376.801
373.992
370.669
367.319
365.478
390.092
387.942
385.211
382.469
380.304
376.982
371.426
360.173
342.49
340.134
371.035
343.633
314.183
294.632
281.581
252.432
203.558
154.278
103.073
102.157
142.501
105.59
66.1645
27.4477
6.79
0.0305124
0.0331878
0.0321126
0.0462933
0.0702101
0.0627199
-0.0474037
-0.0971353
-0.065064
-0.0378298
-0.0194475
-0.00726567
-0.0032896
0.00661234
0.0311161
-0.051934
-0.0530285
-0.0562467
-0.0561192
-0.056503
-0.0520392
-0.0489291
-0.0420376
-0.00558724
0.00526747
-0.0703623
-0.0663907
-0.0639364
-0.0595518
-0.0501346
-0.0273182
-0.0283022
-0.0442876
0.0521368
0.106101
-0.0667915
-0.0657817
-0.0631157
-0.0606675
-0.0573882
-0.0430645
-0.0144494
-0.0221345
0.0615005
0.102342
-0.063981
-0.0644648
-0.0630315
-0.0611846
-0.0612596
-0.06021
-0.0648348
-0.0741036
-0.00329854
0.104861
-0.0575501
-0.0615367
-0.0620374
-0.0613183
-0.0618337
-0.0620901
-0.0649374
-0.0712224
-0.0563677
0.0473135
-0.0474512
-0.058048
-0.0611163
-0.0618117
-0.0631344
-0.0652239
-0.0679822
-0.073843
-0.0690311
-0.0553965
-0.0598339
-0.0609452
-0.0621026
-0.0625723
-0.0639605
-0.0669298
-0.0711087
-0.077875
-0.0750002
-0.0637398
-0.0617258
-0.0631166
-0.0629289
-0.0628954
-0.0634861
-0.0653708
-0.0691435
-0.0744478
-0.0739151
-0.0661905
-0.0621921
-0.0637157
-0.0632049
-0.0628186
-0.0623899
-0.0619917
-0.0617221
-0.0630797
-0.0638914
-0.061773
-0.062431
-0.0640639
-0.0635292
-0.0630497
-0.0621216
-0.0606826
-0.0586359
-0.0569018
-0.0569427
-0.058316
384.793
384.314
383.447
382.264
380.91
379.486
378.149
377.002
376.149
375.534
385.252
384.713
383.765
382.461
380.963
379.434
377.941
376.624
375.622
374.913
386.245
385.652
384.574
383.068
381.3
379.407
377.529
375.825
374.485
373.576
388.001
387.255
385.933
384.052
381.809
379.363
376.858
374.453
372.459
371.206
390.799
389.799
388.118
385.697
382.778
379.432
375.86
372.313
369.274
367.446
395.044
393.506
391.2
387.837
383.791
379.227
374.345
369.246
364.678
362.206
401.981
399.867
396.642
391.94
386.473
380.313
371.708
352.647
323.141
315.685
412.896
409.68
399.884
371.4
335.886
286.548
205.289
130.691
69.6767
63.9376
328.068
271.439
194.089
106.766
40.0318
7.09044
-0.00126868
0.0360488
0.0723944
0.0928719
70.3352
32.4277
5.80829
-1.67828e-05
-0.0747223
-0.0387201
-0.00788627
0.0134845
0.0242708
0.0455673
-0.0167888
-0.0536045
-0.04555
-0.0452608
-0.053454
-0.0562786
-0.04384
-0.0216867
-0.00120615
0.00653901
-0.0852489
-0.0858451
-0.0778582
-0.0683271
-0.0556023
-0.0493984
-0.0469927
-0.0435752
-0.0460907
0.000780513
-0.0747096
-0.0758781
-0.0694386
-0.0640961
-0.05503
-0.0509739
-0.0508984
-0.0442712
0.0597941
0.0967828
-0.0661318
-0.071649
-0.069546
-0.0655195
-0.0629286
-0.0606565
-0.0623626
-0.0703805
-0.0323091
0.105009
-0.0621979
-0.0667666
-0.06796
-0.0647525
-0.0630433
-0.0615575
-0.061927
-0.0657307
-0.0602825
0.0234063
-0.0506955
-0.0596545
-0.0657828
-0.0641541
-0.0631334
-0.0625505
-0.062773
-0.0642798
-0.0599537
-0.0499164
-0.0687937
-0.065816
-0.0663907
-0.0643252
-0.0633149
-0.0631345
-0.0636211
-0.0645802
-0.0613269
-0.0558982
-0.0683384
-0.0685988
-0.0663116
-0.0645603
-0.0633101
-0.0627277
-0.062663
-0.0628462
-0.0610561
-0.0583108
-0.0651278
-0.0674117
-0.0654204
-0.0643438
-0.0630577
-0.0618667
-0.0606661
-0.0597737
-0.0589661
-0.058292
-0.0629203
-0.0662517
-0.0647148
-0.0642625
-0.0631867
-0.0618331
-0.0602507
-0.0588788
-0.0582645
-0.0584805
387.121
386.621
385.509
383.994
382.236
380.393
378.627
377.104
375.982
375.2
388.104
387.394
386.131
384.413
382.428
380.374
378.396
376.644
375.323
374.413
389.487
388.723
387.379
385.395
383.035
380.503
377.984
375.704
373.945
372.83
391.991
391.122
389.526
387.049
384.013
380.668
377.255
374.027
371.402
369.912
395.819
394.876
392.877
389.669
385.641
381.048
376.149
371.285
367.212
365.052
401.564
400.333
397.657
393.33
387.768
381.301
374.532
368.322
363.228
360.376
410.932
409.155
405.505
399.609
391.856
382.346
370.504
344.151
304.829
291.627
425.063
422.048
416.826
408.807
371.788
296.986
189.489
111.378
49.0431
40.6205
438.532
410.479
350.976
232.735
105.843
25.8991
0.0514906
0.0498652
0.107822
0.130697
324.596
222.476
102.712
17.8123
-0.0171839
-0.0691129
0.00282139
0.0520864
0.0511393
0.0630161
48.8226
0.34086
-0.0468713
-0.0605989
-0.0436344
-0.0558882
-0.0416035
-0.0151476
-0.00396245
0.0108397
-0.0705016
-0.0290013
-0.0707864
-0.0850955
-0.0624946
-0.0549192
-0.0499637
-0.0477155
-0.0482254
-0.0223848
-0.0980338
-0.0874441
-0.0757164
-0.0705513
-0.0568894
-0.0520118
-0.0562756
-0.0510202
0.0237446
0.0160039
-0.0864031
-0.0826454
-0.0762729
-0.0698783
-0.0634551
-0.0605258
-0.0587927
-0.0633795
-0.0407646
0.108793
-0.0611636
-0.0685887
-0.0759852
-0.0692351
-0.0646181
-0.0607388
-0.0585892
-0.0600458
-0.0568828
0.00931752
-0.0577137
0.0189224
-0.0731567
-0.0674269
-0.0633788
-0.0604561
-0.058618
-0.058185
-0.0549741
-0.0465793
-0.0643842
-0.0636045
-0.0732911
-0.0655402
-0.0626473
-0.0605495
-0.0591614
-0.0579665
-0.0545482
-0.050622
-0.0578933
-0.0779991
-0.07078
-0.066236
-0.0631474
-0.0610595
-0.0595789
-0.0582495
-0.0563039
-0.0544214
-0.0529269
-0.0724844
-0.0677736
-0.0658022
-0.0634787
-0.0615514
-0.0599124
-0.0585175
-0.0573326
-0.0565894
-0.047068
-0.0686202
-0.0654743
-0.0652645
-0.063873
-0.0623541
-0.0608376
-0.0595611
-0.0587324
-0.058452
389.115
388.568
387.303
385.484
383.389
381.196
379.088
377.246
375.903
374.993
390.609
389.806
388.243
386.104
383.701
381.216
378.823
376.71
375.136
374.12
392.289
391.343
389.689
387.355
384.511
381.461
378.422
375.676
373.597
372.316
395.387
394.286
392.379
389.484
385.848
381.81
377.668
373.775
370.698
369.103
400.235
398.893
396.507
392.799
387.983
382.405
376.388
370.207
365.312
363.576
407.579
405.658
402.52
397.525
390.99
383.166
374.869
367.5
362.29
358.921
418.459
415.955
411.905
405.283
396.305
384.784
371.333
337.563
289.14
271.603
433.832
430.544
425.266
416.597
396.866
310.42
184.965
96.6445
36.2771
27.8628
454.932
449.84
436.034
346.733
188.845
62.4865
3.61753
0.0657621
0.142132
0.176407
484.25
437.908
279.16
100.887
4.66063
-0.0900048
0.000300914
0.0335854
0.0468451
0.0830021
430.166
210.147
10.8722
-0.045535
-0.0374827
-0.0514636
-0.0448089
-0.0307979
-0.0197973
0.0163062
87.8859
11.9015
-0.0560218
-0.0724838
-0.0685003
-0.0561573
-0.0486771
-0.0409871
-0.0402285
-0.018906
5.72052
-0.0938552
-0.0882619
-0.0745851
-0.0655906
-0.0525424
-0.0545358
-0.0471927
0.0148292
-0.0178919
-0.0235389
-0.093932
-0.0851184
-0.0738465
-0.0658017
-0.0595694
-0.0572105
-0.0581015
-0.0421008
0.0538715
22.6594
-0.111699
-0.0912762
-0.0741829
-0.0659775
-0.0599417
-0.0567786
-0.0564281
-0.0511394
-0.00298223
23.976
2.07628
-0.0893997
-0.0717194
-0.0629461
-0.0584757
-0.0560366
-0.0548249
-0.0516701
-0.0447806
-0.135561
-0.0984737
-0.0862563
-0.0679315
-0.0607718
-0.0578067
-0.0561707
-0.054329
-0.0507964
-0.0477299
-0.117306
-0.100559
-0.0746656
-0.0681075
-0.0625458
-0.0594207
-0.0575982
-0.0558941
-0.0534819
-0.0514687
-0.0807177
-0.0817615
-0.0715678
-0.067703
-0.0637925
-0.061074
-0.0592128
-0.0576846
-0.0562385
-0.0552154
-0.07117
-0.0719162
-0.0680497
-0.0657963
-0.0646146
-0.0626067
-0.0609922
-0.0597088
-0.0587297
-0.0581753
388.922
390.217
388.491
386.552
384.22
381.793
379.437
377.382
375.881
374.871
389.716
391.854
389.761
387.319
384.611
381.843
379.175
376.791
375.031
373.936
393.875
393.612
391.332
388.699
385.564
382.18
378.8
375.735
373.441
372.012
398.044
396.87
394.385
391.114
387.141
382.685
378.099
373.895
370.664
368.599
403.055
401.84
399.038
394.833
389.618
383.496
376.836
370.172
364.528
362.447
410.325
409.16
405.71
400.209
393.262
384.737
375.383
366.47
358.768
357.28
420.898
420.188
415.955
408.91
399.478
387.263
372.605
339.945
281.055
257.294
434.113
435.695
430.621
421.767
409.159
334.879
202.945
93.6975
31.2781
20.8656
450.99
456.514
450.017
406.368
263.233
99.3928
10.8465
0.136213
0.173196
0.238857
479.299
485.356
442.126
224.856
28.6203
-0.0205132
-0.0216309
0.0179943
0.0437573
0.103478
521.718
522.588
218.266
0.289545
-0.0361745
-0.0408079
-0.0513061
-0.0418755
-0.0178987
0.0239957
565.231
374.772
12.0316
-0.042584
-0.0764467
-0.0573281
-0.0495093
-0.0395773
-0.0331697
-0.0138791
582.045
24.2611
-0.0906999
-0.0822528
-0.0717777
-0.0599306
-0.0550482
-0.0434842
-0.026826
-0.0290199
543.349
32.1889
-0.0947503
-0.0791886
-0.0676944
-0.0599815
-0.0564084
-0.0487851
-0.0278892
-0.0321976
596.44
44.9404
-0.0994095
-0.0778284
-0.0654029
-0.0586344
-0.0553175
-0.0535149
-0.0475523
-0.0294615
404.703
6.42906
-0.0667319
-0.0627115
-0.059894
-0.0554134
-0.0536622
-0.0525622
-0.0489119
-0.0359045
54.8866
2.88475
-0.0562337
-0.0461902
-0.0518363
-0.0527284
-0.0531318
-0.0519444
-0.048797
-0.0456415
22.6493
-0.125762
-0.100629
-0.0726064
-0.0621412
-0.0570978
-0.0557189
-0.0540799
-0.0514187
-0.0495575
27.6825
-0.0984734
-0.088501
-0.072205
-0.0645296
-0.0602228
-0.0583696
-0.0568942
-0.055353
-0.0541965
30.883
-0.0805721
-0.0815647
-0.0707323
-0.0657709
-0.062564
-0.0607973
-0.0595239
-0.0584882
-0.0578242
386.226
389.906
389.053
387.109
384.7
382.125
379.641
377.465
375.881
374.808
375.993
392.514
390.631
388.15
385.175
382.177
379.378
376.848
374.976
373.839
362.899
395.038
392.227
389.606
386.183
382.594
379.027
375.789
373.35
371.848
350.867
398.397
395.439
392.065
387.852
383.215
378.389
373.972
370.672
368.307
342.781
403.662
400.308
395.82
390.503
384.2
377.247
370.229
364.06
361.672
337.423
411.213
407.514
401.516
394.542
385.855
375.985
366.464
357.786
355.414
320.425
422.213
418.243
410.815
401.313
389.231
374.142
345.33
280.291
250.438
279.865
438.13
433.605
424.462
412.053
360.8
225.854
103.259
32.59
18.0087
271.833
459.694
454.08
430.177
313.012
130.937
18.8609
0.162885
0.19898
0.293043
279.358
489.462
483.906
302.918
57.082
0.0941523
-0.0528585
0.00410518
0.0495368
0.117559
369.192
526.777
404.382
34.7502
0.0385374
-0.0360562
-0.0556541
-0.0495445
-0.013239
0.0320502
551.349
570.399
63.3471
-0.0802018
-0.0746732
-0.0634003
-0.050997
-0.0379435
-0.0240682
-0.00755193
611.251
574.561
1.37391
-0.0765806
-0.0728799
-0.0609524
-0.0525746
-0.0247424
-0.0342795
-0.0240738
658.308
546.043
-0.0333973
-0.065389
-0.064994
-0.0587808
-0.0511001
-0.0211427
-0.0179416
-0.0339375
705.198
560.083
17.337
-0.0844344
-0.058732
-0.0560679
-0.0536739
-0.0392922
-0.0215161
-0.0356501
621.753
425.044
17.51
-0.0947811
-0.0319218
-0.0496196
-0.0513766
-0.0512541
-0.0476856
-0.0335304
559.379
164.252
0.294303
-0.031798
-0.0145641
-0.0415327
-0.0499811
-0.0508435
-0.0488773
-0.0436352
599.907
-0.249982
0.8167
-0.00690188
-0.0545002
-0.0530143
-0.0538905
-0.0531589
-0.0510554
-0.0490922
638.692
-0.158118
-0.0702878
-0.065552
-0.0617139
-0.0583848
-0.0575311
-0.0564343
-0.0549755
-0.0537818
597.099
-0.0636692
-0.0600029
-0.0664972
-0.0646511
-0.0616843
-0.0605251
-0.0594073
-0.0583782
-0.0576768
385.722
388.326
388.946
387.047
384.679
382.107
379.625
377.447
375.86
374.788
375.817
388.262
390.435
388.077
385.136
382.156
379.361
376.828
374.951
373.818
362.517
393.438
392.112
389.54
386.148
382.571
379.007
375.766
373.319
371.823
350.343
398.323
395.311
392.007
387.863
383.211
378.372
373.939
370.63
368.277
341.31
403.602
400.172
395.813
390.584
384.244
377.263
370.256
364.099
361.678
333.339
411.21
407.433
401.597
394.7
385.944
376.026
366.504
357.817
355.384
312.233
422.444
418.301
410.954
401.49
389.379
374.281
346.26
281.53
250.603
278.012
438.615
433.746
424.607
412.228
361.709
227.679
104.663
32.7649
18.6913
275.668
460.453
454.073
430.39
315.925
134.199
20.5886
0.173798
0.203168
0.293087
323.172
490.323
483.188
301.25
58.839
0.0521117
-0.071986
-0.00120895
0.0517493
0.11912
490.795
526.867
388.042
25.9402
0.0142509
-0.0361406
-0.0625883
-0.0557133
-0.011
0.0356521
575.386
570.691
63.4112
-0.064614
-0.0653422
-0.0602425
-0.0517333
-0.0364691
-0.0207247
-0.00382874
620.347
580.09
6.5064
-0.0799296
-0.0691168
-0.0595929
-0.0515225
-0.0184809
-0.017802
-0.0206981
580.612
492.781
0.666119
-0.0550264
-0.0634087
-0.0583512
-0.0497482
-0.0188816
-0.0145497
-0.0305443
483.734
494.045
-0.0304703
-0.0439602
-0.0591829
-0.0572206
-0.053259
-0.0330916
-0.0191477
-0.0247722
561.609
552.17
14.017
-0.102322
-0.0560773
-0.0554341
-0.0526351
-0.0510277
-0.047475
-0.0329433
724.26
400.991
43.8013
-0.0738605
-0.0547619
-0.0499875
-0.0515227
-0.0509282
-0.0489698
-0.0450218
743.745
-0.22017
12.1866
1.82185
-0.0396812
-0.0507464
-0.0535289
-0.0530782
-0.0510886
-0.0492375
697.068
-0.120905
-0.0767698
-0.048978
-0.0603058
-0.0578182
-0.057604
-0.0564412
-0.0549818
-0.0537728
570.339
-0.0576171
-0.0755126
-0.0674082
-0.0643785
-0.0621412
-0.0607816
-0.0594767
-0.0583876
-0.0576522
388.849
390.2
388.427
386.507
384.179
381.75
379.39
377.328
375.823
374.812
389.531
391.698
389.652
387.266
384.564
381.801
379.126
376.733
374.964
373.872
393.764
393.449
391.208
388.623
385.518
382.143
378.749
375.668
373.363
371.936
398.057
396.647
394.182
391.011
387.105
382.659
378.048
373.8
370.572
368.501
403.202
401.652
398.805
394.767
389.631
383.518
376.858
370.198
364.638
362.395
410.681
409.013
405.566
400.218
393.301
384.782
375.405
366.442
358.541
356.878
421.841
420.138
415.857
408.891
399.51
387.375
372.86
342.497
282.508
257.336
438.178
435.792
430.548
421.716
409.209
337.477
206.239
93.5138
30.9111
21.9387
460.723
456.693
449.701
403.91
263.553
101.509
13.3792
0.130497
0.178439
0.242988
491.733
484.908
425.6
211.077
28.1199
-0.0335259
-0.0472312
0.000432799
0.0490895
0.106871
526.084
522.02
175.573
0.114363
-0.0382071
-0.0403872
-0.0631988
-0.0551644
-0.0139405
0.0295498
568.969
418.784
11.2872
-0.0508053
-0.0595107
-0.054774
-0.0508183
-0.0361579
-0.0251219
-0.00754683
579.756
65.1628
-0.125181
-0.0764901
-0.064645
-0.057408
-0.0526888
-0.0330101
-0.019679
-0.0234388
496.729
61.832
-0.0931473
-0.0682825
-0.0625556
-0.0580766
-0.0535764
-0.0355334
-0.0144846
-0.0324945
481.098
42.6523
-0.0338849
0.0357728
-0.0576199
-0.0574441
-0.0535693
-0.0486363
-0.0382535
-0.0243321
445.325
0.0535026
0.240099
0.102823
-0.0613111
-0.0580178
-0.0538983
-0.0512792
-0.0490185
-0.0332502
495.423
49.5384
1.34377
-0.082772
-0.0644533
-0.0579322
-0.0547764
-0.0519117
-0.0487807
-0.0451786
376.154
15.568
0.634506
0.0161968
-0.0606614
-0.0581772
-0.0564542
-0.0541311
-0.0514374
-0.0494715
61.8813
0.141327
-0.0976907
-0.0725894
-0.0663372
-0.0610769
-0.058931
-0.0570022
-0.0552689
-0.0539955
23.9931
0.237315
-0.0730396
-0.0707492
-0.0667317
-0.0631041
-0.061213
-0.0596874
-0.0584673
-0.0577025
388.996
388.436
387.217
385.41
383.319
381.121
379.007
377.158
375.81
374.898
390.567
389.703
388.143
386.026
383.625
381.137
378.737
376.614
375.032
374.015
392.213
391.266
389.619
387.286
384.443
381.386
378.33
375.563
373.47
372.188
395.341
394.228
392.296
389.419
385.787
381.737
377.569
373.633
370.535
368.911
400.11
398.828
396.443
392.755
387.954
382.379
376.346
370.005
365.107
363.329
407.304
405.581
402.463
397.5
390.966
383.142
374.787
367.326
361.882
358.56
418.223
415.879
411.721
405.124
396.227
384.836
371.528
339.1
287.705
270.315
433.79
430.599
425.102
416.492
397.21
313.041
188.532
91.2865
33.7645
27.8965
454.41
449.797
431.093
339.911
185.837
63.8122
6.70653
0.112523
0.134687
0.167198
483.597
424.65
258.182
91.8596
4.47045
-0.0858143
-0.0297953
-0.00342415
0.036667
0.0812644
393.506
184.566
8.52123
-0.0406022
-0.0346859
-0.0504433
-0.0609576
-0.0524571
-0.0187803
0.018471
48.9847
14.4568
-0.102115
-0.0783676
-0.0601157
-0.0530129
-0.0490406
-0.0416673
-0.0261772
-0.00988971
3.88218
-0.113981
-0.101029
-0.0729569
-0.061054
-0.0499974
-0.0518917
-0.0475427
-0.0299604
-0.019457
-0.048909
-0.0751182
-0.080552
-0.0702591
-0.0616422
-0.0562065
-0.0530985
-0.048142
-0.0384374
-0.0263297
3.07606
-0.0236216
-0.056882
-0.0591136
-0.0610228
-0.0584548
-0.0535766
-0.050383
-0.0471428
-0.0317751
9.76665
0.207001
-0.0805911
-0.0621475
-0.0642699
-0.0596928
-0.0547663
-0.051494
-0.0470637
-0.0378259
27.4534
-0.16365
0.00158464
-0.0744187
-0.0662331
-0.0603596
-0.0562022
-0.0527837
-0.0487169
-0.0452134
34.6695
0.301497
0.585063
-0.0581853
-0.0664664
-0.0610266
-0.0578501
-0.0551066
-0.0522639
-0.050049
23.1303
3.16918
0.609985
-0.070409
-0.0690952
-0.062606
-0.0596251
-0.0573931
-0.0555618
-0.0543284
0.164118
3.42528
0.238147
-0.0695135
-0.0671791
-0.0634431
-0.0613043
-0.0596602
-0.0584071
-0.057677
387.087
386.542
385.423
383.906
382.142
380.292
378.518
376.989
375.861
375.076
388.064
387.307
386.036
384.318
382.329
380.269
378.281
376.519
375.19
374.274
389.443
388.65
387.29
385.305
382.939
380.398
377.861
375.559
373.786
372.672
391.925
391.035
389.422
386.948
383.907
380.556
377.107
373.85
371.2
369.697
395.752
394.802
392.764
389.56
385.542
380.968
376.034
371.086
366.958
364.855
401.594
400.295
397.53
393.173
387.603
381.138
374.321
367.86
362.594
359.721
411.032
409.03
405.198
399.271
391.594
382.294
370.682
343.481
301.895
289.025
424.893
421.93
416.574
408.601
369.581
299.016
194.208
107.733
44.5904
38.5924
433.512
404.619
339.994
221.131
97.293
27.4013
0.0560946
0.0481314
0.0963048
0.112122
315.398
216.446
94.6694
15.2919
-0.0730502
-0.0659066
-0.014489
0.028304
0.0261117
0.0511404
34.3282
0.124122
-0.0521565
-0.0632562
-0.0481457
-0.0558859
-0.053972
-0.04582
-0.0232205
0.0086636
-0.0924168
-0.0553471
-0.0931733
-0.105008
-0.0702168
-0.0542971
-0.0480022
-0.0385318
-0.0210231
-0.00946584
-0.0751237
0.127502
-0.0826746
-0.0584945
-0.0482443
-0.0429913
-0.0441638
-0.050356
-0.0295294
0.00648865
-0.0579179
-0.0306326
-0.0723749
-0.0689532
-0.0522284
-0.0546758
-0.053272
-0.0503226
-0.0439304
-0.00702151
0.0172502
-0.0425019
-0.0652136
-0.0667178
-0.0606443
-0.0584398
-0.0540503
-0.0510851
-0.0452156
-0.0320389
-0.102942
-0.0630771
0.00593525
-0.0664842
-0.0627318
-0.0599463
-0.0559632
-0.0526084
-0.0474391
-0.041426
-0.107779
-0.108716
0.321688
-0.0707071
-0.0653148
-0.0613102
-0.0578025
-0.0547258
-0.0504969
-0.0466968
-0.0405529
0.102424
0.495974
-0.0644239
-0.065833
-0.0618834
-0.0588872
-0.0563227
-0.0537103
-0.0516676
-0.028285
1.98723
0.397275
-0.0711066
-0.065882
-0.0624074
-0.0598258
-0.0576715
-0.0559127
-0.0548981
-0.035855
0.971347
0.0456771
-0.0666843
-0.064857
-0.0629321
-0.0610174
-0.0593508
-0.0581034
-0.0575452
384.708
384.213
383.337
382.15
380.788
379.359
378.016
376.864
376.008
375.39
385.15
384.603
383.645
382.339
380.837
379.302
377.801
376.476
375.469
374.757
386.15
385.554
384.462
382.948
381.171
379.272
377.376
375.655
374.306
373.395
387.906
387.147
385.811
383.919
381.671
379.224
376.679
374.248
372.236
370.98
390.696
389.683
387.988
385.553
382.637
379.37
375.67
372.04
368.95
367.146
394.876
393.412
391.028
387.624
383.502
378.796
373.976
368.711
363.991
361.542
401.749
399.697
396.339
391.617
386.103
379.959
371.478
351.363
320.365
312.978
412.665
409.473
397.2
369.038
334.726
285.428
205.79
127.881
64.8478
60.1344
321.913
266.312
188.076
98.1963
35.2949
6.97061
-0.0050312
0.0281568
0.0474108
0.0648916
65.6993
31.4206
6.6218
-0.0750573
-0.0664893
-0.0363127
-0.0139942
0.0312591
0.0116692
0.0254216
-0.035969
-0.0414249
0.0170924
-0.0521992
-0.0609923
-0.0610518
-0.0430278
-0.0199785
-0.0244507
0.00184752
-0.0732137
-0.0701236
0.0374424
-0.0669444
-0.0706591
-0.0550783
-0.0455278
-0.0485038
-0.0136759
-0.00753678
-0.0665142
-0.0664648
-0.0374537
-0.0280891
-0.0289083
-0.043957
-0.0404654
-0.052248
-0.0248666
0.0346929
-0.0558382
-0.0494755
-0.0325376
-0.0585225
-0.0469296
-0.0566445
-0.0537547
-0.0527822
-0.0469186
0.00616202
-0.0508241
-0.0548168
-0.0512213
-0.0622042
-0.0595604
-0.0583023
-0.0554871
-0.0537147
-0.0488656
-0.0386131
-0.0736793
-0.0692082
-0.0587398
-0.0658586
-0.0618657
-0.0603435
-0.0583063
-0.0565393
-0.0514074
-0.0454487
-0.0840365
-0.0841737
-0.0616199
-0.0690339
-0.0638344
-0.0618206
-0.0601937
-0.0586965
-0.0554753
-0.051403
-0.0728709
-0.0787015
-0.0618193
-0.0692087
-0.0643688
-0.0619683
-0.0602215
-0.0587207
-0.0566659
-0.0543521
-0.0594926
-0.0709245
-0.0636773
-0.0672097
-0.0640329
-0.0617405
-0.0597569
-0.0579139
-0.0564146
-0.0556725
-0.0630322
-0.0636338
-0.0659081
-0.0649835
-0.0635938
-0.0619939
-0.0602318
-0.0585196
-0.0572983
-0.0571074
382.142
381.784
381.142
380.303
379.362
378.419
377.542
376.799
376.244
375.807
382.189
381.84
381.16
380.282
379.304
378.298
377.333
376.492
375.845
375.341
382.607
382.189
381.413
380.41
379.272
378.076
376.9
375.838
374.986
374.329
383.279
382.723
381.774
380.568
379.221
377.744
376.217
374.745
373.494
372.568
384.372
383.614
382.428
380.972
379.348
377.317
375.156
372.997
371.057
369.681
386.144
384.942
383.226
381.155
378.76
376.307
373.475
370.089
366.759
364.986
389.731
387.652
384.969
382.291
379.76
376.293
370.498
358.821
341.138
338.996
367.101
340.554
313.754
298.221
284.138
247.612
197.847
149.598
99.4308
99.5802
137.525
103.562
64.6718
27.1595
6.80038
0.0363549
0.0216985
0.0163414
0.010832
0.0383061
0.0532015
-0.0284479
-0.0143062
-0.0315728
-0.0155648
-0.00853403
0.000742679
0.0223125
-0.00283964
0.0119783
-0.0344354
-0.0294644
0.0829643
0.23471
-0.00749518
-0.0509549
0.00175231
0.1567
0.121083
0.0261397
-0.0607526
-0.0534132
-0.0599907
-0.0281641
-0.0450811
-0.0347988
-0.0241304
-0.0488603
0.139414