/*--------------------------------*- C++ -*----------------------------------*\
| =========                 |                                                 |
| \\      /  F ield         | OpenFOAM: The Open Source CFD Toolbox           |
|  \\    /   O peration     | Version:  2312                                  |
|   \\  /    A nd           | Website:  www.openfoam.com                      |
|    \\/     M anipulation  |                                                 |
\*---------------------------------------------------------------------------*/
FoamFile
{
    version     2.0;
    format      ascii;
    arch        "LSB;label=32;scalar=64";
    class       volScalarField;
    location    "0.175";
    object      alpha.water;
}
// * * * * * * * * * * * * * * * * * * * * * * * * * * * * * * * * * * * * * //

dimensions      [0 0 0 0 0 0 0];

internalField   nonuniform List<scalar> 
8000
(
1
1
1
1
1
1
1
1
1
1
1
1
1
1
1
1
1
1
1
1
1
1
1
1
1
1
1
1
1
1
1
1
1
1
1
1
1
1
1
1
1
1
1
1
1
1
1
1
1
1
1
1
1
1
1
1
1
1
1
1
1
1
1
1
1
1
1
1
1
1
1
1
1
1
1
1
1
1
1
1
0.771137
0.781345
0.79975
0.824188
0.85207
0.881043
0.909204
0.933621
0.950548
0.958371
0.0808873
0.0874767
0.100971
0.121938
0.151401
0.192892
0.249498
0.318428
0.384063
0.420672
0.00010147
0.000114248
0.000145689
0.000220359
0.000398216
0.000764148
0.00137151
0.0025074
0.0103715
0.0212093
6.53764e-06
7.9047e-06
1.07718e-05
1.81763e-05
4.0475e-05
9.78753e-05
0.000214108
0.000417317
0.000561158
0.000743215
3.71553e-07
4.79023e-07
6.63959e-07
1.21098e-06
3.04539e-06
8.8563e-06
2.34988e-05
5.77888e-05
9.50312e-05
5.45829e-05
1.91263e-08
2.67491e-08
3.69817e-08
6.76475e-08
1.77e-07
5.55367e-07
1.75036e-06
5.16362e-06
1.16798e-05
1.12405e-05
8.44722e-10
1.31744e-09
1.75897e-09
3.12882e-09
8.02072e-09
2.51049e-08
8.34996e-08
2.89436e-07
8.61515e-07
1.6391e-06
4.3103e-11
7.17268e-11
8.61249e-11
1.28152e-10
3.03963e-10
9.16288e-10
2.99065e-09
1.06673e-08
3.46449e-08
6.88108e-08
2.31235e-12
4.22794e-12
4.89848e-12
7.40023e-12
1.49445e-11
3.5303e-11
8.91566e-11
3.10787e-10
1.00692e-09
2.02848e-09
4.41386e-13
7.09478e-13
7.10667e-13
6.1964e-13
7.11256e-13
1.63715e-12
3.9716e-12
1.12101e-11
2.8126e-11
4.92153e-11
2.37855e-14
4.98432e-14
6.5591e-14
9.18085e-14
1.48076e-13
2.49399e-13
1.96457e-13
4.00289e-13
1.01833e-12
1.82978e-12
6.0129e-16
1.53891e-15
2.08195e-15
3.41833e-15
6.23654e-15
1.1474e-14
2.81758e-14
6.4244e-14
1.18532e-13
1.64328e-13
1
1
1
1
1
1
1
1
1
1
1
1
1
1
1
1
1
1
1
1
1
1
1
1
1
1
1
1
1
1
1
1
1
1
1
1
1
1
1
1
1
1
1
1
1
1
1
1
1
1
1
1
1
1
1
1
1
1
1
1
1
1
1
1
1
1
1
1
1
1
1
1
1
1
1
1
1
1
1
1
0.781442
0.792315
0.811707
0.838555
0.870841
0.905783
0.937981
0.959913
0.969283
0.971562
0.0875451
0.0950649
0.109816
0.134113
0.1741
0.237678
0.333434
0.45639
0.581308
0.667627
0.000114499
0.00013116
0.000168891
0.000261407
0.000458345
0.00070961
0.00167534
0.0233361
0.0733054
0.124996
7.92694e-06
9.69793e-06
1.3013e-05
2.1379e-05
3.97174e-05
6.57815e-05
8.55399e-05
0.000117693
1.18606e-06
3.75319e-08
4.80908e-07
6.38993e-07
9.02247e-07
1.5294e-06
3.02553e-06
5.08721e-06
8.9236e-06
1.1771e-05
1.31215e-06
7.48698e-08
2.6856e-08
3.96952e-08
5.62415e-08
1.00881e-07
1.99007e-07
3.51407e-07
7.35406e-07
1.51421e-06
2.22392e-06
6.84052e-06
1.32261e-09
2.21083e-09
3.05512e-09
5.44346e-09
1.09964e-08
1.93796e-08
3.77625e-08
9.39448e-08
9.32661e-07
3.00215e-06
7.19801e-11
1.27866e-10
1.60048e-10
2.56371e-10
5.09457e-10
8.97933e-10
1.67997e-09
3.95808e-09
1.39662e-08
8.18829e-08
4.24173e-12
8.58203e-12
1.07089e-11
1.66812e-11
2.99878e-11
4.98538e-11
8.31927e-11
1.5247e-10
2.72312e-10
5.21999e-10
7.10131e-13
1.10469e-12
1.0246e-12
9.14517e-13
1.62183e-12
2.7248e-12
4.47559e-12
8.73716e-12
1.41008e-11
1.85332e-11
5.0019e-14
1.13235e-13
1.39178e-13
1.88931e-13
2.93021e-13
4.44601e-13
6.10637e-13
7.24472e-13
9.30282e-13
1.53875e-12
1.54569e-15
4.34514e-15
5.90106e-15
9.33658e-15
1.4732e-14
2.47002e-14
5.22676e-14
1.21605e-13
3.11009e-13
5.38571e-13
1
1
1
1
1
1
1
1
1
1
1
1
1
1
1
1
1
1
1
1
1
1
1
1
1
1
1
1
1
1
1
1
1
1
1
1
1
1
1
1
1
1
1
1
1
1
1
1
1
1
1
1
1
1
1
1
1
1
1
1
1
1
1
1
1
1
1
1
1
1
1
1
1
1
1
1
1
1
1
1
0.800079
0.811922
0.83419
0.866528
0.905889
0.94453
0.972477
0.986664
0.992525
0.994095
0.10113
0.109947
0.130073
0.171959
0.250267
0.380363
0.548524
0.72369
0.859115
0.944756
0.000144571
0.000168312
0.000249254
0.000442955
0.00065845
0.00647077
0.0406526
0.0813088
0.133313
0.201705
1.06468e-05
1.29205e-05
1.97137e-05
3.47198e-05
4.67463e-05
4.92512e-05
1.61562e-07
7.71089e-08
3.96538e-08
3.96537e-08
6.5369e-07
8.9374e-07
1.27643e-06
2.23632e-06
2.75616e-06
2.67537e-06
2.03041e-06
7.64457e-07
1.06034e-06
3.9266e-08
3.63562e-08
5.56171e-08
7.90922e-08
1.20438e-07
1.40673e-07
1.26761e-07
1.51711e-07
8.6979e-08
4.80264e-08
4.72154e-08
1.72817e-09
3.01916e-09
3.99469e-09
5.98747e-09
7.00798e-09
6.32161e-09
7.11821e-09
9.82526e-09
3.69628e-08
1.35643e-07
8.50785e-11
1.58618e-10
1.8733e-10
2.65637e-10
3.15449e-10
3.15484e-10
3.14021e-10
4.4815e-10
1.09139e-09
7.84843e-09
4.83869e-12
1.06111e-11
1.19994e-11
1.58251e-11
1.7654e-11
1.65693e-11
1.73228e-11
2.41059e-11
4.14242e-11
7.66315e-11
7.13928e-13
1.03229e-12
7.91306e-13
8.35076e-13
9.51823e-13
1.26923e-12
3.67474e-12
6.22569e-12
9.48823e-12
7.89979e-12
6.53914e-14
1.38645e-13
1.55041e-13
1.86774e-13
2.40943e-13
3.31037e-13
6.43223e-13
1.42823e-12
3.14524e-12
2.84193e-12
2.07313e-15
5.85746e-15
7.33102e-15
9.50486e-15
1.30547e-14
2.59633e-14
1.28782e-13
5.11876e-13
1.56535e-12
7.01099e-13
1
1
1
1
1
1
1
1
1
1
1
1
1
1
1
1
1
1
0.999999
0.999995
1
1
1
1
1
1
1
1
0.999997
0.999992
1
1
1
1
1
1
1
1
0.999997
0.999991
1
1
1
1
1
1
1
1
0.999998
0.999991
1
1
1
1
1
1
1
1
0.999998
0.999992
1
1
1
1
1
1
1
1
0.999997
0.999984
1
1
1
1
1
1
1
1
0.999999
0.999993
0.824854
0.83905
0.866775
0.906709
0.948123
0.97872
0.997178
0.999996
0.99999
0.999902
0.122351
0.134502
0.172201
0.258447
0.420223
0.629292
0.793118
0.871049
0.936163
0.977866
0.000217932
0.000260112
0.000444079
0.000651606
0.0162075
0.0659657
0.0892432
0.0925248
0.112442
0.146014
1.77405e-05
2.11248e-05
3.48557e-05
4.65605e-05
4.44093e-05
1.37816e-07
8.71687e-08
5.12883e-08
3.48754e-08
3.96341e-08
1.17267e-06
1.49898e-06
2.24487e-06
2.39743e-06
1.95263e-06
5.26978e-07
3.4094e-06
5.91645e-07
1.77674e-08
4.20968e-08
6.52353e-08
9.87335e-08
1.20324e-07
1.09587e-07
7.35634e-08
1.88429e-08
1.47638e-07
2.46027e-08
1.09406e-08
1.0496e-08
3.01309e-09
5.31945e-09
5.99597e-09
5.05908e-09
2.58481e-09
6.56062e-10
3.03778e-10
3.26559e-10
3.77223e-10
6.19193e-10
1.24379e-10
2.515e-10
2.65751e-10
2.29534e-10
1.4269e-10
2.38541e-11
1.46501e-11
2.19683e-11
2.82619e-11
4.25179e-11
7.18871e-12
1.6386e-11
1.58319e-11
1.24358e-11
7.83149e-12
3.94694e-12
1.94533e-12
1.03964e-11
9.63897e-12
4.94181e-12
6.35615e-13
9.04313e-13
8.35715e-13
6.81029e-13
1.2368e-12
1.84608e-12
3.3782e-12
8.79903e-12
7.40213e-12
2.1401e-12
9.11933e-14
1.87334e-13
1.86543e-13
1.83131e-13
2.05035e-13
4.32736e-13
1.7707e-12
6.40302e-12
4.19859e-12
5.26219e-13
3.38672e-15
9.26216e-15
9.49363e-15
1.02085e-14
1.98466e-14
1.87564e-13
1.25074e-12
6.07482e-12
2.44663e-12
4.90775e-13
1
1
1
1
1
1
1
1
0.999996
0.999985
1
1
1
1
1
1
1
0.999994
0.99995
0.999819
1
1
1
1
1
1
0.999999
0.999988
0.999871
0.999671
1
1
1
1
1
1
0.999999
0.999981
0.999844
0.996073
1
1
1
1
1
1
0.999999
0.999982
0.999866
0.992867
1
1
1
1
1
1
0.999999
0.999988
0.999898
0.990402
1
1
1
1
1
1
0.999999
0.999984
0.999784
0.975902
1
1
1
1
1
1
1
0.999996
0.999926
0.990139
0.853124
0.871677
0.906494
0.948483
0.979836
0.998435
0.999993
0.999988
0.999901
0.999553
0.152388
0.174996
0.250935
0.420204
0.668947
0.848745
0.88839
0.802364
0.607715
0.483171
0.000399349
0.000458182
0.000662337
0.0159061
0.0811478
0.110452
0.0830737
0.0300027
2.14727e-07
5.20551e-08
4.02073e-05
3.94125e-05
4.72486e-05
4.45478e-05
2.82398e-07
2.59189e-07
1.61703e-07
7.07558e-08
1.72976e-08
4.24332e-08
2.99082e-06
2.97333e-06
2.77792e-06
1.96481e-06
2.27763e-06
4.9761e-06
2.79711e-06
4.53029e-07
4.47258e-09
4.14954e-07
1.72804e-07
1.93852e-07
1.41812e-07
7.38313e-08
7.67449e-08
1.54133e-07
3.85963e-08
1.30884e-08
3.96005e-09
1.05504e-08
7.81658e-09
1.07329e-08
7.01166e-09
2.59865e-09
4.16428e-10
6.11944e-11
1.40058e-11
1.21788e-11
1.58564e-11
6.29473e-11
2.96595e-10
4.97711e-10
3.16401e-10
1.42884e-10
1.58115e-11
3.03302e-12
7.32293e-13
2.18426e-12
1.38613e-12
3.17663e-11
1.46941e-11
2.95016e-11
1.77328e-11
7.8857e-12
3.45477e-12
1.19372e-12
2.04093e-13
1.06426e-11
6.35748e-12
4.59845e-11
7.01876e-13
1.59963e-12
9.56601e-13
1.26419e-12
2.16378e-12
5.35421e-13
1.55718e-13
1.15494e-11
5.70744e-12
4.52527e-11
1.47011e-13
2.91325e-13
2.41052e-13
2.19411e-13
8.74846e-13
1.53453e-13
1.268e-13
9.94161e-12
3.31799e-12
6.6811e-11
6.22738e-15
1.46861e-14
1.30457e-14
2.82528e-14
5.63197e-13
1.05212e-13
1.12028e-13
6.46389e-12
6.0328e-11
1.56192e-10
1
1
1
1
1
1
0.999999
0.999987
0.999871
0.99956
1
1
1
1
1
0.999999
0.999988
0.999817
0.968583
0.874444
1
1
1
1
1
0.999998
0.999974
0.994189
0.824239
0.639237
1
1
1
1
1
0.999998
0.999957
0.967855
0.705906
0.512584
1
1
1
1
1
0.999998
0.999958
0.953368
0.671502
0.475572
1
1
1
1
1
0.999999
0.999974
0.961274
0.678313
0.450264
1
1
1
1
1
0.999999
0.99997
0.958788
0.632942
0.357868
1
1
1
1
1
1
0.999993
0.993615
0.761867
0.439249
0.88252
0.907066
0.945535
0.979437
0.998727
0.999991
0.999978
0.998959
0.810166
0.505719
0.195227
0.240024
0.382341
0.628867
0.847742
0.911155
0.738224
0.29804
0.120466
2.20654e-05
0.000784898
0.000716202
0.00647349
0.0652039
0.109655
0.0917923
0.0172737
1.52057e-06
4.85122e-06
6.63663e-08
0.000101107
6.53632e-05
4.98265e-05
1.1074e-07
2.39073e-07
2.72328e-07
2.59205e-07
1.79953e-07
3.68619e-06
4.21825e-08
9.13462e-06
5.05228e-06
2.69073e-06
5.36645e-07
5.11836e-06
2.07922e-06
1.41794e-06
1.72328e-07
2.00853e-10
2.5433e-07
5.71535e-07
3.48459e-07
1.26409e-07
1.90194e-08
1.54522e-07
6.7742e-08
2.15935e-11
1.26369e-11
1.58564e-11
9.87034e-11
2.58172e-08
1.90924e-08
6.26395e-09
6.5564e-10
6.47115e-11
6.84176e-12
2.61858e-12
2.09538e-12
1.38613e-12
7.34151e-10
9.46004e-10
8.92338e-10
3.14844e-10
2.49621e-11
5.65469e-12
2.61858e-12
1.73922e-12
1.6139e-12
7.71302e-13
1.76505e-09
3.64444e-11
4.98309e-11
1.66243e-11
3.9552e-12
5.69351e-12
3.87561e-10
1.06249e-10
7.10189e-13
6.40183e-13
2.4094e-09
1.69805e-12
2.73606e-12
1.27692e-12
1.84163e-12
1.63447e-11
5.86356e-10
2.04093e-13
4.9946e-13
5.7907e-13
2.43618e-09
2.52482e-13
4.489e-13
3.32159e-13
4.20141e-13
1.50198e-11
5.93121e-10
1.41606e-13
3.13638e-13
5.22091e-13
1.99278e-09
1.17174e-14
2.50261e-14
2.50955e-14
1.69988e-13
1.21607e-11
5.14027e-10
1.20068e-13
3.06864e-13
4.78896e-13
7.64346e-10
1
1
1
1
1
0.999999
0.999976
0.998653
0.939834
0.824865
1
1
1
1
1
0.999988
0.999699
0.860828
0.37812
0.157501
1
1
1
1
0.999999
0.999973
0.984637
0.560237
0.0908884
0.000206686
1
1
1
1
0.999999
0.999956
0.94509
0.366021
0.0108367
0.000201494
1
1
1
1
0.999999
0.999957
0.922098
0.30195
0.000234923
0.000205507
1
1
1
1
0.999999
0.999972
0.935212
0.343346
0.0107484
0.000205966
1
1
1
1
0.999999
0.999968
0.937055
0.377297
0.0430609
0.000195451
1
1
1
1
1
0.999992
0.983807
0.575588
0.0743019
0.000184633
0.911206
0.939717
0.973653
0.997775
0.999992
0.999976
0.994799
0.476414
0.00771882
0.0243924
0.254757
0.33948
0.553381
0.79417
0.887376
0.734044
0.240468
0.014515
0.000135323
0.00450987
0.00143717
0.00197232
0.0418407
0.0893817
0.08153
0.0160722
2.70381e-06
9.73102e-05
0.0016853
8.98305e-08
0.000228694
8.73707e-05
1.34344e-07
6.64503e-08
1.34479e-07
2.388e-07
1.65962e-06
1.18915e-05
4.27836e-05
1.69269e-10
2.56332e-05
9.1203e-06
2.01609e-06
3.5856e-06
2.97911e-06
1.37958e-06
3.37468e-07
4.5826e-10
3.2017e-10
1.788e-10
1.92238e-06
7.68731e-07
1.43197e-07
1.48459e-07
3.86623e-08
2.16777e-11
9.42231e-09
4.35875e-10
1.19762e-10
1.73567e-10
9.26619e-08
3.9428e-08
7.1204e-09
3.01633e-10
1.47966e-11
2.97965e-12
1.20615e-07
5.48805e-11
4.69055e-08
2.4317e-10
3.35472e-09
1.7581e-09
3.18015e-10
1.57824e-11
1.67062e-12
2.31424e-12
3.16175e-07
2.09538e-12
1.38613e-12
4.37627e-11
1.01142e-10
8.69656e-11
1.77493e-11
2.51262e-12
8.46484e-13
1.24578e-10
3.51548e-07
1.65642e-10
7.71302e-13
3.76216e-11
4.47596e-12
4.70985e-12
3.84318e-12
1.98912e-12
1.8276e-12
4.17619e-13
3.2256e-07
7.15696e-13
6.40183e-13
3.32416e-11
1.85151e-13
6.30713e-13
6.79611e-13
5.19671e-13
1.20429e-12
4.3074e-13
2.7396e-07
1.0929e-08
8.81638e-11
5.15162e-11
3.04502e-14
5.57404e-14
1.31619e-13
1.76791e-13
8.62714e-13
2.2082e-13
2.63468e-07
1.07268e-08
1.60499e-12
3.15224e-11
1
1
1
1
1
0.999987
0.998859
0.848402
0.438378
0.244244
1
1
1
1
0.999994
0.999811
0.858621
0.164207
0.000312028
0.00024199
1
1
1
1
0.999987
0.993699
0.554498
0.000347737
0.000276324
0.000205777
1
1
1
1
0.99998
0.965566
0.356746
0.000274243
0.000368032
0.000333234
1
1
1
1
0.999981
0.950394
0.292751
0.000209958
0.000586845
0.000717493
1
1
1
1
0.999987
0.95645
0.326587
0.000191244
0.000542036
0.000771408
1
1
1
1
0.999983
0.952945
0.358799
0.000209958
0.000190361
0.000460324
1
1
1
1
0.999995
0.991623
0.55987
0.00506655
0.000184633
0.000178802
0.936136
0.96169
0.987512
0.999995
0.999987
0.999059
0.480708
0.00726379
0.000135323
5.75009e-05
0.328737
0.468214
0.732666
0.8744
0.797872
0.290898
0.0122636
0.00145938
3.27924e-05
2.65946e-05
0.00292571
0.0263733
0.0843807
0.0939859
0.0289227
1.0088e-06
4.11747e-05
0.000187964
3.97225e-05
2.07105e-05
0.000457263
0.00012116
6.13373e-08
3.83737e-08
5.96524e-08
1.34189e-07
9.46762e-06
2.33012e-05
2.52276e-06
8.96778e-08
6.50971e-05
1.13266e-05
7.18008e-07
5.19603e-07
6.43978e-07
1.24459e-07
1.6945e-10
5.94986e-06
3.44621e-07
6.92163e-05
6.01845e-06
1.68292e-06
9.11677e-08
2.32515e-08
4.89718e-09
3.61593e-09
5.2835e-11
9.11222e-06
-4.20535e-10
0.000256074
3.50759e-07
1.1145e-07
1.06822e-08
3.68105e-10
1.21071e-11
2.42188e-12
3.58346e-11
1.54595e-05
2.11362e-06
0.000256789
1.32659e-08
4.87543e-09
4.96191e-10
2.26317e-11
1.01669e-12
1.34939e-12
2.53042e-09
9.78335e-06
1.27356e-07
0.000256644
3.94418e-10
1.72299e-10
2.70067e-11
4.9844e-12
3.07547e-13
4.17618e-13
1.5405e-07
1.38686e-06
7.24512e-06
0.000255937
1.3951e-11
9.9789e-12
6.92986e-12
3.44857e-12
2.51285e-13
3.05542e-13
4.63576e-07
2.83553e-06
0.000193344
0.00024779
5.01377e-13
7.12287e-13
1.50727e-12
1.34857e-12
2.18799e-13
6.1251e-13
5.25759e-07
1.576e-08
0.000375511
5.47355e-05
7.40303e-14
1.43161e-13
5.29092e-13
5.80475e-13
1.73019e-13
1.77776e-13
3.35174e-07
1.16716e-08
0.000370043
1.02416e-05
1
1
1
1
0.999996
0.999874
0.942184
0.447046
0.129919
0.0953599
1
1
1
0.999999
0.999948
0.966226
0.370404
0.000353771
0.000368138
0.000312028
1
1
1
0.999997
0.999865
0.816836
0.0857797
0.00031173
0.000430907
0.000276324
1
1
1
0.999997
0.999837
0.69284
0.00709383
0.000382672
0.00523151
0.0024548
1
1
1
0.999998
0.999861
0.655677
0.000245678
0.000519042
0.00886809
0.00698103
1
1
1
0.999998
0.999897
0.662958
0.00480904
0.000493809
0.00886809
0.00295222
1
1
1
0.999997
0.999623
0.620097
0.032216
0.000209958
0.0089069
6.7022e-05
1
1
1
0.999999
0.999922
0.749042
0.0771549
0.000225925
0.00876917
9.69112e-06
0.953319
0.970612
0.993388
0.99999
0.999892
0.800094
0.0111023
0.000112235
0.00487856
8.02596e-05
0.399771
0.600683
0.8686
0.936004
0.585257
0.108258
0.000112235
3.03598e-05
8.99895e-06
0.000263298
0.0129616
0.0791897
0.135801
0.109418
1.19878e-07
2.34211e-06
0.000851475
2.30867e-05
3.21221e-06
0.000263434
0.000612058
9.76147e-07
3.31132e-08
3.15758e-08
1.74401e-08
9.79522e-07
1.94941e-05
5.99526e-07
1.56982e-06
9.28977e-05
8.95689e-05
1.0219e-06
9.96143e-07
1.74401e-08
2.71513e-09
1.55528e-10
7.50482e-11
1.19073e-06
4.90707e-07
2.8251e-06
1.19604e-05
3.00838e-06
3.67993e-08
9.08282e-09
4.08188e-09
3.89123e-11
6.11254e-11
1.95865e-06
1.48592e-07
7.99787e-05
1.09715e-06
1.49246e-06
6.37551e-08
4.58236e-10
4.09208e-11
2.15067e-11
3.89123e-11
1.616e-05
5.06757e-05
0.000126016
4.64437e-08
2.80504e-08
1.87534e-09
6.6123e-11
3.10774e-10
1.15267e-10
5.84015e-11
0.000319721
0.000413561
0.000103189
1.39393e-09
3.56101e-10
4.93978e-11
3.29664e-11
3.30718e-10
1.34987e-12
2.34493e-09
0.000462928
0.000464128
6.25025e-05
3.72226e-11
1.679e-11
7.88948e-12
2.98555e-11
2.57279e-10
4.17619e-13
6.17041e-12
0.0004635
0.000460968
4.23503e-05
1.37571e-12
1.11172e-12
3.4979e-12
2.58683e-11
1.24668e-10
4.30708e-13
1.85788e-12
0.000458643
0.00037402
3.35085e-05
1.3129e-13
3.26527e-13
1.86907e-12
2.31624e-11
6.79423e-11
2.2082e-13
9.54322e-13
0.000434968
5.36383e-05
3.27656e-05
1
1
1
1
0.999985
0.999568
0.827817
0.254564
0.10287
0.205676
1
1
1
0.999995
0.99981
0.866814
0.148829
0.000275894
0.000353771
0.000721916
1
1
1
0.999992
0.999594
0.620414
0.00019275
0.00021027
0.00031173
0.00492955
1
1
1
0.99999
0.994211
0.488652
0.00021027
0.000302652
0.00218794
0.000376645
1
1
1
0.999991
0.990569
0.456061
0.000205071
0.000716277
0.00720854
0.000395719
1
1
1
0.999992
0.989319
0.444081
0.000178733
0.00084518
0.00404019
0.000576298
1
1
1
0.999982
0.972097
0.342074
0.000173892
0.000524066
6.62536e-05
0.000315149
1
1
1
0.999992
0.986745
0.414772
0.00017509
0.000233471
1.17072e-05
5.17711e-06
0.961177
0.97286
0.995684
0.999894
0.99953
0.490344
0.0241719
5.82192e-05
7.48494e-05
5.17711e-06
0.440221
0.690583
0.947178
0.96797
0.452274
1.71534e-05
0.004798
4.95338e-05
0.000285135
5.16386e-06
0.0255128
0.12845
0.195734
0.131652
4.74559e-08
2.11389e-07
3.61895e-06
8.80038e-05
0.000292276
5.08584e-06
0.00079458
3.08899e-08
3.2932e-08
2.82969e-08
3.15758e-08
4.74668e-08
7.04464e-07
0.000426665
0.000214389
4.62056e-06
5.3481e-05
5.99381e-08
2.8292e-08
2.40943e-08
2.75695e-07
1.73441e-07
2.63837e-10
0.000432708
1.74052e-05
3.80082e-06
1.16264e-05
7.13045e-06
3.17839e-08
5.3398e-10
8.36796e-11
6.11303e-11
6.84522e-11
0.000433007
0.000112708
2.02395e-06
2.12018e-06
3.58767e-06
1.53349e-07
7.67094e-10
2.02458e-10
8.39839e-10
5.84015e-11
0.000430492
0.000160944
1.46816e-06
9.09413e-08
1.55882e-07
1.4302e-08
6.87431e-11
1.77361e-10
1.08616e-10
5.66847e-11
0.000428858
0.000156378
1.87553e-06
2.79703e-09
7.19766e-10
1.28e-10
1.53388e-11
2.13921e-10
4.65006e-11
3.25597e-11
0.00042054
9.38293e-05
3.30544e-06
6.94129e-11
2.61142e-11
7.00909e-12
1.15192e-11
2.18007e-10
1.26165e-11
1.09895e-11
5.68572e-05
5.59855e-05
6.33337e-06
2.56104e-12
2.02717e-12
2.94681e-12
5.29766e-12
2.05894e-10
1.69652e-11
1.15344e-11
2.93818e-05
4.19607e-05
6.3105e-06
1.52698e-13
6.8075e-13
8.42656e-13
3.10646e-12
2.18246e-10
2.92917e-11
1.64876e-11
9.19184e-05
3.02644e-05
2.92511e-06
1
1
1
1
0.999986
0.999587
0.831946
0.263191
0.11105
0.20779
1
1
1
0.999995
0.999819
0.871226
0.154683
0.000244371
0.000309996
0.000417263
1
1
1
0.999992
0.999635
0.623617
0.000197846
0.000193635
0.000387133
0.00535517
1
1
1
0.999991
0.994557
0.492984
0.000197846
0.000236474
0.000279989
0.000347373
1
1
1
0.999991
0.990618
0.4559
0.000215234
0.000282877
0.00145357
0.000378329
1
1
1
0.999992
0.988433
0.43461
0.00018776
0.000740257
0.00822636
0.000650439
1
1
1
0.999982
0.969803
0.331564
0.00017509
0.000812848
0.00712828
0.000281888
1
1
1
0.999992
0.985892
0.408257
0.000173892
0.00060736
0.000937685
2.29054e-05
0.96103
0.972356
0.995313
0.999894
0.999533
0.481084
0.0251435
3.80074e-05
2.71424e-05
2.02008e-05
0.441193
0.697061
0.951745
0.967483
0.438086
9.55035e-06
0.00472221
4.64492e-05
0.000219038
1.75355e-05
0.026802
0.134027
0.203014
0.135821
4.63403e-08
1.9161e-07
1.76934e-06
1.68104e-05
0.000292795
7.43475e-06
0.000813867
3.09306e-08
3.31032e-08
3.30913e-08
3.2206e-08
7.62738e-08
8.14908e-11
0.000189093
0.000279957
4.07629e-06
5.18765e-05
6.74189e-08
3.31001e-08
3.3551e-08
2.93879e-07
1.49946e-07
7.68143e-11
0.000432647
3.99329e-05
3.69065e-06
1.19261e-05
7.7529e-06
4.58155e-08
8.32317e-09
8.36001e-09
6.24951e-11
6.84366e-11
0.000430886
2.24023e-05
1.70555e-06
2.16216e-06
3.75282e-06
1.63986e-07
7.51362e-10
9.17109e-11
6.18158e-10
6.75617e-11
0.000424728
4.05485e-05
1.18691e-06
9.20277e-08
1.5256e-07
1.45588e-08
6.10939e-11
4.63339e-11
8.83205e-10
3.42838e-11
0.000106974
3.32846e-05
2.81312e-06
2.81373e-09
7.26883e-10
1.31396e-10
5.93145e-12
4.34349e-11
1.01286e-09
4.24115e-11
1.03462e-05
5.69548e-05
4.8978e-06
6.93532e-11
2.6251e-11
7.91712e-12
1.73149e-12
6.68212e-11
1.05473e-09
1.01388e-10
2.79692e-05
0.000112614
5.42417e-06
2.53863e-12
2.03267e-12
3.30224e-12
6.21432e-13
1.2732e-10
1.59697e-09
9.75882e-11
5.61061e-05
5.88513e-05
3.88568e-06
1.52741e-13
6.91153e-13
8.74832e-13
6.10602e-13
4.35915e-11
3.73346e-09
5.58644e-11
9.4453e-05
3.11154e-05
2.56833e-06
1
1
1
1
0.999996
0.999881
0.947327
0.463403
0.134553
0.0893728
1
1
1
0.999999
0.999951
0.968944
0.380277
0.000309996
0.000337676
0.000339967
1
1
1
0.999997
0.999869
0.822267
0.0917419
0.000244371
0.000351718
0.000338566
1
1
1
0.999997
0.999839
0.69801
0.00976607
0.000279989
0.00293435
0.00136309
1
1
1
0.999998
0.999861
0.656674
0.000235873
0.000383087
0.00869057
0.00668664
1
1
1
0.999998
0.999894
0.659588
0.00594616
0.000464001
0.00869057
0.00539133
1
1
1
0.999997
0.999472
0.614697
0.0309308
0.00024143
0.00875571
8.36189e-05
1
1
1
0.999999
0.999922
0.744582
0.0676042
0.000216233
0.00866581
2.55098e-05
0.95296
0.969803
0.992625
0.99999
0.999893
0.798294
0.0107835
7.52155e-05
0.00771702
9.68526e-05
0.400626
0.604107
0.873007
0.938848
0.582569
0.103725
7.52154e-05
1.31396e-05
0.001183
0.00032228
0.013844
0.0834526
0.141646
0.113632
5.55292e-08
8.12899e-07
0.000487029
7.32674e-06
1.66948e-06
0.000347365
0.000626301
5.69624e-07
3.33155e-08
3.11923e-08
1.62381e-08
2.13664e-09
6.45877e-06
2.14549e-06
1.04823e-06
6.19316e-05
8.59022e-05
1.30581e-06
1.26155e-06
1.94842e-08
2.19882e-09
1.72545e-10
8.14908e-11
4.79904e-06
7.05317e-07
6.65813e-07
1.20905e-05
3.49515e-06
4.20958e-08
9.84318e-09
4.58797e-09
5.1887e-11
8.07567e-11
3.04605e-06
1.27617e-06
4.40375e-06
1.09364e-06
1.57293e-06
7.09533e-08
4.68017e-10
2.26884e-11
4.80821e-12
2.78364e-08
3.15807e-06
2.01818e-06
4.88102e-05
4.5558e-08
2.58863e-08
1.73379e-09
3.84972e-11
6.34255e-12
3.89002e-12
4.80821e-12
7.49489e-05
1.56441e-05
6.61973e-05
1.34465e-09
3.45321e-10
5.02246e-11
7.59025e-12
2.63222e-11
4.42538e-12
5.55648e-12
0.000158772
0.000115049
4.09456e-05
3.54416e-11
1.58886e-11
1.01203e-11
5.70097e-12
2.19803e-11
2.57475e-12
5.06843e-09
0.000159037
0.000158915
2.12602e-05
1.28602e-12
1.03663e-12
3.88284e-12
2.84171e-12
1.8332e-11
3.94109e-12
5.41628e-12
0.000158826
0.000158621
1.41601e-05
1.26002e-13
2.94681e-13
2.12685e-12
1.83384e-12
1.82039e-11
4.48021e-12
5.64868e-12
0.00015831
0.000158414
8.39438e-06
1
1
1
1
1
0.999988
0.999326
0.855053
0.433627
0.230455
1
1
1
1
0.999994
0.999817
0.864537
0.171875
0.000339967
0.000332142
1
1
1
1
0.999987
0.994374
0.562878
0.000351718
0.000338566
0.000299811
1
1
1
1
0.99998
0.967239
0.364062
0.000288109
0.000365166
0.000306407
1
1
1
1
0.999981
0.95168
0.297027
0.000241401
0.000597583
0.000671375
1
1
1
1
0.999987
0.956722
0.330867
0.000234665
0.00042611
0.000864575
1
1
1
1
0.999982
0.952549
0.358718
0.000241401
0.000225217
0.00045664
1
1
1
1
0.999995
0.991944
0.563381
0.000507809
0.000106938
0.000101407
0.935583
0.961116
0.987109
0.999995
0.999987
0.998696
0.470196
0.00837573
5.9555e-05
1.45694e-05
0.328076
0.466105
0.730382
0.87407
0.797534
0.283494
0.000917187
0.00201793
1.83696e-05
1.20594e-05
0.00295211
0.0264767
0.085365
0.0958085
0.029518
3.80557e-07
5.41138e-05
2.07006e-05
5.15835e-05
8.3309e-06
0.000458938
0.000122858
6.28172e-08
3.57473e-08
5.55292e-08
6.47338e-08
2.43019e-06
1.12159e-05
3.20891e-06
1.97751e-09
6.42692e-05
1.25114e-05
8.51759e-07
6.52358e-07
6.66277e-07
1.19026e-07
1.91541e-10
6.70123e-06
6.10195e-07
7.09585e-10
5.85908e-06
1.67486e-06
9.76266e-08
2.57037e-08
3.10234e-09
3.74033e-09
4.72751e-10
1.14307e-05
2.18019e-06
1.60888e-05
3.33164e-07
1.04617e-07
1.03206e-08
3.83287e-10
1.19632e-11
3.89002e-12
6.05489e-07
1.71154e-05
5.0937e-06
8.71283e-05
1.22883e-08
4.56465e-09
4.65115e-10
2.25746e-11
9.41549e-13
3.38314e-12
3.89169e-12
1.41759e-05
5.04869e-06
8.74024e-05
3.56066e-10
1.63666e-10
2.49452e-11
1.45738e-12
8.60088e-14
5.81083e-13
1.54216e-06
5.31127e-06
4.27367e-08
8.73911e-05
1.23979e-11
9.07871e-12
6.41725e-12
2.30349e-12
3.97338e-14
8.60088e-14
2.4377e-06
7.92122e-06
4.83961e-08
8.71496e-05
4.36015e-13
7.05318e-13
1.08632e-12
7.48036e-13
3.06832e-14
3.97338e-14
2.683e-06
9.29665e-06
4.06482e-06
6.04271e-05
6.62844e-14
1.17215e-13
1.58015e-13
1.70473e-13
2.83976e-14
3.06832e-14
2.10199e-06
7.37987e-06
8.07127e-05
3.34256e-08
1
1
1
1
1
0.999999
0.999977
0.998573
0.937481
0.818335
1
1
1
1
1
0.999989
0.99971
0.868071
0.389148
0.165264
1
1
1
1
0.999999
0.999974
0.985789
0.571499
0.0959721
0.000267589
1
1
1
1
0.999999
0.999957
0.947983
0.379284
0.014084
0.00027273
1
1
1
1
0.999999
0.999958
0.925683
0.314105
0.000753106
0.000255765
1
1
1
1
0.999999
0.999972
0.938548
0.359654
0.0118086
0.000193632
1
1
1
1
0.999999
0.999968
0.939236
0.384737
0.04324
0.000129948
1
1
1
1
1
0.999992
0.985563
0.586269
0.069973
0.000113548
0.910567
0.938966
0.973304
0.997852
0.999992
0.999977
0.993901
0.468171
0.00700538
0.0235874
0.252938
0.335497
0.546443
0.788243
0.883772
0.724739
0.230054
0.00695002
0.000188447
0.00323546
0.00141642
0.00172801
0.0399397
0.0877398
0.0797306
0.0136412
1.21885e-06
0.000108282
0.00183055
2.75441e-07
0.000222248
8.59554e-05
1.21934e-07
6.4875e-08
1.04025e-07
1.77178e-07
4.9581e-07
4.4492e-06
3.85039e-05
7.4457e-10
2.43396e-05
8.81581e-06
2.07236e-06
3.87907e-06
3.20115e-06
1.44533e-06
3.85649e-07
3.6867e-10
1.80307e-10
1.97576e-10
1.7788e-06
7.12119e-07
1.5664e-07
1.57114e-07
4.06314e-08
3.15497e-10
2.25112e-08
1.01859e-10
1.06948e-10
1.80308e-10
8.31752e-08
3.58165e-08
6.58776e-09
2.90274e-10
1.36432e-11
3.74243e-12
1.27906e-07
4.5398e-08
1.75197e-11
1.2422e-10
2.9229e-09
1.56227e-09
2.89385e-10
1.19684e-11
7.76782e-13
3.74187e-12
2.94844e-07
8.08982e-13
2.78381e-08
1.25055e-09
8.58525e-11
7.65838e-11
1.5902e-11
1.05031e-12
2.26677e-13
4.58001e-09
2.94092e-07
4.13986e-13
2.74856e-13
5.82417e-11
3.72788e-12
4.03121e-12
3.57026e-12
1.42438e-12
8.60088e-14
1.09551e-08
2.54639e-07
2.84389e-13
1.96123e-13
3.5466e-11
1.87969e-13
5.79863e-13
5.57553e-13
2.99362e-13
3.97338e-14
1.27175e-08
2.19732e-07
1.69351e-13
1.51895e-13
2.20359e-11
2.58501e-14
4.70898e-14
5.74483e-14
3.68476e-14
2.87614e-14
1.17505e-08
2.13869e-07
1.09394e-13
1.31824e-13
1.65734e-11
1
1
1
1
1
1
0.999999
0.999987
0.999868
0.99954
1
1
1
1
1
0.999999
0.999989
0.999826
0.971585
0.881851
1
1
1
1
1
0.999998
0.999975
0.994903
0.831082
0.652746
1
1
1
1
1
0.999998
0.999959
0.970587
0.718286
0.533888
1
1
1
1
1
0.999998
0.99996
0.957009
0.682873
0.48197
1
1
1
1
1
0.999999
0.999975
0.96476
0.683164
0.437886
1
1
1
1
1
0.999999
0.999971
0.961667
0.634209
0.35211
1
1
1
1
1
1
0.999993
0.99475
0.765633
0.444667
0.881896
0.906105
0.944693
0.979236
0.998743
0.999992
0.999978
0.998673
0.808201
0.505139
0.193553
0.236848
0.375357
0.619127
0.842471
0.909588
0.738883
0.298371
0.123308
1.49066e-05
0.000756144
0.000703236
0.00541823
0.0618644
0.107696
0.0912272
0.0177169
1.08172e-06
4.77633e-06
1.49134e-08
9.49094e-05
6.23721e-05
5.00512e-05
1.01402e-07
1.77181e-07
2.35237e-07
2.51201e-07
2.01624e-07
4.025e-06
1.97762e-09
8.34253e-06
4.774e-06
2.68148e-06
5.97287e-07
5.94235e-06
2.30453e-06
1.45932e-06
1.91086e-07
2.95307e-10
2.07657e-07
5.04118e-07
3.16661e-07
1.24273e-07
2.00626e-08
1.64374e-07
7.25362e-08
2.137e-11
1.22406e-11
1.75197e-11
1.2422e-10
2.20744e-08
1.70795e-08
5.82095e-09
6.8679e-10
6.21157e-11
5.52953e-12
1.42353e-12
7.8813e-13
8.91165e-13
9.27871e-10
7.84209e-10
7.75441e-10
2.85762e-10
2.35451e-11
4.25629e-12
1.42353e-12
1.07771e-12
4.13986e-13
2.74856e-13
1.79152e-09
3.01848e-11
4.29484e-11
1.4779e-11
3.29883e-12
3.85861e-12
3.71513e-10
3.00319e-13
2.68155e-13
1.96123e-13
3.0994e-09
1.3694e-12
2.30446e-12
1.20126e-12
1.46288e-12
1.36011e-11
5.96432e-10
7.06449e-14
1.54488e-13
1.51895e-13
2.92257e-09
2.21253e-13
3.9389e-13
2.97951e-13
1.6815e-13
1.32781e-11
5.87223e-10
3.57328e-14
8.55083e-14
1.31824e-13
3.0904e-09
9.69375e-15
2.10963e-14
1.72152e-14
1.21038e-15
1.10293e-11
5.06371e-10
2.6404e-14
6.35404e-14
1.09394e-13
2.94934e-09
1
1
1
1
1
1
1
1
0.999996
0.999984
1
1
1
1
1
1
1
0.999995
0.999953
0.999825
1
1
1
1
1
1
0.999999
0.999988
0.999874
0.999682
1
1
1
1
1
1
0.999999
0.999982
0.999849
0.997431
1
1
1
1
1
1
0.999999
0.999983
0.999868
0.99368
1
1
1
1
1
1
0.999999
0.999989
0.999895
0.989369
1
1
1
1
1
1
0.999999
0.999985
0.999777
0.974922
1
1
1
1
1
1
1
0.999996
0.999927
0.990515
0.852472
0.870746
0.905378
0.947622
0.979362
0.997995
0.999993
0.999988
0.999902
0.999559
0.151164
0.173127
0.246642
0.412281
0.66115
0.847408
0.891199
0.809811
0.62107
0.50184
0.000379057
0.000442009
0.000655226
0.0140551
0.0792644
0.111252
0.0869537
0.0328285
1.98193e-07
4.72751e-08
3.67357e-05
3.74275e-05
4.70267e-05
4.49412e-05
2.32165e-07
2.51183e-07
1.74154e-07
8.54233e-08
2.16827e-08
5.14471e-08
2.64406e-06
2.77633e-06
2.75007e-06
1.9812e-06
1.95562e-06
5.51962e-06
2.81124e-06
4.84108e-07
6.41195e-09
4.50898e-07
1.48917e-07
1.73966e-07
1.37748e-07
7.39346e-08
7.19535e-08
1.58984e-07
4.4211e-08
1.30197e-08
6.0993e-09
4.65824e-09
6.54271e-09
9.50107e-09
6.42652e-09
2.49883e-09
4.02858e-10
5.62491e-11
1.27443e-11
1.04017e-11
1.74409e-11
3.51012e-11
2.40695e-10
4.28762e-10
2.85786e-10
1.27724e-10
1.30588e-11
1.82347e-12
4.96915e-13
7.87426e-13
8.91161e-13
2.46116e-12
1.18537e-11
2.50757e-11
1.56586e-11
6.9905e-12
2.19209e-12
1.02112e-13
7.06449e-14
3.50922e-12
3.31602e-12
9.39763e-13
5.57844e-13
1.32356e-12
8.26182e-13
1.17276e-12
1.48683e-12
2.90197e-14
3.57328e-14
3.06923e-12
2.9738e-12
7.054e-13
1.2365e-13
2.49057e-13
2.10685e-13
1.8409e-13
4.81513e-13
2.21682e-14
2.88899e-14
1.80756e-12
1.87422e-12
6.21076e-13
5.13834e-15
1.2207e-14
1.10374e-14
1.23258e-14
2.15107e-13
2.04415e-14
2.32113e-14
9.90202e-13
1.37567e-12
4.36114e-11
1
1
1
1
1
1
1
1
1
1
1
1
1
1
1
1
1
1
0.999999
0.999995
1
1
1
1
1
1
1
1
0.999997
0.999993
1
1
1
1
1
1
1
1
0.999997
0.999992
1
1
1
1
1
1
1
1
0.999998
0.999991
1
1
1
1
1
1
1
1
0.999998
0.999991
1
1
1
1
1
1
1
1
0.999997
0.999983
1
1
1
1
1
1
1
1
0.999999
0.999993
0.824093
0.838186
0.865742
0.905541
0.947047
0.977831
0.996591
0.999996
0.999991
0.999903
0.121409
0.133471
0.170184
0.254192
0.413733
0.62378
0.791047
0.870499
0.936837