/*--------------------------------*- C++ -*----------------------------------*\
| =========                 |                                                 |
| \\      /  F ield         | OpenFOAM: The Open Source CFD Toolbox           |
|  \\    /   O peration     | Version:  2312                                  |
|   \\  /    A nd           | Website:  www.openfoam.com                      |
|    \\/     M anipulation  |                                                 |
\*---------------------------------------------------------------------------*/
FoamFile
{
    version     2.0;
    format      ascii;
    arch        "LSB;label=32;scalar=64";
    class       volScalarField;
    location    "1.06";
    object      alpha.water;
}
// * * * * * * * * * * * * * * * * * * * * * * * * * * * * * * * * * * * * * //

dimensions      [0 0 0 0 0 0 0];

internalField   nonuniform List<scalar> 
8000
(
1
1
1
1
1
1
1
1
1
1
1
1
1
1
1
1
1
1
1
1
1
1
1
1
1
1
1
1
1
1
1
1
1
1
1
1
1
1
1
1
1
1
1
1
1
1
1
1
1
1
0.999997
0.999998
0.999999
1
1
1
1
1
1
1
0.99994
0.999957
0.999977
0.999982
0.999986
0.999992
0.999996
0.999996
0.999989
0.999987
0.999052
0.999232
0.99944
0.999518
0.999607
0.999705
0.996386
0.985059
0.942548
0.9078
0.708445
0.738142
0.765366
0.784851
0.776129
0.688531
0.531455
0.380633
0.253246
0.181901
0.0383795
0.0462683
0.0570032
0.0658661
0.0593639
0.036051
0.0036635
4.09069e-05
5.38769e-05
4.35047e-05
4.25076e-06
4.26268e-06
4.35863e-06
4.4915e-06
5.20168e-06
8.97964e-06
1.6059e-05
2.40521e-05
0.000189416
0.000377816
4.65483e-06
6.39061e-06
4.45562e-06
5.72796e-06
3.73105e-05
0.000120318
4.99884e-05
0.000267939
0.000766299
0.000767904
5.34642e-05
4.23547e-05
7.0136e-06
2.79792e-05
0.000493684
0.000759499
0.000751531
0.000688645
0.000767095
0.000773263
6.38888e-05
3.54669e-05
9.28288e-06
0.000135505
0.000759446
0.000759382
0.000759562
0.000758164
0.000760129
0.000772383
6.41589e-05
4.04672e-05
1.28979e-05
0.000202697
0.000759382
0.000759564
0.000759382
0.000756708
0.00075189
0.000754869
6.41062e-05
5.2875e-05
2.17612e-05
0.000109938
0.000727776
0.000759382
0.000758405
0.000751712
0.000476446
0.000199065
4.23565e-05
7.73513e-05
2.12467e-05
2.83887e-05
0.000444875
0.000758405
0.000754974
0.000662405
7.34017e-05
4.24747e-06
9.97755e-06
0.000101153
1.90444e-05
1.58839e-05
0.000138858
0.00075498
0.00073897
0.00028457
3.16111e-06
3.18915e-06
1.62927e-05
5.62656e-05
1.24322e-05
1.23936e-05
0.00016485
0.000390778
3.56985e-05
2.94953e-05
0.000105591
8.18635e-05
2.27645e-05
1.42733e-05
3.95338e-06
1.14391e-05
0.000149406
0.000122997
3.9535e-06
5.93897e-06
9.06389e-05
0.000158988
1
1
1
1
1
1
1
1
1
1
1
1
1
1
1
1
1
1
1
1
1
1
1
1
1
1
1
1
1
1
1
0.999872
0.999959
0.999999
1
1
1
1
1
1
1
0.998697
0.999874
1
1
1
1
1
1
1
0.999943
0.998708
0.99998
0.999999
1
1
1
1
1
1
0.999899
0.999553
0.99996
0.999987
0.999992
0.999995
0.999997
0.999999
0.999998
0.999997
0.99943
0.999146
0.999617
0.999675
0.99971
0.999779
0.997146
0.990098
0.947078
0.915147
0.764616
0.790953
0.803903
0.794053
0.759529
0.683379
0.540159
0.39819
0.265057
0.192966
0.052797
0.0604989
0.065921
0.0662597
0.0581284
0.035114
0.00493982
3.91953e-05
5.38769e-05
7.45643e-05
4.24701e-06
4.25076e-06
4.26268e-06
4.35863e-06
4.90149e-06
6.79807e-06
1.08587e-05
1.67517e-05
6.72585e-05
8.38881e-05
4.24218e-06
4.24701e-06
4.31083e-06
8.01831e-06
1.96478e-05
2.76506e-05
1.78833e-05
0.000154459
0.000251285
0.000236385
4.23765e-06
4.24218e-06
4.40388e-06
2.09536e-05
0.000351428
0.000547283
0.000142642
7.5105e-05
0.000310085
0.000642203
4.23636e-06
4.23765e-06
4.59711e-06
4.59249e-05
0.00058335
0.000759546
0.000270644
0.00013678
0.000571431
0.00070305
8.20727e-06
4.38992e-06
4.78693e-06
6.87076e-05
0.00065249
0.000759382
0.000310491
0.000151564
0.000351511
0.000176592
1.23014e-05
4.77898e-06
5.20155e-06
5.71464e-05
0.000628309
0.000758405
0.000251886
4.12886e-06
3.23516e-05
7.19193e-06
9.75049e-06
1.20931e-05
3.20285e-05
2.77192e-05
0.00045388
0.000754978
0.000190854
3.19742e-06
3.12747e-06
3.18915e-06
8.31174e-06
0.000102384
0.000109473
1.16528e-05
0.000179873
0.00067755
0.000135008
3.12747e-06
2.92177e-06
2.80817e-06
8.31285e-06
0.000114544
0.000113967
1.60064e-05
0.000221005
0.00042433
5.77395e-05
4.45005e-05
0.000107045
3.95663e-05
1.34553e-05
0.000114639
0.000114639
3.32036e-05
0.000216358
0.000166915
2.62563e-06
9.07664e-05
0.000118461
0.000104696
1
1
1
1
1
1
1
1
1
1
1
1
1
1
1
1
1
1
1
1
1
1
1
1
1
1
1
1
1
1
1
0.999969
0.99999
0.999997
1
1
1
1
1
1
1
0.999041
0.999472
0.999987
1
1
1
1
1
0.999999
0.999997
0.998692
0.999093
0.999986
1
1
1
1
1
1
0.999989
0.999736
0.999877
0.999976
0.999997
0.999999
1
1
1
1
0.999786
0.999541
0.999707
0.999829
0.999869
0.999918
0.976432
0.947772
0.919634
0.894711
0.815941
0.818686
0.815116
0.773997
0.721078
0.645322
0.529858
0.40368
0.307729
0.245715
0.07862
0.0813244
0.099573
0.0978766
0.0765296
0.0410249
0.0137149
0.00948797
0.0028142
4.7249e-05
4.25076e-06
4.25344e-06
4.29796e-06
4.50673e-06
4.62879e-06
4.99299e-06
6.79807e-06
1.27137e-05
3.47571e-05
2.85568e-05
4.24248e-06
4.26435e-06
5.60328e-06
4.64965e-06
4.9479e-06
1.16901e-05
7.6302e-05
0.000123034
2.45585e-05
2.13325e-05
4.23636e-06
6.76737e-06
3.98379e-05
8.61304e-06
1.79925e-05
0.000116079
0.000176127
4.48533e-05
2.16666e-05
2.07664e-05
4.23544e-06
5.92024e-06
5.51624e-05
2.50451e-05
4.8864e-05
0.000199897
0.000183592
0.000108284
4.61122e-05
2.16665e-05
5.26073e-06
1.88797e-05
5.51196e-05
3.86559e-05
9.25674e-05
0.000303203
0.000205434
9.20017e-05
4.76162e-05
2.38781e-05
6.08992e-06
2.44835e-05
5.24699e-05
3.76349e-05
0.000160163
0.000463564
0.000260444
1.79337e-05
1.87362e-05
1.67925e-05
1.00276e-05
1.0633e-05
2.85579e-05
1.61386e-05
0.00016892
0.000549921
0.00034016
3.8626e-06
5.1765e-06
3.24647e-06
1.03302e-05
1.75804e-06
2.19148e-05
8.17997e-06
0.000121716
0.000431668
0.000162484
2.99172e-06
2.60248e-06
2.46062e-06
9.90775e-06
2.4965e-06
2.51906e-05
2.83671e-05
0.000147959
0.000204743
2.62563e-06
3.47177e-06
2.46062e-06
2.43477e-06
3.303e-06
1.83876e-06
5.74038e-05
0.000109531
0.000132444
7.80066e-05
2.11291e-06
2.36284e-06
3.26586e-06
2.42684e-06
1
1
1
1
1
1
1
1
1
1
1
1
1
1
1
1
1
1
1
1
1
1
1
1
1
1
1
1
1
1
1
0.999999
0.999997
0.999999
1
1
1
1
1
0.999999
1
0.999966
0.999891
0.999987
1
1
1
1
0.999999
0.999987
1
0.999817
0.999764
0.999969
1
1
1
1
1
0.999999
0.999997
0.999896
0.999954
0.999975
0.999999
1
1
1
1
1
0.999847
0.999773
0.999877
0.999917
0.997622
0.952581
0.937086
0.919069
0.898867
0.875078
0.790013
0.770411
0.744762
0.683374
0.607861
0.544826
0.452379
0.357256
0.288046
0.233609
0.0865463
0.0923831
0.121572
0.11637
0.0826201
0.0438886
0.0222458
0.0161508
0.00349076
7.4353e-05
4.25344e-06
4.26661e-06
4.47538e-06
4.62879e-06
4.77171e-06
4.86375e-06
6.41124e-06
1.43755e-05
3.76848e-05
2.64282e-05
4.25781e-06
1.3944e-05
2.8258e-05
1.43971e-05
4.53924e-06
1.0396e-05
0.000142283
0.000155031
2.73078e-05
2.19568e-05
4.23562e-06
1.02753e-05
5.51013e-05
1.25158e-05
4.56953e-06
4.56945e-06
0.000115564
0.000158564
7.04061e-05
2.00115e-05
4.23562e-06
2.87869e-05
5.51373e-05
5.51001e-05
4.50831e-06
4.60747e-06
5.08405e-05
0.000156345
9.4447e-05
2.42185e-05
1.14727e-05
4.43323e-05
5.51675e-05
5.13048e-05
3.8858e-06
4.42727e-06
9.8154e-06
0.000124518
0.000133489
2.83219e-05
3.97939e-05
2.16665e-06
7.41587e-06
1.41796e-05
3.1714e-06
7.01633e-06
1.26388e-05
4.74119e-05
0.000131072
2.80767e-05
1.84825e-05
1.7369e-06
1.86129e-06
2.16473e-06
2.67009e-06
1.44099e-05
5.05787e-05
1.62688e-05
5.55223e-05
4.82258e-06
2.43732e-06
1.7481e-06
1.71954e-06
2.01203e-06
2.14804e-05
0.000121091
0.000174416
4.48952e-05
3.19947e-06
2.7298e-06
1.77321e-06
1.75644e-06
1.76348e-06
1.01473e-05
3.74147e-05
0.000203132
0.000104241
4.93782e-05
2.60199e-06
2.4606e-06
1.82851e-06
1.77321e-06
4.08733e-06
3.72079e-05
3.17522e-05
3.21208e-05
1.10104e-05
1.65505e-05
2.64744e-06
2.43593e-06
1
1
1
1
1
1
1
1
1
1
1
1
1
1
1
1
1
1
1
1
1
1
1
1
1
1
1
1
0.999999
1
1
1
1
1
1
1
1
0.999998
0.999994
0.999999
1
1
1
0.999999
1
1
1
0.999999
0.999989
0.999999
1
1
1
0.999997
1
1
1
1
0.999999
1
0.999997
0.999996
0.999996
0.999999
1
1
1
1
1
1
0.999867
0.999928
0.999712
0.992865
0.920388
0.887791
0.856635
0.822242
0.786823
0.757513
0.723371
0.680121
0.628925
0.527397
0.439828
0.380882
0.316048
0.247515
0.193023
0.153644
0.0763039
0.0845585
0.110512
0.108483
0.0783505
0.04358
0.0230373
0.00897125
0.000292299
3.50237e-05
4.26661e-06
4.29356e-06
4.8543e-06
4.942e-06
4.8704e-06
5.05947e-06
7.61189e-06
2.76927e-05
3.37967e-05
2.78038e-05
4.27136e-06
2.58525e-05
2.82206e-05
2.0111e-05
4.89692e-06
1.68201e-05
9.85556e-05
6.03534e-05
2.78037e-05
2.44906e-05
4.23562e-06
1.06851e-05
2.60644e-05
7.72412e-06
6.52753e-06
4.88289e-06
4.43299e-05
0.000154552
0.000145952
9.35904e-05
4.23539e-06
4.0266e-05
5.51013e-05
3.85125e-05
8.17632e-06
4.42728e-06
1.27699e-05
0.000147682
0.000143951
7.11811e-05
6.03044e-06
3.1167e-05
5.26219e-05
4.4146e-05
4.28801e-06
3.88605e-06
4.42724e-06
7.53269e-05
0.000138059
5.72585e-05
3.98297e-05
4.53787e-06
4.74465e-06
1.33497e-05
2.77064e-06
3.26629e-06
4.04625e-06
4.89439e-06
0.00012072
1.71198e-05
1.35506e-05
1.71259e-06
1.71955e-06
1.80729e-06
2.09182e-06
2.67579e-06
3.84543e-06
4.99613e-06
1.37574e-05
4.43431e-06
1.75816e-06
1.71955e-06
1.70374e-06
1.71955e-06
1.85015e-06
3.63076e-06
3.89091e-05
1.93969e-05
4.0892e-06
3.32721e-06
1.8315e-06
3.34622e-06
1.71955e-06
1.83987e-06
5.73736e-05
0.000148817
0.00014749
3.0964e-05
3.74838e-06
2.72965e-06
1.68992e-05
1.17576e-05
1.80517e-06
2.41857e-05
6.19853e-05
6.91014e-05
7.33868e-05
1.43312e-05
3.42045e-06
2.64735e-06
1
1
1
1
1
1
1
1
1
1
1
1
1
1
1
1
1
1
1
1
1
1
1
1
1
1
1
1
1
1
1
1
1
1
1
1
1
0.999994
0.99996
0.999988
1
1
1
1
1
1
1
1
0.999944
0.999722
1
1
1
1
1
1
1
1
0.999999
0.999996
0.999998
0.999999
1
1
1
1
1
1
1
1
0.999909
0.999128
0.984924
0.900212
0.837936
0.778023
0.703783
0.628743
0.558832
0.517575
0.635256
0.568718
0.477647
0.377315
0.290904
0.21472
0.155807
0.103887
0.0659712
0.0486891
0.04984
0.0580298
0.0758877
0.0720012
0.0484212
0.030818
0.0142066
0.00095288
0.000163863
7.96059e-05
4.29356e-06
4.30245e-06
4.53728e-06
5.17326e-06
5.05947e-06
6.14871e-06
2.56036e-05
6.40261e-05
7.19032e-05
3.50241e-05
4.26484e-06
7.65646e-06
1.61846e-05
2.20575e-05
6.38665e-06
9.17531e-06
1.41623e-05
5.16775e-05
0.000116183
8.03786e-05
4.23789e-06
1.09029e-05
4.05223e-05
3.8691e-05
1.118e-05
6.7245e-06
4.35918e-05
0.0001482
0.000144194
0.000126379
4.23562e-06
4.27792e-05
5.50306e-05
1.59516e-05
1.55685e-05
4.88288e-06
4.54961e-05
0.000145793
0.000145604
9.42733e-05
4.23789e-06
1.50164e-05
1.31748e-05
5.54559e-06
8.40391e-06
1.1084e-05
1.13752e-05
8.84259e-05
0.000116964
7.56554e-05
3.96985e-05
1.81396e-06
1.72537e-06
2.42534e-06
3.49425e-06
1.12763e-05
4.66588e-06
5.3733e-06
1.09275e-05
6.49346e-05
1.66899e-05
1.71426e-06
1.7037e-06
1.72328e-06
1.74719e-06
8.73547e-06
4.4045e-06
4.51605e-06
4.84789e-06
2.20835e-05
1.53857e-05
4.53057e-06
1.70558e-06
1.70558e-06
1.72328e-06
2.79123e-06
3.77803e-06
4.33106e-06
4.5053e-06
4.08937e-06
2.32272e-05
1.91491e-06
1.70558e-06
1.48013e-05
4.8685e-05
1.86625e-05
1.26641e-05
7.22238e-06
4.84724e-06
3.87573e-06
9.41742e-05
3.59327e-05
2.19622e-06
2.26551e-05
6.07112e-05
2.54999e-05
1.53831e-05
3.41238e-05
4.71144e-05
6.96685e-06
1
1
1
1
1
1
1
1
1
1
1
1
1
1
1
1
0.999999
0.999998
1
1
1
1
1
1
1
1
0.999999
0.999996
0.999999
1
1
1
1
1
1
1
1
0.999999
0.999969
0.999928
1
1
1
1
1
1
1
1
0.999935
0.999639
1
1
1
1
1
1
1
1
1
1
0.999999
0.999999
1
1
1
1
1
0.998283
0.970719
0.952702
0.994335
0.981176
0.902777
0.815543
0.729105
0.620905
0.495744
0.36588
0.289011
0.253017
0.538753
0.450532
0.343965
0.251902
0.163255
0.0862445
0.0355199
0.00916912
0.0020734
0.00120887
0.022149
0.0316127
0.0392622
0.0245547
0.0109196
0.00889342
0.00121915
0.000318543
0.000297852
0.000183104
4.30467e-06
4.39191e-06
5.06229e-06
5.53657e-06
6.14861e-06
2.56029e-05
7.90496e-05
0.00011738
0.000179288
8.80206e-05
4.32952e-06
8.54557e-06
5.09945e-05
1.92402e-05
7.31577e-06
1.23027e-05
3.64296e-05
9.44564e-05
0.000180054
9.23244e-05
4.25603e-06
1.19211e-05
3.77116e-05
7.6118e-05
1.20076e-05
9.43921e-06
3.34223e-05
0.000140679
0.000133789
0.000147515
4.23789e-06
5.61591e-05
1.28088e-05
1.67429e-05
1.20164e-05
5.85554e-06
3.78916e-05
0.000134038
6.28143e-05
0.000209018
4.40223e-06
3.17549e-05
9.50457e-06
1.99479e-06
3.01857e-06
8.45568e-06
2.43247e-05
4.35267e-05
9.11338e-06
0.00017875
3.20978e-05
1.55738e-05
1.3837e-05
1.8545e-06
1.75075e-06
7.18046e-06
4.49358e-06
4.96769e-06
7.26613e-06
0.000113699
3.5829e-05
1.71449e-06
1.72537e-06
1.79218e-06
1.66052e-06
4.21832e-06
4.37846e-06
4.62341e-06
1.0853e-05
3.89953e-05
0.000102098
2.60823e-05
1.70558e-06
1.72328e-06
5.75303e-06
1.61445e-05
8.67238e-06
4.51605e-06
5.26638e-06
3.78303e-05
0.000125513
6.06935e-05
1.74343e-06
3.74672e-06
8.017e-06
1.96855e-05
3.22661e-05
2.98078e-05
8.70482e-05
0.000117594
0.000169372
0.000176775
6.43893e-06
2.08325e-06
6.1666e-06
3.63182e-06
3.23202e-05
0.000121619
0.000161434
0.00012873
1
1
1
1
1
1
1
0.999999
1
1
1
1
1
1
1
1
0.999999
0.999983
0.999985
1
1
1
1
1
1
1
0.999997
0.999983
0.999986
1
1
1
1
1
1
1
0.999999
0.999992
0.999973
0.999949
1
1
1
1
1
1
0.999997
0.999972
0.999915
0.999735
1
1
1
1
1
1
1
1
1
1
0.999998
0.999999
1
1
1
1
0.993924
0.946122
0.901968
0.870205
0.981298
0.938567
0.832622
0.729586
0.606519
0.461635
0.298766
0.193027
0.130709
0.104551
0.454333
0.356858
0.24983
0.146992
0.0691704
0.0182927
0.00180973
0.00122706
0.000716435
0.000379523
0.00840238
0.0175157
0.00953546
0.00112915
0.000673842
0.000434306
0.00036244
0.000252966
0.000186594
0.000132232
4.39191e-06
6.55084e-06
1.81956e-05
0.000132556
0.000113318
8.61871e-05
7.25191e-05
7.11936e-05
0.000102533
0.000120245
6.35403e-06
2.18104e-05
0.000122165
8.99882e-05
2.85055e-05
1.89691e-05
2.39213e-05
3.68996e-05
4.09005e-05
3.87409e-05
4.48141e-06
1.00764e-05
1.85761e-05
6.48079e-05
8.54274e-06
5.92873e-06
1.48508e-05
2.34892e-05
1.09771e-05
0.000184024
4.25603e-06
6.85118e-05
1.82224e-05
4.75378e-06
3.32342e-06
3.25541e-06
1.30567e-05
2.64592e-05
1.64499e-05
0.000308642
1.26592e-05
0.000170745
8.58704e-05
1.93418e-06
1.75075e-06
2.58984e-06
4.5028e-06
9.37781e-06
1.39198e-05
0.000224017
4.07042e-05
0.000249226
0.000131408
1.75074e-06
1.47723e-06
2.70939e-06
4.10135e-06
4.34429e-06
4.33873e-05
6.16414e-05
5.94114e-05
0.000266352
0.000254774
3.2616e-05
1.34959e-06
1.57556e-06
1.75386e-05
5.48384e-05
6.50415e-05
2.79286e-05
0.000166758
0.00019437
1.23515e-05
5.08045e-06
4.88114e-06
6.43693e-06
6.58656e-06
2.23155e-05
0.000105558
9.97072e-05
0.000208465
0.000209905
2.34306e-05
1.28194e-06
1.26877e-06
2.87757e-06
2.04474e-05
3.30394e-05
0.000172165
0.000171505
0.000181315
0.000211022
8.67909e-05
1.2838e-06
1.26058e-06
1.25163e-06
4.2325e-06
5.431e-05
0.000169593
0.000172065
1
1
1
1
1
1
1
1
0.999994
1
1
1
1
1
1
1
1
0.999989
0.999986
1
1
1
1
1
1
1
1
0.999988
0.999986
0.999995
1
1
1
1
1
1
0.999998
0.999987
0.999957
0.999801
1
1
1
1
1
1
0.999951
0.999585
0.99924
0.998792
1
1
1
1
1
1
1
1
0.999998
0.999996
1
1
1
1
1
1
0.965254
0.902877
0.850426
0.815583
0.965977
0.900463
0.784877
0.666426
0.518305
0.35525
0.208197
0.116666
0.0631745
0.0403207
0.411129
0.309021
0.187838
0.0880736
0.0284739
0.00283054
0.00132178
0.000739176
0.000285523
0.000140079
0.00341723
0.00739192
0.000373662
0.00043178
0.000466075
0.000409254
0.000289257
0.00014091
5.31724e-05
8.39257e-05
8.31333e-06
2.60844e-05
8.27072e-05
0.000111307
0.000104203
8.61384e-05
5.59195e-05
2.95352e-05
1.63558e-05
9.36102e-05
6.97566e-06
2.78041e-05
0.000127491
7.45508e-05
2.18567e-05
1.80147e-05
1.32553e-05
8.41183e-06
1.01254e-05
2.00004e-05
5.29144e-06
1.17781e-05
2.01396e-05
1.30625e-05
5.6938e-06
5.19045e-06
4.48442e-06
4.16929e-06
6.35836e-06
0.00018873
6.23857e-06
0.000135778
0.000165334
2.67642e-06
2.21539e-06
2.3076e-06
2.6256e-06
3.04042e-06
2.4486e-05
0.000253979
2.31713e-05
0.000296132
0.000211862
2.17541e-06
1.47723e-06
1.65041e-06
2.13016e-06
2.69528e-06
6.49523e-05
0.000130453
6.69315e-05
0.000292747
0.000260765
1.73517e-06
1.34959e-06
1.42837e-06
1.65083e-06
1.62043e-05
7.52316e-05
1.43306e-05
7.66412e-05
0.000288705
0.000285648
0.000120173
1.30932e-06
1.2736e-06
3.40303e-06
7.22309e-06
3.24212e-05
5.11262e-05
0.000142032
0.000285648
0.000144919
1.26111e-06
1.25708e-06
1.23843e-06
4.33197e-06
5.40441e-06
0.000163308
0.000169459
0.000159046
0.000271669
5.92238e-05
1.26543e-06
1.26166e-06
1.25001e-06
6.31144e-06
2.86168e-06
0.000152876
0.000172199
0.000101716
0.000169451
4.68837e-05
1.84017e-06
1.26877e-06
1.26167e-06
1.44943e-06
1.90982e-06
0.000114301
0.00013049
1
1
1
1
1
1
1
1
0.99978
0.991777
1
1
1
1
1
1
1
1
0.9998
0.99179
1
1
1
1
1
1
1
1
0.999771
0.995495
1
1
1
1
1
1
0.999999
0.999994
0.999871
0.995566
1
1
1
1
1
1
0.999989
0.999974
0.99826
0.992898
1
1
1
1
1
1
1
1
0.999999
0.999978
1
1
1
1
1
1
0.950131
0.878324
0.824447
0.793911
0.954659
0.884708
0.773959
0.648929
0.495856
0.322349
0.180681
0.092449
0.0386041
0.0160846
0.40753
0.299286
0.164363
0.0702296
0.0202891
0.00153949
0.00101049
0.000500159
0.000199038
6.84751e-05
0.00333814
0.000681093
0.000281445
0.000183451
0.000329772
0.000373437
0.000215959
0.000102149
3.73478e-05
3.34023e-05
3.40822e-05
5.92966e-05
8.62086e-05
4.4094e-05
7.25867e-05
8.1634e-05
4.82413e-05
2.29442e-05
1.01122e-05
2.78116e-05
1.28556e-05
6.03508e-05
9.80513e-05
3.01734e-05
1.60538e-05
1.85867e-05
1.17702e-05
7.81478e-06
6.02219e-06
4.07795e-05
8.26018e-06
3.22264e-05
0.000123324
2.78803e-05
4.4056e-06
5.28138e-06
4.10932e-06
5.47837e-06
5.8224e-06
3.96971e-05
8.12294e-06
0.00019262
0.000289634
1.81299e-05
1.94581e-06
2.12868e-06
2.46764e-06
4.82431e-06
1.71145e-05
6.01879e-05
3.45888e-05
0.000297543
0.000299509
6.13894e-05
1.54201e-06
1.42837e-06
1.92369e-06
9.13587e-06
6.83931e-05
3.02883e-05
4.31259e-05
0.000296131
0.000297177
0.000150037
1.42837e-06
1.2736e-06
1.59587e-06
7.98438e-06
9.96816e-06
1.34841e-05
3.59061e-05
0.000237728
0.000284648
0.000106151
1.0256e-05
1.23843e-06
1.70632e-06
3.13451e-06
2.73379e-05
0.000144942
5.36179e-05
0.000150822
7.74957e-05
1.26111e-06
1.29331e-06
1.23843e-06
2.56817e-06
2.68233e-06
3.53552e-05
0.000168009
5.29843e-05
7.02846e-05
2.84903e-05
1.52594e-06
1.25708e-06
1.23843e-06
2.00741e-06
2.31819e-06
2.08402e-05
0.000148594
5.26743e-05
2.68859e-05
3.21135e-06
1.47574e-06
1.28236e-06
4.59663e-06
3.99189e-06
2.32192e-06
2.79139e-05
5.2427e-06
1
1
1
1
1
1
1
1
0.999771
0.991756
1
1
1
1
1
1
1
1
0.999982
0.994924
1
1
1
1
1
1
1
0.999999
0.999998
0.99768
1
1
1
0.999999
1
1
1
0.999999
0.999962
0.996583
1
1
1
0.999985
0.999979
0.999996
1
1
0.999087
0.992921
1
1
1
0.999999
0.999999
1
1
1
1
1
1
1
1
1
1
1
0.961387
0.883891
0.819402
0.781311
0.952657
0.887588
0.788852
0.671963
0.529344
0.358008
0.195106
0.0983023
0.0363978
0.00925656
0.395606
0.289785
0.159951
0.0709677
0.0233359
0.00216635
0.000878409
0.000448759
0.00023201
8.32065e-05
0.00180851
0.00025605
0.000308296
0.000143934
0.000253334
0.000357425
0.000186025
8.66708e-05
4.18694e-05
1.93344e-05
3.14131e-05
0.000100981
0.000148564
4.01891e-05
5.1431e-05
7.84506e-05
4.21499e-05
1.96107e-05
1.02675e-05
1.03406e-05
1.83588e-05
0.000127018
0.000165736
2.91353e-05
1.21679e-05
1.82516e-05
1.08846e-05
7.43325e-06
5.86715e-06
2.42392e-05
1.32161e-05
8.49417e-05
0.000293626
4.90651e-05
6.06202e-06
5.08722e-06
4.33085e-06
5.61683e-06
5.74252e-06
7.85961e-06
1.33765e-05
0.000208128
0.000301995
0.000137406
4.31618e-06
2.25931e-06
2.70473e-06
1.51416e-05
1.73908e-05
2.01675e-06
2.6899e-05
0.00029951
0.000301422
0.000256798
1.94581e-06
1.60301e-06
2.34831e-06
1.26155e-05
1.24071e-05
2.09056e-06
1.01941e-05
0.000211057
0.000299509
0.000297177
0.000122294
1.42837e-06
1.6212e-06
2.15335e-06
4.62244e-06
2.12229e-05
3.66594e-06
2.66475e-05
5.78947e-05
1.2573e-05
6.89618e-06
9.40985e-06
1.09691e-05
8.34377e-06
4.11496e-06
0.000145659
5.31346e-06
5.97578e-06
3.75798e-06
1.26111e-06
1.26837e-06
1.23843e-06
4.07913e-06
3.1958e-06
3.60512e-06
0.00015389
3.11636e-05
1.82654e-05
3.3568e-06
1.97251e-06
1.28681e-06
4.80936e-06
3.40875e-05
2.4779e-05
8.43569e-06
2.81349e-05
3.36585e-05
1.83138e-05
1.12885e-05
2.62411e-06
3.15615e-06
3.10628e-05
4.14218e-05
1.66018e-05
1.09947e-05
5.67447e-06
1
1
1
1
1
1
1
1
1
1
1
1
1
1
1
1
1
0.999991
0.999992
1
1
1
1
1
1
1
0.999999
0.999983
0.999981
1
1
1
1
0.999999
0.999992
1
0.999999
0.999991
0.999988
1
1
1
1
0.999986
0.999939
0.999961
1
1
1
1
1
1
1
0.999998
0.999993
1
1
1
1
1
0.999998
1
1
1
1
1
0.978004
0.898313
0.821537
0.771145
0.957979
0.901363
0.819289
0.720829
0.598814
0.444077
0.248086
0.129334
0.051968
0.017006
0.397769
0.296209
0.180041
0.0916446
0.0411593
0.0090944
0.00113488
0.000569471
0.000342896
0.000148477
0.00292071
0.00284697
0.000335223
0.000154772
0.000158926
0.000407888
0.000215779
9.30533e-05
5.32459e-05
2.30316e-05
2.10677e-05
4.50781e-05
0.000190481
3.97755e-05
3.83532e-05
8.53437e-05
4.22547e-05
1.75828e-05
1.08762e-05
4.74972e-06
2.59593e-05
0.000167466
0.000285956
2.82205e-05
1.63541e-05
1.7052e-05
9.15133e-06
6.52704e-06
5.08657e-06
2.22866e-06
2.1018e-05
0.000237613
0.000301995
0.000123894
1.09429e-05
4.45782e-06
3.57256e-06
4.45768e-06
5.59668e-06
2.01882e-06
1.43152e-05
0.000262707
0.00030366
0.000279198
5.45736e-06
2.84004e-06
2.84004e-06
4.98212e-06
6.14971e-06
2.01882e-06
9.14462e-06
0.000233205
0.000302364
0.000301258
0.000152046
2.24923e-06
2.49931e-06
4.13293e-06
1.16268e-05
9.46743e-06
3.66594e-06
2.79969e-05
0.00012545
0.000219073
0.000237403
0.000172021
3.37761e-05
2.71539e-06
4.47712e-06
1.64724e-05
3.66594e-06
3.57994e-06
2.94043e-06
2.37506e-06
2.2898e-06
3.96748e-06
8.00611e-06
4.21242e-06
4.12885e-06
7.30569e-05
9.58425e-06
1.29076e-05
1.10696e-05
6.11719e-06
1.2981e-06
2.35105e-06
1.51505e-05
1.31054e-05
3.96141e-06
7.60818e-05
4.62447e-05
5.20536e-05
4.89771e-05
1.60777e-05
1.48458e-06
3.76505e-05
4.82229e-05
4.93654e-05
8.6411e-06
8.56917e-06
3.75518e-05
6.31758e-05
5.00246e-05
9.18193e-06
1.64133e-05
3.94607e-05
5.00561e-05
8.93292e-05
2.74373e-05
6.02452e-06
1
1
1
1
1
1
1
0.999999
1
1
1
1
1
1
1
1
0.999998
0.999982
0.999985
0.999999
1
1
1
1
1
1
0.999994
0.999981
0.999981
0.999996
1
1
1
1
0.999999
1
0.999998
0.999994
0.999995
1
1
1
1
0.999998
0.999985
1
1
1
1
1
1
1
1
1
0.999999
1
1
1
1
1
0.999994
0.999999
1
1
1
1
1
0.933683
0.853809
0.802913
0.971482
0.935307
0.868076
0.786013
0.689579
0.562552
0.371898
0.203873
0.0984122
0.0469587
0.445723
0.326841
0.228471
0.141766
0.0800866
0.0375398
0.00294658
0.00105181
0.000632342
0.00032268
0.00272023
0.00903514
0.00277415
0.00024363
0.000193629
0.000545511
0.000373088
0.000157338
9.59958e-05
5.00345e-05
1.77942e-05
2.10677e-05
4.50781e-05
4.66693e-05
4.24616e-05
0.00010073
5.86395e-05
2.18011e-05
1.36253e-05
8.23523e-06
2.9456e-05
0.000193091
0.000250612
2.79094e-05
1.63542e-05
1.61617e-05
9.41741e-06
4.8318e-06
3.71628e-06
2.81628e-06
6.24393e-05
0.000298281
0.00030366
9.90021e-05
1.08679e-05
4.47692e-06
3.37297e-06
2.95083e-06
2.48618e-06
2.13879e-06
2.08862e-05
0.000267173
0.00030366
0.00030366
0.000102311
3.36162e-06
2.78888e-06
2.4889e-06
2.21589e-06
2.01876e-06
2.28367e-06
6.81104e-05
0.000296141
0.000301233
0.000304462
8.61808e-05
2.84004e-06
2.78888e-06
4.46195e-06
1.38658e-05
3.21959e-06
3.80642e-06
9.05588e-06
3.51748e-05
0.000132206
0.000170251
0.000119206
2.72291e-05
4.38345e-06
1.53555e-05
3.35843e-05
4.54951e-05
3.2829e-05
2.55801e-06
2.25769e-06
3.49532e-06
1.43345e-05
1.20667e-05
4.34136e-06
3.97421e-05
0.000151518
0.000150998
0.000148507
3.17467e-05
1.71309e-06
1.22898e-05
4.81104e-05
4.71092e-05
8.58854e-06
1.75825e-05
0.000151219
0.000151518
6.07547e-05
6.50583e-06
1.13444e-05
3.97507e-05
3.97177e-05
1.84958e-05
2.68762e-05
7.85963e-06
0.000151875
0.000112882
2.15969e-05
6.95221e-06
7.14982e-06
8.14453e-06
2.33955e-05
0.000147597
4.60314e-05
6.20014e-06
1
1
1
1
1
1
1
1
1
1
1
1
1
1
1
1
0.999999
0.999999
1
1
1
1
1
1
1
1
0.999999
0.999996
0.999997
0.999999
1
1
1
1
1
1
1
1
1
1
1
1
1
1
1
1
1
1
1
1
1
1
1
1
1
1
1
1
1
1
0.999997
0.999999
1
1
1
1
1
0.989953
0.920813
0.87412
0.996316
0.986799
0.936771
0.85196
0.773368
0.681763
0.554552
0.352059
0.202095
0.121934
0.508852
0.397307
0.302175
0.211307
0.142797
0.0921513
0.0320864
0.00272294
0.00141638
0.000802563
0.00194633
0.00630327
0.0104483
0.00781249
0.00070246
0.000593683
0.000700501
0.000405743
0.000246606
0.00013803
1.73308e-05
1.77942e-05
2.93522e-05
2.87522e-05
5.95234e-05
0.000108258
0.000108939
6.11406e-05
4.03717e-05
2.44537e-05
2.93887e-05
0.000224546
0.000176974
3.23252e-05
1.96493e-05
2.7975e-05
1.4987e-05
1.06826e-05
8.42232e-06
5.70248e-06
6.55751e-05
0.00029804
0.000303419
3.05742e-05
1.63543e-05
1.41446e-05
4.4585e-06
3.74354e-06
3.40229e-06
2.72968e-06
1.56978e-05
0.0001971
0.00030366
0.000303419
0.000269091
1.18152e-05
3.37303e-06
2.87145e-06
2.4889e-06
2.13901e-06
1.64914e-06
2.67729e-06
8.35607e-05
0.000280057
0.000306067
0.000293451
1.98089e-05
2.94562e-06
2.87145e-06
7.56897e-06
8.8739e-06
1.42437e-05
1.36635e-05
1.22734e-05
3.11375e-05
8.30889e-05
0.000103455
2.58319e-05
5.01672e-06
1.14654e-05
0.000129105
0.000126734
0.000123459
0.00010257
1.39009e-05
3.75778e-06
9.8726e-06
7.94102e-06
4.42528e-06
7.73754e-06
0.000150998
0.000106644
4.6258e-05
1.30083e-05
3.48675e-06
3.33624e-05
4.7884e-05
4.65523e-05
8.68778e-06
7.61254e-06
0.000151877
1.64437e-05
6.17479e-06
5.62248e-06
5.44608e-06
1.933e-05
1.5421e-05
1.28494e-05
4.97609e-05
9.06925e-06
0.00014916
6.63871e-06
7.02556e-06
6.20265e-06
5.59889e-06
1.70798e-05
8.17463e-05
0.000100873
5.11278e-05
7.22128e-06
1
1
1
1
1
1
1
1
1
1
1
1
1
1
1
1
1
1
1
1
1
1
1
1
1
1
1
0.999999
0.999997
1
1
1
1
1
1
1
1
0.999991
0.999968
1
1
1
1
1
1
1
1
1
0.999964
0.999982
1
1
1
1
1
1
1
1
1
1
0.999996
0.999999
1
1
1
1
1
1
1
0.969758
0.999567
0.997084
0.998462
0.951817
0.849125
0.771848
0.693057
0.57194
0.401444
0.297901
0.591268
0.511239
0.439495
0.325175
0.219721
0.158424
0.101967
0.038157
0.00804026
0.00249608
0.0128931
0.00369032
0.00712852
0.0104967
0.0101556
0.000675289
0.000931739
0.000764424
0.000543498
0.000368641
1.7056e-05
1.7354e-05
2.44004e-05
1.29575e-05
2.69782e-05
0.000115876
0.000155427
0.000139919
0.000105394
6.76882e-05
1.86411e-05
0.000228127
0.000207403
3.46067e-05
2.49221e-05
3.35467e-05
2.42195e-05
2.60715e-05
2.34035e-05
1.46424e-05
2.70203e-05
0.000249211
0.000288051
3.46008e-05
2.00717e-05
1.89251e-05
6.32061e-06
6.45338e-06
6.48681e-06
4.68091e-06
4.36516e-06
4.79283e-05
0.000235071
0.000301569
0.000302169
6.6181e-05
4.32543e-06
3.32252e-06
3.24715e-06
2.73143e-06
1.54586e-06
1.64914e-06
3.0527e-06
0.000104849
0.000305397
0.000306067
0.000163682
3.02819e-06
3.09422e-06
3.5724e-06
1.69723e-06
8.40854e-06
1.16157e-05
1.00222e-05
4.818e-05
0.000116084
0.000163983
1.8453e-05
3.77412e-06
3.85767e-06
1.62708e-05
1.18024e-05
2.18092e-05
3.59066e-05
1.6725e-05
5.6485e-06
7.09123e-06
4.3062e-06
4.02334e-06
4.17306e-06
0.000149441
5.66013e-06
5.46225e-06
1.4384e-05
4.78571e-06
2.02597e-05
1.47053e-05
7.692e-06
4.42693e-06
1.28678e-05
0.000135028
5.91778e-06
5.90672e-06
6.17483e-06
5.35632e-06
1.16451e-05
1.52829e-05
1.0556e-05
3.02597e-05
2.00774e-05
3.45115e-05
6.17583e-06
6.36308e-06
7.02555e-06
6.34747e-06
4.57862e-05
0.000121045
7.68777e-05
5.94644e-05
8.68115e-06
1
1
1
1
1
1
1
1
1
1
1
1
1
1
1
1
1
1
1
1
1
1
1
1
1
1
1
0.999999
1
0.999999
1
1
1
1
1
1
1
0.99998
0.999921
1
1
1
1
1
1
1
1
1
0.999451
0.998258
1
1
1
1
1
1
1
1
0.999595
0.998194
0.999996
0.999998
0.999999
1
1
1
1
1
1
0.999996
0.999828
0.999901
0.999271
0.999318
0.978519
0.867983
0.788532
0.71836
0.631584
0.561632
0.68385
0.62823
0.587119
0.501497
0.365627
0.238869
0.171784
0.113613
0.0700299
0.0467693
0.0354064
0.0185907
0.0214531
0.0163551
0.0138441
0.0106986
0.000682716
0.000542314
0.00031317
0.000141236
1.36454e-05
1.59237e-05
1.19168e-05
1.01376e-05
1.0166e-05
4.14497e-05
0.000125837
0.000106819
0.00012278
9.61504e-05
0.000223396
0.000225506
0.0002056
3.80799e-05
2.72439e-05
3.56605e-05
4.12795e-05
2.42363e-05
3.31411e-05
2.74066e-05
6.91751e-06
3.91912e-05
0.00022106
9.76174e-05
2.49222e-05
2.63908e-05
2.26407e-05
1.00459e-05
7.10461e-06
6.44182e-06
1.55377e-06
1.84215e-06
4.35875e-05
0.000298498
0.00010655
6.85339e-05
4.21329e-05
6.45343e-06
4.10972e-06
4.41862e-06
1.57159e-06
1.54959e-06
1.95411e-06
3.90313e-05
0.000265659
0.00029469
0.000265943
3.88155e-05
3.49899e-06
8.46057e-06
1.5113e-05
7.1162e-06
3.8809e-06
5.06997e-06
0.000110055
0.000185547
0.000258499
0.000157079
5.39777e-06
4.20956e-06
5.80112e-05
7.19623e-06
5.07002e-06
5.40925e-06
1.77297e-05
3.94884e-05
0.000108477
6.94737e-05
4.48069e-06
4.56033e-06
7.3396e-05
5.46225e-06
5.37163e-06
5.46085e-06
1.46717e-05
6.95663e-05
6.61654e-05
4.44236e-05
7.23831e-05
7.1427e-05
7.87944e-06
5.66015e-06
5.46225e-06
9.02043e-06
7.43343e-06
3.19538e-05
2.69822e-05
1.41386e-05
1.26246e-05
5.99183e-05
7.16502e-06
5.91777e-06
1.3532e-05
4.25374e-05
1.02791e-05
5.1629e-05
9.87534e-05
8.6595e-05
8.69636e-05
3.9231e-05
1
1
1
1
1
1
1
1
1
1
1
1
1
1
1
1
1
1
1
1
1
1
1
1
1
1
1
1
0.999996
0.999989
1
0.999999
0.999999
1
1
1
1
0.999998
0.999943
0.999932
1
1
0.999998
1
1
1
1
1
0.999729
0.999183
1
0.999998
0.999997
1
1
1
1
1
0.999831
0.998757
0.999996
0.999987
0.999992
0.999999
1
1
1
1
0.999999
0.999998
0.999817
0.999807
0.999881
0.999903
0.999575
0.999796
0.9087
0.830677
0.777491
0.740331
0.797454
0.74683
0.703816
0.647168
0.553581
0.398047
0.258297
0.177391
0.126089
0.10618
0.0684585
0.0528788
0.0607416
0.0564898
0.0348052
0.022781
0.0108242
0.000290939
0.000121165
0.000110589
1.04158e-05
1.01761e-05
8.82739e-06
8.02256e-06
9.11989e-06
1.0166e-05
7.28868e-05
7.87483e-05
8.97245e-05
9.55142e-05
9.96707e-05
0.000123997
7.19756e-05
5.29959e-05
4.14494e-05
5.46901e-05
3.46123e-05
4.62496e-05
8.25411e-05
2.97243e-05
1.04697e-05
2.88665e-06
6.01198e-05
0.000122866
3.32423e-05
2.15656e-05
2.74157e-05
2.65406e-05
3.18157e-05
4.76427e-06
1.75391e-06
1.87946e-06
1.85475e-05
6.75182e-05
1.14064e-05
2.39749e-05
6.69008e-05
0.00010283
4.69014e-06
4.5935e-06
1.87132e-05
3.26251e-06
9.18113e-06
5.08866e-05
2.38719e-05
0.000101059
0.000258499
0.000219024
4.10972e-06
4.95949e-06
9.60972e-05
9.2383e-06
5.07002e-06
1.82192e-05
7.52161e-05
8.87639e-05
0.00024266
0.000242938
3.28167e-05
2.17995e-05