/*--------------------------------*- C++ -*----------------------------------*\
| =========                 |                                                 |
| \\      /  F ield         | OpenFOAM: The Open Source CFD Toolbox           |
|  \\    /   O peration     | Version:  2312                                  |
|   \\  /    A nd           | Website:  www.openfoam.com                      |
|    \\/     M anipulation  |                                                 |
\*---------------------------------------------------------------------------*/
FoamFile
{
    version     2.0;
    format      ascii;
    arch        "LSB;label=32;scalar=64";
    class       volScalarField;
    location    "0.29";
    object      p;
}
// * * * * * * * * * * * * * * * * * * * * * * * * * * * * * * * * * * * * * //

dimensions      [1 -1 -2 0 0 0 0];

internalField   nonuniform List<scalar> 
8000
(
372.481
372.613
372.879
373.275
373.776
374.344
374.921
375.443
375.838
376.01
322.578
322.764
323.133
323.668
324.327
325.057
325.789
326.443
326.934
327.155
271.725
272.026
272.616
273.447
274.445
275.529
276.599
277.546
278.254
278.583
219.613
220.116
221.092
222.442
224.035
225.741
227.406
228.867
229.962
230.489
165.89
166.691
168.254
170.394
172.894
175.581
178.231
180.552
182.306
183.165
108.783
110.189
112.922
116.521
120.497
124.695
128.9
132.632
135.563
137.15
46.5082
48.6262
52.8882
58.9402
65.8716
72.9593
79.8394
85.6733
90.1256
93.1216
6.05013
6.90738
8.93144
12.1702
17.9584
25.3324
33.626
42.232
48.1028
53.2339
-0.395062
-0.397044
-0.397392
-0.372685
-0.0653835
1.85974
5.31198
11.7106
17.7674
25.2384
-0.465883
-0.469017
-0.470235
-0.476393
-0.492146
-0.533953
-0.537121
-0.218036
3.85433
10.3927
-0.560154
-0.564378
-0.574645
-0.581258
-0.590996
-0.594134
-0.599739
-0.580226
-0.637808
3.94904
-0.640092
-0.644627
-0.652371
-0.66024
-0.660887
-0.646154
-0.632162
-0.613869
-0.550342
1.00374
-0.709857
-0.713675
-0.718678
-0.724803
-0.7248
-0.715954
-0.702695
-0.69001
-0.717105
-0.738848
-0.772598
-0.774262
-0.776452
-0.778493
-0.78074
-0.783243
-0.788213
-0.782726
-0.777905
-0.782259
-0.827335
-0.827476
-0.827005
-0.827824
-0.834446
-0.84509
-0.870766
-0.874399
-0.849893
-0.812277
-0.877398
-0.877275
-0.877082
-0.879148
-0.886803
-0.901843
-0.935666
-0.945689
-0.916048
-0.869184
-0.92805
-0.927982
-0.928312
-0.930949
-0.93595
-0.94595
-0.963279
-0.962747
-0.93605
-0.913223
-0.981091
-0.980806
-0.981422
-0.982698
-0.984379
-0.986769
-0.987251
-0.975724
-0.95426
-0.950665
-1.03605
-1.03546
-1.03529
-1.03522
-1.03487
-1.03362
-1.02927
-1.01847
-1.005
-1.00581
-1.09161
-1.09063
-1.08981
-1.08889
-1.08751
-1.08512
-1.08086
-1.07431
-1.06799
-1.06794
373.232
373.305
373.464
373.724
374.08
374.507
374.963
375.39
375.721
375.848
323.407
323.53
323.786
324.169
324.663
325.231
325.82
326.363
326.777
326.946
272.758
272.981
273.433
274.076
274.861
275.731
276.613
277.411
278.011
278.269
220.822
221.252
222.092
223.234
224.565
225.987
227.394
228.641
229.568
229.982
167.114
167.866
169.352
171.325
173.545
175.879
178.184
180.2
181.682
182.335
109.335
110.79
113.692
117.37
121.215
125.002
128.793
132.083
134.528
135.606
43.3027
45.9328
50.8921
57.4924
64.903
72.2418
79.2145
84.6906
88.4283
90.2002
3.78794
4.71516
6.77374
9.63076
13.6635
21.8482
32.0123
41.2057
46.1446
48.2478
-0.430295
-0.445343
-0.438132
-0.440489
-0.285214
0.325185
4.67626
11.8779
16.6386
18.0829
-0.491509
-0.495721
-0.500624
-0.505997
-0.500333
-0.585648
-0.59199
-0.435318
3.66004
4.33586
-0.576704
-0.584143
-0.598264
-0.612066
-0.62376
-0.636415
-0.651295
-0.67685
-0.739879
-0.587799
-0.655047
-0.664877
-0.683066
-0.701602
-0.709102
-0.699628
-0.695596
-0.696664
-0.691295
-0.533583
-0.717644
-0.725456
-0.735296
-0.74924
-0.763089
-0.760967
-0.754593
-0.734933
-0.722864
-0.714166
-0.780188
-0.785981
-0.79239
-0.796424
-0.80119
-0.808417
-0.817593
-0.808889
-0.789786
-0.785563
-0.835334
-0.838471
-0.839694
-0.839408
-0.846423
-0.861554
-0.886685
-0.884436
-0.865197
-0.858204
-0.883766
-0.883586
-0.882931
-0.884559
-0.89413
-0.916819
-0.95289
-0.954259
-0.945037
-0.931578
-0.930335
-0.930041
-0.930375
-0.932694
-0.938303
-0.952672
-0.974949
-0.976569
-0.969067
-0.950894
-0.981961
-0.981631
-0.982095
-0.982904
-0.98418
-0.985813
-0.984788
-0.975996
-0.96502
-0.962619
-1.03628
-1.03559
-1.03523
-1.03494
-1.03425
-1.03188
-1.02452
-1.01172
-1.00308
-1.01035
-1.09134
-1.09034
-1.0895
-1.08855
-1.08707
-1.0843
-1.07931
-1.07207
-1.06657
-1.07026
374.199
374.181
374.188
374.255
374.402
374.628
374.903
375.184
375.41
375.473
324.515
324.531
324.612
324.776
325.026
325.355
325.731
326.098
326.385
326.477
274.233
274.302
274.505
274.841
275.293
275.845
276.444
277.01
277.438
277.588
222.866
223.054
223.528
224.222
225.072
226.041
227.058
227.989
228.677
228.924
169.709
170.157
171.124
172.488
174.065
175.781
177.551
179.123
180.25
180.63
113.254
114.284
116.337
118.983
121.816
124.74
127.763
130.352
132.15
132.748
52.0617
54.0049
57.4642
61.912
67.1982
72.2435
77.615
81.9523
84.7494
85.8424
6.89539
8.30368
10.5214
12.7241
15.6871
22.3579
31.035
38.0302
41.3409
42.4796
-0.441835
-0.439027
-0.438247
-0.468751
-0.408032
1.02696
5.03259
10.5956
12.0588
11.9228
-0.50327
-0.51065
-0.519361
-0.532698
-0.533883
-0.553542
-0.583879
-0.604742
-0.479912
-0.125633
-0.578944
-0.586353
-0.60914
-0.638147
-0.670804
-0.660965
-0.661398
-0.673024
-0.660968
-0.53796
-0.650347
-0.657693
-0.677574
-0.714035
-0.745556
-0.745349
-0.728969
-0.717003
-0.685516
-0.566839
-0.712316
-0.716832
-0.730207
-0.753225
-0.779512
-0.793807
-0.7928
-0.774135
-0.735906
-0.667887
-0.770593
-0.774752
-0.782806
-0.795226
-0.811761
-0.827244
-0.840813
-0.841092
-0.818405
-0.783119
-0.825513
-0.828547
-0.832796
-0.839865
-0.853112
-0.872076
-0.88955
-0.897477
-0.887983
-0.874932
-0.877983
-0.878961
-0.880982
-0.885728
-0.896394
-0.916148
-0.939834
-0.953173
-0.963076
-0.952351
-0.928674
-0.928836
-0.930024
-0.932766
-0.938165
-0.948298
-0.96246
-0.974084
-0.989849
-0.975655
-0.981052
-0.98082
-0.981303
-0.982357
-0.98381
-0.984321
-0.980752
-0.97703
-0.984753
-0.983673
-1.03488
-1.03431
-1.03413
-1.03418
-1.03387
-1.03205
-1.02646
-1.01817
-1.01541
-1.02384
-1.08987
-1.08903
-1.08841
-1.08778
-1.08675
-1.08467
-1.08128
-1.07632
-1.07344
-1.07657
375.581
375.444
375.232
375.029
374.886
374.83
374.852
374.928
375.007
374.977
326.044
325.916
325.759
325.623
325.542
325.547
325.63
325.759
325.871
325.852
276.223
276.099
275.964
275.884
275.887
276.008
276.225
276.479
276.677
276.677
225.587
225.427
225.461
225.558
225.766
226.129
226.605
227.104
227.479
227.51
173.538
173.597
173.696
174.19
174.855
175.674
176.656
177.609
178.299
178.374
118.684
118.922
119.731
121.192
122.624
124.326
126.229
127.832
128.95
129.102
60.24
61.0317
64.0945
66.7678
69.6515
72.3966
75.3507
77.718
79.4277
80.1155
9.26895
10.0825
12.1298
15.0192
17.7094
22.5444
27.8603
31.1025
32.2642
33.9826
-0.429683
-0.437098
-0.462117
-0.532269
-0.540929
0.793527
3.2155
4.91528
4.74701
5.47921
-0.489707
-0.501226
-0.519292
-0.550047
-0.564719
-0.545519
-0.539659
-0.562067
-0.584149
-0.508505
-0.56455
-0.573689
-0.598715
-0.639669
-0.688406
-0.68802
-0.664676
-0.652195
-0.639476
-0.54776
-0.638533
-0.644851
-0.663725
-0.698879
-0.74358
-0.762037
-0.749403
-0.722521
-0.68109
-0.594378
-0.707792
-0.711949
-0.721307
-0.742759
-0.774409
-0.799723
-0.810972
-0.802537
-0.77227
-0.694059
-0.76869
-0.770926
-0.776257
-0.788788
-0.80795
-0.826678
-0.842663
-0.853254
-0.843971
-0.791678
-0.820757
-0.823116
-0.827036
-0.835348
-0.848517
-0.863411
-0.876535
-0.895293
-0.88773
-0.860954
-0.87205
-0.873845
-0.876777
-0.882578
-0.891838
-0.904973
-0.92327
-0.946676
-0.951395
-0.921897
-0.92403
-0.925098
-0.927036
-0.930602
-0.935671
-0.942162
-0.951181
-0.966378
-0.977896
-0.962607
-0.97723
-0.977676
-0.978709
-0.980574
-0.982732
-0.984055
-0.983029
-0.982463
-0.988585
-0.99004
-1.0314
-1.03141
-1.03177
-1.03256
-1.03319
-1.03284
-1.03073
-1.02742
-1.02693
-1.03159
-1.08678
-1.08648
-1.0863
-1.08633
-1.08615
-1.08524
-1.0834
-1.08142
-1.08049
-1.08186
377.276
377.033
376.602
376.074
375.56
375.147
374.856
374.679
374.578
374.427
327.879
327.685
327.273
326.758
326.25
325.851
325.577
325.414
325.312
325.152
278.573
278.316
277.85
277.276
276.709
276.299
276.044
275.918
275.835
275.647
228.815
228.478
227.968
227.334
226.694
226.354
226.176
226.14
226.127
225.898
177.994
177.582
177.046
176.503
176.11
175.769
175.738
175.91
176.069
175.796
125.272
124.698
124.259
123.913
123.715
123.822
124.402
124.909
125.274
124.976
69.8809
68.7907
68.6476
69.3372
70.349
71.8231
72.525
72.5155
72.6143
73.3218
15.1195
13.1443
12.4287
14.5142
17.9195
21.1639
22.634
22.4989
21.8685
25.721
-0.205221
-0.285034
-0.364838
-0.373463
-0.175192
0.344702
0.805953
1.06211
0.369764
2.01343
-0.493691
-0.495671
-0.515909
-0.539284
-0.557001
-0.548525
-0.530597
-0.517785
-0.54015
-0.471089
-0.536107
-0.548706
-0.564971
-0.596275
-0.63757
-0.670603
-0.671945
-0.642512
-0.611041
-0.532103
-0.62144
-0.626935
-0.639317
-0.668366
-0.708597
-0.740425
-0.74818
-0.734199
-0.687987
-0.602145
-0.702319
-0.703604
-0.709753
-0.725469
-0.752615
-0.780282
-0.801312
-0.811602
-0.790631
-0.712679
-0.765518
-0.767173
-0.770702
-0.779632
-0.795766
-0.81375
-0.833178
-0.848645
-0.847984
-0.795351
-0.815727
-0.81937
-0.822632
-0.829477
-0.840407
-0.853164
-0.866911
-0.87861
-0.869249
-0.844186
-0.866319
-0.869362
-0.872244
-0.877902
-0.885681
-0.895203
-0.906718
-0.919171
-0.913368
-0.892081
-0.918623
-0.920344
-0.922547
-0.926779
-0.931839
-0.937176
-0.94281
-0.949956
-0.951861
-0.942492
-0.972161
-0.973004
-0.974454
-0.977288
-0.980337
-0.982857
-0.9842
-0.985195
-0.986599
-0.986115
-1.02682
-1.02721
-1.02794
-1.02966
-1.03141
-1.03252
-1.03257
-1.0321
-1.03231
-1.03347
-1.08269
-1.08288
-1.08292
-1.08379
-1.08467
-1.08504
-1.08469
-1.08406
-1.08388
-1.08447
379.226
378.858
378.205
377.326
376.403
375.582
374.935
374.478
374.176
373.886
330.24
329.808
329.099
328.139
327.144
326.274
325.597
325.113
324.774
324.452
281.353
280.887
280.085
278.967
277.783
276.736
275.955
275.403
275.004
274.603
232.547
231.953
230.964
229.552
228.049
226.716
225.854
225.223
224.763
224.248
183.235
182.394
181.102
179.34
177.575
176.164
174.98
174.276
173.82
173.175
133.041
131.735
130
127.639
125.374
123.751
122.773
122.121
121.628
120.846
82.6725
80.1679
77.2349
73.8276
71.3263
70.346
69.8878
67.7441
65.5305
66.3377
29.3128
24.5958
20.0944
17.1666
16.7287
18.0818
17.7974
15.9343
13.8185
18.4032
2.46927
1.20677
0.482623
0.154329
0.0976605
-0.0372944
-0.405749
-0.450165
-0.271229
0.0649943
-0.47584
-0.52583
-0.513185
-0.514656
-0.522408
-0.537082
-0.555299
-0.520034
-0.468734
-0.443086
-0.519021
-0.535347
-0.535345
-0.545411
-0.578687
-0.616957
-0.646366
-0.650573
-0.596323
-0.52659
-0.618039
-0.626791
-0.624258
-0.63741
-0.669546
-0.700816
-0.722744
-0.730795
-0.69606
-0.617278
-0.723557
-0.713234
-0.705299
-0.709191
-0.729115
-0.754192
-0.778189
-0.79508
-0.786272
-0.723772
-0.78268
-0.776371
-0.769
-0.770534
-0.781786
-0.797851
-0.815815
-0.833862
-0.843103
-0.798785
-0.814744
-0.82053
-0.819409
-0.823154
-0.831587
-0.84229
-0.853344
-0.86274
-0.860586
-0.838201
-0.857796
-0.864076
-0.86609
-0.872015
-0.878781
-0.886415
-0.893962
-0.899921
-0.895781
-0.884313
-0.907884
-0.912781
-0.915324
-0.921079
-0.926567
-0.931747
-0.935976
-0.938979
-0.938244
-0.933902
-0.962155
-0.965558
-0.967565
-0.972052
-0.976268
-0.979809
-0.982166
-0.983438
-0.983557
-0.982785
-1.0182
-1.02064
-1.02177
-1.02497
-1.0281
-1.03055
-1.03197
-1.03263
-1.03294
-1.03312
-1.07485
-1.07711
-1.07733
-1.07955
-1.08185
-1.08357
-1.08446
-1.08482
-1.08503
-1.08523
381.111
380.792
379.907
378.667
377.337
376.11
375.094
374.349
373.84
373.405
332.88
332.246
331.136
329.672
328.148
326.795
325.696
324.884
324.304
323.816
284.441
283.726
282.552
280.821
278.98
277.32
275.975
274.979
274.251
273.636
236.56
235.713
234.268
232.001
229.557
227.378
225.676
224.415
223.482
222.7
189.096
187.695
185.623
182.543
179.321
176.549
174.354
172.769
171.688
170.731
142.187
139.842
136.581
132.069
127.556
123.928
121.424
119.41
117.955
116.961
97.3259
93.4648
87.9268
80.5142
73.5993
69.305
67.1232
62.4717
58.2451
59.6413
49.5386
42.6828
33.936
24.2467
17.0606
14.8185
15.262
12.9104
9.90317
12.5998
11.9598
8.14239
3.3826
0.967765
0.16136
-0.275951
-0.461707
-0.459541
-0.431457
-0.3466
0.084164
-0.487382
-0.467859
-0.500182
-0.505824
-0.512399
-0.536995
-0.529288
-0.491933
-0.448003
-0.649759
-0.567729
-0.50595
-0.505345
-0.538611
-0.583104
-0.626341
-0.631472
-0.59465
-0.538266
-0.715207
-0.662601
-0.614157
-0.609875
-0.637902
-0.66849
-0.698334
-0.713726
-0.694656
-0.63175
-0.794823
-0.755194
-0.71408
-0.700486
-0.711954
-0.730356
-0.753768
-0.773266
-0.77274
-0.7265
-0.831973
-0.803919
-0.777529
-0.766399
-0.770752
-0.78204
-0.796989
-0.814605
-0.830286
-0.797132
-0.802653
-0.827032
-0.818709
-0.818735
-0.823781
-0.83177
-0.840463
-0.849712
-0.854066
-0.834663
-0.831389
-0.853016
-0.859304
-0.865744
-0.871894
-0.878374
-0.884231
-0.889185
-0.88815
-0.879195
-0.883327
-0.898411
-0.905904
-0.913918
-0.920383
-0.925918
-0.930038
-0.932644
-0.931902
-0.928538
-0.94206
-0.952291
-0.958163
-0.965219
-0.97097
-0.975605
-0.978778
-0.980613
-0.980838
-0.97981
-1.00393
-1.01007
-1.01354
-1.01884
-1.02357
-1.02737
-1.02988
-1.03136
-1.03194
-1.0318
-1.06522
-1.06868
-1.06991
-1.07389
-1.07784
-1.08101
-1.08302
-1.08419
-1.08476
-1.08486
382.729
382.417
381.472
379.907
378.218
376.647
375.307
374.292
373.592
373.02
335.39
334.649
333.167
331.137
329.11
327.317
325.84
324.731
323.933
323.294
287.478
286.542
284.922
282.553
280.102
277.902
276.066
274.657
273.625
272.822
240.302
239.293
237.33
234.224
230.947
228.008
225.589
223.738
222.366
221.378
194.561
192.843
189.859
185.503
181
177.046
173.857
171.432
169.77
168.647
151.333
147.977
142.957
136.316
129.746
124.191
120.084
116.826
114.383
113.518
110.948
105.696
97.981
87.4477
76.642
68.353
64.2245
57.8832
51.6305
53.839
69.2476
61.0585
49.2291
33.7745
19.7871
12.4056
12.4873
10.8192
7.18648
9.43995
29.5331
21.1248
11.6103
3.16263
0.392716
-0.329599
-0.468189
-0.435215
-0.43347
-0.398412
7.7025
2.58482
-0.126885
-0.459635
-0.502601
-0.497638
-0.52837
-0.526788
-0.496694
-0.462414
-0.023979
-0.497451
-0.516259
-0.494278
-0.512805
-0.559048
-0.612845
-0.623752
-0.596137
-0.55635
-0.843457
-0.700537
-0.625951
-0.591774
-0.612809
-0.642444
-0.677113
-0.69374
-0.688323
-0.64861
-0.876058
-0.802336
-0.742216
-0.695301
-0.702347
-0.71213
-0.733026
-0.749486
-0.755632
-0.725148
-0.887114
-0.859401
-0.811413
-0.766145
-0.765309
-0.769951
-0.78187
-0.796519
-0.81262
-0.788267
-0.634614
-0.834252
-0.828136
-0.815938
-0.818016
-0.822921
-0.829807
-0.838892
-0.847014
-0.830691
-0.806998
-0.836054
-0.855433
-0.859849
-0.865321
-0.871273
-0.87653
-0.881951
-0.883784
-0.875239
-0.849422
-0.873658
-0.893057
-0.905888
-0.91389
-0.920237
-0.924729
-0.927805
-0.927318
-0.924224
-0.922618
-0.934544
-0.94615
-0.957915
-0.965324
-0.971071
-0.975077
-0.977602
-0.977947
-0.976646
-0.998069
-1.00147
-1.00534
-1.01255
-1.01863
-1.02364
-1.02715
-1.02938
-1.03025
-1.02999
-1.07899
-1.06751
-1.06354
-1.06781
-1.07329
-1.07783
-1.08091
-1.08284
-1.08376
-1.08388
384.568
383.632
382.37
380.775
378.859
377.071
375.516
374.284
373.432
372.754
339.068
336.874
334.636
332.221
329.803
327.71
325.978
324.641
323.674
322.922
291.025
289.158
286.593
283.746
280.901
278.352
276.188
274.44
273.166
272.227
243.477
242.272
239.409
235.708
231.903
228.479
225.532
223.236
221.509
220.396
198.383
197.013
192.962
187.556
182.188
177.479
173.675
170.413
168.249
167.099
157.959
154.634
148.015
139.437
131.31
124.439
119.061
114.693
111.42
110.868
121.115
115.03
105.61
92.6524
79.198
67.9608
61.1465
54.357
46.7245
49.6919
82.8864
74.0254
60.9768
41.9199
23.5357
12.2011
10.3208
8.69301
5.09279
7.474
45.0224
33.9264
21.0258
7.46041
0.946652
-0.289302
-0.475143
-0.455855
-0.445065
-0.405171
18.3571
9.42507
2.21742
-0.432138
-0.490233
-0.47521
-0.510596
-0.522539
-0.495268
-0.465978
6.55021
2.58346
-0.455389
-0.506285
-0.484101
-0.536568
-0.588985
-0.603786
-0.587584
-0.564944
2.8749
-0.783057
-0.647522
-0.598715
-0.59509
-0.619938
-0.654524
-0.666938
-0.6719
-0.645918
7.77827
-0.862734
-0.772256
-0.699977
-0.701299
-0.697894
-0.716484
-0.724251
-0.733122
-0.713817
8.43494
-0.662709
-0.870764
-0.77323
-0.769172
-0.763483
-0.771868
-0.780233
-0.793733
-0.775811
0.0254658
-0.825604
-0.861035
-0.825524
-0.818546
-0.817329
-0.82241
-0.829982
-0.839281
-0.825885
-1.00619
-0.775503
-0.859589
-0.853667
-0.861696
-0.865596
-0.87075
-0.876878
-0.881325
-0.872732
-0.813161
-0.806305
-0.874612
-0.898102
-0.909043
-0.91508
-0.920163
-0.924154
-0.92473
-0.921574
-0.885916
-0.903249
-0.933554
-0.949825
-0.960345
-0.96655
-0.971536
-0.974759
-0.975164
-0.973764
-0.996007
-0.993194
-0.998004
-1.00494
-1.01354
-1.01962
-1.0243
-1.02734
-1.02851
-1.02816
-1.1326
-1.0566
-1.05225
-1.05754
-1.06762
-1.0741
-1.07852
-1.08125
-1.08251
-1.08268
386.729
384.879
382.652
381.143
379.245
377.326
375.674
374.301
373.356
372.615
346.334
338.786
335.333
332.946
330.285
327.923
326.063
324.61
323.54
322.724
298.762
290.972
287.466
284.542
281.419
278.645
276.316
274.347
272.916
271.899
250.756
243.717
240.448
236.597
232.46
228.796
225.647
222.993
221.018
219.842
206.404
198.869
194.742
188.945
182.884
177.787
173.507
169.844
167.366
166.215
168.065
158.223
151.286
141.674
132.368
124.82
118.562
113.389
109.655
109.284
133.997
120.988
110.559
96.272
81.2602
68.6087
59.6967
52.0545
43.7609
47.3151
95.1139
82.3017
68.2321
47.6671
27.3661
13.6958
9.07312
7.00204
3.90881
6.43228
52.7718
44.254
27.9507
10.7637
2.10013
-0.272993
-0.459042
-0.451358
-0.44287
-0.404618
26.6865
18.4896
6.67862
0.0199524
-0.412308
-0.479979
-0.500957
-0.511442
-0.487278
-0.467442
15.8992
6.51025
-0.199108
-0.570947
-0.469247
-0.523681
-0.569346
-0.580432
-0.574373
-0.558619
10.5185
2.27958
-0.690289
-0.622765
-0.589504
-0.608258
-0.640665
-0.647235
-0.652045
-0.634971
10.7805
5.9089
-0.796558
-0.724568
-0.706786
-0.692772
-0.706745
-0.707753
-0.714301
-0.703337
9.36333
6.1544
-1.18638
-0.821545
-0.776414
-0.761479
-0.767045
-0.768487
-0.78066
-0.766743
5.18969
0.823878
-0.898665
-0.85095
-0.822581
-0.814232
-0.818411
-0.822778
-0.833089
-0.822104
4.23104
-0.501376
-0.756965
-0.830812
-0.859897
-0.860695
-0.867083
-0.873209
-0.879722
-0.871147
6.77577
-0.731083
-0.798807
-0.874018
-0.905614
-0.91106
-0.917135
-0.921811
-0.923417
-0.920184
7.82445
-0.885322
-0.887296
-0.933779
-0.956964
-0.963585
-0.969103
-0.972877
-0.973651
-0.972626
9.67067
-0.947456
-0.955651
-0.989661
-1.01018
-1.01724
-1.02237
-1.02588
-1.02723
-1.02694
10.8762
-0.965572
-1.00458
-1.04344
-1.06551
-1.07252
-1.0771
-1.08008
-1.08147
-1.08169
385.903
384.368
382.48
381.087
379.241
377.32
375.66
374.29
373.345
372.603
345.707
338.94
335.18
332.893
330.265
327.912
326.056
324.598
323.525
322.708
298.563
291.234
287.369
284.508
281.409
278.636
276.301
274.325
272.892
271.875
251.017
244.005
240.403
236.592
232.508
228.815
225.616
222.953
220.977
219.801
207.239
199.323
194.809
189.024
183.018
177.841
173.456
169.764
167.285
166.139
169.653
159.001
151.483
141.834
132.558
124.854
118.396
113.182
109.481
109.13
135.432
121.719
110.699
96.3792
81.3985
68.6079
59.442
51.8513
43.5669
47.1234
94.6662
82.5494
68.2166
47.6266
27.4236
13.6695
8.8443
6.80613
3.77366
6.31803
52.3338
43.8554
27.6451
10.7223
2.22933
-0.279209
-0.44865
-0.442693
-0.44917
-0.402876
27.3134
17.7439
6.66525
0.102948
-0.410806
-0.47703
-0.493271
-0.503895
-0.489614
-0.46798
12.5999
6.49312
-0.305004
-0.595049
-0.468531
-0.521581
-0.560647
-0.569775
-0.565371
-0.551278
9.88495
2.08356
-0.735868
-0.647825
-0.590769
-0.607709
-0.636491
-0.640441
-0.642585
-0.628502
11.4742
2.74158
-0.791241
-0.734009
-0.707828
-0.693159
-0.704737
-0.703918
-0.707806
-0.699488
13.129
5.22469
-0.953355
-0.822221
-0.783088
-0.763365
-0.766621
-0.765452
-0.775813
-0.765027
11.5699
7.20234
-0.988691
-0.882101
-0.828671
-0.815303
-0.817784
-0.820108
-0.830409
-0.820705
9.78658
1.9476
-0.744457
-0.850713
-0.86157
-0.86061
-0.866009
-0.871356
-0.878185
-0.87014
8.84484
-0.872611
-0.796089
-0.845966
-0.905136
-0.909263
-0.915879
-0.920462
-0.92254
-0.919416
10.2961
-0.906159
-0.873749
-0.920837
-0.960277
-0.961441
-0.96785
-0.971773
-0.97287
-0.972201
11.2153
-1.11744
-0.984148
-0.99267
-1.01394
-1.01558
-1.02113
-1.02482
-1.02635
-1.02621
12.1383
-0.97394
-1.07121
-1.05373
-1.06903
-1.07078
-1.07576
-1.07898
-1.08052
-1.08085
384.476
383.534
382.277
380.741
378.846
377.055
375.491
374.256
373.402
372.721
338.827
336.671
334.504
332.186
329.786
327.695
325.952
324.605
323.634
322.88
290.914
288.955
286.417
283.692
280.895
278.343
276.143
274.379
273.101
272.162
243.534
242.056
239.152
235.633
231.917
228.468
225.448
223.132
221.4
220.291
198.781
196.723
192.687
187.528
182.245
177.475
173.543
170.21
168.036
166.924
158.612
154.306
147.772
139.417
131.326
124.321
118.639
114.198
110.932
110.518
121.62
114.717
105.256
92.4345
79.1421
67.8113
60.4454
53.9673
46.2528
49.1946
82.7097
73.8928
60.5955
41.5372
23.4874
12.2383
9.9083
8.31151
4.79033
7.19371
44.2048
33.8604
20.2874
7.09423
1.15662
-0.335528
-0.449671
-0.436098
-0.452499
-0.402011
17.7411
9.26008
1.76229
-0.486164
-0.450911
-0.463498
-0.501601
-0.506715
-0.494062
-0.470044
5.9283
1.86621
-0.618832
-0.547339
-0.487087
-0.536226
-0.571516
-0.577351
-0.571662
-0.553603
2.36993
-0.676974
-0.741873
-0.635119
-0.612705
-0.623386
-0.643691
-0.646642
-0.650188
-0.631488
3.73256
-0.688356
-0.800289
-0.714488
-0.705823
-0.700043
-0.707524
-0.708327
-0.714737
-0.702856
5.05142
-0.73642
-0.861226
-0.80957
-0.773703
-0.766335
-0.768195
-0.769019
-0.780712
-0.766401
7.60843
-0.859038
-0.941499
-0.874321
-0.826984
-0.819675
-0.820128
-0.822805
-0.833235
-0.820451
3.28051
-0.671148
-0.868747
-0.876781
-0.86687
-0.865636
-0.868551
-0.87243
-0.8776
-0.86987
-0.856348
-0.691246
-0.858284
-0.892292
-0.90914
-0.91297
-0.917614
-0.921007
-0.922333
-0.919796
-1.06351
-0.869319
-0.923407
-0.936659
-0.959992
-0.962562
-0.968425
-0.971902
-0.972815
-0.97194
-1.02675
-0.944629
-0.974887
-0.98908
-1.00924
-1.01549
-1.02106
-1.02459
-1.02611
-1.026
-0.922799
-1.0038
-1.02903
-1.04735
-1.06359
-1.07059
-1.07546
-1.07857
-1.08007
-1.08041
382.619
382.327
381.413
379.873
378.192
376.614
375.266
374.248
373.547
372.972
335.334
334.572
333.094
331.093
329.075
327.276
325.789
324.673
323.874
323.234
287.405
286.47
284.848
282.522
280.075
277.854
275.987
274.566
273.536
272.734
240.318
239.189
237.211
234.184
230.911
227.93
225.454
223.594
222.224
221.245
194.656
192.707
189.725
185.489
180.983
176.957
173.697
171.17
169.491
168.441
151.374
147.814
142.783
136.262
129.642
123.922
119.567
116.211
113.767
113.164
110.72
105.407
97.5143
87.2342
76.5664
68.056
63.716
57.5228
51.2029
53.4072
68.645
60.9258
49.2123
34.2947
20.372
12.5413
12.1977
10.4364
6.77497
9.18965
28.4785
21.1077
10.9606
2.90694
0.682461
-0.305155
-0.434018
-0.426935
-0.445326
-0.394558
7.08223
3.36614
-0.308551
-0.504047
-0.43759
-0.480999
-0.513619
-0.511749
-0.499879
-0.471694
-0.322039
-0.574634
-0.632599
-0.556188
-0.528898
-0.572439
-0.600041
-0.594364
-0.581186
-0.557094
-0.764885
-0.769314
-0.70437
-0.643045
-0.647825
-0.653315
-0.666584
-0.666389
-0.663006
-0.637413
-0.775792
-0.756532
-0.774069
-0.719573
-0.711422
-0.713765
-0.718457
-0.719913
-0.727595
-0.709366
-0.864913
-0.790722
-0.826989
-0.794793
-0.769735
-0.77228
-0.773631
-0.775834
-0.787691
-0.769522
-0.839599
-0.86239
-0.869842
-0.860196
-0.822788
-0.824628
-0.824049
-0.826559
-0.834942
-0.820043
-0.868897
-0.919451
-0.915558
-0.897938
-0.871496
-0.871244
-0.871921
-0.874194
-0.876563
-0.869546
-0.919951
-0.795354
-0.944131
-0.924535
-0.915424
-0.917032
-0.920052
-0.922293
-0.922343
-0.919826
-0.877458
-0.801366
-0.928451
-0.949013
-0.958154
-0.964718
-0.969736
-0.972691
-0.973541
-0.972618
-0.885888
-0.898679
-0.950291
-0.987872
-1.00611
-1.0157
-1.02145
-1.02472
-1.02617
-1.02619
-0.968459
-0.988524
-1.02334
-1.04632
-1.06128
-1.07
-1.07523
-1.07828
-1.07977
-1.08015
381.15
380.788
379.884
378.646
377.31
376.073
375.05
374.3
373.791
373.353
332.891
332.22
331.098
329.641
328.112
326.749
325.64
324.822
324.242
323.752
284.439
283.702
282.521
280.797
278.94
277.259
275.89
274.886
274.161
273.547
236.522
235.642
234.189
231.942
229.478
227.267
225.534
224.269
223.343
222.571
189.005
187.573
185.51
182.472
179.232
176.397
174.14
172.5
171.426
170.543
141.918
139.586
136.359
131.898
127.342
123.579
120.865
118.788
117.377
116.686
96.6639
92.8174
87.4309
80.3855
73.5675
68.9292
66.3976
61.8494
57.6798
59.3989
48.3862
41.9787
34.4377
25.6638
18.2744
15.0828
14.9165
12.4342
9.59604
12.4371
11.0796
7.60548
3.13235
1.08144
0.273149
-0.262707
-0.458646
-0.469045
-0.4398
-0.364997
0.1546
-0.397892
-0.560289
-0.522959
-0.491218
-0.505675
-0.521499
-0.516766
-0.500674
-0.472413
-0.632449
-0.526219
-0.590717
-0.568592
-0.567074
-0.595388
-0.614435
-0.602195
-0.584465
-0.55418
-0.65908
-0.631803
-0.660164
-0.648717
-0.662979
-0.679211
-0.69341
-0.691037
-0.674046
-0.640641
-0.726845
-0.709917
-0.721797
-0.721092
-0.716309
-0.729183
-0.73668
-0.735823
-0.743162
-0.718213
-0.805509
-0.785837
-0.761809
-0.782115
-0.770163
-0.778716
-0.783899
-0.785654
-0.794393
-0.773061
-0.871011
-0.875844
-0.821112
-0.844178
-0.823687
-0.829084
-0.830881
-0.832523
-0.835368
-0.819975
-0.897025
-0.944117
-0.875748
-0.887431
-0.873765
-0.875554
-0.876821
-0.878116
-0.877085
-0.870063
-0.916026
-0.961269
-0.920264
-0.91951
-0.918268
-0.921021
-0.923556
-0.925016
-0.924497
-0.92194
-0.91901
-0.900574
-0.93274
-0.952504
-0.962313
-0.968193
-0.972056
-0.974164
-0.974774
-0.974177
-0.959125
-0.925231
-0.979123
-0.998723
-1.01134
-1.01865
-1.02296
-1.02541
-1.02653
-1.02669
-1.01541
-1.01513
-1.04037
-1.05427
-1.06504
-1.07197
-1.07603
-1.07839
-1.07958
-1.07998
379.244
378.86
378.189
377.305
376.372
375.543
374.891
374.432
374.131
373.839
330.236
329.794
329.07
328.107
327.104
326.225
325.543
325.056
324.719
324.396
281.368
280.893
280.066
278.934
277.731
276.673
275.877
275.322
274.929
274.528
232.511
231.931
230.912
229.477
227.946
226.605
225.731
225.101
224.653
224.146
183.1
182.307
181.007
179.236
177.449
175.994
174.78
174.058
173.626
173.037
132.748
131.486
129.741
127.376
125.118
123.423
122.337
121.63
121.23
120.69
81.9494
79.5689
76.8855
73.6835
71.2391
69.9456
69.1655
66.9739
65.0283
66.373
28.2914
24.0007
20.7729
18.3942
17.9994
18.4613
17.4834
15.5368
13.5993
18.5803
2.2917
1.25644
0.519309
0.12477
0.0487407
-0.0752253
-0.486229
-0.373065
-0.274435
-0.0575581
-0.377506
-0.425865
-0.516481
-0.527652
-0.539857
-0.552802
-0.541673
-0.49644
-0.480979
-0.480891
-0.450103
-0.464786
-0.548671
-0.573458
-0.589515
-0.618736
-0.629643
-0.608015
-0.579242
-0.542007
-0.574643
-0.60871
-0.614587
-0.62882
-0.663698
-0.693052
-0.711895
-0.709254
-0.680992
-0.638017
-0.689746
-0.701651
-0.691088
-0.695655
-0.718511
-0.743643
-0.755251
-0.75435
-0.757809
-0.725102
-0.774754
-0.776452
-0.759558
-0.767081
-0.773162
-0.788793
-0.795028
-0.797295
-0.80032
-0.776179
-0.83083
-0.849267
-0.825441
-0.831248
-0.828898
-0.834985
-0.839633
-0.842031
-0.840694
-0.825734
-0.879607
-0.912855
-0.875964
-0.879901
-0.876353
-0.879723
-0.883208
-0.885729
-0.884051
-0.877175
-0.917444
-0.937834
-0.916907
-0.919034
-0.921233
-0.924626
-0.927466
-0.929115
-0.928912
-0.926613
-0.94878
-0.943096
-0.949674
-0.959769
-0.966764
-0.971433
-0.974382
-0.975847
-0.976282
-0.97616
-0.993342
-0.981696
-0.997801
-1.00815
-1.01614
-1.02134
-1.0244
-1.02597
-1.02671
-1.02712
-1.04536
-1.04402
-1.05351
-1.06205
-1.06913
-1.07398
-1.07683
-1.07834
-1.07913
-1.07957
377.295
377.038
376.589
376.051
375.529
375.112
374.819
374.643
374.543
374.391
327.874
327.675
327.25
326.727
326.21
325.808
325.531
325.37
325.271
325.11
278.597
278.324
277.827
277.234
276.655
276.237
275.981
275.859
275.782
275.595
228.804
228.462
227.91
227.243
226.582
226.253
226.085
226.057
226.056
225.833
177.884
177.503
176.959
176.375
175.972
175.629
175.597
175.778
175.958
175.713
124.96
124.439
123.991
123.585
123.4
123.532
124.128
124.647
125.091
124.899
69.1311
68.2488
68.301
68.965
69.9034
71.2707
72.0514
72.2164
72.5317
73.3788
14.2214
12.641
12.7775
15.0895
18.372
21.296
22.9082
22.9212
22.2198
25.7954
-0.186369
-0.27623
-0.354667
-0.361817
-0.141564
0.413296
0.863839
1.07534
0.323754
1.98154
-0.447884
-0.448695
-0.504932
-0.528016
-0.55526
-0.562398
-0.547088
-0.528029
-0.545619
-0.481621
-0.506911
-0.519473
-0.5492
-0.574205
-0.597286
-0.636661
-0.646064
-0.605694
-0.576482
-0.52563
-0.59245
-0.608533
-0.62775
-0.64355
-0.668286
-0.698798
-0.717301
-0.712119
-0.676874
-0.623071
-0.680258
-0.686995
-0.690794
-0.706156
-0.733457
-0.752933
-0.766663
-0.769984
-0.769117
-0.721661
-0.753209
-0.75727
-0.755853
-0.769175
-0.783518
-0.797307
-0.803189
-0.806929
-0.80287
-0.778302
-0.812882
-0.820495
-0.816541
-0.826333
-0.832865
-0.841484
-0.849326
-0.855468
-0.8506
-0.835159
-0.865267
-0.874558
-0.869475
-0.875082
-0.87884
-0.884916
-0.892364
-0.900608
-0.901524
-0.888067
-0.911972
-0.916984
-0.916055
-0.920287
-0.923972
-0.928104
-0.932071
-0.936434
-0.939633
-0.934399
-0.956311
-0.954718
-0.960526
-0.965921
-0.970515
-0.973996
-0.976032
-0.976949
-0.977989
-0.978557
-1.00511
-1.00318
-1.00999
-1.01555
-1.02021
-1.02345
-1.02511
-1.0256
-1.02588
-1.02694
-1.05985
-1.05934
-1.06377
-1.06874
-1.07281
-1.07565
-1.0771
-1.07756
-1.07781
-1.07847
375.602
375.444
375.219
375.008
374.86
374.802
374.825
374.903
374.985
374.954
326.002
325.903
325.738
325.594
325.508
325.513
325.598
325.73
325.846
325.827
276.233
276.092
275.933
275.839
275.835
275.958
276.182
276.444
276.647
276.649
225.553
225.41
225.4
225.475
225.678
226.055
226.548
227.06
227.445
227.478
173.406
173.487
173.652
174.067
174.711
175.556
176.57
177.549
178.253
178.339
118.36
118.675
119.632
120.8
122.242
124.066
126.059
127.732
128.891
129.079
59.7188
60.6714
63.6476
66.2314
68.9728
71.9372
75.1978
77.7237
79.4626
80.195
8.97779
9.94836
12.223
14.9601