/*--------------------------------*- C++ -*----------------------------------*\
| =========                 |                                                 |
| \\      /  F ield         | OpenFOAM: The Open Source CFD Toolbox           |
|  \\    /   O peration     | Version:  2312                                  |
|   \\  /    A nd           | Website:  www.openfoam.com                      |
|    \\/     M anipulation  |                                                 |
\*---------------------------------------------------------------------------*/
FoamFile
{
    version     2.0;
    format      ascii;
    arch        "LSB;label=32;scalar=64";
    class       volScalarField;
    location    "0.29";
    object      p_rgh;
}
// * * * * * * * * * * * * * * * * * * * * * * * * * * * * * * * * * * * * * //

dimensions      [1 -1 -2 0 0 0 0];

internalField   nonuniform List<scalar> 
8000
(
397.006
397.138
397.404
397.8
398.301
398.869
399.446
399.968
400.363
400.535
396.153
396.339
396.708
397.243
397.902
398.632
399.364
400.018
400.509
400.73
394.35
394.651
395.241
396.072
397.07
398.154
399.224
400.171
400.879
401.208
391.288
391.791
392.767
394.117
395.71
397.416
399.081
400.542
401.637
402.164
386.615
387.416
388.979
391.119
393.619
396.306
398.956
401.277
403.031
403.89
378.553
379.96
382.694
386.294
390.271
394.469
398.675
402.407
405.338
406.925
349.05
355.213
366.03
376.857
384.643
391.757
398.654
404.495
408.948
411.942
103.606
117.881
151.147
202.808
268.707
330.422
380.382
406.94
415.653
414.406
0.0220046
0.020008
0.0196769
0.0444182
7.46221
43.6229
112.699
215.25
300.766
353.828
0.000233862
-0.00291209
-0.00413169
-0.0102366
-0.025967
-0.0676972
-0.0701759
7.37752
114.414
309.487
-0.0449801
-0.0492118
-0.0594775
-0.0655791
-0.0725362
-0.0777009
-0.0830758
-0.0635156
-0.0116309
225.283
-0.0758543
-0.0803951
-0.0881411
-0.0940926
-0.0869662
-0.0392405
-0.0317984
-0.0436929
2.90957
38.5903
-0.0937145
-0.0985603
-0.104594
-0.105576
-0.0802644
-0.06067
-0.0485821
-0.0672291
0.0304982
-0.12105
-0.0992566
-0.103179
-0.111763
-0.103632
-0.10489
-0.113182
-0.116969
-0.116304
-0.114353
-0.115557
-0.105789
-0.107229
-0.110144
-0.108903
-0.123155
-0.133862
-0.159501
-0.162931
-0.138128
-0.0980666
-0.113045
-0.114482
-0.115512
-0.118873
-0.126528
-0.141568
-0.174821
-0.177552
-0.146332
-0.107751
-0.118725
-0.118657
-0.118987
-0.121624
-0.126625
-0.136624
-0.153401
-0.143514
-0.116114
-0.103694
-0.122716
-0.122431
-0.123047
-0.124323
-0.126004
-0.128394
-0.128875
-0.115563
-0.0893054
-0.0922896
-0.128625
-0.128038
-0.127862
-0.127796
-0.127444
-0.126192
-0.12184
-0.111039
-0.0975629
-0.0983876
-0.135132
-0.134155
-0.133336
-0.132414
-0.131031
-0.128649
-0.124384
-0.11783
-0.111514
-0.111467
397.757
397.83
397.989
398.249
398.605
399.032
399.488
399.915
400.246
400.373
396.982
397.105
397.361
397.744
398.238
398.806
399.395
399.938
400.352
400.521
395.383
395.606
396.058
396.701
397.486
398.356
399.238
400.036
400.636
400.894
392.497
392.927
393.767
394.909
396.24
397.662
399.069
400.316
401.243
401.657
387.839
388.591
390.077
392.05
394.27
396.604
398.909
400.925
402.407
403.06
379.104
380.56
383.464
387.143
390.989
394.776
398.568
401.858
404.303
405.381
335.773
345.045
359.655
373.462
383.675
391.037
398.028
403.513
407.251
409.023
71.1148
86.7148
120.984
170.403
238.027
311.604
373.719
406.282
413.79
415.745
-0.0132261
-0.0282638
-0.0210385
-0.0233169
0.132072
23.6522
100.349
217.493
288.987
301.288
-0.024982
-0.0296043
-0.0344957
-0.039791
-0.0340767
-0.119269
-0.125554
4.6847
86.8113
117.903
-0.0524996
-0.0689021
-0.0831129
-0.0882585
-0.0940881
-0.12088
-0.134079
-0.159884
-0.222645
0.390194
-0.0894386
-0.100032
-0.1185
-0.127413
-0.117212
-0.0640797
-0.0563878
-0.0920806
-0.110759
2.21345
-0.0831772
-0.0951998
-0.110083
-0.109032
-0.118617
-0.0827278
-0.0435474
-0.0204082
-0.068055
0.0363902
-0.0889497
-0.094743
-0.118031
-0.134244
-0.138398
-0.143057
-0.124369
-0.0811552
-0.0977025
-0.119992
-0.0928923
-0.116907
-0.128467
-0.127267
-0.135198
-0.150327
-0.175455
-0.168435
-0.144184
-0.144124
-0.120435
-0.123311
-0.122425
-0.124284
-0.133855
-0.156543
-0.192588
-0.193083
-0.181267
-0.163382
-0.12101
-0.120716
-0.12105
-0.123369
-0.128978
-0.143347
-0.165513
-0.161192
-0.14913
-0.131073
-0.123586
-0.123256
-0.12372
-0.124529
-0.125805
-0.127438
-0.126383
-0.114217
-0.0994475
-0.101629
-0.128851
-0.128169
-0.127805
-0.127519
-0.126829
-0.124452
-0.117093
-0.104254
-0.0955742
-0.10292
-0.13487
-0.133867
-0.133026
-0.132073
-0.130594
-0.127826
-0.122836
-0.115598
-0.110099
-0.113781
398.724
398.706
398.713
398.78
398.927
399.153
399.428
399.709
399.935
399.998
398.09
398.106
398.187
398.351
398.601
398.93
399.306
399.673
399.96
400.052
396.858
396.927
397.13
397.466
397.918
398.47
399.069
399.635
400.063
400.213
394.541
394.729
395.203
395.897
396.747
397.716
398.733
399.664
400.352
400.599
390.434
390.882
391.849
393.213
394.79
396.506
398.276
399.848
400.975
401.355
383.028
384.058
386.111
388.757
391.591
394.515
397.538
400.127
401.925
402.523
360.48
365.933
373.369
380.243
386.007
391.056
396.432
400.774
403.572
404.664
123.728
143.417
176.849
215.282
264.16
313.232
364.924
398.545
406.529
407.291
-0.0244988
-0.0219276
-0.0210751
-0.0498566
1.84746
29.5683
97.7863
185.545
216.622
217.957
-0.0351442
-0.0427744
-0.0253317
-0.0618683
-0.0675033
-0.0871058
-0.117272
-0.137083
1.19805
9.85916
-0.0456266
-0.0710909
-0.0940242
-0.108267
-0.140724
-0.143361
-0.144668
-0.15532
-0.143377
-0.0194338
-0.0835699
-0.0884081
-0.110859
-0.146013
-0.174266
-0.164293
-0.155109
-0.0799978
-0.0491883
0.00234479
-0.0906963
-0.0864019
-0.112965
-0.138629
-0.160172
-0.154519
-0.0945319
-0.0205262
0.0189921
-0.0223957
-0.0797897
-0.0938856
-0.11861
-0.133051
-0.149586
-0.165062
-0.155942
-0.0903231
-0.0708948
-0.10249
-0.0950021
-0.115473
-0.121571
-0.12864
-0.141887
-0.160851
-0.178317
-0.184861
-0.175377
-0.161314
-0.117708
-0.118686
-0.120707
-0.125453
-0.136119
-0.155873
-0.179558
-0.192884
-0.202311
-0.185966
-0.119349
-0.119511
-0.120699
-0.123441
-0.12884
-0.138973
-0.153108
-0.163679
-0.176312
-0.160147
-0.122677
-0.122445
-0.122928
-0.123982
-0.125435
-0.125946
-0.122353
-0.117577
-0.123963
-0.124756
-0.12746
-0.126882
-0.126709
-0.12675
-0.126449
-0.124629
-0.119034
-0.110695
-0.107927
-0.11641
-0.133392
-0.132553
-0.131932
-0.131308
-0.130271
-0.128191
-0.124808
-0.11984
-0.116963
-0.120092
400.106
399.969
399.757
399.554
399.411
399.355
399.377
399.453
399.532
399.502
399.619
399.491
399.334
399.198
399.117
399.122
399.205
399.334
399.446
399.427
398.848
398.724
398.589
398.509
398.512
398.633
398.85
399.104
399.302
399.302
397.262
397.102
397.136
397.233
397.441
397.804
398.28
398.779
399.154
399.185
394.263
394.322
394.421
394.915
395.58
396.399
397.381
398.334
399.024
399.099
388.459
388.697
389.505
390.967
392.399
394.101
396.004
397.607
398.725
398.877
379.063
378.717
382.515
385.591
388.474
391.218
394.17
396.535
398.242
398.93
164.615
176.483
204.655
245.784
278.011
302.443
336.734
364.674
374.48
381.532
0.0685963
-0.0172051
-0.0420835
-0.106242
5.47325
26.5242
66.094
95.8841
100.768
115.305
-0.0186682
0.0244533
0.0892321
-0.0743273
-0.0977813
-0.0789127
-0.0725338
-0.0948822
-0.117078
-0.0399558
-0.0455317
-0.0585848
-0.0836203
-0.119792
-0.171348
-0.171316
-0.146741
-0.134966
-0.118989
-0.02807
-0.0744208
-0.0806723
-0.0995899
-0.134765
-0.178392
-0.196163
-0.183215
-0.104909
0.0155782
0.0584059
-0.0945101
-0.0983772
-0.108165
-0.129634
-0.158173
-0.16022
-0.154007
-0.0476388
-0.0147201
0.0656322
-0.105236
-0.108073
-0.114082
-0.126613
-0.145775
-0.164501
-0.174543
-0.172847
-0.135435
-0.0925815
-0.108012
-0.111866
-0.115811
-0.124123
-0.137292
-0.152118
-0.165064
-0.184064
-0.17649
-0.149647
-0.111775
-0.11357
-0.116502
-0.122303
-0.131563
-0.144698
-0.162994
-0.1864
-0.191115
-0.1615
-0.114705
-0.115773
-0.117711
-0.121277
-0.126346
-0.132837
-0.14185
-0.157051
-0.168564
-0.153245
-0.118855
-0.119301
-0.120334
-0.122199
-0.124357
-0.12568
-0.124652
-0.124087
-0.130206
-0.131665
-0.123973
-0.123985
-0.124347
-0.125131
-0.125766
-0.125412
-0.123307
-0.119989
-0.119502
-0.124163
-0.130307
-0.130007
-0.129826
-0.129857
-0.129674
-0.12877
-0.126922
-0.124945
-0.124014
-0.125385
401.801
401.558
401.127
400.599
400.085
399.672
399.381
399.204
399.103
398.952
401.454
401.26
400.848
400.333
399.825
399.426
399.152
398.989
398.887
398.727
401.198
400.941
400.475
399.901
399.334
398.924
398.669
398.543
398.46
398.272
400.49
400.153
399.643
399.009
398.369
398.029
397.851
397.815
397.802
397.573
398.719
398.307
397.771
397.228
396.835
396.494
396.463
396.635
396.794
396.521
395.047
394.473
394.034
393.688
393.49
393.597
394.177
394.684
395.049
394.75
388.706
387.616
387.473
388.162
389.174
390.648
391.346
391.329
391.41
392.12
230.627
215.587
214.459
241.289
272.821
290.355
303.113
314.093
312.526
332.941
8.41227
4.10399
1.94616
1.44069
6.44684
19.3555
26.3675
28.9443
23.2542
45.1152
-0.0184306
0.0558039
0.0453766
-0.0730281
-0.0899999
-0.0814004
-0.0634121
-0.0507136
-0.0731301
-0.00440367
-0.0208019
-0.033654
-0.0499398
-0.0811012
-0.121801
-0.15419
-0.155283
-0.107216
-0.0138303
0.010701
-0.0573356
-0.0628548
-0.0752369
-0.104284
-0.11875
-0.155102
-0.181935
-0.0846091
0.0126223
0.099005
-0.089184
-0.0904738
-0.0966275
-0.111105
-0.104969
-0.0870522
-0.0820953
-0.0896369
-0.0363197
0.0498699
-0.10334
-0.104998
-0.108527
-0.117457
-0.133591
-0.151575
-0.170999
-0.186466
-0.17228
-0.0878684
-0.104502
-0.108145
-0.111407
-0.118252
-0.129181
-0.14193
-0.155683
-0.167385
-0.158023
-0.13296
-0.106044
-0.109087
-0.111969
-0.117627
-0.125406
-0.134928
-0.146443
-0.158896
-0.153093
-0.131806
-0.109298
-0.111019
-0.113222
-0.117454
-0.122514
-0.127851
-0.133485
-0.140631
-0.142536
-0.133167
-0.113786
-0.114629
-0.116079
-0.118913
-0.121962
-0.124482
-0.125825
-0.12682
-0.128224
-0.12774
-0.11939
-0.11979
-0.120517
-0.122235
-0.123981
-0.125093
-0.125142
-0.124677
-0.124881
-0.126047
-0.126212
-0.126406
-0.126448
-0.127311
-0.128192
-0.128569
-0.128217
-0.127581
-0.127407
-0.127999
403.751
403.383
402.73
401.851
400.928
400.107
399.46
399.003
398.701
398.411
403.815
403.383
402.674
401.714
400.719
399.849
399.172
398.688
398.349
398.027
403.978
403.512
402.71
401.592
400.408
399.361
398.58
398.028
397.629
397.228
404.222
403.628
402.639
401.227
399.724
398.391
397.529
396.898
396.438
395.923
403.96
403.119
401.827
400.065
398.3
396.889
395.705
395.001
394.545
393.9
402.816
401.51
399.775
397.414
395.149
393.526
392.548
391.896
391.402
390.62
401.497
398.993
396.06
392.653
390.151
389.171
388.711
386.554
384.304
385.11
323.637
294.638
268.335
249.993
253.49
272.289
277.864
266.528
241.105
272.841
61.2838
36.0367
18.28
8.89799
5.98469
6.79179
6.09799
2.79963
0.14663
8.48358
0.205263
0.0411462
-0.036187
-0.0473667
-0.0548651
-0.0697965
-0.0876913
-0.0530145
-0.00204868
0.0233445
0.00478915
-0.0196912
-0.0203185
-0.0301788
-0.0622913
-0.100716
-0.129892
-0.052009
0.0409335
0.0225289
-0.0536668
-0.0624429
-0.0601765
-0.072781
-0.0986466
-0.122278
-0.149443
-0.136655
0.00588944
0.0833309
-0.109158
-0.100104
-0.0921697
-0.0931536
-0.100338
-0.111328
-0.0838532
-0.0485453
-0.0232832
0.0381658
-0.120353
-0.113825
-0.106818
-0.107805
-0.119388
-0.135675
-0.15364
-0.171687
-0.163903
-0.115157
-0.103481
-0.108882
-0.10818
-0.111929
-0.120362
-0.131065
-0.142119
-0.151515
-0.149361
-0.126973
-0.0975208
-0.103801
-0.105815
-0.11174
-0.118506
-0.12614
-0.133687
-0.139646
-0.135506
-0.124038
-0.0985585
-0.103455
-0.105999
-0.111754
-0.117242
-0.122422
-0.126651
-0.129654
-0.128919
-0.124577
-0.10378
-0.107181
-0.10919
-0.113677
-0.117892
-0.121434
-0.123791
-0.125063
-0.125182
-0.12441
-0.110771
-0.113209
-0.114345
-0.117547
-0.120673
-0.123126
-0.124548
-0.125207
-0.125518
-0.12569
-0.118379
-0.120633
-0.120854
-0.123077
-0.125371
-0.127096
-0.127986
-0.128348
-0.128553
-0.128752
405.636
405.317
404.432
403.192
401.862
400.635
399.619
398.874
398.365
397.93
406.455
405.821
404.711
403.247
401.723
400.37
399.271
398.459
397.879
397.391
407.066
406.351
405.177
403.446
401.605
399.945
398.6
397.604
396.876
396.261
408.235
407.388
405.943
403.676
401.232
399.053
397.351
396.09
395.157
394.375
409.535
408.42
406.348
403.268
400.046
397.274
395.079
393.494
392.413
391.456
411.834
409.617
406.356
401.844
397.331
393.703
391.199
389.185
387.729
386.735
416.151
412.29
406.752
399.339
392.424
388.13
385.947
380.907
374.66
377.793
417.255
391.256
346.655
290.034
247.481
242.285
247.612
218.421
175.117
209.001
247.321
162.589
77.7152
27.2486
8.5471
1.85063
-0.0268295
-0.0406207
-0.0136282
0.0707332
37.994
2.50123
0.198675
-0.0229771
-0.0377456
-0.0453238
-0.0432499
-0.0415339
-0.0252572
0.0183158
0.012021
-0.0211883
0.00904022
0.00977909
-0.0229055
-0.0670131
-0.0635002
-0.0274143
-0.0205444
-0.0228457
-0.141428
-0.0982793
-0.0500643
-0.0456545
-0.0721803
-0.103428
-0.134076
-0.144761
-0.022422
0.0577403
-0.180774
-0.141841
-0.100903
-0.0870871
-0.0875114
-0.108728
-0.132648
-0.0791222
-0.00928978
0.0331655
-0.161879
-0.141535
-0.115342
-0.103684
-0.100373
-0.112008
-0.134814
-0.152427
-0.161335
-0.105303
-0.0883869
-0.112075
-0.107443
-0.10751
-0.112556
-0.120545
-0.129238
-0.138487
-0.142566
-0.120565
-0.0710733
-0.0927411
-0.0989842
-0.10546
-0.111619
-0.118099
-0.123956
-0.12891
-0.127875
-0.11892
-0.0738592
-0.0890855
-0.0965793
-0.104505
-0.111058
-0.116593
-0.120713
-0.123319
-0.122577
-0.119213
-0.0828728
-0.093916
-0.0997877
-0.106746
-0.112594
-0.11723
-0.120403
-0.122238
-0.122463
-0.121435
-0.0954766
-0.102646
-0.106111
-0.11135
-0.116142
-0.119942
-0.122459
-0.123939
-0.124511
-0.124379
-0.108056
-0.112204
-0.113438
-0.117412
-0.12136
-0.124534
-0.126545
-0.12772
-0.128287
-0.128389
407.254
406.942
405.997
404.432
402.743
401.172
399.832
398.817
398.117
397.545
408.965
408.224
406.742
404.712
402.685
400.892
399.415
398.306
397.508
396.869
410.103
409.148
407.45
405.178
402.727
400.527
398.691
397.282
396.25
395.447
411.977
410.901
408.868
405.899
402.622
399.683
397.264
395.413
394.041
393.053
415.215
413.518
410.469
406.228
401.725
397.771
394.582
392.157
390.494
389.372
421.046
417.751
412.732
406.091
399.521
393.966
389.859
386.601
384.155
383.291
429.773
424.521
416.806
406.273
395.467
387.178
382.702
374.136
361.769
368.16
437.12
428.933
409.566
341.945
263.071
214.027
208.453
181.665
127.981
159.055
446.399
376.752
213.99
72.8891
16.0746
1.63566
-0.0399918
-0.0173415
-0.0161113
0.0187695
350.647
139.868
13.6999
0.150958
-0.0275924
-0.0303235
0.0521095
-0.0203022
-0.0303751
0.00378436
49.8072
2.85806
0.00987233
0.0212357
0.00235506
-0.0435476
-0.0529546
-0.0196947
-0.0503287
-0.0411369
-0.258574
-0.124626
-0.0615905
-0.0275263
-0.048597
-0.0775981
-0.112978
-0.113869
-0.111152
-0.0388139
2.23159
-0.141174
-0.125477
-0.0818944
-0.0886061
-0.0905834
-0.116538
-0.101352
-0.00281713
-0.0440256
21.6269
-0.179342
-0.149068
-0.103888
-0.101147
-0.0990889
-0.119695
-0.134343
-0.150034
-0.100563
11.1888
-0.119812
-0.116859
-0.104704
-0.106791
-0.111696
-0.118582
-0.127667
-0.135451
-0.114936
0.141877
-0.0756549
-0.0871616
-0.099574
-0.105046
-0.110998
-0.116255
-0.121676
-0.122939
-0.113631
-0.0398929
-0.0623613
-0.0738179
-0.0965634
-0.104565
-0.110912
-0.115404
-0.11848
-0.117993
-0.114899
-0.0641166
-0.0745654
-0.0788856
-0.0995401
-0.106949
-0.112696
-0.116702
-0.119227
-0.119572
-0.118271
-0.090609
-0.0936687
-0.0928898
-0.105085
-0.111204
-0.116216
-0.119727
-0.121954
-0.122827
-0.122565
-0.122513
-0.111031
-0.104592
-0.109605
-0.116811
-0.121357
-0.124433
-0.126365
-0.127286
-0.1274
404.451
408.157
406.895
405.3
403.384
401.596
400.041
398.809
397.957
397.279
405.18
410.449
408.211
405.796
403.378
401.285
399.553
398.216
397.249
396.497
408.941
411.783
409.201
406.371
403.526
400.977
398.813
397.065
395.791
394.852
410.77
413.826
411.071
407.383
403.578
400.154
397.207
394.911
393.184
392.071
416.983
417.482
413.687
408.281
402.913
398.204
394.4
391.138
388.974
387.824
427.455
424.255
417.79
409.212
401.085
394.214
388.836
384.468
381.191
380.64
439.938
433.855
424.435
411.477
398.023
386.786
378.717
367
347.824
358.26
450.754
441.895
428.852
383.852
284.423
207.354
179.586
149.144
93.0256
126.632
461.934
450.805
371.403
148.849
30.1554
2.60818
-0.0502551
-0.0384969
-0.0279037
0.0118728
482.239
454.964
134.972
1.73579
0.0212064
0.072229
0.113159
-0.0396524
-0.0290704
0.000144367
494.268
340.986
2.8829
0.0199501
0.0345939
-0.0214903
-0.0347486
-0.0448435
-0.0705664
-0.0497952
492.979
65.654
-0.0794234
-0.034334
-0.0309589
-0.0558146
-0.090392
-0.101763
-0.105597
-0.0813181
540.478
26.6489
-0.15693
-0.0858359
-0.0880365
-0.0847055
-0.103237
-0.105541
-0.0842966
-0.0943616
509.4
31.8795
-0.198027
-0.11061
-0.106584
-0.101029
-0.10964
-0.114493
-0.109305
-0.105981
149.492
0.483449
-0.118114
-0.11092
-0.107223
-0.106104
-0.111059
-0.117724
-0.124946
-0.106607
6.08312
-0.00179409
-0.0989047
-0.0933898
-0.101421
-0.105318
-0.110471
-0.116603
-0.120732
-0.108662
5.71507
0.00345596
-0.0652709
-0.0887772
-0.0997184
-0.105755
-0.110838
-0.114829
-0.115405
-0.112249
5.21505
-0.0287573
-0.0751792
-0.0914499
-0.10197
-0.108175
-0.113161
-0.116384
-0.116789
-0.115389
5.11991
0.0214676
-0.0905729
-0.0975028
-0.106117
-0.11219
-0.11687
-0.119913
-0.121088
-0.120736
5.50801
0.177302
-0.0957235
-0.100969
-0.111149
-0.117623
-0.122044
-0.124773
-0.126037
-0.126207
399.897
405.739
407.177
405.668
403.77
401.851
400.199
398.826
397.881
397.14
385.657
408.871
408.908
406.521
403.86
401.498
399.638
398.185
397.115
396.299
366.133
413.597
410.091
407.167
404.044
401.27
398.941
396.972
395.541
394.524
344.885
415.392
412.123
408.272
404.135
400.471
397.322
394.668
392.693
391.517
321.489
419.592
415.308
409.396
403.609
398.512
394.232
390.569
388.091
386.94
303.704
427.997
420.975
411.313
402.143
394.595
388.337
383.164
379.424
379.055
293.266
439.813
429.384
415.097
400.085
387.434
377.649
360.555
336.893
351.491
321.034
450.176
436.104
408.987
308.698
218.094
161.586
124.81
73.1649
109.41
407.708
461.172
442.059
220.313
51.5087
5.88182
0.0114383
-0.034196
-0.0258253
0.0124105
464.223
482.792
323.765
29.6499
0.171008
0.0202539
0.0669688
-0.0327025
-0.0211557
-0.00135484
498.488
500.38
35.2991
0.0249215
0.0466135
0.0181422
-0.0127479
-0.064039
-0.059224
-0.0434711
487.041
487.53
-0.121656
-0.0578443
-0.0253806
-0.044146
-0.0765435
-0.0830979
-0.0878224
-0.0707606
456.475
515.5
-0.176647
-0.108339
-0.0915974
-0.07959
-0.0932438
-0.085618
-0.0963627
-0.0900491
472.799
459.495
11.3781
-0.155126
-0.114063
-0.0992102
-0.103883
-0.0815074
-0.0882288
-0.0990261
510.87
172.177
2.14434
-0.134405
-0.111277
-0.103005
-0.106247
-0.0948248
-0.0917673
-0.102092
528.406
10.013
0.483055
-0.0703975
-0.0996215
-0.100419
-0.106807
-0.112933
-0.117052
-0.104697
519.828
0.0889368
0.0122527
-0.0646905
-0.0962888
-0.101735
-0.10781
-0.112486
-0.114092
-0.110649
552.41
-0.0266418
-0.0288813
-0.0753049
-0.0985889
-0.10521
-0.110728
-0.114502
-0.115276
-0.114251
625.784
-0.0373018
-0.0449954
-0.0822364
-0.102752
-0.109814
-0.114945
-0.118453
-0.119809
-0.119514
659.035
-0.00290969
-0.0252986
-0.0869639
-0.109031
-0.116049
-0.120624
-0.123604
-0.124996
-0.125211
399.004
403.935
407.005
405.612
403.766
401.845
400.185
398.815
397.87
397.128
384.724
404.372
408.755
406.468
403.84
401.487
399.631
398.173
397.1
396.283
363.308
410.535
409.994
407.133
404.034
401.261
398.926
396.95
395.517
394.5
341.373
415.68
412.078
408.267
404.183
400.49
397.291
394.628
392.652
391.476
320.315
420.047
415.369
409.474
403.743
398.566
394.181
390.489
388.01
386.864
305.976
428.776
421.163
411.462
402.333
394.629
388.171
382.956
379.25
378.901
297.582
440.544
429.524
415.204
400.223
387.433
377.013
359.739
335.83
350.736
340.35
450.423
436.088
409.679
309.243
216.939
158.214
121.652
70.9326
107.553
434.052
460.774
441.372
221.673
54.2201
6.30298
0.0293373
-0.0256359
-0.0321399
0.0141527
480.189
481.991
318.2
31.6923
0.202689
0.0368577
0.0188338
-0.035756
-0.0235145
-0.00189355
437.301
500.454
29.4217
-0.0102289
0.0465779
0.0343487
-0.0162505
-0.0540277
-0.0502229
-0.0361299
435.173
460.913
-0.157802
-0.0836613
-0.0266572
-0.0435993
-0.0723797
-0.0763177
-0.0783715
-0.0642928
470.46
438.801
-0.175197
-0.119656
-0.0931963
-0.079995
-0.0913013
-0.0791034
-0.0799449
-0.0850164
539.099
508.959
2.77536
-0.148346
-0.119749
-0.101154
-0.10338
-0.0754726
-0.0833824
-0.0935801
563.713
508.895
16.1473
-0.159852
-0.117278
-0.104075
-0.105477
-0.0888648
-0.086687
-0.097881
585.1
183.363
7.07578
-0.082895
-0.101177
-0.100334
-0.105734
-0.111081
-0.112651
-0.103467
614.303
0.459716
0.344187
-0.0363089
-0.0958118
-0.099938
-0.106554
-0.111137
-0.113215
-0.11005
648.929
-0.0443524
-0.0153734
-0.0624624
-0.101902
-0.103066
-0.109475
-0.113398
-0.114495
-0.113826
682.156
3.72095
-0.0767222
-0.0852453
-0.106518
-0.108154
-0.113709
-0.117398
-0.118928
-0.118785
708.839
10.2135
-0.114887
-0.0972519
-0.112551
-0.114303
-0.11929
-0.122506
-0.124047
-0.12437
404.498
408.059
406.802
405.266
403.371
401.58
400.016
398.781
397.927
397.246
405.516
410.246
408.079
405.761
403.361
401.27
399.527
398.18
397.209
396.455
410.169
411.58
409.03
406.317
403.52
400.968
398.768
397.004
395.726
394.787
414.826
413.606
410.819
407.308
403.592
400.143
397.123
394.807
393.075
391.966
419.503
417.26
413.407
408.246
402.97
398.2
394.268
390.935
388.761
387.649
428.386
424.014
417.547
409.192
401.101
394.096
388.414
383.972
380.702
380.289
440.444
433.542
424.08
411.26
397.967
386.636
377.809
365.918
345.855
356.744
450.583
441.766
428.47
382.444
283.743
206.295
174.164
143.058
88.0132
122.192
461.124
450.731
359.532
142.882
31.8067
3.15148
-0.0284729
-0.0190162
-0.0354422
0.0150211
481.817
446.945
114.857
1.15781
0.18455
0.101613
-0.00237599
-0.040509
-0.0279591
-0.00395041
495.38
339.914
1.31545
-0.00191398
0.248331
0.0415581
-0.0564373
-0.0622056
-0.0565002
-0.0384404
462.294
94.1966
-0.17545
-0.0709983
-0.0485959
-0.0592775
-0.0795772
-0.0800176
-0.0859635
-0.067228
447.043
15.4953
-0.185231
-0.0993626
-0.0924211
-0.0868868
-0.0943784
-0.0850044
-0.0827925
-0.088021
503.189
5.57826
-0.194538
-0.12759
-0.110866
-0.104158
-0.106017
-0.0960845
-0.0882807
-0.095808
532.437
11.3856
1.22787
-0.159793
-0.115756
-0.10845
-0.108901
-0.107418
-0.108452
-0.0979838
354.72
20.2622
0.481072
-0.115644
-0.10659
-0.105361
-0.108273
-0.112155
-0.117324
-0.105715
66.4826
10.473
-0.0462146
-0.0829279
-0.0998144
-0.103645
-0.108289
-0.111682
-0.113008
-0.110471
15.6577
0.391864
-0.0497874
-0.0782555
-0.101616
-0.104187
-0.11005
-0.113527
-0.11444
-0.113565
19.1969
-0.033597
-0.065263
-0.0816551
-0.101812
-0.108065
-0.113638
-0.117161
-0.118687
-0.118572
19.4897
-0.0472252
-0.065681
-0.0908783
-0.107113
-0.114119
-0.118987
-0.1221
-0.123595
-0.12393
407.144
406.852
405.938
404.398
402.717
401.139
399.791
398.773
398.072
397.497
408.909
408.147
406.669
404.668
402.65
400.851
399.364
398.248
397.449
396.809
410.03
409.083
407.402
405.147
402.7
400.479
398.612
397.191
396.161
395.359
411.993
410.831
408.786
405.859
402.586
399.605
397.129
395.269
393.899
392.92
415.178
413.405
410.384
406.214
401.708
397.682
394.422
391.895
390.216
389.166
421.026
417.586
412.558
406.037
399.417
393.697
389.342
385.986
383.539
382.936
429.545
424.232
416.339
406.059
395.391
386.881
382.076
373.379
360.11
367.076
436.516
428.801
405.813
340.294
263.398
212.675
204.353
175.177
121.109
154.806
443.528
366.726
198.987
68.2761
15.8445
2.03053
-0.013962
-0.00981085
-0.0282552
0.0224884
328.584
127.294
11.2638
0.243353
0.309174
0.26645
0.0443467
-0.0452786
-0.0337627
-0.0055912
35.0158
1.33026
0.0284865
-0.031029
0.311449
0.0327709
-0.0845109
-0.07908
-0.065654
-0.0412479
-0.0973456
-0.145179
-0.137822
-0.0787908
-0.0837043
-0.0892054
-0.0948717
-0.0954244
-0.0652613
-0.0622836
-0.150879
-0.125478
-0.160568
-0.106174
-0.0981843
-0.0946781
-0.098078
-0.10593
-0.105461
-0.0915122
3.08885
-0.117964
-0.152614
-0.131762
-0.107395
-0.101748
-0.111456
-0.113429
-0.117536
-0.102346
15.3932
-0.13535
-0.146247
-0.148707
-0.111563
-0.113403
-0.112819
-0.115332
-0.123711
-0.102907
14.5401
1.86684
0.226671
-0.137595
-0.111221
-0.110969
-0.111646
-0.113919
-0.115955
-0.107317
7.87107
7.78534
0.714668
-0.114911
-0.106097
-0.107707
-0.110727
-0.112968
-0.113018
-0.110501
0.410158
3.35308
0.293121
-0.0905349
-0.099779
-0.106343
-0.111361
-0.114316
-0.115166
-0.114243
0.0215537
0.00884123
-0.0263436
-0.0803349
-0.0986801
-0.108275
-0.114026
-0.117297
-0.118741
-0.118764
-0.0119756
-0.0320489
-0.0529157
-0.0898484
-0.104802
-0.113528
-0.118752
-0.121809
-0.123291
-0.123676
405.675
405.313
404.409
403.171
401.835
400.598
399.575
398.825
398.316
397.878
406.466
405.795
404.673
403.216
401.687
400.324
399.215
398.397
397.817
397.327
407.064
406.327
405.146
403.422
401.565
399.884
398.515
397.511
396.786
396.172
408.197
407.317
405.864
403.617
401.153
398.942
397.209
395.944
395.018
394.246
409.39
408.29
406.235
403.197
399.957
397.122
394.865
393.225
392.151
391.268
411.494
409.36
406.134
401.673
397.117
393.354
390.64
388.563
387.151
386.459
415.489
411.642
406.256
399.21
392.393
387.754
385.216
380.076
373.616
377.42
413.501
385.54
342.458
291.026
252.526
242.893
243.118
211.489
169.807
205.743
226.309
152.479
72.8666
26.533
9.42961
2.13133
-0.0350694
-0.0508386
-0.022678
0.0520723
32.5463
2.68046
0.422709
0.0518508
0.164152
0.29894
0.0346659
-0.0502654
-0.0345371
-0.0062972
0.00847994
0.860522
0.00024187
-0.045262
0.303062
0.255081
0.159124
-0.0865728
-0.0692117
-0.038977
-0.094995
0.889506
-0.0916474
-0.0842964
-0.0988475
-0.114842
-0.124479
-0.0960509
0.0205136
-0.0383425
-0.113668
0.244973
0.00194847
-0.0680469
-0.101047
-0.0997035
-0.0774562
-0.122696
-0.124277
-0.0888752
-0.142863
-0.121469
0.083693
-0.110027
-0.0918029
-0.0913886
-0.121724
-0.123479
-0.13221
-0.102123
-0.157937
-0.154997
0.0439892
-0.130513
-0.112462
-0.117859
-0.119656
-0.121298
-0.1231
-0.101279
-0.132446
0.0576582
0.10585
-0.124149
-0.11349
-0.115279
-0.116546
-0.117841
-0.116804
-0.10954
-0.102136
0.971847
0.127189
-0.110148
-0.108943
-0.111696
-0.114231
-0.115691
-0.115172
-0.112615
-0.053944
0.599384
-0.0294351
-0.0941262
-0.103938
-0.109818
-0.113681
-0.115789
-0.116399
-0.115802
-0.0509789
-0.0100599
-0.0715547
-0.0910761
-0.103913
-0.111221
-0.115533
-0.117984
-0.1191
-0.119266
-0.0581744
-0.0586569
-0.0838992
-0.0976332
-0.108569
-0.115493
-0.119557
-0.121916
-0.123104
-0.123505
403.769
403.385
402.714
401.83
400.897
400.068
399.416
398.957
398.656
398.364
403.811
403.369
402.645
401.682
400.679
399.8
399.118
398.631
398.294
397.971
403.993
403.518
402.691
401.559
400.356
399.298
398.502
397.947
397.554
397.153
404.186
403.606
402.587
401.152
399.621
398.28
397.406
396.776
396.328
395.821
403.825
403.032
401.732
399.961
398.174
396.719
395.505
394.783
394.351
393.762
402.523
401.261
399.516
397.151
394.893
393.198
392.112
391.405
391.004
390.464
400.774
398.394
395.711
392.508
390.064
388.771
387.989
385.783
383.795
385.143
316.421
288.93
267.567
253.604
259.349
271.286
273.64
261.91
236.422
271.781
54.4019
34.0534
18.4672
9.65708
8.90048
8.61119
4.4998
0.0578037
0.143474
8.28143
0.230722
0.187705
0.102897
-0.00995525
-0.0447928
-0.0781089
-0.072083
-0.0278581
-0.0146128
-0.0147547
0.0649315
1.09863
0.513948
-0.0212902
-0.0568114
0.198983
0.211515
0.237862
0.0342332
-0.026754
-0.0105593
-0.0446245
0.158453
0.00367002
-0.0992778
-0.127978
-0.118373
-0.08133
0.0621201
-0.00746234
-0.0766171
-0.0849334
-0.0238573
-0.0568303
-0.08265
-0.086031
-0.0484082
-0.133564
-0.133286
-0.0705431
-0.111972
-0.110744
-0.062302
-0.0999205
-0.0552449
-0.116
-0.132853
-0.13512
-0.138142
-0.105409
-0.119584
-0.137441
-0.104499
-0.120023
-0.117154
-0.12376
-0.128408
-0.130806
-0.129449
-0.114193
-0.119287
-0.152507
-0.115166
-0.119581
-0.116078
-0.119448
-0.122933
-0.125454
-0.123776
-0.1169
-0.108032
-0.127712
-0.107549
-0.109708
-0.111908
-0.115301
-0.118141
-0.11979
-0.119587
-0.117288
-0.0903983
-0.084574
-0.0912713
-0.10139
-0.108388
-0.113058
-0.116007
-0.117472
-0.117907
-0.117785
-0.0859141
-0.0742087
-0.0903763
-0.100721
-0.108718
-0.113914
-0.116971
-0.118542
-0.119283
-0.119697
-0.0888846
-0.0875455
-0.0970354
-0.105577
-0.112659
-0.117506
-0.120352
-0.121868
-0.122651
-0.123097
401.82
401.563
401.114
400.576
400.054
399.637
399.344
399.168
399.068
398.916
401.449
401.25
400.825
400.302
399.785
399.383
399.106
398.945
398.846
398.685
401.222
400.949
400.452
399.859
399.28
398.862
398.606
398.484
398.407
398.22
400.479
400.137
399.585
398.918
398.257
397.928
397.76
397.732
397.731
397.508
398.609
398.228
397.684
397.1
396.697
396.354
396.322
396.503
396.683
396.438
394.735
394.214
393.766
393.36
393.175
393.307
393.902
394.422
394.866
394.674
387.956
387.074
387.126
387.79
388.728
390.095
390.873
391.029
391.326
392.176
222.467
211.103
215.151
244.051
271.211
286.706
302.286
314.116
311.612
332.396
6.48287
3.51897
2.49972
2.09007
8.43648
19.0491
26.1567
28.6079
22.5141
45.0181
0.0372699
0.057179
0.0707328
-0.055947
-0.0856715
-0.0951343
-0.0792696
-0.058441
-0.0783741
-0.0152542
0.0141249
0.0521231
0.460613
0.395918
-0.0744367
-0.0796942
0.206157
0.246527
0.181439
-0.0018617
-0.0283647
-0.0444473
-0.0636639
-0.0755446
-0.0992657
-0.121248
-0.125258
-0.0465195
0.110592
0.0288573
-0.0671255
-0.0738532
-0.0774242
-0.0900366
-0.0699109
0.0185709
-0.00365587
-0.136154
-0.130708
-0.0605767
-0.0910213
-0.0950612
-0.0901017
-0.0840926
-0.110092
-0.135132
-0.141014
-0.144753
-0.140693
-0.111457
-0.101652
-0.10923
-0.105316
-0.115108
-0.12164
-0.130259
-0.1381
-0.144222
-0.139373
-0.123932
-0.104991
-0.114267
-0.1092
-0.114807
-0.118565
-0.124641
-0.132089
-0.140333
-0.141249
-0.127792
-0.102647
-0.107655
-0.10673
-0.110962
-0.114647
-0.118779
-0.122746
-0.127109
-0.130308
-0.125074
-0.0979339
-0.0963425
-0.102151
-0.107546
-0.11214
-0.115621
-0.117657
-0.118574
-0.119614
-0.120182
-0.0976898
-0.0957504
-0.102564
-0.108121
-0.112785
-0.116025
-0.117688
-0.118172
-0.118455
-0.119515
-0.103372
-0.102866
-0.107297
-0.112261
-0.116339
-0.119178
-0.120628
-0.121085