/*--------------------------------*- C++ -*----------------------------------*\
| =========                 |                                                 |
| \\      /  F ield         | OpenFOAM: The Open Source CFD Toolbox           |
|  \\    /   O peration     | Version:  2312                                  |
|   \\  /    A nd           | Website:  www.openfoam.com                      |
|    \\/     M anipulation  |                                                 |
\*---------------------------------------------------------------------------*/
FoamFile
{
    version     2.0;
    format      ascii;
    arch        "LSB;label=32;scalar=64";
    class       volScalarField;
    location    "0.545";
    object      alpha.water;
}
// * * * * * * * * * * * * * * * * * * * * * * * * * * * * * * * * * * * * * //

dimensions      [0 0 0 0 0 0 0];

internalField   nonuniform List<scalar> 
8000
(
1
1
1
1
1
1
1
1
1
1
1
1
1
1
1
1
1
1
1
1
1
1
1
1
1
1
1
1
1
1
1
1
1
1
1
1
1
1
1
1
1
1
1
1
1
1
1
1
1
1
1
1
1
1
1
1
1
1
1
1
0.978704
0.989822
0.998613
0.999984
0.999985
0.999992
0.999998
0.999999
1
1
0.455846
0.508698
0.587702
0.721267
0.860434
0.959761
0.999891
0.99997
0.999992
0.999996
0.00630828
0.0173333
0.0612266
0.160984
0.317995
0.534554
0.822047
0.994914
0.999842
0.999928
1.36971e-05
1.35425e-05
1.13283e-06
2.54557e-06
9.76002e-07
0.00775315
0.198949
0.5651
0.971035
0.999045
2.54669e-06
1.1876e-06
2.88475e-07
3.30469e-07
1.32132e-07
7.55345e-08
2.01573e-06
0.0148953
0.38828
0.767652
1.31618e-06
2.83414e-07
1.90299e-07
1.69194e-07
8.17166e-08
6.37405e-08
7.55169e-08
2.01733e-06
2.42886e-05
0.0600657
8.19544e-06
1.91143e-07
1.73342e-07
1.56509e-07
1.40641e-07
5.86274e-08
8.06185e-05
0.000189848
1.78801e-05
1.63856e-05
4.18266e-05
2.34645e-05
2.38647e-06
2.80916e-07
1.04327e-07
5.3657e-08
0.000581951
0.00060691
0.000148113
1.3167e-05
4.18384e-05
4.18384e-05
3.49891e-05
7.3132e-06
5.98192e-08
5.13206e-08
0.000473026
0.000288458
2.86247e-05
1.21212e-05
3.67051e-05
3.35029e-05
2.41208e-05
1.03879e-05
1.57808e-06
6.69197e-07
2.53672e-05
7.85929e-06
3.93194e-06
1.81909e-05
4.24817e-06
3.9648e-06
3.18846e-06
3.75409e-06
1.71392e-06
1.96901e-07
2.69838e-08
2.15118e-07
4.44108e-07
1.76315e-05
3.39799e-09
4.15141e-07
2.74946e-07
1.56503e-09
8.07841e-08
1.63311e-10
1.7851e-09
1.61589e-07
2.58365e-07
0.00021735
6.78033e-11
1.62207e-10
9.1341e-11
2.29431e-11
1.33046e-11
5.55513e-11
1.63311e-10
2.46292e-07
8.87272e-06
0.00024348
1.47896e-12
2.13208e-12
1.37989e-12
2.44945e-12
5.69562e-12
1.33046e-11
5.55513e-11
1.20537e-07
4.331e-06
0.00024348
1
1
1
1
1
1
1
1
1
1
1
1
1
1
1
1
1
1
1
1
1
1
1
1
1
1
1
1
1
1
1
1
1
1
1
1
1
1
1
1
1
1
1
1
1
1
1
1
1
1
1
1
1
1
1
1
1
1
1
1
0.987708
0.994493
0.999996
0.999994
0.999994
0.999996
0.999997
0.999998
0.999999
1
0.401474
0.473554
0.629448
0.789787
0.921019
0.988903
0.999858
0.999928
0.999965
0.999992
7.16956e-05
0.00104458
0.00536649
0.0564992
0.223008
0.475695
0.749887
0.946266
0.999308
0.999842
3.05205e-06
8.6795e-06
1.15437e-05
3.64656e-06
2.41096e-06
1.61568e-06
0.038385
0.321163
0.723314
0.96712
1.81444e-06
1.00135e-06
1.09522e-06
1.55601e-06
1.66036e-06
2.49753e-07
1.96046e-07
7.37665e-06
0.0645393
0.377918
2.60831e-06
4.02132e-07
3.13313e-07
1.77418e-06
2.02521e-06
3.13314e-07
1.66572e-07
2.09357e-07
5.95622e-06
2.05151e-05
1.19782e-05
2.00921e-07
1.85789e-07
2.15563e-07
4.20872e-07
5.3657e-08
1.5209e-06
0.000743939
0.000265704
1.78722e-05
2.87861e-05
5.03544e-07
4.51223e-07
7.13633e-07
2.58878e-07
4.63501e-08
5.3657e-08
8.28155e-05
8.94834e-05
0.000116506
4.18257e-05
8.92704e-06
2.23599e-06
2.83697e-06
1.66827e-06
4.3496e-08
6.73718e-08
1.63249e-07
4.53644e-06
7.4427e-06
2.95708e-05
1.36185e-05
6.38309e-06
1.82821e-06
3.12975e-07
2.91886e-07
3.77205e-06
2.92286e-06
5.81257e-06
5.86755e-06
2.67191e-06
5.43252e-06
3.98194e-06
4.5204e-07
9.1905e-09
5.62356e-06
2.22608e-05
1.12525e-05
7.82869e-06
6.05149e-06
3.85669e-10
1.45801e-09
8.8061e-08
1.06926e-08
4.32094e-10
1.29577e-05
2.41987e-05
1.57815e-05
8.29583e-06
1.94306e-05
1.06499e-11
2.18792e-11
1.74575e-11
2.21667e-12
1.76335e-10
2.0537e-05
2.42286e-05
1.53794e-05
4.03521e-06
3.48199e-05
3.97809e-13
2.75263e-13
5.29254e-13
6.79535e-13
2.21667e-12
2.47862e-05
1.64136e-05
1.01515e-05
9.55596e-07
4.93934e-07
1
1
1
1
1
1
1
1
1
1
1
1
1
1
1
1
1
1
1
1
1
1
1
1
1
1
1
1
1
1
1
1
1
1
1
1
1
1
1
1
1
1
1
1
1
1
1
1
1
1
1
1
1
1
1
1
1
1
1
1
0.996443
0.998905
0.999999
0.999996
0.999996
0.999997
0.999997
0.999998
0.999998
0.999999
0.467541
0.537434
0.688914
0.82988
0.939678
0.991006
0.999868
0.999906
0.999926
0.999966
4.71238e-06
3.45076e-05
0.00375988
0.0713946
0.231426
0.458148
0.694366
0.869058
0.944604
0.991765
2.49841e-06
4.71183e-06
3.22808e-05
1.34791e-05
4.21754e-06
3.45798e-06
0.0013779
0.148668
0.315253
0.542732
3.34546e-07
2.62852e-06
3.31793e-06
3.64664e-06
1.72629e-06
2.89008e-07
2.24213e-07
3.27237e-07
6.05925e-06
0.00897939
1.55146e-07
4.98679e-07
4.92082e-07
4.1463e-06
3.5939e-06
2.44197e-07
1.80947e-07
2.24213e-07
4.93248e-07
9.85933e-07
1.39891e-07
1.81451e-07
1.06947e-07
2.78421e-07
4.22812e-07
5.14502e-08
1.01821e-07
1.90932e-05
0.000708289
0.000147049
1.37888e-07
2.39086e-07
1.02176e-07
6.7884e-08
4.63501e-08
4.3496e-08
9.46258e-06
1.00201e-05
0.000130304
0.00066646
1.51379e-06
4.54843e-06
1.05387e-07
1.45757e-07
4.33726e-08
4.3496e-08
7.20399e-06
1.23297e-05
1.21531e-05
0.000195865
7.14563e-07
4.29165e-06
1.88582e-06
4.44024e-09
6.06345e-06
8.85881e-07
9.33739e-07
3.01727e-05
6.24242e-05
1.6773e-05
3.70188e-08
7.12651e-07
4.88862e-07
9.49747e-08
1.02172e-05
8.72213e-07
1.10515e-06
3.63892e-05
7.84911e-05
1.25775e-05
1.2434e-11
2.74731e-11
9.07947e-11
9.57577e-12
1.09252e-06
1.99947e-05
4.37383e-06
4.05659e-05
2.85277e-05
1.32776e-06
3.35509e-12
1.82567e-12
2.43064e-12
9.47906e-13
9.57577e-12
9.41652e-05
6.00496e-05
1.51546e-05
1.65841e-08
3.18105e-08
1.9164e-12
1.31351e-13
2.33175e-12
6.981e-13
4.77079e-06
0.000102363
9.7733e-05
6.59444e-06
5.60337e-10
2.94758e-09
1
1
1
1
1
1
1
1
1
1
1
1
1
1
1
1
1
1
1
1
1
1
1
1
1
1
1
1
1
1
0.999999
1
1
1
1
1
1
1
1
1
1
1
1
1
1
1
1
1
1
1
1
1
0.999999
1
1
1
1
1
1
1
1
1
1
1
0.999998
0.999998
0.999998
0.999997
0.999997
0.999997
0.608542
0.67305
0.765436
0.861232
0.944648
0.986223
0.999028
0.999868
0.999854
0.999878
1.1222e-05
0.000317829
0.0281497
0.106891
0.230448
0.395328
0.56028
0.698646
0.74747
0.81413
6.62834e-06
1.11982e-05
0.000367876
7.03424e-05
1.05756e-05
1.61126e-06
4.06856e-07
0.000768249
0.0344889
0.180209
4.14249e-06
0.000394023
0.000301328
1.86355e-05
1.61125e-06
4.06856e-07
3.20875e-07
4.06856e-07
4.4376e-07
9.48763e-07
2.96405e-07
3.49282e-05
1.30262e-05
1.60788e-06
1.375e-06
3.7518e-07
2.40679e-07
2.36373e-06
1.41836e-06
6.7933e-07
1.83833e-07
2.30832e-06
2.03584e-07
1.35893e-07
1.05816e-06
7.3447e-08
3.04748e-06
3.47175e-05
2.67282e-05
9.75687e-07
1.32518e-07
7.09398e-07
1.90974e-07
8.01211e-08
8.38923e-08
4.63501e-08
3.54477e-05
6.49157e-05
1.36916e-05
0.00065682
9.05264e-10
2.80603e-09
3.32467e-07
1.0407e-07
5.61696e-07
3.41565e-08
4.32565e-05
8.29261e-05
3.63982e-05
0.000440665
4.90309e-10
1.48774e-10
1.78976e-10
6.09564e-11
5.53288e-06
2.51755e-08
2.17502e-05
8.5108e-05
8.51525e-05
2.94849e-05
1.48776e-10
2.94319e-11
6.6118e-12
1.83412e-11
2.02142e-06
5.84497e-07
3.74543e-06
8.51514e-05
8.18567e-05
3.99935e-05
3.78301e-11
6.61143e-12
5.51584e-12
6.6129e-12
1.83412e-11
2.0882e-05
5.16573e-05
4.67661e-05
2.1249e-06
3.75318e-06
1.51233e-11
5.18788e-11
5.35525e-12
3.46047e-12
2.27686e-11
6.97856e-05
8.37406e-05
1.43506e-06
5.60337e-10
2.94758e-09
3.30452e-12
8.9948e-12
2.1336e-12
9.47906e-13
2.0954e-11
0.000101531
8.41379e-05
5.60337e-10
2.31945e-11
1.50603e-10
1
1
1
1
1
1
1
1
1
1
1
1
1
1
1
1
1
1
1
1
1
1
1
1
1
1
1
1
1
1
0.999999
1
1
1
1
1
1
1
1
1
0.999879
0.999996
1
1
1
1
1
1
1
1
1
1
1
1
1
1
1
1
1
1
1
1
1
1
1
0.999999
0.999998
0.999997
0.999996
0.999992
0.739469
0.761646
0.836138
0.888206
0.93991
0.973298
0.986565
0.990948
0.987756
0.969537
0.0132185
0.0240899
0.0753032
0.169506
0.256517
0.327159
0.39728
0.454226
0.463019
0.514638
0.000107167
0.0120256
0.00946883
0.00347077
5.30437e-05
7.83214e-06
1.08185e-06
5.51394e-07
5.4494e-07
7.47014e-05
0.000750338
0.00301216
0.00100759
0.00010237
5.241e-05
5.55705e-06
4.06856e-07
4.4376e-07
5.09878e-07
5.44908e-07
0.0001046
0.000157872
2.24223e-05
4.29053e-06
5.4484e-05
2.45903e-05
5.19549e-07
5.02325e-06
1.88615e-06
6.2079e-07
1.38208e-06
2.34457e-06
1.32934e-06
5.79381e-07
2.86867e-05
1.43697e-05
8.09542e-07
6.37479e-05
1.52358e-05
6.80609e-07
5.52511e-07
9.17977e-07
9.19386e-08
9.67048e-08
5.67583e-07
3.48916e-08
1.47484e-05
7.98993e-05
1.3278e-05
8.68131e-07
1.10705e-08
4.6444e-08
4.88498e-09
2.53311e-08
2.88377e-08
2.49539e-08
3.73848e-05
8.21538e-05
1.32729e-05
9.88781e-07
9.05264e-10
2.79323e-09
2.94043e-10
9.77626e-10
7.3478e-09
1.91216e-08
3.14242e-05
7.12624e-05
8.46378e-05
1.3733e-05
4.90309e-10
1.48637e-10
7.51687e-11
5.93441e-11
1.38417e-09
3.01931e-07
9.05159e-06
2.87294e-05
2.06596e-05
4.05377e-05
3.76797e-10
2.94245e-11
1.42415e-10
1.81132e-11
7.14357e-10
5.9326e-10
2.53886e-09
2.08946e-06
3.20923e-08
3.99667e-06
2.68006e-10
3.50479e-11
4.80878e-11
2.27685e-11
1.1054e-09
3.16708e-10
2.87874e-06
4.4741e-06
4.11481e-09
1.50603e-10
2.03942e-10
7.58995e-12
2.13256e-12
2.0954e-11
4.96669e-10
9.1124e-08
2.50394e-06
3.56416e-06
5.0621e-13
1.38801e-12
1
1
1
1
1
1
1
1
1
1
1
1
1
1
1
1
1
1
1
1
1
1
1
1
1
1
1
1
1
1
1
1
1
1
1
1
1
1
1
1
0.98722
0.999985
1
1
1
1
1
1
1
1
0.809214
1
1
1
1
1
1
1
1
1
0.992292
1
1
1
1
1
0.999998
0.999995
0.999991
0.999982
0.849537
0.802143
0.847662
0.895176
0.922247
0.938523
0.94306
0.936555
0.91057
0.863583
0.0746967
0.213607
0.20378
0.260607
0.274871
0.244554
0.221713
0.221493
0.205443
0.290051
0.00643176
0.0398954
0.0187967
0.00803388
0.000152714
3.48762e-05
5.7383e-06
1.33749e-06
6.8618e-07
2.31066e-06
0.00487071
0.000885977
0.000589695
5.76558e-05
0.000231463
2.36077e-05
1.08185e-06
5.51394e-07
5.4494e-07
6.01659e-07
0.000735668
7.85417e-05
7.9214e-05
3.90743e-05
0.000232751
6.31887e-05
6.32797e-07
6.04834e-07
5.72157e-07
6.04835e-07
1.91172e-05
7.88104e-06
5.23383e-06
2.8762e-06
6.73705e-05
4.44021e-05
1.90586e-06
5.55882e-06
7.86439e-06
1.38546e-06
4.40792e-07
1.96561e-06
6.85646e-07
4.1844e-07
1.25864e-06
1.58622e-06
3.77545e-08
5.32681e-05
1.63636e-05
1.01038e-06
5.21072e-08
5.21368e-07
6.87581e-08
5.57551e-08
1.00954e-06
3.81631e-07
2.78409e-08
2.62202e-05
2.34529e-05
1.09791e-06
1.06039e-08
4.35582e-08
2.50109e-09
1.37936e-08
2.59555e-06
4.4875e-07
1.64078e-08
2.78409e-08
5.54415e-05
1.32956e-06
1.28891e-08
2.36769e-09
2.94271e-10
2.29117e-09
1.00721e-06
9.1277e-08
2.53886e-09
2.33975e-08
1.69985e-05
1.57471e-05
1.69014e-08
8.82147e-07
4.29357e-09
1.22386e-09
1.60785e-07
7.33336e-09
5.91842e-11
3.90365e-09
2.68372e-06
7.39767e-06
1.52495e-06
5.52041e-06
8.59013e-11
8.70684e-11
1.72855e-08
1.86605e-10
1.53527e-11
4.89168e-09
3.09183e-09
3.24263e-08
2.20711e-06
2.74336e-06
2.35824e-11
8.35167e-09
1.37821e-08
1.53527e-11
9.75749e-12
3.29535e-12
1.34909e-12
5.52341e-12
1
1
1
1
1
1
1
1
1
1
1
0.999998
0.999986
0.999995
1
1
1
1
1
1
1
0.999995
0.999935
0.999981
1
1
1
1
1
1
1
0.999999
0.999984
0.999983
1
1
1
1
1
1
0.969118
1
1
0.999999
1
1
1
1
1
1
0.630355
0.949976
1
1
1
1
1
1
1
1
0.67063
1
1
1
1
1
0.999999
0.999995
0.999991
0.999979
0.7775
0.891507
0.765913
0.868978
0.891414
0.879396
0.852941
0.821109
0.769772
0.712574
0.54478
0.574043
0.429488
0.374267
0.227182
0.141158
0.0886358
0.0579105
0.0419672
0.137785
0.075899
0.0482323
0.0281853
0.00910873
0.00257594
0.000100458
3.16238e-05
6.36486e-06
2.78491e-06
3.36261e-06
0.00148897
0.000419581
0.00162817
0.000272249
6.46508e-05
2.77543e-05
4.45621e-06
2.02619e-06
1.69822e-06
8.36368e-07
0.000125614
5.59742e-05
5.76372e-05
0.0006052
0.000116366
2.79085e-05
1.01864e-06
6.65262e-07
6.04825e-07
6.34335e-07
0.000167855
3.38896e-05
4.37079e-05
0.000190364
8.61923e-05
2.17452e-05
8.89153e-07
9.5875e-07
6.78558e-07
7.2159e-07
1.60044e-06
1.8981e-05
4.2982e-06
5.45114e-06
1.03136e-05
2.03631e-06
6.60443e-08
6.67285e-06
3.45736e-06
1.78769e-06
8.03003e-07
2.74006e-05
1.18001e-06
3.56263e-05
2.10388e-05
1.21967e-07
3.77545e-08
9.44635e-06
1.93348e-05
6.83455e-06
4.10276e-07
4.59937e-05
4.35619e-08
9.26994e-05
3.38531e-05
5.78261e-08
2.78409e-08
1.15916e-05
3.46508e-06
4.40299e-06
7.63533e-06
0.000180223
2.5012e-09
6.83698e-05
1.08549e-05
1.99738e-09
1.67076e-06
2.15654e-05
1.52034e-05
2.31766e-06
5.58799e-05
0.000297044
4.4467e-09
4.72675e-05
7.24805e-07
5.6456e-10
1.60849e-07
6.26069e-06
1.34198e-05
7.82181e-06
6.08846e-05
0.00029027
1.30875e-10
3.52202e-05
5.6456e-10
3.78508e-10
5.9184e-11
9.74191e-10
9.6687e-07
1.22863e-06
5.00362e-05
0.000120735
4.8426e-09
2.32645e-05
2.97559e-09
1.17896e-10
1.53515e-11
2.8805e-11
1.70574e-11
6.71493e-11
1
1
1
1
1
1
1
1
1
1
1
0.99998
0.999913
0.999993
1
1
1
1
1
1
0.999998
0.999893
0.999876
0.999957
1
1
1
1
1
1
1
1
0.999994
0.999999
1
1
1
1
1
1
0.999999
0.981652
1
1
1
1
1
1
1
1
0.856132
0.673304
0.946606
1
1
1
0.999999
1
1
1
0.349866
0.715445
1
1
1
1
1
0.999998
0.999885
0.997914
0.18218
0.608331
0.843627
0.811781
0.8493
0.819966
0.739771
0.658736
0.596673
0.569215
0.0920961
0.310681
0.533369
0.37779
0.153253
0.0662128
0.0157183
0.000427732
0.000543292
0.0498955
0.0212407
0.0222651
0.0362395
0.0139813
0.000112749
0.000164047
0.00019172
3.32355e-05
1.79176e-05
4.5332e-06
0.000952153
0.00895158
0.00936981
0.000764112
1.43381e-06
1.32425e-05
1.15165e-05
5.10877e-06
2.48307e-06
2.06196e-06
0.000501279
0.00408517
0.00386801
0.000990254
8.23107e-07
1.28921e-06
1.23707e-06
1.07189e-06
8.07947e-07
8.0425e-07
0.000168266
0.000726999
0.00258609
0.000705333
6.85368e-07
5.23698e-07
8.0785e-07
1.87233e-06
6.11119e-06
7.52289e-07
0.000452202
2.78303e-05
0.000833623
0.000799406
6.00312e-07
4.50133e-07
7.25663e-06
9.41632e-06
1.26806e-05
1.40075e-05
0.00184248
0.00204682
0.00170487
0.00106887
2.24223e-05
1.48436e-07
9.05708e-06
5.45908e-06
4.91023e-06
2.66029e-05
0.00328273
0.0043464
0.00331187
0.000594664
1.43622e-07
2.37395e-08
1.08726e-05
2.16313e-05
3.46627e-06
6.78054e-06
0.00363328
0.00232911
0.00102413
0.000409875
1.89249e-08
5.58436e-09
9.77563e-06
3.31122e-05
6.91654e-06
2.23007e-06
0.00110831
0.000147648
7.13389e-09
0.000291946
5.58436e-09
1.99737e-09
1.03324e-06
1.3555e-05
1.32113e-05
6.29171e-06
2.76927e-05
1.27521e-05
2.05476e-07
9.44404e-05
5.14056e-09
5.60577e-10
3.89785e-10
1.16209e-08
3.33717e-06
1.95484e-06
2.0218e-05
2.75596e-05
2.92854e-05
4.44063e-05
8.0576e-09
2.95746e-09
1.17753e-10
1.49989e-10
1.63104e-10
1.40811e-10
1
1
1
1
1
1
1
1
1
1
1
0.999996
0.999985
0.999999
1
1
1
1
1
1
1
0.999942
0.999961
0.999936
0.999995
1
1
1
1
1
1
1
0.999999
0.999999
0.997774
0.999913
1
1
1
1
1
0.999999
0.93144
0.977521
1
0.999997
1
1
1
1
0.558037
0.754467
0.523093
0.981798
1
1
1
1
1
1
0.0370061
0.213151
0.725012
1
1
1
1
0.997164
0.990767
0.987157
0.0230366
0.116795
0.761366
0.85493
0.826914
0.753911
0.600225
0.48572
0.432498
0.479498
0.0115249
0.150376
0.504525
0.295464
0.145618
0.0472359
0.00272831
0.000213291
6.2492e-05
0.0126186
0.00885462
0.0653974
0.0520591
0.0255741
0.00241179
0.000496693
0.000502748
8.5843e-05
2.66747e-05
1.93284e-05
0.00779531
0.074561
0.0185247
5.76229e-05
-1.3699e-07
2.85786e-06
1.0315e-05
5.57105e-05
2.22787e-05
4.23566e-06
0.000601651
0.0581679
0.0203444
1.21652e-06
7.94903e-07
4.48656e-07
6.97809e-07
2.91323e-06
7.39872e-06
1.2627e-06
0.000482947
0.000546807
0.000686965
1.99177e-05
7.91462e-07
4.96764e-07
5.29464e-07
1.36541e-06
2.93905e-05
8.62914e-07
0.00475959
0.00029151
6.80448e-05
0.00013104
6.36446e-06
2.94354e-07
5.55972e-06
3.02668e-05
3.31962e-05
3.08776e-05
0.00782405
0.00344771
2.00377e-05
0.000127181
1.10219e-05
1.28446e-07
1.90908e-05
3.33115e-05
3.3256e-05
3.00102e-05
0.0078307
0.00510301
4.67305e-05
2.32432e-05
1.28446e-07
9.2427e-08
2.29354e-05
3.33115e-05
2.1643e-05
4.71389e-06
0.00718208
0.00198376
4.30041e-06
2.10346e-06
7.8851e-08
2.60031e-08
1.24936e-05
3.33119e-05
2.87584e-06
2.02507e-06
0.000496873
9.01031e-05
7.36648e-06
9.03833e-07
1.89249e-08
1.26875e-08
9.52651e-07
6.65689e-06
3.19771e-06
2.10047e-06
3.24518e-05
0.000146467
4.76094e-05
5.30323e-06
8.38488e-07
8.76612e-08
2.30237e-09
3.39405e-09
1.54504e-06
1.15664e-06
0.000148076
0.000390578
6.30305e-05
6.37268e-05
3.72819e-06
1.90568e-06
1.57108e-08
1.05951e-09
1.60758e-09
2.05446e-09
0.966497
1
1
1
1
1
1
1
1
1
0.968776
1
0.999999
1
1
1
1
1
1
1
0.961998
1
1
1
1
1
1
1
1
1
0.974926
1
0.999105
0.925998
0.940226
0.997133
1
1
1
1
0.996736
1
0.966516
0.589499
0.829583
1
1
1
1
1
0.302981
0.651278
0.449573
0.703954
0.998044
1
1
1
1
1
0.0438409
0.0868644
0.612395
0.999955
1
1
1
0.992173
0.98
0.973322
0.0346774
0.291881
0.74137
0.900576
0.783192
0.714384
0.52987
0.411023
0.354979
0.417885
0.0549472
0.206971
0.394128
0.308616
0.166816
0.0670445
0.00811997
0.000217474
6.69442e-05
0.00271625
0.0162954
0.0655031
0.0440208
0.0305109
0.0153021
0.00357836
0.000153156
4.36077e-05
3.15866e-05
5.87389e-05
0.0512418
0.0685609
0.0080565
0.000178854
2.82757e-06
5.76725e-07
3.06013e-06
1.82453e-05
2.85968e-05
1.31795e-05
0.0912651
0.098308
0.0234623
1.97598e-06
6.24915e-07
3.229e-07
4.50768e-07
8.56516e-06
2.49407e-05
2.9218e-06
0.0460813
0.0132817
0.00887644
2.63915e-06
2.09201e-06
6.90358e-07
3.74697e-07
7.34312e-07
1.24773e-05
2.1214e-06
0.000101692
8.1812e-05
5.15883e-06
3.13414e-06
1.32644e-05
3.0839e-06
5.06898e-06
1.1731e-05
1.93629e-05
8.92884e-06
3.81729e-05
2.00377e-05
1.09831e-05
1.07225e-05
4.31879e-05
4.31811e-06
1.2965e-05
3.32725e-05
3.19839e-05
2.38596e-05
9.31589e-05
3.83644e-05
2.04927e-05
2.86635e-05
9.56471e-05
8.47507e-06
9.02799e-06
3.3313e-05
3.33064e-05
1.21549e-05
0.000170814
6.67053e-05
3.02607e-05
3.25171e-05
0.000109843
2.93151e-06
4.59351e-06
2.64052e-05
2.5397e-05
1.62528e-06
0.000184476
0.000191806
0.000171108
2.94948e-05
0.000110971
9.67208e-07
7.45176e-08
1.28981e-06
2.38709e-06
1.58784e-06
0.000226433
0.0154609
0.00100657
2.79911e-05
9.34584e-05
8.64511e-06
4.28636e-08
8.78107e-09
2.94177e-09
3.73336e-07
0.000559802
0.0428821
0.00232678
3.28611e-05
0.000180423
4.0249e-05
1.91777e-06
2.12994e-09
1.97658e-09
3.66397e-10
0.952361
0.996922
1
1
1
1
1
1
1
1
0.952361
0.99821
1
1
1
1
1
1
1
1
0.954553
1
1
1
1
1
1
1
1
1
0.987885
1
0.988422
0.898532
0.930514
0.996709
1
1
1
1
0.883461
0.999988
0.904301
0.581498
0.783557
1
1
1
1
1
0.137016
0.464697
0.448314
0.805504
0.987654
1
1
1
1
1
0.0584967
0.318364
0.813088
0.999944
1
1
1
0.991959
0.979859
0.97333
0.21831
0.406641
0.778664
0.834079
0.764821
0.728719
0.539507
0.411917
0.354956
0.420713
0.212823
0.186298
0.297758
0.209165
0.145594
0.0887174
0.0249829
0.000332005
8.26848e-05
0.00244313
0.112156
0.0255609
0.0413247
0.00106042
0.000189342
8.87216e-06
4.27898e-06
1.45364e-05
1.50471e-05
8.26849e-05
0.0759962
0.0893799
0.0538395
0.0166288
9.17685e-06
3.1777e-07
1.18582e-06
2.60832e-06
4.53044e-06
1.45507e-05
0.116443
0.116443
0.0888736
0.0280534
3.15277e-07
2.66936e-07
3.34186e-07
5.51561e-07
2.13327e-06
2.69081e-06
0.116447
0.104472
0.0035047
0.00555514
0.000213177
3.2145e-07
3.74746e-07
3.74746e-07
4.82858e-07
7.40742e-07
0.0209799
0.00369356
2.3797e-05
0.00063764
0.00057308
1.70225e-06
1.59259e-06
5.95351e-07
5.63081e-07
5.75812e-06
2.25616e-05
2.92798e-05
8.90612e-05
4.30241e-05
0.000605728
9.24234e-06
2.5717e-06
7.87338e-06
6.24251e-07
1.45351e-05
2.88946e-05
2.546e-05
9.64252e-05
2.9355e-05
0.000605943
1.55265e-05
1.52609e-06
3.33064e-05
1.70681e-05
4.35416e-06
5.23231e-05
2.2338e-05
3.13548e-05
3.16393e-05
0.000603362
3.23999e-05
7.67895e-07
1.82953e-05
2.41127e-05
1.82739e-06
0.000150891
0.000120204
1.56149e-05
6.65334e-05
0.00026764
5.26241e-05
5.9068e-08
8.57602e-07
7.31493e-06
2.49433e-06
0.000114116
0.000447798
5.5441e-05
0.000201578
7.04143e-05
3.09983e-05
1.42335e-07
6.60499e-09
5.72851e-09
6.63879e-07
2.44939e-06
0.00164949
0.000377359
0.000147499
0.0001476
4.05234e-05
5.37697e-06
3.40191e-08
1.53918e-09
6.61256e-10
0.999125
1
1
1
1
1
1
1
1
1
0.999983
1
0.999995
0.999999
1
1
1
1
1
1
1
1
1
0.999998
0.99999
1
1
1
1
1
1
1
0.98163
0.999999
0.998799
0.999867
1
1
1
1
0.999996
0.968705
0.639996
0.827234
1
0.999998
1
1
1
1
0.457729
0.550439
0.865994
0.993787
1
1
1
1
1
1
0.148104
0.720003
0.998317
1
1
1
1
0.996723
0.990471
0.987489
0.0486451
0.405221
0.780875
0.852384
0.832925
0.745168
0.590774
0.476744
0.428416
0.483415
0.048648
0.0654352
0.186169
0.207319
0.192452
0.100968
0.0154427
0.00020262
7.60501e-05
0.0130662
0.0633128
0.0197149
0.00284145
0.00992621
0.00151413
0.000822424
0.000554779
2.56883e-05
2.54291e-05
3.12031e-05
0.115549
0.0294428
0.000172688
2.81499e-05
1.17777e-06
2.64917e-07
4.25269e-07
4.74466e-06
1.67662e-05
1.45964e-05
0.116248
0.0238153
2.49142e-06
0.000169541
0.000252149
1.88976e-07
3.18296e-07
5.00005e-07
6.65635e-06
3.19835e-06
0.0514251
0.0166107
6.48384e-07
0.000292737
0.000300742
2.64857e-07
7.65415e-07
4.31327e-06
7.40742e-07
1.31169e-06
5.27885e-05
0.011543
2.97261e-07
0.000241903
0.000145064
3.19655e-07
4.7499e-06
3.29281e-05
1.03932e-06
3.04607e-06
5.00375e-06
0.00205937
8.81083e-06
0.000273383
0.00014415
5.0319e-07
4.1706e-06
7.32943e-06
2.50412e-05
9.86411e-06
0.000139944
1.83165e-06
3.12904e-05
0.000276166
0.000213536
1.91731e-07
4.47291e-06
2.87327e-05
1.47935e-05
4.20062e-06
0.000444479
1.34444e-05
1.93358e-05
0.000195181
0.000216576
2.28291e-08
6.28677e-07
1.48621e-05
1.79918e-05
2.00386e-06
0.000444468
9.34425e-06
2.77744e-06
1.19453e-06
0.000184685
3.33002e-06
3.02582e-08
3.23829e-07
4.88759e-06
2.94496e-06
0.000442434
2.85593e-06
2.42839e-05
0.00100877
0.000164779
1.09438e-05
1.29631e-07
2.62499e-10
2.63938e-09
4.58813e-07
0.000377666
3.32179e-05
0.000583087
0.00547494
0.000155438
1.59123e-05
5.02338e-07
1.84431e-09
7.34893e-11
1.2529e-11
1
1
1
1
1
1
1
1
1
1
1
0.999988
0.999936
0.999996
1
1
1
1
1
1
1
1
0.999936
0.999972
1
1
1
1
1
1
0.996277
0.997432
0.999999
0.999999
1
1
1
1
1
1
0.916656
0.694604
0.918718
1
1
1
1
1
1
1
0.432084
0.869612
1
1
1
1
1
1
1
1
0.628509
0.975907
1
1
1
1
1
0.999998
0.999885
0.997872
0.573687
0.749243
0.813683
0.823755
0.839258
0.819649
0.735932
0.650723
0.597019
0.568992
0.263221
0.122702
0.260962
0.343759
0.179463
0.0758231
0.0190073
0.000681365
0.00102804
0.0532129
0.0460552
0.00556622
0.00127984
0.00104762
0.000681656
1.55093e-06
2.17983e-05
3.53925e-05
2.7194e-05
1.61579e-05
0.0374324
0.00593998
-1.96431e-06
1.43341e-05
1.40752e-06
1.89379e-07
7.95907e-07
4.32806e-06
8.35437e-06
1.16104e-05
0.0263653
0.000657989
6.27053e-07
1.61959e-06
3.18363e-05
7.1977e-08
3.05927e-07
8.14477e-07
2.08659e-06
3.98471e-06
0.0031726
0.000140242
3.46879e-07
4.50761e-07
4.29815e-05
1.107e-06
1.68757e-06
2.00212e-05
1.47392e-06
1.19244e-06
1.44413e-06
1.72921e-07
5.06172e-07
2.38006e-09
1.50671e-05
1.39786e-06
5.25953e-06
4.55978e-05
2.35725e-05
2.30034e-06
4.99606e-06
4.96192e-08
3.28528e-08
1.39987e-09
1.34118e-05
7.06344e-07
1.54856e-06
2.14444e-05
4.42225e-05
7.06936e-06
2.3752e-06
1.68526e-06
1.86255e-09
1.62655e-06
1.20276e-05
2.86071e-07
2.61228e-06
8.88711e-06
1.56374e-05
6.04114e-06
2.18612e-06
9.87301e-06
2.6773e-09
2.22664e-09
8.76282e-06
1.31308e-09
3.45336e-07
6.80869e-06
7.69043e-06
2.9327e-06
3.775e-06
9.06424e-06
1.20857e-08
1.20928e-07
7.43633e-06
1.49409e-09
1.5534e-10
2.62533e-10
1.41483e-06
1.83268e-06
1.0986e-06
1.36536e-06
1.24871e-06
2.02631e-05
1.24883e-05
1.23696e-07
4.27686e-09
2.15797e-11
9.63917e-12
5.84386e-08
8.30209e-05
1.88496e-07
2.59363e-05
0.00021842
4.56569e-05
1.86543e-07
3.94468e-09
7.34632e-11
3.5594e-12
3.71951e-13
1
1
1
1
1
1
1
1
1
1
1
0.999999
0.999992
0.999996
1
1
1
1
1
1
1
0.999998
0.999967
0.999986
1
1
1
1
1
1
0.975251
0.999998
0.999992
0.999991
1
1
1
1
1
1
0.672358
0.903626
1
1
1
1
1
1
1
1
0.788771
1
1
1
1
1
1
1
1
1
0.999988
1
1
1
1
1
1
0.999996
0.99999
0.999977
0.91656
0.813095
0.805941
0.85728
0.888054
0.878715
0.853673
0.820251
0.769216
0.710927
0.456988
0.354804
0.413621
0.382481
0.229989
0.141467
0.0888473
0.0598795
0.0497649
0.144766
0.0226832
0.00181545
0.00545151
0.00490503
0.00183907
3.26829e-06
1.08368e-05
1.1401e-05
9.27898e-06
7.03024e-06
0.000139238
0.000383536
2.26303e-05
2.5782e-05
1.28365e-06
6.71518e-08
7.42458e-07
4.91183e-06
4.33315e-06
1.24436e-06
0.000104487
0.000158763
5.21202e-06
3.48401e-08
4.4302e-09
1.83911e-08
6.73475e-08
8.84602e-07
1.19313e-06
1.1068e-06
3.46043e-06
5.11262e-05
3.7659e-05
2.37999e-09
6.09104e-09
8.58608e-09
3.05626e-07
1.58535e-05
1.19244e-06
1.1088e-06
7.55741e-06
1.19837e-06
4.82192e-06
1.39987e-09
2.38002e-09
6.11076e-09
2.0113e-06
4.55978e-05
2.45336e-05
1.90756e-06
8.50071e-06
4.95793e-08
1.39987e-09
1.24937e-09
1.39987e-09
5.42854e-08
4.78238e-07
4.53011e-05
4.49735e-05
2.58854e-06
7.72227e-06
9.74209e-06
1.24747e-09
1.25953e-09
1.24799e-09
1.92932e-08
9.73927e-09
1.71443e-06
3.28216e-05
2.73418e-06
5.48476e-06
5.00301e-05
2.88725e-09
1.25953e-09
1.28024e-09
7.34208e-10
1.55341e-10
9.29424e-07
3.10853e-06
5.60628e-06
2.51572e-06
4.97421e-05
2.88302e-09
2.22664e-09
2.37517e-09
1.55335e-10
9.28496e-11
2.1581e-11
2.79068e-08
8.9781e-07
2.96205e-07
5.41947e-06
1.6314e-06
1.10291e-08
1.44271e-08
5.66052e-10
2.15809e-11
9.63921e-12
3.57131e-12
3.71918e-13
1.88496e-07
3.55031e-09
1.3448e-07
7.46886e-08
8.74877e-08
4.58498e-09
1.64158e-10
3.56946e-12
3.72024e-13
7.65776e-14
1
1
1
1
1
1
1
1
1
1
1
1
1
1
1
1
1
1
1
1
1
1
1
1
1
1
1
1
1
1
0.996692
0.999879
1
1
1
1
1
1
1
1
0.835795
1
1
1
1
1
1
1
1
1
0.997411
1
1
1
1
1
1
1
1
1
1
1
1
1
1
1
0.999998
0.999995
0.999991
0.999982
0.757596
0.799338
0.83585
0.886556
0.916579
0.936039
0.942788
0.936661
0.909263
0.864261
0.0900011
0.281368
0.307314
0.254583
0.263641
0.245199
0.22664
0.228707
0.211357
0.299639
0.0128076
0.00167765
0.00433128
0.00814714
2.93128e-05
1.40914e-05
4.28877e-06
4.04926e-06
3.85531e-06
1.23467e-06
0.000530704
8.84797e-05
0.000264589
4.64092e-06
4.45901e-06
1.62133e-06
4.98246e-07
1.09279e-06
1.19118e-06
1.00653e-06
5.0009e-05
6.05744e-05
7.19695e-06
9.39143e-07
5.72542e-06
1.03867e-07
1.09999e-07
5.31813e-07
9.68606e-07
9.47326e-07
2.93589e-06
7.04264e-07
4.60367e-06
1.10253e-07
1.02547e-06
2.21209e-08
7.18937e-08
7.227e-06
3.69449e-06
1.01597e-06
2.30743e-06
4.07601e-07
3.83092e-07
7.00866e-09
4.5459e-08
2.73156e-08
3.58987e-05
4.45035e-05
6.35929e-06
9.93106e-07
8.31615e-07
7.19243e-08
2.91598e-09
1.39494e-09
6.70373e-08
3.58012e-08
5.19906e-05
5.19906e-05
3.68253e-05
9.97285e-07
6.52892e-09
2.91598e-09
1.39494e-09
1.24997e-09
1.39494e-09
1.13357e-08
1.57811e-05
1.26698e-05
3.73599e-05
2.30815e-05
4.39851e-07
3.05661e-06
2.20969e-09
1.39494e-09
1.6206e-06
1.88304e-05
9.94437e-06
3.22845e-09
1.17511e-06
6.70931e-06
1.03329e-07
5.87371e-09
3.70829e-09
1.75478e-07
1.87235e-05
4.77258e-05
4.45266e-06
5.868e-10
4.29295e-11
2.96317e-08
8.22886e-08
7.68213e-08
7.18282e-09
7.17392e-08
1.61294e-05
5.79776e-05
1.24378e-06
2.1581e-11
6.43995e-12
7.66008e-14
2.15132e-09
3.55031e-09
3.55031e-09
7.33922e-09
3.20351e-06
4.03106e-05
3.06378e-06
1.64173e-10
1.69172e-09
7.66014e-14
1
1
1
1
1
1
1
1
1
1
1
1
1
1
1
1
1
1
1
1
1
1
1
1
1
1
1
1
1
1
0.999946
0.999998
1
1
1
1
1
1
1
1
0.999992
1
1
1
1
1
1
1
1
1
1
1
1
1
1
1
1
1
1
1
1
1
1
1
1
0.999999
0.999998
0.999997
0.999995
0.999992
0.681325
0.725399
0.812152
0.875796
0.933489
0.971812
0.987223
0.991576
0.98686
0.971321
0.0116263
0.0349992
0.0985193
0.155131
0.242326
0.328684
0.406823
0.46544
0.458534
0.525339
0.000498304
0.00828228
0.006535
0.00623871
3.11222e-05
9.37996e-06
2.36005e-06
1.24465e-05
7.29925e-06
4.49039e-05
0.000734967
0.0012978
0.00024475
2.67391e-05
1.20028e-05
1.69057e-06
8.51042e-07
1.35942e-06
1.00014e-06
9.47312e-07
0.000810392
3.82903e-05
7.55616e-06
5.38869e-05
4.29303e-05
6.87452e-07
6.37012e-07
8.51048e-07
9.5807e-07
9.3566e-07
0.000138019
7.59783e-06
1.0849e-06
7.92928e-06
3.02806e-05
1.24076e-06
5.43949e-06
1.44992e-05
4.34989e-06
9.47326e-07
2.41302e-05
2.5401e-07
1.08876e-07
2.97045e-08
8.58568e-07
2.87702e-06
5.11626e-05
1.60753e-05
1.01247e-06
9.80738e-07
3.50507e-05
2.29427e-08
1.00406e-08
4.87678e-09
4.27877e-08
2.19114e-05
5.19166e-05
2.05894e-05
1.45412e-06
9.94479e-07
3.96741e-05
6.52892e-09
4.26189e-09
1.39494e-09
2.32288e-05
8.27522e-05
1.1293e-05
9.64839e-06
1.72889e-05
1.39205e-05
3.94907e-05
6.66763e-09
3.0278e-09
8.3093e-06
0.000143398
0.000205408
3.22845e-09
9.05119e-10
4.83174e-08
2.88276e-06
2.00814e-05
5.81967e-09
6.66763e-09
4.13699e-05
0.000248454
0.000247487
3.0436e-05
5.41025e-10
2.86946e-10
4.4743e-12
2.37496e-07
3.23288e-09
7.19711e-09
3.2853e-05
0.000248518
0.00024898
0.000177365
2.10189e-10
4.4743e-12
1.85047e-12
4.59922e-10
2.48124e-09
3.86347e-09
5.812e-06
0.000170888
0.000248952
0.000248976
1.24127e-05
1.85047e-12
7.66014e-14
1
1
1
1
1
1
1
1
1
1
1
1
1
1
1
1
1
1
1
1
1
1
1
1
1
1
1
1
1
1
1
1
1
1
1
1
1
1
1
1
1
1
1
1
1
1
1
1
1
1
1
1
1
1
1
1
1
1
1
1
1
1
1
1
0.999998
0.999998
0.999998
0.999997
0.999996
0.999998
0.546036
0.614272
0.735364
0.847716
0.940105
0.986571
0.999392
0.999866
0.999846
0.999887
6.89895e-06
9.20224e-06
0.0250722
0.0992917
0.221671
0.401637
0.57708
0.707029
0.743476
0.830884
6.89895e-06
0.00157386
0.00908426
0.000130014
2.12593e-05
3.50397e-06
1.07587e-06
0.00632634
0.035024
0.197734
1.38815e-05
0.00169411
0.000372605
0.000141933
3.50309e-06
1.07587e-06
8.80054e-07
9.37268e-07
9.36838e-07
9.14012e-07
0.000121616
0.000394079
2.20358e-05
0.000175432
3.87891e-05
8.79976e-07
8.51048e-07
8.80054e-07
9.22708e-07
9.36845e-07
3.35231e-05
3.19804e-06
1.10577e-06
4.6821e-05
3.55493e-05
1.77592e-06
2.30213e-05
1.44253e-05
9.36846e-07
9.36846e-07
1.0132e-05
3.47175e-07
2.16698e-07
3.54109e-07
7.84999e-07
2.3985e-05
5.03827e-05
1.42172e-05
1.0355e-06
3.95677e-06
2.53424e-06
1.57757e-07
8.5396e-08
7.2283e-08
2.46508e-07
3.86364e-05
5.13646e-05
2.18421e-06
3.8397e-07
4.13159e-05
1.13292e-05
2.61083e-06
6.89163e-08
4.22452e-05
8.24054e-05
7.96966e-05
1.87681e-05
1.67634e-06
4.40401e-09
7.88164e-07
1.08613e-05
4.53256e-07
1.99018e-08
0.000105377
0.000246675
0.000103613
2.9888e-07
7.19309e-07
6.83431e-10
2.52953e-08
3.27298e-06
7.43202e-09
1.20823e-07
0.000136373
0.000248151
0.000153466
1.42275e-08
6.83431e-10
5.41025e-10
4.00484e-10
1.27843e-07
2.00177e-09
3.11483e-08
0.000127903
0.000248513
0.000237445
2.25428e-06
3.42936e-06
2.10189e-10