/*--------------------------------*- C++ -*----------------------------------*\
| =========                 |                                                 |
| \\      /  F ield         | OpenFOAM: The Open Source CFD Toolbox           |
|  \\    /   O peration     | Version:  2312                                  |
|   \\  /    A nd           | Website:  www.openfoam.com                      |
|    \\/     M anipulation  |                                                 |
\*---------------------------------------------------------------------------*/
FoamFile
{
    version     2.0;
    format      ascii;
    arch        "LSB;label=32;scalar=64";
    class       volScalarField;
    location    "0.91";
    object      alpha.water;
}
// * * * * * * * * * * * * * * * * * * * * * * * * * * * * * * * * * * * * * //

dimensions      [0 0 0 0 0 0 0];

internalField   nonuniform List<scalar> 
8000
(
1
1
1
1
1
1
1
1
1
1
1
1
1
1
1
1
1
1
1
1
1
1
1
1
1
1
1
1
1
1
1
1
1
1
1
1
1
0.999991
1
1
1
1
1
1
1
1
1
1
0.994353
1
0.999994
0.999999
1
1
1
1
1
1
0.884743
0.901828
0.948269
0.946538
0.944513
0.946741
0.952922
0.909384
0.837222
0.715639
0.680919
0.747363
0.554967
0.609461
0.616909
0.576383
0.445996
0.241916
0.115189
0.124179
0.237143
0.321453
0.0564574
0.053668
0.0409565
0.0145836
3.67534e-05
0.000126976
0.000255116
0.00332439
0.0112295
0.0160403
1.03819e-05
8.0692e-06
5.24416e-06
7.13357e-06
1.47675e-05
6.10102e-05
0.000136886
0.000746332
0.00186706
0.0031475
4.02447e-06
4.47859e-06
4.47569e-06
5.24375e-06
7.14065e-06
2.3539e-05
9.82545e-05
0.000182285
0.00047521
0.00134719
3.06343e-06
2.75238e-05
7.60625e-05
5.48809e-05
1.16894e-05
1.50953e-05
2.93513e-05
0.000114392
0.000280476
0.000726405
7.49805e-05
0.000239263
0.000258213
0.000258213
0.000107066
2.53703e-05
3.44379e-05
6.22192e-05
0.000235785
0.000184248
0.000259319
0.000259954
0.000259084
0.000209559
0.000213513
0.000213513
0.000213517
9.07489e-05
9.02444e-05
5.16303e-05
0.000259954
0.000218022
5.48346e-05
3.14075e-05
2.63887e-05
8.92335e-05
0.000149064
0.000138109
5.34441e-05
2.97709e-05
0.000136016
2.16027e-05
2.40104e-05
3.09998e-05
3.58659e-05
1.39392e-05
1.31485e-05
8.03317e-05
0.000104667
2.57267e-05
1.83885e-05
1.82861e-05
5.27017e-05
0.000232975
0.000256543
5.36042e-05
1.28816e-05
1.21299e-05
2.54682e-05
3.44209e-05
1.47018e-05
1.85569e-05
0.000195503
0.000293871
0.000300394
0.000111056
1.21299e-05
1.13707e-05
1.09861e-05
2.52304e-05
9.44538e-06
1.51078e-05
0.000162149
0.000293871
0.000256418
6.57359e-05
1.63031e-05
1.13286e-05
1.05259e-05
1.77712e-05
9.46833e-05
3.69013e-05
1.72971e-05
4.10694e-05
6.22259e-05
0.00012924
8.40976e-05
2.13685e-05
2.56198e-05
2.5485e-05
1
1
1
1
1
1
1
1
1
1
1
1
1
1
1
1
1
1
1
1
1
1
1
1
1
1
1
1
1
0.999987
1
1
1
1
1
1
1
0.999993
0.999995
0.999988
1
1
1
1
1
1
1
1
0.980919
1
1
1
1
1
1
1
1
0.971766
0.897921
0.960096
0.999982
0.999996
0.999997
0.999921
0.98654
0.944761
0.874576
0.787772
0.673396
0.588942
0.755866
0.793207
0.742845
0.594489
0.420109
0.235073
0.111874
0.130218
0.117057
0.0423487
0.0309736
0.0238733
0.00753557
0.000349684
0.000118385
0.000153754
0.000167191
0.000747825
0.00178096
0.00269248
0.00012177
1.02785e-05
4.41336e-05
2.18107e-05
5.4188e-05
0.000103194
0.000112328
9.96988e-05
0.000266492
0.00122744
1.08966e-05
3.63477e-06
4.51015e-06
6.98116e-06
0.00013095
0.000272389
0.000283989
0.000138558
0.000212028
0.00136403
4.47799e-06
3.04005e-06
1.78319e-05
0.000139622
0.000242047
0.000259642
0.000276471
0.000134975
0.000264397
0.00109233
1.34873e-05
2.9208e-05
0.00019957
0.000255126
0.000244713
0.000130003
0.000232084
0.000250428
0.000247082
0.000319934
2.58224e-05
0.00015756
0.000254744
0.000247485
7.32589e-05
4.75164e-05
0.000137916
9.77102e-05
7.96042e-05
3.10619e-05
8.69982e-05
0.000232865
0.00020537
3.69122e-05
1.13487e-05
1.20687e-05
2.96506e-05
0.000139859
4.53458e-05
2.38515e-05
0.000152913
0.000139245
2.79641e-05
2.87078e-05
7.29487e-05
6.30998e-05
1.36336e-05
8.02611e-05
0.00011355
2.18458e-05
0.000100751
2.18898e-05
2.54029e-05
0.000206729
0.000298657
8.81183e-05
1.31482e-05
1.25265e-05
5.78756e-05
2.69324e-05
1.23155e-05
1.55834e-05
7.17672e-05
0.000300394
0.00030059
2.1352e-05
1.30061e-05
1.10626e-05
1.05259e-05
1.08084e-05
7.23199e-06
2.33128e-05
0.000110772
9.82684e-05
2.2519e-05
2.42797e-05
1.92863e-05
1.22562e-05
1.05255e-05
1.05135e-05
3.32322e-05
0.000131152
0.000138933
0.000138874
8.92711e-05
9.38835e-05
0.000281705
0.000284634
1.05259e-05
1.061e-05
1
1
1
1
1
1
1
1
1
1
1
1
1
1
1
1
1
1
1
1
1
1
1
1
1
1
0.999999
1
0.999997
0.999996
1
1
1
1
1
0.999999
0.999991
1
0.999966
0.999963
1
1
1
1
1
1
1
1
1
0.999998
0.999999
0.999991
0.999991
1
1
1
1
0.976648
0.998524
1
0.999994
0.999994
0.999994
0.999996
0.998678
0.978892
0.924998
0.853266
0.810148
0.732706
0.939844
0.958105
0.912882
0.787948
0.586721
0.375981
0.220204
0.195587
0.0977207
0.0337676
0.215896
0.193308
0.120465
0.0410472
0.000806822
0.000113052
8.61915e-05
9.9683e-05
0.000157894
0.000427501
1.24763e-05
7.8765e-06
5.86793e-06
7.18187e-06
3.02916e-05
9.93718e-05
0.000107185
4.34958e-05
6.63947e-05
0.00168444
4.47713e-06
2.54082e-06
2.56117e-06
4.83876e-06
7.59813e-05
0.000245073
0.000283989
0.000127882
0.000360662
0.00156231
4.63116e-06
2.11262e-06
1.86635e-06
2.29541e-05
0.000226476
0.000255327
0.000256126
0.000111175
0.000203029
0.00128302
1.06174e-05
1.84963e-06
5.92488e-06
8.92274e-05
0.000232972
0.000234746
8.81872e-05
0.000102345
5.12735e-05
0.000403938
2.83899e-06
2.22173e-06
5.51731e-05
0.00024106
4.83005e-05
1.15645e-05
1.26123e-05
0.000139622
4.6334e-05
0.000143838
1.70864e-06
2.59256e-05
0.000176424
0.00013417
1.13841e-05
1.13432e-05
1.15645e-05
0.00013147
2.89437e-05
2.15044e-05
2.75673e-06
0.000104519
0.000156375
1.56335e-05
1.36028e-05
1.15645e-05
1.27339e-05
2.82762e-05
9.65669e-05
2.05371e-05
2.89452e-05
0.000114354
5.12718e-05
0.000112062
0.000278381
0.000132858
1.36336e-05
1.45331e-05
2.73949e-05
2.03509e-05
5.81274e-05
2.01321e-05
8.89625e-06
0.000177684
0.00037839
0.000317939
1.49442e-05
1.16972e-05
1.05258e-05
2.02556e-05
7.07087e-06
5.27689e-06
5.41522e-06
9.42628e-06
1.9363e-05
2.27428e-05
0.000132995
0.000137293
9.00433e-06
1.13434e-05
5.02814e-06
5.07362e-06
5.26627e-06
4.30874e-06
3.39532e-06
7.56508e-06
0.000374992
0.000631274
1.87613e-05
1.23358e-05
1
1
1
1
1
1
1
1
1
1
1
1
1
1
1
1
1
1
1
1
1
1
1
1
1
1
0.999999
0.999997
0.999998
1
0.999999
1
1
1
1
1
0.999984
0.999976
0.999994
1
0.999987
1
1
1
1
0.999998
0.999988
1
1
1
1
1
1
1
1
1
1
1
1
1
0.999999
1
1
1
1
0.998976
0.978657
0.952383
0.950079
0.946018
0.99758
0.996769
0.971371
0.886608
0.748806
0.602254
0.445562
0.378043
0.269196
0.255429
0.552235
0.523723
0.385436
0.201373
0.0585484
0.000283931
4.89817e-05
4.34892e-05
3.09992e-05
7.92989e-05
5.71528e-06
2.56232e-06
2.00285e-06
2.66663e-06
1.30756e-05
3.04213e-05
3.72509e-05
3.90037e-05
1.61056e-05
4.41582e-05
2.35566e-06
2.00306e-06
1.8639e-06
2.00309e-06
1.88198e-05
6.19762e-05
4.29146e-05
7.68573e-05
0.000397905
0.000738359
1.26327e-05
2.04411e-06
1.86444e-06
1.86637e-06
3.13837e-05
5.77405e-05
1.56371e-05
8.62207e-05
0.000274591
0.00029196
1.28658e-05
1.83949e-06
1.84963e-06
1.86444e-06
0.000156333
9.08399e-05
1.32785e-05
1.14433e-05
9.5214e-06
2.2856e-05
2.70872e-06
1.83949e-06
1.83949e-06
0.000119594
9.46762e-05
1.24181e-05
1.23609e-05
0.000409529
0.000705113
0.000709355
1.57211e-06
1.69746e-06
4.65851e-05
0.000147812
1.21136e-05
1.15088e-05
1.16745e-05
0.000137918
0.000293016
0.000672796
1.46732e-06
1.18751e-05
0.000150523
1.22706e-05
1.18697e-05
1.16745e-05
1.1923e-05
1.26018e-05
1.45431e-05
0.000350622
1.46142e-06
0.000114568
0.000139042
2.56832e-05
0.000131444
0.000130945
2.0718e-05
1.45432e-05
1.77702e-05
0.000330815
3.36633e-05
0.000114137
2.90233e-05
3.1008e-05
0.00038734
0.000563085
0.000291563
1.61674e-05
4.15347e-05
8.01324e-05
6.9101e-06
2.09504e-05
4.28678e-06
1.77763e-05
4.62831e-05
4.67924e-05
0.00021763
0.000358764
6.84112e-06
6.84112e-06
2.36536e-06
2.92219e-06
3.03256e-06
4.25242e-06
5.44717e-06
9.01478e-06
0.000214481
0.000635568
0.000134032
2.7286e-05
1
1
1
1
1
1
1
1
1
1
1
1
1
1
1
1
1
1
1
1
1
1
1
1
1
1
1
0.999999
0.999999
1
1
1
1
1
1
1
0.999996
0.999994
0.999999
1
0.999998
0.999995
1
1
1
0.999998
0.999993
1
1
1
0.999191
0.999933
1
1
1
1
0.999997
1
1
1
0.999907
0.99998
1
1
0.999997
0.999994
0.999991
0.999998
0.999649
0.999916
0.999941
0.999968
0.999981
0.963419
0.884156
0.768505
0.682248
0.6288
0.5507
0.586214
0.901841
0.847258
0.662933
0.414815
0.188404
0.0536211
0.00320741
0.000171594
1.33026e-05
1.25623e-05
0.219427
0.139206
0.0326051
2.21588e-06
7.06304e-06
9.04207e-06
1.92277e-05
1.3306e-05
9.93699e-06
9.55003e-06
1.22023e-06
2.17217e-06
1.91319e-06
1.97974e-06
2.26686e-06
6.45125e-06
8.72337e-06
2.61684e-05
7.76451e-05
9.53424e-06
1.09911e-06
2.86715e-06
1.86637e-06
1.91319e-06
1.97974e-06
4.23949e-06
9.27332e-06
9.79545e-06
1.41428e-05
9.42856e-06
1.48479e-06
1.67667e-06
1.86444e-06
1.94497e-06
2.24803e-05
2.66632e-05
1.22023e-05
9.5214e-06
9.42856e-06
9.39961e-06
2.79015e-06
1.83949e-06
2.06368e-06
9.82575e-05
5.78166e-05
3.40614e-05
4.62601e-05
0.000195464
5.67268e-05
9.43362e-06
7.4654e-06
1.99392e-06
5.6615e-05
0.000147831
1.47199e-05
1.16745e-05
1.1923e-05
0.000272327
0.000662829
0.000602148
3.9785e-06
1.44925e-05
0.000144799
1.43454e-05
1.20756e-05
1.18697e-05
1.61126e-05
0.000111116
0.000682665
0.000685065
2.79937e-06
7.9276e-05
0.000103229
2.43503e-05
0.000236514
0.000638377
0.000689386
0.000421827
0.000599672
0.000685065
3.35379e-06
0.000111856
8.45024e-05
1.30054e-05
8.42582e-05
0.000594018
0.000669396
0.000208608
4.98054e-05
3.3799e-05
3.86987e-05
0.000108104
6.49975e-05
9.10309e-06
1.29164e-05
5.63864e-05
0.000121033
0.000530003
1.5822e-05
6.84112e-06
3.2309e-05
4.32923e-05
2.55633e-05
5.84847e-06
9.01132e-06
1.51605e-05
0.000272228
0.000635568
0.000463532
1.7735e-05
1
1
1
1
1
1
1
1
1
1
1
1
1
1
1
1
1
1
1
1
1
1
1
1
1
1
1
1
1
1
1
1
1
1
1
1
1
1
1
1
1
1
0.999998
1
1
1
1
1
1
1
0.999174
0.999658
1
1
1
1
1
1
1
0.999999
0.99957
0.999925
1
1
0.999997
0.99999
0.999985
0.999986
0.999993
0.999884
0.999994
0.99996
0.999996
0.998093
0.947973
0.885578
0.821362
0.77583
0.748782
0.779869
0.998317
0.946581
0.789064
0.554668
0.322537
0.174527
0.0933076
0.0594606
0.0290587
0.102377
0.511209
0.318061
0.127841
0.00170673
3.21759e-06
1.00633e-05
1.1822e-05
9.937e-06
9.55003e-06
9.4984e-06
1.36929e-06
2.69714e-06
2.49851e-06
2.21592e-06
2.68112e-06
3.21759e-06
1.06938e-05
1.08648e-05
9.93698e-06
9.55003e-06
8.77972e-07
1.37157e-06
1.90523e-06
1.97974e-06
2.30956e-06
2.77476e-06
1.02741e-05
2.02442e-05
1.13489e-05
9.53425e-06
5.94157e-06
1.72026e-05
5.08272e-06
2.20668e-06
3.00543e-06
3.32998e-06
1.65862e-05
2.86093e-05
1.71443e-05
9.42856e-06
2.11841e-05
2.29958e-05
4.76542e-06
3.96442e-05
4.24926e-05
8.66005e-05
5.43478e-05
1.11894e-05
9.65078e-06
9.39961e-06
2.83524e-05
5.47026e-06
7.82525e-05
0.000146575
8.16751e-05
1.23982e-05
1.25905e-05
6.72279e-05
0.000107131
1.44794e-05
2.69005e-05
1.74666e-05
0.000120375
9.22912e-05
4.08513e-05
1.35517e-05
5.67562e-05
0.000532616
0.000679178
0.000245843
1.03637e-05
1.21601e-05
5.3546e-05
9.04188e-05
0.000682505
0.000700135
0.000700135
0.000700135
0.000692337
0.000323744
4.44715e-06
0.000107575
9.08375e-05
2.61121e-05
3.56547e-05
0.000142847
0.000663171
0.000692337
0.00032398
7.10115e-05
7.41699e-05
0.000106938
0.00010643
2.42493e-05
3.08993e-05
4.85062e-05
0.000171861
0.000653404
0.00020892
7.9998e-06
0.000105268
0.00010643
9.99476e-05
9.97881e-06
1.5152e-05
3.08771e-05
0.000548139
0.000635568
0.000632282
6.16976e-05
1
1
1
1
1
1
1
1
1
1
1
1
1
0.999999
1
1
1
1
1
1
1
1
0.999996
1
1
1
1
1
1
1
0.999999
1
1
0.999999
1
1
1
1
1
1
0.999988
1
0.999998
1
1
1
1
1
1
1
0.999632
0.999847
1
1
1
1
1
1
1
0.999997
0.999783
0.999948
1
1
1
0.999997
0.999993
0.999987
0.999976
0.999841
0.999998
0.999999
1
1
0.996107
0.966968
0.924515
0.905261
0.875282
0.862136
0.999995
0.979628
0.85981
0.661846
0.455529
0.303238
0.216054
0.191564
0.144804
0.192804
0.640093
0.417542
0.185441
0.032789
5.35597e-06
1.8159e-05
1.20143e-05
9.58261e-06
9.49349e-06
9.45796e-06
0.0157685
5.99164e-06
6.23373e-06
3.81673e-06
3.21759e-06
6.02659e-06
1.14108e-05
1.08325e-05
9.58261e-06
9.4984e-06
9.15452e-07
2.3069e-06
4.34305e-06
1.40652e-05
5.11496e-06
3.50293e-06
5.62456e-06
2.74586e-05
4.10654e-05
1.61226e-05
1.15608e-05
4.35077e-05
4.59497e-05
3.69347e-05
1.17789e-05
7.74222e-06
8.16475e-06
8.10526e-05
0.000126637
3.61047e-05
2.25689e-05
4.63423e-05
4.61964e-05
2.39112e-05
0.000120809
9.08521e-05
8.03076e-05
5.4523e-05
6.8297e-05
1.60357e-05
2.40962e-05
3.85989e-05
3.35394e-05
4.64641e-05
0.000145164
5.78145e-05
3.83347e-05
2.51084e-05
2.02894e-05
1.88077e-05
3.02851e-05
1.76756e-05
2.96416e-05
4.86846e-05
0.000134772
0.00017425
8.88147e-05
0.0003837
0.000182722
3.9976e-05
4.02308e-05
1.50115e-05
2.8993e-05
5.1592e-05
0.000119038
0.000696949
0.000700135
0.000692337
0.000312676
1.45054e-05
4.1501e-05
3.85851e-05
2.39966e-05
6.50171e-05
0.000130918
4.91853e-05
9.38597e-05
0.000285335
7.57959e-05
1.45518e-05
3.82391e-05
7.78112e-05
2.69738e-05
0.000107665
0.000273335
5.23736e-05
0.000296639
0.000556856
0.000402232
1.85807e-05
5.25214e-05
7.64693e-05
9.5527e-05
0.000330677
0.000386483
0.000355183
0.000608731
0.000632205
0.000622262
9.39441e-05
1
1
1
1
1
1
1
1
1
1
1
0.999994
0.999988
1
1
1
1
1
1
1
1
0.999995
0.999978
0.999998
1
0.999999
1
1
1
1
0.999998
1
0.999987
1
1
0.999999
1
1
1
1
0.999898
0.999958
1
1
1
1
1
1
1
1
0.999901
1
1
1
1
1
1
1
1
0.999996
0.99995
1
1
1
1
1
0.999999
0.999997
0.999982
0.999869
0.999999
1
1
1
1
0.996788
0.983192
0.971831
0.944723
0.934853
1
1
0.900604
0.722071
0.547842
0.426142
0.350438
0.334196
0.247301
0.259957
0.714649
0.480613
0.219321
0.0651595
0.00125035
3.47485e-05
1.43098e-05
9.54083e-06
9.45305e-06
9.41318e-06
0.0295756
4.96279e-06
7.90916e-06
1.26377e-05
5.35619e-06
1.70273e-05
2.45351e-05
1.13723e-05
9.54081e-06
9.45795e-06
1.18846e-06
2.9784e-06
4.96284e-06
4.43731e-05
5.54514e-05
1.72821e-05
7.03959e-06
1.45126e-05
3.79964e-05
1.97814e-05
2.5327e-05
7.89916e-06
1.91427e-05
0.000103839
0.000142213
1.26686e-05
9.42351e-06
3.47965e-05
0.000133139
4.79087e-05
3.91897e-05
3.59361e-05
2.6892e-05
3.51323e-05
0.000141517
8.24226e-05
1.23276e-05
9.84805e-05
0.000136019
6.7173e-05
8.81056e-07
7.84987e-05
6.23306e-05
3.6846e-05
9.42879e-05
0.000296144
8.17675e-05
9.2052e-05
0.000138053
0.000139872
1.02345e-06
2.40157e-05
6.74528e-05
4.68022e-05
8.22345e-05
0.000360032
0.000420263
0.000163177
4.31228e-05
0.000140645
1.60543e-06
7.18323e-06
1.56805e-05
5.61079e-05
7.79727e-05
0.000195951
0.00069098
0.000546567
3.16733e-05
0.000126436
3.96891e-06
8.29722e-06
1.40153e-05
6.38644e-05
0.000139699
3.57239e-05
5.14859e-05
0.000102129
3.69696e-05
1.59344e-05
8.29618e-06
1.66165e-05
7.56618e-05
0.000566138
0.000625218
8.50328e-05
0.000283954
0.000535578
0.000472492
3.09171e-05
0.00021766
0.000414975
0.000728765
0.000882037
0.000875819
0.000722791
0.000652442
0.000604991
0.000605736
8.4375e-05
1
1
1
1
1
1
1
1
1
1
1
0.999995
0.99999
1
1
1
1
1
1
1
1
0.999981
0.999978
0.999993
1
0.999983
0.999997
1
1
1
1
1
0.999988
0.999992
0.999799
0.999729
0.999971
1
1
1
0.99997
0.999964
0.999999
0.999994
0.999931
0.999906
0.999998
0.999999
0.99998
0.999999
0.999998
0.999364
0.999134
0.999754
1
0.999898
0.999999
1
0.999658
0.997679
0.999998
0.9998
0.999786
0.999941
0.999988
0.999915
0.999997
0.999996
0.999893
0.993618
0.999998
1
1
1
1
0.999999
0.997732
0.994043
0.97957
0.959416
1
1
0.915348
0.742468
0.578661
0.491063
0.443128
0.450572
0.356226
0.334595
0.777333
0.521028
0.233898
0.0722727
0.0148714
6.5577e-05
1.08983e-05
9.45305e-06
9.41312e-06
9.38799e-06
0.0467396
0.00253957
5.04639e-06
2.06841e-05
1.36417e-05
3.73341e-05
3.48226e-05
1.00572e-05
9.45304e-06
9.24703e-06
1.82695e-06
3.36369e-06
4.12276e-06
1.58842e-05
0.000113553
8.85902e-05
1.6921e-05
1.26742e-05
1.52554e-05
1.09933e-05
5.03955e-05
4.12275e-06
5.04623e-06
6.48323e-05
0.000256687
0.000221234
3.69501e-05
1.28982e-05
5.24219e-05
2.75639e-05
6.64314e-05
1.37964e-05
2.74555e-05
3.30557e-05
0.00011582
0.000199833
7.64873e-05
1.23483e-05
6.06767e-05
0.00013888
4.32956e-05
0.000103182
0.000123015
0.000117336
3.43598e-05
4.22628e-05
0.000124358
0.000102517
0.000139913
0.000140645
1.65592e-06
0.000122139
0.000124718
0.000123588
2.21767e-05
6.1788e-05
0.000234775
0.000123588
0.000103267
0.000140645
2.91193e-06
2.9525e-05
0.000103048
6.23871e-05
5.92288e-05
1.81433e-05
0.000171701
6.74405e-05
3.00576e-05
0.000140446
7.21818e-06
6.66561e-06
5.32999e-06
5.98137e-05
0.000104721
2.1083e-05
2.92395e-05
7.8044e-05
2.52067e-05
1.86462e-05
0.000252208
6.89319e-06
0.000118383
0.000462665
0.000451405
0.000167509
0.000297816
0.000541248
0.0004002
1.60265e-05
0.000674387
0.000208697
0.000421713
0.000780359
0.000857748
0.000530381
0.000492179
0.000581433
0.000588455
4.76708e-05
0.989638
1
1
1
1
1
1
1
1
1
0.993993
1
0.999999
1
1
1
1
1
1
1
0.996993
0.999967
0.999999
0.999996
0.999999
1
0.999975
0.999999
1
1
0.991098
0.999975
1
0.999999
0.999985
0.999694
0.998885
1
1
1
0.98999
0.999618
1
1
0.99998
0.994981
0.998915
1
0.999941
0.999998
0.989954
0.9995
0.999079
0.997905
0.996603
0.994981
0.999102
1
0.999465
0.993646
0.993144
0.999766
0.999622
0.999301
0.997788
0.996418
0.999994
0.999996
0.999947
0.985281
0.999805
0.999986
0.999999
1
0.999999
0.999992
0.999992
0.997952
0.990332
0.968021
1
1
0.908883
0.740066
0.581328
0.510187
0.473931
0.50418
0.419289
0.36745
0.792514
0.502564
0.214268
0.0642761
0.0145327
0.00131694
0.000617957
9.46366e-06
9.38798e-06
9.22185e-06
0.0674108
0.00710698
5.99166e-06
3.6586e-05
3.08373e-05
4.49098e-05
1.82523e-05
1.05084e-05
9.25999e-06
9.01534e-06
2.5938e-06
3.26702e-06
3.91286e-06
4.91583e-05
0.000155844
0.000155417
2.09028e-05
9.95612e-06
9.15179e-06
8.73336e-06
5.01185e-05
3.91285e-06
2.64638e-05
0.000258512
0.000260716
0.000256687
0.000120849
1.00986e-05
8.48585e-06
1.1962e-05
6.64314e-05
5.72713e-06
1.24393e-05
0.000159718
0.000256687
0.000207201
6.71624e-05
8.37362e-06
7.90906e-06
1.73616e-05
6.61728e-05
5.89884e-06
9.68136e-06
0.000120302
8.03813e-05
1.53993e-05
1.03193e-05
1.65388e-05
6.47397e-05
0.000132232
2.76986e-05
6.51129e-06
2.18852e-05
6.61544e-05
1.60076e-05
1.27524e-05
9.66812e-06
2.14904e-05
0.000139945
0.000140645
5.91987e-06
6.73417e-06
1.02291e-05
1.10302e-05
1.12611e-05
9.54846e-06
8.51666e-06
1.1179e-05
4.21905e-05
0.000140426
6.66572e-06
5.33096e-06
4.50819e-06
1.19184e-05
3.99873e-05
1.81512e-05
2.53377e-05
1.42716e-05
1.2106e-05
2.04699e-05
8.69459e-06
4.95241e-06
4.059e-06
1.15209e-05
7.91644e-05
0.000113872
0.000143354
0.000170347
7.6426e-05
7.58756e-06
1.22777e-05
6.42407e-06
4.49525e-06
3.25646e-06
3.28838e-05
8.32863e-05
0.000103425
0.000445515
0.000421494
1.7357e-05
0.987825
0.998534
1
1
1
1
1
1
1
1
0.987833
1
1
1
1
1
1
0.999999
1
1
0.988024
1
1
1
1
1
1
0.999997
1
1
0.990465
1
1
1
0.999972
1
0.999774
1
1
1
0.990054
0.998652
0.998617
0.99934
0.999998
0.99658
0.996938
1
0.999914
0.999938
0.989984
0.997623
0.996584
0.996612
0.999141
0.994981
0.996658
0.999999
0.999388
0.991845
0.99181
0.999036
0.998761
0.998965
0.999427
0.997005
0.999023
0.999996
0.99997
0.985816
0.999526
0.999974
0.999996
0.999998
1
0.999995
0.999989
0.998439
0.989484
0.964137
0.999999
1
0.901213
0.727437
0.554759
0.479192
0.458385
0.494624
0.412122
0.353472
0.764335
0.471258
0.191096
0.0521446
0.0105271
0.00144789
0.000373336
9.45052e-06
9.22178e-06
9.01534e-06
0.0640241
0.00657975
1.0713e-05
4.96289e-05
3.55233e-05
5.66675e-05
1.68731e-05
9.86695e-06
9.01534e-06
8.41531e-06
1.8369e-06
2.35396e-06
3.26511e-06
0.000115662
0.000259743
0.000138863
2.90756e-05
7.0207e-05
1.48074e-05
7.78499e-06
3.33262e-05
3.26698e-06
0.000100767
0.000260716
0.000260716
0.000260716
7.41097e-05
8.42618e-06
7.78499e-06
7.69645e-06
6.64314e-05
4.08023e-06
2.67023e-05
0.000258512
0.000260716
0.000142202
2.38097e-05
7.90906e-06
7.69787e-06
7.75029e-06
3.11814e-05
4.49448e-06
5.35677e-06
0.000153173
0.000256498
2.03646e-05
8.35239e-06
8.02792e-06
2.7539e-05
3.83542e-05
8.56488e-06
5.77232e-06
7.93834e-06
0.00014763
0.0002308
1.1335e-05
7.67591e-06
7.77911e-06
0.000118858
0.000140181
1.90364e-05
2.36272e-05
8.60155e-06
6.59718e-05
8.89866e-05
8.27373e-06
6.45733e-06
8.21982e-06
4.76788e-05
0.000140349
8.38401e-05
3.07615e-05
3.64616e-06
2.73294e-06
6.06442e-06
8.94034e-06
9.63588e-06
6.93485e-06
1.01744e-05
3.62391e-05
0.000131459
2.25142e-05
2.73294e-06
2.34044e-06
2.69843e-06
2.76035e-05
1.32608e-05
8.11864e-06
7.58734e-06
7.58756e-06
0.00012318
3.3902e-05
3.25647e-06
2.05402e-06
5.39576e-06
1.68799e-05
4.00104e-06
4.48884e-05
2.83024e-05
7.5875e-06
0.999784
1
1
1
1
1
1
1
1
1
1
0.999994
0.999996
1
1
1
1
1
1
1
1
0.999999
1
1
1
1
0.999983
1
1
1
1
1
1
0.999999
0.999836
0.999688
0.999951
1
1
1
0.999315
0.99278
0.992427
0.99796
1
0.999357
0.999889
1
0.999995
1
0.998584
0.991306
0.991316
0.997733
1
0.999805
0.999973
0.99999
0.99995
0.999994
0.999387
0.995187
0.997653
0.999753
1
1
1
0.999995
0.999958
0.996892
0.999966
0.999987
1
1
1
1
0.998634
0.99128
0.971339
0.927858
1
0.993234
0.868542
0.671158
0.501175
0.418789
0.389763
0.410165
0.319847
0.283199
0.704319
0.423919
0.171193
0.0458126
0.0100129
0.00109512
2.87758e-05
9.68257e-06
9.40645e-06
9.22168e-06
0.0486506
0.00435242
7.5946e-06
2.33045e-05
1.71801e-05
3.55817e-05
3.94588e-05
1.41952e-05
1.26733e-05
9.01523e-06
1.45068e-06
1.77837e-06
2.35321e-06
0.000145387
0.000227765
6.43845e-05
1.90562e-05
7.99054e-05
6.30592e-05
8.94122e-06
7.44433e-06
2.35396e-06
4.01094e-05
0.000220476
0.000260716
8.68223e-05
1.30124e-05
3.26207e-05
2.77895e-05
1.93691e-05
2.07925e-05
3.40812e-06
3.6857e-06
3.92337e-05
0.000256498
7.03157e-05
9.32665e-06
8.37362e-06
8.82844e-06
9.16095e-06
7.98029e-06
3.71096e-06
3.58395e-06
9.90399e-06
0.000143731
0.000200443
0.000163919
5.27179e-05
9.50009e-06
9.88798e-06
0.000131768
4.49418e-06
4.28949e-06
4.58424e-06
8.42877e-05
0.00019122
2.18101e-05
7.21927e-06
2.71437e-05
9.37459e-05
0.000263921
0.000153144
5.13644e-06
5.60202e-06
0.000103996
0.000142472
5.305e-06
6.45733e-06
7.67219e-05
0.000140033
0.000265184
0.000263921
5.41775e-06
2.98807e-06
3.11035e-05
3.98839e-05
4.31908e-06
5.305e-06
2.11457e-05
0.000137031
0.000263921
0.000181619
1.14727e-05
1.89937e-06
1.80833e-06
1.63145e-06
1.04459e-05
6.20065e-06
7.86054e-06
3.0611e-05
0.000258952
8.45536e-05
6.36521e-06
1.36607e-06
1.2825e-06
4.54727e-06
3.27881e-06
3.50791e-06
6.43104e-06
7.68106e-06
1
1
1
1
1
1
1
1
1
1
1
0.999997
0.999995
1
1
1
1
1
1
1
1
1
1
0.999998
0.999998
0.999998
1
1
1
1
1
1
0.999587
1
1
0.999999
1
1
1
1
0.998973
0.994012
0.999367
1
1
1
1
1
1
1
0.998846
0.991309
1
1
1
1
1
1
1
0.999997
0.999521
0.99818
1
1
1
1
0.999999
0.999996
0.99998
0.999866
0.999999
1
1
1
1
0.998341
0.983023
0.965055
0.906968
0.857893
1
0.964988
0.821377
0.619951
0.444634
0.343458
0.291555
0.289289
0.193214
0.194403
0.583653
0.356778
0.152526
0.0461104
0.00669794
6.74472e-05
1.19576e-05
1.04837e-05
9.68257e-06
9.40645e-06
0.0181618
1.77846e-06
5.52658e-06
1.09985e-05
1.1281e-05
1.69232e-05
2.58425e-05
2.0566e-05
2.40219e-05
1.09804e-05
1.39197e-06
1.49868e-06
1.77797e-06
0.000126106
7.87071e-05
1.72691e-05
1.28306e-05
1.9672e-05
0.000174521
0.000131825
1.49831e-06
5.14302e-06
6.65397e-06
3.877e-05
0.000186403
4.25715e-05
1.53242e-05
1.51066e-05
1.90728e-05
0.000164724
2.10016e-06
3.69731e-06
3.53661e-06
7.7766e-06
0.000134787
0.00020265
0.000150672
9.39672e-05
2.00842e-05
1.00003e-05
2.06046e-05
3.58395e-06
3.55868e-06
3.58395e-06
7.12843e-06
0.000208001
0.000208107
0.000153563
1.69292e-05
1.13429e-05
0.000227295
1.32393e-05
3.58394e-06
3.91509e-06
4.58429e-06
6.19021e-05
0.000207254
4.03692e-05
1.8862e-05
1.2936e-05
0.000261471
0.00022177
2.73644e-05
4.64235e-06
5.57567e-06
2.44586e-05
3.30586e-05
6.66886e-05
4.53809e-05
0.000114651
0.000263921
0.000259415
0.00011175
9.16268e-06
7.48836e-06
1.7272e-05
1.6376e-06
7.06167e-05
2.83913e-05
0.00012976
0.000259415
0.000190236
7.4966e-05
6.51074e-06
8.16226e-06
1.37437e-06
4.36435e-06
3.40552e-05
1.68852e-05
1.80592e-05
0.000125742
8.94378e-06
1.59038e-05
1.2825e-06
1.28567e-06
1.26332e-06
1.26108e-06
8.27413e-06
5.51087e-05
9.64018e-05
1
1
1
1
1
1
1
1
1
1
1
1
0.999999
1
1
1
1
1
1
1
1
1
0.999997
1
1
1
1
1
1
1
1
1
1
1
1
1
1
1
1
1
0.999803
0.999356
1
1
1
1
1
1
1
1
0.9997
0.999074
1
1
1
1
1
1
1
0.999999
0.999897
0.999752
1
1
1
0.999999
0.999995
0.99998
0.999968
0.999906
1
0.999999
1
0.999947
0.996587
0.966676
0.911495
0.86695
0.801603
0.780916
0.995302
0.932163
0.79324
0.575702
0.371129
0.238935
0.168186
0.149943
0.0913985
0.114847
0.383241
0.250618
0.114313
0.0345684
1.12823e-05
2.14378e-05
1.48047e-05
1.17698e-05
1.04837e-05
9.89811e-06
1.43256e-06
2.10887e-06
3.7385e-06
5.42232e-06
8.94217e-06
1.10077e-05
1.16631e-05
1.63927e-05
3.29151e-05
5.92032e-05
1.31337e-06
1.43703e-06
1.83361e-05
7.03901e-05
2.14587e-05
1.28563e-05
1.1936e-05
1.28306e-05
0.000176486
0.000204801
1.94993e-06
8.21243e-06
3.32431e-06
1.09047e-05
8.37335e-05
0.000104687
4.66092e-05
1.54973e-05
3.7804e-05
0.000202212
2.15404e-06
3.5743e-06
3.49195e-06
3.53661e-06
2.43362e-05
0.000205658
0.000208107
0.000199093
2.78258e-05
5.47027e-05
1.07072e-05
3.38402e-06
3.53409e-06
3.63006e-06
4.68224e-06
5.43684e-06
0.000208106
0.000179753
2.26469e-05
1.2936e-05
0.000100793
2.93533e-05
3.63006e-06
1.95362e-05
8.10056e-06
4.85497e-06
0.000174807
0.000141927
2.3482e-05
1.58007e-05
0.000136208
0.000113383
4.73424e-05
3.34376e-05
1.49247e-05
4.10996e-06
1.66089e-06
0.000135542
2.6731e-05
2.25313e-05
6.04692e-05
7.37861e-05
9.95962e-05
4.93242e-05
1.39581e-05
1.36985e-06
1.45112e-06
0.000115133
2.34271e-05
2.14945e-05
5.92263e-05
1.94315e-05
1.26245e-05
8.00463e-06
3.57409e-06
1.26332e-06
1.26108e-06
7.42009e-05
3.63754e-05
5.31908e-06
5.22419e-05
2.23369e-06
1.56826e-06
1.36368e-06
1.26332e-06
1.25438e-06
1.25439e-06
9.31826e-06
6.20145e-05
2.34247e-05
1
1
1
1
1
1
1
1
1
1
1
1
1
1
1
1
1
1
1
1
1
0.999999
1
1
1
1
1
1
1
1
1
1
0.999995
1
1
1
1
1
1
1
1
1
0.999999
1
1
1
1
1
1
1
0.999104
0.998849
1
1
1
1
1
1
1
1
0.999474
0.999586
1
1
0.999998
0.99999
0.999979
0.999964
0.999988
0.999955
0.999999
0.999997
0.999997
0.997106
0.963362
0.878844
0.767508
0.731202
0.69195
0.67866
0.970568
0.901693
0.756664
0.513699
0.265853
0.122781
0.0466693
0.0248276
1.53767e-05
0.00947343
0.218727
0.144442
0.0491737
5.42286e-06
8.94227e-06
9.46963e-06
1.16593e-05
1.42742e-05
1.17695e-05
1.17621e-05
1.55456e-06
1.96917e-06
2.2506e-06
3.02388e-06
7.24837e-06
8.94244e-06
1.10077e-05
4.99531e-05
0.000112429
7.58968e-05
1.43252e-06
1.55432e-06
4.92469e-06
4.35152e-05
7.66283e-05
1.689e-05
1.16631e-05
5.36533e-05
0.000204553
0.000204553
1.6029e-06
2.96927e-06
3.01533e-06
1.71232e-05
2.7368e-05
6.43193e-05
9.32011e-05
3.48862e-05
0.00013278
0.00020484
1.89613e-06
2.78413e-06
3.66153e-06
8.27766e-06
6.84992e-06
3.73249e-05
0.000208033
8.73792e-05
1.4018e-05
0.000199816
2.73023e-06
3.06203e-06
3.29399e-06
2.89908e-05
8.56169e-06
6.52143e-06
0.000170537
6.13114e-05
1.21557e-05
0.000151699
5.77134e-06
3.54601e-06
3.54159e-06
2.92491e-05
3.0412e-05
7.27476e-06
4.16357e-05
0.000110949
9.41617e-06
4.46662e-05
1.15722e-05
6.14886e-06
1.64115e-05
4.75668e-05
4.33214e-05
1.4917e-05
3.28205e-05
0.000117961
7.12344e-06
5.92355e-06
2.2376e-05
1.28868e-05
9.95242e-05
0.000108465
3.61482e-05
3.64045e-06
1.35185e-05
0.000115919
7.98597e-06
4.72473e-06
0.000130472
8.77035e-05
2.8782e-05
1.34015e-05
7.97694e-06
1.2874e-06
1.25439e-06
8.20612e-05
1.47031e-05
4.23095e-06
6.08816e-05
9.83417e-06
1.81934e-06
1.5204e-06
1.30783e-06
1.25439e-06
1.25284e-06
5.50402e-06
2.69207e-05
3.93933e-06
1
1
1
1
1
1
1
1
1
1
1
1
1
1
1
1
1
1
1
1
1
1
0.999999
1
1
1
1
1
1
1
1
0.999999
0.999993
1
1
1
0.999997
0.999997
1
1
0.999739
0.999993
1
1
1
1
0.999996
1
1
1
0.996026
0.99752
0.999999
1
1
1
0.999997
1
1
1
0.997741
0.99931
0.999996
0.999998
0.999988
0.999966
0.999885
0.999432
0.999461
0.999148
0.999993
0.999996
0.99995
0.984521
0.893839
0.736927
0.602042
0.562628
0.538354
0.53586
0.906179
0.832899
0.677512
0.401678
0.163266
0.0187261
5.50522e-05
7.32769e-05
1.70543e-05
1.23223e-05
0.0982915
0.0641309
2.25059e-06
3.0239e-06
5.71391e-06
7.69555e-06
1.19876e-05
1.44832e-05
1.23311e-05
1.14984e-05
1.89773e-06
2.14841e-06
2.03828e-06
2.2506e-06
4.45243e-06
2.34294e-05
7.10455e-05
0.000179266
0.000161258
3.02258e-05
1.595e-06
2.06815e-06
2.15387e-06
1.69165e-05
7.58447e-05
7.69579e-05
5.98098e-05
0.000187312
0.000202291
0.000184351
1.89612e-06
2.21377e-06
2.30824e-06
2.21509e-06
5.84777e-06
6.0824e-06
2.98536e-05
7.18878e-06
0.000201459
0.000202754
1.40317e-05
2.57267e-06
1.54529e-05
1.52928e-05
6.35484e-06
7.09549e-06
7.4955e-05
7.65213e-06
3.65241e-05
0.000202965
8.58166e-05
6.37493e-05
0.000122948
0.000110742
1.7824e-05
1.58568e-05
1.8591e-05
9.13652e-06
8.96637e-06
0.000199926
6.12915e-05
8.71936e-05
0.000180254
0.000173802
5.15959e-05
1.98377e-05
1.1196e-05
9.18106e-06
7.28074e-06
0.000140356
2.028e-05
6.85737e-05
0.000181425
0.000175227
6.57094e-05
7.78864e-06
1.16828e-05
9.75088e-06
6.51183e-06
9.91462e-06
3.62623e-05
0.000134671
0.000171279
0.000111434
1.79042e-05
6.84794e-06
1.03457e-05
1.4781e-05
5.0946e-06
4.23091e-06
0.000155168
0.000131868
4.14488e-05
6.05832e-06
1.63241e-06
2.84432e-06
1.06422e-05
5.19097e-05
4.01808e-06
3.93934e-06
5.12389e-05
1.30994e-05
1.0097e-05
1.79121e-06
1.37266e-06
1.28875e-06
7.13464e-06
2.27653e-05
3.44168e-06
3.72647e-06
1
1
1
1
1
1
1
1
1
1
1
1
1
1
1
1
1
1
1
1
1
1
1
1
1
1
1
0.999997
0.999998
1
0.999987
0.999991
1
1
1
1
0.999989
0.999984
0.999999
1
0.999566
0.999933
1
1
1
0.999996
0.999989
1
1
1
0.999259
0.999999
1
1
1
0.999999
0.999999
1
1
1
0.999902
0.999997
0.999999
0.999992
0.99997
0.999246
0.974961
0.945809
0.9463
0.953874
0.999976
0.999942
0.994868
0.936298
0.775446
0.576916
0.392516
0.32137
0.322065
0.326767
0.697243
0.649946
0.480741
0.253268
0.0585267
7.88073e-06
1.1985e-05
2.02367e-05
1.24021e-05
1.14368e-05
0.000426434
2.14841e-06
2.03828e-06
2.32761e-06
3.63434e-06
6.45476e-06
9.24196e-06
1.18412e-05
1.14956e-05
1.14999e-05
2.14841e-06
2.03828e-06
2.00772e-06
2.03828e-06
3.58782e-06
5.43757e-05
8.74573e-05
0.000120736
7.52789e-05
1.14907e-05
1.8969e-06
2.13303e-06
2.02337e-06
2.13407e-06
3.92006e-05
7.17622e-05