/*--------------------------------*- C++ -*----------------------------------*\
| =========                 |                                                 |
| \\      /  F ield         | OpenFOAM: The Open Source CFD Toolbox           |
|  \\    /   O peration     | Version:  2312                                  |
|   \\  /    A nd           | Website:  www.openfoam.com                      |
|    \\/     M anipulation  |                                                 |
\*---------------------------------------------------------------------------*/
FoamFile
{
    version     2.0;
    format      ascii;
    arch        "LSB;label=32;scalar=64";
    class       surfaceScalarField;
    location    "0.91";
    object      alphaPhi0.water;
}
// * * * * * * * * * * * * * * * * * * * * * * * * * * * * * * * * * * * * * //

dimensions      [0 3 -1 0 0 0 0];

oriented        oriented;

internalField   nonuniform List<scalar> 
22600
(
1.11676e-07
2.02321e-08
-1.00639e-07
1.58812e-07
5.3955e-08
-1.0109e-07
1.76217e-07
8.0927e-08
-9.83322e-08
1.71692e-07
1.06719e-07
-1.02194e-07
1.51487e-07
1.36174e-07
-1.15969e-07
1.21836e-07
1.76275e-07
-1.46624e-07
1.00231e-07
2.23545e-07
-2.0194e-07
1.19793e-07
2.40672e-07
-2.60235e-07
1.3608e-07
2.34617e-07
-2.50904e-07
3.25015e-07
-1.88935e-07
1.55876e-07
1.58373e-08
-1.01877e-07
2.22218e-07
1.00304e-07
-1.12691e-07
2.60936e-07
1.61777e-07
-1.19568e-07
2.77652e-07
2.20006e-07
-1.30003e-07
2.72013e-07
2.95707e-07
-1.53893e-07
2.33126e-07
4.21619e-07
-2.06458e-07
1.80367e-07
5.85036e-07
-3.08732e-07
1.65659e-07
6.12925e-07
-3.57544e-07
1.70688e-07
4.70424e-07
-2.40836e-07
6.98803e-07
-2.031e-07
2.22146e-07
-1.05456e-07
-3.07039e-08
2.82145e-07
1.21115e-07
-8.08113e-08
3.16964e-07
2.39151e-07
-1.12193e-07
3.4395e-07
3.3244e-07
-1.3942e-07
3.59851e-07
4.69919e-07
-1.90114e-07
3.23725e-07
7.33661e-07
-2.75915e-07
1.79622e-07
1.03905e-06
-3.09911e-07
4.97829e-08
8.36399e-07
-9.36362e-08
5.69527e-08
2.3814e-07
2.25114e-07
7.95602e-07
-3.98462e-08
3.42705e-07
-4.97031e-07
1.32058e-07
4.5629e-07
-7.09627e-10
8.23993e-09
4.82152e-07
2.84989e-07
-7.16991e-08
5.24706e-07
4.10638e-07
-1.20752e-07
6.03196e-07
5.76168e-07
-1.84739e-07
5.60945e-07
9.81366e-07
-2.05454e-07
2.09508e-07
1.41005e-06
-1.95661e-08
-2.29292e-07
8.70061e-07
4.05132e-07
-2.80497e-07
-3.50526e-07
6.3987e-07
3.52582e-07
1.62523e-07
3.71546e-07
-8.81675e-07
1.59692e-07
5.53993e-07
-2.98735e-07
1.15578e-07
6.57539e-07
1.18556e-07
6.28871e-08
8.53121e-07
1.69728e-07
4.53291e-08
1.1477e-06
2.54958e-07
2.66314e-08
1.28384e-06
8.06819e-07
3.8407e-08
9.79805e-07
1.39857e-06
3.15518e-07
3.78361e-07
9.08095e-07
5.6341e-07
-3.34472e-07
4.93972e-07
-1.65667e-07
4.2449e-07
-4.0962e-07
3.63407e-07
-6.65549e-07
-2.76443e-07
5.02538e-07
-1.43138e-07
-2.94739e-07
7.56917e-07
1.55407e-07
-2.9123e-07
1.20251e-06
2.67624e-09
-2.78545e-07
1.78397e-06
-1.73203e-07
-1.533e-07
2.37973e-06
9.41884e-08
1.16877e-07
2.69943e-06
7.30457e-07
3.48415e-07
2.52358e-06
9.4497e-07
4.69017e-08
1.48546e-06
2.21235e-06
-1.85593e-06
3.04717e-06
-2.16554e-06
3.82682e-07
-1.31834e-07
-7.77812e-07
7.62391e-07
1.93372e-07
-8.06407e-07
1.29948e-06
3.0201e-07
-8.2442e-07
1.92402e-06
1.07936e-07
-7.99172e-07
2.62382e-06
-2.38391e-07
-6.34974e-07
3.00646e-06
-1.73377e-07
-3.39676e-07
2.72312e-06
5.32333e-07
-4.87687e-07
2.2713e-06
9.21234e-07
-1.6397e-06
2.47826e-06
2.07883e-06
-2.63925e-06
4.24905e-06
-2.19833e-06
-2.08291e-07
4.42164e-08
-6.76322e-07
4.33189e-07
4.32253e-08
-6.7189e-07
1.10126e-06
2.38644e-08
-5.48462e-07
1.46559e-06
-1.21775e-07
-3.00964e-07
1.23343e-06
-2.89014e-08
-2.30713e-07
7.85519e-07
-1.06542e-08
-3.57002e-07
5.29159e-07
-6.14281e-08
-3.89173e-07
5.09715e-07
-4.73932e-08
-6.92611e-07
8.0732e-07
-2.83001e-08
-1.1043e-06
2.99132e-07
-5.60184e-07
-1.42312e-07
9.16546e-09
-6.67992e-08
-3.28727e-08
-1.16639e-10
-4.49419e-08
2.2102e-08
-7.2294e-10
-1.82746e-08
2.39155e-08
-7.65957e-10
-6.59661e-09
8.72172e-10
-3.40809e-11
-5.04999e-09
3.03214e-10
-3.0566e-10
-9.88684e-09
1.61137e-10
-1.7426e-09
-6.33172e-08
-1.71022e-08
-3.27362e-09
-6.36806e-08
-2.51773e-08
-1.94217e-08
-1.41741e-07
5.05506e-08
-9.4129e-08
-2.00998e-10
1.93284e-10
1.70724e-10
-5.73111e-10
-1.9588e-13
2.68036e-11
-5.59175e-10
-1.13311e-11
-8.09556e-10
-1.64329e-10
4.00426e-11
-1.31488e-09
-1.56314e-11
6.63322e-11
-2.41532e-10
-4.6846e-10
5.95837e-10
-3.51957e-10
-2.56928e-09
1.57438e-09
-1.76037e-09
-8.20159e-09
1.48178e-10
-6.43941e-09
-1.89242e-08
3.78869e-09
-2.3313e-08
2.81148e-08
-1.96342e-08
-2.37563e-11
-8.81279e-12
5.09054e-11
-3.58535e-11
-4.57701e-11
8.32605e-12
-4.57549e-11
-6.15795e-11
1.08416e-11
-5.61981e-11
-1.132e-11
9.82004e-12
-1.2557e-10
4.24954e-11
1.8573e-11
-1.09309e-10
4.47891e-10
3.99303e-11
-9.12907e-10
1.49627e-09
-5.52076e-11
-3.48081e-09
1.73133e-09
-8.46419e-10
-8.60464e-09
8.08614e-09
-2.29674e-09
1.83222e-08
-1.16673e-09
-5.87016e-11
-4.86182e-12
7.99308e-12
-3.09548e-10
-3.16336e-10
3.2664e-11
-3.58056e-10
-9.4569e-10
1.26147e-10
-9.35555e-11
-6.73446e-10
2.0272e-10
-2.0781e-10
-4.44446e-11
1.52356e-10
-2.81337e-10
1.59186e-10
3.73444e-10
-4.67754e-10
1.03378e-09
5.27935e-10
-1.67184e-09
1.80362e-09
3.76679e-10
-3.03327e-09
7.14887e-09
1.20256e-09
5.56587e-09
3.70945e-09
-5.29473e-10
-8.73748e-10
2.87961e-11
-9.59577e-10
-1.23586e-09
1.7314e-10
-8.93225e-10
-1.40952e-09
5.49237e-10
-5.74506e-10
-1.39667e-09
5.8295e-10
-1.86527e-10
-8.26927e-10
8.30374e-10
-2.25656e-10
-1.62261e-10
3.89872e-10
-3.09545e-10
5.53381e-10
5.94573e-10
-1.12337e-09
1.41336e-09
7.67291e-10
-7.2728e-10
2.47276e-09
1.33282e-09
9.42071e-10
1.73104e-09
-1.07527e-09
-1.22361e-09
1.30757e-10
-1.00046e-09
-1.46575e-09
3.30995e-10
-9.71995e-10
-1.35244e-09
1.33911e-10
-7.75915e-10
-4.08292e-10
9.35007e-11
-4.74206e-10
-4.4546e-10
2.45567e-10
-2.93789e-10
-4.60859e-10
8.60442e-10
-1.21764e-10
-1.0618e-10
9.50302e-10
-2.62345e-10
2.72007e-10
6.8489e-10
1.93212e-11
7.35115e-10
6.83e-10
2.1423e-10
5.53881e-10
-1.44734e-09
-1.29276e-09
8.85988e-11
-1.05891e-09
-2.57113e-10
4.2128e-11
-2.26676e-10
-3.61349e-10
-1.20524e-10
-1.4708e-10
-3.09943e-10
-6.31153e-11
-7.91252e-11
-4.31254e-11
-1.68915e-12
-1.19991e-10
-4.23246e-10
1.12246e-10
-8.7716e-12
-1.58346e-10
4.08222e-10
8.383e-11
4.09762e-11
7.11082e-10
7.28032e-11
2.22424e-10
3.15848e-10
1.13993e-10
1.82283e-10
-2.55708e-10
-1.15041e-10
6.55368e-12
-2.93828e-10
-1.93817e-10
-9.98615e-11
-2.82716e-10
-2.42235e-10
-4.25322e-11
-2.20439e-10
-5.47242e-10
-6.45658e-11
-8.11375e-11
-7.38289e-10
-4.00728e-11
-2.24577e-11
-4.86957e-10
1.36792e-11
-7.99879e-11
-1.42316e-10
4.41673e-11
-3.00557e-11
-1.25417e-10
4.02212e-10
4.70024e-11
9.32029e-11
5.52608e-10
1.03657e-10
1.00172e-10
-2.99156e-10
-1.03349e-10
-1.63339e-11
-3.68502e-10
-1.88731e-10
-2.02929e-11
-8.20239e-10
-6.68916e-10
-8.76431e-11
-1.57411e-09
-2.21443e-09
-5.66737e-10
-1.01872e-09
-2.52338e-09
-6.02915e-10
-5.41674e-11
-1.06811e-09
-7.21239e-11
-3.13696e-11
-1.78767e-10
1.04786e-11
-5.47009e-11
-1.47861e-10
4.95993e-11
-4.42123e-11
-6.4212e-11
1.815e-10
7.04035e-11
1.1544e-10
-3.76153e-10
-4.31272e-11
5.19894e-12
-5.47276e-10
-1.02308e-10
-3.07253e-11
-3.26892e-09
-7.10022e-10
-4.68203e-10
-2.69396e-09
-1.44697e-09
-1.06191e-09
-1.15555e-09
-1.88563e-09
-1.04586e-09
-1.90006e-10
-6.93452e-10
-9.59359e-11
-4.34082e-11
-2.66173e-10
-5.53682e-11
-1.53632e-11
-1.56391e-10
-1.4257e-11
-3.14731e-11
-7.53928e-11
2.2892e-11
-5.43046e-11
4.05039e-11
-2.0797e-10
-9.49212e-11
1.92754e-11
-3.33115e-10
-5.65351e-11
-2.20368e-11
-2.79186e-09
-1.5852e-10
-5.64585e-10
-2.96137e-09
-3.23301e-10
-8.00276e-10
-2.28333e-09
-9.72508e-10
-3.34497e-10
-5.14507e-10
-5.26905e-10
-2.77457e-10
-8.51003e-11
-1.51325e-10
-1.34768e-10
-9.83393e-13
-1.17038e-10
-6.71899e-11
5.84426e-12
-6.21547e-11
-1.44803e-11
-5.05854e-11
1.59926e-11
-1.05136e-09
1.29097e-10
-2.47071e-10
-4.3546e-10
6.74107e-11
-3.81263e-11
-4.27056e-10
-1.84557e-10
-2.28752e-12
-5.32932e-10
-3.77707e-10
-2.01448e-11
-9.30739e-10
-5.07477e-10
-1.59196e-10
-9.68439e-10
-8.39889e-10
-3.92355e-10
-2.07394e-10
-7.86361e-10
-4.8193e-10
1.47546e-11
-1.50707e-10
-2.71528e-10
3.6103e-11
-4.64312e-11
-6.58626e-11
1.12546e-11
-3.65713e-11
7.48904e-08
-3.19972e-08
-8.63124e-08
6.5022e-08
4.79623e-09
-9.60185e-08
4.14999e-08
2.69887e-08
-1.01799e-07
1.13606e-08
4.52075e-08
-1.17263e-07
-2.15729e-08
6.01962e-08
-1.43232e-07
-5.13826e-08
6.54381e-08
-1.82253e-07
-3.6111e-08
1.79537e-08
-2.35165e-07
9.41553e-08
-1.22486e-07
-2.68015e-07
1.92186e-07
-1.16793e-07
-2.32142e-07
2.47502e-07
-2.44251e-07
1.22065e-07
-9.41063e-08
-8.71376e-08
1.33854e-07
-6.25659e-09
-1.13427e-07
1.22224e-07
5.35769e-08
-1.34525e-07
9.16814e-08
1.06963e-07
-1.61217e-07
2.48884e-08
1.73129e-07
-2.00033e-07
-7.74741e-08
2.33138e-07
-2.71795e-07
-1.64096e-07
1.29679e-07
-3.33836e-07
-1.72536e-09
-4.02764e-07
-2.39636e-07
2.3082e-07
-5.06946e-07
-8.32291e-08
5.83411e-07
-3.08189e-07
1.68697e-07
-1.62604e-07
-1.10264e-08
1.34394e-07
3.95419e-08
-9.23073e-08
1.082e-07
1.09872e-07
-1.42294e-07
6.94248e-08
2.00515e-07
-1.94196e-07
-3.6789e-08
3.64248e-07
-2.75019e-07
-2.62604e-07
5.48928e-07
-3.65891e-07
-5.27251e-07
3.03328e-07
-2.18914e-07
-4.50406e-07
-8.62744e-07
2.89507e-07
-6.25246e-08
-1.25045e-06
5.80732e-07
6.81687e-07
-2.00656e-07
2.98134e-07
-3.64873e-07
1.86721e-07
2.82241e-07
4.67744e-08
1.69008e-08
2.22836e-07
2.10636e-07
-1.1306e-07
1.85294e-07
3.47086e-07
-2.29782e-07
1.26872e-07
5.97623e-07
-3.59692e-07
-7.67614e-08
8.81724e-07
-3.34615e-07
-4.01848e-07
5.19432e-07
8.94179e-08
-5.85398e-07
-9.45463e-07
6.71537e-07
-4.14081e-07
-1.40928e-06
6.27358e-07
5.53068e-07
-1.22945e-07
4.4e-07
-7.04593e-07
3.04806e-07
4.78166e-07
-2.63754e-09
1.26823e-07
4.83979e-07
2.54204e-07
1.35071e-08
6.05828e-07
3.88058e-07
-1.17491e-07
8.2809e-07
6.71599e-07
-2.69606e-07
1.00472e-06
9.5417e-07
-2.10667e-07
9.8432e-07
7.08512e-07
1.46836e-07
4.20223e-07
-3.45726e-08
2.16618e-07
-3.16415e-07
2.18427e-07
-1.08111e-06
9.81079e-07
-1.15405e-06
2.68517e-07
-6.9617e-07
-5.83114e-08
3.69637e-07
-2.4115e-07
-1.57345e-07
6.57339e-07
-1.0324e-07
-2.2149e-07
1.08272e-06
-5.98703e-09
-3.09881e-07
1.60224e-06
3.34729e-07
-3.35948e-07
2.23813e-06
6.33968e-07
-1.98812e-07
2.69972e-06
6.0907e-07
-1.37331e-08
2.13865e-06
1.12017e-06
-8.872e-07
8.3715e-07
1.94314e-06
-3.39257e-06
2.32995e-06
-3.64269e-06
3.62652e-07
-4.91471e-07
-7.51713e-07
5.40998e-07
-3.97731e-07
-8.28197e-07
1.03064e-06
-5.3167e-07
-8.8567e-07
1.66221e-06
-5.2667e-07
-9.11311e-07
2.26102e-06
-2.05187e-07
-7.34979e-07
2.89591e-06
9.27152e-08
-7.26466e-07
2.80022e-06
6.94404e-07
-1.43671e-06
2.23016e-06
1.06789e-06
-2.69763e-06
1.32301e-06
1.46726e-06
-3.87735e-06
1.15854e-06
-3.7285e-06
-1.29223e-08
-9.33075e-08
-1.52193e-06
4.48761e-07
-7.75472e-08
-1.57507e-06
8.32408e-07
-8.09066e-08
-1.48808e-06
8.59896e-07
-7.06728e-08
-9.67533e-07
7.91366e-07
-2.81879e-08
-7.44295e-07
5.93834e-07
5.06703e-09
-7.85593e-07
4.37079e-07
7.87458e-08
-6.86555e-07
4.45592e-07
2.62794e-08
-8.97438e-07
1.91694e-07
6.72027e-08
-8.52272e-07
9.55954e-08
-3.66689e-07
-6.47124e-08
2.12313e-10
-3.79154e-07
2.49628e-09
1.34628e-09
-3.35775e-07
1.59295e-08
7.48374e-09
-2.24998e-07
8.68521e-09
3.20255e-09
-7.71977e-08
2.17072e-09
-1.50084e-10
-2.65321e-08
5.54936e-09
1.24586e-10
-1.04491e-08
1.99888e-08
1.98211e-09
-1.41816e-09
5.04157e-09
6.80114e-09
-3.79326e-08
-1.64409e-08
1.86183e-08
-7.72614e-08
2.2453e-08
-4.01602e-08
-7.7342e-09
9.499e-10
-4.51173e-09
-6.16146e-09
9.08354e-10
-1.46245e-09
-1.95569e-09
6.47722e-10
-3.73988e-11
-4.55716e-10
-2.02549e-10
3.23865e-10
-1.55903e-10
1.12657e-11
-1.22636e-10
-2.54846e-10
-3.34471e-10
3.5241e-11
-4.78911e-10
-5.08384e-11
-2.31399e-10
-3.15633e-09
1.97362e-09
-9.59225e-10
-8.58219e-09
3.10603e-09
-3.49441e-09
2.9788e-09
-5.05437e-09
-8.34023e-10
8.97738e-11
7.41962e-10
-5.12289e-10
-5.20837e-12
5.69863e-10
-1.44033e-10
-1.08094e-10
3.59308e-10
-8.55816e-11
-4.34702e-10
1.02981e-10
-6.69572e-11
-7.69808e-10
4.84518e-10
8.58541e-11
-1.20335e-09
6.00267e-10
-1.77151e-12
-1.98143e-10
1.83222e-11
-4.6157e-10
7.1826e-10
-2.45814e-10
-2.01608e-09
1.90807e-09
-6.48563e-10
2.93361e-09
-5.55674e-10
-3.81478e-11
7.27242e-12
3.28642e-11
-1.11858e-11
-4.90477e-12
9.729e-12
-1.05613e-10
-2.96507e-10
2.1803e-11
-1.96701e-10
-1.39225e-09
3.62385e-10
-1.41768e-10
-1.58124e-09
7.33969e-10
2.25699e-12
-1.39082e-09
6.29181e-10
3.55352e-11
-3.83727e-10
4.46407e-10
-1.70258e-11
1.2663e-09
1.3432e-11
-6.38437e-10
2.16933e-09
1.06076e-10
1.77866e-09
3.7469e-10
-2.13173e-11
2.94096e-11
-2.29816e-13
-2.65662e-10
-1.09339e-10
2.46203e-12
-4.87808e-10
-1.11912e-09
1.46208e-10
-4.69043e-10
-1.33252e-09
6.09401e-10
-2.57257e-10
-1.08124e-09
4.58422e-10
2.79501e-11
-6.5496e-10
7.56717e-10
4.16883e-10
-6.74442e-10
7.9347e-10
1.38138e-10
1.0791e-09
2.54317e-10
-6.06628e-12
1.27917e-09
1.65351e-10
-3.64334e-11
3.56771e-10
-1.64588e-10
2.17583e-11
-9.08294e-12
-3.83135e-10
-8.02407e-10
3.69716e-11
-4.22522e-10
-1.07081e-09
4.21098e-10
-4.37395e-10
-7.12037e-10
-1.14962e-10
-1.06423e-10
-8.0624e-11
-5.16359e-11
1.18396e-11
-1.05185e-10
9.10928e-11
2.74549e-10
-4.54538e-10
3.85126e-10
1.58179e-10
-7.41992e-11
1.06097e-09
1.06785e-10
2.35267e-10
7.19499e-10
2.59037e-10
3.1593e-10
-5.16864e-10
-1.9813e-10
-4.73868e-13
-4.51673e-10
-5.64504e-10
3.05755e-10
-5.23199e-10
-3.58414e-10
-1.36659e-10
-8.19099e-11
-1.41857e-10
-2.88511e-10
-3.40985e-11
-1.26389e-10
-9.79565e-12
-3.77965e-12
-9.11565e-11
3.5687e-11
5.65971e-11
-1.6037e-10
1.22608e-10
1.83375e-10
-1.5088e-10
1.11781e-09
5.56822e-11
6.09455e-10
5.30508e-10
2.55484e-10
2.04848e-10
-4.36823e-10
-4.76241e-10
3.54027e-11
-3.13909e-10
-1.21237e-10
1.88388e-11
-2.98274e-10
-1.21066e-10
-3.2954e-10
-3.29604e-10
-1.55558e-10
-6.65147e-11
-2.8264e-10
-1.57469e-09
2.84704e-11
-7.89e-11
-6.08033e-10
8.23175e-11
-1.39972e-10
-1.22293e-10
5.91794e-11
-1.09518e-10
-2.02537e-10
4.55216e-10
5.93065e-11
5.47192e-10
7.24412e-10
2.15146e-10
1.72469e-10
-1.95921e-10
-1.8882e-10
3.72574e-11
-3.04917e-10
-3.34354e-11
-1.32538e-10
-5.14131e-10
-4.97688e-11
-8.46795e-11
-2.17052e-09
-9.2756e-10
-5.78867e-10
-8.38086e-10
-1.78367e-09
-5.09195e-10
-1.62539e-10
-4.21809e-10
-1.35851e-10
-1.2898e-10
-1.59626e-10
1.69112e-11
-2.66846e-10
-1.15698e-10
7.86805e-11
-8.76637e-11
3.65743e-11
3.53243e-10
1.01631e-10
2.01254e-10
-1.27552e-10
-1.95712e-11
1.73355e-11
-1.83543e-10
2.06566e-11
-2.2035e-11
-2.5472e-09
4.15144e-11
-1.67361e-10
-3.01902e-09
-2.27381e-10
-1.21557e-09
-1.69038e-09
-3.05595e-10
-1.93484e-09
-2.99061e-10
-1.70053e-10
-6.9032e-10
-1.63787e-10
-2.05337e-10
-1.65838e-10
-1.01222e-10
-1.6438e-10
-3.63647e-11
-6.26811e-11
-2.18088e-11
3.67435e-11
2.57825e-11
5.96998e-11
-2.0439e-10
-4.53918e-12
7.36495e-12
-8.59647e-10
1.03616e-10
-1.14682e-11
-1.36208e-09
2.01006e-10
-1.70132e-10
-4.18349e-10
2.27958e-11
-3.78419e-10
-3.90903e-10
-1.4012e-10
-3.04e-10
-4.06719e-10
-1.76487e-10
-3.73013e-10
-2.41844e-10
-1.68865e-10
-6.02976e-10
-5.21142e-11
-1.83989e-10
-3.29802e-10
-4.05926e-11
-1.36063e-11
-4.01548e-11
-4.84988e-12
6.71458e-13
-6.97768e-10
1.36635e-11
1.63969e-11
-1.91165e-09
-9.49105e-12
2.11637e-10
-1.73004e-09
-1.72579e-11
4.56534e-10
-1.58025e-09
-1.52268e-10
2.6773e-10
-5.45288e-10
-2.50586e-10
7.13449e-11
-1.45987e-09
-4.581e-10
-2.70026e-10
-1.73436e-09
-3.26222e-09
-1.39134e-09
-1.66515e-10
-5.8755e-09
-1.16541e-09
-2.14238e-11
-2.34049e-10
2.29415e-11
-6.55421e-12
-4.14697e-13
6.40221e-08
-8.70205e-08
-1.70231e-08
5.38331e-08
-4.5584e-08
-4.02459e-08
2.95996e-08
-1.35732e-08
-6.39925e-08
-5.61587e-10
7.03988e-09
-9.41415e-08
-3.82996e-08
1.9401e-08
-1.24895e-07
-6.86615e-08
1.08374e-09
-1.52976e-07
-3.07962e-08
-1.06628e-07
-1.66403e-07
1.26825e-07
-2.6558e-07
-1.60056e-07
2.06285e-07
-1.74858e-07
-1.36745e-07
2.22373e-07
-2.60339e-07
1.04065e-07
-1.98314e-07
-1.61477e-08
1.16444e-07
-1.09938e-07
-6.14534e-08
1.04537e-07
-3.62494e-08
-9.99428e-08
6.60752e-08
2.82702e-08
-1.43985e-07
-1.13015e-08
8.56167e-08
-1.88872e-07
-1.28415e-07
7.62331e-08
-2.29831e-07
-1.72509e-07
-1.88033e-07
-2.08337e-07
8.07685e-08
-7.02726e-07
-5.5768e-08
3.12572e-07
-4.95279e-07
5.38851e-09
5.93085e-07
-3.66329e-07
1.20675e-07
-2.45153e-07
1.67641e-08
9.76674e-08
-1.17797e-07
-6.14397e-08
6.96832e-08
-2.46327e-08
-1.25927e-07
9.10819e-09
8.15772e-08
-1.86929e-07
-1.48654e-07
2.26376e-07
-2.58016e-07
-4.32253e-07
2.76258e-07
-2.82317e-07
-6.0315e-07
-2.07304e-07
-2.87443e-08
-2.66935e-07
-1.23568e-06
4.86243e-07
1.61001e-07
-8.66051e-07
5.23595e-07
9.69276e-07
-4.15855e-07
1.99485e-07
-2.52553e-07
1.29902e-07
1.55697e-07
-6.4626e-08
7.51637e-09
1.10585e-07
1.3802e-08
-1.06383e-07
4.28279e-08
1.57993e-07
-2.3844e-07
-1.22178e-07
3.93893e-07
-3.62203e-07
-3.71636e-07
5.07356e-07
-3.16254e-07
-4.85029e-07
-1.38983e-07
1.34485e-07
-3.38044e-07
-1.39614e-06
6.85016e-07
-2.2014e-07
-7.92266e-07
4.35808e-07
1.16878e-06
-5.42629e-07
3.46755e-07
-3.21093e-07
2.12885e-07
3.12034e-07
6.20821e-08
3.48352e-08
2.4272e-07
1.86797e-07
-9.01735e-08
2.94183e-07
2.54071e-07
-2.65033e-07
3.80402e-07
4.67534e-07
-4.29467e-07
4.74111e-07
5.88222e-07
-3.8524e-07
5.28168e-07
3.60401e-08
-8.22429e-08
1.891e-07
-7.00139e-07
-1.40319e-07
-3.63201e-07
-2.12176e-07
-1.1089e-06
1.15732e-06
-1.50576e-06
3.26486e-07
-4.63023e-07
1.54624e-07
3.5583e-07
-1.26791e-07
2.16323e-09
4.84525e-07
-8.60029e-08
-7.74313e-08
7.7569e-07
-1.14578e-07
-2.32397e-07
1.18527e-06
1.22157e-07
-4.00156e-07
1.59115e-06
4.36886e-07
-4.53347e-07
1.72078e-06
3.90005e-07
-4.97336e-07
8.72955e-07
6.10617e-07
-1.47935e-06
-9.81842e-08
3.54773e-07
-3.09248e-06
6.75274e-07
-3.25883e-06
2.25187e-07
-4.78709e-07
-4.76111e-07
1.54823e-07
-3.20461e-07
-5.64162e-07
3.91255e-07
-5.50981e-07
-6.57143e-07
1.02304e-06
-8.91366e-07
-7.66336e-07
1.73987e-06
-5.94735e-07
-7.34918e-07
2.35521e-06
-9.36833e-08
-9.08627e-07
2.19617e-06
3.38387e-07
-1.74839e-06
1.42489e-06
7.69347e-07
-3.20208e-06
4.80548e-07
6.21054e-07
-4.91946e-06
2.93578e-07
-5.00311e-06
4.77196e-07
-6.70924e-07
-1.48686e-06
8.12981e-07
-5.07903e-07
-1.54011e-06
1.08108e-06
-4.88703e-07
-1.60596e-06
1.12092e-06
-3.28125e-07
-1.43694e-06
9.07915e-07
-1.35179e-07
-1.29008e-06
6.88039e-07
-5.71322e-08
-1.24676e-06
4.8322e-07
-4.52021e-09
-1.14992e-06
3.62707e-07
3.30796e-08
-1.33565e-06
5.9601e-08
6.09098e-08
-1.15054e-06
3.75533e-08
-8.66086e-07
-4.09439e-08
-1.08672e-07
-8.01656e-07
1.76956e-07
-5.64703e-08
-8.09754e-07
2.10235e-07
-1.19075e-08
-6.25141e-07
6.66961e-08
-2.3026e-09
-4.32221e-07
2.0683e-08
1.19435e-09
-1.47578e-07
2.10748e-09
-8.04463e-10
-4.84715e-08
1.78167e-10
-4.02815e-10
-4.06771e-09
-5.78099e-09
6.31806e-10
-1.54972e-09
-1.64209e-08
-6.52258e-10
-7.65572e-10
-5.61615e-10
-4.20545e-10
-3.50919e-09
-7.34176e-10
-1.16931e-07
-5.57761e-10
-5.24243e-10
-6.04251e-08
-1.98181e-10
-3.14896e-10
-1.20206e-08
-1.36443e-09
-6.34556e-11
-7.75306e-10
-1.43967e-10
-4.62459e-10
1.86165e-10
1.26359e-10
-1.5286e-09
1.85099e-10
2.46145e-10
-1.38636e-09
1.67735e-10
1.29336e-11
-5.44251e-10
1.66255e-10
-3.01534e-09
-4.83456e-10
1.6604e-11
-1.35467e-08
1.62164e-09
-8.98541e-11
-1.66658e-11
1.83727e-12
-5.83645e-11
1.14217e-11
-1.24822e-12
-3.28347e-11
3.45268e-13
5.5035e-12
9.0385e-12
-1.45125e-11
1.68891e-11
3.87365e-10
-9.72216e-10
1.03379e-10
9.41424e-10
-1.74127e-09
1.85303e-10
1.10369e-09
-1.80764e-09
1.15935e-10
1.35847e-09
-4.28676e-10
5.13787e-11
2.43551e-09
-3.62289e-10
3.05837e-10
-1.16858e-08
3.03629e-10
-2.65167e-11
1.70248e-11
9.85521e-13
-1.34659e-11
8.23089e-12
-2.08523e-12
2.7031e-12
5.12151e-12
-7.93056e-13
2.80663e-11
-3.57049e-11
9.90205e-13
4.97278e-10
-1.12895e-09
6.68706e-11
7.01121e-10
-1.22748e-09
1.96821e-12
6.8606e-10
-1.15204e-09
-3.08135e-11
9.91733e-10
-2.59769e-10
4.86164e-11
1.87205e-09
-3.70604e-11
2.89487e-10
-3.93877e-09
9.31673e-11
-1.64206e-11
4.20363e-11
-8.54825e-12
-1.27176e-11
8.04224e-12
-2.36752e-12
-1.32738e-11
2.02898e-11
2.91527e-13
1.92866e-10
-4.62077e-10
5.59387e-11
2.53951e-10
-4.98132e-10
-6.11789e-11
2.56597e-10
-7.50833e-11
-2.06313e-10
2.29953e-10
-1.47067e-10
6.88178e-12
4.84672e-10
-4.24525e-11
4.74034e-11
3.26504e-10
8.18927e-11
5.09737e-11
-4.90292e-11
-1.25682e-10
-6.21283e-12
1.12323e-11
-7.51863e-12
5.77079e-13
2.10017e-11
-6.00295e-13
2.28866e-11
-9.95343e-11
1.61269e-11
2.84502e-11
-7.25692e-10
3.87258e-11
-1.26851e-11
-5.5547e-12
-2.14472e-10
8.97068e-12
1.20845e-11
-2.47303e-11
2.24431e-10
-3.80469e-11
4.9376e-11
5.77029e-10
-7.64223e-11
1.96273e-09
1.72111e-10
3.14839e-10
1.11649e-09
5.59903e-10
7.8885e-11
-3.59279e-12
9.24378e-12
-3.99044e-12
-2.38726e-11
5.0903e-11
6.45971e-12
-2.65627e-10
-4.00253e-10
1.22788e-10
-3.05621e-11
-8.10974e-11
-5.05763e-10
-2.6927e-11
-2.72945e-12
-2.2359e-11
4.77827e-12
-1.60634e-11
2.62345e-11
6.67956e-11
-4.98652e-11
6.54091e-11
3.25905e-10
-1.42642e-10
1.29355e-09
9.24504e-11
3.43096e-10
8.30688e-10
2.74858e-10
5.05162e-10
-1.30712e-11
1.84058e-11
-1.68852e-12
-5.6674e-11
-2.18957e-11
1.20065e-10
-3.9861e-10
-3.16989e-11
-1.0095e-10
-1.43297e-10
-1.16358e-11
-3.01862e-11
-7.90686e-11
-1.63867e-10
3.78321e-11
-4.10084e-11
-2.30745e-11
4.42694e-11
-2.98795e-11
-5.45958e-11
6.00773e-11
-8.22176e-11
-3.01607e-11
1.8047e-10
5.77327e-11
3.83006e-10
8.65257e-10
2.21701e-10
2.10096e-10
-5.26715e-11
2.81261e-11
2.09177e-11
-2.25406e-10
1.10387e-10
1.75925e-10
5.74064e-11
1.67894e-11
-2.58391e-10
-1.66957e-09
8.59111e-11
-1.94859e-10
-2.51961e-09
-7.93035e-10
-1.3541e-10
-3.22579e-10
-1.24316e-09
-1.32536e-11
-1.73042e-10
-2.24449e-10
2.9245e-11
-1.90333e-10
-4.76211e-11
8.91694e-11
-5.29464e-11
6.5154e-11
3.57871e-10
1.5307e-10
1.90091e-10
-7.48557e-11
5.57735e-11
1.74898e-10
-2.99317e-11
2.81974e-12
1.17692e-11
-3.03225e-10
9.46852e-11
-9.49019e-11
-2.94882e-09
3.46902e-10
-7.94628e-10
-3.86446e-09
-2.32232e-11
-2.8669e-09
-1.38813e-09
-4.2489e-10
-3.12009e-09
-4.02374e-10
-3.33516e-10
-1.07637e-09
-1.13508e-10
-2.50332e-10
-1.37695e-10
-8.19219e-11
1.30747e-11
5.1268e-11
5.83706e-11
8.87605e-11
-4.25107e-11
1.29327e-11
3.71252e-11
-5.97763e-11
2.17104e-11
-1.40307e-13
-1.37647e-10
3.4279e-11
-6.1787e-11
-1.91736e-10
4.8365e-11
-2.2167e-10
-2.12663e-10
2.97168e-11
-5.68827e-10
-6.71324e-10
-4.98514e-11
-6.77161e-10
-1.25827e-09
-1.1818e-09
-2.03209e-09
-1.32702e-10
-2.6789e-09
-1.74979e-09
-6.51528e-11
1.63527e-11
-6.61538e-11
3.7893e-11
-6.12362e-12
-5.2666e-11
2.83318e-11
7.1529e-11
-5.40812e-11
5.18251e-13
2.78451e-11
-5.23341e-11
-2.78398e-11
2.68368e-11
-7.33674e-11
-6.45937e-11
2.32254e-11
-1.77417e-10
-1.44177e-10
2.0187e-11
-4.8582e-10
-2.72423e-10
2.65265e-11
-2.91668e-09
-3.60306e-09
-1.35749e-09
-4.21544e-10
-7.29016e-09
-3.61345e-09
-9.30405e-11
-4.9656e-10
1.47962e-10
-8.65513e-11
7.58309e-11
4.69339e-08
-7.04808e-08
4.26485e-08
4.00905e-08
-4.3976e-08
1.05732e-08
1.90973e-08
-1.64192e-08
-2.65803e-08
-5.88834e-09
4.36413e-10
-6.95926e-08
-3.54876e-08
8.17993e-09
-1.03476e-07
-5.40824e-08
-8.90241e-09
-1.25479e-07
-1.33277e-08
-8.47479e-08
-1.2241e-07
1.12491e-07
-1.79151e-07
-1.06724e-07
1.55254e-07
-7.44317e-08
-1.05077e-07
1.75998e-07
-2.81083e-07
7.71765e-08
-1.78647e-07
7.15665e-08
8.95692e-08
-1.27913e-07
1.00909e-08
8.63172e-08
-6.03546e-08
-5.27557e-08
5.83435e-08
-1.31647e-09
-1.14259e-07
2.68233e-09
4.03524e-08
-1.65384e-07
-5.85933e-08
1.52425e-08
-1.927e-07
-3.1579e-08
-1.62457e-07
-1.57643e-07
1.87848e-07
-3.94102e-07
-6.02438e-08
2.69935e-07
-7.35957e-08
-7.75342e-08
4.86592e-07
-4.06989e-07
9.05073e-08
-2.2995e-07
6.13104e-08
8.14304e-08
-1.74886e-07
-5.38993e-09
6.69411e-08
-8.93751e-08
-8.2417e-08
1.64235e-08
1.74692e-08
-1.55197e-07
-9.63646e-08
1.08278e-07
-2.13153e-07
-2.7071e-07
1.15821e-07
-2.0855e-07
-2.94368e-07
-1.53513e-07
-1.40285e-08
4.40623e-08
-5.67393e-07
3.21116e-07
2.97336e-07
7.71061e-09
1.89015e-07
9.16989e-07
-5.48916e-07
1.61903e-07
-2.08465e-07
6.37988e-08
1.31455e-07
-1.48753e-07
1.18313e-08
9.25189e-08
-7.78708e-08
-7.8951e-08
1.32838e-08
5.64564e-08
-1.98192e-07
-1.54742e-07
2.06004e-07
-2.91904e-07
-3.60337e-07
2.51871e-07
-2.46707e-07
-3.5094e-07
-1.27214e-07
9.87993e-08
-7.83213e-08
-6.35294e-07
4.80269e-07
5.63954e-08
1.92091e-07
1.1671e-07
1.26955e-06
-8.38796e-07
2.59507e-07
-1.70564e-07
2.67942e-08
2.18263e-07
-4.37128e-08
-2.89607e-08
1.35941e-07
5.80471e-08
-1.43769e-07
8.21544e-08
1.56465e-07
-3.11255e-07
3.49038e-08
2.60159e-07
-4.3637e-07
1.75537e-08
2.89294e-07
-4.05314e-07
1.58598e-07
-1.72135e-07
-1.78369e-07
9.36149e-08
-5.29788e-07
-1.80841e-07
-2.27107e-07
4.30725e-07
-1.02681e-06
1.19914e-06
-1.66246e-06
3.76465e-07
-1.89365e-07
7.26909e-08
3.5952e-07
-1.71349e-08
-7.4704e-09
3.0971e-07
7.43548e-08
-4.39358e-08
3.59093e-07
9.22993e-08
-2.17615e-07
5.26569e-07
8.62761e-08
-3.93749e-07
7.20239e-07
1.50603e-07
-5.08327e-07
7.06496e-07
4.996e-09
-6.60727e-07
2.08393e-07
-1.27249e-07
-1.3838e-06
-3.35173e-07
3.75036e-07
-2.49322e-06
4.1045e-07
-2.80532e-06
2.61458e-07
-3.89666e-07
-1.86326e-07
1.2094e-07
-2.39084e-07
-2.01695e-07
8.65305e-08
-2.48978e-07
-2.99405e-07
3.59772e-07
-4.61409e-07
-4.8587e-07
8.61266e-07
-5.90369e-07
-5.59767e-07
1.25178e-06
-3.55591e-07
-7.94783e-07
9.90293e-07
-9.6468e-08
-1.47969e-06
2.1985e-07
-1.81438e-07
-2.6597e-06
-2.2741e-07
-5.30407e-07
-3.94937e-06
-9.41543e-07
-4.26927e-06
5.08318e-07
-1.1907e-06
-9.29148e-07
6.71669e-07
-9.70659e-07
-9.26574e-07
8.25166e-07
-8.76486e-07
-1.08703e-06
9.90688e-07
-7.84561e-07
-1.17731e-06
9.21162e-07
-4.73089e-07
-1.27189e-06
7.19416e-07
-2.0818e-07
-1.4695e-06
4.45837e-07
-6.47378e-08
-1.60884e-06
7.4655e-08
-1.98836e-08
-2.10127e-06
-7.43134e-08
-1.26978e-08
-2.29083e-06
-3.51648e-08
-2.43177e-06
3.1053e-07
-6.62493e-07
-6.62946e-07
5.02481e-07
-4.19852e-07
-8.07792e-07
5.29065e-07
-1.84085e-07
-8.59041e-07
2.91771e-07
-2.4196e-08
-7.99102e-07
9.67944e-08
-2.02263e-09
-5.5816e-07
1.88503e-08
1.4573e-09
-1.81369e-07
2.36011e-09
2.68127e-11
-5.28017e-08
1.32712e-10
-1.40789e-11
-1.94756e-08
-2.70148e-10
-5.26929e-10
-1.25494e-08
-1.97094e-09
-3.45003e-08
-6.72126e-09
-2.75063e-10
-3.58917e-07
8.12838e-09
-6.32501e-11
-4.95036e-07
6.36345e-09
-1.92008e-11
-1.9432e-07
-3.25725e-11
-4.20636e-11
-1.85338e-08
-8.93434e-10
-3.11679e-11
-9.69293e-10
1.9723e-10
-7.71994e-11
4.80202e-10
8.04732e-11
-1.47236e-10
2.23287e-10
9.83845e-11
-2.37625e-10
1.62634e-10
1.35958e-11
-7.23112e-10
1.48686e-10
-1.44724e-09
2.99241e-10
-1.37251e-11
-5.07571e-11
-2.14999e-10
-9.43228e-12
-6.82382e-12
-6.00422e-11
-1.03185e-11
1.90639e-12
-1.62437e-11
-3.40147e-11
2.13347e-12
-4.86537e-12
4.82191e-12
1.66571e-11
9.31043e-13
2.00738e-10
-1.72793e-10
-7.51652e-12
2.56255e-10
-6.42179e-11
1.35141e-11
9.9176e-10
-3.24522e-10
5.77829e-11
1.68605e-09
-1.23034e-09
5.60957e-10
-7.25716e-10
4.09149e-11
-2.00429e-11
3.03489e-11
-6.69976e-12
-7.23257e-12
5.13347e-12
-1.50538e-11
-6.2146e-12
4.59968e-12
-6.11516e-12
-8.37358e-12
8.62178e-12
-4.98869e-12
1.22751e-10
6.79761e-12
-1.61007e-11
1.72751e-10
-1.44509e-10
-4.35303e-11
1.02155e-10
-1.99537e-11
-2.25895e-11
3.90214e-10
3.02359e-11
8.40752e-12
2.21126e-10
1.79124e-12
1.13242e-11
6.79152e-11
-2.52106e-11
-5.64623e-12
4.45412e-11
-9.96817e-12
-4.26284e-12
5.16545e-12
-5.78009e-12
-3.50536e-12
5.32378e-12
-2.81425e-12
4.58529e-11
1.23822e-11
1.26715e-12
3.44346e-10
-1.87654e-10
9.95652e-13
2.36425e-11
5.0574e-12
-1.00774e-10
-9.17685e-13
2.65783e-11
-2.36659e-11
-7.38027e-12
-1.02562e-11
4.28461e-11
-4.29136e-11
8.24152e-11
3.96289e-12
-3.43243e-11
-1.54041e-11
-2.18409e-12
1.03362e-11
-1.19393e-12
-3.82809e-12
4.95506e-12
-1.00768e-12
-9.14677e-12
2.05475e-11
4.22478e-12
9.85367e-11
-3.08403e-10
7.65209e-11
-2.1103e-11
1.69973e-11
-1.92953e-10
-1.699e-13
4.48597e-11
-1.98015e-11
-1.86497e-11
5.57408e-11
2.82124e-11
-3.81315e-11
2.00053e-10
1.62918e-09
-6.5273e-10
1.42387e-09
9.41651e-10
-4.78849e-11
-2.90887e-12
-8.43273e-13
5.76527e-12
-6.75074e-12
-8.99942e-12
1.3122e-11
4.08424e-12
-2.01267e-10
1.6104e-11
1.25227e-10
-3.79335e-11
-8.319e-12
-4.73715e-10
-3.94626e-11
1.77169e-11
-4.30494e-11
-2.08167e-11
2.37537e-11
2.44651e-11
2.37955e-11
8.58791e-12
6.53861e-11
5.2565e-10
1.65857e-11
1.17854e-09
6.35854e-10
6.00351e-10
2.33712e-09
8.94634e-10
1.04089e-09
-4.94814e-13
5.40916e-12
-2.9846e-12
-1.65919e-10
1.42914e-10
3.97161e-11
-2.11118e-10
1.29153e-10
1.72098e-11
-7.82315e-11
4.15316e-12
-3.54096e-11
-7.35289e-11
2.25231e-12
2.97733e-11
-4.93978e-11
-2.06896e-11
6.20182e-11
-3.08251e-11
-2.23695e-11
7.15852e-11
-3.78269e-11
-6.69096e-12
2.13891e-10
8.31587e-14
1.55136e-10
1.27445e-09
5.9187e-10
1.22503e-09
1.17082e-11
1.20477e-11
5.56459e-13
-7.10955e-11
4.00475e-10
2.94384e-10
-6.76112e-10
2.3917e-10
-2.41775e-10
-9.96171e-10
1.36068e-10
-9.24426e-11
-1.38677e-09
1.52638e-10
-1.34786e-11
-5.10994e-10
-9.63725e-10
4.96106e-10
-1.7096e-10
-1.02607e-09
7.71161e-10
-1.83065e-10
-2.06276e-10
2.95983e-10
-7.1225e-10
3.73354e-12
1.024e-09
7.52582e-11
1.82258e-09
3.59259e-11
1.18639e-10
7.05358e-11
-2.30735e-10
2.98783e-10
4.30633e-10
6.84295e-12
4.01357e-11
-1.54612e-10
-9.63842e-10
2.23108e-10
-2.37096e-10
-4.3676e-09
6.35445e-10
-2.36924e-09
-4.08009e-09
-1.24346e-10
-4.54496e-09
-1.31048e-09
-7.63435e-10
-3.2811e-09
-4.15e-10
-7.86113e-10
-4.71408e-10
-1.71527e-10
-3.13509e-12
-1.30873e-11
-4.73089e-12
4.84899e-11
-3.5884e-11
2.87226e-11
1.58206e-10
-4.73827e-11
5.0749e-11
1.52894e-10
-7.01289e-11
4.24351e-11
-6.78918e-11
-3.24168e-10
8.0762e-11
-7.9375e-11
-3.60454e-10
7.04907e-11
-2.84305e-10
-4.94324e-10
2.58857e-12
-8.74218e-10
-2.23009e-09
-1.42684e-09
-2.34148e-09
-2.39071e-10
-4.80139e-09
-3.33881e-09
-1.08846e-11
2.60207e-11
-3.35538e-10
8.37526e-12
-4.21559e-11
-1.97299e-11
5.04253e-11
2.50148e-11
-2.54364e-11
2.85392e-11
2.48788e-11
-2.51999e-11
-2.1068e-11
2.47839e-11
-2.96519e-11
-4.31052e-11
2.26961e-11
-3.90317e-11
-1.28415e-10
2.56977e-11
-1.0349e-10
-3.16986e-10
3.66608e-11
-2.2288e-09
-2.92038e-09
-6.73823e-10
-4.42944e-10
-7.4637e-09
-5.83878e-09
-5.76349e-11
-2.14026e-09
1.24257e-10
-1.37651e-10
2.00013e-10
1.87188e-08
-5.98188e-09
5.4554e-08
8.50447e-09
-1.25261e-08
3.33134e-08
-4.17142e-09
-5.28335e-09
-8.62121e-09
-2.43019e-08
4.53322e-10
-4.99155e-08
-4.40139e-08