/*--------------------------------*- C++ -*----------------------------------*\
| =========                 |                                                 |
| \\      /  F ield         | OpenFOAM: The Open Source CFD Toolbox           |
|  \\    /   O peration     | Version:  2312                                  |
|   \\  /    A nd           | Website:  www.openfoam.com                      |
|    \\/     M anipulation  |                                                 |
\*---------------------------------------------------------------------------*/
FoamFile
{
    version     2.0;
    format      ascii;
    arch        "LSB;label=32;scalar=64";
    class       volScalarField;
    location    "0.91";
    object      p;
}
// * * * * * * * * * * * * * * * * * * * * * * * * * * * * * * * * * * * * * //

dimensions      [1 -1 -2 0 0 0 0];

internalField   nonuniform List<scalar> 
8000
(
363.63
364.118
364.123
363.722
363.016
362.124
361.214
360.427
359.908
359.725
314.374
314.85
314.791
314.286
313.453
312.406
311.291
310.277
309.725
309.752
264.906
265.319
265.126
264.408
263.292
261.865
260.158
258.867
258.624
259.062
215.106
215.483
215.092
213.991
212.402
210.406
207.999
206.724
207.469
208.18
164.725
164.841
164.182
162.651
160.512
157.825
154.508
153.798
157.078
158.146
113.638
114.243
113.124
110.802
107.34
103.095
99.1286
100.258
110.795
119.641
61.4451
62.1164
60.7079
56.4073
50.2368
43.1849
35.802
38.6811
52.5064
64.4235
17.2179
18.296
17.7077
14.9376
10.7941
5.49669
2.77368
3.75798
7.78555
13.024
1.24284
1.13085
0.84397
0.120186
-0.120055
-0.162102
-0.105828
0.0344495
0.078637
0.572684
-0.292768
-0.287204
-0.290016
-0.300602
-0.295272
-0.315958
-0.294711
-0.283811
-0.330768
-0.297921
-0.376209
-0.370314
-0.357924
-0.360273
-0.377349
-0.404687
-0.405665
-0.39921
-0.420011
-0.399911
-0.436834
-0.433689
-0.422046
-0.407079
-0.399049
-0.409865
-0.429356
-0.440556
-0.449561
-0.451741
-0.496197
-0.494834
-0.486126
-0.466294
-0.43875
-0.410811
-0.409066
-0.436722
-0.465447
-0.497241
-0.554535
-0.562117
-0.557927
-0.538601
-0.506332
-0.466251
-0.430944
-0.439159
-0.482359
-0.528248
-0.621467
-0.63282
-0.62345
-0.60196
-0.580678
-0.557668
-0.531038
-0.506788
-0.529326
-0.559348
-0.691061
-0.695316
-0.679828
-0.662583
-0.651721
-0.645225
-0.636678
-0.617592
-0.604257
-0.607601
-0.750347
-0.751815
-0.735914
-0.719295
-0.712825
-0.717853
-0.719088
-0.705264
-0.67784
-0.662862
-0.806239
-0.808326
-0.79006
-0.765593
-0.750308
-0.748152
-0.753949
-0.756531
-0.739028
-0.71998
-0.862224
-0.866356
-0.852725
-0.821318
-0.788074
-0.760411
-0.750717
-0.772164
-0.798715
-0.782543
-0.922907
-0.933189
-0.932269
-0.912435
-0.873697
-0.822155
-0.787712
-0.804092
-0.854219
-0.855114
364.331
364.798
364.791
364.382
363.657
362.71
361.81
361.088
360.565
360.332
315.156
315.621
315.533
315.005
314.144
313.034
311.939
311.18
310.392
310.186
265.844
266.242
266.034
265.278
264.112
262.523
260.633
259.46
258.782
258.968
216.508
216.941
216.383
215.141
213.314
210.936
206.826
206.482
207.082
207.386
166.584
166.768
166.04
164.277
161.414
157.736
152.997
153.35
156.651
155.949
116.589
117.224
115.964
113.218
108.799
103.876
100.42
104.822
109.568
107.045
65.4878
66.3758
64.1169
58.923
52.6237
45.0223
38.3779
40.5476
43.9855
37.4377
20.454
20.83
18.446
13.8226
9.5737
5.40798
3.36196
3.94029
4.54374
4.57094
0.67809
0.393263
0.0653612
-0.0904549
-0.166016
-0.171075
-0.157108
-0.0533247
-0.00851557
0.268064
-0.32049
-0.33553
-0.328418
-0.307538
-0.298529
-0.320707
-0.337973
-0.342161
-0.360816
-0.28512
-0.410644
-0.404009
-0.391497
-0.380996
-0.390413
-0.420929
-0.440801
-0.470379
-0.51521
-0.493169
-0.457263
-0.451952
-0.438699
-0.433153
-0.444843
-0.480561
-0.527252
-0.552007
-0.61568
-0.592609
-0.520527
-0.513842
-0.507479
-0.499782
-0.483466
-0.478348
-0.506102
-0.552035
-0.594236
-0.568859
-0.579942
-0.580098
-0.586268
-0.573709
-0.545333
-0.516885
-0.513441
-0.539952
-0.568952
-0.557974
-0.635336
-0.6488
-0.651765
-0.627577
-0.606087
-0.59267
-0.587228
-0.581869
-0.599078
-0.585139
-0.694265
-0.71682
-0.704293
-0.684155
-0.67491
-0.679018
-0.693898
-0.694058
-0.669217
-0.630903
-0.760434
-0.776294
-0.762156
-0.751728
-0.749758
-0.7655
-0.78854
-0.784279
-0.728989
-0.678271
-0.822509
-0.837247
-0.825504
-0.81251
-0.80664
-0.807055
-0.811854
-0.806589
-0.770959
-0.727081
-0.879959
-0.89962
-0.889659
-0.87213
-0.851209
-0.829753
-0.8064
-0.796625
-0.80843
-0.792569
-0.945912
-0.971197
-0.972094
-0.958894
-0.937026
-0.903578
-0.859291
-0.848403
-0.876521
-0.867911
365.645
366.075
366.053
365.662
364.826
363.895
363.112
362.521
361.946
361.691
316.607
317.025
316.926
316.382
315.535
314.374
313.486
312.925
312.164
311.743
267.574
267.97
267.724
266.937
265.746
264.227
262.914
262.278
260.916
260.645
218.815
219.09
218.672
217.347
215.478
213.016
210.482
209.597
207.895
208.851
169.995
170.209
169.291
167.237
164.383
160.74
156.164
156.531
155.242
156.199
121.903
122.355
120.719
117.564
113.317
108.779
105.75
107.01
106.811
101.995
74.1867
74.2877
71.2232
65.9695
59.4919
53.3165
46.4633
46.1026
41.4729
31.214
31.2519
31.0403
27.5168
21.069
13.841
8.627
5.14847
4.8365
3.08945
2.37485
4.11931
3.68403
2.19275
0.343823
-0.160482
-0.117476
-0.0973644
-0.113309
-0.0958991
0.13486
-0.469036
-0.457666
-0.415621
-0.386963
-0.331941
-0.286469
-0.275744
-0.273445
-0.292467
-0.211009
-0.468035
-0.45953
-0.451254
-0.425012
-0.396591
-0.387807
-0.38631
-0.398034
-0.405476
-0.351387
-0.482062
-0.47711
-0.471784
-0.464142
-0.455183
-0.45434
-0.46597
-0.489241
-0.482754
-0.436622
-0.540238
-0.532373
-0.527431
-0.521171
-0.509471
-0.498298
-0.502905
-0.53081
-0.523959
-0.502297
-0.597954
-0.593306
-0.594045
-0.586326
-0.569788
-0.549988
-0.548956
-0.562697
-0.562325
-0.544393
-0.650636
-0.653683
-0.648717
-0.637006
-0.6224
-0.609924
-0.61771
-0.626775
-0.626309
-0.596803
-0.702387
-0.710175
-0.702945
-0.69461
-0.68478
-0.680615
-0.701533
-0.72079
-0.699138
-0.64303
-0.756535
-0.77176
-0.768737
-0.768543
-0.770794
-0.774397
-0.781258
-0.774971
-0.731921
-0.679362
-0.815541
-0.849731
-0.848579
-0.851305
-0.848884
-0.840644
-0.804384
-0.7501
-0.727079
-0.707615
-0.886269
-0.928499
-0.93216
-0.929104
-0.921995
-0.908348
-0.854127
-0.773851
-0.757172
-0.760253
-0.962164
-1.00463
-1.01679
-1.01982
-1.01491
-0.998234
-0.948391
-0.884407
-0.870475
-0.855424
367.438
367.785
367.752
367.33
366.488
365.606
364.836
364.285
363.753
363.572
318.635
318.927
318.794
318.216
317.352
316.217
315.365
314.849
314.125
313.976
270.131
270.297
270.001
269.138
267.937
266.553
265.51
264.855
263.86
263.641
221.918
222.118
221.511
220.187
218.305
216.176
214.328
213.148
210.952
212.638
174.163
174.333
173.147
170.925
168.153
165.029
161.817
160.687
159.222
161.206
127.676
127.6
126.032
122.596
118.372
114.302
111.361
110.144
108.646
107.8
83.0946
82.3824
79.0553
73.3764
67.0895
61.6745
57.7869
55.9453
51.5421
47.668
41.8596
40.9077
36.3494
28.9899
20.8707
14.0144
10.3216
8.97567
6.27022
5.81585
12.3406
11.5009
8.68112
4.49415
0.90856
-0.137171
-0.13354
-0.165169
-0.19084
-0.194197
-0.287186
-0.367976
-0.364552
-0.323326
-0.313561
-0.29004
-0.278571
-0.279581
-0.288529
-0.278383
-0.420933
-0.412556
-0.413543
-0.415743
-0.408737
-0.386004
-0.378142
-0.373175
-0.372894
-0.361237
-0.493472
-0.4808
-0.470645
-0.465716
-0.463371
-0.455037
-0.443973
-0.439224
-0.444689
-0.435613
-0.549651
-0.542391
-0.53221
-0.522002
-0.518775
-0.504135
-0.485294
-0.476982
-0.481244
-0.472277
-0.604859
-0.601084
-0.592775
-0.585075
-0.582821
-0.568956
-0.551764
-0.525489
-0.505293
-0.505864
-0.656771
-0.655022
-0.641221
-0.64119
-0.643452
-0.630494
-0.621104
-0.613107
-0.598665
-0.5787
-0.709922
-0.701362
-0.691799
-0.700645
-0.69624
-0.679027
-0.676849
-0.683952
-0.660898
-0.627855
-0.756382
-0.759384
-0.760131
-0.768398
-0.774899
-0.769571
-0.750738
-0.714762
-0.676785
-0.656437
-0.812096
-0.840385
-0.855239
-0.869352
-0.86811
-0.846135
-0.790555
-0.696452
-0.679946
-0.692735
-0.884847
-0.933388
-0.955067
-0.970096
-0.970384
-0.965408
-0.903978
-0.78875
-0.759686
-0.768049
-0.964832
-1.01289
-1.03879
-1.06175
-1.06814
-1.05737
-1.01454
-0.940754
-0.899371
-0.878366
369.518
369.886
369.728
369.202
368.422
367.569
366.819
366.262
365.836
365.674
320.924
321.25
320.945
320.3
319.414
318.377
317.531
316.97
316.49
316.37
272.828
273.096
272.581
271.64
270.403
269.095
268.014
267.414
266.845
266.818
225.421
225.585
224.68
223.275
221.488
219.579
218.012
217.07
216.477
216.962
179.084
178.716
177.349
175.067
172.306
169.622
167.266
166.055
165.725
166.939
134.11
133.638
131.344
127.796
123.79
120.054
117.332
115.723
114.973
115.666
91.7849
90.4825
86.8347
80.8283
74.6697
69.3288
65.7412
64.1021
61.1737
61.5096
51.8534
50.2924
45.2092
37.1408
28.4351
21.2017
16.3679
15.1179
13.2863
14.5106
21.5566
20.4689
16.1282
9.499
4.07233
0.926878
-0.0534454
-0.136324
-0.168788
-0.0937028
5.04422
2.96726
0.331209
-0.366338
-0.300748
-0.280161
-0.286295
-0.298326
-0.301073
-0.281389
-0.482081
-0.463353
-0.437268
-0.42077
-0.405113
-0.389804
-0.380191
-0.372323
-0.361588
-0.341537
-0.527558
-0.523567
-0.506593
-0.483026
-0.468649
-0.460654
-0.448969
-0.430979
-0.427071
-0.40744
-0.571719
-0.571121
-0.561039
-0.53832
-0.526532
-0.514894
-0.495992
-0.473039
-0.485806
-0.463488
-0.616759
-0.623779
-0.611519
-0.598629
-0.588339
-0.586869
-0.553942
-0.528479
-0.527632
-0.505179
-0.670905
-0.667909
-0.647676
-0.65175
-0.658146
-0.653423
-0.627722
-0.594114
-0.561954
-0.542889
-0.72043
-0.703285
-0.696922
-0.704968
-0.698914
-0.676231
-0.657687
-0.645458
-0.6175
-0.601129
-0.768553
-0.75902
-0.767009
-0.763798
-0.750883
-0.741669
-0.71701
-0.681631
-0.666744
-0.665198
-0.827711
-0.835801
-0.862235
-0.871948
-0.85175
-0.829007
-0.770074
-0.682069
-0.68995
-0.717876
-0.890241
-0.916267
-0.951916
-0.97453
-0.956506
-0.94196
-0.88607
-0.781686
-0.754185
-0.778977
-0.950878
-0.984949
-1.01538
-1.04891
-1.04939
-1.03282
-0.998196
-0.960228
-0.933864
-0.909947
371.616
371.952
371.767
371.189
370.411
369.595
368.864
368.315
367.925
367.771
323.258
323.511
323.173
322.468
321.54
320.593
319.774
319.203
318.789
318.669
275.474
275.612
275.109
274.113
272.888
271.673
270.669
270.084
269.635
269.618
228.702
228.658
227.758
226.27
224.485
222.796
221.445
220.685
220.265
220.597
183.086
182.8
181.205
178.896
176.275
173.882
171.993
171.089
170.799
171.547
139.166
138.175
135.893
132.35
128.609
125.284
122.744
121.686
120.682
122.086
98.5267
96.2734
92.4416
86.7229
80.9082
76.06
72.4834
71.0761
69.3187
71.3651
59.1006
57.0248
51.6371
43.0586
34.8869
28.3366
24.4183
22.6512
21.4764
25.2778
29.9664
26.4665
20.1837
12.6143
7.03322
3.83796
1.82068
1.06239
0.537407
2.30452
13.3548
7.78143
2.47069
-0.275294
-0.381113
-0.270489
-0.282274
-0.31484
-0.309468
-0.304523
-0.49924
-0.488541
-0.474137
-0.43418
-0.424582
-0.390424
-0.382892
-0.389667
-0.3758
-0.351114
-0.536955
-0.537577
-0.535301
-0.517266
-0.495291
-0.467517
-0.456776
-0.446919
-0.422966
-0.391484
-0.594059
-0.590225
-0.58959
-0.567374
-0.541466
-0.519779
-0.509217
-0.498708
-0.485411
-0.456039
-0.63979
-0.639564
-0.628294
-0.61394
-0.596564
-0.607496
-0.586262
-0.55616
-0.552434
-0.518132
-0.68129
-0.673244
-0.66357
-0.657406
-0.654064
-0.666223
-0.655284
-0.614642
-0.593969
-0.563795
-0.719897
-0.709857
-0.715993
-0.698142
-0.677126
-0.667095
-0.648934
-0.627007
-0.609958
-0.606347
-0.777119
-0.77113
-0.787941
-0.757454
-0.689049
-0.670388
-0.657042
-0.624493
-0.640514
-0.65454
-0.843233
-0.835413
-0.862461
-0.850729
-0.788879
-0.754516
-0.708011
-0.619585
-0.645413
-0.692923
-0.885604
-0.878704
-0.906731
-0.917814
-0.876002
-0.839928
-0.794659
-0.721015
-0.710692
-0.7602
-0.903955
-0.91384
-0.930611
-0.960055
-0.95748
-0.936568
-0.917347
-0.921786
-0.944297
-0.919713
373.703
373.83
373.611
372.998
372.255
371.468
370.759
370.226
369.814
369.684
325.368
325.511
325.156
324.408
323.53
322.624
321.827
321.246
320.846
320.709
277.844
277.902
277.337
276.255
275.155
274.008
273.032
272.395
272.01
271.979
231.464
231.356
230.379
228.804
227.196
225.618
224.342
223.615
223.25
223.514
186.411
186.135
184.388
182.048
179.632
177.429
175.743
174.908
174.535
175.068
142.928
141.593
139.471
136.127
132.59
129.565
127.294
126.315
124.944
126.448
102.539
100.26
96.6505
91.2945
85.9978
81.4274
78.1123
77.0866
74.7546
76.47
64.2236
61.3093
55.6862
47.6672
40.8115
34.6533
30.2451
29.9174
28.2837
30.333
33.6014
28.9394
23.0888
15.8529
10.1242
6.85687
4.9698
4.37728
3.22486
4.58824
16.8692
10.534
4.12129
0.29051
-0.450566
-0.320469
-0.262347
-0.306617
-0.324783
-0.309569
-0.184968
-0.3964
-0.441565
-0.448015
-0.450127
-0.414638
-0.3885
-0.405253
-0.390156
-0.356028
-0.540761
-0.514591
-0.517279
-0.534131
-0.527595
-0.489852
-0.461486
-0.451752
-0.426037
-0.38587
-0.605151
-0.58285
-0.586907
-0.589624
-0.562777
-0.5357
-0.518587
-0.509117
-0.491217
-0.45608
-0.650937
-0.636998
-0.628283
-0.617944
-0.602694
-0.619991
-0.634109
-0.601155
-0.5808
-0.5392
-0.685201
-0.670984
-0.664177
-0.647265
-0.638837
-0.662451
-0.682074
-0.66284
-0.641508
-0.594751
-0.723513
-0.72094
-0.722635
-0.682515
-0.641955
-0.642933
-0.652843
-0.642325
-0.63895
-0.618411
-0.788252
-0.781403
-0.791017
-0.739697
-0.652089
-0.60748
-0.59677
-0.566226
-0.603414
-0.629647
-0.846467
-0.820116
-0.829229
-0.801858
-0.720453
-0.675499
-0.643702
-0.580765
-0.577776
-0.656581
-0.847114
-0.813158
-0.815895
-0.822588
-0.792444
-0.748578
-0.715816
-0.675181
-0.666725
-0.742017
-0.811849
-0.78292
-0.799309
-0.842309
-0.873293
-0.85817
-0.857253
-0.866258
-0.913733
-0.901361
375.219
375.413
375.17
374.591
373.841
373.061
372.36
371.819
371.415
371.256
327.084
327.219
326.846
326.123
325.235
324.331
323.548
322.966
322.541
322.413
279.772
279.769
279.24
278.349
277.111
275.945
274.986
274.313
273.916
273.869
233.663
233.493
232.591
231.205
229.558
227.919
226.676
225.876
225.548
225.696
188.991
188.509
186.938
184.785
182.435
180.241
178.613
177.655
177.185
177.617
145.842
144.499
142.307
139.178
135.909
132.974
130.788
129.586
127.912
129.222
105.48
103.045
99.4296
94.5647
89.7754
85.8902
82.8945
81.7731
78.5256
80.097
67.6368
63.8159
57.6379
50.7799
44.5407
40.1358
36.1887
35.7589
32.7144
34.2787
35.0481
30.3363
24.4273
18.3751
12.7138
9.70013
8.32489
8.06508
5.76009
6.14749
19.2006
12.4697
5.11871
1.11263
-0.325428
-0.384349
-0.2883
-0.318093
-0.335413
-0.311554
0.306141
-0.270027
-0.365571
-0.405402
-0.433485
-0.430865
-0.403205
-0.419189
-0.399468
-0.35539
-0.515177
-0.480349
-0.475554
-0.496844
-0.51986
-0.499666
-0.468939
-0.456105
-0.432032
-0.385656
-0.594611
-0.561326
-0.562033
-0.570395
-0.569004
-0.547236
-0.525539
-0.514124
-0.49454
-0.457955
-0.652675
-0.631101
-0.622728
-0.619319
-0.622443
-0.621085
-0.630498
-0.622255
-0.599137
-0.556228
-0.684545
-0.676219
-0.665677
-0.665085
-0.660268
-0.65784
-0.68883
-0.686095
-0.674716
-0.621491
-0.726611
-0.733199
-0.723282
-0.705353
-0.666235
-0.641599
-0.665796
-0.670151
-0.669823
-0.641225
-0.79062
-0.7883
-0.778739
-0.749643
-0.691809
-0.641772
-0.607519
-0.586324
-0.609388
-0.641071
-0.832501
-0.80734
-0.80237
-0.794184
-0.753431
-0.693624
-0.655713
-0.614665
-0.595255
-0.666988
-0.821439
-0.787774
-0.797298
-0.818252
-0.80631
-0.763352
-0.739839
-0.710202
-0.691734
-0.763671
-0.794034
-0.783526
-0.822027
-0.865446
-0.881585
-0.866061
-0.87615
-0.874926
-0.899812
-0.893525
376.374
376.569
376.314
375.766
374.999
374.226
373.539
372.998
372.6
372.429
328.33
328.464
328.062
327.371
326.449
325.549
324.786
324.201
323.793
323.647
281.222
281.142
280.537
279.502
278.32
277.258
276.354
275.672
275.279
275.208
235.394
235.063
234.056
232.48
230.775
229.365
228.253
227.441
227.094
227.114
190.899
190.24
188.66
186.365
183.841
181.915
180.507
179.476
178.797
179.139
147.892
146.491
144.151
140.896
137.569
135.036
133.106
131.738
129.695
130.879
107.185
104.685
101.101
96.4176
91.7598
88.4198
85.9788
84.971
81.1439
82.4911
69.2383
64.7699
59.1936
53.2068
46.9116
43.0623
40.4255
40.305
36.4928
37.4093
35.0658
30.9066
25.0257
18.9354
13.6346
11.3663
10.6521
11.1818
8.56818
7.93712
20.9943
13.3568
5.45377
1.45241
-0.0400018
-0.334369
-0.342372
-0.357083
-0.35305
-0.325377
0.813168
-0.245013
-0.337479
-0.358378
-0.409125
-0.422904
-0.419824
-0.438024
-0.411521
-0.362109
-0.489733
-0.473376
-0.469284
-0.478177
-0.505027
-0.497116
-0.476097
-0.464054
-0.440443
-0.390204
-0.573297
-0.550324
-0.559879
-0.584837
-0.596022
-0.567674
-0.536748
-0.520497
-0.501641
-0.461367
-0.628097
-0.61783
-0.630798
-0.662321
-0.678625
-0.650279
-0.632631
-0.623164
-0.605858
-0.564201
-0.661834
-0.664869
-0.681344
-0.716557
-0.723973
-0.704186
-0.695116
-0.685767
-0.684946
-0.638968
-0.709083
-0.719973
-0.734343
-0.762678
-0.752806
-0.722367
-0.702511
-0.696707
-0.70638
-0.669802
-0.774562
-0.78223
-0.790621
-0.815526
-0.792618
-0.737055
-0.698897
-0.671331
-0.666455
-0.674965
-0.834796
-0.83299
-0.845253
-0.866803
-0.846498
-0.778118
-0.742599
-0.710379
-0.675862
-0.712804
-0.880391
-0.879238
-0.900771
-0.923185
-0.908623
-0.855655
-0.836757
-0.813195
-0.786633
-0.81391
-0.928127
-0.938605
-0.967948
-0.987769
-0.969069
-0.941531
-0.937879
-0.940835
-0.945243
-0.923197
377.103
377.179
376.923
376.393
375.68
374.921
374.245
373.709
373.302
373.127
329.175
329.222
328.745
328.001
327.136
326.248
325.495
324.925
324.509
324.357
282.085
281.918
281.192
280.095
279.035
278.001
277.113
276.427
276.016
275.933
236.381
235.899
234.821
233.253
231.593
230.216
229.171
228.269
227.833
227.798
192.126
191.225
189.504
187.123
184.7
183.027
181.584
180.41
179.458
179.793
149.363
147.647
145.127
141.7
138.464
136.352
134.39
132.913
130.574
131.552
108.494
105.476
101.795
97.1914
92.9135
89.9987
86.9537
86.4147
82.9395
83.3325
70.4949
65.8509
60.2469
54.2627
48.525
44.9327
41.407
42.5479
38.654
38.6582
37.2499
32.1217
25.4082
18.8016
13.8859
11.9548
11.2456
12.7085
10.3843
8.75305
19.2162
12.0884
4.84714
1.27712
0.0731295
-0.203651
-0.358301
-0.396835
-0.360097
-0.333846
1.31342
-0.242523
-0.328442
-0.342119
-0.394351
-0.419478
-0.436989
-0.4543
-0.420445
-0.373523
-0.494502
-0.49833
-0.479461
-0.486019
-0.519007
-0.500374
-0.483408
-0.478195
-0.453789
-0.400225
-0.571724
-0.565127
-0.572426
-0.60618
-0.628164
-0.587366
-0.544214
-0.523343
-0.503284
-0.461466
-0.624169
-0.626481
-0.642692
-0.68728
-0.7055
-0.666714
-0.630254
-0.616244
-0.602246
-0.563549
-0.667135
-0.674866
-0.693713
-0.732707
-0.743001
-0.714242
-0.68973
-0.678868
-0.682636
-0.648343
-0.721957
-0.729156
-0.744802
-0.770284
-0.769806
-0.745146
-0.719539
-0.711455
-0.731546
-0.695377
-0.786733
-0.790169
-0.80055
-0.813925
-0.808727
-0.776368
-0.751419
-0.73434
-0.730718
-0.714601
-0.854478
-0.854569
-0.864322
-0.877221
-0.870575
-0.831763
-0.811221
-0.79008
-0.757729
-0.761287
-0.919212
-0.921744
-0.941
-0.960378
-0.952488
-0.917896
-0.903101
-0.8851
-0.859654
-0.856712
-0.976898
-0.982466
-1.00538
-1.02372
-1.01085
-0.98233
-0.976895
-0.977885
-0.978719
-0.95188
377.261
377.378
377.114
376.602
375.901
375.149
374.468
373.924
373.507
373.328
329.458
329.342
328.914
328.196
327.323
326.452
325.697
325.117
324.689
324.533
282.483
282.075
281.4
280.314
279.225
278.138
277.247
276.564
276.142
276.059
236.512
235.92
234.837
233.352
231.778
230.363
229.207
228.341
227.865
227.834
191.973
190.991
189.36
187.191
184.899
183.051
181.604
180.369
179.275
179.65
149.016
147.444
145.015
141.925
138.695
136.262
134.205
132.786
130.374
131.289
108.181
105.443
101.7
97.2171
92.8227
89.6874
86.8009
86.136
82.8341
82.8879
70.1455
65.9076
60.1848
53.8255
47.921
44.2159
41.6599
42.026
38.467
37.9769
36.9585
31.9685
24.9542
18.1302
13.1511
11.0964
10.7658
12.5481
10.2411
8.38185
17.2542
10.8801
4.1874
0.988198
0.0192203
-0.21473
-0.347458
-0.385183
-0.356544
-0.339726
1.11133
-0.31277
-0.352044
-0.362564
-0.429676
-0.451205
-0.452494
-0.457913
-0.426068
-0.387221
-0.538831
-0.539961
-0.50501
-0.511915
-0.563525
-0.538319
-0.502658
-0.490701
-0.46922
-0.417423
-0.600656
-0.595744
-0.598119
-0.628695
-0.651972
-0.609881
-0.552087
-0.52114
-0.50078
-0.462969
-0.650426
-0.652246
-0.663271
-0.695064
-0.699608
-0.663903
-0.619574
-0.601452
-0.588314
-0.553028
-0.698015
-0.699096
-0.706739
-0.72421
-0.717155
-0.697308
-0.673918
-0.665707
-0.67313
-0.647324
-0.750353
-0.750375
-0.753371
-0.757531
-0.741323
-0.727589
-0.714511
-0.712589
-0.74256
-0.714083
-0.814277
-0.811766
-0.81096
-0.807642
-0.787671
-0.76735
-0.759914
-0.75812
-0.769116
-0.746736
-0.880004
-0.873763
-0.8705
-0.866846
-0.850315
-0.829535
-0.824579
-0.815349
-0.800027
-0.794109
-0.93871
-0.931314
-0.931811
-0.936151
-0.927793
-0.913158
-0.910041
-0.900005
-0.878784
-0.873254
-0.989196
-0.978733
-0.981646
-0.99102
-0.9845
-0.975325
-0.977519
-0.980142
-0.978826
-0.960236
376.823
377.056
376.85
376.359
375.667
374.926
374.212
373.653
373.232
373.053
328.7
328.894
328.569
327.928
327.078
326.223
325.411
324.794
324.355
324.196
281.54
281.523
280.976
280.017
278.877
277.802
276.859
276.127
275.678
275.591
235.518
235.137
234.226
232.891
231.248
229.757
228.565
227.672
227.217
227.2
190.776
189.935
188.519
186.428
184.024
182.063
180.528
179.4
178.4
178.686
147.544
146.106
143.845
140.872
137.658
134.917
132.786
131.465
129.129
129.972
106.329
103.972
100.022
95.5775
90.9905
87.4908
85.0681
84.3036
80.6241
80.8136
67.9599
64.1322
58.0811
51.532
45.4929
41.7951
39.3697
39.2251
35.1515
34.7828
34.908
30.6086
23.8021
16.7666
11.7474
9.53055
9.2051
10.1514
7.69926
6.61668
15.9325
9.66373
3.66971
0.770762
-0.143981
-0.32785
-0.358438
-0.365304
-0.354766
-0.343576
0.57889
-0.426249
-0.420848
-0.422314
-0.494206
-0.500089
-0.463067
-0.451308
-0.425684
-0.394521
-0.587741
-0.581192
-0.541103
-0.548902
-0.60259
-0.578793
-0.522539
-0.493722
-0.477005
-0.432658
-0.637188
-0.630152
-0.627206
-0.648563
-0.662384
-0.619688
-0.55665
-0.523108
-0.506146
-0.470813
-0.687762
-0.685362
-0.687994
-0.701456
-0.686703
-0.641286
-0.599589
-0.579202
-0.572595
-0.544083
-0.736332
-0.73158
-0.728228
-0.720235
-0.692783
-0.664126
-0.654403
-0.647949
-0.659543
-0.640727
-0.787262
-0.778838
-0.768733
-0.748954
-0.714397
-0.696217
-0.708332
-0.71085
-0.740985
-0.724418
-0.852739
-0.838879
-0.822924
-0.795894
-0.758626
-0.742106
-0.757108
-0.764146
-0.782988
-0.765158
-0.922627
-0.901078
-0.876526
-0.845057
-0.814543
-0.803778
-0.816999
-0.818309
-0.817004
-0.809971
-0.978542
-0.953989
-0.920806
-0.89381
-0.877017
-0.877866
-0.890018
-0.889454
-0.877107
-0.877699
-1.01212
-0.980169
-0.951502
-0.937369
-0.935817
-0.950986
-0.963797
-0.967568
-0.96372
-0.956063
375.872
376.24
376.127
375.679
375.001
374.214
373.527
372.973
372.547
372.373
327.738
328.006
327.762
327.159
326.312
325.403
324.636
324.016
323.585
323.417
280.38
280.501
280.066
279.185
278.056
276.911
275.92
275.182
274.695
274.585
234.067
233.904
233.138
231.801
230.262
228.639
227.33
226.394
225.909
225.899
189.01
188.357
186.996
184.978
182.765
180.58
178.815
177.667
176.867
176.912
145.368
144.15
141.811
138.89
135.686
132.888
130.527
129.039
127.231
127.724
103.785
101.372
97.7363
93.2458
88.5103
84.8507
81.8481
80.3333
77.0689
77.5839
64.4631
60.8205
55.2416
49.2061
43.041
38.4496
35.084
34.2458
30.1301
30.5151
32.0649
28.7137
22.715
15.7482
10.1375
7.48462
6.72219
6.94292
4.42715
4.47488
13.9283
8.45807
3.25094
0.642572
-0.346764
-0.435774
-0.345806
-0.34673
-0.344914
-0.337091
-0.279251
-0.50612
-0.481082
-0.489542
-0.534603
-0.519813
-0.45988
-0.446609
-0.418517
-0.391131
-0.609125
-0.590785
-0.559825
-0.575091
-0.61222
-0.581913
-0.520865
-0.489234
-0.474231
-0.436293
-0.652004
-0.643136
-0.639791
-0.655214
-0.653799
-0.598212
-0.544592
-0.51643
-0.512527
-0.476009
-0.706452
-0.708018
-0.708238
-0.705156
-0.686172
-0.618267
-0.575385
-0.559883
-0.568246
-0.54429
-0.760656
-0.757179
-0.755004
-0.739822
-0.704806
-0.652739
-0.635717
-0.634257
-0.658702
-0.64529
-0.81321
-0.803336
-0.794905
-0.770281
-0.725016
-0.690744
-0.701738
-0.713465
-0.74017
-0.731111
-0.889792
-0.864339
-0.843511
-0.811127
-0.762144
-0.731572
-0.75569
-0.76632
-0.787511
-0.775581
-0.973592
-0.938977
-0.899802
-0.854872
-0.808179
-0.784384
-0.807844
-0.815634
-0.82299
-0.819225
-1.03143
-0.995783
-0.937881
-0.892633
-0.861574
-0.851494
-0.869129
-0.876061
-0.874592
-0.877182
-1.0432
-0.998687
-0.954782
-0.924521
-0.917367
-0.92624
-0.941048
-0.948586
-0.947582
-0.945965
374.733
375.148
375.111
374.693
373.993
373.241
372.532
371.964
371.567
371.393
326.469
326.794
326.639
326.076
325.228
324.336
323.528
322.899
322.477
322.309
278.897
279.129
278.744
277.875
276.722
275.582
274.557
273.818
273.356
273.221
232.244
232.318
231.525
230.154
228.446
226.909
225.543
224.624
224.124
224.11
186.757
186.325
185.049
182.959
180.497
178.231
176.332
175.239
174.607
174.604
142.521
141.722
139.54
136.468
132.972
129.786
127.114
125.751
124.482
124.652
100.591
99.0858
95.5045
90.4325
85.089
80.4582
76.5389
74.9588
73.0791
73.2872
59.8977
56.6972
52.6893
46.5866
39.3736
33.3392
28.7557
27.4108
24.9258
25.7823
28.6162
26.082
20.9542
13.9739
8.14977
5.05635
3.69443
3.33261
1.89434
2.52472
9.2455
5.79751
2.26924
0.205459
-0.485678
-0.429487
-0.326873
-0.326986
-0.327325
-0.318031
-0.53556
-0.521859
-0.508863
-0.519858
-0.529874
-0.502059
-0.443554
-0.427603
-0.408314
-0.378285
-0.590969
-0.579132
-0.564854
-0.581486
-0.596898
-0.553985
-0.503058
-0.48121
-0.470815
-0.427842
-0.645768
-0.64403
-0.635165
-0.635738
-0.629691
-0.580264
-0.533319
-0.513795
-0.514596
-0.476728
-0.707256
-0.712628
-0.711652
-0.692554
-0.664997
-0.626812
-0.576529
-0.561284
-0.583216
-0.557125
-0.770667
-0.76709
-0.763642
-0.744657
-0.714812
-0.684855
-0.658768
-0.646602
-0.676951
-0.661461
-0.834538
-0.822661
-0.814242
-0.791847
-0.75136
-0.723765
-0.72667
-0.723365
-0.7424
-0.735623
-0.915432
-0.893736
-0.8739
-0.84037
-0.79437
-0.76273
-0.773617
-0.771077
-0.778642
-0.779824
-0.998346
-0.974495
-0.938289
-0.892082
-0.842078
-0.80947
-0.817505
-0.814231
-0.815936
-0.822857
-1.05558
-1.02235
-0.971919
-0.929785
-0.89195
-0.867544
-0.873919
-0.870285
-0.868019
-0.87283
-1.0597
-1.02035
-0.982035
-0.95037
-0.935428
-0.932683
-0.939944
-0.938556
-0.934256
-0.934751
373.306
373.85
373.889
373.543
372.835
372.078
371.354
370.777
370.39
370.221
324.896
325.36
325.303
324.813
323.96
323.031
322.22
321.596
321.158
321.013
277.075
277.478
277.201
276.422
275.229
274.055
272.95
272.305
271.788
271.658
230.081
230.291
229.681
228.376
226.6
224.964
223.483
222.563
222.022
222.069
184.11
184.118
182.868
180.664
177.929
175.518
173.373
172.242
171.738
172.082
139.364
138.796
136.851
133.687
129.701
126.123
123.247
122.021
120.911
121.252
97.0708
96.2764
92.4219
86.992
80.3498
74.7265
70.4086
69.4217
68.079
68.3338
55.5113
52.9711
49.4777
42.5288
33.9441
26.3169
20.9561
19.4091
17.6493
19.0634
26.8434
24.7199
19.1291
12.0698
5.8543
2.46171
0.871732
0.372399
-0.0590501
0.173327
4.88854
3.03336
0.576251
-0.410118
-0.461737
-0.38631
-0.319392
-0.315149
-0.288823
-0.27299
-0.540329
-0.523643
-0.510903
-0.501548
-0.502423
-0.46864
-0.42128
-0.403719
-0.382577
-0.348659
-0.576991
-0.566376
-0.561835
-0.562356
-0.557106
-0.523852
-0.485569
-0.473162
-0.459301
-0.410845
-0.632695
-0.636664
-0.618858
-0.598671
-0.594354
-0.564876
-0.529
-0.528311
-0.528479
-0.478746
-0.696678
-0.699911
-0.695065
-0.669424
-0.642653
-0.624134
-0.597579
-0.601915
-0.621262
-0.576766
-0.765433
-0.761302
-0.753928
-0.729747
-0.70271
-0.690826
-0.681149
-0.680949
-0.719676
-0.679713
-0.831515
-0.822913
-0.811476
-0.787272
-0.753952
-0.734961
-0.742028
-0.732048
-0.77144
-0.742827
-0.905974
-0.894121
-0.875531
-0.845187
-0.807692
-0.785841
-0.790628
-0.767883
-0.783013
-0.78248
-0.987548
-0.973953
-0.949085
-0.911145
-0.8711
-0.84848
-0.843215
-0.810368
-0.809896
-0.824669
-1.05616
-1.02175
-0.986752
-0.963743
-0.934754
-0.919225
-0.904581
-0.867978
-0.856497
-0.875638
-1.06816
-1.02836
-0.998339
-0.980873
-0.975141
-0.979091
-0.966839
-0.936471
-0.922434
-0.933842
371.784
372.451
372.559
372.246
371.61
370.861
370.103
369.536
369.138
368.98
323.216
323.84
323.864
323.409
322.628
321.704
320.854
320.201
319.769
319.637
275.114
275.706
275.535
274.787
273.698
272.381
271.337
270.483
270.027
269.958
227.617
228.117
227.655
226.401
224.64
222.896
221.357
220.172
219.619
219.896
181.234
181.367
180.359
178.321
175.266
172.656
170.301
168.682
168.331
169.45
135.965
135.597
134.014
130.823
126.28
122.666
119.897
118.446
117.251
117.981
93.1898
92.2724
88.6236
82.8531
75.5717
69.3477
65.4203
64.334
63.4413
63.073
50.8232
50.4242
45.655
37.3377
27.7425
18.4864
13.8729
13.3187
13.1058
13.4569
24.4725
21.9643
16.9481
9.43982
3.47083
0.265901
-0.118789
-0.169115
-0.166142
-0.108702
1.73887
0.875886
-0.3313
-0.438907
-0.404255
-0.350084
-0.315528
-0.301447
-0.277983
-0.259586
-0.515731
-0.510956
-0.4819
-0.486099
-0.470322
-0.433422
-0.392659
-0.369262
-0.350869
-0.318536
-0.560469
-0.549605
-0.536913
-0.535038
-0.525159
-0.49941
-0.475796
-0.468609
-0.443615
-0.39786
-0.610667
-0.606189
-0.588708
-0.570221
-0.569711
-0.560215
-0.543828
-0.548317
-0.532533
-0.481597
-0.675453
-0.667088
-0.651288
-0.628249
-0.62735
-0.624754
-0.619747
-0.636686
-0.635915
-0.584981
-0.747267
-0.733006
-0.715649
-0.688643
-0.679759
-0.684271
-0.691435
-0.71048
-0.726927
-0.679058
-0.81546
-0.799994
-0.78039
-0.752542
-0.733815
-0.731206
-0.744732
-0.750868
-0.776926
-0.742269
-0.889013
-0.873449
-0.853705
-0.828506
-0.799722
-0.783163
-0.794631
-0.778583
-0.802671
-0.789456
-0.971087
-0.952972
-0.930547
-0.907247
-0.872842
-0.846246
-0.85079
-0.817722
-0.827534
-0.833347
-1.03674
-0.999249
-0.974638
-0.964091
-0.936179
-0.910645
-0.90677
-0.872141
-0.865785
-0.881711
-1.05466
-1.01052
-0.993981
-0.993602
-0.982006
-0.968657
-0.958417
-0.935575
-0.926724
-0.93765
370.343
371.118
371.291
371.059
370.522
369.742
368.949
368.393
367.953
367.798
321.642
322.383
322.459
322.107
321.39
320.477
319.621
318.962
318.431
318.293
273.338
274.048
273.915
273.282
272.228
270.959
269.956
269.073
268.284
268.176
225.467
226.086
225.68
224.555
222.9
221.06
219.333
217.92
216.738
217.599
178.383
178.748
177.786
175.779
172.997
170.06
167.085
165.475
164.443
166.63
132.027