/*--------------------------------*- C++ -*----------------------------------*\
| =========                 |                                                 |
| \\      /  F ield         | OpenFOAM: The Open Source CFD Toolbox           |
|  \\    /   O peration     | Version:  2312                                  |
|   \\  /    A nd           | Website:  www.openfoam.com                      |
|    \\/     M anipulation  |                                                 |
\*---------------------------------------------------------------------------*/
FoamFile
{
    version     2.0;
    format      ascii;
    arch        "LSB;label=32;scalar=64";
    class       volScalarField;
    location    "0.59";
    object      p;
}
// * * * * * * * * * * * * * * * * * * * * * * * * * * * * * * * * * * * * * //

dimensions      [1 -1 -2 0 0 0 0];

internalField   nonuniform List<scalar> 
8000
(
384.679
384.61
384.208
383.584
382.914
382.326
381.914
381.686
381.514
381.226
335.591
335.473
334.972
334.215
333.429
332.708
332.197
331.933
331.753
331.322
286.502
286.288
285.594
284.599
283.428
282.382
281.633
281.302
281.193
280.456
237.448
237.028
235.941
234.425
232.697
231.021
229.733
229.257
229.452
228.415
188.533
187.758
186.008
183.643
180.883
178.077
175.72
174.727
175.334
174.491
139.863
138.406
135.538
131.95
128.184
123.832
119.358
116.26
116.175
116.242
92.2575
89.6921
85.3835
80.7137
75.1294
67.1706
57.8618
51.4625
51.546
55.0679
48.5054
44.0733
37.2837
29.3706
21.5122
15.3427
10.9163
7.93138
7.10736
13.136
13.9817
8.66949
4.64323
1.89275
0.503031
0.292871
0.267929
0.212674
0.147807
0.159993
0.715968
0.940969
0.627202
0.334338
0.206739
0.17259
0.116042
0.0991763
0.0835453
0.100327
0.00213818
0.167414
0.0150129
-0.0926768
-0.132442
-0.0871754
-0.0395284
-0.00347967
0.0180065
0.0310647
-0.364009
-0.343994
-0.376092
-0.371604
-0.30311
-0.213149
-0.151884
-0.114295
-0.0862248
-0.0670827
-0.477954
-0.491012
-0.47122
-0.422601
-0.353424
-0.294136
-0.259462
-0.232275
-0.209328
-0.197019
-0.492573
-0.495482
-0.473806
-0.439797
-0.405897
-0.377443
-0.354535
-0.333808
-0.320956
-0.313667
-0.521846
-0.517223
-0.504565
-0.489972
-0.475481
-0.460219
-0.439453
-0.425583
-0.420185
-0.414741
-0.573515
-0.568954
-0.562348
-0.554657
-0.54554
-0.536289
-0.518813
-0.510529
-0.503597
-0.500613
-0.630032
-0.625994
-0.620499
-0.61454
-0.608149
-0.602498
-0.595992
-0.589376
-0.576651
-0.574764
-0.685722
-0.682392
-0.677915
-0.672132
-0.666821
-0.662491
-0.66052
-0.654987
-0.644688
-0.640979
-0.740708
-0.73827
-0.735128
-0.731085
-0.727356
-0.724718
-0.723628
-0.718613
-0.710048
-0.703655
-0.795599
-0.793874
-0.792035
-0.79011
-0.789098
-0.789523
-0.789585
-0.78386
-0.778297
-0.768986
385.025
384.962
384.56
383.948
383.283
382.706
382.311
382.099
381.908
381.527
335.931
335.83
335.346
334.631
333.855
333.181
332.74
332.547
332.37
331.752
286.861
286.682
286.027
285.054
283.993
283.083
282.541
282.454
282.392
281.159
237.838
237.483
236.471
235.036
233.482
232.096
231.245
231.2
231.315
229.317
189.097
188.407
186.733
184.463
181.978
179.589
177.769
177.191
177.423
174.883
140.538
139.231
136.526
133.003
129.411
125.47
121.233
117.9
117.112
115.414
92.9906
90.5892
86.2972
81.5537
75.9681
67.5486
56.509
46.9468
45.0093
51.1925
48.5575
44.4486
37.4084
28.8665
20.778
13.4996
7.6411
3.67251
2.43934
7.72594
15.1412
9.20488
5.34342
1.85867
0.389129
0.153898
0.213045
0.196062
0.119634
0.155745
0.776058
0.359285
0.0917286
-0.116002
-0.0846913
0.0192483
0.049445
0.0661355
0.0513697
0.0853933
-0.195629
-0.0943015
-0.171401
-0.263648
-0.31286
-0.225916
-0.113838
-0.0380822
-0.0107793
0.0159628
-0.503058
-0.486393
-0.519623
-0.509988
-0.442024
-0.320581
-0.210783
-0.148633
-0.116943
-0.0866168
-0.566501
-0.574022
-0.564107
-0.51282
-0.439072
-0.349284
-0.291169
-0.257934
-0.234215
-0.208528
-0.544063
-0.548356
-0.526747
-0.485351
-0.438693
-0.400239
-0.372237
-0.352023
-0.339958
-0.326498
-0.542603
-0.540927
-0.526475
-0.506663
-0.488478
-0.472909
-0.455333
-0.438706
-0.431348
-0.428311
-0.583164
-0.578623
-0.571345
-0.563786
-0.557047
-0.549093
-0.534622
-0.518882
-0.511195
-0.510095
-0.636256
-0.630946
-0.625301
-0.620535
-0.616404
-0.610725
-0.601146
-0.589579
-0.584037
-0.582851
-0.688886
-0.684744
-0.680072
-0.675123
-0.670785
-0.665837
-0.66035
-0.652994
-0.650387
-0.64883
-0.742364
-0.739557
-0.736253
-0.732614
-0.729218
-0.726092
-0.72291
-0.71577
-0.714362
-0.712768
-0.796461
-0.794506
-0.792642
-0.790879
-0.789571
-0.788719
-0.787445
-0.782181
-0.782774
-0.779134
385.653
385.594
385.176
384.534
383.83
383.199
382.731
382.426
382.154
381.755
336.572
336.49
336
335.267
334.461
333.741
333.222
332.903
332.6
331.986
287.582
287.433
286.774
285.791
284.721
283.779
283.137
282.828
282.508
281.324
238.683
238.39
237.387
235.949
234.416
233.06
232.149
231.752
231.244
229.222
190.053
189.475
187.863
185.657
183.287
181.104
179.33
178.122
177.081
174.532
141.726
140.651
138.016
134.543
131.01
127.479
123.58
119.781
117.561
115.928
94.7242
92.714
88.3226
83.2582
77.9099
71.0631
61.6192
51.3213
46.6082
50.7212
49.1216
46.0513
38.9194
30.3715
22.6943
16.993
11.2306
5.99859
3.74483
8.08096
14.6984
11.3717
6.96777
2.84813
0.878737
0.130578
0.189655
0.242411
0.182525
0.19712
1.30453
0.602049
0.222769
-0.205634
-0.240298
-0.0878184
0.0381863
0.0709833
0.0373047
0.0842282
-0.215394
-0.175519
-0.222838
-0.280437
-0.326214
-0.288857
-0.157753
-0.0842892
-0.0628967
-0.00744762
-0.485596
-0.455924
-0.479116
-0.465677
-0.427177
-0.348486
-0.252763
-0.189051
-0.154094
-0.0972522
-0.53091
-0.516876
-0.500826
-0.461376
-0.429037
-0.371604
-0.321138
-0.284951
-0.257561
-0.218667
-0.537466
-0.533074
-0.521977
-0.493451
-0.456096
-0.420878
-0.394981
-0.376067
-0.359887
-0.333215
-0.551941
-0.547994
-0.536997
-0.522003
-0.504133
-0.486363
-0.471928
-0.458722
-0.448713
-0.433284
-0.59062
-0.586258
-0.580254
-0.573161
-0.564497
-0.55563
-0.54555
-0.532429
-0.523684
-0.520606
-0.638533
-0.635092
-0.631142
-0.627657
-0.622935
-0.61752
-0.60928
-0.598354
-0.593125
-0.594121
-0.691826
-0.68922
-0.685877
-0.682246
-0.678362
-0.67364
-0.667146
-0.658852
-0.661006
-0.662947
-0.747135
-0.74465
-0.741768
-0.738515
-0.735399
-0.731943
-0.727715
-0.719212
-0.72761
-0.728709
-0.800021
-0.797931
-0.796058
-0.794067
-0.792156
-0.789377
-0.787655
-0.783465
-0.796979
-0.7901
386.528
386.477
386.03
385.334
384.556
383.836
383.256
382.824
382.459
382.077
337.468
337.408
336.894
336.11
335.243
334.438
333.794
333.314
332.884
332.349
288.527
288.457
287.79
286.771
285.642
284.611
283.809
283.234
282.686
281.76
239.709
239.566
238.575
237.104
235.531
234.123
233.048
232.258
231.383
229.823
191.143
190.826
189.282
187.079
184.753
182.685
180.97
179.407
177.78
175.754
143.057
142.336
139.806
136.297
132.772
129.743
126.715
123.533
121.039
119.411
96.4351
94.64
90.2219
84.9794
80.2364
74.7825
68.7179
61.4535
56.1106
57.3444
50.9096
48.4018
40.582
31.4013
23.3106
18.7779
15.4768
11.2718
7.69385
10.7447
16.1113
13.9883
8.35363
3.16513
0.941336
0.235776
-0.018429
0.174281
0.188181
0.266939
1.99751
2.1394
0.899324
-0.104667
-0.271367
-0.22275
-0.068759
0.0250768
0.0101705
0.122006
0.016274
-0.150876
-0.222072
-0.268307
-0.299786
-0.316266
-0.241478
-0.168488
-0.159725
-0.0373799
-0.435828
-0.388843
-0.413565
-0.420519
-0.410936
-0.376619
-0.314338
-0.268251
-0.247644
-0.13909
-0.503829
-0.457037
-0.457663
-0.436836
-0.415775
-0.392464
-0.358292
-0.325093
-0.301019
-0.243225
-0.524617
-0.509363
-0.507911
-0.49712
-0.472616
-0.451534
-0.431864
-0.403787
-0.385683
-0.356123
-0.555383
-0.549589
-0.543197
-0.536274
-0.525593
-0.511514
-0.497679
-0.483518
-0.472938
-0.454828
-0.595335
-0.592661
-0.588818
-0.585514
-0.579739
-0.572315
-0.563196
-0.553097
-0.542507
-0.533132
-0.643732
-0.640389
-0.637802
-0.637294
-0.63443
-0.629778
-0.622555
-0.614555
-0.608118
-0.601411
-0.698826
-0.695824
-0.693209
-0.691266
-0.688743
-0.684581
-0.678087
-0.673309
-0.670517
-0.666453
-0.757113
-0.75331
-0.74993
-0.746681
-0.743555
-0.740345
-0.734271
-0.731622
-0.732934
-0.731224
-0.807004
-0.804236
-0.802065
-0.799516
-0.797222
-0.796035
-0.792066
-0.791686
-0.795364
-0.792447
387.644
387.596
387.102
386.336
385.469
384.649
383.96
383.416
382.98
382.62
338.607
338.579
338.021
337.163
336.213
335.318
334.564
333.96
333.452
332.993
289.724
289.755
289.071
287.993
286.795
285.673
284.743
284.003
283.352
282.647
240.99
241.041
240.066
238.556
236.924
235.454
234.264
233.298
232.361
231.258
192.467
192.489
191.042
188.841
186.541
184.484
182.826
181.322
179.78
178.267
144.726
144.54
142.107
138.58
135.032
132.099
129.807
127.593
125.573
124.106
99.0576
98.1166
93.5772
87.7093
82.7055
78.8538
74.837
71.051
67.6609
67.4621
55.6426
53.8042
45.2839
34.9878
25.9025
20.4292
18.1083
16.4433
13.3203
14.7486
21.4461
19.268
10.6894
4.34402
1.63239
0.535827
0.0579326
0.0104593
0.113321
0.380656
4.47117
3.56641
1.19555
0.043511
-0.205719
-0.258897
-0.20819
-0.0734797
0.0254317
0.219898
-0.0240955
-0.112988
-0.226042
-0.27072
-0.263171
-0.285149
-0.284346
-0.266231
-0.227771
-0.0498308
-0.381851
-0.334741
-0.35833
-0.383624
-0.37835
-0.379873
-0.375746
-0.379504
-0.408132
-0.210136
-0.46243
-0.426163
-0.432752
-0.424738
-0.40974
-0.406852
-0.397158
-0.398077
-0.411792
-0.30293
-0.514067
-0.497032
-0.50532
-0.505653
-0.490714
-0.483172
-0.468475
-0.443477
-0.426945
-0.388501
-0.557202
-0.548842
-0.551298
-0.556126
-0.550987
-0.541347
-0.52824
-0.512249
-0.496906
-0.480577
-0.595499
-0.592538
-0.597929
-0.602573
-0.601933
-0.596592
-0.587965
-0.578871
-0.571065
-0.556635
-0.639517
-0.641319
-0.646264
-0.652338
-0.652348
-0.649326
-0.64314
-0.637402
-0.631125
-0.617453
-0.704719
-0.702872
-0.701713
-0.704213
-0.703284
-0.700786
-0.695898
-0.690421
-0.684749
-0.676511
-0.777958
-0.768856
-0.763105
-0.758927
-0.755643
-0.753134
-0.749211
-0.744336
-0.74005
-0.736855
-0.826931
-0.817476
-0.813766
-0.80854
-0.805687
-0.804966
-0.80275
-0.799755
-0.796752
-0.794425
388.974
388.919
388.347
387.489
386.533
385.615
384.83
384.201
383.716
383.372
340.033
340.013
339.365
338.397
337.346
336.362
335.522
334.834
334.285
333.882
291.208
291.343
290.595
289.423
288.152
286.955
285.935
285.101
284.416
283.852
242.504
242.882
241.848
240.267
238.608
237.093
235.837
234.803
233.893
233.098
193.448
194.388
193.027
190.937
188.723
186.741
185.068
183.64
182.309
181.208
147.407
146.624
144.574
141.343
138.028
135.159
132.868
131.156
129.58
128.444
101.875
101.354
96.9853
91.5193
86.7351
82.9422
80.6643
78.2066
76.4539
75.9847
60.0425
56.4762
49.2881
40.0276
32.2478
25.7246
21.8991
20.9293
19.4588
20.1349
21.1914
26.1663
13.2912
6.53252
3.20143
1.60756
0.775678
0.562742
0.27711
0.655867
13.1447
3.25725
1.17822
0.23866
-0.21433
-0.268272
-0.254148
-0.181402
-0.0246975
0.287332
-0.232984
-0.193948
-0.270584
-0.330342
-0.2756
-0.231486
-0.245121
-0.259142
-0.21486
-0.0173892
-0.367792
-0.274468
-0.356454
-0.397089
-0.354502
-0.331559
-0.36711
-0.434263
-0.480016
-0.286371
-0.426913
-0.405585
-0.449828
-0.460229
-0.432972
-0.415704
-0.427535
-0.470844
-0.561976
-0.396163
-0.506749
-0.497109
-0.511517
-0.526877
-0.517765
-0.512288
-0.503478
-0.509792
-0.52239
-0.443459
-0.552001
-0.542175
-0.547544
-0.569652
-0.575092
-0.570774
-0.559227
-0.54717
-0.531873
-0.507906
-0.573439
-0.569741
-0.586271
-0.610836
-0.62217
-0.622579
-0.613651
-0.602828
-0.591922
-0.579788
-0.603611
-0.616915
-0.640082
-0.66166
-0.670472
-0.671076
-0.66538
-0.65928
-0.652746
-0.638295
-0.685394
-0.694689
-0.711258
-0.719726
-0.719012
-0.719512
-0.714622
-0.709437
-0.702516
-0.691656
-0.794755
-0.782274
-0.787935
-0.777023
-0.770876
-0.767479
-0.76282
-0.757364
-0.75139
-0.74734
-0.853517
-0.841914
-0.83951
-0.823057
-0.817969
-0.814949
-0.811329
-0.807273
-0.803119
-0.802192
390.456
390.369
389.663
388.678
387.63
386.638
385.78
385.087
384.57
384.242
341.718
341.647
340.822
339.696
338.534
337.47
336.565
335.824
335.253
334.889
293.1
293.189
292.252
290.912
289.576
288.336
287.255
286.362
285.663
285.194
244.584
245.12
243.862
242.116
240.402
238.922
237.616
236.533
235.627
235.014
195.013
196.551
195.196
193.281
191.19
189.313
187.681
186.241
184.976
184.193
146.43
148.827
147.239
144.552
141.676
139.035
136.746
134.871
133.131
132.052
104.87
104.64
100.822
96.0858
91.9526
88.3519
85.5938
83.7
82.1823
81.8985
62.2524
57.2145
53.2474
45.922
40.3243
35.2623
31.1047
29.1759
27.0476
26.536
31.546
22.1185
17.2337
10.6085
6.64885
4.51047
2.98722
2.34211
1.44521
0.829641
20.9003
2.17816
2.62572
1.19061
-0.0252779
-0.275964
-0.275516
-0.260853
-0.122972
0.230266
-0.180761
-0.00811098
0.0776621
-0.202885
-0.324017
-0.201589
-0.159207
-0.202844
-0.159479
0.0882887
-0.278975
-0.106296
-0.344468
-0.45928
-0.368827
-0.267986
-0.30606
-0.397402
-0.464891
-0.275346
-0.372274
-0.350319
-0.521622
-0.588771
-0.503216
-0.429687
-0.444402
-0.52713
-0.646751
-0.483089
-0.48763
-0.464346
-0.534113
-0.603401
-0.572433
-0.540697
-0.541999
-0.591788
-0.654075
-0.520167
-0.55456
-0.489021
-0.507627
-0.592077
-0.605192
-0.600315
-0.59663
-0.600836
-0.60444
-0.544887
-0.607049
-0.516993
-0.515549
-0.611058
-0.632556
-0.646048
-0.64419
-0.636525
-0.623785
-0.604138
-0.671852
-0.5897
-0.599359
-0.667559
-0.675044
-0.688863
-0.691523
-0.685589
-0.675562
-0.662537
-0.706155
-0.696991
-0.726741
-0.743054
-0.734435
-0.736975
-0.736861
-0.73226
-0.722532
-0.710999
-0.782649
-0.788031
-0.853746
-0.807992
-0.789251
-0.784631
-0.780276
-0.774365
-0.765367
-0.759917
-0.860704
-0.897477
-0.905666
-0.848472
-0.834225
-0.828268
-0.822624
-0.817109
-0.811099
-0.810602
392.041
391.818
390.908
389.763
388.617
387.568
386.671
385.941
385.403
385.087
343.63
343.365
342.21
340.875
339.614
338.49
337.546
336.774
336.19
335.851
295.453
295.216
293.848
292.265
290.897
289.614
288.498
287.578
286.874
286.452
247.633
247.577
245.763
243.66
242.052
240.656
239.346
238.229
237.304
236.774
198.444
198.766
197.159
195.2
193.479
191.82
190.209
188.741
187.497
186.748
150.294
152.954
149.985
147.974
145.421
143.007
140.734
138.79
137.071
136.043
105.54
108.238
106.791
101.937
97.9383
94.5102
91.2809
89.1394
86.7426
85.8546
61.9765
58.0896
56.6245
53.4691
49.4922
45.6829
41.6516
39.4374
36.688
36.0206
24.5168
15.2021
30.3875
19.3386
14.1958
11.4401
8.76924
7.20147
5.19287
3.6401
4.85019
3.90671
5.67624
3.96021
0.975562
0.0450792
-0.162372
-0.33038
-0.299201
0.151561
1.26111
1.03741
1.46654
0.700699
-0.120206
-0.193795
-0.129402
-0.176159
-0.127217
0.172831
0.112121
0.102046
-0.155014
-0.283863
-0.317719
-0.244453
-0.268687
-0.363701
-0.42742
-0.209298
-0.4005
-0.324443
-0.582996
-0.693411
-0.56127
-0.472139
-0.472279
-0.562894
-0.698122
-0.523277
-0.565474
-0.457826
-0.584568
-0.74062
-0.631677
-0.596777
-0.596027
-0.657574
-0.790062
-0.598522
-0.62001
-0.528224
-0.52637
-0.676751
-0.655343
-0.656253
-0.660151
-0.678159
-0.709134
-0.595879
-0.676952
-0.603844
-0.564815
-0.670134
-0.687873
-0.697873
-0.704235
-0.697359
-0.676503
-0.63213
-0.717264
-0.643633
-0.684767
-0.719877
-0.725479
-0.735828
-0.743212
-0.734517
-0.708876
-0.690256
-0.703184
-0.702538
-0.80253
-0.778719
-0.771893
-0.771361
-0.777146
-0.769908
-0.748448
-0.735589
-0.714391
-0.815378
-0.884789
-0.829112
-0.818588
-0.809587
-0.807744
-0.800299
-0.783597
-0.776299
-0.719372
-0.895547
-0.906068
-0.869384
-0.860156
-0.848155
-0.841098
-0.832794
-0.821721
-0.8206
393.494
392.948
391.684
390.375
389.226
388.209
387.331
386.608
386.064
385.751
345.551
344.772
342.99
341.371
340.172
339.155
338.265
337.509
336.939
336.618
297.866
296.932
294.39
292.14
291.208
290.402
289.385
288.505
287.809
287.436
250.795
249.513
246.262
243.512
241.823
241.565
240.583
239.53
238.615
238.167
202.007
200.652
197.261
196.173
194.553
193.567
192.161
190.706
189.497
188.833
152.673
154.739
155.336
150.174
148.007
146.016
143.787
141.856
140.169
139.349
111.107
117.705
114.09
107.908
103.052
99.4912
95.8055
93.6644
91.2412
90.4925
59.7436
68.8058
66.7927
58.248
55.1857
52.3277
48.9351
46.7366
44.1937
45.0484
19.42
30.1032
34.7161
25.3837
21.4978
17.6268
14.0026
11.9437
11.1642
12.204
8.65395
9.29559
8.51104
4.85684
3.04668
1.83239
0.829634
0.248865
0.0945079
0.422295
3.5321
2.39957
3.56066
2.24767
0.717921
0.060984
-0.144928
-0.210139
-0.130947
0.235169
0.454629
0.147624
0.508155
0.587489
-0.030075
-0.258
-0.344362
-0.429786
-0.445741
-0.153983
-0.611901
-0.360492
-0.198565
-0.413821
-0.485211
-0.511086
-0.548223
-0.644258
-0.75846
-0.54254
-0.696873
-0.426579
-0.25843
-0.62118
-0.653446
-0.654291
-0.691065
-0.740956
-0.908793
-0.662606
-0.682382
-0.403701
-0.285963
-0.693201
-0.701212
-0.722105
-0.767158
-0.771952
-0.813274
-0.650596
-0.681568
-0.564979
-0.617392
-0.746875
-0.7301
-0.748001
-0.792811
-0.793634
-0.735467
-0.662115
-0.680452
-0.747026
-0.767255
-0.7529
-0.755341
-0.766453
-0.807139
-0.818003
-0.75105
-0.717699
-0.661381
-0.761863
-0.798899
-0.774447
-0.787011
-0.790014
-0.820817
-0.828511
-0.786723
-0.76405
-0.688399
-0.841448
-0.862121
-0.819162
-0.833441
-0.82309
-0.83643
-0.837248
-0.811424
-0.797428
-0.641131
-0.898868
-0.910894
-0.88303
-0.881823
-0.863757
-0.861322
-0.854832
-0.837358
-0.833081
394.734
393.607
391.934
390.662
389.532
388.551
387.696
386.982
386.441
386.131
347.221
345.341
342.804
341.462
340.524
339.541
338.665
337.932
337.365
337.057
300.011
297.588
293.882
291.677
291.349
290.821
289.868
289.019
288.335
287.992
252.977
250.939
246.678
242.918
242.567
242.589
241.308
240.278
239.349
238.962
204.284
202.721
198.595
200.038
198.535
194.708
193.366
191.809
190.608
190.024
157.772
159.616
160.371
159.945
151.862
148.002
145.574
143.489
141.897
141.306
116.862
126.257
119.318
113.584
106.374
102.338
97.9879
95.6305
93.551
93.6669
57.019
91.2421
77.5315
64.5101
59.2361
55.8712
50.638
48.8218
47.342
50.5846
28.3721
42.0673
40.6299
19.8649
20.137
18.4597
13.1502
11.0987
12.5207
21.5868
13.4465
13.5778
10.7615
5.75965
5.3921
4.39342
2.41897
1.07143
1.0995
2.19034
5.95097
5.41839
5.01357
3.60413
2.31444
1.0359
0.188112
-0.184457
-0.10292
0.351325
0.703025
1.32598
1.48477
1.7513
0.41295
-0.252332
-0.48235
-0.553241
-0.549987
-0.194046
-0.420857
0.0252144
0.120949
0.469574
-0.289481
-0.512014
-0.678139
-0.732268
-0.840262
-0.580512
-0.431296
-0.367093
-0.28108
-0.503068
-0.547289
-0.716488
-0.844038
-0.792085
-0.975739
-0.70829
-0.664127
-0.592776
-0.26657
-0.724553
-0.671243
-0.793187
-0.916129
-0.83824
-0.859693
-0.683331
-0.753882
-0.819964
-0.471678
-0.734463
-0.726401
-0.773935
-0.9061
-0.89462
-0.736313
-0.672609
-0.777993
-0.797309
-0.792608
-0.759514
-0.747489
-0.771974
-0.86593
-0.919689
-0.762488
-0.727151
-0.778802
-0.787575
-0.786504
-0.767014
-0.778551
-0.791609
-0.846113
-0.88137
-0.830229
-0.78518
-0.823418
-0.813431
-0.815473
-0.794882
-0.827558
-0.823226
-0.840565
-0.857714
-0.849676
-0.818083
-0.849328
-0.844749
-0.857096
-0.8543
-0.889045
-0.868578
-0.858737
-0.870739
-0.86059
-0.846334
395.003
393.734
391.966
390.556
389.49
388.56
387.726
387.019
386.479
386.167
347.86
345.687
342.925
341.238
340.253
339.477
338.685
337.973
337.405
337.094
300.328
297.746
293.737
291.117
290.802
290.713
289.88
289.063
288.378
288.03
252.009
249.836
245.884
241.92
241.472
242.495
241.4
240.358
239.403
239.006
202.85
202.279
198.461
200.935
200.929
195.075
193.609
191.96
190.685
190.09
156.204
161.248
159.388
158.638
153.508
148.727
146.001
143.694
141.991
141.432
112.463
117.464
114.107
110.041
106.67
103.393
98.5725
95.8567
93.6298
93.9364
56.1412
77.8071
64.8095
57.8458
60.1158
61.1638
51.9592
48.9534
47.9171
51.6965
29.9864
42.3487
35.4545
17.5864
32.7234
41.3831
17.9841
11.203
13.0136
24.0296
13.406
15.3269
11.4781
7.36351
8.64614
7.15308
3.41144
1.44214
1.22889
2.49947
5.18039
4.70817
4.52998
4.24586
3.72174
1.61006
0.660122
-0.12307
-0.176833
0.215516
0.705683
0.394397
0.918444
1.98076
0.683501
-0.132857
-0.534369
-0.557903
-0.628711
-0.301405
-0.272693
-0.614227
-0.619323
0.0879923
-0.0942329
-0.314336
-0.555838
-0.690542
-0.864538
-0.623048
-0.372449
-0.69617
-0.78327
-0.424902
-0.459844
-0.533211
-0.730537
-0.749684
-0.957417
-0.716742
-0.232767
-0.573972
-0.672683
-0.659401
-0.711356
-0.634649
-0.700614
-0.773945
-0.804348
-0.675701
-0.552069
-0.77444
-0.77183
-0.827081
-0.790534
-0.774522
-0.498731
-0.42943
-0.638274
-0.647161
-0.822846
-0.82871
-0.869442
-0.874844
-0.792251
-0.802273
-0.655948
-0.505081
-0.717374
-0.713083
-0.830451
-0.811676
-0.820566
-0.813514
-0.802299
-0.807725
-0.855099
-0.882818
-0.853973
-0.788237
-0.860087
-0.830348
-0.811188
-0.796491
-0.819231
-0.827
-0.843556
-0.871403
-0.872424
-0.824536
-0.879133
-0.86586
-0.829914
-0.824893
-0.870809
-0.868601
-0.855925
-0.874208
-0.877202
-0.851117
393.513
393.059
391.802
390.505
389.349
388.318
387.444
386.721
386.175
385.858
345.503
344.846
343.092
341.498
340.288
339.242
338.374
337.627
337.049
336.722
297.576
296.588
294.127
292.001
291.166
290.433
289.496
288.622
287.916
287.538
249.057
247.745
244.767
242.665
241.466
241.306
240.646
239.637
238.717
238.26
201.075
201.353
201.718
196.792
195.058
193.861
192.467
190.928
189.622
188.933
159.916
160.151
155.553
151.732
148.774
146.707
144.383
142.244
140.318
139.501
115.447
112.269
109.501
105.571
102.547
100.588
96.8069
94.2848
91.3944
90.6905
65.7883
57.9119
55.6555
52.8043
53.2287
54.1853
50.6403
48.2632
45.3641
45.9929
23.6154
28.9581
17.7052
11.144
16.8304
21.1773
16.2425
14.184
11.7993
12.3908
7.58798
9.88513
5.46441
4.6423
6.08493
5.00373
2.57511
0.719921
0.00265349
0.106639
1.57417
1.87136
1.93288
2.49079
2.51961
1.44207
0.301349
-0.275831
-0.30521
-0.023455
-0.385024
-0.790653
-0.260085
0.580703
-0.111302
-0.277029
-0.45871
-0.589315
-0.595057
-0.341385
-0.767236
-1.0616
-1.10886
-0.776479
-0.821821
-0.688166
-0.646385
-0.674297
-0.807108
-0.628926
-0.829101
-0.976882
-1.0711
-1.02788
-1.01573
-0.851242
-0.67933
-0.650576
-0.900499
-0.707504
-0.817428
-0.864777
-0.90721
-0.933864
-1.00999
-0.825203
-0.650269
-0.705591
-0.815024
-0.687877
-0.796499
-0.802665
-0.825652
-0.854266
-0.906201
-0.637826
-0.602296
-0.819629
-0.744141
-0.690518
-0.793806
-0.788773
-0.810887
-0.826717
-0.812436
-0.77506
-0.486327
-0.834547
-0.789057
-0.74428
-0.815963
-0.763036
-0.782665
-0.780676
-0.774289
-0.854719
-0.82985
-0.897876
-0.845701
-0.798075
-0.843155
-0.764078
-0.754758
-0.740859
-0.741447
-0.833607
-0.861253
-0.896106
-0.853008
-0.827762
-0.875104
-0.780476
-0.753767
-0.735372
-0.747486
-0.844867
-0.855652
-0.873421
-0.861514
-0.852764
391.904
391.805
390.968
389.873
388.769
387.746
386.86
386.131
385.586
385.26
343.32
343.205
342.175
340.947
339.74
338.66
337.737
336.967
336.37
336.016
294.509
294.599
293.625
292.268
291.016
289.816
288.72
287.778
287.049
286.619
245.282
245.121
244.613
243.272
242.042
240.857
239.589
238.436
237.453
236.904
197.693
201.762
197.448
195.773
194.108
192.435
190.703
189.04
187.622
186.834
157.717
155.124
151.949
149.295
146.766
144.206
141.578
139.233
137.1
136.091
114.03
108.55
105.516
102.915
99.919
96.5431
92.6368
89.7268
86.4022
85.6172
67.6949
57.2215
51.4854
52.0434
51.9641
49.9062
44.3715
40.9316
36.5933
36.4142
20.3216
15.9745
9.08537
17.2166
20.3517
16.3274
11.1181
7.5578
4.52802
3.50834
2.57943
2.34301
1.20227
1.81847
3.14822
2.40067
0.389529
-0.477404
-0.410282
-0.0584176
-0.855454
-0.51019
-0.147621
0.247303
0.15083
-0.0929881
-0.345997
-0.408853
-0.315522
-0.103184
-0.58795
-0.785677
-0.709805
-0.408811
-0.496518
-0.50456
-0.548831
-0.580927
-0.58229
-0.415142
-0.721841
-0.870231
-0.944479
-0.841921
-0.798192
-0.749168
-0.648255
-0.688835
-0.776094
-0.634117
-0.74773
-0.854537
-0.919487
-0.895496
-0.898639
-0.929031
-0.77831
-0.727933
-0.838838
-0.694375
-0.769834
-0.810169
-0.855031
-0.877074
-0.925745
-1.03494
-1.01457
-0.82543
-0.79759
-0.703955
-0.781364
-0.790931
-0.813568
-0.843215
-0.894759
-0.996013
-1.06329
-0.909807
-0.793191
-0.728546
-0.796746
-0.776437
-0.786292
-0.806693
-0.841217
-0.906673
-0.974629
-0.92832
-0.820835
-0.765077
-0.805706
-0.754088
-0.758636
-0.764918
-0.779222
-0.848055
-0.886998
-0.908664
-0.837932
-0.797692
-0.821142
-0.75219
-0.73813
-0.718646
-0.719117
-0.797572
-0.843982
-0.868797
-0.839274
-0.824034
-0.854326
-0.798304
-0.729069
-0.674157
-0.695043
-0.776956
-0.836825
-0.856441
-0.851942
-0.851801
390.375
390.405
389.775
388.85
387.851
386.891
386.048
385.356
384.829
384.484
341.399
341.557
340.876
339.843
338.748
337.729
336.841
336.094
335.503
335.093
292.02
292.821
292.199
291.013
289.805
288.626
287.551
286.632
285.906
285.454
242.03
243.378
243.312
242.007
240.605
239.236
237.948
236.791
235.805
235.182
199.006
196.41
195.69
193.941
191.97
190.038
188.232
186.529
185.038
184.23
157.404
150.796
148.985
146.258
143.243
140.29
137.523
135.168
132.868
131.997
111.065
105.576
102.931
98.7495
94.5127
90.4473
86.7512
83.8687
81.3596
80.7801
63.485
54.9414
52.5061
51.688
45.6598
39.1684
32.789
30.0345
26.5066
27.0022
18.587
12.2809
17.7521
15.562
10.4204
6.3201
2.93948
2.10156
0.87973
0.552844
-0.33309
-0.590254
0.134493
0.601859
0.522214
-0.287699
-0.545953
-0.453491
-0.244111
-0.046335
-0.78519
-1.04517
-0.959548
-0.556993
-0.570464
-0.529988
-0.453799
-0.398075
-0.337446
-0.204117
-0.520092
-0.619502
-0.629679
-0.55486
-0.541304
-0.538955
-0.543263
-0.572345
-0.596932
-0.460059
-0.640255
-0.700248
-0.751267
-0.736367
-0.70282
-0.680861
-0.647098
-0.661606
-0.732116
-0.586609
-0.691533
-0.744479
-0.789129
-0.787321
-0.774263
-0.779426
-0.746924
-0.718045
-0.735565
-0.646267
-0.733215
-0.757397
-0.788233
-0.802691
-0.81738
-0.839933
-0.832966
-0.772865
-0.735338
-0.688035
-0.756941
-0.763191
-0.778
-0.794638
-0.817984
-0.853008
-0.861291
-0.816717
-0.758582
-0.724514
-0.778305
-0.768617
-0.768974
-0.779802
-0.79685
-0.834439
-0.849185
-0.834479
-0.783859
-0.754229
-0.79613
-0.774998
-0.765474
-0.766522
-0.776105
-0.815873
-0.839322
-0.834866
-0.80317
-0.785468
-0.817332
-0.791643
-0.772709
-0.761621
-0.766115
-0.805468
-0.834584
-0.836655
-0.821273
-0.817744
-0.845163
-0.821227
-0.795156
-0.775146
-0.786537
-0.816833
-0.845721
-0.853456
-0.848169
-0.851121
389.027
389.048
388.539
387.743
386.838
385.954
385.185
384.556
384.062
383.708
339.922
340.074
339.538
338.652
337.663
336.719
335.887
335.189
334.623
334.203
290.685
291.315
290.764
289.713
288.525
287.351
286.318
285.449
284.731
284.158
241.228
242.178
241.865
240.549
239.032
237.555
236.258
235.125
234.13
233.318
197.693
194.563
193.802
191.809
189.625
187.509
185.618
183.929
182.395
181.279
150.641
148.024
146.319
143.068
139.549
136.258
133.539
131.327
129.289
128.189
104.967
102.852
99.5452
94.2087
89.1345
84.708
81.4897
78.0773
75.3178
74.6913
57.2998
54.2141
53.3863
45.7375
36.7946
27.3109
22.2271
21.3034
18.7344
20.1566
18.2442
22.3948
20.3537
9.372
4.25437
0.895327
0.161946
0.305629
-0.0154498
0.165932
0.110289
-0.011951
0.669074
2.34178
0.963127
-0.427134
-0.513209
-0.333282
-0.176717
-0.0522687
-0.386702
-0.602927
-0.594704
-0.417502
-0.429288
-0.412715
-0.437206
-0.411025
-0.36201
-0.273674
-0.496892
-0.482449
-0.471438
-0.489707
-0.496462
-0.50984
-0.534211
-0.552772
-0.546974
-0.424309
-0.588782
-0.583147
-0.60066
-0.628703
-0.616782
-0.607689
-0.597064
-0.592684
-0.601554
-0.51888
-0.654
-0.664112
-0.682887
-0.70259
-0.698006
-0.685811
-0.665297
-0.643068
-0.634906
-0.594194
-0.70299
-0.714309
-0.727079
-0.739833
-0.741027
-0.73499
-0.720775
-0.693524
-0.674133
-0.654421
-0.731091
-0.736276
-0.743816
-0.754329
-0.761533
-0.763831
-0.75497
-0.732809
-0.709471
-0.694824
-0.757609
-0.753461
-0.75305
-0.761549
-0.769606
-0.778012
-0.776028
-0.763409
-0.743384
-0.730838
-0.786631
-0.775799
-0.768831
-0.771051
-0.77663
-0.788939
-0.793455
-0.787952
-0.776984
-0.771279
-0.817012
-0.801959
-0.791016
-0.786235
-0.788744
-0.803955
-0.812661
-0.813459
-0.809818
-0.810793
-0.849928
-0.835543
-0.822644
-0.813742
-0.81398
-0.829594
-0.842564
-0.84692
-0.847083
-0.849747
387.831
387.825
387.386
386.677
385.86
385.076
384.404
383.863
383.422
383.056
338.761
338.795
338.311
337.522
336.63
335.767
335.02
334.409
333.89
333.422
289.794
289.961
289.396
288.405
287.262
286.163
285.222
284.448
283.767
283.055
241.185
241.161
240.431
239.044
237.485
236.028
234.782
233.714
232.703
231.6
193.518
193.114
191.888
189.778
187.444
185.259
183.405
181.649
179.948
178.461
146.756
145.719
143.588
140.053
136.262
133.054
130.481
127.763
125.348
123.88
100.624
99.5207
95.8047
90.0749
84.7589
80.3363
75.6515
71.1146
66.8989
66.5576
54.201
53.3655
49.8555
39.2737
28.0778
19.8751
17.9314
16.1791
12.4548
14.5065
17.8214
21.872
15.3931
5.47509
0.738777
-0.468755
-0.363004
-0.0820453
-0.00393309
0.0584275
0.294532
0.484815
1.91646
2.05706
0.396983
-0.473005
-0.429955
-0.211303
-0.130769
-0.074283
-0.364987
-0.381976
-0.319492
-0.331841
-0.39383
-0.437635
-0.480959
-0.394296
-0.309537
-0.252947
-0.531652
-0.471984
-0.457998
-0.481465
-0.518908
-0.534392
-0.536496
-0.486193
-0.437486
-0.366877
-0.587967
-0.561652
-0.540521
-0.578007
-0.584938
-0.57538
-0.547708
-0.525683
-0.512407
-0.46504
-0.635846
-0.635555
-0.629097
-0.652664
-0.656991
-0.639686
-0.614819
-0.590334
-0.58
-0.553908
-0.681584
-0.690863
-0.684993
-0.693369
-0.69388
-0.683661
-0.667592
-0.650325
-0.634754
-0.616805
-0.712849
-0.716945
-0.715466
-0.720477
-0.72348
-0.71955
-0.709003
-0.692876
-0.676704
-0.664506
-0.743287
-0.740405
-0.738114
-0.743128
-0.746795
-0.747984
-0.743484
-0.731905
-0.719555
-0.712556
-0.77696
-0.771292
-0.766037
-0.766805
-0.767651
-0.775565
-0.77607
-0.769911
-0.763256
-0.760869
-0.811623
-0.804562
-0.798315
-0.793751
-0.793952
-0.806001
-0.811329
-0.809291
-0.805745
-0.805498
-0.848231
-0.84131
-0.834976
-0.829143
-0.828923
-0.842008
-0.851844
-0.852433
-0.850174
-0.849994
386.826
386.794
386.394
385.752
385.025
384.344
383.788
383.363
382.998
382.613
337.757
337.726
337.273
336.554
335.739
334.97
334.343
333.863
333.429
332.888
288.82
288.801
288.216
287.264
286.191
285.194
284.393
283.796
283.227
282.301
240.103
239.94
239.067
237.691
236.182
234.794
233.676
232.806
231.883
230.349
192.079
191.526
190.11
188.002
185.612
183.493
181.659
179.898
178.178
176.22
144.301
143.297
140.894
137.278
133.703
130.782
127.65
124.061
121.373
119.718
96.9731
95.5585