/*--------------------------------*- C++ -*----------------------------------*\
| =========                 |                                                 |
| \\      /  F ield         | OpenFOAM: The Open Source CFD Toolbox           |
|  \\    /   O peration     | Version:  2312                                  |
|   \\  /    A nd           | Website:  www.openfoam.com                      |
|    \\/     M anipulation  |                                                 |
\*---------------------------------------------------------------------------*/
FoamFile
{
    version     2.0;
    format      ascii;
    arch        "LSB;label=32;scalar=64";
    class       surfaceScalarField;
    location    "0.46";
    object      alphaPhi0.water;
}
// * * * * * * * * * * * * * * * * * * * * * * * * * * * * * * * * * * * * * //

dimensions      [0 3 -1 0 0 0 0];

oriented        oriented;

internalField   nonuniform List<scalar> 
22600
(
-1.34124e-07
2.67726e-07
-1.33601e-07
-2.40616e-07
2.31041e-07
-1.2455e-07
-3.35064e-07
2.24569e-07
-1.3012e-07
-4.03769e-07
2.04698e-07
-1.35994e-07
-4.36899e-07
1.76128e-07
-1.42997e-07
-4.29487e-07
1.46285e-07
-1.53698e-07
-3.79108e-07
1.17602e-07
-1.6798e-07
-2.86348e-07
9.29175e-08
-1.85678e-07
-1.59942e-07
7.52261e-08
-2.01632e-07
6.5417e-08
-2.1617e-07
-1.82597e-07
6.32851e-07
-1.82529e-07
-3.35416e-07
5.50649e-07
-1.66789e-07
-4.55811e-07
5.1775e-07
-1.72786e-07
-5.35189e-07
4.6134e-07
-1.77264e-07
-5.6481e-07
3.89259e-07
-1.8351e-07
-5.41713e-07
3.17764e-07
-1.94576e-07
-4.66941e-07
2.52254e-07
-2.09424e-07
-3.45294e-07
1.98779e-07
-2.27509e-07
-1.88615e-07
1.6104e-07
-2.42493e-07
1.39663e-07
-2.55797e-07
-1.96481e-07
1.02515e-06
-1.95816e-07
-3.59017e-07
8.93206e-07
-1.80021e-07
-4.87279e-07
8.28501e-07
-1.82489e-07
-5.77218e-07
7.3439e-07
-1.83112e-07
-6.12616e-07
6.10386e-07
-1.85729e-07
-5.89687e-07
4.88478e-07
-1.93643e-07
-5.10836e-07
3.79439e-07
-2.06035e-07
-3.80004e-07
2.91847e-07
-2.23899e-07
-2.08657e-07
2.30861e-07
-2.41168e-07
1.95115e-07
-2.55922e-07
-2.32301e-07
1.48728e-06
-2.2983e-07
-4.5096e-07
1.31951e-06
-2.07648e-07
-5.9891e-07
1.19603e-06
-2.19579e-07
-6.95162e-07
1.03925e-06
-2.08609e-07
-7.30964e-07
8.45499e-07
-1.99311e-07
-6.99416e-07
6.51648e-07
-1.94717e-07
-6.00179e-07
4.75874e-07
-1.95672e-07
-4.41447e-07
3.37567e-07
-2.04452e-07
-2.4049e-07
2.42926e-07
-2.13022e-07
1.85185e-07
-2.21163e-07
-1.36593e-07
1.75485e-06
-1.30972e-07
-4.32509e-07
1.69474e-06
-7.93087e-08
-6.7601e-07
1.62374e-06
-1.84209e-07
-8.28632e-07
1.3931e-06
-2.0123e-07
-8.82878e-07
1.07204e-06
-1.72296e-07
-8.44853e-07
7.62552e-07
-1.4893e-07
-7.24581e-07
4.83408e-07
-1.27805e-07
-5.33283e-07
2.51905e-07
-1.05637e-07
-2.89988e-07
8.60526e-08
-8.64219e-08
-1.22791e-08
-8.14815e-08
-4.11828e-08
1.87828e-06
-8.22481e-08
-5.22025e-07
2.07572e-06
9.98602e-08
-1.00706e-06
2.10474e-06
4.03601e-09
-1.29661e-06
1.72672e-06
-4.40663e-08
-1.40503e-06
1.17787e-06
2.59146e-09
-1.37535e-06
6.21425e-07
1.11449e-07
-1.20059e-06
1.05943e-07
2.027e-07
-8.82984e-07
-3.10907e-07
2.45211e-07
-4.80482e-07
-5.70905e-07
2.54456e-07
-6.93908e-07
2.53886e-07
-9.90101e-08
2.1231e-06
-1.45814e-07
-7.39019e-07
2.64739e-06
6.83398e-08
-1.46326e-06
2.65589e-06
1.73087e-07
-1.95731e-06
1.98933e-06
2.31434e-07
-2.17627e-06
1.06571e-06
3.31126e-07
-2.07571e-06
1.07325e-07
4.13535e-07
-1.71103e-06
-6.66651e-07
4.07914e-07
-1.20821e-06
-1.14019e-06
3.26456e-07
-6.32755e-07
-1.40331e-06
2.56956e-07
-1.52377e-06
2.46285e-07
-6.62978e-07
3.40918e-06
-6.23099e-07
-1.70573e-06
4.12523e-06
-4.35087e-07
-2.61938e-06
3.75802e-06
-1.88473e-07
-2.95026e-06
2.3928e-06
-7.25925e-08
-2.85028e-06
8.34669e-07
-3.59422e-08
-2.51567e-06
-1.79703e-07
-8.48544e-08
-1.99613e-06
-1.0855e-06
-1.63927e-07
-1.33664e-06
-1.60111e-06
-1.98774e-07
-6.46377e-07
-1.9045e-06
-1.89306e-07
-2.05648e-06
-1.48914e-07
-1.49778e-06
6.28389e-06
-1.37693e-06
-3.10419e-06
6.70331e-06
-9.71699e-07
-3.99111e-06
4.14858e-06
-8.09784e-07
-3.70226e-06
1.39716e-06
-6.96587e-07
-3.14151e-06
3.44293e-07
-5.59146e-07
-2.49656e-06
-1.17035e-07
-4.16777e-07
-1.84693e-06
-4.20367e-07
-3.01e-07
-1.24102e-06
-6.29063e-07
-2.26481e-07
-6.12904e-07
-7.74394e-07
-1.98823e-07
-8.34969e-07
-2.09397e-07
-1.62904e-06
9.38904e-06
-1.47708e-06
-2.20744e-06
5.46042e-06
-8.85905e-07
-1.31855e-06
2.26262e-07
-3.20583e-07
-5.61136e-07
2.83355e-08
-9.78091e-08
-2.25549e-07
4.66686e-09
-9.65998e-09
-1.02542e-07
-7.62862e-11
1.42695e-08
-8.47886e-08
-4.5633e-11
1.31606e-08
-7.27798e-08
-2.73037e-11
2.11862e-08
-3.92162e-08
-5.91441e-11
3.21581e-08
-8.42596e-11
4.05942e-08
-7.30135e-07
6.79087e-06
-5.3157e-07
5.19083e-09
4.80892e-07
-1.85259e-07
-3.09175e-08
3.4891e-08
1.43814e-08
-5.64559e-09
5.08699e-09
-2.65987e-09
-7.6852e-12
2.60505e-10
-1.18319e-09
-3.8404e-12
-1.25854e-13
-5.28753e-11
-1.59478e-12
-1.22348e-11
-2.47923e-11
-1.01705e-12
-2.27717e-11
-1.50231e-12
-2.26887e-13
-4.27211e-11
-1.60734e-12
-4.92797e-11
-5.27885e-12
2.18844e-07
4.82535e-10
4.41264e-07
-3.45475e-08
-8.8761e-09
-3.29721e-08
-5.14256e-09
5.63346e-09
-7.56311e-10
-3.71234e-10
7.85036e-10
-4.39071e-10
-4.01057e-11
4.22884e-11
-7.6985e-11
-2.54475e-11
1.58587e-11
-1.33756e-11
-1.69989e-11
4.59143e-11
-3.85225e-11
-1.27245e-11
3.33768e-11
-6.26313e-12
-1.5679e-12
2.3371e-11
-2.50705e-11
1.58438e-11
-4.36122e-11
-9.06823e-10
3.88745e-09
-7.67767e-09
-3.05233e-09
-4.00815e-10
-7.03013e-09
-6.35244e-10
3.59068e-09
-4.46802e-10
-5.80587e-11
2.27458e-10
-2.2724e-11
-3.2779e-11
1.1895e-11
2.36392e-12
-2.96351e-11
7.92602e-12
-6.62024e-13
-2.3992e-11
3.58567e-11
-4.25456e-11
-1.96709e-11
4.00836e-11
-5.68031e-11
1.15439e-11
2.31653e-11
-3.15429e-11
3.33717e-11
-7.58846e-11
1.89995e-09
1.14584e-09
1.19438e-09
4.72332e-10
1.41195e-09
-9.63114e-10
2.90222e-12
9.14334e-09
-2.03934e-10
-7.94293e-12
1.04878e-09
3.98335e-11
-1.20989e-11
3.04818e-12
1.0252e-11
-1.28532e-11
-3.40538e-12
1.04297e-11
-2.14464e-11
6.76834e-12
1.47283e-11
-3.40882e-12
1.20548e-11
-2.4567e-11
2.69182e-12
8.62028e-12
-4.57354e-13
1.02024e-11
-1.11995e-11
7.53602e-10
8.88212e-11
7.83749e-10
1.42036e-09
4.80267e-10
5.23141e-10
2.82024e-09
9.55065e-09
6.78759e-10
5.36588e-11
1.92458e-09
6.0504e-10
6.75122e-12
1.27324e-12
4.75963e-11
-1.92092e-12
-1.31103e-11
1.85748e-11
-3.1812e-12
-1.8038e-12
9.05049e-12
-1.23575e-12
3.78631e-12
4.55544e-12
9.72905e-13
7.02699e-12
-9.23385e-13
7.37926e-12
1.17548e-12
2.24921e-10
-1.28526e-10
7.5882e-10
3.23312e-10
1.15304e-10
2.35243e-10
1.73774e-09
5.83479e-10
1.19928e-09
2.71253e-11
2.51127e-10
5.98425e-10
3.00453e-12
1.13024e-11
7.10464e-11
7.34595e-12
-2.44731e-11
2.78532e-11
-1.77581e-12
-5.74835e-12
2.62003e-11
-5.51075e-13
2.80077e-12
4.5321e-12
6.60782e-13
2.93069e-12
2.57659e-12
4.80143e-12
1.38824e-11
-5.75373e-11
-2.523e-10
3.2549e-10
-1.76394e-12
2.60505e-11
2.23284e-11
8.91019e-11
-4.38071e-11
8.2455e-11
9.82596e-11
3.38131e-11
3.98364e-11
8.27623e-11
4.77343e-11
-1.3029e-11
2.59038e-11
9.80444e-12
1.09963e-11
2.05228e-12
9.46604e-13
1.4911e-11
-1.41264e-13
2.14652e-13
5.28288e-12
3.36793e-13
5.43617e-13
3.71612e-12
3.17324e-12
5.59507e-12
-5.20762e-11
6.66116e-11
5.18308e-11
-4.49536e-11
7.10497e-12
6.89306e-13
4.74242e-12
5.26921e-11
-2.04945e-11
4.50101e-11
7.10025e-11
-1.03211e-10
3.79675e-11
3.3265e-11
-2.89858e-11
1.04214e-11
2.40054e-12
3.4381e-12
8.81943e-13
-4.07539e-14
2.31024e-12
-4.40081e-15
-5.81511e-16
7.72011e-13
2.52992e-14
-2.71815e-17
2.58905e-13
4.15536e-16
4.92109e-13
-3.76034e-11
5.21476e-10
1.58375e-11
-4.8176e-11
7.72684e-12
-1.59912e-12
-1.46177e-11
9.51038e-11
-7.87849e-11
-4.71689e-15
1.33648e-11
-1.43005e-11
5.72361e-13
1.09158e-13
2.01529e-12
4.57993e-14
2.5627e-15
1.98018e-13
7.79616e-16
-9.21515e-17
5.39328e-15
1.21568e-16
-6.73249e-18
1.41543e-16
2.7158e-17
1.36345e-21
7.72058e-17
-1.72495e-21
4.09562e-16
-5.59695e-11
8.28902e-11
6.63779e-10
-3.26457e-12
-4.13525e-13
1.35136e-10
-8.20538e-13
-8.65319e-12
9.08317e-11
-3.39833e-14
6.41012e-13
1.89794e-12
-1.90017e-15
6.87534e-14
5.33914e-15
-9.14499e-18
1.11121e-15
-4.56347e-17
7.22433e-19
1.07096e-17
-3.05955e-19
1.38888e-21
1.84357e-19
-6.6505e-21
-8.08039e-22
1.78467e-21
-3.30488e-22
2.80216e-21
-4.98638e-21
-1.25081e-07
2.30882e-07
-2.39402e-07
-2.11971e-07
1.72808e-07
-2.10469e-07
-2.88638e-07
1.68505e-07
-2.21957e-07
-3.44507e-07
1.4804e-07
-2.28165e-07
-3.66816e-07
1.13019e-07
-2.33708e-07
-3.51277e-07
7.31517e-08
-2.42388e-07
-3.00471e-07
3.35975e-08
-2.52383e-07
-2.21249e-07
-4.39377e-10
-2.64461e-07
-1.22498e-07
-2.79758e-08
-2.72407e-07
-4.7972e-08
-2.82829e-07
-1.67027e-07
5.50202e-07
-3.34822e-07
-2.93579e-07
4.25203e-07
-2.92631e-07
-3.93867e-07
3.99538e-07
-3.03532e-07
-4.62206e-07
3.45532e-07
-3.06417e-07
-4.86198e-07
2.62268e-07
-3.08767e-07
-4.64355e-07
1.73005e-07
-3.16272e-07
-3.98568e-07
8.54992e-08
-3.27113e-07
-2.93588e-07
6.50048e-09
-3.39428e-07
-1.62118e-07
-5.47399e-08
-3.47198e-07
-1.04959e-07
-3.54348e-07
-1.8238e-07
8.94674e-07
-3.57909e-07
-3.15089e-07
6.88333e-07
-3.10442e-07
-4.18853e-07
6.42764e-07
-3.2195e-07
-4.95541e-07
5.6158e-07
-3.22472e-07
-5.24449e-07
4.29585e-07
-3.24137e-07
-5.01159e-07
2.87709e-07
-3.31637e-07
-4.3139e-07
1.5472e-07
-3.45024e-07
-3.24082e-07
3.87408e-08
-3.63447e-07
-1.81888e-07
-6.32302e-08
-3.74871e-07
-1.51246e-07
-3.84721e-07
-2.12022e-07
1.32438e-06
-4.47512e-07
-3.93458e-07
1.04824e-06
-3.86123e-07
-5.1625e-07
9.40942e-07
-3.94965e-07
-5.98563e-07
8.08785e-07
-3.735e-07
-6.28509e-07
6.10001e-07
-3.49782e-07
-6.01088e-07
4.04956e-07
-3.39386e-07
-5.16864e-07
2.16057e-07
-3.41233e-07
-3.81916e-07
5.11572e-08
-3.51816e-07
-2.09104e-07
-8.49637e-08
-3.641e-07
-1.85729e-07
-3.87333e-07
-7.1855e-08
1.69897e-06
-4.33708e-07
-2.29887e-07
1.39063e-06
-2.63664e-07
-4.48155e-07
1.33703e-06
-3.62025e-07
-6.33178e-07
1.19353e-06
-4.00957e-07
-7.12767e-07
9.00927e-07
-3.83632e-07
-6.914e-07
6.03142e-07
-3.68483e-07
-5.95181e-07
3.52918e-07
-3.60884e-07
-4.43952e-07
1.47067e-07
-3.52776e-07
-2.48827e-07
-1.86332e-08
-3.47877e-07
-1.17596e-07
-3.79675e-07
1.73899e-07
2.05176e-06
-6.08933e-07
-5.07874e-08
1.88869e-06
-1.73516e-07
-4.61374e-07
1.9278e-06
-1.76155e-07
-7.71073e-07
1.71025e-06
-2.51081e-07
-9.16284e-07
1.25754e-06
-2.08815e-07
-9.18336e-07
8.27697e-07
-1.11054e-07
-8.17576e-07
5.08453e-07
-5.35947e-08
-6.29867e-07
2.65004e-07
-6.04357e-08
-3.69717e-07
8.1364e-08
-1.05691e-07
-1.68175e-08
-1.59094e-07
1.03344e-07
2.61386e-06
-8.11266e-07
-3.4247e-07
2.82656e-06
-4.23718e-07
-8.55805e-07
2.83834e-06
-2.24115e-07
-1.16082e-06
2.39638e-06
-1.49685e-07
-1.28771e-06
1.77248e-06
-5.6917e-08
-1.25153e-06
1.21673e-06
-1.16785e-08
-1.05788e-06
7.95016e-07
-7.22898e-08
-7.55234e-07
4.89228e-07
-2.00412e-07
-4.07509e-07
3.01849e-07
-3.11248e-07
2.2675e-07
-3.70418e-07
-4.62056e-07
4.1198e-06
-1.66698e-06
-1.30771e-06
4.56616e-06
-1.32902e-06
-1.9093e-06
4.29004e-06
-1.03858e-06
-2.14846e-06
3.46717e-06
-9.04218e-07
-2.11643e-06
2.5177e-06
-8.13194e-07
-1.89972e-06
1.71485e-06
-7.9968e-07
-1.54713e-06
1.11678e-06
-8.38277e-07
-1.09979e-06
7.16287e-07
-8.73167e-07
-5.78315e-07
4.71688e-07
-8.80613e-07
3.59408e-07
-8.60716e-07
-1.0244e-06
6.81104e-06
-3.04381e-06
-2.04897e-06
6.51045e-06
-2.0246e-06
-2.67129e-06
3.76405e-06
-1.56007e-06
-2.67073e-06
1.72507e-06
-1.04669e-06
-2.29008e-06
6.24142e-07
-5.99272e-07
-1.7666e-06
1.70164e-07
-2.35501e-07
-1.28765e-06
6.66077e-09
-1.25804e-08
-8.73875e-07
-1.47427e-07
9.12201e-08
-4.49883e-07
-2.44105e-07
1.13441e-07
-2.5776e-07
5.89681e-08
-7.98853e-07
5.31035e-06
-2.27176e-06
-9.00444e-07
1.91638e-06
-9.13446e-07
-6.28078e-07
-1.58246e-08
-2.3667e-07
-3.22811e-07
5.87487e-09
-1.55172e-08
-1.85153e-07
2.02436e-09
7.25458e-08
-1.60459e-07
-1.67855e-09
9.503e-08
-1.31135e-07
-6.83978e-10
1.18069e-07
-9.37661e-08
-4.16037e-12
1.38636e-07
-5.10177e-08
-1.56062e-11
1.50511e-07
-1.77148e-10
1.65279e-07
-4.9348e-08
1.61725e-07
6.84789e-09
-1.02648e-08
1.28415e-08
-5.3089e-08
-1.3791e-08
7.62343e-09
-1.22597e-08
-4.5351e-09
1.41203e-09
-8.40292e-09
-6.27243e-11
2.02177e-10
-3.82737e-09
-1.0396e-11
-2.22321e-12
-1.75159e-09
-3.72335e-13
-3.82538e-11
-6.76972e-10
-5.15566e-13
-1.93342e-12
-3.06913e-12
-1.77996e-12
-4.75262e-12
-7.5889e-12
-2.72712e-11
-1.40839e-10
-3.84704e-09
5.94494e-09
-2.63465e-08
-7.73866e-09
1.79591e-09
-1.79312e-08
-1.70679e-09
2.5134e-09
-2.07985e-09
-2.70119e-10
2.39312e-10
-7.03102e-10
-3.19821e-11
6.1185e-11
-1.62076e-10
-1.69271e-11
8.54766e-12
-2.58144e-11
-8.58023e-13
-1.26775e-11
-6.10459e-11
-8.87354e-13
-2.83785e-12
-4.7809e-12
-2.0107e-12
-1.5814e-12
-1.521e-11
-6.06427e-11
-3.83936e-11
2.28071e-09
-5.45169e-10
-2.90627e-09
-6.76137e-10
-2.55866e-10
-2.41895e-09
-3.02506e-10
2.11003e-09
-4.39615e-10
-5.04432e-11
5.12404e-11
-6.60205e-11
-1.61319e-11
3.63119e-11
-8.03974e-12
-2.39067e-11
2.41892e-11
-2.09569e-11
4.99406e-12
-3.85076e-12
-6.54482e-11
1.06015e-11
-1.4636e-12
-5.28781e-11
2.22541e-11
7.87644e-12
-7.94216e-11
-1.87326e-11
-2.12725e-10
1.18775e-09
-1.49474e-10
1.69579e-10
3.73259e-11
1.02768e-09
-6.14304e-10
-8.03975e-11
2.4292e-09
-1.27977e-10
-1.14507e-11
3.08356e-10
-7.08514e-12
-3.52651e-12
3.01306e-11
5.76252e-12
1.08014e-11
1.30332e-11
4.43632e-12
7.50287e-11
-3.01347e-11
7.59686e-12
8.43552e-11
-5.68731e-12
-1.54496e-11
7.28558e-11
2.25709e-11
-3.36026e-11
2.56799e-11
-4.77228e-11
1.20109e-09
2.47823e-10
1.06225e-09
1.20246e-09
7.49287e-10
1.01856e-09
5.93571e-10
7.3271e-09
-3.03348e-10
6.4059e-11
2.35165e-09
4.53822e-11
5.57592e-12
1.17618e-10
1.76243e-11
1.71471e-10
6.2585e-11
4.37468e-11
8.22985e-11
-5.78336e-11
1.59435e-11
5.22384e-11
2.58242e-13
4.20775e-11
5.21487e-11
1.29288e-11
1.53901e-11
3.26123e-11
3.80981e-11
5.5381e-10
-9.62046e-11
6.62264e-10
2.11843e-10
1.88976e-10
1.10839e-09
1.31767e-09
1.09802e-09
1.12173e-09
1.74906e-10
2.35577e-09
7.17896e-10
2.48808e-10
9.49023e-10
3.20356e-10
3.11295e-10
1.09024e-10
1.10976e-10
6.01063e-12
-1.25619e-12
6.69404e-11
4.61063e-12
1.91336e-12
1.60615e-11
1.52441e-11
7.44159e-12
3.61381e-11
2.44157e-12
4.59423e-11
-1.5494e-11
-2.05054e-10
3.4657e-10
-5.16664e-12
9.88115e-11
1.0251e-10
4.39218e-10
5.43307e-11
5.5065e-10
9.82833e-10
9.79129e-10
8.99299e-10
3.07956e-10
4.29538e-10
2.28457e-10
5.12549e-11
1.04511e-10
1.11457e-10
-5.44442e-12
8.72078e-12
3.2849e-11
4.15275e-13
3.12407e-12
5.40436e-12
6.76474e-13
-5.95639e-14
8.69907e-12
-4.86689e-13
2.98391e-12
-8.4114e-11
1.97282e-10
1.04288e-10
-1.21993e-11
1.43769e-11
7.36616e-12
2.37002e-10
3.07885e-10
8.6791e-11
3.89316e-10
4.89329e-10
1.53146e-10
9.05876e-11
5.94568e-11
1.13542e-10
4.52904e-12
-2.08258e-16
2.12216e-11
1.74963e-12
-1.35502e-14
7.83189e-12
-8.2855e-14
2.23519e-13
2.35087e-12
6.15674e-15
-2.86497e-15
2.15281e-14
-4.0879e-16
1.137e-14
-1.65018e-10
7.51759e-10
6.53702e-11
-1.68861e-10
1.00919e-11
-1.99947e-14
-1.64591e-11
3.58958e-10
2.49279e-12
1.19923e-11
7.51424e-12
4.83462e-11
3.4763e-13
4.84205e-13
9.15325e-12
6.26687e-14
1.07756e-14
4.26123e-13
9.79179e-15
1.55385e-16
4.39435e-14
4.1493e-15
-3.10141e-17
1.71175e-14
2.80816e-17
-7.96153e-19
1.07607e-16
-1.89025e-20
2.21144e-17
-5.75661e-11
1.22947e-10
9.26601e-10
-6.82639e-11
-1.97137e-13
2.0073e-11
-6.69087e-12
-8.74031e-12
2.62069e-11
-4.50073e-13
3.36425e-12
-3.24144e-12
-9.00208e-15
2.06712e-13
-9.37751e-14
1.2578e-16
5.78846e-15
-2.78423e-16
4.84021e-17
1.48845e-16
-1.7287e-17
8.94952e-19
1.81622e-17
-1.08346e-18
1.18265e-20
7.65378e-20
-1.74157e-21
8.1353e-21
-9.41531e-21
-1.30583e-07
2.24211e-07
-3.33031e-07
-2.23456e-07
1.68664e-07
-2.86259e-07
-3.06618e-07
1.65063e-07
-3.03858e-07
-3.67818e-07
1.45759e-07
-3.12723e-07
-3.94173e-07
1.10501e-07
-3.17853e-07
-3.80631e-07
6.81377e-08
-3.24068e-07
-3.28406e-07
2.35123e-08
-3.2812e-07
-2.45558e-07
-1.91227e-08
-3.28186e-07
-1.40539e-07
-5.72618e-08
-3.20165e-07
-8.85937e-08
-3.23675e-07
-1.72849e-07
5.17063e-07
-4.54825e-07
-3.04507e-07
4.00044e-07
-3.92353e-07
-4.13655e-07
3.82242e-07
-4.11563e-07
-4.90051e-07
3.33549e-07
-4.17812e-07
-5.20551e-07
2.5321e-07
-4.20976e-07
-5.02086e-07
1.61798e-07
-4.28397e-07
-4.36117e-07
6.74132e-08
-4.36983e-07
-3.26152e-07
-2.39181e-08
-4.44598e-07
-1.79734e-07
-1.10085e-07
-4.40792e-07
-1.77333e-07
-4.38657e-07
-1.83139e-07
8.29409e-07
-4.87115e-07
-3.24451e-07
6.46066e-07
-4.15153e-07
-4.40683e-07
6.14075e-07
-4.37551e-07
-5.27092e-07
5.40932e-07
-4.43446e-07
-5.63936e-07
4.13974e-07
-4.48057e-07
-5.46826e-07
2.71576e-07
-4.58526e-07
-4.78993e-07
1.29029e-07
-4.74473e-07
-3.61323e-07
-1.07285e-08
-4.94306e-07
-1.96232e-07
-1.38354e-07
-5.11694e-07
-2.11255e-07
-5.42925e-07
-2.21711e-07
1.19886e-06
-5.95255e-07
-4.00889e-07
9.47013e-07
-5.07891e-07
-5.29389e-07
8.68565e-07
-5.20954e-07
-6.24258e-07
7.6494e-07
-5.0264e-07
-6.69113e-07
5.95042e-07
-4.85994e-07
-6.5543e-07
4.06202e-07
-4.87694e-07
-5.7807e-07
2.134e-07
-5.02965e-07
-4.40192e-07
3.13017e-08
-5.31724e-07
-2.4593e-07
-1.09959e-07
-5.86757e-07
-1.41822e-07
-6.96925e-07
-1.83332e-07
1.63004e-06
-6.81558e-07
-3.55156e-07
1.34039e-06
-4.85217e-07
-5.43073e-07
1.24576e-06
-5.51302e-07
-7.21336e-07
1.13146e-06
-5.89216e-07
-8.03142e-07
8.74107e-07
-5.80891e-07
-7.85492e-07
5.92414e-07
-5.72344e-07
-6.92842e-07
3.37867e-07
-5.78001e-07
-5.40373e-07
1.29347e-07
-6.0329e-07
-3.20876e-07
1.36166e-08
-6.90949e-07
4.18151e-08
-8.72391e-07
3.10726e-08
2.08613e-06
-1.09609e-06
-1.24728e-07
1.91275e-06
-5.9007e-07
-4.32638e-07
1.87566e-06
-4.98151e-07
-7.20966e-07
1.70231e-06
-5.33603e-07
-8.67202e-07
1.31397e-06
-5.02442e-07
-8.82183e-07
9.62801e-07
-4.6646e-07
-8.04513e-07
6.88427e-07
-4.81825e-07
-6.53434e-07
4.78632e-07
-5.608e-07
-4.12127e-07
3.8231e-07
-7.15691e-07
4.22925e-07
-9.299e-07
1.90448e-07
2.61639e-06
-1.53198e-06
-1.78818e-07
2.81831e-06
-9.60011e-07
-6.26325e-07
2.78933e-06
-6.90274e-07
-9.18048e-07
2.47394e-06
-6.29586e-07
-1.05279e-06
1.98837e-06
-5.96575e-07
-1.04567e-06
1.54799e-06
-6.03989e-07
-9.21895e-07
1.15493e-06
-6.62571e-07
-7.25312e-07
8.24144e-07
-7.42507e-07
-4.47095e-07
6.16383e-07
-8.23539e-07
5.47126e-07
-9.38394e-07
-1.45898e-07
3.67254e-06
-2.57723e-06
-9.8285e-07
4.29833e-06
-1.97209e-06
-1.60934e-06
4.04761e-06
-1.67037e-06
-1.92794e-06
3.44784e-06
-1.55953e-06
-2.00091e-06
2.66792e-06
-1.41977e-06
-1.87556e-06
1.92723e-06
-1.30427e-06
-1.60409e-06
1.32547e-06
-1.28029e-06
-1.19928e-06
9.03011e-07
-1.35685e-06
-6.61526e-07
6.6871e-07
-1.47073e-06
5.96155e-07
-1.57602e-06
-7.1112e-07
4.06948e-06
-3.93647e-06
-1.49591e-06
3.80955e-06
-2.68437e-06
-1.77918e-06
1.96932e-06
-1.79144e-06
-1.57566e-06
6.30751e-07
-9.74389e-07
-1.20279e-06
1.26483e-07
-3.67191e-07
-8.40223e-07
-1.75161e-09
-2.88996e-08
-5.45114e-07
-1.54099e-09
1.16767e-07
-3.58257e-07
-1.44397e-07
1.95165e-07
-2.12688e-07
-1.97168e-07
1.94264e-07
-1.5385e-07
1.13307e-07
-2.66807e-07
2.1209e-07
-1.25141e-06
-1.68754e-07
4.02987e-08
-6.26428e-07
-7.61418e-08
-6.24292e-09
-1.27757e-07
-4.54214e-08
6.17539e-09
-1.21411e-08
-2.53778e-08
5.27633e-09
1.71688e-09
-4.02639e-08
2.36718e-09
8.18323e-09
-4.29722e-08
8.08391e-10
1.94952e-08
-3.21197e-08
-9.7186e-12
3.13337e-08
-2.51371e-08
-8.66676e-11
2.73759e-08
2.09517e-11
1.10022e-08
1.696e-08
2.8363e-08
-2.60145e-08
7.30985e-09
1.52114e-08
-2.43209e-08
-3.12482e-09
2.46628e-09
-1.31762e-08
-2.75876e-09
9.38576e-10
-4.28984e-09
-7.92632e-10
2.95066e-10
-1.03873e-09
-1.83873e-10
1.11083e-11
-2.07074e-11
-6.31037e-13
-4.09366e-11
-7.25448e-12
-2.71514e-12
5.50157e-14
-1.02102e-11
-5.66478e-11
-2.37425e-13
-3.67031e-11
-2.89838e-12
-6.31595e-11
1.5751e-09
4.2144e-09
-3.94787e-09
-3.74728e-10
1.70181e-09
-2.84475e-09
-3.30616e-10
1.12381e-09
-1.03832e-09
-1.43118e-10
2.45271e-10
-2.57368e-10
-1.71287e-11
-5.34918e-12
-2.51352e-11
-1.00352e-11
-1.77179e-12
-3.64833e-12
-8.76566e-13
-3.55037e-11
-1.22145e-12
-1.86634e-12
-3.94844e-13
-2.80327e-12
-5.44394e-12
-2.32759e-12
-1.40809e-11
-5.67128e-11
-2.35824e-11
4.35224e-10
1.2466e-09
-3.35586e-10
1.29635e-11
2.48332e-12
-3.37239e-10
-3.37333e-11
8.49735e-10
-1.56971e-10
-1.70833e-11
2.3248e-10
-5.07226e-11
-5.32499e-12
4.13657e-11
-3.44046e-11
2.70455e-12
-1.05625e-12
-1.06324e-11
1.7156e-11
-4.94249e-11
-1.07194e-11
1.68637e-13
-2.01201e-12
-7.04198e-12
-3.13556e-11
-1.45956e-11
-6.05972e-11
-1.40089e-10
-2.70994e-11
8.58141e-10
1.55014e-09
3.04656e-10
1.18838e-10
2.63556e-09
-5.53812e-10
8.90794e-12
9.25522e-10
-7.49373e-11
-1.51309e-12
2.91546e-10
-5.19327e-11
2.14413e-12
5.61801e-11
-1.36724e-11
6.31813e-11
-3.0491e-13
-4.99108e-12
1.06999e-10
-5.48965e-11
-5.26054e-12
8.61017e-11
-9.67226e-12
-4.77489e-12
1.57522e-11
7.83386e-12
-2.33335e-11
-7.30865e-11
-1.31829e-12
1.89584e-09
7.89638e-11
1.34012e-09
8.95752e-10
4.72626e-09
8.35282e-10
1.40179e-10
5.39169e-09
-4.15132e-10
5.27872e-11
3.50618e-09
-4.15599e-11
7.74295e-11
1.12566e-09
5.13699e-11
6.22186e-11
-1.97929e-11
1.10616e-11
1.07953e-10
-3.81491e-11
-4.71942e-13
1.04896e-10
2.58983e-12
2.9074e-11
2.30205e-11
1.81387e-11
5.15129e-11
-3.28962e-11
2.59505e-11
8.89501e-10
-3.91944e-10
3.93985e-10
1.47198e-09
1.42903e-09
1.84828e-09
1.40072e-09
5.77318e-09
1.25144e-09
7.57803e-10
4.11982e-09
9.68422e-10
1.40601e-10
9.41286e-10
4.78789e-10
-2.79764e-11
-2.41147e-12
3.12813e-11
1.81069e-11
-3.67496e-12
-3.77792e-12
1.57277e-11
-1.03433e-12
2.98077e-11
4.3523e-12
-3.41336e-14
4.05251e-11
-2.81757e-12
1.10691e-11
-6.61548e-12
-2.22995e-11
5.68709e-12
2.59396e-10
3.33525e-11
4.39689e-10
1.33812e-09
5.92231e-10
1.67918e-09
8.89204e-10
7.46353e-10
1.09855e-09
6.45154e-11
1.37426e-10
3.64527e-10
-8.23757e-12
1.18211e-11
8.07214e-12
1.0595e-12
1.00651e-12
5.01352e-13
1.14253e-12
-2.21174e-13
3.69687e-12
7.53967e-13
-1.38063e-13
2.30046e-12
-1.3168e-14
2.11846e-13
-2.53125e-11
6.59474e-11
-1.94995e-12
-1.95428e-11
8.15401e-12
2.04053e-11
6.55506e-11
5.46076e-12
1.02195e-10
1.54179e-10
-9.23281e-11
7.59062e-11
1.30751e-11
-1.05495e-11
7.9169e-12
6.60483e-13
-4.40476e-13
-4.97056e-13
6.09277e-13
-6.44342e-14
3.55856e-14
1.23946e-13
-1.65756e-14
9.79963e-14
2.16603e-15
-1.24214e-16
5.4979e-15
-2.25345e-17
3.5859e-16
-8.51373e-12
1.82853e-10
1.23146e-13
-4.61046e-12
3.10631e-12
1.06734e-13
1.67076e-14
1.02064e-11
1.36128e-12
2.1143e-12
-2.24611e-12
-6.81561e-13
3.50245e-14
-1.17413e-13
3.59752e-13
1.02889e-15
-1.64575e-15
1.27394e-14
1.04893e-15
-1.66716e-16
1.10183e-15
5.20719e-17
-2.18782e-17
6.78519e-16
1.12307e-18
-1.39967e-19
4.66166e-18
-2.68623e-20
3.69764e-19
-5.30073e-12
1.62853e-11
4.24693e-10
-4.24993e-12
-3.90973e-13
2.16103e-12
-2.22351e-13
-7.5353e-13
2.07314e-11
-6.1483e-14
2.59488e-13
2.57109e-13
-6.73502e-16
1.56228e-14
4.3172e-15
-2.51155e-17
2.82426e-15
6.8598e-16
3.10141e-18
5.90609e-17
-2.76254e-18
2.56417e-20
2.84148e-19
-8.01458e-19
2.40782e-21
6.15697e-20
-4.2242e-20
6.13232e-19
-2.80439e-20
-1.36243e-07
2.03931e-07
-4.00719e-07
-2.29546e-07
1.47917e-07
-3.40873e-07
-3.15481e-07
1.45537e-07
-3.63461e-07
-3.81641e-07
1.30059e-07
-3.76622e-07
-4.12389e-07
9.72604e-08
-3.84366e-07
-4.00249e-07
5.63765e-08
-3.92585e-07
-3.45469e-07
1.44785e-08
-3.97378e-07
-2.52569e-07
-2.45788e-08
-3.96508e-07
-1.38573e-07
-5.44296e-08
-3.79731e-07
-6.93828e-08
-3.79727e-07
-1.77004e-07
4.59865e-07
-5.33755e-07
-3.07104e-07
3.45562e-07
-4.59898e-07
-4.19921e-07
3.3344e-07
-4.86648e-07
-5.03118e-07
2.94402e-07
-4.98958e-07
-5.41038e-07
2.22594e-07
-5.0839e-07
-5.26344e-07
1.3687e-07
-5.23584e-07
-4.55051e-07
4.53731e-08
-5.39171e-07
-3.27456e-07
-4.81622e-08
-5.48608e-07
-1.6462e-07
-1.1635e-07
-5.41708e-07
-1.26391e-07
-5.46184e-07
-1.82372e-07
7.33242e-07
-5.7812e-07
-3.23316e-07
5.65467e-07
-4.94114e-07
-4.45674e-07
5.42487e-07
-5.24239e-07
-5.40653e-07
4.83116e-07
-5.37181e-07
-5.87718e-07
3.71591e-07
-5.49988e-07
-5.79134e-07
2.40803e-07
-5.71043e-07
-5.13105e-07
1.0181e-07
-5.9694e-07
-3.92905e-07
-3.3498e-08
-6.29169e-07
-2.21117e-07
-1.00679e-07
-6.99153e-07
-4.7016e-08
-8.48624e-07
-2.08045e-07
1.03938e-06
-6.9335e-07
-3.75451e-07
8.17642e-07
-5.9266e-07
-5.0838e-07
7.70748e-07
-6.16286e-07
-6.18289e-07
7.01348e-07
-6.10963e-07
-6.84013e-07
5.65891e-07
-6.1457e-07
-6.90174e-07
3.967e-07
-6.3743e-07
-6.29524e-07
2.1017e-07
-6.71974e-07
-5.16158e-07
5.90154e-08
-7.37604e-07
-3.23514e-07
3.31672e-08
-9.13247e-07
1.53045e-07
-1.23077e-06
-1.98818e-07
1.39477e-06
-8.38123e-07
-4.05182e-07
1.19951e-06
-6.60724e-07
-5.95263e-07
1.13566e-06
-7.26136e-07
-7.56228e-07
1.02279e-06
-7.49692e-07
-8.36691e-07
8.0415e-07
-7.38687e-07
-8.43846e-07
5.73619e-07
-7.42108e-07
-7.91742e-07
3.61443e-07
-7.81378e-07
-6.79565e-07
2.31586e-07
-8.88038e-07
-4.42055e-07
2.74267e-07
-1.16956e-06
4.31039e-07
-1.60182e-06
-3.84249e-08
1.70527e-06
-1.36817e-06
-2.46498e-07
1.69047e-06
-8.72952e-07
-5.23413e-07
1.69176e-06
-7.7733e-07
-7.88473e-07
1.54899e-06
-7.94741e-07
-9.56075e-07
1.27392e-06
-8.04607e-07
-1.01553e-06
1.02855e-06
-8.61936e-07
-9.71824e-07
8.24978e-07
-9.8907e-07
-8.3762e-07
7.38346e-07
-1.20176e-06
-5.46238e-07
8.05558e-07
-1.53836e-06
9.3658e-07
-1.96585e-06
2.23968e-07
1.98293e-06
-2.03361e-06
-1.46996e-07
2.36936e-06
-1.26793e-06
-6.1805e-07
2.46306e-06
-9.90522e-07
-9.77962e-07
2.27167e-06
-9.92363e-07
-1.1777e-06
1.9076e-06
-1.03053e-06
-1.2073e-06
1.52203e-06
-1.06786e-06
-1.082e-06
1.15792e-06
-1.12082e-06
-8.44354e-07
9.15628e-07
-1.15743e-06
-4.95135e-07
8.18645e-07
-1.18588e-06
8.81133e-07
-1.37595e-06
-5.08043e-09
2.28495e-06
-2.93745e-06
-8.16706e-07
3.43024e-06
-2.22135e-06
-1.48218e-06
3.44567e-06
-1.9875e-06
-1.8109e-06
2.89721e-06
-1.85634e-06
-1.8674e-06
1.66088e-06
-1.68645e-06
-1.61998e-06
9.22314e-07
-1.39309e-06
-1.25164e-06
4.11094e-07
-1.09607e-06
-8.25461e-07
1.31901e-07
-8.98149e-07
-3.62069e-07
1.20762e-08
-8.12903e-07
5.92519e-08
-8.57216e-07
-6.08184e-07
1.31154e-06
-3.63334e-06
-9.65022e-07
1.65918e-06
-2.64822e-06
-9.47111e-07
6.31715e-07
-1.56706e-06
-6.26365e-07
1.1573e-08
-6.15578e-07
-3.38962e-07
4.83582e-09
-9.26978e-08
-1.59877e-07
-8.25983e-09
7.02207e-08
-9.07649e-08
-2.0235e-08
8.08469e-08
-5.45858e-08
-3.15221e-08
2.29582e-08
-4.35028e-08
-2.73911e-08
1.36091e-08
-1.17113e-08
8.71509e-09
-6.95567e-08
2.7154e-08
-4.72001e-07
3.8032e-08
2.08795e-08
-2.89395e-07
2.83967e-09
8.25037e-09
-5.92392e-08
-4.87882e-09
5.60632e-09
-9.75006e-09
-2.20392e-10
1.64906e-09
-1.06806e-09
-3.26865e-10
2.24277e-11
-8.79146e-12
-9.96712e-10
-7.87519e-11
3.09316e-12
-1.10499e-09
-2.92645e-11
-2.683e-11
-7.17582e-10
-6.86171e-11
-2.72812e-10
-3.56609e-12
-1.43053e-09
1.46636e-09
4.18659e-09
-4.9557e-09
-3.86715e-10
2.89684e-09
-5.20182e-09
-2.19461e-09
1.40295e-09
-5.15649e-09
-6.354e-10
4.7592e-10
-1.00006e-09
-1.36099e-11
4.82766e-11
-8.12598e-11
-5.34418e-13
1.03338e-14
-6.06695e-12
-1.10284e-12
-1.19649e-16
-8.4738e-11
-3.75672e-12
-2.94688e-13
-3.57035e-11
-1.08912e-11
4.76077e-13
-3.39267e-11
-4.21116e-13
-5.515e-11
-8.92835e-11
6.75065e-10
-2.94083e-10
-4.53941e-10
6.72625e-10
-2.71567e-10
-1.87304e-10
3.26378e-10
-2.8684e-10
-2.54853e-11
6.77434e-11
-4.77013e-11
-3.04638e-12
6.46543e-13
-1.49179e-12
-5.20273e-14
-2.03043e-13
-3.56906e-13
-4.5981e-13
-1.81447e-13
-2.78975e-13
-2.00743e-12
-4.99915e-14
-1.14009e-12
-3.19381e-12
-8.98105e-13
-2.03799e-12
-4.04559e-13
-1.07979e-12
5.76571e-11
3.486e-10
-3.43977e-11
-3.04093e-12
4.14271e-10
-3.09747e-11
-1.72572e-11
2.0088e-10
-2.68951e-11
-3.95114e-11
1.75736e-10
-5.90361e-11
-5.20278e-12
-1.15126e-12
-9.0223e-12
-1.42051e-13
-5.18996e-12
-9.54378e-15
-9.46437e-14
-1.09387e-11
-9.91445e-15
-8.17858e-12
-4.59065e-13
-1.79251e-14
-8.88499e-13
-2.66632e-11
-6.06451e-13
-2.8019e-11
-1.69894e-13
8.59084e-10
-1.04354e-10
2.31212e-10
4.4887e-10
1.58643e-09
-1.70778e-10
1.3146e-11
7.84177e-10
-1.88392e-11
2.07412e-12
9.20661e-10
-3.37178e-11
-2.3778e-12
-8.49638e-12
-3.14131e-12
-6.74898e-15
-2.12623e-12
-2.29882e-14
1.53279e-12
-1.11135e-11
-2.06883e-13
-3.2921e-12
-8.94238e-12
-1.83005e-13
-1.4487e-11
-4.04403e-11
4.02606e-13
-2.22802e-11
-2.79006e-13
1.36141e-09
-3.32383e-10
2.47108e-10
1.92353e-09
2.12011e-09
4.77922e-10
3.92871e-10
3.31986e-09
4.23403e-12
5.54387e-11
2.77145e-09
2.04276e-10
-1.42572e-11
-2.78439e-11
5.17998e-11
-6.15257e-13
-5.79757e-12
-6.45987e-14
6.02206e-12
-5.32229e-12
-2.2791e-14
6.26156e-12
-8.54588e-12
-5.00816e-13
-3.51161e-12
-2.30056e-11
1.56708e-12
-8.52067e-12
1.10626e-13
1.27776e-10
-1.81979e-11
-3.48515e-13
1.62427e-09
1.85034e-09
1.34354e-09
1.1747e-09
4.14041e-09
1.51245e-09
3.22831e-10
1.4005e-09
8.30688e-10
-2.83944e-11
-5.15141e-12
1.65844e-11
-1.14788e-13
-2.74255e-12
1.30513e-13
1.47315e-12
-4.44541e-13
1.11667e-13
2.49939e-12
-2.52485e-12
2.95947e-12
7.0227e-13
-2.44627e-12
3.94367e-13
-2.31831e-13
2.20724e-13
-8.31169e-12
-3.56193e-13
-3.15294e-13
2.35788e-10
-2.16831e-11
4.44097e-10
4.30877e-10
2.80022e-10
1.15003e-09
1.32479e-10
4.86189e-11
1.59038e-10
-4.56028e-12
8.60943e-12
-2.24582e-12
-6.9126e-15
-4.86302e-14
1.52757e-13
4.7635e-14
-4.65605e-14
2.72362e-14
1.89064e-13
-1.0465e-13
3.26425e-14
2.30287e-14
-7.00266e-15
1.61001e-14
-3.1683e-16
3.17108e-15
-2.86235e-12
4.95058e-13
-1.94174e-14
-1.96883e-11
7.53754e-14
1.27808e-11
2.0961e-11
4.44815e-12
6.20948e-11
9.88733e-12
-1.32999e-11
1.1904e-12
4.40776e-13
-1.44742e-12
-1.0563e-12
1.89881e-14
5.00577e-15
-3.24488e-14
1.00199e-14
-1.00655e-15
-2.55217e-16
1.75263e-15
-7.86101e-16
2.45282e-15
4.13728e-17
-5.89316e-18
2.13798e-16
-2.20834e-18
3.9746e-17
-1.91603e-13
8.13869e-13
-5.0311e-15
-5.64944e-13
4.84516e-13
-8.53669e-15
1.33492e-12
1.17409e-12
7.63681e-13
4.04282e-13
-1.40902e-12
2.07725e-13
4.83399e-14
-2.31591e-13
1.52705e-13
-2.688e-15
1.81488e-14
2.00543e-14
1.1365e-16
-5.02883e-16
3.97296e-16
2.2739e-18
-6.36805e-18
1.17055e-17
-3.29433e-21
-4.62062e-20
4.16509e-19
-4.7839e-18
1.7782e-16
1.76024e-14
-1.67664e-18
1.70815e-11
4.63844e-14
-2.65939e-15
3.12454e-12
3.3184e-14
-1.63667e-14
3.10481e-13
9.0699e-14
1.50795e-13
3.85667e-13
5.79093e-16
1.69869e-14
1.79276e-14
8.46213e-15
2.18741e-14
4.33985e-14
9.71587e-18
2.17258e-15
-5.44718e-16
3.25625e-19
6.96252e-18
-3.53377e-18
-3.40035e-19
9.78921e-19
-4.44985e-20
1.28058e-15
-3.43365e-18
-1.42704e-07
1.74977e-07
-4.32992e-07
-2.34119e-07
1.1247e-07
-3.61929e-07
-3.19944e-07
1.10177e-07
-3.87813e-07
-3.89369e-07
9.72358e-08
-4.04433e-07