/*--------------------------------*- C++ -*----------------------------------*\
| =========                 |                                                 |
| \\      /  F ield         | OpenFOAM: The Open Source CFD Toolbox           |
|  \\    /   O peration     | Version:  2312                                  |
|   \\  /    A nd           | Website:  www.openfoam.com                      |
|    \\/     M anipulation  |                                                 |
\*---------------------------------------------------------------------------*/
FoamFile
{
    version     2.0;
    format      ascii;
    arch        "LSB;label=32;scalar=64";
    class       volScalarField;
    location    "1.1";
    object      p;
}
// * * * * * * * * * * * * * * * * * * * * * * * * * * * * * * * * * * * * * //

dimensions      [1 -1 -2 0 0 0 0];

internalField   nonuniform List<scalar> 
8000
(
377.149
377.302
377.558
377.866
378.211
378.575
378.909
379.137
379.183
378.992
327.481
327.581
327.76
328.154
328.634
329.122
329.565
329.885
329.99
329.831
277.254
277.303
277.282
277.681
278.415
279.198
279.895
280.429
280.712
280.617
226.301
226.265
226.181
226.707
227.655
228.783
229.867
230.729
231.203
231.183
173.898
173.686
173.996
174.946
176.217
177.792
179.392
180.706
181.49
181.583
119.371
119.278
120.175
121.379
123.068
125.375
127.9
130.114
131.543
131.91
61.6301
61.1757
62.7298
64.2342
66.5958
70.4249
75.128
79.3756
81.9748
82.7176
13.7968
12.836
13.5166
14.2833
15.9026
19.609
25.3512
31.2904
35.4838
36.8205
-0.109221
-0.164547
-0.159972
-0.149501
-0.0966494
0.431919
1.86717
3.88946
6.22857
7.40814
-0.229121
-0.229381
-0.233676
-0.244178
-0.273622
-0.315372
-0.357556
-0.403988
-0.432018
-0.30792
-0.292187
-0.293624
-0.297067
-0.312867
-0.348543
-0.394574
-0.444251
-0.473995
-0.462966
-0.39699
-0.362625
-0.365914
-0.368436
-0.386885
-0.423471
-0.467867
-0.510631
-0.533425
-0.519388
-0.475254
-0.43603
-0.440263
-0.444477
-0.463804
-0.491303
-0.524868
-0.553215
-0.557979
-0.540234
-0.516707
-0.511744
-0.517457
-0.523668
-0.53744
-0.551525
-0.577913
-0.604169
-0.617374
-0.614678
-0.598968
-0.589885
-0.598031
-0.606127
-0.614038
-0.621914
-0.644401
-0.670619
-0.688733
-0.692222
-0.683836
-0.667856
-0.67761
-0.695162
-0.696024
-0.699178
-0.720356
-0.741528
-0.758598
-0.75918
-0.746468
-0.742231
-0.751468
-0.77239
-0.777337
-0.774993
-0.79017
-0.803746
-0.817767
-0.816623
-0.798169
-0.8104
-0.817925
-0.83556
-0.842747
-0.845126
-0.849986
-0.859981
-0.87091
-0.868705
-0.847024
-0.872243
-0.877043
-0.888863
-0.894514
-0.898418
-0.905504
-0.915187
-0.922037
-0.917595
-0.89418
-0.929662
-0.932916
-0.939842
-0.944476
-0.950096
-0.960795
-0.96917
-0.970772
-0.962784
-0.938153
377.564
377.893
378.189
378.423
378.668
378.978
379.282
379.491
379.522
379.325
327.897
328.128
328.406
328.766
329.145
329.566
329.974
330.269
330.356
330.175
277.802
277.805
277.774
278.22
278.952
279.714
280.383
280.886
281.121
281.027
227.07
226.82
226.481
227.106
228.213
229.403
230.474
231.315
231.719
231.607
174.375
174.151
174.39
175.468
176.942
178.621
180.236
181.493
182.064
181.997
119.117
119.238
120.405
121.84
123.78
126.156
128.654
130.826
132.097
132.334
62.3428
61.9228
63.2973
64.9115
67.5174
71.4057
75.9191
79.7935
82.1108
82.682
15.4091
14.3552
14.9364
15.1282
16.2089
19.8879
25.7746
31.7449
36.1608
37.267
0.0393103
-0.0577966
-0.0523041
-0.0501495
0.0220119
0.501068
1.84474
3.89546
6.44225
7.82397
-0.221298
-0.22382
-0.231198
-0.247182
-0.282566
-0.333799
-0.395189
-0.459143
-0.506541
-0.438517
-0.295412
-0.298246
-0.304644
-0.325866
-0.374003
-0.445191
-0.514064
-0.551277
-0.550329
-0.504426
-0.371041
-0.372528
-0.378669
-0.407431
-0.468718
-0.541085
-0.592796
-0.616089
-0.600002
-0.552969
-0.444217
-0.444856
-0.452712
-0.489033
-0.544631
-0.573206
-0.596774
-0.604062
-0.586551
-0.553143
-0.517097
-0.518864
-0.527387
-0.557621
-0.592954
-0.609477
-0.631378
-0.64628
-0.642096
-0.621904
-0.592808
-0.595342
-0.603249
-0.621907
-0.647929
-0.671053
-0.700386
-0.726625
-0.728544
-0.71293
-0.669295
-0.673491
-0.683081
-0.690558
-0.712032
-0.738039
-0.768797
-0.796787
-0.799172
-0.780195
-0.743288
-0.749285
-0.763598
-0.764254
-0.778335
-0.79991
-0.822683
-0.845412
-0.849588
-0.828214
-0.810706
-0.817741
-0.831741
-0.83706
-0.842737
-0.85795
-0.874658
-0.890788
-0.893866
-0.870944
-0.87065
-0.87786
-0.886415
-0.893181
-0.904003
-0.916399
-0.930414
-0.939688
-0.937191
-0.913859
-0.926935
-0.933674
-0.938135
-0.944891
-0.958084
-0.9757
-0.988204
-0.988252
-0.977561
-0.953658
378.28
378.788
379.369
379.526
379.546
379.715
379.949
380.119
380.126
379.914
328.569
329.073
329.654
330.012
330.17
330.403
330.709
330.946
330.997
330.8
278.377
278.664
279.141
279.542
280.055
280.68
281.256
281.678
281.824
281.668
227.707
227.681
227.902
228.381
229.323
230.455
231.447
232.187
232.529
232.398
175.616
175.615
176.029
176.845
178.267
179.952
181.467
182.605
183.147
183.066
121.823
121.98
122.811
123.918
125.695
127.901
130.224
132.304
133.581
133.73
67.4294
67.427
68.4104
69.8178
71.8678
74.7514
78.1516
81.2309
83.2884
84.1038
19.9648
19.0336
20.6276
21.7323
22.4573
24.9418
29.7587
34.8304
38.2745
38.5212
0.583592
0.457703
0.704994
0.876995
0.979684
1.46898
2.90737
5.43282
7.96451
8.50091
-0.250657
-0.253693
-0.265398
-0.284933
-0.320075
-0.358474
-0.402393
-0.46386
-0.509191
-0.471957
-0.3194
-0.32248
-0.330682
-0.353256
-0.395258
-0.450659
-0.502981
-0.535274
-0.537321
-0.504996
-0.391314
-0.393185
-0.401526
-0.427195
-0.467808
-0.515199
-0.559807
-0.582762
-0.573776
-0.540263
-0.463389
-0.466213
-0.474306
-0.498805
-0.52942
-0.561402
-0.593344
-0.605014
-0.581105
-0.537003
-0.534387
-0.534626
-0.543255
-0.566474
-0.595137
-0.618906
-0.648078
-0.664113
-0.645595
-0.60688
-0.606113
-0.604973
-0.611031
-0.629763
-0.660516
-0.695422
-0.736202
-0.770343
-0.759325
-0.727841
-0.677028
-0.676558
-0.681332
-0.69439
-0.724563
-0.767297
-0.812807
-0.852285
-0.852478
-0.81989
-0.744986
-0.747973
-0.753737
-0.763963
-0.787848
-0.82518
-0.864712
-0.892106
-0.892441
-0.865582
-0.809087
-0.814563
-0.821666
-0.833562
-0.848429
-0.878948
-0.904077
-0.92026
-0.923057
-0.896524
-0.869956
-0.876039
-0.881553
-0.892183
-0.910983
-0.934652
-0.947298
-0.954964
-0.953873
-0.930958
-0.928645
-0.934002
-0.937909
-0.944121
-0.968097
-0.987206
-0.995024
-0.994693
-0.98649
-0.965259
379.127
379.62
380.177
380.343
380.415
380.588
380.802
380.947
380.931
380.709
329.578
330.1
330.795
331.139
331.208
331.383
331.637
331.83
331.855
331.642
279.433
279.919
280.659
281.194
281.545
281.966
282.413
282.744
282.813
282.603
228.911
229.19
229.865
230.505
231.244
232.083
232.869
233.461
233.706
233.532
177.705
177.868
178.573
179.437
180.659
182.029
183.287
184.257
184.692
184.523
125.431
125.454
126.249
127.309
128.892
130.799
132.833
134.626
135.571
135.531
72.5824
72.4738
73.7825
75.1447
76.7853
78.8505
81.5216
84.3183
86.2823
86.6121
24.3058
24.1462
26.4415
28.0307
29.3919
31.8063
35.3698
39.0067
40.5927
40.4271
1.56291
1.56651
2.16085
2.60631
2.86665
3.60706
5.332
8.13383
9.40401
8.97255
-0.280321
-0.282332
-0.291721
-0.308263
-0.339898
-0.376592
-0.406674
-0.47054
-0.44424
-0.385622
-0.347085
-0.348417
-0.355134
-0.374313
-0.404828
-0.442998
-0.479129
-0.50289
-0.49612
-0.457057
-0.413005
-0.416194
-0.42068
-0.436451
-0.457488
-0.486176
-0.525284
-0.546498
-0.532207
-0.505044
-0.481843
-0.48678
-0.491113
-0.503113
-0.516295
-0.541821
-0.58568
-0.60425
-0.57944
-0.538235
-0.550619
-0.553833
-0.559534
-0.57283
-0.588801
-0.615343
-0.663384
-0.688931
-0.659633
-0.609925
-0.619036
-0.62206
-0.627214
-0.643399
-0.668826
-0.703792
-0.76251
-0.806884
-0.78935
-0.73414
-0.687237
-0.692475
-0.696878
-0.71276
-0.742599
-0.781969
-0.833359
-0.883198
-0.879
-0.8368
-0.754383
-0.761272
-0.766533
-0.778719
-0.803313
-0.839968
-0.878938
-0.912379
-0.912757
-0.879291
-0.818774
-0.82822
-0.832637
-0.841326
-0.860749
-0.887894
-0.913819
-0.930126
-0.928346
-0.903861
-0.879123
-0.890996
-0.893214
-0.898925
-0.916409
-0.939207
-0.954373
-0.96021
-0.952889
-0.933186
-0.937589
-0.950111
-0.950023
-0.952308
-0.971158
-0.99542
-1.00551
-1.00316
-0.988112
-0.96923
380.108
380.402
380.837
381.097
381.304
381.547
381.769
381.9
381.871
381.647
330.709
331.066
331.617
331.96
332.169
332.412
332.689
332.872
332.87
332.641
280.888
281.261
281.891
282.472
282.881
283.306
283.687
283.948
283.969
283.715
230.737
231.084
231.725
232.479
233.174
233.858
234.536
235.01
235.124
234.853
180.184
180.558
181.302
182.235
183.267
184.394
185.454
186.21
186.415
186.1
128.906
129.08
129.986
131.042
132.402
134.108
135.838
137.148
137.659
137.365
77.2862
77.4829
78.968
80.0179
81.2678
83.3558
85.7614
88.048
89.1068
88.8888
28.547
29.2704
32.1798
34.4451
36.6599
38.8801
41.2213
42.761
43.047
42.1164
2.84669
3.07384
4.06743
5.08407
6.26153
7.45126
9.01046
10.1984
10.1058
9.30089
-0.302295
-0.303226
-0.306449
-0.317996
-0.353919
-0.388488
-0.418974
-0.481875
-0.465136
-0.337445
-0.370405
-0.36795
-0.370447
-0.384424
-0.412194
-0.447371
-0.475392
-0.496585
-0.508022
-0.447915
-0.433728
-0.435768
-0.436476
-0.444175
-0.457504
-0.491382
-0.535127
-0.548148
-0.521147
-0.492168
-0.499266
-0.504072
-0.505825
-0.511649
-0.517975
-0.552325
-0.606711
-0.623
-0.589495
-0.549725
-0.566533
-0.571908
-0.576638
-0.585628
-0.596059
-0.634896
-0.698229
-0.717607
-0.683954
-0.631552
-0.633836
-0.639734
-0.648867
-0.662323
-0.682693
-0.719662
-0.787484
-0.828837
-0.800917
-0.7502
-0.70079
-0.709677
-0.719733
-0.73392
-0.7573
-0.790274
-0.842667
-0.886692
-0.87463
-0.830871
-0.767426
-0.780374
-0.787208
-0.7951
-0.813595
-0.840833
-0.873659
-0.903262
-0.899896
-0.871041
-0.828618
-0.844775
-0.846379
-0.848803
-0.861923
-0.883708
-0.903433
-0.917096
-0.913739
-0.896794
-0.883744
-0.901837
-0.901068
-0.902377
-0.912246
-0.931288
-0.945808
-0.952495
-0.942607
-0.930486
-0.938811
-0.956007
-0.954767
-0.956419
-0.967149
-0.986263
-1.00082
-1.00238
-0.98775
-0.975479
381.096
381.307
381.643
381.953
382.251
382.541
382.776
382.902
382.864
382.626
331.843
332.084
332.489
332.847
333.164
333.503
333.8
333.972
333.951
333.711
282.361
282.634
283.116
283.645
284.139
284.596
284.983
285.201
285.166
284.87
232.671
232.966
233.478
234.156
234.851
235.587
236.201
236.559
236.545
236.175
182.635
183.018
183.723
184.556
185.532
186.62
187.548
188.073
188.053
187.575
132.038
132.269
133.24
134.208
135.54
137.116
138.546
139.432
139.528
138.947
81.4396
81.7568
83.1248
83.9869
85.5081
87.9296
89.9739
91.2499
91.4781
90.7313
32.9195
34.1832
37.865
40.5282
43.4886
44.9191
45.9159
46.0503
45.3105
43.6249
4.39454
4.68195
6.32825
8.76521
10.9321
11.5572
11.812
11.5314
10.945
9.59541
-0.317667
-0.315713
-0.306685
-0.295808
-0.3082
-0.381148
-0.445719
-0.51452
-0.320772
-0.26942
-0.392096
-0.383781
-0.376392
-0.38606
-0.420362
-0.468569
-0.510286
-0.544644
-0.516564
-0.419431
-0.45305
-0.452068
-0.44785
-0.454181
-0.477893
-0.530353
-0.573031
-0.568285
-0.525313
-0.481142
-0.516087
-0.519427
-0.51532
-0.52286
-0.539814
-0.594826
-0.654907
-0.656343
-0.611179
-0.564943
-0.581917
-0.58891
-0.592453
-0.603735
-0.624631
-0.678193
-0.743295
-0.753096
-0.715893
-0.666834
-0.64865
-0.657953
-0.669851
-0.684279
-0.709131
-0.749709
-0.807304
-0.82976
-0.800102
-0.758255
-0.71425
-0.729721
-0.742501
-0.752433
-0.774152
-0.803815
-0.844185
-0.871155
-0.855017
-0.822149
-0.776005
-0.793417
-0.801777
-0.805324
-0.819706
-0.840959
-0.865097
-0.883203
-0.88146
-0.864095
-0.829149
-0.84426
-0.848526
-0.851184
-0.860198
-0.876697
-0.893885
-0.905028
-0.903067
-0.898129
-0.877726
-0.891898
-0.895019
-0.897504
-0.905177
-0.92172
-0.938108
-0.944605
-0.941384
-0.940155
-0.927494
-0.942538
-0.945925
-0.949469
-0.957452
-0.976153
-0.992471
-0.997138
-0.994786
-0.990407
382.047
382.228
382.522
382.852
383.187
383.503
383.746
383.866
383.815
383.561
332.904
333.107
333.439
333.794
334.183
334.565
334.871
335.032
334.992
334.735
283.681
283.921
284.327
284.827
285.338
285.826
286.203
286.381
286.296
285.958
234.368
234.642
235.075
235.683
236.419
237.142
237.693
237.948
237.825
237.353
184.746
185.04
185.668
186.49
187.471
188.508
189.306
189.63
189.42
188.746
134.663
134.852
135.78
136.967
138.169
139.641
140.793
141.259
140.962
140.036
84.8975
85.1283
86.2289
87.5397
90.0897
92.0518
93.305
93.7199
93.2303
91.9117
37.2012
38.9362
42.5559
45.1101
47.5743
49.0338
49.3135
48.672
47.1535
44.675
6.21153
6.55882
9.09245
11.9377
13.9673
14.3496
13.7478
13.0598
11.7917
9.81491
-0.330453
-0.323961
-0.297448
-0.200364
0.0383516
-0.0824508
-0.370033
-0.422669
-0.169397
-0.134673
-0.41555
-0.401303
-0.3884
-0.412536
-0.445238
-0.496602
-0.570256
-0.614546
-0.498714
-0.356276
-0.47535
-0.472177
-0.465446
-0.482204
-0.51697
-0.578232
-0.61819
-0.601604
-0.533623
-0.446346
-0.533301
-0.537483
-0.533106
-0.542086
-0.572064
-0.63907
-0.697747
-0.699731
-0.654551
-0.597065
-0.594307
-0.60375
-0.610457
-0.621387
-0.651907
-0.71074
-0.764713
-0.769346
-0.73528
-0.694178
-0.658209
-0.673394
-0.686155
-0.699662
-0.726269
-0.764811
-0.80858
-0.821356
-0.795991
-0.764207
-0.718405
-0.742689
-0.752688
-0.762177
-0.783021
-0.806459
-0.836322
-0.85286
-0.841535
-0.821146
-0.771739
-0.794549
-0.80232
-0.808375
-0.822812
-0.840685
-0.858465
-0.874078
-0.876096
-0.86887
-0.817431
-0.835803
-0.842413
-0.847554
-0.858882
-0.875184
-0.890698
-0.905749
-0.912789
-0.911383
-0.862473
-0.879726
-0.885444
-0.890888
-0.901707
-0.918409
-0.933823
-0.948137
-0.956988
-0.954787
-0.910453
-0.927485
-0.935102
-0.94166
-0.952145
-0.970994
-0.987481
-0.999604
-1.00612
-1.00208
382.877
383.047
383.326
383.66
384.015
384.348
384.595
384.707
384.644
384.362
333.811
334.002
334.309
334.679
335.095
335.499
335.808
335.956
335.898
335.609
284.778
285.002
285.375
285.864
286.387
286.875
287.235
287.385
287.264
286.896
235.697
235.982
236.375
237
237.73
238.407
238.886
239.059
238.854
238.32
186.367
186.604
187.224
188.045
189.034
189.993
190.623
190.749
190.357
189.517
136.644
136.817
137.84
138.865
140.286
141.643
142.433
142.436
141.712
140.439
87.395
87.4334
88.5082
90.9747
93.2672
94.8069
95.401
95.0371
93.7752
91.7934
40.5617
42.4963
45.1631
47.7796
50.3407
51.3747
51.0129
49.6061
47.1805
43.7786
8.08452
8.87988
11.333
14.2592
16.1921
16.1119
14.9713
13.5377
11.637
9.03162
-0.346313
-0.333032
-0.244671
0.170934
0.411115
0.222451
-0.194824
-0.35402
-0.0786291
-0.0142453
-0.442682
-0.42927
-0.422855
-0.438179
-0.46659
-0.515591
-0.625644
-0.666221
-0.466359
-0.285541
-0.498295
-0.497571
-0.497984
-0.51814
-0.550405
-0.595346
-0.636075
-0.630045
-0.558621
-0.451008
-0.546393
-0.559077
-0.562247
-0.5723
-0.603047
-0.666465
-0.725941
-0.731504
-0.685679
-0.624975
-0.59972
-0.61701
-0.630288
-0.640469
-0.672102
-0.731574
-0.786763
-0.790207
-0.750979
-0.708187
-0.65664
-0.68042
-0.695193
-0.705554
-0.732601
-0.773274
-0.812404
-0.821393
-0.799256
-0.77069
-0.709541
-0.740111
-0.750056
-0.758574
-0.779718
-0.804799
-0.83051
-0.846427
-0.840944
-0.824965
-0.755367
-0.78485
-0.794316
-0.80052
-0.816694
-0.836031
-0.855459
-0.87592
-0.883668
-0.875292
-0.799285
-0.823902
-0.834385
-0.840292
-0.852851
-0.870966
-0.890516
-0.91221
-0.923609
-0.916421
-0.844778
-0.866516
-0.880726
-0.889033
-0.899679
-0.916249
-0.935519
-0.951596
-0.959372
-0.95199
-0.89324
-0.914071
-0.930509
-0.94376
-0.95697
-0.972936
-0.987569
-0.996083
-0.999932
-0.997847
383.499
383.67
383.943
384.279
384.645
384.987
385.235
385.341
385.273
384.991
334.479
334.665
334.968
335.356
335.788
336.199
336.504
336.646
336.595
336.3
285.578
285.814
286.163
286.643
287.166
287.634
287.963
288.095
287.999
287.629
236.58
236.883
237.316
237.971
238.688
239.29
239.67
239.772
239.582
239.024
187.413
187.655
188.345
189.265
190.242
191.026
191.404
191.337
190.865
189.891
137.907
138.045
139.009
140.296
141.747
142.849
143.182
142.761
141.696
140.042
88.7199
88.729
90.3365
92.6787
94.7778
95.9701
95.856
94.7396
92.6535
89.8407
41.863
43.4039
45.9605
49.1781
51.2498
51.4716
50.1408
47.7096
43.9311
39.4168
8.92565
10.2093
12.9034
16.0275
17.4087
16.5613
14.5557
12.204
9.51378
6.714
-0.370674
-0.35625
-0.105845
0.321954
0.500338
0.287994
-0.241766
-0.435284
-0.118632
-0.0399221
-0.461964
-0.463093
-0.466513
-0.473707
-0.494657
-0.523546
-0.65854
-0.727289
-0.505168
-0.291691
-0.509614
-0.51938
-0.536875
-0.548005
-0.569062
-0.600994
-0.654519
-0.66806
-0.583466
-0.466099
-0.551644
-0.577389
-0.598199
-0.604964
-0.625417
-0.675643
-0.74368
-0.758581
-0.70608
-0.636215
-0.600669
-0.630817
-0.652155
-0.66039
-0.686548
-0.74299
-0.8086
-0.821028
-0.773804
-0.72102
-0.651168
-0.684402
-0.70038
-0.709816
-0.735447
-0.778664
-0.823175
-0.830253
-0.809202
-0.777619
-0.69793
-0.732041
-0.743092
-0.75104
-0.772251
-0.801597
-0.831493
-0.848671
-0.847252
-0.829411
-0.74167
-0.772604
-0.782526
-0.787085
-0.80375
-0.827443
-0.853353
-0.876918
-0.885613
-0.875468
-0.789779
-0.815949
-0.824486
-0.826664
-0.839204
-0.860951
-0.886036
-0.909052
-0.917836
-0.906004
-0.839383
-0.862462
-0.876338
-0.880391
-0.888541
-0.906384
-0.927907
-0.941747
-0.944286
-0.936451
-0.888567
-0.908115
-0.926242
-0.938905
-0.947675
-0.95908
-0.972325
-0.983078
-0.991108
-0.989669
383.857
384.029
384.298
384.634
385.006
385.35
385.592
385.684
385.622
385.426
334.858
335.04
335.341
335.737
336.175
336.591
336.887
337.009
336.978
336.869
286.012
286.273
286.599
287.063
287.571
288.013
288.316
288.441
288.372
288.146
237.03
237.334
237.792
238.458
239.143
239.672
239.965
240.027
239.84
239.392
187.899
188.181
188.935
189.918
190.832
191.43
191.588
191.367
190.795
189.935
138.433
138.703
139.796
141.161
142.425
143.118
143.051
142.307
140.962
139.255
88.9233
89.1503
91.0666
93.253
94.9581
95.508
94.9468
93.2491
90.4568
87.2088
41.3038
42.7137
45.8721
48.8239
50.1181
49.3205
47.2689
43.9351
38.8035
33.5128
8.48172
10.0098
13.1307
16.0114
16.3841
14.8432
12.4008
9.76267
6.60771
4.1547
-0.374126
-0.367499
-0.136534
0.177939
0.26669
0.0190629
-0.56325
-0.546939
-0.197685
-0.167683
-0.463087
-0.488532
-0.50596
-0.512925
-0.510354
-0.529752
-0.71511
-0.777874
-0.539746
-0.349848
-0.511457
-0.537804
-0.571188
-0.57429
-0.571184
-0.592581
-0.670688
-0.707187
-0.623367
-0.507761
-0.555759
-0.592255
-0.6308
-0.631254
-0.635047
-0.67037
-0.745844
-0.786401
-0.745885
-0.674763
-0.600894
-0.642433
-0.673622
-0.677416
-0.690976
-0.735681
-0.806782
-0.838181
-0.801892
-0.745184
-0.6468
-0.684856
-0.707067
-0.712489
-0.729678
-0.767661
-0.816285
-0.834315
-0.815469
-0.781673
-0.692311
-0.722607
-0.737331
-0.74188
-0.756751
-0.784983
-0.819032
-0.841504
-0.842615
-0.826144
-0.743673
-0.763523
-0.769802
-0.770958
-0.783314
-0.807399
-0.838635
-0.866683
-0.876013
-0.864587
-0.797671
-0.813564
-0.814586
-0.811823
-0.820231
-0.842198
-0.871071
-0.896147
-0.90174
-0.887396
-0.845053
-0.860529
-0.868448
-0.868328
-0.874204
-0.890338
-0.907313
-0.916009
-0.924661
-0.921926
-0.88561
-0.89971
-0.914779
-0.923744
-0.930082
-0.941161
-0.958537
-0.974015
-0.987224
-0.980112
383.929
384.102
384.364
384.687
385.048
385.381
385.611
385.698
385.625
385.444
334.93
335.101
335.388
335.776
336.201
336.602
336.886
337.005
336.966
336.816
286.052
286.339
286.649
287.079
287.556
287.975
288.269
288.397
288.338
288.053
237.036
237.353
237.789
238.423
239.062
239.554
239.845
239.916
239.763
239.277
187.809
188.136
188.866
189.818
190.662
191.194
191.341
191.118
190.605
189.73
138.185
138.624
139.833
141.163
142.175
142.65
142.493
141.714
140.418
138.72
88.4014
88.8481
90.9121
92.8368
94.1034
94.4189
93.7958
92.0766
89.1768
85.8429
40.3122
41.7914
45.0403
47.3172
47.945
46.9291
44.9181
41.2971
35.8215
30.6666
7.94367
9.58669
12.2286
13.9947
13.6594
12.2009
10.4365
7.8394
4.83026
2.96725
-0.351669
-0.297708
-0.246316
-0.149592
-0.157166
-0.482112
-0.859644
-0.571463
-0.313487
-0.327807
-0.458834
-0.498788
-0.532296
-0.543712
-0.511995
-0.564891
-0.777356
-0.776745
-0.586238
-0.460249
-0.514336
-0.551112
-0.593793
-0.59245
-0.571779
-0.59171
-0.675698
-0.725979
-0.677954
-0.589794
-0.559387
-0.607871
-0.654099
-0.651865
-0.639831
-0.659359
-0.725345
-0.785778
-0.775601
-0.719924
-0.603758
-0.646871
-0.688751
-0.688819
-0.686953
-0.713816
-0.772329
-0.81949
-0.81039
-0.765194
-0.646218
-0.679882
-0.709608
-0.711012
-0.715447
-0.739785
-0.780323
-0.807938
-0.801924
-0.772636
-0.697455
-0.716193
-0.729506
-0.730806
-0.736588
-0.756461
-0.786983
-0.813525
-0.8242
-0.813118
-0.75773
-0.763819
-0.761405
-0.756149
-0.762345
-0.782642
-0.813378
-0.844453
-0.85869
-0.848512
-0.808066
-0.817844
-0.811981
-0.797216
-0.803076
-0.82389
-0.853768
-0.877056
-0.879966
-0.866185
-0.843515
-0.853176
-0.861917
-0.863181
-0.861797
-0.863608
-0.869594
-0.888358
-0.911914
-0.909066
-0.878067
-0.889131
-0.908575
-0.918942
-0.924424
-0.937033
-0.95503
-0.968081
-0.981158
-0.969736
383.712
383.877
384.135
384.448
384.787
385.096
385.313
385.398
385.319
385.04
334.668
334.849
335.126
335.491
335.887
336.256
336.526
336.647
336.594
336.32
285.716
285.966
286.274
286.698
287.163
287.569
287.856
287.972
287.887
287.563
236.583
236.893
237.301
237.904
238.537
239.045
239.367
239.45
239.287
238.792
187.129
187.396
188.125
189.095
189.971
190.558
190.798
190.653
190.182
189.331
137.154
137.478
138.836
140.218
141.271
141.847
141.872
141.266
140.095
138.619
87.1024
87.3721
89.3373
91.2202
92.5769
93.1843
93.0503
91.86
89.4195
86.5421
38.7059
40.3358
42.7968
44.9008
45.7575
45.3566
44.3023
41.4888
36.9487
32.3838
6.89101
8.17554
10.3564
11.744
11.5309
10.6192
9.95585
7.79442
5.21839
3.38618
-0.377351
-0.361133
-0.409018
-0.432308
-0.509857
-0.86551
-0.874109
-0.436652
-0.422575
-0.500803
-0.467767
-0.499067
-0.547397
-0.554516
-0.514895
-0.604591
-0.772358
-0.733856
-0.655386
-0.590741
-0.519015
-0.563829
-0.607598
-0.607444
-0.586883
-0.594059
-0.654613
-0.703967
-0.701252
-0.656035
-0.563863
-0.615882
-0.662953
-0.662766
-0.644768
-0.647594
-0.692038
-0.747359
-0.763321
-0.737513
-0.600456
-0.644088
-0.688239
-0.68813
-0.677387
-0.687876
-0.726875
-0.769985
-0.780839
-0.764565
-0.645287
-0.673362
-0.70005
-0.700272
-0.697017
-0.707889
-0.735617
-0.764342
-0.775297
-0.759939
-0.712508
-0.717553
-0.71834
-0.715606
-0.716274
-0.729037
-0.752026
-0.778116
-0.797922
-0.797164
-0.770711
-0.779831
-0.766817
-0.747938
-0.747647
-0.763639
-0.788477
-0.817334
-0.835383
-0.832556
-0.816815
-0.828443
-0.826176
-0.810306
-0.802348
-0.813439
-0.834003
-0.850028
-0.853584
-0.848543
-0.855477
-0.868186
-0.87854
-0.875011
-0.857476
-0.841941
-0.854503
-0.885874
-0.904154
-0.896148
-0.892504
-0.914138
-0.927736
-0.932767
-0.934055
-0.938441
-0.951655
-0.961755
-0.969889
-0.962234
383.26
383.425
383.685
383.991
384.305
384.588
384.787
384.864
384.776
384.49
334.149
334.336
334.622
334.966
335.334
335.673
335.923
336.035
335.967
335.691
285.024
285.251
285.606
286.045
286.498
286.897
287.185
287.297
287.187
286.857
235.711
236.025
236.44
237.03
237.662
238.203
238.573
238.701
238.554
238.088
185.963
186.23
186.965
187.92
188.834
189.532
189.928
189.967
189.617
188.905
135.531
135.804
137.263
138.644
139.831
140.687
141.089
140.929
140.086
138.892
85.0044
85.1023
86.5658
88.5343
90.3473
91.677
92.407
92.2452
90.7739
88.5944
36.3666
37.9995
39.9002
41.7803
43.4138
44.2747
44.7026
43.8382
41.1421
37.5808
5.34523
6.00602
7.77918
9.47266
10.1278
10.0538
10.1583
9.87009
7.72657
5.46328
-0.413232
-0.435804
-0.474634
-0.48421
-0.524141
-0.867156
-0.670983
-0.451416
-0.609781
-0.716535
-0.470317
-0.511694
-0.551023
-0.553889
-0.529365
-0.607643
-0.713896
-0.736338
-0.733558
-0.720292
-0.519327
-0.571519
-0.608166
-0.61149
-0.596586
-0.594852
-0.626261
-0.66627
-0.686852
-0.682795
-0.557143
-0.61202
-0.654499
-0.657001
-0.642325
-0.637487
-0.661768
-0.702142
-0.725714
-0.728075
-0.591527
-0.633443
-0.67152
-0.671761
-0.661868
-0.66395
-0.687643
-0.723588
-0.74415
-0.74495
-0.649384
-0.668433
-0.686117
-0.684333
-0.679899
-0.683664
-0.7011
-0.727597
-0.747207
-0.747682
-0.721691
-0.727506
-0.714659
-0.707809
-0.705645
-0.712504
-0.727669
-0.750333
-0.77472
-0.780544
-0.786852
-0.801164
-0.787731
-0.758143
-0.745552
-0.755492
-0.771172
-0.795285
-0.814473
-0.819408
-0.842339
-0.86077
-0.857095
-0.835163
-0.816847
-0.808015
-0.81072
-0.824868
-0.834751
-0.841737
-0.889948
-0.91307
-0.911434
-0.89145
-0.86219
-0.845699
-0.863474
-0.885978
-0.893377
-0.890213
-0.91798
-0.943213
-0.945859
-0.945834
-0.94035
-0.93842
-0.945756
-0.955483
-0.959822
-0.962748
382.659
382.831
383.104
383.404
383.693
383.947
384.126
384.192
384.094
383.795
333.463
333.662
333.978
334.31
334.645
334.953
335.183
335.286
335.21
334.918
284.111
284.361
284.777
285.241
285.678
286.067
286.356
286.477
286.374
286.03
234.543
234.844
235.306
235.938
236.59
237.161
237.574
237.761
237.656
237.236
184.486
184.832
185.547
186.47
187.407
188.226
188.797
189.033
188.822
188.259
133.665
133.941
135.446
136.807
138.068
139.182
139.971
140.237
139.775
138.878
82.5194
82.4699
83.8316
85.2772
87.3915
89.4579
91.069
91.7427
91.1667
89.7657
33.3556
34.6724
36.7237
38.6096
40.5072
42.5921
44.3067
44.749
43.7134
41.6249
4.12973
4.36198
5.36838
6.81435
8.36692
9.46892
10.5968
10.9527
10.0357
8.24993
-0.406623
-0.435117
-0.478462
-0.469961
-0.492028
-0.540878
-0.394529
-0.588416
-0.684136
-0.732593
-0.460614
-0.509735
-0.547913
-0.539662
-0.526474
-0.591366
-0.647672
-0.696234
-0.718872
-0.731363
-0.509715
-0.56547
-0.598576
-0.607083
-0.592549
-0.595779
-0.60553
-0.629938
-0.650286
-0.665281
-0.539754
-0.595606
-0.633337
-0.640476
-0.627952
-0.627104
-0.639452
-0.667226
-0.687863
-0.70085
-0.578492
-0.61773
-0.648812
-0.652342
-0.644548
-0.6466
-0.662649
-0.691664
-0.71325
-0.722102
-0.650902
-0.667638
-0.676391
-0.673435
-0.669078
-0.671131
-0.68397
-0.707095
-0.728504
-0.735632
-0.727385
-0.739242
-0.720739
-0.707189
-0.704191
-0.706925
-0.717047
-0.736699
-0.75858
-0.76879
-0.80775
-0.826848
-0.814179
-0.777842
-0.755738
-0.753422
-0.761648
-0.779614
-0.799126
-0.811188
-0.876477
-0.897511
-0.88718
-0.85657
-0.828343
-0.806484
-0.805318
-0.818267
-0.830961
-0.844902
-0.917736
-0.940555
-0.923413
-0.894621
-0.866606
-0.854043
-0.866599
-0.880806
-0.884967
-0.893842
-0.936305
-0.957881
-0.956056
-0.951885
-0.936763
-0.930518
-0.937005
-0.947522
-0.952454
-0.97088
382.002
382.2
382.512
382.795
383.044
383.262
383.416
383.464
383.349
383.022
332.705
332.94
333.334
333.668
333.941
334.198
334.401
334.489
334.397
334.07
283.103
283.393
283.919
284.434
284.845
285.197
285.479
285.616
285.522
285.149
233.151
233.466
234.043
234.804
235.485
236.069
236.525
236.773
236.705
236.294
182.73
183.184
183.944
184.912
185.897
186.811
187.535
187.95
187.874
187.403
131.528
131.882
133.23
134.782
136.326
137.529
138.565
139.135
138.939
138.265
79.7309
79.7607
81.3449
82.6417
84.2065
86.5793
88.7762
90.1409
90.166
89.3089
30.4246
31.0279
33.2306
35.185
37.5639
40.0239
42.4105
43.5186
43.131
41.9794
3.29661
3.30496
3.94646
4.7172
5.97908
7.80198
10.084
10.4887
9.67385
8.7016
-0.400835
-0.426413
-0.464738
-0.440496
-0.42256
-0.354646
-0.307669
-0.481416
-0.545903
-0.569854
-0.448691
-0.493631
-0.531887
-0.53399
-0.510597
-0.55491
-0.565988
-0.571022
-0.588801
-0.610462
-0.493559
-0.545941
-0.579569
-0.599358
-0.58387
-0.580633
-0.578892
-0.590968
-0.605173
-0.618861
-0.523585
-0.571786
-0.606877
-0.619876
-0.615128
-0.612944
-0.62106
-0.639328
-0.655514
-0.666201
-0.570768
-0.601843
-0.624619
-0.632513
-0.630371
-0.635121
-0.64989
-0.671333
-0.689455
-0.698654
-0.646212
-0.663208
-0.665828
-0.665263
-0.662403
-0.666167
-0.679261
-0.698675
-0.716479
-0.726291
-0.726234
-0.741139
-0.72618
-0.710649
-0.704057
-0.70572
-0.71392
-0.730706
-0.749963
-0.764553
-0.809092
-0.829561
-0.817988
-0.784549
-0.762119
-0.753014
-0.754863
-0.768504
-0.789396
-0.810142
-0.883132
-0.912722
-0.897364
-0.863724
-0.834361
-0.813315
-0.809304
-0.817323
-0.833497
-0.853148
-0.923753
-0.946077
-0.923632
-0.896345
-0.875275
-0.865187
-0.869356
-0.876999
-0.88216
-0.899656
-0.936242
-0.956717
-0.953727
-0.943656
-0.9208
-0.915725
-0.925334
-0.935304
-0.943968
-0.97601
381.374
381.631
382.031
382.277
382.439
382.598
382.719
382.744
382.603
382.243
331.965
332.293
332.844
333.161
333.324
333.481
333.645
333.712
333.594
333.231
282.069
282.46
283.188
283.789
284.095
284.372
284.625
284.77
284.683
284.291
231.677
232.053
232.816
233.76
234.435
234.996
235.495
235.805
235.782
235.381
180.825
181.285
182.078
183.312
184.438
185.387
186.255
186.842
186.922
186.551
129.11
129.478
130.543
132.192
134.058
135.791
137.136
137.949
138.047
137.521
76.7093
76.63
78.159
79.9501
81.9287
84.0288
86.1553
88.1352
88.9173
88.422
27.818
27.2974
29.4234
31.7013
34.1771
37.1083
39.8596
41.5417
41.9923
41.3251
2.58526
2.28962
2.93937
3.58549
4.24084
5.33704
7.94821
9.40154
9.27409
8.54169
-0.389252
-0.409395
-0.442433
-0.432593
-0.385685
-0.343901
-0.365379
-0.457426
-0.500893
-0.49905
-0.435772
-0.472685
-0.509562
-0.521051
-0.499264
-0.475092
-0.508697
-0.510072
-0.522194
-0.536589
-0.477377
-0.520227
-0.557783
-0.576725
-0.571641
-0.556877
-0.554869
-0.559688
-0.570969
-0.579807
-0.512486
-0.548787
-0.580512
-0.592516
-0.595346
-0.596736
-0.602899
-0.612024
-0.623949
-0.632109
-0.564998
-0.587124
-0.603961
-0.611749
-0.614681
-0.623986
-0.638595
-0.652519
-0.665381
-0.675601
-0.63219
-0.650941
-0.650976
-0.650432
-0.653436
-0.660547
-0.674549
-0.690601
-0.705581
-0.717774
-0.709223
-0.73015
-0.716921
-0.70557
-0.698445
-0.70254
-0.71053
-0.726225
-0.745896
-0.764592
-0.791577
-0.817104
-0.802786
-0.778273
-0.76097
-0.751405
-0.750087
-0.76254
-0.786923
-0.814668
-0.870995
-0.902443
-0.881882
-0.855645
-0.834719
-0.820607
-0.813248
-0.817372
-0.837888
-0.866641
-0.909717
-0.933857
-0.915808
-0.896669
-0.880689
-0.875362
-0.875263
-0.880961
-0.891175
-0.912503
-0.921347
-0.945569
-0.942665
-0.930516
-0.909374
-0.905345
-0.910683
-0.919674
-0.935089
-0.972057
380.822
381.191
381.7
381.872
381.911
381.988
382.075
382.082
381.921
381.535
331.286
331.767
332.458
332.773
332.782
332.849
332.964
333.005
332.87
332.487
281.111
281.639
282.522
283.163
283.367
283.568
283.818
283.98
283.896
283.509
230.38
230.72
231.632
232.598
233.276
233.912
234.495
234.87
234.901
234.522
178.986
179.236