/*--------------------------------*- C++ -*----------------------------------*\
| =========                 |                                                 |
| \\      /  F ield         | OpenFOAM: The Open Source CFD Toolbox           |
|  \\    /   O peration     | Version:  2312                                  |
|   \\  /    A nd           | Website:  www.openfoam.com                      |
|    \\/     M anipulation  |                                                 |
\*---------------------------------------------------------------------------*/
FoamFile
{
    version     2.0;
    format      ascii;
    arch        "LSB;label=32;scalar=64";
    class       surfaceScalarField;
    location    "0.135";
    object      phi;
}
// * * * * * * * * * * * * * * * * * * * * * * * * * * * * * * * * * * * * * //

dimensions      [0 3 -1 0 0 0 0];

oriented        oriented;

internalField   nonuniform List<scalar> 
22600
(
-9.21397e-08
1.85842e-07
-9.37018e-08
-1.78005e-07
1.87699e-07
-1.01833e-07
-2.50999e-07
1.90908e-07
-1.17913e-07
-3.04298e-07
1.94988e-07
-1.41689e-07
-3.31173e-07
1.992e-07
-1.72325e-07
-3.25891e-07
2.02798e-07
-2.0808e-07
-2.85169e-07
2.05226e-07
-2.45948e-07
-2.09948e-07
2.0631e-07
-2.81531e-07
-1.06867e-07
2.06365e-07
-3.09445e-07
2.06052e-07
-3.24464e-07
-9.09201e-08
3.69215e-07
-9.24537e-08
-1.75861e-07
3.73434e-07
-1.00794e-07
-2.48437e-07
3.80837e-07
-1.17353e-07
-3.01951e-07
3.9049e-07
-1.41987e-07
-3.29631e-07
4.0086e-07
-1.73981e-07
-3.25496e-07
4.10334e-07
-2.1167e-07
-2.85851e-07
4.17585e-07
-2.52003e-07
-2.11168e-07
4.21974e-07
-2.90348e-07
-1.07811e-07
4.23796e-07
-3.20787e-07
4.24069e-07
-3.37322e-07
-8.66994e-08
5.4406e-07
-8.81447e-08
-1.68033e-07
5.51423e-07
-9.6655e-08
-2.38173e-07
5.64646e-07
-1.1367e-07
-2.90808e-07
5.82377e-07
-1.39252e-07
-3.1929e-07
6.02297e-07
-1.72955e-07
-3.17376e-07
6.21759e-07
-2.13339e-07
-2.80673e-07
6.38328e-07
-2.57446e-07
-2.0873e-07
6.50341e-07
-3.0031e-07
-1.07202e-07
6.57341e-07
-3.35073e-07
6.60038e-07
-3.5431e-07
-7.96815e-08
7.04733e-07
-8.09914e-08
-1.54866e-07
7.1611e-07
-8.95026e-08
-2.20531e-07
7.36981e-07
-1.0667e-07
-2.70991e-07
7.65664e-07
-1.32827e-07
-2.99908e-07
7.99109e-07
-1.67895e-07
-3.00852e-07
8.33602e-07
-2.10899e-07
-2.68663e-07
8.65233e-07
-2.59094e-07
-2.01679e-07
8.90569e-07
-3.07211e-07
-1.04441e-07
9.07402e-07
-3.47299e-07
9.15097e-07
-3.70021e-07
-6.87484e-08
8.43344e-07
-6.98632e-08
-1.34066e-07
8.59314e-07
-7.78866e-08
-1.91974e-07
8.89116e-07
-9.42269e-08
-2.37719e-07
9.30898e-07
-1.19488e-07
-2.65612e-07
9.81077e-07
-1.54075e-07
-2.69391e-07
1.03494e-06
-1.97561e-07
-2.43409e-07
1.08694e-06
-2.47691e-07
-1.8483e-07
1.13131e-06
-2.9932e-07
-9.66905e-08
1.16299e-06
-3.4373e-07
1.17863e-06
-3.69675e-07
-5.32656e-08
9.5073e-07
-5.41206e-08
-1.04272e-07
9.71195e-07
-6.08746e-08
-1.50239e-07
1.00985e-06
-7.4769e-08
-1.87642e-07
1.0649e-06
-9.66041e-08
-2.11909e-07
1.13252e-06
-1.27178e-07
-2.17595e-07
1.20726e-06
-1.6663e-07
-1.99237e-07
1.28204e-06
-2.13456e-07
-1.53272e-07
1.34857e-06
-2.63226e-07
-8.10929e-08
1.39828e-06
-3.07469e-07
1.42392e-06
-3.34153e-07
-3.36417e-08
1.01855e-06
-3.41814e-08
-6.605e-08
1.04239e-06
-3.87847e-08
-9.58462e-08
1.08801e-06
-4.83628e-08
-1.20931e-07
1.15371e-06
-6.37222e-08
-1.38327e-07
1.23572e-06
-8.58006e-08
-1.44156e-07
1.32829e-06
-1.15204e-07
-1.34089e-07
1.42335e-06
-1.51378e-07
-1.04719e-07
1.51063e-06
-1.91427e-07
-5.60732e-08
1.57839e-06
-2.2875e-07
1.61479e-06
-2.52328e-07
-5.52141e-09
1.02969e-06
-5.61249e-09
-1.09076e-08
1.05421e-06
-6.43387e-09
-1.62981e-08
1.10162e-06
-8.21542e-09
-2.13694e-08
1.17e-06
-1.1214e-08
-2.55279e-08
1.25562e-06
-1.57452e-08
-2.78e-08
1.3525e-06
-2.19396e-08
-2.67461e-08
1.45151e-06
-2.92138e-08
-2.1135e-08
1.54134e-06
-3.63235e-08
-1.12257e-08
1.61024e-06
-4.17615e-08
1.64528e-06
-4.30499e-08
-3.53382e-08
1.10086e-06
-3.58389e-08
-7.09388e-08
1.12772e-06
-3.79072e-08
-1.02281e-07
1.17474e-06
-4.17793e-08
-1.29044e-07
1.24447e-06
-4.77093e-08
-1.50426e-07
1.33256e-06
-5.55572e-08
-1.66381e-07
1.43405e-06
-6.55965e-08
-1.71924e-07
1.53028e-06
-7.32252e-08
-1.4855e-07
1.55324e-06
-3.52763e-08
-8.4655e-08
1.58128e-06
-3.4939e-08
1.64512e-06
-9.43349e-08
-4.80337e-07
2.06317e-06
-4.8197e-07
-1.01489e-06
2.16964e-06
-5.07378e-07
-1.63654e-06
2.3327e-06
-5.36302e-07
-2.41322e-06
2.61351e-06
-5.92362e-07
-3.45708e-06
3.06022e-06
-6.8379e-07
-4.89857e-06
3.74538e-06
-8.69836e-07
-6.39411e-06
4.81633e-06
-1.79051e-06
-6.356e-06
6.47324e-06
-4.95811e-06
-3.69758e-06
8.46878e-06
-9.54592e-06
9.8531e-06
-1.21263e-05
-4.60361e-07
2.98622e-06
-4.62682e-07
-9.59144e-07
3.14754e-06
-4.79118e-07
-1.51374e-06
3.36959e-06
-4.82298e-07
-2.15248e-06
3.73916e-06
-4.86907e-07
-2.90652e-06
4.30326e-06
-4.89007e-07
-3.80461e-06
5.1325e-06
-4.89015e-07
-4.71658e-06
6.3409e-06
-6.12612e-07
-4.93002e-06
8.06184e-06
-1.37516e-06
-3.30027e-06
1.01362e-05
-3.29713e-06
1.16954e-05
-5.42966e-06
-3.43837e-07
3.67612e-06
-3.46065e-07
-7.08236e-07
3.85969e-06
-3.47748e-07
-1.09341e-06
4.07719e-06
-3.22428e-07
-1.50123e-06
4.42498e-06
-2.77987e-07
-1.92134e-06
4.92785e-06
-2.04475e-07
-2.31882e-06
5.61798e-06
-8.80041e-08
-2.58773e-06
6.53278e-06
7.7035e-08
-2.47753e-06
7.6947e-06
2.56947e-07
-1.61108e-06
8.99171e-06
2.77996e-07
9.96822e-06
-5.37705e-08
-2.33035e-07
4.14417e-06
-2.35023e-07
-4.7639e-07
4.33135e-06
-2.28309e-07
-7.22165e-07
4.51309e-06
-1.90119e-07
-9.63523e-07
4.79356e-06
-1.27223e-07
-1.18307e-06
5.17984e-06
-3.24404e-08
-1.34554e-06
5.6756e-06
1.0484e-07
-1.38334e-06
6.27607e-06
2.94508e-07
-1.19712e-06
6.95448e-06
5.54003e-07
-7.03366e-07
7.62486e-06
8.73092e-07
8.0872e-06
1.09287e-06
-1.42445e-07
4.4307e-06
-1.44086e-07
-2.91442e-07
4.61523e-06
-1.34879e-07
-4.37383e-07
4.75504e-06
-9.60148e-08
-5.73655e-07
4.96493e-06
-3.50941e-08
-6.87216e-07
5.24334e-06
5.00553e-08
-7.56915e-07
5.58314e-06
1.62156e-07
-7.49472e-07
5.96967e-06
2.98956e-07
-6.2228e-07
6.37199e-06
4.553e-07
-3.52487e-07
6.73061e-06
6.24455e-07
6.95307e-06
7.33541e-07
-7.29506e-08
4.57777e-06
-7.41202e-08
-1.51935e-07
4.7595e-06
-6.52863e-08
-2.28542e-07
4.86247e-06
-3.08163e-08
-2.98467e-07
5.01349e-06
2.13666e-08
-3.53882e-07
5.20865e-06
9.01072e-08
-3.84721e-07
5.43838e-06
1.75612e-07
-3.75686e-07
5.68866e-06
2.71977e-07
-3.07215e-07
5.93668e-06
3.66841e-07
-1.74165e-07
6.14591e-06
4.5166e-07
6.26779e-06
4.83213e-07
-2.1892e-08
4.62215e-06
-2.24881e-08
-5.07277e-08
4.80327e-06
-1.4939e-08
-7.96382e-08
4.87729e-06
1.40916e-08
-1.06428e-07
4.98341e-06
5.68651e-08
-1.28962e-07
5.11689e-06
1.14288e-07
-1.42656e-07
5.27032e-06
1.8175e-07
-1.40911e-07
5.43269e-06
2.54222e-07
-1.14213e-07
5.5872e-06
3.2278e-07
-6.70248e-08
5.71423e-06
3.84492e-07
5.78486e-06
4.01065e-07
1.36502e-08
4.59479e-06
1.37173e-08
1.99255e-08
4.77686e-06
2.01492e-08
2.38242e-08
4.82821e-06
4.51821e-08
2.39235e-08
4.90117e-06
8.21466e-08
2.03613e-08
4.99131e-06
1.29147e-07
1.38751e-08
5.09271e-06
1.84101e-07
5.93984e-09
5.19738e-06
2.43249e-07
2.94653e-09
5.29414e-06
2.96065e-07
-4.05186e-09
5.37169e-06
3.49536e-07
5.41432e-06
3.60015e-07
4.01752e-08
4.51384e-06
4.07645e-08
6.9363e-08
4.70134e-06
4.63299e-08
9.4446e-08
4.73622e-06
6.69094e-08
1.11871e-07
4.78519e-06
9.8543e-08
1.19168e-07
4.84563e-06
1.38379e-07
1.1486e-07
4.91232e-06
1.84693e-07
9.83526e-08
4.97939e-06
2.34509e-07
7.35264e-08
5.0399e-06
2.79077e-07
3.33629e-08
5.08574e-06
3.26117e-07
5.11352e-06
3.33436e-07
5.85229e-08
4.39543e-06
5.99016e-08
1.04865e-07
4.59045e-06
6.45489e-08
1.45132e-07
4.61279e-06
8.31622e-08
1.73486e-07
4.64692e-06
1.09916e-07
1.86745e-07
4.68809e-06
1.44282e-07
1.82337e-07
4.73262e-06
1.84112e-07
1.58536e-07
4.77602e-06
2.27172e-07
1.19349e-07
4.81441e-06
2.64669e-07
5.73299e-08
4.84156e-06
3.06189e-07
4.85962e-06
3.13774e-07
7.18257e-08
7.38907e-08
4.24971e-06
1.3043e-07
7.82491e-08
4.4536e-06
1.80683e-07
9.45273e-08
4.46801e-06
2.16264e-07
1.18497e-07
4.49285e-06
2.32958e-07
1.48608e-07
4.52278e-06
2.27425e-07
1.83848e-07
4.5543e-06
1.97725e-07
2.21406e-07
4.58432e-06
1.47984e-07
2.53669e-07
4.61049e-06
7.26574e-08
2.89487e-07
4.62741e-06
2.98951e-07
4.63845e-06
-1.00269e-07
1.87738e-07
-1.81171e-07
-1.94179e-07
1.89444e-07
-1.97368e-07
-2.74882e-07
1.92289e-07
-2.29499e-07
-3.35015e-07
1.95687e-07
-2.77243e-07
-3.66942e-07
1.98782e-07
-3.3918e-07
-3.63678e-07
2.00735e-07
-4.12079e-07
-3.20584e-07
2.01005e-07
-4.90048e-07
-2.37652e-07
1.9964e-07
-5.64102e-07
-1.21737e-07
1.97433e-07
-6.22793e-07
1.95742e-07
-6.54621e-07
-9.92589e-08
3.73518e-07
-1.78975e-07
-1.92512e-07
3.77553e-07
-1.95649e-07
-2.73167e-07
3.84468e-07
-2.28877e-07
-3.34003e-07
3.93121e-07
-2.78585e-07
-3.67289e-07
4.01729e-07
-3.43643e-07
-3.65678e-07
4.08487e-07
-4.21033e-07
-3.23903e-07
4.12035e-07
-5.04807e-07
-2.41246e-07
4.12063e-07
-5.85428e-07
-1.24097e-07
4.09745e-07
-6.50247e-07
4.07437e-07
-6.85841e-07
-9.52078e-08
5.51558e-07
-1.70977e-07
-1.85137e-07
5.58934e-07
-1.88107e-07
-2.63852e-07
5.72029e-07
-2.22515e-07
-3.24572e-07
5.89216e-07
-2.74627e-07
-3.59643e-07
6.07802e-07
-3.43956e-07
-3.61249e-07
6.24803e-07
-4.2805e-07
-3.23065e-07
6.37603e-07
-5.21199e-07
-2.429e-07
6.44798e-07
-6.13211e-07
-1.26009e-07
6.46933e-07
-6.89153e-07
6.46445e-07
-7.31883e-07
-8.8191e-08
7.16305e-07
-1.57547e-07
-1.72118e-07
7.28184e-07
-1.74826e-07
-2.46784e-07
7.49909e-07
-2.09885e-07
-3.06121e-07
7.79526e-07
-2.63799e-07
-3.42789e-07
8.13567e-07
-3.36991e-07
-3.48602e-07
8.47788e-07
-4.28071e-07
-3.15955e-07
8.77829e-07
-5.31967e-07
-2.40721e-07
9.00219e-07
-6.37866e-07
-1.26373e-07
9.13409e-07
-7.28123e-07
9.18374e-07
-7.80499e-07
-7.67704e-08
8.59573e-07
-1.3636e-07
-1.50484e-07
8.76817e-07
-1.52806e-07
-2.17331e-07
9.09075e-07
-1.86545e-07
-2.72314e-07
9.54323e-07
-2.39303e-07
-3.08834e-07
1.00863e-06
-3.12614e-07
-3.18792e-07
1.06672e-06
-4.0654e-07
-2.93726e-07
1.12237e-06
-5.17298e-07
-2.27538e-07
1.16911e-06
-6.34398e-07
-1.21275e-07
1.20159e-06
-7.38171e-07
1.21698e-06
-8.00876e-07
-6.00186e-08
9.71514e-07
-1.06043e-07
-1.18232e-07
9.94185e-07
-1.20028e-07
-1.72141e-07
1.03727e-06
-1.49059e-07
-2.1815e-07
1.09903e-06
-1.953e-07
-2.50971e-07
1.1755e-06
-2.61234e-07
-2.63454e-07
1.26086e-06
-3.4828e-07
-2.47269e-07
1.34721e-06
-4.54482e-07
-1.95183e-07
1.42489e-06
-5.71089e-07
-1.05803e-07
1.4834e-06
-6.78662e-07
1.51373e-06
-7.46378e-07
-3.82446e-08
1.04275e-06
-6.71756e-08
-7.567e-08
1.06964e-06
-7.68138e-08
-1.11224e-07
1.12156e-06
-9.70968e-08
-1.42894e-07
1.19717e-06
-1.30197e-07
-1.67293e-07
1.29306e-06
-1.7896e-07
-1.79281e-07
1.40366e-06
-2.46019e-07
-1.72171e-07
1.5208e-06
-3.32082e-07
-1.392e-07
1.63323e-06
-4.32742e-07
-7.70495e-08
1.72503e-06
-5.32531e-07
1.77713e-06
-5.99896e-07
-6.34259e-09
1.05459e-06
-1.11037e-08
-1.26728e-08
1.08241e-06
-1.28727e-08
-1.92502e-08
1.1367e-06
-1.67782e-08
-2.57928e-08
1.21602e-06
-2.35225e-08
-3.15093e-08
1.31702e-06
-3.399e-08
-3.46553e-08
1.43349e-06
-4.86231e-08
-3.3008e-08
1.5574e-06
-6.74602e-08
-2.58611e-08
1.68081e-06
-9.10499e-08
-1.31488e-08
1.78351e-06
-1.12952e-07
1.84037e-06
-1.21306e-07
-3.73904e-08
1.12807e-06
-7.1927e-08
-7.50453e-08
1.15816e-06
-7.60016e-08
-1.07912e-07
1.21096e-06
-8.31744e-08
-1.35785e-07
1.29014e-06
-9.39494e-08
-1.58841e-07
1.39433e-06
-1.09805e-07
-1.7007e-07
1.50503e-06
-1.25909e-07
-1.35889e-07
1.54731e-06
-9.73167e-08
-6.82759e-08
1.73552e-06
-1.57601e-07
-2.73889e-08
2.26704e-06
-5.59362e-07
2.64801e-06
-9.37415e-07
-5.05738e-07
2.16966e-06
-1.01783e-06
-1.07214e-06
2.28975e-06
-1.07256e-06
-1.74146e-06
2.48077e-06
-1.13679e-06
-2.60409e-06
2.81277e-06
-1.25236e-06
-3.79694e-06
3.33219e-06
-1.42881e-06
-5.11687e-06
4.10668e-06
-2.15155e-06
-5.13093e-06
5.32407e-06
-5.5532e-06
-3.21574e-06
7.02213e-06
-1.21599e-05
-1.37881e-06
8.33116e-06
-1.7447e-05
8.50924e-06
-1.94024e-05
-4.76709e-07
3.14754e-06
-9.63849e-07
-9.93368e-07
3.32369e-06
-9.96398e-07
-1.56779e-06
3.57215e-06
-9.99253e-07
-2.23226e-06
3.98671e-06
-9.96371e-07
-3.04021e-06
4.61745e-06
-9.6632e-07
-4.03461e-06
5.53812e-06
-9.26062e-07
-4.83968e-06
6.90568e-06
-1.38915e-06
-4.41105e-06
8.87325e-06
-3.65491e-06
-2.47962e-06
1.09617e-05
-7.8591e-06
1.20447e-05
-1.15389e-05
-3.45391e-07
3.85981e-06
-7.12952e-07
-7.09925e-07
4.05427e-06
-7.1379e-07
-1.09041e-06
4.28633e-06
-6.56117e-07
-1.48601e-06
4.65608e-06
-5.51759e-07
-1.88771e-06
5.18768e-06
-3.73008e-07
-2.27868e-06
5.91416e-06
-7.30682e-08
-2.57846e-06
6.89369e-06
3.88803e-07
-2.48074e-06
8.17733e-06
8.55152e-07
-1.53617e-06
9.58409e-06
7.1104e-07
1.04988e-05
-1.69427e-07
-2.26188e-07
4.33163e-06
-4.80656e-07
-4.6107e-07
4.5258e-06
-4.64955e-07
-6.93491e-07
4.71191e-06
-3.83277e-07
-9.14173e-07
4.99704e-06
-2.47502e-07
-1.10408e-06
5.38537e-06
-4.02262e-08
-1.22951e-06
5.87998e-06
2.64449e-07
-1.23376e-06
6.47896e-06
7.13487e-07
-1.03942e-06
7.16202e-06
1.37498e-06
-6.05782e-07
7.84322e-06
2.18031e-06
8.31116e-06
2.60388e-06
-1.33117e-07
4.61565e-06
-2.94985e-07
-2.71993e-07
4.8052e-06
-2.75404e-07
-4.05045e-07
4.94437e-06
-1.9542e-07
-5.24889e-07
5.15186e-06
-7.00623e-08
-6.18631e-07
5.42517e-06
1.03996e-07
-6.69276e-07
5.75746e-06
3.35328e-07
-6.47857e-07
6.13404e-06
6.22455e-07
-5.20677e-07
6.52288e-06
9.67257e-07
-2.98977e-07
6.86987e-06
1.3761e-06
7.08579e-06
1.62006e-06
-6.40198e-08
4.76003e-06
-1.54483e-07
-1.33958e-07
4.94635e-06
-1.36499e-07
-2.00219e-07
5.04723e-06
-6.74168e-08
-2.58683e-07
5.195e-06
3.66943e-08
-3.03233e-07
5.38623e-06
1.73605e-07
-3.26099e-07
5.61251e-06
3.43437e-07
-3.16119e-07
5.85897e-06
5.37063e-07
-2.53664e-07
6.1003e-06
7.26974e-07
-1.54348e-07
6.30303e-06
9.19182e-07
6.41598e-06
9.75312e-07
-1.42747e-08
4.80393e-06
-5.2109e-08
-3.54999e-08
4.98956e-06
-3.69054e-08
-5.63232e-08
5.06175e-06
2.04019e-08
-7.53534e-08
5.16631e-06
1.04579e-07
-9.05967e-08
5.29932e-06
2.16442e-07
-9.97094e-08
5.45294e-06
3.5044e-07
-9.92516e-08
5.61633e-06
4.96413e-07
-7.51689e-08
5.76899e-06
6.30011e-07
-5.43481e-08
5.89754e-06
7.69147e-07
5.96188e-06
7.90073e-07
2.01822e-08
4.77748e-06
1.99886e-08
3.19953e-08
4.96674e-06
3.11515e-08
4.01073e-08
5.01768e-06
8.11387e-08
4.506e-08
5.09083e-06
1.52678e-07
4.57957e-08
5.18261e-06
2.45127e-07
4.19815e-08
5.28664e-06
3.54217e-07
3.46393e-08
5.39425e-06
4.72685e-07
2.58169e-08
5.49468e-06
5.79197e-07
4.34996e-09
5.57389e-06
6.94661e-07
5.61453e-06
7.08809e-07
4.56782e-08
4.70197e-06
7.05947e-08
8.03894e-08
4.89724e-06
8.11209e-08
1.09722e-07
4.93292e-06
1.22338e-07
1.31302e-07
4.9842e-06
1.83586e-07
1.42375e-07
5.04803e-06
2.61885e-07
1.40511e-07
5.1189e-06
3.54296e-07
1.22715e-07
5.19082e-06
4.55729e-07
9.58625e-08
5.25511e-06
5.45499e-07
4.09754e-08
5.30617e-06
6.48729e-07
5.3321e-06
6.58879e-07
6.3155e-08
4.5914e-06
1.07328e-07
1.13608e-07
4.79525e-06
1.16067e-07
1.57973e-07
4.81955e-06
1.52173e-07
1.90473e-07
4.8574e-06
2.04224e-07
2.07376e-07
4.90353e-06
2.71878e-07
2.05339e-07
4.95382e-06
3.5124e-07
1.80749e-07
5.0035e-06
4.39091e-07
1.38943e-07
5.04737e-06
5.14218e-07
6.42265e-08
5.08014e-06
6.06927e-07
5.09803e-06
6.17074e-07
7.62003e-08
1.34274e-07
4.45482e-06
1.38305e-07
1.42225e-07
4.66918e-06
1.92414e-07
1.73206e-07
4.68675e-06
2.31828e-07
2.19768e-07
4.71672e-06
2.51766e-07
2.78897e-07
4.75331e-06
2.4826e-07
3.48241e-07
4.79294e-06
2.1715e-07
4.24372e-07
4.83165e-06
1.65664e-07
4.87385e-07
4.86513e-06
7.91611e-08
5.66336e-07
4.88979e-06
5.81201e-07
4.90156e-06
-1.16366e-07
1.91022e-07
-2.55826e-07
-2.26308e-07
1.92363e-07
-2.79788e-07
-3.22572e-07
1.94338e-07
-3.27574e-07
-3.96793e-07
1.96134e-07
-3.99156e-07
-4.39514e-07
1.96596e-07
-4.93055e-07
-4.41114e-07
1.94639e-07
-6.05117e-07
-3.93934e-07
1.8971e-07
-7.26938e-07
-2.95631e-07
1.82332e-07
-8.44737e-07
-1.53104e-07
1.74466e-07
-9.39786e-07
1.69255e-07
-9.92056e-07
-1.15836e-07
3.81081e-07
-2.53198e-07
-2.25736e-07
3.84627e-07
-2.78013e-07
-3.22809e-07
3.90292e-07
-3.27758e-07
-3.98859e-07
3.96457e-07
-4.02858e-07
-4.44263e-07
4.00766e-07
-5.02409e-07
-4.48771e-07
4.0086e-07
-6.22745e-07
-4.03603e-07
3.9525e-07
-7.55515e-07
-3.05041e-07
3.8437e-07
-8.86028e-07
-1.58997e-07
3.71497e-07
-9.93321e-07
3.62439e-07
-1.05341e-06
-1.12242e-07
5.65046e-07
-2.42699e-07
-2.19542e-07
5.72291e-07
-2.6847e-07
-3.15901e-07
5.84771e-07
-3.20634e-07
-3.93707e-07
6.00202e-07
-4.00566e-07
-4.4332e-07
6.15047e-07
-5.08624e-07
-4.53583e-07
6.25478e-07
-6.42404e-07
-4.13733e-07
6.28348e-07
-7.94148e-07
-3.17204e-07
6.22806e-07
-9.48175e-07
-1.67516e-07
6.11866e-07
-1.07921e-06
6.02567e-07
-1.15525e-06
-1.05381e-07
7.37562e-07
-2.24683e-07
-2.07174e-07
7.50295e-07
-2.51037e-07
-3.00645e-07
7.73382e-07
-3.05025e-07
-3.79143e-07
8.0421e-07
-3.89309e-07
-4.33326e-07
8.38303e-07
-5.06064e-07
-4.51223e-07
8.70184e-07
-6.54879e-07
-4.19654e-07
8.9445e-07
-8.29638e-07
-3.28157e-07
9.07355e-07
-1.01391e-06
-1.76474e-07
9.09129e-07
-1.17707e-06
9.05407e-07
-1.27584e-06
-9.31343e-08
8.89895e-07
-1.95559e-07
-1.84221e-07
9.09599e-07
-2.21022e-07
-2.70063e-07
9.46567e-07
-2.73888e-07
-3.45407e-07
9.98371e-07
-3.58119e-07
-4.01938e-07
1.06026e-06
-4.78042e-07
-4.27625e-07
1.12568e-06
-6.36352e-07
-4.07384e-07
1.1867e-06
-8.29787e-07
-3.26625e-07
1.23522e-06
-1.04303e-06
-1.79845e-07
1.26566e-06
-1.24148e-06
1.27761e-06
-1.36878e-06
-7.39353e-08
1.01082e-06
-1.53034e-07
-1.47262e-07
1.03793e-06
-1.75035e-07
-2.18353e-07
1.08997e-06
-2.21374e-07
-2.83755e-07
1.16532e-06
-2.96845e-07
-3.36938e-07
1.25981e-06
-4.07603e-07
-3.67147e-07
1.36677e-06
-5.59162e-07
-3.59253e-07
1.47638e-06
-7.52053e-07
-2.96159e-07
1.57546e-06
-9.74413e-07
-1.6729e-07
1.64948e-06
-1.19135e-06
1.68741e-06
-1.33795e-06
-4.7839e-08
1.08913e-06
-9.7645e-08
-9.59527e-08
1.12233e-06
-1.13096e-07
-1.44249e-07
1.18739e-06
-1.46221e-07
-1.91263e-07
1.28398e-06
-2.01842e-07
-2.3315e-07
1.40988e-06
-2.87137e-07
-2.62443e-07
1.56084e-06
-4.10792e-07
-2.67065e-07
1.72917e-06
-5.80253e-07
-2.2999e-07
1.89859e-06
-7.92949e-07
-1.35039e-07
2.04098e-06
-1.01898e-06
2.12688e-06
-1.18628e-06
-8.12694e-09
1.10278e-06
-1.66272e-08
-1.65769e-08
1.1375e-06
-1.95947e-08
-2.59411e-08
1.20629e-06
-2.63111e-08
-3.60813e-08
1.30892e-06
-3.83222e-08
-4.56773e-08
1.44315e-06
-5.76706e-08
-5.22414e-08
1.60644e-06
-8.76551e-08
-5.43041e-08
1.80021e-06
-1.3644e-07
-4.67306e-08
2.00689e-06
-2.06924e-07
-2.20648e-08
2.17538e-06
-2.72024e-07
2.27837e-06
-2.98603e-07
-4.12136e-08
1.1758e-06
-1.03728e-07
-8.22189e-08
1.21169e-06
-1.09186e-07
-1.17407e-07
1.27676e-06
-1.18453e-07
-1.47965e-07
1.37965e-06
-1.34129e-07
-1.67742e-07
1.50656e-06
-1.53432e-07
-1.23389e-07
1.56911e-06
-1.32935e-07
-5.73705e-08
1.85374e-06
-2.16864e-07
-1.56485e-07
2.84277e-06
-8.94371e-07
-1.87887e-07
3.92484e-06
-2.27742e-06
4.59734e-06
-3.45213e-06
-5.32609e-07
2.33251e-06
-1.64193e-06
-1.13755e-06
2.47998e-06
-1.73591e-06
-1.87446e-06
2.73078e-06
-1.85391e-06
-2.83993e-06
3.16137e-06
-2.06861e-06
-3.94675e-06
3.82687e-06
-2.64231e-06
-4.20683e-06
4.9067e-06
-5.22906e-06
-3.202e-06
6.52302e-06
-1.12273e-05
-2.69963e-06
7.27833e-06
-1.70978e-05
-1.83202e-06
5.09092e-06
-1.94806e-05
2.91097e-06
-1.97784e-05
-4.78362e-07
3.36939e-06
-1.52237e-06
-9.97026e-07
3.57139e-06
-1.56915e-06
-1.57233e-06
3.87026e-06
-1.56342e-06
-2.23762e-06
4.36705e-06
-1.53677e-06
-3.02336e-06
5.11219e-06
-1.46589e-06
-3.69695e-06
6.20476e-06
-1.55052e-06
-3.4206e-06
7.80246e-06
-2.94494e-06
-2.11695e-06
9.42675e-06
-7.10697e-06
-1.14205e-06
9.43054e-06
-1.31736e-05
8.05566e-06
-1.76577e-05
-3.19114e-07
4.07754e-06
-1.10198e-06
-6.52691e-07
4.28617e-06
-1.09499e-06
-9.89847e-07
4.53974e-06
-9.88444e-07
-1.32143e-06
4.93896e-06
-7.92093e-07
-1.63267e-06
5.50136e-06
-4.50944e-07
-1.89398e-06
6.25041e-06
1.42583e-07
-1.91124e-06
7.22225e-06
9.86279e-07
-1.28346e-06
8.28024e-06
1.37387e-06
-4.68203e-07
8.80785e-06
5.1846e-07
8.59778e-06
-1.1219e-06
-1.87417e-07
4.51399e-06
-7.29691e-07
-3.79635e-07
4.71232e-06
-6.98889e-07
-5.59805e-07
4.89845e-06
-5.61814e-07
-7.13456e-07
5.17788e-06
-3.32764e-07
-8.15827e-07
5.54651e-06
1.70066e-08
-8.30807e-07
5.9922e-06
5.37642e-07
-7.19973e-07
6.49692e-06
1.32799e-06
-4.42436e-07
7.00685e-06
2.37084e-06
-2.04178e-07
7.39759e-06
3.35231e-06
7.5978e-06
3.38172e-06
-9.39074e-08
4.75639e-06
-4.43484e-07
-1.92146e-07
4.94519e-06
-4.10035e-07
-2.80804e-07
5.07559e-06
-2.83899e-07
-3.51915e-07
5.26622e-06
-8.72839e-08
-3.952e-07
5.50986e-06
1.8394e-07
-3.93741e-07
5.79274e-06
5.33333e-07
-3.38667e-07
6.09327e-06
9.71035e-07
-2.18902e-07
6.37811e-06
1.47624e-06
-1.50881e-07
6.61027e-06
2.09539e-06
6.75615e-06
2.28902e-06
-2.93598e-08
4.86412e-06
-2.32842e-07
-6.49537e-08
5.04832e-06
-2.04034e-07
-9.65233e-08
5.13902e-06
-9.92789e-08
-1.2093e-07
5.26969e-06
5.76334e-08
-1.36656e-07
5.43535e-06
2.63844e-07
-1.3868e-07
5.62498e-06
5.13216e-07
-1.28938e-07
5.82488e-06
7.95714e-07
-8.22414e-08
6.00472e-06
1.05367e-06
-8.30385e-08
6.15198e-06
1.37827e-06
6.23055e-06
1.40595e-06
1.47921e-08
4.87916e-06
-8.19453e-08
2.16906e-08
5.06316e-06
-5.86399e-08
2.82848e-08
5.12598e-06
2.68567e-08
3.50605e-08
5.21609e-06
1.51409e-07
3.8993e-08
5.32807e-06
3.19789e-07
4.1378e-08
5.4562e-06
5.16836e-07
3.38513e-08
5.58931e-06
7.39513e-07
3.14078e-08
5.71041e-06
9.26765e-07
-5.94925e-09
5.80451e-06
1.15397e-06
5.8608e-06
1.15207e-06
4.5397e-08
4.83023e-06
2.35192e-08
8.11905e-08
5.01887e-06
3.9641e-08
1.13614e-07
5.06124e-06
1.13464e-07
1.40159e-07
5.12204e-06
2.20198e-07
1.5749e-07
5.1975e-06
3.58371e-07
1.61742e-07
5.28226e-06
5.23914e-07
1.44892e-07
5.36965e-06
7.09185e-07
1.20698e-07
5.44764e-06
8.66157e-07
4.6591e-08
5.50717e-06
1.06611e-06
5.54511e-06
1.07425e-06
6.6243e-08
4.73807e-06
9.65137e-08
1.20825e-07
4.93421e-06
1.11213e-07
1.70404e-07
4.96165e-06
1.72353e-07
2.09133e-07
5.00315e-06
2.63742e-07
2.33669e-07
5.05347e-06
3.81389e-07
2.38527e-07
5.10834e-06
5.23353e-07
2.14573e-07
5.16255e-06
6.86783e-07
1.75728e-07
5.21091e-06
8.21074e-07
7.86642e-08
5.24433e-06
1.00862e-06
5.26795e-06
1.02059e-06
8.17794e-08
4.61507e-06
1.48543e-07
1.49687e-07
4.82094e-06
1.61422e-07
2.10614e-07
4.83858e-06
2.14325e-07
2.5821e-07
4.86822e-06
2.91566e-07
2.86768e-07
4.90344e-06
3.9335e-07
2.90073e-07
4.9405e-06
5.15774e-07
2.57415e-07
4.97604e-06
6.58256e-07
2.06527e-07
5.00519e-06
7.70822e-07
9.66412e-08
5.02316e-06
9.37985e-07
5.03662e-06
9.52245e-07
9.24007e-08
1.86347e-07
4.4706e-06
1.69195e-07
1.98222e-07
4.68815e-06
2.37422e-07
2.43463e-07
4.7001e-06
2.89236e-07
3.12184e-07
4.72399e-06
3.18386e-07
4.00458e-07
4.75272e-06
3.18208e-07
5.06357e-07
4.78257e-06
2.78955e-07
6.29056e-07
4.81061e-06
2.20454e-07
7.18902e-07
4.83218e-06
1.05854e-07
8.59764e-07
4.84434e-06
8.78254e-07
4.8521e-06
-1.40212e-07
1.95203e-07
-3.10817e-07
-2.74138e-07
1.95857e-07
-3.41719e-07
-3.94146e-07
1.96224e-07
-4.0379e-07
-4.9054e-07
1.95044e-07
-4.97805e-07
-5.51153e-07
1.90575e-07
-6.23017e-07
-5.62127e-07
1.81186e-07
-7.75328e-07
-5.1052e-07
1.66163e-07
-9.44707e-07
-3.89321e-07
1.46767e-07
-1.1127e-06
-2.04431e-07
1.27139e-07
-1.25182e-06
1.14313e-07
-1.32986e-06
-1.40545e-07
3.90956e-07
-3.08406e-07
-2.75538e-07
3.93494e-07
-3.40657e-07
-3.97901e-07
3.9666e-07
-4.0583e-07
-4.98218e-07
3.97982e-07
-5.05479e-07
-5.6406e-07
3.93905e-07
-6.39897e-07
-5.80508e-07
3.80901e-07
-8.06012e-07
-5.32587e-07
3.56967e-07
-9.9424e-07
-4.1053e-07
3.23713e-07
-1.18503e-06
-2.17753e-07
2.88574e-07
-1.34753e-06
2.64648e-07
-1.44146e-06
-1.37909e-07
5.83152e-07
-2.96985e-07
-2.71759e-07
5.89845e-07
-3.30971e-07
-3.95825e-07
6.00556e-07
-4.00465e-07
-5.01567e-07
6.11817e-07
-5.08658e-07
-5.76511e-07
6.18411e-07
-6.58187e-07
-6.04099e-07
6.14645e-07
-8.4856e-07
-5.65546e-07
5.96205e-07
-1.07194e-06
-4.45154e-07
5.62977e-07
-1.30783e-06
-2.409e-07
5.22608e-07
-1.5175e-06
4.92411e-07
-1.64543e-06
-1.31631e-07
7.66812e-07
-2.76712e-07
-2.61207e-07
7.80474e-07
-3.1209e-07
-3.84922e-07
8.04765e-07
-3.85519e-07
-4.9571e-07
8.35765e-07
-5.0247e-07
-5.8147e-07
8.67052e-07
-6.68945e-07
-6.2403e-07
8.90777e-07
-8.8845e-07
-6.00007e-07
8.99063e-07
-1.15652e-06
-4.85694e-07
8.8748e-07
-1.45273e-06
-2.69908e-07
8.60047e-07
-1.73029e-06
8.33075e-07
-1.90992e-06
-1.18494e-07
9.32465e-07
-2.42718e-07
-2.37108e-07
9.55642e-07
-2.77575e-07
-3.5429e-07
9.9917e-07
-3.51111e-07
-4.65156e-07
1.0598e-06
-4.71288e-07
-5.59152e-07
1.13122e-06
-6.48218e-07
-6.17876e-07
1.20422e-06
-8.91075e-07
-6.13995e-07
1.26751e-06
-1.20211e-06
-5.14658e-07
1.31015e-06
-1.56504e-06
-2.96051e-07
1.32668e-06
-1.92672e-06
1.32351e-06
-2.18051e-06
-9.58598e-08
1.06688e-06
-1.91594e-07
-1.93621e-07
1.10072e-06
-2.22352e-07
-2.93818e-07
1.16638e-06
-2.88386e-07
-3.94149e-07
1.26249e-06
-3.9921e-07
-4.8688e-07
1.38455e-06
-5.68194e-07
-5.55605e-07
1.52408e-06
-8.10293e-07
-5.72252e-07
1.66703e-06
-1.13493e-06
-4.97631e-07
1.79398e-06
-1.53285e-06
-2.95775e-07
1.88647e-06
-1.953e-06
1.93437e-06
-2.26939e-06
-6.32658e-08
1.15602e-06
-1.23518e-07
-1.29141e-07
1.19918e-06
-1.45678e-07
-1.99855e-07
1.28527e-06
-1.94401e-07
-2.75969e-07
1.41626e-06
-2.7949e-07
-3.54646e-07
1.59333e-06
-4.17246e-07
-4.25985e-07
1.8158e-06
-6.31173e-07
-4.66659e-07
2.07292e-06
-9.45472e-07
-4.32553e-07
2.33217e-06
-1.36525e-06
-2.70876e-07
2.55212e-06
-1.8463e-06
2.69454e-06
-2.24033e-06
-1.114e-08
1.17241e-06
-2.18708e-08
-2.33423e-08
1.21812e-06
-2.63384e-08
-3.79475e-08
1.31029e-06
-3.67219e-08
-5.52206e-08
1.4512e-06
-5.5987e-08
-7.46104e-08
1.64534e-06
-9.02921e-08
-9.72691e-08
1.9073e-06
-1.56502e-07
-1.19408e-07
2.23978e-06
-2.81162e-07
-1.13413e-07
2.56942e-06
-4.50175e-07
-6.31467e-08
2.83738e-06
-6.07556e-07
3.08116e-06
-7.57269e-07
-4.70046e-08
1.24674e-06
-1.31055e-07
-9.28205e-08
1.29213e-06
-1.37378e-07
-1.32978e-07
1.38088e-06
-1.48889e-07
-1.63456e-07
1.51201e-06
-1.64463e-07
-1.32781e-07
1.60319e-06
-1.41953e-07
-1.15243e-07
1.97694e-06
-2.20106e-07
-3.95376e-07
3.2567e-06
-9.53644e-07
-7.13946e-07
4.75156e-06
-2.75793e-06
-4.08474e-07
5.56651e-06
-5.31202e-06
5.73623e-06
-6.5582e-06
-5.79202e-07
2.61294e-06
-2.42893e-06
-1.24423e-06
2.80921e-06
-2.58795e-06
-2.0933e-06
3.15636e-06
-2.78032e-06
-3.23569e-06
3.76211e-06
-3.17633e-06
-4.30948e-06
4.86318e-06
-4.8285e-06
-4.81973e-06
6.65722e-06
-9.3991e-06
-5.49115e-06
7.42948e-06
-1.47287e-05
-4.94074e-06
4.03596e-06
-1.69326e-05
-2.59168e-06
7.29919e-07
-1.69931e-05
-4.43789e-07
-1.65285e-05
-4.76074e-07
3.73867e-06
-2.17203e-06
-9.86894e-07
3.98323e-06
-2.23234e-06
-1.54853e-06
4.36158e-06
-2.207e-06
-2.18032e-06
4.98674e-06
-2.12962e-06
-2.7083e-06
5.95162e-06
-2.02635e-06
-2.4563e-06
7.36538e-06
-2.51067e-06
-1.42694e-06
8.70515e-06
-5.24998e-06
-1.32045e-06
7.99212e-06
-1.11696e-05
-1.30024e-06
4.34762e-06
-1.68115e-05
7.12615e-07
-1.97768e-05
-2.70551e-07
4.42583e-06
-1.51859e-06
-5.43859e-07
4.65477e-06
-1.49322e-06
-7.94693e-07
4.93564e-06
-1.31168e-06
-9.94742e-07
5.36659e-06
-9.71884e-07
-1.0728e-06
5.95073e-06
-3.7199e-07
-8.32615e-07
6.66396e-06
6.03811e-07
1.39044e-08
7.32384e-06
1.52107e-06
1.02684e-06
7.22601e-06
1.12705e-06
8.91828e-07
5.83209e-06
-8.31003e-07
4.78379e-06
-3.94908e-06
-1.22073e-07
4.79565e-06
-9.77435e-07
-2.41232e-07
4.99768e-06
-9.22643e-07
-3.31288e-07
5.17673e-06
-7.12839e-07
-3.69089e-07
5.43367e-06
-3.62039e-07
-3.16992e-07
5.74843e-06
1.67202e-07
-1.21015e-07
6.07928e-06
9.26343e-07
2.20194e-07
6.35319e-06
1.95744e-06
5.39755e-07
6.43748e-06
2.8398e-06
2.72326e-07
6.32604e-06
3.12579e-06
6.31362e-06
2.18006e-06
-3.15262e-08
4.96796e-06
-5.84267e-07
-6.52891e-08
5.15375e-06
-5.32335e-07
-8.44322e-08
5.26649e-06
-3.54514e-07
-8.19883e-08
5.42484e-06
-8.0897e-08
-5.20404e-08
5.61563e-06
2.86797e-07
2.05647e-08
5.81687e-06
7.23142e-07
8.55125e-08
5.99832e-06
1.26096e-06
1.31024e-07
6.11982e-06
1.7484e-06
-1.33076e-08
6.20052e-06
2.36525e-06
6.34233e-06
2.2477e-06
2.34971e-08
5.01698e-06
-3.05357e-07
3.98962e-08
5.19752e-06
-2.64203e-07
6.01084e-08
5.27091e-06
-1.23903e-07
8.39771e-08
5.3749e-06
8.37092e-08
1.06616e-07
5.50278e-06
3.54052e-07
1.23322e-07
5.64312e-06
6.70259e-07
1.22098e-07
5.7798e-06
1.01546e-06
1.20825e-07
5.89246e-06
1.2823e-06
2.13763e-09
5.98286e-06
1.71462e-06
6.13657e-06
1.61908e-06
5.82816e-08
4.98699e-06
-1.10244e-07
1.05779e-07
5.16958e-06
-7.82103e-08
1.52621e-07
5.21752e-06
3.34042e-08
1.96216e-07
5.28699e-06
1.95726e-07
2.31083e-07
5.37212e-06
4.15574e-07
2.50344e-07
5.46998e-06
6.70709e-07
2.30587e-07
5.56735e-06
9.71726e-07
2.06869e-07
5.66046e-06
1.18249e-06
6.98524e-08
5.74983e-06
1.52401e-06
5.92919e-06
1.44237e-06
8.24475e-08
4.90493e-06
2.31377e-08
1.53101e-07
5.0941e-06
4.44675e-08
2.20157e-07
5.12375e-06
1.40191e-07
2.78584e-07
5.16917e-06
2.79602e-07
3.22348e-07
5.22485e-06
4.61877e-07
3.43075e-07
5.28755e-06
6.85621e-07
3.09689e-07
5.35278e-06
9.57137e-07
2.69038e-07
5.41322e-06
1.15405e-06
1.19628e-07
5.48151e-06
1.48384e-06
5.64886e-06
1.4899e-06
9.8016e-08
4.78926e-06
1.14162e-07
1.82507e-07
4.9876e-06
1.33232e-07
2.61926e-07
5.00514e-06
2.11551e-07
3.28878e-07
5.0343e-06
3.3166e-07
3.77004e-07
5.06911e-06
4.89006e-07
3.96421e-07
5.10593e-06
6.85553e-07
3.58135e-07
5.14158e-06
9.36263e-07
3.05111e-07
5.1718e-06
1.11552e-06
1.48906e-07
5.21189e-06
1.43445e-06
5.35653e-06
1.47793e-06
1.08606e-07
4.65136e-06
1.77834e-07
2.01819e-07
4.86102e-06
1.94791e-07
2.87866e-07
4.87042e-06
2.62998e-07
3.59018e-07
4.89088e-06
3.63825e-07
4.07769e-07
4.91401e-06
4.99695e-07
4.23882e-07
4.9362e-06
6.69392e-07
3.78612e-07
4.95447e-06
8.90642e-07
3.14862e-07
4.96609e-06
1.04028e-06
1.58506e-07
4.98475e-06
1.32149e-06
5.10956e-06
1.37139e-06
1.16403e-07
2.23559e-07
4.49774e-06
2.15872e-07
2.39343e-07
4.72044e-06
3.06292e-07
2.97048e-07
4.72641e-06
3.78389e-07
3.85986e-07
4.74498e-06
4.24401e-07
5.01984e-07
4.76648e-06
4.34066e-07
6.46237e-07
4.78666e-06
3.79202e-07
8.34584e-07
4.8038e-06
3.077e-07
9.43151e-07
4.81335e-06
1.5718e-07
1.16943e-06
4.82561e-06
1.20499e-06
4.94716e-06
-1.71022e-07
1.99528e-07
-3.39322e-07
-3.36356e-07
1.99053e-07
-3.75438e-07
-4.8829e-07
1.96767e-07
-4.48623e-07
-6.15734e-07
1.90635e-07
-5.60995e-07
-7.03083e-07
1.77845e-07
-7.13514e-07
-7.30488e-07
1.55654e-07
-9.03577e-07
-6.76705e-07
1.22742e-07
-1.12123e-06
-5.26215e-07
8.1536e-08
-1.34473e-06
-2.80804e-07
3.99658e-08
-1.53719e-06
1.34551e-08
-1.64923e-06
-1.72729e-07
4.01584e-07