/*--------------------------------*- C++ -*----------------------------------*\
| =========                 |                                                 |
| \\      /  F ield         | OpenFOAM: The Open Source CFD Toolbox           |
|  \\    /   O peration     | Version:  2312                                  |
|   \\  /    A nd           | Website:  www.openfoam.com                      |
|    \\/     M anipulation  |                                                 |
\*---------------------------------------------------------------------------*/
FoamFile
{
    version     2.0;
    format      ascii;
    arch        "LSB;label=32;scalar=64";
    class       surfaceScalarField;
    location    "0.095";
    object      phi;
}
// * * * * * * * * * * * * * * * * * * * * * * * * * * * * * * * * * * * * * //

dimensions      [0 3 -1 0 0 0 0];

oriented        oriented;

internalField   nonuniform List<scalar> 
22600
(
9.49469e-12
1.90769e-12
-9.90203e-12
1.65228e-11
2.94462e-12
-9.83655e-12
2.21268e-11
4.17392e-12
-9.64677e-12
2.56326e-11
5.98251e-12
-9.36045e-12
2.67111e-11
8.10004e-12
-9.04782e-12
2.52503e-11
1.03119e-11
-8.72251e-12
2.1388e-11
1.24082e-11
-8.42828e-12
1.55063e-11
1.41759e-11
-8.18483e-12
8.18683e-12
1.54462e-11
-8.01316e-12
1.61888e-11
-7.87539e-12
1.00012e-11
4.131e-12
-1.07723e-11
1.76652e-11
6.27903e-12
-1.0771e-11
2.37076e-11
8.89927e-12
-1.05374e-11
2.75122e-11
1.26161e-11
-1.02029e-11
2.86928e-11
1.69979e-11
-9.84421e-12
2.71272e-11
2.15688e-11
-9.47062e-12
2.29792e-11
2.58896e-11
-9.12719e-12
1.66558e-11
2.95424e-11
-8.83841e-12
8.76775e-12
3.21788e-11
-8.62922e-12
3.3631e-11
-8.49029e-12
1.13934e-11
6.9161e-12
-1.28774e-11
2.03628e-11
1.03793e-11
-1.28785e-11
2.74319e-11
1.45926e-11
-1.25602e-11
3.18635e-11
2.04997e-11
-1.2108e-11
3.32314e-11
2.74528e-11
-1.16206e-11
3.14155e-11
3.46825e-11
-1.11103e-11
2.65975e-11
4.15206e-11
-1.06438e-11
1.92524e-11
4.72899e-11
-1.02457e-11
1.0093e-11
5.14578e-11
-9.96126e-12
5.36711e-11
-9.806e-12
1.36703e-11
1.10318e-11
-1.64471e-11
2.47066e-11
1.5875e-11
-1.63521e-11
3.33107e-11
2.20838e-11
-1.59129e-11
3.87433e-11
3.04927e-11
-1.52428e-11
4.04188e-11
4.04934e-11
-1.45379e-11
3.82063e-11
5.08568e-11
-1.37988e-11
3.23361e-11
6.06492e-11
-1.31213e-11
2.33805e-11
6.89186e-11
-1.25535e-11
1.22325e-11
7.48912e-11
-1.2154e-11
7.79611e-11
-1.19298e-11
1.68997e-11
1.7298e-11
-2.18614e-11
3.09036e-11
2.35734e-11
-2.15566e-11
4.18343e-11
3.21919e-11
-2.09003e-11
4.87095e-11
4.36753e-11
-1.99166e-11
5.07961e-11
5.74065e-11
-1.88566e-11
4.79909e-11
7.15627e-11
-1.77714e-11
4.05972e-11
8.49211e-11
-1.67732e-11
2.93588e-11
9.6201e-11
-1.59437e-11
1.53636e-11
1.0436e-10
-1.53499e-11
1.08473e-10
-1.50412e-11
2.12889e-11
2.68212e-11
-2.9658e-11
3.96437e-11
3.42899e-11
-2.89844e-11
5.33437e-11
4.65275e-11
-2.79548e-11
6.21953e-11
6.1467e-11
-2.65509e-11
6.48045e-11
7.9883e-11
-2.49858e-11
6.12132e-11
9.86372e-11
-2.33933e-11
5.17861e-11
1.16347e-10
-2.19185e-11
3.74865e-11
1.31288e-10
-2.06969e-11
1.96946e-11
1.42075e-10
-1.98233e-11
1.47604e-10
-1.93736e-11
2.71651e-11
4.00933e-11
-4.03722e-11
5.10424e-11
4.99095e-11
-3.94746e-11
6.86461e-11
6.67563e-11
-3.78056e-11
8.00978e-11
8.57927e-11
-3.5733e-11
8.33847e-11
1.10057e-10
-3.34094e-11
7.86832e-11
1.34437e-10
-3.10493e-11
6.64999e-11
1.57463e-10
-2.88765e-11
4.8133e-11
1.76787e-10
-2.70693e-11
2.54563e-11
1.90596e-10
-2.57946e-11
1.9821e-10
-2.51284e-11
4.10559e-11
6.71797e-11
-6.30276e-11
7.43061e-11
7.78761e-11
-6.12614e-11
1.03297e-10
9.65449e-11
-5.8811e-11
1.19956e-10
1.243e-10
-5.51752e-11
1.24537e-10
1.56669e-10
-5.11894e-11
1.17247e-10
1.88893e-10
-4.71469e-11
9.89378e-11
2.19239e-10
-4.34271e-11
7.14402e-11
2.4467e-10
-4.03417e-11
3.73055e-11
2.62898e-10
-3.81417e-11
2.72472e-10
-3.69516e-11
3.16925e-08
1.91759e-08
-4.94524e-08
5.85444e-08
2.15094e-08
-4.83018e-08
7.96162e-08
2.51707e-08
-4.61617e-08
9.24982e-08
3.05214e-08
-4.32896e-08
9.61519e-08
3.65416e-08
-4.00458e-08
9.05003e-08
4.26129e-08
-3.67716e-08
7.62807e-08
4.82146e-08
-3.37655e-08
5.499e-08
5.28336e-08
-3.12889e-08
2.86864e-08
5.61044e-08
-2.95361e-08
5.73978e-08
-2.84426e-08
3.82284e-08
4.34509e-08
-6.11605e-08
7.11469e-08
4.81581e-08
-5.95898e-08
9.65621e-08
5.65952e-08
-5.68516e-08
1.12261e-07
6.80734e-08
-5.32581e-08
1.16835e-07
8.11707e-08
-4.91997e-08
1.10064e-07
9.4493e-08
-4.50924e-08
9.28345e-08
1.06788e-07
-4.13312e-08
6.69497e-08
1.16958e-07
-3.82397e-08
3.49178e-08
1.24181e-07
-3.60523e-08
1.26965e-07
-3.46626e-08
4.27439e-08
7.46262e-08
-7.24926e-08
7.95739e-08
8.17591e-08
-7.04323e-08
1.07993e-07
9.49975e-08
-6.68154e-08
1.25344e-07
1.12846e-07
-6.21179e-08
1.30181e-07
1.33199e-07
-5.68553e-08
1.22372e-07
1.53892e-07
-5.15836e-08
1.03015e-07
1.72937e-07
-4.67998e-08
7.41841e-08
1.88669e-07
-4.28922e-08
3.86666e-08
1.99825e-07
-4.01421e-08
2.0405e-07
-3.84346e-08
4.98407e-08
1.16968e-07
-9.07747e-08
9.28102e-08
1.2671e-07
-8.79186e-08
1.25777e-07
1.44908e-07
-8.28643e-08
1.45621e-07
1.69317e-07
-7.63036e-08
1.50797e-07
1.97055e-07
-6.90279e-08
1.41344e-07
2.25153e-07
-6.18209e-08
1.18687e-07
2.50919e-07
-5.53427e-08
8.53019e-08
2.72134e-07
-5.00948e-08
4.4399e-08
2.87135e-07
-4.64294e-08
2.92642e-07
-4.42028e-08
5.95323e-08
1.76102e-07
-1.17344e-07
1.10958e-07
1.8849e-07
-1.13217e-07
1.50105e-07
2.11695e-07
-1.05924e-07
1.73264e-07
2.42687e-07
-9.65201e-08
1.78799e-07
2.7772e-07
-8.62095e-08
1.67023e-07
3.13021e-07
-7.61117e-08
1.39833e-07
3.45223e-07
-6.71304e-08
1.00263e-07
3.71614e-07
-5.99283e-08
5.21039e-08
3.90207e-07
-5.49356e-08
3.96702e-07
-5.19647e-08
7.18722e-08
2.58844e-07
-1.5352e-07
1.34096e-07
2.73765e-07
-1.47505e-07
1.80987e-07
3.01752e-07
-1.3694e-07
2.08174e-07
3.38944e-07
-1.23441e-07
2.13975e-07
3.80716e-07
-1.08811e-07
1.99116e-07
4.2252e-07
-9.46555e-08
1.6614e-07
4.60402e-07
-8.22167e-08
1.1881e-07
4.91269e-07
-7.23495e-08
6.16366e-08
5.12922e-07
-6.55607e-08
5.19918e-07
-6.15984e-08
8.67362e-08
3.73308e-07
-2.00522e-07
1.61991e-07
3.90366e-07
-1.91835e-07
2.18045e-07
4.22392e-07
-1.76688e-07
2.49794e-07
4.64714e-07
-1.57527e-07
2.55628e-07
5.11887e-07
-1.37019e-07
2.3687e-07
5.58709e-07
-1.17441e-07
1.96908e-07
6.00808e-07
-1.00462e-07
1.40412e-07
6.34886e-07
-8.71408e-08
7.27047e-08
6.58669e-07
-7.80545e-08
6.65432e-07
-7.28318e-08
1.03727e-07
5.28413e-07
-2.58819e-07
1.93901e-07
5.46783e-07
-2.46559e-07
2.60201e-07
5.81328e-07
-2.25238e-07
2.96783e-07
6.267e-07
-1.98588e-07
3.02274e-07
6.76841e-07
-1.70459e-07
2.78822e-07
7.26148e-07
-1.43996e-07
2.30879e-07
7.70099e-07
-1.21359e-07
1.64144e-07
8.05418e-07
-1.03801e-07
8.48182e-08
8.29921e-07
-9.19365e-08
8.35429e-07
-8.51928e-08
1.22016e-07
7.32679e-07
-3.27298e-07
2.28299e-07
7.50903e-07
-3.10394e-07
3.05377e-07
7.85442e-07
-2.81205e-07
3.46713e-07
8.30551e-07
-2.45208e-07
3.51387e-07
8.79942e-07
-2.07785e-07
3.22616e-07
9.28027e-07
-1.73115e-07
2.66086e-07
9.70497e-07
-1.43868e-07
1.88602e-07
1.00436e-06
-1.21453e-07
9.72482e-08
1.0277e-06
-1.06439e-07
1.03066e-06
-9.79829e-08
1.40148e-07
9.91795e-07
-4.01913e-07
2.62665e-07
1.00784e-06
-3.79477e-07
3.50261e-07
1.03884e-06
-3.41011e-07
3.95872e-07
1.07916e-06
-2.94228e-07
3.99268e-07
1.12289e-06
-2.46352e-07
3.64927e-07
1.16503e-06
-2.02671e-07
2.99841e-07
1.20191e-06
-1.66327e-07
2.1191e-07
1.23108e-06
-1.38799e-07
1.09038e-07
1.25105e-06
-1.20504e-07
1.24998e-06
-1.10273e-07
1.56097e-07
1.30564e-06
-4.74973e-07
2.93464e-07
1.31709e-06
-4.46639e-07
3.90337e-07
1.3403e-06
-3.98356e-07
4.39366e-07
1.37055e-06
-3.4043e-07
4.41211e-07
1.4031e-06
-2.82064e-07
4.01658e-07
1.43417e-06
-2.29588e-07
3.28921e-07
1.46112e-06
-1.86487e-07
2.31867e-07
1.48229e-06
-1.54173e-07
1.19095e-07
1.49668e-06
-1.32858e-07
1.49007e-06
-1.20971e-07
1.6746e-07
-5.35126e-07
1.66508e-06
3.16473e-07
-5.01476e-07
1.66955e-06
4.20341e-07
-4.44424e-07
1.68084e-06
4.7169e-07
-3.76866e-07
1.69605e-06
4.72104e-07
-3.09752e-07
1.71243e-06
4.28488e-07
-2.50183e-07
1.72797e-06
3.50025e-07
-2.01777e-07
1.74135e-06
2.46266e-07
-1.6577e-07
1.7518e-06
1.26323e-07
-1.42184e-07
1.75885e-06
-1.28979e-07
1.74534e-06
9.42731e-12
1.07568e-12
-1.88327e-11
1.65467e-11
1.83417e-12
-1.85479e-11
2.21729e-11
3.14461e-12
-1.81778e-11
2.57045e-11
5.00416e-12
-1.76542e-11
2.67978e-11
7.16932e-12
-1.70726e-11
2.53364e-11
9.43652e-12
-1.64761e-11
2.14645e-11
1.15748e-11
-1.59238e-11
1.55768e-11
1.33712e-11
-1.54577e-11
8.24091e-12
1.46697e-11
-1.51201e-11
1.54753e-11
-1.4916e-11
9.95647e-12
2.5329e-12
-2.0644e-11
1.77008e-11
4.02504e-12
-2.04018e-11
2.37765e-11
6.79943e-12
-1.99568e-11
2.76142e-11
1.06353e-11
-1.936e-11
2.88104e-11
1.51125e-11
-1.86876e-11
2.72539e-11
1.9792e-11
-1.79973e-11
2.30911e-11
2.42199e-11
-1.73509e-11
1.67423e-11
2.7945e-11
-1.68022e-11
8.82185e-12
3.06399e-11
-1.64049e-11
3.22034e-11
-1.61818e-11
1.14166e-11
4.27437e-12
-2.46267e-11
2.04818e-11
6.77422e-12
-2.4423e-11
2.75757e-11
1.12303e-11
-2.38118e-11
3.20617e-11
1.73313e-11
-2.30198e-11
3.34488e-11
2.44747e-11
-2.21147e-11
3.16311e-11
3.19092e-11
-2.11793e-11
2.67855e-11
3.8932e-11
-2.03055e-11
1.93904e-11
4.48563e-11
-1.9567e-11
1.01687e-11
4.91468e-11
-1.90322e-11
5.14881e-11
-1.87439e-11
1.37843e-11
6.67689e-12
-3.13423e-11
2.49693e-11
1.04922e-11
-3.10288e-11
3.36013e-11
1.70751e-11
-3.01672e-11
3.91143e-11
2.58042e-11
-2.90045e-11
4.0818e-11
3.61392e-11
-2.76891e-11
3.85992e-11
4.68567e-11
-2.63372e-11
3.26764e-11
5.69714e-11
-2.50793e-11
2.3631e-11
6.55282e-11
-2.4022e-11
1.23695e-11
7.17018e-11
-2.3256e-11
7.49142e-11
-2.28372e-11
1.71398e-11
1.0276e-11
-4.15031e-11
3.14012e-11
1.57452e-11
-4.09204e-11
4.24129e-11
2.49433e-11
-3.963e-11
4.94132e-11
3.69521e-11
-3.78994e-11
5.15412e-11
5.12551e-11
-3.59341e-11
4.87088e-11
6.59791e-11
-3.39183e-11
4.12139e-11
7.98659e-11
-3.20473e-11
2.98214e-11
9.15983e-11
-3.04797e-11
1.56206e-11
1.00067e-10
-2.93542e-11
1.0437e-10
-2.87814e-11
2.17644e-11
1.59273e-11
-5.61721e-11
4.05105e-11
2.31877e-11
-5.51051e-11
5.44377e-11
3.63188e-11
-5.31792e-11
6.34467e-11
5.20447e-11
-5.05507e-11
6.61291e-11
7.13009e-11
-4.7608e-11
6.24574e-11
9.09395e-11
-4.45861e-11
5.28444e-11
1.09444e-10
-4.17835e-11
3.82622e-11
1.2504e-10
-3.94464e-11
2.01065e-11
1.36277e-10
-3.77827e-11
1.4206e-10
-3.69137e-11
2.80174e-11
2.38334e-11
-7.61748e-11
5.25614e-11
3.3941e-11
-7.47719e-11
7.05639e-11
5.23136e-11
-7.17829e-11
8.22387e-11
7.25087e-11
-6.78329e-11
8.55954e-11
9.79815e-11
-6.34023e-11
8.07343e-11
1.23676e-10
-5.88715e-11
6.82115e-11
1.47856e-10
-5.47024e-11
4.936e-11
1.68112e-10
-5.12372e-11
2.60916e-11
1.82559e-10
-4.87764e-11
1.90522e-10
-4.74842e-11
4.23697e-11
4.47433e-11
-1.21574e-10
7.69334e-11
5.61739e-11
-1.1815e-10
1.06873e-10
7.64397e-11
-1.12932e-10
1.24056e-10
1.06109e-10
-1.05988e-10
1.28645e-10
1.40529e-10
-9.83349e-11
1.21056e-10
1.7465e-10
-9.05014e-11
1.02103e-10
2.06777e-10
-8.33332e-11
7.36965e-11
2.33631e-10
-7.74071e-11
3.84713e-11
2.52858e-10
-7.31983e-11
2.62948e-10
-7.09079e-11
3.30618e-08
1.44602e-08
-9.54241e-08
6.10432e-08
1.6824e-08
-9.30729e-08
8.29996e-08
2.07439e-08
-8.87998e-08
9.63469e-08
2.66716e-08
-8.32114e-08
1.0006e-07
3.33059e-08
-7.69235e-08
9.41042e-08
3.99539e-08
-7.05799e-08
7.92629e-08
4.60697e-08
-6.47733e-08
5.7108e-08
5.10981e-08
-5.99971e-08
2.97818e-08
5.46545e-08
-5.66165e-08
5.61027e-08
-5.451e-08
4.0058e-08
3.24925e-08
-1.17727e-07
7.44102e-08
3.76085e-08
-1.14734e-07
1.00863e-07
4.68895e-08
-1.09454e-07
1.17144e-07
5.95992e-08
-1.02465e-07
1.21807e-07
7.40331e-08
-9.45753e-08
1.14644e-07
8.86467e-08
-8.66094e-08
9.66212e-08
1.02085e-07
-7.93257e-08
6.96416e-08
1.13171e-07
-7.334e-08
3.63089e-08
1.2103e-07
-6.91058e-08
1.24161e-07
-6.64206e-08
4.51105e-08
5.66302e-08
-1.40104e-07
8.37874e-08
6.4623e-08
-1.3611e-07
1.13503e-07
7.9418e-08
-1.29051e-07
1.31546e-07
9.92914e-08
-1.19845e-07
1.36435e-07
1.21847e-07
-1.09554e-07
1.28086e-07
1.44672e-07
-9.9271e-08
1.07711e-07
1.65596e-07
-8.99504e-08
7.7505e-08
1.82822e-07
-8.23455e-08
4.0375e-08
1.95004e-07
-7.70013e-08
1.99789e-07
-7.36855e-08
5.30643e-08
9.09305e-08
-1.76473e-07
9.85643e-08
1.0202e-07
-1.70808e-07
1.33292e-07
1.22611e-07
-1.60777e-07
1.54009e-07
1.5009e-07
-1.47816e-07
1.59168e-07
1.81127e-07
-1.33481e-07
1.48924e-07
2.12389e-07
-1.19317e-07
1.2487e-07
2.40912e-07
-1.06615e-07
8.96439e-08
2.64293e-07
-9.63537e-08
4.66276e-08
2.80774e-07
-8.91965e-08
2.87077e-07
-8.48602e-08
6.41098e-08
1.40766e-07
-2.29668e-07
1.191e-07
1.55147e-07
-2.21339e-07
1.60667e-07
1.81834e-07
-2.06705e-07
1.8493e-07
2.1722e-07
-1.87918e-07
1.90314e-07
2.56921e-07
-1.6741e-07
1.77344e-07
2.96639e-07
-1.47406e-07
1.4817e-07
3.32632e-07
-1.29688e-07
1.06075e-07
3.61965e-07
-1.1553e-07
5.50758e-08
3.82554e-07
-1.05732e-07
3.90104e-07
-9.99292e-08
7.8434e-08
2.13177e-07
-3.02839e-07
1.45699e-07
2.30901e-07
-2.90517e-07
1.95912e-07
2.63738e-07
-2.69047e-07
2.24475e-07
3.06965e-07
-2.41759e-07
2.29879e-07
3.55049e-07
-2.12359e-07
2.13208e-07
4.02722e-07
-1.84077e-07
1.77405e-07
4.45559e-07
-1.59364e-07
1.26608e-07
4.80227e-07
-1.3984e-07
6.56002e-08
5.04426e-07
-1.26446e-07
5.12754e-07
-1.18665e-07
9.60882e-08
3.17089e-07
-3.99234e-07
1.78415e-07
3.37884e-07
-3.81132e-07
2.38962e-07
3.76406e-07
-3.49905e-07
2.72363e-07
4.26663e-07
-3.1064e-07
2.77365e-07
4.81976e-07
-2.68955e-07
2.5589e-07
5.36216e-07
-2.29471e-07
2.11958e-07
5.84471e-07
-1.95462e-07
1.50746e-07
6.23201e-07
-1.68918e-07
7.7928e-08
6.50059e-07
-1.50885e-07
6.58418e-07
-1.40572e-07
1.16792e-07
4.63122e-07
-5.20919e-07
2.16774e-07
4.86313e-07
-4.94984e-07
2.88996e-07
5.29086e-07
-4.50162e-07
3.27437e-07
5.84311e-07
-3.94694e-07
3.31386e-07
6.44339e-07
-3.36773e-07
3.03968e-07
7.0247e-07
-2.82839e-07
2.50563e-07
7.53609e-07
-2.37094e-07
1.77543e-07
7.94267e-07
-2.01857e-07
9.15614e-08
8.22263e-07
-1.78156e-07
8.29555e-07
-1.64783e-07
1.39866e-07
6.62872e-07
-6.67113e-07
2.59337e-07
6.86794e-07
-6.3038e-07
3.43952e-07
7.30971e-07
-5.67732e-07
3.87191e-07
7.87402e-07
-4.91549e-07
3.89277e-07
8.47895e-07
-4.13433e-07
3.54922e-07
9.05674e-07
-3.41965e-07
2.91094e-07
9.55882e-07
-2.82313e-07
2.05488e-07
9.95395e-07
-2.36983e-07
1.05703e-07
1.0224e-06
-2.06799e-07
1.02719e-06
-1.89948e-07
1.63646e-07
9.25817e-07
-8.30161e-07
3.0326e-07
9.47886e-07
-7.8019e-07
4.00077e-07
9.89008e-07
-6.95881e-07
4.47387e-07
1.04098e-06
-5.95124e-07
4.46811e-07
1.09586e-06
-4.93749e-07
4.04951e-07
1.14752e-06
-4.0266e-07
3.30493e-07
1.19184e-06
-3.27845e-07
2.32461e-07
1.22638e-06
-2.71738e-07
1.19266e-07
1.24979e-06
-2.34749e-07
1.25041e-06
-2.14232e-07
1.85557e-07
1.2556e-06
-9.9441e-07
3.441e-07
1.2724e-06
-9.29692e-07
4.51725e-07
1.30457e-06
-8.21554e-07
5.01978e-07
1.34487e-06
-6.94582e-07
4.98246e-07
1.38678e-06
-5.69259e-07
4.49123e-07
1.42567e-06
-4.58618e-07
3.64946e-07
1.45863e-06
-3.69108e-07
2.55864e-07
1.4841e-06
-3.02783e-07
1.30976e-07
1.5012e-06
-2.59451e-07
1.49589e-06
-2.35474e-07
2.02208e-07
-1.13451e-06
1.64509e-06
3.75994e-07
-1.05558e-06
1.6527e-06
4.91726e-07
-9.25078e-07
1.66947e-06
5.43646e-07
-7.74602e-07
1.69067e-06
5.36957e-07
-6.28756e-07
1.71247e-06
4.81985e-07
-5.02004e-07
1.73244e-06
3.90371e-07
-4.00747e-07
1.74923e-06
2.72988e-07
-3.26438e-07
1.76212e-06
1.39517e-07
-2.78211e-07
1.77071e-06
-2.51487e-07
1.75791e-06
9.66227e-12
-1.10242e-12
-2.58684e-11
1.6935e-11
-4.47559e-14
-2.55408e-11
2.26819e-11
1.32526e-12
-2.50158e-11
2.62824e-11
3.27411e-12
-2.42984e-11
2.739e-11
5.546e-12
-2.35084e-11
2.58869e-11
7.92198e-12
-2.26934e-11
2.19291e-11
1.01627e-11
-2.1932e-11
1.59138e-11
1.20473e-11
-2.12856e-11
8.41467e-12
1.34095e-11
-2.08159e-11
1.42367e-11
-2.05551e-11
1.01968e-11
-1.84987e-12
-2.8502e-11
1.81359e-11
1.72486e-14
-2.80901e-11
2.43611e-11
2.95141e-12
-2.75005e-11
2.8276e-11
6.97707e-12
-2.66821e-11
2.9493e-11
1.16794e-11
-2.57609e-11
2.78932e-11
1.65969e-11
-2.48095e-11
2.36333e-11
2.12464e-11
-2.39167e-11
1.71382e-11
2.51586e-11
-2.31587e-11
9.03641e-12
2.79887e-11
-2.26102e-11
2.96206e-11
-2.2314e-11
1.17155e-11
-2.59205e-12
-3.40672e-11
2.10467e-11
1.79824e-13
-3.36579e-11
2.83504e-11
4.9238e-12
-3.2838e-11
3.29495e-11
1.13586e-11
-3.17577e-11
3.43698e-11
1.88957e-11
-3.05187e-11
3.24934e-11
2.6743e-11
-2.92329e-11
2.75137e-11
3.41434e-11
-2.80258e-11
1.99234e-11
4.03873e-11
-2.70096e-11
1.04564e-11
4.49158e-11
-2.62725e-11
4.73768e-11
-2.58734e-11
1.42229e-11
-3.40567e-12
-4.33327e-11
2.5769e-11
6.22803e-13
-4.28283e-11
3.4727e-11
7.62424e-12
-4.16384e-11
4.03974e-11
1.69302e-11
-4.00521e-11
4.21416e-11
2.78955e-11
-3.82415e-11
3.98398e-11
3.92587e-11
-3.63815e-11
3.37195e-11
4.99855e-11
-3.46506e-11
2.43954e-11
5.90404e-11
-3.31879e-11
1.27682e-11
6.56063e-11
-3.21349e-11
6.89849e-11
-3.15562e-11
1.78096e-11
-4.16261e-12
-5.73832e-11
3.26414e-11
1.49947e-12
-5.65161e-11
4.40942e-11
1.13837e-11
-5.47199e-11
5.1346e-11
2.4279e-11
-5.2359e-11
5.35254e-11
3.95869e-11
-4.96653e-11
5.05598e-11
5.53109e-11
-4.68832e-11
4.27706e-11
7.0148e-11
-4.43001e-11
3.09434e-11
8.26544e-11
-4.21304e-11
1.62152e-11
9.16759e-11
-4.05659e-11
9.62555e-11
-3.9765e-11
2.28623e-11
-4.48572e-12
-7.77093e-11
4.24155e-11
3.15564e-12
-7.62623e-11
5.70169e-11
1.72589e-11
-7.35893e-11
6.63729e-11
3.44098e-11
-6.99525e-11
6.91296e-11
5.51682e-11
-6.58614e-11
6.52447e-11
7.63531e-11
-6.16599e-11
5.5172e-11
9.62904e-11
-5.77598e-11
3.9925e-11
1.13049e-10
-5.45044e-11
2.09623e-11
1.25114e-10
-5.2187e-11
1.31309e-10
-5.09574e-11
2.95184e-11
-3.77118e-12
-1.05957e-10
5.55073e-11
5.99898e-12
-1.03591e-10
7.44885e-11
2.60629e-11
-9.95431e-11
8.66868e-11
4.84623e-11
-9.40497e-11
9.01185e-11
7.62334e-11
-8.7859e-11
8.49088e-11
1.04256e-10
-8.15127e-11
7.16796e-11
1.30533e-10
-7.56643e-11
5.18226e-11
1.52526e-10
-7.0819e-11
2.73581e-11
1.68199e-10
-6.73607e-11
1.76742e-10
-6.55298e-11
4.53481e-11
3.91522e-12
-1.70034e-10
8.24069e-11
1.6166e-11
-1.65413e-10
1.13743e-10
3.95506e-11
-1.57781e-10
1.31794e-10
7.22317e-11
-1.47825e-10
1.36469e-10
1.10117e-10
-1.36887e-10
1.28242e-10
1.47805e-10
-1.25779e-10
1.08046e-10
1.83081e-10
-1.15636e-10
7.79233e-11
2.12553e-10
-1.07284e-10
4.06834e-11
2.33648e-10
-1.0138e-10
2.44732e-10
-9.81978e-11
3.54229e-08
4.34586e-09
-1.33504e-07
6.52926e-08
7.21389e-09
-1.3014e-07
8.85774e-08
1.19845e-08
-1.24032e-07
1.02627e-07
1.88981e-08
-1.1609e-07
1.06401e-07
2.65804e-08
-1.0716e-07
9.99089e-08
3.42518e-08
-9.81811e-08
8.40383e-08
4.12686e-08
-8.99861e-08
6.04889e-08
4.70202e-08
-8.32552e-08
3.15278e-08
5.10765e-08
-7.84962e-08
5.28082e-08
-7.55435e-08
4.30229e-08
1.02169e-08
-1.64723e-07
7.96817e-08
1.6266e-08
-1.60433e-07
1.07835e-07
2.72681e-08
-1.52889e-07
1.25025e-07
4.21996e-08
-1.42953e-07
1.29766e-07
5.90369e-08
-1.31765e-07
1.21924e-07
7.59747e-08
-1.20492e-07
1.02607e-07
9.14552e-08
-1.10198e-07
7.38762e-08
1.04165e-07
-1.01746e-07
3.84936e-08
1.13136e-07
-9.5776e-08
1.16904e-07
-9.20052e-08
4.90725e-08
2.03283e-08
-1.9728e-07
9.08249e-08
2.98871e-08
-1.91474e-07
1.2269e-07
4.76092e-08
-1.81257e-07
1.41821e-07
7.12334e-08
-1.68008e-07
1.46708e-07
9.78406e-08
-1.53251e-07
1.37401e-07
1.24556e-07
-1.38555e-07
1.15315e-07
1.48871e-07
-1.25273e-07
8.28501e-08
1.68762e-07
-1.14468e-07
4.31233e-08
1.82763e-07
-1.0689e-07
1.88575e-07
-1.02213e-07
5.87009e-08
3.79088e-08
-2.50666e-07
1.08565e-07
5.14714e-08
-2.42258e-07
1.46222e-07
7.6583e-08
-2.27408e-07
1.68318e-07
1.09883e-07
-2.08567e-07
1.73314e-07
1.47102e-07
-1.87751e-07
1.61617e-07
1.84218e-07
-1.67283e-07
1.35129e-07
2.1777e-07
-1.49017e-07
9.6802e-08
2.45058e-07
-1.34324e-07
5.02927e-08
2.64187e-07
-1.24102e-07
2.71964e-07
-1.17954e-07
7.23959e-08
6.77095e-08
-3.29661e-07
1.3368e-07
8.59474e-08
-3.17101e-07
1.79401e-07
1.19385e-07
-2.95227e-07
2.05393e-07
1.63259e-07
-2.67296e-07
2.10288e-07
2.11861e-07
-2.37075e-07
1.95047e-07
2.5987e-07
-2.07817e-07
1.62324e-07
3.02874e-07
-1.82079e-07
1.15875e-07
3.37586e-07
-1.61621e-07
6.00623e-08
3.6178e-07
-1.47519e-07
3.71318e-07
-1.39231e-07
9.06817e-08
1.16975e-07
-4.40364e-07
1.67074e-07
1.40324e-07
-4.21282e-07
2.23106e-07
1.82807e-07
-3.88501e-07
2.53797e-07
2.37978e-07
-3.47178e-07
2.58107e-07
2.98346e-07
-3.03154e-07
2.37894e-07
3.5723e-07
-2.61229e-07
1.96922e-07
4.09375e-07
-2.24914e-07
1.40003e-07
4.51073e-07
-1.9642e-07
7.23753e-08
4.79921e-07
-1.7698e-07
4.90791e-07
-1.65777e-07
1.14063e-07
1.95764e-07
-5.89477e-07
2.09473e-07
2.24203e-07
-5.6042e-07
2.78057e-07
2.76178e-07
-5.11863e-07
3.13912e-07
3.42572e-07
-4.51088e-07
3.16758e-07
4.14091e-07
-3.8754e-07
2.89851e-07
4.82771e-07
-3.28116e-07
2.38488e-07
5.42762e-07
-2.77498e-07
1.68781e-07
5.90189e-07
-2.38347e-07
8.6997e-08
6.22722e-07
-2.11926e-07
6.34152e-07
-1.96959e-07
1.42495e-07
3.17626e-07
-7.82783e-07
2.61297e-07
3.514e-07
-7.40995e-07
3.44163e-07
4.11778e-07
-6.6863e-07
3.8512e-07
4.87577e-07
-5.80646e-07
3.85166e-07
5.67713e-07
-4.90437e-07
3.49635e-07
6.43325e-07
-4.07866e-07
2.85776e-07
7.08343e-07
-3.38822e-07
2.01247e-07
7.59081e-07
-2.86244e-07
1.03403e-07
7.93559e-07
-2.51167e-07
8.04339e-07
-2.3159e-07
1.76204e-07
5.01254e-07
-1.025e-06
3.2145e-07
5.38072e-07
-9.62329e-07
4.19613e-07
6.03526e-07
-8.57655e-07
4.64904e-07
6.8425e-07
-7.33512e-07
4.6049e-07
7.67802e-07
-6.09109e-07
4.14447e-07
8.45069e-07
-4.97661e-07
3.36385e-07
9.10363e-07
-4.0628e-07
2.35675e-07
9.60612e-07
-3.37809e-07
1.20683e-07
9.9441e-07
-2.92672e-07
1.00287e-06
-2.67788e-07
2.12905e-07
7.64279e-07
-1.30532e-06
3.86612e-07
8.00552e-07
-1.21641e-06
4.9995e-07
8.64816e-07
-1.07053e-06
5.48102e-07
9.42437e-07
-9.01471e-07
5.37493e-07
1.02087e-06
-7.36206e-07
4.7957e-07
1.09182e-06
-5.91483e-07
3.86541e-07
1.15068e-06
-4.75148e-07
2.69455e-07
1.19536e-06
-3.89365e-07
1.37524e-07
1.22507e-06
-3.3349e-07
1.22914e-06
-3.02963e-07
2.49005e-07
1.12027e-06
-1.60111e-06
4.50545e-07
1.15033e-06
-1.48102e-06
5.77206e-07
1.20366e-06
-1.28707e-06
6.26252e-07
1.26645e-06
-1.06764e-06
6.08268e-07
1.32819e-06
-8.58583e-07
5.3834e-07
1.38275e-06
-6.79627e-07
4.31183e-07
1.42721e-06
-5.38481e-07
2.99201e-07
1.46053e-06
-4.35938e-07
1.52262e-07
1.48246e-06
-3.6988e-07
1.47988e-06
-3.33973e-07
2.78934e-07
-1.86914e-06
1.5699e-06
5.03626e-07
-1.71536e-06
1.58542e-06
6.39773e-07
-1.47264e-06
1.61507e-06
6.87874e-07
-1.20554e-06
1.64929e-06
6.62809e-07
-9.57381e-07
1.68188e-06
5.8283e-07
-7.49278e-07
1.70996e-06
4.64558e-07
-5.8776e-07
1.7325e-06
3.2122e-07
-4.7183e-07
1.74925e-06
1.63083e-07
-3.97793e-07
1.7602e-06
-3.57528e-07
1.74897e-06
1.00299e-11
-3.95788e-12
-3.03554e-11
1.75016e-11
-2.7152e-12
-3.00471e-11
2.33891e-11
-1.23655e-12
-2.94214e-11
2.70817e-11
8.38532e-13
-2.85956e-11
2.82071e-11
3.25881e-12
-2.76727e-11
2.66514e-11
5.79274e-12
-2.67177e-11
2.25767e-11
8.17818e-12
-2.58192e-11
1.63849e-11
1.01859e-11
-2.50582e-11
8.66629e-12
1.16365e-11
-2.45071e-11
1.25037e-11
-2.41995e-11
1.05343e-11
-7.81966e-12
-3.35442e-11
1.87361e-11
-5.59621e-12
-3.30868e-11
2.51721e-11
-2.46529e-12
-3.23976e-11
2.92047e-11
1.85692e-12
-3.1438e-11
3.04478e-11
6.89296e-12
-3.03522e-11
2.87905e-11
1.21457e-11
-2.92211e-11
2.43928e-11
1.71047e-11
-2.81646e-11
1.76937e-11
2.12775e-11
-2.72716e-11
9.33908e-12
2.4301e-11
-2.66276e-11
2.6025e-11
-2.62714e-11
1.21621e-11
-1.21865e-11
-4.02525e-11
2.1857e-11
-9.02149e-12
-3.96773e-11
2.94363e-11
-3.90686e-12
-3.87347e-11
3.41961e-11
3.02006e-12
-3.74426e-11
3.56611e-11
1.11227e-11
-3.59764e-11
3.37044e-11
1.95554e-11
-3.44601e-11
2.85324e-11
2.74965e-11
-3.30349e-11
2.06666e-11
3.41804e-11
-3.18312e-11
1.08548e-11
3.90341e-11
-3.09623e-11
4.16572e-11
-3.04907e-11
1.48356e-11
-1.75482e-11
-5.12995e-11
2.69308e-11
-1.32057e-11
-5.05601e-11
3.63258e-11
-5.60306e-12
-4.91537e-11
4.22207e-11
4.55683e-12
-4.72914e-11
4.40078e-11
1.64207e-11
-4.51377e-11
4.1578e-11
2.87e-11
-4.29265e-11
3.51819e-11
4.02767e-11
-4.08715e-11
2.54536e-11
5.00375e-11
-3.91394e-11
1.33242e-11
5.70988e-11
-3.78951e-11
6.07486e-11
-3.72166e-11
1.88053e-11
-2.44155e-11
-6.80196e-11
3.44194e-11
-1.83333e-11
-6.6881e-11
4.64612e-11
-7.49167e-12
-6.4741e-11
5.40547e-11
6.63883e-12
-6.18935e-11
5.63123e-11
2.33167e-11
-5.86859e-11
5.31485e-11
4.04892e-11
-5.53846e-11
4.49459e-11
5.66147e-11
-5.2302e-11
3.25081e-11
7.02128e-11
-4.973e-11
1.70357e-11
8.00041e-11
-4.78792e-11
8.50068e-11
-4.69055e-11
2.4399e-11
-3.30378e-11
-9.22749e-11
4.51027e-11
-2.47498e-11
-9.04739e-11
6.06305e-11
-9.29658e-12
-8.72283e-11
7.04905e-11
9.7878e-12
-8.28744e-11
7.33302e-11
3.26656e-11
-7.79655e-11
6.91531e-11
5.60318e-11
-7.29337e-11
5.84275e-11
7.7958e-11
-6.82789e-11
4.2249e-11
9.63673e-11
-6.4392e-11
2.21711e-11
1.09598e-10
-6.16194e-11
1.1643e-10
-6.01413e-11
3.20071e-11
-4.41096e-11
-1.26162e-10
5.95562e-11
-3.24861e-11
-1.23361e-10
7.99463e-11
-1.08327e-11
-1.18353e-10
9.29025e-11
1.45112e-11
-1.11688e-10
9.6454e-11
4.55543e-11
-1.04252e-10
9.07576e-11
7.68946e-11
-9.66259e-11
7.65256e-11
1.06163e-10
-8.9591e-11
5.52821e-11
1.30601e-10
-8.37652e-11
2.91682e-11
1.4802e-10
-7.96156e-11
1.57516e-10
-7.74105e-11
4.95939e-11
-5.57365e-11
-2.03455e-10
9.02192e-11
-4.04111e-11
-1.98071e-10
1.23587e-10
-1.3004e-11
-1.88964e-10
1.42786e-10
2.43534e-11
-1.76863e-10
1.47545e-10
6.71728e-11
-1.6324e-10
1.38382e-10
1.09941e-10
-1.4963e-10
1.16389e-10
1.49818e-10
-1.37286e-10
8.38217e-11
1.83063e-10
-1.27161e-10
4.37341e-11
2.06792e-10
-1.20023e-10
2.19289e-10
-1.16196e-10
3.87806e-08
-1.05248e-08
-1.59861e-07
7.13658e-08
-6.99174e-09
-1.55764e-07
9.65268e-08
-7.63635e-10
-1.48438e-07
1.11553e-07
7.69656e-09
-1.38787e-07
1.15379e-07
1.6954e-08
-1.27867e-07
1.08103e-07
2.61169e-08
-1.16913e-07
9.07694e-08
3.44474e-08
-1.06953e-07
6.52488e-08
4.12481e-08
-9.87932e-08
3.39823e-08
4.60221e-08
-9.30381e-08
4.81556e-08
-8.94853e-08
4.72883e-08
-2.25691e-08
-1.97658e-07
8.72128e-08
-1.4966e-08
-1.92367e-07
1.17754e-07
-1.15794e-09
-1.83034e-07
1.36201e-07
1.71147e-08
-1.70815e-07
1.41032e-07
3.75188e-08
-1.57164e-07
1.32216e-07
5.78889e-08
-1.43456e-07
1.1106e-07
7.63658e-08
-1.30953e-07
7.98479e-08
9.14354e-08
-1.20708e-07
4.15748e-08
1.02019e-07
-1.13486e-07
1.06696e-07
-1.08947e-07
5.48461e-08
-3.35369e-08
-2.38619e-07
1.01018e-07
-2.12289e-08
-2.31382e-07
1.35913e-07
1.35679e-09
-2.18668e-07
1.56561e-07
3.05568e-08
-2.021e-07
1.61392e-07
6.32181e-08
-1.83792e-07
1.50679e-07
9.57211e-08
-1.65671e-07
1.26122e-07
1.25035e-07
-1.49369e-07
9.04304e-08
1.48826e-07
-1.36162e-07
4.70174e-08
1.6548e-07
-1.26923e-07
1.72772e-07
-1.21261e-07
6.70644e-08
-4.17813e-08
-3.06682e-07
1.2337e-07
-2.3835e-08
-2.95951e-07
1.65025e-07
9.59652e-09
-2.773e-07
1.89104e-07
5.10015e-08
-2.53099e-07
1.93763e-07
9.76194e-08
-2.26819e-07
1.79876e-07
1.43547e-07
-2.01214e-07
1.49824e-07
1.84593e-07
-1.78524e-07
1.07028e-07
2.17664e-07
-1.6037e-07
5.55147e-08
2.40686e-07
-1.47791e-07
2.50615e-07
-1.40285e-07
8.48843e-08
-4.37736e-08
-4.09287e-07
1.55472e-07
-1.87775e-08
-3.92727e-07
2.07264e-07
2.65945e-08
-3.64012e-07
2.35561e-07
8.32031e-08
-3.27805e-07
2.39514e-07
1.45586e-07
-2.88995e-07
2.20772e-07
2.06285e-07
-2.51817e-07
1.82784e-07
2.59894e-07
-2.19408e-07
1.29983e-07
3.02666e-07
-1.9383e-07
6.72222e-08
3.32215e-07
-1.76296e-07
3.44683e-07
-1.66082e-07
1.09635e-07
-3.29934e-08
-5.569e-07
1.99711e-07
8.88561e-10
-5.31019e-07
2.64307e-07
5.99882e-08
-4.8649e-07
2.97728e-07
1.33913e-07
-4.31309e-07
2.99976e-07
2.1375e-07
-3.73563e-07
2.74188e-07
2.90151e-07
-3.19322e-07
2.2542e-07
3.56626e-07
-2.72891e-07
1.59455e-07
4.09005e-07
-2.36807e-07
8.21871e-08
4.44853e-07
-2.12358e-07
4.59506e-07
-1.98419e-07
1.42886e-07
2.16722e-09
-7.62892e-07
2.57774e-07
4.7973e-08
-7.22398e-07
3.38605e-07
1.20179e-07
-6.52881e-07
3.77288e-07
2.12956e-07
-5.68802e-07
3.76083e-07
3.11022e-07
-4.83606e-07
3.40433e-07
4.02841e-07
-4.05169e-07
2.77644e-07
4.81271e-07
-3.39362e-07
1.95222e-07
5.42142e-07
-2.89076e-07
1.00243e-07
5.83347e-07
-2.55439e-07
5.99406e-07
-2.36627e-07
1.83862e-07
8.31342e-08
-1.04211e-06
3.33205e-07
1.34638e-07
-9.76999e-07
4.31712e-07
2.23999e-07
-8.7095e-07
4.75021e-07
3.34935e-07
-7.45921e-07
4.67568e-07
4.49016e-07
-6.2098e-07
4.18617e-07
5.53422e-07
-5.09498e-07
3.38361e-07
6.40748e-07
-4.18053e-07
2.36357e-07
7.07373e-07
-3.49468e-07
1.2086e-07
7.51916e-07
-3.04236e-07
7.68019e-07
-2.79356e-07
2.38152e-07
2.29595e-07
-1.40345e-06
4.25233e-07
2.89504e-07
-1.30429e-06
5.42958e-07
3.92788e-07
-1.14417e-06
5.8876e-07
5.17076e-07
-9.61454e-07
5.71649e-07
6.41002e-07
-7.83983e-07
5.05724e-07
7.51308e-07
-6.29616e-07
4.04865e-07
8.41438e-07
-5.0612e-07
2.80861e-07
9.08945e-07
-4.15347e-07
1.42978e-07
9.53466e-07
-3.56367e-07
9.67575e-07
-3.24374e-07
3.00419e-07
4.79525e-07
-1.84984e-06
5.30772e-07
5.43404e-07
-1.70069e-06
6.67566e-07
6.51999e-07
-1.46655e-06
7.12423e-07
7.78027e-07
-1.20728e-06
6.81734e-07
8.99345e-07
-9.63851e-07
5.95737e-07
1.00403e-06
-7.582e-07
4.72334e-07
1.08743e-06
-5.97755e-07
3.25403e-07
1.14873e-06
-4.8219e-07
1.64923e-07
1.18858e-06
-4.0819e-07
1.19803e-06
-3.68497e-07
3.66245e-07
8.67818e-07
-2.3519e-06
6.4115e-07
9.27052e-07
-2.13958e-06
7.94054e-07
1.02435e-06
-1.81233e-06
8.33741e-07
1.13178e-06
-1.46109e-06
7.8645e-07
1.23102e-06
-1.14296e-06
6.79229e-07
1.31385e-06
-8.8224e-07
5.33739e-07
1.3782e-06
-6.83769e-07
3.65361e-07
1.42467e-06
-5.43517e-07
1.84445e-07
1.45448e-06
-4.54907e-07
1.45625e-06
-4.07749e-07
4.27281e-07
-2.853e-06
1.4228e-06
7.4021e-07
-2.55821e-06
1.45698e-06
9.02415e-07
-2.1256e-06
1.51509e-06
9.33503e-07
-1.68118e-06
1.57634e-06
8.69739e-07
-1.2927e-06
1.63008e-06
7.43969e-07
-9.82952e-07
1.67325e-06
5.80501e-07
-7.52108e-07
1.70604e-06
3.95396e-07
-5.91516e-07
1.72939e-06
1.98979e-07
-4.91155e-07
1.74427e-06
-4.37881e-07
1.73557e-06
1.03966e-11
-7.12353e-12
-3.19199e-11
1.81279e-11
-5.89603e-12
-3.16289e-11
2.42019e-11
-4.27486e-12
-3.09707e-11
2.80095e-11
-2.05309e-12
-3.01128e-11
2.91603e-11
5.50479e-13
-2.91433e-11
2.75503e-11
3.26159e-12
-2.81352e-11
2.33375e-11
5.82124e-12
-2.71891e-11
1.69369e-11
7.96897e-12
-2.63891e-11
8.96051e-12
9.52363e-12
-2.58126e-11
1.04439e-11
-2.54776e-11
1.09634e-11
-1.46591e-11
-3.53173e-11
1.94592e-11
-1.22661e-11
-3.48919e-11
2.61134e-11
-8.86353e-12
-3.41526e-11
3.0294e-11
-4.23417e-12
-3.31359e-11
3.15769e-11
1.20861e-12
-3.19882e-11
2.98463e-11
6.87172e-12
-3.07929e-11
2.52838e-11
1.2193e-11
-2.96735e-11
1.83434e-11