/*--------------------------------*- C++ -*----------------------------------*\
| =========                 |                                                 |
| \\      /  F ield         | OpenFOAM: The Open Source CFD Toolbox           |
|  \\    /   O peration     | Version:  2312                                  |
|   \\  /    A nd           | Website:  www.openfoam.com                      |
|    \\/     M anipulation  |                                                 |
\*---------------------------------------------------------------------------*/
FoamFile
{
    version     2.0;
    format      ascii;
    arch        "LSB;label=32;scalar=64";
    class       surfaceScalarField;
    location    "0.82";
    object      alphaPhi0.water;
}
// * * * * * * * * * * * * * * * * * * * * * * * * * * * * * * * * * * * * * //

dimensions      [0 3 -1 0 0 0 0];

oriented        oriented;

internalField   nonuniform List<scalar> 
22600
(
1.78198e-07
-3.64854e-07
1.86656e-07
3.75151e-07
-3.74363e-07
1.7741e-07
5.39145e-07
-3.31559e-07
1.67565e-07
6.33226e-07
-2.65562e-07
1.71481e-07
6.5857e-07
-1.9939e-07
1.74046e-07
6.21919e-07
-1.3467e-07
1.71321e-07
5.3484e-07
-7.83714e-08
1.65451e-07
4.15284e-07
-3.62986e-08
1.55854e-07
2.80523e-07
-1.01698e-08
1.4493e-07
-3.30499e-10
1.32099e-07
1.50851e-07
-6.75107e-07
1.59402e-07
3.43005e-07
-7.07686e-07
1.41169e-07
5.04896e-07
-6.16555e-07
1.23104e-07
6.00278e-07
-4.99857e-07
1.38913e-07
6.30226e-07
-3.85489e-07
1.56151e-07
6.02091e-07
-2.67144e-07
1.60609e-07
5.2556e-07
-1.59887e-07
1.58047e-07
4.14884e-07
-8.01183e-08
1.54496e-07
2.84601e-07
-3.33618e-08
1.53475e-07
-2.38367e-08
1.48448e-07
2.20286e-07
-1.1232e-06
2.27806e-07
4.66958e-07
-1.1965e-06
2.42138e-07
6.42026e-07
-9.54758e-07
1.63136e-07
7.45023e-07
-7.45917e-07
1.43063e-07
7.68829e-07
-5.8e-07
1.70705e-07
7.18809e-07
-4.10519e-07
1.93396e-07
6.09792e-07
-2.56883e-07
2.06014e-07
4.62352e-07
-1.50268e-07
2.17589e-07
3.02985e-07
-1.08685e-07
2.3469e-07
-1.44297e-07
2.5245e-07
4.07291e-07
-1.9346e-06
4.04111e-07
7.29695e-07
-2.05276e-06
5.33857e-07
8.58088e-07
-1.4617e-06
3.78548e-07
9.44953e-07
-1.08045e-06
2.47664e-07
9.64141e-07
-8.25905e-07
2.26717e-07
8.75735e-07
-5.82153e-07
2.6004e-07
6.90424e-07
-3.74953e-07
3.03381e-07
4.60059e-07
-2.81069e-07
3.61167e-07
2.63529e-07
-3.536e-07
4.41444e-07
-5.89936e-07
5.2308e-07
6.73369e-07
-3.27398e-06
6.66012e-07
1.06109e-06
-3.28231e-06
8.41826e-07
1.08372e-06
-2.17538e-06
6.91058e-07
1.06428e-06
-1.5748e-06
5.13792e-07
1.03429e-06
-1.22928e-06
4.3336e-07
8.97071e-07
-8.97351e-07
4.52419e-07
6.22715e-07
-6.15585e-07
5.14988e-07
3.37433e-07
-6.25161e-07
6.29374e-07
1.99599e-07
-1.01284e-06
7.9707e-07
-1.41615e-06
9.08554e-07
7.92174e-07
-4.86063e-06
7.9452e-07
1.16489e-06
-4.63838e-06
9.83404e-07
1.24241e-06
-3.21145e-06
9.5856e-07
1.21023e-06
-2.39871e-06
8.56104e-07
1.13279e-06
-1.8894e-06
7.37572e-07
9.8787e-07
-1.4111e-06
6.58678e-07
7.56987e-07
-9.84869e-07
6.00166e-07
5.72374e-07
-1.16401e-06
7.23461e-07
4.57727e-07
-1.79125e-06
8.93075e-07
-1.96514e-06
9.46947e-07
7.03209e-07
-6.31519e-06
7.52326e-07
9.09912e-07
-5.84333e-06
9.99264e-07
1.13879e-06
-4.54116e-06
1.10142e-06
1.3538e-06
-3.65526e-06
1.04222e-06
1.45947e-06
-2.83499e-06
8.40351e-07
1.48152e-06
-2.09654e-06
6.63514e-07
1.22966e-06
-1.32849e-06
5.95486e-07
9.03528e-07
-1.49713e-06
6.70559e-07
6.33808e-07
-2.12973e-06
6.61431e-07
-2.15143e-06
6.85736e-07
5.30017e-07
-7.53292e-06
7.0324e-07
6.70108e-07
-7.04821e-06
1.08136e-06
1.20512e-06
-6.12405e-06
1.10296e-06
1.82089e-06
-4.25863e-06
8.22751e-07
1.94516e-06
-2.43019e-06
3.94013e-07
1.62719e-06
-1.43562e-06
5.57113e-08
9.65181e-07
-6.44704e-07
3.35682e-08
6.14163e-07
-6.87536e-07
-2.08573e-07
3.43212e-07
-1.25042e-06
-4.53194e-07
-1.27211e-06
-3.94831e-07
3.51657e-07
-4.26648e-06
6.1856e-07
8.97468e-07
-3.41301e-06
6.5348e-07
1.33699e-06
-1.45282e-06
3.25748e-07
1.2621e-06
-8.82989e-08
-4.3809e-09
1.39987e-06
-8.14774e-09
-8.12245e-08
1.27201e-06
-1.14082e-10
-6.66027e-08
9.90934e-07
1.27869e-08
2.7955e-08
7.87099e-07
-2.93359e-07
2.87322e-07
9.20513e-08
-6.70884e-07
4.42376e-07
-8.06697e-07
4.64592e-07
3.93151e-08
-6.85577e-11
3.42398e-08
2.05376e-07
-8.46188e-11
-4.1447e-08
9.70515e-08
-6.84238e-11
-3.74377e-09
9.05054e-09
-4.80028e-11
-2.52701e-10
9.23796e-10
-3.57004e-12
-1.53622e-11
8.10864e-10
1.68031e-11
2.51308e-11
6.91326e-08
2.49524e-09
5.73818e-08
-1.60682e-07
-1.19745e-09
1.86267e-07
-3.663e-07
-5.09599e-12
2.88244e-07
-6.2346e-12
2.46809e-07
-1.59323e-12
-7.11365e-11
-7.64287e-12
4.42186e-12
-6.16054e-11
-3.82839e-11
8.83999e-12
-3.84243e-11
-3.7212e-11
8.91887e-12
-2.52912e-11
-2.06956e-11
9.89908e-12
-4.45732e-13
-3.67507e-12
2.33855e-11
2.23059e-12
1.14518e-12
1.22366e-09
6.14229e-11
1.27728e-09
-5.39012e-12
6.56077e-12
4.2841e-11
-1.03093e-11
-3.55408e-12
2.56977e-12
-5.32011e-12
1.36908e-12
-2.09361e-12
-5.59375e-11
-1.04161e-10
7.33431e-12
-2.90576e-11
-9.70265e-11
1.6229e-11
-2.29388e-11
-1.33819e-10
2.16071e-11
-4.7833e-12
-1.25561e-10
1.29117e-11
2.25831e-12
-6.26399e-12
8.95822e-12
3.25296e-12
3.34736e-13
1.44612e-11
8.70068e-12
4.72782e-11
-2.06347e-11
1.4819e-11
9.47078e-12
-2.31619e-11
2.08993e-11
-1.18603e-12
7.40941e-12
-3.71279e-13
-4.94109e-12
1.9328e-10
-5.81138e-10
1.49509e-11
5.14214e-11
-3.852e-10
3.25958e-11
5.3195e-11
-1.62508e-10
3.46657e-11
5.31593e-11
-3.24824e-10
1.46507e-11
1.31849e-11
-1.59159e-11
1.20202e-11
5.27342e-12
-2.21354e-14
-1.02563e-11
1.97198e-10
4.48818e-11
-5.70926e-11
2.45165e-11
3.77154e-12
-5.79849e-11
6.80864e-11
-2.00709e-11
7.08076e-11
-3.04095e-11
-1.08504e-11
1.54244e-10
-1.05944e-10
4.02298e-13
2.46547e-11
-1.81599e-11
4.47991e-12
-2.53353e-12
-1.70104e-11
3.6152e-11
7.49071e-11
-2.34162e-10
1.85373e-11
3.88546e-11
-1.07096e-11
6.43179e-12
5.77126e-11
-6.01796e-14
-1.33179e-11
2.67062e-10
7.56179e-11
-1.75243e-11
1.59364e-11
1.15393e-13
-1.08736e-10
8.37919e-11
-4.0341e-11
1.35661e-10
-1.07233e-10
-8.64521e-12
2.80782e-10
3.74672e-11
-5.29862e-12
2.06589e-11
-6.72193e-12
-8.05179e-12
3.70231e-12
-1.15019e-11
1.47801e-11
4.14446e-11
-1.20131e-10
1.29446e-11
4.85468e-11
-8.641e-12
-3.45908e-11
1.71894e-10
-3.74867e-13
-7.98919e-12
3.39244e-10
2.52565e-11
-2.42473e-11
1.34939e-11
-1.0779e-12
-9.29618e-11
5.37305e-11
-3.08043e-11
1.38467e-10
-1.35448e-10
-4.66631e-11
2.15204e-10
1.35651e-10
-9.91049e-12
2.33192e-10
-2.82939e-12
-9.40695e-12
6.80724e-12
-1.44867e-12
-1.28052e-12
6.27768e-12
-7.70349e-12
-7.20872e-12
4.44291e-11
-8.11859e-12
-5.77635e-11
9.98199e-11
-3.11774e-12
-2.63435e-11
4.11346e-11
-1.12222e-11
-1.62162e-11
6.27865e-12
-1.26199e-12
-3.52706e-11
7.76759e-12
-1.47335e-11
3.75277e-11
-4.04502e-11
-1.22917e-10
2.33779e-10
1.27967e-10
-7.59306e-12
2.5918e-10
3.06198e-11
-4.17392e-12
4.94102e-12
-6.66944e-13
-2.53962e-12
6.13844e-12
-1.20412e-12
-2.19388e-11
1.55409e-11
2.36066e-13
-1.60935e-11
8.95625e-12
1.58822e-12
-4.74045e-12
8.92829e-12
-1.41882e-12
-2.48251e-12
4.12751e-12
-1.11164e-12
-3.44088e-12
5.31795e-12
-1.26735e-12
1.34647e-11
1.96212e-11
-1.5133e-10
1.18506e-10
7.84595e-11
-3.49287e-12
9.46762e-11
4.56018e-11
-2.79449e-12
3.88664e-12
2.51028e-13
-2.53269e-12
4.67986e-12
4.73532e-13
-3.86415e-12
5.6194e-12
1.50876e-12
-2.77565e-12
5.69265e-12
1.8933e-12
-1.76094e-12
6.79927e-12
4.49829e-13
-9.27506e-13
3.50605e-12
2.12076e-13
-1.29839e-12
3.25052e-12
1.47492e-12
3.05546e-12
1.58912e-11
-7.82544e-11
1.25097e-11
1.89255e-10
-1.8086e-12
1.25101e-11
5.61536e-12
-1.87594e-12
2.46109e-12
1.30366e-12
-1.54651e-12
2.79681e-12
1.35132e-12
-1.53241e-12
2.98539e-12
1.65775e-12
-9.28018e-13
3.18001e-12
1.49562e-12
-6.11451e-13
5.05602e-12
7.83491e-13
-4.63887e-13
1.78645e-12
6.19058e-13
-4.24945e-13
1.28991e-12
8.53048e-13
8.55661e-13
1.41965e-12
-1.18637e-11
1.89967e-10
-2.07663e-11
-1.22418e-12
3.20076e-11
9.31886e-11
-1.47858e-12
1.5892e-12
1.02131e-12
-2.25258e-12
1.48463e-12
1.88388e-12
-9.39117e-12
2.72548e-12
2.69802e-12
-6.04986e-12
1.10082e-11
1.28191e-11
-2.9191e-12
7.19447e-12
3.58989e-11
-5.56917e-13
1.46194e-11
2.21253e-11
7.30788e-13
2.52922e-11
1.53734e-11
5.60477e-12
5.0003e-12
1.68457e-07
-3.73794e-07
3.91993e-07
3.98157e-07
-4.69969e-07
4.1768e-07
6.04685e-07
-4.38376e-07
3.99413e-07
7.23511e-07
-3.38902e-07
3.91557e-07
7.60804e-07
-2.49982e-07
3.86735e-07
7.29328e-07
-1.78647e-07
3.81444e-07
6.39937e-07
-1.21624e-07
3.76466e-07
5.04261e-07
-7.75393e-08
3.69069e-07
3.3533e-07
-4.7556e-08
3.61417e-07
-4.13821e-08
3.48707e-07
1.31445e-07
-7.06776e-07
3.6094e-07
3.88459e-07
-9.97992e-07
4.12177e-07
6.20318e-07
-9.26514e-07
3.79383e-07
7.35521e-07
-6.81295e-07
3.66103e-07
7.62839e-07
-4.90794e-07
3.69644e-07
7.26322e-07
-3.53392e-07
3.71872e-07
6.34874e-07
-2.43555e-07
3.71425e-07
4.99078e-07
-1.57834e-07
3.70586e-07
3.34105e-07
-1.03634e-07
3.74525e-07
-1.02466e-07
3.73733e-07
2.37844e-07
-1.2037e-06
4.86882e-07
6.46096e-07
-1.82237e-06
6.58266e-07
9.10948e-07
-1.59481e-06
5.66582e-07
9.94994e-07
-1.07754e-06
4.55262e-07
9.74502e-07
-7.27161e-07
4.27564e-07
9.01721e-07
-5.22217e-07
4.35001e-07
7.77901e-07
-3.60693e-07
4.46972e-07
6.0495e-07
-2.28952e-07
4.61658e-07
3.94457e-07
-1.4315e-07
4.847e-07
-1.48588e-07
5.01787e-07
5.36686e-07
-2.07862e-06
7.42346e-07
1.12476e-06
-2.98789e-06
1.1113e-06
1.3312e-06
-2.39865e-06
9.76e-07
1.34762e-06
-1.54473e-06
6.98437e-07
1.27347e-06
-9.89719e-07
5.63428e-07
1.14221e-06
-6.88001e-07
5.57079e-07
9.46177e-07
-4.60983e-07
5.99706e-07
6.88004e-07
-2.71e-07
6.61388e-07
4.1131e-07
-1.58173e-07
7.33161e-07
-2.18397e-07
7.87895e-07
8.48668e-07
-3.33168e-06
1.07041e-06
1.51244e-06
-4.30513e-06
1.49465e-06
1.6305e-06
-3.23209e-06
1.40637e-06
1.56744e-06
-2.05892e-06
1.09105e-06
1.44964e-06
-1.29635e-06
8.57782e-07
1.26732e-06
-8.71308e-07
8.18049e-07
1.00278e-06
-5.81856e-07
9.00404e-07
6.73455e-07
-3.35998e-07
1.0237e-06
3.71014e-07
-1.85852e-07
1.12719e-06
-3.81902e-07
1.20771e-06
1.01154e-06
-4.76221e-06
1.21356e-06
1.62955e-06
-5.55817e-06
1.61944e-06
1.79439e-06
-4.14252e-06
1.70495e-06
1.78192e-06
-2.73826e-06
1.54795e-06
1.63436e-06
-1.68035e-06
1.26914e-06
1.38312e-06
-1.05637e-06
1.09498e-06
1.1167e-06
-8.09336e-07
1.09407e-06
9.12383e-07
-6.74456e-07
1.26624e-06
6.95382e-07
-5.38628e-07
1.46289e-06
-5.59683e-07
1.54893e-06
9.79072e-07
-6.15486e-06
1.16704e-06
1.483e-06
-6.67163e-06
1.61179e-06
1.82538e-06
-5.20486e-06
1.82382e-06
2.0413e-06
-3.7148e-06
1.80404e-06
1.99146e-06
-2.3059e-06
1.51614e-06
1.81375e-06
-1.36983e-06
1.15477e-06
1.81414e-06
-1.23776e-06
1.02356e-06
1.81847e-06
-1.28269e-06
1.27448e-06
1.38194e-06
-8.87208e-07
1.44659e-06
-3.47625e-07
1.39897e-06
8.08486e-07
-7.4704e-06
1.22846e-06
1.40467e-06
-7.97283e-06
1.82087e-06
2.12948e-06
-6.06261e-06
1.88717e-06
2.54692e-06
-3.71553e-06
1.62095e-06
2.38379e-06
-1.96318e-06
1.19556e-06
1.96015e-06
-1.03402e-06
6.47753e-07
1.55309e-06
-6.60563e-07
9.98633e-08
1.10068e-06
-5.49257e-07
-3.36607e-07
5.61394e-07
-2.01655e-07
-5.00577e-07
2.56016e-07
-6.16371e-07
6.63802e-07
-3.65722e-06
9.73618e-07
1.12349e-06
-2.33795e-06
8.48846e-07
1.24447e-06
-9.9311e-08
4.60847e-07
1.25293e-06
-5.80691e-09
1.86468e-07
1.43737e-06
-4.66028e-10
7.78225e-08
1.7015e-06
-7.32691e-11
1.90467e-07
1.38549e-06
-2.18011e-08
2.93767e-07
7.97878e-07
-2.79289e-08
4.67416e-07
1.86788e-07
-1.95581e-07
4.75081e-07
-2.8151e-07
3.59928e-07
1.4111e-07
-1.87154e-10
-1.07187e-08
1.08596e-07
-2.85014e-10
-5.46476e-10
6.39383e-09
-7.87179e-10
-9.83684e-11
5.18519e-10
-1.75867e-10
-1.98321e-11
6.32197e-11
-1.33057e-11
-9.44982e-12
1.67569e-11
5.61567e-13
-9.50022e-13
4.62054e-08
1.23148e-11
2.01676e-09
6.41827e-08
-5.62436e-10
4.08662e-08
-1.56898e-07
-8.38967e-10
1.317e-07
-1.97414e-09
6.32237e-09
5.84571e-12
-1.79409e-10
-3.5809e-11
8.45981e-12
-2.72965e-10
-6.47616e-11
2.17957e-11
-7.05901e-10
-1.35648e-10
1.27011e-11
-1.43664e-10
-4.04743e-11
9.68829e-12
-5.86858e-12
-6.80328e-12
1.77281e-11
8.00807e-13
-8.05895e-12
1.21406e-09
1.81175e-12
9.11048e-11
7.68356e-10
-4.83241e-11
3.83767e-10
1.69946e-12
-8.67829e-11
1.57002e-11
-7.7662e-11
-1.79126e-09
3.29602e-11
-2.7796e-10
-2.49143e-10
1.17018e-11
-3.93773e-10
-6.25264e-10
2.41169e-11
-4.7287e-10
-6.59127e-10
1.03735e-11
-2.93918e-10
-3.66856e-10
5.25785e-12
-6.82001e-12
-1.19043e-11
7.03514e-12
1.12452e-12
-2.39849e-12
4.87014e-11
-5.10789e-12
1.15883e-11
6.30296e-11
1.0642e-12
3.21121e-11
-2.85508e-11
1.77857e-10
-5.08221e-11
1.42087e-10
-2.64887e-10
7.31134e-11
1.28426e-10
-7.4866e-10
1.50524e-11
-7.11827e-11
-8.97834e-10
7.34009e-12
-1.51481e-10
-6.0194e-10
4.87498e-11
-1.79133e-10
-8.70712e-10
3.13228e-12
4.30981e-12
-1.06178e-11
3.22549e-12
2.57918e-12
-2.18566e-12
1.66529e-11
2.40886e-11
7.19294e-13
1.10949e-11
1.33479e-11
5.55283e-12
-5.11283e-11
2.30136e-10
-3.21892e-11
6.42488e-10
-7.21554e-11
2.50038e-11
-6.37223e-12
-9.17256e-11
-1.4025e-12
-8.07864e-13
-2.74076e-11
-3.19073e-11
-2.91396e-13
-3.57111e-11
-1.5856e-11
3.34387e-11
-6.71556e-10
3.01064e-13
1.07135e-11
-1.95325e-11
1.88588e-12
4.51863e-12
-4.40074e-12
1.05163e-11
4.44337e-11
-7.28381e-14
1.88696e-12
1.51341e-11
4.19175e-14
-1.20005e-10
3.04073e-10
-3.36808e-11
1.04911e-09
-4.67128e-10
-1.38963e-12
1.86676e-10
-2.6536e-12
-2.54951e-12
1.93431e-11
2.6833e-13
-3.61304e-11
5.77443e-12
-4.41914e-12
-1.47779e-11
-3.93763e-12
-1.61929e-11
-1.30167e-12
1.79785e-11
-1.7626e-11
6.66391e-14
6.87113e-12
-4.96322e-12
8.00659e-13
1.63172e-11
-3.68617e-12
1.33063e-12
1.39892e-11
-5.96139e-12
-7.49784e-11
3.46549e-10
-1.59434e-10
1.13967e-09
-3.41545e-10
-1.6475e-11
2.49318e-10
1.78764e-10
-6.73758e-12
8.29033e-11
-3.92378e-12
-3.11452e-12
2.74149e-12
-2.58381e-12
-6.80403e-12
-8.03949e-13
-5.3755e-12
-2.50915e-12
2.06527e-11
-1.50641e-11
-1.57443e-12
9.39897e-12
-6.39783e-12
-1.85107e-13
8.41115e-12
-7.60688e-12
3.5209e-12
1.50926e-11
-8.76662e-12
6.59638e-11
1.85923e-10
-2.00763e-10
1.15274e-09
-1.8316e-10
-9.43049e-12
1.57591e-10
2.52008e-10
-5.67141e-12
1.30052e-10
8.91324e-12
-2.84712e-12
3.38872e-12
-1.76526e-12
-4.25427e-12
3.66474e-12
-2.18954e-12
-3.67965e-12
6.90658e-12
-2.59807e-12
-2.32772e-12
1.16054e-11
-3.84281e-12
2.85925e-14
6.88067e-12
3.95669e-13
-6.68372e-13
1.78349e-11
-4.4117e-12
2.50838e-11
9.54767e-11
-4.53357e-11
1.14361e-09
6.19625e-11
-3.35667e-11
8.38419e-11
2.81253e-11
-3.97132e-12
9.03289e-11
3.95992e-11
-3.15477e-12
3.92839e-12
-2.19582e-13
-3.11834e-12
5.73442e-12
-1.50631e-13
-2.72114e-12
3.53901e-13
1.02202e-12
-4.16971e-13
6.6919e-12
1.04744e-12
-4.04974e-13
8.97963e-12
-1.16712e-13
3.00119e-12
9.34683e-11
-5.5619e-13
-5.65287e-11
2.77165e-10
1.68764e-11
5.97225e-10
6.27598e-10
-6.42287e-11
1.51749e-10
7.12625e-11
-2.27929e-12
1.51532e-11
1.01968e-11
-2.70929e-12
4.09821e-12
1.45886e-12
-3.1505e-12
5.79919e-12
1.55753e-12
-1.8699e-12
3.82764e-12
2.92383e-12
-1.61666e-12
5.39028e-12
1.86951e-12
-3.04594e-12
8.24987e-12
2.27805e-12
-1.73454e-11
1.41581e-10
3.20734e-11
-9.86678e-11
3.14855e-10
1.78867e-10
1.46097e-10
3.32111e-10
-4.03242e-11
2.35155e-10
2.60526e-10
-2.5978e-12
4.7665e-12
6.86772e-12
-2.54253e-12
2.68704e-12
3.75664e-12
-2.27225e-12
2.83761e-12
4.85811e-12
-2.61582e-12
2.91171e-12
5.40347e-12
-8.63828e-13
4.98177e-12
1.69866e-11
-5.07908e-12
6.74633e-12
2.9532e-11
-2.65348e-11
7.1621e-11
6.23732e-11
-1.41106e-11
2.0071e-10
2.68473e-11
1.34357e-10
3.58137e-12
1.59833e-07
-3.27263e-07
5.59423e-07
3.80796e-07
-4.30629e-07
6.27346e-07
5.791e-07
-4.00853e-07
6.01963e-07
6.94084e-07
-3.03839e-07
5.80412e-07
7.31269e-07
-2.18246e-07
5.67797e-07
7.02521e-07
-1.52804e-07
5.62995e-07
6.17391e-07
-1.03541e-07
5.65137e-07
4.84978e-07
-6.8127e-08
5.69609e-07
3.17726e-07
-5.0838e-08
5.79507e-07
-5.99976e-08
5.77835e-07
1.16023e-07
-6.09778e-07
5.27432e-07
3.55635e-07
-9.06862e-07
6.48798e-07
5.84818e-07
-8.66538e-07
6.15884e-07
7.02029e-07
-6.30913e-07
5.75966e-07
7.31599e-07
-4.38021e-07
5.59848e-07
6.97722e-07
-3.05022e-07
5.57968e-07
6.10712e-07
-2.09438e-07
5.64332e-07
4.8108e-07
-1.42829e-07
5.7492e-07
3.21955e-07
-1.12872e-07
5.95685e-07
-1.30425e-07
6.06953e-07
1.56127e-07
-9.52793e-07
6.7377e-07
5.37336e-07
-1.56147e-06
9.31665e-07
8.44584e-07
-1.49047e-06
8.83265e-07
9.46599e-07
-1.02451e-06
7.46842e-07
9.29525e-07
-6.68558e-07
6.75176e-07
8.62399e-07
-4.64712e-07
6.61817e-07
7.47425e-07
-3.18266e-07
6.70775e-07
5.82541e-07
-2.01895e-07
6.85607e-07
3.77793e-07
-1.28491e-07
7.05067e-07
-1.29212e-07
7.03067e-07
3.65099e-07
-1.46925e-06
8.93701e-07
9.52905e-07
-2.35419e-06
1.31626e-06
1.28911e-06
-2.15481e-06
1.30418e-06
1.35009e-06
-1.44642e-06
1.05937e-06
1.25479e-06
-8.92457e-07
8.82625e-07
1.11439e-06
-6.02743e-07
8.35514e-07
9.33838e-07
-3.98962e-07
8.60953e-07
6.90854e-07
-1.96838e-07
8.99315e-07
4.09786e-07
-3.60229e-08
9.2176e-07
3.62471e-09
8.79596e-07
6.65909e-07
-2.19628e-06
1.13153e-06
1.39129e-06
-3.19167e-06
1.60671e-06
1.69101e-06
-2.72479e-06
1.67669e-06
1.70247e-06
-1.8033e-06
1.43647e-06
1.56538e-06
-1.09675e-06
1.19917e-06
1.388e-06
-7.52943e-07
1.14563e-06
1.16239e-06
-4.90777e-07
1.21782e-06
8.15531e-07
-7.28868e-08
1.24661e-06
4.34172e-07
2.46728e-07
1.2258e-06
2.73864e-07
1.16265e-06
9.4926e-07
-3.28508e-06
1.35312e-06
1.69816e-06
-4.14656e-06
1.82593e-06
1.97227e-06
-3.28446e-06
1.99067e-06
1.99482e-06
-2.14345e-06
1.86556e-06
1.85092e-06
-1.27574e-06
1.59203e-06
1.66132e-06
-9.34477e-07
1.46611e-06
1.43503e-06
-7.4058e-07
1.57017e-06
1.09212e-06
-2.24642e-07
1.76089e-06
6.49932e-07
3.87591e-07
1.76422e-06
5.68337e-07
1.62182e-06
1.03805e-06
-4.69908e-06
1.54362e-06
1.6922e-06
-5.26335e-06
2.07667e-06
2.00048e-06
-4.00611e-06
2.23865e-06
2.14278e-06
-2.67944e-06
2.19831e-06
2.09362e-06
-1.6009e-06
1.8906e-06
2.03601e-06
-1.29157e-06
1.5695e-06
1.98515e-06
-1.30536e-06
1.63921e-06
1.65791e-06
-4.2556e-07
1.80264e-06
1.12657e-06
4.78348e-07
1.88718e-06
9.55796e-07
1.67783e-06
8.34473e-07
-6.15337e-06
1.87422e-06
1.55624e-06
-6.02239e-06
2.56766e-06
2.08544e-06
-4.15612e-06
2.4928e-06
2.24099e-06
-2.5389e-06
2.22439e-06
2.03566e-06
-1.37054e-06
1.69514e-06
1.56759e-06
-6.19567e-07
6.32133e-07
7.6741e-07
-3.21693e-07
-3.53718e-08
5.4224e-08
4.72514e-08
-7.10549e-08
-7.94547e-08
1.46155e-07
-1.48631e-07
2.97729e-07
-3.467e-07
6.82329e-07
-1.51904e-06
1.00581e-06
8.67746e-07
-4.0754e-08
8.1183e-07
1.17727e-06
-2.03459e-09
6.75874e-07
1.46026e-06
-2.12707e-10
5.55824e-07
1.69346e-06
-1.01863e-10
5.70767e-07
1.51436e-06
-4.95586e-10
6.33963e-07
1.20678e-06
1.02027e-08
2.15089e-07
5.39712e-07
-1.62913e-08
2.79752e-07
1.20095e-07
-3.46346e-08
1.98078e-07
-1.8437e-08
9.37976e-08
4.21025e-08
-1.81697e-10
-4.98551e-12
1.71609e-09
-8.06138e-10
-2.48439e-11
1.30792e-10
-3.92058e-10
-2.91022e-11
3.38542e-11
-8.4296e-11
-2.85407e-11
2.437e-11
-1.76907e-11
-7.7892e-11
4.4155e-11
-5.38517e-12
-4.56863e-10
1.08052e-08
3.62029e-10
1.34769e-09
2.43576e-08
2.47665e-09
8.58432e-09
2.86564e-08
7.83868e-11
2.74993e-08
-2.58985e-09
1.50555e-08
4.57419e-12
-1.5406e-10
-8.69924e-11
4.0389e-12
-7.73589e-10
-1.05172e-10
1.89992e-11
-7.56316e-10
-1.31155e-10
7.3594e-12
-7.55875e-11
-4.25238e-11
1.17371e-11
-8.93631e-12
-1.64799e-11
5.67853e-11
1.62828e-12
-5.89906e-11
6.82179e-10
1.37297e-11
-1.39152e-10
3.59589e-09
8.21133e-11
-6.045e-11
3.34093e-09
-3.75473e-10
1.13344e-09
-3.22419e-10
-1.83979e-10
-3.08828e-11
-2.92754e-10
-1.51512e-10
-1.1804e-10
-6.01608e-10
-7.21607e-10
-4.5265e-11
-7.1217e-10
-6.45542e-10
-1.07574e-11
-4.70591e-10
-2.62814e-10
1.54582e-14
-4.66649e-12
-3.0129e-11
4.67014e-12
1.89519e-12
-8.25234e-12
3.94135e-11
4.90351e-12
-1.55018e-11
2.24585e-10
4.74406e-12
-4.55588e-11
1.51301e-10
-3.39154e-11
-1.00616e-10
2.5763e-12
-3.98341e-10
-6.31529e-11
-5.63357e-11
-7.69865e-11
-5.7303e-11
-1.93004e-10
-1.90104e-10
-3.64635e-11
-2.91806e-10
-9.51685e-10
-2.40794e-11
-3.83872e-10
-4.57834e-10
-2.27842e-12
-2.47588e-12
-3.53673e-11
3.82949e-13
3.66045e-12
-7.2468e-12
5.76246e-12
5.5243e-12
-7.23783e-12
2.58567e-11
1.54674e-11
-2.38128e-11
-3.89455e-12
6.71357e-11
-8.93079e-11
4.65794e-10
-2.43998e-10
-8.64495e-12
-1.92179e-12
-1.51902e-10
-6.27511e-12
-1.04919e-10
-1.21936e-10
-3.00412e-11
-4.94525e-12
-1.28923e-11
-2.53757e-11
-9.78315e-12
-9.14741e-11
-4.73101e-12
7.17088e-12
-9.212e-11
-9.0268e-13
6.04943e-12
-1.12475e-11
1.57329e-12
9.74759e-12
-7.35463e-12
6.31533e-12
4.66566e-11
-3.26267e-11
-5.21899e-12
3.35217e-10
-9.47535e-11
7.38469e-10
-2.38124e-10
-1.70843e-11
1.40461e-10
-4.89909e-11
-4.18622e-12
-9.19402e-12
-2.28489e-10
-1.68413e-12
-1.03483e-12
-9.65229e-12
-1.3118e-11
7.70715e-14
-1.43872e-11
-5.4072e-12
8.0304e-12
-4.51522e-11
-2.58957e-12
7.78232e-12
-1.039e-11
-4.00959e-13
1.28733e-11
-1.01735e-11
-7.17213e-13
5.58993e-11
-3.56328e-11
9.92671e-11
6.87056e-10
-2.86594e-10
4.54842e-10
-1.11766e-10
-1.33734e-11
7.93502e-11
2.17056e-10
-5.03839e-12
5.51364e-12
-1.43843e-11
-2.98679e-12
3.35019e-13
-4.5853e-12
-5.1117e-12
1.79985e-12
-5.03017e-12
-5.04234e-12
1.49425e-12
-1.13844e-11
-3.4031e-12
1.04022e-11
-1.27213e-11
-1.29395e-12
1.62605e-11
-1.62682e-11
2.33014e-12
3.28346e-11
-2.47536e-11
1.43942e-10
6.64317e-10
-1.39208e-10
2.12835e-10
-6.19009e-11
1.1907e-11
3.41783e-11
6.30138e-11
-2.89501e-13
9.78402e-12
4.9161e-12
-1.50622e-12
1.91766e-12
-1.42945e-12
-1.70539e-12
2.16455e-12
-1.7615e-12
-3.24137e-12
4.00765e-12
-2.15671e-12
-3.41177e-12
9.18223e-12
-4.26907e-12
-3.65018e-13
1.32675e-11
-3.27108e-12
7.2654e-12
1.56309e-11
-1.9742e-12
8.69633e-11
9.66897e-11
-4.14285e-11
6.97619e-10
5.75571e-12
5.85218e-12
3.17582e-12
1.54907e-11
1.2149e-12
7.55791e-12
3.99525e-12
-1.68717e-12
4.05842e-12
-3.20292e-13
-1.92417e-12
3.9424e-12
1.49621e-13
-2.0535e-12
5.50182e-12
-1.00487e-13
-1.71261e-12
7.4144e-12
1.55303e-13
-3.21959e-13
8.70371e-12
1.02376e-12
1.81458e-12
1.43038e-11
-7.24143e-13
5.30947e-11
1.05597e-10
1.21493e-11
1.23727e-09
3.91504e-10
-2.17719e-12
7.21047e-12
1.98773e-11
-2.91209e-12
4.29026e-12
5.98446e-12
-2.42494e-12
4.19918e-12
2.27673e-12
-1.85779e-12
5.12932e-12
1.78867e-12
-1.55423e-12
5.8355e-12
1.89177e-12
-1.10815e-12
5.72352e-12
2.64952e-12
-1.53267e-12
6.33924e-12
4.46223e-12
5.60838e-12
3.63314e-11
1.25103e-11
-1.08611e-10
3.79436e-10
1.54053e-10
1.02804e-09
7.694e-10
-5.97731e-12
5.77035e-11
1.21928e-10
-2.61617e-12
4.21672e-12
4.20822e-12
-2.49079e-12
4.49571e-12
4.46484e-12
-2.15963e-12
4.31277e-12
4.62257e-12
-1.7631e-12
3.48833e-12
5.10512e-12
-2.19598e-12
4.51117e-12
6.23221e-12
-1.6326e-11
1.45887e-11
1.28334e-11
7.46344e-13
1.17201e-10
1.25044e-10
-1.21225e-10
3.22539e-10
2.06512e-10
4.60129e-10
2.30458e-10
1.64361e-07
-2.56266e-07
6.51329e-07
3.74581e-07
-3.25302e-07
7.42428e-07
5.5823e-07
-2.95484e-07
7.13797e-07
6.69025e-07
-2.19511e-07
6.89128e-07
7.08795e-07
-1.49423e-07
6.7745e-07
6.85085e-07
-8.97973e-08
6.76502e-07
6.05081e-07
-3.9685e-08
6.84827e-07
4.78498e-07
-5.59606e-12
6.96198e-07
3.13039e-07
2.4612e-08
7.20353e-07
2.90478e-08
7.2528e-07
1.33549e-07
-4.84084e-07
6.21701e-07
3.46205e-07
-6.49031e-07
7.59873e-07
5.47348e-07
-6.08995e-07
7.28252e-07
6.63482e-07
-4.49577e-07
6.89899e-07
7.01909e-07
-3.0162e-07
6.73618e-07
6.7732e-07
-1.81671e-07
6.7443e-07
6.00181e-07
-8.59722e-08
6.87759e-07
4.83158e-07
-1.55528e-08
7.07491e-07
3.29012e-07
2.91262e-08
7.45317e-07
4.67964e-08
7.67545e-07
1.39537e-07
-7.30882e-07
7.81031e-07
4.24807e-07
-1.02377e-06
1.02113e-06
6.98898e-07
-9.81672e-07
9.81851e-07
8.32971e-07
-7.13856e-07
8.77049e-07
8.61867e-07
-4.74929e-07
8.1959e-07
8.21272e-07
-2.9224e-07
8.12981e-07
7.15704e-07
-1.38713e-07
8.29084e-07
5.56553e-07
-1.57861e-08
8.44992e-07
3.59588e-07
7.96107e-08
8.51547e-07
1.4136e-07
8.05096e-07
2.38326e-07
-1.06808e-06
9.92576e-07
6.56673e-07
-1.4746e-06
1.34874e-06
9.98982e-07
-1.38359e-06
1.36379e-06
1.13748e-06
-9.85784e-07
1.1928e-06
1.12917e-06
-6.37901e-07
1.05391e-06
1.04699e-06
-3.90068e-07
1.01552e-06
8.81716e-07
-1.60657e-07
1.04817e-06
6.31805e-07
5.74855e-08
1.07595e-06
3.54161e-07
2.36605e-07
1.04241e-06
3.20199e-07
8.82329e-07
4.81017e-07
-1.55373e-06
1.13616e-06
1.0433e-06
-1.99308e-06
1.56291e-06
1.38642e-06
-1.73521e-06
1.68518e-06
1.50676e-06
-1.22296e-06
1.5533e-06
1.49277e-06
-8.22311e-07
1.39757e-06
1.40443e-06
-5.25282e-07
1.36918e-06
1.13964e-06
-6.78462e-08
1.38981e-06
7.56416e-07
2.95001e-07
1.39232e-06
3.65733e-07
5.2734e-07
1.32575e-06
5.84169e-07
1.08518e-06
8.02775e-07
-2.36731e-06
1.36394e-06
1.48624e-06
-2.71911e-06
1.86853e-06
1.79071e-06
-2.0849e-06
2.0359e-06
1.86797e-06
-1.37864e-06
1.94399e-06
1.86092e-06
-9.81691e-07
1.75846e-06
1.84948e-06
-7.34326e-07
1.6866e-06
1.63888e-06
-1.51361e-07
1.86428e-06
1.03992e-06
6.92159e-07
1.96269e-06
4.49516e-07
1.03235e-06
1.84961e-06
1.02935e-06
1.42465e-06
9.07487e-07
-3.52781e-06
1.79722e-06
1.59664e-06
-3.72399e-06
2.39362e-06
1.90535e-06
-2.62855e-06
2.47416e-06
1.98462e-06
-1.62651e-06
2.36708e-06
2.04516e-06
-1.25713e-06
2.10555e-06
2.20481e-06
-1.14725e-06
1.82279e-06
1.93774e-06
-8.99426e-08
1.84371e-06
1.33552e-06
1.17619e-06
1.92083e-06
7.40732e-07
1.75817e-06
1.75615e-06
1.746e-06
1.38294e-06
6.40425e-07
-3.89298e-06
2.34463e-06
1.29047e-06
-3.50701e-06
2.91399e-06
1.68813e-06
-2.47701e-06
2.83988e-06
1.67504e-06
-1.462e-06
2.58538e-06
1.27619e-06
-7.19736e-07
1.78597e-06
3.24708e-07
-1.61662e-07
5.77605e-07
-3.74331e-07
2.48592e-07
1.37016e-07
-5.38858e-07
3.32639e-07
2.07421e-07
-4.18892e-07
2.73309e-07
9.03325e-08
1.67875e-07
-9.48375e-08
4.48144e-07
-2.07424e-10
5.59897e-07
6.71684e-07
-1.9448e-10
6.04543e-07
1.06872e-06
-3.32563e-10
7.77103e-07
1.41036e-06
-4.31208e-10
9.68313e-07
1.44873e-06
-2.09889e-09
1.05402e-06
1.07783e-06
1.36374e-08
7.92687e-07
5.3332e-07
-6.14107e-09
1.29303e-07
1.52903e-07
-2.23624e-08
3.94139e-08
2.78324e-08
-2.05761e-08
3.18858e-08
-1.18615e-08
9.28139e-09
2.82701e-11
-9.64724e-11
-1.01011e-10
4.9249e-11
-1.04736e-10
-1.07112e-10
6.58307e-11
-1.54824e-10
-1.1318e-10
7.80831e-11
-6.66887e-11
-2.92082e-10
1.27254e-10
-6.974e-11
-2.13348e-09
1.21183e-08
-6.56157e-10
2.11593e-09
7.91233e-09
-1.67111e-09
1.25629e-09
1.72202e-09
-2.40393e-09
-7.22734e-09
-1.71378e-09
-1.2742e-09
8.4176e-09
-1.31212e-11
3.17035e-09
1.40965e-11
-1.56838e-10
-5.35195e-11
9.98716e-12
-1.52499e-10
-2.63034e-11
1.27326e-11
-3.37502e-10
-1.30381e-11
1.77276e-11
-9.73841e-11
-4.50536e-11
2.64931e-11
-2.56216e-11
-6.31745e-11
7.76828e-11
-5.65734e-11
-6.97538e-10
-2.30777e-10
-3.85329e-10
-1.22233e-09
-7.10695e-10
-5.97565e-10
-1.73376e-09
-1.28363e-09
-3.25425e-10
8.53826e-11
-7.33566e-10
-1.04125e-10
-8.06529e-12
-2.56072e-11
9.8909e-11
-1.32072e-10
-2.90366e-11
-2.39081e-11
-8.04344e-11
-5.90935e-10
-5.1359e-11
-2.6249e-11
-7.78474e-11
-1.4193e-10
-4.64018e-12
-1.26926e-11
-1.49062e-10
-1.21409e-11
-3.06059e-13
-1.10565e-10
-1.06201e-10
-2.0393e-11
-3.03699e-10
-2.71243e-10
-1.30289e-10
-4.00139e-10
-3.97739e-10
-2.56498e-10
-1.50005e-10
-1.26501e-10
-5.41182e-10
-6.88822e-12
-6.10084e-11
-4.21366e-11
-4.15002e-11
-1.23158e-10
-5.87382e-11
-1.51364e-11
-2.85255e-11
-3.90817e-11
-2.0061e-11
-1.4225e-11
-7.53934e-11
-5.10639e-12
-1.9531e-11
-1.03496e-10
-3.80347e-12
9.24474e-12
-2.09442e-11
-3.42956e-11
2.94539e-11
-7.4235e-11
-6.22559e-11
1.42303e-11
-1.17316e-10
-9.17343e-11
-6.79368e-11
-1.10186e-10
2.21395e-10
-4.42431e-10
-4.16895e-11
-8.51591e-11
-1.49304e-10
-2.44056e-12
-3.02934e-10
-3.04529e-10
-1.63106e-12
-1.24217e-11
-3.30692e-11
-2.77294e-11
-7.25189e-12
-2.78022e-11
-9.14014e-12
1.24311e-12
-9.08236e-11
-8.11248e-12
1.5776e-11
-2.38859e-11
-1.95081e-11
3.00919e-11
-2.9889e-11
-3.464e-11
5.58417e-11
-6.89337e-11
2.41372e-11
1.1485e-10
-6.73616e-11
6.9999e-11
-7.53004e-11
-1.06283e-10
-6.44039e-11
-2.65685e-10
-1.15755e-11
-1.96844e-10
-3.39693e-10
-3.932e-12
-4.00401e-12
-3.03645e-11
-1.85941e-11
-1.14851e-12
-7.30734e-12
-1.36738e-11
1.54527e-12
-3.12164e-11
-7.53044e-12
1.7241e-11
-1.92164e-11
-7.10855e-12
3.80457e-11
-2.04664e-11
-2.24976e-12
3.80967e-11
-4.06846e-11
6.21538e-11
1.7387e-10
-4.77149e-11
2.42724e-11
-2.00411e-11
-9.33393e-12
1.17437e-11
1.8717e-10
-1.23339e-11
-1.26469e-11
-4.89602e-11
-3.03237e-12
-1.35944e-12
-1.53542e-11
-3.64513e-12
8.45939e-13
-5.50017e-12
-1.49329e-11
4.38129e-12
-1.36708e-11
-1.74269e-11
5.30845e-11
-5.13863e-11
-1.68425e-12
8.68265e-11
-6.88456e-11
1.00226e-11
4.92289e-11
-3.93753e-11
5.97426e-11
1.48446e-10
-1.61986e-11
6.96292e-11
-2.00467e-11
3.6311e-12
5.77123e-13
2.85229e-11
2.22223e-13
-2.64523e-12
-2.34278e-13
-5.57466e-13
2.11782e-13
-1.02963e-12
-1.03811e-12
2.36933e-12
-1.72686e-12
-1.94247e-11
1.72063e-11
-2.46463e-11
-3.22642e-11
4.93028e-11
-4.96804e-11
-1.10658e-11
6.74246e-11
-5.4899e-11
4.66861e-12
5.16026e-11
-3.8114e-11
3.02649e-11
4.72123e-11
-1.00502e-11
8.24498e-11
5.067e-12
2.53047e-12
-1.44214e-12
1.36319e-11
1.57946e-12
-2.60105e-13
2.42461e-12
5.32498e-13
2.92037e-12
-2.13186e-12
-1.17527e-12
4.66236e-12
-8.06285e-13
-4.11725e-12
9.12528e-12
-7.624e-13
-1.33612e-11
1.84911e-11
1.62301e-13
-6.77829e-12
3.50583e-11
2.98147e-12
-7.63403e-15
5.46286e-11
1.37923e-11
1.27209e-11
6.66504e-11
1.81428e-11
6.23721e-10
2.06998e-10
1.0818e-12
-1.05136e-12
1.66743e-11
5.30588e-13
1.52656e-12
3.06017e-12
-4.44929e-13
1.17133e-11
2.32325e-12
-1.31636e-12
4.91509e-12
4.39116e-12
-2.15324e-12
5.78365e-12
6.31316e-12
-7.29591e-12
1.13657e-11
1.45227e-11
-3.65562e-12
5.42604e-11
6.12986e-11
4.39793e-12
1.25259e-10
9.2315e-11
-1.83847e-10
3.27692e-10
1.48796e-10
8.45839e-10
7.03989e-10
-1.27419e-12
4.16143e-11
1.5409e-11
-7.83567e-12
6.67356e-12
4.43584e-12
-4.74096e-12
3.34673e-11
2.4193e-11
-3.70863e-12
3.78861e-11
3.01407e-11
-1.26318e-11
4.12727e-11
4.15804e-11
-1.45648e-11
1.01737e-10
8.70945e-11
-1.09451e-11
1.38915e-10
1.00452e-10
9.80009e-12
1.76534e-10
9.87043e-11
-2.54959e-10
2.39662e-10
1.95797e-10
6.10178e-10
7.68235e-10
1.66008e-07
-1.83899e-07
6.69221e-07
3.70096e-07
-2.32752e-07
7.71091e-07
5.4684e-07
-2.04985e-07
7.42038e-07
6.5776e-07
-1.4257e-07
7.20778e-07
7.02735e-07
-8.2158e-08
7.14632e-07
6.849e-07
-2.32393e-08
7.17577e-07
6.09186e-07
3.31058e-08
7.27434e-07
4.85256e-07
8.27334e-08
7.37394e-07
3.12215e-07
1.26949e-07
7.66446e-07
1.66553e-07
7.5153e-07
1.48826e-07
-3.57349e-07
6.46325e-07
3.51684e-07
-4.55074e-07
7.79336e-07
5.34329e-07
-4.08195e-07
7.48817e-07
6.48876e-07