/*--------------------------------*- C++ -*----------------------------------*\
| =========                 |                                                 |
| \\      /  F ield         | OpenFOAM: The Open Source CFD Toolbox           |
|  \\    /   O peration     | Version:  2312                                  |
|   \\  /    A nd           | Website:  www.openfoam.com                      |
|    \\/     M anipulation  |                                                 |
\*---------------------------------------------------------------------------*/
FoamFile
{
    version     2.0;
    format      ascii;
    arch        "LSB;label=32;scalar=64";
    class       surfaceScalarField;
    location    "0.595";
    object      phi;
}
// * * * * * * * * * * * * * * * * * * * * * * * * * * * * * * * * * * * * * //

dimensions      [0 3 -1 0 0 0 0];

oriented        oriented;

internalField   nonuniform List<scalar> 
22600
(
-1.77959e-07
1.1635e-07
6.44159e-08
-3.51208e-07
9.69429e-08
7.63061e-08
-5.01859e-07
5.80493e-08
9.26023e-08
-6.12648e-07
1.61059e-09
1.09178e-07
-6.66309e-07
-7.11882e-08
1.24849e-07
-6.54393e-07
-1.51021e-07
1.39105e-07
-5.69359e-07
-2.37223e-07
1.5219e-07
-4.04932e-07
-3.30718e-07
1.66291e-07
-1.81615e-07
-4.07541e-07
1.84223e-07
-3.60035e-07
1.78421e-07
-1.77353e-07
2.50895e-07
5.02302e-08
-3.49474e-07
2.09332e-07
5.97314e-08
-4.92623e-07
1.2829e-07
7.2908e-08
-5.97773e-07
1.84038e-08
8.83568e-08
-6.53367e-07
-1.20573e-07
1.0498e-07
-6.4977e-07
-2.74342e-07
1.19722e-07
-5.72868e-07
-4.46236e-07
1.32111e-07
-4.06571e-07
-6.41739e-07
1.44724e-07
-1.67063e-07
-8.10231e-07
1.63182e-07
-6.91896e-07
1.64797e-07
-2.15968e-07
4.10776e-07
6.53545e-08
-4.27805e-07
3.48206e-07
7.2964e-08
-6.09114e-07
2.22396e-07
8.72039e-08
-7.46015e-07
5.06927e-08
1.04612e-07
-8.26345e-07
-1.60126e-07
1.19883e-07
-8.39194e-07
-3.93223e-07
1.31731e-07
-7.63865e-07
-6.60803e-07
1.39237e-07
-5.60006e-07
-1.0046e-06
1.59004e-07
-2.19257e-07
-1.36239e-06
2.11415e-07
-1.13114e-06
2.19991e-07
-2.76945e-07
5.71614e-07
1.29416e-07
-5.45754e-07
4.86805e-07
1.3021e-07
-7.75855e-07
3.18139e-07
1.34358e-07
-9.50413e-07
8.15957e-08
1.43655e-07
-1.06405e-06
-1.959e-07
1.49407e-07
-1.11289e-06
-4.95536e-07
1.51154e-07
-1.08083e-06
-8.68711e-07
1.75845e-07
-8.83072e-07
-1.48071e-06
2.78359e-07
-3.95754e-07
-2.29693e-06
4.47215e-07
-1.94849e-06
4.21588e-07
-3.42875e-07
6.13534e-07
3.08205e-07
-6.6122e-07
5.06231e-07
2.9892e-07
-9.32891e-07
3.09119e-07
2.80691e-07
-1.12311e-06
-3.03523e-09
2.74848e-07
-1.25878e-06
-3.21639e-07
2.61411e-07
-1.35317e-06
-6.74338e-07
2.7319e-07
-1.40174e-06
-1.18961e-06
3.69464e-07
-1.26525e-06
-2.19845e-06
5.81248e-07
-6.81704e-07
-3.69228e-06
8.11807e-07
-3.3497e-06
7.19508e-07
-2.97588e-07
5.41098e-07
3.79267e-07
-5.96974e-07
4.25551e-07
3.80065e-07
-8.69789e-07
1.95423e-07
3.86511e-07
-1.07287e-06
-2.1268e-07
4.1273e-07
-1.23988e-06
-5.99171e-07
4.44542e-07
-1.38718e-06
-1.04584e-06
5.188e-07
-1.46176e-06
-1.79904e-06
6.84017e-07
-1.40958e-06
-3.21699e-06
9.66362e-07
-9.23261e-07
-5.35901e-06
1.18042e-06
-5.12746e-06
8.54497e-07
-2.38548e-07
9.42742e-07
-6.55078e-08
-6.55239e-07
9.32315e-07
-9.00736e-08
-1.11558e-06
6.74216e-07
-1.84527e-08
-1.52418e-06
-1.07265e-08
2.06651e-07
-1.84529e-06
-7.8604e-07
5.0798e-07
-1.9717e-06
-1.71193e-06
7.92493e-07
-1.84628e-06
-3.01787e-06
1.09341e-06
-1.68714e-06
-4.99812e-06
1.62199e-06
-1.2456e-06
-7.67389e-06
1.87333e-06
-7.42832e-06
1.05526e-06
-1.02652e-06
2.51843e-06
-3.91258e-07
-2.08974e-06
2.30712e-06
-3.11581e-07
-2.84371e-06
1.50151e-06
-7.33167e-08
-3.12741e-06
-8.81732e-09
2.81788e-07
-2.73555e-06
-1.67357e-06
4.95674e-07
-1.86331e-06
-3.15023e-06
5.66062e-07
-1.46715e-06
-4.75217e-06
1.33813e-06
-1.4321e-06
-7.04854e-06
2.01538e-06
-1.32812e-06
-9.62814e-06
1.85028e-06
-1.00744e-05
1.31801e-06
-3.51678e-06
6.08089e-06
-2.21274e-07
-4.6786e-06
4.0157e-06
-5.46767e-07
-3.77158e-06
1.28265e-06
-6.88151e-07
-2.49622e-07
-2.43118e-06
-1.0996e-06
5.91145e-06
-3.68003e-06
-4.15461e-06
1.0101e-05
-6.54281e-07
-6.68549e-06
7.08858e-06
-1.8771e-07
-1.55205e-06
2.10021e-06
-2.91979e-06
8.59621e-07
2.17334e-07
-7.69836e-06
-4.69107e-08
-9.90225e-06
4.51309e-08
-1.39543e-06
9.28719e-06
-4.38757e-06
3.80912e-06
1.02863e-05
-1.14751e-05
8.87261e-06
1.0556e-05
-1.43369e-05
1.25174e-05
8.17414e-06
-1.42502e-05
1.41734e-05
5.99765e-06
-1.13336e-05
1.31415e-05
6.6036e-06
-6.22598e-06
7.67263e-06
5.09149e-06
1.8965e-07
3.50732e-06
-3.3772e-08
1.27929e-06
1.4554e-06
-4.04759e-06
-1.59885e-06
-6.77905e-06
-1.66781e-06
-2.08342e-06
1.55701e-05
-1.01506e-05
4.15363e-06
1.48439e-05
-1.07947e-05
8.98921e-06
1.60653e-05
-1.03449e-05
1.24155e-05
1.50716e-05
-1.03238e-05
1.28216e-05
1.3366e-05
-7.77447e-06
1.04122e-05
1.19471e-05
-2.93413e-06
5.31431e-06
7.46459e-06
2.72484e-06
2.44661e-06
1.79414e-06
1.03978e-06
1.95947e-06
-8.65305e-07
-2.69514e-06
-2.38124e-06
-2.43835e-06
-1.39424e-06
1.75557e-05
-6.50879e-06
3.88987e-06
1.62368e-05
-6.67704e-06
7.37016e-06
1.76207e-05
-5.03569e-06
9.05449e-06
1.74617e-05
-4.07444e-06
8.71893e-06
1.6258e-05
-2.55642e-06
6.28937e-06
1.30382e-05
1.33848e-06
2.93514e-06
7.2224e-06
3.59641e-06
1.52499e-06
2.53773e-06
6.66554e-07
1.66537e-06
1.10925e-06
-2.11494e-06
1.19098e-06
-1.90685e-06
-1.09107e-06
1.55115e-05
-1.97278e-06
1.96566e-06
1.49498e-05
-1.76973e-06
3.96469e-06
1.61276e-05
-5.05883e-07
4.63209e-06
1.60188e-05
7.75507e-07
4.06495e-06
1.44778e-05
2.34732e-06
2.95732e-06
1.07215e-05
3.42433e-06
1.55166e-06
6.52566e-06
2.1024e-06
1.02561e-06
3.06725e-06
-3.46488e-09
1.26049e-06
2.35982e-06
-1.48546e-06
3.52831e-06
-1.07685e-06
-1.25364e-06
1.14306e-05
1.64894e-06
1.26849e-07
1.13583e-05
2.21107e-06
7.98815e-07
1.20388e-05
3.4168e-06
1.12415e-06
1.20989e-05
3.59458e-06
1.3051e-06
1.0991e-05
3.30584e-06
1.22637e-06
8.92419e-06
1.87599e-06
9.78977e-07
6.65748e-06
1.15574e-07
7.90594e-07
3.75843e-06
-5.02804e-07
1.07019e-06
3.42794e-06
-1.34771e-06
4.93539e-06
-3.36885e-07
-9.28102e-07
8.23518e-06
2.22556e-06
-6.46463e-07
8.20208e-06
2.87457e-06
-4.89698e-07
8.62018e-06
3.26186e-06
-1.64768e-07
9.13236e-06
2.64162e-06
3.67393e-07
9.13434e-06
1.3245e-06
5.0003e-07
8.96231e-06
-1.70749e-07
6.32529e-07
7.06033e-06
-5.35354e-07
5.26334e-07
4.51606e-06
-6.51442e-07
8.10823e-07
4.57009e-06
-1.42665e-06
5.459e-06
2.8721e-07
-4.16722e-07
6.33577e-06
1.47807e-06
-4.32045e-07
6.27533e-06
1.94206e-06
-4.97866e-07
6.57878e-06
2.10723e-06
-3.1415e-07
7.44098e-06
1.50767e-06
1.37086e-07
8.30662e-06
3.76492e-07
3.32737e-07
9.1e-06
-3.33341e-07
3.89787e-07
7.08887e-06
-8.5578e-08
1.90657e-07
5.2317e-06
-5.16508e-07
6.33931e-07
5.62159e-06
-1.49477e-06
5.75377e-06
3.39156e-07
-2.86322e-07
5.00468e-06
1.06449e-06
-2.94502e-07
4.97776e-06
1.30575e-06
-3.9581e-07
5.17845e-06
1.50163e-06
-2.82185e-07
5.99846e-06
1.3289e-06
9.54459e-08
7.04691e-06
8.82086e-07
5.28592e-07
7.93601e-06
7.30845e-07
4.80192e-07
6.5016e-06
6.35674e-07
1.57261e-07
5.68321e-06
-1.28587e-07
6.15645e-07
6.4489e-06
-1.2857e-06
6.0775e-06
2.9191e-07
-2.5655e-07
3.92741e-06
9.72663e-07
-2.62668e-07
3.92299e-06
1.06089e-06
-3.18051e-07
4.06113e-06
1.1727e-06
-1.55414e-07
4.64239e-06
1.19344e-06
3.12139e-07
5.48283e-06
1.09653e-06
1.0853e-06
6.04416e-06
1.11868e-06
1.13291e-06
5.59474e-06
8.59251e-07
5.71379e-07
6.0316e-06
2.13141e-07
4.87092e-07
7.41673e-06
-8.83534e-07
5.8836e-06
6.8098e-07
-7.70865e-09
3.03585e-06
7.50149e-07
8.65753e-08
3.06795e-06
7.60741e-07
1.77797e-07
3.21292e-06
7.56979e-07
4.79283e-07
3.58489e-06
7.56007e-07
1.1358e-06
4.10984e-06
7.16464e-07
1.99301e-06
4.47048e-06
7.16472e-07
1.81493e-06
5.17695e-06
5.95885e-07
8.9504e-07
6.76094e-06
1.90556e-07
5.18584e-08
8.80684e-06
-5.46943e-07
4.61055e-06
1.3249e-06
3.00969e-07
3.79632e-07
2.35426e-06
5.44271e-07
4.05516e-07
2.41913e-06
8.26372e-07
3.75178e-07
2.55565e-06
1.29706e-06
3.88252e-07
2.72595e-06
2.05573e-06
3.60112e-07
2.99105e-06
2.50561e-06
2.76819e-07
3.74379e-06
1.77251e-06
1.53376e-07
5.75667e-06
7.86815e-07
-2.63638e-07
8.01027e-06
-2.27998e-07
-3.57534e-07
1.01792e-05
1.38938e-06
2.99317e-06
-2.18454e-07
3.44857e-08
2.58041e-07
-4.29588e-07
2.31064e-08
2.64334e-07
-5.99068e-07
-1.29547e-08
2.75037e-07
-7.12315e-07
-6.76472e-08
2.90072e-07
-7.60208e-07
-1.36054e-07
3.08797e-07
-7.36509e-07
-2.16611e-07
3.32018e-07
-6.33354e-07
-3.11148e-07
3.60182e-07
-4.4179e-07
-4.2025e-07
3.94977e-07
-1.87437e-07
-5.02306e-07
4.32177e-07
-4.04715e-07
3.95699e-07
-2.06622e-07
6.7215e-08
2.3737e-07
-4.14689e-07
5.33827e-08
2.37522e-07
-5.85726e-07
-1.27688e-08
2.43759e-07
-7.03674e-07
-1.20931e-07
2.59589e-07
-7.60646e-07
-2.55646e-07
2.81544e-07
-7.49194e-07
-4.18403e-07
3.10061e-07
-6.53104e-07
-6.20429e-07
3.45303e-07
-4.496e-07
-8.69005e-07
3.89976e-07
-1.66367e-07
-1.05956e-06
4.37207e-07
-8.03212e-07
3.96927e-07
-2.57368e-07
1.49091e-07
2.59056e-07
-5.16646e-07
1.29603e-07
2.56021e-07
-7.31984e-07
2.39693e-08
2.65804e-07
-8.87616e-07
-1.51625e-07
2.90938e-07
-9.75915e-07
-3.7248e-07
3.25015e-07
-9.90744e-07
-6.38695e-07
3.66853e-07
-9.0191e-07
-9.9205e-07
4.22024e-07
-6.41291e-07
-1.48515e-06
5.14527e-07
-2.12487e-07
-1.90676e-06
6.29803e-07
-1.34586e-06
5.50151e-07
-3.40168e-07
3.25465e-07
3.17574e-07
-6.73932e-07
2.73424e-07
3.20152e-07
-9.53303e-07
1.09219e-07
3.2848e-07
-1.16594e-06
-1.51785e-07
3.56448e-07
-1.31179e-06
-4.71924e-07
3.94701e-07
-1.39735e-06
-8.5463e-07
4.52656e-07
-1.3763e-06
-1.42015e-06
5.82891e-07
-1.0845e-06
-2.34634e-06
8.47755e-07
-4.21409e-07
-3.24245e-06
1.11981e-06
-2.23835e-06
8.92674e-07
-4.58603e-07
6.48447e-07
4.55035e-07
-8.78923e-07
5.21207e-07
4.71456e-07
-1.22863e-06
2.71273e-07
4.6834e-07
-1.50127e-06
-9.81496e-08
4.93853e-07
-1.70473e-06
-5.53168e-07
5.46121e-07
-1.86606e-06
-1.08631e-06
6.66196e-07
-1.9134e-06
-1.95225e-06
9.48915e-07
-1.60467e-06
-3.45817e-06
1.38435e-06
-7.42152e-07
-4.98471e-06
1.69155e-06
-3.53116e-06
1.27017e-06
-5.04282e-07
1.0484e-06
4.87814e-07
-9.72525e-07
8.34757e-07
5.34757e-07
-1.3602e-06
4.40336e-07
6.05119e-07
-1.68855e-06
-6.10704e-08
7.04e-07
-1.95657e-06
-6.64006e-07
8.23406e-07
-2.15133e-06
-1.41317e-06
1.04042e-06
-2.20871e-06
-2.59896e-06
1.38811e-06
-1.992e-06
-4.53214e-06
1.82362e-06
-1.12321e-06
-6.70556e-06
2.03247e-06
-5.09882e-06
1.29895e-06
-5.18992e-07
1.5885e-06
-9.8431e-09
-1.0521e-06
1.27244e-06
5.36076e-09
-1.58908e-06
7.61597e-07
1.97266e-07
-2.14486e-06
1.3716e-07
5.64196e-07
-2.54596e-06
-7.60479e-07
1.00555e-06
-2.64041e-06
-1.88526e-06
1.35903e-06
-2.51294e-06
-3.29582e-06
1.66279e-06
-2.45947e-06
-5.08659e-06
2.12297e-06
-1.91495e-06
-7.76861e-06
2.39186e-06
-7.55451e-06
1.596e-06
-8.02447e-07
2.70921e-06
-5.75486e-07
-1.8839e-06
2.37615e-06
-3.33845e-07
-2.85919e-06
1.54261e-06
1.20967e-07
-3.4574e-06
3.62686e-07
6.54466e-07
-3.22333e-06
-1.38083e-06
8.81964e-07
-2.4015e-06
-2.79313e-06
6.52103e-07
-1.72848e-06
-3.62402e-06
9.93315e-07
-1.80401e-06
-4.27768e-06
1.28201e-06
-2.20088e-06
-6.96918e-06
1.44772e-06
-9.79968e-06
1.3623e-06
-3.21426e-06
6.09567e-06
-5.55546e-07
-4.2649e-06
4.45768e-06
-1.57766e-06
-3.49644e-06
1.6283e-06
-1.5423e-06
-9.26746e-07
-1.60584e-06
-1.70077e-06
3.11047e-06
-4.48499e-06
-5.08768e-06
3.62789e-06
-8.17052e-07
-9.179e-06
2.08725e-06
2.09734e-06
-5.73277e-06
6.66118e-07
7.30662e-07
-2.72759e-06
-1.1474e-06
-3.40132e-06
-1.80124e-06
-7.07543e-06
-3.82653e-06
-8.9258e-07
6.95679e-06
-6.35341e-06
2.46235e-06
2.13295e-06
-1.25053e-05
6.23984e-06
-1.62672e-06
-1.48593e-05
7.57326e-06
-2.36586e-06
-1.48236e-05
5.5012e-06
-3.74829e-07
-1.33717e-05
3.408e-06
5.22563e-06
-1.01755e-05
2.14766e-06
6.46479e-06
-2.91747e-06
1.74781e-06
3.26226e-06
-8.52454e-07
-1.0484e-07
3.15125e-07
-3.46266e-06
-3.39843e-06
-5.44966e-06
-5.02824e-07
5.47893e-06
-1.2401e-05
3.67002e-06
1.48346e-06
-1.43181e-05
6.50089e-06
1.70916e-07
-1.49734e-05
6.35619e-06
2.00893e-06
-1.45539e-05
2.61952e-06
5.01017e-06
-9.42281e-06
4.49402e-07
8.7191e-06
-4.25749e-06
1.56349e-07
7.82098e-06
1.66171e-06
1.39525e-07
4.06979e-06
2.49076e-07
-1.1126e-07
1.51571e-06
-3.64495e-06
-5.6875e-07
-5.3793e-06
1.81117e-06
5.40562e-06
-9.9275e-06
4.31241e-06
2.15106e-06
-9.84588e-06
4.18074e-06
2.79868e-06
-7.53179e-06
2.45259e-06
5.29289e-06
-5.63025e-06
2.99204e-07
7.35624e-06
-2.74911e-06
-4.15736e-07
9.98886e-06
7.83674e-07
-7.3522e-08
7.96181e-06
3.11337e-06
1.57141e-07
4.16663e-06
3.39045e-07
1.3542e-07
2.48272e-06
-3.06024e-06
1.28326e-06
-3.62343e-06
2.32008e-06
4.42552e-06
-3.2658e-06
2.67291e-06
2.51495e-06
-2.48645e-06
1.69784e-06
4.06839e-06
-8.00515e-07
6.582e-07
6.84724e-06
2.60797e-07
-1.77208e-07
9.00114e-06
1.53783e-06
8.14058e-08
9.97466e-06
3.17991e-06
7.59159e-07
7.13677e-06
2.24968e-06
8.08795e-07
4.3466e-06
-2.33065e-07
2.73422e-07
4.02831e-06
-2.49567e-06
2.49049e-06
-2.01067e-06
9.52797e-07
3.84573e-06
1.3174e-06
1.62975e-07
3.76658e-06
1.74925e-06
-6.81806e-07
5.51602e-06
2.81395e-06
-6.29941e-07
7.08957e-06
3.30039e-06
-2.34747e-07
8.52105e-06
3.39074e-06
4.72018e-07
8.52299e-06
2.62088e-06
8.37971e-07
6.42725e-06
4.59156e-07
6.75011e-07
4.74245e-06
-7.35691e-07
2.91778e-07
5.3948e-06
-2.33098e-06
3.29781e-06
-8.52426e-07
-2.8806e-07
3.65929e-06
2.12522e-06
-1.01959e-06
4.47982e-06
2.89287e-06
-1.60923e-06
5.95676e-06
3.41076e-06
-1.21333e-06
6.529e-06
2.8063e-06
-4.48357e-07
7.18431e-06
1.89626e-06
1.16649e-08
7.43196e-06
4.60267e-07
1.19296e-08
6.5625e-06
-6.70855e-07
-1.83918e-07
5.23862e-06
-9.51766e-07
2.1133e-07
5.6652e-06
-2.0923e-06
4.07781e-06
-2.81464e-07
-1.05108e-06
3.45352e-06
1.41242e-06
-1.04027e-06
4.29625e-06
2.11483e-06
-1.17565e-06
5.50983e-06
2.68953e-06
-9.28023e-07
5.80465e-06
1.98441e-06
-5.6989e-07
6.08694e-06
1.11574e-06
-5.193e-07
6.84504e-06
2.02997e-07
-6.87674e-07
6.93867e-06
-2.93374e-07
-8.06485e-07
5.82621e-06
-9.85305e-07
-5.32397e-08
5.42043e-06
-2.00325e-06
4.7086e-06
-3.44885e-07
-1.22325e-06
3.31662e-06
9.3457e-07
-9.43081e-07
3.87067e-06
1.45115e-06
-6.88353e-07
4.63261e-06
2.12413e-06
-3.59557e-07
4.93891e-06
1.86584e-06
-1.40185e-07
5.25499e-06
1.49466e-06
-1.18991e-07
6.17782e-06
1.37688e-06
-9.67249e-08
6.67259e-06
8.795e-07
-2.99162e-07
6.43393e-06
-5.33875e-07
1.63336e-07
5.56159e-06
-1.88935e-06
5.62212e-06
-4.58277e-07
-7.40008e-07
3.11347e-06
8.82084e-07
-5.2076e-07
3.44017e-06
1.27213e-06
-2.25898e-07
3.81592e-06
1.69454e-06
2.08758e-07
4.07191e-06
1.62579e-06
6.75672e-07
4.45143e-06
1.43318e-06
1.03825e-06
5.14483e-06
1.7891e-06
1.1467e-06
5.8724e-06
1.551e-06
9.60716e-07
6.82997e-06
3.08048e-09
7.32851e-07
6.48878e-06
-1.58287e-06
7.03512e-06
8.30592e-10
-3.37549e-08
2.7192e-06
7.78646e-07
2.08232e-07
2.91323e-06
1.0457e-06
4.92065e-07
3.11887e-06
1.1702e-06
9.42247e-07
3.30934e-06
1.06839e-06
1.54983e-06
3.75837e-06
8.0194e-07
2.09191e-06
4.34082e-06
9.78409e-07
2.07978e-06
5.3817e-06
1.0987e-06
1.89546e-06
7.28118e-06
-7.6324e-08
1.14076e-06
7.99382e-06
-1.29728e-06
8.27649e-06
1.2243e-06
4.12113e-07
4.74217e-07
2.23517e-06
7.06497e-07
6.81891e-07
2.34247e-06
1.05926e-06
7.02341e-07
2.43894e-06
1.541e-06
5.91623e-07
2.62423e-06
2.14631e-06
2.95291e-07
3.21788e-06
2.56182e-06
9.96274e-08
4.1025e-06
2.37065e-06
3.34257e-08
5.69281e-06
2.2826e-06
-8.75525e-07
7.98112e-06
1.29759e-06
-9.42221e-07
9.56352e-06
2.02146e-06
8.942e-06
-2.09175e-07
1.62382e-09
4.75418e-07
-4.1261e-07
2.72286e-09
4.65046e-07
-5.72913e-07
-1.8835e-08
4.54175e-07
-6.76047e-07
-6.1082e-08
4.54289e-07
-7.15569e-07
-1.17357e-07
4.65676e-07
-6.87561e-07
-1.85211e-07
4.89221e-07
-5.85855e-07
-2.65134e-07
5.23611e-07
-4.04487e-07
-3.56077e-07
5.69685e-07
-1.69427e-07
-4.20186e-07
6.17303e-07
-3.27761e-07
5.54034e-07
-1.94809e-07
-8.56308e-09
4.60037e-07
-3.91411e-07
-4.94721e-10
4.37341e-07
-5.49849e-07
-3.57385e-08
4.19101e-07
-6.57478e-07
-1.12717e-07
4.18853e-07
-7.0517e-07
-2.21492e-07
4.3337e-07
-6.86967e-07
-3.57669e-07
4.64316e-07
-5.90502e-07
-5.26496e-07
5.10199e-07
-4.00094e-07
-7.29079e-07
5.7257e-07
-1.46559e-07
-8.70595e-07
6.3408e-07
-6.34573e-07
5.57181e-07
-2.43664e-07
3.58283e-08
4.83716e-07
-4.83491e-07
2.68007e-08
4.68553e-07
-6.7778e-07
-3.13974e-08
4.55753e-07
-8.15537e-07
-1.53987e-07
4.69965e-07
-8.87197e-07
-3.29027e-07
5.0421e-07
-8.85328e-07
-5.52252e-07
5.59567e-07
-7.81617e-07
-8.47604e-07
6.39421e-07
-5.27134e-07
-1.22787e-06
7.58839e-07
-1.59192e-07
-1.49015e-06
8.81414e-07
-9.89218e-07
7.45604e-07
-2.94554e-07
1.85927e-07
4.98386e-07
-6.03183e-07
1.2436e-07
5.31222e-07
-8.577e-07
1.8036e-08
5.33563e-07
-1.0487e-06
-1.68463e-07
5.61921e-07
-1.17336e-06
-4.23712e-07
6.14054e-07
-1.22977e-06
-7.45802e-07
7.02608e-07
-1.16239e-06
-1.20505e-06
8.72962e-07
-8.4397e-07
-1.85937e-06
1.16082e-06
-2.72459e-07
-2.34249e-06
1.40064e-06
-1.43886e-06
1.06986e-06
-3.84718e-07
5.58028e-07
4.97998e-07
-7.97958e-07
4.02921e-07
6.06136e-07
-1.13726e-06
1.95924e-07
6.29758e-07
-1.40113e-06
-8.76536e-08
6.76908e-07
-1.59337e-06
-4.59029e-07
7.73678e-07
-1.71816e-06
-9.12176e-07
9.57363e-07
-1.68825e-06
-1.58758e-06
1.30154e-06
-1.31902e-06
-2.60111e-06
1.75687e-06
-5.47703e-07
-3.41621e-06
1.99396e-06
-2.10873e-06
1.39233e-06
-4.74247e-07
1.09924e-06
4.38894e-07
-9.9121e-07
8.27994e-07
6.26648e-07
-1.42263e-06
4.63983e-07
7.6848e-07
-1.77194e-06
5.9474e-08
9.06181e-07
-1.99888e-06
-4.9866e-07
1.08997e-06
-2.08869e-06
-1.15694e-06
1.375e-06
-2.01721e-06
-2.03206e-06
1.76112e-06
-1.67484e-06
-3.27213e-06
2.15226e-06
-8.65724e-07
-4.44937e-06
2.25651e-06
-3.08674e-06
1.41124e-06
-5.23784e-07
1.76296e-06
-9.03253e-08
-1.10384e-06
1.29358e-06
1.19824e-07
-1.65331e-06
7.69764e-07
4.40957e-07
-2.13972e-06
2.50569e-07
8.59511e-07
-2.41126e-06
-5.34249e-07
1.31268e-06
-2.38851e-06
-1.53898e-06
1.71832e-06
-2.17076e-06
-2.60515e-06
2.01813e-06
-2.01728e-06
-3.59923e-06
2.29659e-06
-1.49699e-06
-5.11221e-06
2.53441e-06
-4.91561e-06
1.92788e-06
-7.3705e-07
2.73569e-06
-7.43745e-07
-1.56259e-06
2.22867e-06
-4.43394e-07
-2.30781e-06
1.5651e-06
7.08449e-08
-2.85693e-06
6.56502e-07
7.97651e-07
-2.77729e-06
-1.00628e-06
1.27436e-06
-2.04421e-06
-2.76835e-06
1.14839e-06
-1.2897e-06
-3.40796e-06
1.04162e-06
-1.77878e-06
-2.83566e-06
1.00752e-06
-2.35376e-06
-4.57979e-06
1.49028e-06
-7.03659e-06
1.12952e-06
-1.67071e-06
5.46822e-06
-1.59685e-06
-2.22818e-06
3.5279e-06
-2.31942e-06
-1.77113e-06
1.43687e-06
-1.87111e-06
-2.84646e-07
-7.85343e-07
-1.7454e-06
3.24145e-06
-5.44796e-06
-4.17209e-06
4.55992e-06
-4.9475e-06
-8.31832e-06
3.90917e-06
-2.44688e-07
-8.2453e-06
1.34455e-06
2.67356e-06
-5.67218e-06
-1.86418e-06
8.61703e-07
-4.03402e-06
-1.45698e-06
-1.12703e-05
-8.07547e-07
4.8071e-06
-8.00932e-06
1.65027e-06
-1.78847e-07
-1.12564e-05
5.72933e-06
-5.6344e-06
-1.18671e-05
8.34063e-06
-5.4189e-06
-1.28013e-05
6.9479e-06
-3.32049e-06
-1.41065e-05
3.35121e-06
6.82516e-07
-1.22088e-05
1.21384e-06
5.37526e-06
-6.40005e-06
-2.14471e-07
5.98828e-06
-2.73888e-06
-2.71926e-06
4.15437e-06
-4.25055e-06
2.26818e-06
-1.18941e-05
9.39636e-07
1.39319e-07
-1.25383e-05
5.07437e-06
-1.54066e-06
-1.7091e-05
5.43616e-06
-2.54678e-06
-1.84228e-05
3.68162e-06
-1.07925e-06
-1.7139e-05
3.70809e-07
8.36842e-07
-1.02693e-05
-3.32959e-06
5.7949e-06
-5.66948e-06
-3.42189e-06
6.79558e-06
3.33686e-07
-2.78027e-06
5.34166e-06
2.5409e-07
-3.7866e-06
5.12146e-06
-3.6057e-06
4.11547e-06
-1.10132e-05
1.73813e-06
-7.51279e-07
-1.08929e-05
3.31805e-06
-2.64496e-06
-1.03215e-05
2.13871e-06
-2.07913e-06
-6.82008e-06
-4.08709e-07
1.31274e-06
-5.47481e-06
-4.01374e-06
2.99404e-06
-1.3013e-06
-5.68812e-06
6.78754e-06
1.46543e-06
-4.77878e-06
5.57406e-06
3.42555e-06
-3.68482e-06
3.27345e-06
1.3133e-06
-3.6664e-06
4.81507e-06
-2.77227e-06
4.30036e-06
-7.47472e-06
9.23999e-07
-1.53358e-06
-2.32311e-06
-1.96229e-07
-3.11354e-06
-8.97646e-07
-1.02483e-06
-2.45041e-06
3.99362e-07
-1.04137e-06
1.3771e-06
2.12951e-07
-3.34469e-06
5.09674e-06
1.73847e-06
-3.89412e-06
7.20502e-06
3.31185e-06
-2.45108e-06
4.19745e-06
2.18325e-06
-2.00211e-06
2.31545e-06
2.75944e-07
-2.4232e-06
5.05887e-06
-2.31837e-06
3.87848e-06
-4.01199e-06
-4.02982e-07
-1.63882e-06
1.93747e-06
-1.8694e-06
-1.96352e-06
2.06566e-06
-3.04724e-06
-8.38371e-07
2.37974e-06
-2.70228e-06
1.38397e-06
2.94855e-06
-2.45827e-06
4.91042e-06
3.33305e-06
-1.73643e-06
5.91226e-06
3.1918e-06
-1.26639e-06
2.96692e-06
1.21964e-06
-1.66822e-06
2.44913e-06
-4.67543e-07
-1.8419e-06
5.5751e-06
-2.67352e-06
3.4487e-06
-2.26456e-06
-1.10776e-06
-7.00062e-07
1.42891e-06
-2.05295e-06
-3.54545e-07
2.22908e-06
-2.81175e-06
6.85201e-07
2.64599e-06
-2.61707e-06
1.69639e-06
2.2992e-06
-1.76686e-06
3.72182e-06
2.23466e-06
-1.25605e-06
4.49421e-06
1.3675e-06
-2.10304e-06
2.82794e-06
3.15118e-07
-2.44402e-06
2.59004e-06
-7.51703e-07
-1.54322e-06
5.32497e-06
-2.74298e-06
3.66272e-06
-2.0387e-06
-1.06127e-06
3.26313e-07
3.71783e-07
-1.36514e-06
9.1329e-07
1.15086e-06
-1.67231e-06
1.60144e-06
2.08046e-06
-1.54455e-06
1.89263e-06
1.6604e-06
-9.90709e-07
2.87938e-06
1.40434e-06
-1.09428e-06
3.97038e-06
8.30406e-07
-2.45984e-06
3.66088e-06
2.39242e-07
-2.74744e-06
2.63223e-06
-7.39891e-07
-1.35263e-06
4.32374e-06
-2.39684e-06
4.20414e-06
-2.23893e-06
-6.29665e-07
1.12872e-06
-1.45429e-07
-6.78818e-07
1.79067e-06
6.22924e-07
-6.73641e-07
2.20425e-06
1.51615e-06
-5.61477e-07
2.28243e-06
1.36389e-06
-3.91864e-07
2.85848e-06
1.34595e-06
-5.36837e-07
4.13064e-06
1.36159e-06
-1.52848e-06
4.88695e-06
6.45064e-07
-2.04205e-06
3.40377e-06
-7.91849e-07
-1.22501e-06
3.84311e-06
-2.22576e-06
4.63168e-06
-2.11083e-06
-1.13085e-07
1.77142e-06
-1.47957e-07
-4.41391e-08
2.25723e-06
7.36629e-07
3.86687e-08
2.52512e-06
1.29087e-06
1.43598e-07
2.59934e-06
1.20395e-06
9.53811e-08
3.18523e-06
1.15464e-06
2.95301e-08
4.5657e-06
1.4199e-06
-4.31671e-07
6.02799e-06
8.71155e-07
-9.62945e-07
4.81932e-06
-8.81194e-07
-6.72111e-07
4.42059e-06
-2.45119e-06
5.53046e-06
-1.57007e-06
3.41815e-07
2.0422e-06
1.381e-07
4.57868e-07
2.29729e-06
8.89583e-07
5.38743e-07
2.44196e-06
1.17249e-06
6.33012e-07
2.56427e-06
1.00919e-06
3.98743e-07
3.40433e-06
8.17113e-07
1.98768e-07
4.91735e-06
8.26727e-07
2.58046e-08
6.87489e-06
4.24766e-07
-2.94709e-07
6.2305e-06
-1.16699e-06
-1.1794e-07
5.63822e-06
-2.69168e-06
7.11768e-06
-4.80858e-07
5.63992e-07
2.89846e-07
1.87399e-06
7.20549e-07
8.48126e-07
1.97449e-06
8.25944e-07
1.00039e-06
2.03852e-06
9.02095e-07
7.71917e-07
2.30782e-06
5.53767e-07
4.99987e-07
3.54796e-06
1.57969e-07
1.77106e-07
5.23567e-06
4.6422e-08
-3.78196e-07
7.39806e-06
-1.2763e-07
-1.6696e-06
7.19863e-06
-7.90605e-08
-2.41143e-06
7.05887e-06
8.9526e-07
8.16482e-06
-2.10778e-07
6.14192e-08
6.36962e-07
-4.06304e-07
5.10555e-08
6.09517e-07
-5.53781e-07
2.2638e-08
5.79013e-07
-6.45469e-07
-1.89038e-08
5.64881e-07
-6.75395e-07
-7.06184e-08
5.66221e-07
-6.41383e-07
-1.2935e-07
5.84558e-07
-5.40179e-07
-1.94941e-07
6.17348e-07
-3.69248e-07
-2.6618e-07
6.64934e-07
-1.55e-07
-3.11869e-07
7.14924e-07
-2.35169e-07
6.34203e-07
-2.04223e-07
9.95785e-08
6.56936e-07
-3.92066e-07
6.97215e-08
6.06519e-07
-5.28486e-07
2.80308e-08
5.50127e-07
-6.1777e-07
-3.85565e-08
5.27791e-07
-6.51444e-07
-1.32508e-07
5.28934e-07
-6.24016e-07
-2.465e-07
5.54039e-07
-5.27197e-07
-3.80156e-07
5.98596e-07
-3.53569e-07
-5.30238e-07
6.62999e-07
-1.33336e-07
-6.24161e-07
7.26139e-07
-4.40978e-07
6.29653e-07
-2.27798e-07
2.21413e-07
6.31139e-07
-4.62914e-07
1.23782e-07
6.49608e-07
-6.35136e-07
4.40535e-08
6.11952e-07
-7.4838e-07
-5.57894e-08
6.00442e-07
-7.9727e-07
-1.9684e-07
6.17433e-07
-7.74635e-07
-3.77193e-07
6.67625e-07
-6.59475e-07
-6.0177e-07
7.45876e-07
-4.30201e-07
-8.57972e-07
8.57299e-07
-1.3715e-07
-1.00138e-06
9.65577e-07
-6.50458e-07
8.17934e-07
-2.21832e-07
4.25622e-07
5.86708e-07
-5.30038e-07
2.36869e-07
7.26341e-07
-7.65446e-07
8.95019e-08
7.23523e-07
-9.27141e-07
-5.4823e-08
7.2265e-07
-1.01313e-06
-2.54416e-07
7.57622e-07
-1.01691e-06
-5.08844e-07
8.38034e-07
-8.97321e-07
-8.34973e-07
9.86577e-07
-5.96367e-07
-1.21732e-06
1.21921e-06
-1.751e-07
-1.42451e-06
1.40251e-06
-8.47989e-07
1.09229e-06
-2.44083e-07
7.52348e-07
5.02123e-07
-6.42021e-07
4.74392e-07
7.66551e-07
-9.71515e-07
2.26027e-07
8.22727e-07
-1.20354e-06
1.26854e-08
8.41426e-07
-1.34714e-06
-2.55229e-07
9.18086e-07
-1.40536e-06
-5.85111e-07
1.09185e-06
-1.30434e-06
-1.03708e-06
1.40262e-06
-9.5128e-07
-1.5913e-06
1.7778e-06
-3.73115e-07
-1.93932e-06
1.9306e-06
-1.16795e-06
1.33917e-06
-2.96165e-07
1.25791e-06
2.89611e-07
-7.9144e-07
9.26155e-07
6.70159e-07
-1.25475e-06
5.76851e-07
8.80964e-07
-1.59483e-06
2.37975e-07
1.02097e-06
-1.80433e-06
-1.65479e-07
1.20972e-06
-1.84007e-06
-6.99598e-07
1.52523e-06
-1.68667e-06
-1.33704e-06
1.90767e-06
-1.31261e-06
-2.0231e-06
2.20999e-06
-6.54942e-07
-2.55682e-06
2.21634e-06
-1.79e-06
1.37834e-06
-3.8441e-07
1.74182e-06
-1.69704e-07
-9.5514e-07
1.36278e-06
2.53928e-07
-1.5356e-06
9.81305e-07
6.16965e-07
-1.97985e-06
5.53996e-07
9.87735e-07
-2.15245e-06
-1.1591e-07
1.43571e-06
-2.12989e-06
-8.86371e-07
1.88253e-06
-1.88588e-06
-1.83313e-06
2.27022e-06
-1.53791e-06
-2.60949e-06
2.53502e-06
-1.01241e-06
-3.25692e-06
2.70901e-06
-2.98953e-06
2.115e-06
-5.1437e-07
2.19594e-06
-7.39205e-07
-9.94208e-07
1.71429e-06
-3.15066e-07
-1.63026e-06
1.51541e-06
1.72794e-07
-2.20968e-06
1.11434e-06
8.16731e-07
-2.34245e-06
-1.8836e-07
1.47958e-06
-1.80569e-06
-2.04437e-06
1.76964e-06
-1.02442e-06
-3.36516e-06
1.79238e-06
-9.3346e-07
-3.55808e-06
1.86514e-06
-1.14335e-06
-3.70382e-06
2.14707e-06
-4.59559e-06
1.59223e-06
-1.00954e-06
3.78454e-06
-2.20784e-06
-9.26677e-07
1.64679e-06
-2.33477e-06
-5.07819e-07
8.09984e-07
-1.58455e-06
5.76074e-07
-1.74263e-07
-1.5407e-06
3.27561e-06
-3.93486e-06
-3.12513e-06
6.04981e-06
-7.36847e-06
-5.76842e-06
7.90572e-06
-5.32977e-06
-8.1366e-06
7.17264e-06
-1.16357e-06
-7.33361e-06
3.61973e-06
1.76471e-06
-5.94965e-06
2.75662e-07
-1.25219e-05
-1.27048e-06
1.06484e-06
-8.23108e-06
1.90731e-06
-4.5002e-06
-8.2872e-06
6.32594e-06
-6.74053e-06
-8.73523e-06
9.1991e-06
-5.00225e-06
-1.08465e-05
9.54035e-06
-4.63763e-06
-1.37449e-05
7.40715e-06
-3.37138e-06
-1.40727e-05
5.99972e-06
4.20029e-07
-1.07424e-05
4.79124e-06
4.55678e-06
-7.25074e-06
1.91994e-06
6.76016e-06
-6.37471e-06
5.63586e-06
-1.53344e-05
1.38942e-06
-3.55631e-06
-1.31971e-05
4.85251e-06
-4.03275e-06
-2.10215e-05
4.60207e-06
-3.91954e-06
-2.09934e-05
2.10245e-06
-1.21639e-06
-1.84253e-05
6.77218e-07
-6.45596e-07
-1.28361e-05
-6.07152e-07
2.41e-06
-1.01665e-05
7.04869e-08
5.38381e-06
-5.30773e-06
5.34687e-07
7.52048e-06
-3.17382e-06
3.89544e-08
9.44937e-06
-5.79919e-06
9.99396e-06
-1.53323e-05
5.56763e-07
-3.7516e-06
-1.19938e-05
1.55225e-06
-4.02342e-06
-1.13263e-05
-1.32075e-07
-3.1771e-06
-5.8782e-06
-2.96334e-06
8.69172e-07
-4.72911e-06
-5.88011e-06
2.0444e-06
-1.07453e-06
-6.82628e-06
3.78356e-06
1.03803e-06
-5.16659e-06
3.7717e-06
3.37797e-06
-3.67453e-06
4.62445e-06
2.71727e-06
-3.84948e-06
9.2095e-06
-2.35746e-06
1.10074e-05
-1.23377e-05
1.63957e-07
-3.83286e-06
-1.70231e-06
-7.42721e-07
-3.09578e-06
-9.18618e-07
-1.83786e-06
-2.96702e-06
1.28441e-06
-2.58596e-06
1.11158e-06
7.18659e-07
-5.25742e-06
4.37409e-06
2.08023e-06
-5.79462e-06
4.80257e-06
2.83005e-06
-4.45362e-06
2.13235e-06
2.4816e-06
-3.95643e-06
2.149e-06
2.25421e-06
-4.40074e-06
8.17993e-06
-8.44492e-07
9.95798e-06
-7.3633e-06
-1.19045e-06
-2.69474e-06
1.52709e-06
-2.46182e-06
-1.9051e-06
2.14634e-06
-3.65864e-06
-2.25507e-06
2.86462e-06
-3.83953e-06
1.09417e-06
3.14683e-06
-3.72594e-06
4.11216e-06
3.48139e-06
-2.70179e-06
3.70147e-06
3.26876e-06
-2.09262e-06
9.12076e-07
1.83074e-06
-2.65906e-06
1.82001e-06
4.279e-07
-2.95464e-06
7.4913e-06
-1.68932e-06
8.67067e-06
-3.9319e-06
-1.2407e-06
-1.71792e-06
1.0178e-06
-2.29628e-06
-5.31033e-07
1.91058e-06
-3.24759e-06
-1.20515e-06
2.54738e-06
-3.21534e-06
5.21876e-07
2.83925e-06
-2.30051e-06
2.59329e-06
2.83871e-06
-1.68609e-06
2.46229e-06
1.99225e-06
-2.1366e-06
8.50916e-07
8.26782e-07
-2.44839e-06
1.93385e-06
-5.53753e-07
-1.91465e-06
7.01327e-06
-2.7987e-06
7.81318e-06
-3.09586e-06
-9.11567e-07
-7.51962e-07
-3.7055e-07
-1.21234e-06
6.90781e-07
2.29819e-07
-1.6385e-06
8.89517e-08
1.21251e-06
-1.8566e-06
8.51753e-07
1.54862e-06
-1.3592e-06
1.98406e-06
1.51618e-06
-1.55152e-06
2.47247e-06
1.01255e-06
-2.4819e-06
1.62955e-06
3.90994e-07
-2.66755e-06
1.91734e-06
-5.37747e-07
-1.62684e-06
6.22754e-06
-2.65182e-06
7.17991e-06
-3.23249e-06
-6.09752e-07
2.3e-07
-1.28858e-06
-3.80228e-07
1.55858e-06
-4.74404e-07
-4.66695e-07
1.38328e-06
3.08282e-07
-7.77489e-07
1.80375e-06
7.22677e-07
-9.23322e-07
2.54656e-06
9.29286e-07
-1.43746e-06
3.4256e-06
9.22593e-07
-2.16425e-06
2.83441e-06
1.66997e-07
-2.58454e-06
2.36215e-06
-8.16366e-07
-1.80634e-06
5.346e-06
-2.12243e-06
6.04187e-06
-2.77914e-06
-1.92499e-07
9.18758e-07
-1.2606e-06
2.49393e-07
1.94255e-06
-8.92417e-08
9.64502e-08
2.12643e-06
7.00658e-07
-1.6346e-07
2.46895e-06
7.98666e-07
-6.84533e-07
3.24133e-06
9.80943e-07
-1.35425e-06
4.56757e-06
9.47644e-07
-1.75306e-06
4.08872e-06
1.56544e-08
-2.15196e-06
3.19398e-06
-1.31413e-06
-1.79868e-06
4.67563e-06
-2.13411e-06
4.5822e-06
-1.90907e-06
1.20193e-07
1.01066e-06
-3.49224e-07
5.2187e-07
1.82927e-06
6.01186e-07
3.58082e-07
2.18057e-06
1.28214e-06
1.87361e-07
2.57288e-06
1.07599e-06
-4.20555e-07
3.62856e-06
1.0378e-06
-1.26943e-06
5.43162e-06
8.11549e-07
-1.51097e-06
4.99375e-06
-2.38712e-07
-1.62172e-06
3.88797e-06
-1.75023e-06
-1.50273e-06
4.37601e-06
-2.51105e-06
3.93951e-06
-1.34089e-06
3.52925e-07
2.46823e-07
7.45858e-07
6.64719e-07
9.67705e-07
1.39791e-06
5.52883e-07
1.49224e-06
1.80056e-06
4.50982e-07
1.12183e-06
2.32487e-06
-1.07528e-07
8.73464e-07
3.8136e-06
-1.0503e-06
6.06301e-07
5.94519e-06
-1.44893e-06
-5.35084e-07
5.54927e-06
-1.5216e-06
-2.02045e-06
4.31149e-06
-1.43916e-06
-2.51407e-06
4.3962e-06
-6.17743e-07
4.01336e-06
-2.24356e-07
1.73475e-07
7.06801e-07
-4.23648e-07
1.25477e-07
6.83331e-07
-5.59658e-07
7.53797e-08
6.39644e-07
-6.36406e-07
2.55241e-08
6.16104e-07
-6.5237e-07
-2.53666e-08
6.07552e-07
-6.09035e-07
-7.63827e-08
6.17606e-07
-5.04918e-07
-1.30384e-07
6.43615e-07
-3.40197e-07
-1.86889e-07
6.87102e-07
-1.41536e-07
-2.17883e-07
7.34146e-07
-1.49731e-07
6.42398e-07
-2.15514e-07
2.98453e-07
7.92237e-07
-4.19456e-07
1.91316e-07
7.44621e-07
-5.39018e-07
1.03052e-07
6.42018e-07