/*--------------------------------*- C++ -*----------------------------------*\
| =========                 |                                                 |
| \\      /  F ield         | OpenFOAM: The Open Source CFD Toolbox           |
|  \\    /   O peration     | Version:  2312                                  |
|   \\  /    A nd           | Website:  www.openfoam.com                      |
|    \\/     M anipulation  |                                                 |
\*---------------------------------------------------------------------------*/
FoamFile
{
    version     2.0;
    format      ascii;
    arch        "LSB;label=32;scalar=64";
    class       volScalarField;
    location    "1.3";
    object      alpha.water;
}
// * * * * * * * * * * * * * * * * * * * * * * * * * * * * * * * * * * * * * //

dimensions      [0 0 0 0 0 0 0];

internalField   nonuniform List<scalar> 
8000
(
1
1
1
1
1
1
1
1
1
1
1
1
1
1
1
1
1
0.999923
0.996677
0.999883
1
1
1
1
1
1
1
0.997027
0.990682
0.991331
1
1
1
1
1
1
0.999986
0.995838
0.993448
0.991346
1
1
1
1
1
1
1
0.99992
1
0.997533
1
1
1
1
1
1
1
1
0.999999
0.999999
0.999994
0.999994
0.999995
0.999997
1
0.999999
0.999999
0.999999
0.999999
0.999998
0.978856
0.97602
0.976158
0.978651
0.982756
0.987387
0.992632
0.999969
0.999974
0.999966
0.553854
0.550103
0.544606
0.547071
0.574963
0.631751
0.70917
0.797475
0.879879
0.910425
0.00590543
0.00885851
0.0110305
0.0137375
0.0248633
0.0515586
0.102728
0.178767
0.260707
0.329608
7.42076e-06
7.56681e-06
7.79049e-06
8.47754e-06
1.00205e-05
1.17628e-05
1.32262e-05
1.9187e-05
2.32958e-05
2.33125e-05
7.34932e-06
7.47609e-06
7.90891e-06
1.71899e-05
2.24376e-05
1.42406e-05
0.000366358
0.000516604
0.000166427
2.32983e-05
1.05514e-05
7.90891e-06
9.19891e-06
1.20271e-05
7.27958e-05
0.000317194
0.000506698
0.000488181
8.42368e-05
2.33043e-05
1.15318e-05
9.61675e-06
2.6809e-05
3.17389e-05
0.000296945
0.000316369
0.000147213
3.06098e-05
2.34517e-05
2.34052e-05
1.35747e-05
0.000106798
0.000194889
0.000102586
1.8061e-05
3.64972e-05
2.47014e-05
3.54663e-05
6.77863e-05
8.32342e-05
0.000167914
0.000200329
0.000200463
0.000110544
5.20654e-05
5.3055e-05
7.43319e-05
0.000137005
0.000139192
0.000139361
0.000199845
0.000200518
0.000199845
0.000198685
0.000197117
0.000194299
0.000164146
4.32233e-05
7.11854e-05
0.00010601
0.000116096
0.000166867
0.000176055
0.000196852
0.000193663
0.000158973
8.80259e-05
8.76738e-05
8.45754e-05
7.78778e-05
3.01559e-06
3.0868e-06
3.24806e-06
2.57771e-05
3.44719e-05
1.47821e-05
5.97275e-05
0.000164892
0.000208793
0.000128159
3.0868e-06
3.24806e-06
3.43879e-06
3.69346e-06
4.40899e-06
5.3948e-06
4.92623e-05
7.38727e-05
0.000136732
0.000201783
1
1
1
1
1
0.999999
0.999991
1
1
1
1
1
1
1
1
1
0.999656
0.997403
0.995662
1
1
1
1
1
1
1
0.999683
0.992971
0.990675
0.998302
1
1
1
1
1
1
0.999994
0.999261
0.997151
0.995914
1
1
1
1
1
1
1
1
1
0.999797
1
1
1
1
1
1
1
1
1
1
1
1
1
1
1
0.999999
1
1
1
0.999999
0.994524
0.989892
0.991922
0.9958
0.999905
1
1
0.999989
0.99998
0.999965
0.405719
0.389922
0.389249
0.407815
0.457686
0.540188
0.639903
0.750306
0.834322
0.861567
0.0024136
0.00378939
0.00492954
0.00678501
0.0131325
0.028128
0.0607369
0.117273
0.183959
0.241978
7.56681e-06
7.79049e-06
8.47754e-06
1.00205e-05
1.17628e-05
1.32262e-05
1.9187e-05
2.67408e-05
2.33706e-05
2.31567e-05
7.55185e-06
1.74988e-05
4.63615e-05
8.29691e-05
0.000142567
0.000235902
0.000485861
0.000514659
0.000359319
2.46191e-05
1.04999e-05
4.25924e-05
0.000114222
0.000207021
0.000252344
0.000506698
0.000513075
0.000516345
0.000213643
2.33097e-05
1.55896e-05
5.63917e-05
0.000143461
7.39336e-05
3.12592e-05
0.000234044
0.000337493
9.98864e-05
2.45583e-05
2.29412e-05
3.50172e-05
0.000112012
8.27575e-05
1.04091e-05
1.70208e-05
1.8061e-05
2.07721e-05
2.26484e-05
2.29024e-05
2.28702e-05
0.000186664
0.000200351
6.05731e-05
7.41793e-06
1.74431e-05
2.91215e-05
2.26489e-05
2.29093e-05
2.28631e-05
2.36591e-05
0.000198347
0.000199355
8.04318e-05
2.65272e-05
1.99954e-05
2.2828e-05
2.51424e-05
2.82413e-05
2.45476e-05
2.34232e-05
9.45456e-05
6.35346e-05
6.56407e-05
6.79211e-05
1.50836e-05
3.06884e-05
0.000203873
0.000232025
0.000227167
0.00014829
3.0868e-06
3.24806e-06
4.33851e-06
5.69446e-06
7.16314e-06
4.63282e-05
0.000129699
0.000210276
0.000263731
0.000263674
3.83805e-06
3.43879e-06
3.78264e-06
2.44668e-05
3.00671e-05
5.45818e-05
1.82249e-05
1.81243e-05
0.000124366
0.000263745
1
1
1
1
1
0.999987
0.999852
0.999841
0.999986
1
1
1
1
1
1
1
0.998536
0.995623
0.997925
1
1
1
1
1
1
1
0.998791
0.995161
0.99608
1
1
1
1
1
1
1
0.999971
1
0.999888
1
1
1
1
1
1
1
1
1
1
1
1
1
1
1
1
1
1
1
1
1
1
1
1
1
1
1
1
1
1
1
0.995941
0.999856
1
1
1
1
1
0.999998
0.999989
0.99997
0.212593
0.206997
0.225066
0.270918
0.345654
0.448342
0.562932
0.695739
0.792064
0.824141
1.13643e-05
2.4428e-05
3.92833e-05
4.76146e-05
0.000847068
0.0115448
0.0322853
0.0658545
0.106661
0.141034
8.10713e-06
3.00288e-05
3.85159e-05
4.45176e-05
1.82039e-05
2.28856e-05
3.24575e-05
2.45101e-05
2.31567e-05
2.30845e-05
1.41408e-05
0.000103991
0.000161331
9.46333e-05
5.67457e-05
0.000182829
0.000505054
0.000516486
0.000178892
2.31202e-05
7.9588e-05
0.000190179
0.000206875
0.000216287
0.000387664
0.000501605
0.000506698
0.000434062
8.23773e-05
2.29315e-05
0.000172328
0.000184569
0.000137008
7.36533e-05
0.000317005
0.000497097
0.000337873
5.49814e-05
2.29412e-05
2.28476e-05
0.00016713
0.000171189
3.65085e-05
7.32235e-06
1.08796e-05
6.13802e-05
0.00012074
2.29096e-05
2.28477e-05
2.28427e-05
0.000125562
7.71479e-05
4.52814e-06
5.47861e-06
3.67632e-05
4.44307e-05
2.32683e-05
2.28635e-05
2.28563e-05
2.28477e-05
1.49355e-05
4.52814e-06
4.46719e-06
4.31516e-06
5.41686e-05
0.000106824
0.000105566
4.06839e-05
4.73393e-05
2.34135e-05
1.52161e-05
5.08975e-06
4.52814e-06
7.34603e-06
5.66343e-06
7.71587e-05
0.000204028
0.000232051
0.000228038
0.000207256
6.72214e-05
2.87888e-05
2.92786e-05
1.66409e-05
7.37784e-06
2.67864e-05
2.13798e-05
4.90289e-05
0.000160505
0.000263739
0.000126814
5.16538e-05
4.9879e-05
1.73475e-05
2.86926e-06
3.46557e-05
1.81243e-05
1.81243e-05
1.81243e-05
0.000262394
1
1
1
1
1
1
0.999896
0.999658
0.999954
1
1
1
1
1
1
0.999996
0.999161
0.998303
0.999717
1
1
1
1
1
1
0.999976
0.999319
0.999184
1
1
1
1
1
1
1
1
0.999975
0.999942
0.999992
1
0.999993
0.999998
1
1
1
1
0.999997
0.999978
0.999992
1
1
1
1
1
1
1
1
1
0.999997
1
1
1
1
1
1
1
1
1
1
1
0.857443
0.871797
0.914506
0.977219
1
1
1
0.999999
0.999992
0.99996
0.049446
0.0543449
0.074512
0.121643
0.219577
0.356318
0.50464
0.65301
0.75656
0.799769
2.09596e-05
2.87263e-05
3.39815e-05
4.10701e-05
4.00185e-05
9.18911e-05
0.00829957
0.0315552
0.0550303
0.0776253
6.50634e-05
6.26748e-05
4.92992e-05
4.41249e-05
6.1792e-05
5.10148e-05
2.87269e-05
2.34474e-05
2.30834e-05
2.30587e-05
0.00010542
0.000101678
2.42887e-05
1.42061e-05
2.49155e-05
0.000113855
7.36155e-05
7.0311e-05
3.35948e-05
2.29315e-05
7.45451e-05
1.91175e-05
8.00386e-06
8.91404e-06
0.000154665
0.000237574
0.000133935
4.90626e-05
2.82004e-05
2.28476e-05
3.34484e-05
7.29308e-05
5.18327e-05
1.93735e-05
0.000219667
0.000486278
8.97088e-05
2.64838e-05
2.28476e-05
2.28431e-05
7.29246e-05
0.000154489
8.10145e-05
3.42331e-05
1.14091e-05
0.000110895
0.000189639
2.28666e-05
2.28438e-05
2.28459e-05
6.24045e-05
5.39225e-05
1.26141e-05
2.77208e-05
2.95276e-06
2.4902e-05
0.00015285
2.29812e-05
2.2855e-05
2.28446e-05
0.000105721
1.67883e-05
3.95211e-06
3.27789e-06
4.99689e-06
2.44193e-05
6.12562e-05
0.000132731
3.45235e-05
8.77282e-05
0.000179087
2.92664e-05
9.12627e-06
4.10071e-06
3.43297e-06
1.67997e-05
4.58961e-05
0.000136041
0.000198633
0.00019547
0.00020165
7.42059e-05
8.87222e-05
1.77076e-05
2.87876e-06
7.30845e-06
2.36669e-05
1.92074e-05
1.71171e-05
7.21514e-05
0.000201413
0.000193043
0.00013237
1.81803e-05
2.19104e-06
1.68692e-06
0.000125011
1.85308e-05
1.83591e-05
9.80064e-05
1
1
1
1
1
1
0.999995
0.99996
0.999995
1
1
1
1
1
1
0.999998
0.999979
1
1
1
1
1
1
1
1
0.999999
0.999986
1
1
1
0.999999
1
1
1
1
0.999999
0.99999
0.999979
1
1
0.999985
0.999998
1
1
1
0.999998
0.999988
0.999988
1
1
1
1
1
1
1
1
0.999998
0.999997
1
1
1
1
1
1
1
1
1
1
1
0.999999
0.556837
0.594282
0.679287
0.800732
0.955692
1
1
0.999996
0.999995
0.999954
6.0444e-05
0.000117303
0.00727259
0.0401937
0.11142
0.26868
0.460658
0.630643
0.744581
0.793252
2.42136e-05
3.39293e-05
4.09292e-05
4.00183e-05
3.50022e-05
4.00185e-05
8.264e-05
0.0162279
0.0446162
0.0683395
9.70795e-05
9.50778e-05
6.4875e-05
9.40868e-05
8.70649e-05
7.13045e-05
2.67293e-05
2.33883e-05
2.30952e-05
2.30952e-05
8.14999e-05
6.08854e-05
6.04776e-05
0.000104294
0.000154735
0.000107893
5.99283e-05
9.40145e-05
3.11861e-05
2.30293e-05
2.12108e-06
3.43069e-06
4.69946e-06
5.68507e-06
6.44188e-05
0.000251172
0.000160481
8.39389e-05
2.3121e-05
2.29021e-05
2.87674e-05
1.78088e-05
1.65443e-05
1.77305e-05
7.50273e-05
0.000255283
0.000212247
2.58008e-05
2.2902e-05
2.28476e-05
0.000121291
5.53288e-05
1.96008e-05
3.40208e-05
7.48189e-06
5.99423e-05
0.00021044
5.0358e-05
2.28667e-05
2.28458e-05
0.000205309
6.41091e-05
4.16079e-06
6.78277e-06
2.88142e-06
4.77066e-06
8.68008e-05
7.43194e-05
2.54653e-05
8.24982e-05
0.000205614
7.68262e-05
3.3502e-06
2.93806e-06
2.95276e-06
3.10055e-06
3.4597e-06
7.54325e-05
0.000165349
0.000192603
0.000205309
4.78405e-05
2.09511e-05
9.4983e-06
4.64818e-06
3.27747e-06
3.41632e-06
1.00314e-05
2.75465e-05
0.000102645
0.000192665
3.35991e-05
3.5111e-05
2.13983e-05
1.18738e-05
2.57973e-06
8.71387e-05
7.31596e-05
1.683e-05
3.77579e-06
9.7639e-05
5.89391e-05
3.37577e-05
1.68397e-05
1.15728e-05
1.63671e-06
0.000160318
0.000172831
0.000101993
3.3548e-05
1
1
1
1
1
1
1
1
1
1
1
1
1
1
1
1
1
1
1
1
1
1
1
1
1
1
1
1
1
1
0.999998
1
1
1
1
1
1
1
1
1
0.999987
1
1
1
1
1
1
1
1
1
1
1
1
1
1
1
1
1
1
1
0.987354
0.994911
1
1
1
1
1
1
1
0.999999
0.308721
0.348404
0.449909
0.604921
0.802967
0.987923
1
1
0.999997
0.99996
3.62374e-05
7.45185e-05
0.000146642
0.0102598
0.0570124
0.183067
0.410684
0.614632
0.740237
0.795469
5.93135e-05
7.84356e-05
7.46669e-05
3.50358e-05
2.40604e-05
2.36465e-05
5.50194e-05
0.0137054
0.0505257
0.0810247
5.33781e-05
6.45927e-05
0.000123932
0.000167671
0.000107919
6.62021e-05
2.16075e-05
2.3683e-05
2.31813e-05
2.30952e-05
1.43605e-06
1.66687e-06
4.08716e-05
0.000127552
0.000227422
0.000232065
0.000183485
0.000164169
6.47544e-05
2.31813e-05
1.66686e-06
5.30039e-06
5.53604e-06
5.70448e-06
5.47431e-05
0.000240634
0.00023826
0.000203469
0.000123478
9.57825e-05
0.000111889
7.36881e-05
6.74505e-06
1.25023e-05
3.00888e-05
0.000189011
0.000231737
3.24462e-05
2.31212e-05
3.39928e-05
0.000201183
0.000138461
5.8167e-06
2.18927e-05
6.0461e-06
1.29631e-05
0.000174569
7.61483e-05
4.71795e-05
9.03949e-05
0.000203093
0.00011436
3.04915e-06
2.85708e-06
2.85708e-06
2.88142e-06
3.17063e-06
6.66533e-05
0.000176641
0.000201265
0.000205309
4.02884e-05
3.76515e-06
2.8753e-06
2.88142e-06
4.49904e-06
4.48049e-06
8.72112e-06
9.17095e-05
0.000199613
0.000183535
8.25856e-06
8.51162e-06
4.40818e-06
9.51166e-06
1.60701e-05
7.23466e-05
5.07943e-05
3.18615e-05
6.93189e-05
4.68749e-05
3.73504e-06
3.74644e-06
4.01198e-06
2.11989e-05
2.15676e-05
0.000108415
0.00016424
9.16916e-05
2.61145e-06
5.6099e-06
4.01349e-06
3.72028e-06
4.0135e-06
2.05998e-05
6.63137e-06
7.44299e-06
0.000167593
0.00016424
4.97048e-06
1
1
1
1
1
1
1
1
1
1
1
1
0.999999
1
1
1
1
1
1
1
1
1
0.999998
0.999999
0.999999
0.999999
1
1
1
1
0.999998
1
0.999999
1
1
1
1
1
1
1
0.999998
1
1
1
1
1
1
1
1
1
1
1
1
1
1
1
1
1
1
1
0.903148
0.921828
0.964298
1
1
1
1
1
1
0.999999
0.149467
0.182457
0.267436
0.432395
0.665313
0.900673
1
1
0.999998
0.999965
1.46183e-05
5.67295e-05
0.000107746
0.00158817
0.029251
0.126863
0.353248
0.58891
0.733958
0.798352
8.95677e-05
0.000136804
8.98698e-05
2.40604e-05
1.27047e-05
1.17092e-05
2.64881e-05
0.0150254
0.0628654
0.101298
3.44804e-05
6.43538e-05
9.62254e-05
0.00010317
1.12165e-05
1.12853e-05
1.18254e-05
1.72816e-05
2.3683e-05
2.31813e-05
1.61893e-06
2.26279e-06
1.38091e-05
8.9305e-05
3.42273e-05
3.14873e-05
5.47628e-05
0.000137518
0.000195451
0.000107932
4.43419e-06
4.08748e-05
8.96967e-06
6.47688e-06
1.60143e-05
1.36095e-05
6.80939e-05
0.000206454
0.00023444
0.000238221
9.59231e-05
0.000101788
2.29393e-05
1.18179e-05
3.76791e-05
6.87849e-05
8.36079e-05
1.69395e-05
6.80648e-05
0.000190379
0.000195478
9.4176e-05
4.32943e-06
1.32326e-05
2.85714e-05
3.67227e-05
8.00086e-05
2.45051e-05
7.18034e-05
0.000144622
0.000171646
1.37005e-05
2.85708e-06
2.85708e-06
2.85635e-06
6.47549e-06
1.38571e-05
3.20845e-05
0.000172267
0.000201265
9.80568e-05
3.03743e-06
2.89889e-06
2.85552e-06
2.85708e-06
6.53081e-06
6.3329e-05
3.01885e-05
6.29034e-05
0.000201265
4.33051e-05
3.49355e-06
3.03743e-06
2.89889e-06
3.29388e-06
1.81891e-05
9.50687e-05
0.000152951
5.14309e-05
7.11825e-05
4.62227e-05
3.84945e-06
3.42314e-06
3.05792e-06
9.05397e-06
1.80764e-05
3.65625e-05
0.000159828
5.42686e-05
1.6058e-06
1.96335e-05
4.49343e-06
3.84945e-06
1.46932e-05
7.23698e-06
1.89244e-06
1.04909e-05
6.50584e-05
3.74515e-05
7.34152e-06
1
1
1
1
1
1
1
1
1
1
1
0.999995
0.999991
0.999999
1
1
1
1
1
1
1
0.999993
0.99999
0.999997
0.999996
0.999995
0.999998
1
1
1
1
1
0.999999
0.999998
0.999985
0.999962
0.999979
1
1
1
1
1
1
1
0.999985
1
1
1
0.999997
0.999986
1
1
1
1
1
1
1
1
0.999999
0.999998
0.775888
0.800744
0.87068
0.964397
1
1
1
1
1
0.999998
0.0581495
0.0858614
0.151673
0.294706
0.539247
0.806345
0.994116
1
1
0.999968
6.23273e-06
1.46167e-05
5.6964e-05
6.31828e-05
0.0101061
0.0912305
0.287647
0.552913
0.721999
0.798392
2.05959e-05
0.000109315
0.000122656
4.3969e-05
1.18945e-05
1.04834e-05
2.82255e-05
0.00991264
0.0647044
0.109287
6.55557e-06
5.49327e-05
6.31553e-05
6.96777e-05
8.53092e-06
9.30151e-06
3.37326e-05
1.48829e-05
1.96272e-05
2.32691e-05
1.10325e-05
3.82103e-06
4.7628e-06
4.99797e-06
6.7617e-06
8.66545e-06
9.78055e-06
8.31161e-05
0.00020526
0.000233485
1.7648e-05
5.65173e-05
1.49941e-05
6.53582e-06
1.99549e-05
9.1786e-06
1.1136e-05
2.14798e-05
9.02748e-05
0.000244286
5.33413e-06
6.86318e-05
2.51164e-05
1.56098e-05
6.57775e-05
3.31728e-05
1.30555e-05
1.54152e-05
2.07655e-05
0.000149732
1.72762e-06
2.0055e-06
6.51915e-06
8.58787e-06
3.87894e-05
6.50884e-05
4.02124e-05
1.69395e-05
6.37559e-05
0.000185695
1.8745e-06
2.32551e-06
2.83006e-06
2.85708e-06
2.85707e-06
3.29652e-05
6.62633e-05
4.04871e-05
0.000100714
0.000201265
1.99428e-06
4.70749e-06
3.03743e-06
2.89889e-06
2.86849e-06
2.5168e-06
6.92868e-05
7.28414e-05
5.88228e-05
0.000188373
2.0884e-05
1.04212e-05
1.60392e-05
3.57866e-06
2.46437e-06
2.26103e-06
3.10784e-05
7.29984e-05
1.83636e-05
1.65054e-05
4.1229e-05
1.01738e-05
1.12232e-05
1.41985e-05
1.80202e-06
1.71361e-06
1.72976e-06
1.82533e-05
2.47926e-06
1.55381e-06
6.31904e-05
9.45834e-06
8.45616e-06
4.85506e-05
2.90832e-06
1.59547e-06
1.62602e-06
1.36092e-06
1.60394e-06
1.54882e-06
0.999785
0.99998
1
1
1
1
1
1
1
1
0.999953
0.999987
0.999993
0.999999
1
1
1
1
1
1
1
0.999988
0.99999
0.999997
0.999999
1
0.99999
0.999995
1
1
0.999924
0.999995
0.999999
0.999999
0.99994
0.999806
0.999909
0.999994
0.999988
0.999904
0.999789
0.999994
0.999999
1
0.999946
0.99954
0.999536
0.999947
0.999915
0.999588
1
1
1
1
1
0.999769
0.999577
0.999842
0.99998
0.999997
0.672376
0.698036
0.774087
0.900859
1
1
1
0.999999
0.999999
0.999998
0.0159666
0.0386429
0.0882665
0.204161
0.429398
0.721937
0.957119
1
1
0.999968
1.42043e-05
3.60483e-05
5.39213e-05
4.80788e-05
0.00117132
0.0566519
0.229365
0.506234
0.699548
0.789075
2.89161e-05
4.94857e-05
0.000135801
4.50278e-05
1.21446e-05
1.15411e-05
1.23693e-05
0.000659325
0.0535729
0.096073
7.0963e-05
1.06089e-05
6.43682e-05
7.71575e-05
1.0335e-05
1.07941e-05
1.15411e-05
1.23693e-05
1.48829e-05
1.82042e-05
4.88005e-06
6.12108e-06
4.73903e-06
4.7932e-06
4.99797e-06
8.96909e-06
1.12883e-05
4.95471e-05
0.000128381
0.000200193
4.42292e-06
1.68324e-05
4.70108e-06
5.82608e-06
3.35649e-05
4.57422e-05
4.15005e-05
1.80961e-05
3.54387e-05
0.000246096
7.53729e-06
1.22075e-05
4.84734e-06
1.50517e-05
6.78599e-05
6.96598e-05
6.75206e-05
1.69395e-05
2.1129e-05
0.000232869
8.55917e-06
4.82561e-06
5.07931e-06
9.96996e-06
3.17693e-05
6.79351e-05
6.87861e-05
3.02098e-05
2.72724e-05
0.000112841
2.31207e-06
9.84127e-06
9.89334e-06
7.53135e-06
3.03292e-06
1.39722e-05
6.70614e-05
6.54242e-05
2.49852e-05
7.61117e-05
1.63322e-06
3.50787e-05
5.59632e-05
4.35508e-05
2.91615e-06
2.90541e-06
2.32803e-05
5.20768e-05
1.39676e-05
1.5572e-06
7.59687e-06
4.68303e-05
5.57076e-05
5.28252e-05
8.89311e-06
2.25394e-06
1.98677e-06
1.9102e-06
1.55721e-06
1.55381e-06
5.08196e-05
1.00128e-05
2.30963e-05
4.38098e-05
2.01809e-05
1.92353e-06
1.85093e-06
1.63195e-06
1.55381e-06
1.54882e-06
8.16528e-05
9.81025e-06
8.98836e-06
4.26312e-05
1.23822e-05
4.84623e-06
1.72704e-06
1.60394e-06
1.54882e-06
1.54366e-06
0.993848
0.999138
1
1
1
1
1
1
1
1
0.993855
0.999618
1
1
1
1
1
1
1
1
0.996529
0.999893
1
0.999999
1
0.999999
0.999994
0.999984
1
0.999999
0.996164
0.999616
1
1
0.999995
0.999999
0.999979
0.999984
0.999955
0.99967
0.996033
0.999879
1
1
0.999999
0.999253
0.998796
0.999442
0.999844
0.999478
0.999998
1
1
1
1
0.999472
0.9988
0.998936
0.999889
0.99999
0.566153
0.624413
0.716578
0.856565
0.98751
1
0.999998
0.999982
0.999998
0.999998
0.00463311
0.0176737
0.0563772
0.150996
0.355522
0.658636
0.921583
1
0.999999
0.999963
4.57806e-05
3.75415e-05
9.51072e-05
8.28711e-05
5.14281e-05
0.0318449
0.189849
0.46177
0.671473
0.7688
4.58776e-05
1.45147e-05
0.000131347
0.000122171
2.71981e-05
1.51706e-05
1.32822e-05
1.50712e-05
0.0367139
0.0743642
0.000109116
1.17349e-05
7.36731e-05
0.000124106
0.000122685
1.58001e-05
1.23692e-05
1.32821e-05
1.50712e-05
1.4487e-05
4.42292e-06
1.01045e-05
4.62598e-06
2.30154e-05
9.24411e-05
4.43177e-05
2.68355e-05
4.50594e-05
0.000122646
0.00015208
3.70406e-06
4.31982e-06
4.49809e-06
4.62598e-06
4.15411e-05
7.14421e-05
7.15295e-05
1.93726e-05
5.90879e-05
0.000246093
1.64957e-05
4.54561e-06
4.62598e-06
1.12772e-05
5.64317e-05
7.08961e-05
7.1004e-05
1.85146e-05
4.16327e-05
0.000246096
1.68824e-05
1.63116e-05
3.73366e-05
4.12079e-05
5.64918e-06
4.63241e-05
7.0458e-05
2.09303e-05
1.73488e-05
0.00013539
7.21514e-06
3.22403e-05
0.000142369
0.000149965
4.82081e-06
5.49837e-06
2.63019e-05
5.28693e-05
2.57043e-06
7.34576e-06
1.98664e-06
4.00423e-05
0.000165244
0.000165244
4.02883e-05
5.76603e-06
3.98978e-06
2.87994e-06
2.02105e-06
4.85036e-06
2.96363e-06
4.14037e-05
2.73533e-05
7.1088e-05
7.28854e-05
4.43175e-05
3.84701e-06
2.02105e-06
1.65777e-06
1.55721e-06
4.74031e-05
7.60436e-06
7.60436e-06
6.77013e-06
4.56311e-05
5.74242e-05
3.12282e-06
2.37249e-06
1.63195e-06
1.55381e-06
8.41934e-05
9.17699e-06
7.60436e-06
1.37863e-05
1.07838e-05
1.58621e-05
2.05671e-06
3.97853e-06
1.64052e-06
1.54882e-06
0.993848
0.998485
1
1
1
1
1
1
1
1
0.99385
0.999571
1
1
1
1
1
1
1
1
0.993875
0.999603
1
1
0.999999
1
1
1
1
0.999999
0.994009
0.999275
0.999984
0.999975
0.999989
0.999989
1
1
0.999955
0.99966
0.996033
0.999535
0.999987
0.99994
0.999998
0.999851
0.998801
0.999235
0.99995
0.999479
0.999999
1
1
1
1
0.999996
0.999196
0.998939
0.999729
0.999997
0.492743
0.56545
0.701914
0.846041
0.981726
1
1
0.999985
0.999989
0.999997
0.00376861
0.0122816
0.0422511
0.126787
0.325242
0.626642
0.902463
1
0.999994
0.99995
9.73369e-05
9.4057e-05
8.51671e-05
0.00010114
7.24473e-05
0.0229861
0.17468
0.44182
0.653196
0.747059
6.01174e-05
3.94607e-05
5.06635e-05
0.000130042
4.97384e-05
1.93269e-05
1.2607e-05
1.3805e-05
0.027843
0.0587862
0.000184701
0.000113558
4.77606e-05
0.000129083
0.000126482
2.36797e-05
1.15026e-05
1.25448e-05
1.38064e-05
1.26864e-05
4.08165e-05
8.06967e-05
4.72715e-06
2.96272e-05
0.00012687
7.4926e-05
2.74332e-05
3.14792e-05
0.000125007
7.6113e-05
3.17997e-06
5.04197e-06
5.89827e-06
5.23454e-06
3.67344e-05
7.3301e-05
7.15295e-05
2.12867e-05
0.000106985
0.000236349
1.10996e-05
4.62974e-05
0.000149845
3.0478e-05
2.17629e-05
6.95082e-05
7.15294e-05
4.31016e-05
0.000140379
0.000237948
1.22611e-05
5.01628e-05
0.000240065
0.000193153
8.55649e-06
8.43616e-06
4.03743e-05
6.63271e-05
6.35926e-05
5.83532e-05
1.95809e-06
1.66593e-05
0.000223259
0.000224274
6.76811e-05
6.5525e-06
8.21716e-06
6.29188e-06
4.4738e-06
3.72665e-05
2.06879e-06
2.65193e-05
2.81699e-05
0.000134431
0.000189999
0.000109559
3.20583e-05
5.25144e-06
2.57043e-06
3.15805e-05
1.02775e-05
2.54871e-05
6.36789e-06
6.07359e-06
6.54822e-05
0.000209025
0.000195298
6.73617e-05
1.13092e-05
3.12887e-06
0.000109802
1.39379e-05
6.77013e-06
5.95155e-06
5.54643e-06
0.000106251
0.000171168
0.000158572
7.68719e-05
8.40084e-06
0.000200895
0.000125547
8.00633e-05
2.71614e-05
4.83403e-06
4.59048e-06
4.37336e-05
0.000194632
0.000131297
1.34149e-05
0.999997
0.999994
0.999999
1
1
1
1
1
1
1
1
1
0.999999
1
1
1
1
1
1
1
1
1
1
0.999989
0.99999
0.999998
0.999997
0.999999
1
1
0.999954
0.999617
0.999625
0.999818
0.999862
0.999865
0.999959
1
0.999995
0.999974
0.999999
0.999449
0.999
0.99977
1
0.99989
0.999476
0.999798
1
0.99999
1
0.999999
1
1
1
0.999997
0.999842
0.999859
0.999982
0.999998
0.505355
0.585158
0.720856
0.855324
0.984618
1
1
0.999999
0.999999
0.999998
0.00634862
0.0169846
0.0483094
0.133715
0.335577
0.638902
0.916139
1
1
0.999936
0.000206695
0.000201711
0.000125631
7.61616e-05
7.41763e-05
0.0273307
0.180597
0.449145
0.644929
0.722541
9.88273e-05
8.90251e-05
4.18892e-05
6.27271e-05
2.13737e-05
1.39229e-05
1.15026e-05
1.25448e-05
0.0239539
0.049961
0.000202567
0.000117988
3.63008e-05
7.51392e-05
7.77329e-05
1.76888e-05
1.08072e-05
1.15026e-05
1.23264e-05
1.18337e-05
0.000112081
0.000143494
1.42837e-05
1.22943e-05
5.29155e-05
5.0164e-05
1.52299e-05
2.24638e-05
9.44875e-05
4.6217e-05
1.23895e-05
0.000137847
3.57112e-05
6.8225e-06
2.25878e-05
7.14421e-05
6.08477e-05
3.47997e-05
0.000114078
4.13147e-05
2.47806e-06
6.24731e-05
0.000240065
1.87331e-05
9.27245e-06
2.8496e-05
4.49349e-05
0.000108198
0.000133229
0.000113681
2.30169e-06
3.20467e-05
0.000248926
0.00020316
1.02846e-05
1.05756e-05
1.05756e-05
8.81733e-05
8.03258e-05
1.03373e-05
2.14239e-06
5.92141e-06
0.000145352
0.000223896
0.00010801
4.63325e-05
1.50701e-05
1.04084e-05
4.91807e-06
5.47443e-06
2.61711e-06
2.75601e-05
1.33224e-05
1.5331e-05
0.000190881
0.000276614
0.000230352
7.43841e-05
3.23408e-06
5.05699e-06
8.01615e-05
8.22545e-05
1.4174e-05
5.6275e-06
5.46877e-06
0.000191641
0.000284281
0.000287143
7.22616e-05
5.21129e-06
0.000203265
0.000200058
0.000125125
1.3293e-05
5.20565e-06
5.06804e-06
0.000281012
0.000289754
0.000278521
3.40182e-05
0.000203221
0.000211898
0.00020213
0.000113822
5.14504e-06
4.82247e-06
0.000162317
0.000289612
0.00028939
5.95209e-05
1
1
1
1
1
1
1
1
1
1
1
1
1
1
1
1
1
1
1
1
1
1
0.999966
0.999985
0.999996
0.999995
0.999998
1
1
1
0.999994
0.999804
0.999828
0.999973
0.99999
0.99998
0.99999
1
1
1
1
0.999568
0.999782
1
1
1
1
1
1
1
1
1
1
1
1
1
1
1
1
1
0.611777
0.689836
0.784978
0.90087
1
1
1
1
1
0.999999
0.0271265
0.0408185
0.0777593
0.178048
0.390516
0.68644
0.946019
1
0.999997
0.999923
0.00038872
0.000311817
0.000152918
0.000170448
0.00352599
0.0518052
0.208232
0.475217
0.64394
0.702847
0.000162553
0.000102986
3.58081e-05
1.44491e-05
1.38818e-05
1.04818e-05
1.08091e-05
1.19983e-05
0.0200431
0.0418088
0.000192177
0.000103745
2.8273e-05
8.33676e-06
9.9467e-06
9.6748e-06
1.01625e-05
1.0809e-05
1.12842e-05
1.15445e-05
6.06724e-05
0.000148596
7.84817e-05
7.93885e-06
8.33728e-06
9.65097e-06
1.66087e-05
4.0223e-05
2.67908e-05
2.10472e-05
4.48794e-06
0.000138352
0.000184147
7.91378e-06
7.93879e-06
1.98763e-05
1.20766e-05
4.99057e-05
4.89654e-05
1.0551e-05
3.77255e-06
5.40457e-05
0.000248756
9.28471e-06
8.92051e-06
9.38393e-06
1.23482e-05
4.94114e-05
2.21304e-05
5.75547e-06
2.89606e-06
1.52726e-05
0.000255793
0.00026269
1.64776e-05
4.83981e-05
1.72941e-05
2.84177e-05
1.75651e-05
5.41589e-06
2.69077e-06
3.66815e-06
7.74334e-05
0.000209475
0.000221758
0.000252701
5.34878e-05
1.06548e-05
5.40953e-06
5.40954e-06
1.27645e-05
8.47974e-05
1.29246e-05
6.91699e-06
0.000175098
0.00028011
0.000280774
0.000119128
5.13861e-06
5.40319e-06
0.000176285
0.000197179
0.00010362
5.75954e-06
5.29372e-06
0.000140642
0.000285991
0.000289745
7.44793e-05
5.39105e-06
0.000202955
0.000200192
0.000199133
5.26255e-05
5.44641e-06
5.06556e-06
0.000288617
0.000289745
0.000262719
3.32937e-05
0.000150155
0.000165611
0.00020213
8.63691e-05
5.04835e-06
4.88301e-06
0.000250546
0.000289763
0.000289612
5.39249e-05
1
1
1
1
1
1
1
1
1
1
1
1
0.999999
1
1
1
1
1
1
1
1
0.999996
0.999993
0.999998
1
1
1
1
1
1
1
0.999978
0.999993
1
1
1
1
1
1
1
1
1
1
1
1
1
1
1
1
1
1
1
1
1
1
1
1
1
1
1
0.780835
0.820737
0.886071
0.968897
1
1
1
1
1
0.999999
0.0816819
0.0944626
0.146597
0.275558
0.50368
0.767183
0.9887
0.999998
0.999989
0.999918
0.000326275
0.000332479
0.000226
0.00220382
0.0194993
0.0864684
0.260409
0.510693
0.647385
0.688861
0.00010641
0.000123959
4.80783e-05
2.09812e-05
1.14023e-05
9.67477e-06
1.01627e-05
1.09398e-05
0.0139079
0.0340815
0.000111106
0.000143866
2.90351e-05
8.82464e-06
9.06427e-06
9.38082e-06
9.67485e-06
1.04031e-05
1.094e-05
1.14152e-05
1.26472e-05
0.000151095
9.4191e-05
8.33746e-06
8.82461e-06
9.06427e-06
2.79045e-05
3.99262e-05
1.14152e-05
1.15445e-05
4.17399e-06
3.57515e-05
0.000125233
1.51096e-05
8.57709e-06
9.38082e-06
1.02016e-05
1.81894e-05
1.3377e-05
1.23869e-05
1.01407e-05
1.15663e-05
0.000151693
0.000241687
0.000104905
2.04973e-05
1.01261e-05
9.53562e-06
8.08628e-06
1.0139e-05
1.94393e-05
4.23558e-06
0.00010398
0.000266974
0.000266974
0.000266974
1.07319e-05
6.08532e-06
5.82505e-06
7.77599e-05
3.80816e-06
4.72437e-06
3.57573e-05
0.000164978
0.000266987
0.000270544
5.64642e-05
5.75395e-06
5.3966e-06
2.77868e-05
7.07965e-06
6.91312e-05
3.8264e-05
6.09979e-06
8.2723e-05
0.000273124
0.000279985
4.66937e-05
5.39402e-06
5.38819e-06
6.40566e-05
0.000193087
0.00011131
5.16863e-06
5.21794e-06
8.15118e-05
0.000272887
0.000109043
5.63677e-06
5.37321e-06
6.21855e-05
0.000194046
0.000135937
1.00229e-05
5.14577e-06
3.65043e-05
0.000160735
0.000289745
6.04431e-05
5.39105e-06
2.54985e-06
3.09601e-06
1.764e-05
1.26659e-05
4.96733e-06
6.68763e-06
0.000183086
0.000289612
0.000250517
1.42265e-05
1
1
1
1
1
1
1
1
1
1
1
1
1
1
1
1
1
1
1
1
1
0.999999
1
1
1
0.999999
0.999991
1
1
1
0.999999
1
0.999999
1
1
0.999999
0.999996
1
1
1
0.999999
1
1
1
1
0.999999
0.999999
1
1
1
1
1
1
1
1
1
1
1
1
1
0.931692
0.947341
0.981737
1
1
1
1
1
1
0.999999
0.190138
0.205867
0.281702
0.443088
0.646826
0.885925
1
0.999989
0.999978
0.999921
0.000306111
0.000371207
0.000828438
0.0122394
0.0459912
0.139551
0.34772
0.556877
0.656607
0.685437
4.84833e-05
0.000131145
9.47601e-05
2.74287e-05
1.23615e-05
1.01279e-05
1.12407e-05
1.45048e-05
0.0130936
0.0323851
2.10776e-05
0.000147599
9.34272e-05
1.50424e-05
1.83897e-05
9.78516e-06
1.01279e-05
1.09053e-05
1.14152e-05
1.15445e-05
4.17399e-06
5.21611e-05
9.0895e-05
1.09664e-05
5.54932e-05
1.78575e-05
1.14155e-05
1.1592e-05
1.36546e-05
1.16834e-05
4.02091e-06
4.14133e-06
5.69554e-06
7.06365e-05
9.44172e-05
1.02016e-05
1.08064e-05
1.08111e-05
1.12793e-05
7.72699e-05
3.97079e-06
3.98824e-06
9.56545e-06
0.000238869
0.000160918
0.000141102
1.07787e-05
1.16503e-05
0.000139898
0.000328247
4.02091e-06
4.0538e-06
4.23558e-06
0.000164956
0.00026699
0.000266955
1.07416e-05
2.64929e-05
0.000284109
0.000340929
2.94803e-05
4.23547e-06
4.64042e-06
6.14471e-06
0.000215247
0.000175266
8.66681e-06
5.73612e-06
0.000124525
0.000267343
7.05018e-06
3.14037e-05
3.07705e-05
5.56781e-06
2.17784e-05
7.43862e-05
0.000200953
5.39299e-06
5.38562e-06
5.37597e-06
3.4576e-06
9.07137e-05
6.29436e-05
4.88963e-06
5.13175e-06
8.90873e-05
4.6855e-05
5.80407e-06
6.04252e-06
5.37597e-06
2.5498e-06
4.56342e-05
4.36358e-05
6.25913e-06
1.14204e-05
9.16909e-05
2.96006e-05
0.000231675
4.49333e-05
5.3735e-06
2.45204e-06
2.5496e-06
2.6914e-06
2.70515e-06
3.83668e-06
7.57717e-05
0.000108935
0.000289435
0.000269089
2.47879e-05
1
1
1
1
1
1
0.999999
1
1
1
1
1
1
1
1
1
0.99995
0.999869
1
1
1
1
1
1
1
1
0.999848
0.999287
0.999871
1
1
1
0.999998
0.999999
1
0.999999
0.99993
0.999704
0.999685
1
0.99986
0.999986
1
1
1
0.999997
0.999983
0.999986
0.999982
0.999996
0.99999
0.999996
1
1
1
1
1
1
1
1
1
1
1
1
1
1
1
1
1
0.999999
0.388847
0.416619
0.511152
0.657078
0.842101
1
1
0.999987
0.999971
0.999935
0.00222741
0.00339413
0.0114728
0.0393918
0.100838
0.248382
0.461116
0.605944
0.684813
0.705241
7.87625e-05
7.83083e-05
6.64168e-05
3.6747e-05
2.5661e-05
1.2366e-05
5.95027e-05
0.0107863
0.027097
0.0495478
4.69988e-05
4.78592e-05
0.000206954
0.000191348
5.74439e-05
1.01279e-05
1.12407e-05
1.18151e-05
1.17058e-05
1.16834e-05
4.34245e-05
4.1752e-06
7.17363e-05
0.000148735
0.000199374
6.27543e-05
1.22874e-05
2.98497e-05
4.06115e-05
1.825e-05
3.97373e-06
3.98824e-06
4.1752e-06
2.65745e-05
0.0002
0.000133775
1.08111e-05
0.000166011
0.000238612
0.000148078
3.97373e-06
3.97072e-06
3.98824e-06
7.02579e-05
0.000143953
0.000195804
1.09713e-05
0.000157439
0.000341126
0.000341098
3.97373e-06
3.98126e-06
4.0538e-06
4.47461e-05
4.82983e-05
0.0001512
2.91693e-05
0.000122329
0.000340929
0.000341152
1.96679e-05
8.34532e-06
4.24968e-06
5.38409e-06
3.73233e-05
1.42072e-05
0.000234653
0.000282289
0.000338816
0.000340929
0.00010949
4.37028e-05
3.81325e-06
3.50183e-06
4.13881e-05
1.37003e-05
8.24082e-05
6.81856e-05
8.96329e-05
0.000199682
6.03095e-05
5.06777e-05
1.40797e-05
3.31071e-06
3.67231e-05
8.28365e-06
9.5872e-06
0.00010672
7.89934e-05
9.06644e-05
6.32336e-06
2.64357e-05
1.81714e-05
3.13058e-06
3.02666e-06
3.98197e-05
2.82575e-05
0.000271868
0.000288216
0.000248606
2.54969e-06
3.75658e-06
5.24782e-06
2.79643e-06
2.93568e-06
7.80812e-05
0.000112207
0.000289104
0.000288508
0.000288216
1
1
1
1
1
0.999999
0.999979
0.999999
1
1
1
1
1
1
1
1
0.999743
0.998727
0.998907
0.999999
0.999999
1
1
1
1
1
0.99987
0.996826
0.994601
0.999745
1
0.999997
0.999998
1
1
1
0.999986
0.999114
0.995404
0.994909
0.999821
0.999966
1
1
1
1
0.999995
0.999857
0.99909
0.997995
0.999506
0.999806
1
1
1
1
1
1
1
0.99998
1
1
1
1
1
1
1
1
0.999999
0.999977
0.695687
0.727416
0.812813
0.927339
1
1
1
0.999999
0.999966
0.999926
0.0302048
0.0368849
0.0625798
0.122973
0.246436
0.423968
0.565975
0.679756
0.746767
0.769569
3.93131e-05
3.29325e-05
5.27524e-05
6.57419e-05
3.67551e-05
7.57407e-05
0.0253314
0.0498442
0.0782124
0.101733
7.70291e-05
3.7941e-05
0.00017176
0.000187025
5.88545e-05
1.27912e-05
1.32877e-05