/*--------------------------------*- C++ -*----------------------------------*\
| =========                 |                                                 |
| \\      /  F ield         | OpenFOAM: The Open Source CFD Toolbox           |
|  \\    /   O peration     | Version:  2312                                  |
|   \\  /    A nd           | Website:  www.openfoam.com                      |
|    \\/     M anipulation  |                                                 |
\*---------------------------------------------------------------------------*/
FoamFile
{
    version     2.0;
    format      ascii;
    arch        "LSB;label=32;scalar=64";
    class       volScalarField;
    location    "0.89";
    object      p;
}
// * * * * * * * * * * * * * * * * * * * * * * * * * * * * * * * * * * * * * //

dimensions      [1 -1 -2 0 0 0 0];

internalField   nonuniform List<scalar> 
8000
(
331.46
332.899
335.459
338.971
342.93
346.929
350.583
353.641
355.997
357.547
279.481
281.015
284.04
288.155
292.694
297.199
301.192
304.418
306.9
308.522
224.261
225.885
229.907
235.627
241.301
246.65
251.302
254.95
257.742
259.569
165.641
167.208
173.212
181.174
188.691
195.515
201.13
205.422
208.56
210.505
105.198
108.361
114.816
125.039
135.274
144.065
150.851
155.551
158.784
161.033
26.1037
34.044
50.8831
67.043
80.6591
91.9892
100.334
105.409
108.369
110.396
1.51643
2.92259
6.49742
13.9713
27.7267
40.9255
50.4677
54.9919
56.8695
58.3231
0.345419
0.409783
0.139315
0.0485548
2.21146
7.70366
13.5308
16.7111
16.7529
17.2643
0.0842082
0.0505555
-0.0905782
-0.225506
-0.299996
-0.272845
0.072786
1.65903
1.63138
1.55601
-0.114625
-0.139324
-0.203021
-0.264252
-0.30611
-0.301927
-0.264852
-0.241605
-0.228551
-0.202567
-0.226807
-0.233838
-0.260224
-0.290669
-0.327766
-0.335004
-0.31515
-0.292075
-0.296986
-0.308105
-0.321856
-0.324718
-0.33779
-0.359947
-0.390741
-0.400274
-0.376894
-0.358851
-0.37549
-0.397419
-0.411081
-0.414503
-0.419061
-0.430474
-0.457099
-0.467584
-0.446409
-0.432793
-0.452691
-0.465989
-0.492259
-0.492678
-0.488973
-0.497434
-0.52259
-0.531495
-0.509932
-0.507593
-0.526407
-0.526118
-0.561269
-0.557937
-0.55323
-0.564801
-0.587884
-0.589886
-0.571425
-0.580597
-0.592427
-0.580759
-0.619812
-0.617836
-0.617607
-0.633871
-0.652532
-0.644274
-0.634291
-0.650515
-0.652034
-0.635717
-0.676407
-0.679077
-0.683696
-0.702103
-0.711978
-0.69891
-0.699468
-0.71649
-0.708995
-0.688562
-0.73643
-0.741921
-0.74972
-0.767711
-0.768385
-0.757427
-0.764331
-0.776477
-0.761752
-0.746969
-0.797848
-0.803588
-0.81224
-0.826612
-0.823176
-0.816956
-0.826331
-0.833409
-0.822227
-0.823469
-0.859174
-0.862069
-0.867738
-0.876712
-0.876274
-0.874131
-0.883595
-0.893622
-0.898961
-0.901124
332.995
334.554
336.949
340.293
344.071
347.932
351.512
354.544
356.866
358.398
281.121
282.906
285.882
289.687
293.938
298.203
302.132
305.38
307.839
309.448
226.019
228.116
232.045
237.011
242.645
247.875
252.443
256.163
258.865
260.636
167.564
170.117
175.248
181.955
189.737
196.7
202.473
206.823
209.934
211.914
106.857
109.133
116.508
125.842
136.149
145.373
152.442
157.401
160.609
162.657
30.948
39.9057
56.0059
69.3629
82.4602
93.4609
102.127
107.514
110.739
112.841
2.35533
4.87665
8.84403
16.731
28.8774
41.5871
51.9128
57.7243
59.9059
61.7598
0.246561
0.229692
0.0652825
0.352142
3.05061
8.48239
13.8811
17.4031
17.615
18.4151
-0.0401326
-0.12965
-0.209534
-0.261695
-0.24904
-0.236614
-0.0693669
0.883448
1.15244
0.917079
-0.164713
-0.207018
-0.25069
-0.284404
-0.294393
-0.291753
-0.272114
-0.258455
-0.254084
-0.216541
-0.247314
-0.257877
-0.278791
-0.311367
-0.349913
-0.359175
-0.338379
-0.30351
-0.313616
-0.339425
-0.339692
-0.345125
-0.358859
-0.386184
-0.431441
-0.4406
-0.407735
-0.378715
-0.400346
-0.435098
-0.426705
-0.432843
-0.437311
-0.455563
-0.495614
-0.512968
-0.480442
-0.462546
-0.491939
-0.510509
-0.504045
-0.509778
-0.507598
-0.523468
-0.557812
-0.574278
-0.546603
-0.544225
-0.574411
-0.570929
-0.571769
-0.57344
-0.574006
-0.592277
-0.62323
-0.627706
-0.607911
-0.621977
-0.643544
-0.621863
-0.631948
-0.632972
-0.639621
-0.661785
-0.687167
-0.674641
-0.667373
-0.69434
-0.70003
-0.662187
-0.689754
-0.695503
-0.706645
-0.729068
-0.742999
-0.722886
-0.727618
-0.754613
-0.739031
-0.688922
-0.748302
-0.761897
-0.773963
-0.792761
-0.792362
-0.776349
-0.788567
-0.801028
-0.762643
-0.715322
-0.806455
-0.825598
-0.838301
-0.851028
-0.842508
-0.835403
-0.849205
-0.843742
-0.792764
-0.770488
-0.86347
-0.879637
-0.892242
-0.898548
-0.89179
-0.894062
-0.907699
-0.896867
-0.860334
-0.858989
335.78
337.149
339.622
342.744
346.252
349.875
353.271
356.19
358.452
359.959
284.364
286.137
289.024
292.549
296.394
300.389
304.048
307.165
309.558
311.139
230.123
232.417
236.377
241.012
245.66
250.397
254.669
258.208
260.86
262.591
173.166
175.748
181.086
187.034
193.663
199.984
205.179
209.357
212.435
214.41
114.03
115.827
124.049
131.824
140.66
149.088
155.712
160.678
164.085
166.221
48.2663
52.9237
67.1949
76.7037
87.8481
98.3135
106.289
112.068
116.103
118.788
4.54909
6.5749
13.1263
21.6912
33.7886
47.0455
57.0835
63.5666
67.9711
71.1138
0.0542564
0.0211664
0.171244
1.08928
4.32341
10.6089
17.4249
22.5816
26.5298
29.0935
-0.135876
-0.198676
-0.254198
-0.223215
-0.201614
-0.188683
0.354222
2.35408
4.15073
4.57051
-0.223421
-0.250577
-0.276935
-0.286765
-0.28283
-0.300899
-0.333119
-0.303265
-0.386119
-0.346062
-0.28158
-0.289414
-0.303412
-0.337774
-0.374837
-0.3908
-0.393303
-0.370226
-0.409868
-0.449303
-0.368239
-0.374965
-0.386381
-0.419922
-0.471969
-0.474048
-0.45282
-0.43101
-0.445158
-0.478252
-0.449406
-0.455833
-0.460143
-0.486977
-0.539055
-0.547715
-0.516144
-0.502837
-0.515646
-0.529019
-0.522716
-0.528342
-0.529694
-0.552929
-0.593471
-0.605385
-0.578549
-0.580692
-0.598091
-0.590998
-0.589601
-0.594066
-0.600027
-0.62204
-0.648666
-0.65121
-0.637835
-0.651909
-0.666406
-0.643847
-0.652302
-0.658872
-0.670348
-0.690556
-0.70396
-0.690844
-0.690904
-0.712021
-0.716167
-0.684467
-0.717919
-0.731223
-0.744084
-0.756242
-0.754396
-0.733496
-0.739439
-0.758944
-0.751053
-0.710079
-0.785536
-0.809667
-0.821071
-0.822594
-0.807583
-0.786961
-0.793677
-0.801394
-0.772769
-0.726024
-0.842933
-0.880975
-0.894909
-0.890004
-0.869058
-0.85401
-0.859216
-0.852596
-0.802527
-0.759895
-0.89247
-0.93089
-0.952169
-0.951087
-0.93357
-0.925802
-0.931048
-0.917323
-0.859193
-0.837124
339.616
340.828
343.042
345.893
349.12
352.474
355.658
358.428
360.595
362.055
288.901
290.322
292.876
296.031
299.544
303.192
306.622
309.579
311.877
313.409
236.358
237.918
241.339
245.263
249.439
253.692
257.638
260.993
263.554
265.241
181.663
183.112
187.733
192.978
198.559
203.983
208.765
212.779
215.782
217.697
124.486
125.838
132.557
139.541
147.01
154.096
159.957
164.748
168.267
170.572
65.0759
66.9918
77.2029
85.9083
95.5104
104.515
111.362
117.445
122.316
125.114
11.4135
12.1384
20.776
30.4373
42.208
54.3014
61.4183
69.3653
75.8389
80.0367
0.0943263
0.176999
0.945781
3.23366
7.60019
14.2808
21.9303
28.7144
35.2057
39.2756
-0.154304
-0.205151
-0.236069
-0.202517
-0.229522
-0.150191
1.91647
5.59132
10.2149
13.1916
-0.267377
-0.276486
-0.28771
-0.29621
-0.301579
-0.337165
-0.370247
-0.318769
-0.342819
0.236166
-0.310792
-0.315158
-0.336176
-0.370968
-0.407725
-0.4257
-0.440422
-0.434072
-0.472955
-0.5081
-0.399893
-0.407138
-0.416827
-0.456463
-0.503539
-0.503095
-0.499365
-0.483659
-0.483777
-0.50853
-0.475619
-0.483178
-0.485671
-0.517424
-0.566836
-0.576741
-0.559849
-0.535459
-0.520466
-0.525089
-0.546551
-0.549782
-0.551713
-0.575342
-0.612439
-0.627068
-0.610116
-0.598057
-0.590193
-0.584719
-0.614122
-0.618029
-0.62252
-0.640711
-0.661559
-0.664146
-0.654846
-0.658932
-0.664637
-0.65668
-0.681458
-0.688083
-0.694262
-0.70615
-0.710871
-0.696941
-0.693632
-0.710232
-0.724093
-0.710572
-0.757141
-0.771911
-0.772315
-0.771536
-0.759651
-0.734079
-0.729568
-0.751232
-0.766216
-0.749997
-0.828662
-0.863962
-0.858273
-0.843542
-0.822434
-0.79475
-0.789674
-0.807017
-0.80855
-0.791207
-0.881231
-0.936575
-0.940514
-0.916347
-0.895203
-0.879283
-0.881293
-0.893983
-0.880184
-0.835163
-0.929275
-0.980359
-1.00584
-0.988755
-0.967328
-0.962826
-0.97295
-0.982293
-0.951901
-0.899702
343.913
344.948
346.892
349.456
352.397
355.475
358.43
361.043
363.088
364.477
293.848
294.946
297.129
299.933
303.12
306.44
309.603
312.359
314.541
316.001
242.599
243.874
246.561
249.93
253.637
257.454
261.062
264.196
266.608
268.226
189.96
191.268
194.915
199.251
203.921
208.582
212.929
216.688
219.633
221.334
136.016
136.997
142.147
148.05
154.035
159.808
165.064
169.543
173.015
175.369
81.1077
82.8137
89.948
97.3305
104.617
111.548
118.104
124.407
128.672
131.285
27.3529
28.3224
35.8147
44.456
54.1664
63.1072
71.2414
78.9565
85.2681
88.9884
1.92439
2.47718
5.18229
8.89228
14.321
21.2253
29.3524
38.0879
45.1012
49.4509
-0.238617
-0.298343
-0.257547
-0.223631
-0.12876
1.07525
4.73275
11.4046
18.1572
23.5658
-0.300602
-0.307302
-0.304329
-0.30052
-0.295077
-0.346419
-0.413786
-0.232811
2.68622
6.12608
-0.354149
-0.359836
-0.372814
-0.400989
-0.420358
-0.44236
-0.473351
-0.457851
-0.426738
-0.43782
-0.42529
-0.43249
-0.444258
-0.481304
-0.510737
-0.513428
-0.527477
-0.498284
-0.472102
-0.482961
-0.500301
-0.507995
-0.510147
-0.536549
-0.568225
-0.579594
-0.579533
-0.545367
-0.511565
-0.531657
-0.571194
-0.573072
-0.570989
-0.584655
-0.604102
-0.618661
-0.620727
-0.60166
-0.587959
-0.60332
-0.639183
-0.639863
-0.639146
-0.645811
-0.653321
-0.645825
-0.648753
-0.653145
-0.667756
-0.67605
-0.709291
-0.711615
-0.71015
-0.70912
-0.7029
-0.681209
-0.668157
-0.686727
-0.720931
-0.729334
-0.784486
-0.799599
-0.785546
-0.775097
-0.755338
-0.727686
-0.7092
-0.725213
-0.756865
-0.782469
-0.846083
-0.880269
-0.863958
-0.848326
-0.827854
-0.7998
-0.787564
-0.805508
-0.835949
-0.860763
-0.893491
-0.931717
-0.927986
-0.915153
-0.90517
-0.892881
-0.895081
-0.923051
-0.94706
-0.927116
-0.943556
-0.972686
-0.980436
-0.977335
-0.972406
-0.968364
-0.983003
-1.01402
-1.01644
-0.97074
348.237
349.149
350.856
353.135
355.788
358.595
361.32
363.74
365.666
366.986
298.717
299.617
301.534
303.964
306.807
309.805
312.7
315.27
317.316
318.702
248.642
249.747
251.855
254.69
257.931
261.325
264.589
267.492
269.789
271.273
198.016
199.189
201.869
205.352
209.23
213.254
217.165
220.699
223.297
224.93
147.189
148.608
151.806
156.074
160.773
165.583
170.159
174.407
177.782
179.868
96.3294
97.3206
102.145
107.424
112.94
118.596
124.643
130.317
134.339
136.783
47.3555
47.9591
52.6003
58.5272
65.3747
71.919
79.5126
86.9117
92.403
95.903
9.93435
10.4354
13.1891
17.4674
23.2208
29.1951
37.7384
45.8605
52.7244
57.8351
0.0293188
-0.232249
-0.236317
-0.0251758
1.49684
3.98922
9.45394
17.5092
24.1641
30.8639
-0.310954
-0.304308
-0.300014
-0.274614
-0.282351
-0.344925
-0.289602
3.37829
10.2448
14.3238
-0.381131
-0.376697
-0.388564
-0.413912
-0.42658
-0.430611
-0.432052
-0.42178
-0.379247
-0.247049
-0.444997
-0.45026
-0.464034
-0.493735
-0.50628
-0.491361
-0.513418
-0.504513
-0.472698
-0.51956
-0.519545
-0.526817
-0.529722
-0.546144
-0.554129
-0.553344
-0.560665
-0.546029
-0.545145
-0.58871
-0.592856
-0.593546
-0.58653
-0.588148
-0.587271
-0.585529
-0.591857
-0.602512
-0.626716
-0.654767
-0.658189
-0.657722
-0.651319
-0.645201
-0.637632
-0.616745
-0.608314
-0.640482
-0.690544
-0.707174
-0.727768
-0.731583
-0.720807
-0.708524
-0.692708
-0.668555
-0.645995
-0.660911
-0.7081
-0.733583
-0.790782
-0.805392
-0.787135
-0.771853
-0.750057
-0.725924
-0.70355
-0.704157
-0.736112
-0.784308
-0.84145
-0.85976
-0.845365
-0.834891
-0.818925
-0.800991
-0.789602
-0.796371
-0.839129
-0.878488
-0.887428
-0.894433
-0.891763
-0.892257
-0.88692
-0.88019
-0.886958
-0.915757
-0.948296
-0.938872
-0.937521
-0.938441
-0.935849
-0.945045
-0.947632
-0.94611
-0.958546
-0.982548
-0.988691
-0.952444
352.199
353.03
354.529
356.564
358.963
361.529
364.034
366.29
368.103
369.345
303.11
303.939
305.543
307.698
310.239
312.955
315.621
318.024
319.943
321.245
253.98
254.893
256.658
259.064
261.893
264.905
267.881
270.611
272.742
274.106
204.865
205.887
207.955
210.752
214.018
217.522
221.076
224.254
226.707
228.183
156.367
157.406
159.716
162.902
166.665
170.692
174.869
178.863
181.976
183.717
108.554
109.312
112.191
115.797
119.971
124.328
129.735
135.005
139.016
141.135
63.7881
63.737
66.1418
69.8202
74.3615
79.2879
85.7528
92.4517
97.8937
100.994
26.2458
24.017
24.8855
27.0624
31.0812
37.9222
45.911
52.3938
59.4948
63.9802
8.36666
3.16288
2.23478
3.19112
4.7682
8.58219
16.1578
24.0223
30.092
35.1559
-0.352188
-0.332609
-0.319077
-0.308622
-0.319975
-0.315319
0.703923
5.86629
13.1731
17.4898
-0.413696
-0.409641
-0.426675
-0.445737
-0.443012
-0.426313
-0.409384
-0.40726
-0.287538
0.368296
-0.466696
-0.470609
-0.486981
-0.512669
-0.513245
-0.482701
-0.491032
-0.499282
-0.532096
-0.554139
-0.534465
-0.541163
-0.545996
-0.559779
-0.55476
-0.539937
-0.547327
-0.573566
-0.619934
-0.633783
-0.604934
-0.606377
-0.596708
-0.593977
-0.585419
-0.576742
-0.588635
-0.633747
-0.693
-0.69574
-0.669791
-0.667588
-0.655801
-0.64354
-0.62897
-0.612997
-0.616962
-0.651933
-0.717311
-0.726559
-0.732875
-0.734313
-0.722007
-0.705314
-0.683874
-0.664557
-0.654345
-0.662469
-0.695743
-0.729908
-0.786564
-0.796317
-0.784647
-0.768129
-0.744052
-0.723645
-0.707612
-0.700593
-0.72389
-0.772612
-0.834241
-0.841248
-0.83627
-0.828302
-0.811569
-0.795637
-0.782399
-0.782177
-0.81288
-0.843624
-0.883058
-0.878819
-0.880223
-0.883371
-0.87623
-0.866248
-0.861246
-0.868321
-0.882307
-0.880831
-0.932944
-0.921845
-0.925471
-0.935424
-0.934082
-0.927747
-0.924906
-0.923198
-0.907183
-0.881569
355.577
356.246
357.578
359.425
361.631
364.007
366.347
368.475
370.192
371.349
306.707
307.44
308.848
310.791
313.108
315.638
318.103
320.375
322.196
323.419
258.23
259.032
260.518
262.64
265.166
267.822
270.666
273.242
275.244
276.516
210.149
211.025
212.691
215.08
217.916
221.04
224.265
227.269
229.572
230.918
163.134
163.964
165.727
168.327
171.295
174.572
178.657
182.462
185.378
186.856
117.527
118.054
119.839
122.609
125.277
128.376
134.1
138.967
142.814
144.601
74.9034
74.2767
75.4143
77.8457
81.232
85.6754
91.5884
97.5815
102.513
104.929
37.9153
34.6141
33.2228
34.3634
39.3277
46.3224
53.2685
59.2162
65.2806
68.437
17.424
9.00147
6.676
6.73667
8.95677
15.3026
22.3206
28.8293
34.7239
37.9323
0.00800778
-0.3358
-0.336396
-0.348573
-0.381702
0.0511028
2.60775
7.15578
14.5441
18.7036
-0.425938
-0.425129
-0.440485
-0.46687
-0.468236
-0.429474
-0.410166
-0.399751
-0.151819
0.857594
-0.488008
-0.486581
-0.505557
-0.535479
-0.527835
-0.502909
-0.510515
-0.536391
-0.591433
-0.58174
-0.544618
-0.549416
-0.557442
-0.577527
-0.569567
-0.553615
-0.574195
-0.628732
-0.670892
-0.648891
-0.611132
-0.611675
-0.604369
-0.601072
-0.590015
-0.586488
-0.614529
-0.680651
-0.739083
-0.715139
-0.67383
-0.669809
-0.654643
-0.64167
-0.62517
-0.615468
-0.632582
-0.674374
-0.719787
-0.724306
-0.730548
-0.726378
-0.711737
-0.699562
-0.680176
-0.663435
-0.664232
-0.672367
-0.695344
-0.721087
-0.78239
-0.783653
-0.774317
-0.759748
-0.740357
-0.72497
-0.715929
-0.709419
-0.723854
-0.757228
-0.832773
-0.835379
-0.831705
-0.821853
-0.804953
-0.793
-0.783355
-0.778904
-0.792236
-0.814359
-0.883798
-0.882798
-0.88305
-0.881001
-0.868684
-0.859658
-0.851691
-0.848762
-0.852343
-0.855051
-0.933684
-0.929223
-0.932465
-0.9357
-0.927435
-0.918059
-0.910616
-0.902581
-0.8907
-0.873364
357.884
358.498
359.742
361.477
363.565
365.814
368.056
370.102
371.757
372.891
309.195
309.865
311.168
312.98
315.149
317.534
319.928
322.125
323.901
325.087
261.123
261.79
263.153
265.118
267.479
270.051
272.727
275.186
277.134
278.38
213.607
214.368
215.825
217.985
220.601
223.54
226.639
229.502
231.722
233.031
167.314
167.932
169.487
171.746
174.394
177.691
181.614
185.192
187.903
189.236
122.635
122.877
124.405
126.81
128.895
132.098
137.602
142.233
145.685
147.177
80.8307
80.1749
81.0991
83.0359
85.6773
90.279
96.4587
101.837
105.912
107.638
43.6451
40.509
39.762
42.133
46.5207
52.499
58.4027
64.5741
69.4625
71.363
19.7841
13.3945
10.9188
12.2635
16.4297
22.7966
28.1272
32.9484
37.975
40.2277
1.00945
-0.254927
-0.307845
-0.373884
0.0744444
2.41616
5.90915
12.0306
17.3862
19.5575
-0.441863
-0.426274
-0.451739
-0.496374
-0.481254
-0.43534
-0.417478
-0.422428
0.416266
1.28479
-0.502323
-0.493072
-0.521809
-0.554681
-0.545571
-0.527846
-0.538437
-0.591269
-0.640394
-0.579141
-0.552543
-0.554901
-0.571411
-0.596036
-0.584071
-0.578027
-0.615324
-0.681805
-0.700938
-0.636388
-0.6131
-0.615132
-0.609932
-0.609352
-0.594683
-0.60405
-0.646334
-0.717073
-0.743754
-0.695082
-0.67267
-0.668749
-0.656977
-0.637351
-0.623825
-0.623091
-0.646126
-0.683234
-0.710819
-0.697541
-0.728604
-0.721613
-0.70622
-0.696503
-0.679469
-0.666181
-0.672765
-0.68254
-0.694644
-0.705439
-0.78118
-0.775925
-0.761894
-0.752381
-0.737754
-0.726607
-0.723632
-0.71807
-0.725797
-0.746399
-0.833009
-0.831618
-0.821808
-0.813892
-0.799619
-0.789953
-0.784079
-0.77844
-0.784955
-0.80491
-0.884976
-0.886675
-0.880602
-0.876124
-0.861068
-0.854178
-0.847512
-0.841377
-0.845226
-0.857684
-0.934784
-0.938496
-0.936075
-0.934277
-0.919482
-0.913835
-0.906125
-0.897768
-0.893169
-0.895502
359.019
359.651
360.873
362.57
364.619
366.845
369.049
371.035
372.675
373.869
310.412
311.082
312.351
314.126
316.265
318.63
321
323.14
324.89
326.242
262.438
263.114
264.445
266.373
268.7
271.275
273.895
276.279
278.201
279.541
215.217
215.92
217.314
219.429
222.052
224.977
227.993
230.712
232.876
234.213
169.029
169.624
171.16
173.447
176.37
179.814
183.47
186.647
189.113
190.615
124.449
124.704
126.389
129.002
131.689
135.72
140.383
144.228
147.11
148.726
82.6608
82.3453
83.4803
85.5284
88.3388
93.6098
99.4052
104.147
107.57
109.011
44.5198
42.7859
43.4034
45.9213
49.1826
55.1705
61.587
67.2916
71.4006
72.726
19.4099
16.0585
15.3641
18.7231
23.5459
26.1596
30.068
35.55
40.2733
41.6099
1.4199
-0.00255333
-0.0737531
0.405846
2.35903
5.43948
10.6603
15.8201
19.8866
19.844
-0.442109
-0.415346
-0.465685
-0.513109
-0.46089
-0.437662
-0.447281
0.0964521
1.59921
1.39381
-0.505425
-0.491428
-0.534488
-0.573771
-0.557501
-0.543322
-0.578614
-0.661805
-0.649762
-0.539912
-0.557644
-0.559016
-0.585428
-0.611294
-0.594799
-0.608295
-0.672526
-0.725571
-0.697351
-0.60095
-0.612873
-0.618654
-0.613
-0.614882
-0.597724
-0.630347
-0.691131
-0.735104
-0.72866
-0.656403
-0.667448
-0.668141
-0.659671
-0.631779
-0.616519
-0.634163
-0.660943
-0.695176
-0.701312
-0.674068
-0.722581
-0.718274
-0.708128
-0.695464
-0.678745
-0.67168
-0.681331
-0.694579
-0.697923
-0.70014
-0.776896
-0.771093
-0.760348
-0.750467
-0.736336
-0.727537
-0.728199
-0.728463
-0.731951
-0.750701
-0.831508
-0.826933
-0.817867
-0.80818
-0.798392
-0.787267
-0.785689
-0.782312
-0.792666
-0.819037
-0.8849
-0.884208
-0.877109
-0.867515
-0.859951
-0.851686
-0.84932
-0.848431
-0.862639
-0.887344
-0.934776
-0.93869
-0.931338
-0.926776
-0.918178
-0.912426
-0.912134
-0.913784
-0.930995
-0.947003
359.042
359.686
360.922
362.642
364.717
366.969
369.195
371.205
372.864
374.104
310.344
311.075
312.352
314.157
316.326
318.727
321.128
323.29
325.064
326.375
262.254
262.969
264.331
266.315
268.705
271.329
273.984
276.403
278.375
279.693
214.791
215.567
217.033
219.241
221.98
224.983
228.026
230.789
233.038
234.419
168.196
168.924
170.571
173.099
176.253
179.782
183.389
186.611
189.211
190.815
123.002
123.557
125.419
128.483
131.954
135.934
140.184
144.014
147.049
148.756
80.2633
80.557
82.2787
85.533
89.2194
93.7359
99.0102
103.815
107.352
108.826
40.2864
40.4966
42.1839
45.1005
48.9316
54.4717
60.9535
67.1199
71.1724
72.2451
16.3025
14.708
16.2924
20.1135
23.883
25.253
29.7977
36.361
40.562
40.8754
0.651265
-0.00950153
0.0502883
0.99105
3.40181
6.76211
11.4942
16.9938
19.9279
18.169
-0.407731
-0.353699
-0.45196
-0.512368
-0.454223
-0.434888
-0.424807
0.35651
1.34243
0.732509
-0.482012
-0.476163
-0.546738
-0.580786
-0.560323
-0.550378
-0.608613
-0.678332
-0.635966
-0.495373
-0.550029
-0.562857
-0.607678
-0.617799
-0.601679
-0.629546
-0.715814
-0.743647
-0.678033
-0.574989
-0.615379
-0.622836
-0.631382
-0.621873
-0.606579
-0.656017
-0.730048
-0.750822
-0.713758
-0.643735
-0.66748
-0.672149
-0.666092
-0.640526
-0.619147
-0.649244
-0.689977
-0.715178
-0.707239
-0.68702
-0.720793
-0.721343
-0.711624
-0.695941
-0.680187
-0.682497
-0.702081
-0.718542
-0.724025
-0.735514
-0.775686
-0.774416
-0.760079
-0.749719
-0.740276
-0.73628
-0.745036
-0.753384
-0.770879
-0.798484
-0.83061
-0.828712
-0.812575
-0.803575
-0.79858
-0.793276
-0.798962
-0.815426
-0.843882
-0.872209
-0.884738
-0.884671
-0.875309
-0.865124
-0.86183
-0.854081
-0.864993
-0.897121
-0.930233
-0.946277
-0.935047
-0.936317
-0.934392
-0.925345
-0.921204
-0.915786
-0.938053
-0.983485
-1.00513
-1.00093
357.829
358.629
359.906
361.689
363.846
366.177
368.498
370.617
372.358
373.574
308.969
309.822
311.157
313.045
315.311
317.819
320.313
322.592
324.459
325.727
260.518
261.315
262.785
264.898
267.462
270.246
273.03
275.559
277.621
278.975
212.42
213.238
214.872
217.3
220.308
223.563
226.819
229.749
232.129
233.546
164.811
165.662
167.534
170.358
173.922
177.878
181.793
185.264
188.024
189.578
118.215
118.944
121.21
124.818
128.968
133.568
138.131
142.195
145.338
147.077
73.9889
73.7812
76.3026
80.5425
85.1893
90.4699
96.0973
101.246
104.965
106.712
33.878
33.0956
35.0749
39.3174
44.1238
49.9587
56.8826
63.7036
68.3062
69.8823
9.42677
8.24525
9.87244
13.6587
18.0931
21.6004
26.6164
33.6505
38.2136
38.6381
-0.109223
-0.170268
-0.224741
-0.176811
1.42246
4.51556
8.70872
13.5437
16.8572
15.3877
-0.34557
-0.362302
-0.452037
-0.496697
-0.46072
-0.43716
-0.500027
-0.314627
0.2658
-0.0303363
-0.455799
-0.49453
-0.561672
-0.575344
-0.549867
-0.550634
-0.630004
-0.687595
-0.64635
-0.531601
-0.54784
-0.588484
-0.628915
-0.631025
-0.601089
-0.637888
-0.743443
-0.750671
-0.675005
-0.58589
-0.614174
-0.639335
-0.65597
-0.650236
-0.626646
-0.67858
-0.766786
-0.770793
-0.717956
-0.661451
-0.668947
-0.67711
-0.68431
-0.665576
-0.638296
-0.671065
-0.728471
-0.749601
-0.736266
-0.724988
-0.719823
-0.718324
-0.720736
-0.713835
-0.692869
-0.703612
-0.736712
-0.759247
-0.770579
-0.788757
-0.773558
-0.768971
-0.763559
-0.760799
-0.752914
-0.756252
-0.773241
-0.797535
-0.830737
-0.863874
-0.828814
-0.826013
-0.81161
-0.810725
-0.809771
-0.812484
-0.828054
-0.86575
-0.919057
-0.95088
-0.884376
-0.884995
-0.871069
-0.874071
-0.869478
-0.871919
-0.895786
-0.955013
-1.01378
-1.02176
-0.937413
-0.938731
-0.935758
-0.940942
-0.928431
-0.932194
-0.972266
-1.04446
-1.08376
-1.06433
355.795
356.714
358.059
359.951
362.239
364.707
367.159
369.399
371.238
372.521
306.734
307.619
309.065
311.087
313.512
316.163
318.809
321.213
323.172
324.524
257.647
258.55
260.174
262.475
265.256
268.256
271.241
273.937
276.106
277.513
208.518
209.489
211.371
214.096
217.49
221.005
224.541
227.714
230.272
231.776
159.298
160.406
162.705
165.882
169.887
174.403
178.79
182.663
185.704
187.452
110.129
111.362
114.328
118.558
123.754
129.169
134.386
139.006
142.486
144.534
60.9972
62.5257
66.1988
70.8161
77.2278
84.2669
91.1337
97.223
101.508
103.758
19.2078
19.7278
23.0416
28.4111
35.6779
42.1923
50.3431
58.1559
63.7886
66.3099
2.21886
1.39552
2.39586
4.595
8.5242
14.5683
19.9524
27.9801
33.766
35.0989
-0.256273
-0.256159
-0.314554
-0.350165
-0.315712
1.00261
3.67302
7.52972
11.7938
12.0146
-0.377649
-0.413255
-0.459659
-0.476822
-0.451049
-0.455299
-0.54407
-0.628414
-0.535224
-0.48953
-0.482752
-0.531004
-0.553958
-0.560564
-0.523404
-0.540243
-0.630444
-0.686613
-0.654041
-0.580304
-0.570214
-0.604593
-0.622602
-0.642752
-0.602195
-0.642612
-0.762656
-0.764153
-0.688157
-0.616853
-0.626756
-0.646129
-0.660997
-0.682783
-0.651667
-0.700888
-0.802269
-0.800866
-0.740048
-0.691799
-0.675085
-0.681572
-0.681572
-0.685469
-0.660529
-0.693093
-0.773687
-0.796378
-0.774414
-0.762848
-0.728483
-0.72967
-0.712354
-0.712919
-0.699803
-0.721147
-0.776619
-0.8065
-0.816356
-0.834191
-0.782134
-0.784063
-0.767095
-0.76083
-0.758827
-0.77491
-0.810406
-0.844233
-0.884952
-0.921029
-0.832321
-0.832222
-0.829442
-0.821594
-0.825854
-0.842243
-0.870809
-0.917157
-0.98241
-1.01819
-0.877676
-0.881236
-0.892975
-0.887031
-0.887376
-0.905037
-0.939009
-1.00456
-1.0772
-1.09679
-0.930373
-0.93962
-0.95256
-0.949987
-0.945354
-0.964235
-1.00848
-1.08531
-1.13958
-1.13215
353.152
354.126
355.575
357.607
360.047
362.696
365.317
367.711
369.679
371.072
303.785
304.695
306.285
308.477
311.098
313.926
316.76
319.342
321.446
322.915
253.967
254.962
256.768
259.295
262.32
265.596
268.833
271.751
274.106
275.665
203.654
204.726
206.889
209.944
213.645
217.645
221.529
225.012
227.798
229.531
152.745
153.917
156.623
160.382
164.971
169.846
174.799
179.186
182.605
184.666
101.01
101.999
105.872
110.759
116.816
123.365
129.527
134.883
138.794
141.22
47.3828
48.3542
54.0581
60.0043
67.9308
76.089
84.3524
91.8057
97.043
99.8726
8.57327
8.92298
11.7996
16.0374
24.5285
33.6964
42.117
50.9597
57.3437
61.1399
-0.124202
-0.147117
-0.111876
0.0580446
1.82346
6.15992
12.8624
20.937
27.29
29.8454
-0.263567
-0.275854
-0.291044
-0.301633
-0.347704
-0.32178
0.602772
3.12413
6.37029
7.84517
-0.390723
-0.411594
-0.427925
-0.443339
-0.461423
-0.451184
-0.51378
-0.622618
-0.661362
-0.60021
-0.490552
-0.515988
-0.523802
-0.537293
-0.530746
-0.529924
-0.626288
-0.685724
-0.653231
-0.597039
-0.572289
-0.589893
-0.599886
-0.640963
-0.612511
-0.658078
-0.778393
-0.782555
-0.707156
-0.642644
-0.631266
-0.640711
-0.644843
-0.714418
-0.674822
-0.73586
-0.839124
-0.837368
-0.764863
-0.713061
-0.684298
-0.691099
-0.665306
-0.688637
-0.681491
-0.722988
-0.820114
-0.849238
-0.809174
-0.784527
-0.737972
-0.75094
-0.708972
-0.695852
-0.701478
-0.735659
-0.814096
-0.8509
-0.848516
-0.854719
-0.788485
-0.806894
-0.773435
-0.75968
-0.761725
-0.786825
-0.838818
-0.881219
-0.911189
-0.938861
-0.836769
-0.853474
-0.843846
-0.832414
-0.838947
-0.860384
-0.904536
-0.949908
-0.998936
-1.0324
-0.882639
-0.894524
-0.907492
-0.903142
-0.906835
-0.932882
-0.974272
-1.02804
-1.08597
-1.11111
-0.929621
-0.938317
-0.95979
-0.962942
-0.967664
-0.992561
-1.03864
-1.10193
-1.15259
-1.15601
350.15
351.154
352.733
354.925
357.54
360.372
363.181
365.745
367.846
369.348
300.426
301.376
303.137
305.515
308.342
311.398
314.406
317.175
319.435
321.028
249.871
250.904
252.952
255.73
259.019
262.572
266.095
269.254
271.801
273.527
198.345
199.467
201.919
205.342
209.41
213.811
218.215
222.004
225
226.983
145.769
146.997
149.973
154.228
159.395
164.984
170.24
175.173
179.089
181.583
91.463
92.4302
96.7867
102.499
109.39
116.73
123.989
130.466
134.739
137.752
35.5881
35.4396
41.461
48.344
57.7036
67.8287
77.3016
85.3491
91.9268
95.6507
3.90167
3.95699
6.02857
8.70462
13.9063
23.5356
34.1772
43.4106
50.3811
55.4678
-0.27594
-0.233234
-0.2089
-0.222136
-0.0826198
1.4698
6.89891
14.6805
20.9448
25.1289
-0.298176
-0.291717
-0.282197
-0.29249
-0.296269
-0.346288
-0.36119
0.594956
2.75846
4.63567
-0.394629
-0.400092
-0.404509
-0.43418
-0.454563
-0.45679
-0.484671
-0.568904
-0.612525
-0.58696
-0.485381
-0.495202
-0.496707
-0.517357
-0.535998
-0.540871
-0.611683
-0.670274
-0.64334
-0.592176
-0.56789
-0.579864
-0.578016
-0.609025
-0.612306
-0.672353
-0.782434
-0.785393
-0.71261
-0.649028
-0.633401
-0.650879
-0.643489
-0.688751
-0.6798
-0.753557
-0.861382
-0.861779
-0.77919
-0.715579
-0.68716
-0.710237
-0.691925
-0.69871
-0.706737
-0.754644
-0.858693
-0.894698
-0.836226
-0.788274
-0.736059
-0.763374
-0.746859
-0.726468
-0.72608
-0.759355
-0.845383
-0.887748
-0.870568
-0.854389
-0.780321
-0.804769
-0.800884
-0.790132
-0.790644
-0.815538
-0.866532
-0.908486
-0.924499
-0.93011
-0.823683
-0.843066
-0.856086
-0.864489
-0.878944
-0.907213
-0.946008
-0.981526
-1.00581
-1.01761
-0.869933
-0.881552
-0.910126
-0.935178
-0.961081
-0.988213
-1.02928
-1.07093
-1.10112
-1.10655
-0.917662
-0.924654
-0.954669
-0.987305
-1.01802
-1.05337
-1.10247
-1.15407
-1.17825
-1.15898
347.09
348.056
349.826
352.189
354.974
357.982
360.964
363.698
365.926
367.523
296.964
297.948
299.988
302.527
305.539
308.797
312.02
314.949
317.347
319.055
245.635
246.744
249.157
252.187
255.706
259.5
263.258
266.658
269.415
271.302
192.919
194.091
196.95
200.795
205.212
209.949
214.62
218.812
222.139
224.378
138.763
140.212
143.402
148.204
153.863
160.022
166.041
171.4
175.546
178.618
82.1839
83.3458
88.1122
94.5593
102.194
110.172
118.077
125.154
130.601
134.194
25.5194
24.7141
30.3977
37.3657
47.4756
58.9216
70.017
79.2995
86.6479
91.3775
1.199
1.09583
2.67599
4.73699
7.95769
14.7398
26.1656
36.567
44.4771
50.0379
-0.184307
-0.172952
-0.145174
-0.123359
-0.194994
0.0870103
2.78599
9.11228
16.5321
21.5246
-0.293621
-0.291963
-0.282058
-0.299999
-0.306747
-0.299807
-0.368949
-0.38473
0.457412
2.4267
-0.383648
-0.389938
-0.389707
-0.422592
-0.44117
-0.445665
-0.474478
-0.50798
-0.560191
-0.554987
-0.47193
-0.479911
-0.474154
-0.489313
-0.52318
-0.546983
-0.592647
-0.631833
-0.615763
-0.574411
-0.560584
-0.570574
-0.558034
-0.551669
-0.586426
-0.667535
-0.759108
-0.755011
-0.69088
-0.632184
-0.634125
-0.654525
-0.649315
-0.636332
-0.655917
-0.744138
-0.851446
-0.85141
-0.771644
-0.702205
-0.683886
-0.722275
-0.73228
-0.718358
-0.719816
-0.77393
-0.872164
-0.908015
-0.848156
-0.781526
-0.729179
-0.771916
-0.798318
-0.789386
-0.771388
-0.796115
-0.868372
-0.910425
-0.883314
-0.844215
-0.769329
-0.804551
-0.846575
-0.861154
-0.851844
-0.859132
-0.896195
-0.926508
-0.929884
-0.916476
-0.811156
-0.835334
-0.890329
-0.932602
-0.953321
-0.96811
-0.997003
-1.01887
-1.01847
-1.00392
-0.858836
-0.877658
-0.932623
-1.0019
-1.05281
-1.08803
-1.11611
-1.12711
-1.11977
-1.09194
-0.910143
-0.920663
-0.964272
-1.03931
-1.10651
-1.15722
-1.19224
-1.20369
-1.18157
-1.13252
344.165
345.207
347.125
349.651
352.59
355.754
358.885
361.745
364.092
365.781
293.679
294.838
297.025
299.776
302.953
306.386
309.776
312.869
315.399
317.206
241.53
242.836
245.656
248.979
252.689
256.68
260.634
264.228
267.149
269.207
187.624
188.791
192.325
196.633
201.412
206.456
211.381
215.832
219.391
221.937
131.969
132.696
137.242
142.737
148.931
155.543
161.962
167.693
172.122
175.555