/*--------------------------------*- C++ -*----------------------------------*\
| =========                 |                                                 |
| \\      /  F ield         | OpenFOAM: The Open Source CFD Toolbox           |
|  \\    /   O peration     | Version:  2312                                  |
|   \\  /    A nd           | Website:  www.openfoam.com                      |
|    \\/     M anipulation  |                                                 |
\*---------------------------------------------------------------------------*/
FoamFile
{
    version     2.0;
    format      ascii;
    arch        "LSB;label=32;scalar=64";
    class       volVectorField;
    location    "0.89";
    object      U;
}
// * * * * * * * * * * * * * * * * * * * * * * * * * * * * * * * * * * * * * //

dimensions      [0 1 -1 0 0 0 0];

internalField   nonuniform List<vector> 
8000
(
(-0.00281435 0.00244974 -0.00311483)
(-0.00326271 0.000767566 -0.0050291)
(-0.000375004 0.000824621 -0.0051422)
(0.00111695 0.000785382 -0.00395799)
(0.00169638 0.000541611 -0.00264426)
(0.00191415 0.00026682 -0.00181316)
(0.002076 0.000101406 -0.00145029)
(0.00228427 4.6961e-06 -0.00144457)
(0.00274522 -0.000126573 -0.00163621)
(0.00385173 -0.000151853 -0.00192951)
(-0.00419524 0.012089 -0.00462708)
(-0.00508727 0.00784523 -0.0088435)
(-0.00292872 0.00777153 -0.00949675)
(-0.00233047 0.00668612 -0.00694076)
(-0.00222126 0.00426724 -0.00421007)
(-0.00180297 0.00221736 -0.00270138)
(-0.000835027 0.00106351 -0.00213237)
(0.00042767 0.000494356 -0.0019226)
(0.00183379 4.41267e-06 -0.00173753)
(0.00402692 -0.000459484 -0.00178872)
(-0.00245488 0.0218172 -0.00343652)
(-0.000657579 0.0138979 -0.00879847)
(-0.00143645 0.0176236 -0.0128208)
(-0.00390633 0.0161648 -0.0104087)
(-0.00469991 0.0102307 -0.00593261)
(-0.00355191 0.00461899 -0.00291808)
(-0.00197876 0.00148827 -0.00162456)
(-0.00072801 -0.000238907 -0.00100621)
(0.000376738 -0.00207923 -0.000216623)
(0.00364418 -0.00335509 0.000708919)
(0.00528447 0.0215261 0.00105611)
(0.00713192 0.00935885 0.00100431)
(0.000426286 0.0230889 -0.00710959)
(-0.00990901 0.0260767 -0.00828362)
(-0.013609 0.0164203 -0.00483987)
(-0.0106591 0.00595749 -0.00155414)
(-0.00716678 0.000551121 7.38477e-05)
(-0.00671398 -0.00112689 0.00151863)
(-0.00635356 -0.0051489 0.00498261)
(0.00178576 -0.014101 0.00763503)
(0.0160497 0.0111871 0.00987768)
(0.00110286 0.00162235 0.024176)
(-0.0201587 0.0286267 0.00940771)
(-0.0321768 0.0321085 0.00139683)
(-0.0373214 0.0171528 0.00275894)
(-0.0304122 0.00163461 0.00490629)
(-0.0198666 -0.00364131 0.00497167)
(-0.0160796 -0.00648149 0.00587679)
(-0.00898629 -0.0252755 0.00839923)
(0.0075151 -0.0437006 0.0062278)
(0.00729058 -0.0571021 0.0331593)
(-0.0312665 -0.0482065 0.0409192)
(-0.0674865 -0.00815678 0.0350778)
(-0.0702118 0.0152442 0.0175695)
(-0.063812 -0.00293986 0.0074218)
(-0.0451515 -0.028268 0.00413773)
(-0.0213621 -0.029822 0.00473037)
(-0.0070815 -0.0270482 0.00467777)
(0.00436077 -0.0543287 -0.00359362)
(0.0178712 -0.0644395 -0.00968008)
(-0.0533821 -0.0129091 0.0373858)
(-0.0805588 0.0446585 -0.0566828)
(-0.102688 -0.0433081 0.00609756)
(-0.089611 -0.0505628 0.022358)
(-0.0732963 -0.0506022 0.00880538)
(-0.0457227 -0.0642944 -0.00610595)
(-0.0177946 -0.0617622 -0.00673121)
(0.00392208 -0.0448385 -0.00718367)
(0.0121471 -0.0595085 -0.0226946)
(0.0141709 -0.0629581 -0.0290966)
(-0.0760509 0.252731 -0.13248)
(-0.0834501 0.347552 -0.334618)
(-0.169658 0.118035 -0.265263)
(-0.255314 0.0297513 -0.0755065)
(-0.126945 -0.0792972 -0.0057744)
(-0.0841518 -0.0847635 -0.00340603)
(-0.0485417 -0.0772788 -0.00613013)
(-0.0118176 -0.0528595 -0.0209474)
(0.00309798 -0.0521346 -0.0276499)
(-0.0292871 -0.0472556 -0.0355436)
(-0.0644854 0.372253 0.039962)
(0.0367095 0.5444 -0.151978)
(0.0968658 0.423699 -0.122291)
(0.137586 0.343209 -0.0546062)
(0.16015 -0.134405 -0.0626491)
(-0.032856 -0.156659 0.0135367)
(-0.0306354 -0.17973 0.0339488)
(-0.0634495 -0.0974059 0.0142497)
(-0.0580055 -0.0339059 0.0263348)
(-0.143522 -0.0148733 0.0195398)
(-0.0180223 0.293423 0.048939)
(0.0930474 0.43521 -0.00866611)
(0.204981 0.380615 -0.0219213)
(0.332654 0.26393 -0.0248091)
(0.34523 0.154658 -0.0352776)
(0.299553 0.0665369 -0.0479634)
(0.190309 -0.224539 0.0178047)
(-0.140744 -0.178965 0.0552744)
(-0.21487 -0.00471774 0.0505837)
(-0.262325 0.02906 0.0448901)
(0.0131162 0.210306 -0.0132239)
(0.0910309 0.251275 -0.0293618)
(0.189087 0.201384 -0.0328065)
(0.271913 0.0949118 -0.0339206)
(0.343281 0.0604099 -0.0205468)
(0.38366 0.0650699 -0.00434556)
(0.327821 0.0455555 0.0405121)
(-0.0110384 -0.00769728 0.07001)
(-0.194457 -0.0155817 0.0591608)
(-0.241445 -0.0480002 0.0354544)
(0.0198756 0.193921 -0.0449981)
(0.0802417 0.199659 -0.0606262)
(0.151633 0.157077 -0.0451348)
(0.219733 0.0841819 -0.0389873)
(0.275048 0.0393142 -0.0121254)
(0.299021 0.0454513 0.0208665)
(0.265177 0.0567299 0.0660733)
(0.0263943 0.0562248 0.0754412)
(-0.190755 0.00184999 0.0320566)
(-0.256919 -0.0482715 -0.00282864)
(0.0206613 0.210968 -0.0580971)
(0.0645988 0.215239 -0.0644555)
(0.104343 0.163804 -0.0402037)
(0.164069 0.0941961 -0.0471211)
(0.221074 0.0720435 -0.0416842)
(0.242476 0.0844713 0.0044225)
(0.189688 0.0919727 0.0751687)
(-0.0701127 0.0858035 0.0688384)
(-0.242317 0.0326355 0.0181712)
(-0.284232 -0.0281751 -0.0212253)
(0.0128769 0.237796 -0.0599725)
(0.0335352 0.238979 -0.0488411)
(0.0425542 0.172663 -0.0237366)
(0.112195 0.126364 -0.0624843)
(0.167225 0.135903 -0.073067)
(0.206813 0.142678 -0.00376542)
(0.08981 0.108945 0.0817543)
(-0.192796 0.0920582 0.0665316)
(-0.308059 0.0538814 0.035221)
(-0.309937 0.00306214 -0.00381341)
(-0.00218901 0.273216 -0.0484155)
(-0.0108003 0.253038 -0.023484)
(-0.0104192 0.194438 -0.0197396)
(0.0718206 0.188919 -0.0790283)
(0.118859 0.208935 -0.0789576)
(0.165555 0.183723 0.0113095)
(-0.0366003 0.113674 0.0839095)
(-0.289066 0.106354 0.0754784)
(-0.37133 0.062994 0.0449965)
(-0.329383 -0.0202633 -0.000329562)
(-0.0184068 0.299664 -0.0160869)
(-0.0520514 0.275838 -0.00400118)
(-0.0452817 0.237804 -0.0330281)
(0.0382356 0.259933 -0.0856586)
(0.0832034 0.268009 -0.0584165)
(0.107013 0.191602 0.0381156)
(-0.161483 0.130571 0.0791851)
(-0.361357 0.130565 0.0665932)
(-0.407842 0.061217 0.0168359)
(-0.341775 -0.0611543 -0.0308031)
(-0.0272274 0.299165 0.0251381)
(-0.075233 0.318624 0.00805016)
(-0.069987 0.293897 -0.0450564)
(0.00572839 0.321502 -0.0795307)
(0.0550914 0.304382 -0.0283991)
(0.0123903 0.182841 0.0594468)
(-0.266697 0.173166 0.0609759)
(-0.41218 0.165041 0.0277542)
(-0.416824 0.069029 -0.0362952)
(-0.364265 -0.073654 -0.0601943)
(-0.0216057 0.261184 0.0512454)
(-0.0781782 0.355083 0.0220073)
(-0.0894791 0.346521 -0.0447738)
(-0.0266834 0.365017 -0.064867)
(0.0288278 0.315279 0.00657788)
(-0.0934376 0.198252 0.0640699)
(-0.34556 0.238102 0.0321228)
(-0.436673 0.224815 -0.0238852)
(-0.411498 0.117086 -0.0821073)
(-0.38282 -0.0369856 -0.0708843)
(-0.0169622 0.19554 0.053227)
(-0.0697446 0.367679 0.0408964)
(-0.0964851 0.396263 -0.0175113)
(-0.0445001 0.391849 -0.0260201)
(-0.00443855 0.307869 0.046613)
(-0.175778 0.243255 0.0570958)
(-0.382088 0.315155 0.00479849)
(-0.422527 0.308234 -0.065795)
(-0.38542 0.197933 -0.109569)
(-0.368479 0.0204452 -0.0612005)
(-0.0269335 0.134079 0.0427268)
(-0.0646384 0.334601 0.0631941)
(-0.0824703 0.392711 0.0413211)
(-0.0391963 0.372411 0.0441903)
(-0.0379372 0.296499 0.0775442)
(-0.214 0.296654 0.0489591)
(-0.3708 0.382347 -0.00592062)
(-0.379629 0.390569 -0.0766971)
(-0.327664 0.275032 -0.101784)
(-0.30182 0.0683225 -0.0232671)
(-0.00472837 0.000630936 -0.00373888)
(-0.00465599 -0.00384251 -0.00515472)
(0.00255313 -0.00460539 -0.00600028)
(0.00705803 -0.00338541 -0.0045575)
(0.00880673 -0.00214473 -0.00249327)
(0.00902334 -0.00154868 -0.000970175)
(0.00875649 -0.00135509 -8.89673e-05)
(0.00824266 -0.00119893 0.000276288)
(0.00725011 -0.000940381 0.000277481)
(0.00609213 -0.000755885 -0.000134201)
(-0.00840917 0.00727307 -0.00581188)
(-0.0040143 -0.0109096 -0.00546681)
(0.00608466 -0.0123429 -0.00856358)
(0.00935968 -0.0066247 -0.00881654)
(0.00870043 -0.00331573 -0.00573483)
(0.00738013 -0.0026887 -0.00277787)
(0.00684114 -0.00293973 -0.00115037)
(0.00675323 -0.00307763 -0.000356395)
(0.00636952 -0.00303864 0.000202044)
(0.0062335 -0.00353855 0.000313806)
(-0.00730812 0.0117013 -0.00239602)
(0.00982285 -0.035269 0.00678377)
(0.0211475 -0.0315118 0.00118752)
(0.0197766 -0.0118377 -0.00664443)
(0.0142025 -0.0024481 -0.00780625)
(0.0105358 -0.00269315 -0.00427373)
(0.00927272 -0.00477275 -0.00102961)
(0.00895934 -0.00575909 0.000933707)
(0.00803317 -0.00628576 0.00280995)
(0.00780513 -0.00762987 0.0047487)
(0.00493104 0.00558766 0.0047514)
(0.020983 -0.0637878 0.0259617)
(0.0240429 -0.0522372 0.0192653)
(0.0187273 -0.0182077 0.00626499)
(0.0103108 -0.00112136 -0.0022012)
(0.0075097 -0.00177466 -0.00254106)
(0.00789871 -0.00625413 0.00103254)
(0.00706319 -0.00781525 0.0049557)
(0.00428675 -0.00728081 0.0101637)
(0.00621179 -0.0110988 0.0158577)
(0.0209656 -0.00446804 0.0099805)
(0.0184499 -0.0749479 0.0413434)
(-0.00754508 -0.0537784 0.0409902)
(-0.0115878 -0.0140505 0.0231995)
(-0.0140961 0.00128765 0.0113223)
(-0.0104763 -0.00187125 0.00713715)
(-0.00396389 -0.00755614 0.00776467)
(-0.000853078 -0.00889806 0.011804)
(0.00110116 -0.0142873 0.0201967)
(0.0123993 -0.0299681 0.0256677)
(0.0259282 -0.0495084 -0.00875057)
(-0.00714683 -0.0558513 -0.000538695)
(-0.0679221 -0.0431555 0.0392077)
(-0.0550724 -0.0170748 0.0360433)
(-0.0453838 -0.00391308 0.0228927)
(-0.0309973 -0.0134163 0.0143315)
(-0.0133101 -0.0229612 0.00962321)
(0.00710477 -0.0271608 0.00629799)
(0.0250809 -0.0356626 0.00847878)
(0.0346023 -0.0450166 0.0113039)
(0.00579718 0.0718419 -0.119422)
(-0.0292975 0.149713 -0.161069)
(-0.121394 0.032641 -0.0700059)
(-0.0986051 -0.0403112 -0.00929202)
(-0.0669316 -0.037279 0.00646279)
(-0.036399 -0.0420259 0.00643364)
(-0.00670296 -0.0546869 0.0101306)
(0.0275658 -0.0635873 0.00520618)
(0.0440471 -0.0655245 0.00246125)
(0.0445349 -0.0543247 -0.000369281)
(-0.017855 0.262099 -0.25298)
(-0.138698 0.244478 -0.386761)
(-0.226767 0.14543 -0.329304)
(-0.247337 0.0372641 -0.209634)
(-0.12276 -0.0376294 -0.0850517)
(-0.0685106 -0.0619009 0.00519782)
(-0.0150959 -0.0740346 0.03698)
(0.0257048 -0.0677116 0.032482)
(0.0189316 -0.0636872 0.0147398)
(-0.00768819 -0.0410489 0.000307342)
(0.047134 0.386583 0.0391957)
(0.0430722 0.452211 -0.139867)
(-0.00209423 0.33206 -0.159887)
(0.0251003 0.194637 -0.11059)
(0.0741232 -0.0773883 -0.14913)
(-0.10237 -0.0735492 0.100227)
(-0.0567874 -0.126761 0.137291)
(-0.0763715 -0.0903913 0.0983956)
(-0.101313 -0.0284864 0.0263541)
(-0.18756 -0.032385 -0.0154894)
(0.0459889 0.248095 0.0924347)
(0.119434 0.355384 0.067531)
(0.160131 0.271303 0.0460258)
(0.239513 0.123099 0.0459918)
(0.309508 0.105113 -0.000746603)
(0.159153 0.214566 0.0355102)
(0.117882 0.015353 0.128518)
(-0.204427 -0.0283935 0.174571)
(-0.285348 0.148173 0.109712)
(-0.256187 0.149745 -0.0459033)
(0.016006 0.12661 -0.0184767)
(0.0763015 0.149294 0.027087)
(0.160739 0.0472859 0.0172503)
(0.233674 -0.0724061 -0.0308406)
(0.309752 -0.0482737 -0.00860384)
(0.310584 0.15226 0.0334604)
(0.323077 0.153249 0.111419)
(0.0215948 0.0369019 0.214644)
(-0.269917 0.158089 0.21123)
(-0.281788 0.142406 0.15442)
(0.00541121 0.131004 -0.0771388)
(0.0492622 0.0973872 -0.0579443)
(0.131467 0.0225493 -0.0587539)
(0.174333 -0.0567003 -0.114913)
(0.23135 -0.0105949 -0.0742412)
(0.250938 0.116855 0.0122581)
(0.295254 0.153421 0.119886)
(0.143141 0.122923 0.229907)
(-0.180664 0.180358 0.184587)
(-0.199214 0.163284 0.082274)
(0.00632887 0.147033 -0.0944891)
(0.025536 0.0946737 -0.0557936)
(0.0839495 0.0296628 -0.0739034)
(0.10021 -0.0237963 -0.171323)
(0.145157 0.0520162 -0.144435)
(0.129766 0.164918 -0.0136086)
(0.216091 0.174325 0.154238)
(0.0663324 0.171492 0.247849)
(-0.167285 0.203668 0.137475)
(-0.186273 0.172366 -0.0265115)
(-0.0119565 0.163181 -0.0531388)
(-0.0365536 0.0915595 0.00128431)
(0.0155578 0.049115 -0.10935)
(0.0236211 0.0577723 -0.219292)
(0.0446562 0.156613 -0.17848)
(0.0210822 0.200965 0.021725)
(0.151953 0.18164 0.222428)
(-0.107933 0.198659 0.235122)
(-0.219299 0.219662 0.0723896)
(-0.226869 0.182778 -0.0840669)
(-0.0499595 0.176582 0.00787171)
(-0.102611 0.102531 -0.00394787)
(-0.0640561 0.10502 -0.163881)
(-0.0588967 0.170854 -0.233421)
(-0.0489876 0.247359 -0.158943)
(0.0115018 0.202202 0.0982746)
(0.0192343 0.188862 0.258938)
(-0.249153 0.231694 0.18128)
(-0.274062 0.239338 0.00935174)
(-0.258792 0.190113 -0.0814786)
(-0.0819047 0.226146 0.0560537)
(-0.158034 0.145257 -0.0352371)
(-0.140165 0.188225 -0.190572)
(-0.135721 0.270118 -0.21476)
(-0.106513 0.302594 -0.0926641)
(0.0198325 0.213066 0.174033)
(-0.139369 0.218073 0.239694)
(-0.311776 0.263784 0.115221)
(-0.296436 0.251603 -0.027383)
(-0.253202 0.173535 -0.0504646)
(-0.0910369 0.301556 0.104803)
(-0.190778 0.219778 -0.0325665)
(-0.203526 0.270849 -0.179923)
(-0.197102 0.341379 -0.172846)
(-0.139998 0.332154 -0.0108821)
(-0.040612 0.245917 0.212386)
(-0.236895 0.272217 0.190219)
(-0.310691 0.304458 0.0430656)
(-0.292002 0.267421 -0.0589473)
(-0.223487 0.127495 -0.0356308)
(-0.0698817 0.349176 0.153957)
(-0.191868 0.31176 0.014287)
(-0.242531 0.341836 -0.133144)
(-0.238198 0.395391 -0.116225)
(-0.168251 0.367422 0.056459)
(-0.124375 0.311004 0.213)
(-0.270888 0.358229 0.128583)
(-0.27271 0.380178 -0.0330783)
(-0.273847 0.309474 -0.0924612)
(-0.243999 0.0927507 -0.0246624)
(-0.0366192 0.327803 0.176274)
(-0.174023 0.384438 0.0784873)
(-0.260375 0.385745 -0.0610299)
(-0.255379 0.434353 -0.0492547)
(-0.186612 0.418593 0.104777)
(-0.183339 0.397893 0.200909)
(-0.273716 0.461007 0.0827958)
(-0.249139 0.483344 -0.0817526)
(-0.279516 0.359057 -0.0903425)
(-0.350559 0.0592708 0.00931887)
(-0.0344921 0.261755 0.169837)
(-0.158142 0.4324 0.144363)
(-0.247556 0.441632 0.0508045)
(-0.235132 0.471952 0.0489289)
(-0.181986 0.4702 0.150019)
(-0.208165 0.481482 0.196378)
(-0.269646 0.554357 0.0769022)
(-0.247408 0.574367 -0.0706363)
(-0.314704 0.396624 -0.0441685)
(-0.42746 0.0423479 0.0785683)
(-0.00489004 0.000637973 -0.000861381)
(-0.00551706 -0.00464749 0.00205178)
(0.00174823 -0.00575216 0.00122267)
(0.00683914 -0.00436646 0.00104024)
(0.00887452 -0.00279639 0.00164531)
(0.00907232 -0.00199622 0.00251274)
(0.00871712 -0.00174688 0.00334779)
(0.00816004 -0.00158095 0.00393586)
(0.00700988 -0.00131257 0.00430974)
(0.00560981 -0.00129748 0.00423355)
(-0.00910327 0.00737938 -0.00341448)
(-0.00758663 -0.0126732 0.00469354)
(0.00445139 -0.0175614 0.00333403)
(0.00970189 -0.0114819 -5.21859e-05)
(0.00961139 -0.00602545 -0.000659607)
(0.0080663 -0.00406289 0.00060178)
(0.00717772 -0.00395601 0.00205465)
(0.00689775 -0.00421059 0.00318559)
(0.00637251 -0.00452261 0.00414742)
(0.00598763 -0.00570045 0.00469625)
(-0.0123542 0.0160936 -0.00196019)
(0.00297662 -0.0333421 0.0182591)
(0.0194847 -0.0402318 0.0165114)
(0.0232757 -0.0226294 0.00616613)
(0.0186575 -0.00897568 -0.000152524)
(0.013082 -0.00571954 -0.000170155)
(0.0104362 -0.00682624 0.00219955)
(0.00992455 -0.00797645 0.00445724)
(0.00900766 -0.0087311 0.00652372)
(0.00790759 -0.0102854 0.00816553)
(-0.00623712 0.0194858 0.00106021)
(0.0160689 -0.0555296 0.0302848)
(0.0276659 -0.0634429 0.03022)
(0.0290657 -0.0338681 0.0166638)
(0.0222055 -0.0107354 0.0044453)
(0.0155182 -0.00566513 0.000969543)
(0.0125663 -0.00879428 0.00394801)
(0.0115519 -0.0101968 0.00826004)
(0.00924018 -0.00794202 0.0126619)
(0.00796335 -0.0081665 0.0168018)
(0.00913293 0.0267835 -0.0086102)
(0.0247626 -0.0549585 0.0171613)
(0.00947142 -0.0632879 0.0300403)
(0.00743079 -0.0307929 0.0242408)
(0.00576753 -0.00850637 0.0129413)
(0.00517293 -0.00572375 0.00788052)
(0.00832888 -0.0106078 0.0113038)
(0.0119213 -0.0123846 0.0181119)
(0.00884732 -0.0106816 0.0243198)
(0.00882144 -0.0129633 0.0294784)
(0.0261891 0.000695991 -0.0501255)
(0.0286416 -0.0321355 -0.0636129)
(-0.0309516 -0.0335245 -0.013141)
(-0.0367759 -0.0156155 0.0124706)
(-0.0266585 -0.00399927 0.0158589)
(-0.0157126 -0.0108099 0.0123778)
(-0.00141701 -0.0231769 0.0122773)
(0.0135712 -0.0180434 0.0142943)
(0.022201 -0.000692564 0.0208056)
(0.0261124 -0.00319311 0.0279798)
(0.0361929 -0.0218356 -0.152065)
(0.0109028 0.0257642 -0.212949)
(-0.0860725 0.015284 -0.13976)
(-0.0831087 -0.0203027 -0.0659014)
(-0.0551211 -0.0258043 -0.0197938)
(-0.0268399 -0.0382109 -0.00489727)
(0.000123634 -0.0572323 -0.00242892)
(0.0175978 -0.0640151 -0.00490124)
(0.0367172 -0.0522782 0.00141399)
(0.0418852 -0.0387269 0.00921795)
(-0.0230496 -0.0244716 -0.384933)
(-0.133194 0.0893211 -0.452423)
(-0.149233 0.0591406 -0.350249)
(-0.114121 -0.0157505 -0.242045)
(-0.0815592 -0.0478017 -0.134879)
(-0.0463793 -0.0532135 -0.0710681)
(-0.0124502 -0.0523261 -0.0494765)
(0.0113681 -0.0515928 -0.03107)
(0.00754808 -0.0292495 -0.0261464)
(0.0114101 0.00466053 -0.0339215)
(0.0674666 0.175438 0.0281361)
(0.133935 0.231144 -0.0588931)
(0.0719505 0.120162 -0.137411)
(0.138348 -0.0414717 -0.0871349)
(-0.00769605 -0.0339026 -0.198968)
(-0.187845 0.00588869 -0.152535)
(-0.110328 -0.0421363 -0.0751213)
(0.00126409 -0.0419541 0.0199345)
(0.0352177 -0.0461965 0.00377157)
(-0.0244951 -0.0547985 -0.0330897)
(0.0382045 0.11644 0.110897)
(0.12968 0.17499 0.149279)
(0.169219 0.0991308 0.126523)
(0.218961 0.0627771 0.11039)
(0.229026 0.178376 0.0496944)
(0.0848008 0.29165 -0.0482934)
(0.0612951 0.0323272 0.143577)
(-0.0798244 -0.0424028 0.249581)
(-0.0830561 0.029485 -0.13991)
(-0.0445295 0.0431174 -0.398046)
(-0.00406056 0.0223616 -0.0359778)
(0.0480999 0.038731 0.037787)
(0.129486 -0.0887349 -0.0111474)
(0.180607 -0.135275 -0.0656996)
(0.272557 0.0741994 0.0272092)
(0.280814 0.324459 0.0558588)
(0.242536 0.242501 0.176575)
(0.0958251 0.0488175 0.357996)
(-0.161918 0.211819 0.198954)
(-0.181791 0.250412 -0.0047414)
(-0.00978534 0.0821945 -0.113798)
(0.0289537 0.0297676 -0.0987417)
(0.110085 -0.0730458 -0.1226)
(0.0898614 -0.132291 -0.198328)
(0.17907 0.037992 -0.118191)
(0.261762 0.268259 0.00989213)
(0.261164 0.302913 0.154526)
(0.206775 0.18113 0.343867)
(-0.078263 0.243897 0.316222)
(-0.115352 0.258364 0.143485)
(-0.00297769 0.0905356 -0.127206)
(0.0353939 0.0298163 -0.0998113)
(0.0911712 -0.0422281 -0.137388)
(0.0253118 -0.0958879 -0.257768)
(0.0487175 0.0595983 -0.225624)
(0.110266 0.268167 -0.0601036)
(0.161646 0.291056 0.141761)
(0.175959 0.235132 0.341382)
(0.00303538 0.251233 0.295338)
(-0.0446929 0.255507 0.104591)
(-0.0131739 0.110279 -0.0440095)
(-0.0110591 0.0267624 -0.0324156)
(0.0333423 0.000548744 -0.16867)
(-0.0477593 -0.00750546 -0.298533)
(-0.0724099 0.121437 -0.264562)
(-0.0408242 0.261717 -0.069234)
(0.106053 0.228853 0.216785)
(0.0619427 0.231294 0.355805)
(0.00253855 0.250454 0.219611)
(-0.109834 0.311089 0.00918536)
(-0.0507392 0.129817 0.0462749)
(-0.080864 0.0504248 -0.0400886)
(-0.0863543 0.0461183 -0.224138)
(-0.144194 0.0982847 -0.310451)
(-0.172505 0.197985 -0.249648)
(-0.110697 0.238498 -0.0139054)
(0.0639578 0.192331 0.308551)
(-0.0414042 0.22736 0.316835)
(-0.0695085 0.289334 0.11892)
(-0.198445 0.345826 -0.0699373)
(-0.0887049 0.17747 0.102072)
(-0.158176 0.100474 -0.07159)
(-0.198776 0.110994 -0.245017)
(-0.237172 0.185166 -0.293583)
(-0.242032 0.266452 -0.205236)
(-0.134763 0.251164 0.0524908)
(-0.0164138 0.208915 0.29995)
(-0.0838021 0.259009 0.213215)
(-0.15272 0.345737 0.0179743)
(-0.193534 0.329136 -0.120194)
(-0.104307 0.261955 0.165913)
(-0.20251 0.171784 -0.049818)
(-0.270842 0.173748 -0.225818)
(-0.306094 0.255479 -0.26419)
(-0.287939 0.337242 -0.171225)
(-0.161962 0.330214 0.0482817)
(-0.0747773 0.307146 0.174693)
(-0.0941848 0.362843 0.0486206)
(-0.168625 0.407797 -0.0935062)
(-0.104349 0.295372 -0.136915)
(-0.0774278 0.342749 0.245085)
(-0.190143 0.260533 0.0434729)
(-0.28182 0.254808 -0.157708)
(-0.34069 0.325678 -0.218629)
(-0.311171 0.416965 -0.151367)
(-0.186953 0.446764 -0.00862149)
(-0.0993591 0.45964 0.00338643)
(-0.0849728 0.500963 -0.123147)
(-0.11785 0.464204 -0.172676)
(-0.0498141 0.298269 -0.0528324)
(-0.0139103 0.353328 0.301439)
(-0.142731 0.326927 0.151102)
(-0.259838 0.326033 -0.0630698)
(-0.322869 0.404141 -0.157233)
(-0.307395 0.500155 -0.123064)
(-0.192427 0.555141 -0.0474264)
(-0.100892 0.582179 -0.0970823)
(-0.0726251 0.594757 -0.194606)
(-0.0955484 0.513986 -0.135928)
(-0.126883 0.285622 0.101938)
(0.0106233 0.283697 0.310426)
(-0.116124 0.372564 0.233639)
(-0.248731 0.381436 0.0417004)
(-0.298658 0.481742 -0.080363)
(-0.282834 0.5791 -0.0714088)
(-0.1807 0.638224 -0.0355104)
(-0.0947846 0.662403 -0.101069)
(-0.0784743 0.657713 -0.156048)
(-0.142171 0.567143 -0.00874813)
(-0.278523 0.228189 0.212739)
(-0.00375987 0.000766968 0.000447358)
(-0.0040973 -0.00332726 0.00636584)
(0.00162222 -0.00425925 0.00607326)
(0.0060757 -0.00333898 0.00523101)
(0.00821408 -0.00221452 0.00498646)
(0.00873705 -0.00159272 0.00543172)
(0.00856866 -0.0012817 0.00636269)
(0.00809806 -0.000914971 0.00742686)
(0.00688973 -0.000493106 0.00846601)
(0.00534234 -0.000367091 0.00891082)
(-0.00665426 0.00669237 -0.00274281)
(-0.00820375 -0.00655011 0.00845704)
(0.000557612 -0.0110512 0.00878809)
(0.00613074 -0.00815272 0.00546738)
(0.00762425 -0.00473895 0.0035663)
(0.00735718 -0.00320135 0.00384028)
(0.00702538 -0.00283382 0.00517556)
(0.00700052 -0.00272302 0.00667009)
(0.00675629 -0.0028182 0.00837165)
(0.00617447 -0.00348686 0.00946643)
(-0.0102209 0.0161749 -0.00372143)
(-0.00592723 -0.0128322 0.0177481)
(0.00788814 -0.0224185 0.0205567)
(0.0143088 -0.0150373 0.0129822)
(0.0138129 -0.00776513 0.00619869)
(0.0112057 -0.00553092 0.00459823)
(0.00977521 -0.00587348 0.00621565)
(0.0094771 -0.00665883 0.00831061)
(0.00848224 -0.00690087 0.0101351)
(0.00738077 -0.00695126 0.0109939)
(-0.00942331 0.0255522 -0.00781912)
(0.00477003 -0.0200436 0.0217049)
(0.0181481 -0.0339186 0.0277298)
(0.0228734 -0.0217948 0.0194855)
(0.0200235 -0.0095452 0.00969064)
(0.0156144 -0.00670705 0.00598596)
(0.0129993 -0.00750928 0.00782193)
(0.011971 -0.0068597 0.011445)
(0.00943025 -0.00504436 0.0147124)
(0.0076363 -0.00397717 0.0152624)
(-0.000858911 0.0352056 -0.0210555)
(0.0145749 -0.0130517 0.00986115)
(0.0140824 -0.0297605 0.0210663)
(0.0154603 -0.0192608 0.0180125)
(0.0146058 -0.00904814 0.011711)
(0.0151308 -0.00832247 0.0106305)
(0.0180838 -0.0110506 0.0154744)
(0.0173583 -0.012285 0.0200378)
(0.00956832 -0.00742764 0.0208549)
(0.00549279 -0.00320572 0.0201724)
(0.0159434 0.0327187 -0.046745)
(0.024203 -0.00444945 -0.0329181)
(-0.0131362 -0.00862504 -0.0119984)
(-0.0188499 -0.00344232 0.00225185)
(-0.0113675 -0.00507681 0.0081574)
(-0.000197247 -0.0151433 0.0109402)
(0.0142548 -0.0107767 0.0160232)
(0.0221206 0.00656637 0.02359)
(0.0184319 0.0185808 0.0293185)
(0.0143595 0.0136945 0.0314224)
(0.0312243 -0.0339003 -0.104613)
(0.0103998 -0.0333614 -0.150919)
(-0.0584649 -0.0135771 -0.105275)
(-0.0610547 -0.018503 -0.0468315)
(-0.0416104 -0.0249836 -0.0124156)
(-0.0140858 -0.0423624 -0.00298869)
(0.00132121 -0.0434803 0.000903392)
(0.0198679 -0.032738 0.0111483)
(0.030044 -0.0136745 0.0202737)
(0.0269908 -0.000413998 0.0250685)
(-0.022613 -0.0750575 -0.40522)
(-0.10145 -0.00417132 -0.451024)
(-0.0994619 -0.0382 -0.326293)
(-0.0688538 -0.0624249 -0.20037)
(-0.0490088 -0.056637 -0.112025)
(-0.0385275 -0.0464868 -0.0710481)
(-0.0468695 -0.0214455 -0.0532326)
(-0.029714 -0.0166075 -0.0251428)
(-0.0111967 -0.00521639 -0.00638461)
(0.00878228 0.0133208 -0.00777291)
(0.00824477 -0.0189604 -0.169763)
(0.107143 0.102339 -0.113489)
(0.120755 -0.128357 -0.0816705)
(0.115196 -0.145632 -0.203977)
(-0.0388195 -0.0741922 -0.275121)
(-0.170766 -0.0297732 -0.233249)
(-0.0814376 -0.0554322 -0.126109)
(0.00108118 -0.062077 -0.0666455)
(0.0595208 -0.06417 -0.0122394)
(0.0449806 -0.0485593 0.0211821)
(0.0194443 0.0689437 0.0756248)
(0.0998728 0.0741652 0.140969)
(0.139336 0.00243675 0.13847)
(0.213253 0.0927544 0.135317)
(0.227656 0.164998 0.00171668)
(0.158583 0.190101 -0.0899335)
(0.0405451 -0.159882 0.128779)
(-0.065565 -0.0335086 0.0592116)
(-0.0141849 -0.0457347 -0.15744)
(0.0204613 -0.00517487 -0.146228)
(-0.0179168 -0.0391482 -0.0630031)
(0.0188336 -0.0344344 0.0140581)
(0.0692338 -0.162037 -0.0394163)
(0.120553 -0.104629 -0.0489563)
(0.251804 0.159926 0.0372494)
(0.319035 0.288475 0.0349526)
(0.220265 0.217712 0.155635)
(0.117923 0.145099 0.370167)
(-0.00605288 -0.0208905 0.306454)
(-0.0215507 -0.374467 0.190261)
(-0.0273547 0.0428184 -0.147425)
(-0.00694334 -0.0217666 -0.127293)
(0.0446189 -0.15633 -0.152655)
(-0.00105522 -0.175174 -0.219974)
(0.136428 0.091734 -0.117445)
(0.231502 0.282868 -0.041272)
(0.225581 0.362215 0.113712)
(0.197339 0.247692 0.357427)
(0.0509398 0.14033 0.404097)
(0.0332993 0.0818152 0.213663)
(-0.0137168 0.0549879 -0.16211)
(0.0268656 -0.0129168 -0.129726)
(0.0576355 -0.111404 -0.163834)
(-0.050172 -0.162947 -0.286802)
(-0.0310447 0.0386419 -0.262631)
(0.0550399 0.266751 -0.0982256)
(0.0972136 0.365995 0.100657)
(0.165174 0.251982 0.344271)
(0.0908008 0.199503 0.368006)
(0.00351316 0.251259 0.145766)
(-0.00686096 0.0740069 -0.0759146)
(0.0195292 -0.00114058 -0.0533188)
(0.0366187 -0.0519607 -0.174857)
(-0.0909471 -0.0939595 -0.322071)
(-0.132028 0.0497052 -0.313375)
(-0.0935695 0.237135 -0.104272)
(-0.0187003 0.264459 0.15126)
(0.0993671 0.216521 0.361153)
(0.0330076 0.29232 0.264002)
(-0.102481 0.402286 0.0330136)
(-0.0348708 0.106536 0.0640372)
(-0.0549545 0.00332965 -0.0254018)
(-0.0813558 -0.0261188 -0.217747)
(-0.163638 -0.00745864 -0.332772)
(-0.212139 0.110861 -0.314223)
(-0.172281 0.238337 -0.122773)
(-0.0666932 0.218208 0.174724)
(0.0103249 0.253653 0.291131)
(-0.0939844 0.421418 0.130763)
(-0.160884 0.438807 -0.0622309)
(-0.0708342 0.159406 0.14421)
(-0.134238 0.0475614 -0.0534678)
(-0.203645 0.00477883 -0.242441)
(-0.242987 0.0459949 -0.316603)
(-0.277782 0.17425 -0.298616)
(-0.21807 0.305314 -0.169016)
(-0.112688 0.311736 0.059451)
(-0.0766727 0.374402 0.120266)
(-0.158649 0.500207 -0.00169586)
(-0.072626 0.372211 -0.147709)
(-0.0810784 0.242103 0.2205)
(-0.151697 0.113012 -0.0223865)
(-0.253985 0.0310022 -0.224466)
(-0.282847 0.0775917 -0.287545)
(-0.311348 0.213196 -0.289284)
(-0.242952 0.380093 -0.23484)
(-0.129744 0.465341 -0.13998)
(-0.0786966 0.520374 -0.10123)
(-0.0803991 0.527219 -0.152907)
(0.0642595 0.307823 -0.202738)
(-0.0381105 0.325385 0.314819)
(-0.0938813 0.223879 0.0888929)
(-0.195459 0.101368 -0.148795)
(-0.272798 0.10925 -0.228141)
(-0.298985 0.230525 -0.262721)
(-0.231908 0.389639 -0.268196)
(-0.108149 0.500764 -0.266173)
(-0.0169723 0.551462 -0.254895)
(0.0364545 0.500382 -0.242589)
(0.0821971 0.332731 -0.119344)
(0.045762 0.318605 0.365795)
(-0.000820594 0.308622 0.248892)
(-0.0644555 0.217241 -0.00265036)
(-0.152667 0.18145 -0.144094)
(-0.231757 0.24908 -0.19688)
(-0.185788 0.366066 -0.236536)
(-0.082967 0.453834 -0.266776)
(0.000118838 0.510443 -0.255855)
(0.0295711 0.49881 -0.169417)
(-0.00374298 0.386343 0.121259)
(0.0730794 0.232274 0.376115)
(0.0414703 0.320971 0.345109)
(-0.0190623 0.273774 0.119534)
(-0.0131186 0.259774 -0.0437438)
(-0.12137 0.300428 -0.11214)
(-0.1174 0.361265 -0.165893)
(-0.0621616 0.416622 -0.19394)
(-0.0278661 0.483799 -0.154771)
(-0.050238 0.528322 0.0167833)
(-0.151466 0.3827 0.322217)
(-0.00254428 0.00076671 0.000584033)
(-0.00217205 -0.00192453 0.00760184)
(0.0021937 -0.00259731 0.0075367)
(0.00585932 -0.00212335 0.00680883)
(0.00803142 -0.00149109 0.006585)
(0.00900725 -0.000971333 0.00707991)
(0.00903749 -0.000401072 0.00805807)
(0.00852618 0.000300554 0.00903831)
(0.00716397 0.0010089 0.0103156)
(0.00514758 0.00169334 0.0109307)
(-0.00412746 0.00502428 -0.003095)
(-0.00539401 -0.00262626 0.00759302)
(-0.000208989 -0.00530139 0.00827727)
(0.00425696 -0.00441334 0.00629734)
(0.00654734 -0.00296905 0.0051443)
(0.007426 -0.00198204 0.00551542)
(0.00781567 -0.0012196 0.00696659)
(0.00830964 -0.000595323 0.00881824)
(0.0081748 0.000143816 0.011227)
(0.00696327 0.00110338 0.0129955)
(-0.00600954 0.011817 -0.00483288)
(-0.00779923 -0.00161985 0.0128954)
(0.00013947 -0.00788828 0.0164605)
(0.00648892 -0.00715995 0.012287)
(0.00922299 -0.00532847 0.00810129)
(0.00999836 -0.00443496 0.00739324)
(0.00992073 -0.00418223 0.00900006)
(0.00948604 -0.0036896 0.0107512)
(0.00818764 -0.00200804 0.0121402)
(0.00672525 0.00116538 0.0118444)
(-0.00616916 0.0197588 -0.0123504)
(-0.00378642 0.000254148 0.010831)
(0.00491793 -0.00948567 0.0192841)
(0.0108547 -0.00886787 0.016677)
(0.0128578 -0.00684382 0.0111669)
(0.013111 -0.00574517 0.00906245)
(0.0129539 -0.00387185 0.0110904)
(0.0122345 -0.00259025 0.0144516)
(0.00864001 -0.000264412 0.0157231)
(0.0067837 0.00443617 0.0116598)
(-0.00153032 0.0244712 -0.0298903)
(0.00427285 0.0044575 -0.00208393)
(0.00877747 -0.00657304 0.00969887)
(0.0123987 -0.00844554 0.0118144)
(0.0150508 -0.00874458 0.0116946)
(0.0191271 -0.0102108 0.0136697)
(0.0202829 -0.0107454 0.0172165)
(0.015912 -0.00713261 0.0188499)
(0.00733942 -9.53299e-06 0.0179029)
(0.00614201 0.00818774 0.0119714)
(0.00392497 0.0302556 -0.044355)
(0.0082307 0.0155392 -0.0170463)
(-0.00290167 0.00373712 -0.00810856)
(-0.00410679 -0.0038264 -0.00227337)
(0.0021808 -0.0117818 0.00466771)
(0.0141906 -0.0128357 0.0114671)
(0.0259631 0.000581192 0.0198667)
(0.0288274 0.0113571 0.0286688)
(0.0161592 0.0123496 0.0315603)
(0.00884131 0.0141652 0.0225909)
(0.0140088 -0.0104078 -0.0589705)
(-0.0017445 -0.012338 -0.0686984)
(-0.0435505 -0.00939017 -0.0471699)
(-0.0410637 -0.01799 -0.0217857)
(-0.0231729 -0.0313237 -0.00777448)
(-0.00393583 -0.0403697 -0.00973978)
(0.0199273 -0.0336931 -0.0022683)
(0.0341367 -0.0132773 0.0136231)
(0.0260458 0.00902952 0.0270218)
(0.015514 0.0227899 0.0261809)
(-0.0113637 -0.0597891 -0.268977)
(-0.0573504 -0.0564242 -0.262671)
(-0.0741566 -0.0608773 -0.17841)
(-0.0546386 -0.0582299 -0.10595)
(-0.0444364 -0.0400498 -0.0609509)
(-0.049152 -0.0282979 -0.0570886)
(-0.0362835 -0.0190837 -0.0514947)
(-0.0173865 -0.00989026 -0.0184925)
(-0.0102562 0.00636859 0.00279471)
(0.00134363 0.0185109 0.000575507)
(-0.0252921 -0.168342 -0.332611)
(0.0339414 -0.251256 -0.237523)