/*--------------------------------*- C++ -*----------------------------------*\
| =========                 |                                                 |
| \\      /  F ield         | OpenFOAM: The Open Source CFD Toolbox           |
|  \\    /   O peration     | Version:  2312                                  |
|   \\  /    A nd           | Website:  www.openfoam.com                      |
|    \\/     M anipulation  |                                                 |
\*---------------------------------------------------------------------------*/
FoamFile
{
    version     2.0;
    format      ascii;
    arch        "LSB;label=32;scalar=64";
    class       volVectorField;
    location    "0.98";
    object      U;
}
// * * * * * * * * * * * * * * * * * * * * * * * * * * * * * * * * * * * * * //

dimensions      [0 1 -1 0 0 0 0];

internalField   nonuniform List<vector> 
8000
(
(-0.00347472 0.00465247 -0.00439952)
(-0.00660464 0.00431824 -0.00615155)
(-0.00739544 0.00401048 -0.00624535)
(-0.00872855 0.00361666 -0.0051291)
(-0.0102149 0.00337346 -0.00431915)
(-0.0113313 0.00313327 -0.00405802)
(-0.0116193 0.00283137 -0.00411543)
(-0.0109274 0.00240123 -0.00439022)
(-0.00901432 0.00191833 -0.00469533)
(-0.00549278 0.00154308 -0.00504626)
(-0.00520431 0.0179621 -0.00662829)
(-0.0092582 0.0171504 -0.0104868)
(-0.0112434 0.0160516 -0.0106764)
(-0.0133421 0.0144584 -0.008219)
(-0.0150443 0.0123851 -0.00615083)
(-0.0158712 0.0107177 -0.00541038)
(-0.0154435 0.00935686 -0.00528371)
(-0.0137977 0.00796836 -0.00531241)
(-0.010863 0.00626104 -0.00524135)
(-0.00612963 0.00441071 -0.00532332)
(-0.00313439 0.0335916 -0.00535203)
(-0.00536704 0.0306723 -0.0100871)
(-0.0113292 0.0294527 -0.0129417)
(-0.0149644 0.0277872 -0.0104334)
(-0.0168605 0.0238575 -0.00779687)
(-0.0172891 0.0198617 -0.00615734)
(-0.016902 0.0164534 -0.00547421)
(-0.0159673 0.013028 -0.00496662)
(-0.0139757 0.00921796 -0.00375708)
(-0.00813665 0.00602038 -0.00237924)
(0.00173333 0.0380524 -0.00259204)
(0.000842523 0.0343752 -0.00517745)
(-0.0118441 0.0419497 -0.00926679)
(-0.0192624 0.0416419 -0.00839099)
(-0.0219218 0.0368024 -0.00746937)
(-0.0221829 0.0308677 -0.00608186)
(-0.0230201 0.0260965 -0.00468537)
(-0.0245228 0.0214636 -0.0022546)
(-0.022202 0.0115383 0.00150356)
(-0.010704 -0.00374925 0.00268778)
(0.0116497 0.0414221 0.000279679)
(0.0111981 0.0348612 0.00277397)
(-0.0109919 0.0498106 -0.0024484)
(-0.0287732 0.0524918 -0.00140328)
(-0.0348278 0.047584 -0.00218812)
(-0.0353302 0.0414525 -0.00252725)
(-0.0352545 0.034566 -0.00192085)
(-0.0336817 0.0202982 -0.000269982)
(-0.0239891 -0.0055896 -0.00120343)
(-0.00765555 -0.0245542 -0.006285)
(0.014982 0.0152985 0.0146405)
(-0.00349382 0.0271855 0.015486)
(-0.02284 0.0631299 0.00439197)
(-0.0430592 0.0657198 0.00453037)
(-0.0475659 0.0564334 0.000510952)
(-0.044579 0.0479359 -0.00263933)
(-0.0386085 0.0374421 -0.00404666)
(-0.0293455 0.0167671 -0.00819427)
(-0.016502 -0.010555 -0.0179173)
(-0.00672971 -0.0207744 -0.0227207)
(-0.00253936 0.00580009 0.0204668)
(-0.0250101 0.028518 0.0162142)
(-0.0353324 0.0591602 0.0149307)
(-0.0504848 0.0621069 0.0046723)
(-0.0517548 0.0589575 -0.0104749)
(-0.0456898 0.0557516 -0.0177186)
(-0.0375209 0.0486379 -0.0190585)
(-0.0292016 0.0321163 -0.0231918)
(-0.0243653 0.0122752 -0.0305062)
(-0.0205889 0.00345336 -0.0331242)
(-0.010623 0.0324463 0.00104824)
(-0.0254999 0.0529487 -0.0125552)
(-0.0344373 0.0696215 -0.00524879)
(-0.0466387 0.0790592 -0.0197191)
(-0.054168 0.0876804 -0.0290067)
(-0.0672243 0.0894177 -0.0247713)
(-0.077484 0.0801461 -0.0204132)
(-0.0788182 0.0641214 -0.0219623)
(-0.07202 0.0456981 -0.0280074)
(-0.0534541 0.0316357 -0.0336465)
(-0.00832169 0.0764913 -0.0149184)
(-0.00553967 0.101323 -0.0421806)
(0.00533303 0.122365 -0.0306277)
(-0.0119348 0.142804 -0.0276192)
(-0.0561774 0.16093 -0.0204796)
(-0.1095 0.15541 -0.00944722)
(-0.144294 0.131864 -0.00457943)
(-0.142124 0.104264 -0.00909491)
(-0.112693 0.0794232 -0.0186736)
(-0.0744956 0.0615771 -0.0260848)
(-0.00422261 0.134239 -0.0248209)
(0.0275477 0.172101 -0.0633488)
(0.0760678 0.191298 -0.0486452)
(0.0708067 0.216355 -0.0228714)
(-0.000917609 0.217564 -0.00497032)
(-0.0526275 0.19433 0.00781998)
(-0.0997752 0.142604 -0.000671641)
(-0.0920984 0.0779568 -0.0243141)
(-0.067117 0.0150357 -0.0366718)
(-0.0532876 -0.0211397 -0.0385554)
(0.0133572 0.0952691 -0.0176455)
(0.0816803 0.124912 -0.0701865)
(0.150002 0.164334 -0.0746442)
(0.0953578 0.283585 -0.0412397)
(-0.106625 0.273764 -0.0101221)
(-0.123358 0.233997 0.00660655)
(-0.123745 0.147949 0.0109873)
(-0.0930916 0.0525823 0.0118175)
(-0.0839297 0.0474824 0.00468689)
(-0.0482857 0.0465335 -0.0034644)
(0.0187832 -0.17264 -0.00423827)
(-0.0726047 -0.108198 -0.145884)
(-0.0704745 0.240995 -0.132593)
(-0.0456024 0.413198 -0.0593661)
(-0.12645 0.361715 -0.0308969)
(-0.129082 0.243718 -0.0191905)
(-0.0757608 0.061962 0.0108474)
(-0.0774681 -0.0278826 0.0225672)
(-0.107647 -0.0482349 0.0288297)
(-0.0900061 -0.0938937 0.048339)
(-0.0259475 0.124248 -0.0471196)
(-0.10092 0.223348 -0.14043)
(-0.108384 0.375577 -0.111844)
(-0.0668247 0.484248 -0.058008)
(-0.0978966 0.424833 -0.0378013)
(-0.062163 0.230053 -0.0172701)
(-0.0268878 0.00168176 0.0302381)
(-0.0994611 -0.0365075 0.0334549)
(-0.128112 -0.0944916 0.0517592)
(-0.192284 -0.160972 0.0664702)
(-0.0116659 0.204734 7.41837e-05)
(-0.0593571 0.407302 -0.0955948)
(-0.0876145 0.498553 -0.0677108)
(-0.0623064 0.532739 -0.0356744)
(-0.0660597 0.435027 -0.0235094)
(-0.00600667 0.172539 0.0166173)
(-0.0449326 -0.0214249 0.044954)
(-0.137959 -0.061714 0.0505546)
(-0.23602 -0.133893 0.0625131)
(-0.347739 -0.218331 0.0427688)
(-0.00939287 0.209205 0.0347532)
(-0.0190296 0.522972 -0.0402791)
(-0.0481712 0.560522 -0.0185926)
(-0.0422754 0.51998 -0.00867461)
(-0.0227632 0.37512 0.00440842)
(0.0251886 0.111184 0.0449084)
(-0.0748777 -0.0257239 0.0525147)
(-0.199735 -0.0695369 0.0653004)
(-0.359123 -0.139231 0.048756)
(-0.467389 -0.220594 -0.0138355)
(-0.029728 0.182401 0.0266274)
(-0.00372678 0.539132 -0.00154167)
(-0.00892141 0.550424 0.00192523)
(0.00162466 0.462503 0.00841946)
(0.0358379 0.290429 0.0350055)
(0.0258654 0.0775937 0.0555195)
(-0.115524 -0.0121345 0.0629976)
(-0.29372 -0.0552054 0.0693657)
(-0.45901 -0.115504 0.0141916)
(-0.559017 -0.155143 -0.0633745)
(-0.0458223 0.177032 -0.000157734)
(-0.0066774 0.478729 0.00156364)
(0.0240127 0.492359 -0.00243836)
(0.0560473 0.3954 0.019152)
(0.0698577 0.233047 0.0563654)
(-0.0124837 0.0673314 0.0567163)
(-0.179121 0.0126415 0.0768462)
(-0.377818 -0.0293176 0.0557263)
(-0.523129 -0.0566524 -0.017746)
(-0.598189 -0.0562052 -0.0834242)
(-0.0447628 0.203592 -0.0203982)
(-0.00960334 0.407121 -0.0113162)
(0.0503747 0.424335 -0.00256855)
(0.0834905 0.350561 0.0367935)
(0.0512688 0.201525 0.0608075)
(-0.0687011 0.0677585 0.0624432)
(-0.239583 0.0394797 0.0811408)
(-0.426004 0.0114654 0.0375197)
(-0.541163 0.0154613 -0.031894)
(-0.581514 0.0373785 -0.0827243)
(-0.030887 0.243369 -0.0232916)
(0.000303743 0.365725 -0.0163532)
(0.062219 0.387614 0.00875062)
(0.0668332 0.324824 0.0515138)
(0.000148597 0.165378 0.0544386)
(-0.123386 0.0797301 0.0675901)
(-0.279071 0.0675403 0.0784933)
(-0.439547 0.0573037 0.0322218)
(-0.528501 0.0785721 -0.0281436)
(-0.54093 0.108293 -0.0627151)
(-0.00821607 0.2742 -0.0105495)
(0.0154291 0.363611 -0.011994)
(0.0517411 0.38146 0.0240222)
(0.0250064 0.285533 0.0520647)
(-0.0535547 0.135115 0.0465535)
(-0.170112 0.0998562 0.0607926)
(-0.290002 0.0904797 0.0809572)
(-0.420799 0.0967052 0.0552825)
(-0.501174 0.128942 0.000441145)
(-0.503877 0.159123 -0.035648)
(-0.00517998 0.00410951 -0.0088327)
(-0.00847087 0.0010461 -0.010839)
(-0.00574797 3.70618e-06 -0.011931)
(-0.00456566 0.000679581 -0.0103277)
(-0.00517821 0.00140914 -0.00888319)
(-0.00617622 0.00158934 -0.0083095)
(-0.00661545 0.00143313 -0.00824874)
(-0.00632919 0.00113758 -0.00851012)
(-0.00552315 0.000900581 -0.0088233)
(-0.00374768 0.000595435 -0.00931493)
(-0.0090002 0.0160996 -0.0127929)
(-0.00804078 0.00536308 -0.0121703)
(-0.00237797 0.00129572 -0.0150665)
(-0.00343474 0.00571345 -0.0152644)
(-0.00654673 0.00698875 -0.0127914)
(-0.00882988 0.00646068 -0.0110362)
(-0.00940615 0.00526896 -0.0104142)
(-0.00870994 0.00396385 -0.010232)
(-0.00720927 0.00260942 -0.00995454)
(-0.00432519 0.000537611 -0.00981863)
(-0.0082888 0.0290357 -0.0111057)
(0.00756224 -0.00553017 0.000198208)
(0.00955451 -0.00460562 -0.00600472)
(0.00521231 0.0114653 -0.0148929)
(-0.00274199 0.0160279 -0.0161924)
(-0.00717661 0.0137463 -0.0139733)
(-0.00844279 0.0100754 -0.0121126)
(-0.00809589 0.00686278 -0.0108696)
(-0.00759514 0.00386322 -0.00888338)
(-0.00502095 0.000274545 -0.00622072)
(-0.00122992 0.0297781 -0.00840214)
(0.0215169 -0.0198386 0.0171304)
(0.00856715 -0.0125404 0.0107847)
(0.00105484 0.0188263 -0.00704125)
(-0.00669682 0.0276862 -0.0159918)
(-0.0101869 0.0238718 -0.0161575)
(-0.0117676 0.0175831 -0.0131527)
(-0.0135131 0.0141676 -0.00933409)
(-0.0148877 0.0117973 -0.00362426)
(-0.00911263 0.00267146 0.00215649)
(0.0102102 0.0271475 -0.000313117)
(0.0182341 -0.0171101 0.0288045)
(-0.0104175 0.00435847 0.0205005)
(-0.0183377 0.0307151 0.00124679)
(-0.0238691 0.0387398 -0.0113872)
(-0.0243193 0.0348181 -0.0137412)
(-0.0233257 0.0289146 -0.0114169)
(-0.0208884 0.0236723 -0.00738051)
(-0.015856 0.0130293 -0.00243829)
(-0.00241072 -0.00705499 -0.00126514)
(0.012358 0.0250536 0.00681428)
(-0.010223 0.00343968 0.0233262)
(-0.032706 0.0306946 0.024315)
(-0.0371186 0.050098 0.0059252)
(-0.0410183 0.052423 -0.00886814)
(-0.0367307 0.0430342 -0.0159701)
(-0.0273898 0.0306045 -0.0201482)
(-0.0139305 0.0202851 -0.0230185)
(-0.00129605 0.0097838 -0.0227811)
(0.00723294 -0.00518348 -0.0219959)
(0.0107866 0.0513988 -0.00703173)
(-0.0184461 0.0441042 -0.00995405)
(-0.0413892 0.0546612 0.00901869)
(-0.0412268 0.0701125 -0.00666022)
(-0.0431446 0.0710646 -0.0316737)
(-0.0381982 0.05857 -0.0495453)
(-0.0312886 0.0463048 -0.0561574)
(-0.0210678 0.034895 -0.0563386)
(-0.0125514 0.0244334 -0.0534884)
(-0.00547921 0.0175057 -0.0505808)
(0.0110273 0.0861757 -0.0465303)
(-0.019869 0.0916244 -0.0533424)
(-0.0443645 0.0942431 -0.0428871)
(-0.0510215 0.0957628 -0.062204)
(-0.0644137 0.0890267 -0.0785903)
(-0.0719076 0.0788384 -0.0773099)
(-0.0727692 0.0660917 -0.0714039)
(-0.0635298 0.0514929 -0.0715826)
(-0.0489757 0.0383427 -0.0783863)
(-0.0310209 0.0304213 -0.084551)
(0.00996466 0.136381 -0.0565456)
(-0.0185652 0.147284 -0.072366)
(-0.0308163 0.147911 -0.0735951)
(-0.0309243 0.155601 -0.0747309)
(-0.0614124 0.158175 -0.0537171)
(-0.0946107 0.146445 -0.0294172)
(-0.102276 0.122582 -0.0210449)
(-0.087338 0.102392 -0.0181583)
(-0.0699236 0.0899432 -0.016277)
(-0.0563483 0.0822392 -0.0097267)
(0.0143638 0.163243 0.00911761)
(-0.00159383 0.177291 -0.0196254)
(0.0109737 0.184677 -0.0219016)
(0.0277452 0.221991 0.00511987)
(-0.0281368 0.286679 0.0606687)
(-0.124063 0.193594 0.0546406)
(-0.129593 0.0981653 0.00715373)
(-0.130769 0.032158 -0.0215121)
(-0.142556 0.0268699 -0.0550945)
(-0.132455 0.0410662 -0.0550103)
(0.0166509 0.0702909 0.114109)
(0.0835765 0.135595 0.117354)
(-0.0188654 0.190911 0.0202022)
(0.000130907 0.270517 -0.0362323)
(-0.0717235 0.340311 0.0328839)
(-0.141441 0.224354 0.0183443)
(-0.111672 0.0489158 0.0599595)
(-0.117644 -0.0397429 0.0816386)
(-0.156727 0.0297416 0.0635568)
(-0.115132 0.0366793 0.0581236)
(-0.0628883 -0.272313 -0.0913628)
(-0.065734 0.171918 -0.101338)
(-0.0815886 0.269198 -0.164174)
(-0.0373093 0.331775 -0.11445)
(-0.0346983 0.381111 -0.0409379)
(-0.0291455 0.243004 -0.040249)
(0.0123732 0.0554838 0.0391326)
(-0.0189746 -0.0275757 0.0825277)
(-0.163355 -0.0555758 0.119011)
(-0.157313 -0.145629 0.150156)
(-0.0211451 0.0828644 -0.168097)
(-0.0671342 0.230129 -0.198133)
(-0.0902715 0.279765 -0.17486)
(-0.0644236 0.357285 -0.101688)
(-0.0301464 0.368002 -0.0438037)
(0.0181277 0.211573 0.00768865)
(0.0511886 0.026969 0.0899032)
(-0.0290278 -0.007691 0.112358)
(-0.136907 -0.0570293 0.147998)
(-0.228015 -0.152324 0.165381)
(0.0334638 0.206638 -0.0967215)
(-0.00138813 0.318801 -0.150242)
(-0.0872091 0.343159 -0.0889792)
(-0.0799622 0.379618 -0.0190305)
(-0.028905 0.312822 0.027348)
(0.0491256 0.152147 0.0827107)
(0.0340772 0.00786094 0.134145)
(-0.106236 0.000732039 0.154737)
(-0.201942 -0.0765206 0.168036)
(-0.317683 -0.111293 0.13577)
(0.050474 0.221917 0.0068096)
(0.0548249 0.425003 -0.0558631)
(-0.0614104 0.424578 -0.0142839)
(-0.0376455 0.362297 0.0506198)
(0.0298123 0.239067 0.0760399)
(0.0928492 0.109716 0.116719)
(-0.0301723 0.0192542 0.164961)
(-0.170363 -0.00667376 0.184665)
(-0.288381 -0.0308703 0.158389)
(-0.357638 -0.0216775 0.0732532)
(0.00276673 0.175181 0.0377946)
(0.0583487 0.47682 0.0121265)
(-0.00595636 0.449442 0.0448235)
(0.0602737 0.317055 0.0749336)
(0.106091 0.210128 0.0903073)
(0.0868914 0.116966 0.144303)
(-0.114254 0.0241359 0.191954)
(-0.250718 0.016188 0.194976)
(-0.351949 0.0378766 0.119695)
(-0.38352 0.0641001 0.00563763)
(-0.05811 0.172505 0.0254096)
(0.0242505 0.43839 0.0465051)
(0.057901 0.390841 0.0588028)
(0.133705 0.289272 0.0623647)
(0.124292 0.234077 0.110059)
(-0.00396147 0.118025 0.178655)
(-0.18909 0.0427724 0.208586)
(-0.310715 0.0676854 0.177171)
(-0.363563 0.119586 0.0712116)
(-0.391823 0.138699 -0.045921)
(-0.0753045 0.198543 0.00499859)
(0.00315369 0.344987 0.0140082)
(0.090979 0.329104 0.00876109)
(0.121113 0.305215 0.0507866)
(0.055545 0.256472 0.150858)
(-0.115808 0.098311 0.198583)
(-0.241541 0.0719902 0.199534)
(-0.317405 0.118298 0.136879)
(-0.321678 0.184435 0.0326176)
(-0.338252 0.198313 -0.066449)
(-0.0579621 0.241843 -0.0179539)
(-0.000506135 0.304865 -0.0541759)
(0.0608576 0.32141 -0.0251236)
(0.0421523 0.338989 0.0860006)
(-0.0594015 0.227298 0.17895)
(-0.202709 0.0916605 0.185206)
(-0.273295 0.0938931 0.166265)
(-0.29546 0.149809 0.0944557)
(-0.253541 0.223447 0.00225156)
(-0.254117 0.239828 -0.0776329)
(-0.0364133 0.290675 -0.0304382)
(-0.0128289 0.318159 -0.0799985)
(0.000175434 0.343577 0.00242212)
(-0.0484462 0.335237 0.133259)
(-0.165406 0.182039 0.162589)
(-0.271905 0.0983903 0.142617)
(-0.303384 0.107549 0.125209)
(-0.287715 0.166983 0.0644984)
(-0.213932 0.243966 -0.0186734)
(-0.178137 0.278854 -0.084009)
(-0.00532793 0.00352446 -0.0104379)
(-0.0095378 -0.000510617 -0.00885969)
(-0.00669528 -0.0020029 -0.0099319)
(-0.00515243 -0.000763135 -0.0103554)
(-0.00598314 0.000466545 -0.0101649)
(-0.00717498 0.000794793 -0.0100895)
(-0.00762331 0.000554194 -0.0101245)
(-0.00715502 0.000217664 -0.0102753)
(-0.00613615 -6.68705e-05 -0.0102821)
(-0.00416967 -0.000584682 -0.0103397)
(-0.00934563 0.0143189 -0.0156941)
(-0.0115139 -0.0003533 -0.00729428)
(-0.00266383 -0.00738554 -0.00784158)
(-0.00269954 -6.83042e-06 -0.0124912)
(-0.00644978 0.00375931 -0.0137843)
(-0.00938436 0.00407345 -0.0134202)
(-0.0101856 0.00280227 -0.0130268)
(-0.00927266 0.00104699 -0.0127453)
(-0.00743574 -0.000953893 -0.0122401)
(-0.00438039 -0.00373797 -0.0116903)
(-0.0115239 0.0259052 -0.0171806)
(-0.00123632 -0.0109927 0.00159512)
(0.00973355 -0.0230053 0.00222445)
(0.00916735 -0.00166127 -0.0088642)
(5.0772e-05 0.00864232 -0.0155556)
(-0.00674716 0.008631 -0.0164915)
(-0.00900842 0.00518044 -0.015704)
(-0.00841204 0.00127874 -0.0149199)
(-0.00725184 -0.00225091 -0.0136415)
(-0.00467257 -0.00588936 -0.0116674)
(-0.010097 0.0356348 -0.0196206)
(0.0126763 -0.0207979 0.00601162)
(0.00927833 -0.0304737 0.00494972)
(0.010427 0.000498548 -0.00786397)
(0.000413591 0.0172338 -0.0178623)
(-0.00687558 0.016579 -0.0207125)
(-0.0102894 0.0107204 -0.0191243)
(-0.0109748 0.00626668 -0.0164239)
(-0.0111189 0.0041946 -0.0130514)
(-0.00772862 1.4153e-05 -0.00871347)
(-0.0041231 0.044333 -0.0211874)
(0.018169 -0.0066015 0.000336023)
(-0.00470643 -0.0150002 -0.000528348)
(-0.0058693 0.011892 -0.0115217)
(-0.0130937 0.0264049 -0.0202442)
(-0.0162051 0.0256366 -0.0216324)
(-0.0155855 0.0196915 -0.0186202)
(-0.0138517 0.0149902 -0.0162424)
(-0.0147881 0.0115506 -0.0144233)
(-0.00969021 0.00401637 -0.01158)
(0.00175915 0.061112 -0.0208587)
(0.0145578 0.0298331 -0.0139412)
(-0.0196602 0.0227924 -0.0104359)
(-0.0231879 0.0373267 -0.0162607)
(-0.0284739 0.0394743 -0.0241605)
(-0.0263682 0.0286576 -0.0296193)
(-0.0214862 0.0202078 -0.0348337)
(-0.0168346 0.0212783 -0.0378359)
(-0.0122942 0.0228137 -0.0361167)
(-0.00460185 0.0108927 -0.0333854)
(0.0100724 0.089289 -0.03263)
(0.00311869 0.0688174 -0.0350506)
(-0.034899 0.0673789 -0.0280266)
(-0.0366284 0.0728141 -0.0381116)
(-0.0405708 0.066755 -0.060348)
(-0.0439716 0.0577487 -0.0824673)
(-0.0460639 0.0520456 -0.0924773)
(-0.0397926 0.0438911 -0.0907372)
(-0.0261173 0.0373338 -0.0822834)
(-0.0111173 0.0308924 -0.0763309)
(0.00214453 0.10124 -0.0766596)
(-0.0226694 0.101067 -0.0697139)
(-0.0530199 0.0985122 -0.0731644)
(-0.0647704 0.085936 -0.0998745)
(-0.0872296 0.0691453 -0.121768)
(-0.101714 0.0543414 -0.125438)
(-0.10345 0.0369463 -0.122442)
(-0.0911738 0.0183023 -0.128728)
(-0.0675774 0.00260306 -0.140948)
(-0.0392227 -0.00653479 -0.148503)
(-0.0194359 0.140353 -0.0664633)
(-0.0503797 0.136742 -0.0800898)
(-0.0621099 0.133142 -0.10905)
(-0.0623749 0.138453 -0.128318)
(-0.0788305 0.139557 -0.101114)
(-0.0993682 0.125798 -0.0418538)
(-0.107782 0.0999696 0.000234619)
(-0.110313 0.0778032 0.0122932)
(-0.11429 0.0691473 0.00710232)
(-0.0956678 0.0653932 -0.0110256)
(-0.0140565 0.175027 0.053993)
(-0.0418513 0.157723 0.0108498)
(-0.0424184 0.166683 -0.0446096)
(-0.0131693 0.224647 -0.0167501)
(0.0566304 0.296657 0.0882611)
(-0.110964 0.176838 0.101034)
(-0.149014 -0.0560851 0.0826658)
(-0.205424 -0.099144 0.0277438)
(-0.22036 0.169211 -0.0573765)
(-0.204507 0.214607 -0.0565382)
(-2.00048e-05 0.0431845 0.303927)
(-0.0571737 0.133974 -0.030234)
(-0.0641004 0.252258 -0.112037)
(-0.0211611 0.321053 -0.108145)
(0.0723077 0.347109 -0.0018977)
(0.0706877 0.268527 0.0228867)
(0.0249625 0.0506913 0.0664323)
(-0.106566 -0.0891772 0.149511)
(-0.196613 0.0471279 0.147291)
(-0.176981 0.0756817 0.163614)
(-0.0176291 0.25605 -0.0398629)
(-0.0433587 0.242115 -0.176486)
(-0.0384744 0.239353 -0.191166)
(-0.000913428 0.18781 -0.153365)
(0.0756181 0.186244 -0.0697887)
(0.131903 0.153575 -0.0341003)
(0.124012 0.0677134 0.0372589)
(0.0391569 0.00713141 0.138562)
(-0.175843 -0.0155772 0.229267)
(-0.170002 -0.110145 0.256787)
(0.0194227 0.192688 -0.186043)
(0.0257639 0.227444 -0.213455)
(0.00996125 0.144371 -0.17145)
(0.02847 0.0608 -0.102057)
(0.0703627 0.0609717 -0.0254133)
(0.101597 0.0728271 0.0333144)
(0.109525 0.0447328 0.112677)
(0.0665931 0.0506995 0.170132)
(-0.108267 0.039647 0.236638)
(-0.165813 -0.0578629 0.225232)
(0.0498199 0.100761 -0.118018)
(0.0687902 0.192675 -0.142131)
(0.0199663 0.127836 -0.0753643)
(0.0528107 0.0427399 -0.0246778)
(0.0842488 0.0329432 0.00916826)
(0.089999 0.0579631 0.0807832)
(0.0893286 0.0512936 0.182163)
(0.00501708 0.101391 0.226703)
(-0.105042 0.0665392 0.233629)
(-0.173494 0.0161783 0.137979)
(0.0224569 0.0674704 -0.01231)
(0.0432513 0.206632 -0.0282741)
(0.0253804 0.108919 0.010825)
(0.0951656 0.0382655 -0.0174327)
(0.0911961 0.0678358 -0.000715483)
(0.0875784 0.0942817 0.125718)
(0.0351184 0.0880981 0.252783)
(-0.0652595 0.130261 0.261291)
(-0.132312 0.124853 0.188185)
(-0.184677 0.117402 0.0184898)
(-0.0432092 0.0684549 0.0353767)
(0.00728224 0.178366 0.0449737)
(0.0615208 0.0862781 -0.0113328)
(0.106797 0.0932078 -0.0356646)
(0.064833 0.141234 0.0399324)
(0.0712953 0.143263 0.215232)
(-0.0604473 0.108331 0.299191)
(-0.121673 0.149963 0.249207)
(-0.163571 0.192417 0.10636)
(-0.20501 0.205007 -0.0547663)
(-0.0721095 0.0942954 0.0281772)
(-0.00622895 0.124671 -0.00312805)
(0.0589904 0.113152 -0.0659409)
(0.0702531 0.167654 -0.0117248)
(0.0331332 0.201971 0.144895)
(-0.0165844 0.157374 0.295964)
(-0.13162 0.115438 0.293515)
(-0.155864 0.177188 0.191471)
(-0.174235 0.252271 0.0294441)
(-0.209195 0.269396 -0.0818509)
(-0.0625627 0.146138 -0.00722854)
(-0.0314057 0.139253 -0.0948843)
(-0.00524761 0.161474 -0.0729784)
(0.00183503 0.218904 0.0727106)
(-0.0297137 0.227021 0.247623)
(-0.121445 0.142562 0.304324)
(-0.161842 0.130188 0.237675)
(-0.152588 0.2025 0.11096)
(-0.14363 0.287266 -0.0226382)
(-0.143535 0.310582 -0.088442)
(-0.0484411 0.205253 -0.0375857)
(-0.0798897 0.179347 -0.119004)
(-0.0876173 0.200184 -0.0172813)
(-0.0735301 0.244601 0.166124)
(-0.115149 0.218725 0.282361)
(-0.184378 0.136987 0.243991)
(-0.162459 0.138508 0.146553)
(-0.113208 0.198737 0.0299981)
(-0.0756522 0.285334 -0.056105)
(-0.034605 0.324281 -0.101455)
(-0.0461715 0.258675 -0.0445897)
(-0.127707 0.21999 -0.0785403)
(-0.146549 0.236922 0.0651563)
(-0.13277 0.266011 0.225171)
(-0.171618 0.213378 0.255511)
(-0.19317 0.149193 0.163268)
(-0.134628 0.136935 0.0594689)
(-0.0430597 0.17159 -0.0348548)
(0.0199886 0.24966 -0.0856779)
(0.0766884 0.318917 -0.125119)
(-0.00422199 0.00295613 -0.0121494)
(-0.00796776 7.71812e-05 -0.00783602)
(-0.00713414 -0.000972449 -0.00856567)
(-0.00655938 -0.000202478 -0.0100722)
(-0.00733886 0.000411471 -0.0109431)
(-0.00826927 0.000478672 -0.0112879)
(-0.00852379 0.000216896 -0.0112773)
(-0.00775543 -1.52987e-05 -0.0110296)
(-0.00636972 -0.000213572 -0.0103913)
(-0.00421084 -0.00058381 -0.00986926)
(-0.00679761 0.0120038 -0.0177786)
(-0.0120171 0.0038702 -0.00764171)
(-0.00848692 -0.000684801 -0.00703933)
(-0.00735601 0.00131012 -0.0114199)
(-0.00923427 0.00298789 -0.0141161)
(-0.0109219 0.00278456 -0.0147101)
(-0.0111897 0.00142794 -0.0144353)
(-0.00975424 -0.000523115 -0.0139161)
(-0.00724254 -0.00260527 -0.0127694)
(-0.00398569 -0.00472839 -0.0116848)
(-0.00855 0.0228455 -0.0206295)
(-0.0108578 0.0068341 -0.00245078)
(-0.00268652 -0.003251 0.00102446)
(-0.00166213 0.00281683 -0.00774044)
(-0.00583129 0.00578845 -0.0147726)
(-0.00966399 0.00477999 -0.0171806)
(-0.0111698 0.0014496 -0.0173352)
(-0.0103602 -0.00267228 -0.0171014)
(-0.00833342 -0.00599288 -0.0163209)
(-0.00472143 -0.00835275 -0.0155243)
(-0.00756654 0.0334952 -0.0264112)
(-0.00308781 0.0107911 -0.00519959)
(0.00228939 -0.00310186 0.000158118)
(0.0020327 0.00717614 -0.0100642)
(-0.00392251 0.012132 -0.0180132)
(-0.00923981 0.00988363 -0.0217648)
(-0.0122243 0.0051853 -0.0219284)
(-0.0126005 -1.97002e-05 -0.020981)
(-0.0122143 -0.00342706 -0.0202798)
(-0.00781885 -0.00594213 -0.0207488)
(-0.00286463 0.0455688 -0.0391536)
(0.00409022 0.0236753 -0.0187731)
(-0.000733334 0.00783511 -0.0136794)
(-0.00421574 0.0141908 -0.0216136)
(-0.00978206 0.0180636 -0.0254369)
(-0.0116881 0.0154936 -0.025921)
(-0.0121494 0.00943028 -0.0252241)
(-0.0144318 0.00249145 -0.0263655)
(-0.017958 -0.000966632 -0.0291218)
(-0.012828 -0.00309718 -0.0311272)
(0.000261157 0.0551029 -0.0484508)
(0.00323758 0.0427824 -0.0277631)
(-0.0138816 0.0323363 -0.0255571)
(-0.0197783 0.0321141 -0.0333756)
(-0.0221378 0.0244954 -0.0366402)
(-0.0205746 0.0165586 -0.0407553)
(-0.0195926 0.0170611 -0.0444724)
(-0.0188924 0.0176925 -0.045708)
(-0.0187361 0.0127945 -0.0453324)
(-0.0123111 0.00257648 -0.046809)
(0.00195137 0.085862 -0.0569144)
(-0.0124853 0.0752505 -0.0385684)
(-0.0377083 0.0667523 -0.0410353)
(-0.0414693 0.061073 -0.0564917)
(-0.0471073 0.0536798 -0.0768521)
(-0.0547501 0.0512141 -0.0955998)
(-0.0582943 0.042739 -0.101946)
(-0.0513539 0.0277381 -0.0974962)
(-0.0348873 0.0174839 -0.0877015)
(-0.0155854 0.00885495 -0.0824444)
(-0.0199741 0.0887341 -0.0875424)
(-0.047629 0.0880843 -0.0742858)
(-0.068745 0.0745774 -0.0866012)
(-0.0830743 0.0587985 -0.11807)
(-0.109313 0.0415574 -0.142174)
(-0.128854 0.0214262 -0.145541)
(-0.135785 -0.00295008 -0.143212)
(-0.126837 -0.0277656 -0.152684)
(-0.0979886 -0.0471172 -0.168779)
(-0.0576515 -0.0573435 -0.176791)
(-0.0522929 0.141901 -0.0597109)
(-0.0834676 0.116949 -0.0852821)
(-0.0967137 0.103818 -0.135273)
(-0.104174 0.107642 -0.167016)
(-0.0989024 0.108016 -0.137394)
(-0.0933798 0.0926563 -0.0512208)
(-0.105633 0.0818448 0.0730854)
(-0.172684 0.0817554 0.19039)
(-0.254309 0.0382931 -0.0673917)
(-0.22518 -0.00744526 -0.193084)
(-0.0428616 0.226654 0.15137)
(-0.0616381 0.162607 0.058603)
(-0.0915808 0.136136 -0.121063)
(-0.0875947 0.131751 -0.155608)
(-0.0211757 0.139127 -0.0483219)
(-0.0467787 0.124281 0.119851)
(-0.168 0.064787 0.16583)
(-0.197846 0.109099 0.117339)
(-0.197145 0.126186 -0.00909124)
(-0.19931 0.0636407 -0.0529439)
(-0.0104414 0.284992 0.16819)
(-0.00797619 0.304349 -0.0129076)
(-0.0367454 0.226842 -0.137108)
(0.00762586 0.190356 -0.119301)
(0.0833949 0.164638 -0.00278164)
(0.100409 0.178426 0.0783179)
(0.0325593 0.0918781 0.135286)
(-0.106108 -0.0737328 0.247598)
(-0.216538 0.0261873 0.274854)
(-0.229299 0.0411606 0.294367)
(0.0161626 0.288895 -0.0536737)
(0.0384614 0.249132 -0.122471)
(0.0539557 0.107553 -0.119301)
(0.0987363 0.0243245 -0.0710284)
(0.138847 0.0392724 0.011987)
(0.165177 0.105354 0.0664472)
(0.146321 0.109288 0.114163)
(0.038477 0.0465845 0.220977)
(-0.197515 0.015072 0.324733)
(-0.194242 -0.037972 0.320051)
(0.02922 0.153137 -0.137382)
(0.0523427 0.119134 -0.133592)
(0.0764487 -0.0167447 -0.0602616)
(0.109219 -0.0506269 -0.0542271)
(0.127647 0.0016659 0.00758791)
(0.122754 0.0655022 0.0759273)
(0.118368 0.0999656 0.140164)
(0.090882 0.104224 0.224546)
(-0.130199 0.099743 0.301796)
(-0.164088 0.0549875 0.226974)
(0.0329485 0.0473799 -0.104166)
(0.0340122 0.0327879 -0.0442007)
(0.0548053 -0.0753488 -0.0429589)
(0.0827988 -0.0523649 -0.0754157)
(0.0904578 0.0355327 -0.0192095)
(0.0595727 0.097712 0.069663)
(0.0746072 0.121928 0.181519)
(0.0669413 0.169908 0.262582)
(-0.107757 0.172312 0.264592)
(-0.166876 0.136761 0.102662)
(-0.0151282 0.00575904 -0.00155224)
(-0.0106423 -0.0258669 0.0242793)
(0.0299925 -0.071703 -0.10707)
(0.0363024 0.0015322 -0.100354)
(0.00820721 0.104188 -0.0299337)
(-0.00417772 0.146298 0.0945344)
(0.0478857 0.158093 0.26366)
(0.0139499 0.233348 0.297128)
(-0.114194 0.247715 0.196041)
(-0.188482 0.197561 -0.00368499)
(-0.0555986 0.0111191 0.0427932)
(-0.0311862 -0.0351018 -0.0499012)
(-0.0188429 -0.0153099 -0.125536)
(-0.0302201 0.0653884 -0.0678801)
(-0.0569118 0.147979 0.0360509)
(-0.01112 0.181224 0.21491)
(-0.00703261 0.193528 0.343868)
(-0.0380936 0.280954 0.279414)
(-0.131401 0.309662 0.109554)
(-0.210744 0.246431 -0.0483774)
(-0.0609587 0.0544107 0.0317642)
(-0.0714429 0.00842347 -0.107158)
(-0.086515 0.0252806 -0.10751)
(-0.084475 0.0969992 0.00601705)
(-0.075172 0.168004 0.170076)
(-0.0415136 0.199451 0.332798)
(-0.0667062 0.218804 0.337962)
(-0.0700755 0.314169 0.205474)
(-0.136908 0.350922 0.034825)
(-0.186108 0.284143 -0.0778181)
(-0.0635704 0.11095 0.00748468)
(-0.138553 0.0427324 -0.121738)
(-0.166999 0.0492981 -0.0749374)
(-0.133589 0.113372 0.0932562)
(-0.0987529 0.171964 0.281532)
(-0.0990849 0.197425 0.338926)
(-0.0921346 0.239979 0.245032)
(-0.0705085 0.334573 0.10408)
(-0.104283 0.372731 -0.0269902)
(-0.084049 0.313946 -0.116304)
(-0.0744261 0.171431 0.00167644)
(-0.197087 0.079484 -0.102745)
(-0.232222 0.0804352 -0.0395105)
(-0.179254 0.143747 0.142672)
(-0.124519 0.186427 0.294487)
(-0.108389 0.20028 0.260015)
(-0.0685954 0.244469 0.126695)
(-0.0297938 0.329031 0.00595134)
(-0.0275338 0.375709 -0.0791983)
(0.0465437 0.34106 -0.177646)
(-0.088287 0.229057 0.0225265)
(-0.231945 0.128466 -0.0646792)
(-0.263736 0.132492 -0.0120436)
(-0.199383 0.199835 0.133784)
(-0.122845 0.237854 0.21362)
(-0.0618161 0.244197 0.136705)
(-0.00264443 0.271964 0.014541)
(0.0499926 0.327354 -0.072558)
(0.073957 0.375635 -0.131649)
(0.138164 0.367047 -0.222017)
(-0.00349622 0.00253197 -0.013525)
(-0.00666982 0.0006229 -0.00840756)
(-0.00704485 -6.66375e-05 -0.00931171)
(-0.00742095 0.000115467 -0.0107281)
(-0.00822068 0.000221947 -0.0116437)
(-0.00885101 0.000153292 -0.011961)
(-0.00889928 4.18437e-05 -0.0119332)
(-0.00786034 -1.00976e-05 -0.0117127)
(-0.00622506 0.000102286 -0.0107988)
(-0.00419824 0.000356448 -0.010152)
(-0.00492131 0.00925398 -0.0190127)
(-0.00968089 0.00455097 -0.0103754)
(-0.00984636 0.00217158 -0.0104709)
(-0.00987714 0.00207484 -0.0132535)
(-0.0108752 0.00192391 -0.0150066)
(-0.0116395 0.00105415 -0.0153805)
(-0.0113309 -0.000432466 -0.0149774)
(-0.0092705 -0.00225446 -0.0141528)
(-0.00628862 -0.00335962 -0.0124)
(-0.00317489 -0.00347623 -0.0107205)
(-0.00588277 0.0176591 -0.0218849)
(-0.0121397 0.0108295 -0.00854179)
(-0.0107172 0.00545184 -0.00638029)
(-0.00963079 0.00412825 -0.0113677)
(-0.0106316 0.00284083 -0.0158927)
(-0.0119564 0.000653183 -0.0174472)
(-0.0126913 -0.00264164 -0.0175285)
(-0.0115491 -0.00634357 -0.0172933)
(-0.00895509 -0.00806612 -0.0170354)
(-0.00485391 -0.00727636 -0.0174744)
(-0.0051714 0.0264186 -0.0292083)
(-0.0106831 0.0187752 -0.0144274)
(-0.00986588 0.0111581 -0.00961911)
(-0.00948377 0.00901701 -0.0138548)
(-0.011023 0.00602872 -0.0191739)
(-0.0127952 0.00260968 -0.0217492)
(-0.014362 -0.00184687 -0.022007)
(-0.0146639 -0.00776871 -0.0219022)
(-0.0137017 -0.0102011 -0.0235918)
(-0.00730734 -0.00930872 -0.0281052)
(-0.000495111 0.0376031 -0.0461687)
(-0.00543747 0.0298019 -0.0312618)
(-0.00849336 0.0189457 -0.0250548)
(-0.0106675 0.0130089 -0.0264129)
(-0.0123588 0.0074013 -0.0275771)
(-0.0121686 0.00246439 -0.027471)
(-0.0145142 -0.00362072 -0.0285463)
(-0.0175158 -0.0107686 -0.0301557)
(-0.0191629 -0.0148611 -0.0338414)
(-0.0101411 -0.0143506 -0.0419261)
(-0.00273972 0.0331948 -0.0569386)
(-0.010961 0.0358345 -0.0397742)
(-0.0201683 0.0268327 -0.0381282)
(-0.0232792 0.0177412 -0.0420499)
(-0.0237309 0.006295 -0.0460245)
(-0.0229509 0.00140508 -0.0496696)
(-0.0234344 0.00210685 -0.0506897)
(-0.0232167 -0.0037878 -0.0487745)
(-0.0231114 -0.0139381 -0.0488794)
(-0.0126162 -0.0179063 -0.0576475)
(-0.0113026 0.0696082 -0.0633942)
(-0.0325077 0.0666412 -0.0450044)
(-0.0500634 0.049683 -0.0524867)
(-0.0551899 0.0377784 -0.0683898)
(-0.0648593 0.0301547 -0.0880058)
(-0.072064 0.0211629 -0.101865)
(-0.0719524 0.00219994 -0.106349)
(-0.0641524 -0.0155036 -0.0996262)
(-0.0475885 -0.027059 -0.0908468)
(-0.0219503 -0.0310833 -0.0857203)
(-0.0382548 0.0697126 -0.0863749)
(-0.0663506 0.0616001 -0.0792496)
(-0.0854976 0.0450784 -0.0958544)
(-0.100933 0.0326589 -0.128016)
(-0.129398 0.0129086 -0.15504)
(-0.153638 -0.0176079 -0.16076)
(-0.1565 -0.0472253 -0.154076)