/*--------------------------------*- C++ -*----------------------------------*\
| =========                 |                                                 |
| \\      /  F ield         | OpenFOAM: The Open Source CFD Toolbox           |
|  \\    /   O peration     | Version:  2312                                  |
|   \\  /    A nd           | Website:  www.openfoam.com                      |
|    \\/     M anipulation  |                                                 |
\*---------------------------------------------------------------------------*/
FoamFile
{
    version     2.0;
    format      ascii;
    arch        "LSB;label=32;scalar=64";
    class       volScalarField;
    location    "1.495";
    object      p_rgh;
}
// * * * * * * * * * * * * * * * * * * * * * * * * * * * * * * * * * * * * * //

dimensions      [1 -1 -2 0 0 0 0];

internalField   nonuniform List<scalar> 
8000
(
408.818
408.491
407.949
407.26
406.378
405.375
404.327
403.306
402.364
401.546
409.501
409.121
408.443
407.629
406.726
405.721
404.64
403.565
402.579
401.731
410.967
410.617
409.77
408.765
407.635
406.472
405.281
404.1
403.013
402.051
413.261
412.882
411.835
410.688
409.258
407.772
406.324
404.93
403.682
402.594
416.453
416.021
414.87
413.39
411.623
409.743
407.922
406.262
404.669
403.444
421.096
420.579
419.038
417.149
414.945
412.566
410.215
407.995
406.241
404.848
426.937
426.241
424.448
422.27
419.642
416.721
413.808
411.13
408.845
407.084
431.641
431.33
430.195
427.844
422.075
412.848
404.249
399.383
397.269
396.315
313.499
327.237
337.436
338.962
322.929
296.125
269.881
246.247
223.522
201.189
40.1927
50.0225
59.7151
59.4573
45.9349
30.1915
18.3371
10.2567
4.92813
1.71705
1.00189
0.837231
0.579223
0.437078
0.256546
0.114247
0.0488054
0.0466243
0.0783553
0.0583164
0.258751
0.334571
0.186659
0.107372
0.0553347
0.033445
0.0376986
0.0581386
0.138716
0.199741
0.200713
0.440347
0.182502
0.075834
0.0451863
0.0424128
0.0495173
0.0907591
0.122872
0.108757
0.189458
0.356043
0.374398
0.0712416
0.0461901
0.0562769
0.0617405
0.100611
0.0511982
0.0474694
0.199548
0.388182
0.383336
0.179081
0.0489942
0.0669683
0.108311
0.0476144
0.0462657
0.0464485
0.406029
0.41631
0.397651
0.139392
0.0489364
0.0704073
0.0514348
0.0445608
0.044067
0.0457858
0.444786
0.43655
0.308804
0.0728574
0.0440977
0.0470506
0.0468047
0.0454628
0.0415336
0.0443319
0.468301
0.461882
0.0861525
0.0724437
0.0453938
0.052438
0.0806856
0.0617112
0.0381941
0.04341
0.494084
0.46956
0.108294
0.0939787
0.0879688
0.0796232
0.122217
0.10583
0.0357774
0.0564819
0.516298
0.323421
0.118304
0.0656951
0.0479496
0.0846179
0.125521
0.113619
0.0454374
0.0909725
408.41
408.032
407.439
406.706
405.88
404.95
403.933
402.924
401.998
401.199
409.041
408.527
407.798
406.937
406.094
405.211
404.187
403.131
402.15
401.334
410.501
409.993
409.077
408.01
406.945
405.869
404.726
403.563
402.477
401.557
412.593
412.141
411.216
409.912
408.483
407.033
405.621
404.215
402.859
401.837
415.466
415.197
414.165
412.53
410.67
408.758
406.94
405.202
403.598
402.396
419.851
419.381
417.924
415.907
413.552
411.088
408.741
406.596
404.733
403.362
425.43
424.54
422.722
420.326
417.455
414.337
411.266
408.47
406.16
404.486
430.431
429.387
427.792
425.624
421.339
413.276
405.236
399.023
395.232
393.113
317.704
315.15
316.449
309.658
278.629
240.18
203.455
174.132
152.495
136.156
45.4762
41.7383
38.2506
30.5882
17.6044
7.5557
2.16953
0.394642
0.0968105
0.0561164
0.94765
0.615822
0.43412
0.254189
0.11296
0.0407752
0.0324956
0.0552737
0.0637475
0.0603518
0.270725
0.22771
0.14926
0.0812187
0.0412163
0.0217779
0.0384141
0.064414
0.08833
0.0812408
0.175585
0.228446
0.13611
0.0577375
0.038418
0.0387734
0.0497554
0.0714013
0.064461
0.0564055
0.159697
0.371706
0.220145
0.0385101
0.0457155
0.0603221
0.0927861
0.13603
0.0550166
0.05935
0.275831
0.377749
0.363912
0.0818724
0.0545592
0.0773356
0.169385
0.0708418
0.0549962
0.056125
0.180438
0.357356
0.339721
0.0616258
0.0730781
0.179014
0.125883
0.0439327
0.0437693
0.0422882
0.146689
0.0877456
0.119011
0.0574243
0.0619937
0.125741
0.0769248
0.0397966
0.0343046
0.039057
0.262918
0.0970332
0.0821958
0.04475
0.0444824
0.0477429
0.10418
0.0572838
0.0307388
0.0357978
0.49363
0.147726
0.0659372
0.0903077
0.0583606
0.0933904
0.110314
0.0705182
0.0273658
0.0315652
0.515255
0.16742
0.0797402
0.0824479
0.0477196
0.0755351
0.117863
0.0910406
0.0220838
0.025916
407.719
407.328
406.876
406.121
405.187
404.23
403.235
402.236
401.333
400.571
408.226
407.708
407.17
406.17
405.191
404.345
403.395
402.357
401.399
400.635
409.569
408.895
408.256
407.062
405.834
404.808
403.753
402.636
401.599
400.729
411.512
410.861
410.106
408.728
407.181
405.73
404.388
403.062
401.833
400.842
414.176
413.618
412.632
410.96
409.004
407.073
405.292
403.634
402.153
400.975
417.998
417.191
415.642
413.556
411.171
408.756
406.489
404.441
402.683
401.338
423.031
421.607
419.385
416.752
413.742
410.58
407.555
404.911
402.807
401.277
428.128
425.309
423.299
420.288
415.961
409.758
402.166
394.675
388.965
385.187
313.546
295.147
273.56
242.708
198.476
155.051
121.979
99.7173
85.825
76.9862
42.5675
28.7195
15.3582
6.70554
1.34887
0.219026
0.0547297
0.0578776
0.0612757
0.0522853
0.588885
0.398808
0.237699
0.109833
0.0340717
0.0236485
0.0373696
0.0561846
0.0676203
0.0591655
0.166239
0.130459
0.079
0.0441698
0.019708
0.0214718
0.045201
0.106599
0.147716
0.120994
0.11854
0.105563
0.0595187
0.0365379
0.030447
0.0350522
0.0911222
0.14722
0.152233
0.156262
0.108514
0.112298
0.0319835
0.0283395
0.0456963
0.0570671
0.156114
0.154428
0.155653
0.15747
0.259156
0.312387
0.122796
0.0324901
0.0580186
0.130656
0.160756
0.156599
0.154283
0.0900686
0.306847
0.318406
0.158725
0.0304866
0.081134
0.170923
0.15918
0.141
0.0388979
0.0414631
0.15445
0.110373
0.100354
0.0596077
0.171756
0.164701
0.156832
0.0364662
0.028374
0.0363946
0.0447522
0.0899545
0.0467395
0.0646671
0.113087
0.0696708
0.103873
0.0223101
0.0262701
0.0377092
0.127961
0.119203
0.0471681
0.0522498
0.0432336
0.0533533
0.0577455
0.0326445
0.0254684
0.039065
0.508709
0.106341
0.0485343
0.0710191
0.0463557
0.0427145
0.0572678
0.0440067
0.0226392
0.0329006
406.89
406.446
406.172
405.481
404.385
403.32
402.314
401.319
400.448
399.733
407.214
406.69
406.246
405.434
404.343
403.324
402.394
401.326
400.434
399.707
408.321
407.633
407.017
406.002
404.627
403.548
402.534
401.435
400.447
399.638
410.104
409.325
408.416
407.2
405.539
404.105
402.823
401.555
400.427
399.51
412.497
411.626
410.485
408.819
406.841
404.91
403.195
401.632
400.284
399.253
415.688
414.457
412.691
410.574
408.211
405.87
403.697
401.761
400.116
398.858
420.141
418.056
415.274
412.356
409.282
406.259
403.541
401.148
399.191
397.779
422.253
416.132
413.233
411.058
406.314
397.708
385.625
374.615
366.208
360.778
297.935
265.652
214.065
164.348
124.303
94.7457
74.5003
60.9652
52.7521
47.5688
32.3712
15.712
3.13428
0.307436
0.0561034
0.0484819
0.0505134
0.0523164
0.0576336
0.0572045
0.315288
0.263567
0.127895
0.0265276
0.0284827
0.0331337
0.0486008
0.0750481
0.0919643
0.102704
0.0818577
0.0778357
0.0501533
0.0213813
0.0528062
0.0522199
0.124059
0.137964
0.144912
0.150793
0.0593081
0.0437681
0.0347281
0.0278576
0.03803
0.0655728
0.138158
0.14292
0.147862
0.153512
0.0508214
0.0267103
0.0270167
0.0344903
0.0432674
0.104436
0.147657
0.147201
0.150925
0.153938
0.135684
0.0406463
0.0253642
0.0356549
0.0589552
0.159672
0.151081
0.102521
0.0976075
0.15112
0.248722
0.0628322
0.0321351
0.037344
0.0741547
0.159878
0.149621
0.061855
0.0454098
0.0687215
0.139981
0.0678004
0.0543776
0.0572785
0.173184
0.161358
0.110518
0.0269966
0.0210937
0.0369446
0.0485314
0.0564085
0.0503671
0.135309
0.175312
0.167904
0.0883106
0.0244207
0.0220254
0.0399903
0.123538
0.0750883
0.0470169
0.0686987
0.0673563
0.039713
0.0487997
0.0318943
0.0271441
0.0331683
0.502807
0.0706823
0.0467821
0.0449283
0.0423055
0.0380384
0.0349556
0.0335713
0.0293941
0.0288183
405.862
405.383
405.007
404.365
403.308
402.236
401.213
400.244
399.408
398.754
406.124
405.533
404.971
404.313
403.268
402.206
401.183
400.178
399.31
398.625
406.924
406.235
405.395
404.548
403.351
402.217
401.142
400.057
399.106
398.36
408.347
407.535
406.469
405.243
403.777
402.366
401.062
399.807
398.733
397.917
410.336
409.26
407.889
406.296
404.4
402.555
400.871
399.363
398.109
397.195
412.945
411.392
409.412
407.29
405.008
402.751
400.584
398.713
397.163
396.096
416.872
414.212
410.931
407.796
404.849
402.133
399.598
397.122
395.097
393.821
415.246
406.227
404.423
402.399
392.698
377.187
361.506
346.571
334.743
328.097
275.043
226.779
151.767
105.222
79.0865
62.0223
50.6111
40.8209
33.2047
29.1113
20.7505
6.31892
0.35528
0.0631965
0.0528433
0.0534715
0.0593416
0.0613374
0.0632885
0.061043
0.148703
0.152702
0.0391786
0.0225088
0.0577072
0.074371
0.0651421
0.06236
0.0734338
0.0912595
0.0416373
0.055805
0.0290598
0.0332204
0.109787
0.12377
0.134698
0.08829
0.0699877
0.0842655
0.0316277
0.0339509
0.0339686
0.0378553
0.0519329
0.134407
0.141281
0.0889136
0.0473404
0.0511128
0.0303501
0.0277788
0.0373931
0.0389661
0.0490301
0.139985
0.139812
0.0490519
0.0418279
0.049306
0.0370213
0.0293724
0.0371733
0.0399291
0.0543245
0.1395
0.0991232
0.0327672
0.0499246
0.10647
0.0745972
0.0340105
0.0381281
0.0400765
0.0516691
0.126588
0.0498687
0.0278995
0.0461284
0.136425
0.0754636
0.0444071
0.0476127
0.0416118
0.077819
0.127732
0.0364561
0.0249105
0.0211182
0.0266966
0.0506453
0.0490415
0.072775
0.137796
0.164211
0.134317
0.0362975
0.0259888
0.0227333
0.0251992
0.0982262
0.0513746
0.0644208
0.141719
0.146588
0.0775261
0.0381403
0.0333572
0.0291049
0.0296659
0.44473
0.0480557
0.0484629
0.0595588
0.0571856
0.0455177
0.0441576
0.0413339
0.0355982
0.0330685
404.718
404.357
403.772
403.024
402.043
401.033
400.024
399.093
398.301
397.7
404.95
404.445
403.777
403.002
401.985
400.942
399.896
398.928
398.096
397.482
405.536
404.863
403.956
403.048
401.941
400.786
399.654
398.579
397.673
397.002
406.538
405.733
404.566
403.36
401.98
400.56
399.195
397.944
396.926
396.209
408.075
406.854
405.38
403.774
401.999
400.194
398.482
396.956
395.762
394.987
410.188
408.35
406.235
404.13
401.917
399.646
397.456
395.511
394.029
393.178
413.459
410.422
406.813
403.729
400.935
398.14
395.282
392.575
390.497
389.41
409.689
399.848
398.511
390.24
372.448
353.922
334.463
315.384
300.962
294.305
251.174
187.91
107.299
71.3713
55.2789
44.9046
33.7371
23.2714
16.3393
13.5109
11.5587
1.5273
0.0882957
0.0630627
0.0667949
0.0662398
0.0681631
0.0726708
0.0763785
0.0730481
0.0607269
0.0906917
0.0354034
0.0407012
0.0737293
0.0899355
0.0681586
0.0661132
0.0705721
0.0709368
0.0314178
0.0394913
0.0306035
0.0416401
0.105151
0.134942
0.0842102
0.0565558
0.0600037
0.0613508
0.0309412
0.0348805
0.0380796
0.049129
0.0550148
0.0980029
0.0824196
0.0471357
0.048368
0.0519615
0.0336861
0.0355723
0.0425187
0.0460204
0.0517785
0.0763544
0.0523867
0.0398137
0.0405427
0.0456042
0.0390409
0.0387725
0.0424557
0.0421489
0.0506498
0.0459491
0.0358558
0.0338684
0.0372811
0.0502939
0.0438152
0.0412055
0.0424861
0.0424057
0.0456635
0.0352924
0.0298745
0.0290186
0.0545715
0.131941
0.0473637
0.0434489
0.0465389
0.0431525
0.0397638
0.0332896
0.0281317
0.0269459
0.0454173
0.098108
0.0520773
0.0540361
0.0920953
0.0718327
0.051114
0.0380409
0.0314483
0.030049
0.0279751
0.0287522
0.105672
0.0536326
0.108402
0.1409
0.0749776
0.0549876
0.0394225
0.0385226
0.035508
0.0348601
0.434725
0.0436816
0.0662323
0.0958271
0.0709636
0.05281
0.0477167
0.0469533
0.0447071
0.0392247
403.547
403.192
402.59
401.798
400.848
399.837
398.851
397.961
397.215
396.665
403.731
403.296
402.606
401.743
400.738
399.669
398.633
397.693
396.911
396.346
404.161
403.559
402.693
401.678
400.53
399.33
398.163
397.109
396.259
395.666
404.844
404.048
402.927
401.652
400.22
398.743
397.335
396.094
395.139
394.529
405.868
404.633
403.182
401.568
399.755
397.874
396.081
394.544
393.437
392.821
407.537
405.62
403.475
401.334
398.996
396.56
394.21
392.212
390.831
390.225
410.298
406.979
403.417
400.298
397.166
393.856
390.526
387.607
385.645
384.916
405.922
396.199
389.471
371.943
348.711
325.531
301.444
279.606
265.416
261.22
227.589
156.672
82.2438
53.1727
40.1708
27.7068
16.121
7.62812
3.00314
1.62144
4.97746
0.33721
0.0767675
0.0707456
0.0745594
0.0773668
0.0825308
0.0919672
0.100734
0.100701
0.0342375
0.0641098
0.0469753
0.0540043
0.0658994
0.074789
0.0732942
0.0804751
0.0868472
0.0884966
0.0318362
0.0349091
0.0407988
0.0473774
0.0564475
0.0686647
0.0606966
0.0641698
0.0767176
0.0873532
0.0355942
0.0375031
0.0426556
0.0480695
0.0504305
0.0512426
0.0500706
0.0510001
0.0689958
0.0822073
0.040216
0.0413882
0.0450419
0.0484908
0.0471763
0.0463007
0.0429421
0.0396986
0.0470279
0.0623511
0.0607368
0.0437974
0.0443616
0.0437271
0.0445569
0.041603
0.037974
0.0328588
0.0473816
0.088423
0.0774054
0.0438487
0.0439904
0.0427153
0.0435667
0.0379477
0.03346
0.0296878
0.058935
0.126388
0.0535477
0.0443013
0.0439312
0.0432712
0.0420134
0.0363195
0.0318414
0.0289008
0.0363594
0.0638377
0.0517085
0.0586476
0.0860608
0.0597981
0.0428275
0.0390107
0.0369039
0.0353728
0.0351134
0.0373776
0.118301
0.0574857
0.103452
0.0870999
0.0455763
0.0458973
0.0467596
0.0453215
0.0429242
0.0417816
0.423949
0.037963
0.0588137
0.0717798
0.0517268
0.0530539
0.0543082
0.0531973
0.0812544
0.0513174
402.488
402.135
401.53
400.711
399.756
398.755
397.792
396.937
396.238
395.735
402.606
402.184
401.499
400.607
399.576
398.505
397.477
396.564
395.828
395.314
402.893
402.298
401.455
400.404
399.205
397.968
396.792
395.758
394.954
394.423
403.312
402.496
401.406
400.098
398.589
397.057
395.619
394.389
393.487
392.952
403.971
402.647
401.257
399.605
397.676
395.681
393.827
392.309
391.278
390.79
405.217
403.283
401.108
398.789
396.215
393.534
391.056
389.059
387.772
387.451
407.558
404.192
400.607
397.112
393.392
389.451
385.661
382.63
380.933
380.769
400.144
389.452
375.264
351.212
322.526
293.373
265.099
241.332
229.742
230.225
205.707
135.789
67.6924
40.1778
24.7668
11.7413
2.25721
0.195733
0.185968
0.196887
1.68065
0.195067
0.0746323
0.0748614
0.0822729
0.0908456
0.103214
0.114298
0.124116
0.129133
0.0689612
0.0587859
0.0593787
0.0674952
0.0722606
0.078883
0.086071
0.0936269
0.112229
0.129869
0.0773172
0.0399509
0.0539329
0.0587133
0.0606568
0.0627994
0.0643138
0.0755071
0.170537
0.194629
0.0574072
0.043037
0.0492268
0.0506533
0.0521906
0.051025
0.0475758
0.0653599
0.170148
0.179434
0.0478149
0.0480773
0.049257
0.0476968
0.0472189
0.0443801
0.0398925
0.0485789
0.126137
0.173193
0.0919176
0.0483409
0.0477802
0.0441571
0.0434482
0.040214
0.0362403
0.037487
0.038421
0.116777
0.144751
0.0475333
0.045748
0.0427554
0.0414158
0.0381499
0.0353995
0.0311858
0.0301851
0.0349081
0.0762424
0.0708581
0.0444373
0.0427068
0.0410912
0.0381065
0.0337423
0.0303038
0.0338226
0.0392853
0.0529948
0.0508819
0.084204
0.0679566
0.0448422
0.0419826
0.0397292
0.0392846
0.0418132
0.044318
0.308588
0.044263
0.0693028
0.0848177
0.0648912
0.0502036
0.0508934
0.0489831
0.0652998
0.0451923
0.346867
0.0303826
0.0383736
0.0531828
0.0562043
0.0559938
0.0552688
0.05842
0.0808861
0.0388406
401.633
401.278
400.647
399.83
398.877
397.881
396.927
396.092
395.431
394.99
401.692
401.269
400.568
399.661
398.628
397.551
396.526
395.628
394.924
394.457
401.826
401.251
400.406
399.331
398.104
396.843
395.663
394.64
393.864
393.332
402.034
401.2
400.128
398.791
397.236
395.652
394.199
392.984
392.121
391.517
402.401
401.111
399.677
397.959
395.903
393.812
391.945
390.468
389.486
388.972
403.288
401.384
399.12
396.568
393.783
390.942
388.395
386.465
385.325
385.06
405.194
401.958
398.214
394.402
390.108
385.56
381.333
378.092
376.61
377.207
390.461
376.732
359.483
331.458
297.837
263.202
228.077
207.04
200.847
208.315
184.071
121.625
58.0904
29.047
12.4097
1.10017
0.172835
0.163939
0.169461
0.183959
0.440447
0.155745
0.0776102
0.075776
0.0877773
0.102562
0.115657
0.123873
0.136556
0.146855
0.147791
0.0853195
0.0632269
0.0755708
0.0826104
0.0882208
0.0920193
0.0997177
0.162313
0.187903
0.146987
0.0744623
0.0628471
0.0667162
0.0674967
0.0662245
0.0649952
0.093111
0.189998
0.201441
0.153116
0.0652001
0.0563
0.0575795
0.0552946
0.0500177
0.0467639
0.0890367
0.175595
0.186598
0.126538
0.0552702
0.0566359
0.0521207
0.0479719
0.040488
0.0367004
0.0640968
0.169006
0.119244
0.0594156
0.052318
0.0533349
0.0481459
0.0432736
0.0362019
0.0330255
0.0412507
0.044981
0.0423106
0.146783
0.0479611
0.0486817
0.044785
0.0406463
0.0357759
0.0345108
0.0333244
0.0351926
0.039936
0.0977955
0.069107
0.045427
0.0429529
0.0402206
0.0376575
0.0344569
0.0332931
0.0388876
0.039027
0.0571856
0.0501702
0.0823766
0.0623133
0.0422212
0.0422687
0.0406051
0.0474162
0.0461185
0.03641
0.337999
0.0546798
0.0683769
0.0808856
0.064173
0.0505043
0.0522615
0.0555037
0.0415811
0.0316297
0.11698
0.0262866
0.0346218
0.0632705
0.0692881
0.0591479
0.0597513
0.0483948
0.0298137
0.0258768
401.053
400.694
400.057
399.232
398.28
397.283
396.329
395.498
394.84
394.174
401.064
400.642
399.929
399.019
397.978
396.894
395.867
394.974
394.269
393.476
401.072
400.51
399.656
398.583
397.345
396.067
394.882
393.867
393.077
392.162
401.09
400.261
399.186
397.872
396.304
394.676
393.213
392.008
391.111
390.087
401.175
399.981
398.52
396.72
394.628
392.499
390.632
389.176
388.188
387.185
401.846
399.951
397.656
394.914
392.109
389.186
386.595
384.642
383.563
383.418
403.384
400.351
396.569
392.599
387.872
382.854
377.68
373.741
372.644
374.114
377.31
361.483
345.721
316.679
278.591
235.803
199.594
181.037
179.198
192.125
166.197
114.162
52.6045
21.4432
4.89459
0.188555
0.156578
0.154621
0.161182
0.171251
0.1971
0.149811
0.0786105
0.0726929
0.0841841
0.110871
0.117292
0.126451
0.139886
0.150381
0.158091
0.104846
0.0681054
0.0725902
0.08629
0.0935572
0.0941954
0.116695
0.174557
0.193085
0.154902
0.158516
0.0935693
0.0685089
0.0728566
0.0721536
0.0714422
0.160457
0.200215
0.206507
0.172149
0.166012
0.0838345
0.0629542
0.0617879
0.0567685
0.0563883
0.17202
0.184857
0.16093
0.179734
0.176799
0.0983814
0.0589608
0.0538841
0.0462435
0.0519508
0.139895
0.122978
0.0546272
0.184392
0.173202
0.117249
0.0536696
0.0473982
0.0397071
0.0499946
0.0418589
0.0387815
0.0467696
0.119035
0.0812934
0.0936752
0.0540268
0.0423821
0.0366484
0.0385812
0.0303486
0.0383162
0.041805
0.0733665
0.0547096
0.049518
0.0457071
0.0403168
0.0373321
0.0340632
0.0349331
0.0393238
0.0365704
0.0584268
0.15992
0.0764454
0.041468
0.0412537
0.0413968
0.0396192
0.0540084
0.0397999
0.0292982
0.339061
0.33173
0.204005
0.054561
0.044109
0.0484177
0.0466964
0.048284
0.0292266
0.0233063
0.111559
0.0549259
0.0776101
0.0767884
0.0539405
0.051414
0.0493295
0.0313152
0.0218144
0.0203272
400.797
400.433
399.803
398.972
398.015
397.012
396.054
395.227
394.579
393.993
400.782
400.381
399.664
398.739
397.691
396.601
395.566
394.676
393.981
393.287
400.734
400.172
399.346
398.256
397.007
395.722
394.526
393.508
392.735
392.053
400.666
399.862
398.791
397.426
395.853
394.24
392.756
391.531
390.669
389.995
400.66
399.489
398.005
396.165
394.062
391.919
390.005
388.498
387.56
387.005
401.092
399.249
397.03
394.3
391.388
388.466
385.77
383.666
382.553
382.423
402.338
399.529
395.834
391.794
386.984
381.693
375.21
370.387
369.467
371.861
365.928
351.691
337.624
310.552
270.231
221.534
181.91
163.569
163.781
178.807
153.637
110.59
52.5874
19.9109
3.17542
0.179657
0.15712
0.152326
0.155072
0.161326
0.155724
0.162554
0.0686258
0.0643594
0.0827554
0.115095
0.121471
0.130706
0.140307
0.144601
0.0918884
0.103983
0.0662568
0.0692172
0.0833769
0.0990394
0.115351
0.187121
0.19534
0.177665
0.0834863
0.109227
0.102987
0.0748984
0.0775455
0.0842145
0.132861
0.196877
0.206735
0.206408
0.0823078
0.0843066
0.0916155
0.0733962
0.0711973
0.0746003
0.145003
0.182796
0.173607
0.126422
0.134102
0.119422
0.0878339
0.0640296
0.0638397
0.0658636
0.148914
0.148723
0.054355
0.0571702
0.23477
0.228933
0.153698
0.0554168
0.0559135
0.0544039
0.0939326
0.0305174
0.0459047
0.0505341
0.191048
0.237301
0.144231
0.0488759
0.0480942
0.0424301
0.0261048
0.0289139
0.043091
0.0496565
0.0666529
0.0861295
0.0855492
0.0477914
0.0422795
0.0356554
0.0264185
0.0343208
0.0411915
0.0511199
0.0638913
0.329139
0.089715
0.0402675
0.0399983
0.0359003
0.0323203
0.0494242
0.0373907
0.0377228
0.327362
0.359185
0.219178
0.0366274
0.0405015
0.0419383
0.0408999
0.0392784
0.0259406
0.0240223
0.342467
0.321888
0.121289
0.0460043
0.042461
0.0440161
0.0341293
0.0231258
0.0180807
0.0213273
400.887
400.531
399.897
399.06
398.095
397.085
396.121
395.283
394.623
394.17
400.893
400.497
399.767
398.845
397.79
396.696
395.654
394.747
394.041
393.575
400.867
400.37
399.514
398.406
397.145
395.852
394.639
393.593
392.809
392.333
400.802
400.057
399.022
397.663
396.074
394.421
392.896
391.628
390.743
390.306
400.785
399.657
398.244
396.482
394.36
392.171
390.182
388.586
387.568
387.242
401.113
399.393
397.284
394.785
391.898
388.895
386.089
383.778
382.436
382.338
402.229
399.59
396.175
392.483
387.941
382.789
375.978
369.947
368.115
370.363
360.104
349.877
340.489
319.354
280.831
230.376
183.978
159.621
156.274
169.756
148.28
111.567
56.5292
23.6049
5.84865
0.193252
0.160542
0.15033
0.146476
0.149734
0.210534
0.169416
0.0546632
0.0605448
0.079682
0.120927
0.124256
0.128053
0.126755
0.128331
0.0775845
0.0674006
0.0572796
0.0681857
0.0874043
0.10905
0.165294
0.204113
0.191222
0.159623
0.0622092
0.0588495
0.0708314
0.079595
0.0942047
0.111498
0.20651
0.20181
0.202878
0.201083
0.0576684
0.0525737
0.0617129
0.0794172
0.086696
0.110287
0.202462
0.193512
0.169698
0.169481
0.056334
0.0512359
0.0550434
0.071195
0.0768048
0.117726
0.188926
0.0894923
0.0596182
0.0568867
0.0944733
0.0568683
0.055173
0.0632757
0.0687975
0.0827317
0.0628514
0.0381711
0.0540978
0.0525313
0.230733
0.115653
0.0569998
0.0556849
0.058826
0.0619895
0.0252916
0.0310418
0.0539733
0.0743674
0.116355
0.139932
0.0708099
0.0506131
0.0450803
0.0388671
0.010628
0.0321736
0.0520366
0.095948
0.0693896
0.176806
0.0765748
0.0441606
0.0358976
0.0188864
0.0230371
0.0449712
0.0433946
0.0873787
0.34316
0.369331
0.0986416
0.0369374
0.0335479
0.0261361
0.0452149
0.042084
0.0303109
0.107645
0.369296
0.368376
0.216167
0.0356296
0.034497
0.0326264
0.040223
0.0169708
0.016326
0.120981
401.307
400.955
400.324
399.491
398.516
397.495
396.52
395.665
394.974
394.502
401.359
400.951
400.245
399.325
398.264
397.165
396.112
395.188
394.457
393.975
401.425
400.941
400.086
398.981
397.721
396.432
395.207
394.143
393.339
392.843
401.473
400.743
399.736
398.405
396.827
395.175
393.635
392.344
391.432
390.95
401.559
400.421
399.132
397.455
395.353
393.183
391.179
389.548
388.462
388.033
401.986
400.347
398.423
396.133
393.353
390.362
387.55
385.182
383.659
383.293
403.266
400.761
397.626
394.225
390.03
385.303
379.801
373.772
370.773
371.777
364.548
357.547
350.967
334.455
301.437
257.507
207.401
175.831
165.703
174.086
148.448
114.065
62.2578
29.9795
12.0733
0.447035
0.157606
0.144658
0.137567
0.139739
0.313705
0.179071
0.0575144
0.0696563
0.0842252
0.109449
0.115013
0.109339
0.105599
0.109518
0.0846311
0.0578254
0.0557014
0.0701705
0.0860354
0.105302
0.134553
0.133771
0.121156
0.0994434
0.0577718
0.053881
0.0616537
0.0721363
0.0905995
0.187615
0.201442
0.198305
0.190215
0.173185
0.0554424
0.0508321
0.0569504
0.0673113
0.130049
0.20794
0.200326
0.198554
0.190464
0.178509
0.057219
0.0493674
0.0532303
0.0724345
0.170902
0.211007
0.163197
0.148834
0.181032
0.144408
0.0615642
0.0530391
0.0556257
0.103505
0.150086
0.0895353
0.0725172
0.0498467
0.0608918
0.0477798
0.114274
0.0616129
0.0605577
0.0901322
0.0843763
0.115186
0.0613586
0.0443465
0.0658056
0.0649454
0.208648
0.0706118
0.0608522
0.0563368
0.0721246
0.0963221
0.00557342
0.0397105
0.0918951
0.0943126
0.133329
0.134903
0.064004
0.0404632
0.0521789
0.0169251
0.00808749
0.0404082
0.0605628
0.0599713
0.363247
0.373663
0.0515174
0.0330203
0.022656
0.0027122
0.0377647
0.0500821
0.0356593
0.179003
0.254535
0.374464
0.113319
0.0260513
0.0204269
0.0365596
0.0416275
0.035328
0.0182788
0.221514
402.01
401.652
401.032
400.219
399.233
398.193
397.198
396.31
395.58
395.09
402.123
401.702
401.013
400.113
399.056
397.95
396.879
395.923
395.147
394.649
402.357
401.814
400.963
399.884
398.662
397.386
396.154
395.065
394.218
393.687
402.617
401.856
400.879
399.545
398.017
396.415
394.885
393.572
392.589
392.071
402.959
401.826
400.628
398.968
396.968
394.849
392.884
391.247
390.086
389.518
403.628
402.104
400.331
398.151
395.508
392.709
389.995
387.71
386.117
385.45
405.365
402.922
399.93
396.651
393.039
388.819
384.495
380.377
377.283
376.623
375.397
369.59
364.255
351.257
326.102
291.052
251.434
215.447
198.003
197.134
155.173
121.962
71.8019
38.7575
22.0818
8.73241
0.180061
0.146874
0.140083
0.142349
0.487923
0.217039
0.0663235
0.0698625
0.0761181
0.0870783
0.100282
0.0992409
0.0971775
0.101915
0.104817
0.0576384
0.0485643
0.0541265
0.0670076
0.0805612
0.089073
0.0900837
0.0822739
0.075822
0.064062
0.0454758
0.0402385
0.0430814
0.0615369
0.106517
0.11786
0.124602
0.10521
0.0675039
0.057968
0.0399708
0.032501
0.0408513
0.100078
0.193049
0.191934
0.19089
0.180773
0.156189
0.0595356
0.0384517
0.0320437
0.0716996
0.180184
0.186174
0.194252
0.190451
0.174509
0.133038
0.0530886
0.0412809
0.0645339
0.139435
0.149426
0.0880966
0.198319
0.159074
0.0476383
0.0442609
0.0613721
0.0513177
0.0961691
0.107421
0.0574917
0.120588
0.14831
0.0636538
0.0845558
0.0468779
0.177936
0.0625468
0.0632616
0.0480619
0.106263
0.116347
0.0482593
0.0739725
0.116846
0.0444757
0.351247
0.0878338
0.0534106
0.0435682
0.107358
0.0733514
0.0196157
0.0512305
0.119113
0.0402557
0.35706
0.358962
0.0604125
0.0282027
0.0634091
-4.54943e-05
0.0119094
0.0376335
0.090609
0.0507325
0.209358
0.381844
0.0514535
0.0230248
0.00925447
0.00652549
0.0361439
0.0354251
0.022869
0.187513
402.914
402.537
401.935
401.158
400.159
399.114
398.087
397.172
396.41
395.877
403.102
402.638
401.949
401.099
400.069
398.961
397.88
396.89
396.079
395.52
403.503
402.897
402.014
400.959
399.812
398.589
397.375
396.259
395.359
394.757
404.109
403.332
402.276
400.953
399.501
397.978
396.497
395.165
394.121
393.483
404.896
403.801
402.625
400.926
398.993
396.939
395.075
393.426
392.148
391.476
405.994
404.606
402.988
400.804
398.278
395.688
393.101
390.885
389.242
388.368
408.276
406.045
403.186
399.96
396.639
393.083
389.408
386.115
383.684
382.547
388.375
382.78
378.169
369.39
352.142
326.328
296.3
268.48
249.029
240.866
171.373
140.555
91.389
54.4597
34.1892
21.9452
11.1224
3.4644
0.193224
0.180695
0.995109
0.373251
0.14549
0.0654561
0.0672386
0.0751134
0.0799059
0.0885243
0.0992686
0.102874
0.135971
0.0694071
0.0385463
0.0328833
0.0504122
0.0691868
0.0771148
0.0812346
0.0877355
0.093182
0.0728661
0.0381577
0.0226533
0.0246116
0.0492639
0.0704536
0.070798
0.0705929
0.0769932
0.125423
0.065749
0.032359
0.0193029
0.0274266
0.0475064
0.106448
0.134707
0.116404
0.144154
0.0898801
0.0590458
0.0254543
0.019426
0.0344922
0.0726664
0.0640567
0.186493
0.18424
0.121345
0.0736369
0.0427691
0.0394817
0.0301512
0.0498883
0.0550799
0.0636049
0.165634
0.0928796
0.051097
0.0568739
0.0480699
0.0539971
0.0703539
0.0441622
0.0496589
0.0597636
0.126237
0.0955702
0.0469228
0.0445228
0.0580497
0.0476726
0.0500191
0.0378583
0.049364
0.137543
0.15737
0.161689
0.0643764
0.0403701
0.227388
0.0569271
0.0423637
0.0408045
0.117223
0.126374
0.0994609
0.154265
0.0632281
0.0336805
0.310454
0.277187
0.0555418
0.0313792
0.0920189
0.112987
0.0279065
0.0587396
0.19708
0.026566
0.160085
0.386907
0.101311
0.0247709
0.0167175
0.0175356
0.0278342
0.0325496
0.0676062
0.138117
403.911
403.48
402.944
402.318
401.202
400.153
399.116
398.162
397.361
396.793
404.163
403.588
402.934
402.252
401.223
400.102
399.007
397.989
397.142
396.535
404.768
404.066
403.142
402.247
401.061
399.92
398.747
397.612
396.656
396.002
405.818
405.02
403.92
402.641
401.201
399.735
398.315
396.969
395.867
395.12
407.23
406.217
405.046
403.347
401.37
399.404
397.56
395.889
394.527
393.671
408.987
407.737
406.309
404.1
401.546
398.959
396.485
394.35
392.668
391.598
411.868
410.021
407.493
404.332
400.971
397.65
394.527
391.58
389.362
388.046
401.44
397.05
392.927
388.204
378.301
360.403
337.65
315.387
298.739
290.055
201.05
175.283
129.316
86.8001
57.6797
38.5257
27.0903
18.2609
11.922
8.43567
3.11448
1.07715
0.346556
0.130422
0.0630664
0.0719276
0.0768817
0.0777235
0.0771545
0.0755345
0.157642
0.0980953
0.0524352
0.0318969
0.0648643
0.0864824
0.0902856
0.0730877
0.0746054
0.0815419
0.0572351
0.0357722
0.0268674
0.0242332
0.0582087
0.09099
0.0954404
0.0645222
0.0862216
0.163603
0.0524067
0.0369396
0.0284818
0.0312135
0.0488182
0.0494569
0.0635042
0.0769826
0.0833135
0.158459
0.0499114
0.0327797
0.0260961
0.0321352
0.0436299
0.0494802
0.0955405
0.182013
0.096531
0.0950489
0.0414393
0.042102
0.0264957
0.0342286
0.0449956
0.0512685
0.0524761
0.0629441
0.0697709
0.0424591
0.0420517
0.0497033
0.0344263
0.0324735
0.0434566
0.0539902
0.0561825
0.0487552
0.0450851
0.0413769
0.0480394
0.0341525
0.0249983
0.0270164
0.0373827
0.0529414
0.123143
0.125021
0.0554196
0.0371335
0.0646754
0.0420763
0.026465
0.0248758
0.0313255
0.11071
0.194806
0.197135
0.0644519
0.0285879
0.0803784
0.101133
0.0344866
0.0233775
0.0264463
0.160123
0.20031
0.208073
0.196731
0.023669
0.0859414
0.169083
0.0540105
0.0242276
0.0217247
0.0713686
0.106776
0.13015
0.223486
0.21064
404.867
404.364
403.934
403.347
402.318
401.205
400.151
399.172
398.341
397.723
405.191
404.571
403.964
403.366
402.346
401.231
400.156
399.117
398.225
397.593
406.065
405.354
404.526
403.663
402.44
401.254
400.141
399.001
398.014
397.288
407.616
406.777
405.798
404.601
403.009
401.534
400.163
398.824
397.68
396.833
409.661
408.793
407.775
406.022
403.922
401.944
400.132
398.449
397.044
396.034
412.312
411.334
410.019
407.754
405.124
402.532
400.117
397.942
396.165
394.885
416.041
414.6
412.428
409.433
406.08
402.728
399.603
396.823
394.727
393.226
415.812
412.778
409.61
405.675
399.523
389.915
375.117
358.441
345.979
338.268
246.467
227.609
191.633
147.48
107.809
76.942
55.8103
41.107
32.5463
26.7899
11.0654
6.06998
1.60148
0.364295
0.140121
0.0756488
0.0821269
0.0778575
0.0727504
0.0688136
0.23788
0.163471
0.0960301
0.0543274