/*--------------------------------*- C++ -*----------------------------------*\
| =========                 |                                                 |
| \\      /  F ield         | OpenFOAM: The Open Source CFD Toolbox           |
|  \\    /   O peration     | Version:  2312                                  |
|   \\  /    A nd           | Website:  www.openfoam.com                      |
|    \\/     M anipulation  |                                                 |
\*---------------------------------------------------------------------------*/
FoamFile
{
    version     2.0;
    format      ascii;
    arch        "LSB;label=32;scalar=64";
    class       volScalarField;
    location    "0.18";
    object      p;
}
// * * * * * * * * * * * * * * * * * * * * * * * * * * * * * * * * * * * * * //

dimensions      [1 -1 -2 0 0 0 0];

internalField   nonuniform List<scalar> 
8000
(
253.635
256.306
261.172
267.612
274.863
282.15
288.783
294.215
298.046
300.022
210.168
212.741
217.44
223.66
230.663
237.698
244.099
249.338
253.032
254.937
171.573
173.977
178.38
184.209
190.762
197.333
203.304
208.185
211.625
213.397
138.001
140.132
144.06
149.268
155.117
160.975
166.29
170.63
173.685
175.258
109.057
110.83
114.115
118.476
123.371
128.267
132.703
136.32
138.863
140.171
83.948
85.2878
87.7784
91.0827
94.7912
98.5017
101.862
104.598
106.518
107.505
62.3762
63.1904
64.7023
66.7153
69.0068
71.3302
73.4447
75.1607
76.3564
76.9669
43.3012
43.4984
43.8088
44.2318
44.8607
45.6345
46.3861
46.9805
47.3643
47.5456
25.5715
25.1751
24.1118
22.7527
21.9163
21.5739
21.3703
21.1092
20.8202
20.6356
19.3266
16.5197
11.2515
6.77487
4.70557
3.77401
3.18385
2.67606
2.31213
2.13423
2.00495
0.989107
-0.110905
-0.503525
-0.543379
-0.521541
-0.542003
-0.576068
-0.590836
-0.584271
-0.724241
-0.807562
-0.842265
-0.800848
-0.748485
-0.704496
-0.684191
-0.673591
-0.667503
-0.659509
-0.878163
-0.869492
-0.855582
-0.834333
-0.808032
-0.780798
-0.760187
-0.745355
-0.735704
-0.72792
-0.833626
-0.826882
-0.822267
-0.820017
-0.814783
-0.808194
-0.801316
-0.793555
-0.786742
-0.781604
-0.815907
-0.818876
-0.826443
-0.833679
-0.838025
-0.838988
-0.836811
-0.832893
-0.829119
-0.826586
-0.847644
-0.852472
-0.860909
-0.868174
-0.872303
-0.873518
-0.872716
-0.870909
-0.869079
-0.868029
-0.892672
-0.895798
-0.90125
-0.905326
-0.908017
-0.909364
-0.909627
-0.90917
-0.908519
-0.908215
-0.935472
-0.937188
-0.939982
-0.942748
-0.945067
-0.946709
-0.947638
-0.947993
-0.948062
-0.948151
-0.976843
-0.977954
-0.97985
-0.982012
-0.984053
-0.985733
-0.986947
-0.987718
-0.988174
-0.988457
-1.019
-1.0198
-1.0212
-1.02293
-1.02468
-1.02627
-1.02755
-1.02849
-1.02911
-1.02947
245.61
248.749
254.411
261.826
270.084
278.292
285.691
291.7
295.914
298.08
202.22
205.284
210.798
218
226.007
233.953
241.105
246.909
250.976
253.065
164.034
166.896
172.089
178.862
186.376
193.815
200.5
205.916
209.709
211.656
131.203
133.726
138.373
144.442
151.167
157.815
163.779
168.606
171.981
173.714
103.221
105.332
109.251
114.364
120.018
125.597
130.592
134.627
137.444
138.888
79.1654
80.8199
83.8712
87.8229
92.1647
96.4306
100.238
103.305
105.444
106.539
58.7268
59.8595
61.901
64.4725
67.2524
69.9707
72.3901
74.3332
75.6827
76.3709
40.9543
41.4426
42.3107
43.2618
44.2004
45.1252
45.9713
46.6643
47.1406
47.3722
23.9161
24.1933
24.235
23.649
22.6009
21.831
21.3948
21.1539
20.9685
20.8218
18.7686
17.9163
15.2997
10.7988
6.48064
4.35737
3.35429
2.85683
2.51455
2.31032
4.62385
2.9362
0.830883
-0.529039
-0.796472
-0.76949
-0.652979
-0.591089
-0.595832
-0.589603
-0.858627
-0.899666
-0.941146
-0.939642
-0.896477
-0.825854
-0.747301
-0.699259
-0.681119
-0.666594
-0.985065
-1.00122
-0.981174
-0.93754
-0.884972
-0.83371
-0.792898
-0.764401
-0.746579
-0.735104
-0.948668
-0.93522
-0.900229
-0.868632
-0.844525
-0.827085
-0.813509
-0.801625
-0.792389
-0.786384
-0.875633
-0.866367
-0.853993
-0.847758
-0.845404
-0.843422
-0.839981
-0.835477
-0.831375
-0.828858
-0.862544
-0.863537
-0.866789
-0.870603
-0.873053
-0.873835
-0.873162
-0.871507
-0.86975
-0.868867
-0.894541
-0.896945
-0.900802
-0.904318
-0.906951
-0.908562
-0.909167
-0.90897
-0.908482
-0.908344
-0.934262
-0.935816
-0.93835
-0.941101
-0.943618
-0.94558
-0.94683
-0.947438
-0.947677
-0.947909
-0.975095
-0.976175
-0.978096
-0.980389
-0.982652
-0.9846
-0.986069
-0.987042
-0.987639
-0.988036
-1.01733
-1.01813
-1.01963
-1.0215
-1.02345
-1.02525
-1.02672
-1.02781
-1.02854
-1.02898
228.922
233.111
240.534
250.066
260.471
270.613
279.593
286.781
291.77
294.318
185.634
189.745
197.085
206.456
216.62
226.484
235.193
242.153
246.977
249.439
148.312
152.104
159.064
167.94
177.521
186.791
194.958
201.472
205.981
208.281
117.135
120.362
126.621
134.599
143.194
151.504
158.816
164.639
168.665
170.717
91.1825
93.8642
99.2028
105.981
113.249
120.259
126.413
131.303
134.678
136.396
69.2456
71.4672
75.7681
81.1505
86.8401
92.2772
97.0182
100.767
103.348
104.66
51.0976
52.8201
55.9214
59.7388
63.6248
67.2244
70.3018
72.7097
74.3637
75.2048
36.12
36.9551
38.6516
40.7619
42.6241
44.0899
45.2057
46.0633
46.6822
47.0047
20.0056
20.7935
22.3047
23.4462
23.5008
22.6649
21.7635
21.2849
21.1586
21.1129
13.8205
15.8483
17.6344
15.6763
11.8543
7.15077
4.35523
3.21941
2.85033
2.6748
5.83273
3.92147
2.12207
0.898522
-0.386965
-0.788909
-0.798465
-0.65331
-0.591439
-0.572065
-0.838441
-0.874146
-0.8948
-0.918154
-0.919629
-0.883275
-0.822841
-0.743006
-0.699467
-0.671591
-0.893651
-0.907922
-0.919947
-0.917966
-0.896055
-0.865147
-0.829437
-0.792194
-0.763982
-0.743847
-0.871754
-0.87413
-0.867649
-0.862285
-0.852197
-0.84179
-0.829079
-0.814077
-0.801013
-0.792396
-0.858983
-0.85722
-0.852386
-0.850474
-0.849998
-0.848868
-0.845491
-0.840114
-0.834932
-0.832049
-0.861894
-0.863483
-0.866411
-0.869942
-0.87305
-0.874741
-0.874612
-0.872999
-0.871067
-0.870254
-0.892019
-0.89416
-0.897673
-0.901531
-0.905011
-0.907533
-0.9088
-0.90895
-0.90861
-0.908635
-0.930758
-0.932328
-0.935027
-0.938192
-0.941296
-0.943886
-0.945671
-0.946654
-0.947129
-0.947534
-0.971941
-0.973052
-0.975128
-0.97771
-0.980382
-0.982784
-0.984662
-0.985953
-0.98677
-0.987311
-1.01444
-1.01528
-1.01693
-1.01907
-1.02136
-1.02351
-1.02531
-1.02665
-1.02757
-1.02812
202.745
208.623
218.951
232.03
245.984
259.236
270.697
279.702
285.868
288.992
159.79
165.321
175.56
188.609
202.403
215.386
226.555
235.301
241.278
244.303
124.939
129.116
138.578
150.98
164.075
176.335
186.848
195.061
200.665
203.498
96.8272
100.135
108.338
119.357
131.093
142.104
151.544
158.912
163.932
166.468
73.7487
76.6993
83.6893
93.0383
102.976
112.298
120.281
126.498
130.726
132.858
54.9857
57.5594
63.3318
70.8477
78.726
86.0522
92.2765
97.0886
100.347
101.987
39.8554
42.2862
46.6742
52.2089
57.9056
63.0145
67.2008
70.3548
72.4695
73.5341
27.8984
29.6793
32.6108
36.188
39.6268
42.2753
44.0771
45.2428
46.0197
46.4354
17.4599
17.94
19.2009
21.2441
23.1166
23.5242
22.765
21.7922
21.4133
21.3743
11.9442
13.7819
17.2804
18.8373
17.1426
12.9035
7.63613
4.37029
3.34064
3.17444
1.22142
1.21893
1.43979
1.7376
1.47235
-0.0363491
-0.786203
-0.803126
-0.65589
-0.535059
-0.849392
-0.855506
-0.847022
-0.879603
-0.892615
-0.91784
-0.889795
-0.82372
-0.74809
-0.680905
-0.81173
-0.839143
-0.852691
-0.87711
-0.901022
-0.887754
-0.864553
-0.829291
-0.792611
-0.757923
-0.813073
-0.820104
-0.826947
-0.836593
-0.840253
-0.84657
-0.841691
-0.828552
-0.812306
-0.79914
-0.826001
-0.828972
-0.832766
-0.839761
-0.846541
-0.850214
-0.849513
-0.844805
-0.838713
-0.83516
-0.84824
-0.851245
-0.856963
-0.862797
-0.869055
-0.87345
-0.874979
-0.873996
-0.872113
-0.871463
-0.884233
-0.886483
-0.890722
-0.895693
-0.900759
-0.904892
-0.907395
-0.908278
-0.908298
-0.908594
-0.924769
-0.926311
-0.929435
-0.933311
-0.937374
-0.94097
-0.943616
-0.945212
-0.946075
-0.946743
-0.966984
-0.968053
-0.970443
-0.973532
-0.976881
-0.979987
-0.982485
-0.984253
-0.9854
-0.986155
-1.0101
-1.01093
-1.01286
-1.01542
-1.01824
-1.02094
-1.02322
-1.02494
-1.02613
-1.02684
164.581
174.151
188.951
207.368
226.676
244.458
259.396
270.876
278.616
282.501
118.355
129.294
145.128
163.851
183.253
200.889
215.545
226.743
234.27
238.041
90.2386
93.8228
109.381
127.338
145.866
162.634
176.493
187.043
194.119
197.661
67.4209
70.2707
82.6191
98.1922
114.705
129.782
142.256
151.741
158.097
161.276
46.9416
51.7366
62.0736
75.1613
89.0714
101.855
112.438
120.47
125.845
128.529
31.5576
37.3359
46.303
56.7746
67.7194
77.8309
86.1705
92.4527
96.6321
98.7129
19.6883
25.5792
33.39
41.7756
49.8619
57.23
63.1035
67.3556
70.117
71.4797
11.4587
17.2758
23.3461
29.3121
34.7328
39.2474
42.3389
44.1806
45.2149
45.7168
7.15911
13.5293
16.6562
18.1869
20.5588
23.0379
23.5696
22.7401
21.8775
21.5918
8.73852
11.5741
18.6096
20.305
19.838
18.0131
12.9896
7.26059
4.36741
3.7668
-0.379198
-0.383152
-0.357317
0.165571
2.04413
1.88816
0.0227029
-0.78246
-0.768859
-0.512864
-0.691677
-0.680342
-0.74194
-0.824912
-0.85853
-0.888686
-0.915371
-0.880057
-0.823981
-0.699651
-0.692523
-0.707345
-0.751417
-0.805868
-0.853983
-0.883706
-0.886775
-0.864265
-0.833662
-0.778194
-0.748831
-0.758298
-0.774457
-0.797729
-0.820792
-0.833995
-0.845498
-0.840606
-0.82562
-0.805294
-0.789104
-0.794923
-0.805006
-0.819002
-0.833653
-0.845443
-0.849268
-0.847322
-0.841307
-0.836409
-0.829166
-0.832792
-0.839949
-0.849264
-0.85945
-0.868019
-0.872632
-0.873345
-0.872053
-0.871569
-0.872262
-0.874573
-0.879657
-0.886212
-0.893402
-0.899769
-0.904177
-0.906336
-0.907074
-0.907753
-0.915996
-0.917501
-0.921178
-0.926056
-0.931479
-0.93647
-0.940329
-0.942824
-0.944267
-0.945286
-0.95993
-0.96101
-0.963807
-0.967652
-0.971976
-0.976063
-0.979412
-0.981831
-0.983425
-0.984458
-1.00406
-1.00496
-1.00725
-1.01046
-1.01406
-1.01751
-1.02044
-1.02267
-1.0242
-1.02513
104.382
124.735
149.021
176.027
202.956
226.909
246.362
260.935
270.593
275.392
39.2566
70.1936
101.086
131.333
159.316
183.497
202.785
217.08
226.508
231.181
5.4946
26.5208
65.4644
96.4649
123.117
146.118
164.458
177.971
186.858
191.256
4.85641
4.60929
43.584
70.6999
94.4006
114.968
131.469
143.621
151.615
155.572
3.17368
1.84468
29.7852
52.1629
71.981
89.3307
103.329
113.633
120.413
123.767
1.22398
2.4743
22.3662
39.316
54.3784
67.9482
79.0282
87.1587
92.4841
95.1081
-0.10315
1.34492
13.8595
28.6587
40.0486
50.0249
58.1267
63.8563
67.4779
69.2251
-0.184927
-0.224841
9.1124
20.25
28.2288
34.8475
39.7696
42.7645
44.3238
44.9694
4.5882
10.4127
8.38315
13.9641
17.5329
20.5771
23.187
23.5738
22.6497
21.9378
-0.66743
0.690579
4.31279
15.116
20.8295
19.7637
17.2469
11.9292
6.47657
4.69942
-0.508686
-0.526469
-0.491071
-0.390034
0.197905
2.2163
1.62093
-0.341799
-0.782611
-0.520302
-0.598117
-0.61147
-0.63356
-0.659664
-0.810027
-0.849228
-0.886751
-0.913197
-0.885682
-0.735386
-0.653
-0.649174
-0.654482
-0.70067
-0.789457
-0.850273
-0.895665
-0.89396
-0.882128
-0.804118
-0.706496
-0.709808
-0.723043
-0.749396
-0.786907
-0.818748
-0.836996
-0.850182
-0.842578
-0.811785
-0.758803
-0.761194
-0.772931
-0.791005
-0.813134
-0.832292
-0.844529
-0.847527
-0.842534
-0.834855
-0.809492
-0.810847
-0.819609
-0.831405
-0.84545
-0.858307
-0.867244
-0.870764
-0.870493
-0.869694
-0.857933
-0.859037
-0.865497
-0.873792
-0.883446
-0.892377
-0.899128
-0.903015
-0.904786
-0.905816
-0.904734
-0.90585
-0.91053
-0.916695
-0.923841
-0.930541
-0.93589
-0.9395
-0.941668
-0.943062
-0.950553
-0.951629
-0.955206
-0.960167
-0.965805
-0.971135
-0.975541
-0.978755
-0.980876
-0.982219
-0.995804
-0.99698
-0.999959
-1.00422
-1.0089
-1.01333
-1.01706
-1.01991
-1.02186
-1.02303
34.9443
59.0545
96.9052
138.661
176.358
207.905
232.681
250.773
262.556
268.349
8.89316
10.0678
35.1302
87.9361
131.727
164.428
189.275
207.163
218.72
224.382
7.19977
7.42537
6.68234
55.8763
96.9278
127.942
151.654
168.635
179.557
184.9
5.48672
5.34478
4.94675
35.8796
71.2746
98.8595
120.035
135.263
145.089
149.904
4.00116
4.20041
3.50888
23.8605
52.7019
75.8305
93.682
106.583
114.934
119.029
2.83732
2.94141
3.11492
19.2329
39.8673
57.3805
71.4021
81.6486
88.2813
91.5202
2.10136
1.48887
1.3153
13.5253
29.0186
42.1917
52.6016
60.0896
64.7838
67.0039
2.0123
1.6905
1.582
10.2062
20.6022
29.593
36.4224
40.9455
43.3983
44.3406
1.42515
0.834656
2.56917
11.8949
14.7313
18.2279
21.308
23.5011
23.6387
22.6938
0.202188
-0.129456
-0.728145
2.9632
16.2684
19.6719
18.8047
15.6237
10.5288
6.54635
-0.374457
-0.439532
-0.474868
-0.496219
-0.424237
0.706278
1.87297
0.878542
-0.545589
-0.484843
-0.49767
-0.505671
-0.514017
-0.593487
-0.701812
-0.796733
-0.861704
-0.90757
-0.926004
-0.779654
-0.595717
-0.587176
-0.592131
-0.622901
-0.706872
-0.799573
-0.869273
-0.912812
-0.931453
-0.829449
-0.673068
-0.666938
-0.676876
-0.705219
-0.749085
-0.794348
-0.832758
-0.859441
-0.865809
-0.817715
-0.736235
-0.733088
-0.742736
-0.762047
-0.789714
-0.816311
-0.836771
-0.847377
-0.844619
-0.83072
-0.792638
-0.791669
-0.798986
-0.812244
-0.829851
-0.846686
-0.859958
-0.866832
-0.86743
-0.865188
-0.844227
-0.844285
-0.850394
-0.860085
-0.872317
-0.883831
-0.892987
-0.898683
-0.901492
-0.902598
-0.893448
-0.894069
-0.898595
-0.906245
-0.915315
-0.923834
-0.930779
-0.935555
-0.938474
-0.940156
-0.940823
-0.941517
-0.945004
-0.951776
-0.958941
-0.965658
-0.971226
-0.975282
-0.977938
-0.97957
-0.986687
-0.987934
-0.990883
-0.997228
-1.00319
-1.00875
-1.01339
-1.01689
-1.01927
-1.02069
12.3732
17.8795
42.026
97.1
149.694
189.844
219.92
241.522
255.388
262.137
9.38186
9.87546
9.38083
35.5723
102.163
146.123
176.563
198.082
211.765
218.386
7.96025
8.29991
7.57294
6.70354
66.6091
110.38
139.59
160.049
173.024
179.286
5.96377
5.8646
5.71521
5.26316
45.2308
83.8223
109.376
127.565
139.245
144.894
3.85308
3.802
4.04166
3.46279
31.0988
63.315
84.678
100.057
110.018
114.839
2.23064
2.0423
2.48547
2.90668
24.1178
47.5069
64.1981
76.4738
84.4846
88.3462
1.67543
1.44528
1.53574
0.785814
14.8824
34.1671
47.2639
56.4019
62.3046
65.0625
1.5021
1.50594
1.5782
1.61825
9.85298
23.7228
32.9122
38.8724
42.4594
43.9086
1.23055
1.12505
1.15675
2.32566
8.01983
16.5792
19.2419
22.3656
24.1845
23.9568
0.693065
0.493479
0.104731
-0.749617
4.73914
18.7718
17.4494
17.542
14.7926
10.5068
0.0213748
-0.052592
-0.255011
-0.504625
-0.599714
-0.310214
1.5032
1.90498
0.566137
-0.164699
-0.341601
-0.348481
-0.39742
-0.507374
-0.654157
-0.73091
-0.814438
-0.882992
-0.932733
-0.820015
-0.505978
-0.502766
-0.50167
-0.568138
-0.657765
-0.746712
-0.844735
-0.914953
-0.972551
-0.8523
-0.613395
-0.613104
-0.625951
-0.664181
-0.718634
-0.770543
-0.823908
-0.864661
-0.89658
-0.821664
-0.696451
-0.695862
-0.711302
-0.734396
-0.767967
-0.800611
-0.829111
-0.849218
-0.851117
-0.824634
-0.766869
-0.765823
-0.778208
-0.792531
-0.814706
-0.835293
-0.853123
-0.862714
-0.86338
-0.858032
-0.827239
-0.827525
-0.834894
-0.84576
-0.861084
-0.875313
-0.886768
-0.893987
-0.897405
-0.898126
-0.877911
-0.882007
-0.88647
-0.895226
-0.90655
-0.917049
-0.925586
-0.931442
-0.935018
-0.936805
-0.929285
-0.930867
-0.935888
-0.943126
-0.951828
-0.960103
-0.966878
-0.971753
-0.974899
-0.976756
-0.977488
-0.97772
-0.983555
-0.990272
-0.997364
-1.00415
-1.00972
-1.01388
-1.01668
-1.01831
12.2479
15.906
17.4867
59.3727
125.572
175.404
209.964
234.406
249.982
257.499
10.0777
10.7619
9.5831
9.81377
71.6679
130.856
166.756
191.074
206.51
213.914
8.87587
8.90197
8.16235
7.28707
28.2197
95.3651
130.584
153.42
168.083
175.099
6.71755
5.99821
5.93127
5.41413
5.96438
72.1725
101.64
121.621
134.83
141.164
4.10127
3.70775
3.87305
4.31769
1.88414
53.9155
78.147
95.0014
106.304
111.723
2.3191
2.4298
2.28206
3.08404
3.11714
39.1028
58.821
72.3987
81.5897
85.9845
1.64376
1.7708
1.57117
1.64545
1.52922
26.4406
43.1148
53.4284
60.3515
63.6208
1.51499
1.51233
1.39927
1.55541
-0.0452068
17.6768
30.0847
37.1936
41.6082
43.5967
1.27042
0.921529
1.0206
0.957265
8.08432
13.2182
17.9593
20.7941
24.0833
24.9319
0.552651
0.242091
0.390231
-0.0314568
1.27073
11.7985
14.6349
15.6341
17.1278
15.1674
-0.00563366
-0.195374
-0.0739149
-0.459243
-0.678717
-0.410235
1.96277
3.57103
2.46872
0.75029
-0.314953
-0.385167
-0.341205
-0.501505
-0.654778
-0.663982
-0.777172
-0.85968
-0.899243
-0.794017
-0.469746
-0.487181
-0.481161
-0.549837
-0.643888
-0.707734
-0.846709
-0.905711
-0.996671
-0.872547
-0.571627
-0.582529
-0.60292
-0.645024
-0.702857
-0.755284
-0.821498
-0.875297
-0.933402
-0.82787
-0.659503
-0.663911
-0.686128
-0.717021
-0.753477
-0.789631
-0.826187
-0.855043
-0.863875
-0.818156
-0.736404
-0.734194
-0.75407
-0.778354
-0.803209
-0.826158
-0.846518
-0.859571
-0.860022
-0.849799
-0.803072
-0.795633
-0.811895
-0.83313
-0.851642
-0.868296
-0.881361
-0.889764
-0.89308
-0.892258
-0.861811
-0.851254
-0.863272
-0.883871
-0.89857
-0.911166
-0.921056
-0.927778
-0.931764
-0.933388
-0.915992
-0.906806
-0.911842
-0.932891
-0.944507
-0.955084
-0.963048
-0.968653
-0.972189
-0.974172
-0.966431
-0.962345
-0.963278
-0.981704
-0.990776
-0.999847
-1.00643
-1.01125
-1.0144
-1.01622
16.8931
12.0062
12.3585
36.6328
106.315
166.32
204.504
230.526
247.076
255.032
9.75447
9.8674
9.05808
8.61517
42.1711
120.377
161.718
187.305
203.682
211.539
8.3467
8.81268
7.99385
7.10739
4.7673
92.1276
126.918
149.947
165.441
172.883
6.15777
6.64474
6.24584
5.7296
4.75527
70.5471
98.7899
118.665
132.505
139.201
3.93383
4.09848
4.05175
4.1057
3.25017
50.1664
75.5862
92.5448
104.359
110.091
2.48156
2.11038
2.27565
2.76762
0.833583
33.3124
56.3924
70.3328
80.0564
84.7496
1.96396
1.71753
1.78481
2.19457
-0.0299496
19.7167
40.5971
51.7796
59.2805
62.8641
1.6721
1.51974
1.57885
2.15444
0.218046
11.6926
28.3383
36.4201
41.1375
43.4147
1.24813
1.17403
1.08879
1.55612
4.25045
7.11416
17.4522
19.9363
23.8254
25.2791
0.642815
0.502492
0.479212
-0.158251
-0.593596
10.1222
12.1298
13.7012
17.9755
17.7984
0.111865
-0.0737819
-0.0499357
-0.385304
-0.458405
-0.339165
1.43242
5.95021
4.39988
1.63922
-0.230982
-0.327719
-0.33963
-0.455366
-0.560827
-0.662847
-0.877438
-0.852859
-0.872474
-0.738493
-0.422575
-0.457259
-0.481057
-0.548696
-0.627606
-0.691519
-0.828703
-0.90328
-0.993075
-0.880961
-0.542512
-0.553068
-0.583133
-0.635238
-0.689959
-0.744777
-0.816635
-0.877185
-0.952355
-0.834472
-0.635718
-0.636083
-0.661313
-0.705531
-0.743572
-0.782508
-0.823898
-0.857802
-0.874427
-0.814838
-0.717335
-0.71211
-0.729312
-0.767342
-0.794452
-0.820387
-0.842881
-0.85793
-0.858872
-0.844311
-0.788351
-0.780141
-0.790802
-0.823628
-0.843701
-0.863242
-0.877908
-0.886956
-0.890073
-0.888433
-0.851132
-0.842104
-0.850193
-0.875888
-0.89157
-0.906946
-0.918027
-0.925257
-0.929464
-0.930957
-0.908313
-0.900284
-0.905827
-0.925623
-0.939114
-0.951579
-0.960485
-0.966517
-0.97032
-0.972346
-0.961269
-0.955839
-0.95862
-0.974268
-0.986335
-0.996796
-1.00424
-1.00942
-1.01283
-1.01473
17.12
11.8289
12.6058
37.8677
106.911
166.405
204.509
230.549
247.104
255.06
9.61674
9.6314
8.99126
8.86819
43.2323
120.436
161.705
187.31
203.704
211.564
8.25064
8.64454
7.9911
7.24688
4.82776
91.1777
126.77
149.923
165.453
172.903
6.31804
6.86074
6.37605
5.89235
4.78382
69.5429
98.5603
118.606
132.504
139.214
4.13851
4.50307
4.31757
4.18018
3.43634
49.6663
75.3607
92.4691
104.348
110.098
2.55558
2.48788
2.41623
2.69037
0.950378
33.7553
56.3497
70.2886
80.0469
84.7529
1.9488
1.48672
1.58467
1.94594
-0.00575066
20.5135
40.5742
51.7129
59.2583
62.8591
1.65342
1.35733
1.35673
2.02572
0.104664
11.555
28.1206
36.3638
41.1162
43.4022
1.23805
1.1581
1.0443
1.63531
5.5598
7.42057
17.3871
19.883
23.8095
25.2586
0.631784
0.531664
0.578992
-0.0123103
-0.458601
10.3903
12.028
13.6214
18.0246
17.9486
0.101957
-0.0380607
-0.0385106
-0.37789
-0.448777
-0.347321
1.5582
6.47305
4.76478
1.76197
-0.23997
-0.318887
-0.351198
-0.464027
-0.565721
-0.66203
-0.881808
-0.851192
-0.869604
-0.734107
-0.43117
-0.461291
-0.488167
-0.562645
-0.63021
-0.692063
-0.828804
-0.901837
-0.991775
-0.880251
-0.548781
-0.561635
-0.591642
-0.641149
-0.690734
-0.744822
-0.816284
-0.875799
-0.953513
-0.833699
-0.637332
-0.6422
-0.670889
-0.708028
-0.744065
-0.78235
-0.823701
-0.858684
-0.875753
-0.813825
-0.713964
-0.711535
-0.738803
-0.767407
-0.794545
-0.819848
-0.842244
-0.857562
-0.858457
-0.842994
-0.782844
-0.77326
-0.798971
-0.821698
-0.843516
-0.862602
-0.877139
-0.88616
-0.889116
-0.887273
-0.84572
-0.829823
-0.852202
-0.872603
-0.890818
-0.906075
-0.917193
-0.924453
-0.928642
-0.930102
-0.90526
-0.883869
-0.90349
-0.921961
-0.937634
-0.950536
-0.959644
-0.965763
-0.969604
-0.971639
-0.959322
-0.940594
-0.954173
-0.971062
-0.984585
-0.995756
-1.00345
-1.00873
-1.01219
-1.01412
12.7308
14.6161
17.8032
61.0189
126.582
175.837
210.188
234.547
250.086
257.591
10.308
10.4557
9.48811
9.58102
72.7906
131.262
166.951
191.195
206.605
213.999
9.03217
8.93404
8.28815
7.58079
29.6115
95.3228
130.642
153.501
168.159
175.174
6.79864
6.41111
6.2053
6.1375
7.57493
71.1883
101.525
121.65
134.883
141.224
4.12475
3.86712
3.88644
4.2317
3.04112
52.9635
78.0107
95.0022
106.335
111.77
2.18654
2.10779
2.19914
2.08871
3.76887
38.9326
58.7712
72.3976
81.6105
86.0204
1.60238
1.69266
1.62503
1.44692
-0.201327
25.8127
42.952
53.3778
60.3532
63.6465
1.53909
1.57904
1.49661
1.8654
-1.23399
17.2537
29.976
37.1676
41.6128
43.6242
1.25522
0.942204
1.03043
1.17118
10.2729
14.1749
17.9599
20.6827
24.0997
24.9647
0.522645
0.246274
0.417225
-0.0633987
1.2261
11.6206
14.2943
15.3435
17.3229
15.6108
-0.0621208
-0.196463
-0.0760438
-0.439286
-0.643187
-0.439317
2.45633
4.15102
2.91552
0.869139
-0.337866
-0.370174
-0.356766
-0.504465
-0.63714
-0.651607
-0.752923
-0.852067
-0.896567
-0.803956
-0.470944
-0.47345
-0.469749
-0.5647
-0.641941
-0.70557
-0.845214
-0.902767
-0.998036
-0.867383
-0.566679
-0.574287
-0.593457
-0.647605
-0.700842
-0.753992
-0.820363
-0.874313
-0.937625
-0.824871
-0.646964
-0.658537
-0.680259
-0.715603
-0.7508
-0.787882
-0.824901
-0.854731
-0.865049
-0.814116
-0.717154
-0.727172
-0.749175
-0.774778
-0.799636
-0.823339
-0.844065
-0.857534
-0.857684
-0.845781
-0.77933
-0.784862
-0.807664
-0.828274
-0.847577
-0.865453
-0.878768
-0.887305
-0.890402
-0.889094
-0.836831
-0.836125
-0.860343
-0.878417
-0.894336
-0.908038
-0.91843
-0.925384
-0.929426
-0.930975
-0.891567
-0.885073
-0.910679
-0.927182
-0.940896
-0.952061
-0.960546
-0.966421
-0.970096
-0.972112
-0.944285
-0.936664
-0.959914
-0.97554
-0.98759
-0.997013
-1.00414
-1.00921
-1.01253
-1.0144
12.2806
17.2027
43.5484
98.1323
150.447
190.349
220.245
241.741
255.556
262.284
9.34173
9.58304
9.16713
35.9902
102.958
146.656
176.879
198.288
211.924
218.526
8.21541
8.37584
7.70343
6.72618
67.6818
110.843
139.85
160.224
173.164
179.413
6.37371
6.28134
5.91275
5.6163
46.8477
84.2141
109.558
127.699
139.361
145.003
4.00262
3.9519
3.97843
3.90783
32.2305
63.556
84.8038
100.148
110.107
114.927
2.22141
2.10404
2.45832
2.68644
23.8967
47.5744
64.261
76.5274
84.5491
88.4166
1.57581
1.62112
1.75803
0.976917
14.0012
33.8917
47.1924
56.398
62.3429
65.1183
1.49967
1.63318
1.83556
1.73916
8.09184
23.3119
32.829
38.8441
42.4905
43.9697
1.18137
1.05761
1.24986
2.56218
8.32773
16.8958
19.1654
22.2437
24.2128
24.0583
0.559807
0.398494
0.101609
-0.702503
4.53839
18.8009
17.189
17.4619
15.1072
10.9473
-0.0768938
-0.10879
-0.272545
-0.487608
-0.568453
-0.308285
1.67449
2.17702
0.791831
-0.0919286
-0.376453
-0.37332
-0.40853
-0.520237
-0.649979
-0.738099
-0.810588
-0.87768
-0.933358
-0.826953
-0.505862
-0.501415
-0.49828
-0.58077
-0.657943
-0.749724
-0.845092
-0.911255
-0.979338
-0.852306
-0.600921
-0.603993
-0.617077
-0.665417
-0.716847
-0.769537
-0.823278
-0.865634
-0.901917
-0.817861
-0.675287
-0.683954
-0.69905
-0.730109
-0.763823
-0.79773
-0.827609
-0.848124
-0.850456
-0.819155
-0.740765
-0.749921
-0.764479
-0.786224
-0.809094
-0.830729
-0.84845
-0.859123
-0.859409
-0.852735
-0.799733
-0.806861
-0.82078
-0.837761
-0.854893
-0.870501
-0.882425
-0.890049
-0.893416
-0.893823
-0.853922
-0.858763
-0.872658
-0.886603
-0.90017
-0.912107
-0.921374
-0.927636
-0.931382
-0.933155
-0.90656
-0.909072
-0.922597
-0.934433
-0.945737
-0.955358
-0.962896
-0.968197
-0.971569
-0.973506
-0.958237
-0.960571
-0.972233
-0.982232
-0.991786
-0.999778
-1.00607
-1.01064
-1.01367
-1.01541
34.0529
58.5228
97.0882
139.18
176.909
208.349
233.014
251.027
262.763
268.535
8.85303
9.5718
35.3214
88.5424
132.356
164.897
189.605
207.408
218.919
224.561
7.44745
7.58501
6.66312
56.3865
97.6217
128.421
151.963
168.859
179.74
185.065
5.84562
6.0102
5.45032
37.0505
72.275
99.3464
120.303
135.455
145.248
150.049
4.07863
4.29606
3.53698
25.3567
53.643
76.2264
93.8796
106.731
115.063
119.15
2.65043
2.24333
2.56591
20.4601
40.4089
57.5775
71.5036
81.745
88.3775
91.6159
1.9776
1.56041
0.782174
12.932
28.8689
42.1193
52.5871
60.1273
64.8477
67.0767
2.01375
1.84087
1.51882
7.46404
19.5099
29.2963
36.3328
40.9397
43.445
44.4044
1.44712
1.03971
2.69776
12.1929
14.1566
18.1315
21.171
23.4646
23.6893
22.7616
-0.0265523
-0.211628
-0.734854
2.70839
15.3195
19.5357
18.6717
15.734
10.7765
6.69406
-0.457562
-0.49519
-0.488456
-0.488851
-0.413383
0.346007
1.93743
0.994777
-0.510973
-0.46435
-0.514933
-0.520507
-0.524834
-0.596845
-0.681048
-0.826796
-0.870134
-0.909547
-0.931954
-0.785065
-0.585336
-0.579099
-0.589397
-0.624097
-0.705433
-0.805386
-0.872385
-0.915458
-0.938763
-0.829435
-0.649787
-0.653289
-0.667
-0.70046
-0.745377
-0.792974
-0.83171
-0.859119
-0.86785
-0.813335
-0.710979
-0.717064
-0.73008
-0.754217
-0.783521
-0.811768
-0.833029
-0.844203
-0.8413
-0.82465
-0.768434
-0.774152
-0.78576
-0.802917
-0.822318
-0.840635
-0.854699
-0.86199
-0.862333
-0.859311
-0.822326
-0.826829
-0.837081
-0.850231
-0.864474
-0.877412
-0.887362
-0.89351
-0.896436
-0.897412
-0.873345
-0.876822
-0.885981
-0.896532
-0.907542
-0.917457
-0.925253
-0.930529
-0.933706
-0.935454
-0.922868
-0.925896
-0.933952
-0.942747
-0.951692
-0.959656
-0.966034
-0.970586
-0.973527
-0.975282
-0.971876
-0.97484
-0.981842
-0.989284
-0.996745
-1.00333
-1.00867
-1.01262
-1.01527
-1.01681
102.968
124.069
149.062
176.381
203.364
227.281
246.675
261.196
270.819
275.6
38.5861
69.9005
101.408
131.801
159.785
183.889
203.099
217.335
226.726
231.382
5.28797
26.9318
66.1331
97.0493
123.665
146.534
164.765
178.213
187.062
191.444
5.0163
5.695
45.2562
71.6897
95.0775
115.396
131.755
143.837
151.797
155.74
3.08987
2.13376
30.8662
53.1324
72.6223
89.69
103.56
113.81
120.564
123.908
0.984057
4.15404
23.0685
40.0593
54.789
68.1671
79.1776
87.2851
92.6
95.2196
0.00887914
-0.20287
13.2792
28.6275
40.0888
50.0644
58.1815
63.9276
67.5565
69.3053
5.66121e-06
-1.00762
7.46838
19.3119
27.8525
34.717
39.7396
42.7902
44.3721
45.0212
3.47257
11.4229
8.86035
14.0716
17.4787
20.4952
23.1399
23.5814
22.6709
21.9439
-1.07228
0.692723
4.27729
14.8429
21.0193
19.7712
17.2928
12.0033
6.5138
4.6851
-0.650779
-0.634336
-0.518441
-0.40515
0.0534741
2.17904
1.65299
-0.318063
-0.784349
-0.515063
-0.634775
-0.646331
-0.647925
-0.665908
-0.815385
-0.85946
-0.891132
-0.916974
-0.891932
-0.736597
-0.644007
-0.643738
-0.64733
-0.696794
-0.787413
-0.851368
-0.895156
-0.894573
-0.885841
-0.802015
-0.690055
-0.696761
-0.71119
-0.741208
-0.780911
-0.814738
-0.833901
-0.84734
-0.840459
-0.806224
-0.740045
-0.74622
-0.759521
-0.780678
-0.804841
-0.825726
-0.839184
-0.842287
-0.836999
-0.828123
-0.790515
-0.795564
-0.805794
-0.820264
-0.836291
-0.85079
-0.860627
-0.864569
-0.864312
-0.863214
-0.840072
-0.844054
-0.85214
-0.862851
-0.874264
-0.884581
-0.892239
-0.896663
-0.898692
-0.89976
-0.888335
-0.891463
-0.898042
-0.906301
-0.915031
-0.922989
-0.929217
-0.933385
-0.935876
-0.937407
-0.936033
-0.938565
-0.94409
-0.950731
-0.957719
-0.964138
-0.969335
-0.973072
-0.975516
-0.977014
-0.983637
-0.985794
-0.990507
-0.995991
-1.00175
-1.00706
-1.01146
-1.01476
-1.01699
-1.0183
164.022
173.966
189.083
207.656
227.012
244.782
259.686
271.132
278.847
282.719
118.17
129.371
145.401
164.211
183.625
201.226
215.836
226.995
234.495
238.253
90.0502
93.8964
109.758
127.787
146.287
162.986
176.78
187.284
194.331
197.859
67.6257
69.942
83.2321
98.764
115.172
130.136
142.527
151.96
158.288
161.454
47.0129
51.7018
62.7018
75.7255
89.4971
102.163
112.668
120.656
126.007
128.681
31.9415
38.135
46.9479
57.1963
68.016
78.0498
86.3383
92.5931
96.7587
98.8333
19.6134
25.2907
33.4576
41.8561
49.9574
57.3295
63.1975
67.4459
70.2039
71.5642
10.6841
17.1265
23.0585
29.1286
34.6482
39.2313
42.3657
44.2253
45.2633
45.7639
6.40828
14.0933
16.9512
18.2064
20.5076
23.0145
23.5804
22.7508
21.8786
21.5853
6.29015
10.6369
18.604
19.9474
19.8135
18.0594
13.023
7.26179
4.34921
3.73699
-0.569245
-0.514225
-0.343197
0.20086
2.11186
1.94061
0.04245
-0.779067
-0.77006
-0.503819
-0.672838
-0.670002
-0.731047
-0.821143
-0.856658
-0.889239
-0.916625
-0.881012
-0.825165
-0.694934
-0.666347
-0.683516
-0.735419
-0.796023
-0.847251
-0.879396
-0.883751
-0.861792
-0.831968
-0.772694
-0.725749
-0.736863
-0.75683
-0.78476
-0.811036
-0.82623
-0.839092
-0.834789
-0.819907
-0.798058
-0.76908
-0.775969
-0.788354
-0.805469
-0.822618
-0.836828
-0.84157
-0.840069
-0.834085
-0.828819
-0.810856
-0.815369
-0.824265
-0.836069
-0.848466
-0.858725
-0.864411
-0.86573
-0.864707
-0.864246
-0.855887
-0.859243
-0.865579
-0.873978
-0.882857
-0.890614
-0.896025
-0.898832
-0.899942
-0.900779
-0.901256
-0.903574
-0.908467
-0.914882
-0.921694
-0.927859
-0.93261
-0.935718
-0.937543
-0.938751
-0.947034
-0.94874
-0.952627
-0.957709
-0.963157
-0.968215
-0.972325
-0.975285
-0.977228
-0.978439
-0.993174
-0.994506
-0.997699
-1.00184
-1.00631
-1.01054
-1.01408
-1.01676
-1.01859
-1.01967
202.667
208.669
219.123
232.286
246.273
259.522
270.965
279.948
286.097
289.212
159.972
165.51
175.801
188.901
202.71
215.678
226.821
235.543
241.502
244.517
125.234
129.362
138.877
151.314
164.403
176.633
187.109
195.293
200.877
203.7
97.0532
100.341
108.682
119.718
131.428
142.393
151.789
159.124
164.124
166.65
73.8757
76.9281
84.0394
93.3742
103.279
112.554
120.494
126.681
130.89
133.014
55.1539
57.9132
63.6595
71.1048
78.954
86.2468
92.4401
97.2312
100.477
102.112
39.8092
42.3769
46.7816
52.3104
58.0226
63.131
67.3074
70.4519
72.56
73.6212
27.5582
29.6305
32.5971
36.1774
39.6462
42.323
44.1323
45.2951
46.0692
46.4833
17.1828
17.8694
19.1563
21.1814
23.1145
23.5561
22.7869
21.7936
21.4127
21.3761
11.7445
13.8624
17.1869
18.7662
17.2566
12.9823
7.64545