/*--------------------------------*- C++ -*----------------------------------*\
| =========                 |                                                 |
| \\      /  F ield         | OpenFOAM: The Open Source CFD Toolbox           |
|  \\    /   O peration     | Version:  2312                                  |
|   \\  /    A nd           | Website:  www.openfoam.com                      |
|    \\/     M anipulation  |                                                 |
\*---------------------------------------------------------------------------*/
FoamFile
{
    version     2.0;
    format      ascii;
    arch        "LSB;label=32;scalar=64";
    class       volVectorField;
    location    "0.18";
    object      U;
}
// * * * * * * * * * * * * * * * * * * * * * * * * * * * * * * * * * * * * * //

dimensions      [0 1 -1 0 0 0 0];

internalField   nonuniform List<vector> 
8000
(
(0.00262816 0.0021207 -0.0043099)
(0.0068168 0.00216479 -0.00396827)
(0.00984628 0.00224592 -0.00345262)
(0.0114618 0.00234662 -0.00292826)
(0.0117647 0.0024562 -0.00249075)
(0.0109931 0.00256887 -0.00215482)
(0.00938478 0.0026776 -0.0019033)
(0.00714415 0.00277312 -0.00172099)
(0.00445742 0.00284522 -0.00160129)
(0.00150741 0.00287038 -0.0015237)
(0.00349447 0.00875431 -0.00677486)
(0.00911599 0.00883237 -0.00630101)
(0.0132769 0.00896243 -0.00554502)
(0.0155942 0.00912046 -0.00471494)
(0.0161308 0.00929611 -0.00395948)
(0.015153 0.00948342 -0.00333071)
(0.0129712 0.00967016 -0.00283447)
(0.00988303 0.00983716 -0.00246745)
(0.00617032 0.00996365 -0.00222606)
(0.00207813 0.00996322 -0.00208532)
(0.00327037 0.0165728 -0.00574447)
(0.0085158 0.0166885 -0.00535551)
(0.0123554 0.0168517 -0.00474502)
(0.014464 0.0170359 -0.00407397)
(0.0149326 0.0172377 -0.00346848)
(0.0140189 0.0174526 -0.00296354)
(0.0120038 0.0176662 -0.00255923)
(0.00915131 0.0178556 -0.00225485)
(0.0057167 0.0179974 -0.0020516)
(0.00192375 0.0179509 -0.00193043)
(0.00325645 0.0229196 -0.00538727)
(0.00846337 0.0231571 -0.00501431)
(0.0122269 0.0234958 -0.00446748)
(0.0142733 0.0238788 -0.0038697)
(0.014723 0.0242786 -0.00333238)
(0.0138297 0.0246715 -0.00287974)
(0.0118566 0.0250321 -0.00250831)
(0.00905137 0.0253336 -0.00222166)
(0.00565997 0.0255526 -0.00202671)
(0.00190648 0.0254986 -0.00191003)
(0.00340509 0.0300988 -0.00578207)
(0.00883631 0.0304831 -0.00535612)
(0.012713 0.031017 -0.00476599)
(0.0147907 0.0316153 -0.00412798)
(0.0152269 0.0322091 -0.00355071)
(0.0142893 0.03275 -0.0030563)
(0.0122468 0.03321 -0.00264351)
(0.0093506 0.0335713 -0.00232152)
(0.00584994 0.0338206 -0.0021014)
(0.00197516 0.0337285 -0.00197298)
(0.00361652 0.0339244 -0.00620893)
(0.00935554 0.034481 -0.00576942)
(0.0133818 0.035292 -0.00514686)
(0.0154775 0.0362021 -0.00446226)
(0.0158472 0.0370617 -0.00382175)
(0.0148044 0.0378024 -0.00325635)
(0.0126455 0.0384137 -0.00277837)
(0.00963026 0.0388952 -0.00240609)
(0.00601007 0.0392382 -0.00215322)
(0.0020202 0.0391689 -0.00201109)
(0.00396282 0.0496484 -0.0079757)
(0.0102221 0.0503583 -0.00738022)
(0.0145389 0.051439 -0.00649991)
(0.0166472 0.0525919 -0.00551754)
(0.0168691 0.0535211 -0.00458814)
(0.0156444 0.0541772 -0.00378296)
(0.0133181 0.0546484 -0.00312783)
(0.0101431 0.0550086 -0.0026364)
(0.00634648 0.0552729 -0.00231045)
(0.00215265 0.0551111 -0.00213436)
(0.00408017 0.0537884 -0.00949756)
(0.0105688 0.0542506 -0.00887281)
(0.0149766 0.0552735 -0.00788602)
(0.0168026 0.0560022 -0.00658269)
(0.016596 0.0559513 -0.0052257)
(0.015123 0.0555349 -0.00406864)
(0.0127863 0.0551856 -0.00320557)
(0.00972925 0.0550327 -0.00261764)
(0.00608668 0.0549893 -0.00224971)
(0.00208941 0.0546823 -0.00206425)
(0.00390323 0.072269 -0.00624462)
(0.0102523 0.074849 -0.00692785)
(0.0146354 0.0791033 -0.00690785)
(0.0160601 0.0812717 -0.00568909)
(0.0156679 0.0806968 -0.00420221)
(0.0145039 0.0790258 -0.00330495)
(0.0125988 0.0774338 -0.0029397)
(0.00984338 0.0762868 -0.00276736)
(0.00640489 0.0754854 -0.0025648)
(0.00237282 0.0747905 -0.00230813)
(0.0146993 0.106716 -0.092819)
(0.0415389 0.106712 -0.0874936)
(0.055065 0.104536 -0.0699208)
(0.0509476 0.0968882 -0.0485312)
(0.0403931 0.0877563 -0.0289769)
(0.033429 0.0823634 -0.016653)
(0.0296843 0.080518 -0.0102201)
(0.0249705 0.0798702 -0.00704504)
(0.0155081 0.079706 -0.00520018)
(0.0052328 0.0795337 -0.00545926)
(0.0359142 0.181767 -0.354776)
(0.108302 0.189207 -0.347626)
(0.184185 0.22029 -0.339762)
(0.244416 0.258988 -0.335962)
(0.237537 0.234292 -0.279666)
(0.203074 0.188449 -0.189414)
(0.173223 0.150396 -0.0924476)
(0.148811 0.126895 -0.0275662)
(0.0735048 0.118345 0.00666492)
(0.00322394 0.117866 -0.00926982)
(0.0492588 0.591771 -0.301307)
(0.119072 0.61405 -0.264013)
(0.137475 0.590533 -0.213583)
(0.153719 0.521572 -0.177058)
(0.171329 0.453036 -0.104798)
(0.170341 0.363608 -0.0223344)
(0.140897 0.266223 0.0193859)
(0.0887029 0.208706 0.0242633)
(0.0274543 0.188658 0.0192919)
(-0.0040096 0.182485 0.000381264)
(0.0356448 0.7358 -0.196741)
(0.0829931 0.712168 -0.150401)
(0.104682 0.608717 -0.0881723)
(0.118721 0.497196 -0.0261472)
(0.122237 0.396744 0.0372787)
(0.0962571 0.300006 0.068898)
(0.0514044 0.238133 0.0574625)
(0.015509 0.213912 0.0338541)
(-0.00657183 0.204202 0.0182528)
(-0.00877179 0.192538 0.00724284)
(0.0229823 0.626442 -0.0480935)
(0.0609587 0.565359 -0.0109731)
(0.0874149 0.432378 0.0348258)
(0.0886993 0.305205 0.0710523)
(0.060683 0.222975 0.0828043)
(0.0207409 0.188634 0.0655685)
(-0.00866953 0.180828 0.0404021)
(-0.0197931 0.179929 0.0230377)
(-0.0196279 0.181175 0.0137275)
(-0.00955434 0.165776 0.00906144)
(0.0191752 0.382783 0.065857)
(0.0510579 0.315574 0.0782188)
(0.061524 0.212959 0.0830639)
(0.0407223 0.145184 0.0720161)
(0.00778742 0.127182 0.0506921)
(-0.0162848 0.130275 0.031601)
(-0.0267695 0.136136 0.0198821)
(-0.0264117 0.142218 0.0133735)
(-0.019768 0.149485 0.00963938)
(-0.00781685 0.133078 0.00763664)
(0.0127988 0.175626 0.0748658)
(0.028246 0.142715 0.0662787)
(0.0229882 0.109401 0.0490616)
(0.00326754 0.0967972 0.0312715)
(-0.0143745 0.0974276 0.01945)
(-0.0239122 0.102163 0.013547)
(-0.0264233 0.108447 0.0105083)
(-0.0234872 0.115718 0.00834504)
(-0.0163934 0.123723 0.0068061)
(-0.00589488 0.106977 0.00577471)
(0.00426877 0.0962103 0.0298927)
(0.00557656 0.0890235 0.0234628)
(-0.00143047 0.081957 0.0159059)
(-0.0112517 0.0789876 0.0112259)
(-0.0185869 0.0803297 0.00900606)
(-0.0223681 0.084673 0.00785737)
(-0.0227296 0.0905634 0.00683911)
(-0.0195826 0.0971224 0.00579849)
(-0.0131911 0.103938 0.00502827)
(-0.00450094 0.0872224 0.00438929)
(-0.000205451 0.0687355 0.00888894)
(-0.00352643 0.0664187 0.00790655)
(-0.00832142 0.0644284 0.00695217)
(-0.013296 0.0646161 0.00644803)
(-0.0172958 0.0673978 0.00597742)
(-0.0193543 0.071824 0.00545431)
(-0.0190232 0.0770107 0.00483827)
(-0.0160159 0.0825299 0.00422513)
(-0.0105376 0.0880436 0.00381041)
(-0.00349021 0.0717118 0.00336025)
(-0.00134011 0.0544846 0.00547163)
(-0.00509809 0.0537756 0.00535926)
(-0.00896683 0.0540616 0.00508783)
(-0.0125502 0.055538 0.0047932)
(-0.0153138 0.0584638 0.00437862)
(-0.0164629 0.0623115 0.00397116)
(-0.0157261 0.0665819 0.003546)
(-0.0129676 0.0710397 0.00315485)
(-0.00840355 0.0753985 0.00291883)
(-0.00273776 0.059545 0.00257408)
(-0.00187916 0.0469789 0.00465789)
(-0.00551346 0.0467911 0.00444468)
(-0.00887528 0.0476226 0.00408234)
(-0.0116207 0.0492391 0.00375381)
(-0.0134872 0.0518539 0.0033666)
(-0.0139807 0.0550576 0.00302787)
(-0.0130149 0.0584893 0.00270132)
(-0.0105373 0.0620325 0.00241901)
(-0.00676401 0.0654514 0.00226833)
(-0.00218829 0.0500304 0.00198327)
(0.00307332 0.00238855 -0.0136314)
(0.00775576 0.00237329 -0.0123888)
(0.0109948 0.00236727 -0.0106168)
(0.0125474 0.00239516 -0.00888659)
(0.0126618 0.00245628 -0.00748867)
(0.0116931 0.00254391 -0.00643983)
(0.00991294 0.00264502 -0.00566184)
(0.00751748 0.00274207 -0.00509875)
(0.00467897 0.00281845 -0.00472893)
(0.00158508 0.00284697 -0.00450721)
(0.00407664 0.00922435 -0.0211958)
(0.0104331 0.00929494 -0.0194483)
(0.0149813 0.00930272 -0.0169236)
(0.0173165 0.00932529 -0.0142843)
(0.0176524 0.00939878 -0.0119274)
(0.0164041 0.00952431 -0.00998879)
(0.013942 0.00968231 -0.00846695)
(0.0105745 0.0098406 -0.00734263)
(0.00658152 0.00996737 -0.00660355)
(0.00221898 0.00996807 -0.00619246)
(0.00376627 0.0166428 -0.0180244)
(0.00960015 0.0169873 -0.0164383)
(0.0137417 0.0171409 -0.0143543)
(0.0158654 0.0172359 -0.0122616)
(0.0161717 0.0173594 -0.0104014)
(0.0150467 0.0175262 -0.00886214)
(0.0128133 0.0177189 -0.00763407)
(0.00973652 0.0179044 -0.0067081)
(0.00606828 0.0180492 -0.00608904)
(0.00204504 0.0180044 -0.00573753)
(0.0037539 0.0220295 -0.0170506)
(0.00949137 0.0228489 -0.0153351)
(0.013472 0.0233825 -0.013386)
(0.0155263 0.0237909 -0.0115586)
(0.0158371 0.0241996 -0.00993704)
(0.0147678 0.0246176 -0.0085752)
(0.0126108 0.0250153 -0.0074612)
(0.00960611 0.0253545 -0.00659792)
(0.00599709 0.0256028 -0.00600873)
(0.00202325 0.0255627 -0.00567163)
(0.00396671 0.0284804 -0.0183348)
(0.00999489 0.0297002 -0.0163469)
(0.014043 0.0305714 -0.0141982)
(0.0161195 0.0312754 -0.0122718)
(0.0164189 0.031956 -0.0105473)
(0.015306 0.0325988 -0.00907156)
(0.0130728 0.0331579 -0.00784303)
(0.00996141 0.0335989 -0.00687874)
(0.00622228 0.0339017 -0.0062167)
(0.00210367 0.0338335 -0.0058444)
(0.00412507 0.0304828 -0.0192413)
(0.0104982 0.0322921 -0.0173452)
(0.0147659 0.0337744 -0.0152266)
(0.016909 0.0350789 -0.0132472)
(0.0171694 0.036286 -0.0113766)
(0.0159518 0.0373341 -0.00970665)
(0.0135809 0.0381846 -0.00828458)
(0.0103186 0.0388319 -0.00716429)
(0.00642697 0.0392775 -0.00640015)
(0.0021624 0.0392547 -0.00598339)
(0.004737 0.045045 -0.0253251)
(0.0118402 0.0468561 -0.0225859)
(0.0164804 0.0488217 -0.0193275)
(0.018653 0.0507246 -0.0163875)
(0.0187141 0.0523635 -0.0136831)
(0.0172055 0.0535987 -0.0112913)
(0.0145464 0.0544473 -0.00930985)
(0.0110197 0.0550192 -0.00780796)
(0.00686902 0.0554007 -0.00681429)
(0.00232872 0.0552918 -0.0062921)
(0.00483045 0.0497636 -0.0263771)
(0.0122417 0.0499532 -0.0245749)
(0.0174688 0.0512356 -0.0222944)
(0.0197258 0.0533943 -0.0192616)
(0.0193105 0.0550134 -0.0156858)
(0.017244 0.0555148 -0.0122839)
(0.0142653 0.0554336 -0.00956968)
(0.0106872 0.0553018 -0.00769459)
(0.00663838 0.055275 -0.00655866)
(0.00227698 0.0550069 -0.00601151)
(0.00394366 0.0488517 -0.0226773)
(0.0113454 0.0562138 -0.0238687)
(0.0174656 0.0678491 -0.0237243)
(0.0198937 0.0769574 -0.0208929)
(0.018956 0.0807275 -0.0162184)
(0.0166062 0.0804035 -0.011897)
(0.013996 0.0786643 -0.00922337)
(0.0109244 0.0771023 -0.00785935)
(0.00713559 0.0761762 -0.00700137)
(0.00259556 0.0754954 -0.00622434)
(0.0144754 0.100764 -0.170126)
(0.0398888 0.0954625 -0.164775)
(0.0655797 0.0980316 -0.136707)
(0.0710162 0.101672 -0.101875)
(0.0580397 0.0962991 -0.0712709)
(0.0414557 0.087081 -0.043256)
(0.0302774 0.0815961 -0.0252239)
(0.0228048 0.0800928 -0.0168267)
(0.0142038 0.0798796 -0.0140905)
(0.00538172 0.079661 -0.0160417)
(0.031715 0.0770525 -0.354402)
(0.0871664 0.0624715 -0.338841)
(0.144079 0.0752759 -0.30599)
(0.184748 0.110776 -0.29417)
(0.195601 0.155559 -0.293942)
(0.17935 0.175208 -0.266626)
(0.128684 0.16116 -0.177232)
(0.0685857 0.13575 -0.0658793)
(0.0156486 0.123702 -0.018429)
(-0.00374173 0.117772 -0.0865915)
(0.043884 -0.0822514 -0.255405)
(0.0713525 -0.0346527 -0.196946)
(0.00448103 0.0794952 -0.0847486)
(-0.03067 0.203322 -0.0352166)
(-0.0421989 0.226922 0.00338856)
(-0.0226525 0.247085 0.0242482)
(-0.0106931 0.252831 0.0419895)
(-0.00136951 0.232553 0.0321002)
(-0.0194871 0.20454 0.0149166)
(-0.0202825 0.18808 -0.0372781)
(-0.0029293 0.0992089 -0.00818044)
(-0.054197 0.171297 0.0640928)
(-0.0884661 0.271293 0.11584)
(-0.088048 0.276394 0.155493)
(-0.0751037 0.25734 0.173862)
(-0.0607326 0.255672 0.155565)
(-0.0474408 0.253542 0.111576)
(-0.0358737 0.238966 0.064022)
(-0.0344339 0.223391 0.0314298)
(-0.019657 0.203951 0.0021799)
(-0.0176866 0.239774 0.140707)
(-0.053642 0.260663 0.176449)
(-0.0517585 0.244489 0.204754)
(-0.04158 0.20483 0.21317)
(-0.0457582 0.1928 0.188181)
(-0.0510829 0.2008 0.13978)
(-0.0494423 0.204299 0.0909953)
(-0.0425607 0.202436 0.0546505)
(-0.0329331 0.202842 0.0314998)
(-0.0143909 0.181331 0.0181607)
(-0.00490338 0.217621 0.212899)
(-0.0101984 0.193267 0.216304)
(-0.00584988 0.15404 0.200752)
(-0.0145064 0.138479 0.16474)
(-0.0301949 0.146407 0.120886)
(-0.0398536 0.155995 0.0832123)
(-0.0417199 0.160633 0.0561204)
(-0.0366409 0.164969 0.0375621)
(-0.026125 0.171975 0.0254394)
(-0.00987827 0.149598 0.0191923)
(0.0052665 0.148057 0.17076)
(0.00865751 0.133771 0.153418)
(0.0026951 0.122998 0.120154)
(-0.012417 0.123253 0.0865543)
(-0.0255571 0.126632 0.0616855)
(-0.032456 0.129708 0.0456061)
(-0.033563 0.133305 0.0343517)
(-0.0291865 0.138529 0.0255923)
(-0.0199146 0.145902 0.0194763)
(-0.00693742 0.123759 0.0160073)
(0.0039501 0.122594 0.083754)
(0.00246139 0.117775 0.0710557)
(-0.00571968 0.112598 0.0542234)
(-0.0159622 0.109848 0.0419457)
(-0.0236094 0.10933 0.033951)
(-0.0273579 0.111023 0.0281657)
(-0.0273193 0.114346 0.0229873)
(-0.0232724 0.119124 0.0183234)
(-0.0154052 0.125362 0.0150448)
(-0.00514338 0.103943 0.0128518)
(0.000122393 0.101757 0.0358905)
(-0.00461877 0.0988158 0.0325493)
(-0.0107863 0.0952488 0.0284291)
(-0.0166589 0.0934661 0.0252834)
(-0.0210624 0.0938567 0.0222288)
(-0.0230241 0.0959607 0.0192342)
(-0.0222953 0.0991595 0.016216)
(-0.0185768 0.103356 0.0134832)
(-0.0120509 0.108458 0.0116676)
(-0.0039398 0.0879981 0.0101603)
(-0.00159322 0.0846355 0.0219278)
(-0.00667389 0.0832423 0.0212089)
(-0.011438 0.0818923 0.0196511)
(-0.0154817 0.081624 0.0179284)
(-0.0183759 0.0825924 0.0157993)
(-0.0193222 0.0846186 0.0137591)
(-0.0182041 0.087357 0.0117885)
(-0.0148614 0.0908031 0.0100831)
(-0.00951183 0.0948427 0.0090382)
(-0.00307908 0.0752924 0.00793037)
(-0.00233032 0.0745965 0.0170258)
(-0.00711776 0.0738577 0.0163298)
(-0.0111344 0.07329 0.014893)
(-0.014183 0.0734465 0.0134296)
(-0.0160946 0.0744129 0.0117241)
(-0.0163482 0.076106 0.0102191)
(-0.0150137 0.0782683 0.0088287)
(-0.0120293 0.0809668 0.00768108)
(-0.00763389 0.0841132 0.00703764)
(-0.00246968 0.0652868 0.0061711)
(0.00418623 0.00307041 -0.0248183)
(0.00994029 0.0030489 -0.022134)
(0.0134781 0.00285326 -0.0183064)
(0.0147244 0.00263577 -0.0148726)
(0.0143392 0.0025239 -0.0123296)
(0.0129311 0.00251802 -0.0105166)
(0.0108153 0.00257968 -0.009193)
(0.00814299 0.00266695 -0.00823593)
(0.00504923 0.00274531 -0.00760673)
(0.00170537 0.0027781 -0.00723093)
(0.00564428 0.0102574 -0.036735)
(0.0135591 0.0103469 -0.033698)
(0.018596 0.010152 -0.0286589)
(0.0207346 0.00981339 -0.0237296)
(0.020557 0.00958756 -0.0196317)
(0.0187268 0.00953341 -0.0163417)
(0.0157125 0.00960336 -0.0137677)
(0.0118211 0.009729 -0.0118657)
(0.00732084 0.00984922 -0.0106159)
(0.0024608 0.00985019 -0.00992279)
(0.00544805 0.0169706 -0.030534)
(0.0125776 0.0173447 -0.0279898)
(0.0167331 0.0175724 -0.0238742)
(0.0185558 0.0175093 -0.0199929)
(0.0184554 0.0174333 -0.0168927)
(0.0168941 0.0174719 -0.0143746)
(0.0142476 0.0176036 -0.0123481)
(0.0107662 0.0177714 -0.0108094)
(0.00668767 0.0179181 -0.00977656)
(0.00224875 0.0178763 -0.0091896)
(0.0058183 0.022215 -0.0287408)
(0.0128455 0.0220254 -0.0258721)
(0.016294 0.0227599 -0.0219262)
(0.0178689 0.0233227 -0.018519)
(0.0178294 0.0237522 -0.0159312)
(0.0164135 0.0242 -0.0137912)
(0.0139216 0.0246583 -0.0120034)
(0.0105701 0.0250684 -0.0105989)
(0.0065866 0.0253747 -0.00963165)
(0.00221867 0.0253639 -0.00907501)
(0.00675486 0.0311027 -0.0308479)
(0.0140812 0.0287345 -0.0274276)
(0.0171901 0.0292248 -0.0230599)
(0.0186023 0.030166 -0.0195138)
(0.0185506 0.031021 -0.0168292)
(0.0171013 0.031842 -0.0145492)
(0.0145252 0.0325955 -0.0125974)
(0.0110398 0.0332058 -0.0110397)
(0.00688457 0.0336252 -0.00995814)
(0.00232419 0.0336105 -0.00934555)
(0.00761687 0.0319236 -0.0328135)
(0.0147721 0.0284114 -0.0287734)
(0.0179231 0.0299721 -0.0243848)
(0.0194818 0.0322206 -0.0208891)
(0.0195071 0.0341504 -0.0181068)
(0.0180015 0.0358093 -0.0155919)
(0.0152693 0.0371735 -0.0133509)
(0.0115728 0.0381923 -0.0115357)
(0.00719121 0.0388658 -0.0102786)
(0.00241551 0.0389451 -0.00958897)
(0.00950742 0.0507976 -0.0449908)
(0.0181442 0.0436128 -0.0386962)
(0.0213661 0.0433464 -0.0318126)
(0.0224769 0.046092 -0.026251)
(0.0220935 0.0490017 -0.022021)
(0.0201317 0.0514413 -0.0183336)
(0.0168862 0.0532359 -0.0151209)
(0.0126943 0.0543858 -0.0126077)
(0.00786221 0.0550587 -0.010931)
(0.0026544 0.0550653 -0.0100546)
(0.00847274 0.0528651 -0.0386754)
(0.0170635 0.0463376 -0.0356802)
(0.0215323 0.0448852 -0.0331344)
(0.0240113 0.0471675 -0.0299029)
(0.0239456 0.0507334 -0.025572)
(0.021433 0.0536313 -0.0205998)
(0.0174385 0.0549698 -0.0160297)
(0.0127572 0.0552989 -0.0126222)
(0.00777662 0.0553382 -0.0105511)
(0.00264625 0.0550839 -0.00959666)
(0.00626477 0.0333317 -0.044184)
(0.0135104 0.0306651 -0.0422818)
(0.0206471 0.0426963 -0.0384341)
(0.0248668 0.0599749 -0.0344804)
(0.0249368 0.0724878 -0.0287274)
(0.0217315 0.0787511 -0.0218297)
(0.0171521 0.0796507 -0.0159128)
(0.0125111 0.0783863 -0.0123458)
(0.00792878 0.0771258 -0.0107244)
(0.00274944 0.0763032 -0.00964034)
(0.0152953 0.132894 -0.205094)
(0.0336941 0.107745 -0.203966)
(0.0634836 0.090459 -0.178137)
(0.0853476 0.0908318 -0.145007)
(0.0878345 0.097876 -0.116605)
(0.0746157 0.0958877 -0.0879217)
(0.0513396 0.0867915 -0.0538613)
(0.031898 0.0810778 -0.0311783)
(0.0175114 0.0800456 -0.0223282)
(0.00764076 0.0798561 -0.0249109)
(0.0293026 0.0537771 -0.316694)
(0.0747387 0.0253323 -0.316268)
(0.125345 0.0211204 -0.292317)
(0.159038 0.049576 -0.267927)
(0.192358 0.085143 -0.275605)
(0.233917 0.132835 -0.310435)
(0.242469 0.168264 -0.286215)
(0.194325 0.161588 -0.190275)
(0.0775351 0.136099 -0.069955)
(0.0373718 0.128752 -0.152277)
(0.0258342 -0.275263 -0.316479)
(0.0223005 -0.225186 -0.259241)
(0.00367674 -0.115275 -0.219066)
(-0.00171003 -0.0287508 -0.163)
(-0.014626 0.109835 -0.102462)
(-0.0104335 0.186326 -0.0472896)
(-0.00320559 0.216066 -0.012918)
(0.000168138 0.246233 0.00560298)
(-0.0306729 0.233118 -2.68076e-05)
(-0.0221384 0.212153 -0.0992897)
(-0.0454058 -0.0670327 -0.179606)
(-0.11681 -0.0328198 -0.081877)
(-0.159063 0.0182163 0.0302237)
(-0.166181 0.0667722 0.10216)
(-0.150166 0.121145 0.13686)
(-0.124335 0.168818 0.137197)
(-0.0994262 0.212585 0.115697)
(-0.0755249 0.238459 0.0765911)
(-0.0667724 0.239893 0.0337499)
(-0.0356638 0.215603 -0.0224797)
(-0.0355769 -0.0508413 0.0561608)
(-0.0929571 -0.0168979 0.123632)
(-0.116948 0.011092 0.181928)
(-0.121334 0.0454234 0.199499)
(-0.116372 0.0883339 0.184803)
(-0.105032 0.130919 0.153031)
(-0.0917744 0.162991 0.114211)
(-0.0753619 0.185605 0.0746085)
(-0.0568011 0.203408 0.0411479)
(-0.0243872 0.181089 0.0170879)
(-0.0161378 0.0275327 0.198666)
(-0.0421994 0.0294619 0.207424)
(-0.0519786 0.0370157 0.1974)
(-0.0595283 0.0580596 0.170525)
(-0.065557 0.0842901 0.137638)
(-0.0674738 0.107406 0.106913)
(-0.0646571 0.126858 0.079132)
(-0.0553086 0.146001 0.0546171)
(-0.0385213 0.165644 0.0358449)
(-0.0138027 0.142941 0.0255125)
(-0.000832099 0.0584265 0.172205)
(-0.00962367 0.059978 0.156542)
(-0.0194224 0.0667679 0.129501)
(-0.0308599 0.0773071 0.104214)
(-0.0402689 0.0880253 0.0837808)
(-0.0452212 0.0989459 0.0671244)
(-0.0451915 0.110817 0.0520575)
(-0.0390389 0.124382 0.0385478)
(-0.0260593 0.138848 0.0286458)
(-0.00848236 0.115991 0.0230084)
(0.00126786 0.0787584 0.0975575)
(-0.00499402 0.0783053 0.0862968)
(-0.0139753 0.078583 0.0724153)
(-0.0230956 0.0808493 0.0615583)
(-0.0302493 0.0851708 0.0524431)
(-0.0338327 0.0916145 0.0441572)
(-0.0335995 0.0995928 0.0358951)
(-0.0286783 0.10907 0.0282199)
(-0.0186793 0.119211 0.0227881)
(-0.00590707 0.0971345 0.0191294)
(-0.000788302 0.077408 0.0548042)
(-0.00735827 0.0761577 0.0507238)
(-0.0142556 0.0750682 0.0457405)
(-0.0202718 0.0757816 0.0410555)
(-0.0248223 0.0785875 0.0358782)
(-0.0267452 0.0832109 0.0308034)
(-0.025898 0.0890245 0.025696)
(-0.0216405 0.0959428 0.0210708)
(-0.0138672 0.103301 0.0180078)
(-0.00435409 0.0823834 0.0154561)
(-0.00207208 0.0708858 0.0386566)
(-0.00829386 0.0701019 0.0363354)
(-0.0136642 0.0696717 0.0331421)
(-0.0178807 0.0704497 0.0297619)
(-0.020836 0.0726067 0.025854)
(-0.0216447 0.0760214 0.0222717)
(-0.0203891 0.0802603 0.0188392)
(-0.0166673 0.0853027 0.0158974)
(-0.0105593 0.0906754 0.0141088)
(-0.00331593 0.0707953 0.0122241)
(-0.00276579 0.0657505 0.0304928)
(-0.00840494 0.0652795 0.0281461)
(-0.012794 0.0651599 0.025211)
(-0.0159104 0.0658629 0.0223719)
(-0.0178274 0.0675269 0.0192323)
(-0.017905 0.0700646 0.0165685)
(-0.0164273 0.0731512 0.01413)
(-0.0131559 0.0768423 0.0121526)
(-0.00827964 0.0808215 0.01105)
(-0.00262069 0.0617221 0.00958044)
(0.00651067 0.00603271 -0.0371029)
(0.0142013 0.00486757 -0.0335981)
(0.018258 0.00409139 -0.0270565)
(0.0185918 0.00339853 -0.0210181)
(0.0170709 0.0028577 -0.016958)
(0.0148559 0.0025957 -0.0142867)
(0.012201 0.00253987 -0.0123611)
(0.0091028 0.00258431 -0.0109649)
(0.00561791 0.00265285 -0.0100481)
(0.00189018 0.00268713 -0.00951205)
(0.00894178 0.019108 -0.0486185)
(0.0193158 0.0149825 -0.0464485)
(0.0251567 0.0124446 -0.0401334)
(0.026457 0.0111445 -0.0327023)
(0.0250952 0.0102373 -0.0267349)
(0.0222814 0.00974088 -0.022142)
(0.0184161 0.0095861 -0.0185045)
(0.0137245 0.00961571 -0.0157908)
(0.00844931 0.00970322 -0.0140082)
(0.00282973 0.00969545 -0.0130314)
(0.00795775 0.0323236 -0.037132)
(0.0174365 0.0229769 -0.034498)
(0.0221481 0.0191888 -0.031705)
(0.0230237 0.0182737 -0.0266891)
(0.021862 0.0178048 -0.0224517)
(0.0196099 0.0175478 -0.0191998)
(0.0163789 0.0175208 -0.0164666)
(0.0123068 0.0176236 -0.0143258)
(0.0076181 0.0177526 -0.0128794)
(0.00255515 0.0177069 -0.0120635)
(0.00882658 0.0479403 -0.0376912)
(0.0173591 0.0293542 -0.0296928)
(0.0213828 0.0232736 -0.0278318)
(0.021794 0.0228053 -0.0241101)
(0.0206646 0.0232563 -0.0207189)
(0.0187241 0.0237079 -0.0181617)
(0.0158073 0.0242048 -0.0158774)
(0.0119766 0.0246884 -0.0139819)
(0.00745454 0.0250654 -0.0126584)
(0.00250742 0.0250923 -0.0118976)
(0.0111456 0.0681072 -0.0417883)
(0.0186662 0.0392164 -0.0300268)
(0.0226009 0.0293985 -0.0280667)
(0.0227005 0.0286886 -0.0249183)
(0.0215014 0.0297671 -0.0216388)
(0.0195724 0.030816 -0.0190478)
(0.0165895 0.0317981 -0.0166202)
(0.0125993 0.0326363 -0.0145454)
(0.00785328 0.0332247 -0.0130805)
(0.00264813 0.0332891 -0.012248)
(0.0147592 0.0747663 -0.0459837)
(0.0222169 0.0367766 -0.032461)
(0.0239924 0.0262707 -0.0289696)
(0.0236258 0.0277969 -0.0260781)
(0.0225768 0.030931 -0.022965)
(0.0207408 0.0335121 -0.0203143)
(0.0176461 0.035624 -0.0176216)
(0.0133897 0.0372281 -0.015235)
(0.00831523 0.0382718 -0.0135351)
(0.00278935 0.0385155 -0.0125941)
(0.016504 0.0934707 -0.0621497)
(0.0277752 0.0577763 -0.047475)
(0.030023 0.0413987 -0.0393699)
(0.0288298 0.0398809 -0.0337121)
(0.0267428 0.0436657 -0.0284176)
(0.024151 0.0477797 -0.0241838)
(0.0202903 0.0510718 -0.0201833)
(0.0152085 0.0533004 -0.0167743)
(0.00936579 0.0545502 -0.0144277)
(0.00314628 0.0547648 -0.0131976)
(0.0137301 0.0820831 -0.0455876)
(0.0253777 0.0540182 -0.0351007)
(0.0280422 0.0399143 -0.0347344)
(0.0288632 0.0391526 -0.0347846)
(0.0290239 0.0435198 -0.0322248)
(0.0269376 0.0488848 -0.027656)
(0.0222831 0.0530496 -0.0221081)
(0.0161618 0.0550293 -0.0172572)
(0.00965304 0.0555347 -0.0140759)
(0.00323351 0.0552962 -0.0125933)
(0.013682 0.0845604 -0.0722269)
(0.0243122 0.0473281 -0.0614911)
(0.0287774 0.0254303 -0.0525764)
(0.0313034 0.0324923 -0.0449913)
(0.0319555 0.0519874 -0.0381995)
(0.0292956 0.0685846 -0.0309869)
(0.0234221 0.0776971 -0.0231813)
(0.0160888 0.0796825 -0.0169125)
(0.0092472 0.0787403 -0.0137297)
(0.00288285 0.0774741 -0.0123872)
(0.0160517 0.144561 -0.193664)
(0.0351422 0.122826 -0.201729)
(0.0678522 0.100835 -0.191954)
(0.0959383 0.0827198 -0.167718)
(0.10945 0.0835233 -0.141963)
(0.106993 0.0942752 -0.118446)
(0.0882357 0.0955433 -0.0879182)
(0.0548294 0.0868449 -0.0513075)
(0.0263659 0.0815661 -0.0299622)
(0.0110761 0.0804984 -0.0293131)
(0.0235791 -0.0555995 -0.186492)
(0.053812 -0.0733514 -0.218059)
(0.0937267 -0.0593239 -0.250868)
(0.138174 -0.00665232 -0.245771)
(0.180272 0.0326921 -0.243604)
(0.222914 0.0688365 -0.254842)
(0.277227 0.12082 -0.27791)
(0.290807 0.167474 -0.244463)
(0.194943 0.162033 -0.136556)
(0.104944 0.153052 -0.171169)
(0.0191442 -0.543301 -0.290756)
(-0.0187669 -0.508045 -0.228759)
(-0.0233406 -0.270232 -0.173343)
(0.015979 -0.165297 -0.142314)
(0.0316907 -0.0915682 -0.102138)
(0.0278107 0.0230647 -0.0516111)
(0.0122324 0.164901 -0.00536034)
(0.0224269 0.211396 0.00830785)
(-0.033195 0.252889 0.0100616)
(-0.012327 0.278209 -0.147125)
(-0.0398209 -0.173011 -0.115351)
(-0.116671 -0.165898 -0.0394513)
(-0.154311 -0.110417 0.035968)
(-0.156648 -0.0494732 0.0957135)
(-0.15097 0.0170775 0.130177)
(-0.139877 0.0814414 0.14374)
(-0.128085 0.145756 0.134252)
(-0.112256 0.210337 0.103743)
(-0.113176 0.255293 0.0467271)
(-0.0581407 0.246365 -0.0592949)
(-0.0296348 -0.167898 0.0609554)
(-0.0838359 -0.149036 0.104483)
(-0.11603 -0.110216 0.14178)
(-0.128534 -0.0612995 0.161587)
(-0.131415 -0.00536875 0.164068)
(-0.131163 0.0547709 0.152839)
(-0.127244 0.109616 0.129251)
(-0.115348 0.162722 0.0932858)
(-0.0950195 0.206086 0.0487586)
(-0.0429803 0.183722 0.00463589)
(-0.01344 -0.0610099 0.148939)
(-0.0412782 -0.0517834 0.156477)
(-0.0584501 -0.030139 0.152335)
(-0.0727339 -0.00174263 0.14294)
(-0.0840632 0.0275755 0.129781)
(-0.0897084 0.0583778 0.112078)
(-0.0896679 0.0910932 0.0899674)
(-0.0804229 0.126885 0.0649174)
(-0.0582049 0.161837 0.0412869)
(-0.0209237 0.137368 0.0255984)
(-0.00284023 0.00196471 0.130364)
(-0.0170201 0.00859435 0.122614)
(-0.0300324 0.0198342 0.108718)
(-0.04265 0.0335461 0.0972576)
(-0.053128 0.0497689 0.0859946)
(-0.0592208 0.067827 0.0739888)
(-0.0599832 0.0877641 0.0599269)
(-0.0527211 0.110816 0.0450838)
(-0.0350548 0.133861 0.0332494)
(-0.0107068 0.108889 0.0260885)
(-0.00166987 0.0393422 0.0856662)
(-0.0122626 0.0410276 0.0806774)
(-0.021874 0.0447417 0.0725059)
(-0.0309895 0.0509705 0.0655279)
(-0.0383932 0.0597821 0.0581177)
(-0.0422983 0.071064 0.0505664)
(-0.0422726 0.0842358 0.0419637)
(-0.0363765 0.0994929 0.0332579)
(-0.0233567 0.114418 0.0269233)
(-0.00692792 0.0904954 0.0223472)
(-0.0027708 0.0527655 0.0588427)
(-0.0122732 0.0521462 0.0568647)
(-0.0194107 0.0534232 0.0522859)
(-0.0256709 0.0566886 0.0474939)
(-0.0304013 0.0621337 0.0418208)
(-0.0322742 0.0695985 0.0364064)
(-0.0313238 0.0784899 0.0306474)
(-0.0262651 0.0888112 0.0252337)
(-0.0165928 0.0989289 0.0216462)
(-0.00495845 0.0766576 0.018378)
(-0.00369082 0.0567451 0.0459024)
(-0.0121988 0.0553374 0.044377)
(-0.017632 0.0559723 0.040374)
(-0.0220547 0.0581125 0.0361204)
(-0.0250209 0.0618113 0.0312451)
(-0.0255374 0.0669116 0.0270403)
(-0.0240056 0.0729543 0.0229066)
(-0.0195985 0.0799889 0.0193353)
(-0.0122448 0.0869765 0.0172106)
(-0.00369773 0.0660816 0.0147565)
(-0.00447106 0.0570311 0.0377229)
(-0.0119993 0.0555157 0.0360342)
(-0.0162026 0.0559022 0.0320203)
(-0.0193461 0.0574509 0.0281378)
(-0.0211226 0.0601253 0.0238766)
(-0.0207807 0.0637438 0.0205304)
(-0.0189631 0.0679584 0.0174482)
(-0.0151174 0.0728775 0.0149766)
(-0.00939484 0.0778492 0.0136496)
(-0.00288738 0.0579275 0.0117068)
(0.0105163 0.0211761 -0.0612505)
(0.0199248 0.0136406 -0.0502177)
(0.0253466 0.00775078 -0.0382182)
(0.0246268 0.0052051 -0.0281934)
(0.0210951 0.00379771 -0.0217059)
(0.0175502 0.00295035 -0.0178255)
(0.0141356 0.00260131 -0.0151123)
(0.010446 0.0025283 -0.0131497)
(0.00641242 0.0025573 -0.0118782)
(0.00214797 0.0025839 -0.0111609)
(0.00937957 0.0478788 -0.0765901)
(0.0212834 0.0333681 -0.0596138)
(0.0319786 0.0203997 -0.0485698)
(0.0341659 0.0143859 -0.0404365)
(0.0312027 0.0118431 -0.0330103)
(0.0269803 0.0104195 -0.0271556)
(0.0220583 0.0097563 -0.0224359)
(0.0163128 0.00956091 -0.018849)
(0.00998363 0.0095601 -0.0164987)
(0.00333076 0.00952355 -0.0152342)
(0.00228489 0.0630952 -0.0653944)
(0.00894254 0.0453839 -0.0433567)
(0.0233877 0.0276176 -0.0344916)
(0.0281228 0.0204359 -0.031109)
(0.0261381 0.0186937 -0.0269064)
(0.0229172 0.0179399 -0.0230927)
(0.0191173 0.0175725 -0.0197657)
(0.0143485 0.0175164 -0.0170191)
(0.00885935 0.0175844 -0.0151444)
(0.00296454 0.0175179 -0.0141025)
(0.00410385 0.0545989 -0.0778083)
(0.00365646 0.0501039 -0.0385042)
(0.0194221 0.0315472 -0.0298928)
(0.0255825 0.0237969 -0.0274098)
(0.0241044 0.0228358 -0.0244117)
(0.0213113 0.0232638 -0.021464)
(0.0180965 0.0237455 -0.018862)
(0.0137808 0.0242684 -0.0165203)
(0.00858252 0.0247061 -0.0148461)
(0.00288424 0.0247702 -0.0138928)
(0.00176362 0.0449378 -0.0828934)
(0.000481023 0.0537688 -0.0367016)
(0.0183253 0.036883 -0.0284593)
(0.0257862 0.029296 -0.0274474)
(0.0248434 0.0284937 -0.0250983)
(0.022186 0.029667 -0.0222918)
(0.0190214 0.030871 -0.0196649)
(0.0145682 0.0319381 -0.0171596)
(0.00909582 0.0327202 -0.0153348)
(0.00306623 0.0328831 -0.0143028)
(-0.0033275 0.0416858 -0.0844398)
(0.00705356 0.0532096 -0.0421477)
(0.0221159 0.0299162 -0.0296398)
(0.0266261 0.0248828 -0.027969)
(0.0256829 0.026922 -0.0259457)
(0.0233951 0.0305413 -0.0234334)
(0.0203417 0.0335968 -0.0207592)
(0.0156466 0.0359436 -0.0179865)
(0.00975008 0.0374969 -0.0159087)
(0.003272 0.0379767 -0.0147473)
(-0.00478413 0.0248067 -0.0976343)
(0.00925865 0.0491564 -0.068947)
(0.0271676 0.0479849 -0.0446647)
(0.0330402 0.0383985 -0.037406)
(0.0318698 0.0375961 -0.0328166)
(0.0284135 0.0427191 -0.0282902)
(0.0242899 0.0478825 -0.0240307)
(0.0184304 0.0516012 -0.019996)
(0.0113547 0.0537911 -0.0170562)
(0.00380398 0.0543772 -0.0154899)
(-0.00601297 0.0317373 -0.0873169)
(0.00825995 0.0532622 -0.049253)
(0.0237171 0.0404819 -0.0293587)
(0.030043 0.0320466 -0.0315082)
(0.0320067 0.0351107 -0.033258)
(0.0316519 0.0420961 -0.0313819)
(0.0278108 0.0489664 -0.0266657)
(0.020721 0.0537533 -0.0211744)
(0.0123627 0.0556888 -0.0169887)
(0.00409313 0.0557182 -0.014865)
(0.00224361 0.0866206 -0.118067)
(0.0232556 0.0874188 -0.0852587)
(0.0375086 0.0459834 -0.0633916)
(0.039848 0.0157134 -0.0524943)
(0.0389925 0.0227592 -0.0434078)