/*--------------------------------*- C++ -*----------------------------------*\
| =========                 |                                                 |
| \\      /  F ield         | OpenFOAM: The Open Source CFD Toolbox           |
|  \\    /   O peration     | Version:  2312                                  |
|   \\  /    A nd           | Website:  www.openfoam.com                      |
|    \\/     M anipulation  |                                                 |
\*---------------------------------------------------------------------------*/
FoamFile
{
    version     2.0;
    format      ascii;
    arch        "LSB;label=32;scalar=64";
    class       volScalarField;
    location    "0.45";
    object      p;
}
// * * * * * * * * * * * * * * * * * * * * * * * * * * * * * * * * * * * * * //

dimensions      [1 -1 -2 0 0 0 0];

internalField   nonuniform List<scalar> 
8000
(
393.037
392.313
391.051
389.431
387.655
385.935
384.443
383.298
382.563
382.271
345.283
344.413
342.973
341.138
339.148
337.246
335.618
334.385
333.6
333.284
298.674
297.571
295.782
293.537
291.151
288.91
287.015
285.594
284.696
284.327
253.493
252.017
249.71
246.847
243.858
241.113
238.851
237.194
236.163
235.739
210.15
208.031
204.931
201.135
197.312
193.916
191.167
189.206
188.017
187.534
170.435
167.219
162.365
156.838
151.752
147.599
144.293
142.117
140.826
140.32
134.835
129.501
122.09
113.773
106.742
101.614
98.1647
96.1822
95.1701
94.8989
105.645
95.9858
83.1145
70.3751
61.0991
55.8063
53.7816
52.7362
52.35
52.2865
80.9449
62.3483
41.4562
25.7986
20.1131
19.7749
21.0063
22.1568
23.0533
23.4631
45.2757
20.0276
4.50919
1.33049
0.738147
0.668286
1.00421
1.66334
2.31747
2.67249
10.5142
0.344213
-0.12593
-0.330885
-0.411829
-0.426459
-0.414513
-0.40926
-0.411044
-0.415367
-0.340726
-0.55842
-0.534941
-0.549674
-0.522813
-0.508519
-0.488815
-0.465466
-0.455204
-0.458876
-0.487
-0.495045
-0.629063
-0.674672
-0.626061
-0.582877
-0.55479
-0.523917
-0.50696
-0.510707
-0.546855
-0.568056
-0.671624
-0.755603
-0.712835
-0.641911
-0.60982
-0.588225
-0.57049
-0.566788
-0.61146
-0.623647
-0.676748
-0.738834
-0.717492
-0.664973
-0.633336
-0.62049
-0.606961
-0.603608
-0.686698
-0.689337
-0.677118
-0.687952
-0.676606
-0.659891
-0.64933
-0.643516
-0.637401
-0.635615
-0.725386
-0.724827
-0.688898
-0.667738
-0.663379
-0.67066
-0.675438
-0.675664
-0.674003
-0.673432
-0.731682
-0.731418
-0.705909
-0.686631
-0.690867
-0.705144
-0.71285
-0.71578
-0.716224
-0.716008
-0.75628
-0.756905
-0.74731
-0.739991
-0.741635
-0.751908
-0.756931
-0.759596
-0.76033
-0.760229
-0.799546
-0.800958
-0.801223
-0.802508
-0.801268
-0.803457
-0.805654
-0.806744
-0.806719
-0.806374
392.307
391.576
390.32
388.71
386.946
385.238
383.755
382.618
381.892
381.606
344.407
343.524
342.095
340.278
338.302
336.411
334.792
333.569
332.79
332.476
297.562
296.439
294.664
292.438
290.06
287.818
285.92
284.497
283.606
283.251
251.991
250.46
248.168
245.325
242.331
239.552
237.256
235.579
234.551
234.124
207.963
205.799
202.748
198.974
195.098
191.596
188.798
186.78
185.559
185.05
166.918
163.714
158.925
153.547
148.376
143.982
140.788
138.522
137.208
136.706
129.366
124.397
116.957
109.562
102.838
97.397
93.5583
91.184
89.8841
89.2512
95.5536
86.4087
74.4535
63.3115
55.4153
50.3205
47.4764
45.9471
45.2385
44.9038
61.3071
43.0982
26.1977
15.9714
13.4899
13.2336
13.4159
13.5065
13.7089
14.078
16.9048
6.58943
1.44159
0.111836
-0.173608
-0.239059
0.00565349
0.394572
0.721478
0.879589
0.465969
-0.27028
-0.365108
-0.436258
-0.470804
-0.49274
-0.492525
-0.48944
-0.496547
-0.507016
-0.488032
-0.513617
-0.499778
-0.554684
-0.556843
-0.54665
-0.528162
-0.508672
-0.505581
-0.50793
-0.576258
-0.616184
-0.617835
-0.673667
-0.662472
-0.637274
-0.58389
-0.538079
-0.528179
-0.535057
-0.605885
-0.694308
-0.734528
-0.789102
-0.760856
-0.698009
-0.644532
-0.603341
-0.584958
-0.587085
-0.650681
-0.725132
-0.752956
-0.803174
-0.777815
-0.702953
-0.655328
-0.631264
-0.617607
-0.612019
-0.727511
-0.744828
-0.686504
-0.689184
-0.685355
-0.661827
-0.64967
-0.645634
-0.640726
-0.638095
-0.742088
-0.72607
-0.638877
-0.611113
-0.628482
-0.65392
-0.667818
-0.673051
-0.672717
-0.672289
-0.731938
-0.717545
-0.665155
-0.650706
-0.668782
-0.692281
-0.706559
-0.712734
-0.714025
-0.714013
-0.755796
-0.753337
-0.733951
-0.730953
-0.735874
-0.74622
-0.75365
-0.757604
-0.758591
-0.758443
-0.802798
-0.803687
-0.800144
-0.801779
-0.80192
-0.802773
-0.804752
-0.805821
-0.805641
-0.805377
391.031
390.305
389.056
387.457
385.708
384.021
382.565
381.458
380.759
380.492
342.951
342.079
340.653
338.839
336.871
334.996
333.402
332.207
331.452
331.155
295.754
294.644
292.866
290.636
288.252
286.009
284.123
282.721
281.855
281.506
249.667
248.139
245.816
242.929
239.876
237.049
234.721
233.029
232.009
231.579
204.869
202.696
199.542
195.686
191.705
188.122
185.242
183.19
182.001
181.508
162.24
158.784
154.129
148.66
143.334
138.737
135.217
132.783
131.376
130.852
121.898
116.764
110.324
103.071
96.4264
90.844
86.5482
83.4756
81.6484
80.8486
82.8397
74.2267
63.5429
53.3335
45.8774
40.7326
37.3282
35.0605
34.1311
34.2144
41.5914
26.0433
13.8904
8.7574
7.06431
6.11838
5.48168
4.60287
4.2892
4.58123
4.20609
1.35211
0.1188
-0.159871
-0.204511
-0.214947
-0.263102
-0.329798
-0.304069
-0.200332
-0.109016
-0.369873
-0.371335
-0.397764
-0.404242
-0.41079
-0.428816
-0.449946
-0.456842
-0.446454
-0.477164
-0.530334
-0.503576
-0.549643
-0.542782
-0.507656
-0.473427
-0.465021
-0.464093
-0.45793
-0.582567
-0.643848
-0.624429
-0.682922
-0.671852
-0.608108
-0.546866
-0.518473
-0.516462
-0.511925
-0.645712
-0.765495
-0.765529
-0.779122
-0.746697
-0.669716
-0.602736
-0.570195
-0.563896
-0.562654
-0.701437
-0.839767
-0.814858
-0.771713
-0.724106
-0.675437
-0.639296
-0.61252
-0.60145
-0.599619
-0.763739
-0.797091
-0.69764
-0.628542
-0.645841
-0.655549
-0.646911
-0.6394
-0.634094
-0.633024
-0.740203
-0.71534
-0.612537
-0.586106
-0.635582
-0.662074
-0.669025
-0.67057
-0.669503
-0.669453
-0.726069
-0.703692
-0.653036
-0.657575
-0.683352
-0.698867
-0.707514
-0.71115
-0.711578
-0.711645
-0.758708
-0.753241
-0.730466
-0.734707
-0.743969
-0.750555
-0.754844
-0.757225
-0.757259
-0.757075
-0.810955
-0.812207
-0.797725
-0.80074
-0.805123
-0.805106
-0.805793
-0.805682
-0.80469
-0.804057
389.39
388.676
387.436
385.857
384.139
382.5
381.105
380.07
379.429
379.203
341.094
340.24
338.816
337.011
335.065
333.231
331.699
330.573
329.883
329.64
293.485
292.392
290.609
288.368
285.977
283.744
281.893
280.546
279.757
279.463
246.778
245.263
242.893
239.923
236.78
233.884
231.515
229.799
228.846
228.376
201.057
198.882
195.633
191.593
187.398
183.587
180.525
178.384
177.16
176.797
156.658
153.355
148.571
142.75
136.908
131.761
127.756
125.007
123.454
122.844
113.44
109.239
102.905
95.2264
87.6022
80.6399
74.8534
70.5059
67.8006
66.7123
69.8612
62.8171
53.0774
42.4546
33.9072
27.2629
22.5434
19.9927
19.0757
19.1449
25.71
15.7493
8.7261
5.05498
3.07246
1.75091
0.645138
0.375519
0.279139
0.424695
1.36025
0.0609299
-0.126837
-0.191804
-0.208643
-0.190905
-0.222803
-0.230447
-0.233597
-0.214352
-0.301185
-0.41935
-0.381806
-0.379915
-0.374716
-0.376048
-0.385841
-0.379683
-0.370504
-0.35731
-0.477787
-0.525901
-0.525245
-0.539912
-0.507457
-0.467254
-0.440849
-0.42826
-0.419005
-0.412645
-0.581991
-0.629823
-0.646858
-0.67706
-0.628109
-0.559999
-0.521264
-0.503655
-0.492257
-0.483687
-0.652081
-0.751647
-0.769993
-0.756515
-0.690223
-0.622303
-0.584073
-0.565637
-0.554831
-0.542885
-0.712946
-0.820359
-0.812214
-0.741329
-0.683918
-0.646424
-0.622225
-0.60568
-0.594763
-0.587006
-0.739395
-0.769115
-0.72095
-0.658265
-0.653835
-0.651615
-0.643139
-0.63506
-0.628848
-0.62598
-0.718321
-0.696174
-0.6494
-0.640729
-0.66172
-0.669205
-0.670727
-0.669238
-0.666523
-0.665936
-0.721481
-0.699108
-0.673866
-0.685111
-0.697927
-0.706556
-0.71027
-0.711202
-0.709949
-0.709795
-0.764279
-0.754702
-0.742912
-0.743792
-0.749783
-0.754162
-0.756546
-0.757377
-0.756153
-0.755682
-0.820854
-0.819668
-0.80996
-0.804682
-0.805156
-0.805302
-0.805907
-0.805551
-0.803786
-0.802686
387.589
386.886
385.662
384.113
382.449
380.89
379.607
378.698
378.148
378.007
339.076
338.237
336.82
335.036
333.135
331.38
329.958
328.976
328.413
328.287
291.071
289.984
288.193
285.942
283.56
281.373
279.619
278.441
277.846
277.719
243.757
242.233
239.798
236.733
233.501
230.562
228.212
226.717
225.956
225.696
197.196
194.965
191.594
187.322
182.816
178.717
175.552
173.361
172.08
171.399
151.508
148.169
143.186
136.819
130.263
124.475
120.095
116.94
115.046
113.925
106.36
102.442
96.1062
87.4014
77.8185
68.3411
60.1809
53.6869
48.5935
45.0906
60.4512
54.7895
45.4288
33.7109
23.3326
15.4728
10.9877
8.61301
6.86023
5.24955
19.5579
13.2088
7.01676
3.04363
0.98693
0.0274475
-0.0494564
-0.0546546
-0.0169737
0.00807082
0.700449
-0.224896
-0.217666
-0.195405
-0.221039
-0.213352
-0.195979
-0.181998
-0.176075
-0.180471
-0.364673
-0.441574
-0.397251
-0.368748
-0.359036
-0.340446
-0.318428
-0.310124
-0.302946
-0.308997
-0.473246
-0.515476
-0.511344
-0.500457
-0.463405
-0.430392
-0.405225
-0.391255
-0.379304
-0.383562
-0.557835
-0.597238
-0.616647
-0.616031
-0.565832
-0.519751
-0.489124
-0.472806
-0.459611
-0.457171
-0.627042
-0.676402
-0.702483
-0.684981
-0.62912
-0.583499
-0.554683
-0.539645
-0.525926
-0.520366
-0.687492
-0.730615
-0.73878
-0.694287
-0.653683
-0.621488
-0.601181
-0.589656
-0.577721
-0.572444
-0.707248
-0.714845
-0.703455
-0.673707
-0.659139
-0.644446
-0.634582
-0.628071
-0.62043
-0.617896
-0.707441
-0.69265
-0.671353
-0.672959
-0.673789
-0.671044
-0.669963
-0.667712
-0.663329
-0.662211
-0.727312
-0.710984
-0.695942
-0.704009
-0.706271
-0.708767
-0.711298
-0.711245
-0.708579
-0.707614
-0.769646
-0.760651
-0.75454
-0.755443
-0.752249
-0.754765
-0.757344
-0.757404
-0.755093
-0.753454
-0.823115
-0.820469
-0.815051
-0.809877
-0.804708
-0.805618
-0.80639
-0.805451
-0.802704
-0.800177
385.844
385.152
383.947
382.444
380.859
379.425
378.314
377.575
377.15
377.173
337.145
336.316
334.914
333.169
331.345
329.714
328.495
327.726
327.371
327.492
288.799
287.709
285.913
283.669
281.329
279.254
277.729
276.838
276.553
276.748
240.978
239.415
236.925
233.782
230.5
227.605
225.546
224.391
224.053
224.106
193.762
191.42
187.937
183.411
178.601
174.407
171.285
169.555
169.027
168.778
147.353
143.768
138.539
131.562
124.319
118.217
114.591
112.119
109.839
106.918
101.27
97.0039
90.3915
80.1879
67.979
55.5711
45.5525
36.1025
26.0359
19.8342
55.0174
49.7113
40.2869
26.9658
15.2579
8.40902
5.1943
2.7451
1.27892
1.36034
18.9938
12.9597
6.06547
1.67414
0.0224039
-0.0325289
-0.00789454
-0.020972
-0.000820259
0.125302
0.513339
-0.187512
-0.263837
-0.214038
-0.230156
-0.185846
-0.168083
-0.159198
-0.1459
-0.132632
-0.37753
-0.447541
-0.416742
-0.383156
-0.340475
-0.301363
-0.28186
-0.273967
-0.276096
-0.303233
-0.475706
-0.515805
-0.496953
-0.476419
-0.435756
-0.398844
-0.37791
-0.367501
-0.359182
-0.379821
-0.550126
-0.58798
-0.590052
-0.577262
-0.531412
-0.490307
-0.463925
-0.451731
-0.439861
-0.447579
-0.613125
-0.642127
-0.64958
-0.629568
-0.594951
-0.558541
-0.532882
-0.520716
-0.508602
-0.50833
-0.66366
-0.674879
-0.674128
-0.652857
-0.630869
-0.604281
-0.585375
-0.575692
-0.565301
-0.562681
-0.683001
-0.682514
-0.670582
-0.65719
-0.648598
-0.636162
-0.627691
-0.621865
-0.614704
-0.612488
-0.702138
-0.693531
-0.673523
-0.670619
-0.67166
-0.66947
-0.669099
-0.66634
-0.662079
-0.660924
-0.73046
-0.722119
-0.707562
-0.708654
-0.70994
-0.710312
-0.712976
-0.711614
-0.709226
-0.709375
-0.772092
-0.765834
-0.759782
-0.759585
-0.756769
-0.758142
-0.759667
-0.75821
-0.756194
-0.755391
-0.820768
-0.81878
-0.814502
-0.81113
-0.808094
-0.80853
-0.808067
-0.806038
-0.803677
-0.800975
384.327
383.644
382.463
381.017
379.54
378.273
377.36
376.809
376.533
376.856
335.49
334.669
333.289
331.604
329.881
328.448
327.483
326.965
326.793
327.247
286.873
285.778
283.989
281.776
279.525
277.676
276.497
275.996
276.025
276.594
238.684
237.08
234.549
231.357
228.084
225.472
223.864
223.45
223.952
224.6
190.977
188.572
184.992
180.255
175.303
171.135
168.75
168.92
170.956
171.961
144.053
140.536
134.966
127.434
119.767
114.498
110.298
107.476
107.007
107.515
97.8657
93.2051
86.0118
74.1298
59.3274
44.9033
31.245
18.0963
13.5627
26.5883
53.0812
46.9366
36.9208
22.138
10.5779
5.0428
1.98046
0.509297
1.2025
3.78231
20.0528
13.0515
5.50264
0.610209
-0.0175847
0.0177687
0.00347302
-0.0222116
-0.0403175
0.0997674
0.718068
0.0464293
-0.284524
-0.23551
-0.185664
-0.156294
-0.147847
-0.143625
-0.153728
-0.238221
-0.376663
-0.443723
-0.429397
-0.399762
-0.319912
-0.278766
-0.263128
-0.271526
-0.288613
-0.347598
-0.477252
-0.511977
-0.480661
-0.459203
-0.414638
-0.380516
-0.364901
-0.361115
-0.359379
-0.387276
-0.546362
-0.579266
-0.568191
-0.547485
-0.507735
-0.473773
-0.453782
-0.444511
-0.432545
-0.450664
-0.602903
-0.627054
-0.616773
-0.59947
-0.572119
-0.542772
-0.525274
-0.515849
-0.503862
-0.515999
-0.640943
-0.647779
-0.639707
-0.626256
-0.610678
-0.591656
-0.580752
-0.573359
-0.564196
-0.573369
-0.66808
-0.665255
-0.651056
-0.640242
-0.637919
-0.629668
-0.626734
-0.62215
-0.616664
-0.620722
-0.696985
-0.690544
-0.673243
-0.669094
-0.67115
-0.667231
-0.670296
-0.667499
-0.664925
-0.665604
-0.731542
-0.725208
-0.714453
-0.714487
-0.713205
-0.710691
-0.715049
-0.71281
-0.712203
-0.71253
-0.773661
-0.769521
-0.764696
-0.763184
-0.760409
-0.759808
-0.762081
-0.759226
-0.759455
-0.761892
-0.820465
-0.818506
-0.815466
-0.813159
-0.810552
-0.810455
-0.810368
-0.807061
-0.807316
-0.811341
383.159
382.485
381.335
379.957
378.592
377.475
376.732
376.405
376.121
376.57
334.234
333.424
332.069
330.444
328.854
327.617
326.909
326.691
326.476
327.041
285.425
284.329
282.556
280.394
278.29
276.712
275.958
275.975
276.142
276.826
236.996
235.373
232.802
229.594
226.492
224.224
223.412
224.248
225.4
226.792
188.983
186.516
182.917
178.032
172.953
169.279
168.896
171.886
174.072
176.11
141.814
138.231
132.493
124.581
116.492
111.981
107.876
106.484
109.006
109.718
95.8657
90.8402
82.9273
69.5329
52.214
34.6597
18.0753
12.7698
30.0677
32.5043
52.1534
45.479
34.7586
19.4895
7.93542
2.30194
0.516087
0.570308
1.26919
1.41197
21.4053
13.2724
4.63564
0.453031
0.0097455
-0.00913843
-0.0347971
-0.0572448
-0.121212
-0.120046
1.33457
0.35615
-0.263848
-0.202859
-0.143173
-0.130648
-0.140463
-0.104521
-0.195941
0.158926
-0.383927
-0.451497
-0.443064
-0.387019
-0.282518
-0.253608
-0.267238
-0.279191
-0.361081
-0.396749
-0.474403
-0.507219
-0.470846
-0.44355
-0.397978
-0.367692
-0.360524
-0.36859
-0.384817
-0.430286
-0.54093
-0.565251
-0.542142
-0.521218
-0.496693
-0.463175
-0.448318
-0.449405
-0.438756
-0.458482
-0.594417
-0.612646
-0.59067
-0.573385
-0.556261
-0.530959
-0.52134
-0.522415
-0.512434
-0.524297
-0.62828
-0.63561
-0.62176
-0.609729
-0.599146
-0.577846
-0.582645
-0.581154
-0.571704
-0.581561
-0.660385
-0.659056
-0.646469
-0.639616
-0.63559
-0.612794
-0.634173
-0.630389
-0.623643
-0.631483
-0.69419
-0.690351
-0.679132
-0.675836
-0.672771
-0.654467
-0.680085
-0.674911
-0.670698
-0.675059
-0.73199
-0.727735
-0.72078
-0.719582
-0.713963
-0.701774
-0.726994
-0.719959
-0.716342
-0.729289
-0.774532
-0.771975
-0.767746
-0.766982
-0.760584
-0.752772
-0.775276
-0.764821
-0.763347
-0.776278
-0.820319
-0.819012
-0.816194
-0.815624
-0.811542
-0.801854
-0.818645
-0.811588
-0.81155
-0.841612
382.408
381.746
380.625
379.303
378.017
376.985
376.288
375.836
375.709
376.202
333.434
332.632
331.307
329.745
328.26
327.171
326.49
325.998
325.598
325.554
284.51
283.433
281.692
279.603
277.661
276.304
275.615
275.234
274.173
273.879
235.948
234.334
231.799
228.648
225.681
223.748
223.513
224.08
221.657
220.5
187.776
185.283
181.697
176.783
171.49
168.726
170.736
173.26
166.802
162.77
140.466
136.922
131.134
123.026
114.623
109.41
108.886
111.453
101.947
97.6142
94.7753
89.4961
81.1531
66.5915
45.9182
22.6689
17.1944
32.1467
35.2936
39.0524
51.8555
44.7878
34.0451
18.4595
5.83331
1.25436
1.55482
1.30158
3.62101
12.415
22.6111
13.8868
4.67072
0.455259
0.0536027
0.0658567
-0.0298207
-0.182995
0.880367
15.164
2.04999
0.620834
-0.287049
-0.220299
-0.143951
-0.107366
-0.1309
-0.200862
2.16556
11.7448
-0.402313
-0.489551
-0.456637
-0.369826
-0.281491
-0.237211
-0.279401
-0.350647
-0.448337
0.25593
-0.467085
-0.504876
-0.456989
-0.426242
-0.375086
-0.33277
-0.339755
-0.385467
-0.43184
-0.317333
-0.532249
-0.547036
-0.514726
-0.503092
-0.491106
-0.454656
-0.448184
-0.474792
-0.462526
-0.447731
-0.589903
-0.602122
-0.569397
-0.559556
-0.558691
-0.547799
-0.531653
-0.550258
-0.533843
-0.566563
-0.622632
-0.631742
-0.610233
-0.601777
-0.599489
-0.61068
-0.588633
-0.60011
-0.586775
-0.643223
-0.655956
-0.657229
-0.644679
-0.639111
-0.636631
-0.640821
-0.648261
-0.640359
-0.624845
-0.65898
-0.69177
-0.689332
-0.68149
-0.67848
-0.674834
-0.67396
-0.682456
-0.67779
-0.655821
-0.691048
-0.731582
-0.72876
-0.723459
-0.72184
-0.715226
-0.702726
-0.720429
-0.714313
-0.69429
-0.752567
-0.774636
-0.772807
-0.768956
-0.768177
-0.76026
-0.749581
-0.756966
-0.755404
-0.747405
-0.803646
-0.820254
-0.819157
-0.816474
-0.815721
-0.810625
-0.809728
-0.795983
-0.803823
-0.814987
-0.859407
382.101
381.45
380.355
379.084
377.884
376.999
376.527
376.11
375.91
376.472
333.106
332.313
331.018
329.518
328.156
327.317
326.893
326.413
325.505
326.953
284.132
283.082
281.375
279.382
277.66
276.667
276.316
275.964
274.036
276.257
235.517
233.925
231.439
228.395
225.723
224.245
224.617
225.361
221.23
224.414
187.286
184.811
181.299
176.569
171.414
169.588
172.811
175.058
165.318
166.915
139.901
136.484
130.762
122.645
113.855
107.42
112.938
113.846
98.4736
103.955
94.3378
88.927
80.5386
65.3163
40.3004
12.1571
33.2231
39.8252
36.9334
51.5953
51.7861
44.4497
34.3368
18.1081
3.69853
2.27147
3.88319
2.89409
15.9811
38.7685
23.1511
14.1958
5.28849
0.686469
0.103692
0.361495
0.16461
0.329781
26.0415
61.7646
2.45955
0.772343
-0.19894
-0.188931
-0.138121
-0.10751
-0.1834
0.943123
23.5179
64.6316
-0.423031
-0.533481
-0.464764
-0.346225
-0.298961
-0.29015
-0.334057
-0.298752
0.86812
21.2609
-0.463595
-0.51147
-0.460346
-0.429704
-0.402355
-0.378578
-0.394099
-0.382998
-0.294461
0.140395
-0.522171
-0.534866
-0.502593
-0.497232
-0.491451
-0.476824
-0.464902
-0.442904
-0.469082
-0.58625
-0.58776
-0.596033
-0.560718
-0.553469
-0.552745
-0.554025
-0.538186
-0.374572
-0.471936
-0.641605
-0.621777
-0.632156
-0.60353
-0.59652
-0.595062
-0.598082
-0.597975
-0.404337
-0.630137
-0.588936
-0.654193
-0.658458
-0.642306
-0.636144
-0.633869
-0.634985
-0.620703
-0.633777
-0.62785
-0.624223
-0.690504
-0.689027
-0.681184
-0.677256
-0.6733
-0.672441
-0.680766
-0.680893
-0.64372
-0.676059
-0.730706
-0.728517
-0.723818
-0.721067
-0.715079
-0.715063
-0.72024
-0.703372
-0.67741
-0.718444
-0.774184
-0.772447
-0.769326
-0.767115
-0.761797
-0.763241
-0.759885
-0.738986
-0.717467
-0.774461
-0.819869
-0.818788
-0.816597
-0.814969
-0.812786
-0.817272
-0.810565
-0.788863
-0.768563
-0.762188
382.232
381.587
380.503
379.245
378.054
377.165
376.687
376.271
376.204
376.531
333.239
332.453
331.174
329.696
328.351
327.512
327.042
326.483
325.796
327.148
284.269
283.231
281.548
279.599
277.906
276.92
276.49
275.922
274.327
276.727
235.659
234.089
231.654
228.733
226.119
224.681
224.954
225.172
221.633
224.569
187.44
185.006
181.553
177.012
172.27
170.716
173.717
174.772
164.527
165.58
140.043
136.687
131.08
123.309
115.639
109.464
114.886
114.214
97.8131
99.6106
94.4758
89.1257
80.8189
65.5394
39.8772
13.1679
33.0937
40.8845
38.9002
48.9888
51.9673
44.7052
34.6479
17.9922
2.92457
2.15841
3.01416
5.29506
26.7529
47.4727
23.146
14.4306
5.549
0.698466
0.0458638
0.195097
0.00774836
0.966202
35.2261
89.9173
2.3994
0.75385
-0.194209
-0.198245
-0.141413
-0.10377
-0.285725
-0.266194
6.69895
60.8127
-0.424035
-0.527557
-0.466959
-0.35063
-0.29979
-0.295523
-0.343322
-0.306313
0.0143665
23.4901
-0.46558
-0.516024
-0.464571
-0.429427
-0.412273
-0.410664
-0.410006
-0.351076
0.484167
11.211
-0.523842
-0.545984
-0.513579
-0.499602
-0.497767
-0.500146
-0.497068
-0.482345
0.93585
-0.179141
-0.587898
-0.602329
-0.567265
-0.553297
-0.552277
-0.556305
-0.55845
-0.567352
-0.637033
-0.620862
-0.622996
-0.635549
-0.605876
-0.595825
-0.593475
-0.598572
-0.604819
-0.602915
-0.620906
-0.45027
-0.653633
-0.658902
-0.643051
-0.635554
-0.633679
-0.639713
-0.65013
-0.650521
-0.666363
-0.582749
-0.689364
-0.689321
-0.681344
-0.676659
-0.675271
-0.680309
-0.690355
-0.681558
-0.684589
-0.671389
-0.72965
-0.727777
-0.723415
-0.720943
-0.719126
-0.723089
-0.72936
-0.708711
-0.706248
-0.594842
-0.773492
-0.7716
-0.769084
-0.767407
-0.765671
-0.769438
-0.76895
-0.74188
-0.739356
0.253746
-0.81936
-0.81821
-0.816402
-0.815297
-0.814513
-0.817014
-0.810144
-0.786753
-0.783944
0.475826
382.794
382.149
381.063
379.794
378.58
377.652
377.123
376.924
377.031
377.805
333.822
333.04
331.756
330.257
328.854
327.872
327.364
327.123
327.166
327.187
284.905
283.856
282.168
280.159
278.308
277.045
276.496
276.364
276.15
275.678
236.344
234.772
232.311
229.283
226.437
224.527
224.268
224.873
223.848
222.281
188.165
185.726
182.233
177.52
172.559
169.602
171.162
173.731
168.645
163.462
140.815
137.367
131.743
123.816
115.467
110.117
110.505
114.027
104.446
97.3249
95.0702
89.9011
81.752
67.5559
47.5823
25.8541
18.1642
34.3729
35.4733
38.0934
51.9897
45.0576
34.4384
19.0025
6.19328
1.07695
1.10154
1.30482
3.69424
13.179
22.5413
14.1832
4.84806
0.436699
-0.0311703
-0.0866653
-0.2755
-0.375096
0.623195
7.89152
1.94842
0.593178
-0.240245
-0.246001
-0.207793
-0.194396
-0.238361
-0.30564
-0.168746
1.357
-0.420396
-0.506305
-0.475797
-0.397092
-0.334218
-0.318247
-0.314966
-0.308324
-0.366986
0.0138697
-0.471462
-0.519561
-0.481563
-0.447168
-0.420574
-0.40951
-0.396024
-0.378405
-0.426442
-0.429271
-0.527719
-0.555663
-0.535889
-0.51548
-0.497346
-0.484451
-0.474199
-0.476159
-0.504332
-0.780923
-0.586049
-0.603241
-0.579775
-0.562807
-0.55212
-0.544883
-0.541047
-0.55333
-0.618738
-0.80012
-0.621814
-0.631199
-0.606681
-0.597608
-0.593893
-0.593567
-0.593834
-0.596486
-0.626956
-0.687694
-0.652199
-0.656399
-0.64085
-0.6346
-0.633341
-0.636351
-0.639954
-0.638859
-0.648621
-0.669435
-0.688091
-0.687681
-0.679214
-0.67491
-0.674475
-0.677467
-0.681117
-0.675623
-0.674721
-0.675715
-0.728585
-0.726333
-0.721467
-0.719046
-0.71836
-0.719705
-0.720872
-0.711175
-0.706767
-0.699078
-0.772493
-0.770223
-0.767713
-0.765945
-0.764499
-0.764243
-0.762434
-0.75055
-0.741147
-0.717331
-0.818841
-0.817452
-0.815636
-0.813999
-0.812199
-0.811022
-0.807611
-0.797261
-0.783995
-0.758106
383.775
383.126
382.027
380.727
379.465
378.485
377.924
377.856
377.922
378.775
334.851
334.071
332.775
331.238
329.766
328.686
328.198
328.299
328.635
329.673
286.047
284.991
283.292
281.24
279.279
277.884
277.393
277.835
278.885
280.438
237.61
236.044
233.584
230.521
227.606
225.556
225.026
226.324
228.679
231.883
189.563
187.171
183.695
179.039
174.282
170.885
170.57
173.735
177.211
180.676
142.331
138.867
133.331
125.674
117.866
113.174
110.455
109.523
110.555
109.045
96.2636
91.3563
83.7389
70.9899
54.9279
39.6139
24.5157
13.6798
28.1092
29.6904
52.0801
45.6701
35.1529
20.1039
8.88124
3.25823
0.793274
0.618079
1.30338
2.92367
21.2156
13.5693
4.7453
0.391915
-0.0655459
-0.109576
-0.136633
-0.232159
-0.284197
0.010917
1.22046
0.343327
-0.328882
-0.272069
-0.211792
-0.192295
-0.204163
-0.209524
-0.285556
-0.246156
-0.415221
-0.485412
-0.474348
-0.416065
-0.336942
-0.296778
-0.287643
-0.277214
-0.271957
-0.288031
-0.475579
-0.520058
-0.497322
-0.464422
-0.424964
-0.395418
-0.379036
-0.35992
-0.330725
-0.346654
-0.532239
-0.561387
-0.55496
-0.533178
-0.504417
-0.4796
-0.461016
-0.446871
-0.432499
-0.400137
-0.590615
-0.609655
-0.58936
-0.571614
-0.558237
-0.542842
-0.53022
-0.52874
-0.548982
-0.471888
-0.627592
-0.638136
-0.614998
-0.602424
-0.597022
-0.590993
-0.586364
-0.589653
-0.618972
-0.652017
-0.655841
-0.661967
-0.644967
-0.635905
-0.633489
-0.632798
-0.633277
-0.636795
-0.663536
-0.692856
-0.688549
-0.689248
-0.679421
-0.67359
-0.672867
-0.673744
-0.675048
-0.674941
-0.686006
-0.700464
-0.72746
-0.725157
-0.719179
-0.716398
-0.716245
-0.716398
-0.716299
-0.712762
-0.713932
-0.715743
-0.771227
-0.768474
-0.765542
-0.763975
-0.762712
-0.761551
-0.759725
-0.7541
-0.749785
-0.750928
-0.818093
-0.816503
-0.814591
-0.812881
-0.811013
-0.809102
-0.80636
-0.800091
-0.794008
-0.790652
385.141
384.488
383.368
382.013
380.653
379.538
378.824
378.537
378.541
379.134
336.305
335.517
334.205
332.618
331.03
329.769
329.027
328.81
329.035
329.76
287.686
286.635
284.931
282.843
280.754
279.105
278.181
278.05
278.654
279.477
239.477
237.935
235.521
232.491
229.426
227.064
225.756
225.742
226.936
227.988
191.712
189.398
185.965
181.462
176.816
173.009
170.937
171.299
173.799
174.559
144.681
141.317
135.962
128.712
121.399
116.075
112.53
110.073
108.004
101.862
98.3044
93.7852
86.8898
75.6189
61.9977
49.6875
37.7254
23.5175
13.5818
22.8093
52.8066
47.0618
37.3084
22.5747
11.3722
6.37236
3.1478
0.729352
1.17503
3.15959
19.6095
13.1021
5.60735
0.617109
-0.0691223
-0.0431818
-0.0695642
-0.142637
-0.183397
-0.0147569
0.581059
0.0450515
-0.323076
-0.271239
-0.22478
-0.193577
-0.196234
-0.20864
-0.212213
-0.26683
-0.409465
-0.479341
-0.459865
-0.418911
-0.349811
-0.310434
-0.290406
-0.288335
-0.262887
-0.309395
-0.476809
-0.519412
-0.502299
-0.481721
-0.441811
-0.41015
-0.383226
-0.371047
-0.34111
-0.359892
-0.538179
-0.569464
-0.567291
-0.552548
-0.517986
-0.492604
-0.464659
-0.451501
-0.434131
-0.42664
-0.600189
-0.617951
-0.61184
-0.592925
-0.573238
-0.554105
-0.532669
-0.523763
-0.522465
-0.492916
-0.635555
-0.648154
-0.636501
-0.623233
-0.61147
-0.598434
-0.586177
-0.58209
-0.595389
-0.558496
-0.660478
-0.669878
-0.656567
-0.646338
-0.639433
-0.634944
-0.631174
-0.630615
-0.64367
-0.640934
-0.690064
-0.69312
-0.682851
-0.675815
-0.673171
-0.673194
-0.672918
-0.67189
-0.678439
-0.68318
-0.726879
-0.724748
-0.717631
-0.714359
-0.714728
-0.71531
-0.715038
-0.712777
-0.713311
-0.713669
-0.769864
-0.767052
-0.763398
-0.761915
-0.761429
-0.760808
-0.759467
-0.756128
-0.752841
-0.748661
-0.817717
-0.816285
-0.813978
-0.812114
-0.810502
-0.808875
-0.806585
-0.802296
-0.797797
-0.785609
386.823
386.161
385.017
383.602
382.131
380.837
379.891
379.342
379.085
379.24
338.121
337.326
335.992
334.344
332.647
331.171
330.136
329.588
329.458
329.715
289.766
288.72
287.008
284.885
282.697
280.801
279.482
278.852
278.87
279.146
241.913
240.414
238.037
235.049
231.953
229.255
227.432
226.576
226.583
226.625
194.619
192.377
189.041
184.722
180.176
176.251
173.367
171.922
171.639
170.82
148.047
144.654
139.624
132.919
125.99
120.145
116.085
113.534
111.178
106.193
101.707
97.6161
91.2621
81.5426
70.1746
59.0467
50.7732
41.1416
29.7829
23.26
54.6243
49.8601
40.7338
27.5415
16.0534
9.4341
6.44053
3.7087
1.3577
1.13337
18.3724
12.9119
6.16463
1.75151
0.0100301
-0.0875895
-0.0885674
-0.0912475
-0.0862435
0.00146854
0.381856
-0.201568
-0.268353
-0.225596
-0.251793
-0.219059
-0.210033
-0.205098
-0.193847
-0.178771
-0.403057
-0.467783
-0.434425
-0.404323
-0.368882
-0.332025
-0.30921
-0.29806
-0.285026
-0.303397
-0.473638
-0.506364
-0.505261
-0.503595
-0.461445
-0.425194
-0.397301
-0.382948
-0.367769
-0.387493
-0.543263
-0.565715
-0.585656
-0.584519
-0.538758
-0.505397
-0.477484
-0.461038
-0.450024
-0.463235
-0.615502
-0.642613
-0.656818
-0.633748
-0.597778
-0.566847
-0.541542
-0.527791
-0.524048
-0.526708
-0.648981
-0.667788
-0.677766
-0.654546
-0.632129
-0.607744
-0.590332
-0.582077
-0.583763
-0.582953
-0.664732
-0.668328
-0.66116
-0.650059
-0.642046
-0.63715
-0.63087
-0.627686
-0.630393
-0.62887
-0.687044
-0.684344
-0.669605
-0.667864
-0.67021
-0.67185
-0.671167
-0.670069
-0.671443
-0.670516
-0.722513
-0.717854
-0.709058
-0.70834
-0.711295
-0.713237
-0.713916
-0.713213
-0.713128
-0.713456
-0.766066
-0.763339
-0.759273
-0.758287
-0.758412
-0.75917
-0.759324
-0.758179
-0.756657
-0.756836
-0.817196
-0.81697
-0.8136
-0.810558
-0.809027
-0.808226
-0.807064
-0.804874
-0.801962
-0.799134
388.698
388.024
386.854
385.385
383.82
382.376
381.218
380.436
379.978
379.868
340.181
339.374
338.018
336.321
334.527
332.896
331.611
330.775
330.328
330.237
292.164
291.117
289.402
287.257
285.001
282.957
281.358
280.35
279.901
279.787
244.811
243.347
241.012
238.08
235.003
232.225
230.026
228.733
228.146
227.853
198.168
196.029
192.792
188.688
184.381
180.504
177.551
175.571
174.475
173.549
152.304
149.145
144.329
138.203
131.922
126.374
122.141
119.067
116.942
114.983
106.799
103.124
96.9703
88.6064
79.5777
70.8421
63.4894
57.3542
52.2518
48.4095
60.0966
55.0883
46.0105
34.5044
24.3806
16.7192
12.3081
10.2595
8.45095
6.56455
18.5865
13.1962
7.20744
3.22355
1.13476
0.0459488
-0.128964
-0.0903468
-0.0698195
-0.0611582
0.555746
-0.208899
-0.215233
-0.205771
-0.229712
-0.236171
-0.233857
-0.212962
-0.204449
-0.217539
-0.37955
-0.444394
-0.410044
-0.400249
-0.388276
-0.366343
-0.335989
-0.325326
-0.317552
-0.323925
-0.491506
-0.506728
-0.516767
-0.535048
-0.491552
-0.448168
-0.416354
-0.400233
-0.385002
-0.394897
-0.578266
-0.625277
-0.631443
-0.63246
-0.581654
-0.524945
-0.493201
-0.47499
-0.462758
-0.461024
-0.656629
-0.74892
-0.737167
-0.69382
-0.636739
-0.584965
-0.553872
-0.537903
-0.529756
-0.52335
-0.685407
-0.741942
-0.743068
-0.693262
-0.652031
-0.618599
-0.598286
-0.589244
-0.586313
-0.579971
-0.677179
-0.670999
-0.665914
-0.647215
-0.644243
-0.639865
-0.633658
-0.63151
-0.630813
-0.62644
-0.677933
-0.657447
-0.63579
-0.64424
-0.661624
-0.669396
-0.670909
-0.672033
-0.671124
-0.668613
-0.711312
-0.696817
-0.683664
-0.692618
-0.704435
-0.710513
-0.713383
-0.714435
-0.713639
-0.71296
-0.759208
-0.755567
-0.750115
-0.75263
-0.755809
-0.757575
-0.759466
-0.759681
-0.758538
-0.75829
-0.817594
-0.818171
-0.813028
-0.810904
-0.808951
-0.808035
-0.80779
-0.806724
-0.804712
-0.802355
390.598
389.909
388.717
387.205
385.568
384.018
382.715
381.759
381.161
380.925
342.3
341.475
340.103
338.369
336.508
334.769
333.333
332.294
331.657
331.396
294.677
293.62
291.9
289.744
287.452
285.326
283.583
282.336
281.614
281.319
247.932
246.473
244.183