/*--------------------------------*- C++ -*----------------------------------*\
| =========                 |                                                 |
| \\      /  F ield         | OpenFOAM: The Open Source CFD Toolbox           |
|  \\    /   O peration     | Version:  2312                                  |
|   \\  /    A nd           | Website:  www.openfoam.com                      |
|    \\/     M anipulation  |                                                 |
\*---------------------------------------------------------------------------*/
FoamFile
{
    version     2.0;
    format      ascii;
    arch        "LSB;label=32;scalar=64";
    class       volScalarField;
    location    "1.25";
    object      p_rgh;
}
// * * * * * * * * * * * * * * * * * * * * * * * * * * * * * * * * * * * * * //

dimensions      [1 -1 -2 0 0 0 0];

internalField   nonuniform List<scalar> 
8000
(
402.892
402.604
402.212
401.716
401.134
400.543
400.03
399.649
399.439
399.438
403.534
403.08
402.57
402.049
401.474
400.854
400.287
399.853
399.6
399.573
404.957
404.451
403.681
402.844
402.138
401.455
400.804
400.288
399.96
399.849
407.498
406.926
405.818
404.624
403.477
402.517
401.668
400.973
400.479
400.271
410.981
410.224
408.758
407.241
405.636
404.232
403.072
402.133
401.387
401.027
416.316
415.241
412.993
410.753
408.533
406.601
404.924
403.635
402.583
402.157
424.213
422.681
419.086
415.882
412.848
410.304
408.315
406.861
405.843
405.057
434.491
431.577
426.527
421.761
417.83
415.015
409.43
401.625
395.141
390.058
436.303
406.669
353.048
298.862
257.091
227.666
212.726
207.886
201.244
187.907
191.682
116.264
53.3198
21.4496
8.62517
4.2045
3.49442
3.73831
3.28732
2.05775
0.414798
0.237001
0.197156
0.244382
0.143711
0.11008
0.125055
0.130799
0.127949
0.107926
0.159217
0.222428
0.209697
0.330168
0.138497
0.0819237
0.082007
0.0757951
0.0669674
0.0600477
0.14957
0.247183
0.328643
0.246398
0.0732775
0.0776738
0.0789594
0.0688492
0.0576023
0.0526146
0.152395
0.261693
0.33551
0.272596
0.0606209
0.0766203
0.15746
0.123729
0.0464674
0.0447724
0.196099
0.454608
0.308859
0.163194
0.0465084
0.099025
0.181174
0.179314
0.0610999
0.0450573
0.466441
0.460043
0.222256
0.0348659
0.0375283
0.0450843
0.15951
0.177465
0.0677257
0.043247
0.474672
0.464227
0.234434
0.0380362
0.0534642
0.0635095
0.0406279
0.0503947
0.0506608
0.035813
0.489155
0.350176
0.126855
0.0558458
0.147605
0.146247
0.0311689
0.0246605
0.0218983
0.0264533
0.505324
0.0507892
0.0815505
0.150525
0.148115
0.146766
0.117817
0.0209779
0.0186799
0.0216669
0.160979
0.0132044
0.0406342
0.0945702
0.143214
0.144558
0.14419
0.118291
0.0183327
0.0212917
402.368
402.022
401.592
401.163
400.638
400.092
399.603
399.239
399.044
399.059
402.866
402.301
401.821
401.354
400.858
400.324
399.798
399.387
399.145
399.12
404.265
403.552
402.735
401.912
401.367
400.794
400.199
399.703
399.381
399.327
406.755
405.997
404.696
403.481
402.481
401.664
400.87
400.195
399.667
399.464
409.877
409.193
407.739
406.09
404.491
403.129
401.902
400.924
400.142
399.822
414.431
413.602
411.838
409.414
407.157
405.075
403.377
402.015
400.984
400.483
421.857
420.52
417.48
414.033
410.843
408.047
405.832
404.1
402.839
402.055
431.615
428.881
424.471
419.762
415.56
407.828
399.422
390.841
382.904
377.034
415.266
384.849
334.462
282.692
235.874
200.533
174.629
153.558
135.863
121.667
150.501
86.5217
40.5577
16.379
5.9599
2.36872
0.894011
0.486238
0.428686
0.333898
0.298742
0.177075
0.164707
0.165557
0.107947
0.133805
0.139818
0.11213
0.0876633
0.0684595
0.159677
0.170294
0.191264
0.226466
0.096488
0.101202
0.107858
0.0727922
0.0524916
0.045709
0.152539
0.224776
0.275669
0.0915846
0.0774258
0.17719
0.182999
0.0898891
0.0497424
0.044614
0.15946
0.246541
0.337679
0.111401
0.0835203
0.175542
0.177442
0.169238
0.128385
0.0408505
0.152232
0.246324
0.31929
0.0838355
0.0515893
0.172519
0.174119
0.169388
0.167558
0.0783261
0.359524
0.259496
0.192079
0.0273059
0.0343525
0.0790872
0.178099
0.172387
0.167652
0.113547
0.478224
0.376081
0.0640275
0.0352007
0.0697291
0.0464701
0.0574492
0.141488
0.112637
0.036502
0.489462
0.302372
0.0501556
0.0956954
0.146716
0.0979605
0.0207753
0.0129448
0.011438
0.0194255
0.504174
0.0847842
0.0810925
0.149219
0.143809
0.102345
0.0127814
0.0072988
0.00683899
0.0134962
0.15645
0.0153792
0.0613392
0.104932
0.116125
0.0705568
0.047486
0.0118358
0.00523127
0.010548
401.564
401.253
401.047
400.608
399.944
399.343
398.853
398.503
398.333
398.379
401.907
401.486
401.171
400.674
400.069
399.483
398.965
398.574
398.366
398.376
403.087
402.465
401.919
400.976
400.303
399.751
399.193
398.736
398.46
398.436
405.268
404.392
403.522
402.109
400.888
400.287
399.567
398.997
398.592
398.473
408.101
407.251
406.134
404.229
402.528
401.185
400.124
399.315
398.763
398.52
412.123
411.039
409.473
406.793
404.425
402.433
400.891
399.789
399.002
398.58
418.415
416.866
414.101
410.4
406.991
404.116
401.957
400.457
399.435
398.776
427.085
424.539
420.157
414.961
405.139
394.657
384.85
376.621
370.09
365.366
376.15
345.801
290.039
227.199
172.406
127.861
98.6679
82.7396
73.9549
68.3037
94.1066
53.0228
22.1967
6.28642
0.794008
0.395888
0.209246
0.121665
0.0916824
0.0325832
0.211139
0.12496
0.138487
0.123157
0.107665
0.102877
0.0788995
0.0509613
0.0401019
0.0402338
0.135933
0.123239
0.147191
0.114955
0.0693833
0.0679501
0.0615339
0.0517752
0.0410374
0.0553295
0.143109
0.134184
0.182816
0.144498
0.0654888
0.0610841
0.059269
0.0492927
0.0474299
0.0520272
0.161511
0.260958
0.32702
0.217813
0.0652579
0.081297
0.0976387
0.0789964
0.0528523
0.0541638
0.157581
0.220523
0.293354
0.067764
0.110007
0.176711
0.173377
0.17388
0.168723
0.0628408
0.344226
0.110283
0.0797245
0.0303415
0.0411633
0.151973
0.170573
0.164929
0.16776
0.102575
0.484306
0.27069
0.0365712
0.0333034
0.0497889
0.0245809
0.0395216
0.0417635
0.0197553
0.0260796
0.495619
0.358143
0.0447395
0.0622213
0.127087
0.0212431
0.00195596
-0.00697878
-0.00348188
0.0131871
0.507174
0.133525
0.0419264
0.112971
0.0983502
0.00484244
-0.0046101
-0.0122641
-0.0120934
0.00142487
0.204048
0.0201599
0.0464703
0.0893594
0.0217352
-0.00196916
-0.00525117
-0.010103
-0.00738165
-0.00108585
400.519
400.233
400.127
399.631
398.918
398.304
397.828
397.504
397.371
397.46
400.79
400.415
400.22
399.77
399.039
398.369
397.844
397.481
397.317
397.382
401.555
401.058
400.613
399.901
399.132
398.452
397.877
397.45
397.232
397.254
403.241
402.412
401.657
400.472
399.357
398.58
397.905
397.39
397.102
397.079
405.673
404.73
403.571
401.803
400.154
398.871
397.918
397.249
396.86
396.744
408.972
407.746
405.902
403.288
401.066
399.272
397.986
397.148
396.606
396.301
414.096
412.503
409.559
405.717
402.329
399.641
397.77
396.602
395.864
395.342
421.268
418.971
413.586
403.644
391.859
378.427
367.006
359.567
354.031
349.8
310.899
283.159
217.241
148.329
94.0041
62.2687
47.7831
42.6681
40.9084
39.66
44.5664
23.8334
6.43659
0.505881
0.335995
0.146229
0.055539
0.0617295
0.0689632
0.0571577
0.185413
0.11263
0.115662
0.122047
0.101228
0.0717736
0.056673
0.052421
0.0566577
0.0864188
0.148704
0.106656
0.096714
0.0791982
0.0673698
0.0609302
0.0509489
0.0440529
0.100462
0.126058
0.177989
0.107067
0.0891936
0.0732237
0.0602092
0.0562564
0.0488808
0.0424539
0.0430613
0.0483927
0.157019
0.147831
0.277765
0.241175
0.0902222
0.056141
0.0890019
0.105712
0.0521826
0.0574542
0.208875
0.119568
0.212353
0.187582
0.128554
0.170445
0.164184
0.164804
0.13391
0.0552073
0.450995
0.0908298
0.0674368
0.0298544
0.0392636
0.071334
0.05117
0.0242619
0.0595879
0.0986145
0.485099
0.416195
0.233518
0.0243674
0.021998
0.00982816
-0.00853115
-0.0231006
-0.0173441
0.00643824
0.495089
0.481582
0.233994
0.0266654
0.0178968
0.000576408
-0.017281
-0.0286565
-0.0213319
0.00123724
0.505983
0.275746
0.0758316
0.0186019
0.00514041
-0.00539501
-0.0171768
-0.0256486
-0.018242
0.0295841
0.115176
0.0254417
0.0149738
0.0309066
-0.00479731
-0.00950209
-0.0139941
-0.0189445
0.00297574
0.129457
399.201
398.928
398.696
398.172
397.581
397.043
396.61
396.329
396.242
396.38
399.437
399.076
398.794
398.274
397.598
396.994
396.511
396.194
396.086
396.203
399.948
399.434
398.924
398.328
397.574
396.88
396.325
395.944
395.777
395.854
401.02
400.3
399.346
398.411
397.472
396.646
395.976
395.516
395.286
395.331
402.733
401.807
400.561
398.921
397.46
396.278
395.407
394.813
394.488
394.475
404.947
403.685
401.778
399.29
397.286
395.754
394.731
394.054
393.642
393.461
408.979
407.35
404.154
400.355
397.136
394.742
393.269
392.371
391.882
391.46
402.965
404.312
395.758
381.211
362.295
345.398
334.775
328.252
323.482
320.217
236.457
207.617
139.083
76.8679
41.6821
26.0736
20.9514
19.9121
19.7415
19.7112
14.5424
4.92473
0.547022
0.31386
0.130856
0.0690061
0.0689529
0.0745904
0.0791538
0.0817928
0.232623
0.14523
0.13749
0.104884
0.0782512
0.0703555
0.0731318
0.10133
0.0870073
0.0869559
0.193583
0.104091
0.0955823
0.0795408
0.0715812
0.0731844
0.112832
0.112409
0.120204
0.11802
0.259833
0.0947211
0.0797594
0.0678822
0.0648065
0.0661163
0.109159
0.114219
0.0747764
0.0566741
0.363481
0.092348
0.0797625
0.107055
0.113355
0.111058
0.100196
0.0492577
0.0383973
0.0500811
0.435654
0.0958543
0.0862817
0.156194
0.0727304
0.100997
0.0586076
0.00551162
0.00874746
0.0323241
0.467728
0.0898857
0.0708847
0.137091
0.0212158
0.00522414
-0.0163586
-0.0295123
-0.0206656
0.00697805
0.482686
0.358031
0.242907
0.133706
0.016985
-0.000623921
-0.022872
-0.0357074
-0.0295322
0.000358821
0.492145
0.481281
0.470595
0.235061
0.110067
-0.00319169
-0.0206905
-0.0306234
-0.015005
0.0767462
0.183092
0.241038
0.245558
0.212491
0.127168
0.037061
-0.0160161
-0.0163269
0.126634
0.200786
0.041858
0.0240134
0.0214232
0.0880022
0.0435315
-0.000730074
-0.0130662
0.0249036
0.198938
0.212217
397.787
397.535
397.218
396.74
396.204
395.711
395.322
395.089
395.046
395.232
397.919
397.613
397.223
396.687
396.09
395.537
395.103
394.845
394.783
394.954
398.204
397.765
397.201
396.528
395.825
395.189
394.685
394.349
394.234
394.379
398.75
398.143
397.259
396.275
395.363
394.565
393.931
393.5
393.329
393.454
399.67
398.777
397.481
395.978
394.673
393.614
392.827
392.26
392.003
392.062
400.865
399.46
397.53
395.312
393.475
392.166
391.325
390.721
390.289
390.202
403.611
401.917
398.553
394.828
391.754
389.762
388.718
387.674
386.991
386.75
381.27
384.027
369.855
343.371
316.169
300.677
293.915
288.076
282.592
279.092
166.197
137.776
78.5183
34.7646
15.2875
8.92877
7.31642
6.24708
5.36695
4.98074
1.76868
0.764292
0.312724
0.131653
0.0853111
0.0817548
0.0825451
0.0852718
0.0910593
0.0999097
0.249321
0.470979
0.117926
0.0816903
0.078467
0.105849
0.126363
0.0924318
0.0797056
0.0846774
0.187181
0.507302
0.0879331
0.0764334
0.107505
0.123014
0.122868
0.121406
0.0696027
0.0750686
0.136721
0.206889
0.0745606
0.0653189
0.0731957
0.1159
0.111659
0.0407695
0.0416153
0.0660876
0.413361
0.0747928
0.0623738
0.0545016
0.0660151
0.0941366
0.0405914
0.0114187
0.0177206
0.0403979
0.433152
0.0851078
0.0603163
0.0692916
0.019259
0.00128359
-0.00955317
-0.00294446
0.00184023
0.021663
0.455958
0.102193
0.132331
0.203313
0.011203
-0.0040772
-0.0181344
-0.0146687
0.00548996
0.0488576
0.476706
0.157982
0.121643
0.194263
0.0412985
-0.00122681
0.0339192
0.0106403
0.0679776
0.151078
0.211584
0.184345
0.12397
0.151456
0.127169
0.103982
0.0767369
0.116977
0.183991
0.200627
0.0571748
0.0950866
0.122761
0.121009
0.160775
0.156453
0.128431
0.195594
0.198551
0.213257
0.0395938
0.0388043
0.0451449
0.0632571
0.168609
0.162297
0.118445
0.189283
0.211771
0.129983
396.429
396.196
395.846
395.385
394.888
394.432
394.087
393.897
393.895
394.123
396.437
396.152
395.737
395.21
394.649
394.128
393.761
393.543
393.524
393.744
396.48
396.07
395.516
394.84
394.163
393.579
393.095
392.801
392.739
392.945
396.546
395.983
395.157
394.223
393.337
392.572
391.968
391.572
391.442
391.623
396.7
395.861
394.622
393.268
392.095
391.124
390.332
389.8
389.557
389.649
396.95
395.577
393.734
391.689
390.009
388.864
388.02
387.29
386.829
386.772
398.597
396.847
393.482
389.834
386.989
385.365
383.807
382.603
381.727
381.236
356.036
359.755
338.608
303.438
272.922
259.901
253.297
246.928
239.075
231.535
111.543
90.4272
42.7312
13.7226
3.04745
0.260128
0.192539
0.178605
0.18888
0.208276
0.501044
0.459963
0.171487
0.0914051
0.110492
0.116903
0.113222
0.117094
0.130271
0.143181
0.211978
0.332335
0.0991543
0.082603
0.09738
0.11026
0.0787285
0.0794403
0.0930325
0.107082
0.140746
0.557849
0.0782664
0.077428
0.120585
0.116751
0.0525014
0.0479692
0.061636
0.0837671
0.10507
0.49119
0.0642574
0.0574405
0.0882446
0.0626629
0.0348015
0.0234058
0.0357757
0.0593404
0.232519
0.126417
0.058313
0.0441747
0.0233563
0.0156468
0.00700662
0.00834484
0.0147965
0.0376002
0.417746
0.0834143
0.110256
0.115654
0.00801725
-0.00577042
-0.00928709
0.00364936
0.0642126
0.0515816
0.366255
0.0863709
0.216846
0.202095
0.127117
-0.000349758
-0.00538072
-0.000743976
0.169462
0.188112
0.179082
0.0667668
0.0796285
0.194034
0.200776
0.156471
0.0628161
0.161714
0.188788
0.206415
0.0830351
0.0839556
0.0336349
0.0309229
0.0503126
0.0546937
0.167177
0.196966
0.204495
0.221951
0.0514419
0.0674915
0.0252518
0.0177484
0.0389261
0.0723274
0.210502
0.210093
0.21584
0.17514
0.0432377
0.0231363
0.0196172
0.0193971
0.0444081
0.0724722
0.221475
0.218703
0.113968
0.0491992
395.266
395.04
394.682
394.232
393.76
393.335
393.019
392.862
392.897
393.156
395.157
394.88
394.46
393.947
393.414
392.945
392.593
392.398
392.416
392.664
394.963
394.574
394.016
393.373
392.722
392.147
391.704
391.435
391.398
391.626
394.619
394.043
393.306
392.453
391.586
390.828
390.259
389.874
389.747
389.927
394.14
393.321
392.213
391.025
389.934
388.884
388.154
387.616
387.345
387.417
393.635
392.344
390.625
388.716
387.147
385.966
385.043
384.256
383.751
383.618
394.257
392.612
389.476
386.104
383.698
381.43
379.462
378.127
376.887
375.375
327.471
332.77
310.922
271.877
236.811
221.515
217.462
214.003
206.485
194.798
78.8453
61.9702
22.7173
4.20774
0.268903
0.199596
0.169426
0.163659
0.169876
0.181315
0.348782
0.284609
0.109004
0.0837493
0.111623
0.115359
0.11511
0.121576
0.134838
0.149586
0.167918
0.191368
0.0808494
0.0739362
0.0897861
0.076553
0.0712961
0.0817199
0.098402
0.117679
0.110944
0.150146
0.0671577
0.0627308
0.109438
0.0533582
0.039401
0.049691
0.0637592
0.0844718
0.0949224
0.212363
0.0575727
0.0478082
0.0948518
0.0170466
0.0185881
0.0274362
0.0384307
0.0586324
0.0823002
0.149789
0.0596832
0.0897797
0.0253841
0.00431069
0.00384804
0.0119956
0.0323416
0.0399371
0.112812
0.070292
0.205617
0.198343
0.0853768
-0.000377335
-0.00191462
0.0099944
0.0425602
0.0392719
0.0969846
0.0613051
0.154508
0.199755
0.192356
0.0902601
0.00830142
0.0212776
0.0493867
0.0441754
0.124946
0.0645863
0.0459327
0.186994
0.204778
0.211246
0.0771139
0.0563713
0.0716917
0.0823518
0.0724208
0.097673
0.0528146
0.0469506
0.149925
0.1461
0.0654202
0.0847617
0.0767606
0.112881
0.0541175
0.0677817
0.107552
0.0644762
0.0336059
0.0272767
0.0546453
0.0862648
0.060945
0.121615
0.118997
0.0203466
0.0525127
0.056701
0.0346472
0.0317474
0.051999
0.0434804
0.0480293
0.129271
394.413
394.189
393.827
393.385
392.926
392.514
392.208
392.068
392.127
392.395
394.221
393.939
393.505
393.013
392.503
392.046
391.701
391.515
391.545
391.778
393.841
393.47
392.939
392.26
391.628
391.069
390.641
390.375
390.33
390.5
393.166
392.565
391.927
391.156
390.168
389.489
388.927
388.54
388.38
388.464
392.218
391.354
390.455
389.398
388.372
387.213
386.427
385.863
385.521
385.472
391.146
389.971
388.393
386.584
385.017
383.764
382.682
381.82
381.26
381.031
390.992
389.6
386.817
383.627
381.037
377.662
375.447
373.978
372.271
370.125
301.127
310.586
292.094
247.585
207.709
193.981
192.818
191.192
183.186
170.204
62.7441
46.6016
13.2789
1.49962
0.217958
0.166503
0.148123
0.146814
0.15364
0.163328
0.263849
0.19169
0.0765407
0.0706088
0.0995153
0.0989718
0.10302
0.111765
0.125177
0.141381
0.152301
0.130107
0.0620368
0.0508341
0.0585242
0.0570095
0.0651603
0.0763113
0.0900927
0.110772
0.108153
0.0905417
0.0529503
0.0402201
0.096432
0.0321637
0.0399905
0.0498496
0.058861
0.0788572
0.089054
0.0663334
0.0493306
0.0693433
0.0870255
0.0188767
0.0243935
0.0329345
0.040303
0.057092
0.0796792
0.0741445
0.0796705
0.188364
0.0501203
0.00823604
0.0125757
0.0208354
0.0291714
0.0510595
0.0768736
0.0588985
0.120437
0.192799
0.0966391
0.00384633
0.00651187
0.0146099
0.0249566
0.0413427
0.109046
0.0633834
0.0553469
0.202997
0.197976
0.0657799
0.0100881
0.017935
0.0286716
0.0402342
0.0995083
0.0748937
0.0494393
0.209223
0.218657
0.177882
0.0318626
0.0277989
0.0372038
0.0666434
0.0767986
0.093555
0.0608513
0.2362
0.246437
0.174455
0.0370938
0.0384449
0.0451193
0.121868
0.126492
0.0523161
0.155267
0.211009
0.173781
0.0689612
0.04656
0.0463076
0.0516528
0.176505
0.131057
0.0293951
0.0954336
0.0563511
0.0551589
0.0547348
0.0496873
0.0436641
0.0841864
0.199245
393.95
393.727
393.361
392.92
392.461
392.043
391.737
391.601
391.679
391.749
393.71
393.432
392.995
392.509
391.992
391.522
391.174
390.996
391.015
390.891
393.234
392.884
392.345
391.693
391.023
390.433
389.996
389.735
389.666
389.301
392.352
391.705
391.127
390.36
389.445
388.666
388.075
387.685
387.497
387.076
391.127
390.202
389.426
388.379
387.166
386.066
385.234
384.636
384.324
383.682
389.735
388.456
387.107
385.363
383.327
382.26
381.003
379.995
379.45
379.307
389.28
388.154
385.503
382.778
379.396
374.74
371.794
369.267
366.612
364.42
284.57
296.592
281.066
234.154
192.468
177.39
173.638
166.784
156.009
146.421
59.9027
39.992
9.33243
0.714569
0.188102
0.144431
0.130363
0.131603
0.140165
0.149551
0.247188
0.164908
0.0583917
0.0581554
0.0847377
0.087713
0.090048
0.0971494
0.108727
0.125883
0.158634
0.108818
0.0457977
0.0324911
0.0412249
0.0494226
0.0566647
0.0631443
0.0721781
0.0964539
0.123557
0.0772928
0.0392404
0.0258475
0.0847545
0.0255733
0.0323839
0.0390051
0.0441726
0.0654502
0.088646
0.0628285
0.0422139
0.0611095
0.072066
0.0105684
0.0195921
0.0273174
0.030439
0.0520143
0.0841016
0.0601517
0.0605329
0.18245
0.0523688
0.00490983
0.0149377
0.0240679
0.0271517
0.0586748
0.0836476
0.0648349
0.0473993
0.192302
0.0807648
0.00716919
0.0162571
0.0258498
0.0299068
0.0611662
0.140552
0.0726549
0.0484236
0.207861
0.152078
0.020492
0.0228133
0.0304835
0.0361513
0.0675531
0.114312
0.0972314
0.0521463
0.217108
0.198357
0.050008
0.0343904
0.0384638
0.0582873
0.0744655
0.119034
0.0700747
0.123297
0.242192
0.204495
0.065762
0.0474055
0.0472626
0.0808404
0.070269
0.126742
0.0252999
0.176315
0.219798
0.125592
0.067009
0.0588039
0.0522818
0.136637
0.0907271
0.130477
0.0334387
0.0737369
0.0793216
0.0780221
0.0719864
0.0617962
0.0957208
0.19867
0.108431
393.926
393.704
393.331
392.879
392.406
391.972
391.653
391.513
391.586
391.681
393.711
393.425
392.97
392.461
391.926
391.435
391.068
390.878
390.894
390.872
393.189
392.839
392.296
391.628
390.934
390.303
389.833
389.55
389.48
389.543
392.298
391.689
391.048
390.236
389.316
388.454
387.789
387.347
387.165
387.13
391.016
390.124
389.348
388.195
386.859
385.673
384.7
384.001
383.694
383.435
389.598
388.284
386.936
385.29
383.328
381.728
380.126
378.828
378.143
377.907
389.244
388.095
385.641
382.924
378.544
372.899
368.005
363.236
359.414
357.883
282.04
291.843
279.691
235.923
191.352
168.19
153.974
139.972
129.242
124.253
58.7137
36.5487
8.11806
0.666994
0.168679
0.130233
0.119017
0.122386
0.130217
0.138777
0.243096
0.148934
0.0456858
0.0516556
0.0788075
0.0761836
0.0749194
0.0815617
0.0922005
0.109787
0.13897
0.0910266
0.032275
0.0210043
0.027433
0.0313053
0.0364362
0.046228
0.0541298
0.0759529
0.0967021
0.0628925
0.028156
0.0154423
0.0199016
0.00054507
0.00893687
0.0223529
0.0277934
0.0453695
0.0871106
0.061474
0.0373785
0.0239691
0.00419541
-0.0118482
1.75959e-06
0.0134079
0.0161231
0.0306137
0.0884913
0.067162
0.0447567
0.0801636
0.027191
-0.00877242
0.00383245
0.0157222
0.0164158
0.0422996
0.120947
0.0742151
0.0510213
0.151344
0.0630965
0.00466771
0.0145558
0.0232291
0.0233995
0.0559125
0.15455
0.144886
0.0548092
0.120282
0.0691158
0.0243804
0.0289887
0.0323809
0.0340805
0.0649031
0.0986093
0.083833
0.139588
0.135264
0.0719018
0.04567
0.043327
0.0417991
0.0650452
0.0720541
0.115594
0.0311847
0.148069
0.170164
0.0822626
0.0627331
0.0562397
0.0512189
0.0749426
0.0549123
0.109317
0.029324
0.147939
0.127927
0.0887795
0.0788368
0.0733358
0.105629
0.0595597
0.0510619
0.0646136
0.0450917
0.0686359
0.103844
0.100996
0.0860754
0.15006
0.200807
0.141543
0.0559678
394.354
394.123
393.731
393.259
392.763
392.311
391.973
391.813
391.864
392.139
394.169
393.859
393.399
392.873
392.315
391.799
391.404
391.184
391.198
391.452
393.771
393.426
392.797
392.096
391.378
390.705
390.182
389.851
389.778
390.011
392.99
392.389
391.726
390.892
389.867
388.898
388.121
387.593
387.403
387.598
391.825
390.88
390.054
388.964
387.523
386.142
384.952
384.083
383.719
383.97
390.587
389.063
387.877
386.286
384.287
382.286
380.252
378.55
377.582
377.646
390.416
388.977
386.448
384.149
380.014
373.494
365.624
357.527
351.94
350.006
294.018
299.001
287.57
251.638
207.163
171.405
141.321
118.96
107.199
103.732
57.8056
37.6586
8.95032
0.718981
0.151642
0.120268
0.113837
0.120898
0.129029
0.138433
0.255618
0.134745
0.0305567
0.0373479
0.0627515
0.0552163
0.059353
0.0728675
0.0849682
0.103675
0.123216
0.0695622
0.0250025
0.0170325
0.0134734
0.000368672
0.016696
0.0435021
0.0510299
0.0673176
0.0880289
0.055682
0.0267043
0.015787
0.00308966
-0.0176253
-0.00396713
0.0264378
0.028847
0.0369911
0.0845217
0.063124
0.0396218
0.0216418
2.64082e-05
-0.0203108
-0.0042473
0.0233198
0.0174345
0.0206319
0.0882082
0.0745624
0.0529365
0.02971
0.00494795
-0.0102884
0.00460671
0.0224623
0.0168067
0.0207972
0.19408
0.14675
0.0607392
0.0407412
0.0210943
0.00928792
0.017953
0.0276497
0.0222909
0.0285069
0.119585
0.138836
0.0811377
0.0489489
0.0387488
0.0323709
0.0344171
0.0337744
0.0294596
0.0393103
0.0921314
0.0481598
0.102517
0.0777503
0.0611072
0.0542353
0.0498456
0.0444677
0.0434374
0.0486753
0.107244
0.0298324
0.100057
0.0858051
0.0794855
0.0722356
0.0672693
0.0581253
0.050108
0.0445217
0.106017
0.0365521
0.0747768
0.0958967
0.0957835
0.106131
0.101104
0.0689565
0.0495917
0.0429166
0.0790915
0.0542715
0.0916428
0.110411
0.103139
0.0854324
0.106232
0.153363
0.103102
0.0715889
395.188
394.954
394.538
394.04
393.516
393.036
392.673
392.483
392.496
392.75
395.053
394.739
394.273
393.721
393.133
392.586
392.159
391.914
391.895
392.145
394.879
394.488
393.832
393.055
392.325
391.612
391.039
390.675
390.584
390.836
394.359
393.746
393.012
392.141
391.03
389.983
389.118
388.532
388.32
388.549
393.549
392.478
391.67
390.506
388.974
387.462
386.123
385.139
384.711
384.935
392.738
391.182
389.924
388.244
386.123
384.009
381.742
379.751
378.549
378.503
392.96
391.37
388.82
386.385
383.021
377.003
367.796
356.14
347.732
345.939
318.568
319.027
305.573
273.549
233.281
189.283
145.894
110.687
94.3105
91.9219
61.4619
45.6057
16.7477
2.83959
0.12881
0.124283
0.125934
0.131897
0.138198
0.145982
0.249232
0.126801
0.0172375
0.0180448
0.0469102
0.0584217
0.0680177
0.0822922
0.0922943
0.104896
0.116375
0.0540015
0.0165267
0.0187275
0.0191552
0.0137653
0.0375051
0.0695494
0.0706701
0.0701217
0.0852094
0.056351
0.0313612
0.0291229
0.0357268
0.0242857
0.0331016
0.0593226
0.0529184
0.0392085
0.0811267
0.066694
0.0504237
0.04926
0.0578979
0.0356643
0.0405954
0.0616593
0.0374421
0.017061
0.135141
0.0772897
0.0724048
0.119245
0.0765603
0.031187
0.0580734
0.0540423
0.0294522
0.0159457
0.183523
0.136432
0.132941
0.124155
0.0629565
0.0406792
0.0737027
0.0496098
0.0334536
0.0282935
0.0679367
0.0664718
0.0840722
0.0656187
0.0525698
0.0531275
0.0618156
0.0485707
0.0385865
0.0389225
0.0728415
0.0395309
0.0434608
0.053528
0.0658033
0.0662689
0.0635396
0.0635077
0.0502807
0.0447298
0.107702
0.0377601
0.0468226
0.0688832
0.0796841
0.0805078
0.0802994
0.0765354
0.0554477
0.0433245
0.11141
0.0462469
0.0633488
0.097873
0.107367
0.106714
0.0892924
0.0663222
0.0468846
0.0349974
0.116193
0.0477076
0.0584558
0.0695824
0.0701487
0.0672517
0.0589979
0.0752853
0.0579807
0.116661
396.351
396.09
395.678
395.161
394.6
394.083
393.677
393.442
393.412
393.648
396.339
396.02
395.546
394.958
394.32
393.728
393.256
392.969
392.911
393.14
396.378
395.921
395.293
394.532
393.713
392.955
392.33
391.927
391.812
392.027
396.298
395.682
394.85
393.848
392.744
391.65
390.724
390.092
389.835
390.034
396.098
395.047
394.053
392.729
391.132
389.57
388.178
387.151
386.658
386.767
395.951
394.482
393.022
391.077
388.652
386.727
384.58
382.67
381.448
381.208
397.031
395.146
392.611
389.765
387.183
382.575
375.715
365.786
357.118
354.139
351.418
349.269
332.886
301.66
266.387
224.089
176.66
134.83
111.257
105.189
79.1325
65.0333
33.8258
11.428
1.49363
0.159317
0.166628
0.16527
0.161233
0.161947
0.278319
0.144469
0.0151162
0.0204225
0.0641504
0.0936266
0.10157
0.107468
0.111714
0.117312
0.125624
0.0723163
0.103337
0.117916
0.112504
0.078716
0.0856587
0.10483
0.120555
0.117576
0.0952168
0.0767512
0.101356
0.140979
0.143908
0.138073
0.0827701
0.0956566
0.116233
0.132309
0.128312
0.0830617
0.134374
0.163862
0.158754
0.110749
0.117148
0.0873232
0.0730131
0.0774121
0.170865
0.133416
0.183035
0.179194
0.170392
0.100285
0.176689
0.073007
0.04796
0.0204513
0.108604
0.104881
0.184909
0.181999
0.136549
0.0994065
0.139463
0.0617915
0.0431512
0.0254556
0.0847097
0.054928
0.0673039
0.0934792
0.0600542
0.0898362
0.0807365
0.0581598
0.050466
0.0445675
0.0576103
0.0403743
0.0440502
0.0497
0.0646282
0.0755671
0.0720152
0.0638383
0.0642587
0.0579973
0.0780562
0.0429643
0.0495582
0.0594085
0.0711925
0.0774265
0.0809386
0.0787474
0.0794509
0.0666636
0.102169
0.0470702
0.0576413
0.0818142
0.0881967
0.0926653
0.0724555
0.0585339
0.0383753
0.0292431
0.107905
0.0386407
0.0369517
0.038626
0.0416499
0.0429179
0.0388631
0.0269525
0.0110095
0.0357237
397.738
397.455
397.049
396.522
395.928
395.364
394.912
394.631
394.564
394.778
397.865
397.518
397.043
396.462
395.78
395.134
394.608
394.273
394.175
394.368
398.142
397.652
397.035
396.287
395.439
394.614
393.939
393.488
393.322
393.489
398.577
397.907
396.982
395.952
394.84
393.743
392.783
392.115
391.811
391.944
399.217
398.112
396.938
395.471
393.862
392.263
390.874
389.866
389.322
389.368
400.006
398.494
396.96
394.754
392.362
390.106
388.18
386.623
385.619
385.366
402.038
400.155
397.534
394.335
391.304
388.134
384.429
379.821
374.939
372.248
382.523
379.729
364.427
335.495
302.247
271.447
233.966
195.033
166.923
155.902
120.104
101.82
63.1977
29.5449
10.9079
1.85281
0.19283
0.177122
0.177662
0.185758
0.483122
0.313535
0.106405
0.0481463
0.0746101
0.105748
0.119657
0.117285
0.126188
0.137631
0.214259
0.162681
0.103504
0.105966
0.111008
0.0836462
0.112575
0.117817
0.139324
0.217558
0.211248
0.209376
0.121447
0.0725478
0.0698038
0.0848186
0.180649
0.11371
0.138546
0.201089
0.154095
0.208511
0.106384
0.0587467
0.0632914
0.145272
0.18123
0.084063
0.0883576
0.18605
0.155073
0.223762
0.0838888
0.0924982
0.172724
0.18814
0.190128
0.0690513
0.0773654
0.141448
0.150886
0.210546
0.0687687
0.178921
0.181634
0.198331
0.151357
0.0561195
0.0622375
0.0723332
0.157621
0.207976
0.0917368
0.149225
0.139048
0.205558
0.08284
0.0554434
0.0510901
0.0384479
0.0832877
0.13754
0.0884738
0.046797
0.0600121
0.106017
0.0651567
0.0592539
0.0561927
0.0575171
0.0503117
0.0418483
0.054768
0.0478401
0.0579853
0.0630683
0.067599
0.0658828
0.0729818
0.0772575
0.0482463
0.0397456
0.0520787
0.0569578
0.0634869
0.0662217
0.0587043
0.043671
0.0222552
0.0207296
0.0557276
0.0312585
0.0159866
0.00950202
0.0113912
0.0137607
0.0109468
-0.00414846
-0.0247222
-0.0411095
399.215
398.9
398.533
398.004
397.368
396.767
396.271
395.948
395.849
396.032
399.477
399.075
398.728
398.128
397.381
396.68
396.1
395.722
395.585
395.744
399.997
399.432
398.868
398.229
397.323
396.46
395.721
395.23
395.012
395.139
400.974
400.125
399.141
398.22
397.132
396.04
395.087
394.391
394.05
394.149
402.474
401.331
400.026
398.474
396.851
395.283
393.899
392.956
392.392
392.342
404.474
402.933
401.395
398.914
396.39
394.031
391.87
390.751
390.017
389.737
407.836
405.948
403.243
399.611
396.059
393.031
391.108
388.864
387.137
386.111
410.382
406.069
393.413
369.829
340.484
314.854
293.348
272.991
256.339
247.199
201.114
170.199
112.499
61.9121
30.6368
14.321
6.87152
3.23233
0.821605
0.261828
3.20414
0.759961
0.259637
0.121041
0.087537
0.0951296
0.0966066
0.10882
0.117529
0.123557
0.225792
0.122872
0.0629617
0.0565751
0.066377
0.0713851
0.0914262
0.0979062
0.106608
0.176078
0.262554
0.142079
0.0426216
0.0480034
0.0659685
0.104365
0.138282
0.0842208
0.111383
0.193869
0.229287
0.160806
0.03401
0.0456099
0.126704
0.111424
0.0972224
0.0626963
0.0785177
0.184536
0.269001
0.20606
0.0452421
0.0488657
0.16633
0.118763
0.0621574
0.0554527
0.0906551
0.184973
0.269995
0.206579
0.050973
0.139773
0.176985
0.129836
0.0550052
0.0504922
0.0830923
0.188321
0.18284
0.246002
0.0855686
0.102854
0.156477
0.121372
0.0532699
0.0459466
0.0520763
0.0747234
0.179279
0.265321
0.078092
0.0519541
0.058463
0.0699913
0.0508897
0.0465549
0.0404691
0.0346405
0.0681505
0.139092
0.0556328
0.0482229
0.0501208
0.0477816
0.0487625
0.045121
0.0377662
0.0353069
0.0464023
0.0332994
0.030318
0.0302875
0.0301575
0.0332693
0.0379739
0.0269499
0.0154678
0.0192142
0.0451891
0.0244387
0.00883326
0.00229017
0.02407
0.00977527
0.0153567
-0.00773208
-0.031983
-0.0435309
400.623
400.267
400.032
399.504
398.792
398.152
397.621
397.266
397.14
397.292
400.983
400.483
400.213
399.775
398.963
398.216
397.601
397.177
397.014
397.146
401.732
401.031
400.569
400.017
399.151
398.282
397.544
397.017
396.756
396.855
403.3
402.31
401.406
400.446
399.335
398.312
397.397
396.709
396.37
396.43
405.683
404.474
403.146
401.497
399.831
398.34
397.064
396.147
395.618
395.539
408.966
407.557
405.745
403.183
400.617
398.29
396.388
395.142
394.447
394.204
413.861
411.969
409.144
405.334
401.607
398.389
395.989
394.269
393.235
392.806
421.255
418.182
413.267
399.107
375.987
353.506
336.618
328.071
323.953
323.898
314.162
273.629
195.671
117.263
70.3083
44.8914
31.8442
24.8156
19.783
15.5188
38.2365
18.3249
2.41882
0.374225
0.205579
0.106098
0.100777
0.0936221
0.0794753
0.0684249