/*--------------------------------*- C++ -*----------------------------------*\
| =========                 |                                                 |
| \\      /  F ield         | OpenFOAM: The Open Source CFD Toolbox           |
|  \\    /   O peration     | Version:  2312                                  |
|   \\  /    A nd           | Website:  www.openfoam.com                      |
|    \\/     M anipulation  |                                                 |
\*---------------------------------------------------------------------------*/
FoamFile
{
    version     2.0;
    format      ascii;
    arch        "LSB;label=32;scalar=64";
    class       volScalarField;
    location    "1.135";
    object      p;
}
// * * * * * * * * * * * * * * * * * * * * * * * * * * * * * * * * * * * * * //

dimensions      [1 -1 -2 0 0 0 0];

internalField   nonuniform List<scalar> 
8000
(
357.572
357.995
358.855
360.046
361.443
362.955
364.452
365.749
366.684
367.138
307.358
307.759
308.612
309.967
311.594
313.302
314.998
316.48
317.553
318.105
256.236
256.653
257.405
258.852
260.822
262.993
265.134
267.009
268.418
269.138
204.034
204.434
205.182
206.885
209.086
211.874
214.724
217.318
219.13
220.147
150.252
150.715
151.841
154.207
157.194
160.599
163.982
167.386
169.832
171.269
94.1068
94.7216
96.9753
99.3767
102.925
107.684
112.44
116.972
120.502
122.682
36.9998
37.4771
39.1695
41.9982
46.703
52.6765
59.4987
66.2519
71.6076
75.1299
4.94964
4.8265
4.83533
5.40548
6.64612
9.11296
13.6867
20.6414
27.5096
32.0968
-0.0887187
-0.0876719
-0.084878
-0.0787194
-0.0725745
-0.081887
-0.0528869
0.598783
3.46559
6.56231
-0.159657
-0.156335
-0.161238
-0.174536
-0.189673
-0.20919
-0.23312
-0.276484
-0.307684
-0.300818
-0.238069
-0.238345
-0.253357
-0.278809
-0.302985
-0.322958
-0.35119
-0.378607
-0.386235
-0.37638
-0.32236
-0.329025
-0.350829
-0.381409
-0.412639
-0.426371
-0.424584
-0.432142
-0.436492
-0.437191
-0.408342
-0.417953
-0.437051
-0.460374
-0.476954
-0.490058
-0.501209
-0.503766
-0.505153
-0.509978
-0.494833
-0.504522
-0.516164
-0.52887
-0.548877
-0.575571
-0.598478
-0.605849
-0.6023
-0.601004
-0.582734
-0.592442
-0.598984
-0.605696
-0.633167
-0.664912
-0.687592
-0.692309
-0.685325
-0.67389
-0.668681
-0.682451
-0.685295
-0.691638
-0.709943
-0.735056
-0.753448
-0.756867
-0.747364
-0.733008
-0.746597
-0.763039
-0.76921
-0.771427
-0.774146
-0.789614
-0.804427
-0.811553
-0.805461
-0.790179
-0.813708
-0.827971
-0.834403
-0.831707
-0.831687
-0.842754
-0.857341
-0.868576
-0.86424
-0.847099
-0.872734
-0.882601
-0.888638
-0.888303
-0.890768
-0.901106
-0.914664
-0.923711
-0.919417
-0.900807
-0.928505
-0.934969
-0.941017
-0.943178
-0.94929
-0.960416
-0.971263
-0.976418
-0.969631
-0.950092
358.22
358.694
359.647
360.784
362.069
363.566
365.068
366.345
367.254
367.686
307.966
308.447
309.363
310.722
312.312
313.906
315.661
317.113
318.142
318.648
257.011
257.27
257.942
259.409
261.512
263.758
265.945
267.729
269.056
269.76
204.89
205.113
205.678
207.406
209.948
212.814
215.602
218.095
219.846
220.748
150.648
151.364
152.681
154.948
158.04
161.675
165.175
168.314
170.578
171.845
94.0951
95.0985
97.4389
100.243
104.208
108.954
113.646
117.915
121.23
123.263
36.7931
37.2355
39.2879
42.8008
48.224
54.5265
61.0041
67.1102
72.1599
75.289
4.69272
4.48018
4.73273
5.70429
7.50135
10.2156
14.3266
21.3477
27.6831
32.1514
-0.0843899
-0.0803867
-0.0736237
-0.0788875
-0.0975151
-0.131502
-0.0324284
0.949657
3.53588
6.434
-0.159254
-0.16019
-0.174037
-0.200402
-0.22648
-0.250523
-0.273914
-0.329953
-0.35495
-0.354622
-0.243066
-0.249908
-0.274441
-0.322579
-0.364416
-0.388601
-0.421741
-0.461022
-0.467206
-0.459719
-0.332697
-0.348337
-0.387553
-0.437706
-0.456785
-0.465425
-0.471588
-0.481254
-0.488044
-0.489865
-0.415978
-0.43508
-0.479164
-0.498986
-0.502427
-0.507811
-0.51452
-0.523744
-0.526431
-0.524238
-0.497349
-0.515608
-0.548624
-0.562228
-0.573466
-0.596981
-0.612628
-0.620736
-0.616677
-0.606731
-0.58245
-0.596474
-0.61443
-0.632458
-0.656243
-0.69251
-0.710191
-0.706294
-0.70061
-0.684063
-0.666567
-0.678367
-0.681834
-0.701331
-0.723598
-0.754185
-0.773256
-0.776415
-0.766576
-0.746786
-0.745115
-0.758724
-0.755816
-0.764517
-0.779224
-0.80078
-0.8214
-0.833398
-0.828043
-0.807163
-0.813883
-0.828894
-0.829142
-0.825316
-0.832954
-0.850069
-0.873071
-0.891924
-0.889186
-0.867434
-0.872542
-0.887035
-0.885737
-0.884043
-0.891672
-0.910686
-0.933379
-0.947318
-0.942236
-0.921262
-0.927623
-0.939611
-0.940688
-0.942118
-0.953828
-0.974944
-0.991446
-0.996833
-0.987523
-0.9665
359.463
360.013
361.364
362.418
363.596
364.914
366.258
367.448
368.294
368.683
309.226
309.911
311.135
312.438
313.885
315.503
316.942
318.289
319.253
319.708
258.222
258.734
259.86
261.264
263.193
265.485
267.432
269.097
270.303
270.906
206.418
206.668
207.725
209.318
211.73
214.511
217.364
219.659
221.298
222.135
152.67
153.29
154.849
156.997
160.171
163.839
167.254
170.202
172.352
173.54
97.2211
97.8529
100.013
102.792
107.164
111.834
116.273
120.334
123.495
125.389
39.9698
39.9741
41.8748
45.587
51.9253
58.6628
64.6043
70.0849
74.5421
77.5493
5.65023
5.36408
5.63169
6.98532
9.93589
13.9869
18.985
24.7038
29.8058
34.093
-0.0997928
-0.0908615
-0.0743741
-0.0903693
-0.154637
-0.150764
0.271021
1.88215
4.27586
7.02718
-0.182494
-0.186518
-0.203427
-0.228504
-0.263314
-0.295549
-0.324437
-0.347996
-0.361438
-0.370079
-0.274629
-0.287991
-0.3053
-0.340003
-0.373196
-0.402036
-0.436191
-0.463255
-0.48088
-0.487269
-0.36903
-0.39158
-0.4131
-0.434142
-0.448165
-0.464458
-0.480265
-0.492855
-0.499865
-0.501425
-0.449494
-0.47036
-0.496699
-0.505065
-0.505311
-0.513021
-0.517825
-0.521064
-0.516452
-0.508253
-0.524847
-0.54515
-0.566803
-0.577369
-0.582682
-0.606385
-0.62065
-0.629665
-0.613359
-0.582339
-0.601567
-0.61805
-0.630696
-0.648977
-0.673673
-0.717624
-0.742953
-0.740281
-0.723887
-0.685774
-0.675734
-0.689966
-0.693149
-0.71384
-0.744709
-0.782582
-0.80477
-0.807419
-0.795602
-0.766844
-0.743988
-0.761469
-0.759546
-0.770388
-0.798376
-0.82727
-0.849779
-0.859408
-0.854013
-0.827086
-0.807494
-0.822386
-0.824731
-0.827675
-0.85019
-0.873355
-0.895113
-0.911265
-0.908381
-0.885283
-0.865709
-0.876184
-0.882824
-0.888074
-0.904459
-0.926171
-0.947023
-0.959273
-0.955696
-0.936055
-0.923538
-0.929764
-0.936353
-0.941616
-0.959403
-0.980987
-0.998471
-1.00411
-0.999114
-0.9797
361.173
361.717
363.1
364.093
365.217
366.518
367.823
368.951
369.735
370.073
311.243
311.873
313.226
314.537
315.804
317.222
318.657
319.915
320.796
321.2
260.303
260.984
262.368
263.94
265.678
267.65
269.414
270.985
272.108
272.604
208.793
209.239
210.681
212.479
214.727
217.18
219.83
221.96
223.474
224.199
156.357
156.609
158.265
160.569
163.619
167.092
170.286
173.081
175.13
176.166
102.061
102.293
104.237
107.302
111.442
115.86
120.226
124.106
127.081
128.673
45.4866
45.3203
47.3788
51.2428
57.3545
63.5965
69.3335
74.6203
78.9775
81.5808
7.77139
7.56306
8.11743
9.87441
13.377
18.3518
23.9868
29.1667
34.2581
37.9432
-0.122869
-0.116507
-0.113653
-0.136122
-0.156173
0.137203
1.47428
3.30178
5.86087
8.75044
-0.216956
-0.223503
-0.238676
-0.260675
-0.29794
-0.324362
-0.339778
-0.338738
-0.342995
-0.342968
-0.307134
-0.320316
-0.33687
-0.351812
-0.373064
-0.401378
-0.421062
-0.424647
-0.429282
-0.431356
-0.392801
-0.409321
-0.423298
-0.424606
-0.432925
-0.457226
-0.48023
-0.493902
-0.498353
-0.497643
-0.468598
-0.483118
-0.493609
-0.490204
-0.4993
-0.524118
-0.542551
-0.546979
-0.538925
-0.529119
-0.54059
-0.554847
-0.567062
-0.563489
-0.584173
-0.620677
-0.650877
-0.653657
-0.6259
-0.592577
-0.612527
-0.625723
-0.638499
-0.645563
-0.677504
-0.740466
-0.781603
-0.775389
-0.745698
-0.687621
-0.681167
-0.693335
-0.703503
-0.716218
-0.751136
-0.803132
-0.840192
-0.843889
-0.823931
-0.781609
-0.745555
-0.75708
-0.764359
-0.773576
-0.80418
-0.845613
-0.874336
-0.888964
-0.878746
-0.84231
-0.808954
-0.818929
-0.826486
-0.833864
-0.859507
-0.886339
-0.907203
-0.92227
-0.918646
-0.894591
-0.871558
-0.880665
-0.887457
-0.895706
-0.915847
-0.935242
-0.947463
-0.96034
-0.958773
-0.941973
-0.930611
-0.940717
-0.944054
-0.949583
-0.968391
-0.985559
-0.997771
-1.0043
-1.00357
-0.987713
363.167
363.676
364.798
365.861
367.064
368.376
369.653
370.729
371.457
371.732
313.565
314.06
315.293
316.523
317.822
319.242
320.65
321.861
322.693
323.02
263.262
263.731
264.986
266.573
268.263
270.048
271.773
273.252
274.273
274.688
212.249
212.736
214.074
215.978
218.166
220.511
222.828
224.799
226.178
226.772
160.656
161.128
162.675
165.007
167.888
171.017
174.053
176.689
178.552
179.397
107.755
108.088
110.162
112.987
116.717
120.935
125.1
128.759
131.414
132.67
53.0476
52.8205
55.8328
59.4659
64.6581
69.869
75.3699
80.5389
84.5463
86.6131
11.1757
11.1218
12.5011
15.0254
19.8203
25.0888
30.3737
35.5941
40.4587
42.853
-0.169328
-0.169986
-0.172865
-0.119572
0.358286
1.89599
3.59611
5.76912
9.06529
11.7616
-0.255798
-0.260718
-0.275727
-0.288772
-0.315267
-0.319477
-0.317639
-0.319797
-0.33434
-0.295815
-0.327441
-0.332885
-0.346306
-0.356654
-0.380689
-0.390942
-0.398577
-0.412318
-0.43107
-0.443114
-0.403534
-0.412205
-0.419694
-0.420105
-0.433799
-0.458988
-0.478803
-0.50199
-0.510995
-0.503207
-0.47659
-0.486487
-0.49071
-0.490448
-0.51115
-0.553185
-0.581319
-0.58482
-0.572646
-0.555461
-0.548041
-0.558975
-0.569536
-0.571837
-0.609395
-0.665233
-0.696053
-0.689925
-0.663122
-0.62268
-0.619914
-0.631198
-0.64604
-0.656561
-0.693957
-0.762923
-0.801392
-0.795492
-0.766078
-0.721117
-0.688454
-0.700108
-0.714753
-0.729682
-0.759988
-0.815862
-0.857976
-0.863304
-0.840152
-0.794308
-0.754408
-0.766784
-0.777786
-0.788722
-0.812373
-0.850904
-0.883356
-0.895916
-0.884774
-0.846484
-0.820511
-0.833757
-0.839941
-0.845582
-0.863661
-0.886436
-0.906716
-0.916644
-0.912219
-0.890506
-0.881351
-0.896847
-0.898142
-0.901642
-0.917165
-0.933503
-0.943107
-0.951934
-0.950783
-0.935845
-0.936634
-0.953148
-0.951286
-0.953827
-0.967276
-0.982245
-0.991483
-0.99973
-1.00001
-0.987676
365.28
365.744
366.667
367.765
369.016
370.339
371.592
372.629
373.311
373.533
315.887
316.362
317.381
318.581
319.936
321.386
322.787
323.959
324.736
325.008
266.044
266.572
267.687
269.178
270.864
272.618
274.3
275.713
276.657
276.995
215.872
216.413
217.64
219.438
221.572
223.854
226.048
227.899
229.151
229.619
165.139
165.773
167.357
169.577
172.324
175.289
178.184
180.646
182.32
182.995
113.612
114.188
116.255
118.927
122.588
126.62
130.492
133.862
136.191
137.198
61.0487
61.9948
64.8062
67.9229
72.4323
76.8722
82.3786
87.242
90.7861
92.4899
15.8404
16.5135
19.5727
23.7178
28.5095
33.624
38.8904
43.9673
47.9827
50.0296
-0.0596051
-0.0289516
0.28146
1.42866
3.30121
5.08108
7.38255
10.8268
14.3837
16.395
-0.276154
-0.275869
-0.288996
-0.299566
-0.284751
-0.280697
-0.275076
-0.266629
-0.0911558
0.253473
-0.345883
-0.346923
-0.365838
-0.384789
-0.389074
-0.382193
-0.390786
-0.419783
-0.465182
-0.464515
-0.418294
-0.420857
-0.425973
-0.432686
-0.452851
-0.471337
-0.494227
-0.526022
-0.541988
-0.523929
-0.487753
-0.49537
-0.499781
-0.510054
-0.54772
-0.593998
-0.622301
-0.627635
-0.616676
-0.585947
-0.559678
-0.570447
-0.583049
-0.596833
-0.645667
-0.706275
-0.722866
-0.717252
-0.697527
-0.661674
-0.633504
-0.645919
-0.664669
-0.680393
-0.720408
-0.780713
-0.812998
-0.8059
-0.78131
-0.743745
-0.703704
-0.719612
-0.739054
-0.752702
-0.778338
-0.824436
-0.861245
-0.865353
-0.841908
-0.803203
-0.771701
-0.791272
-0.804395
-0.809895
-0.823704
-0.849892
-0.876543
-0.885185
-0.876662
-0.846844
-0.833933
-0.853632
-0.858061
-0.858551
-0.866999
-0.882074
-0.895547
-0.902327
-0.899542
-0.88377
-0.885414
-0.90139
-0.903228
-0.904058
-0.911928
-0.924409
-0.934152
-0.937969
-0.934514
-0.927773
-0.933351
-0.946365
-0.947908
-0.948801
-0.956913
-0.97043
-0.982966
-0.987234
-0.983918
-0.981788
367.266
367.709
368.549
369.646
370.911
372.23
373.467
374.476
375.119
375.293
318.062
318.536
319.448
320.636
322.015
323.483
324.873
326.011
326.748
326.974
268.717
269.243
270.282
271.706
273.372
275.124
276.783
278.15
279.039
279.323
219.258
219.847
221.028
222.75
224.843
227.082
229.214
230.981
232.14
232.523
169.452
170.095
171.673
173.852
176.58
179.477
182.282
184.606
186.15
186.695
119.218
119.831
121.949
124.786
128.58
132.199
135.903
139.025
141.135
141.954
68.6706
69.8258
72.4051
76.0079
80.0105
84.9681
90.1002
94.404
97.4167
98.7593
22.7299
24.2212
27.9589
32.8394
38.2519
43.3574
48.6788
53.0959
56.3465
57.98
1.42559
1.60048
3.16295
5.72046
8.45089
11.4454
14.8431
18.2003
20.9855
22.6569
-0.285573
-0.287518
-0.279307
-0.270839
-0.282496
-0.269386
-0.167109
0.372865
1.34196
2.03684
-0.370036
-0.372696
-0.382377
-0.392824
-0.401803
-0.404904
-0.449548
-0.489139
-0.480608
-0.447443
-0.43882
-0.437358
-0.437074
-0.448492
-0.478493
-0.515777
-0.561142
-0.573828
-0.55454
-0.521355
-0.502797
-0.509114
-0.51239
-0.532444
-0.581552
-0.635016
-0.657993
-0.662925
-0.650534
-0.618292
-0.574265
-0.584274
-0.5988
-0.619982
-0.670776
-0.722088
-0.739069
-0.737462
-0.724843
-0.694527
-0.65161
-0.670006
-0.687521
-0.69979
-0.737158
-0.789681
-0.811844
-0.804327
-0.78934
-0.762734
-0.72281
-0.756308
-0.764982
-0.769143
-0.789836
-0.823538
-0.848602
-0.8504
-0.837825
-0.813649
-0.785592
-0.821884
-0.821948
-0.819075
-0.826533
-0.842574
-0.859996
-0.869608
-0.867874
-0.851987
-0.838039
-0.860536
-0.865331
-0.858844
-0.860674
-0.868275
-0.879592
-0.889616
-0.891653
-0.885008
-0.880022
-0.896086
-0.900886
-0.898605
-0.900603
-0.908297
-0.91759
-0.924597
-0.925996
-0.926223
-0.92325
-0.936338
-0.940313
-0.941799
-0.947207
-0.957298
-0.967193
-0.973604
-0.97595
-0.979631
368.946
369.376
370.187
371.286
372.546
373.866
375.094
376.083
376.698
376.828
319.91
320.38
321.255
322.43
323.835
325.313
326.696
327.817
328.527
328.712
270.969
271.486
272.494
273.905
275.57
277.321
278.971
280.318
281.178
281.43
222.083
222.686
223.876
225.59
227.682
229.908
232.013
233.742
234.858
235.208
173.129
173.727
175.33
177.56
180.259
183.177
185.941
188.199
189.685
190.176
124.053
124.632
126.939
129.795
133.324
137.187
140.86
143.817
145.801
146.517
75.2971
76.3297
79.25
82.9252
87.6415
92.686
97.401
101.12
103.758
104.903
29.9792
31.5996
35.909
41.2856
46.336
52.0349
57.2951
61.4207
64.4619
66.0414
4.13386
4.50171
7.65364
12.0807
16.3586
19.9016
23.2893
26.1651
28.7899
30.6489
-0.291486
-0.29825
-0.294308
-0.260176
-0.191648
0.36445
1.64713
2.8437
4.20961
5.25593
-0.393448
-0.404294
-0.405845
-0.411269
-0.447063
-0.47795
-0.497159
-0.521377
-0.520151
-0.45714
-0.458395
-0.457611
-0.453521
-0.470697
-0.519823
-0.570608
-0.60258
-0.612754
-0.593695
-0.530771
-0.517969
-0.524958
-0.528368
-0.550127
-0.601771
-0.656108
-0.684775
-0.696137
-0.686982
-0.643883
-0.587006
-0.600079
-0.612812
-0.633411
-0.683295
-0.732566
-0.752081
-0.75503
-0.74817
-0.718661
-0.662845
-0.688397
-0.698207
-0.708759
-0.746935
-0.791144
-0.807057
-0.806295
-0.800104
-0.780829
-0.730519
-0.761605
-0.764325
-0.76738
-0.789103
-0.820012
-0.837488
-0.843277
-0.840099
-0.826729
-0.784563
-0.808929
-0.810698
-0.810964
-0.820464
-0.837337
-0.854123
-0.865255
-0.867344
-0.857212
-0.827816
-0.845449
-0.848185
-0.848945
-0.854022
-0.864478
-0.877514
-0.889415
-0.891978
-0.886735
-0.868405
-0.883784
-0.889049
-0.890662
-0.896072
-0.905016
-0.916198
-0.924145
-0.92535
-0.925651
-0.91363
-0.928806
-0.937143
-0.941571
-0.947583
-0.956384
-0.965835
-0.970401
-0.974461
-0.980767
370.148
370.568
371.368
372.464
373.737
375.065
376.293
377.275
377.879
377.998
321.227
321.705
322.566
323.721
325.173
326.665
328.05
329.17
329.881
330.05
272.589
273.106
274.092
275.553
277.207
278.959
280.607
281.958
282.838
283.086
224.081
224.695
225.95
227.702
229.82
232.042
234.128
235.855
237.016
237.38
175.766
176.374
178.095
180.374
183.142
186.038
188.753
191.006
192.565
193.074
127.596
128.311
130.801
133.536
137.224
141.079
144.696
147.628
149.673
150.398
80.1792
81.1618
84.121
88.0503
93.3059
98.2205
102.716
106.388
109.046
110.187
36.4638
38.1129
42.3027
46.5763
52.3368
58.3327
63.7187
68.1048
71.4202
73.1849
8.03138
9.27348
13.5213
18.0651
22.9212
27.0927
30.7648
34.1751
37.3621
39.7367
-0.300475
-0.308953
-0.236761
0.0947435
1.36909
3.19219
5.3559
7.44949
9.56157
11.5326
-0.419604
-0.441089
-0.444286
-0.462904
-0.471127
-0.496463
-0.540816
-0.575415
-0.568804
-0.460661
-0.473496
-0.481497
-0.487992
-0.51072
-0.548355
-0.58113
-0.619547
-0.662595
-0.683417
-0.626519
-0.527574
-0.539517
-0.552806
-0.568778
-0.608486
-0.65792
-0.696558
-0.721303
-0.72141
-0.675746
-0.595533
-0.61141
-0.624546
-0.641677
-0.688472
-0.742051
-0.769449
-0.775917
-0.770662
-0.740568
-0.663523
-0.689893
-0.694365
-0.710707
-0.754083
-0.803737
-0.824806
-0.824103
-0.816486
-0.797543
-0.725964
-0.745096
-0.747806
-0.762545
-0.794169
-0.834332
-0.856976
-0.858715
-0.850565
-0.837897
-0.77434
-0.788542
-0.789684
-0.802014
-0.824357
-0.851922
-0.86939
-0.877753
-0.874117
-0.861267
-0.81618
-0.828792
-0.828451
-0.836913
-0.852731
-0.871202
-0.887187
-0.896243
-0.894767
-0.88655
-0.861038
-0.875128
-0.874742
-0.879407
-0.891435
-0.906387
-0.919804
-0.923893
-0.923678
-0.924719
-0.907928
-0.922886
-0.930567
-0.93437
-0.941911
-0.953063
-0.963334
-0.9693
-0.977225
-0.982117
370.734
371.149
371.952
373.066
374.35
375.693
376.925
377.898
378.509
378.686
321.881
322.361
323.227
324.403
325.869
327.381
328.777
329.895
330.62
330.926
273.382
273.939
274.935
276.378
278.057
279.826
281.487
282.856
283.767
284.177
225.087
225.697
226.977
228.8
230.951
233.181
235.269
237.023
238.233
238.712
177.094
177.748
179.53
181.926
184.746
187.639
190.321
192.596
194.215
194.915
129.448
130.274
132.761
135.817
139.549
143.417
146.887
149.841
151.987
152.949
82.7209
83.6984
87.1761
91.2967
96.2118
101.197
105.737
109.543
112.364
113.734
39.8511
41.7084
45.4631
49.3885
55.5129
61.74
67.4858
72.333
76.0004
78.0808
10.7069
13.0589
16.8702
21.7164
26.7693
31.578
36.3067
40.6244
44.3142
47.0527
-0.275051
-0.172018
0.442567
1.5537
3.62316
6.65176
10.3477
13.7166
16.8598
19.9292
-0.448463
-0.476318
-0.464776
-0.468093
-0.483978
-0.515736
-0.55202
-0.490305
-0.135504
0.609336
-0.484212
-0.509869
-0.521876
-0.537476
-0.552633
-0.575093
-0.627885
-0.714962
-0.802061
-0.778765
-0.53655
-0.555248
-0.57777
-0.586432
-0.606724
-0.644492
-0.696435
-0.740883
-0.764294
-0.729921
-0.600714
-0.621356
-0.6369
-0.648455
-0.682816
-0.738532
-0.783426
-0.800591
-0.794709
-0.762762
-0.663166
-0.687008
-0.691678
-0.709138
-0.751868
-0.812542
-0.849791
-0.850645
-0.833243
-0.808717
-0.718356
-0.735479
-0.737655
-0.755938
-0.793951
-0.848345
-0.881947
-0.882681
-0.863805
-0.843383
-0.762921
-0.776262
-0.776439
-0.789951
-0.817585
-0.856157
-0.884669
-0.892254
-0.881937
-0.862413
-0.810043
-0.817191
-0.813922
-0.821136
-0.840253
-0.86709
-0.891103
-0.900213
-0.895441
-0.881789
-0.860479
-0.864192
-0.86098
-0.86712
-0.880807
-0.899096
-0.913864
-0.918178
-0.921413
-0.920496
-0.906476
-0.914864
-0.917071
-0.920485
-0.929249
-0.945289
-0.960939
-0.97142
-0.981523
-0.979994
370.591
371.034
371.849
372.968
374.276
375.636
376.884
377.872
378.488
378.681
321.798
322.272
323.142
324.347
325.807
327.333
328.746
329.883
330.62
330.911
273.281
273.871
274.871
276.298
277.998
279.787
281.475
282.876
283.817
284.159
224.995
225.63
226.904
228.74
230.908
233.16
235.29
237.096
238.366
238.828
176.978
177.704
179.446
181.874
184.714
187.641
190.395
192.751
194.489
195.247
129.317
130.243
132.858
135.975
139.641
143.446
147.015
150.092
152.427
153.531
82.5053
83.5023
87.2044
91.3214
96.1927
101.201
105.902
109.982
113.106
114.712
38.8423
40.8035
44.6689
48.8325
55.2682
61.6699
67.6957
73.0428
77.1982
79.5819
9.35175
11.5123
15.3788
20.5975
26.087
31.3011
36.7208
41.9683
46.5009
49.6662
-0.263903
-0.126812
0.446633
1.60553
3.77198
6.99371
11.2295
15.9419
20.9219
25.3101
-0.448813
-0.474155
-0.470656
-0.472749
-0.495918
-0.535449
-0.539284
-0.203721
0.907657
2.47918
-0.489964
-0.520969
-0.541471
-0.546018
-0.55086
-0.570217
-0.626654
-0.742004
-0.883982
-0.892898
-0.545568
-0.566982
-0.593071
-0.595119
-0.599887
-0.628399
-0.687714
-0.7486
-0.78951
-0.771202
-0.605383
-0.630692
-0.647242
-0.649663
-0.66997
-0.721775
-0.782952
-0.812561
-0.807612
-0.772399
-0.660927
-0.686728
-0.693521
-0.70388
-0.736451
-0.800399
-0.858616
-0.869641
-0.843583
-0.810509
-0.710083
-0.730308
-0.734714
-0.745774
-0.77651
-0.834348
-0.887031
-0.897183
-0.871362
-0.843358
-0.757131
-0.767617
-0.768385
-0.774093
-0.795822
-0.837649
-0.879491
-0.894281
-0.884458
-0.86008
-0.81893
-0.816437
-0.805061
-0.805364
-0.819617
-0.847884
-0.880279
-0.895296
-0.891855
-0.873178
-0.872921
-0.871151
-0.860337
-0.855211
-0.859502
-0.871544
-0.891178
-0.909711
-0.921662
-0.915369
-0.91282
-0.922499
-0.924395
-0.920362
-0.922878
-0.940543
-0.960545
-0.974535
-0.981154
-0.976087
369.747
370.2
371.034
372.174
373.502
374.883
376.158
377.18
377.813
377.945
320.884
321.361
322.253
323.455
324.958
326.503
327.94
329.108
329.858
330.051
272.276
272.827
273.826
275.307
277.018
278.833
280.548
281.969
282.912
283.21
223.749
224.369
225.658
227.502
229.695
231.992
234.173
236.01
237.283
237.73
175.384
175.981
177.769
180.257
183.151
186.142
188.973
191.39
193.153
193.873
127.261
127.993
130.719
133.919
137.643
141.494
145.147
148.312
150.694
151.846
79.7249
80.8067
84.2164
88.3185
93.2512
98.3666
103.235
107.551
110.858
112.626
35.1171
36.8256
40.0588
44.9536
51.41
57.8648
64.019
69.7509
74.3885
77.0923
6.40254
7.7494
10.7318
14.9776
20.7343
26.055
31.3965
37.1027
42.6513
46.5276
-0.29612
-0.255312
0.03575
0.728134
2.06966
4.39412
7.763
12.2398
17.6828
22.1461
-0.438606
-0.472384
-0.482371
-0.482114
-0.500026
-0.535208
-0.578994
-0.467213
0.351268
1.65917
-0.492175
-0.521383
-0.554092
-0.551188
-0.554532
-0.564961
-0.610381
-0.718365
-0.901932
-1.0005
-0.550365
-0.57637
-0.605041
-0.593952
-0.594496
-0.618143
-0.675805
-0.741691
-0.789293
-0.784316
-0.604404
-0.637747
-0.654431
-0.647267
-0.658291
-0.701617
-0.76862
-0.811414
-0.809379
-0.770454
-0.655025
-0.685166
-0.696827
-0.69984
-0.719506
-0.775064
-0.844041
-0.870411
-0.847605
-0.809353
-0.702433
-0.723158
-0.732878
-0.737351
-0.756025
-0.804845
-0.866259
-0.889255
-0.869467
-0.840624
-0.763765
-0.766437
-0.763204
-0.762896
-0.775383
-0.810148
-0.856324
-0.882933
-0.878805
-0.856443
-0.839471
-0.833513
-0.813237
-0.802985
-0.80659
-0.827317
-0.85973
-0.882912
-0.883941
-0.866507
-0.895216
-0.893396
-0.874414
-0.853014
-0.833265
-0.841463
-0.876737
-0.907402
-0.920525
-0.911838
-0.933731
-0.945964
-0.937341
-0.927501
-0.921406
-0.940111
-0.961422
-0.97428
-0.977369
-0.975241
368.252
368.725
369.602
370.782
372.14
373.55
374.857
375.908
376.563
376.708
319.233
319.74
320.682
321.946
323.457
325.03
326.497
327.691
328.454
328.664
270.309
270.875
271.946
273.473
275.242
277.1
278.855
280.302
281.247
281.546
221.398
222.046
223.364
225.225
227.458
229.814
232.053
233.931
235.208
235.642
172.422
173.036
174.794
177.297
180.233
183.305
186.221
188.708
190.478
191.185
123.489
124.11
126.906
130.069
133.845
137.796
141.559
144.829
147.221
148.34
75.0044
75.9253
78.6372
82.6705
87.7923
93.1144
98.2162
102.751
106.197
107.957
29.7435
31.1676
34.1075
38.1797
44.4115
50.875
57.1529
63.1139
68.0841
70.866
3.67211
4.16479
5.89926
8.90815
12.8574
17.8683
22.8329
28.615
34.6916
38.5915
-0.306274
-0.335845
-0.376313
-0.178935
0.267362
1.40572
3.56772
7.15341
10.5343
13.2798
-0.426281
-0.450546
-0.477608
-0.479617
-0.491031
-0.501778
-0.548502
-0.59683
-0.497379
-0.36415
-0.488004
-0.515785
-0.547067
-0.537764
-0.544765
-0.555897
-0.589954
-0.652343
-0.766795
-0.862893
-0.548241
-0.584659
-0.606794
-0.581778
-0.585037
-0.606233
-0.659245
-0.721429
-0.765587
-0.766713
-0.599206
-0.637138
-0.653976
-0.640685
-0.647408
-0.681605
-0.744107
-0.794568
-0.803485
-0.775303
-0.643603
-0.676241
-0.693214
-0.69299
-0.70427
-0.747239
-0.811918
-0.84986
-0.843193
-0.810934
-0.695103
-0.712208
-0.724403
-0.726213
-0.736631
-0.773296
-0.829352
-0.861421
-0.857069
-0.836706
-0.771625
-0.766796
-0.757014
-0.752375
-0.757972
-0.782734
-0.825614
-0.858568
-0.864344
-0.851392
-0.860372
-0.85993
-0.825781
-0.804298
-0.796442
-0.805461
-0.838409
-0.868369
-0.873513
-0.862499
-0.925053
-0.922288
-0.8909
-0.860157
-0.834785
-0.84422
-0.878988
-0.907083
-0.914427
-0.909705
-0.955481
-0.960386
-0.943329
-0.932101
-0.927251
-0.94353
-0.962555
-0.973919
-0.974565
-0.97906
366.232
366.741
367.686
368.923
370.319
371.764
373.109
374.198
374.884
375.059
317.031
317.565
318.587
319.908
321.451
323.06
324.566
325.795
326.586
326.815
267.667
268.265
269.454
271.043
272.87
274.779
276.583
278.073
279.044
279.342
218.169
218.817
220.172
222.133
224.454
226.892
229.204
231.14
232.441
232.874
168.379
169.067
170.821
173.307
176.289
179.479
182.525
185.113
186.896
187.581
118.301
118.927
121.637
124.961
128.776
132.873
136.812
140.221
142.614
143.642
68.239
69.0641
71.9025
75.5924
80.5285
86.0871
91.5873
96.4672
100.01
101.647
22.8383
23.6937
26.5736
30.5279
35.867
41.9877
48.393
54.6964
59.8127
62.3877
1.26757
1.2183
2.13976
3.89481
6.40308
9.77168
14.1903
20.0236
25.8583
28.9744
-0.316753
-0.32363
-0.339385
-0.329607
-0.301034
0.209465
1.70058
2.70861
4.18691
5.25952
-0.415472
-0.438373
-0.454556
-0.452536
-0.457773
-0.467483
-0.49917
-0.545403
-0.608154
-0.647968
-0.4802
-0.511505
-0.529182
-0.516483
-0.519932
-0.532955
-0.572692
-0.617184
-0.657783
-0.68393
-0.538335
-0.580515
-0.59209
-0.571848
-0.572763
-0.58686
-0.633537
-0.68518
-0.721728
-0.7264
-0.585187
-0.624874
-0.641673
-0.63352
-0.635824
-0.661062
-0.71185
-0.760546
-0.783251
-0.772618
-0.627792
-0.660297
-0.679901
-0.681459
-0.68887
-0.720423
-0.772122
-0.811976
-0.82166
-0.804612
-0.686481
-0.700537
-0.711864
-0.713612
-0.72011
-0.746341
-0.790581
-0.823764
-0.832501
-0.826424
-0.772876
-0.771432
-0.755488
-0.747362
-0.748042
-0.764638
-0.799143
-0.829919
-0.84309
-0.842897
-0.869187
-0.871856
-0.832649
-0.80438
-0.790389
-0.797181
-0.827008
-0.85248
-0.860109
-0.858922
-0.939034
-0.936475
-0.895951
-0.866406
-0.848656
-0.855553
-0.879395
-0.89909
-0.903175
-0.907444
-0.968228
-0.96546
-0.947228
-0.934164
-0.929355
-0.943874
-0.958152
-0.966544
-0.969831
-0.987546
363.849
364.424
365.498
366.783
368.224
369.707
371.094
372.224
372.947
373.147
314.466
315.019
316.218
317.608
319.165
320.802
322.35
323.623
324.446
324.691
264.574
265.181
266.55
268.278
270.169
272.125
273.987
275.532
276.54
276.844
214.23
214.766
216.289
218.533
221.015
223.558
225.968
227.988
229.327
229.761
163.451
164.239
165.962
168.622
171.791
175.131
178.329
181.079
182.928
183.6
112.008
112.639
115.281
118.762
122.943
127.371
131.555
135.157
137.603
138.552
60.0478
60.2924
63.7512
67.8006
72.8491
78.335
84.1402
89.5916
93.3992
94.9367
16.26
15.8568
18.3634
22.1712
27.3602
33.6916
39.4442
46.2931
51.5635
53.9131
-0.102066
-0.108382
0.0714233
0.744656
2.26757
4.81611
8.53578
13.3133
19.1197
21.4552
-0.282586
-0.282184
-0.289074
-0.291857
-0.294606
-0.0731082
0.294139
0.319223
0.999957
1.37028
-0.386323
-0.404251
-0.413245
-0.422677
-0.428988
-0.434541
-0.457038
-0.483901
-0.537711
-0.56438
-0.461123
-0.493889
-0.500548
-0.504516
-0.496389
-0.516107
-0.54757
-0.580361
-0.61317
-0.633128
-0.520743
-0.56165
-0.571951
-0.569886
-0.559713
-0.569546
-0.601392
-0.639871
-0.674554
-0.692034
-0.564943
-0.603232
-0.624139
-0.627347
-0.624219
-0.64024
-0.676687
-0.716461
-0.746107
-0.752872
-0.609706
-0.6419
-0.661923
-0.668026
-0.673456
-0.696189
-0.733495
-0.767974
-0.786692
-0.784887
-0.676759
-0.692379
-0.700488
-0.703538
-0.708503
-0.72716
-0.758584
-0.786948
-0.803766
-0.809587
-0.765895
-0.774579
-0.75774
-0.749232
-0.747798
-0.757843
-0.780269
-0.80347
-0.821275
-0.831761
-0.862131
-0.870896
-0.840233
-0.813038
-0.800296
-0.802752
-0.819112
-0.836155
-0.846798
-0.855826
-0.931818
-0.933659
-0.898678
-0.876549
-0.867647
-0.867806
-0.876738
-0.886373
-0.892253
-0.905073
-0.96642
-0.964928
-0.944612
-0.932916
-0.926237
-0.933404
-0.943225
-0.951122
-0.962077
-0.993452
361.307
361.997
363.297
364.608
366.052
367.568
369.005
370.183
370.942
371.17
311.738
312.308
313.843
315.29
316.838
318.483
320.066
321.385
322.246
322.519
261.233
261.847
263.458
265.421
267.382
269.388
271.318
272.931
273.986
274.32
210.033
210.48
212.147
214.696
217.384
220.102
222.664
224.787
226.18
226.645
158.007
158.695
160.516
163.527
167.059
170.694
174.093
177.001
178.97
179.681
105
105.677
108.142
111.917
116.655
121.622
126.322
130.169
132.707
133.601
50.8608
50.8887
54.1176
58.781
65.072
71.3805
77.1968
82.7353
86.9416
88.4507
10.8088
10.3754
11.8311
14.3228
19.4901
26.0954
32.1763
38.4282
43.5538
45.8094
-0.193324
-0.189961
-0.172536
-0.117116
0.229461
1.63382
4.41628
8.68108
14.3496
15.8725
-0.274774
-0.27884
-0.271954
-0.246672
-0.245631
-0.290554
-0.280996
-0.287371
-0.180055
-0.117621
-0.363776
-0.382056
-0.382037
-0.375038
-0.389529
-0.412922
-0.418963
-0.44278
-0.490361
-0.521676
-0.442674
-0.473577
-0.477669
-0.46455
-0.462453
-0.486988
-0.502314
-0.535392
-0.574013
-0.595857
-0.500125
-0.537913
-0.553113
-0.547292
-0.53749
-0.550237
-0.567196
-0.597795
-0.633103
-0.660236
-0.543544
-0.575524
-0.599679
-0.606723
-0.608816
-0.620314
-0.643031
-0.673035
-0.702952
-0.721393
-0.593956
-0.622097
-0.640456
-0.651176
-0.658964
-0.676353
-0.702166
-0.728748
-0.748644
-0.756756
-0.66512
-0.681114
-0.689854
-0.694444
-0.700634
-0.715473
-0.737072
-0.759324
-0.776303
-0.787482
-0.747853
-0.764143
-0.754843
-0.749518
-0.749467
-0.756279
-0.769627
-0.786447
-0.803372
-0.819437
-0.836541
-0.855614
-0.838998
-0.820513
-0.811789
-0.809617
-0.813561
-0.823922
-0.83698
-0.853201
-0.912355
-0.924025
-0.898158
-0.884587
-0.880576
-0.878913
-0.879099
-0.884151
-0.890494
-0.90794
-0.956849
-0.962463
-0.941187
-0.937551
-0.931637
-0.933726
-0.934544
-0.942105
-0.958691
-0.993541
358.974
359.652
361.257
362.566
363.997
365.536
367.023
368.26
369.065
369.326
309.009
309.742
311.427
313.063
314.617
316.285
317.922
319.294
320.197
320.511
257.789
258.568
260.397
262.542
264.619
266.764
268.805
270.494
271.614
271.994
205.61
206.161
208.12
210.81
213.707
216.711
219.528
221.824
223.259
223.767
152.468
152.968