/*--------------------------------*- C++ -*----------------------------------*\
| =========                 |                                                 |
| \\      /  F ield         | OpenFOAM: The Open Source CFD Toolbox           |
|  \\    /   O peration     | Version:  2312                                  |
|   \\  /    A nd           | Website:  www.openfoam.com                      |
|    \\/     M anipulation  |                                                 |
\*---------------------------------------------------------------------------*/
FoamFile
{
    version     2.0;
    format      ascii;
    arch        "LSB;label=32;scalar=64";
    class       volScalarField;
    location    "0.165";
    object      p;
}
// * * * * * * * * * * * * * * * * * * * * * * * * * * * * * * * * * * * * * //

dimensions      [1 -1 -2 0 0 0 0];

internalField   nonuniform List<scalar> 
8000
(
341.531
340.212
337.675
334.125
329.876
325.34
320.995
317.321
314.708
313.389
294.879
293.613
291.174
287.757
283.657
279.268
275.052
271.476
268.926
267.635
250.123
248.948
246.678
243.488
239.643
235.501
231.492
228.065
225.603
224.349
207.277
206.245
204.246
201.422
197.996
194.276
190.641
187.504
185.232
184.071
166.177
165.351
163.745
161.461
158.668
155.605
152.584
149.957
148.049
147.078
126.274
125.712
124.614
123.039
121.089
118.928
116.779
114.906
113.559
112.892
87.7548
87.5267
87.0638
86.3683
85.4684
84.4392
83.4082
82.5307
81.9381
81.6736
49.5541
49.7298
50.0436
50.4289
50.816
51.1749
51.5194
51.8731
52.2149
52.4395
15.1436
15.4678
16.0933
16.9549
17.9291
18.9446
19.9941
21.0999
22.1759
22.7786
-0.182267
-0.122736
0.00753665
0.214834
0.513448
0.886683
1.34155
2.01244
2.93747
3.69339
-0.73123
-0.732482
-0.731048
-0.731023
-0.722313
-0.70267
-0.673847
-0.60714
-0.467843
-0.316429
-0.777029
-0.778928
-0.778904
-0.780131
-0.781808
-0.784745
-0.796422
-0.806936
-0.806026
-0.79797
-0.824664
-0.827339
-0.829947
-0.834042
-0.839817
-0.85009
-0.868371
-0.889616
-0.907279
-0.922938
-0.868352
-0.870648
-0.873761
-0.87809
-0.88277
-0.887244
-0.892753
-0.899763
-0.907251
-0.914106
-0.907896
-0.909368
-0.911693
-0.914774
-0.91798
-0.92021
-0.920428
-0.918731
-0.91669
-0.915868
-0.945108
-0.945938
-0.947451
-0.949385
-0.951357
-0.952945
-0.953537
-0.952476
-0.950101
-0.94768
-0.980976
-0.981369
-0.982184
-0.98318
-0.984105
-0.984753
-0.984988
-0.984669
-0.983805
-0.982788
-1.01618
-1.01624
-1.01646
-1.01667
-1.01671
-1.01647
-1.0159
-1.01506
-1.01415
-1.0134
-1.05128
-1.05111
-1.05088
-1.05049
-1.04987
-1.04898
-1.04786
-1.0466
-1.04543
-1.04457
-1.08671
-1.08638
-1.08584
-1.08504
-1.08395
-1.08261
-1.08111
-1.07959
-1.07828
-1.07735
340.199
338.725
335.875
331.856
326.989
321.718
316.589
312.185
309.013
307.398
293.601
292.183
289.437
285.556
280.841
275.714
270.698
266.364
263.218
261.6
248.936
247.612
245.043
241.397
236.941
232.055
227.227
223.004
219.891
218.261
206.235
205.063
202.781
199.524
195.511
191.064
186.615
182.669
179.714
178.132
165.343
164.395
162.54
159.871
156.55
152.827
149.053
145.67
143.116
141.742
125.707
125.047
123.75
121.864
119.484
116.777
113.996
111.484
109.594
108.605
87.525
87.2362
86.6448
85.7442
84.5594
83.171
81.728
80.4324
79.4732
78.9954
49.732
49.8957
50.1696
50.4767
50.7619
51.0186
51.2754
51.5478
51.7989
51.9592
15.4715
15.8346
16.491
17.3295
18.2936
19.4937
21.1752
23.2269
24.9128
25.4257
-0.121904
-0.0541785
0.0983438
0.334614
0.636252
1.09977
2.13507
4.01635
6.71104
8.58723
-0.732281
-0.737693
-0.736595
-0.739287
-0.7559
-0.795137
-0.831483
-0.834367
-0.770106
-0.581104
-0.778989
-0.783909
-0.787291
-0.797663
-0.818871
-0.860488
-0.927425
-0.988042
-1.01004
-1.00251
-0.827453
-0.831507
-0.836894
-0.8471
-0.86482
-0.896864
-0.945583
-1.00063
-1.04768
-1.07495
-0.870752
-0.873614
-0.877938
-0.884445
-0.893264
-0.905564
-0.923934
-0.949855
-0.979189
-0.999989
-0.909467
-0.911073
-0.913795
-0.917422
-0.921419
-0.925299
-0.929044
-0.933775
-0.940733
-0.94763
-0.94603
-0.946847
-0.948482
-0.950535
-0.952592
-0.954327
-0.955453
-0.955748
-0.955486
-0.955396
-0.981452
-0.981791
-0.982612
-0.983574
-0.984393
-0.984862
-0.984917
-0.984516
-0.983761
-0.983066
-1.01632
-1.01631
-1.01648
-1.01657
-1.01642
-1.0159
-1.01503
-1.01393
-1.01287
-1.0121
-1.05117
-1.05093
-1.05062
-1.05009
-1.04925
-1.04808
-1.04665
-1.04509
-1.0437
-1.04275
-1.08643
-1.08604
-1.0854
-1.08444
-1.08314
-1.08153
-1.07973
-1.0779
-1.07633
-1.07528
337.636
335.849
332.367
327.385
321.234
314.41
307.592
301.584
297.16
294.885
291.137
289.412
286.043
281.207
275.208
268.509
261.754
255.722
251.198
248.847
246.644
245.02
241.839
237.251
231.514
225.038
218.411
212.369
207.707
205.258
204.216
202.761
199.899
195.741
190.491
184.486
178.241
172.424
167.834
165.437
163.721
162.524
160.155
156.683
152.245
147.095
141.657
136.507
132.423
130.393
124.599
123.74
122.029
119.492
116.197
112.299
108.107
104.069
100.872
99.379
87.0581
86.6408
85.7797
84.4514
82.6603
80.4667
78.0252
75.5824
73.6376
72.841
50.0494
50.1735
50.3565
50.5263
50.6376
50.6409
50.4505
50.0298
49.4887
49.3406
16.1025
16.4977
17.1679
18.0681
19.3914
21.5119
24.0512
25.7915
25.5275
23.9957
0.00958914
0.0990631
0.296428
0.586639
1.16175
2.67211
5.54664
9.46021
11.808
10.8659
-0.731121
-0.73735
-0.730648
-0.743918
-0.78878
-0.840039
-0.860296
-0.826731
-0.17418
1.10603
-0.779346
-0.787694
-0.790831
-0.805566
-0.844425
-0.918787
-0.987946
-1.02919
-1.03867
-0.999015
-0.830369
-0.837203
-0.846233
-0.862749
-0.888999
-0.926648
-0.967569
-1.00456
-1.03266
-1.05061
-0.874122
-0.878208
-0.88493
-0.894989
-0.907929
-0.923027
-0.940358
-0.960418
-0.979858
-0.988789
-0.912014
-0.914026
-0.917946
-0.923164
-0.929027
-0.934991
-0.940763
-0.946833
-0.953423
-0.958261
-0.947734
-0.948677
-0.950918
-0.953735
-0.956578
-0.959016
-0.960751
-0.961729
-0.962323
-0.962803
-0.982432
-0.982781
-0.98384
-0.985063
-0.986055
-0.986531
-0.986417
-0.985776
-0.984967
-0.98438
-1.01668
-1.01662
-1.0168
-1.01687
-1.01658
-1.01581
-1.01461
-1.01314
-1.01179
-1.01091
-1.05106
-1.05074
-1.05033
-1.04963
-1.04852
-1.04697
-1.0451
-1.0431
-1.04134
-1.04019
-1.08599
-1.0855
-1.0847
-1.0835
-1.08186
-1.07979
-1.07749
-1.07514
-1.0731
-1.07174
334.047
331.789
327.343
320.873
312.69
303.34
293.694
284.948
278.433
275.156
287.682
285.492
281.167
274.846
266.8
257.513
247.784
238.774
231.935
228.542
243.418
241.338
237.213
231.148
223.354
214.233
204.479
195.175
187.914
184.085
201.361
199.471
195.708
190.129
182.879
174.274
164.881
155.705
148.507
144.66
161.413
159.83
156.656
151.904
145.649
138.116
129.739
121.442
115.156
112.304
123.007
121.836
119.474
115.891
111.086
105.179
98.4732
91.7648
86.9337
85.2699
86.356
85.733
84.4431
82.4233
79.6031
75.9448
71.553
67.0968
64.1698
63.5589
50.4393
50.4857
50.5307
50.5087
50.2858
49.5414
48.0167
45.9479
44.6827
45.2105
16.9724
17.3477
18.0796
19.4259
21.9078
24.7758
26.2398
25.6774
24.6129
24.432
0.217887
0.338337
0.591733
1.22382
3.23287
7.23609
11.3901
13.4795
12.7231
12.3618
-0.73256
-0.740821
-0.743741
-0.79175
-0.842818
-0.85749
-0.696332
-0.13267
0.801848
1.86516
-0.781116
-0.798578
-0.805962
-0.848071
-0.929469
-0.996525
-1.03448
-1.0294
-1.0086
-0.988723
-0.834837
-0.847787
-0.863077
-0.889941
-0.927572
-0.963491
-0.992522
-1.00728
-1.0043
-0.994461
-0.878812
-0.885087
-0.895336
-0.909266
-0.924752
-0.939131
-0.950927
-0.957482
-0.959323
-0.960619
-0.915405
-0.917987
-0.923501
-0.930562
-0.937912
-0.944246
-0.948837
-0.951757
-0.954012
-0.95559
-0.949937
-0.951018
-0.954034
-0.957702
-0.961119
-0.963526
-0.964546
-0.964383
-0.963922
-0.963719
-0.983667
-0.983992
-0.985325
-0.986762
-0.987698
-0.987738
-0.986866
-0.985364
-0.983999
-0.983406
-1.01709
-1.01693
-1.01709
-1.01704
-1.01643
-1.01508
-1.01313
-1.01085
-1.00889
-1.00798
-1.05085
-1.05039
-1.04981
-1.04883
-1.04726
-1.04505
-1.0424
-1.03953
-1.037
-1.03564
-1.08534
-1.08469
-1.08365
-1.08207
-1.07988
-1.07709
-1.07394
-1.07068
-1.06773
-1.06596
329.745
326.867
321.133
312.628
301.574
288.486
274.451
261.319
251.348
246.216
283.531
280.724
275.111
266.74
255.757
242.548
228.052
214.184
203.433
197.384
239.525
236.831
231.423
223.296
212.511
199.294
184.433
169.916
158.019
148.902
197.893
195.413
190.409
182.826
172.651
159.992
145.534
131.267
118.345
104.308
158.585
156.472
152.177
145.604
136.679
125.415
112.405
99.4321
87.155
74.9439
121.034
119.43
116.148
111.052
103.999
94.9153
84.3248
73.7699
64.13
57.1218
85.4459
84.5364
82.6368
79.5838
75.1069
68.9161
61.465
53.9668
46.553
42.5219
50.8317
50.7755
50.6435
50.283
49.1951
46.6607
42.5711
38.2148
34.6497
34.6205
17.957
18.3251
19.415
21.9136
25.0819
26.3361
25.0923
23.4578
24.0011
28.6352
0.518682
0.647967
1.17269
3.23031
8.18239
13.0132
14.8434
13.9224
13.4411
13.1011
-0.725582
-0.758298
-0.788082
-0.843508
-0.847416
-0.295548
0.24388
-0.259856
-0.326759
-0.360598
-0.783348
-0.821633
-0.843956
-0.930508
-1.00142
-1.04098
-1.02123
-0.997112
-0.948364
-0.911673
-0.840854
-0.866164
-0.889728
-0.928193
-0.965853
-0.997399
-1.00499
-0.973548
-0.94866
-0.924282
-0.883865
-0.894378
-0.908729
-0.925228
-0.940262
-0.950951
-0.949509
-0.941143
-0.933956
-0.925823
-0.918989
-0.922426
-0.929825
-0.9384
-0.945723
-0.950145
-0.950732
-0.948507
-0.943451
-0.939536
-0.952241
-0.953452
-0.9573
-0.961579
-0.964717
-0.965695
-0.964322
-0.961383
-0.958767
-0.957125
-0.984893
-0.985138
-0.986685
-0.988101
-0.98848
-0.987329
-0.984783
-0.981456
-0.978943
-0.978121
-1.0174
-1.01706
-1.01712
-1.01677
-1.01551
-1.0131
-1.00976
-1.00584
-1.00251
-1.00145
-1.05046
-1.04979
-1.04897
-1.04754
-1.04526
-1.04199
-1.03803
-1.03361
-1.02947
-1.02759
-1.08444
-1.08359
-1.08221
-1.08009
-1.07712
-1.07324
-1.0688
-1.06408
-1.05951
-1.05665
325.143
321.526
314.232
303.192
288.393
270.117
249.556
229.027
211.26
199.885
279.078
275.529
268.337
257.367
242.456
223.576
201.614
178.603
155.944
139.543
235.323
231.881
224.874
214.093
199.202
179.891
156.918
131.353
103.809
85.0455
194.118
190.908
184.336
174.142
159.902
141.299
119.231
93.7823
63.2312
28.5293
155.478
152.699
146.969
138
125.331
108.778
89.3171
65.5969
36.3252
7.21234
118.842
116.688
112.207
105.089
94.8493
81.4015
65.8226
45.9761
22.144
5.70931
84.4038
83.1317
80.4199
75.8918
68.8767
59.2284
47.8217
31.6141
13.0901
3.13725
51.1979
51.0376
50.6459
49.529
46.648
41.1916
34.2327
24.6885
10.8368
1.36093
18.9879
19.544
21.5522
24.7838
26.3363
24.6063
22.165
17.1749
2.33053
11.1941
0.899687
1.12167
2.69356
7.22353
12.9799
15.232
14.3032
11.3953
2.80122
0.315321
-0.706035
-0.799386
-0.841771
-0.861007
-0.310288
0.64857
-0.222056
-0.619741
-0.771114
-0.646861
-0.785583
-0.867141
-0.921147
-0.998771
-1.04194
-1.016
-0.994489
-0.902123
-0.856506
-0.774724
-0.851255
-0.899943
-0.928739
-0.964864
-0.99797
-1.00682
-0.96486
-0.895473
-0.866517
-0.839534
-0.888496
-0.907391
-0.924572
-0.940271
-0.951538
-0.947466
-0.932903
-0.914485
-0.902904
-0.88922
-0.921559
-0.926852
-0.936441
-0.945462
-0.950926
-0.950911
-0.945871
-0.935035
-0.930201
-0.923214
-0.954198
-0.955666
-0.960318
-0.964655
-0.966426
-0.964645
-0.959701
-0.95322
-0.950701
-0.948871
-0.985886
-0.986012
-0.987648
-0.988713
-0.987962
-0.984861
-0.979821
-0.97353
-0.969538
-0.969376
-1.01746
-1.01689
-1.01675
-1.01589
-1.01362
-1.00959
-1.00414
-0.997332
-0.990408
-0.990103
-1.04983
-1.04891
-1.04774
-1.0457
-1.0424
-1.03762
-1.03173
-1.02489
-1.01602
-1.01429
-1.08331
-1.0822
-1.0804
-1.07758
-1.07353
-1.06815
-1.06183
-1.05511
-1.04611
-1.0419
320.722
316.315
307.319
293.432
274.23
249.436
219.733
186.654
153.752
132.162
274.789
270.433
261.488
247.526
227.832
201.504
167.831
124.749
76.2611
47.2709
231.244
226.976
218.156
204.227
184.21
156.802
119.612
67.7957
13.8564
15.0335
190.419
186.387
178.005
164.639
145.311
119.104
82.06
33.4225
7.72604
9.10299
152.404
148.864
141.455
129.522
112.192
89.1832
56.3305
16.4254
6.369
7.58586
116.656
113.863
107.955
98.2996
84.1484
65.6945
40.271
9.82262
5.90449
6.79252
83.3593
81.6701
77.9473
71.4487
61.3611
47.7496
28.2548
5.88535
4.88841
4.84925
51.5564
51.3071
50.4576
47.9966
42.5671
34.3009
23.2649
7.89716
3.41186
2.50862
20.068
21.2757
24.1277
26.261
25.1602
22.3166
18.1121
4.06941
0.639778
0.878029
1.36992
2.19982
5.62792
11.4112
14.8722
14.3086
9.88809
0.4763
0.074046
0.307089
-0.67688
-0.837635
-0.865843
-0.702153
0.22336
-0.233218
-0.56878
-0.629655
-0.520028
-0.393816
-0.799793
-0.93469
-0.993104
-1.03866
-1.02238
-0.992691
-0.887389
-0.759431
-0.64148
-0.615857
-0.870958
-0.952094
-0.971632
-0.995185
-1.00674
-0.96475
-0.879965
-0.831578
-0.795422
-0.768613
-0.894299
-0.927496
-0.943245
-0.953076
-0.950958
-0.933508
-0.908278
-0.887758
-0.88133
-0.860802
-0.921943
-0.931328
-0.943171
-0.951128
-0.952748
-0.947252
-0.93281
-0.921698
-0.925645
-0.914962
-0.955132
-0.95736
-0.962812
-0.966605
-0.966161
-0.960928
-0.951929
-0.942082
-0.944225
-0.945845
-0.986491
-0.986539
-0.988144
-0.988614
-0.986359
-0.980848
-0.972585
-0.961119
-0.956446
-0.963616
-1.01723
-1.01641
-1.01604
-1.01457
-1.01104
-1.00496
-0.996819
-0.985756
-0.975817
-0.980245
-1.04899
-1.04779
-1.04626
-1.04351
-1.03899
-1.03231
-1.02417
-1.01494
-1.00351
-1.00074
-1.08205
-1.08065
-1.07838
-1.07475
-1.06944
-1.0622
-1.05377
-1.04516
-1.03392
-1.02409
316.966
311.818
301.196
284.537
260.914
228.751
186.592
136.021
89.0767
77.5805
271.133
266.008
255.343
238.366
213.78
178.377
124.871
58.7059
24.2477
25.6079
227.74
222.663
212
194.769
169.493
131.053
67.8957
13.8557
13.7746
13.885
187.21
182.357
172.077
155.315
130.84
93.3658
33.4246
8.03799
8.50859
8.45064
149.715
145.407
136.204
121.088
99.0138
65.1463
16.4029
7.01594
6.99024
7.19631
114.741
111.296
103.835
91.4659
73.3994
45.5533
9.89538
7.00647
6.52716
6.73716
82.4696
80.3538
75.4613
66.9054
53.6866
31.2798
5.84638
5.88629
5.45803
5.53036
51.9367
51.6029
50.0351
45.9066
38.1959
24.8525
7.85758
3.59171
3.81538
3.76639
21.2486
23.4288
25.8913
25.6983
23.5972
17.6504
4.26344
0.821947
1.53312
1.30374
2.10173
4.21766
9.65954
13.5241
13.9204
11.1456
0.44664
0.161601
0.327445
0.248098
-0.605082
-0.838741
-0.822295
-0.104202
-0.255789
-0.612502
-0.631146
-0.44243
-0.329096
-0.247832
-0.813025
-0.998446
-1.03641
-1.03346
-0.997084
-0.897606
-0.761334
-0.630779
-0.655337
-0.586764
-0.894734
-1.01232
-1.01082
-1.01149
-0.97613
-0.896077
-0.834281
-0.791749
-0.80669
-0.760856
-0.90242
-0.957055
-0.965597
-0.961172
-0.943716
-0.916846
-0.890938
-0.878367
-0.909986
-0.865198
-0.92033
-0.937349
-0.950678
-0.955577
-0.952381
-0.93839
-0.925843
-0.916417
-0.943174
-0.910851
-0.954235
-0.958231
-0.964695
-0.967619
-0.964769
-0.956531
-0.946384
-0.929123
-0.928677
-0.921578
-0.986515
-0.986634
-0.9882
-0.988066
-0.984351
-0.976368
-0.965225
-0.943023
-0.912485
-0.92701
-1.01672
-1.01572
-1.01513
-1.01305
-1.00825
-0.999769
-0.988612
-0.971864
-0.916423
-0.939093
-1.04802
-1.04657
-1.04468
-1.04123
-1.03539
-1.02648
-1.01482
-1.00683
-0.950898
-0.968928
-1.08077
-1.0791
-1.07635
-1.07188
-1.06518
-1.05581
-1.0439
-1.03697
-1.00227
-0.999886
314.272
308.548
296.639
277.823
250.639
210.647
153.449
88.4356
54.3931
70.8088
268.503
262.766
250.686
231.322
202.698
155.364
76.5246
24.3624
30.2747
35.8916
225.199
219.455
207.203
187.296
157.204
102.768
13.7484
13.6609
15.7775
17.9787
184.863
179.308
167.354
147.927
117.521
61.9971
7.56836
8.42984
9.12114
9.07124
147.741
142.769
131.998
114.636
86.3437
35.2355
6.32521
6.97237
7.35171
7.50657
113.346
109.342
100.533
86.4686
63.4842
21.498
5.83135
6.48585
6.60867
6.90444
81.8646
79.3701
73.4619
63.8551
46.0745
13.0012
5.06138
5.56185
5.66887
5.73947
52.313
51.8828
49.4795
44.5862
34.5898
11.5704
3.66715
3.93452
3.94364
3.9569
22.4484
25.2426
25.5967
24.5888
24.1601
3.51166
0.705053
1.26531
0.957837
1.55577
3.15801
7.23056
12.0921
12.8143
13.4329
2.59544
0.109919
0.274598
0.122575
0.308919
-0.449803
-0.752718
-0.0982091
0.823386
-0.344091
-0.726496
-0.513518
-0.309385
-0.0741652
-0.169911
-0.812966
-1.0196
-1.04421
-1.01331
-0.946857
-0.846837
-0.645186
-0.6516
-0.332277
-0.491267
-0.913828
-1.06263
-1.03893
-1.0066
-0.949157
-0.866757
-0.801826
-0.808133
-0.823138
-0.740032
-0.911732
-0.990941
-0.987356
-0.966305
-0.938578
-0.907314
-0.888986
-0.908667
-1.07949
-0.898086
-0.918757
-0.946635
-0.95923
-0.959803
-0.948937
-0.935584
-0.932478
-0.927904
-1.02695
-0.947259
-0.951653
-0.958534
-0.96626
-0.968451
-0.963788
-0.955352
-0.948611
-0.905363
-0.925703
-0.93466
-0.98587
-0.986303
-0.988077
-0.987683
-0.983152
-0.973024
-0.962867
-0.900341
-0.881331
-0.912741
-1.01613
-1.01505
-1.01433
-1.01187
-1.00613
-0.994686
-0.984297
-0.940005
-0.885684
-0.911558
-1.04713
-1.04549
-1.04334
-1.0393
-1.03239
-1.02068
-1.00993
-0.98555
-0.918646
-0.930884
-1.07969
-1.07778
-1.07462
-1.06938
-1.06141
-1.04932
-1.03673
-1.01388
-0.96605
-0.961769
312.881
306.843
294.227
274.31
245.089
198.676
131.046
75.5526
69.5698
58.1407
267.14
261.057
248.194
227.674
196.185
138.202
47.04
25.4717
35.1514
32.5991
223.873
217.731
204.609
183.229
147.615
83.0054
14.8056
13.728
17.7837
19.8509
183.63
177.633
164.821
143.875
102.895
26.6062
9.02279
8.33504
8.97261
9.69296
146.706
141.31
129.847
111.643
73.6607
5.59787
7.42348
7.10172
7.48077
7.72213
112.63
108.282
98.9288
84.6833
55.9628
3.67229
6.20813
6.65047
6.89052
7.07449
81.5798
78.8541
72.6028
63.2532
42.2513
2.61373
4.65102
5.64292
5.81768
5.88764
52.5533
52.0426
49.2836
45.0993
34.6826
0.618333
3.03705
4.03941
4.12832
4.08134
23.1364
25.7739
23.9718
24.3015
29.1182
13.8865
1.28731
1.48044
1.84374
1.91734
4.01745
9.12495
10.9321
12.1033
14.087
0.323391
0.366093
0.244319
0.292179
0.633863
-0.287664
-0.551793
1.11176
1.56543
-0.439278
-0.618452
-0.375231
-0.257209
-0.20733
-0.0205003
-0.803036
-1.00771
-1.00315
-0.999316
-0.915614
-0.762909
-0.627539
-0.572942
-0.495391
-0.396269
-0.932597
-1.08371
-1.0542
-0.999602
-0.925681
-0.842226
-0.781714
-0.759009
-0.729657
-0.643487
-0.920904
-1.01264
-0.996345
-0.967156
-0.932541
-0.898617
-0.881401
-0.877206
-0.903635
-0.80534
-0.919143
-0.955657
-0.965628
-0.963058
-0.947451
-0.935589
-0.938994
-0.933301
-0.967213
-0.885995
-0.949883
-0.959108
-0.967596
-0.969523
-0.964425
-0.959352
-0.963735
-0.938823
-0.939979
-0.908396
-0.985148
-0.985974
-0.988065
-0.98804
-0.984063
-0.977314
-0.975775
-0.937639
-0.911482
-0.90195
-1.01568
-1.01462
-1.01389
-1.01161
-1.00607
-0.996459
-0.98855
-0.956233
-0.910291
-0.901499
-1.04651
-1.0448
-1.04251
-1.03835
-1.03083
-1.01848
-1.00434
-0.982924
-0.931675
-0.916216
-1.07897
-1.07693
-1.07351
-1.06788
-1.0587
-1.04409
-1.02488
-0.997896
-0.961655
-0.944059
312.884
306.84
294.205
274.238
244.934
198.537
130.942
74.4388
67.5257
58.5336
267.142
261.053
248.169
227.589
196.039
138.183
46.8802
24.4081
34.4863
32.6676
223.873
217.724
204.579
183.141
147.466
82.7508
14.0293
13.351
17.3179
19.1405
183.628
177.622
164.79
143.79
102.573
26.2885
8.74476
8.24138
8.81764
9.38791
146.701
141.294
129.81
111.538
73.211
5.38231
7.35167
7.12073
7.45267
7.74845
112.621
108.262
98.8878
84.5803
55.4166
2.58551
5.54134
6.61129
6.86853
7.12521
81.5673
78.83
72.5588
63.2328
42.3863
2.77022
4.82668
5.6661
5.84316
5.9056
52.5358
52.0125
49.2248
45.0324
34.7237
1.10456
3.69697
4.23169
4.2587
4.11916
23.1025
25.671
23.733
24.1012
28.9116
15.2051
1.4707
1.70171
2.11084
2.02892
4.03146
9.09057
10.7448
11.7697
12.9271
0.339644
0.393618
0.276728
0.648209
0.7207
-0.280698
-0.538665
1.21459
1.5583
-0.509658
-0.603473
-0.376588
-0.309951
-0.329684
-0.00278183
-0.803983
-1.00943
-1.0027
-1.00571
-0.92435
-0.756959
-0.62887
-0.585313
-0.571919
-0.415667
-0.932863
-1.08618
-1.05508
-1.00082
-0.926055
-0.840155
-0.781224
-0.74933
-0.723171
-0.65737
-0.920641
-1.0128
-0.996093
-0.966994
-0.932557
-0.898383
-0.881648
-0.877898
-0.886772
-0.819091
-0.918987
-0.955522
-0.965511
-0.963396
-0.948026
-0.937636
-0.942997
-0.947914
-0.979051
-0.904025
-0.949864
-0.959059
-0.967628
-0.969838
-0.965391
-0.962794
-0.969571
-0.963349
-0.95904
-0.922896
-0.985043
-0.985889
-0.988034
-0.988224
-0.984732
-0.979673
-0.97794
-0.960708
-0.92344
-0.911035
-1.01552
-1.01446
-1.01372
-1.01149
-1.00587
-0.996157
-0.98533
-0.960441
-0.915802
-0.905646
-1.04631
-1.04458
-1.04222
-1.03794
-1.02993
-1.01642
-0.999262
-0.970306
-0.930374
-0.918619
-1.07874
-1.07667
-1.07315
-1.06731
-1.05755
-1.04175
-1.0214
-0.992192
-0.958446
-0.946406
314.297
308.571
296.656
277.826
250.624
210.74
153.944
88.5538
53.6446
73.6711
268.525
262.785
250.698
231.315
202.621
155.374
77.4745
23.6413
29.7976
36.8518
225.215
219.467
207.206
187.276
157.026
102.388
13.3865
13.3412
15.3938
17.7715
184.873
179.313
167.352
147.918
117.417
62.138
7.54307
8.42756
9.12574
9.11643
147.743
142.764
131.985
114.622
86.284
35.5274
6.27815
6.98824
7.40862
7.58293
113.338
109.327
100.509
86.4468
63.3717
21.7257
5.68552
6.45243
6.64308
6.96219
81.8453
79.3415
73.417
63.8231
45.9973
12.6209
5.22661
5.7208
5.68432
5.73788
52.2854
51.8448
49.4074
44.476
34.3435
10.8317
3.73383
3.85117
3.88642
3.9272
22.4103
25.1821
25.4117
24.3969
23.88
3.08027
0.653781
1.24256
0.948031
1.5756
3.16325
7.31147
12.0066
12.6799
13.3285
2.59362
0.13428
0.358217
0.0258486
0.201821
-0.448831
-0.751088
-0.0446002
0.87739
-0.34833
-0.69954
-0.507316
-0.309081
-0.185762
-0.248063
-0.815758
-1.02412
-1.04828
-1.0175
-0.952785
-0.840377
-0.65328
-0.610204
-0.346884
-0.51833
-0.915099
-1.06365
-1.04132
-1.00754
-0.949588
-0.862249
-0.795226
-0.7639
-0.623678
-0.729972
-0.911175
-0.989601
-0.986898
-0.965882
-0.937962
-0.904661
-0.884668
-0.885879
-1.02612
-0.895174
-0.918485
-0.945577
-0.958701
-0.959891
-0.949502
-0.937022
-0.938377
-0.948189
-1.05215
-0.960916
-0.951568
-0.958255
-0.9661
-0.968703
-0.965011
-0.959114
-0.959654
-0.950832
-0.978846
-0.946223
-0.985511
-0.98593
-0.987759
-0.98763
-0.983866
-0.976406
-0.969383
-0.945985
-0.924905
-0.917813
-1.01563
-1.0145
-1.01371
-1.01121
-1.00541
-0.994688
-0.980785
-0.952073
-0.910478
-0.906106
-1.04652
-1.0448
-1.04244
-1.03805
-1.03026
-1.01715
-0.999981
-0.970331
-0.922136
-0.919353
-1.07902
-1.07699
-1.07356
-1.06781
-1.05863
-1.04429
-1.02589
-0.998788
-0.952973
-0.947318
317.019
311.875
301.264
284.626
261.053
229.038
187.164
136.879
90.6839
80.9654
271.182
266.061
255.405
238.448
213.897
178.612
125.504
59.2407
23.3753
24.6634
227.78
222.707
212.051
194.841
169.577
131.179
68.3844
13.5664
13.4381
13.4306
187.24
182.389
172.118
155.385
130.944
93.6359
34.2951
8.05064
8.56031
8.53808
149.731
145.424
136.226
121.141
99.1182
65.4624
17.2731
7.04412
7.10165
7.41784
114.74
111.294
103.833
91.4895
73.435
45.6209
10.508
7.07043
6.60495
6.81558
82.4499
80.3274
75.4237
66.8764
53.6596
31.1327
6.30112
5.98805
5.40358
5.4645
51.8999
51.5503
49.9526
45.8033
38.0432
24.3573
7.29339
3.47061
3.79675
3.66272
21.1977
23.3322
25.7303
25.5318
23.4547
17.6127
4.21267
0.978494
1.73844
1.21905
2.07478
4.16109
9.53487
13.4027
13.8188
10.9391
0.343439
0.242097
0.343949
0.190781
-0.611935
-0.841219
-0.829704
-0.128656
-0.266437
-0.612574
-0.63283
-0.421653
-0.373132
-0.290038
-0.815144
-0.999786
-1.03869
-1.03843
-1.00102
-0.898188
-0.77001
-0.623788
-0.653553
-0.600169
-0.894353
-1.01065
-1.01037
-1.01102
-0.977216
-0.895305
-0.832064
-0.779226
-0.786598
-0.764194
-0.901695
-0.954979
-0.964114
-0.960201
-0.942714
-0.915612
-0.889109
-0.873045
-0.894694
-0.868689
-0.920106
-0.936546
-0.94995
-0.955339
-0.953066
-0.939735
-0.929634
-0.925879
-0.949081
-0.91758
-0.953829
-0.957758
-0.964253
-0.967513
-0.965477
-0.958937
-0.952774
-0.946527
-0.949761
-0.924075
-0.985834
-0.985944
-0.987524
-0.987559
-0.984333
-0.977574
-0.968448
-0.953657
-0.939134
-0.91942
-1.01589
-1.01483
-1.0141
-1.01187
-1.00683
-0.998015
-0.985347
-0.966583
-0.938245
-0.922975
-1.04707
-1.04549
-1.04333
-1.03941
-1.03267
-1.02202
-1.00704
-0.986842
-0.950979
-0.940614
-1.07973
-1.0779
-1.07481
-1.06971
-1.06178
-1.05009
-1.03416
-1.01593
-0.978496
-0.970355
320.803
316.404
307.428
293.576
274.435
249.751
220.194
187.241
154.58
132.969
274.864
270.517
261.59
247.66
228.02
201.788
168.187
124.97
76.4171
47.7633
231.309
227.048
218.246
204.346
184.38
157.064
119.954
67.9125
13.4229
14.5801
190.47
186.444
178.079
164.745
145.473
119.376
82.5407
33.8902
7.76054
9.0978
152.436
148.901
141.504
129.597
112.316
89.3968
56.6826
16.7021
6.49973
7.76539
116.666
113.875
107.973
98.3347
84.2205
65.7962
40.3782
9.95927
5.99277
6.80077
83.3452
81.6508
77.9215
71.4265
61.3633
47.7742
28.398
6.21251
4.65697
4.65533
51.52
51.2539
50.3779
47.9037
42.4806
34.151
22.9195
7.35029
3.40063
2.25869
20.024
21.1819
23.9619
26.1045
25.1005
22.3611
18.1949
3.91276
0.608977
0.859767
1.34498
2.13688
5.4513
11.2071
14.8396
14.3047
9.68143
0.436765
0.0386473
0.261031
-0.685257
-0.836848
-0.863955
-0.73397
0.152171
-0.257693
-0.573436
-0.619172
-0.522663
-0.414426
-0.801281
-0.932236
-0.990471
-1.04014
-1.02821
-0.993967
-0.890274
-0.755867
-0.642641
-0.626081
-0.870012
-0.948802
-0.969245
-0.993004
-1.0054
-0.965011
-0.880293
-0.826212
-0.789933
-0.771843
-0.893792
-0.925621
-0.941433
-0.951444
-0.949849
-0.931723
-0.906787
-0.883802
-0.874099
-0.861063
-0.921692
-0.930634
-0.942231
-0.950354
-0.952528
-0.948098
-0.933852
-0.922684
-0.922963
-0.91328
-0.954481
-0.956616
-0.961984
-0.965899
-0.965861
-0.96146
-0.953726
-0.94576
-0.945372
-0.938692
-0.985547
-0.985546
-0.98707
-0.987527
-0.985369
-0.980178
-0.972407
-0.962427
-0.956716
-0.950818
-1.01612
-1.0152
-1.01464
-1.0129
-1.00897
-1.00227
-0.992853
-0.980598
-0.9691
-0.962112
-1.04773
-1.04639
-1.04456
-1.04132
-1.03593
-1.02782
-1.01701
-1.00347
-0.988405
-0.979407
-1.08069
-1.07913
-1.07651
-1.07227
-1.06588
-1.0569
-1.04549
-1.03213
-1.01622
-1.00453
325.248
321.642
314.371
303.368
288.627
270.438
249.987
229.596
212.059
200.905
279.177
275.637
268.468
257.533
242.673
223.871
201.99
179.021
156.6
140.742
235.409
231.977
224.99
214.24
199.397
180.161
157.261
131.742
104.633
86.0464
194.187
190.986
184.431
174.266
160.071
141.541
119.531
94.1264
63.6996
28.1451
155.525
152.752
147.036
138.09
125.453
108.951
89.5095
65.7728
36.483
7.39656
118.863
116.712
112.239
105.136
94.9178
81.5113
65.9248
45.9963
22.2952
6.13715
84.3988
83.124
80.4076
75.8815
68.8792
59.2594
47.8912
31.6673
13.0991
3.47932
51.1682
50.9984
50.5821
49.4474
46.573
41.119
34.0683
24.2138
9.67979
1.56815
18.9531
19.4946
21.4214
24.6018
26.2098
24.569
22.1203
17.1122
1.56642
8.77926
0.883576
1.09992
2.5831
6.95952
12.7602
15.2142
14.2701
11.6017
2.96519
0.317091
-0.713026
-0.799024
-0.83835
-0.865583
-0.375608
0.61423
-0.215098
-0.629764
-0.798899
-0.67438
-0.788024
-0.86461
-0.915094
-0.995914
-1.04618
-1.02152
-1.00039
-0.904887
-0.876226
-0.800442
-0.851061
-0.897082
-0.925766
-0.962336
-0.996795
-1.00735
-0.96718
-0.897301
-0.872027
-0.848356
-0.888289
-0.906081
-0.922897
-0.938525
-0.950026
-0.946175
-0.931445
-0.913647
-0.90268
-0.891989
-0.921082
-0.926068
-0.935326
-0.944278
-0.949995
-0.950564
-0.946562
-0.935044
-0.929141
-0.922914
-0.953317
-0.954685
-0.95918
-0.963469
-0.965371
-0.963944
-0.959493
-0.953212
-0.949375
-0.945161
-0.98474
-0.984789
-0.986275
-0.987207
-0.986359
-0.983233
-0.978191
-0.971882
-0.966698
-0.962356
-1.01613
-1.01545
-1.01509
-1.01395
-1.01126
-1.00666
-1.0004
-0.992759
-0.985275
-0.979807
-1.04834
-1.04728
-1.04583
-1.04335
-1.03935
-1.03354
-1.02613
-1.01733
-1.00792
-1.00155
-1.08173
-1.08047
-1.07835
-1.07501
-1.07013
-1.06353
-1.05545
-1.04624
-1.03593
-1.02897
329.869
327.002
321.292
312.825
301.827
288.818
274.892
261.917
252.187
247.323
283.647
280.851
275.261
266.926
255.995
242.859
228.461
214.727
204.19
198.381
239.628
236.944
231.556
223.462
212.724
199.573
184.799
170.391
158.661
149.541
197.977
195.506
190.519
182.964
172.831
160.23
145.838
131.625
118.79
104.578
158.645
156.538
152.257
145.706
136.813
125.593
112.633
99.6938
87.487
75.3008
121.066
119.466
116.192
111.11
104.08
95.0298
84.4886
73.9718
64.3889
57.5883
85.4493
84.5401
82.6397
79.5883
75.1221
68.9517
61.5431
54.1228
46.8602
43.0547
50.8071
50.7492
50.6041
50.224
49.1325
46.6064
42.5157
38.1518
34.5427
34.4998
17.9222
18.2969
19.3549
21.7728
24.9203
26.2103
24.9625
23.3367
23.8303
28.0681
0.502931
0.639991
1.13969
3.09896
7.96303
12.8721
14.7712
13.8937
13.3823
12.4406
-0.730106
-0.759283
-0.785333
-0.840049
-0.846602
-0.32632
0.259089
-0.248334
-0.321299
-0.343769
-0.785201
-0.820704
-0.840525
-0.92587
-1.00055
-1.04465
-1.02772
-1.00712
-0.963337
-0.930362
-0.841149
-0.864803
-0.887592
-0.925696
-0.964258
-0.997324
-1.00658
-0.977222
-0.956857
-0.936055
-0.883625
-0.893468
-0.907307
-0.923548
-0.938659
-0.949675
-0.948515
-0.94064
-0.935501
-0.929263
-0.918292
-0.921522
-0.928625
-0.936994
-0.944318
-0.948986
-0.950031
-0.948532
-0.943015
-0.939968
-0.951198
-0.952307
-0.955964
-0.960083
-0.963158
-0.964201
-0.962932
-0.95998
-0.956796
-0.954683
-0.983592
-0.983746
-0.985112
-0.986329
-0.986508
-0.985157
-0.982355
-0.978652
-0.975286
-0.97313
-1.0159
-1.01546
-1.0153
-1.01466
-1.01301
-1.01009
-1.00609
-1.00141
-0.997108
-0.994365
-1.04881
-1.04802
-1.04694
-1.04514
-1.0423
-1.03827
-1.03329
-1.02772
-1.02251
-1.01916
-1.0827
-1.08172
-1.08007
-1.07753
-1.07392
-1.06918
-1.06358
-1.05752
-1.05179
-1.04799
334.185
331.938
327.515
321.082
312.952
303.674
294.122
285.501
279.145
276.024
287.812
285.633
281.33
275.044
267.048
257.828
248.187
239.293
232.606
229.363
243.535
241.463
237.359
231.326
223.576
214.516
204.84
195.637
188.506
184.77
201.457
199.575
195.829
190.278
183.066
174.514
165.185
156.088
148.988
145.217
161.483
159.906
156.745
152.015
145.792
138.301
129.974
121.741
115.54
112.763
123.047
121.88
119.527
115.958
111.176
105.301
98.6393
92.0014
87.277
85.7188
86.3655
85.7447
84.4577
82.4419
79.63
75.9886
71.6261
67.2295
64.4084
63.8897
50.4166
50.4649
50.5074
50.4753
50.2417
49.4954
47.9768
45.9311
44.7074
45.2201
16.9339
17.3175
18.0487
19.3611
21.7807
24.6204
26.093
25.5483
24.5365
24.3654
0.206037
0.327245
0.581895
1.18452
3.12417
7.05441
11.227
13.3575
12.5646
12.2605
-0.734652
-0.742375
-0.743862
-0.789255
-0.839748
-0.861066
-0.704649
-0.155028
0.782491
2.00012
-0.782418
-0.798542
-0.805656
-0.84553
-0.92507
-0.994902
-1.03628
-1.03602
-1.01851
-1.00095
-0.835115
-0.84721
-0.861896
-0.888066
-0.925459