/*--------------------------------*- C++ -*----------------------------------*\
| =========                 |                                                 |
| \\      /  F ield         | OpenFOAM: The Open Source CFD Toolbox           |
|  \\    /   O peration     | Version:  2312                                  |
|   \\  /    A nd           | Website:  www.openfoam.com                      |
|    \\/     M anipulation  |                                                 |
\*---------------------------------------------------------------------------*/
FoamFile
{
    version     2.0;
    format      ascii;
    arch        "LSB;label=32;scalar=64";
    class       surfaceScalarField;
    location    "1.04";
    object      alphaPhi0.water;
}
// * * * * * * * * * * * * * * * * * * * * * * * * * * * * * * * * * * * * * //

dimensions      [0 3 -1 0 0 0 0];

oriented        oriented;

internalField   nonuniform List<scalar> 
22600
(
1.53876e-08
-4.17674e-08
2.63798e-08
6.08882e-08
-2.2045e-08
-2.34553e-08
1.27417e-07
-2.07049e-08
-4.58238e-08
1.53431e-07
-1.85068e-08
-7.50721e-09
1.40089e-07
-9.51006e-09
2.28525e-08
9.44774e-08
1.12607e-08
3.43508e-08
3.02876e-08
3.20014e-08
3.21883e-08
-3.47461e-08
4.29601e-08
2.20738e-08
-8.81721e-08
4.25728e-08
1.08532e-08
3.25051e-08
-2.16806e-09
-1.49421e-08
-7.2462e-09
-1.95786e-08
8.85787e-09
4.39519e-09
-5.02397e-08
5.6702e-08
2.65623e-08
-9.5111e-08
7.81836e-08
3.5662e-08
-7.56504e-08
6.52176e-08
2.52302e-08
-2.17744e-08
2.95413e-08
4.18184e-08
5.11852e-09
-2.00718e-08
6.80694e-08
1.35453e-08
-7.05099e-08
8.10731e-08
1.23252e-08
-1.06943e-07
6.60504e-08
1.29557e-08
3.46618e-08
8.64022e-09
9.11306e-08
-1.61555e-07
6.31781e-08
9.33745e-08
-1.69679e-07
1.7183e-07
7.30563e-08
-2.1099e-08
6.79796e-08
9.406e-08
5.34872e-08
-3.88289e-08
1.01797e-07
5.334e-08
-3.58471e-08
7.24133e-08
6.39544e-08
7.24789e-09
3.72107e-09
9.49915e-08
4.17703e-08
-8.48776e-08
1.0617e-07
6.35012e-08
-1.40887e-07
1.29584e-08
1.09102e-07
-1.59113e-07
1.62145e-07
2.72776e-07
-6.15027e-07
1.80697e-07
2.55411e-07
-6.28046e-07
4.75732e-07
1.08716e-07
-2.71391e-07
3.96987e-07
8.47002e-08
-1.0505e-07
1.82554e-07
1.11409e-07
-3.11902e-08
5.78215e-08
7.02152e-08
3.48893e-08
7.02582e-08
-5.86043e-08
9.28891e-08
1.30922e-07
-1.86563e-07
1.89175e-08
2.15212e-07
-1.87508e-07
-3.27198e-07
3.41101e-07
-6.31201e-07
4.08049e-07
5.33996e-07
-1.54412e-06
3.95095e-07
5.03447e-07
-1.33455e-06
7.37057e-07
1.80643e-07
-6.13534e-07
6.64947e-07
1.99553e-08
-4.12934e-07
4.68572e-07
1.62594e-08
-3.14397e-07
2.86903e-07
-2.00442e-08
-1.92613e-07
2.63806e-07
-1.06914e-07
-1.44196e-07
3.23955e-07
-1.22054e-07
-3.63336e-07
3.97394e-07
-7.91799e-08
-7.97919e-07
4.27847e-07
-9.60292e-07
3.64406e-07
3.38265e-07
-2.64135e-06
7.58846e-07
2.58063e-07
-2.14877e-06
8.94494e-07
5.4545e-08
-1.26934e-06
8.59327e-07
-1.66522e-08
-1.10031e-06
7.58575e-07
5.99547e-08
-9.74769e-07
5.83765e-07
1.20323e-07
-7.7225e-07
5.19269e-07
1.46434e-07
-6.48074e-07
4.77767e-07
1.70708e-07
-7.84602e-07
3.96992e-07
7.41761e-08
-9.93017e-07
2.9163e-07
-9.65837e-07
2.25428e-07
-7.28131e-08
-3.32948e-06
7.60733e-07
-8.16226e-08
-2.85053e-06
7.10659e-07
-1.0777e-07
-2.22742e-06
9.84241e-07
2.93639e-08
-2.06067e-06
8.23232e-07
3.01102e-07
-1.7112e-06
4.647e-07
4.78037e-07
-1.19312e-06
2.43948e-07
4.85881e-07
-8.16659e-07
1.60749e-07
2.9437e-07
-7.19531e-07
1.26451e-07
-4.62777e-08
-7.31399e-07
7.9067e-08
-7.63577e-07
4.49859e-08
-3.79646e-08
-3.51728e-06
2.26674e-07
4.83305e-08
-3.12811e-06
1.92146e-07
4.89717e-08
-2.82565e-06
5.9812e-07
1.95146e-07
-2.55907e-06
3.52662e-07
4.09152e-07
-1.96871e-06
4.39497e-08
3.4297e-07
-1.14246e-06
1.60933e-08
-2.66291e-09
-5.18705e-07
4.81935e-08
-4.02604e-07
-2.33314e-07
-4.68011e-08
-5.79603e-07
-2.092e-07
-2.29016e-07
-2.57875e-07
-3.68231e-07
1.7314e-07
-3.3861e-06
3.19105e-08
6.23978e-07
-3.24751e-06
-1.48602e-07
7.8476e-07
-3.01029e-06
1.6025e-07
6.50497e-07
-2.68199e-06
3.99172e-07
2.47874e-07
-1.93447e-06
6.50124e-07
-8.56364e-08
-1.00572e-06
7.12857e-07
-1.31346e-07
-4.00286e-07
5.24186e-07
-2.28547e-07
-1.14694e-07
3.46237e-07
-2.04049e-07
-2.8597e-08
2.20864e-07
-8.96137e-10
1.72035e-07
3.80711e-08
-4.70481e-11
3.24487e-07
5.2317e-07
-5.7479e-11
2.09893e-07
9.2201e-07
-5.08881e-11
3.14071e-07
1.08673e-06
-4.04235e-11
5.01194e-07
8.90249e-07
-5.69454e-11
5.36583e-07
4.50854e-07
-1.30959e-10
3.30311e-07
1.53213e-07
-7.04028e-10
8.92603e-08
3.11889e-08
2.63896e-10
7.23721e-09
9.21012e-10
5.7041e-10
7.68024e-10
-1.81782e-11
4.53882e-11
-6.05677e-12
-4.85428e-11
8.7758e-12
-4.87871e-12
-6.13703e-11
4.37071e-12
-2.09496e-12
-5.3678e-11
3.34464e-12
-1.13358e-12
-3.82157e-11
3.8475e-12
-4.42336e-12
-5.42099e-11
3.02103e-12
-4.48738e-11
-6.91043e-11
2.25884e-12
-5.49389e-10
-1.68091e-10
2.47523e-11
-2.76414e-10
-2.6886e-11
1.03137e-10
-3.76275e-10
-5.35348e-11
1.04032e-10
5.8908e-11
1.57231e-10
-1.32331e-11
-3.62795e-11
9.81345e-13
-1.58028e-11
-5.3614e-11
-6.42672e-12
-1.87507e-11
-4.41377e-11
-6.65806e-12
-3.21555e-11
-1.68011e-11
-3.18921e-12
-5.57547e-11
-2.9359e-11
5.45982e-13
-1.91674e-10
7.12131e-11
1.25264e-11
-3.03278e-10
-1.93468e-10
5.07443e-11
-3.75317e-10
-2.53776e-10
1.16943e-10
-7.18687e-10
-2.82976e-10
2.52803e-10
-3.33295e-09
4.14788e-10
-9.21117e-11
1.38241e-12
-6.60376e-12
-1.77063e-10
3.37718e-11
-3.33708e-11
-6.77149e-11
6.34581e-11
-3.33896e-11
-7.64502e-11
7.72783e-12
-1.58309e-11
-4.39838e-10
-4.85225e-11
-2.65697e-11
-2.13364e-09
-7.15932e-10
1.56958e-10
-1.46826e-09
-2.91386e-09
5.96706e-10
-7.94625e-10
-1.0238e-09
3.46166e-10
-6.25439e-09
-6.73273e-10
3.21668e-10
-5.56555e-09
-4.63701e-10
-1.32299e-10
1.6998e-10
-4.63377e-12
-2.34599e-10
2.45442e-10
-1.8496e-11
-8.85622e-11
2.53865e-10
-3.67066e-11
-1.25754e-10
5.76601e-11
-1.15764e-11
-1.25293e-09
1.95455e-11
-1.61857e-11
-6.1987e-09
-1.79646e-09
6.03837e-10
-7.64604e-09
-2.99657e-09
1.54457e-09
-7.58031e-09
-3.13311e-09
5.91441e-10
-9.20039e-09
-3.16892e-09
-4.01475e-10
-5.07679e-09
-1.9184e-09
-1.23451e-10
2.6818e-10
-4.93386e-13
-2.46359e-10
4.19298e-10
-5.70458e-11
-1.9522e-11
2.82096e-10
-2.72863e-11
-1.11414e-10
1.06992e-10
-9.20959e-12
-3.24047e-09
1.47116e-10
6.54659e-11
-7.32679e-09
-1.74158e-09
1.02284e-09
-9.16522e-09
-2.55491e-09
1.4184e-09
-9.60355e-09
-2.85166e-09
2.0845e-10
-8.91766e-09
-3.05929e-09
-7.90407e-10
-4.22838e-09
-2.68002e-09
-8.56443e-11
4.20963e-11
1.9764e-11
-2.19296e-10
4.59347e-10
-3.60619e-11
-2.94368e-11
2.42711e-10
-4.59104e-11
-1.05538e-10
1.01607e-10
-2.32676e-12
-1.97824e-09
1.24211e-10
1.06516e-10
-6.98348e-09
-1.52001e-09
9.06833e-10
-8.68439e-09
-2.12271e-09
1.28105e-09
-9.00257e-09
-2.48829e-09
-1.57912e-11
-8.3078e-09
-2.74436e-09
-9.19794e-10
-3.60702e-09
-2.52202e-09
-4.88225e-11
4.95415e-11
1.32724e-11
-1.18078e-10
3.82451e-10
-8.46441e-11
-4.46807e-11
1.61727e-10
-4.48681e-11
-7.17709e-11
6.9458e-11
5.16365e-12
-6.95162e-10
6.01198e-11
6.92035e-11
-6.03832e-09
-5.3793e-10
9.49149e-10
-7.74537e-09
-1.60699e-09
1.20366e-09
-8.16248e-09
-1.97856e-09
-6.76515e-11
-7.80455e-09
-2.26277e-09
-7.44226e-10
-1.55005e-09
-1.24906e-09
-2.8338e-11
6.91106e-11
7.40502e-12
-4.16691e-11
2.06792e-10
-5.54177e-11
-2.13212e-11
9.67426e-11
2.80015e-12
-5.25795e-11
4.99812e-11
9.31577e-12
-1.11728e-10
2.62334e-11
3.89596e-11
-4.38694e-09
-3.66941e-10
7.44339e-10
-6.42126e-09
-7.41674e-10
1.1769e-09
-7.72399e-09
-4.80889e-10
-9.96506e-11
-6.15414e-09
-9.11098e-10
-7.44038e-10
-4.31806e-10
-3.03639e-10
-9.47583e-12
1.07842e-10
9.05057e-12
-1.01084e-11
7.93828e-11
1.59749e-12
-9.38716e-12
6.18755e-11
1.14939e-11
-5.34434e-11
3.9775e-11
2.92449e-11
-1.21415e-09
6.77516e-11
1.13637e-10
-2.4879e-09
-2.2125e-10
8.15013e-10
-1.84627e-09
-1.57384e-10
4.70556e-10
-1.35893e-09
-4.28874e-11
-2.30374e-11
-1.38032e-09
-1.43917e-10
-2.65383e-10
-1.09315e-10
-5.11993e-10
-1.83278e-12
5.03256e-12
1.54377e-10
-2.50606e-12
2.18756e-11
5.04344e-11
-3.48646e-12
9.90244e-12
4.32632e-11
-3.27941e-11
2.87638e-11
2.77418e-11
-7.16465e-10
1.51922e-10
8.31414e-11
-1.24842e-09
4.90997e-10
1.78616e-11
-2.92157e-10
8.42175e-11
-5.34902e-13
-4.07162e-10
-7.58256e-12
-1.50813e-13
-4.36503e-10
-1.93889e-10
-7.93231e-12
-2.54108e-10
-8.48e-12
-2.83579e-08
-2.80841e-08
8.28222e-08
4.86279e-08
-1.62321e-07
6.188e-08
1.9498e-07
-2.23603e-07
3.14279e-08
2.61059e-07
-1.31518e-07
5.79318e-08
2.59645e-07
-6.55121e-08
8.97776e-08
2.1418e-07
-2.49097e-08
1.04726e-07
1.41797e-07
-2.64596e-10
1.04837e-07
5.58859e-08
1.41629e-08
9.3822e-08
-3.54558e-08
1.96114e-08
8.25831e-08
5.37539e-09
6.69446e-08
-3.23265e-08
-2.34659e-08
8.13007e-09
1.3854e-07
-4.95606e-07
1.1218e-07
2.93129e-07
-5.52638e-07
7.93343e-08
3.03054e-07
-2.32437e-07
1.53441e-08
2.53831e-07
-7.22721e-08
3.4209e-08
1.84689e-07
-1.86505e-08
6.80011e-08
1.09384e-07
6.97881e-09
8.16067e-08
2.80562e-08
2.5329e-08
8.24871e-08
-5.00412e-08
2.76199e-08
8.30444e-08
-1.05364e-08
8.25744e-08
2.21645e-07
-2.50122e-07
6.81889e-08
5.23476e-07
-1.06643e-06
4.40822e-07
5.97989e-07
-9.71845e-07
4.12674e-07
5.22992e-07
-3.59357e-07
1.63089e-07
4.07137e-07
-4.96519e-08
5.73876e-08
2.98579e-07
1.75567e-08
7.95981e-08
1.99945e-07
2.78538e-08
1.19529e-07
8.67687e-08
6.19153e-08
1.40091e-07
-3.39637e-08
8.42687e-08
1.73185e-07
-1.55862e-08
2.2557e-07
5.04211e-07
-7.9029e-07
2.16653e-07
7.40318e-07
-1.62784e-06
8.01118e-07
6.05728e-07
-1.20681e-06
7.66639e-07
5.08576e-07
-4.88349e-07
4.08701e-07
4.39464e-07
-9.82605e-08
1.75542e-07
3.53582e-07
2.05388e-08
1.53159e-07
2.04394e-07
8.64661e-08
2.21498e-07
7.16521e-09
1.71368e-07
3.02988e-07
-1.30795e-07
1.55258e-07
4.08073e-07
-1.36452e-07
5.19613e-07
6.19612e-07
-1.4792e-06
4.64397e-07
6.18376e-07
-1.97405e-06
1.08706e-06
3.10883e-07
-1.22532e-06
9.91288e-07
2.38379e-07
-5.95896e-07
6.48622e-07
2.70167e-07
-2.46382e-07
4.03237e-07
2.50816e-07
-9.4447e-08
3.98142e-07
1.53184e-07
1.30358e-08
4.95017e-07
4.48141e-08
1.00157e-07
5.76975e-07
1.40946e-08
3.31742e-09
6.10507e-07
-3.00391e-07
6.32263e-07
3.88006e-07
-1.94609e-06
8.37423e-07
1.75911e-07
-2.0506e-06
1.17719e-06
4.1818e-08
-1.43133e-06
1.19955e-06
8.8485e-08
-9.02146e-07
1.01816e-06
2.28224e-07
-6.08194e-07
8.05837e-07
3.43225e-07
-4.37944e-07
7.47766e-07
4.3487e-07
-2.91566e-07
6.90723e-07
4.90741e-07
-1.76626e-07
6.17904e-07
3.71819e-07
-1.65054e-07
5.78924e-07
-2.67706e-07
5.70865e-07
1.85305e-07
-2.11603e-06
7.45351e-07
-2.32298e-08
-1.99947e-06
8.66459e-07
1.48418e-08
-1.72758e-06
1.2427e-06
2.35388e-07
-1.36224e-06
1.0628e-06
4.95602e-07
-1.04642e-06
6.42717e-07
6.50184e-07
-6.85681e-07
3.37106e-07
6.8316e-07
-3.91166e-07
2.27374e-07
5.78958e-07
-2.22176e-07
2.76204e-07
3.07451e-07
-1.91137e-07
3.76663e-07
-2.24649e-07
4.06434e-07
2.63071e-07
-2.22069e-06
6.86378e-08
9.71911e-09
-1.94575e-06
3.93706e-07
-6.13259e-08
-1.75465e-06
6.96834e-07
9.86196e-08
-1.49442e-06
3.25198e-07
2.72524e-07
-1.14001e-06
-3.59727e-08
2.64306e-07
-5.77052e-07
-8.39543e-08
8.31629e-08
-1.13386e-07
-4.74194e-08
-1.1433e-07
1.77351e-08
-8.86576e-08
-2.7319e-07
-3.42201e-08
-1.9512e-07
-1.17015e-07
-3.04688e-07
3.34559e-07
-2.38262e-06
1.3804e-07
1.86777e-07
-2.03517e-06
2.74591e-07
2.19121e-07
-1.78741e-06
3.39516e-07
3.73676e-07
-1.61886e-06
5.16344e-07
2.89569e-07
-1.2488e-06
9.39087e-07
1.1289e-07
-6.71886e-07
1.1503e-06
4.73732e-08
-3.20391e-07
9.68892e-07
-1.06295e-07
-8.71176e-08
6.47993e-07
-1.73898e-07
-3.80661e-08
4.80621e-07
-3.07654e-09
4.11453e-07
2.33112e-07
-1.88851e-11
7.47475e-07
5.24701e-07
-2.17473e-11
8.99056e-07
7.72708e-07
-2.68418e-11
9.42531e-07
9.8888e-07
-3.03282e-11
9.98052e-07
9.02749e-07
-3.94002e-11
9.43867e-07
4.92414e-07
-1.41058e-10
6.2108e-07
1.23071e-07
-1.09459e-09
2.21544e-07
4.41259e-08
5.31531e-10
1.74469e-08
3.7323e-09
3.71642e-10
2.0595e-09
-2.55115e-11
2.60848e-10
-2.92672e-12
-2.11418e-11
1.39708e-11
-1.76338e-12
-2.84339e-11
1.06291e-11
2.0698e-12
-3.48361e-11
9.16123e-12
2.54465e-12
-3.35653e-11
7.66485e-12
-4.52843e-12
-3.69833e-11
4.0932e-12
-7.70802e-11
-7.59787e-11
1.21948e-11
-9.85855e-10
-1.75855e-10
5.40612e-11
-5.89453e-10
-1.89959e-12
3.05539e-10
-6.18773e-10
1.24637e-11
2.41494e-10
-1.52764e-11
1.32585e-10
-4.90617e-12
-1.21409e-11
-3.29055e-12
-1.37839e-11
-1.56915e-11
-1.02795e-11
-1.9623e-11
-1.99699e-11
-1.5457e-11
-3.24137e-11
-1.22577e-11
-9.05412e-12
-6.57086e-11
-9.87428e-12
-1.61406e-12
-1.49547e-10
-1.38015e-11
1.57814e-11
-2.88077e-10
-1.45643e-10
5.50672e-11
-5.17233e-10
-5.44808e-11
3.13291e-10
-5.82445e-10
-3.14214e-11
8.33377e-10
-5.15664e-11
7.48114e-11
-3.40784e-12
-1.67293e-12
-1.37447e-11
-1.07334e-11
-2.9402e-12
-3.89726e-11
-1.40798e-11
-4.87221e-12
-4.52131e-11
-3.12696e-11
4.68471e-12
-1.83542e-11
-3.73181e-10
5.47349e-12
-7.76587e-12
-1.63066e-09
-3.97541e-10
9.07003e-11
-1.88941e-09
-4.37249e-10
3.16096e-10
-1.58184e-09
1.11496e-10
3.81034e-10
-1.43404e-09
4.84217e-11
2.43688e-11
-6.72457e-10
-3.70184e-10
3.10405e-13
5.38288e-12
-1.10698e-11
-5.63644e-12
4.98685e-12
-2.07331e-11
-1.47713e-12
1.95591e-11
-5.24687e-11
-4.3936e-11
3.45541e-11
-1.6728e-11
-6.84112e-10
9.15407e-11
-3.63135e-12
-4.8087e-09
-3.43514e-10
3.34204e-10
-3.58655e-09
-6.16917e-11
7.41749e-10
-2.10077e-09
3.60847e-10
3.47844e-11
-3.83388e-09
2.96706e-10
-4.26512e-10
-1.16613e-09
-3.10937e-09
1.83885e-13
2.41244e-11
-1.87935e-11
-5.33834e-12
2.50378e-11
-1.98846e-11
-1.0271e-11
1.19542e-10
-9.46956e-11
-5.65426e-11
7.09565e-11
-1.66147e-11
-1.19718e-09
1.79715e-10
2.83881e-11
-5.16539e-09
-1.11089e-10
5.23374e-10
-3.57207e-09
5.39242e-10
6.33373e-10
-2.55532e-09
5.39773e-10
4.03675e-12
-5.16469e-09
5.48537e-10
-8.52849e-10
-6.23055e-10
-3.73855e-09
1.12589e-12
3.21124e-11
-1.2141e-12
-3.50535e-11
1.58349e-10
-8.52375e-11
-2.42959e-11
8.14184e-10
-6.03697e-11
-1.16803e-10
1.00538e-10
5.92115e-12
-1.16201e-09
1.90002e-10
6.88991e-11
-4.95656e-09
9.96226e-11
5.95879e-10
-2.83779e-09
5.75098e-10
4.72001e-10
-2.20886e-09
4.2352e-10
-4.18598e-12
-2.86224e-09
3.70472e-10
-4.07952e-10
1.61699e-11
-1.0739e-09
1.01356e-11
3.11622e-11
2.72317e-12
-6.08145e-11
6.99975e-10
-6.25291e-11
-7.42517e-11
1.04915e-09
-1.23582e-11
-1.66783e-10
1.00882e-10
1.35388e-11
-4.00203e-10
1.00169e-10
7.04061e-11
-3.67484e-09
1.3026e-10
6.26322e-10
-3.51814e-09
4.43038e-10
3.78971e-10
-1.58992e-09
3.86889e-10
-2.47505e-11
-6.64948e-10
2.05163e-10
-1.08951e-10
1.57998e-11
-1.39028e-10
5.38787e-12
3.139e-11
4.24035e-13
-3.28163e-11
9.21711e-10
-2.60935e-11
-7.88811e-11
1.24334e-09
7.20769e-11
-9.25134e-12
2.32782e-10
3.75521e-11
-2.05273e-10
1.28839e-10
1.13217e-10
-2.10436e-09
1.493e-10
6.45137e-10
-1.99214e-09
1.58422e-10
1.8524e-10
-9.30717e-10
2.56517e-10
-2.33665e-11
-1.68439e-10
1.79166e-10
-3.85182e-11
8.0457e-11
-3.31952e-11
7.49995e-12
6.57422e-11
-5.15717e-12
2.31572e-11
1.12072e-09
-1.21738e-12
-1.24071e-10
1.42618e-09
1.87698e-10
2.10761e-11
4.31884e-10
1.64341e-10
-9.49393e-10
2.63738e-10
3.18901e-10
-1.54413e-09
2.02917e-10
6.62613e-10
-8.24635e-10
2.75143e-11
6.32047e-11
-8.40916e-10
5.31485e-11
-3.02455e-11
-6.93387e-10
2.96373e-10
-1.51775e-11
2.47001e-10
-2.48856e-11
4.51075e-11
-8.15614e-12
1.60754e-10
7.99698e-11
3.56138e-13
8.05811e-10
-4.93315e-11
3.25298e-10
1.4575e-09
1.71043e-11
1.82351e-10
1.67363e-10
-7.92369e-10
2.88277e-10
1.95087e-10
-5.15394e-10
2.66216e-10
5.62866e-11
-2.04957e-10
1.74793e-11
2.36863e-11
-6.70445e-10
-1.1415e-11
4.24328e-11
-4.10916e-10
-5.64539e-12
3.65043e-10
-1.97001e-11
2.90058e-10
-5.85372e-08
-2.64637e-08
1.67823e-07
1.91704e-08
-2.5374e-07
2.37913e-07
2.00384e-07
-3.8301e-07
2.33224e-07
2.66061e-07
-2.12445e-07
2.047e-07
2.47018e-07
-8.36406e-08
1.92461e-07
1.89216e-07
-2.16587e-08
1.84186e-07
1.14132e-07
5.41845e-09
1.74503e-07
2.86526e-08
1.36803e-08
1.6562e-07
-5.82084e-08
8.94523e-09
1.60499e-07
-1.79306e-08
1.52352e-07
-9.69688e-08
-9.23312e-10
7.95585e-08
1.01052e-07
-6.54989e-07
3.15408e-07
3.49072e-07
-9.0392e-07
3.52225e-07
3.58389e-07
-4.34994e-07
2.28576e-07
2.65026e-07
-1.18419e-07
1.6235e-07
1.70959e-07
-1.17441e-08
1.52154e-07
8.72507e-08
1.902e-08
1.51713e-07
9.3378e-09
2.33789e-08
1.50701e-07
-6.26577e-08
5.92738e-09
1.58058e-07
-4.06116e-08
1.62998e-07
6.75823e-08
-8.85803e-08
8.82636e-08
4.49985e-07
-1.16645e-06
5.69883e-07
7.01634e-07
-1.40859e-06
6.6569e-07
6.65504e-07
-6.67029e-07
4.31254e-07
4.77548e-07
-1.21428e-07
2.48353e-07
3.06242e-07
3.99409e-08
1.99219e-07
1.83546e-07
6.3508e-08
1.97738e-07
7.46758e-08
7.5311e-08
1.97029e-07
-3.53007e-08
8.46834e-08
2.04406e-07
4.09737e-08
2.22131e-07
3.07811e-07
-3.34688e-07
1.5495e-07
6.87978e-07
-1.487e-06
7.41495e-07
7.82907e-07
-1.57221e-06
8.35337e-07
7.52977e-07
-7.8213e-07
5.53737e-07
6.04135e-07
-1.46549e-07
3.49504e-07
4.23068e-07
9.48376e-08
2.79329e-07
2.48169e-07
1.71026e-07
2.88879e-07
7.09333e-08
2.37105e-07
3.18429e-07
-7.81576e-08
2.97012e-07
3.44835e-07
2.33388e-07
3.72742e-07
4.71675e-07
-5.54038e-07
2.12072e-07
6.89247e-07
-1.38523e-06
7.70305e-07
6.01868e-07
-1.36155e-06
8.69384e-07
5.70617e-07
-7.05865e-07
6.03652e-07
5.41167e-07
-1.98365e-07
4.84504e-07
4.6424e-07
6.15372e-08
5.0837e-07
3.26639e-07
2.40793e-07
5.62851e-07
1.16804e-07
4.56751e-07
5.67164e-07
-8.0042e-08
5.87234e-07
5.17132e-07
4.58556e-07
4.87391e-07
5.15342e-07
-6.87815e-07
4.55859e-07
5.66096e-07
-1.14508e-06
8.86572e-07
4.67897e-07
-1.0989e-06
1.03432e-06
5.25728e-07
-6.24893e-07
8.79411e-07
5.92451e-07
-2.75577e-07
8.16327e-07
6.08077e-07
1.52481e-08
7.78429e-07
5.08133e-07
3.32201e-07
6.99259e-07
3.06463e-07
6.58433e-07
6.17893e-07
7.39618e-08
8.53075e-07
5.45584e-07
7.72588e-07
4.66286e-07
5.57749e-07
-1.02583e-06
5.25619e-07
4.58278e-07
-1.08301e-06
9.03129e-07
4.07925e-07
-9.20347e-07
1.11385e-06
5.98012e-07
-6.37807e-07
8.85632e-07
7.18881e-07
-3.18733e-07
5.65e-07
6.61206e-07
7.8781e-08
3.31248e-07
4.80969e-07
4.81582e-07
2.5823e-07
2.86263e-07
7.97478e-07
3.31865e-07
9.10666e-08
9.79595e-07
4.45339e-07
9.68925e-07
4.46089e-07
4.0055e-07
-1.47241e-06
1.14868e-07
2.07819e-07
-1.17196e-06
6.7552e-07
2.6208e-08
-6.68033e-07
6.26315e-07
-3.19122e-08
-3.37897e-07
8.36399e-08
-1.33809e-07
-1.21296e-07
-1.31415e-07
-2.6631e-07
1.50001e-07
-2.26684e-08
-3.58694e-07
3.78971e-07
3.68229e-08
-4.24341e-07
4.95685e-07
1.60335e-08
-4.64089e-07
4.61569e-07
-1.54997e-08
3.81135e-07
-7.09423e-08
2.39277e-08
-1.53584e-06
4.1527e-07
-3.97196e-08
-1.2857e-06
6.34235e-07
-2.24722e-09
-7.7737e-07
4.79201e-07
9.75021e-08
-5.55805e-07
5.66181e-07
9.97261e-08
-4.05081e-07
9.41601e-07
7.00695e-08
-2.7047e-07
1.08425e-06
3.13093e-08
-1.12868e-07
9.32227e-07
-7.03382e-08
-6.60808e-11
7.16512e-07
-1.50825e-07
-8.39778e-09
5.88022e-07
-1.13172e-09
5.50124e-07
3.26864e-07
-1.63642e-11
1.03537e-06
4.99226e-07
-2.52027e-11
1.24354e-06
5.8897e-07
-3.64106e-11
1.18586e-06
6.20019e-07
-3.81016e-11
1.09395e-06
5.32957e-07
-2.26921e-11
8.84243e-07
3.35811e-07
-1.93869e-10
5.35306e-07
1.429e-07
-2.00832e-09
2.40819e-07
1.8225e-08
8.30263e-10
4.69751e-08
8.84612e-10
1.08441e-09
8.33607e-09
-5.7008e-12
2.71614e-10
4.20507e-13
-2.16555e-11
1.87831e-11
6.7572e-13
-3.14669e-11
1.66737e-11
3.62943e-12
-4.22838e-11
1.31884e-11
2.19805e-12
-3.96854e-11
7.28387e-12
-1.25446e-11
-1.94082e-11
7.03188e-12
-1.6862e-10
-4.82121e-11
1.87469e-11
-1.97359e-09
-2.06769e-10
7.11402e-11
-1.1723e-09
-8.97213e-11
6.35293e-10
-3.29596e-10
6.48205e-11
4.47718e-10
8.41227e-11
1.23699e-10
-5.78563e-12
-1.39086e-11
-5.31712e-12
-1.7443e-11
-1.39738e-11
-1.61739e-11
-2.14928e-11
-1.72914e-11
-3.66745e-11
-1.85125e-11
-5.35362e-12
-1.25312e-10
-3.17184e-11
-7.65217e-13
-1.9912e-11
-7.6954e-11
-6.9052e-12
1.93031e-12
-2.1405e-10
-3.42697e-11
5.28371e-11
-1.14229e-09
2.66502e-11
6.47835e-10
-1.85415e-09
2.79234e-10
6.45605e-10
2.37061e-10
6.93555e-11
-4.80033e-12
-4.53552e-12
-1.8491e-11
-1.94175e-11
-5.96592e-12
-3.35944e-11
-1.71416e-11
-5.21153e-11
-1.132e-10
-1.26901e-11
-7.09025e-12
-4.805e-11
-3.09794e-11
7.85277e-12
-1.7194e-11
-1.52996e-10
4.0155e-11
1.24929e-12
-8.02708e-10
1.96615e-10
1.52892e-11
-1.54201e-09
8.83845e-10
3.79988e-10
-1.31601e-09
4.30962e-10
-5.57455e-11
3.10941e-10
-3.30658e-10
2.62022e-12
-2.29231e-12
-1.61585e-11
1.02847e-11
-4.53898e-12
-2.99978e-11
-1.45297e-11
-5.29049e-11
-1.69547e-10
-2.00538e-11
4.41142e-11
-6.92551e-11
-3.04051e-11
1.47483e-11
-3.07849e-12
-4.92281e-10
2.53373e-10
7.59668e-12
-8.23616e-10
7.25586e-10
2.17769e-11
-1.70306e-10
7.16012e-10
1.3618e-10
-9.98583e-10
3.98318e-10
-4.69553e-10
6.47972e-10
-2.12966e-09
7.0924e-12
-6.22973e-13
-2.8237e-11
8.79236e-12
-4.38496e-12
-7.89864e-11
-5.85475e-12
4.49738e-11
-1.38481e-10
-1.38638e-11
8.58282e-11
-1.38486e-11
-6.39935e-11
3.79525e-11
6.75581e-12
-6.22162e-10
4.8361e-10
4.8803e-11
-9.28757e-10
1.26005e-09
4.64634e-11
-9.79381e-10
7.64308e-10
6.79514e-11
-1.95136e-09
4.33429e-10
-5.96041e-10
4.55577e-10
-2.29801e-09
1.14437e-11
3.70533e-12
-1.71449e-11
6.48562e-11
2.38539e-11
-6.74039e-11
6.08633e-12
5.81513e-11
-2.54778e-11
1.16291e-11
1.02058e-10
1.50224e-11
-8.96915e-11
5.9421e-11
8.50974e-12
-7.79437e-10
6.06592e-10
7.53458e-11
-1.12044e-09
1.45561e-09
1.14413e-10
-3.79183e-10
5.00811e-10
3.92959e-11
-2.70227e-10
1.1525e-10
-2.89248e-10
8.10383e-11
-6.74129e-10
1.13803e-11
1.71234e-11
-1.50317e-11
2.66697e-11
8.44169e-12
-9.73835e-12
1.73734e-11
8.33133e-11
-2.16414e-12
5.04242e-12
2.29778e-10
1.5787e-11
-3.56859e-11
6.25374e-11
1.51948e-11
-9.5585e-10
5.50043e-10
1.70657e-10
-8.54221e-10
1.05196e-09
9.99777e-11
-7.48155e-11
1.85273e-10
5.55286e-12
-3.29491e-11
4.31252e-11
-7.95129e-11
2.43066e-11
-7.75158e-11
1.21639e-11
2.55421e-11
-7.98564e-12
1.04579e-11
6.77933e-12
-4.115e-12
2.76305e-11
1.43226e-10
7.60043e-13
3.39647e-12
2.35105e-10
5.91731e-11
-2.40327e-10
1.90124e-10
1.0566e-10
-7.11606e-10
2.75164e-10
4.02585e-10
-1.58101e-10
9.06508e-11
2.64674e-10
-1.06257e-11
2.35603e-11
-1.01623e-11
-5.83371e-12
2.11643e-11
-2.27912e-11
1.46628e-11
-2.59515e-11
1.43104e-11
2.01277e-11
-7.52905e-12
1.39266e-11
8.30675e-12
-5.43028e-12
1.50631e-11
3.68633e-10
5.43979e-12
-1.40545e-11
4.5263e-10
2.34158e-10
-3.03095e-10
2.23182e-10
1.70845e-10
-1.32877e-10
1.01706e-10
2.72966e-10
-1.86561e-11
1.3399e-11
2.44886e-11
-2.86651e-12
1.1327e-11
-3.43876e-11
-1.4991e-13
1.47518e-11
-1.54931e-11
1.25904e-11
-2.67749e-11
5.58838e-12
-1.06763e-11
9.34698e-12
6.79412e-12
-2.75562e-12
8.54944e-12
-5.2977e-13
1.56646e-11
4.2288e-10
-6.76062e-11
8.71336e-11
1.21248e-10
-1.41351e-10
3.83904e-11
2.16141e-10
-2.75131e-11
-2.68267e-12
1.67364e-11
-6.24803e-12
1.32633e-12
7.33929e-12
3.23062e-13
-1.74039e-11
8.65413e-12
3.65536e-12
-1.23444e-11
1.22663e-11
-2.32164e-11
1.23928e-11
-1.70461e-08
-1.94355e-08
2.04305e-07
4.27235e-08
-1.39867e-07
3.1801e-07
1.70132e-07
-2.06993e-07
3.12808e-07
2.21677e-07
-1.14732e-07
2.67887e-07
2.07195e-07
-3.20981e-08
2.39042e-07
1.54849e-07
1.68318e-08
2.19701e-07
8.39453e-08
4.05751e-08
2.04831e-07
6.37299e-09
4.80407e-08
1.95152e-07
-7.41057e-08
4.3708e-08
1.97269e-07
2.67863e-08
1.94454e-07
-8.01648e-08
1.76281e-08
1.2266e-07
9.41624e-09
-2.68927e-07
3.54888e-07
1.9673e-07
-4.35835e-07
3.93754e-07
2.40158e-07
-2.163e-07
2.86715e-07
1.95965e-07
-4.23834e-08
2.16829e-07
1.28441e-07
4.51388e-08
1.9137e-07
5.73262e-08
7.87122e-08
1.84691e-07
-5.51701e-09
7.6787e-08
1.84799e-07
-6.95483e-08
6.33199e-08
2.02477e-07
3.74085e-08
2.18716e-07
-4.71519e-08
1.18461e-08
1.41198e-07
1.69021e-07
-4.54369e-07
5.39151e-07
4.33162e-07
-6.90103e-07
6.55816e-07
4.58639e-07
-2.97458e-07
4.86935e-07
3.56379e-07
-2.0727e-08
3.28958e-07
2.29932e-07
1.09907e-07
2.60897e-07
1.18751e-07
1.51518e-07
2.36113e-07
1.95501e-08
1.50758e-07
2.22259e-07
-6.9919e-08
1.51648e-07
2.05547e-07
1.39483e-07
1.89136e-07
1.17327e-07
-9.37734e-08
1.43243e-07
4.11332e-07
-5.99731e-07
5.92855e-07
6.35797e-07
-8.30668e-07
7.51439e-07
6.60909e-07
-3.79608e-07
6.10776e-07
5.32237e-07
1.12393e-08
4.4621e-07
3.55205e-07
2.07143e-07
3.59125e-07
1.75968e-07
2.92401e-07
3.27232e-07
1.22067e-08
3.23458e-07
3.0949e-07
-1.1487e-07
3.71922e-07
2.51637e-07
3.90885e-07
1.53307e-07
3.29321e-07
-2.48178e-07
3.7155e-08
6.04541e-07
-5.44369e-07
4.39761e-07
7.11478e-07
-7.00594e-07
6.32641e-07
7.1813e-07
-3.40961e-07
5.58379e-07
6.78305e-07
-2.04159e-08
5.55985e-07
5.48117e-07
2.78413e-07
5.67287e-07
3.2801e-07
5.3283e-07
5.42529e-07
3.80199e-08
7.00693e-07
4.7992e-07
-1.79025e-07
7.77541e-07
3.28553e-07
7.73459e-07
1.22081e-07
4.58074e-07
-4.19698e-07
1.69305e-07
6.69937e-07
-4.89364e-07
6.20083e-07
7.31826e-07
-5.01584e-07
7.741e-07
7.98962e-07
-2.32145e-07
7.0355e-07
8.26294e-07
7.39903e-08
6.94589e-07
7.30048e-07
5.11043e-07
6.42045e-07
4.9601e-07
9.02748e-07
5.63378e-07
1.64226e-07
1.16962e-06
4.80754e-07
-1.00521e-07
1.27706e-06
3.10815e-07
1.25706e-06
5.10989e-08
4.82773e-07
-7.26176e-07
3.49327e-07
4.89381e-07
-4.62039e-07
8.69184e-07
5.37625e-07
-2.82857e-07
8.46899e-07
6.62916e-07
-4.05292e-08
5.68728e-07
6.82851e-07
2.7575e-07
3.43304e-07
4.70187e-07
9.1492e-07
1.40035e-07
2.22402e-07
1.3342e-06
7.456e-08
2.06358e-08
1.61515e-06
8.8098e-08
-1.11963e-07
1.77883e-06
7.61643e-08
1.76771e-06
2.34733e-08
1.26766e-07
-9.77337e-07
2.39517e-07
3.70679e-08
-3.42788e-07
6.46112e-07
-1.14997e-07
1.67662e-07
3.27879e-07
-3.31229e-07
4.51483e-07
-1.92132e-07
-5.06586e-07
4.83934e-07
-2.35866e-07
-6.07126e-07
6.90176e-07
-1.59628e-08
-6.49242e-07
7.98316e-07
8.01715e-09
-6.50993e-07
7.72083e-07
-3.1743e-08
-6.35722e-07
6.83627e-07
-5.38642e-08
5.68165e-07
-8.38238e-08
-1.26316e-07
-9.21725e-07
6.67999e-07
6.90391e-09
-6.07753e-07
7.46962e-07
1.37429e-08
-8.14527e-08
5.11897e-07
-1.12553e-08
1.02682e-08
5.68739e-07
-4.00532e-08
-2.16472e-08
7.06159e-07
-2.78909e-08
-3.78789e-08
7.57422e-07
-2.68928e-08
-5.08889e-09
6.73499e-07
-8.00736e-08
-2.27018e-09
5.66352e-07
-1.17009e-07
-1.35013e-08
4.99539e-07
-4.0105e-11
4.61082e-07
3.28326e-07
-1.88087e-11
9.92057e-07
4.61097e-07
-4.0536e-11
1.08249e-06
4.11692e-07
-9.82789e-11
8.31934e-07
3.10813e-07
-1.82762e-10
6.21211e-07
2.4183e-07
-8.27293e-11
4.21237e-07
1.73571e-07
-2.46074e-10
2.62623e-07
6.53928e-08
-1.7851e-09
9.87508e-08
7.08755e-09
1.34085e-09
2.1116e-08
-9.28603e-11
-3.95515e-12
1.79158e-09
3.48075e-12
2.12558e-10
2.34257e-12
-2.02239e-11
1.78798e-11
2.83792e-12
-3.64556e-11
1.32143e-11
1.66146e-12
-9.876e-11
1.6099e-11
-8.37792e-12
-1.76561e-10
1.59568e-11
-3.59392e-11
-6.16679e-11
9.72729e-12
-2.54248e-10
-2.89473e-11
1.44474e-11
-2.01029e-09
-1.08536e-12
2.49319e-11
-5.16505e-10
-9.76115e-11
2.94651e-10
-3.02581e-10
1.19766e-10
1.57193e-10
8.4454e-11
8.61169e-11
-8.83354e-12
-7.8147e-12
-8.99711e-12
-2.89144e-11
-2.05906e-12
-8.13758e-11
-9.33933e-11
-1.55417e-11
-3.08097e-10
-3.46048e-11
-2.88247e-12
1.55784e-11
-5.33475e-11
9.20568e-12
-1.89968e-11
-9.46203e-11
7.21557e-12
-5.799e-12
-3.92565e-10
3.3489e-11
5.6098e-11
-8.74204e-10
2.07155e-10
3.5709e-10
-1.37226e-09
6.87833e-10
2.45e-10
3.19131e-10
-1.44192e-11
-6.7889e-12
-7.99071e-13
-1.89483e-11
-2.20306e-11
-4.7675e-12
-3.2702e-11
-1.98403e-11
-1.1972e-10
-9.72155e-11
-8.56278e-12
-1.45201e-11
-3.55955e-11
-6.68766e-12
8.50664e-12
-5.82507e-12
-1.45402e-11
1.64868e-11
-3.05865e-12
-1.34932e-10
5.14941e-11
1.06107e-11
-8.056e-10
3.43081e-10
2.52665e-10
-1.3215e-09
8.60031e-10
1.06146e-11
4.9728e-10
-6.11283e-10
2.92785e-12
-1.96849e-12
-1.81942e-11
2.17493e-11
-6.10803e-11
-6.40736e-11
4.81953e-11
-7.0735e-11
-2.12624e-10
1.0293e-12
5.52459e-11
-1.74271e-10
-2.13217e-12
9.38559e-12
-4.82384e-12
-3.76153e-12
2.25638e-11
1.07218e-12
-2.4672e-11
7.43051e-11
6.32185e-12
-1.04749e-09
1.82105e-10
5.8557e-11
-1.63181e-09
1.38589e-09
-1.1537e-10
5.83362e-10
-1.46613e-09
3.14708e-11
-1.29384e-11
-3.98321e-11
5.33399e-11
-4.09996e-11
-1.44365e-10
2.24545e-11
2.52858e-11
-1.64646e-10
-6.4021e-12
2.24262e-11
-5.06101e-11
-5.85001e-12
1.15911e-11
1.40754e-12
8.06774e-13
5.11202e-11
9.284e-12
-8.99454e-13
1.04823e-10
1.33551e-11
-2.88307e-10
1.25353e-10
4.98419e-12
-1.16728e-09
3.87085e-10
-1.96325e-10
1.76426e-10
-1.39228e-09
8.41422e-12
-1.56588e-11
-8.82754e-11
9.50645e-13
-7.20569e-13
-2.58335e-11
-3.0826e-12
4.39618e-12
-6.37968e-12
-2.94832e-12
4.18156e-12
2.65181e-13
-9.31591e-12
1.84611e-11
5.21608e-12
6.53754e-12
7.66352e-11
2.62544e-11
1.42501e-11
1.72567e-10
3.34606e-11
-5.4624e-11
1.64693e-10
1.36563e-11
-2.4898e-10
-1.62337e-11
-1.2017e-10
4.31833e-11
-3.93194e-10
7.07625e-12
5.3101e-13
-3.70126e-11
-1.28697e-14
1.34589e-12
-5.6612e-12
-3.12319e-12
5.75847e-12
-1.67653e-12
-2.57199e-12
1.67996e-11
2.56787e-12
-1.71399e-12
2.20683e-11
7.63162e-12
1.8421e-11
2.43605e-10
6.50139e-11
9.10963e-11
6.35095e-10
1.50546e-10
7.08896e-14
2.68697e-10
1.46034e-11
-1.65557e-12
4.05966e-11
-2.46699e-11
2.81885e-11
-6.57932e-11
1.19942e-12
3.73121e-12
-7.03182e-12
-1.59324e-13
2.71203e-12
-5.14129e-12
-2.48437e-12
7.39424e-12
4.51731e-13
4.59437e-12
4.1914e-11
7.15513e-12
-7.25161e-11
1.13721e-10
3.19376e-11
-2.8701e-12
4.75537e-10
2.49546e-10
7.38666e-11
4.9572e-10
3.81897e-10
5.39323e-12
2.10766e-10
6.38702e-12
1.17224e-11
2.65607e-11
-1.59015e-11
2.10666e-11
-4.41594e-11
5.5616e-14
3.76019e-12
-7.86126e-12
-5.38512e-13
4.16865e-12
-7.42207e-12
-3.3348e-12
1.16604e-11
1.913e-12
8.92806e-12
1.06413e-10
2.14042e-11
-8.19833e-11
1.73565e-10
2.68097e-10
-6.89423e-11
1.24403e-10
2.89836e-10
4.43659e-12
3.6523e-12
1.6794e-10
1.0729e-11
7.5428e-11
-2.81716e-11
1.04138e-11
2.18488e-11
-1.1884e-11
2.29298e-11
-5.71039e-11
-5.57832e-13
-1.30936e-11
7.26108e-12
-2.28454e-12
-3.69603e-12
6.58816e-12
-1.74311e-11
9.92608e-12
2.33887e-11
-3.36823e-11
9.9142e-11
1.50358e-10
-5.0335e-11
2.09245e-10
1.65825e-10
-3.94035e-12
4.25866e-11
2.01009e-11
2.95391e-12
-1.78395e-11
6.26002e-12
1.54602e-11
-1.76158e-11
1.9664e-11
1.24666e-11
-7.78345e-12
1.71347e-11
-4.57557e-11
2.38201e-11
7.6156e-09
-5.54083e-09
2.0223e-07
6.78545e-08
-6.64814e-08
3.24253e-07
1.57116e-07
-8.0874e-08
3.04421e-07
1.92186e-07
-3.33931e-08
2.6621e-07
1.77644e-07
1.56211e-08
2.37964e-07
1.28091e-07
5.24998e-08
2.16754e-07
6.1688e-08
7.30472e-08
1.98186e-07
-9.43225e-09
8.349e-08
1.82783e-07
-8.96859e-08
9.53043e-08
1.82219e-07
1.0884e-07
1.60059e-07
-2.92247e-08
1.69698e-08
1.29374e-07
2.16673e-08
-8.17164e-08
3.19231e-07
1.32734e-07
-1.19612e-07
3.21425e-07
1.75423e-07
-4.33261e-08