/*--------------------------------*- C++ -*----------------------------------*\
| =========                 |                                                 |
| \\      /  F ield         | OpenFOAM: The Open Source CFD Toolbox           |
|  \\    /   O peration     | Version:  2312                                  |
|   \\  /    A nd           | Website:  www.openfoam.com                      |
|    \\/     M anipulation  |                                                 |
\*---------------------------------------------------------------------------*/
FoamFile
{
    version     2.0;
    format      ascii;
    arch        "LSB;label=32;scalar=64";
    class       surfaceScalarField;
    location    "0.235";
    object      phi;
}
// * * * * * * * * * * * * * * * * * * * * * * * * * * * * * * * * * * * * * //

dimensions      [0 3 -1 0 0 0 0];

oriented        oriented;

internalField   nonuniform List<scalar> 
22600
(
1.41203e-07
-2.8078e-07
1.39577e-07
2.79455e-07
-3.00935e-07
1.62682e-07
3.95292e-07
-3.01965e-07
1.86128e-07
4.80784e-07
-3.1136e-07
2.25868e-07
5.26485e-07
-3.20639e-07
2.74939e-07
5.2289e-07
-3.26653e-07
3.30248e-07
4.64238e-07
-3.28573e-07
3.87226e-07
3.52512e-07
-3.26747e-07
4.38473e-07
1.97258e-07
-3.23001e-07
4.78255e-07
-3.21638e-07
4.98899e-07
1.16603e-07
-5.12089e-07
1.14707e-07
2.30001e-07
-5.48509e-07
1.34175e-07
3.27393e-07
-5.57231e-07
1.57874e-07
4.01057e-07
-5.82126e-07
1.97102e-07
4.4203e-07
-6.06584e-07
2.44972e-07
4.42e-07
-6.26575e-07
2.99952e-07
3.95428e-07
-6.3958e-07
3.57578e-07
3.03193e-07
-6.44354e-07
4.09843e-07
1.71987e-07
-6.42612e-07
4.50816e-07
-6.4307e-07
4.71539e-07
1.15344e-07
-7.40976e-07
1.13543e-07
2.23878e-07
-7.91749e-07
1.34706e-07
3.21275e-07
-8.18737e-07
1.64109e-07
3.98325e-07
-8.69296e-07
2.1012e-07
4.45184e-07
-9.21672e-07
2.68229e-07
4.50584e-07
-9.6827e-07
3.36295e-07
4.06112e-07
-1.00271e-06
4.07602e-07
3.11937e-07
-1.02344e-06
4.7326e-07
1.76648e-07
-1.03366e-06
5.2634e-07
-1.04225e-06
5.54334e-07
9.65961e-08
-9.3238e-07
9.48077e-08
1.83323e-07
-9.95083e-07
1.16609e-07
2.69965e-07
-1.05785e-06
1.52476e-07
3.44343e-07
-1.15028e-06
2.06609e-07
3.94222e-07
-1.24768e-06
2.76127e-07
4.07257e-07
-1.34089e-06
3.59589e-07
3.73213e-07
-1.41614e-06
4.47473e-07
2.90073e-07
-1.47012e-06
5.29819e-07
1.65423e-07
-1.50695e-06
5.97941e-07
-1.53318e-06
6.35235e-07
5.74747e-08
-1.0454e-06
5.55437e-08
1.06385e-07
-1.12215e-06
7.81567e-08
1.70693e-07
-1.24146e-06
1.19296e-07
2.35149e-07
-1.3971e-06
1.82357e-07
2.87915e-07
-1.56745e-06
2.67002e-07
3.11688e-07
-1.73395e-06
3.69286e-07
2.9371e-07
-1.8772e-06
4.79039e-07
2.31596e-07
-1.99361e-06
5.8561e-07
1.33863e-07
-2.08392e-06
6.74696e-07
-2.13889e-06
7.20137e-07
-9.8334e-09
-1.02344e-06
-1.21232e-08
-1.10116e-08
-1.13238e-06
1.14083e-08
1.54919e-08
-1.32717e-06
5.92049e-08
6.51591e-08
-1.58328e-06
1.36512e-07
1.20194e-07
-1.86538e-06
2.42903e-07
1.5821e-07
-2.14972e-06
3.77753e-07
1.65137e-07
-2.41076e-06
5.26636e-07
1.35351e-07
-2.63891e-06
6.75083e-07
7.9339e-08
-2.82278e-06
7.94873e-07
-2.92288e-06
8.48684e-07
-1.03328e-07
-8.14355e-07
-1.05758e-07
-1.71978e-07
-9.86045e-07
-7.76849e-08
-1.85899e-07
-1.29802e-06
-1.52278e-08
-1.52749e-07
-1.70159e-06
8.51616e-08
-9.06332e-08
-2.15166e-06
2.24157e-07
-3.10984e-08
-2.60985e-06
4.00593e-07
7.08385e-09
-3.04119e-06
5.92246e-07
2.0638e-08
-3.41843e-06
7.65967e-07
1.98923e-08
-3.71356e-06
8.9153e-07
-3.86734e-06
9.5559e-07
-2.28519e-07
-3.54872e-07
-2.30964e-07
-3.91865e-07
-6.22241e-07
-2.00458e-07
-4.83548e-07
-1.07896e-06
-1.27378e-07
-5.04636e-07
-1.63926e-06
-4.12399e-08
-4.6679e-07
-2.26061e-06
7.11118e-08
-4.09148e-07
-2.88006e-06
2.12566e-07
-3.55764e-07
-3.43234e-06
3.37768e-07
-2.76653e-07
-3.88811e-06
3.90564e-07
-1.38297e-07
-4.22929e-06
3.77368e-07
-4.41912e-06
4.05657e-07
-6.46296e-07
9.40075e-07
-6.48651e-07
-1.12399e-06
5.04321e-07
-6.48867e-07
-1.39703e-06
-1.14914e-07
-6.91006e-07
-1.51767e-06
-7.7369e-07
-7.44926e-07
-1.52548e-06
-1.55697e-06
-6.95831e-07
-1.49501e-06
-2.29332e-06
-6.1721e-07
-1.37948e-06
-2.93087e-06
-6.16997e-07
-1.07773e-06
-3.42865e-06
-7.61212e-07
-5.7565e-07
-3.76888e-06
-9.62486e-07
-3.95014e-06
-1.05034e-06
-2.91127e-06
6.77103e-06
-2.91968e-06
-4.22199e-06
4.62859e-06
-2.81355e-06
-4.30902e-06
2.7156e-06
-2.74348e-06
-4.03642e-06
1.12554e-06
-2.17183e-06
-3.74242e-06
-2.89241e-07
-1.56174e-06
-3.39279e-06
-1.57589e-06
-1.06706e-06
-2.87695e-06
-2.5678e-06
-8.78922e-07
-2.11829e-06
-3.31352e-06
-8.73791e-07
-1.14715e-06
-3.81551e-06
-9.245e-07
-3.99336e-06
-1.0862e-06
-6.67586e-06
2.02228e-05
-6.7759e-06
-8.82209e-06
1.07698e-05
-3.99494e-06
-7.72041e-06
2.85054e-06
-1.23663e-06
-6.57327e-06
-1.03429e-06
1.01269e-06
-5.31492e-06
-2.35991e-06
8.12318e-07
-4.012e-06
-3.04117e-06
1.62366e-07
-2.96242e-06
-5.00445e-06
1.38707e-06
-2.13943e-06
-5.33775e-06
1.20124e-06
-1.16771e-06
-4.57581e-06
-2.1143e-07
-5.15644e-06
-2.54163e-08
-1.97522e-06
2.41612e-05
-1.96323e-06
-5.76467e-06
1.42707e-05
2.88501e-07
-7.36921e-06
6.15381e-06
-1.69873e-06
-6.0222e-06
1.40062e-06
-3.78192e-06
-3.3067e-06
5.3264e-07
-5.60805e-06
-1.73427e-08
-2.47861e-07
-6.08267e-06
1.01989e-06
-7.19047e-07
-5.32264e-06
4.68857e-07
-1.01728e-06
-3.76944e-06
2.17366e-07
-1.38146e-06
-2.94285e-06
-2.0783e-06
-3.47488e-06
1.60888e-06
2.08063e-05
1.74604e-06
-1.23684e-06
1.36371e-05
3.47929e-06
-2.84212e-06
5.9898e-06
1.76929e-06
-3.13861e-06
3.22836e-06
-1.53127e-06
-1.66048e-06
3.17997e-06
-4.12545e-06
3.16774e-07
3.65282e-06
-5.87793e-06
1.1723e-06
3.81764e-06
-5.39221e-06
4.27678e-07
3.68312e-06
-3.95578e-06
-1.47632e-07
2.96299e-06
-3.76914e-06
1.70902e-06
-4.58845e-06
3.28337e-06
1.40764e-05
3.44659e-06
1.96642e-06
1.04389e-05
4.5152e-06
1.80626e-07
4.548e-06
3.22759e-06
-4.60347e-07
2.35697e-06
1.51236e-06
1.23263e-08
2.28894e-06
4.18359e-07
8.61228e-07
3.25354e-06
-4.49622e-07
9.97182e-07
4.33022e-06
-6.48543e-07
3.57801e-07
5.03489e-06
-7.12386e-07
6.34945e-08
4.64738e-06
-1.39009e-06
3.52009e-06
-2.43011e-06
3.08122e-06
7.79537e-06
3.19977e-06
3.17239e-06
6.71503e-06
3.63268e-06
1.94718e-06
3.14817e-06
2.62504e-06
1.03753e-06
1.27871e-06
1.98792e-06
8.16632e-07
6.69513e-07
1.84032e-06
1.18302e-06
9.75498e-07
1.91165e-06
1.35089e-06
2.35254e-06
1.80981e-06
1.05913e-06
4.07739e-06
1.24926e-06
8.29586e-07
4.64488e-06
2.32052e-07
4.06822e-06
-5.12419e-07
1.94327e-06
3.86781e-06
1.98429e-06
2.6852e-06
4.01374e-06
1.95935e-06
2.27244e-06
2.28279e-06
1.27814e-06
1.59505e-06
1.03011e-06
9.25985e-07
9.99642e-07
3.31098e-07
9.33824e-07
7.16119e-07
-5.61096e-08
1.31513e-06
8.20507e-07
2.36128e-07
2.01203e-06
1.036e-06
1.6352e-06
2.2267e-06
1.00834e-06
2.9732e-06
1.69933e-06
3.28372e-06
1.04337e-06
8.94386e-07
2.08411e-06
8.89308e-07
1.59806e-06
2.54193e-06
7.68139e-07
1.6902e-06
1.75913e-06
4.31514e-07
1.49136e-06
9.83159e-07
2.45783e-07
1.17411e-06
4.21403e-07
2.26938e-07
7.21777e-07
4.84273e-09
3.91389e-07
3.12851e-07
-2.42092e-07
8.87145e-07
3.04067e-07
2.19918e-08
1.62198e-06
4.84484e-07
7.99232e-07
1.99354e-06
1.25386e-06
1.97054e-06
4.07673e-07
1.28908e-06
3.87366e-07
8.66009e-07
1.7653e-06
3.18304e-07
1.07696e-06
1.37392e-06
1.74258e-07
1.0932e-06
8.95407e-07
7.15196e-08
1.00762e-06
4.97075e-07
9.90308e-09
8.35995e-07
1.73304e-07
3.16851e-09
5.40185e-07
-8.23109e-08
1.36028e-07
2.87477e-07
-2.01477e-07
4.76178e-07
3.02099e-07
-1.38962e-07
9.23574e-07
-3.82683e-08
1.16322e-06
2.27074e-07
8.6183e-07
2.00175e-07
5.0711e-07
1.30938e-06
1.75886e-07
6.81069e-07
1.09403e-06
1.05929e-07
7.41274e-07
7.95773e-07
3.94254e-08
7.3316e-07
5.24891e-07
-1.96957e-08
6.82096e-07
2.85631e-07
-6.12574e-08
5.87089e-07
8.49484e-08
-7.22445e-08
4.83102e-07
-5.66498e-08
-4.08326e-08
4.16925e-07
-1.4359e-07
7.08126e-08
-2.04491e-07
1.67642e-07
1.42097e-07
1.12337e-07
6.07394e-07
3.19084e-07
1.06181e-07
1.02621e-06
4.4543e-07
6.61013e-08
9.01582e-07
5.07131e-07
2.27714e-08
7.11306e-07
5.22267e-07
-1.89211e-08
5.28688e-07
5.08081e-07
-5.72277e-08
3.57044e-07
4.71025e-07
-8.15242e-08
2.03535e-07
4.28792e-07
-9.72922e-08
8.28803e-08
3.94236e-07
-9.80999e-08
-1.09324e-08
-9.49103e-08
-8.04524e-08
1.64284e-07
-3.01097e-07
2.7639e-07
3.28348e-07
-3.26761e-07
3.25379e-07
4.70884e-07
-3.29789e-07
3.73381e-07
5.83547e-07
-3.44466e-07
4.57671e-07
6.53049e-07
-3.62017e-07
5.67453e-07
6.63977e-07
-3.7783e-07
6.9715e-07
6.02667e-07
-3.90438e-07
8.38974e-07
4.6578e-07
-3.98189e-07
9.73548e-07
2.61524e-07
-4.01225e-07
1.08373e-06
-4.05478e-07
1.14576e-06
1.3605e-07
-5.4878e-07
2.2634e-07
2.70756e-07
-5.94455e-07
2.67163e-07
3.90126e-07
-6.07387e-07
3.16103e-07
4.85596e-07
-6.4128e-07
3.98446e-07
5.45741e-07
-6.81819e-07
5.0463e-07
5.57648e-07
-7.218e-07
6.32016e-07
5.09446e-07
-7.58029e-07
7.73371e-07
3.97255e-07
-7.85447e-07
9.09292e-07
2.25711e-07
-8.04445e-07
1.02558e-06
-8.26234e-07
1.09505e-06
1.36463e-07
-7.92053e-07
2.20354e-07
2.6717e-07
-8.54315e-07
2.63859e-07
3.87822e-07
-8.86542e-07
3.22613e-07
4.88734e-07
-9.49873e-07
4.17801e-07
5.56742e-07
-1.0248e-06
5.43197e-07
5.75253e-07
-1.09894e-06
6.94925e-07
5.29256e-07
-1.16663e-06
8.62201e-07
4.1312e-07
-1.22298e-06
1.02693e-06
2.32126e-07
-1.26897e-06
1.17186e-06
-1.31478e-06
1.25192e-06
1.18416e-07
-9.95378e-07
1.79716e-07
2.27294e-07
-1.07008e-06
2.23493e-07
3.3782e-07
-1.13836e-06
2.93763e-07
4.36238e-07
-1.24493e-06
4.03249e-07
5.07277e-07
-1.36762e-06
5.47915e-07
5.32745e-07
-1.49213e-06
7.27311e-07
4.95788e-07
-1.60724e-06
9.25038e-07
3.88332e-07
-1.70856e-06
1.12286e-06
2.18361e-07
-1.79554e-06
1.29448e-06
-1.87257e-06
1.38797e-06
8.01057e-08
-1.12244e-06
1.02505e-07
1.50475e-07
-1.20887e-06
1.46585e-07
2.39161e-07
-1.33469e-06
2.2694e-07
3.28252e-07
-1.50313e-06
3.51463e-07
4.01834e-07
-1.69587e-06
5.21664e-07
4.36377e-07
-1.89094e-06
7.3355e-07
4.13041e-07
-2.07711e-06
9.72249e-07
3.24161e-07
-2.24556e-06
1.21149e-06
1.80484e-07
-2.39171e-06
1.41455e-06
-2.50088e-06
1.50709e-06
1.35554e-08
-1.13262e-06
-1.55028e-08
3.53416e-08
-1.25066e-06
3.14075e-08
9.0182e-08
-1.45379e-06
1.23468e-07
1.67439e-07
-1.71498e-06
2.71108e-07
2.43769e-07
-2.00746e-06
4.78164e-07
2.89738e-07
-2.29842e-06
7.39262e-07
2.85843e-07
-2.57713e-06
1.03055e-06
2.23921e-07
-2.82772e-06
1.31917e-06
1.21468e-07
-3.04597e-06
1.55159e-06
-3.18959e-06
1.6428e-06
-7.54076e-08
-9.86129e-07
-1.76841e-07
-1.16643e-07
-1.16624e-06
-1.20865e-07
-9.88213e-08
-1.48057e-06
-6.27021e-09
-3.30999e-08
-1.86821e-06
1.72666e-07
5.22893e-08
-2.28327e-06
4.14585e-07
1.28731e-07
-2.6768e-06
7.02537e-07
1.67401e-07
-3.01167e-06
9.88122e-07
1.52113e-07
-3.29217e-06
1.24571e-06
9.42304e-08
-3.53286e-06
1.4363e-06
-3.70516e-06
1.55499e-06
-1.98668e-07
-6.21715e-07
-3.96711e-07
-3.58802e-07
-8.44142e-07
-3.62425e-07
-4.18904e-07
-1.26676e-06
-2.81089e-07
-3.75059e-07
-1.7861e-06
-1.67194e-07
-2.49877e-07
-2.32754e-06
-9.79823e-09
-1.21763e-07
-2.77276e-06
1.80408e-07
-4.13e-08
-3.09169e-06
3.3732e-07
-1.60821e-08
-3.35667e-06
4.29839e-07
-2.38512e-10
-3.61271e-06
4.41373e-07
-3.82961e-06
5.11656e-07
-6.47063e-07
5.06673e-07
-1.12998e-06
-1.14981e-06
1.61875e-07
-1.15214e-06
-1.34333e-06
-4.42987e-07
-1.32125e-06
-1.27779e-06
-1.16621e-06
-1.43035e-06
-1.08622e-06
-1.9185e-06
-1.29644e-06
-8.99265e-07
-2.61449e-06
-9.6244e-07
-7.89821e-07
-3.26631e-06
-5.51821e-07
-6.79168e-07
-3.89828e-06
-3.30253e-07
-4.36219e-07
-4.47983e-06
-3.38315e-07
-4.8316e-06
-5.05966e-07
-2.80263e-06
4.63912e-06
-4.24951e-06
-3.78349e-06
2.11569e-06
-3.7865e-06
-3.71958e-06
4.53854e-07
-3.70423e-06
-3.47713e-06
-8.51123e-07
-2.72937e-06
-3.11993e-06
-2.73422e-06
-1.10322e-06
-2.69568e-06
-5.47423e-06
1.36843e-06
-2.21762e-06
-7.98787e-06
3.36458e-06
-1.65376e-06
-8.8876e-06
3.55168e-06
-1.0406e-06
-9.16303e-06
3.14553e-06
-9.76227e-06
2.83322e-06
-3.96126e-06
1.07794e-05
-8.95493e-06
-5.20993e-06
4.51789e-06
-5.14847e-06
-6.97869e-06
6.58922e-07
3.27068e-07
-8.68564e-06
1.48351e-06
3.85007e-07
-6.72834e-06
-1.67651e-06
-2.2027e-06
-4.10996e-06
-4.45085e-06
-3.47939e-06
-1.69682e-06
-6.14956e-06
-2.86438e-06
-4.25638e-07
-6.97705e-06
-1.98049e-06
-2.66417e-07
-7.46103e-06
-2.07265e-06
-7.76091e-06
-2.53381e-06
2.20208e-07
1.42589e-05
-5.66294e-06
-3.07919e-06
1.0915e-05
-2.8092e-06
-4.66282e-06
2.61107e-06
-2.06725e-06
-2.74299e-06
1.45267e-06
-5.67092e-06
2.49925e-07
-5.82078e-07
-9.6954e-06
3.20259e-06
-2.41816e-06
-1.1068e-05
4.70696e-06
-3.20002e-06
-9.77654e-06
4.7606e-06
-3.75469e-06
-7.04544e-06
3.13446e-06
-4.24776e-06
-4.53e-06
-4.75728e-06
-4.4588e-06
3.36068e-06
1.36319e-05
-9.87616e-07
2.41513e-06
1.27139e-05
2.62597e-06
-3.92866e-07
5.18573e-06
2.00263e-06
-4.3836e-07
1.75285e-06
-1.78595e-06
2.06381e-06
4.11916e-07
-7.62162e-06
5.26275e-06
-6.86262e-07
-1.08088e-05
6.9686e-06
-1.48721e-06
-8.81087e-06
6.02749e-06
-1.94016e-06
-4.8292e-06
3.46851e-06
-2.40748e-06
-3.05045e-06
-3.33182e-06
-3.81168e-06
4.39817e-06
1.04565e-05
2.22378e-06
4.80622e-06
1.17787e-05
5.0423e-06
2.83428e-06
5.99961e-06
4.38565e-06
2.37227e-06
1.60469e-06
2.12253e-06
3.53593e-06
-1.31094e-07
-2.02302e-07
5.65077e-06
-8.32143e-07
-2.41858e-06
6.32851e-06
-1.12062e-06
-1.69287e-06
4.82362e-06
-9.18944e-07
-2.28715e-07
2.75627e-06
-1.00407e-06
-7.26152e-07
-1.7567e-06
-2.28536e-06
3.54986e-06
6.72146e-06
3.38497e-06
4.97742e-06
8.81262e-06
5.17119e-06
4.11059e-06
5.21728e-06
4.27419e-06
3.01598e-06
2.12225e-06
2.56497e-06
2.84049e-06
5.73636e-07
1.31108e-06
3.68824e-06
-5.58455e-07
7.90221e-07
4.55211e-06
-1.24961e-06
1.07492e-06
4.47528e-06
-8.68193e-07
1.27534e-06
3.14923e-06
-3.23161e-07
8.77185e-07
-3.29044e-07
8.61647e-08
1.92307e-06
4.00496e-06
2.77772e-06
3.42343e-06
5.75943e-06
3.51218e-06
3.34582e-06
4.03195e-06
2.54108e-06
2.67614e-06
2.28149e-06
1.43643e-06
2.13053e-06
1.1965e-06
8.56577e-07
1.85691e-06
2.49984e-07
7.80298e-07
2.0357e-06
-7.26904e-07
1.31055e-06
2.36313e-06
-8.86667e-07
1.91774e-06
2.0636e-06
-2.71619e-07
1.94731e-06
1.128e-07
1.65146e-06
7.68394e-07
2.52908e-06
1.5968e-06
1.77367e-06
3.74587e-06
1.77642e-06
2.07459e-06
2.98968e-06
1.17286e-06
1.93482e-06
2.05074e-06
6.1631e-07
1.68953e-06
1.36642e-06
3.02305e-07
1.32625e-06
7.80185e-07
2.24467e-07
7.98163e-07
1.92865e-07
4.95478e-07
6.56884e-07
-2.91809e-07
1.16841e-06
7.8245e-07
-2.03185e-07
1.79954e-06
1.1266e-07
2.02421e-06
3.36713e-07
1.75621e-06
8.23523e-07
9.00664e-07
2.63912e-06
8.611e-07
1.21268e-06
2.27147e-06
5.80443e-07
1.27875e-06
1.75224e-06
3.03957e-07
1.23738e-06
1.33521e-06
8.24953e-08
1.09375e-06
9.77383e-07
-5.03983e-08
8.12847e-07
6.4306e-07
-3.32603e-08
4.71021e-07
3.65125e-07
1.61074e-07
3.90001e-07
2.51066e-07
5.50341e-07
2.39708e-07
8.69521e-07
2.02311e-07
1.30542e-06
4.48653e-07
5.27312e-07
2.02031e-06
4.69698e-07
7.46942e-07
1.82231e-06
3.35467e-07
8.35947e-07
1.52049e-06
1.82171e-07
8.55442e-07
1.26286e-06
3.31535e-08
8.26565e-07
1.03637e-06
-9.13641e-08
7.34466e-07
8.33338e-07
-1.70421e-07
5.84837e-07
6.64867e-07
-1.90945e-07
4.90549e-07
5.49957e-07
-1.3379e-07
4.64622e-07
-5.02471e-08
1.35984e-07
2.55273e-07
1.0265e-06
3.38193e-07
2.74055e-07
1.65023e-06
4.87963e-07
1.99185e-07
1.53945e-06
5.65469e-07
1.08924e-07
1.35683e-06
5.96611e-07
1.72079e-08
1.1956e-06
5.96878e-07
-6.97438e-08
1.04862e-06
5.68054e-07
-1.35496e-07
9.1614e-07
5.17013e-07
-1.86712e-07
8.05324e-07
4.62763e-07
-2.12523e-07
7.18636e-07
-2.16935e-07
6.40628e-07
1.87912e-07
-3.02146e-07
3.90624e-07
3.76592e-07
-3.29807e-07
4.66506e-07
5.3999e-07
-3.25239e-07
5.35221e-07
6.69693e-07
-3.3192e-07
6.59889e-07
7.50936e-07
-3.38371e-07
8.2458e-07
7.66102e-07
-3.40984e-07
1.02297e-06
6.98332e-07
-3.39286e-07
1.24603e-06
5.38888e-07
-3.3586e-07
1.46885e-06
3.00741e-07
-3.34709e-07
1.65659e-06
-3.4029e-07
1.76385e-06
1.59809e-07
-5.57529e-07
3.21914e-07
3.19726e-07
-6.07441e-07
3.8488e-07
4.60775e-07
-6.05246e-07
4.55062e-07
5.74576e-07
-6.2432e-07
5.77044e-07
6.47759e-07
-6.44582e-07
7.37659e-07
6.63658e-07
-6.60206e-07
9.35338e-07
6.05649e-07
-6.68209e-07
1.1603e-06
4.66696e-07
-6.75048e-07
1.38743e-06
2.66024e-07
-6.86882e-07
1.57843e-06
-7.02748e-07
1.69455e-06
1.6595e-07
-8.19135e-07
3.1601e-07
3.26143e-07
-8.86632e-07
3.82858e-07
4.74023e-07
-8.99344e-07
4.68831e-07
5.98945e-07
-9.42403e-07
6.10961e-07
6.84386e-07
-9.87647e-07
8.00821e-07
7.08676e-07
-1.02396e-06
1.03439e-06
6.49478e-07
-1.05091e-06
1.3041e-06
5.03352e-07
-1.07405e-06
1.57206e-06
2.95693e-07
-1.0984e-06
1.79104e-06
-1.10739e-06
1.91972e-06
1.54358e-07
-1.05832e-06
2.64545e-07
2.9735e-07
-1.13859e-06
3.32457e-07
4.40901e-07
-1.18492e-06
4.35785e-07
5.68874e-07
-1.26708e-06
5.99951e-07
6.64488e-07
-1.35591e-06
8.2056e-07
7.00625e-07
-1.42978e-06
1.09699e-06
6.51659e-07
-1.49502e-06
1.41812e-06
5.15245e-07
-1.55081e-06
1.73603e-06
3.1205e-07
-1.59843e-06
1.9977e-06
-1.57375e-06
2.12888e-06
1.21291e-07
-1.24196e-06
1.64852e-07
2.30722e-07
-1.33499e-06
2.33557e-07
3.59811e-07
-1.44153e-06
3.54467e-07
4.90199e-07
-1.59106e-06
5.45054e-07
5.97854e-07
-1.74427e-06
8.02374e-07
6.50554e-07
-1.88157e-06
1.13264e-06
6.16055e-07
-2.00278e-06
1.5145e-06
4.92726e-07
-2.10842e-06
1.89243e-06
2.96439e-07
-2.18443e-06
2.19684e-06
-2.10818e-06
2.29607e-06
6.14195e-08
-1.32804e-06
9.15576e-09
1.27467e-07
-1.45388e-06
8.42545e-08
2.35622e-07
-1.6565e-06
2.30276e-07
3.67981e-07
-1.91005e-06
4.57747e-07
4.89205e-07
-2.15533e-06
7.68003e-07
5.57171e-07
-2.3692e-06
1.15893e-06
5.3548e-07
-2.54355e-06
1.59301e-06
4.18574e-07
-2.69732e-06
2.02498e-06
2.26465e-07
-2.80466e-06
2.36393e-06
-2.71577e-06
2.43749e-06
-1.27676e-08
-1.29886e-06
-1.93253e-07
-2.23228e-09
-1.48048e-06
-1.04803e-07
7.76759e-08
-1.81538e-06
7.27106e-08
2.02908e-07
-2.19557e-06
3.32949e-07
3.26671e-07
-2.53332e-06
6.68813e-07
3.91603e-07
-2.76807e-06
1.03647e-06
3.79528e-07
-2.9349e-06
1.39154e-06
2.77596e-07
-3.10088e-06
1.75119e-06
1.213e-07
-3.24814e-06
2.03607e-06
-3.2622e-06
2.18282e-06
-1.25176e-07
-1.07917e-06
-4.91219e-07
-2.78164e-07
-1.26633e-06
-4.2359e-07
-3.05096e-07
-1.76229e-06
-3.07254e-07
-2.33666e-07
-2.2886e-06
-1.45598e-07
-1.26347e-07
-2.70374e-06
5.32943e-08
-2.49072e-08
-2.98695e-06
2.97846e-07
5.57363e-09
-3.15577e-06
5.27715e-07
-6.74086e-08
-3.40047e-06
8.02412e-07
-1.26504e-07
-3.73261e-06
9.84935e-07
-4.06607e-06
1.14732e-06
-6.84016e-07
-1.15708e-07
-1.40943e-06
-1.31395e-06
-4.41277e-07
-1.34726e-06
-1.48401e-06
-1.42297e-06
-1.49051e-06
-1.28168e-06
-2.45479e-06
-1.46648e-06
-8.19287e-07
-3.40524e-06
-1.05733e-06
-3.15597e-07
-4.10003e-06
-3.53044e-07
-2.30307e-07
-4.28501e-06
4.92125e-07
-4.47374e-07
-4.89546e-06
1.3818e-06
-5.49098e-07
-5.94168e-06
1.97248e-06
-7.04899e-06
2.10143e-06
-2.70727e-06
2.69658e-06
-4.35453e-06
-3.68867e-06
4.68704e-07
-3.71508e-06
-3.01862e-06
-2.78768e-06
-3.00957e-06
-1.32549e-06
-5.23689e-06
-1.6404e-06
9.46645e-07
-8.32166e-06
1.54107e-06
7.88436e-07
-6.56783e-06
3.99444e-06
-4.91802e-07
-4.86866e-06
5.22847e-06
-6.66482e-07
-6.49388e-06
5.32478e-06
-5.9088e-07
-8.81722e-06
5.94547e-06
-1.01942e-05
5.90873e-06
-1.2234e-06
2.81547e-06
-7.85042e-06
8.89849e-08
6.9951e-07
-6.69166e-06
-5.69499e-07
-1.85765e-06
5.55246e-08
4.46271e-07
-4.91207e-06
-9.55582e-07
1.51985e-06
-8.37594e-06
-3.222e-06
1.39519e-06
-7.3776e-06
-2.54497e-06
1.2322e-06
-5.53115e-06
-2.03891e-06
1.17028e-06
-6.50411e-06
-1.90833e-06
3.76204e-07
-9.37141e-06
-7.24392e-07
-1.0822e-05
-1.41836e-07
-1.85819e-06
6.04864e-06
-7.03792e-06
-2.54889e-06
2.60627e-06
-4.02527e-06
-3.53363e-06
-1.58355e-07
-2.7818e-06
-3.01428e-06
-3.54392e-06
-7.55842e-06
-2.97132e-06
-5.65505e-06
-1.24593e-05
-3.35318e-06
-4.15492e-06
-1.39088e-05
-2.21789e-06
-3.11541e-06
-1.33276e-05
-1.05798e-08
-5.17068e-06
-1.05862e-05
9.7413e-07
-7.65128e-06
-7.23484e-06
-8.25292e-06
-6.45132e-06
1.67474e-06
5.80021e-06
-2.41392e-06
1.68853e-06
5.08756e-06
1.30882e-07
1.09939e-07
2.31305e-06
1.10981e-06
-6.84944e-07
-3.14219e-07
-4.22077e-06
-3.97428e-07
-1.41234e-06
-1.21518e-05
1.08773e-06
-1.69109e-06
-1.47578e-05
3.45811e-06
-3.48747e-06
-1.08092e-05
4.48188e-06
-6.29198e-06
-4.73167e-06
3.22966e-06
-7.44557e-06
-2.00395e-06
-7.04467e-06
-2.96603e-06
3.15905e-06
4.37432e-06
4.90611e-07
4.17288e-06
5.91561e-06
3.20042e-06
3.51124e-06
3.2647e-06
4.09564e-06
2.80868e-06
8.05498e-07
1.70537e-06
3.84508e-06
2.62083e-07
-2.91313e-06
6.60515e-06
-1.7546e-07
-6.69428e-06
7.59885e-06
-2.31226e-06
-3.86178e-06
6.01625e-06
-4.79968e-06
-1.38406e-07
3.40539e-06
-5.75176e-06
1.90888e-07
-5.66416e-06
-1.34069e-06
2.55568e-06
3.018e-06
2.1856e-06
4.11545e-06
5.14472e-06
4.38232e-06
3.86181e-06
3.60812e-06
4.18441e-06
3.09207e-06
1.90695e-06
2.23326e-06
3.20146e-06
1.09834e-06
3.65441e-07
4.49509e-06
3.50667e-07
-1.02953e-06
4.87831e-06
-1.43096e-06
-1.89596e-07
3.8877e-06
-3.19911e-06
6.65388e-07
2.52408e-06
-3.73721e-06
2.26252e-07
-3.56185e-06
-5.51061e-07
1.23158e-06
2.19814e-06
2.366e-06
2.46192e-06
3.97379e-06
3.45277e-06
2.63653e-06
3.21094e-06
2.76365e-06
2.35467e-06
2.11736e-06
1.50788e-06
2.31721e-06
1.39737e-06
5.95004e-07
2.55136e-06
6.98461e-07
1.98351e-07
2.49308e-06
-4.51466e-07
3.8934e-07
2.1232e-06
-1.68208e-06
7.70592e-07
1.59092e-06
-2.189e-06
9.31368e-07
-2.08543e-06
8.52683e-07
4.24798e-07
1.70777e-06
1.66236e-06
1.16635e-06
2.94998e-06
2.05868e-06
1.50705e-06
2.53417e-06
1.50893e-06
1.53628e-06
1.86907e-06
8.35375e-07
1.54329e-06
1.37953e-06
3.13144e-07
1.54384e-06
9.28257e-07
-5.88307e-09
1.28134e-06
3.57749e-07
-5.12304e-08
9.1083e-07
-2.97689e-07
1.54519e-07
7.34551e-07
-6.75481e-07
4.62304e-07
-7.54913e-07
7.04671e-07
1.91152e-07
1.34526e-06
9.94877e-07
6.17197e-07
2.24857e-06
1.13646e-06
8.97265e-07
2.00429e-06
8.30253e-07
9.90732e-07
1.60808e-06
4.71488e-07
1.01856e-06
1.2953e-06
1.38898e-07
1.01592e-06
1.01645e-06
-1.35957e-07
9.05824e-07
7.22145e-07
-2.87562e-07
6.65253e-07
4.30431e-07
-3.2648e-07
5.35466e-07
2.5113e-07
-2.46484e-07
1.50164e-07
-1.04651e-07
1.32339e-07
1.08164e-06
5.79931e-07
3.92188e-07
1.81181e-06
6.46605e-07
5.8056e-07
1.66806e-06
4.83331e-07
6.6594e-07
1.42657e-06
2.78304e-07
7.01058e-07
1.22573e-06
6.76171e-08
7.11874e-07
1.0459e-06
-1.31626e-07
6.7307e-07
8.74511e-07
-2.83989e-07
5.78526e-07
7.2232e-07
-3.88291e-07
5.10656e-07
6.23191e-07
-4.37973e-07
5.33498e-07
-4.35036e-07
9.59095e-08
3.40698e-07
9.00307e-07
2.62883e-07
3.81976e-07
1.53692e-06
3.91876e-07
2.86576e-07
1.45168e-06
4.63206e-07
1.63783e-07
1.30039e-06
5.00095e-07
3.28985e-08
1.17315e-06
5.17542e-07
-9.85095e-08
1.05722e-06
5.08418e-07
-2.00793e-07
9.4893e-07
4.77457e-07
-2.88063e-07
8.54644e-07
4.39224e-07
-3.33498e-07
7.82411e-07
-3.68184e-07
7.03621e-07
2.27534e-07
-3.1153e-07
4.7462e-07
4.60667e-07
-3.44555e-07
5.77928e-07
6.64418e-07
-3.31971e-07
6.63442e-07
8.29647e-07
-3.28934e-07
8.23594e-07
9.39207e-07
-3.22661e-07
1.03768e-06
9.6958e-07
-3.07462e-07
1.30006e-06
8.9768e-07
-2.81328e-07
1.59926e-06
7.13813e-07
-2.48634e-07
1.90135e-06
4.19679e-07
-1.99921e-07
2.15064e-06
-1.64064e-07
2.31922e-06
1.99026e-07
-5.82441e-07
3.93799e-07
4.02018e-07
-6.41503e-07
4.78836e-07
5.82471e-07
-6.24384e-07
5.67022e-07
7.32351e-07
-6.26895e-07
7.25125e-07
8.36578e-07
-6.24971e-07
9.35743e-07
8.72651e-07
-6.07401e-07
1.1992e-06
8.18701e-07
-5.79452e-07
1.51238e-06
6.68252e-07
-5.41038e-07
1.83029e-06
4.15954e-07
-4.76925e-07
2.10773e-06
-3.68281e-07
2.26636e-06
2.1193e-07
-8.69779e-07
3.91418e-07
4.21305e-07
-9.50118e-07
4.82099e-07
6.16021e-07
-9.42481e-07
5.92211e-07
7.84356e-07
-9.61997e-07
7.77729e-07
9.08213e-07
-9.75404e-07
1.0274e-06
9.59756e-07
-9.67888e-07
1.34334e-06
9.14471e-07
-9.47292e-07
1.71722e-06
7.38831e-07
-9.08686e-07
2.11535e-06
4.36287e-07
-8.05176e-07
2.42183e-06
-4.96866e-07
2.42701e-06
2.08542e-07
-1.15105e-06
3.37274e-07
4.06921e-07
-1.24542e-06
4.29381e-07
6.05051e-07
-1.26727e-06
5.62441e-07
7.87731e-07
-1.32594e-06
7.8121e-07
9.31944e-07
-1.37393e-06
1.07487e-06
1.00305e-06
-1.40273e-06
1.46072e-06
9.70471e-07
-1.41928e-06
1.92269e-06
7.72208e-07
-1.40715e-06
2.43275e-06
4.31258e-07
-1.24972e-06
2.78319e-06
-7.08512e-07
2.69477e-06
1.84537e-07
-1.3983e-06
2.2756e-07
3.55441e-07
-1.5038e-06
3.21035e-07
5.50103e-07
-1.59097e-06
4.83505e-07
7.45365e-07
-1.71504e-06
7.389e-07
9.14284e-07
-1.83029e-06
1.08982e-06
1.00701e-06
-1.92326e-06
1.56045e-06
9.79107e-07
-2.00244e-06
2.12557e-06
7.44999e-07
-2.0252e-06
2.74459e-06
3.56355e-07
-1.83198e-06
3.16775e-06
-1.21935e-06
3.05827e-06
1.39284e-07
-1.58512e-06
5.66952e-08
2.75435e-07
-1.71538e-06
1.59684e-07
4.62834e-07
-1.90937e-06
3.61276e-07
6.72407e-07
-2.13383e-06
6.66958e-07
8.57535e-07
-2.33256e-06
1.08514e-06
9.5209e-07
-2.485e-06
1.62611e-06
9.01954e-07
-2.59968e-06
2.24038e-06
6.25692e-07
-2.62337e-06
2.89942e-06
2.26204e-07
-2.43127e-06
3.3627e-06
-1.95284e-06
3.29656e-06
8.83102e-08
-1.70438e-06
-1.62304e-07
1.768e-07
-1.86794e-06
-4.07338e-08
3.36205e-07
-2.19388e-06
1.97817e-07
5.28811e-07
-2.52487e-06
5.31383e-07
6.7739e-07
-2.75276e-06
9.40436e-07
7.36127e-07
-2.88876e-06
1.3815e-06
6.69787e-07
-2.98637e-06
1.84457e-06
4.35307e-07
-3.02805e-06
2.39034e-06
1.85517e-07
-2.98679e-06
2.84138e-06
-2.85701e-06
3.19995e-06
-3.60914e-08
-1.64291e-06
-5.16599e-07
-1.61533e-07
-1.78596e-06
-3.80127e-07
-1.44603e-07
-2.28533e-06
-2.32731e-07
-3.30447e-08
-2.76909e-06
-1.29383e-08
9.8864e-08
-3.04963e-06
2.18252e-07
2.58249e-07
-3.26553e-06
5.15233e-07
2.8928e-07
-3.55849e-06
1.06881e-06
1.23157e-07
-4.09121e-06
2.0317e-06
-3.6705e-09
-4.67939e-06
2.80437e-06
-5.46325e-06
3.74746e-06
-7.25246e-07
-7.84254e-07
-1.54283e-06
-1.41001e-06
-1.16563e-06
-1.28283e-06
-1.44317e-06
-2.45104e-06
-1.29164e-06
-8.46326e-07
-3.9091e-06
-9.23306e-07
-1.32384e-07
-4.49284e-06
-3.28065e-07
3.86471e-07
-5.19866e-06
1.06123e-06
3.06858e-07
-6.42966e-06
3.4429e-06
-2.86496e-07
-8.58113e-06
6.46507e-06
-8.69991e-07
-9.21306e-06
7.08965e-06
-1.07437e-05
7.5048e-06
-2.10883e-06
1.07042e-06
-4.10038e-06
-2.67856e-06
-8.07277e-07
-3.5037e-06
-1.52747e-06
-5.23127e-06
-1.38042e-06
1.30475e-06
-9.20896e-06
8.27238e-07
3.02358e-06
-8.46318e-06
3.79258e-06
2.33919e-06
-7.66447e-06
7.14463e-06
3.36968e-08
-7.85813e-06
8.96244e-06
-1.53148e-06
-9.92165e-06
8.23047e-06
-2.24631e-06
-1.281e-05
1.02573e-05
-1.47629e-05
1.15157e-05
1.02439e-06
-1.15395e-06
-6.65045e-06
5.91781e-07
1.40068e-06
-8.46701e-06
-1.01993e-06
-4.60628e-06
1.04223e-06
-1.11185e-06
-8.32476e-06
-1.74786e-06
-1.81403e-06
-7.27249e-06
-3.71052e-06
-4.99099e-06
-4.56409e-06
-2.46839e-06
-6.56614e-06
-4.47081e-06
-3.85108e-06
-5.2604e-06
-7.46956e-06
-5.66617e-06
-3.51679e-06
-1.15971e-05
-3.68091e-06
-1.33034e-05
-1.98583e-06
-3.7751e-06
1.18525e-06
-5.60202e-06
-5.91244e-06
1.50756e-06
-1.99481e-06
-7.92252e-06
-3.34683e-06
-2.03117e-06
-8.81995e-06
-5.8857e-06
-9.10005e-06
-1.0801e-05
-3.31008e-06
-1.44406e-05
-1.25852e-05
-1.83018e-07
-1.65057e-05
-1.1427e-05
-1.25928e-06
-1.76974e-05
-7.92635e-06
-5.47292e-06
-1.60834e-05
-3.84192e-06
-9.07668e-06
-1.38397e-05
-1.00182e-05
-1.29832e-05
-1.38796e-06
2.80831e-06
-2.64903e-06
-1.78923e-06
1.43712e-06
6.02586e-07
-5.08676e-06
-5.4136e-07
1.60187e-06
-8.09219e-06
-9.99222e-07
-6.10183e-06
-9.17696e-06
6.8247e-07
-1.50596e-05
-8.96953e-06
1.48698e-06
-1.66352e-05
-7.24797e-06
-1.09416e-06
-1.26959e-05
-4.005e-06
-5.93989e-06
-7.50766e-06
-1.22858e-06
-8.49908e-06
-5.35797e-06
-8.11781e-06
-6.35021e-06
1.55814e-06
1.8869e-06
-1.46126e-07
2.13981e-06
1.27496e-06
2.78091e-06
1.06841e-06
5.5582e-07
4.06986e-06
-6.64735e-07
8.89132e-07
1.55016e-06
-8.25512e-07
3.23931e-06
-5.30919e-06
6.09395e-07
3.28578e-06
-9.92798e-06
3.11869e-06
-8.55233e-07
-6.61001e-06
3.65033e-06
-5.71823e-06
-8.9171e-07
2.19141e-06
-7.60264e-06
7.53375e-07
-7.09119e-06
-1.08903e-06
1.93819e-06
9.4909e-07
1.18522e-06
2.47463e-06
1.87464e-06
3.24619e-06
1.88211e-06
1.72961e-06
3.60314e-06
1.24528e-06
1.58673e-06
2.17249e-06
2.23108e-06
2.3047e-06
3.14255e-07
4.45987e-06
2.40466e-06
-2.37721e-06
5.07763e-06
-4.13481e-07
-1.24911e-06
3.50617e-06
-3.53086e-06
4.946e-08
1.80715e-06
-5.10012e-06
-5.77245e-07
-5.17221e-06
-1.69397e-06
8.6796e-07
8.44092e-07
1.60303e-06
1.36813e-06
2.11597e-06
2.71127e-06
1.36602e-06
1.99752e-06
2.49785e-06
1.29171e-06
1.61084e-06
1.55809e-06
1.78653e-06
1.51943e-06
8.85455e-07
2.77789e-06
1.30508e-06
3.06569e-07
2.69983e-06
3.63375e-08
1.75752e-08
1.80102e-06
-1.5661e-06
-2.95351e-07
1.14703e-06
-2.50513e-06
-1.00963e-06
-2.73621e-06
-1.39785e-06
2.39893e-07
8.82536e-07
1.38402e-06
6.16691e-07
1.95249e-06
1.84536e-06
8.28932e-07
1.80069e-06
1.49351e-06
9.13194e-07
1.44672e-06
9.15235e-07
1.10736e-06
1.22909e-06
4.0932e-07
1.41143e-06
9.75382e-07
1.97402e-08
1.31829e-06
4.11081e-07
-3.32835e-07
9.15209e-07
-2.73221e-07
-7.35278e-07
7.45098e-07
-6.87015e-07
-1.1857e-06
-8.67481e-07
-1.26723e-06
9.10777e-08
8.45216e-07
9.41118e-07
3.45807e-07
1.70301e-06
1.13121e-06
5.37684e-07
1.57725e-06
8.6183e-07
6.2362e-07
1.32414e-06
5.08152e-07
7.05192e-07
1.14178e-06
1.44636e-07
8.1223e-07
9.56099e-07
-2.23712e-07
7.94873e-07
6.8446e-07
-5.4358e-07
6.23984e-07
3.98437e-07
-8.27242e-07
6.18992e-07
2.29408e-07
-1.15791e-06
1.0717e-07
-1.16837e-06
6.67199e-08
7.78209e-07
5.80213e-07
2.40231e-07
1.50311e-06
6.73005e-07
3.75286e-07
1.4181e-06
5.07432e-07
4.43196e-07
1.24704e-06
2.87501e-07
4.9023e-07
1.11839e-06
4.3969e-08
5.38905e-07
9.97175e-07
-2.21385e-07
5.48498e-07
8.57102e-07
-4.66216e-07
4.98892e-07
7.19315e-07
-6.59559e-07
5.33114e-07
6.30006e-07
-8.72794e-07
5.33872e-07
-9.03175e-07
5.25258e-08
3.52243e-07
7.14137e-07
1.72358e-07
4.07044e-07
1.35821e-06
2.68862e-07
3.04272e-07
1.3039e-06
3.24436e-07
1.65171e-07
1.19007e-06
3.61258e-07
8.25709e-09
1.10621e-06
3.94683e-07
-1.6527e-07
1.03051e-06
4.16635e-07
-3.19288e-07
9.53654e-07
4.11758e-07
-4.39037e-07
8.75177e-07
4.43812e-07
-5.49038e-07
8.13491e-07
-5.82999e-07
7.3677e-07
2.76574e-07
-3.20843e-07
5.1889e-07
5.7042e-07
-3.62256e-07
6.46337e-07
8.28813e-07
-3.38568e-07
7.43617e-07
1.04339e-06
-3.22716e-07
9.31735e-07
1.19471e-06
-3.00933e-07
1.18729e-06
1.25147e-06
-2.64226e-07
1.50753e-06
1.17269e-06
-2.12135e-07
1.89017e-06
9.24566e-07
-1.42625e-07
2.2921e-06
5.25447e-07
-6.34459e-08
2.61321e-06
8.99087e-08
2.7074e-06
2.46815e-07
-6.06956e-07
4.33097e-07
5.08121e-07
-6.82253e-07
5.37528e-07
7.42834e-07
-6.44786e-07
6.38526e-07
9.42524e-07
-6.24917e-07