/*--------------------------------*- C++ -*----------------------------------*\
| =========                 |                                                 |
| \\      /  F ield         | OpenFOAM: The Open Source CFD Toolbox           |
|  \\    /   O peration     | Version:  2312                                  |
|   \\  /    A nd           | Website:  www.openfoam.com                      |
|    \\/     M anipulation  |                                                 |
\*---------------------------------------------------------------------------*/
FoamFile
{
    version     2.0;
    format      ascii;
    arch        "LSB;label=32;scalar=64";
    class       surfaceScalarField;
    location    "0.53";
    object      phi;
}
// * * * * * * * * * * * * * * * * * * * * * * * * * * * * * * * * * * * * * //

dimensions      [0 3 -1 0 0 0 0];

oriented        oriented;

internalField   nonuniform List<scalar> 
22600
(
1.01276e-07
-2.06265e-07
1.04988e-07
2.02023e-07
-2.15423e-07
1.14676e-07
2.7732e-07
-1.87845e-07
1.12548e-07
3.17727e-07
-1.53712e-07
1.13306e-07
3.25557e-07
-1.23709e-07
1.15879e-07
3.02423e-07
-9.38304e-08
1.16965e-07
2.53311e-07
-6.73363e-08
1.16448e-07
1.88103e-07
-4.70399e-08
1.12248e-07
1.11787e-07
-3.25131e-08
1.08829e-07
-2.48402e-08
1.03105e-07
7.13073e-08
-3.52552e-07
7.49803e-08
1.45564e-07
-3.80101e-07
9.04219e-08
2.0467e-07
-3.34287e-07
8.73373e-08
2.4182e-07
-2.7897e-07
8.81077e-08
2.54657e-07
-2.28158e-07
9.16126e-08
2.42359e-07
-1.74888e-07
9.33552e-08
2.09831e-07
-1.27535e-07
9.27266e-08
1.61011e-07
-8.82022e-08
8.99821e-08
1.00525e-07
-6.05591e-08
8.85326e-08
-4.67399e-08
8.53704e-08
9.61575e-08
-5.50109e-07
1.01399e-07
1.967e-07
-5.938e-07
1.13157e-07
2.75893e-07
-5.2243e-07
1.0895e-07
3.18885e-07
-4.31678e-07
1.09716e-07
3.29485e-07
-3.5158e-07
1.12822e-07
3.07285e-07
-2.69107e-07
1.16419e-07
2.59617e-07
-1.97517e-07
1.1765e-07
1.9361e-07
-1.3897e-07
1.16775e-07
1.17536e-07
-9.9463e-08
1.14978e-07
-8.1884e-08
1.14013e-07
1.28634e-07
-8.17772e-07
1.39029e-07
2.45347e-07
-8.64179e-07
1.53666e-07
3.45781e-07
-7.48655e-07
1.25791e-07
4.04469e-07
-6.20236e-07
1.29869e-07
4.14748e-07
-5.04352e-07
1.42493e-07
3.82853e-07
-3.94188e-07
1.56976e-07
3.20917e-07
-3.07094e-07
1.71513e-07
2.37282e-07
-2.3879e-07
1.83456e-07
1.40792e-07
-1.99459e-07
1.96485e-07
-1.87078e-07
2.06643e-07
3.01603e-07
-1.43137e-06
3.11995e-07
4.32335e-07
-1.35089e-06
3.55978e-07
5.04125e-07
-1.0493e-06
2.28857e-07
5.54091e-07
-8.52277e-07
1.82074e-07
5.40521e-07
-6.9535e-07
2.04568e-07
4.6925e-07
-5.73215e-07
2.50297e-07
3.62504e-07
-5.14778e-07
3.14431e-07
2.48151e-07
-5.03687e-07
3.7925e-07
1.38325e-07
-5.19956e-07
4.30324e-07
-5.34593e-07
4.57455e-07
5.57547e-07
-2.5182e-06
5.29282e-07
6.78947e-07
-2.11516e-06
6.42868e-07
6.13016e-07
-1.48466e-06
5.01292e-07
5.58334e-07
-1.19563e-06
3.98032e-07
4.56595e-07
-1.02699e-06
4.33375e-07
3.23922e-07
-9.77456e-07
5.36914e-07
1.96193e-07
-9.89273e-07
6.02225e-07
1.01158e-07
-1.02091e-06
6.12256e-07
4.81296e-08
-1.06972e-06
6.02792e-07
-1.09704e-06
5.98395e-07
6.47204e-07
-3.79342e-06
6.28011e-07
7.82835e-07
-2.99611e-06
7.45322e-07
6.90758e-07
-2.1118e-06
7.19214e-07
5.13353e-07
-1.66422e-06
6.46002e-07
2.715e-07
-1.38891e-06
6.03783e-07
7.38341e-08
-1.26943e-06
4.89643e-07
-1.59089e-08
-1.15784e-06
2.5831e-07
-6.04683e-08
-1.02713e-06
5.07834e-08
-3.39123e-08
-1.03195e-06
-6.43235e-08
-1.10331e-06
-9.516e-08
4.30154e-07
-4.74475e-06
5.21185e-07
4.19151e-07
-3.63171e-06
6.46607e-07
3.78358e-07
-2.69847e-06
6.27463e-07
3.4139e-07
-2.00723e-06
3.79971e-07
3.20708e-07
-1.37961e-06
1.13789e-08
3.59321e-07
-8.51827e-07
-4.5622e-07
5.03945e-07
-5.48976e-07
-7.53488e-07
5.74558e-07
-2.38033e-07
-8.59713e-07
3.46226e-07
1.58849e-07
-9.62471e-07
2.4671e-07
-1.03544e-06
9.21529e-08
-5.12687e-06
2.8996e-07
-1.20701e-07
-3.82364e-06
4.04779e-07
3.07582e-07
-3.18998e-06
6.3222e-08
1.56293e-06
-2.78033e-06
-4.82246e-07
3.16778e-06
-2.30287e-06
-6.81589e-07
4.08394e-06
-9.22257e-07
-8.45727e-07
5.10056e-06
-9.55011e-07
-6.10591e-07
7.08526e-06
-2.86479e-06
6.42064e-07
3.46625e-06
2.69296e-06
1.08489e-06
4.7564e-06
-1.39036e-07
-4.77857e-08
-5.20277e-06
1.23689e-07
4.61461e-07
-4.45862e-06
1.25737e-07
3.17391e-06
-5.71452e-06
-1.87906e-07
7.26522e-06
-6.70718e-06
-1.64461e-07
1.15667e-05
-7.26097e-06
6.56596e-07
1.04211e-05
-1.12582e-06
1.34919e-06
7.93711e-06
5.30244e-07
9.98733e-07
3.14773e-06
5.05352e-07
1.41924e-06
-1.84e-08
3.67121e-06
2.1879e-06
4.73876e-06
1.1653e-06
1.52525e-07
-5.6195e-06
2.64207e-07
2.24817e-06
-7.42812e-06
8.73852e-07
6.19406e-06
-1.08519e-05
1.19145e-06
5.42985e-06
-6.99421e-06
1.05125e-06
1.99196e-06
-3.82639e-06
3.29787e-09
-1.09917e-06
7.73232e-07
1.19209e-06
-2.59642e-06
1.62437e-06
4.03116e-07
-3.72048e-06
2.37158e-06
-7.42167e-07
-2.38632e-06
3.48482e-06
-1.14777e-06
4.45146e-06
-1.09079e-06
1.37358e-06
-8.62817e-06
1.63508e-06
4.8113e-06
-1.17576e-05
8.91779e-07
2.44508e-06
-7.55913e-06
-9.26519e-07
-6.28101e-07
-3.21404e-06
-7.06986e-07
-5.16499e-06
2.2685e-06
-1.558e-06
-5.58092e-06
3.28881e-06
-2.09966e-06
-4.5687e-06
3.38564e-06
-2.77348e-06
-3.18349e-06
3.87747e-06
-2.8911e-06
-1.76525e-06
4.24879e-06
-2.18221e-06
4.6438e-06
-1.22103e-06
6.69311e-07
-1.09881e-05
1.69058e-06
-2.57189e-07
-8.31425e-06
-2.51686e-06
-2.54303e-06
-2.28055e-06
-2.99273e-06
-6.01677e-06
2.8032e-06
-2.5435e-06
-6.54321e-06
5.43904e-06
-2.64411e-06
-5.49937e-06
5.47384e-06
-3.22887e-06
-3.9808e-06
5.41317e-06
-3.5461e-06
-2.25792e-06
5.39695e-06
-3.24235e-06
-1.07368e-06
5.09406e-06
-2.02951e-06
4.92614e-06
-9.63402e-07
-3.12142e-06
-5.87736e-06
-1.98928e-06
-3.70913e-06
-1.88628e-06
-5.84026e-06
-4.83651e-06
2.2263e-06
-3.37947e-06
-6.40716e-06
5.70685e-06
-1.333e-06
-5.92443e-06
6.50041e-06
-1.54409e-06
-4.62988e-06
6.10998e-06
-1.93068e-06
-3.3107e-06
6.35861e-06
-2.26461e-06
-1.75326e-06
6.23887e-06
-2.39936e-06
-6.34067e-07
5.71876e-06
-1.74388e-06
5.24734e-06
-9.46332e-07
-4.14318e-06
-3.76916e-08
-1.6965e-06
-3.96481e-06
3.20074e-06
-5.26539e-06
-4.9837e-06
5.19116e-06
-1.94597e-06
-5.92996e-06
6.53093e-06
1.22184e-07
-4.77148e-06
4.85588e-06
4.86049e-07
-3.67971e-06
4.7256e-06
2.92608e-07
-2.73302e-06
5.75313e-06
-3.41201e-07
-1.53521e-06
5.8335e-06
-7.92444e-07
-4.35612e-07
5.6051e-06
-9.85938e-07
5.21222e-06
-6.04734e-07
-4.09721e-06
2.97964e-06
1.07989e-06
-4.08511e-06
7.36304e-06
-4.1744e-06
-4.90012e-06
7.57401e-06
-1.56786e-06
-5.2752e-06
6.31653e-06
5.89473e-07
-4.16638e-06
2.15179e-06
1.59527e-06
-3.21214e-06
2.09381e-06
1.67755e-06
-2.26208e-06
3.7613e-06
1.04177e-06
-1.32495e-06
4.34655e-06
5.49819e-07
-4.1873e-07
4.57469e-06
1.2419e-07
4.44333e-06
1.51089e-07
-3.40595e-06
4.23035e-06
2.15523e-06
-3.57007e-06
1.0659e-05
-3.13187e-06
-3.73481e-06
9.79921e-06
-2.06046e-06
-3.68467e-06
6.61019e-06
-3.43787e-07
-3.45249e-06
5.18521e-07
1.40108e-06
-3.11745e-06
4.63353e-08
1.71245e-06
-2.1691e-06
1.50948e-06
1.30347e-06
-1.29031e-06
2.2961e-06
1.17166e-06
-5.44287e-07
2.83449e-06
9.94171e-07
3.02002e-06
8.56204e-07
-2.31451e-06
3.57016e-06
2.9747e-06
-2.72282e-06
1.28956e-05
-1.82831e-06
-2.09462e-06
1.16453e-05
-2.47425e-06
-1.00313e-06
6.9805e-06
-1.4618e-06
-1.52548e-06
-1.61648e-07
1.20252e-06
-2.26117e-06
-4.88353e-07
1.27038e-06
-1.85287e-06
5.42295e-07
5.58888e-07
-1.27523e-06
1.12621e-06
5.92243e-07
-6.99144e-07
1.59094e-06
6.67456e-07
1.8157e-06
6.30619e-07
-1.68499e-06
2.07793e-06
3.17723e-06
-1.86486e-06
1.26582e-05
4.17283e-07
-6.08321e-07
1.23126e-05
-1.92383e-06
1.08697e-06
6.26459e-06
-9.79382e-07
-3.20427e-07
-3.33004e-07
1.57875e-06
-1.46903e-06
-3.46999e-07
1.00726e-06
-1.36008e-06
3.26104e-07
1.07237e-07
-1.05503e-06
7.17013e-07
1.04159e-07
-6.09134e-07
1.01833e-06
1.26716e-07
1.14446e-06
1.43306e-07
-1.61584e-06
2.72177e-06
9.71998e-07
-1.3471e-06
3.11125e-06
9.27823e-06
3.76005e-07
-3.52761e-08
1.06247e-05
1.53453e-06
5.18721e-07
4.58734e-06
-4.04522e-07
1.63208e-06
-2.6023e-08
-1.14504e-06
6.01066e-07
-2.07538e-07
-1.05006e-06
2.65887e-08
2.04531e-07
-8.1984e-07
1.14689e-08
4.75325e-07
-4.7016e-07
-9.91543e-09
6.78553e-07
-7.77605e-09
7.43507e-07
1.10919e-07
-2.1526e-07
2.0933e-07
2.32746e-07
-2.47344e-07
2.40192e-07
3.27059e-07
-2.19905e-07
2.3814e-07
3.82916e-07
-1.8823e-07
2.45678e-07
4.03291e-07
-1.65716e-07
2.61219e-07
3.88276e-07
-1.45635e-07
2.77615e-07
3.38731e-07
-1.29848e-07
2.95842e-07
2.59261e-07
-1.19697e-07
3.11416e-07
1.54147e-07
-1.15893e-07
3.29836e-07
-1.20155e-07
3.36879e-07
8.65754e-08
-3.79485e-07
1.5263e-07
1.87922e-07
-4.5423e-07
1.95962e-07
2.69911e-07
-4.0669e-07
1.92133e-07
3.213e-07
-3.52004e-07
2.00494e-07
3.4266e-07
-3.14374e-07
2.1891e-07
3.31554e-07
-2.79563e-07
2.38389e-07
2.89704e-07
-2.53037e-07
2.57764e-07
2.21427e-07
-2.37062e-07
2.75624e-07
1.34188e-07
-2.3676e-07
2.96638e-07
-2.56248e-07
3.11466e-07
1.06122e-07
-5.90589e-07
2.06382e-07
2.3385e-07
-7.17347e-07
2.48546e-07
3.42132e-07
-6.43849e-07
2.37825e-07
4.03277e-07
-5.48768e-07
2.45335e-07
4.25197e-07
-4.85171e-07
2.61699e-07
4.05423e-07
-4.25199e-07
2.81829e-07
3.47115e-07
-3.78003e-07
3.00925e-07
2.58402e-07
-3.50006e-07
3.18431e-07
1.5374e-07
-3.56087e-07
3.38968e-07
-3.9183e-07
3.54081e-07
1.41503e-07
-8.56104e-07
2.6304e-07
2.95115e-07
-1.03238e-06
3.15089e-07
4.24159e-07
-9.30303e-07
2.83201e-07
5.01408e-07
-7.90807e-07
2.94659e-07
5.23463e-07
-6.91277e-07
3.26543e-07
4.91852e-07
-5.96315e-07
3.59704e-07
4.14852e-07
-5.21637e-07
3.92146e-07
3.05645e-07
-4.79279e-07
4.21936e-07
1.79751e-07
-4.78774e-07
4.45067e-07
-5.10464e-07
4.53382e-07
3.56202e-07
-1.34682e-06
4.46505e-07
6.11106e-07
-1.52614e-06
5.94836e-07
7.14638e-07
-1.27419e-06
4.69208e-07
7.38633e-07
-1.02583e-06
3.93099e-07
7.09877e-07
-8.67839e-07
4.09886e-07
6.27187e-07
-7.25986e-07
4.62658e-07
4.93648e-07
-6.10043e-07
5.36375e-07
3.34699e-07
-5.54476e-07
6.13396e-07
1.79441e-07
-5.53795e-07
6.60602e-07
-5.72919e-07
6.64363e-07
6.77666e-07
-2.13149e-06
6.36289e-07
1.03393e-06
-2.18545e-06
9.45912e-07
1.04562e-06
-1.6612e-06
8.7662e-07
9.53131e-07
-1.2668e-06
7.3149e-07
8.03594e-07
-1.02651e-06
7.41586e-07
6.18532e-07
-8.51723e-07
8.47712e-07
4.35252e-07
-7.49437e-07
9.24901e-07
2.71287e-07
-7.04212e-07
9.25958e-07
1.32916e-07
-7.00869e-07
8.88237e-07
-7.13051e-07
8.59149e-07
7.67883e-07
-3.0456e-06
7.74236e-07
1.11248e-06
-2.83588e-06
1.05115e-06
1.13203e-06
-2.07006e-06
1.10852e-06
1.04944e-06
-1.562e-06
1.0238e-06
8.51274e-07
-1.17885e-06
9.54283e-07
5.95092e-07
-9.63267e-07
8.57371e-07
3.63465e-07
-9.32597e-07
6.73097e-07
2.06537e-07
-9.66926e-07
4.70425e-07
1.05912e-07
-1.03361e-06
3.69046e-07
-1.12057e-06
3.58171e-07
6.2905e-07
-3.69659e-06
5.43127e-07
8.42543e-07
-3.24294e-06
8.40179e-07
9.68211e-07
-2.42207e-06
8.53805e-07
1.04053e-06
-1.87993e-06
6.25581e-07
9.34075e-07
-1.35939e-06
2.98376e-07
6.49825e-07
-1.13533e-06
9.24103e-11
4.36652e-07
-1.28069e-06
-1.92224e-07
2.11567e-07
-1.41684e-06
-1.84714e-07
1.53801e-08
-1.6233e-06
-1.76595e-07
-1.83637e-06
-2.98296e-07
3.81813e-07
-3.86758e-06
7.91345e-08
5.04894e-07
-3.46504e-06
5.03798e-07
7.78503e-07
-3.04798e-06
4.15526e-07
1.61096e-06
-3.33524e-06
1.40597e-07
2.6427e-06
-3.07742e-06
4.71076e-09
3.56999e-06
-2.97746e-06
6.91086e-08
5.71763e-06
-4.30121e-06
2.62284e-07
4.48446e-06
-6.77209e-07
1.13561e-06
1.33893e-06
1.47563e-06
1.1315e-06
1.61587e-06
-1.27386e-06
1.25084e-07
-4.50825e-06
6.39276e-07
1.11875e-06
-5.52429e-06
1.19133e-06
3.46697e-06
-6.7565e-06
1.17239e-06
7.86474e-06
-8.56785e-06
6.70376e-07
7.8957e-06
-3.51639e-06
1.06459e-06
7.22023e-06
-2.71746e-06
1.76466e-06
2.78722e-06
-2.87911e-07
1.41845e-06
-1.33893e-06
1.80612e-06
3.06206e-06
-2.48008e-06
3.05887e-06
1.74582e-06
2.77166e-06
-9.85596e-07
9.32659e-07
-7.61728e-06
2.44058e-06
4.80029e-06
-1.33247e-05
4.80658e-06
5.5008e-06
-9.19968e-06
2.93413e-06
2.57854e-06
-5.76753e-06
1.17319e-06
-1.50226e-06
-1.19945e-06
1.76718e-06
-5.21743e-06
-1.7754e-07
2.36734e-06
-6.09322e-06
1.50923e-06
-5.1823e-07
-5.56991e-06
1.78854e-06
-1.24789e-06
-3.4047e-06
1.63466e-06
-1.88876e-06
1.90952e-06
-2.26288e-06
1.37065e-06
-1.2454e-05
5.10116e-06
5.49164e-07
-1.21842e-05
5.72856e-07
-1.76468e-06
-4.59592e-06
-3.21643e-06
-6.1104e-06
-1.69593e-07
-1.95921e-06
-6.9623e-06
7.85242e-07
-2.69079e-06
-6.49337e-06
4.64163e-07
-3.21029e-06
-5.19701e-06
1.22383e-06
-3.78444e-06
-3.6447e-06
1.10162e-06
-3.7565e-06
-2.35586e-06
6.41933e-07
-2.47831e-06
8.43641e-07
-1.03405e-06
-1.28254e-06
-9.41264e-06
-6.82441e-08
-5.79296e-06
-4.50027e-06
-5.69041e-06
-7.22314e-06
6.82187e-07
-6.84067e-06
-6.91641e-06
1.73578e-06
-4.7556e-06
-5.78207e-06
1.89893e-06
-4.89214e-06
-5.25935e-06
1.92496e-06
-5.21238e-06
-4.12052e-06
1.99106e-06
-5.45215e-06
-2.95728e-06
1.67064e-06
-4.97462e-06
-2.37395e-06
1.08125e-06
-3.05215e-06
7.47676e-07
-1.25432e-06
-2.86148e-06
-4.57141e-06
-3.96903e-06
-6.78407e-06
6.86098e-07
-7.10405e-06
-6.61568e-06
2.55588e-06
-5.42155e-06
-5.56336e-06
3.01884e-06
-3.66839e-06
-4.6869e-06
3.01697e-06
-3.53859e-06
-3.92399e-06
2.69049e-06
-3.45911e-06
-2.73551e-06
2.29189e-06
-3.75392e-06
-1.74349e-06
2.05801e-06
-3.77875e-06
-1.61148e-06
1.77271e-06
-2.56736e-06
1.30907e-06
-1.26754e-06
-1.97526e-06
-1.88706e-06
-2.40559e-06
-4.67212e-06
4.54156e-06
-6.424e-06
-5.20602e-06
4.91665e-06
-3.77284e-06
-4.73826e-06
4.32171e-06
-1.64844e-06
-4.12142e-06
3.15705e-06
-2.70872e-07
-2.98159e-06
1.72502e-06
1.18247e-07
-1.80963e-06
1.39016e-06
-6.11421e-07
-8.12306e-07
1.69951e-06
-1.43128e-06
-7.03865e-07
2.39672e-06
-1.7184e-06
2.21897e-06
-9.49344e-07
-1.87353e-06
-5.2315e-07
1.5895e-06
-3.46822e-06
6.80019e-06
-4.83835e-06
-4.44892e-06
7.70657e-06
-3.37708e-06
-4.71112e-06
6.09604e-06
-9.2266e-07
-4.44219e-06
2.98902e-06
1.49437e-06
-3.26593e-06
5.75261e-07
1.65105e-06
-2.08084e-06
5.34108e-07
7.12727e-07
-1.30152e-06
1.25358e-06
2.16422e-07
-8.47255e-07
2.31038e-06
-2.43745e-07
2.44415e-06
-4.29389e-08
-7.91603e-07
5.29241e-07
1.89444e-06
-2.20842e-06
8.80664e-06
-3.7215e-06
-3.22248e-06
1.043e-05
-3.76988e-06
-3.66205e-06
8.21617e-06
-2.02433e-06
-3.84336e-06
3.53967e-06
1.03174e-06
-3.34009e-06
5.34732e-07
1.24971e-06
-2.46668e-06
1.72984e-07
7.91185e-07
-1.80435e-06
8.764e-07
8.86512e-07
-1.12401e-06
1.84598e-06
7.78216e-07
2.14936e-06
6.01067e-07
3.66991e-07
7.1841e-07
2.41853e-06
-1.12023e-06
1.10863e-05
-2.62071e-06
-2.01928e-06
1.26627e-05
-3.80786e-06
-1.96963e-06
1.01364e-05
-3.43166e-06
-2.01101e-06
4.42338e-06
3.6019e-07
-2.11708e-06
9.52396e-07
9.58782e-07
-1.8177e-06
7.52494e-08
3.57241e-07
-1.51801e-06
6.87704e-07
4.81244e-07
-9.5712e-07
1.33513e-06
6.17399e-07
1.5624e-06
4.87322e-07
4.43978e-07
7.94917e-07
2.65674e-06
-1.06556e-06
1.32207e-05
-2.07681e-07
-1.88063e-06
1.43785e-05
-2.82455e-06
-6.54205e-07
1.16929e-05
-3.76231e-06
-3.48503e-07
5.23706e-06
4.59385e-07
-9.00559e-07
1.2677e-06
1.24401e-06
-9.89416e-07
-1.25446e-09
2.72604e-07
-8.81705e-07
5.21837e-07
1.62299e-07
-5.30748e-07
9.42183e-07
1.687e-07
1.05287e-06
1.24648e-07
-3.44723e-07
2.8683e-06
9.93101e-07
-1.456e-06
3.44112e-06
1.40021e-05
-2.00493e-06
-8.03554e-07
1.56957e-05
8.37254e-08
-2.67598e-06
1.27989e-05
2.98499e-07
1.07924e-06
5.57513e-06
-3.37628e-07
1.36662e-06
1.13828e-06
-6.20653e-07
2.98981e-07
9.37971e-09
-5.77475e-07
1.37145e-07
3.52978e-07
-3.55001e-07
8.03462e-08
6.29448e-07
3.95612e-08
6.75522e-07
1.09093e-07
-1.86717e-07
2.86954e-07
2.30991e-07
-2.1856e-07
3.36853e-07
3.25558e-07
-1.92372e-07
3.35946e-07
3.83035e-07
-1.62128e-07
3.50329e-07
4.05274e-07
-1.39621e-07
3.78602e-07
3.9143e-07
-1.21287e-07
4.12746e-07
3.43506e-07
-1.0978e-07
4.53546e-07
2.6436e-07
-1.05459e-07
4.96021e-07
1.58517e-07
-1.10941e-07
5.4662e-07
-1.23454e-07
5.71504e-07
8.3648e-08
-3.31852e-07
2.14116e-07
1.84101e-07
-4.03506e-07
2.80454e-07
2.65064e-07
-3.57224e-07
2.76022e-07
3.15586e-07
-3.04161e-07
2.92004e-07
3.37064e-07
-2.66716e-07
3.24527e-07
3.26396e-07
-2.33192e-07
3.60963e-07
2.85744e-07
-2.13163e-07
4.01799e-07
2.2273e-07
-2.10807e-07
4.43987e-07
1.44686e-07
-2.32072e-07
4.95812e-07
-2.57422e-07
5.3274e-07
1.03607e-07
-5.16076e-07
2.87e-07
2.26421e-07
-6.35412e-07
3.57638e-07
3.29531e-07
-5.66682e-07
3.44173e-07
3.91122e-07
-4.77483e-07
3.57066e-07
4.12965e-07
-4.15653e-07
3.88793e-07
3.9463e-07
-3.62368e-07
4.29341e-07
3.37003e-07
-3.28051e-07
4.7344e-07
2.55479e-07
-3.25351e-07
5.14499e-07
1.66844e-07
-3.50041e-07
5.45571e-07
-3.53919e-07
5.47397e-07
1.16597e-07
-7.35169e-07
3.65536e-07
2.64522e-07
-9.14803e-07
4.46555e-07
4.0017e-07
-8.43329e-07
4.242e-07
4.7966e-07
-7.0961e-07
4.47296e-07
5.00629e-07
-6.05507e-07
4.95428e-07
4.65684e-07
-5.15804e-07
5.48084e-07
3.85322e-07
-4.5662e-07
6.01078e-07
2.76778e-07
-4.37941e-07
6.4307e-07
1.68898e-07
-4.31861e-07
6.34767e-07
-3.79867e-07
5.66504e-07
2.21416e-07
-1.02955e-06
5.19469e-07
4.59671e-07
-1.25373e-06
6.95506e-07
6.07682e-07
-1.13883e-06
6.16695e-07
6.56712e-07
-9.2902e-07
5.63479e-07
6.51993e-07
-7.88276e-07
5.97374e-07
5.9809e-07
-6.73826e-07
6.74584e-07
4.79378e-07
-5.67232e-07
7.65699e-07
3.11401e-07
-4.93255e-07
8.36686e-07
1.59695e-07
-4.24712e-07
8.05159e-07
-3.21668e-07
6.90292e-07
5.03582e-07
-1.47357e-06
5.76726e-07
8.98824e-07
-1.65285e-06
9.49791e-07
1.04277e-06
-1.40731e-06
1.00115e-06
1.03086e-06
-1.09532e-06
9.09713e-07
9.49338e-07
-8.96196e-07
9.31023e-07
8.11793e-07
-7.28163e-07
1.03959e-06
6.08916e-07
-5.85536e-07
1.14608e-06
3.64864e-07
-5.02018e-07
1.17877e-06
1.52964e-07
-4.39858e-07
1.11528e-06
-3.69091e-07
1.01301e-06
7.13498e-07
-2.095e-06
6.82166e-07
1.13193e-06
-2.08134e-06
1.06121e-06
1.29172e-06
-1.70578e-06
1.2472e-06
1.33451e-06
-1.32856e-06
1.21425e-06
1.24255e-06
-1.02892e-06
1.17897e-06
1.02102e-06
-8.33077e-07
1.18381e-06
7.12892e-07
-7.61715e-07
1.1574e-06
4.03754e-07
-7.96306e-07
1.07385e-06
1.66253e-07
-8.39107e-07
1.0058e-06
-8.72709e-07
9.69634e-07
6.15262e-07
-2.65303e-06
4.85898e-07
8.74378e-07
-2.44504e-06
9.4477e-07
1.06128e-06
-2.07389e-06
1.03501e-06
1.16558e-06
-1.67669e-06
8.69411e-07
1.01609e-06
-1.2228e-06
6.41742e-07
7.10293e-07
-1.02051e-06
4.93321e-07
4.10273e-07
-1.07596e-06
4.2204e-07
1.51064e-07
-1.18357e-06
4.61756e-07
-3.93801e-08
-1.38182e-06
5.5656e-07
-1.7072e-06
4.94365e-07
5.44157e-08
-3.07131e-06
4.43e-07
4.40656e-07
-3.13455e-06
8.07059e-07
7.63754e-07
-2.7462e-06
7.6473e-07
1.37961e-06
-2.91993e-06
7.6798e-07
2.20715e-06
-2.82156e-06
7.7593e-07
2.90293e-06
-2.71646e-06
1.06928e-06
3.36986e-06
-2.58017e-06
1.29957e-06
2.99338e-06
-9.92337e-07
1.32086e-06
4.40008e-07
1.8409e-06
4.62165e-07
5.23084e-07
-2.06052e-06
-1.73916e-07
-5.52093e-06
3.26281e-06
1.19251e-06
-7.07395e-06
3.7643e-06
2.6839e-06
-5.98076e-06
2.91557e-06
5.83698e-06
-7.53067e-06
2.12804e-06
5.16511e-06
-2.88034e-06
1.79524e-06
3.37548e-06
-1.09403e-06
1.93187e-06
-1.1837e-06
1.1853e-06
2.21216e-06
-4.42265e-06
2.29407e-06
3.0146e-06
-4.00827e-06
2.27004e-06
9.02291e-07
4.93302e-07
-2.8957e-06
1.51845e-06
-1.08683e-05
6.26945e-06
3.09676e-06
-9.92496e-06
6.07929e-06
1.37349e-06
-3.89529e-06
2.57191e-06
-2.37743e-06
-2.99411e-06
3.87551e-07
-3.6145e-06
-1.54621e-06
1.67013e-06
-5.47907e-06
4.38108e-07
2.69977e-06
-6.52631e-06
1.88285e-06
-1.68538e-07
-6.15964e-06
1.52236e-06
-8.42859e-07
-3.81027e-06
-4.48689e-07
-1.5194e-06
-1.39691e-06
-2.58087e-06
1.33627e-07
-8.3305e-06
2.42977e-06
-3.01165e-06
-5.31491e-06
-8.91927e-07
-6.01138e-06
9.37463e-07
-5.04943e-06
-7.00965e-06
-3.27817e-07
-3.62723e-06
-6.86187e-06
-1.69157e-06
-2.69321e-06
-6.5623e-06
-7.65976e-07
-2.30577e-06
-5.38891e-06
2.00333e-07
-3.27532e-06
-3.7219e-06
-4.37594e-07
-3.46355e-06
-2.34137e-06
-2.10056e-06
-2.20696e-06
-2.03622e-06
-1.02148e-06
-1.45664e-06
-3.67889e-06
-3.26322e-06
-6.92272e-06
8.21749e-07
-6.36098e-06
-7.2282e-06
5.29412e-07
-6.12714e-06
-5.90187e-06
-1.27995e-06
-5.12979e-06
-5.63055e-06
-1.68e-06
-5.17503e-06
-5.28391e-06
-9.72179e-07
-5.35282e-06
-4.01492e-06
-6.06003e-07
-5.91481e-06
-2.8122e-06
-7.25917e-07
-5.88902e-06
-2.46631e-06
-1.39169e-06
-4.1069e-06
-1.43178e-06
-1.91853e-06
-1.40592e-06
-1.42554e-06
-4.81645e-06
-5.12216e-06
3.39961e-06
-5.96567e-06
-5.97214e-06
8.8361e-07
-4.92577e-06
-5.5227e-06
-8.96901e-07
-4.50088e-06
-5.23671e-06
-9.29647e-07
-4.57493e-06
-4.25092e-06
-6.37369e-07
-4.77972e-06
-2.85502e-06
-7.42827e-07
-5.013e-06
-2.15167e-06
-2.24911e-07
-4.98312e-06
-2.47484e-06
-1.76449e-07
-3.45944e-06
-5.05161e-07
-1.71327e-06
1.07145e-06
-2.07115e-06
-2.83143e-06
-1.40823e-06
4.2673e-06
-4.81202e-06
-3.60292e-06
3.05741e-06
-3.75195e-06
-4.0424e-06
9.07761e-07
-3.01363e-06
-3.82863e-06
6.89401e-07
-2.10369e-06
-2.64749e-06
5.60956e-08
-1.75636e-06
-1.1538e-06
-7.91043e-07
-2.05691e-06
-6.0814e-07
2.81737e-07
-2.48359e-06
-1.35855e-06
9.86858e-07
-2.1313e-06
5.46713e-07
-1.3392e-06
1.65341e-06
-1.62749e-06
-5.07572e-07
1.42351e-06
3.162e-06
-3.50315e-06
-1.00674e-06
5.52874e-06
-3.41816e-06
-2.64955e-06
4.25708e-06
-2.62916e-06
-2.84634e-06
3.14343e-06
-7.62871e-07
-2.16798e-06
1.00293e-06
2.58453e-08
-1.51547e-06
-4.73601e-07
-2.57227e-07
-1.14238e-06
6.91301e-07
-5.66239e-07
-1.19045e-06
1.52706e-06
-7.35889e-07
1.12608e-06
-6.658e-07
2.26903e-06
-8.10234e-07
-1.19185e-06
2.68963e-06
2.74663e-06
-3.72673e-06
1.02766e-06
7.08408e-06
-3.66325e-06
-1.27745e-06
7.49554e-06
-2.95767e-06
-1.95804e-06
5.61354e-06
-7.57773e-07
-1.97777e-06
2.04757e-06
2.24798e-07
-1.99027e-06
4.22434e-09
3.25854e-07
-1.71466e-06
8.4275e-07
4.59445e-07
-1.1654e-06
1.44701e-06
3.08993e-07
1.26085e-06
-1.57312e-07
3.18082e-06
-3.60213e-07
-1.21231e-06
3.37244e-06
3.83253e-06
-3.89823e-06
2.04166e-06
8.45459e-06
-3.84758e-06
-4.98969e-07
9.82795e-06
-3.22344e-06
-1.29188e-06
7.70974e-06
-9.43091e-07
-1.38163e-06
2.68034e-06
4.1576e-07
-1.56361e-06
1.59968e-07
3.83475e-07
-1.31827e-06
7.57473e-07
3.21188e-07
-7.4954e-07
1.24116e-06
2.54521e-07
1.2372e-06
-1.82853e-07
3.41367e-06
-1.25124e-07
-9.9202e-07
3.31125e-06
6.20554e-06
-2.47827e-06
1.87e-06
1.02401e-05
-3.16885e-06
-4.59073e-07
1.1448e-05
-3.05324e-06
-9.05375e-07
9.22591e-06
-6.10478e-07
-7.57926e-07
2.73837e-06
1.03854e-06
-1.02557e-06
1.657e-07
5.34517e-07
-8.48342e-07
5.25675e-07
2.16872e-07
-4.79521e-07
9.43681e-07
9.73619e-08
1.02783e-06
-2.01386e-07
2.43431e-06
5.56284e-08
2.53232e-07
2.49457e-06
8.15182e-07
8.77122e-06
8.51589e-07
-1.10161e-06
1.21812e-05
-6.63708e-07
-2.43377e-06
1.2721e-05
-5.43484e-07
3.50976e-07
9.83394e-06
-3.63026e-07
1.51675e-06
2.40779e-06
-6.64874e-07
5.72778e-07
1.93745e-07
-5.8781e-07
2.78024e-07
3.07728e-07
-3.73511e-07
1.52643e-07
6.57085e-07
-3.72665e-08
7.34519e-07
1.10171e-07
-1.5176e-07
3.28543e-07
2.38879e-07
-1.86308e-07
3.94453e-07
3.4039e-07
-1.61091e-07
3.95526e-07
4.02094e-07
-1.27721e-07
4.16345e-07
4.28589e-07
-1.02215e-07
4.54322e-07
4.18061e-07
-7.90873e-08
5.02361e-07
3.73632e-07
-5.96768e-08
5.57652e-07
2.98784e-07
-4.5713e-08
6.16582e-07
1.89307e-07
-3.80427e-08
6.94141e-07
-2.63442e-08
7.24999e-07
8.48124e-08
-2.74126e-07
2.5167e-07
1.93141e-07
-3.46773e-07
3.32591e-07
2.81366e-07
-3.01767e-07
3.28473e-07
3.3642e-07
-2.41267e-07
3.50496e-07
3.60663e-07
-1.93654e-07
3.91723e-07
3.51945e-07
-1.49144e-07
4.39738e-07
3.18433e-07
-1.18062e-07
4.93697e-07
2.66743e-07
-1.03618e-07
5.53582e-07
1.92621e-07
-9.52671e-08
6.27159e-07
-5.01808e-08
6.62478e-07
1.05847e-07
-4.21598e-07
3.28624e-07
2.35627e-07
-5.35448e-07
4.16533e-07
3.43497e-07
-4.70912e-07
4.05448e-07
4.10409e-07
-3.77437e-07
4.26324e-07
4.37209e-07
-3.03506e-07
4.71845e-07
4.2004e-07
-2.34285e-07
5.31652e-07
3.62524e-07
-1.84513e-07
5.97407e-07
2.73863e-07
-1.53567e-07
6.53108e-07
1.81439e-07
-1.0003e-07
6.42759e-07
3.37769e-08
5.35578e-07
1.22522e-07
-5.99621e-07
4.21037e-07
2.79272e-07
-7.66013e-07
5.20368e-07
4.26124e-07
-6.95626e-07
5.02063e-07
5.12213e-07
-5.51686e-07
5.35455e-07
5.33316e-07
-4.24869e-07
5.95688e-07
4.93639e-07
-3.14466e-07
6.67941e-07
3.9558e-07
-2.33981e-07
7.48606e-07
2.55939e-07
-1.56089e-07
7.85234e-07
1.5362e-07
-3.19241e-09
6.40249e-07
2.06698e-07
3.95194e-07
1.74842e-07
-8.19632e-07
5.64638e-07
3.71052e-07
-9.94221e-07
7.27504e-07
5.35666e-07
-9.11759e-07
6.68214e-07
6.31454e-07
-7.43893e-07
6.59899e-07
6.62966e-07
-6.0103e-07
7.42023e-07
6.14542e-07
-4.56635e-07
8.65177e-07
4.66157e-07
-2.98176e-07
9.78279e-07
2.61087e-07
-1.04322e-07
9.8999e-07
1.3521e-07
1.79314e-07
7.48529e-07
4.41935e-07
4.39629e-07
3.81815e-07
-1.15643e-06
5.31712e-07
7.01769e-07
-1.25214e-06
8.8776e-07
8.87791e-07
-1.09125e-06
9.94621e-07
9.46738e-07
-8.56285e-07
9.63159e-07
9.23093e-07
-6.61659e-07
1.0153e-06
8.20141e-07
-4.36337e-07
1.12225e-06
6.07684e-07
-1.63392e-07
1.22375e-06
3.35348e-07
8.35469e-08
1.26324e-06
1.29178e-07
3.27343e-07
1.17343e-06
4.79152e-07
1.01281e-06
6.1783e-07
-1.60019e-06
5.08091e-07
9.90362e-07
-1.55939e-06
9.95925e-07
1.19022e-06
-1.3328e-06
1.28889e-06
1.28584e-06
-1.03348e-06
1.29583e-06
1.29707e-06
-7.86602e-07
1.29268e-06
1.19466e-06
-4.85197e-07
1.33508e-06
9.08359e-07
-1.00045e-07
1.38036e-06
5.29533e-07
7.87224e-08
1.4575e-06
1.99745e-07
8.10223e-08
1.58191e-06
-6.8289e-09
1.59247e-06
3.89096e-07
-1.96561e-06
4.62223e-07
6.3408e-07
-1.8835e-06
1.02389e-06
8.65749e-07
-1.6706e-06
1.14114e-06
1.03447e-06
-1.37688e-06
1.04408e-06
1.01149e-06
-1.10787e-06
9.85998e-07
8.34349e-07
-8.18081e-07
1.00335e-06
5.86435e-07
-5.21193e-07
1.0911e-06
3.45599e-07
-5.01332e-07
1.28265e-06
7.93952e-08
-7.36445e-07
1.64023e-06
-1.22739e-06
1.77761e-06
-4.71642e-07
-2.72792e-06
1.67695e-06
1.5847e-07
-3.48432e-06
1.77777e-06
7.66351e-07
-3.00416e-06
1.49041e-06
1.49061e-06
-2.88917e-06
1.55601e-06
2.37507e-06
-2.9936e-06
1.77719e-06
2.66786e-06
-1.96345e-06
1.92186e-06
2.45836e-06
-1.32562e-06
2.31348e-06
1.85812e-06
-1.42769e-06
2.84746e-06
1.90545e-08
-1.39362e-06
2.9584e-06
-1.28457e-06
-5.59936e-07
-5.05374e-08
-6.51069e-06
7.09612e-06
8.41052e-07
-9.05084e-06
8.43924e-06
2.16942e-06
-7.81996e-06
6.40299e-06
4.0706e-06
-6.65011e-06
3.9878e-06
4.96544e-06
-4.59927e-06
2.50607e-06
3.44889e-06
-9.49359e-07
2.43433e-06
-3.24034e-07
2.10774e-06
2.55173e-06
-4.04337e-06
2.63584e-06
2.67041e-06
-5.15346e-06
-3.93516e-07
1.01228e-06
-3.34493e-06
-3.68218e-06
1.55462e-06
-7.18508e-06
5.38923e-06
1.77908e-06
-6.78811e-06
3.59209e-06
5.78794e-07
-2.93139e-06
-1.11635e-06
-1.35961e-06
-2.37491e-06
-1.94923e-06
-1.96445e-06
-1.82969e-06
-4.94623e-07
-3.55426e-06
1.43447e-06
1.90575e-06
-5.55062e-06
3.40363e-06
5.31923e-07
-5.93853e-06
2.7612e-06
-5.80324e-07
-4.46491e-06
-2.39415e-06
-9.9238e-07
-5.74931e-06
-3.11999e-06
-2.20852e-07
-3.91197e-06
-6.22493e-07
-1.74394e-06
-9.80229e-07
-5.17673e-06
-3.77152e-06
5.20992e-07
-6.47424e-06
-4.79249e-06
-1.18082e-07
-4.86308e-06
-5.75e-06
-6.70759e-07
-2.89464e-06
-5.93605e-06
4.96775e-07
-1.18203e-06
-5.53565e-06
2.16824e-06
-2.44033e-06
-3.93184e-06
1.22596e-06
-3.53213e-06
-2.53214e-06
-3.63608e-06
-2.36474e-06
-5.11877e-06
-2.59028e-06
-2.95791e-06
1.63362e-06
-5.85089e-06
-5.87563e-06
1.77884e-06
-6.20233e-06
-6.77249e-06
-3.20848e-09
-4.70607e-06
-6.25585e-06
-1.54489e-06
-4.21961e-06
-5.9836e-06
-1.88421e-06
-4.23384e-06
-5.65647e-06
-8.73063e-07
-4.31012e-06
-4.22411e-06
1.30655e-07
-5.30959e-06
-2.2182e-06
-2.9478e-07
-6.3742e-06
-1.6957e-06
-2.84527e-06
-5.4202e-06
-3.41988e-06
-3.32596e-06
-1.40769e-06
3.46455e-06
-5.23971e-06
-4.84809e-06
3.89527e-06
-4.64169e-06
-6.4428e-06
7.95992e-07
-4.13025e-06
-6.51564e-06
-1.75553e-06
-4.21741e-06
-6.03303e-06
-2.45222e-06
-4.48952e-06
-5.1315e-06
-1.39604e-06
-5.15827e-06
-3.58552e-06
-4.28678e-07
-5.99966e-06
-1.97183e-06
-2.30808e-07
-6.6608e-06
-1.54338e-06
-1.10046e-06
-5.6327e-06
-1.77113e-06
-2.76694e-06
1.24313e-06
2.35608e-06
-2.96608e-06
-5.88887e-07
4.227e-06
-3.31173e-06
-2.99631e-06
2.74772e-06
-3.29626e-06
-4.53194e-06
8.15002e-08
-3.31502e-06
-4.58914e-06
-1.55527e-06
-2.94342e-06
-3.68259e-06
-9.1611e-07
-3.14285e-06
-2.43191e-06
-5.13481e-09
-3.73114e-06
-1.62207e-06
7.0122e-07
-4.22546e-06
-1.53501e-06
2.29782e-07
-3.54862e-06
-6.13745e-07
-2.40664e-06
2.327e-06
1.16783e-06
-1.64634e-06
2.84055e-06
3.08417e-06
-2.87388e-06
1.06744e-06
4.04744e-06
-2.94477e-06
-1.88089e-06
3.14001e-06
-2.73934e-06
-3.12799e-06
7.87193e-07
-1.85823e-06
-2.75701e-06
1.53231e-08
-1.27657e-06
-2.0559e-06
2.71047e-07
-1.23452e-06
-1.43117e-06
1.04001e-06
-1.52975e-06
-1.19803e-06
8.31011e-07
-1.57027e-06
2.05724e-07
-1.86414e-06
2.03558e-06
6.08644e-07
-2.66824e-06
3.34356e-06
2.03596e-06
-3.98649e-06
2.82123e-06
4.15336e-06
-3.24683e-06
-1.6782e-07
5.48748e-06
-2.31609e-06
-2.15534e-06
3.19564e-06
-1.1787e-06
-2.52347e-06
9.48051e-07
-3.39802e-07
-2.16804e-06
3.86811e-07
-1.45335e-07
-1.50223e-06
1.0665e-06
-2.3285e-07
-9.20337e-07
1.13841e-06
-5.80298e-07
7.92851e-07
-1.45745e-06
2.05771e-06
3.4801e-07
-3.00939e-06
3.04261e-06
1.6138e-06
-4.46098e-06
2.79323e-06
4.12714e-06
-3.57198e-06
2.93526e-07
6.82416e-06
-2.06042e-06
-1.71333e-06
4.90184e-06
-6.42439e-07
-2.12402e-06
1.49823e-06
2.76273e-07
-1.79765e-06
3.4437e-07
9.95444e-08
-1.25658e-06
8.66365e-07
-1.97515e-08
-7.54529e-07
1.20885e-06
-3.1798e-07
1.11428e-06
-1.23755e-06
2.08217e-06
3.19313e-07
-3.04549e-06
3.10623e-06
2.12368e-06
-4.01221e-06
2.57958e-06
4.84208e-06
-3.35715e-06
1.80184e-07
7.90221e-06
-1.73188e-06
-1.60673e-06
6.11754e-06
-3.92657e-08
-1.61345e-06
1.68031e-06
8.63178e-07
-1.3235e-06
3.21582e-07
2.67347e-07
-9.61303e-07
5.95078e-07
1.25955e-07
-6.43751e-07
1.03888e-06
-5.02146e-08
1.11724e-06
-8.33266e-07
1.90784e-06
-2.15701e-06
6.24108e-07
3.41741e-06
-2.08841e-06
3.5177e-06
2.64728e-06
-2.06707e-06
6.57767e-06
2.47219e-08
-1.11854e-06
9.20953e-06
-1.38626e-06
8.68183e-07
7.01132e-06
-1.10735e-06
1.16663e-06
1.75151e-06
-8.87812e-07
3.47721e-07
3.27106e-07
-6.83833e-07
3.07221e-07
3.61904e-07
-4.98308e-07
2.28422e-07
7.77568e-07
-2.85099e-07
9.01813e-07
1.1328e-07
-1.20796e-07
3.3606e-07
2.55093e-07
-1.62731e-07
4.15371e-07
3.68618e-07
-1.37555e-07
4.19555e-07
4.40877e-07
-1.01085e-07
4.45171e-07
4.73245e-07
-7.17363e-08
4.93691e-07
4.69474e-07
-4.38929e-08
5.50024e-07
4.30575e-07
-1.87384e-08
6.1529e-07
3.5779e-07
3.95772e-09
6.8541e-07
2.34181e-07
3.68896e-08
7.80861e-07
1.14134e-07
7.55641e-07
8.88156e-08
-2.22313e-07
2.64371e-07
2.13368e-07
-3.08053e-07
3.5336e-07