/*--------------------------------*- C++ -*----------------------------------*\
| =========                 |                                                 |
| \\      /  F ield         | OpenFOAM: The Open Source CFD Toolbox           |
|  \\    /   O peration     | Version:  2312                                  |
|   \\  /    A nd           | Website:  www.openfoam.com                      |
|    \\/     M anipulation  |                                                 |
\*---------------------------------------------------------------------------*/
FoamFile
{
    version     2.0;
    format      ascii;
    arch        "LSB;label=32;scalar=64";
    class       surfaceScalarField;
    location    "0.915";
    object      phi;
}
// * * * * * * * * * * * * * * * * * * * * * * * * * * * * * * * * * * * * * //

dimensions      [0 3 -1 0 0 0 0];

oriented        oriented;

internalField   nonuniform List<scalar> 
22600
(
9.07593e-08
2.82336e-08
-1.25507e-07
1.53792e-07
6.19073e-08
-1.2494e-07
1.84349e-07
9.07581e-08
-1.21316e-07
1.89316e-07
1.19436e-07
-1.24403e-07
1.75093e-07
1.52057e-07
-1.37833e-07
1.45381e-07
1.94997e-07
-1.65286e-07
1.19471e-07
2.46002e-07
-2.20092e-07
1.31769e-07
2.67172e-07
-2.79471e-07
1.37874e-07
2.63084e-07
-2.69189e-07
3.43723e-07
-2.05849e-07
1.34997e-07
3.27239e-08
-1.29551e-07
2.19158e-07
1.17788e-07
-1.40042e-07
2.72241e-07
1.83229e-07
-1.45554e-07
2.99027e-07
2.47496e-07
-1.54846e-07
2.98738e-07
3.2973e-07
-1.77384e-07
2.59855e-07
4.61216e-07
-2.27337e-07
2.01833e-07
6.32012e-07
-3.27988e-07
1.76859e-07
6.68782e-07
-3.76636e-07
1.66859e-07
5.23935e-07
-2.50852e-07
7.2878e-07
-2.18198e-07
2.02083e-07
-7.9559e-08
-6.31837e-08
2.82758e-07
1.50458e-07
-1.13346e-07
3.33976e-07
2.76265e-07
-1.44254e-07
3.71871e-07
3.79643e-07
-1.70042e-07
3.93604e-07
5.2656e-07
-2.18562e-07
3.60389e-07
7.92735e-07
-2.98306e-07
2.07264e-07
1.10472e-06
-3.19585e-07
5.54118e-08
9.18387e-07
-9.77532e-08
4.9676e-08
3.0002e-07
2.29652e-07
8.30578e-07
-5.21218e-08
3.20067e-07
-4.56385e-07
9.11861e-08
4.61582e-07
4.03929e-08
-3.14498e-08
5.10051e-07
3.45202e-07
-1.17407e-07
5.61515e-07
4.91922e-07
-1.63742e-07
6.41389e-07
6.6828e-07
-2.21595e-07
6.00871e-07
1.07134e-06
-2.38087e-07
2.2162e-07
1.51656e-06
-3.25887e-08
-2.56259e-07
1.01394e-06
3.82326e-07
-3.0098e-07
-2.61687e-07
6.06428e-07
3.64111e-07
1.65488e-07
3.55183e-07
-7.93883e-07
7.98207e-08
5.66811e-07
-2.2131e-07
5.00752e-08
6.99632e-07
2.06037e-07
6.34392e-09
8.95841e-07
3.05913e-07
-1.02002e-08
1.18317e-06
4.14196e-07
-3.3243e-08
1.29076e-06
9.8413e-07
-2.03787e-08
9.09415e-07
1.62625e-06
2.71658e-07
2.28332e-07
1.17661e-06
5.18413e-07
-3.867e-07
5.43966e-07
-1.90622e-07
3.09097e-07
-3.31686e-07
3.40156e-07
-4.98114e-07
-4.06132e-07
5.33165e-07
-9.86739e-09
-4.04452e-07
8.2067e-07
3.08106e-07
-3.89574e-07
1.26367e-06
2.29267e-07
-3.66352e-07
1.84365e-06
6.29028e-08
-2.28688e-07
2.3277e-06
4.91195e-07
8.88487e-09
2.45067e-06
1.22599e-06
2.77286e-07
2.04136e-06
1.49155e-06
9.43641e-08
1.19244e-06
3.22809e-06
-1.8352e-06
3.45372e-06
-1.95219e-06
3.69392e-07
1.11767e-07
-9.43304e-07
8.25078e-07
5.05288e-07
-9.70842e-07
1.45922e-06
6.20744e-07
-9.4678e-07
2.16381e-06
4.23128e-07
-8.98456e-07
2.91646e-06
1.01321e-07
-7.91066e-07
3.54132e-06
3.45811e-07
-4.79477e-07
3.37293e-06
1.94467e-06
-5.50286e-07
2.80707e-06
3.9124e-06
-1.85497e-06
2.59541e-06
6.88863e-06
-3.44889e-06
9.18439e-06
-3.13526e-06
-3.78718e-07
8.90352e-07
-1.49402e-06
6.98633e-07
7.64836e-07
-1.3369e-06
1.90245e-06
5.7628e-07
-1.15935e-06
3.159e-06
-4.26928e-08
-7.90727e-07
4.48347e-06
-5.17391e-07
-7.05757e-07
5.59965e-06
8.10498e-07
-1.58087e-06
4.19732e-06
6.27303e-06
-2.92603e-06
2.68401e-06
1.02092e-05
-4.78354e-06
2.26415e-06
1.27865e-05
-5.47796e-06
1.4517e-05
-3.06843e-06
-1.93903e-06
2.56428e-06
-2.70858e-06
-1.74984e-07
1.38606e-06
-2.38527e-06
1.5052e-06
1.11107e-06
-2.21497e-06
2.62052e-06
1.49027e-06
-2.64828e-06
1.68189e-06
4.52079e-06
-4.09955e-06
1.09371e-06
6.45607e-06
-5.05741e-06
4.57509e-07
1.23218e-05
-5.41256e-06
-1.6501e-07
1.60641e-05
-5.23237e-06
4.79224e-07
1.85331e-05
-6.39087e-06
1.7439e-05
-2.44281e-06
-4.66357e-06
1.53182e-06
6.21418e-07
-4.43573e-06
9.26883e-07
2.31339e-07
-3.22065e-06
1.32963e-06
-1.43365e-06
-1.9653e-06
3.05637e-06
-2.82147e-06
-5.29929e-07
6.00578e-06
-2.92038e-06
-1.03064e-06
9.58127e-06
-2.62451e-06
-1.24557e-06
1.59962e-05
-3.45946e-06
-7.23453e-07
1.99349e-05
-4.39287e-06
-8.57255e-07
2.42495e-05
-5.58256e-06
1.94962e-05
-2.91447e-06
-5.37865e-06
-3.97043e-07
2.79381e-06
-5.92137e-06
-1.13539e-06
2.60499e-06
-5.59666e-06
-1.12608e-06
2.13101e-06
-4.42841e-06
5.80751e-07
1.3074e-06
-3.03599e-06
4.18571e-06
4.27671e-07
-2.82708e-06
9.2761e-06
9.62829e-08
-2.30966e-06
1.59842e-05
-5.05432e-07
-1.42498e-06
2.17899e-05
-2.73972e-06
-9.83818e-07
2.68263e-05
-3.01799e-06
1.97887e-05
-1.27635e-06
-4.78323e-06
-2.14162e-06
1.93682e-06
-4.65666e-06
-3.30681e-06
2.04485e-06
-4.83961e-06
-3.66795e-06
2.72482e-06
-5.03729e-06
-2.69938e-06
3.4778e-06
-4.63972e-06
4.76938e-07
3.31122e-06
-3.88787e-06
5.81166e-06
2.71256e-06
-3.03887e-06
1.3013e-05
2.12219e-06
-2.09004e-06
2.09289e-05
-8.7793e-08
-1.16513e-06
2.6356e-05
-4.54579e-07
1.7785e-05
8.38636e-07
-4.0779e-06
-4.08128e-06
1.26607e-06
-3.82004e-06
-5.33835e-06
1.77369e-06
-3.93781e-06
-5.89096e-06
2.34079e-06
-3.89263e-06
-5.61392e-06
2.86936e-06
-3.91894e-06
-3.82402e-06
4.32726e-06
-3.76059e-06
2.75125e-07
5.3782e-06
-3.09023e-06
7.84701e-06
4.49561e-06
-2.30243e-06
1.68148e-05
3.32632e-06
-9.35042e-07
2.24888e-05
2.49977e-06
1.41582e-05
2.6917e-06
-4.42833e-06
-5.62249e-06
1.08036e-06
-4.7843e-06
-6.43107e-06
1.44869e-06
-4.7949e-06
-6.75087e-06
8.70511e-07
-4.02285e-06
-6.83816e-06
4.52201e-07
-2.96607e-06
-6.80741e-06
1.9266e-06
-2.28211e-06
-4.89535e-06
4.48651e-06
-1.82371e-06
1.11611e-06
6.27248e-06
-1.27871e-06
1.09275e-05
5.34226e-06
-6.60057e-08
1.69544e-05
4.32173e-06
1.07475e-05
3.34478e-06
-6.52501e-06
-5.84684e-06
6.35179e-07
-6.97282e-06
-6.1593e-06
1.76034e-07
-6.18994e-06
-6.60966e-06
-9.24071e-07
-4.53053e-06
-7.60065e-06
-8.96933e-07
-3.06052e-06
-8.73264e-06
4.5526e-07
-1.89484e-06
-8.32097e-06
2.25993e-06
-8.61847e-07
-4.73318e-06
4.81629e-06
4.47069e-07
3.37204e-06
6.24658e-06
1.4079e-06
1.0798e-05
5.19553e-06
8.61053e-06
3.54482e-06
-9.1088e-06
-5.09937e-06
-5.40447e-09
-8.94754e-06
-5.31187e-06
-1.00872e-06
-7.45522e-06
-6.4354e-06
-1.66661e-06
-5.58511e-06
-8.34955e-06
-1.12122e-06
-3.89518e-06
-9.98162e-06
-4.40957e-07
-2.55113e-06
-1.04306e-05
7.65554e-07
-1.73658e-06
-9.15451e-06
3.60678e-06
-3.75838e-07
-4.30314e-06
6.31444e-06
1.23419e-06
3.47688e-06
5.7111e-06
6.29749e-06
3.54724e-06
-1.1086e-05
-4.00478e-06
-3.23822e-07
-1.06708e-05
-4.27842e-06
-1.44862e-06
-9.20067e-06
-5.69869e-06
-2.20687e-06
-7.55569e-06
-7.7739e-06
-2.22062e-06
-5.78404e-06
-9.61369e-06
-2.13959e-06
-4.02071e-06
-1.09058e-05
-1.28807e-06
-2.71898e-06
-1.10196e-05
5.63359e-07
-2.1482e-06
-8.65747e-06
3.78355e-06
-8.43086e-07
-3.10008e-06
5.27184e-06
2.359e-06
3.0954e-06
-1.26513e-05
-2.77147e-06
-8.97947e-08
-1.25356e-05
-2.6983e-06
-1.69585e-06
-1.14756e-05
-3.67181e-06
-3.08685e-06
-1.00806e-05
-5.38125e-06
-3.78766e-06
-8.15491e-06
-7.16271e-06
-4.37665e-06
-5.57539e-06
-8.79008e-06
-4.69527e-06
-2.86404e-06
-9.64018e-06
-4.09079e-06
-1.43036e-06
-8.55891e-06
-1.53223e-06
-1.31663e-06
-5.19081e-06
1.97699e-06
-1.18999e-06
2.23236e-06
-1.36497e-05
-1.65948e-06
7.34656e-07
-1.41256e-05
-7.91899e-07
-1.43048e-06
-1.35013e-05
-9.07895e-07
-3.38823e-06
-1.22013e-05
-1.97564e-06
-4.70555e-06
-1.00374e-05
-3.40033e-06
-5.92638e-06
-6.75576e-06
-4.98725e-06
-7.08443e-06
-2.67894e-06
-5.89852e-06
-7.81847e-06
2.87887e-07
-5.25344e-06
-6.2723e-06
5.6468e-07
-3.9175e-06
-1.5501e-06
-1.50448e-06
8.79184e-07
-1.37846e-05
1.7856e-06
-1.05746e-06
-1.48483e-05
-1.92786e-07
4.64585e-07
-1.46953e-05
-1.98509e-06
9.24173e-07
-1.34721e-05
-3.48164e-06
2.82811e-07
-1.1083e-05
-4.91506e-06
-8.74357e-07
-7.33899e-06
-6.37369e-06
-2.3576e-06
-2.64131e-06
-7.59137e-06
-3.00483e-06
1.10419e-06
-7.03964e-06
-1.9593e-06
1.8669e-06
-3.54608e-06
-1.13411e-06
8.86662e-07
-5.24249e-07
5.56099e-08
-2.74268e-08
-1.32741e-07
6.19804e-08
9.57961e-09
-1.4089e-07
5.19166e-08
3.43736e-08
-1.45626e-07
3.11394e-08
5.65012e-08
-1.60126e-07
7.10904e-12
7.63706e-08
-1.83071e-07
-2.86789e-08
8.4955e-08
-2.21556e-07
-1.5977e-08
4.31319e-08
-2.75927e-07
1.08174e-07
-9.04739e-08
-3.13149e-07
1.95076e-07
-8.11587e-08
-2.74933e-07
2.73567e-07
-2.8434e-07
1.02382e-07
-8.39995e-08
-1.38688e-07
1.33421e-07
1.66201e-09
-1.63164e-07
1.36386e-07
6.9055e-08
-1.832e-07
1.16073e-07
1.30211e-07
-2.08243e-07
5.61269e-08
2.05284e-07
-2.46352e-07
-5.05624e-08
2.79182e-07
-3.14876e-07
-1.47607e-07
1.91192e-07
-3.79004e-07
4.7873e-09
-3.42173e-07
-2.77331e-07
2.28209e-07
-4.37327e-07
-1.18105e-07
6.37015e-07
-3.53436e-07
1.51316e-07
-1.49058e-07
-7.12189e-08
1.38172e-07
5.56307e-08
-1.54172e-07
1.29655e-07
1.35289e-07
-2.0197e-07
1.02919e-07
2.38197e-07
-2.51292e-07
-1.11856e-10
4.19165e-07
-3.29413e-07
-2.22232e-07
6.20613e-07
-4.17616e-07
-5.03226e-07
4.21951e-07
-2.69349e-07
-4.55104e-07
-7.50905e-07
2.62857e-07
-8.15791e-08
-1.12775e-06
5.46551e-07
7.55074e-07
-2.51761e-07
2.79436e-07
-3.46087e-07
1.0787e-07
2.96252e-07
6.88735e-08
-6.1509e-08
2.58656e-07
2.48433e-07
-1.92956e-07
2.34831e-07
4.04012e-07
-3.05732e-07
1.82957e-07
6.81411e-07
-4.31967e-07
-3.1516e-08
9.98581e-07
-4.01582e-07
-3.60186e-07
6.84739e-07
3.32929e-08
-5.88945e-07
-7.29704e-07
5.89884e-07
-4.21021e-07
-1.22646e-06
5.37214e-07
6.55016e-07
-1.55475e-07
4.21091e-07
-6.72282e-07
1.79277e-07
4.99144e-07
1.93044e-08
2.15909e-08
5.37552e-07
3.05348e-07
-8.89787e-08
6.73461e-07
4.78722e-07
-2.20819e-07
8.92574e-07
7.99364e-07
-3.7031e-07
1.04118e-06
1.14962e-06
-3.20025e-07
9.63746e-07
9.81553e-07
5.22782e-08
3.66438e-07
2.49e-07
1.37016e-07
-2.74323e-07
3.01515e-07
-1.07784e-06
1.11128e-06
-1.06227e-06
2.57168e-07
-6.40904e-07
-2.59336e-07
4.05262e-07
-2.00987e-07
-3.32254e-07
7.34629e-07
-3.46277e-08
-3.78965e-07
1.17618e-06
1.24549e-07
-4.53728e-07
1.67511e-06
5.52487e-07
-4.80745e-07
2.17952e-06
1.01848e-06
-3.64377e-07
2.45027e-06
1.12361e-06
-1.35519e-07
1.94999e-06
1.67621e-06
-8.32574e-07
7.2632e-07
2.77621e-06
-3.08622e-06
3.04495e-06
-3.15953e-06
3.32978e-07
-4.10903e-07
-1.04479e-06
5.86758e-07
-3.34639e-07
-1.09097e-06
1.13481e-06
-4.0623e-07
-1.12323e-06
1.78687e-06
-3.03177e-07
-1.12279e-06
2.4758e-06
3.31813e-08
-9.60689e-07
3.15253e-06
8.4481e-07
-9.82539e-07
3.2567e-06
2.09104e-06
-1.62189e-06
2.81761e-06
3.44455e-06
-3.18423e-06
1.83472e-06
5.44352e-06
-5.1333e-06
7.32762e-06
-5.58322e-06
3.13044e-08
-2.26333e-07
-2.26501e-06
7.12279e-07
-1.59881e-07
-2.19263e-06
1.50625e-06
-1.10792e-07
-2.24876e-06
2.24087e-06
1.53281e-07
-1.9818e-06
3.26292e-06
3.62054e-07
-2.05668e-06
4.08349e-06
1.78105e-06
-3.33768e-06
3.52972e-06
4.60087e-06
-4.88209e-06
2.9928e-06
5.3907e-06
-6.19277e-06
1.73978e-06
8.3792e-06
-7.16062e-06
1.23004e-05
-6.30141e-06
-8.12922e-07
3.02877e-06
-6.9987e-06
1.04493e-06
2.77856e-06
-7.18156e-06
2.93325e-06
3.70787e-06
-7.92195e-06
4.00725e-06
4.52913e-06
-8.09813e-06
2.89327e-06
4.27587e-06
-6.89936e-06
2.75493e-06
3.59796e-06
-6.73595e-06
2.64612e-06
4.43927e-06
-5.14213e-06
1.28417e-06
6.34524e-06
-4.82495e-06
-7.14337e-07
9.26904e-06
-5.28221e-06
1.24213e-05
-3.27803e-06
-2.99257e-06
4.23827e-06
-1.64755e-06
-1.84674e-06
3.50015e-06
-1.63607e-06
-1.09079e-06
2.58546e-06
-1.06717e-06
-1.17829e-06
1.92387e-06
-1.28707e-07
-4.65118e-07
1.46134e-06
-8.19026e-07
1.68636e-07
7.70311e-07
-4.30616e-07
5.04119e-07
2.60879e-06
-1.96447e-06
-8.13759e-07
6.96413e-06
-3.69388e-06
-2.44504e-06
8.80767e-06
-3.4899e-06
8.11542e-06
-1.05366e-06
-6.53009e-06
2.98225e-06
4.42694e-06
-5.94372e-06
7.11585e-07
4.80719e-06
-4.56571e-06
-1.94819e-06
5.28666e-06
-2.48973e-06
-3.99648e-06
5.15178e-06
-4.25093e-07
-3.99951e-06
3.82389e-06
7.91443e-07
-2.42133e-06
2.0714e-06
5.80559e-07
1.39185e-06
9.22376e-07
-8.29028e-07
7.84937e-06
-2.2154e-06
-1.65065e-06
9.63001e-06
-3.01872e-06
6.46068e-06
-1.27226e-06
-6.13899e-06
1.51862e-06
3.15228e-06
-4.91537e-06
-1.34647e-06
2.87929e-06
-3.50049e-06
-4.2091e-06
3.57085e-06
-2.40797e-06
-5.58048e-06
3.96929e-06
-1.14388e-06
-5.26761e-06
3.31524e-06
1.02407e-07
-3.4919e-06
2.53684e-06
4.28535e-07
1.27651e-06
1.9114e-06
-3.10692e-07
7.98751e-06
5.13318e-07
-9.65677e-07
1.06793e-05
-8.48878e-07
6.69142e-06
-3.57787e-07
-4.671e-06
5.78503e-07
1.26943e-06
-3.0866e-06
-2.76202e-06
1.60485e-06
-2.59956e-06
-4.88974e-06
2.53439e-06
-2.87218e-06
-5.02144e-06
2.58296e-06
-2.25458e-06
-4.0053e-06
2.44733e-06
-4.34557e-07
-3.77975e-06
3.84602e-06
8.72681e-07
-5.92241e-07
5.05712e-06
-9.66847e-08
8.21205e-06
4.07116e-06
-8.86772e-07
1.27601e-05
1.20908e-06
8.08515e-06
4.11197e-07
-3.14702e-06
-6.14104e-07
4.79497e-07
-2.01067e-06
-3.99466e-06
1.54496e-06
-2.69617e-06
-4.69659e-06
1.36284e-06
-3.12379e-06
-3.71102e-06
-4.30596e-07
-2.45993e-06
-2.91338e-06
1.70836e-07
-6.06733e-07
-4.58096e-06
3.43452e-06
1.0725e-06
-3.48704e-06
7.48805e-06
8.85427e-07
6.19647e-06
7.54492e-06
1.06817e-07
1.31995e-05
4.66097e-06
9.47239e-06
2.06435e-06
-2.33607e-06
-2.21794e-06
4.37954e-07
-3.21705e-06
-3.80254e-06
8.64888e-07
-4.50936e-06
-3.29809e-06
-1.03023e-06
-3.93687e-06
-2.85399e-06
-2.32647e-06
-2.57231e-06
-4.09745e-06
2.74756e-07
-1.61152e-06
-6.25191e-06
2.97009e-06
-1.2434e-07
-6.12425e-06
5.96632e-06
1.91139e-06
1.61226e-06
8.79506e-06
1.46502e-06
1.1738e-05
7.10336e-06
1.06458e-05
3.83642e-06
-3.68194e-06
-2.50267e-06
1.67098e-07
-6.10907e-06
-2.04508e-06
-3.3904e-07
-6.57269e-06
-1.90558e-06
-2.59549e-06
-5.67582e-06
-3.71984e-06
-1.15223e-06
-4.6744e-06
-6.18516e-06
6.45336e-07
-4.08836e-06
-7.62951e-06
1.55713e-06
-3.44676e-06
-7.55423e-06
4.39516e-06
-1.03724e-06
-2.70574e-06
8.22292e-06
8.95926e-07
7.62695e-06
7.88898e-06
1.0406e-05
4.68303e-06
-6.84805e-06
-1.39079e-06
1.87298e-07
-8.57063e-06
8.55275e-10
-1.77198e-06
-8.69845e-06
-9.14127e-07
-3.07051e-06
-8.62267e-06
-3.63991e-06
-2.37632e-06
-8.59334e-06
-6.12163e-06
-2.23244e-06
-7.87794e-06
-7.87844e-06
-1.75455e-06
-7.01147e-06
-8.38346e-06
5.2611e-07
-5.37002e-06
-5.08888e-06
4.52524e-06
-2.03189e-06
2.67198e-06
6.88868e-06
7.35639e-06
4.11307e-06
-9.75289e-06
1.9618e-07
2.53765e-07
-1.07144e-05
1.64076e-06
-2.37424e-06
-1.10342e-05
8.3466e-07
-4.51578e-06
-1.14693e-05
-1.294e-06
-5.69845e-06
-1.15234e-05
-3.62151e-06
-6.8227e-06
-1.0385e-05
-5.93627e-06
-7.77587e-06
-8.38836e-06
-7.11918e-06
-7.35171e-06
-6.757e-06
-5.17935e-06
-3.07311e-06
-4.29166e-06
-4.56357e-07
2.63998e-06
3.1681e-06
2.12899e-06
-1.19726e-05
1.4402e-06
6.25071e-07
-1.25086e-05
3.06509e-06
-2.31887e-06
-1.27168e-05
2.90376e-06
-5.24908e-06
-1.2638e-05
1.73536e-06
-7.81367e-06
-1.17258e-05
-2.76379e-07
-1.01837e-05
-9.67083e-06
-3.20102e-06
-1.18747e-05
-6.80764e-06
-5.29549e-06
-1.25054e-05
-4.14548e-06
-3.54778e-06
-1.0566e-05
-3.14219e-06
1.06756e-06
-4.07731e-06
6.40725e-07
2.64365e-07
-1.33254e-05
1.63302e-06
2.13596e-06
-1.31577e-05
-1.43416e-06
4.13875e-06
-1.26094e-05
-4.14632e-06
4.51672e-06
-1.1615e-05
-6.62284e-06
3.88213e-06
-9.9307e-06
-8.98511e-06
2.10937e-06
-7.62589e-06
-1.06345e-05
-1.24504e-06
-5.01756e-06
-1.11635e-05
-4.33166e-06
-2.75417e-06
-1.00028e-05
-2.84802e-06
-1.09993e-06
-7.79588e-06
3.66312e-06
-4.97399e-07
9.2485e-07
4.61759e-08
-8.81489e-08
-7.94903e-08
5.22698e-08
-4.60625e-08
-1.00922e-07
4.12839e-08
-1.10256e-08
-1.23615e-07
1.88335e-08
1.44876e-08
-1.52164e-07
-1.38716e-08
3.01426e-08
-1.80509e-07
-4.48651e-08
1.85679e-08
-2.09131e-07
-1.23031e-08
-8.63044e-08
-2.22184e-07
1.42649e-07
-2.51047e-07
-2.17054e-07
2.10198e-07
-1.48747e-07
-1.93735e-07
2.42016e-07
-3.16159e-07
8.63003e-08
-1.99544e-07
-8.61421e-08
1.16916e-07
-1.11235e-07
-1.28607e-07
1.20457e-07
-3.22354e-08
-1.65531e-07
9.18382e-08
4.20785e-08
-2.07215e-07
1.47238e-08
1.10465e-07
-2.4956e-07
-1.03725e-07
1.12988e-07
-2.90848e-07
-1.6299e-07
-1.39952e-07
-2.66091e-07
8.90675e-08
-6.77045e-07
-1.0339e-07
3.14342e-07
-4.43895e-07
-4.82319e-08
6.33147e-07
-4.30226e-07
1.04421e-07
-2.51009e-07
-6.1047e-08
1.04379e-07
-1.2157e-07
-1.43796e-07
9.44189e-08
-1.81918e-08
-2.06054e-07
4.58633e-08
1.02497e-07
-2.63155e-07
-1.08606e-07
2.66891e-07
-3.31369e-07
-3.98823e-07
3.40418e-07
-3.5483e-07
-5.81785e-07
-1.30401e-07
-9.5938e-08
-2.61527e-07
-1.16848e-06
4.34031e-07
1.49162e-07
-7.58301e-07
4.50266e-07
1.02836e-06
-4.97807e-07
1.85969e-07
-2.66339e-07
2.57335e-08
1.71662e-07
-7.89644e-08
-8.98076e-08
1.52947e-07
1.498e-08
-2.07413e-07
1.00098e-07
1.864e-07
-3.36787e-07
-6.17123e-08
4.5298e-07
-4.56246e-07
-3.11602e-07
6.00199e-07
-4.11473e-07
-4.03335e-07
-4.26848e-08
3.73091e-08
-3.05513e-07
-1.2335e-06
5.5708e-07
-2.22824e-07
-6.19225e-07
3.15449e-07
1.28945e-06
-6.39391e-07
3.33834e-07
-3.55376e-07
6.8335e-08
3.44748e-07
3.4231e-08
-1.02518e-07
3.08944e-07
1.89775e-07
-2.2797e-07
3.7467e-07
2.94992e-07
-3.95136e-07
4.65957e-07
5.50033e-07
-5.5865e-07
5.49811e-07
7.23397e-07
-5.27077e-07
5.84184e-07
2.31953e-07
-2.56733e-07
2.40524e-07
-4.49195e-07
-3.03624e-07
-3.42518e-07
1.14305e-07
-1.22833e-06
1.43958e-06
-1.55492e-06
3.11319e-07
-5.25431e-07
-7.76177e-08
4.04512e-07
-1.84476e-07
-2.0674e-07
5.79214e-07
-9.13872e-08
-2.72504e-07
8.84786e-07
-5.45254e-08
-4.09784e-07
1.26263e-06
2.64699e-07
-5.73254e-07
1.59729e-06
6.66493e-07
-6.42128e-07
1.60809e-06
7.58241e-07
-6.72615e-07
8.19138e-07
1.01655e-06
-1.50936e-06
-9.33218e-08
9.04713e-07
-2.96417e-06
1.3658e-06
-3.17908e-06
2.339e-07
-6.22046e-07
-8.1382e-07
2.6692e-07
-4.42565e-07
-8.65902e-07
5.59143e-07
-5.63732e-07
-9.43112e-07
1.17939e-06
-7.66438e-07
-1.03112e-06
1.85162e-06
-3.678e-07
-1.00042e-06
2.4711e-06
2.36631e-07
-1.17216e-06
2.31426e-06
1.31459e-06
-2.0214e-06
1.54623e-06
2.14461e-06
-3.54426e-06
5.74643e-07
2.14743e-06
-5.40444e-06
2.26385e-06
-5.90662e-06
5.22345e-07
-1.4705e-06
-1.89179e-06
1.01065e-06
-1.20992e-06
-1.91358e-06
1.56615e-06
-1.30521e-06
-2.06279e-06
2.13384e-06
-1.09718e-06
-2.21875e-06
2.59382e-06
-2.84164e-07
-2.60029e-06
2.97129e-06
-1.84766e-07
-3.29376e-06
2.4596e-06
1.58372e-06
-4.63953e-06
1.84567e-06
2.77314e-06
-6.20738e-06
7.75704e-07
4.61582e-06
-8.55905e-06
6.14984e-06
-9.41169e-06
-9.81816e-08
-5.17702e-06
-3.9005e-06
1.21118e-06
-5.69042e-06
-4.01043e-06
2.84381e-06
-6.52302e-06
-4.33676e-06
4.07974e-06
-4.77255e-06
-5.6587e-06
3.38371e-06
1.20854e-06
-7.69604e-06
2.66413e-06
-4.21223e-07
-5.77993e-06
2.38347e-06
3.90834e-07
-3.6686e-06
6.38961e-07
2.52142e-06
-2.82873e-06
-1.46268e-06
2.75594e-06
-1.32068e-06
5.3174e-07
8.7738e-07
-3.26689e-06
-2.03951e-06
-4.73966e-06
-3.52074e-06
-2.53864e-06
-4.53398e-06
-4.34733e-06
-3.2945e-06
-3.4691e-06
-4.10769e-06
-2.85059e-06
-2.29031e-06
-1.81727e-06
-1.94234e-06
4.14579e-08
1.16393e-06
-4.94442e-06
1.11138e-06
2.26602e-06
-4.64947e-06
1.97372e-06
2.4075e-07
-6.0263e-07
1.45544e-06
-2.17228e-06
3.35602e-07
1.34346e-06
-5.64771e-06
2.95354e-06
-7.06131e-06
2.45672e-06
3.58433e-07
-6.29393e-06
1.50449e-06
-3.31161e-09
-5.0548e-06
-1.51153e-07
9.04185e-07
-2.14851e-06
-3.00117e-06
2.39608e-06
1.28154e-06
-5.4929e-06
3.9444e-06
2.8418e-06
-6.43221e-06
1.99893e-06
3.96857e-06
-5.38466e-06
5.30802e-07
3.72117e-06
-2.46559e-06
-1.05029e-07
1.84778e-06
-4.42508e-07
-3.67235e-07
-4.85193e-06
-2.20259e-07
-6.80759e-06
4.39996e-06
8.05324e-07
-5.10262e-06
2.86579e-06
-1.86976e-07
-2.61917e-06
4.40054e-07
4.96168e-07
-5.84085e-09
-2.5872e-06
9.41984e-07
1.68884e-06
-4.73173e-06
8.59383e-07
2.64214e-06
-4.9833e-06
1.34618e-07
3.96723e-06
-4.36664e-06
-4.31736e-07
3.3627e-06
-1.48633e-06
1.38606e-07
1.80029e-06
1.99923e-07
7.11016e-08
-2.59219e-06
-8.17247e-07
-5.50685e-06
4.92736e-06
6.52536e-08
-3.30835e-06
2.83063e-06
-5.5847e-07
-1.12788e-06
1.62541e-07
6.31426e-07
2.20663e-07
-2.69656e-06
1.34377e-06
4.02073e-07
-2.61151e-06
1.45704e-07
1.37613e-06
-1.83433e-06
-2.77004e-07
3.81835e-06
-3.04202e-06
1.2903e-06
2.91969e-06
3.51596e-07
3.1319e-06
1.55664e-06
2.76173e-06
1.03124e-08
9.06705e-07
-1.53105e-06
-3.45324e-06
4.8125e-06
-9.37512e-07
-1.25011e-06
1.96524e-06
2.07201e-07
-3.16676e-07
-1.27625e-06
1.86822e-06
-7.05544e-07
-2.69382e-06
-4.4462e-08
-1.31303e-06
3.36588e-08
-1.86686e-06
4.32958e-07
4.7847e-07
-6.24278e-07
3.1337e-06
-3.04327e-06
4.78859e-06
3.51038e-06
5.75395e-07
6.94442e-06
2.13938e-06
6.13125e-06
2.66245e-06
5.06795e-06
4.2498e-08
-1.60207e-06
3.87305e-06
-1.13385e-06
-6.29802e-07
4.82716e-07
1.37512e-06
-2.08184e-06
-1.57257e-06
7.18127e-07
-3.19715e-06
-6.89008e-07
-3.21596e-06
-2.1265e-06
-6.80547e-08
-6.94174e-07
-1.04935e-07
-1.44177e-06
2.86877e-06
1.12357e-06
-3.71471e-06
5.40925e-06
2.67114e-06
-2.7187e-07
8.09475e-06
2.22165e-06
7.94289e-06
5.74123e-06
8.25911e-06
2.86691e-06
-6.75185e-07
2.32095e-06
-6.01216e-07
-2.33063e-06
2.12716e-07
1.58641e-06
-5.09531e-06
3.70876e-07
-1.77424e-06
-5.7729e-06
-2.61179e-07
-9.02469e-07
-5.0425e-06
-2.39745e-06
2.24434e-06
-4.04519e-06
-3.73113e-06
2.84919e-06
-3.2667e-06
-3.97529e-06
3.87724e-06
-1.10416e-06
-5.5293e-07
6.34144e-06
7.24172e-07
7.76956e-06
6.23398e-06
9.83415e-06
3.83215e-06
-1.03497e-06
1.33803e-06
7.12801e-07
-5.1896e-06
2.3502e-06
2.45182e-07
-8.13812e-06
3.07196e-06
-2.82306e-06
-9.46443e-06
5.61268e-07
-1.87246e-06
-1.05531e-05
-2.45902e-06
-1.08216e-06
-1.02793e-05
-4.49564e-06
-1.26387e-06
-8.44783e-06
-5.33346e-06
5.27966e-08
-5.56357e-06
-2.21163e-06
3.29969e-06
-2.0943e-06
5.55931e-06
5.62966e-06
8.19754e-06
3.65539e-06
-3.25943e-06
2.0192e-06
1.88177e-06
-7.53665e-06
5.04414e-06
-7.90958e-07
-9.75279e-06
5.54065e-06
-4.76833e-06
-1.12247e-05
3.16944e-06
-6.83468e-06
-1.23407e-05
9.56996e-08
-8.2615e-06
-1.22347e-05
-3.2588e-06
-9.11863e-06
-1.03227e-05
-5.39872e-06
-9.19846e-06
-6.70876e-06
-3.388e-06
-5.51072e-06
-3.5534e-06
3.09973e-06
1.9442e-06
4.72218e-06
2.05096e-06
-6.38234e-06
3.61452e-06
2.43007e-06
-8.90622e-06
6.55579e-06
-1.30664e-06
-1.01005e-05
7.10611e-06
-5.62022e-06
-1.08401e-05
5.7385e-06
-9.64309e-06
-1.08179e-05
2.9424e-06
-1.30527e-05
-9.68598e-06
-1.35048e-06
-1.49149e-05
-7.32713e-06
-5.69354e-06
-1.45694e-05
-4.50989e-06
-4.79862e-06
-1.19726e-05
-2.38822e-06
3.89963e-06
-6.99888e-06
3.55228e-06
-9.53963e-07
-8.36402e-06
2.59017e-06
4.39084e-06
-8.8655e-06
-1.23362e-06
6.85674e-06
-8.48606e-06
-4.87147e-06
7.45183e-06
-7.54877e-06
-8.79833e-06
6.97669e-06
-6.333e-06
-1.23074e-05
5.0489e-06
-5.38121e-06
-1.41145e-05
1.17771e-06
-4.53378e-06
-1.2827e-05
-4.87751e-06
-3.50504e-06
-9.77721e-06
-6.05295e-06
-2.4151e-06
-9.68091e-06
4.69472e-06
-3.12836e-06
3.76814e-06
3.08727e-08
-8.00174e-08
-2.69456e-08
3.94779e-08
-5.16297e-08
-5.78975e-08
3.22582e-08
-2.02864e-08
-9.61086e-08
1.4043e-08
1.82456e-09
-1.35773e-07
-1.08208e-08
1.32475e-08
-1.68893e-07
-2.94643e-08
4.60078e-10
-1.90948e-07
6.978e-09
-7.03798e-08
-1.88246e-07
1.27168e-07
-1.66566e-07
-1.70678e-07
1.58304e-07
-5.33497e-08
-1.71522e-07
1.87419e-07
-3.45274e-07
6.27495e-08
-1.97154e-07
-9.34879e-09
9.18618e-08
-1.43605e-07
-6.5745e-08
1.04169e-07
-6.94976e-08
-1.28628e-07
8.64984e-08
-3.61232e-10
-1.87359e-07
3.40585e-08
5.24329e-08
-2.36305e-07
-3.08931e-08
3.89458e-08
-2.64382e-07
-1.33989e-08
-1.25749e-07
-2.28215e-07
2.02195e-07
-3.61536e-07
-1.24014e-07
2.69238e-07
-1.69554e-08
-1.51669e-07
5.05477e-07
-4.79046e-07
7.959e-08
-2.6034e-07
-2.95324e-08
9.07567e-08
-2.04647e-07
-9.392e-08
9.51002e-08
-1.07637e-07
-1.72258e-07
5.53239e-08
1.84386e-08
-2.42178e-07
-5.55708e-08
1.2939e-07
-2.97431e-07
-2.38047e-07
1.59127e-07
-2.92535e-07
-2.74528e-07
-9.10046e-08
-9.42021e-08
5.88419e-08
-5.11822e-07
2.50946e-07
2.92468e-07
9.45252e-08
1.05159e-07
9.35319e-07
-6.35181e-07
1.5216e-07
-2.59113e-07
-5.19214e-08
1.52761e-07
-1.99206e-07
-9.58498e-08
1.37524e-07
-1.08596e-07
-1.91217e-07
7.43146e-08
5.00162e-08
-3.05155e-07
-8.9604e-08
2.35969e-07
-3.98907e-07
-3.00117e-07
3.14695e-07
-3.56528e-07
-2.89784e-07
-4.84424e-08
-1.55861e-08
-5.6299e-08
-5.44261e-07
3.56034e-07
4.94048e-08
2.91489e-07
1.27816e-08
1.29146e-06
-9.46132e-07
2.51827e-07
-2.53425e-07
-1.28734e-07
2.61966e-07
-1.28564e-07
-1.833e-07
2.11408e-07
6.07079e-09
-2.92079e-07
1.73528e-07
1.4691e-07
-4.54151e-07
1.31523e-07
2.9633e-07
-5.77006e-07
1.1402e-07
3.62698e-07
-5.57578e-07
2.03127e-07
-3.04036e-08
-3.63879e-07
1.18532e-07
-3.94855e-07
-3.68435e-07
-2.18372e-07
5.70151e-07
-1.17008e-06
1.28392e-06
-1.76574e-06
3.6728e-07
-3.54551e-07
-1.35656e-07
4.13732e-07
-1.82699e-07
-1.99057e-07
4.28334e-07
-5.05966e-08
-2.30439e-07
4.93056e-07
6.80078e-08
-3.95603e-07
6.32739e-07
1.56719e-07
-5.73326e-07
7.75794e-07
2.71627e-07
-6.94111e-07
7.02485e-07
2.12655e-07
-8.42364e-07
2.19322e-07
1.02648e-07
-1.5237e-06
-2.99545e-07
6.83426e-07
-2.55858e-06
6.96601e-07
-2.89131e-06
2.83626e-07
-6.94608e-07
-5.06619e-07
2.49985e-07
-5.23211e-07
-4.91748e-07
2.8569e-07
-4.52552e-07
-5.76861e-07
5.62382e-07
-5.02247e-07
-7.37562e-07
9.87493e-07
-4.59351e-07
-8.09458e-07
1.28285e-06
-1.66751e-07
-1.02914e-06
9.52169e-07
2.07808e-07
-1.68587e-06
2.00675e-07
1.04894e-07
-2.79501e-06
-1.71713e-07
-3.07329e-07
-4.0413e-06
-8.07082e-07
-4.57465e-06
5.46633e-07
-1.75293e-06
-1.22627e-06
8.36795e-07
-1.51966e-06
-1.20729e-06
1.16197e-06
-1.47661e-06
-1.36391e-06
1.60145e-06
-1.55934e-06
-1.60114e-06
1.85624e-06
-1.28985e-06
-2.02459e-06
1.70233e-06
-5.76782e-07
-2.72982e-06
1.16808e-06
-4.63504e-07
-3.43396e-06
8.87779e-08
-1.97321e-07
-4.82586e-06
-3.53078e-07
-1.64854e-06
-6.77597e-06
-3.75849e-06
-6.81337e-06
5.62852e-07
-4.45286e-06
-1.54934e-06
1.26628e-06
-4.48039e-06
-1.75313e-06
2.44574e-06
-4.6231e-06
-2.36972e-06
3.62751e-06
-4.86728e-06
-3.53254e-06
5.09095e-06
-4.73636e-06
-5.71298e-06
3.41869e-06
2.5921e-06
-7.27655e-06
2.61565e-06
1.4649e-06
-4.79398e-06
8.70978e-07
8.99619e-07
-2.18099e-06
-5.18777e-07
-1.07788e-06
-5.01589e-07
-2.75051e-06
-6.49411e-07
-1.96042e-07
-4.75734e-06
-5.75747e-06
1.08113e-06
-4.52577e-06
-5.76578e-06
1.56481e-06
-2.69584e-06
-5.88004e-06
-3.77008e-07
-7.52466e-07
-4.46331e-06
-1.53614e-06
-1.17944e-06
-2.35633e-06
8.17799e-07
1.45617e-06
-1.06625e-07
2.16604e-06
-5.46217e-07
2.63659e-06
2.38358e-06
-1.27903e-06
3.41653e-06
5.97606e-07
-1.80698e-06
3.85854e-06
-2.32433e-06
3.12497e-06
-4.45137e-06
-1.56673e-06
-2.99982e-06
-4.09332e-06
-9.55435e-07
-3.9317e-06
-3.13953e-06
1.14737e-06
-3.89279e-06
-2.20618e-06
2.57022e-06
-1.85995e-06
-1.63347e-07
5.13143e-07
2.08973e-07
2.54717e-06
-1.42473e-06
2.16931e-06
2.85325e-06
-2.16199e-06
1.84051e-06
3.03135e-06
-2.83161e-06
1.26946e-06
2.12396e-06
-2.78308e-06
1.51625e-06
-1.44016e-06
1.01953e-06
-3.92717e-06
2.52569e-06
-3.00342e-06
-3.77415e-06
2.48339e-06
-3.77878e-06
-2.87478e-06
2.96405e-06
-2.21989e-06
-7.15198e-07
2.87859e-06
-1.52597e-06
1.85653e-06
3.73343e-07
-1.57254e-06
2.55509e-06
-1.09491e-06
-8.93748e-07
1.95907e-06
-1.04079e-06
-9.56931e-07
1.51669e-06
-2.07237e-06
-1.78242e-07
4.91885e-07
-1.07418e-06
-6.12988e-07
2.19154e-07
-1.98467e-06
-2.84691e-06
4.49386e-06
-1.46535e-06
-2.39815e-06
2.90981e-06
-1.43365e-06
-1.45381e-06
2.84516e-06
-1.94027e-07
9.65677e-07
6.19221e-07
1.18366e-06
1.85381e-06
-6.41799e-07
2.72721e-07
7.17238e-07
3.79099e-07
-6.14434e-07
4.51877e-07
1.35406e-06
-8.39179e-07
-2.68879e-07
-5.91624e-07
2.37191e-06
-1.45531e-06
3.88529e-07
-2.65963e-07
-6.29811e-07
-2.13739e-06
-1.52729e-06
4.47141e-06
-1.21699e-06
-1.2643e-06
2.78957e-06
6.4454e-08
-4.36939e-07
1.05205e-06
2.83396e-06
4.64616e-07
-1.75139e-06
1.42459e-06
-8.29009e-07
7.63523e-07
-1.97855e-06
-1.67067e-06
3.0048e-06
-2.40832e-06
1.54232e-07
2.22154e-06
2.09621e-06
4.90219e-07
1.60097e-07
5.85671e-06
-5.43593e-07
2.43386e-06
1.65093e-06
-2.35495e-07
-8.95403e-07
-7.48595e-07
3.61141e-06
-1.34067e-06
-9.09143e-07
2.13031e-06
2.19494e-06
-1.85883e-06
9.50178e-08
2.62484e-06
-3.40479e-06
-1.12328e-07
-3.30905e-06
-3.20925e-06
1.51868e-06
-1.64487e-06
-1.53776e-06
1.59314e-06
2.60894e-06
6.92275e-07
2.04391e-08
5.38032e-06
1.73194e-06
2.52197e-08
7.18997e-06
1.14826e-06
4.90742e-06
3.85135e-06
2.35664e-06
1.42303e-06
-4.19282e-07
3.00578e-06
-1.12266e-06
-1.98148e-06
2.24474e-06
3.03417e-06
-4.60981e-06
1.37522e-06
-4.261e-07
-5.92917e-06
1.31761e-06
-1.01305e-06
-5.28058e-06
9.60042e-08
3.01842e-06
-4.07323e-06
-9.32574e-07
4.16755e-06
-2.7725e-06
-1.81512e-06
4.41206e-06
-1.18391e-06
-2.71836e-07
5.0499e-06
1.90076e-07
4.90898e-06
4.85844e-06
3.25273e-06
3.12614e-06
-3.34611e-08
3.77273e-06
-1.66611e-07
-4.0609e-06
3.84202e-06
2.67534e-06
-8.18656e-06
4.76815e-06
-2.09033e-06
-9.94072e-06
3.43943e-06
-2.24012e-06
-1.09959e-05
4.81833e-07
-4.128e-07
-1.12024e-05
-1.91272e-06
-7.72941e-08
-9.32274e-06
-4.21975e-06
5.77814e-07
-5.55955e-06
-3.63905e-06
2.90371e-06
-1.8824e-06
1.13609e-06
5.7254e-06
1.26326e-06
3.76246e-06
3.49402e-07
4.41096e-06
2.72633e-06
-4.76317e-06
5.96739e-06
2.19624e-06
-8.50541e-06
7.63348e-06
-3.89142e-06
-1.02556e-05
6.08789e-06
-7.73293e-06
-1.09581e-05
2.64425e-06
-9.72141e-06
-1.08949e-05
-1.38358e-06
-9.71104e-06
-9.1035e-06
-5.52395e-06
-9.68561e-06
-4.93617e-06
-5.6115e-06
-7.70558e-06
-1.78841e-06
1.02684e-06
-1.0943e-06
9.98682e-07
5.2713e-07
-9.0053e-07
4.74067e-06
5.0527e-06
-4.64425e-06
7.07609e-06
1.32837e-06
-6.54498e-06
8.4428e-06
-4.5288e-06
-7.49143e-06
7.36323e-06
-9.97198e-06
-8.06961e-06
4.13202e-06
-1.39623e-05
-7.97931e-06
-3.61852e-07
-1.60269e-05
-5.93319e-06
-6.86157e-06
-1.52779e-05
-2.735e-06
-8.26058e-06
-1.25217e-05
-7.50548e-07
2.69063e-06
-1.06471e-05
3.89822e-06
-4.60405e-06
-3.04101e-06
4.85577e-06
4.58275e-06
-3.96205e-06
1.29535e-07
6.63399e-06
-3.3854e-06
-4.42116e-06
7.41583e-06
-2.18344e-06
-9.64492e-06
7.00786e-06
-1.6146e-06
-1.35262e-05
4.78203e-06
-2.60594e-06
-1.55498e-05
2.06485e-06
-3.65719e-06
-1.31942e-05
-5.44312e-06
-3.13228e-06
-9.27352e-06
-9.2892e-06
-9.26526e-07
-1.03657e-05
1.16963e-06
-6.41956e-06
6.2629e-06
5.58639e-09
-2.25649e-08
-1.56384e-08
1.13876e-08
-2.71722e-08
-3.65266e-08
8.73058e-09
-1.55851e-08
-7.78663e-08
-2.39767e-09
-5.97185e-09
-1.18673e-07
-1.82974e-08
4.34496e-10
-1.53428e-07
-2.55099e-08