/*--------------------------------*- C++ -*----------------------------------*\
| =========                 |                                                 |
| \\      /  F ield         | OpenFOAM: The Open Source CFD Toolbox           |
|  \\    /   O peration     | Version:  2312                                  |
|   \\  /    A nd           | Website:  www.openfoam.com                      |
|    \\/     M anipulation  |                                                 |
\*---------------------------------------------------------------------------*/
FoamFile
{
    version     2.0;
    format      ascii;
    arch        "LSB;label=32;scalar=64";
    class       volScalarField;
    location    "0.61";
    object      alpha.water;
}
// * * * * * * * * * * * * * * * * * * * * * * * * * * * * * * * * * * * * * //

dimensions      [0 0 0 0 0 0 0];

internalField   nonuniform List<scalar> 
8000
(
1
1
1
1
1
1
1
1
1
1
1
1
1
1
1
1
1
1
1
1
1
1
1
1
1
1
1
1
1
1
1
1
1
1
1
1
1
1
1
1
0.999985
0.999973
0.999998
1
1
1
1
1
1
1
0.972412
0.951738
0.996297
0.999985
0.999999
1
1
1
1
1
0.332451
0.271129
0.525761
0.807032
0.950903
0.997317
0.999999
1
1
1
2.14694e-07
2.48946e-07
3.82218e-07
0.0625953
0.232987
0.497003
0.747846
0.894673
0.956719
0.963925
2.13594e-07
2.12979e-07
2.08222e-07
2.71494e-07
1.2927e-06
3.16011e-05
0.0339254
0.161751
0.46843
0.801759
2.12544e-07
2.08222e-07
2.03032e-07
2.08222e-07
2.71493e-07
2.42276e-06
3.42104e-05
0.00549246
0.0777869
0.240344
2.14502e-07
2.25963e-07
2.01585e-07
2.03032e-07
2.1181e-07
4.08489e-07
5.59859e-05
0.00060488
0.00139397
0.000914006
1.33933e-05
1.50059e-06
1.98764e-07
1.99745e-07
2.06756e-07
1.24907e-06
3.13748e-05
2.65792e-05
2.81063e-05
0.000188044
8.87474e-05
1.17174e-05
1.99745e-07
2.02406e-07
2.10793e-07
2.42749e-06
7.12125e-06
3.17341e-06
4.012e-06
2.0637e-05
0.00015198
2.12096e-05
2.02406e-07
5.05262e-07
7.80054e-07
9.0583e-07
9.61967e-07
1.46077e-06
2.05852e-06
1.29077e-06
0.000127982
5.3528e-05
1.86875e-06
6.98286e-07
3.86812e-06
1.65464e-06
1.40693e-06
1.77721e-06
2.29153e-06
3.41278e-06
5.86689e-05
6.28621e-05
3.35251e-05
5.92965e-07
7.87067e-06
3.73204e-05
3.49967e-05
3.94256e-05
3.20754e-05
2.76538e-05
2.40026e-05
6.28582e-05
3.30383e-05
7.872e-07
3.40643e-06
3.21582e-05
3.5087e-05
2.41981e-05
4.01464e-05
4.00792e-05
3.47048e-06
5.50309e-05
8.7662e-06
4.84124e-06
2.58229e-05
1.07809e-06
8.38094e-06
1.06553e-06
1.89548e-05
3.29992e-05
5.75026e-07
5.44714e-06
6.02052e-07
6.7372e-06
3.09215e-05
2.08146e-09
7.4738e-09
4.07244e-09
6.17947e-08
2.18231e-06
4.6334e-07
3.65717e-07
8.20261e-07
1.30289e-06
2.46219e-05
1.95315e-10
3.14315e-10
1.62474e-10
1.12192e-09
3.36977e-09
1
1
1
1
1
1
1
1
1
1
1
1
1
1
1
1
1
1
1
1
1
1
1
1
1
1
1
1
1
1
1
0.999997
1
1
1
1
1
1
1
1
0.999968
0.999852
0.999974
0.999998
1
1
1
1
1
1
0.945054
0.870057
0.967191
0.999913
0.999993
1
1
1
1
1
0.257133
0.170483
0.398593
0.722128
0.930801
0.996225
0.999999
1
1
1
2.65869e-07
4.87768e-06
2.24543e-05
0.0452435
0.202858
0.480514
0.803914
0.955035
0.98502
0.980986
2.14694e-07
2.48912e-07
3.45859e-07
2.13194e-07
2.77091e-07
3.72733e-06
0.0260477
0.162218
0.485441
0.827111
2.13594e-07
2.08002e-07
1.99933e-07
2.08454e-07
2.13226e-07
2.77092e-07
3.7264e-06
0.000112402
0.0465824
0.218775
2.32614e-07
5.52135e-07
1.98764e-07
1.99957e-07
2.09584e-07
7.81755e-06
4.71325e-05
4.2474e-05
0.00067574
0.000269424
9.77182e-07
1.25636e-06
1.97317e-07
1.98489e-07
2.17403e-07
1.28113e-05
4.2737e-05
8.7149e-06
5.69329e-06
1.52396e-05
7.52513e-05
2.4078e-07
2.82023e-07
7.05402e-07
2.99549e-07
3.44789e-06
9.61874e-06
5.50008e-06
1.0083e-06
4.48805e-07
0.000196997
2.42407e-07
2.65778e-07
4.13992e-06
5.27477e-06
7.1146e-06
2.59053e-05
3.0607e-05
1.59417e-06
3.45079e-07
0.000198539
1.61363e-05
2.6914e-07
1.03275e-06
2.44355e-05
3.91447e-05
3.95364e-05
3.98623e-05
2.8413e-05
6.85065e-06
0.00018173
1.29189e-05
3.13723e-07
3.77163e-07
2.57318e-05
3.8964e-05
2.34336e-05
3.98409e-05
4.01522e-05
4.00028e-05
0.000176942
8.08303e-07
1.43812e-06
1.98116e-05
3.3886e-05
8.26941e-06
2.33637e-06
2.19422e-05
4.00862e-05
4.01462e-05
0.000159595
4.32216e-07
8.43902e-07
2.13565e-05
3.3944e-05
2.48549e-06
7.87738e-08
1.00418e-06
1.83776e-05
2.51192e-05
9.38575e-05
3.58327e-07
4.32216e-07
1.04436e-05
3.39327e-05
3.02893e-06
2.22547e-10
2.03382e-09
2.97353e-08
4.56557e-07
9.80428e-05
2.47922e-07
2.05449e-05
8.14777e-06
2.29679e-05
2.648e-06
1.03886e-11
8.13787e-11
7.85395e-10
1.67678e-09
1
1
1
1
1
1
1
1
1
1
1
1
1
1
1
1
1
1
1
1
1
1
1
1
1
1
1
1
1
1
1
1
1
1
1
1
1
1
1
1
0.999998
0.999973
0.999994
0.999999
1
1
1
1
1
1
0.995259
0.96573
0.994382
0.999965
0.999997
1
1
1
1
1
0.514909
0.392703
0.569503
0.823371
0.964038
0.999376
1
1
1
1
4.44299e-07
3.71803e-05
0.0286056
0.124033
0.298329
0.586835
0.853932
0.964103
0.990823
1
2.24289e-07
3.52107e-07
2.13237e-07
2.17414e-07
6.29203e-07
1.82724e-05
0.0584674
0.231493
0.546925
0.815517
2.17863e-07
2.13218e-07
2.08879e-07
2.12727e-07
2.17414e-07
6.29122e-07
1.82711e-05
0.000916653
0.055176
0.161643
2.16832e-07
2.10063e-07
2.05386e-07
2.06975e-07
2.69404e-07
4.69062e-05
0.000100261
2.88665e-05
0.000323498
0.000124875
2.26136e-07
2.17448e-07
1.83145e-07
2.09842e-07
1.57372e-05
4.34258e-05
2.54422e-05
6.22568e-06
2.78292e-05
1.28706e-05
2.24035e-07
2.76043e-07
1.82321e-07
7.62297e-07
1.49581e-06
3.74422e-06
9.59389e-06
8.06326e-06
6.38749e-07
3.42633e-07
4.29936e-05
2.4078e-07
5.61884e-07
1.92194e-06
1.51923e-06
1.54268e-06
1.34871e-05
3.15991e-05
1.41159e-05
4.20606e-07
0.000197469
2.97077e-05
2.82509e-07
4.16723e-06
1.76978e-05
1.42028e-05
7.97856e-06
1.82017e-05
2.29925e-05
6.79087e-06
0.000200224
0.000110338
2.1679e-07
3.35362e-06
2.83458e-05
2.72503e-05
6.85228e-07
8.27352e-06
2.14523e-05
8.69407e-06
9.55928e-05
8.24968e-05
8.29497e-06
1.44758e-08
2.84298e-05
2.6157e-05
3.70014e-09
4.95364e-06
1.48791e-05
7.84031e-06
5.48477e-05
2.16075e-05
7.51836e-07
3.41674e-08
1.73867e-05
2.54478e-05
2.22547e-10
3.40943e-07
2.59175e-06
2.53099e-06
3.30929e-05
1.56286e-06
2.29662e-06
1.10441e-05
2.69323e-05
3.0751e-05
1.04675e-11
2.20766e-10
8.35779e-10
6.92718e-08
3.35444e-05
1.56977e-09
0.000102707
0.00019015
6.82534e-05
3.77568e-05
7.24963e-13
8.67416e-12
9.2476e-11
1.61796e-09
1
1
1
1
1
1
1
1
1
1
1
1
1
1
1
1
1
1
1
1
1
1
1
1
1
1
1
1
1
1
1
1
1
1
1
1
1
1
1
1
1
0.999998
0.999999
1
1
1
1
1
1
1
0.999985
0.999913
0.999966
0.999994
1
1
1
1
1
1
0.809553
0.719962
0.823375
0.938979
0.99242
0.999997
1
1
1
1
0.0632441
0.0435329
0.123981
0.244969
0.445187
0.701853
0.889595
0.989019
1
1
2.41743e-07
2.36941e-07
2.23798e-07
2.29979e-07
1.44783e-06
0.00973161
0.0922289
0.269536
0.55715
0.783106
2.27459e-07
2.25763e-07
2.13245e-07
2.17414e-07
2.29979e-07
1.44765e-06
4.64885e-05
0.00247675
0.0462249
0.111783
1.09779e-06
5.17663e-07
1.83308e-06
4.23426e-06
1.70988e-06
1.97315e-05
0.000142457
3.96582e-06
0.000244691
0.00012811
3.92507e-06
2.59042e-06
1.51143e-07
1.97889e-06
9.24939e-06
1.13803e-05
5.29729e-06
2.15433e-06
0.000170271
0.000190839
2.45051e-07
1.56635e-07
1.36338e-07
6.68475e-07
6.0077e-06
7.26439e-06
1.55554e-06
1.05169e-06
2.45488e-07
4.52241e-08
1.02635e-07
8.15071e-07
1.22323e-07
5.4377e-08
2.19048e-06
1.63084e-05
1.82955e-05
2.8636e-06
3.89047e-06
4.12209e-08
9.39456e-08
8.28918e-08
3.55966e-07
4.06535e-08
3.05528e-08
4.46853e-06
2.32735e-05
4.34655e-06
5.10104e-06
1.27765e-07
1.09242e-06
5.31314e-09
7.96485e-08
1.44758e-08
1.70453e-07
4.07874e-08
1.14763e-05
9.74516e-06
9.65582e-08
4.09792e-08
4.85635e-08
3.12954e-09
5.31314e-09
9.30428e-09
6.0614e-07
8.872e-08
1.03503e-06
1.25824e-06
2.29636e-08
1.20016e-08
1.32995e-09
2.33979e-09
3.12954e-09
1.04846e-08
2.76959e-07
7.07999e-07
4.61635e-10
2.89324e-10
1.01882e-09
2.05106e-09
1.11712e-09
1.32995e-09
2.99163e-05
3.48123e-05
3.85296e-07
1.73891e-06
1.71607e-11
3.67692e-11
2.89324e-10
1.01882e-09
1.11712e-09
1.11384e-09
2.19535e-05
0.00015191
2.99124e-09
3.38541e-06
2.88816e-12
2.30667e-11
1.37695e-10
1.25672e-09
1
1
1
1
1
1
1
1
1
1
1
1
1
1
1
1
1
1
1
1
1
1
1
1
1
1
1
1
1
1
1
1
1
1
1
1
1
1
0.999998
0.999995
1
1
1
1
1
1
1
1
1
1
0.999999
0.999993
0.999997
1
1
1
1
1
1
1
0.955608
0.932988
0.965096
0.992545
0.999966
1
1
1
1
1
0.244206
0.206932
0.299599
0.444705
0.636113
0.799433
0.929502
1
1
1
2.87589e-07
3.3665e-07
3.45014e-07
5.28633e-07
4.55681e-06
0.040152
0.133552
0.335004
0.590885
0.735669
2.41743e-07
2.36941e-07
2.23798e-07
2.29979e-07
5.28633e-07
4.55632e-06
0.000160407
0.00917017
0.0716548
0.126534
7.61518e-06
7.35305e-06
4.18104e-06
7.44179e-06
2.38017e-05
1.02862e-05
0.000779792
0.00373768
0.000126727
3.91061e-05
7.99129e-06
4.21469e-06
1.74462e-07
1.92861e-07
3.23419e-06
9.64484e-06
7.56396e-05
6.38821e-06
3.49208e-05
5.02116e-06
3.42682e-06
4.5722e-07
3.34886e-07
1.55993e-07
1.616e-06
2.25015e-06
1.52333e-06
1.09587e-06
8.35994e-07
2.04359e-07
1.85509e-06
2.55405e-06
1.08849e-06
9.80089e-08
5.58238e-07
4.72684e-06
2.81872e-05
4.03147e-05
1.39826e-05
3.99583e-08
1.16867e-06
1.16543e-06
5.60333e-07
1.24841e-06
9.2104e-09
3.73282e-07
4.93143e-05
0.000127179
2.78983e-05
1.0856e-07
1.67688e-07
6.69683e-08
7.50478e-08
3.89029e-06
6.79805e-09
7.69202e-09
2.90899e-05
9.84772e-05
4.03762e-06
8.90097e-08
2.9453e-07
2.62423e-08
9.30428e-09
1.81559e-06
6.18416e-09
6.79804e-09
2.19765e-06
4.67938e-06
1.00237e-06
4.09792e-08
1.79049e-07
3.12954e-09
1.3895e-05
1.52169e-05
4.70327e-09
6.18294e-09
1.09236e-08
8.17437e-09
5.69163e-07
2.91821e-06
1.00073e-08
8.51394e-08
6.3967e-06
2.33796e-05
2.99124e-09
3.40557e-09
4.61616e-10
2.88998e-10
5.81631e-07
4.02472e-06
1.18061e-09
1.84044e-08
2.26025e-08
1.21714e-05
2.33814e-09
1.10624e-09
1.71578e-11
3.52757e-11
1.70862e-07
3.39108e-06
1
1
1
1
1
1
1
1
1
1
1
1
1
1
1
1
1
1
1
1
1
1
1
1
1
1
1
1
1
1
1
1
1
1
1
1
1
1
1
1
1
1
1
1
1
1
1
1
0.998194
0.986191
1
1
1
1
1
1
1
1
1
0.918417
0.998199
0.996952
0.999468
0.999997
1
1
1
1
1
0.955483
0.518928
0.49499
0.586649
0.701267
0.800241
0.881744
0.964327
1
1
0.999996
3.39364e-07
7.97474e-07
1.70078e-06
0.0077365
0.0391081
0.0894744
0.199185
0.427642
0.624352
0.658874
2.94017e-07
2.97309e-07
3.29882e-07
3.82894e-07
4.41909e-06
0.000179521
0.000603822
0.0169849
0.177833
0.344511
2.86558e-05
3.68624e-05
2.03149e-07
3.84598e-07
2.39498e-05
2.95522e-05
0.000316487
0.0156068
0.0170498
0.000383518
5.44663e-06
2.03149e-07
1.87596e-07
1.24813e-06
2.04768e-06
1.62492e-06
0.000115992
0.000554423
0.000126727
0.000229011
2.47444e-06
6.48141e-07
9.46038e-07
1.98078e-06
1.48196e-08
5.6745e-08
4.54869e-05
0.000941459
0.00147601
2.72953e-05
2.4553e-06
2.35651e-06
2.32747e-06
1.85434e-06
8.34635e-09
1.48195e-08
1.72174e-07
1.39871e-05
6.08763e-06
1.80563e-06
1.71329e-06
8.74698e-07
8.70133e-07
1.2697e-05
8.29268e-09
8.34634e-09
1.93244e-08
0.000329054
8.45168e-06
2.6576e-05
2.67036e-06
1.70811e-06
8.98927e-08
2.08138e-05
8.00832e-09
8.8609e-09
2.43537e-07
0.000133719
4.77509e-06
0.000227912
4.8441e-06
9.26317e-07
6.13528e-06
2.07911e-05
5.1478e-08
4.48497e-08
1.10118e-06
4.47306e-07
2.91526e-06
0.000288012
1.64006e-06
4.75372e-07
3.06668e-07
1.17388e-05
6.14114e-09
1.02232e-08
6.82517e-07
1.08541e-07
5.20124e-06
9.11095e-05
3.36062e-09
1.69563e-07
8.71521e-08
1.883e-07
5.35823e-09
2.3169e-08
5.80987e-07
2.08317e-06
6.08879e-07
1.71157e-05
2.53723e-09
2.52497e-09
1.90794e-08
2.49798e-08
2.51234e-08
2.11471e-07
1.10624e-09
2.57608e-09
8.33195e-07
4.15699e-05
1
1
1
1
1
1
1
1
1
1
1
1
1
1
1
1
0.999998
1
1
1
1
1
1
1
1
1
0.999995
0.999972
0.999997
1
1
1
1
1
1
1
0.999988
0.99999
1
1
1
1
1
1
1
1
0.999998
1
0.992472
0.961768
1
1
1
1
1
1
1
1
0.882609
0.764562
0.999999
0.999999
1
1
1
1
1
1
0.93658
0.762187
0.756415
0.806874
0.853365
0.891932
0.932466
0.967572
1
1
0.999693
0.790902
0.0336749
0.0250572
0.0526255
0.0874259
0.127418
0.192619
0.332749
0.598119
0.742752
0.885236
3.39364e-07
7.9767e-07
1.67443e-06
1.98714e-06
3.87813e-06
3.80384e-05
0.000832278
0.0342895
0.28826
0.816384
3.32388e-05
5.31329e-05
3.15829e-07
4.57804e-07
2.84617e-06
3.87831e-06
3.80407e-05
0.0140351
0.123532
0.152046
2.05621e-06
2.34762e-07
2.03117e-07
3.43257e-07
2.17539e-05
2.30308e-05
2.41149e-05
0.027671
0.120914
0.00171171
6.52935e-07
4.78625e-07
3.81649e-07
1.09365e-05
1.49866e-07
1.5799e-06
0.00584317
0.0206852
0.0148225
0.000118925
6.74316e-07
5.2838e-07
4.20506e-07
2.10396e-05
1.48196e-08
0.00049282
0.00478699
0.00835815
9.68091e-05
5.93264e-05
7.53695e-07
7.0605e-07
3.70303e-06
1.23328e-05
8.34635e-09
0.000229952
0.00133143
0.000318013
8.90761e-06
0.000222921
2.94461e-06
2.56368e-06
1.9761e-05
6.44535e-06
8.86219e-09
2.39411e-05
0.000178015
1.58217e-05
1.18205e-05
0.000201737
4.84144e-06
2.0385e-06
3.16989e-05
2.10127e-07
4.59671e-08
1.48601e-06
5.47523e-06
7.43355e-06
1.3187e-05
2.42769e-05
1.83303e-06
6.35719e-07
9.38003e-06
1.23435e-07
1.02098e-08
9.25971e-07
5.6986e-05
1.90816e-05
1.43716e-05
3.83907e-06
3.05777e-09
1.12132e-06
9.80724e-08
4.77908e-08
6.14089e-09
1.20027e-05
6.43408e-05
2.98535e-05
5.30706e-06
1.14766e-06
1.62917e-09
3.97389e-07
5.18543e-08
4.58887e-08
1.598e-08
1.28021e-05
4.02835e-05
1.37283e-05
6.3796e-07
1.51506e-05
1
1
1
1
1
1
1
1
1
1
1
1
1
1
1
1
1
0.99993
0.999966
1
1
1
1
1
1
1
0.999963
0.999904
0.999965
1
1
1
1
1
1
0.999999
0.999988
1
1
1
1
1
1
1
1
1
1
0.998213
0.969764
0.995595
1
1
1
1
1
1
1
0.97454
0.886263
0.994331
1
1
1
1
1
1
1
0.989107
0.850127
0.986221
0.886465
0.948592
0.96361
0.993006
1
1
1
0.984672
0.717095
0.945745
0.152761
0.146502
0.212936
0.258145
0.318908
0.417535
0.578235
0.693207
0.671648
0.906167
8.78183e-07
6.98543e-06
5.54887e-05
4.16243e-05
1.20088e-05
0.0017054
0.0322281
0.260414
0.676554
0.770931
3.37887e-06
4.6341e-06
2.35126e-06
7.33284e-07
2.61885e-06
1.20202e-05
0.000105255
0.0759125
0.669354
0.221901
1.53422e-06
5.18097e-07
3.03066e-07
6.27474e-07
0.000232821
0.000190424
0.000112281
0.178922
0.42974
0.00120428
7.19116e-07
6.11693e-06
4.65301e-07
7.95983e-07
0.000404991
0.000127189
0.038254
0.165132
0.0314737
3.69032e-05
2.406e-06
2.98827e-06
5.78197e-07
3.16e-05
7.65484e-05
0.000996186
0.0450848
0.0846579
0.000191741
7.17621e-05
8.12671e-07
9.32988e-07
2.01739e-06
0.000351616
1.3096e-06
0.00323343
0.0211945
0.00123685
1.6528e-05
8.43473e-05
1.46093e-06
1.89498e-06
5.55228e-05
0.00046503
1.35898e-07
0.00101667
0.0156231
3.1813e-05
4.8217e-06
8.75096e-05
1.95953e-06
1.53288e-06
0.000125298
0.000425959
1.48666e-06
0.00251368
0.00716939
4.82184e-06
1.71934e-06
9.99714e-07
2.0834e-07
1.17889e-06
0.000171989
0.000306903
7.91551e-06
0.000636715
0.000108263
1.85515e-06
9.9895e-07
9.99714e-07
1.63862e-08
6.55493e-06
0.00032078
1.27012e-05
4.75031e-08
6.37199e-05
6.4892e-05
6.91594e-06
1.09729e-05
1.10355e-06
3.05777e-09
3.71211e-06
0.000136144
3.66841e-07
5.32347e-08
5.86095e-06
9.76438e-05
9.50394e-05
3.04835e-05
1.12538e-06
1
1
1
1
1
1
1
1
1
1
1
1
1
1
1
1
0.999999
0.999972
0.999987
1
1
1
1
1
1
1
0.999998
0.999904
0.999973
1
1
1
1
1
1
1
1
1
1
1
1
1
1
1
1
0.999502
0.993949
0.971686
0.992889
1
1
1
1
1
1
1
0.902989
0.867539
0.922174
0.999483
1
1
1
1
1
1
0.957574
0.867515
0.942649
0.999507
0.960581
0.986151
0.995172
1
1
1
0.999983
0.898561
0.970745
0.99856
0.417979
0.453446
0.53747
0.555064
0.581383
0.666685
0.732861
0.884697
0.978514
0.848048
0.00805558
0.0184462
0.0374301
0.0274941
0.0244857
0.0487257
0.226465
0.827259
0.842801
0.288935
8.57867e-06
4.63519e-05
5.35177e-05
2.19721e-05
1.18666e-05
0.000105238
0.0899363
0.630264
0.265247
0.00259865
2.27815e-06
4.61956e-06
2.35075e-06
8.86988e-07
1.71516e-05
3.15427e-05
0.0723641
0.492792
0.00333261
0.000383261
9.59643e-07
9.18708e-06
9.06036e-07
2.8749e-06
3.22695e-06
1.20097e-05
0.0917294
0.338216
0.000465227
0.000155044
6.77685e-06
9.42441e-06
1.40066e-06
2.71198e-06
5.30551e-06
0.0115419
0.106227
0.0707691
0.000170681
0.000195526
2.8637e-06
3.99879e-06
3.2536e-06
3.09347e-05
8.11613e-06
0.0392065
0.179998
0.000171276
4.16343e-05
0.000321667
6.86058e-06
4.18079e-06
5.0527e-05
3.19861e-05
0.0106528
0.122609
0.135032
3.73255e-05
1.0942e-05
0.000387519
8.00531e-06
2.14194e-06
1.21254e-05
0.000522059
0.0348374
0.0767811
0.0160761
1.09432e-05
4.82184e-06
7.3827e-05
2.18354e-06
1.53288e-06
0.000159807
0.00961962
0.0180295
0.00282578
0.000145883
0.000174586
0.000274709
9.99714e-07
3.0364e-07
3.39103e-06
0.00171836
0.00702223
0.000833509
5.04394e-05
5.50426e-05
0.000501304
0.000706845
1.12562e-06
1.63862e-08
9.90887e-06
0.00176656
0.00293414
1.55558e-07
3.91818e-06
2.0305e-05
0.000190572
0.000123821
1.5172e-06
1
1
1
1
1
1
1
1
1
0.974029
1
1
1
1
1
1
1
1
1
0.974802
1
1
1
1
1
1
1
0.99999
1
0.971459
1
1
1
1
1
1
1
1
1
0.971543
1
1
1
1
0.999832
1
0.969196
0.994776
1
0.980252
1
1
1
1
0.999999
0.91085
0.829463
0.976025
0.999353
0.999433
1
1
1
1
0.999928
0.911569
0.829463
0.950247
0.999507
0.99958
0.975764
0.985343
1
1
1
0.992179
0.924941
0.912631
0.999165
0.999507
0.763632
0.810541
0.818917
0.781867
0.763241
0.805826
0.886589
0.821289
0.998694
0.742452
0.135503
0.196431
0.185003
0.119523
0.0922457
0.156069
0.497338
0.752037
0.839322
0.120251
0.000195953
0.000338568
0.000332721
0.00016746
0.00783308
0.00203493
0.264466
0.541643
0.195529
0.00037684
2.90406e-05
6.20218e-05
3.3054e-05
5.44387e-06
2.61911e-05
0.0473855
0.191693
0.347143
0.000380616
0.000216585
4.56667e-06
1.51681e-05
3.95752e-06
3.22695e-06
0.0053669
0.021484
0.19726
0.251134
0.000272452
0.000591161
6.89754e-06
8.8531e-06
0.00148665
0.00260712
0.00202728
0.0196407
0.196315
0.0933783
0.000168495
0.000941749
0.000113197
0.00224624
0.00379562
0.00142366
2.30582e-05
0.0572144
0.184962
5.10286e-05
5.85777e-05
0.000969895
0.00133158
0.0021881
0.00179254
5.05274e-05
0.0128168
0.0996576
0.0597646
4.55894e-06
0.000265526
0.000174014
0.00184786
0.00054359
9.61417e-05
7.23198e-05
0.0392027
0.0779758
5.07672e-05
0.000354241
0.000853881
4.14836e-05
0.000793413
9.49952e-06
2.02545e-05
0.00741687
0.0372971
0.0178639
2.07724e-05
0.000879455
0.000885654
3.79621e-05
3.74691e-05
1.19153e-05
1.12898e-05
0.0108435
0.0328838
4.17955e-06
4.11096e-05
0.000879455
0.00038673
3.41103e-05
2.46676e-07
2.85999e-06
0.00217951
0.0167928
0.016484
1.03757e-05
7.48003e-06
0.000105046
1.68547e-05
8.39778e-05
1
1
1
1
1
1
1
1
1
0.979018
1
1
1
1
1
1
1
1
1
0.982575
1
1
1
1
1
1
1
0.999993
1
0.970913
1
1
1
1
1
1
1
1
1
0.97433
1
1
1
1
1
1
1
0.998075
0.999557
0.99572
1
1
1
1
0.98581
0.911386
0.91051
0.985201
0.999624
0.99976
1
1
1
1
0.996577
0.912079
0.829509
0.988954
0.99947
0.999608
0.959722
0.979356
0.998781
1
0.999999
0.995972
0.8321
0.929385
0.982747
0.94463
0.818389
0.832653
0.832603
0.798682
0.796306
0.75489
0.884943
0.838577
0.923425
0.764515
0.236312
0.241762
0.197629
0.129714
0.104273
0.210157
0.873376
0.793935
0.596425
0.149572
0.000526465
0.000510012
0.00143709
0.00805327
0.127798
0.489799
0.83834
0.383029
0.0426888
0.0163332
0.000107783
0.000207797
0.000796265
0.00143197
0.144172
0.310281
0.256596
0.0120247
0.00116443
0.00445832
1.64378e-05
7.40468e-05
0.000124048
0.03408
0.0616601
0.0051563
0.0136412
0.0139212
0.00182016
0.000375504
8.8531e-06
1.78735e-05
0.0109803
0.0202329
8.01118e-07
0.00138532
0.00920773
0.0109551
0.00117759
0.000531612
0.000426142
0.00633574
0.0109998
0.00135878
9.5076e-07
0.000238846
0.00405097
0.000239472
4.83402e-05
3.66489e-05
0.00522924
0.00652114
0.00403614
4.70729e-06
3.54172e-06
9.72699e-06
0.000374559
2.35493e-06
3.24883e-05
3.02701e-05
0.00517899
0.00345759
8.47726e-06
4.66322e-06
3.25184e-06
4.66322e-06
1.03055e-05
0.000218651
0.000222049
1.67045e-05
0.00389682
1.85562e-05
5.18165e-06
1.99179e-05
2.74762e-06
3.25176e-06
1.375e-05
0.000486495
0.000259579
1.95213e-05
0.00043234
1.03836e-05
6.77138e-06
0.000190305
2.22055e-06
2.76477e-06
0.000129364
0.000377586
8.00563e-06
1.35672e-05
1.22069e-06
4.33734e-06
0.000166158
0.000690541
0.000532732
5.55884e-06
4.1422e-05
3.44605e-05
7.1766e-06
1.67043e-05
1
1
1
1
1
1
1
1
1
1
1
1
1
1
1
1
0.999999
0.999984
0.999994
1
1
1
1
1
1
1
0.999999
0.999917
0.999962
1
1
1
1
1
1
1
0.999995
0.999987
1
1
1
1
1
1
0.999994
0.999999
1
1
0.999461
0.999832
1
1
1
1
0.999986
1
0.987661
0.941453
0.991811
0.999824
1
1
1
1
0.999985
1
0.993247
0.920257
0.950064
0.98027
0.954929
0.986928
0.991754
1
0.999998
1
0.963091
0.942883
0.944451
0.949373
0.508873
0.476806
0.551191
0.598664
0.541086
0.5194
0.660342
0.936781
0.932146
0.949247
0.0550236
0.0274224
0.0351936
0.0345045
0.170611
0.642383
0.736834
0.47561
0.45522
0.390562
0.000139269
0.00067299
0.049742
0.102429
0.102407
0.0811282
0.0656163
0.0322479
0.0048524
0.00357164
0.000217958
0.00951878
0.01561
2.43668e-05
1.6476e-06
5.99653e-06
0.00987562
9.51128e-05
1.09945e-05
0.000198539
0.000283703
0.0102989
0.0136246
1.6476e-06
6.2751e-07
3.39942e-07
7.80069e-06
3.07196e-07
3.63645e-06
7.69611e-07
0.000239192
0.00626577
0.00408748
8.01089e-07
5.44145e-07
3.70535e-07
3.01496e-05
5.0411e-07
1.11602e-06
2.3468e-06
0.00202233
0.00291291
1.96561e-06
9.5076e-07
8.76676e-07
6.93787e-07
1.02039e-06
1.44412e-06
1.35918e-06
7.54513e-05
0.00517899
0.00325315
4.70729e-06
1.96561e-06
9.5076e-07
6.58855e-06
1.42303e-06
1.64331e-06
2.20796e-06
9.7528e-05
0.005
0.00260535
4.61735e-06
3.38995e-06
4.62868e-06
3.41591e-05
6.88098e-06
6.14435e-05
5.14668e-06
1.60347e-05
0.0047384
0.00028741
3.77523e-06
3.26932e-06
7.4642e-06
1.48724e-05
8.91082e-06
0.000170984
7.39054e-06
4.07783e-05
0.00178679
3.96785e-06
3.57816e-06
1.18846e-06
2.03091e-06
2.22054e-06
5.3514e-05
4.94054e-05
7.17362e-06
4.81568e-05
3.93134e-06
5.19723e-06
1.18498e-07
8.41512e-08
4.25314e-07
0.00022868
0.000756267
2.01411e-06
6.31128e-06
7.1766e-06
1
1
1
1
1
1
1
1
1
1
1
1
1
1
1
1
1
0.999939
0.999981
1
1
1
1
1
1
1
0.999956
0.999917
0.999957
0.999998
1
1
1
1
1
1
0.999975
0.999954
0.999986
1
1
1
1
1
1
1
0.999999
1
1
1
1
1
1
1
1
1
1
1
0.9742
0.914594
1
1
1
1
1
1
1
1
0.895869
0.817531
0.898343
0.951434
0.963119
0.985623
1
1
1
1
0.938779
0.948828
0.173315
0.149168
0.208466
0.272421
0.36598
0.490871
0.641261
0.687794
0.743245
0.924467
0.000493772
0.000103812
0.000431212
0.00711955
0.0538619
0.130177
0.165946
0.155722
0.208374
0.32622
1.7297e-05
0.000157879
0.0199442
0.0521033
0.0456544
0.00472272
0.000137046
9.58024e-05
2.5806e-05
1.85781e-05
0.000154143
0.00153761
0.00173123
5.21943e-06
2.54023e-06
3.39985e-07
3.50709e-07
4.27021e-07
1.60277e-06
7.68237e-07
0.000208795
0.0027786
0.00172712
1.12169e-06
1.67102e-06
3.39941e-07
3.39812e-07
3.50306e-07
7.50021e-07
3.05138e-07
2.43513e-05
0.00216982
0.00184281
5.44145e-07
3.70536e-07
3.39986e-07
3.50972e-07
4.41782e-07
5.7428e-07
2.29917e-07
0.00148661
0.000779405
0.000654052
6.51511e-06
5.44145e-07
3.70537e-07
1.05619e-05
1.25112e-06
1.00399e-06
4.24701e-07
0.00485495
0.00218406
0.000400897
3.32888e-05
8.97686e-05
0.000184572
9.7958e-06
7.2052e-06
3.02521e-06
1.14053e-06
0.00478772
0.00453681
0.000286966
8.59512e-05
0.000194959
0.000185509
2.01479e-05
0.000129927
2.8014e-05
9.866e-05
0.00466773
0.00106494
0.000235352
0.000103022
6.33898e-05
3.68221e-05
9.82666e-06
0.000250824
3.47023e-05
0.00023117
0.0010846
3.50279e-06
1.1547e-05
1.84315e-05
8.0569e-07
1.84195e-06
0.000723408
0.000147516
1.74821e-05
0.000235918
2.03548e-06
2.21739e-06
3.47944e-08
8.32157e-09
8.41512e-08
0.000288688
0.000884225
0.000102499
1.14007e-05
0.000158873
1
1
1
1
1
1
1
1
1
1
1
1
1
1
1
1
0.999998
1
1
1
1
1
1
1
1
1
0.999998
0.999972
0.999998
1
1
1
1
1
1
1
0.999993
0.99999
0.999999
0.999545
1
1
1
1
1
1
0.999998
1
1
0.956225
1
1
1
1
1
1
1
1
1
0.805588
0.999999
0.999999
1
1
1
1
1
1
1
0.881802
0.75195
0.785426
0.842746
0.884986
0.93225
0.973768
1
1
1
0.999536
0.0329563
0.0219922
0.048008
0.0892357
0.159951
0.273963
0.427581
0.598015
0.726911
0.808341
5.54245e-06
4.43145e-06
4.30421e-05
0.000221566
0.000907679
0.000202676
0.0320996
0.0927078
0.124325
0.125712
1.1432e-06
0.000160997
0.000904841
0.000297825
0.000161964
7.29532e-07
1.11156e-06
6.96018e-06
3.06737e-06
1.84126e-06
1.35636e-05
7.07732e-06
0.000414542
0.000772827
0.00030994
3.4816e-07
3.94492e-07
4.94536e-07
7.80241e-07
1.27055e-06
4.78699e-05
3.18781e-06
7.88843e-07
2.65985e-05
1.26814e-05
3.39979e-07
3.48168e-07
7.09977e-07
1.46035e-05
8.12415e-06
1.85895e-05
3.11303e-06
3.67638e-07
5.80745e-07
4.39136e-07
3.25015e-07
1.08704e-06
2.59171e-06
1.27009e-05
6.69146e-06
0.000385687
3.56938e-05
9.57993e-07
9.91317e-07
8.49993e-07
3.10781e-05
2.2521e-05
1.24161e-06
1.35918e-06
1.14368e-06
0.00282174
0.000572828
1.41647e-05
6.23366e-05
0.000177337
0.000192518
4.66136e-05
2.24982e-05
2.49613e-06
1.67247e-05
0.00391417
0.000808584
0.000343821
0.000343639
0.000342541
0.000135921
1.40414e-05
0.000100385
4.87488e-05
0.000245702
0.00190143
0.000372197
8.74081e-05
6.46395e-05
6.19461e-06
1.72945e-08
9.42161e-06
0.00014742
9.86126e-05
0.000304228
8.94763e-05
1.54037e-05
1.82274e-08
8.03866e-09
6.42998e-09
2.82803e-06
0.000165742
5.66733e-05
0.000127881
0.000306851
2.63629e-07
1.93944e-07
1.10423e-08
4.87974e-09
1.11999e-07
1.47445e-05
0.000199552
1.70677e-05
0.00013439
0.000306747
1
1
1
1
1
1
1
1
1
1
1
1
1
1
1
1
1
1
1
1
1
1
1
1
1
1
1
1
1
1
1
1
1
1
1
1
1
1
0.999995
1
1
1
1
1
1
1
1
1
1
0.90392
1
1
1
1
1
1
1
1
1
0.965292
0.997167
0.994677
0.998809
0.999997
1
1
1
1
1
0.999738
0.493187
0.456539
0.555857
0.673697
0.784491
0.884057
0.975659
1
1
1
5.54246e-06
4.43145e-06
4.21667e-05
0.00458618
0.0441266
0.118305
0.27468
0.49549
0.728359
0.815181
2.76686e-07
2.55433e-07
2.68771e-06
2.59745e-05
0.000112933
0.000115404
0.0107424
0.0552156
0.0850226
0.0703068
1.85394e-07
1.30028e-06
3.11516e-07
2.87276e-06
3.94173e-06
3.64934e-07
4.82842e-07
5.39643e-07
7.21672e-07
1.26991e-06
1.34345e-06
9.36567e-07
3.29303e-06
2.594e-05
4.13791e-07
3.57012e-07
4.13937e-07
4.99331e-07
5.41519e-07
7.33475e-07
3.92246e-06
4.29452e-07
3.79346e-07
2.19693e-06
3.57264e-07
3.08504e-07
3.5722e-07
5.32331e-06
1.10506e-05
1.82404e-05
2.35392e-05
3.83003e-07
2.1347e-07
3.78021e-07
4.38428e-07
3.58538e-07
5.62628e-07
5.39116e-06
1.93022e-05
1.89736e-05
1.41619e-06
1.10545e-06
7.00411e-07
7.53739e-07
6.16001e-06
3.9586e-05
7.46382e-07
1.04829e-06
1.25836e-05
1.04218e-05
7.57563e-05
9.02516e-06
4.99228e-07
1.57845e-05
1.79082e-05
6.49466e-05
3.29649e-06
8.8987e-08
4.65728e-07
4.08916e-06
0.000246041
4.93046e-06
1.68481e-07
5.4081e-05
4.79184e-05
1.59406e-05
6.70513e-08
6.49891e-08
2.80968e-06
3.14181e-05
1.09232e-05
6.77128e-06
2.1959e-07
7.42927e-06
6.42998e-09
1.05398e-08
9.95101e-08
3.36641e-08
6.81583e-06
8.58746e-05
3.82621e-07
3.28677e-06
2.52911e-07
4.87974e-09
5.65034e-09
5.68108e-08
1.3991e-09
1.04047e-09
1.2739e-05
9.23838e-05
2.67099e-08
1.26324e-07
7.83272e-09
4.87974e-09
4.28136e-09
1.93083e-09
1.06306e-08
3.92589e-09
1.8246e-05
3.31458e-05
1
1
1
1
1
1
1
1
1
1
1
1
1
1
1
1
1
1
1
1
1
1
1
1
1
1
1
1
1
1
1
1
1
1
1
1
1
1
0.999991
0.999891
1
1
1
1
1
1
1
1
0.999998
0.999255
0.999998
0.999991
0.999996
0.999999
1
1
1
1
1
0.999975
0.949109
0.919445
0.955614
0.988276
0.999656
1
1
1
1
1
0.227929
0.183302
0.267896
0.400885
0.586717
0.776409
0.927649
1
1
0.999999
2.76686e-07
2.55433e-07
2.68771e-06
2.59775e-05
0.000113089
0.0460189
0.17068
0.413638
0.68641
0.814706
1.48544e-07
1.49666e-07
2.46333e-07
2.08216e-06
4.13823e-06
7.31128e-07
0.00130115
0.0218108
0.0662422
0.0848914
1.46082e-07
3.48878e-07
1.75265e-07
2.11097e-07
4.40742e-07
5.87922e-07
6.863e-07
7.84017e-07
9.70506e-07
1.64221e-06
1.754e-06
8.67281e-07
1.76943e-07
2.49896e-07
5.60448e-07
3.67593e-07
2.75038e-06
5.41516e-07
8.71131e-07
9.68852e-07
2.66553e-06
1.97233e-07
2.02433e-07
2.15307e-07
8.77159e-07
2.18269e-07
6.38104e-06
1.63154e-05
9.71831e-07
1.63619e-06
3.73797e-06
1.98099e-07
2.06417e-07
2.13474e-07
2.18269e-07
1.76593e-07
4.86822e-06
4.82288e-05
1.93411e-05
1.05262e-05
2.50169e-07
5.40279e-07
2.69492e-05
1.82753e-05
9.62079e-07
1.44256e-07
3.24741e-07
4.85632e-05
5.54304e-05
1.61348e-05
7.17581e-07
7.106e-07
1.63166e-05
6.79395e-05
5.76049e-06
7.33358e-08
4.13802e-08
7.40797e-06
2.83551e-05
2.42902e-05
1.22952e-06
5.16971e-07
3.02945e-08
4.16174e-05
6.68048e-06
1.92621e-08
1.44453e-08
3.30377e-08
6.15939e-06
3.46151e-06
3.87566e-07
3.02945e-08
8.23097e-09
2.48693e-05
5.75254e-06
2.76865e-09
9.20706e-09
1.54917e-09
2.71265e-07
6.67863e-10
2.38684e-08
8.23097e-09
3.55177e-09
5.30607e-06
1.91504e-06
2.66679e-09
1.22373e-09
7.46481e-10
5.02096e-11
1.22686e-10
1.20831e-09
6.90124e-09
3.55177e-09
6.8426e-05
4.168e-06
1.49042e-10
1.28435e-10
1.97961e-09
2.34811e-11
5.02096e-11
1
1
1
1
1
1
1
1
1
1
1
1
1
1
1
1
1
1
1
1
1
1
1
1
1
1
1
1
1
1
1
1
1
1
1
1
1
1
1
1
1
0.999998
0.999999
1
1
1
1
1
1
1
0.999982
0.9999
0.99996
0.999993
0.999999
1
1
1
1
1
0.802246
0.700688
0.803512
0.92441
0.986676
0.999943
1
1
1
1
0.0602496
0.0350747
0.104439
0.211026
0.386057
0.647958
0.875892
0.985738
1
1
1.48544e-07
1.49659e-07
2.46333e-07
2.08233e-06
1.49237e-05
0.00191375
0.107169
0.320322
0.639852
0.816259
1.46082e-07
1.46727e-07
1.49664e-07
1.97543e-07
4.40735e-07
6.7095e-07
2.47244e-06
0.00322044
0.0584559
0.120358
1.43946e-07
1.44265e-07
1.72617e-07
1.75263e-07
3.69381e-07
6.035e-07
6.70639e-07
2.50046e-06
1.27523e-05
8.4294e-06
3.65077e-07
1.58015e-07
1.65112e-07
8.98813e-06
2.16594e-05
1.76346e-05
9.21488e-06
2.73245e-06
9.71757e-07
1.64549e-06
1.5529e-07
1.83196e-07
1.76943e-07
3.42759e-05
5.0499e-05
8.4057e-06
3.99007e-05
1.73102e-05
1.61212e-06
1.81599e-06
1.7366e-07
1.91976e-07
1.87409e-07
3.32339e-05
2.11473e-05
5.84452e-07
5.93714e-05
8.97127e-05
9.5888e-06
1.60183e-06
2.03549e-07
1.94836e-07
2.88882e-05
2.97619e-05
2.67678e-06
1.76593e-07
2.42991e-05
9.06889e-05
5.7345e-05
1.07294e-06
2.06406e-05
2.03549e-07
9.31734e-05
0.000102715
2.24902e-05
1.30463e-07
4.98413e-06
7.89916e-05
7.6048e-05
9.59649e-07
7.46975e-05
1.68258e-05
2.9718e-05
0.000102827
2.66067e-05
3.56979e-08
1.25353e-06
2.83312e-05
4.16734e-05
9.1156e-07
0.00015933
2.25009e-05
6.0922e-06
0.000101912
1.40937e-05
9.68356e-10
2.42654e-07
4.72479e-06
7.00085e-06
9.05434e-07
4.91109e-05
2.12375e-08
1.12948e-05
6.68902e-05
4.48617e-06
1.49042e-10
1.28435e-10
3.92809e-10
3.61339e-10
4.53013e-08
6.73065e-09
9.98038e-10
6.59545e-05
6.8921e-05
2.17539e-06
1.28435e-10
1.18911e-10
4.28885e-11
5.02096e-11
9.3924e-10
1
1
1
1
1
1
1
1
1
1
1
1
1
1
1
1
1
1
1
1
1
1
1
1
1
1
1
1
1
1
1
1
1
1
1
1
1
1
1
1
0.999997
0.999972
0.999994
0.999999
1
1
1
1
1
1
0.995895
0.965288
0.99358
0.999959
0.999996
1
1
1
1
1
0.520935
0.383904
0.552368
0.802098
0.95127
0.997904
1
1
1
1
4.07522e-07
2.35289e-05
0.0208384
0.104937
0.254455