/*--------------------------------*- C++ -*----------------------------------*\
| =========                 |                                                 |
| \\      /  F ield         | OpenFOAM: The Open Source CFD Toolbox           |
|  \\    /   O peration     | Version:  2312                                  |
|   \\  /    A nd           | Website:  www.openfoam.com                      |
|    \\/     M anipulation  |                                                 |
\*---------------------------------------------------------------------------*/
FoamFile
{
    version     2.0;
    format      ascii;
    arch        "LSB;label=32;scalar=64";
    class       volVectorField;
    location    "1.475";
    object      U;
}
// * * * * * * * * * * * * * * * * * * * * * * * * * * * * * * * * * * * * * //

dimensions      [0 1 -1 0 0 0 0];

internalField   nonuniform List<vector> 
8000
(
(-0.00181281 0.00382275 -0.00251805)
(-0.00412148 0.00578868 -0.00491595)
(-0.00569128 0.00769666 -0.00766471)
(-0.00688943 0.0075281 -0.00739825)
(-0.00749982 0.0055399 -0.00474845)
(-0.00845563 0.00369386 -0.00317839)
(-0.00910965 0.00279593 -0.00310434)
(-0.00864866 0.00219426 -0.00336854)
(-0.00674513 0.00151921 -0.0035866)
(-0.00272475 0.000617581 -0.00382155)
(-0.000280865 0.0109574 -0.00247449)
(0.000206344 0.0121923 -0.00318401)
(-0.00479062 0.0181496 -0.00651528)
(-0.0101788 0.0199584 -0.00594545)
(-0.0127975 0.0174187 -0.00464928)
(-0.0135109 0.0130456 -0.00403703)
(-0.0132632 0.00940475 -0.00400008)
(-0.0121172 0.00656346 -0.00408127)
(-0.00979374 0.00366863 -0.003471)
(-0.00388781 0.00157543 -0.00259141)
(-0.000176979 0.0119207 0.00101466)
(0.00294068 0.00822028 0.00402283)
(-0.000279134 0.0228442 -0.00154994)
(-0.0120598 0.0271002 -0.00275615)
(-0.018589 0.025422 -0.00284101)
(-0.0194623 0.0209437 -0.00378939)
(-0.0184258 0.0160492 -0.00409978)
(-0.0175517 0.0119063 -0.00301603)
(-0.0136633 0.00465275 -0.000835808)
(-0.00426808 -0.0053648 -0.000823033)
(-0.00266069 0.00507957 0.00639407)
(-0.00229487 -0.0046802 0.0060671)
(-0.00125016 0.0230977 0.00321932)
(-0.0138958 0.0327655 -0.000129701)
(-0.0228959 0.0306564 -0.00141718)
(-0.0255753 0.0273865 -0.00302213)
(-0.025245 0.0229705 -0.00321141)
(-0.0217626 0.0132004 -0.00167293)
(-0.0124381 -0.0049945 -0.000958171)
(-0.00562638 -0.0154062 -0.00311688)
(-0.00313297 0.00567484 0.00143513)
(-0.00870946 0.000452942 -0.00544648)
(-0.00974573 0.0245455 0.00273957)
(-0.0188754 0.0375171 0.00188453)
(-0.0268649 0.0352436 -0.000428928)
(-0.0297654 0.0322113 -0.00225257)
(-0.027379 0.024747 -0.00242489)
(-0.0193162 0.00845528 -0.00216247)
(-0.0116605 -0.00823813 -0.00449898)
(-0.00754062 -0.0139278 -0.00774329)
(-0.00350221 0.0340111 -0.00920825)
(-0.0136949 0.0329687 -0.0146847)
(-0.0184713 0.0430931 -0.00263388)
(-0.0244027 0.0495772 0.0018919)
(-0.0310687 0.0440925 0.000466103)
(-0.033379 0.0352324 -0.00114784)
(-0.0301407 0.0211143 -0.00220309)
(-0.0235687 0.00429175 -0.00461638)
(-0.0183952 -0.00642531 -0.00990166)
(-0.00960682 -0.0101495 -0.0147237)
(-0.00670312 0.064057 -0.0158771)
(-0.022206 0.0639134 -0.0182958)
(-0.0316568 0.0637137 -0.00827622)
(-0.0389942 0.0619939 -0.00195209)
(-0.0471882 0.0555562 -0.00206978)
(-0.0513539 0.0464175 -0.00419202)
(-0.0502462 0.0337884 -0.00785553)
(-0.04407 0.0212106 -0.0132394)
(-0.031479 0.0126944 -0.0189668)
(-0.0138847 0.00922329 -0.0217432)
(-0.00504412 0.0979899 -0.0226751)
(-0.016048 0.098253 -0.0206532)
(-0.0294966 0.0923333 -0.00809101)
(-0.05111 0.0854484 -0.000437301)
(-0.0706671 0.0769574 -0.00232344)
(-0.0793713 0.0638492 -0.00687292)
(-0.0762415 0.0464584 -0.0119253)
(-0.0632393 0.0303564 -0.0168303)
(-0.0454871 0.0200665 -0.0207935)
(-0.0248088 0.0160576 -0.0230336)
(-0.0182787 0.145413 -0.0280515)
(-0.0573648 0.147004 -0.0338553)
(-0.104007 0.144173 -0.0359168)
(-0.14394 0.135076 -0.038739)
(-0.165291 0.118328 -0.0464879)
(-0.165382 0.0942618 -0.0515442)
(-0.147239 0.0685076 -0.0511576)
(-0.118188 0.0490693 -0.0473618)
(-0.0846913 0.0383898 -0.0435241)
(-0.0464979 0.0350055 -0.0396234)
(-0.0654548 0.270756 0.0210393)
(-0.143491 0.305529 -0.01425)
(-0.182461 0.314437 -0.0603318)
(-0.178055 0.271415 -0.0837535)
(-0.159606 0.237897 -0.0834951)
(-0.135034 0.204637 -0.0756141)
(-0.103207 0.166831 -0.0621896)
(-0.0676481 0.134032 -0.0428798)
(-0.0412619 0.107284 -0.0195121)
(-0.0251067 0.087485 0.00510602)
(-0.0292064 0.289405 0.0389383)
(-0.0125756 0.257717 0.0557885)
(-0.0339338 0.343327 0.0289146)
(-0.0636027 0.34531 0.00249223)
(-0.0904054 0.319411 -0.00605796)
(-0.0931313 0.272627 -0.00518171)
(-0.0825821 0.213965 -0.0021224)
(-0.0756896 0.156752 0.00102218)
(-0.0685005 0.103547 0.00667776)
(-0.0557929 0.0514442 0.0128962)
(0.0092807 0.165497 0.0180058)
(0.0601125 0.0159892 0.0325895)
(0.121157 0.193071 0.0617267)
(0.0989033 0.285881 0.0567288)
(0.0398127 0.26993 0.0496643)
(-0.0137013 0.19376 0.0469637)
(-0.0588566 0.103911 0.0411289)
(-0.0835984 0.0401316 0.0313454)
(-0.0761562 -0.0357665 0.0378824)
(-0.0833637 -0.0820369 0.03723)
(0.00816101 0.0848385 -0.0174785)
(0.0305718 -0.109961 -0.000524564)
(0.0811198 0.0432602 0.0441339)
(0.119058 0.184045 0.0530266)
(0.0961679 0.196607 0.0481877)
(0.0528942 0.135703 0.0444417)
(-0.00226401 0.0475925 0.0423053)
(-0.0417918 -0.0315225 0.0438934)
(-0.0978458 -0.0852997 0.0347984)
(-0.146973 -0.100627 0.0117892)
(0.00085375 0.0561541 -0.0274101)
(0.0360466 -0.155685 0.0109489)
(0.0276959 -0.0985219 0.0284535)
(0.0758843 0.0909671 0.0372317)
(0.063724 0.140513 0.0260425)
(0.0348911 0.111969 0.0207767)
(-0.0178688 0.0205007 0.0347704)
(-0.0866184 -0.0425726 0.0333004)
(-0.140781 -0.0653473 0.00255963)
(-0.156159 -0.082354 -0.0122489)
(0.0193041 0.0342875 0.0167926)
(0.0705385 -0.190883 0.0263008)
(0.0547743 -0.18074 0.00783517)
(0.0466604 0.0293326 0.025348)
(0.00272249 0.122879 0.011071)
(-0.024027 0.0896635 0.0189391)
(-0.0819664 0.00499127 0.0389205)
(-0.13603 -0.019807 0.0116834)
(-0.146115 -0.0382856 -0.0132566)
(-0.139962 -0.0612502 -0.015051)
(0.037498 -0.107102 0.0268236)
(0.0796283 -0.248012 0.0020245)
(0.0470964 -0.190866 -0.00906796)
(-0.00315643 0.0501715 0.0163652)
(-0.0612418 0.120972 0.0111756)
(-0.0871978 0.0615294 0.030823)
(-0.14957 0.00613611 0.0303822)
(-0.179352 -0.0110118 0.00133354)
(-0.169282 -0.0331195 -0.0122878)
(-0.157598 -0.0533326 -0.0169186)
(0.0390828 -0.201449 -0.0303616)
(0.0566004 -0.251279 -0.038164)
(0.00856399 -0.14999 -0.02906)
(-0.0386148 0.0688769 0.0145222)
(-0.0757327 0.110075 0.0226245)
(-0.11754 0.0435405 0.0425254)
(-0.192454 0.00335722 0.0309691)
(-0.210909 -0.0131638 0.00270848)
(-0.198125 -0.0256043 -0.0145424)
(-0.182135 -0.0428572 -0.0242156)
(0.0389647 -0.203211 -0.0547637)
(0.0225377 -0.194764 -0.0448658)
(-0.0305192 -0.087873 -0.0294022)
(-0.0398369 0.0524145 0.0027782)
(-0.0300096 0.0819782 0.0268156)
(-0.0947025 0.0405799 0.0489162)
(-0.200214 0.00322962 0.0365788)
(-0.230302 -0.00843884 0.00222512)
(-0.216723 -0.0111834 -0.0221711)
(-0.197074 -0.0264115 -0.031267)
(0.0308606 -0.172361 -0.0586941)
(-0.010452 -0.126407 -0.0355886)
(-0.0588565 -0.0526705 -0.0136742)
(-0.0490356 -0.0079486 -0.000596851)
(-0.0146067 0.0313533 0.0192338)
(-0.0770599 0.0464941 0.0447615)
(-0.192798 0.014891 0.0366899)
(-0.23246 0.00839927 0.000953365)
(-0.221318 0.00981033 -0.0268498)
(-0.200193 -0.00254661 -0.036548)
(0.0237635 -0.117816 -0.0574608)
(-0.0170814 -0.0598298 -0.0251992)
(-0.0859947 -0.0277597 -0.00062581)
(-0.0925171 -0.0437365 0.00167021)
(-0.0683971 -0.00162512 0.0137452)
(-0.0793859 0.0457372 0.0384264)
(-0.169303 0.0270547 0.0373413)
(-0.222025 0.0247336 0.00934207)
(-0.221643 0.0285909 -0.0201861)
(-0.196684 0.02215 -0.0367995)
(-0.00410793 0.00504149 -0.00675477)
(-0.00476102 0.00487193 -0.0100608)
(-0.00108913 0.00111121 -0.0171616)
(-0.000464478 0.00197497 -0.021274)
(-0.00100082 0.00409949 -0.0181783)
(-0.00246238 0.00354178 -0.0119839)
(-0.0035225 0.00236383 -0.00865074)
(-0.00362062 0.00174164 -0.00763805)
(-0.00310683 0.00140336 -0.00734756)
(-0.00121936 0.000690354 -0.00751868)
(-0.00194151 0.0107324 -0.00464215)
(0.00943419 -0.00531566 0.00622244)
(0.0130505 -0.00305033 0.00423807)
(0.00557188 0.00685772 -0.00407981)
(-0.00283957 0.0120669 -0.0123428)
(-0.00585373 0.0120449 -0.0134624)
(-0.00682319 0.00859103 -0.0107464)
(-0.0064067 0.00510294 -0.00881732)
(-0.00553536 0.00233722 -0.00761627)
(-0.002563 -0.000292988 -0.00570469)
(0.00495198 0.00760351 0.00310659)
(0.00834411 -0.0197702 0.0112232)
(0.00916064 -0.0110935 0.0110642)
(-0.000694186 0.00800824 0.00791498)
(-0.0117459 0.0174856 -0.00114049)
(-0.0130371 0.0186133 -0.00991789)
(-0.0112775 0.0142392 -0.0114703)
(-0.00993557 0.00902605 -0.00894351)
(-0.00983935 0.00573917 -0.00464815)
(-0.00410714 -0.00217096 -0.000273937)
(0.00426073 0.00335634 0.00363606)
(-7.465e-05 -0.0189951 -0.00165848)
(-0.00541784 -0.00521837 0.00600152)
(-0.0143897 0.014262 0.00853976)
(-0.0223845 0.0202323 0.00302954)
(-0.0217288 0.0212669 -0.00538311)
(-0.018183 0.0188699 -0.00910509)
(-0.0151158 0.0148814 -0.0068303)
(-0.0101222 0.00492014 -0.00204021)
(0.000516415 -0.0127178 -0.00176132)
(0.00304281 0.0160547 -0.0155954)
(-0.00456574 0.00382523 -0.0241117)
(-0.0165012 0.00589043 -0.00803498)
(-0.0204331 0.0155791 0.00142198)
(-0.0247691 0.0188083 3.01459e-05)
(-0.025127 0.0219142 -0.00382858)
(-0.0207183 0.0216195 -0.00653867)
(-0.0119537 0.0145432 -0.00685471)
(-0.000672133 0.00122524 -0.00776014)
(0.00681845 -0.0103175 -0.011545)
(0.00217086 0.0405358 -0.0329606)
(-0.00918203 0.0336329 -0.0371688)
(-0.0224139 0.0346717 -0.0250648)
(-0.0256919 0.0319413 -0.0143268)
(-0.0283711 0.0275973 -0.0117363)
(-0.0277604 0.0227616 -0.012101)
(-0.0216392 0.0155917 -0.0140873)
(-0.010608 0.00610894 -0.0179881)
(-0.00127147 -0.00182198 -0.0237871)
(0.00437758 -0.00529576 -0.0281049)
(-0.0053596 0.0631853 -0.0408693)
(-0.0253008 0.0616049 -0.0443668)
(-0.0365113 0.0595688 -0.0385753)
(-0.0400545 0.0535069 -0.0306358)
(-0.0437284 0.0477147 -0.0289251)
(-0.0437206 0.041165 -0.0311023)
(-0.0390997 0.0320454 -0.0347586)
(-0.0295926 0.0216998 -0.0395002)
(-0.0174361 0.0130893 -0.0430329)
(-0.00484127 0.00847085 -0.0430738)
(-0.0137425 0.0944044 -0.0408013)
(-0.0400529 0.0932663 -0.0374408)
(-0.0533791 0.0884714 -0.0355898)
(-0.0649032 0.0831306 -0.0345982)
(-0.0763435 0.0751924 -0.0383945)
(-0.0796396 0.0621224 -0.0433532)
(-0.0719767 0.0445314 -0.0470821)
(-0.0562 0.0273963 -0.0493937)
(-0.0373462 0.0149916 -0.0510674)
(-0.0166682 0.00896772 -0.0508243)
(-0.0368541 0.143023 -0.0545624)
(-0.0933065 0.138839 -0.0766478)
(-0.12212 0.133929 -0.0885418)
(-0.142865 0.129424 -0.0975035)
(-0.158927 0.115325 -0.116025)
(-0.161221 0.0904089 -0.13434)
(-0.146255 0.0618641 -0.14458)
(-0.117272 0.0389608 -0.145408)
(-0.0815473 0.0243386 -0.141244)
(-0.0414687 0.0173965 -0.134164)
(-0.0508806 0.326951 0.0493342)
(-0.127023 0.298832 -0.0192176)
(-0.180423 0.240451 -0.121539)
(-0.200468 0.210008 -0.152893)
(-0.19519 0.190183 -0.153817)
(-0.176245 0.157976 -0.148549)
(-0.15264 0.116929 -0.134896)
(-0.121623 0.0841303 -0.104771)
(-0.0857253 0.0614968 -0.0696109)
(-0.0540028 0.0474106 -0.031378)
(-0.00436027 0.352329 0.111738)
(0.0115916 0.358472 0.139357)
(-0.00646704 0.377548 0.0931459)
(-0.0605808 0.34823 0.0573839)
(-0.140311 0.288929 0.0330181)
(-0.17836 0.228767 0.0372967)
(-0.189651 0.16153 0.0625174)
(-0.188137 0.0919135 0.0826578)
(-0.171262 0.0281921 0.103614)
(-0.145964 -0.0148087 0.107157)
(0.0088532 0.204849 0.119112)
(0.0966041 0.204099 0.180067)
(0.14442 0.317002 0.179739)
(0.114012 0.364625 0.152816)
(0.0227994 0.309756 0.127967)
(-0.0755283 0.174091 0.129876)
(-0.139156 0.0231104 0.142528)
(-0.160652 -0.0689619 0.137395)
(-0.161707 -0.106757 0.124564)
(-0.164674 -0.109195 0.100492)
(-0.0251584 0.0908273 0.0793432)
(0.0311851 0.0339301 0.104318)
(0.124729 0.21235 0.145199)
(0.154922 0.328194 0.1484)
(0.112639 0.30903 0.13604)
(0.0245733 0.176518 0.133863)
(-0.0505842 0.0120725 0.142377)
(-0.117742 -0.0705605 0.127124)
(-0.162961 -0.0769353 0.0831345)
(-0.182527 -0.0662304 0.0468469)
(-0.0498907 0.0244773 0.036936)
(0.00539554 -0.119757 0.0563974)
(0.0344989 0.0892473 0.0990343)
(0.100554 0.267233 0.106092)
(0.0808659 0.278004 0.105015)
(0.00871219 0.151633 0.11545)
(-0.08695 -0.0203596 0.123548)
(-0.136965 -0.0593799 0.0762931)
(-0.14113 -0.0381773 0.0190716)
(-0.139647 -0.0364516 0.000748677)
(-0.026916 0.0241126 0.0211809)
(0.0543062 -0.187379 0.0418136)
(0.0096781 -0.0397661 0.0785993)
(0.0396298 0.203473 0.0773257)
(-0.00890698 0.225841 0.0867902)
(-0.0714829 0.0921829 0.111249)
(-0.136648 -0.037401 0.0940229)
(-0.147937 -0.0618465 0.0283975)
(-0.145915 -0.052175 -0.00923176)
(-0.145377 -0.0365541 -0.0237102)
(0.0257342 -0.00679656 0.0520325)
(0.0639156 -0.168268 0.0311565)
(-0.0151669 -0.0516986 0.0589668)
(-0.041846 0.189827 0.0692198)
(-0.0995071 0.171501 0.0857863)
(-0.140185 0.0333615 0.102688)
(-0.172959 -0.0495964 0.0674173)
(-0.172317 -0.0650437 0.010715)
(-0.179583 -0.0503619 -0.020319)
(-0.172459 -0.028157 -0.0411001)
(0.0395393 -0.0338762 0.0366838)
(0.0416838 -0.134624 0.00222458)
(-0.0757065 0.0165827 0.0434368)
(-0.100328 0.176343 0.0721252)
(-0.130336 0.125359 0.091452)
(-0.162597 0.00528561 0.103109)
(-0.197456 -0.0491883 0.0599421)
(-0.186434 -0.0599542 -0.000250877)
(-0.198793 -0.0420398 -0.0356363)
(-0.191731 -0.0270569 -0.0593974)
(0.0489475 -0.09574 -0.0323862)
(0.01156 -0.100952 -0.0254006)
(-0.0771643 0.0342466 0.0115242)
(-0.0827492 0.139794 0.0660212)
(-0.0727126 0.104779 0.0973907)
(-0.132674 0.0200663 0.115658)
(-0.194366 -0.0352252 0.0648452)
(-0.169075 -0.0417101 -0.00981331)
(-0.185239 -0.0253847 -0.0513644)
(-0.186041 -0.0218644 -0.0767283)
(0.0243976 -0.129981 -0.0551013)
(-0.0473762 -0.0448247 -0.0189095)
(-0.0748024 0.0216248 0.00663155)
(-0.0563788 0.0434715 0.0479537)
(-0.0242011 0.0637832 0.0846475)
(-0.0970699 0.0379704 0.109091)
(-0.171663 -0.0175718 0.0681004)
(-0.144996 -0.0179793 -0.00638477)
(-0.149307 0.00264802 -0.0559526)
(-0.156546 -0.00529969 -0.0863705)
(-0.00841027 -0.0958618 -0.0508938)
(-0.114909 -0.00729178 0.0104586)
(-0.139285 -0.0184721 0.026015)
(-0.131978 -0.037641 0.0466936)
(-0.0948114 0.0107171 0.0708196)
(-0.0936122 0.0350197 0.0959951)
(-0.147535 -0.00811237 0.0774206)
(-0.144087 -0.00895322 0.0201278)
(-0.122918 0.0165713 -0.0376873)
(-0.121759 0.0131857 -0.0784459)
(-0.0080837 0.00672661 -0.0102424)
(-0.0105896 -0.00168312 -0.00787471)
(0.00122066 -0.0133189 -0.00838747)
(0.00712771 -0.0110423 -0.0147725)
(0.00954753 -0.00249412 -0.0188938)
(0.00568547 0.00248726 -0.0163952)
(-0.000180968 0.00241497 -0.0124108)
(-0.00224776 0.00155851 -0.0103801)
(-0.00236072 0.00105639 -0.0096294)
(-0.0010859 0.000441534 -0.00943676)
(-0.00842549 0.0159971 -0.011522)
(0.00872274 -0.0110517 0.00890512)
(0.0149862 -0.0233809 0.0125153)
(0.0126794 -0.015622 0.00677915)
(0.00676396 -0.00350655 -0.00569059)
(0.00249082 0.00739159 -0.0157731)
(-0.00290095 0.00865023 -0.0153742)
(-0.00499064 0.00460556 -0.0123152)
(-0.00415918 0.00127326 -0.0107669)
(-0.00166195 -0.00212087 -0.00909547)
(-0.00121668 0.0210466 -0.00626642)
(0.0104057 -0.0162752 0.0103538)
(0.00538941 -0.0268484 0.0131771)
(-0.00116564 -0.0113457 0.013374)
(-0.00888705 0.00299968 0.00240867)
(-0.0085048 0.0127081 -0.0130888)
(-0.00831595 0.0141299 -0.0172609)
(-0.00699213 0.00783684 -0.0144315)
(-0.00587779 0.00284204 -0.0102805)
(-0.00320685 -0.000741711 -0.00443335)
(0.00462133 0.0260431 -0.00668202)
(0.00729343 -0.00126427 -0.00817796)
(-0.00844926 -0.0119572 1.2511e-06)
(-0.0177158 -0.00139472 0.0101093)
(-0.0226297 0.00834173 0.00421243)
(-0.0195848 0.0153604 -0.0100573)
(-0.0149645 0.0159351 -0.0173313)
(-0.0113797 0.0112966 -0.0152247)
(-0.00936148 0.00752308 -0.00994512)
(-0.00229535 -0.00319948 -0.00444096)
(0.00446561 0.0361821 -0.0276012)
(0.00578003 0.0189736 -0.0346993)
(-0.0108433 0.00909236 -0.0209889)
(-0.0213933 0.00813429 -0.00553418)
(-0.0267274 0.0126674 -0.00236399)
(-0.0265259 0.0194598 -0.0073224)
(-0.0204946 0.0215661 -0.0134392)
(-0.0128219 0.0174602 -0.0150698)
(-0.00581027 0.0097988 -0.0149705)
(0.00322771 -0.00330525 -0.0156066)
(0.00185934 0.0434784 -0.0468297)
(-0.00326135 0.032352 -0.0493901)
(-0.0168993 0.0338736 -0.0412258)
(-0.026818 0.0303654 -0.030932)
(-0.033024 0.0250836 -0.0249208)
(-0.0332017 0.0221654 -0.0232471)
(-0.0265118 0.0192905 -0.0252414)
(-0.0155953 0.0148614 -0.0286296)
(-0.00576318 0.00925375 -0.0326221)
(0.00178424 0.00168003 -0.0348565)
(-0.00693288 0.0579356 -0.0573048)
(-0.0258358 0.0539521 -0.0637631)
(-0.0383475 0.0549991 -0.0618842)
(-0.0446441 0.0525302 -0.0564761)
(-0.0495955 0.0464156 -0.0535206)
(-0.0504269 0.0372581 -0.0531681)
(-0.0451568 0.0256171 -0.0546869)
(-0.0336217 0.0142428 -0.0565243)
(-0.0196366 0.00555668 -0.0571753)
(-0.00567031 -0.0011163 -0.0559514)
(-0.0176085 0.0860492 -0.0532572)
(-0.0483014 0.0830782 -0.0597417)
(-0.0643595 0.0788934 -0.0653575)
(-0.0755305 0.0733589 -0.067496)
(-0.0827354 0.0622489 -0.0715826)
(-0.0811139 0.0461128 -0.0764964)
(-0.0709241 0.0294301 -0.0793424)
(-0.0543026 0.0147193 -0.0799856)
(-0.0334849 0.00467145 -0.0790221)
(-0.0100621 -0.000378707 -0.0773779)
(-0.0365024 0.13677 -0.0805255)
(-0.095886 0.127346 -0.112987)
(-0.129013 0.11947 -0.129018)
(-0.148539 0.11041 -0.140129)
(-0.160813 0.0908795 -0.162643)
(-0.160787 0.0638635 -0.184441)
(-0.146506 0.0367193 -0.196805)
(-0.117962 0.0147432 -0.197327)
(-0.081647 0.00162582 -0.192409)
(-0.0413973 -0.00388905 -0.185695)
(-0.0284075 0.303643 0.0124845)
(-0.122232 0.258067 -0.0882042)
(-0.185377 0.191176 -0.17519)
(-0.200032 0.160133 -0.178582)
(-0.200321 0.130666 -0.177784)
(-0.18857 0.0895286 -0.166993)
(-0.181824 0.0424331 -0.146529)
(-0.182039 0.00880443 -0.108628)
(-0.182191 -0.0150897 -0.0173264)
(-0.15354 -0.0357972 0.00247606)
(0.0232949 0.330142 0.135912)
(0.0302611 0.370531 0.141015)
(0.0130918 0.317604 0.0890096)
(-0.0474445 0.237637 0.049606)
(-0.143894 0.155047 0.0527942)
(-0.210013 0.0570627 0.105171)
(-0.240166 -0.0345745 0.161056)
(-0.236968 -0.060322 0.168626)
(-0.214393 -0.0737539 0.160019)
(-0.182358 -0.0868002 0.143381)
(0.0127174 0.193082 0.183397)
(0.106306 0.312324 0.243745)
(0.125325 0.339533 0.205999)
(0.0883469 0.298683 0.166357)
(-0.0120342 0.190413 0.168531)
(-0.123185 0.0345404 0.204407)
(-0.181707 -0.0946463 0.21865)
(-0.194855 -0.153861 0.186397)
(-0.178632 -0.157763 0.128229)
(-0.147567 -0.144808 0.0755274)
(-0.0301505 0.0995421 0.14192)
(0.055822 0.211771 0.196512)
(0.107051 0.312146 0.187505)
(0.11442 0.320394 0.179892)
(0.0520994 0.238577 0.195375)
(-0.0477908 0.0883552 0.223067)
(-0.116816 -0.064601 0.216594)
(-0.148981 -0.123187 0.143023)
(-0.137054 -0.132592 0.0520759)
(-0.113269 -0.12732 0.000355568)
(-0.0572231 0.0620058 0.0870343)
(-0.0168644 0.100888 0.12945)
(0.0312104 0.249642 0.145853)
(0.0591483 0.298879 0.154215)
(0.0152153 0.24067 0.190123)
(-0.0627047 0.0779226 0.219738)
(-0.124347 -0.0781106 0.178117)
(-0.122999 -0.125535 0.079033)
(-0.110166 -0.151881 0.00347163)
(-0.106196 -0.137473 -0.0286871)
(-0.0443536 0.0389941 0.0378931)
(-0.00613341 0.00189369 0.0905565)
(-0.0146829 0.163804 0.131639)
(0.00234009 0.256688 0.136417)
(-0.0481367 0.205917 0.187522)
(-0.0979683 0.0416827 0.199313)
(-0.114627 -0.0803495 0.125962)
(-0.103748 -0.12073 0.0364553)
(-0.115045 -0.141776 -0.0113917)
(-0.122318 -0.120595 -0.0445963)
(-0.00552529 0.0214983 0.00197428)
(0.0120298 -0.0302665 0.0482759)
(-0.0446613 0.129841 0.105736)
(-0.0493664 0.231531 0.130183)
(-0.0917462 0.159951 0.171045)
(-0.106448 -0.00250087 0.154074)
(-0.0927981 -0.083694 0.0801783)
(-0.0848577 -0.0980836 0.0092706)
(-0.116235 -0.124089 -0.0208983)
(-0.137151 -0.107143 -0.0535102)
(0.0012209 0.0140475 -0.0146526)
(-0.0306945 -0.0139578 0.0221808)
(-0.0878673 0.138356 0.086856)
(-0.0945442 0.202634 0.121567)
(-0.101674 0.102685 0.139452)
(-0.0916207 -0.0341862 0.122172)
(-0.0753416 -0.0757017 0.0558523)
(-0.0518092 -0.0574662 -0.0148806)
(-0.0909369 -0.100171 -0.0278107)
(-0.128744 -0.102941 -0.0567011)
(0.0110965 0.0357021 -0.0234882)
(-0.030059 -0.0067945 0.00519037)
(-0.0992649 0.125593 0.0724832)
(-0.0852341 0.161156 0.112726)
(-0.0599651 0.0722627 0.132568)
(-0.0707573 -0.0208011 0.136751)
(-0.0677863 -0.0590109 0.0568059)
(-0.00777675 -0.0181497 -0.0409055)
(-0.0323005 -0.0646661 -0.0398008)
(-0.0841981 -0.10158 -0.0575725)
(0.0464046 -0.0115474 -0.029717)
(0.00556129 0.0128532 -0.0101027)
(-0.0809186 0.0885271 0.0600993)
(-0.0486348 0.0857617 0.102759)
(-0.0148035 0.0543901 0.132685)
(-0.0449421 0.0113355 0.146911)
(-0.0546085 -0.0399056 0.0744904)
(0.0293151 -0.0163758 -0.0331754)
(0.0261813 -0.0246839 -0.0446433)
(-0.0203635 -0.0902175 -0.0541004)
(0.0165862 -0.0643573 -0.0261458)
(-0.0598598 0.0568081 0.0201335)
(-0.122257 0.0468248 0.0622844)
(-0.110539 0.00184934 0.0926515)
(-0.0795601 0.0101166 0.118858)
(-0.0512242 0.00983508 0.129574)
(-0.0395521 -0.0363063 0.0933728)
(0.00519413 -0.042191 0.0276611)
(0.0389811 -0.0291677 -0.0177988)
(0.0338559 -0.0774025 -0.0440676)
(-0.00890962 0.00704996 -0.0112667)
(-0.0186648 -0.00212143 -0.00565949)
(-0.00528503 -0.0169906 -0.000523311)
(0.00584843 -0.0164295 -0.00435808)
(0.012593 -0.00716785 -0.00976601)
(0.0087778 0.000504075 -0.0121461)
(0.000693946 0.00187808 -0.0120109)
(-0.00237477 0.00127438 -0.0113177)
(-0.00254944 0.000728368 -0.01072)
(-0.00115145 0.000186351 -0.0100607)
(-0.00801388 0.0173336 -0.016585)
(0.000478795 -0.00482327 0.00176509)
(0.00885045 -0.0271473 0.0133681)
(0.00956234 -0.0271122 0.00974057)
(0.0104668 -0.0139521 -0.00431836)
(0.00766411 0.00241959 -0.0137368)
(-0.000843747 0.00663967 -0.015021)
(-0.00465388 0.00314611 -0.0133437)
(-0.00384576 -0.000127424 -0.0120234)
(-0.00130775 -0.0032497 -0.0109035)
(-0.00397975 0.022833 -0.0185286)
(0.00909567 -0.00315643 -0.00103268)
(0.00526414 -0.0234406 0.00935858)
(-0.00215058 -0.020884 0.0115756)
(-0.00377839 -0.00860551 -0.00225485)
(-0.00215117 0.00600787 -0.0166896)
(-0.00570443 0.010726 -0.0192263)
(-0.00672237 0.0047339 -0.0171398)
(-0.00481024 -0.00161615 -0.0144768)
(-0.00199177 -0.00495603 -0.0103488)
(0.00128177 0.0293665 -0.0242845)
(0.010437 0.0130015 -0.0206847)
(0.000299026 -0.00546348 -0.00747557)
(-0.0135991 -0.0086275 0.00419132)
(-0.0172462 -0.00161983 -0.00251004)
(-0.0138392 0.00820434 -0.0186287)
(-0.0126446 0.0115126 -0.0240146)
(-0.0113004 0.00521898 -0.0218201)
(-0.00926617 0.000560112 -0.0177151)
(-0.00402551 -0.00305921 -0.0118748)
(0.00324863 0.0320039 -0.0385704)
(0.00828514 0.0216245 -0.0392062)
(-0.0020085 0.0139694 -0.026879)
(-0.0176136 0.00880962 -0.0134848)
(-0.0255158 0.00924018 -0.00983563)
(-0.0245813 0.014778 -0.0166154)
(-0.019597 0.015281 -0.02399)
(-0.0149408 0.00904405 -0.0250261)
(-0.010944 0.00224549 -0.0242533)
(-0.00317987 -0.00445728 -0.0222838)
(-0.00194988 0.0285011 -0.0517769)
(-0.00770844 0.022633 -0.0527514)
(-0.018804 0.0277333 -0.046864)
(-0.0304674 0.0265335 -0.0397621)
(-0.0383374 0.0218554 -0.0343734)
(-0.0373202 0.0204591 -0.0320115)
(-0.0293344 0.0185423 -0.0337439)
(-0.0195213 0.0126174 -0.0360677)
(-0.0121066 0.00481724 -0.0382324)
(-0.0035528 -0.00312497 -0.0391342)
(-0.0130352 0.0463645 -0.0663635)
(-0.0361484 0.0442569 -0.0766389)
(-0.0505342 0.0463605 -0.0754151)
(-0.0578323 0.0427749 -0.0705857)
(-0.0624237 0.0323789 -0.0665781)
(-0.0606895 0.0195664 -0.0637659)
(-0.0521851 0.00773976 -0.0626099)
(-0.0388475 -0.00101189 -0.0621179)
(-0.0236653 -0.00682256 -0.0623586)
(-0.00618453 -0.0116195 -0.0631433)
(-0.0175558 0.0755177 -0.0624551)
(-0.0509376 0.0703273 -0.0742681)
(-0.0730297 0.063408 -0.0843575)
(-0.0863168 0.0529914 -0.0892575)
(-0.0909276 0.0387525 -0.0952557)
(-0.0870676 0.0245714 -0.0999331)
(-0.0760737 0.0105569 -0.101664)
(-0.0574659 -0.0027787 -0.102738)
(-0.0339598 -0.0121578 -0.102641)
(-0.00799388 -0.0160369 -0.101734)
(-0.0299713 0.121307 -0.104539)
(-0.0940507 0.111015 -0.136472)
(-0.143099 0.0998695 -0.160028)
(-0.168768 0.0804238 -0.176069)
(-0.1795 0.0526412 -0.198698)
(-0.173559 0.0241482 -0.212358)
(-0.15255 -0.00326869 -0.212043)
(-0.119753 -0.0255493 -0.198735)
(-0.083397 -0.0384106 -0.184609)
(-0.0454005 -0.0427128 -0.173974)
(-0.0400106 0.273141 -0.00170306)
(-0.151939 0.220725 -0.123735)
(-0.195931 0.155313 -0.186442)
(-0.208121 0.112747 -0.171846)
(-0.214232 0.0628592 -0.158721)
(-0.215451 0.0107199 -0.108896)
(-0.217749 -0.0516706 0.0363771)
(-0.217197 -0.0981726 0.0166415)
(-0.202821 -0.109601 0.0133876)
(-0.174747 -0.117256 0.0253236)
(0.0301617 0.297254 0.146756)
(0.0301217 0.345259 0.127767)
(-0.0216816 0.250929 0.0426926)
(-0.0744333 0.128902 0.059305)
(-0.151053 -0.0252484 0.142003)
(-0.211167 -0.108624 0.193564)
(-0.233774 -0.135061 0.212844)
(-0.228481 -0.119105 0.204388)
(-0.209261 -0.110896 0.177711)
(-0.172486 -0.129502 0.145516)
(0.0125323 0.178954 0.215975)
(0.100859 0.331418 0.244624)
(0.0759498 0.300136 0.172111)
(0.0302083 0.170147 0.175079)
(-0.0724753 0.0239534 0.214008)
(-0.159543 -0.0801224 0.246844)
(-0.190394 -0.150511 0.234108)
(-0.180878 -0.166726 0.174165)
(-0.152224 -0.167528 0.104933)
(-0.115234 -0.185367 0.0511373)
(-0.0342564 0.107914 0.183251)
(0.0537278 0.280621 0.224621)
(0.0568808 0.300024 0.187782)
(0.0395694 0.203288 0.205987)
(-0.0389201 0.0989267 0.248393)
(-0.110986 -0.0113645 0.277737)
(-0.138857 -0.0984967 0.229433)
(-0.128265 -0.108534 0.122198)
(-0.108388 -0.118275 0.0406263)
(-0.092555 -0.15312 0.00379364)
(-0.0547561 0.0917765 0.137843)
(-0.0250451 0.218716 0.17717)
(-0.00340179 0.261738 0.17417)
(-0.00877224 0.209875 0.202286)
(-0.0581881 0.132132 0.258765)
(-0.101584 0.00215003 0.274332)
(-0.10828 -0.0821321 0.184647)
(-0.090855 -0.0817227 0.0629078)
(-0.0967119 -0.100489 -0.00204409)
(-0.0889691 -0.148857 -0.0251411)
(-0.0473915 0.0796151 0.0960559)
(-0.0398742 0.162746 0.149819)
(-0.0349439 0.219934 0.166456)
(-0.03842 0.206207 0.190256)
(-0.0696278 0.142502 0.253821)
(-0.0843222 0.0134813 0.24441)
(-0.0710401 -0.0484822 0.130476)
(-0.0710691 -0.0234972 0.012034)
(-0.0911834 -0.0655431 -0.0269653)
(-0.0844174 -0.150898 -0.0368674)
(-0.0330503 0.0585075 0.0530859)
(-0.0260505 0.124688 0.105873)
(-0.0497176 0.197424 0.140807)
(-0.0503638 0.205739 0.174215)
(-0.0644564 0.139112 0.226048)
(-0.0558039 0.00567397 0.188634)
(-0.0382398 -0.0233578 0.0805526)
(-0.0524529 0.0346726 -0.0192394)
(-0.074882 -0.049546 -0.0201393)
(-0.0774115 -0.165954 -0.0290235)
(-0.0340885 0.0402521 0.0272807)
(-0.0495215 0.102401 0.0727515)
(-0.0745909 0.188157 0.117702)
(-0.068166 0.192986 0.153539)
(-0.0559046 0.104142 0.172482)
(-0.0312137 -0.0202542 0.124918)
(-0.0124631 -0.00927239 0.0347446)
(-0.0227991 0.0694451 -0.0433417)
(-0.0301817 -0.0434659 -0.0251646)
(-0.046744 -0.170725 -0.0177391)
(-0.0154638 0.0439324 0.0127371)
(-0.0612665 0.0847578 0.0640822)
(-0.0939676 0.171253 0.113396)
(-0.0731422 0.157488 0.138696)
(-0.042625 0.0549514 0.137184)
(-0.0238149 -0.0371798 0.10033)
(0.00756618 -0.0151768 -0.00868622)
(0.00997221 0.0789704 -0.0653672)
(0.044274 -0.0366237 -0.0518181)
(0.018289 -0.157341 -0.0209101)
(0.043918 0.0136515 -0.00464409)
(-0.0199241 0.079615 0.0512334)
(-0.0844307 0.136969 0.115085)
(-0.0511273 0.107102 0.139466)
(-0.0214623 0.0336868 0.14387)
(-0.0138222 -0.0182636 0.124943)
(0.0228758 -0.0250284 0.00655757)
(0.0643471 0.013363 -0.0629005)
(0.10123 -0.0435165 -0.0499854)
(0.0858415 -0.127852 -0.0340611)
(0.0258341 -0.0507666 0.00430798)
(-0.0312326 0.104925 0.0589321)
(-0.102349 0.108502 0.112886)
(-0.083582 0.0567543 0.132507)
(-0.0599292 0.0250036 0.138929)
(-0.0207036 0.00266636 0.127791)
(0.0267036 -0.0256311 0.0744832)
(0.0808446 -0.0410843 0.0248605)
(0.119766 -0.0759179 0.000331289)
(0.127471 -0.112148 -0.0321983)
(-0.00544786 0.00539156 -0.0102587)
(-0.0185759 0.00123948 -0.00252434)
(-0.0121804 -0.00941938 0.00622648)
(-0.000235031 -0.0106771 0.00553604)
(0.00671188 -0.00379868 -0.00112385)
(0.00374983 0.000526947 -0.00765184)
(-0.00173365 0.00126779 -0.0106675)
(-0.00348884 0.000830247 -0.0115444)
(-0.00313633 0.000440878 -0.01143)
(-0.00129011 0.0003022 -0.0108642)
(-0.00463556 0.0148127 -0.0173597)
(-0.0106288 0.00470493 -0.00467623)
(-0.000693651 -0.0180291 0.0091055)
(0.002794 -0.0227784 0.0084406)
(0.00730167 -0.00980885 -0.00153615)
(0.00407518 0.00250854 -0.00966317)
(-0.00272896 0.00367841 -0.0126727)
(-0.0047496 0.00084375 -0.0126627)
(-0.00341256 -0.00143021 -0.0115497)
(-0.000964698 -0.00297904 -0.0102185)
(-0.000885689 0.0192245 -0.02409)
(0.00154067 0.00806377 -0.0134471)
(0.00342956 -0.0115365 0.000584397)
(-0.000992152 -0.0184392 0.00438221)
(-3.87841e-06 -0.009566 -0.00665309)
(-0.00111874 0.00401275 -0.0153231)
(-0.00616394 0.00552632 -0.0174539)
(-0.00729604 -0.000308737 -0.0169586)
(-0.00483844 -0.00511979 -0.0156068)
(-0.00127005 -0.00710392 -0.0133811)
(0.00302904 0.0205257 -0.0313184)
(0.00770347 0.0167853 -0.0294208)
(0.0051752 0.00341675 -0.0163233)
(-0.004645 -0.00633479 -0.00544653)
(-0.00880888 -0.00442613 -0.0112334)
(-0.00938384 0.00438919 -0.0215854)
(-0.0122115 0.00532066 -0.0242463)
(-0.0124498 -0.00204364 -0.0232311)
(-0.00929291 -0.00727719 -0.0215983)
(-0.00326542 -0.00822304 -0.0192982)
(0.00179131 0.013447 -0.0393546)
(0.00522561 0.0128838 -0.0373417)
(0.000499927 0.0142124 -0.0284019)
(-0.0104255 0.0104972 -0.0192729)
(-0.0180925 0.00726128 -0.017914)
(-0.0186001 0.00830805 -0.0244312)
(-0.017791 0.00550077 -0.0293729)
(-0.0162918 -0.0035202 -0.029753)
(-0.0132364 -0.00987247 -0.0298456)
(-0.00462805 -0.0108339 -0.0302085)
(-0.0072767 0.00801508 -0.0502451)
(-0.016337 0.00945835 -0.0535761)
(-0.0250343 0.0179138 -0.0483009)
(-0.032918 0.0196174 -0.0425009)
(-0.0379974 0.0173408 -0.0384079)
(-0.0351994 0.015032 -0.0365063)
(-0.0282583 0.0089085 -0.0377697)
(-0.0214702 -0.0019923 -0.0392026)
(-0.0161581 -0.0117509 -0.0420805)
(-0.00506674 -0.0159403 -0.0459769)
(-0.0193156 0.0335904 -0.0699888)
(-0.0475594 0.0321939 -0.0840921)
(-0.0626134 0.0315359 -0.0826289)
(-0.0686858 0.0241671 -0.0770606)
(-0.0700915 0.0122782 -0.0714557)
(-0.064653 0.000771105 -0.0665321)
(-0.053718 -0.00767301 -0.0638749)
(-0.0395762 -0.0147397 -0.064469)