/*--------------------------------*- C++ -*----------------------------------*\
| =========                 |                                                 |
| \\      /  F ield         | OpenFOAM: The Open Source CFD Toolbox           |
|  \\    /   O peration     | Version:  2312                                  |
|   \\  /    A nd           | Website:  www.openfoam.com                      |
|    \\/     M anipulation  |                                                 |
\*---------------------------------------------------------------------------*/
FoamFile
{
    version     2.0;
    format      ascii;
    arch        "LSB;label=32;scalar=64";
    class       volScalarField;
    location    "0.605";
    object      p;
}
// * * * * * * * * * * * * * * * * * * * * * * * * * * * * * * * * * * * * * //

dimensions      [1 -1 -2 0 0 0 0];

internalField   nonuniform List<scalar> 
8000
(
373.249
372.623
371.191
369.125
366.663
364.098
361.708
359.73
358.268
357.232
324.501
323.771
322.139
319.801
317.005
314.062
311.298
309.014
307.363
306.094
276.138
275.198
273.15
270.217
266.684
262.921
259.331
256.363
254.325
252.679
228.314
226.999
224.241
220.34
215.623
210.417
205.327
201.173
198.621
196.695
181.34
179.419
175.561
170.224
163.626
156.217
148.797
142.512
138.679
136.876
135.647
132.569
126.881
119.335
110.862
100.722
89.3317
77.3527
68.705
69.9551
92.572
87.3728
80.0211
71.3799
59.3082
43.5857
28.4893
16.8917
10.4965
16.3957
54.463
46.0588
34.1129
22.589
14.0113
7.48897
2.95585
0.794111
0.737178
1.0657
25.3987
12.9123
4.50698
1.19273
0.497274
0.384176
0.379644
0.488923
0.556247
0.619463
3.743
1.01126
0.499409
0.419249
0.282768
0.175117
0.180222
0.285483
0.375299
0.41947
-0.051655
-0.000500266
-0.0349953
-0.0660866
-0.0943413
-0.0795353
0.0113592
0.126129
0.195597
0.237322
-0.310558
-0.285928
-0.314337
-0.338837
-0.309286
-0.228282
-0.12055
-0.03211
0.015595
0.0575521
-0.495319
-0.488992
-0.482685
-0.448608
-0.384016
-0.305677
-0.23627
-0.182705
-0.149726
-0.11918
-0.540315
-0.54057
-0.527522
-0.483512
-0.428246
-0.379948
-0.345193
-0.312701
-0.291289
-0.275893
-0.544431
-0.544036
-0.533482
-0.509352
-0.482787
-0.462347
-0.437922
-0.420019
-0.407486
-0.398472
-0.575321
-0.573585
-0.567259
-0.55741
-0.546588
-0.536841
-0.517312
-0.509402
-0.504122
-0.497396
-0.62916
-0.626639
-0.621836
-0.616073
-0.609404
-0.604007
-0.593479
-0.588596
-0.582513
-0.579326
-0.684789
-0.682253
-0.678563
-0.673737
-0.669277
-0.665843
-0.665689
-0.662106
-0.653043
-0.650621
-0.740073
-0.737917
-0.735665
-0.732554
-0.729651
-0.728085
-0.729277
-0.726074
-0.719609
-0.71512
-0.797813
-0.796294
-0.795556
-0.794555
-0.793756
-0.793863
-0.794638
-0.791393
-0.786764
-0.778932
373.803
373.201
371.809
369.808
367.443
364.992
362.735
360.88
359.471
358.314
325.057
324.36
322.793
320.546
317.88
315.108
312.559
310.492
308.939
307.4
276.721
275.841
273.894
271.102
267.77
264.282
261.074
258.509
256.58
254.346
228.928
227.714
225.105
221.409
216.952
212.147
207.623
204.052
201.484
198.584
182.106
180.323
176.66
171.576
165.159
158.16
151.381
145.715
141.412
138.486
136.528
133.745
128.346
120.901
112.448
102.157
90.2048
76.3606
66.2292
68.6431
93.4774
89.0244
81.6653
72.8562
60.3498
43.0116
24.7789
9.67771
5.42875
11.1116
54.8503
47.4756
35.8721
23.6411
13.521
6.08443
1.68561
0.676708
0.683014
0.745254
26.2121
14.296
5.35412
1.02328
0.21581
0.246696
0.301961
0.465304
0.516376
0.57943
3.45408
0.717948
0.106667
-0.0500776
0.0368215
0.0300604
0.0758073
0.245289
0.330985
0.388357
-0.305724
-0.17439
-0.177796
-0.222739
-0.257891
-0.241225
-0.120053
0.067411
0.153549
0.218148
-0.440309
-0.410053
-0.44042
-0.452718
-0.432745
-0.392548
-0.236352
-0.0856988
-0.0194328
0.0460835
-0.566045
-0.558693
-0.54806
-0.52588
-0.507815
-0.423748
-0.301531
-0.222086
-0.180037
-0.126781
-0.620043
-0.618738
-0.604796
-0.563769
-0.508538
-0.43216
-0.37159
-0.33654
-0.315294
-0.287228
-0.590009
-0.588567
-0.574508
-0.54648
-0.509755
-0.475676
-0.451538
-0.432138
-0.423453
-0.414929
-0.592025
-0.588832
-0.579674
-0.5672
-0.553726
-0.543573
-0.53122
-0.516642
-0.511826
-0.509037
-0.634604
-0.630325
-0.625082
-0.620086
-0.615612
-0.61261
-0.603761
-0.592779
-0.589026
-0.586412
-0.685426
-0.681608
-0.678151
-0.675379
-0.673023
-0.671
-0.666834
-0.66063
-0.659213
-0.657732
-0.73679
-0.734309
-0.732718
-0.731326
-0.729922
-0.728337
-0.727037
-0.723024
-0.72322
-0.722321
-0.791844
-0.790737
-0.791412
-0.792067
-0.79232
-0.792129
-0.79193
-0.786871
-0.788231
-0.787407
374.79
374.229
372.9
370.982
368.718
366.371
364.197
362.386
361
359.897
326.083
325.441
323.949
321.809
319.275
316.639
314.193
312.163
310.618
309.183
277.849
277.044
275.2
272.559
269.417
266.133
263.089
260.588
258.658
256.541
230.179
229.093
226.65
223.171
219.008
214.597
210.458
207.012
204.209
201.38
183.487
181.91
178.523
173.763
167.866
161.569
155.465
150.134
145.783
142.796
138.077
135.648
130.675
123.705
115.74
106.7
96.3845
85.2792
76.6152
78.0638
95.2184
91.446
84.5795
75.8575
64.6989
49.6707
33.3283
18.5657
10.1267
17.525
55.7266
49.5192
39.3548
27.1499
16.2114
8.7607
4.13884
1.22887
0.6882
0.783666
25.0962
16.1027
7.81943
1.83966
0.0275818
0.106449
0.251665
0.401036
0.474631
0.525564
2.9713
1.31502
0.38402
-0.183907
-0.106691
-0.0320018
0.0491556
0.196111
0.25949
0.323687
-0.221546
-0.200491
-0.247554
-0.284211
-0.307482
-0.271285
-0.141214
0.00540478
0.066532
0.172097
-0.412876
-0.423176
-0.439843
-0.439227
-0.423331
-0.373549
-0.261611
-0.15246
-0.0991844
0.0131241
-0.492949
-0.487887
-0.488857
-0.471141
-0.448185
-0.407563
-0.329265
-0.264425
-0.220098
-0.139333
-0.53915
-0.540063
-0.545271
-0.524117
-0.489832
-0.446865
-0.398004
-0.362543
-0.336704
-0.284134
-0.564644
-0.562458
-0.555184
-0.541449
-0.520195
-0.496117
-0.473253
-0.453753
-0.442737
-0.417254
-0.592609
-0.5898
-0.584912
-0.5765
-0.566458
-0.557256
-0.547044
-0.533566
-0.526201
-0.518805
-0.635777
-0.632857
-0.630675
-0.628239
-0.624344
-0.621184
-0.614762
-0.603999
-0.598542
-0.60193
-0.683787
-0.681704
-0.681014
-0.680879
-0.679636
-0.677821
-0.674182
-0.667026
-0.668457
-0.669632
-0.73136
-0.730822
-0.732462
-0.734056
-0.734639
-0.733619
-0.731367
-0.726515
-0.732699
-0.735182
-0.780638
-0.782431
-0.787117
-0.791053
-0.793396
-0.793761
-0.792751
-0.78915
-0.7998
-0.799037
376.152
375.648
374.395
372.578
370.432
368.208
366.13
364.377
363.034
362.056
327.464
326.904
325.509
323.505
321.132
318.66
316.344
314.38
312.868
311.654
279.307
278.648
276.96
274.506
271.598
268.561
265.712
263.293
261.413
259.706
231.763
230.897
228.669
225.473
221.68
217.714
213.964
210.694
207.991
205.743
185.111
183.882
180.854
176.607
171.384
165.876
160.547
155.676
151.706
149.319
139.743
137.839
133.5
127.223
119.914
112.498
104.545
96.5597
90.6437
90.1547
96.6221
93.4325
87.4327
79.5644
70.3227
58.4804
45.6889
33.6688
25.1447
29.0815
56.2135
51.2751
42.3196
31.4184
19.1759
11.3843
7.25344
4.33727
1.79856
3.28007
23.194
17.3173
9.7755
3.27492
0.223742
-0.129234
0.131773
0.357839
0.446911
0.50077
2.60871
1.71982
0.483873
-0.149091
-0.190346
-0.0628896
0.0565399
0.196021
0.238189
0.311914
-0.0914115
-0.204706
-0.318687
-0.359291
-0.361907
-0.329945
-0.203229
-0.0470747
0.00983267
0.129694
-0.385389
-0.416791
-0.394639
-0.420609
-0.453663
-0.436707
-0.350051
-0.265884
-0.242453
-0.0622924
-0.451438
-0.462889
-0.471742
-0.47286
-0.470273
-0.453135
-0.398886
-0.366369
-0.365303
-0.21435
-0.50768
-0.5108
-0.517214
-0.516968
-0.510239
-0.490675
-0.451028
-0.423708
-0.417105
-0.335966
-0.54809
-0.548216
-0.547878
-0.547706
-0.545633
-0.534732
-0.515612
-0.494062
-0.483435
-0.449623
-0.591488
-0.591847
-0.592096
-0.591656
-0.589662
-0.584755
-0.576585
-0.56382
-0.555178
-0.542871
-0.63871
-0.638623
-0.640169
-0.64132
-0.640251
-0.638126
-0.633114
-0.624295
-0.618235
-0.613342
-0.683115
-0.683554
-0.686842
-0.689398
-0.6902
-0.689071
-0.685675
-0.681697
-0.678232
-0.675485
-0.720634
-0.724112
-0.731666
-0.737252
-0.740447
-0.74086
-0.738105
-0.736779
-0.737567
-0.737584
-0.757704
-0.766207
-0.778836
-0.78848
-0.793829
-0.796503
-0.794574
-0.795597
-0.800077
-0.800316
377.823
377.361
376.184
374.481
372.471
370.388
368.44
366.783
365.522
364.677
329.158
328.691
327.392
325.519
323.323
321.043
318.899
317.063
315.651
314.652
281.086
280.597
279.058
276.815
274.168
271.412
268.816
266.583
264.854
263.53
233.657
233.067
231.072
228.182
224.796
221.292
217.992
215.088
212.752
211.051
187.009
186.239
183.6
179.808
175.422
170.677
166.164
162.039
158.711
156.843
141.566
140.478
136.77
131.43
125.06
118.491
112.624
106.967
102.596
101.329
98.2469
96.7104
91.201
84.2124
76.2105
67.7701
58.3248
49.722
43.2975
43.9953
58.0673
55.0585
46.4173
36.8439
25.8783
16.0102
10.9451
8.58818
6.19595
7.38864
23.0287
20.1579
11.8898
4.91216
1.18844
-0.371234
-0.290991
0.247118
0.506429
0.595185
3.87143
1.80775
0.433239
-0.131804
-0.468537
-0.309612
-0.0158647
0.25789
0.389502
0.46958
-0.121304
-0.363203
-0.41879
-0.453962
-0.482663
-0.473064
-0.300018
-0.0883074
0.0460395
0.181194
-0.394013
-0.435062
-0.348084
-0.400793
-0.486983
-0.508807
-0.438075
-0.365565
-0.322911
-0.133972
-0.445498
-0.475188
-0.476338
-0.490379
-0.518354
-0.529565
-0.499904
-0.494073
-0.554741
-0.335047
-0.491595
-0.497484
-0.507374
-0.527713
-0.547044
-0.550406
-0.528026
-0.528535
-0.579982
-0.430727
-0.540935
-0.538018
-0.548355
-0.565153
-0.578799
-0.580327
-0.570487
-0.564255
-0.565969
-0.50106
-0.59867
-0.5987
-0.602543
-0.612503
-0.61878
-0.618792
-0.614157
-0.607497
-0.598248
-0.575122
-0.652631
-0.657604
-0.656811
-0.660971
-0.662218
-0.661427
-0.658809
-0.655587
-0.646913
-0.636811
-0.690477
-0.6935
-0.697635
-0.702583
-0.704837
-0.704878
-0.703307
-0.701276
-0.696267
-0.68932
-0.701051
-0.713828
-0.730862
-0.741439
-0.7483
-0.750747
-0.750223
-0.748699
-0.746199
-0.743996
-0.710384
-0.735447
-0.765501
-0.784638
-0.795445
-0.80077
-0.802449
-0.801681
-0.800909
-0.801134
379.655
379.256
378.137
376.539
374.671
372.741
370.938
369.404
368.246
367.518
331.109
330.712
329.475
327.714
325.681
323.602
321.654
319.981
318.704
317.876
283.137
282.801
281.373
279.317
276.935
274.475
272.159
270.165
268.632
267.581
235.799
235.563
233.729
231.138
228.164
225.122
222.285
219.805
217.853
216.555
188.802
188.9
186.561
183.334
179.611
175.827
172.107
168.684
166.013
164.523
144.563
143.084
140.156
135.867
130.758
125.347
120.398
116.145
112.909
111.355
100.856
100.069
95.1555
89.45
83.0324
76.2485
69.854
64.6462
60.4896
59.7316
61.1065
57.3584
50.1906
42.5139
34.0951
25.6191
18.4754
14.8352
12.4298
12.9903
23.3923
21.6028
12.6678
7.06286
2.59962
-0.00114421
-1.38384
-0.642253
0.270875
0.710093
3.88363
2.05175
0.975629
0.339182
-0.594836
-1.01711
-0.646145
-0.0454509
0.40223
0.659761
-0.719991
-0.699318
-0.458384
-0.51941
-0.655264
-0.721112
-0.527267
-0.240444
0.00440457
0.236126
-0.391394
-0.506492
-0.363423
-0.437416
-0.590603
-0.62209
-0.523365
-0.467693
-0.41199
-0.18615
-0.428929
-0.491306
-0.482307
-0.52737
-0.592797
-0.630542
-0.60559
-0.619727
-0.668111
-0.466568
-0.464703
-0.504898
-0.496982
-0.538013
-0.58567
-0.611726
-0.609327
-0.640721
-0.756542
-0.561513
-0.498454
-0.522025
-0.547057
-0.575339
-0.607528
-0.624783
-0.630385
-0.651364
-0.703172
-0.585937
-0.542636
-0.5762
-0.610924
-0.630439
-0.645732
-0.652604
-0.655011
-0.661287
-0.6619
-0.614793
-0.629962
-0.650245
-0.674199
-0.682983
-0.685609
-0.686395
-0.685939
-0.685114
-0.677493
-0.661142
-0.688838
-0.692232
-0.712255
-0.718405
-0.72208
-0.722987
-0.722448
-0.721002
-0.715823
-0.707395
-0.692936
-0.698445
-0.727644
-0.745062
-0.758095
-0.762189
-0.762367
-0.760923
-0.757738
-0.754587
-0.674143
-0.693029
-0.742428
-0.77881
-0.798094
-0.805313
-0.806691
-0.806307
-0.805171
-0.806274
381.554
381.189
380.079
378.552
376.814
375.042
373.388
371.978
370.924
370.295
333.203
332.826
331.578
329.885
327.99
326.09
324.341
322.839
321.696
321.001
285.448
285.135
283.722
281.77
279.629
277.474
275.426
273.662
272.317
271.473
238.412
238.313
236.501
234.096
231.455
228.887
226.466
224.357
222.688
221.654
191.356
191.792
189.651
186.964
183.835
180.709
177.779
175.089
172.948
171.611
144.48
145.855
143.627
140.415
136.496
132.321
128.242
124.722
121.936
120.455
103.954
103.627
99.7035
95.1391
90.211
85.0074
80.1653
76.3951
73.4052
72.0928
64.6219
58.6716
54.949
49.0656
43.2648
36.7666
30.7955
26.2546
22.8012
21.4558
30.9123
20.7224
16.2961
12.2737
7.84935
3.23437
-0.318856
-1.97489
-0.372874
1.01654
8.24259
2.41711
1.00085
0.509834
-0.261689
-0.59202
-1.0287
-1.03436
-0.278341
0.512411
-1.15399
-0.563915
-0.334993
-0.474814
-0.714903
-0.899243
-0.833493
-0.56878
-0.234594
0.115302
-0.302778
-0.445509
-0.402308
-0.531249
-0.74607
-0.822134
-0.703582
-0.620148
-0.558822
-0.297832
-0.281666
-0.378096
-0.438832
-0.533289
-0.656688
-0.711738
-0.705985
-0.732723
-0.777144
-0.584987
-0.37756
-0.383925
-0.422321
-0.52984
-0.616105
-0.659152
-0.685381
-0.740734
-0.866446
-0.705296
-0.498258
-0.433867
-0.439433
-0.556592
-0.625033
-0.660505
-0.688563
-0.733202
-0.852261
-0.695229
-0.635274
-0.588005
-0.571407
-0.623013
-0.656828
-0.677922
-0.694447
-0.725317
-0.761403
-0.671328
-0.736153
-0.708007
-0.74241
-0.706307
-0.699457
-0.705853
-0.711859
-0.721054
-0.720006
-0.687616
-0.73289
-0.751179
-0.803505
-0.748044
-0.741713
-0.741078
-0.741122
-0.739998
-0.735786
-0.725537
-0.69292
-0.723008
-0.768418
-0.763495
-0.774234
-0.776835
-0.776289
-0.772797
-0.768618
-0.765973
-0.663288
-0.685924
-0.748597
-0.781184
-0.805517
-0.813364
-0.814168
-0.811575
-0.808805
-0.810606
383.393
382.998
381.848
380.345
378.691
377.046
375.541
374.232
373.264
372.702
335.293
334.872
333.513
331.832
330.039
328.277
326.672
325.332
324.303
323.703
287.958
287.48
285.922
284.008
282.068
280.11
278.291
276.712
275.514
274.815
241.572
241.141
239.14
236.73
234.456
232.271
230.136
228.322
226.87
226.041
195.171
194.655
192.6
190.108
187.633
185.119
182.682
180.48
178.596
177.501
149.513
149.812
147.006
144.963
141.869
138.6
135.491
132.698
130.283
128.796
107.088
107.66
105.772
101.754
97.4915
93.2754
89.5003
86.6533
83.6208
81.9001
68.5158
64.6678
61.7492
57.6362
52.9173
47.5688
43.8406
41.1659
37.3614
35.1934
37.1922
33.4761
32.8734
26.9995
16.6543
9.83294
8.16062
6.95393
5.09511
4.74288
10.4278
8.1481
5.09859
3.42849
0.616914
-0.0111844
-0.297813
-1.03122
-0.948744
0.221116
0.761215
1.29725
0.83237
0.135078
-0.375046
-0.765863
-0.948188
-0.935961
-0.677803
-0.165808
-0.160953
-0.111947
-0.147863
-0.414961
-0.681418
-0.886002
-0.927474
-0.884338
-0.754343
-0.439674
-0.167279
-0.256242
-0.353714
-0.48977
-0.638756
-0.744555
-0.804458
-0.846715
-0.877112
-0.683472
-0.338899
-0.368729
-0.441816
-0.541796
-0.630846
-0.691779
-0.749725
-0.816773
-0.940473
-0.800904
-0.457116
-0.490735
-0.508472
-0.609888
-0.649239
-0.687178
-0.73945
-0.794987
-0.960806
-0.787081
-0.581515
-0.596205
-0.668975
-0.682048
-0.683004
-0.700419
-0.731739
-0.782608
-0.86092
-0.733343
-0.694353
-0.721331
-0.762482
-0.732815
-0.726857
-0.727513
-0.737905
-0.759047
-0.774763
-0.715198
-0.658081
-0.75683
-0.79227
-0.77065
-0.769869
-0.76303
-0.760942
-0.760765
-0.757994
-0.741135
-0.691081
-0.72993
-0.779318
-0.788616
-0.800935
-0.797152
-0.792485
-0.785815
-0.778664
-0.776037
-0.69123
-0.714972
-0.769399
-0.802044
-0.825398
-0.828149
-0.82511
-0.817823
-0.811703
-0.814132
384.919
384.372
383.031
381.505
379.967
378.478
377.098
375.901
375.005
374.485
337.203
336.498
334.742
332.936
331.334
329.805
328.391
327.19
326.242
325.71
290.307
289.422
287.07
284.68
283.207
281.902
280.361
278.995
277.896
277.299
244.664
243.39
240.463
237.62
235.212
234.354
232.832
231.305
230.019
229.337
199.039
196.79
193.584
191.709
189.584
188.257
186.45
184.591
182.971
182.04
153.375
151.648
151.263
147.98
145.375
143.275
140.987
138.811
136.758
135.475
114.567
115.133
113.714
108.26
103.909
100.071
96.9777
95.0331
92.5734
90.6229
75.202
69.9143
72.9545
67.0208
61.5601
56.2984
54.2564
53.1769
51.1514
49.3654
42.5636
48.5185
54.4944
60.0705
29.9471
17.9416
18.4514
17.9917
18.6079
18.073
17.6055
20.8648
18.4174
13.6935
4.88977
1.32298
1.61968
0.687017
0.467281
2.20639
3.60883
5.61268
4.61516
3.00459
0.908775
0.0970465
-0.261907
-0.765429
-0.926244
-0.310407
0.240452
0.679705
0.527677
-0.151778
-0.38703
-0.529109
-0.77825
-0.94549
-0.8794
-0.533273
-0.0379523
-0.0943672
-0.333402
-0.503742
-0.535041
-0.627595
-0.797357
-0.898217
-0.953943
-0.746262
-0.213595
-0.347329
-0.503268
-0.540709
-0.585265
-0.671568
-0.782518
-0.869249
-1.00635
-0.850427
-0.308359
-0.460652
-0.572581
-0.584458
-0.623523
-0.684451
-0.771144
-0.844756
-1.01569
-0.840627
-0.505162
-0.586828
-0.658374
-0.644937
-0.667914
-0.697187
-0.754227
-0.828232
-0.911201
-0.775954
-0.599105
-0.676711
-0.741639
-0.721176
-0.735139
-0.731558
-0.758491
-0.790712
-0.806109
-0.738529
-0.651108
-0.796843
-0.796123
-0.792999
-0.79622
-0.779328
-0.781983
-0.783707
-0.771989
-0.751117
-0.647032
-0.785454
-0.815993
-0.831354
-0.838371
-0.821489
-0.814176
-0.80559
-0.788581
-0.781644
-0.63912
-0.793914
-0.828817
-0.845578
-0.861149
-0.852516
-0.844435
-0.83208
-0.817385
-0.815312
386.076
385.152
383.531
382.108
380.652
379.255
377.951
376.813
375.955
375.454
338.76
337.256
334.937
333.441
332.17
330.692
329.335
328.209
327.305
326.807
292.347
290.288
286.993
284.772
283.766
282.903
281.483
280.267
279.21
278.667
247.051
244.982
241.383
237.679
236.402
236.139
234.396
233.008
231.783
231.189
201.705
198.774
195.236
194.668
194.086
190.442
188.893
187.046
185.516
184.684
157.125
154.754
156.001
156.638
150.19
146.586
144.692
142.501
140.596
139.584
119.639
115.026
118.041
114.844
108.736
104.576
102.286
100.273
98.1332
97.2174
79.5358
67.4602
77.4355
76.9036
67.1973
61.399
61.9515
60.773
58.6472
57.4824
54.8052
54.4472
57.6057
52.0726
34.6123
29.1344
34.833
27.7635
26.3228
33.1139
30.2042
31.88
28.2566
22.5491
13.5547
9.02348
9.56363
7.23147
4.17282
8.98824
8.34053
12.1028
12.6228
9.96787
3.18066
2.12863
2.40902
0.892246
-0.353053
-0.115925
1.41631
2.34445
3.70929
1.3275
0.334035
0.148169
-0.171972
-0.720618
-0.912002
-0.63815
0.177076
0.246012
0.206969
-0.220907
-0.237782
-0.354067
-0.607673
-0.907426
-1.07749
-0.852763
-0.221169
-0.275882
-0.40538
-0.432332
-0.436559
-0.534558
-0.691481
-0.87859
-1.12287
-0.898513
-0.417295
-0.44701
-0.505516
-0.516461
-0.551895
-0.609939
-0.703844
-0.799189
-1.03993
-0.855223
-0.587834
-0.5529
-0.586722
-0.590062
-0.633578
-0.66331
-0.709589
-0.807036
-0.888914
-0.791982
-0.703493
-0.628455
-0.661095
-0.674345
-0.720946
-0.725079
-0.730477
-0.787625
-0.796052
-0.752477
-0.752311
-0.694194
-0.753054
-0.778752
-0.807742
-0.788622
-0.770149
-0.783551
-0.778679
-0.758064
-0.687562
-0.647622
-0.84355
-0.855449
-0.872067
-0.838667
-0.815856
-0.811185
-0.797874
-0.78284
-0.628699
-0.684506
-0.894644
-0.88467
-0.899945
-0.873476
-0.856203
-0.838175
-0.823286
-0.812701
386.362
385.291
383.601
382.051
380.621
379.269
377.98
376.865
376.01
375.506
339.402
337.581
335.146
333.353
331.887
330.632
329.397
328.276
327.369
326.868
292.727
290.579
287.154
284.602
283.427
282.854
281.572
280.346
279.303
278.752
246.575
244.515
240.931
236.994
235.539
236.062
234.731
233.268
231.953
231.328
201.062
198.97
195.26
196.019
196.191
191.208
189.523
187.511
185.818
184.925
158.631
158.454
157.379
156.826
153.383
148.577
146.015
143.462
141.181
140.016
120.432
118.151
117.741
116.043
112.396
107.564
104.988
102.416
99.3061
97.9421
83.7371
74.7335
79.0416
81.4427
69.5535
63.2625
64.9101
65.6376
61.5014
59.1248
61.8848
58.1544
61.0485
70.0317
53.5284
46.3359
56.4909
41.6397
33.061
36.7702
36.4244
32.5027
29.3018
27.5499
21.962
21.3636
20.7014
15.3056
8.88936
11.5819
14.0171
10.5152
10.3703
9.88916
6.31841
6.45608
6.76311
4.41423
0.970759
0.129498
1.37275
1.10777
1.74657
1.19703
0.275549
0.60785
1.2596
-0.190663
-0.860414
-0.790719
-0.210788
-0.313374
-0.393062
-0.369917
-0.372381
-0.44355
-0.241092
-0.701297
-1.23807
-0.978579
-0.444002
-0.487731
-0.561577
-0.553725
-0.534071
-0.582255
-0.683005
-0.778409
-1.16967
-0.928733
-0.556395
-0.546311
-0.576991
-0.586693
-0.589585
-0.626689
-0.715432
-0.812704
-0.954623
-0.831827
-0.636471
-0.583328
-0.590279
-0.598711
-0.613087
-0.654586
-0.709765
-0.766408
-0.800164
-0.765511
-0.709238
-0.635081
-0.605726
-0.627299
-0.654067
-0.707281
-0.727714
-0.767946
-0.782776
-0.747129
-0.767767
-0.719156
-0.672558
-0.711559
-0.780512
-0.787803
-0.766746
-0.786772
-0.808483
-0.76377
-0.776293
-0.789503
-0.763161
-0.807356
-0.845341
-0.84607
-0.810486
-0.814507
-0.819033
-0.78342
-0.735483
-0.823243
-0.832799
-0.86805
-0.889891
-0.881964
-0.856708
-0.842761
-0.830148
-0.808309
385.008
384.544
383.215
381.707
380.151
378.638
377.255
376.059
375.159
374.631
337.281
336.665
334.957
333.179
331.545
329.978
328.562
327.371
326.414
325.875
290.272
289.378
287.136
284.905
283.51
282.168
280.695
279.25
278.13
277.514
243.74
242.416
239.652
237.339
235.363
234.433
233.183
231.724
230.37
229.649
198.126
197.551
196.971
192.373
190.341
188.92
187.369
185.432
183.586
182.55
157.776
157.856
153.277
149.181
146.389
144.88
143.07
140.578
137.9
136.388
118.676
115.308
112.203
108.678
104.336
104.402
102.15
98.8292
94.6573
92.1914
82.2722
71.3727
69.4171
67.5774
60.0755
60.8493
63.0881
61.8069
55.1349
51.1755
51.8264
42.7414
39.7344
39.4016
30.2979
58.5884
74.4833
42.4482
24.203
18.6858
21.6557
17.8275
16.1211
14.3916
11.0956
18.5583
19.7004
11.5884
4.251
3.14849
3.68341
3.87402
3.60512
2.81307
2.10462
3.87964
4.62858
2.4532
-0.189203
-0.285684
-0.344455
-0.359345
-0.130576
-0.230435
-0.128423
-0.0105582
0.186863
-0.732656
-1.0265
-0.803019
-0.564255
-0.612884
-0.555049
-0.503328
-0.465693
-0.590959
-0.351171
-0.823566
-1.16468
-0.951725
-0.529874
-0.557954
-0.572387
-0.576129
-0.593935
-0.69812
-0.654236
-0.855702
-1.14734
-0.91189
-0.585898
-0.554974
-0.576288
-0.590394
-0.610484
-0.690318
-0.760098
-0.818569
-0.934146
-0.826286
-0.622437
-0.54267
-0.553906
-0.56263
-0.584374
-0.673954
-0.723824
-0.765363
-0.782634
-0.763465
-0.690865
-0.564567
-0.534067
-0.538042
-0.561574
-0.662028
-0.722692
-0.77117
-0.778021
-0.750734
-0.779309
-0.671859
-0.59221
-0.593621
-0.644316
-0.707269
-0.752564
-0.78652
-0.808582
-0.766689
-0.832052
-0.855375
-0.696081
-0.711932
-0.79363
-0.819807
-0.798464
-0.808404
-0.803552
-0.780256
-0.847271
-0.940228
-0.824014
-0.819
-0.873559
-0.888326
-0.845345
-0.838433
-0.822866
-0.807448
383.297
383.052
381.973
380.518
378.903
377.279
375.756
374.462
373.488
372.917
335.102
334.824
333.572
331.986
330.24
328.522
326.963
325.602
324.551
323.936
287.31
287.196
285.941
284.197
282.364
280.503
278.661
277.067
275.825
275.094
239.9
239.502
238.464
236.6
234.665
232.723
230.695
228.86
227.28
226.4
193.841
196.58
192.655
190.551
188.402
186.2
183.827
181.379
179.217
177.994
154.043
151.971
148.675
146.001
143.436
140.753
137.729
134.432
131.282
129.529
115.001
109.31
106.644
103.238
99.8783
97.3519
94.1764
90.0632
85.0093
82.847
74.1941
64.3574
60.762
58.1816
54.7945
54.8672
54.4027
47.7644
39.2025
35.6583
28.3174
26.637
21.1621
16.0291
16.0099
31.419
32.1595
16.8692
5.41666
3.80995
7.41134
4.67656
3.297
3.48911
2.59761
4.65014
4.3634
1.27172
-0.228992
0.193722
-0.524986
-0.0934552
0.0756893
0.0673587
0.0133463
0.217706
0.222237
-0.656696
-0.863853
-0.404551
-0.642556
-0.617964
-0.53155
-0.583933
-0.486695
-0.558783
-0.750443
-1.01591
-1.10559
-0.793544
-0.64334
-0.655566
-0.612971
-0.588364
-0.56931
-0.669281
-0.797255
-0.938509
-1.09065
-0.88709
-0.600487
-0.608373
-0.614211
-0.61489
-0.63909
-0.722152
-0.782175
-0.861907
-1.04657
-0.857185
-0.628257
-0.598757
-0.59684
-0.605584
-0.63079
-0.711614
-0.766144
-0.819474
-0.899521
-0.798067
-0.642479
-0.584554
-0.561576
-0.559768
-0.565769
-0.657735
-0.72436
-0.768982
-0.780896
-0.754761
-0.664446
-0.581461
-0.528073
-0.501128
-0.502563
-0.600187
-0.691387
-0.742706
-0.752179
-0.746858
-0.707671
-0.6215
-0.548916
-0.499398
-0.51758
-0.617686
-0.701501
-0.751179
-0.765058
-0.757257
-0.770522
-0.739295
-0.652272
-0.605692
-0.657703
-0.70128
-0.749798
-0.783157
-0.781288
-0.775296
-0.829913
-0.857781
-0.799384
-0.760418
-0.764266
-0.785942
-0.818418
-0.825791
-0.81294
-0.809209
381.462
381.253
380.229
378.763
377.073
375.338
373.675
372.26
371.194
370.553
332.901
332.789
331.685
330.079
328.245
326.39
324.659
323.144
321.978
321.266
284.518
284.949
283.795
281.985
279.967
277.83
275.809
274.018
272.627
271.755
236.123
237.008
236.143
234.087
231.741
229.313
226.97
224.807
223.035
221.958
192.924
191.087
189.87
187.492
184.672
181.721
178.681
175.745
173.368
171.914
152.214
146.41
144.711
141.705
138.077
134.1
129.755
125.726
122.424
120.707
109.255
103.701
101.259
96.8423
92.5733
88.2259
83.0293
78.1461
74.1728
72.6887
66.4454
57.2591
55.0366
52.0013
47.8421
43.694
36.0226
28.1176
22.6459
21.1368
17.9384
12.3786
9.40333
8.78878
10.3057
9.98452
3.75785
-1.84726
-1.28382
0.0796274
1.66769
-0.897165
-1.06109
1.27213
1.26502
0.785517
-0.42986
-1.00199
-0.554318
0.0736388
-0.828585
-1.1748
-1.06514
-0.739955
-0.697744
-0.69791
-0.888584
-1.01188
-0.781282
-0.422991
-0.648666
-0.608174
-0.658877
-0.676175
-0.599441
-0.724108
-0.887143
-1.00876
-0.982415
-0.728894
-0.666849
-0.644451
-0.666511
-0.638858
-0.631724
-0.707401
-0.79111
-0.870087
-0.977518
-0.790971
-0.627486
-0.629364
-0.638443
-0.629772
-0.639461
-0.695769
-0.748274
-0.782271
-0.923261
-0.77124
-0.645047
-0.62374
-0.620175
-0.619776
-0.6311
-0.679246
-0.726234
-0.74933
-0.817033
-0.73976
-0.655098
-0.621379
-0.601993
-0.59745
-0.605798
-0.65181
-0.702273
-0.7277
-0.748573
-0.72973
-0.676536
-0.635822
-0.599222
-0.586376
-0.593883
-0.638931
-0.69031
-0.721887
-0.73002
-0.735513
-0.713826
-0.681254
-0.633974
-0.610443
-0.620749
-0.666694
-0.704696
-0.734954
-0.741038
-0.748498
-0.758045
-0.744047
-0.704693
-0.680668
-0.692851
-0.7238
-0.745711
-0.765743
-0.768621
-0.774474
-0.801229
-0.815485
-0.80377
-0.792894
-0.793352
-0.792928
-0.800054
-0.808713
-0.807894
-0.813313
379.648
379.363
378.322
376.787
374.96
373.061
371.262
369.719
368.546
367.803
330.921
330.745
329.63
327.952
325.997
323.94
321.993
320.301
318.999
318.153
282.453
282.779
281.549
279.612
277.286
274.857
272.528
270.492
268.912
267.838
234.197
234.856
233.696
231.341
228.54
225.568
222.705
220.136
218.087
216.756
191.735
188.478
186.974
183.969
180.421
176.568
172.676
169.027
166.168
164.626
146.846
143.299
141.201
137.115
132.13
126.515
121.023
116.429
112.928
111.396
103.594
99.9506
96.6528
91.1323
85.1351
78.1044
71.0007
65.3139
60.9079
59.8807
58.5747
53.3738
52.3918
46.3326
38.8758
28.5785
18.6818
14.0405
12.0609
12.44
17.9577
12.0678
12.6665
10.3599
6.31746
0.485362
-2.55482
-1.35498
-0.287125
0.0594007
0.383243
-1.47785
0.0770425
1.98296
1.03133
-0.102343
-0.74227
-0.473578
-0.131607
0.115915
-0.485751
-0.614971
-0.733272
-0.736963
-0.728255
-0.770486
-0.826156
-0.747253
-0.560002
-0.365656
-0.639742
-0.577513
-0.660273
-0.627322
-0.540859
-0.665417
-0.812867
-0.869018
-0.80422
-0.606925
-0.643978
-0.625573
-0.701698
-0.675622
-0.658205
-0.688322
-0.730205
-0.772383
-0.824252
-0.662181
-0.630721
-0.628444
-0.639549
-0.638203
-0.642867
-0.668215
-0.690326
-0.70862
-0.762472
-0.667636
-0.646835
-0.636146
-0.632739
-0.632891
-0.640191
-0.6605
-0.681335
-0.697559
-0.718803
-0.680888
-0.659242
-0.643217
-0.630213
-0.625365
-0.632715
-0.652336
-0.674416
-0.692314
-0.70674
-0.699966
-0.681382
-0.658519
-0.637826
-0.630192
-0.634702
-0.656073
-0.678078
-0.697072
-0.709412
-0.716449
-0.717095
-0.694941
-0.67147
-0.659034
-0.660396
-0.682902
-0.703169
-0.71947
-0.728535
-0.738523
-0.761143
-0.747035
-0.731456
-0.72303
-0.723935
-0.735057
-0.746622
-0.756861
-0.764155
-0.773163
-0.807002
-0.805888
-0.801872
-0.798782
-0.798459
-0.797762
-0.800865
-0.804347
-0.808362
-0.815368
377.928
377.54
376.426
374.779
372.8
370.741
368.797
367.13
365.85
364.99
329.221
328.845
327.618
325.811
323.667
321.408
319.26
317.401
315.961
314.942
280.994
280.739
279.319
277.133
274.54
271.797
269.181
266.899
265.112
263.763
233.554
233.054
231.277
228.494
225.2
221.709
218.349
215.336
212.89
211.163
187.537
186.427
184.118
180.469
176.068
171.217
166.497
162.14
158.603
156.727
142.853
140.863
137.727
132.527
126.032
119.117
112.829
106.847
102.169
100.874
99.4512
96.9875
92.643
85.8548
77.4638
68.1194
58.2409
49.4781
43.1261
43.9932
55.8143
52.8824
49.7937
40.9595
28.9516
16.3173
9.68173
7.62293
5.38264
6.79075
18.4764
17.2514
14.2539
7.86936
1.48663
-0.977703
-0.806346
-0.150567
0.0810909
0.114757
0.367694
0.0859312
1.09716
0.221179
-1.07705
-0.650662
-0.354387
-0.124505
-0.00566553
0.0372454
-0.326925
-0.26553
-0.443856
-0.742809
-0.71881
-0.646769
-0.587886
-0.48878
-0.385459
-0.266144
-0.588828
-0.53382
-0.606612
-0.589675
-0.53509
-0.614466
-0.675009
-0.651322
-0.592387
-0.446871
-0.615606
-0.598679
-0.676811
-0.679998
-0.646246
-0.628829
-0.627878
-0.631947
-0.625736
-0.527935
-0.622912
-0.621313
-0.637645
-0.633262
-0.634309
-0.633255
-0.628787
-0.628574
-0.630966
-0.585507
-0.642169
-0.642757
-0.636163
-0.633078
-0.635334
-0.639306
-0.6449
-0.649933
-0.652319
-0.633683
-0.659981
-0.655385
-0.643743
-0.638156
-0.641763
-0.648094
-0.657002
-0.666146
-0.672763
-0.667525
-0.68485
-0.672894
-0.660312
-0.654544
-0.655858
-0.664682
-0.676462
-0.685619
-0.692393
-0.695556
-0.720534
-0.707669
-0.694183
-0.685891
-0.685662
-0.697087
-0.708028
-0.716879
-0.723537
-0.729678
-0.762684
-0.752962
-0.742282
-0.731018
-0.732507
-0.74479
-0.753416
-0.759657
-0.765323
-0.771061
-0.808219
-0.804174
-0.799645
-0.794829
-0.79388
-0.801241
-0.80743
-0.810292
-0.813001
-0.816671
376.378
375.902
374.7
372.912
370.8
368.598
366.528
364.766
363.403
362.406
327.674
327.144
325.796
323.845
321.51
319.059
316.744
314.76
313.216
311.975
279.499
278.926
277.273
274.87
271.994
268.974
266.114
263.647
261.696
259.95
231.938
231.11
228.988
225.845
222.103
218.137
214.339
210.954
208.103
205.817
185.702
184.33
181.454
177.189
171.936
166.308
160.868
155.772
151.435
148.951
140.662
138.457
134.34
128.019
120.432
112.784
104.709
96.4077
89.9254
89.153
97.0182
94.0099
88.7262
80.6462
70.386
57.888
44.9838
32.8444
24.437
29.5062
55.2944
51.7739
45.3666