/*--------------------------------*- C++ -*----------------------------------*\
| =========                 |                                                 |
| \\      /  F ield         | OpenFOAM: The Open Source CFD Toolbox           |
|  \\    /   O peration     | Version:  2312                                  |
|   \\  /    A nd           | Website:  www.openfoam.com                      |
|    \\/     M anipulation  |                                                 |
\*---------------------------------------------------------------------------*/
FoamFile
{
    version     2.0;
    format      ascii;
    arch        "LSB;label=32;scalar=64";
    class       volScalarField;
    location    "0.615";
    object      p;
}
// * * * * * * * * * * * * * * * * * * * * * * * * * * * * * * * * * * * * * //

dimensions      [1 -1 -2 0 0 0 0];

internalField   nonuniform List<scalar> 
8000
(
362.807
361.857
359.917
357.169
353.864
350.324
346.9
343.959
341.799
340.338
314.248
313.19
311.028
307.963
304.253
300.226
296.281
292.858
290.373
288.674
266.361
265.052
262.407
258.662
254.093
249.029
243.959
239.461
236.213
234.193
219.294
217.57
214.141
209.309
203.378
196.656
189.63
183.253
178.837
176.675
173.52
171.089
166.481
160.131
152.143
142.777
132.97
123.312
115.802
114.212
129.507
125.663
118.962
110.376
100.166
88.3439
74.5304
57.6443
42.7946
43.4984
87.0277
82.5205
73.9219
63.8645
49.7674
33.5696
19.8486
10.0981
4.81102
6.6915
51.5004
43.6594
31.6515
19.5898
10.4123
4.58948
1.27885
0.993384
1.10566
1.27571
26.6625
13.7275
5.12239
1.31345
0.44631
0.441838
0.57336
0.693205
0.822106
0.92271
7.35566
1.94562
0.639483
0.319131
0.184037
0.161704
0.258625
0.416532
0.540611
0.629416
-0.20738
-0.151389
-0.138397
-0.151134
-0.181602
-0.135426
0.00162065
0.164421
0.277268
0.357197
-0.375824
-0.372607
-0.393049
-0.400732
-0.387281
-0.309874
-0.170025
-0.0450303
0.0425179
0.104563
-0.530646
-0.533165
-0.529392
-0.504359
-0.469667
-0.391467
-0.291788
-0.216051
-0.156808
-0.116101
-0.615572
-0.612487
-0.596466
-0.557331
-0.510441
-0.448651
-0.397792
-0.353253
-0.319124
-0.297237
-0.625771
-0.623606
-0.612858
-0.587137
-0.551462
-0.517172
-0.491919
-0.46502
-0.446877
-0.434616
-0.637298
-0.63629
-0.630644
-0.618555
-0.602641
-0.588811
-0.571311
-0.556571
-0.548871
-0.539178
-0.678058
-0.67734
-0.674052
-0.667633
-0.659864
-0.654367
-0.639538
-0.633853
-0.631048
-0.625003
-0.732774
-0.731611
-0.728763
-0.723924
-0.718289
-0.715438
-0.712223
-0.707989
-0.702077
-0.698408
-0.790957
-0.789888
-0.787899
-0.783986
-0.779844
-0.777645
-0.77897
-0.774718
-0.768591
-0.763987
-0.854264
-0.853557
-0.852269
-0.84956
-0.846346
-0.844217
-0.844078
-0.839301
-0.834664
-0.828542
363.416
362.49
360.587
357.935
354.779
351.428
348.225
345.487
343.43
341.826
314.846
313.801
311.736
308.801
305.279
301.51
297.887
294.763
292.419
290.407
266.96
265.716
263.196
259.628
255.312
250.631
246.067
242.003
238.845
236.254
219.822
218.227
214.996
210.402
204.764
198.454
192.062
186.311
181.875
178.902
174.08
171.874
167.55
161.392
153.526
144.591
135.322
125.971
117.614
115.995
129.831
126.576
120.376
111.891
101.531
89.2996
74.8163
57.4485
40.6249
43.3124
88.4821
83.7101
75.5674
64.958
50.1557
32.7323
16.4891
7.20424
3.23467
5.24908
51.5602
45.2214
33.3771
20.3693
9.52534
3.80956
1.05203
0.850886
0.970213
1.1872
27.3697
15.239
5.28087
1.24694
0.22298
0.284476
0.456282
0.631379
0.765111
0.891482
6.56869
1.37676
0.253178
-0.02672
-0.0123114
0.0110903
0.126746
0.319459
0.473625
0.601809
-0.417805
-0.309275
-0.275218
-0.290075
-0.326066
-0.310747
-0.175469
0.0465037
0.19708
0.324863
-0.48429
-0.490285
-0.505873
-0.498309
-0.508493
-0.487413
-0.337579
-0.144733
-0.0308607
0.074535
-0.586512
-0.591156
-0.578662
-0.577235
-0.581652
-0.532238
-0.395691
-0.27942
-0.209344
-0.138134
-0.667935
-0.674592
-0.678975
-0.648878
-0.606206
-0.529207
-0.439563
-0.388416
-0.354376
-0.31684
-0.680185
-0.681786
-0.672593
-0.642976
-0.598526
-0.543482
-0.502423
-0.481299
-0.471261
-0.456517
-0.664309
-0.661636
-0.651632
-0.63426
-0.611458
-0.59055
-0.57513
-0.561753
-0.559251
-0.55664
-0.682701
-0.68012
-0.675181
-0.667869
-0.659492
-0.65445
-0.646857
-0.637035
-0.636191
-0.634606
-0.728143
-0.726011
-0.723931
-0.721324
-0.718332
-0.717396
-0.713389
-0.707433
-0.706819
-0.704919
-0.78253
-0.781495
-0.781043
-0.779913
-0.778069
-0.776705
-0.775314
-0.771864
-0.772192
-0.770228
-0.845554
-0.845506
-0.846099
-0.845465
-0.843506
-0.841137
-0.839573
-0.834688
-0.835385
-0.83458
364.362
363.486
361.697
359.191
356.219
353.072
350.062
347.479
345.534
344.038
315.844
314.879
312.915
310.147
306.845
303.327
299.942
297.013
294.822
292.962
268.022
266.88
264.521
261.175
257.153
252.827
248.633
244.95
242.107
239.623
221.036
219.584
216.587
212.283
207.075
201.379
195.76
190.689
186.466
183.537
175.332
173.399
169.478
163.716
156.576
148.664
140.752
133.126
126.202
123.9
131.1
128.297
122.677
114.766
105.252
94.461
82.6586
69.4667
58.0067
59.0702
89.9075
85.981
78.7957
68.7784
55.0801
39.4326
25.0966
13.9889
7.52319
10.6792
52.3663
47.4705
37.1963
24.7363
12.2562
5.69315
2.46478
1.05531
0.92872
1.0561
26.6679
17.3937
7.13284
1.70711
0.0312782
0.100241
0.356773
0.632622
0.784789
0.895455
4.66829
1.55318
0.353275
-0.315291
-0.153851
-0.110767
0.0148302
0.2506
0.42381
0.558883
-0.405319
-0.396514
-0.411383
-0.385439
-0.409185
-0.430045
-0.329608
-0.114014
0.0606206
0.242757
-0.487551
-0.515
-0.525834
-0.515622
-0.522504
-0.525276
-0.454846
-0.324011
-0.210466
-0.020347
-0.543844
-0.5628
-0.562009
-0.552937
-0.540862
-0.5186
-0.458179
-0.400198
-0.339662
-0.203653
-0.603567
-0.608241
-0.607678
-0.587561
-0.562354
-0.524
-0.470392
-0.440544
-0.408138
-0.33647
-0.628866
-0.631759
-0.626284
-0.60937
-0.584749
-0.553709
-0.52057
-0.501427
-0.486387
-0.456246
-0.647939
-0.647524
-0.642696
-0.629931
-0.614694
-0.600903
-0.587386
-0.575887
-0.573275
-0.566682
-0.675088
-0.674337
-0.673763
-0.670256
-0.664462
-0.660916
-0.655275
-0.647066
-0.64665
-0.649436
-0.715465
-0.716417
-0.719361
-0.721663
-0.721274
-0.721079
-0.718722
-0.712702
-0.715804
-0.717726
-0.766707
-0.769626
-0.774727
-0.778806
-0.779868
-0.779091
-0.777881
-0.773964
-0.779174
-0.781261
-0.831773
-0.834625
-0.840423
-0.844068
-0.844397
-0.842361
-0.839669
-0.835971
-0.843221
-0.844851
365.666
364.862
363.192
360.874
358.138
355.251
352.493
350.121
348.331
347.036
317.158
316.282
314.477
311.933
308.927
305.736
302.67
300.01
298.009
296.447
269.394
268.414
266.264
263.231
259.609
255.741
252.003
248.727
246.242
244.19
222.464
221.252
218.565
214.71
210.099
205.139
200.292
195.907
192.32
189.975
176.701
175.16
171.718
166.735
160.625
153.852
147.183
140.916
135.651
133.505
132.46
130.303
125.589
118.766
110.342
101.346
92.058
82.8673
75.4123
75.5363
90.8608
87.699
81.7025
73.1372
61.6454
48.3284
35.6798
25.5236
17.2072
20.5567
52.4106
49.0446
40.8384
29.8811
16.4668
7.88732
4.32786
2.45885
1.31726
1.576
23.6818
17.8223
10.1707
2.65859
-0.132043
-0.426967
0.0230598
0.525061
0.881518
1.01095
3.08081
1.60776
0.752478
-0.353282
-0.400048
-0.330394
-0.164214
0.160983
0.461908
0.626777
-0.302294
-0.434669
-0.519446
-0.514303
-0.521473
-0.630474
-0.609418
-0.36891
-0.0722684
0.168328
-0.464523
-0.516265
-0.542634
-0.559742
-0.595254
-0.66113
-0.690234
-0.605848
-0.458443
-0.188507
-0.525863
-0.557777
-0.575868
-0.577091
-0.576996
-0.590897
-0.607734
-0.630508
-0.606174
-0.372064
-0.575762
-0.59263
-0.594052
-0.588906
-0.581134
-0.566962
-0.549097
-0.571338
-0.591057
-0.449499
-0.610355
-0.616452
-0.613534
-0.607175
-0.601898
-0.589875
-0.56982
-0.566651
-0.576735
-0.518693
-0.636928
-0.642032
-0.641916
-0.638172
-0.634178
-0.628742
-0.619439
-0.610183
-0.61289
-0.596823
-0.662665
-0.668771
-0.675703
-0.678877
-0.678616
-0.677633
-0.6736
-0.667056
-0.667317
-0.665087
-0.692807
-0.703038
-0.715575
-0.724645
-0.728387
-0.729351
-0.727569
-0.724565
-0.723635
-0.723899
-0.734069
-0.748229
-0.76544
-0.777625
-0.782686
-0.783268
-0.781204
-0.780597
-0.78155
-0.782501
-0.796744
-0.811327
-0.829867
-0.841209
-0.84406
-0.843292
-0.838974
-0.839336
-0.842904
-0.844344
367.187
366.458
364.938
362.836
360.366
357.772
355.305
353.186
351.591
350.514
318.713
317.942
316.281
313.965
311.316
308.498
305.795
303.454
301.691
300.443
270.99
270.185
268.281
265.605
262.425
259.052
255.813
252.987
250.86
249.298
224.101
223.195
220.816
217.418
213.494
209.301
205.233
201.601
198.762
197.015
178.227
177.212
174.268
170.194
165.037
159.506
153.979
148.935
144.951
143.18
133.632
132.517
128.614
123.057
116.144
108.685
101.414
94.6962
89.7513
88.8512
91.2172
90.3762
85.0541
78.273
69.0933
58.2478
48.3629
39.8099
33.3099
34.2686
52.5253
50.9137
44.4345
35.8038
24.4062
12.9635
7.37438
5.41563
3.99866
4.8427
21.1875
18.4273
11.4588
4.47748
1.14298
-0.851594
-1.01412
-0.0879352
0.82301
1.11691
2.77831
1.82523
1.01514
-0.158641
-0.671434
-0.706218
-0.496951
-0.0696889
0.463645
0.846542
-0.256849
-0.451417
-0.575482
-0.614748
-0.62664
-0.76254
-0.812063
-0.631152
-0.275844
0.112855
-0.456842
-0.523502
-0.557781
-0.60214
-0.649629
-0.770902
-0.869879
-0.855374
-0.688625
-0.376015
-0.530151
-0.556274
-0.573416
-0.587636
-0.608668
-0.668589
-0.766147
-0.853302
-0.839873
-0.5712
-0.579494
-0.583676
-0.584722
-0.592814
-0.607342
-0.623182
-0.644269
-0.722218
-0.810178
-0.609444
-0.622034
-0.619624
-0.615383
-0.62049
-0.629429
-0.634331
-0.637958
-0.663052
-0.720258
-0.612716
-0.642401
-0.652828
-0.651704
-0.656264
-0.660445
-0.661603
-0.661975
-0.667938
-0.6801
-0.64094
-0.643051
-0.667729
-0.681593
-0.692795
-0.697512
-0.699044
-0.699128
-0.698789
-0.697664
-0.689836
-0.644433
-0.682628
-0.710684
-0.730323
-0.738601
-0.74157
-0.742532
-0.74224
-0.740173
-0.738377
-0.66677
-0.703798
-0.751819
-0.776862
-0.786518
-0.789352
-0.789968
-0.79005
-0.78907
-0.788478
-0.718033
-0.757749
-0.815774
-0.838844
-0.844171
-0.844736
-0.844279
-0.843118
-0.842896
-0.843917
368.832
368.17
366.772
364.881
362.708
360.396
358.23
356.38
354.995
354.109
320.434
319.741
318.214
316.149
313.782
311.351
309.027
307.02
305.514
304.521
272.725
272.075
270.362
268.032
265.368
262.459
259.723
257.36
255.59
254.416
225.809
225.247
223.142
220.282
216.914
213.517
210.227
207.33
205.107
203.761
179.504
179.278
176.722
173.39
169.433
165.109
160.827
156.923
153.93
152.63
135.82
134.156
131.304
127.206
121.981
116.202
110.483
105.382
101.72
100.301
93.1612
92.3582
88.1357
83.2137
76.8238
69.0777
61.4475
55.2428
50.5631
50.301
54.6879
51.3607
47.4648
41.5123
33.8875
24.4308
15.7185
10.6354
8.89148
9.92768
21.3164
18.1682
13.5338
8.60034
5.33159
1.18376
-2.54643
-2.34565
-0.266459
1.01178
5.66377
2.52623
0.0724755
-0.682104
-0.842247
-0.982867
-1.01568
-0.63192
0.080248
0.874567
-0.506867
-0.440685
-0.558955
-0.60702
-0.635223
-0.750723
-0.834089
-0.745467
-0.532055
-0.136454
-0.447831
-0.528836
-0.531894
-0.565455
-0.628826
-0.771611
-0.901712
-0.964922
-0.853195
-0.56191
-0.502278
-0.573819
-0.565551
-0.573531
-0.60166
-0.677961
-0.808547
-0.953941
-0.96635
-0.711696
-0.559844
-0.601263
-0.583799
-0.588327
-0.610169
-0.645687
-0.702037
-0.802324
-0.940612
-0.742326
-0.591083
-0.615204
-0.624539
-0.630016
-0.644273
-0.661657
-0.686859
-0.738861
-0.85856
-0.721149
-0.60465
-0.617884
-0.661237
-0.672268
-0.681358
-0.688097
-0.69904
-0.726579
-0.773703
-0.700774
-0.609967
-0.628924
-0.678555
-0.70487
-0.715866
-0.719843
-0.7249
-0.734691
-0.741499
-0.715123
-0.61163
-0.625031
-0.690026
-0.733569
-0.749928
-0.755131
-0.758492
-0.761356
-0.759944
-0.75301
-0.655474
-0.638177
-0.724844
-0.774296
-0.791022
-0.795846
-0.798153
-0.799435
-0.798991
-0.797399
-0.746646
-0.731769
-0.807164
-0.838434
-0.84391
-0.844699
-0.844499
-0.844601
-0.845076
-0.846428
370.47
369.852
368.52
366.794
364.855
362.851
360.985
359.393
358.206
357.478
322.193
321.533
320.069
318.188
316.099
314.015
312.053
310.365
309.095
308.298
274.561
273.941
272.33
270.242
267.965
265.599
263.366
261.428
259.97
259.047
227.768
227.289
225.325
222.853
220.103
217.36
214.845
212.578
210.792
209.752
181.228
181.2
178.93
176.329
173.316
170.288
167.006
164.147
161.897
160.689
134.677
135.77
133.393
130.655
127.15
123.142
119.047
115.236
112.281
110.828
93.4109
93.1285
90.5676
87.2965
83.2876
78.4863
73.3527
68.9566
65.4514
64.7713
55.7629
50.0188
49.4648
46.0573
41.4942
36.0921
30.0183
24.7873
20.2355
19.82
24.8234
21.8943
20.1916
15.1189
10.3208
5.76008
-0.785157
-4.13028
-2.69884
1.0154
12.4531
3.56886
1.18857
-0.020497
-0.61042
-0.726457
-0.957337
-0.930903
-0.604371
0.421815
-0.629452
-0.0487532
-0.191666
-0.370857
-0.47825
-0.614168
-0.763443
-0.806914
-0.712975
-0.419321
-0.314134
-0.308612
-0.375194
-0.441342
-0.522653
-0.653231
-0.792244
-0.912687
-0.895401
-0.655272
-0.329156
-0.450141
-0.491885
-0.516941
-0.542838
-0.600726
-0.716081
-0.884629
-0.953014
-0.76124
-0.521403
-0.539118
-0.540838
-0.567342
-0.58773
-0.622791
-0.691402
-0.80245
-0.936572
-0.801954
-0.646211
-0.640578
-0.620082
-0.624771
-0.641678
-0.663594
-0.704407
-0.774021
-0.919185
-0.797765
-0.687875
-0.680184
-0.705372
-0.682801
-0.688266
-0.70099
-0.723231
-0.768579
-0.863402
-0.763549
-0.64932
-0.672539
-0.735597
-0.720281
-0.727764
-0.734357
-0.746081
-0.771085
-0.797955
-0.744517
-0.635585
-0.640598
-0.730281
-0.746594
-0.762055
-0.767379
-0.77303
-0.781888
-0.784443
-0.765045
-0.702934
-0.67097
-0.75414
-0.784397
-0.798278
-0.803049
-0.805476
-0.807293
-0.808105
-0.804038
-0.742787
-0.799345
-0.818742
-0.844973
-0.843887
-0.844149
-0.844035
-0.843576
-0.844569
-0.846488
372.002
371.379
370.069
368.455
366.696
364.937
363.307
361.94
360.919
360.3
323.893
323.2
321.709
319.956
318.084
316.217
314.592
313.178
312.106
311.449
276.441
275.699
274.064
272.167
270.263
268.324
266.415
264.828
263.628
262.891
229.983
229.186
227.197
224.931
222.813
220.731
218.708
216.957
215.504
214.732
183.592
182.581
180.618
178.4
176.388
174.236
172.026
169.993
168.24
167.295
137.372
136.445
134.184
133.136
131.2
128.684
126
123.455
121.337
120.201
93.3524
93.1931
91.805
90.2091
88.1837
85.5262
82.459
79.8243
77.0132
75.9475
52.4863
45.0358
47.5131
46.5835
46.4294
44.6517
41.4456
38.4412
34.4394
32.8843
22.7037
16.338
19.6766
18.3005
17.7868
12.4688
7.75704
4.39766
1.44505
3.33709
4.33377
2.83454
2.27395
1.34963
0.502305
0.0851181
-0.232647
-0.549561
-0.476307
0.566419
-0.05317
0.743021
0.534069
0.22171
-0.0728801
-0.401874
-0.65122
-0.838549
-0.866353
-0.511773
-0.0187813
0.127706
0.0407517
-0.147693
-0.318427
-0.458604
-0.629487
-0.794402
-0.81352
-0.658329
-0.110022
-0.193532
-0.261241
-0.406364
-0.456157
-0.506482
-0.607201
-0.760597
-0.860482
-0.743579
-0.440557
-0.405279
-0.481829
-0.553005
-0.555563
-0.588746
-0.648297
-0.749671
-0.864892
-0.794387
-0.639494
-0.611901
-0.650483
-0.630672
-0.631862
-0.653454
-0.69618
-0.772323
-0.900256
-0.823782
-0.687125
-0.678089
-0.705796
-0.692626
-0.697724
-0.709476
-0.736433
-0.782876
-0.911724
-0.802402
-0.64131
-0.675989
-0.731161
-0.740928
-0.750953
-0.751281
-0.76251
-0.79699
-0.847126
-0.769968
-0.667493
-0.700482
-0.751103
-0.776271
-0.785486
-0.783597
-0.786489
-0.799851
-0.810056
-0.773912
-0.732201
-0.739614
-0.806335
-0.816122
-0.814542
-0.812326
-0.811815
-0.813106
-0.814946
-0.805485
-0.69421
-0.837999
-0.920407
-0.870322
-0.847786
-0.842632
-0.841138
-0.838834
-0.840064
-0.842533
373.278
372.516
371.063
369.478
367.89
366.374
364.959
363.773
362.88
362.332
325.419
324.493
322.686
320.869
319.245
317.715
316.371
315.191
314.279
313.723
278.24
277.111
274.83
272.54
271.09
269.933
268.474
267.231
266.271
265.661
232.09
230.539
227.819
225.193
223.015
222.386
221.215
219.99
218.852
218.32
185.884
183.084
180.145
178.595
177.272
176.552
175.369
174.013
172.759
172.097
138.655
135.196
134.409
133.28
132.431
131.904
130.648
129.277
127.96
127.156
94.7004
92.9689
92.0989
90.2237
91.4966
90.2064
88.4018
87.5459
86.3315
85.771
48.5905
39.0834
45.5336
45.2721
47.9886
49.4372
48.6068
48.9727
48.224
47.7549
10.4228
10.6813
15.7513
16.9246
26.9193
22.0677
18.8812
19.0328
20.0661
21.5216
2.76309
3.53097
4.08058
2.93477
2.03603
1.52945
1.40948
1.6123
1.97469
6.49456
0.808752
1.31235
1.0297
0.718579
0.377945
-0.0696929
-0.20847
-0.390726
-0.66616
-0.382194
0.53871
0.581912
0.251871
0.103758
-0.0839239
-0.254694
-0.435355
-0.616964
-0.706771
-0.613924
0.354446
0.209256
-0.0766533
-0.181709
-0.292646
-0.384136
-0.51941
-0.675093
-0.780266
-0.678246
-0.23534
-0.148646
-0.354359
-0.39365
-0.463202
-0.53056
-0.61686
-0.720434
-0.815346
-0.745931
-0.552519
-0.455184
-0.59119
-0.558494
-0.594749
-0.635736
-0.685498
-0.766114
-0.871544
-0.804068
-0.69118
-0.71913
-0.7078
-0.687215
-0.705304
-0.715658
-0.741865
-0.794753
-0.906409
-0.802847
-0.664646
-0.750434
-0.751325
-0.767443
-0.780146
-0.770738
-0.780532
-0.815499
-0.861742
-0.779889
-0.64153
-0.799385
-0.786531
-0.811284
-0.818157
-0.804909
-0.806737
-0.816392
-0.820217
-0.77643
-0.639542
-0.78862
-0.84882
-0.837282
-0.83419
-0.826484
-0.826506
-0.821309
-0.811465
-0.799854
-0.660251
-0.811135
-0.919235
-0.859958
-0.844275
-0.8421
-0.843893
-0.836138
-0.828792
-0.83183
374.226
373.155
371.465
370.006
368.52
367.135
365.837
364.751
363.927
363.413
326.67
325.085
322.783
321.28
319.999
318.568
317.322
316.264
315.433
314.951
279.851
277.694
274.56
272.579
271.483
270.775
269.559
268.504
267.71
267.16
233.976
231.628
228.254
224.769
223.63
223.755
222.543
221.594
220.56
220.228
187.685
184.262
180.753
179.899
180.618
177.859
177.106
176.11
175.145
174.63
140.461
136.665
137.508
139.326
135.672
133.557
132.982
132.213
131.351
130.366
95.876
91.0147
95.5455
95.1686
93.1974
91.4759
90.8195
91.125
90.9906
92.5233
45.6913
34.6049
46.4089
50.0868
50.0355
48.4679
49.3338
53.0073
53.7875
52.8925
8.66009
9.50327
15.685
19.3439
23.3903
19.4303
21.6952
27.4735
29.5704
35.869
4.36222
2.92213
4.78197
3.36042
2.91096
3.34933
4.10435
5.90511
5.75686
15.7771
1.37742
1.12453
1.01588
0.951116
0.686266
0.4346
0.765459
0.951939
0.224249
0.316272
0.562278
0.699479
0.302941
0.242483
0.138708
-0.0166957
-0.129527
-0.295912
-0.563577
-0.590882
0.324844
0.35455
0.0651641
-0.0437426
-0.104685
-0.209673
-0.355396
-0.483333
-0.752509
-0.688808
-0.0910559
0.000820593
-0.176991
-0.281807
-0.341581
-0.424551
-0.491965
-0.578655
-0.829556
-0.737096
-0.384281
-0.236569
-0.385809
-0.463656
-0.532792
-0.596544
-0.611047
-0.710082
-0.851512
-0.776478
-0.539093
-0.38038
-0.589885
-0.634219
-0.688714
-0.716194
-0.703391
-0.776532
-0.868175
-0.787404
-0.574489
-0.581135
-0.773303
-0.776563
-0.796476
-0.788689
-0.763932
-0.804336
-0.852051
-0.782358
-0.598771
-0.711198
-0.845825
-0.841369
-0.847271
-0.82031
-0.808809
-0.812262
-0.812783
-0.77922
-0.610577
-0.758514
-0.853507
-0.843915
-0.849583
-0.836521
-0.83408
-0.818582
-0.799523
-0.791424
-0.635689
-0.889966
-0.845644
-0.825547
-0.8315
-0.841084
-0.849356
-0.830071
-0.81354
-0.815091
374.508
373.297
371.546
369.955
368.475
367.132
365.868
364.79
363.963
363.447
327.303
325.393
323.012
321.227
319.683
318.443
317.344
316.311
315.475
314.991
280.3
278.045
274.785
272.445
271.073
270.678
269.622
268.576
267.745
267.221
233.76
231.439
227.939
224.346
222.825
223.452
222.626
221.737
220.719
220.368
187.311
184.597
180.992
181.07
181.634
178.071
177.37
176.372
175.385
174.964
142.243
140.428
139.341
139.474
138.252
134.015
133.279
132.556
131.739
131.211
99.1569
95.4388
96.0197
96.585
94.7978
91.26
91.0431
91.6623
91.4509
92.1349
52.6805
40.1875
49.4647
53.2115
47.9074
42.7049
47.2098
52.0885
54.3151
54.7004
15.8959
11.3332
19.063
24.3242
16.9283
13.2342
23.2143
36.256
36.0124
40.6528
5.6703
3.43768
4.9915
2.65481
3.14372
4.5071
7.3365
10.7064
9.46437
16.774
1.15436
1.02667
0.837498
0.783447
0.83186
1.08683
1.80001
2.64424
1.42119
0.585186
0.242414
0.381283
0.155234
0.179276
0.151785
0.108889
0.0275669
-0.0316592
-0.430658
-0.591709
0.00933133
0.05928
-0.0724063
-0.108461
-0.120047
-0.196418
-0.366514
-0.450906
-0.650804
-0.676157
-0.270623
-0.201921
-0.243551
-0.292675
-0.313091
-0.387671
-0.494694
-0.58003
-0.696575
-0.696326
-0.438074
-0.330998
-0.328175
-0.389757
-0.433274
-0.526088
-0.599348
-0.658209
-0.744013
-0.727475
-0.567137
-0.4792
-0.429938
-0.505883
-0.610095
-0.678456
-0.693811
-0.728264
-0.793851
-0.753417
-0.622594
-0.627841
-0.567368
-0.659316
-0.745548
-0.774196
-0.761753
-0.783337
-0.839656
-0.771499
-0.598628
-0.693977
-0.688039
-0.779142
-0.810973
-0.815477
-0.804568
-0.811053
-0.852284
-0.784984
-0.62417
-0.774165
-0.771248
-0.824127
-0.83406
-0.839005
-0.830885
-0.82171
-0.826489
-0.791318
-0.730657
-0.845317
-0.786372
-0.816659
-0.814568
-0.839944
-0.848165
-0.826537
-0.814175
-0.801505
373.43
372.733
371.273
369.684
368.054
366.506
365.079
363.885
362.983
362.426
325.573
324.719
322.944
321.128
319.423
317.838
316.507
315.322
314.405
313.831
278.395
277.254
275.031
272.858
271.402
270.12
268.67
267.417
266.48
265.813
231.697
230.058
227.362
225.141
223.024
222.256
221.428
220.245
219.047
218.559
185.519
184.398
183.362
179.229
177.729
176.736
175.751
174.585
173.216
172.58
143.148
142.631
138.209
134.449
132.276
131.218
130.51
129.872
128.744
128.147
101.772
97.4874
95.7147
93.2417
90.245
89.6325
89.4878
90.0288
88.0113
87.3074
61.7929
48.4477
50.65
50.4732
44.9674
40.8983
46.5073
48.7336
50.9359
50.9611
26.9066
12.2914
19.8457
24.5114
15.9691
14.9265
24.5542
40.6985
32.5483
26.2629
6.46407
2.98111
3.38639
2.34762
2.31572
3.84709
6.23549
8.33979
5.66897
7.96674
0.15272
0.527667
0.350349
0.276868
0.169639
0.449863
1.37566
1.5426
0.273821
-0.411121
-0.119188
-0.0238664
-0.0926294
-0.105083
-0.13395
-0.206521
0.00239101
-0.316855
-0.693989
-0.701851
-0.195963
-0.184417
-0.206816
-0.220265
-0.257464
-0.363798
-0.498011
-0.580241
-0.766103
-0.709341
-0.339566
-0.299451
-0.294336
-0.311201
-0.334907
-0.435069
-0.580864
-0.631739
-0.749098
-0.706387
-0.435606
-0.344028
-0.318121
-0.339917
-0.368286
-0.471137
-0.581418
-0.658137
-0.72665
-0.707059
-0.552707
-0.43523
-0.3663
-0.389775
-0.439628
-0.554
-0.649386
-0.698725
-0.721296
-0.721025
-0.679515
-0.625856
-0.516283
-0.52276
-0.631832
-0.700082
-0.731744
-0.759496
-0.780559
-0.74494
-0.742706
-0.82278
-0.676874
-0.658092
-0.774446
-0.813986
-0.786257
-0.797123
-0.82425
-0.771491
-0.754504
-0.855865
-0.789817
-0.782598
-0.805561
-0.840293
-0.810835
-0.807657
-0.803623
-0.779363
-0.723929
-0.806801
-0.817327
-0.795758
-0.801914
-0.831688
-0.826642
-0.811318
-0.801149
-0.790869
372.032
371.511
370.226
368.619
366.867
365.131
363.479
362.095
361.059
360.427
323.837
323.261
321.818
320.092
318.206
316.415
314.781
313.354
312.263
311.589
276.139
275.68
274.238
272.4
270.493
268.515
266.659
265.062
263.83
263.066
228.916
228.121
226.833
224.85
222.864
221.03
219.058
217.298
215.759
214.968
182.832
184.566
180.834
178.77
176.806
174.966
172.583
170.674
168.696
167.628
141.56
139.71
136.535
134.142
131.903
129.083
126.854
124.342
122.043
120.46
102.277
97.2733
95.4306
92.5104
89.7168
86.9443
84.9508
82.2151
78.8119
77.1588
62.444
53.5643
52.0758
50.2306
45.7524
42.5498
42.7819
42.6804
38.3447
34.797
24.1368
17.9086
20.416
19.7488
15.3793
15.9626
20.3377
21.7404
8.98381
3.96027
10.0722
2.49615
2.06948
1.73729
0.500804
0.881336
1.22797
1.0168
0.272544
1.83125
-0.256188
-0.255849
-0.219648
-0.181044
-0.326352
-0.289028
-0.115365
-0.299574
-0.748477
-0.623273
-0.282043
-0.306249
-0.294406
-0.315681
-0.321796
-0.407143
-0.497151
-0.679085
-0.910357
-0.765135
-0.317319
-0.345115
-0.328797
-0.33357
-0.357325
-0.443072
-0.553192
-0.634196
-0.865726
-0.747086
-0.406532
-0.396498
-0.368226
-0.366545
-0.375237
-0.466391
-0.56025
-0.599268
-0.811736
-0.70676
-0.476914
-0.415195
-0.364512
-0.347177
-0.342204
-0.436443
-0.539437
-0.601836
-0.722757
-0.68459
-0.52649
-0.444344
-0.358128
-0.327803
-0.35389
-0.467464
-0.575177
-0.644449
-0.685812
-0.689655
-0.586434
-0.525952
-0.445484
-0.416701
-0.485208
-0.562283
-0.649639
-0.703913
-0.714362
-0.715713
-0.666444
-0.670654
-0.629982
-0.59614
-0.611195
-0.660713
-0.7235
-0.753741
-0.753659
-0.745691
-0.73012
-0.792928
-0.785519
-0.722516
-0.719583
-0.720654
-0.759631
-0.777672
-0.770464
-0.765279
-0.751095
-0.821174
-0.866861
-0.779568
-0.770676
-0.745331
-0.774131
-0.793506
-0.789538
-0.789575
370.493
369.992
368.695
366.981
365.044
363.051
361.174
359.565
358.358
357.614
322.027
321.6
320.211
318.341
316.227
314.219
312.258
310.55
309.254
308.437
273.929
273.989
272.542
270.538
268.307
265.879
263.618
261.643
260.143
259.194
225.992
226.404
225.137
222.796
220.362
217.751
215.176
212.864
210.992
209.922
182.387
180.716
179.259
176.801
173.882
170.724
167.552
164.623
162.2
160.905
141.639
136.291
134.678
131.615
128.007
124.193
120.052
115.955
112.609
110.917
100.446
95.2897
92.7767
88.1376
84.4246
80.6352
75.9884
71.1138
66.7204
65.3757
60.7537
53.4137
50.6911
47.2852
43.9001
40.9569
35.9263
28.8146
21.3731
19.7429
17.6304
14.9998
11.9371
10.2019
10.8384
13.2848
13.0065
6.31698
-1.51703
-0.0678804
4.84481
5.32236
1.77681
1.09831
0.116773
-0.169251
-0.500071
-0.67353
-0.640726
0.211544
-0.334049
-0.510453
-0.478631
-0.37068
-0.539363
-0.619132
-0.73359
-0.873436
-0.930336
-0.632561
-0.375683
-0.442542
-0.414084
-0.419535
-0.432007
-0.534862
-0.675468
-0.832218
-0.999565
-0.784453
-0.394751
-0.435228
-0.420776
-0.40943
-0.422245
-0.499197
-0.588095
-0.658899
-0.854844
-0.721254
-0.452906
-0.456497
-0.440343
-0.430808
-0.437291
-0.493651
-0.568885
-0.582283
-0.766258
-0.667284
-0.512735
-0.478484
-0.450821
-0.439605
-0.445546
-0.496538
-0.562026
-0.594264
-0.694968
-0.647672
-0.555757
-0.513863
-0.476722
-0.462427
-0.473367
-0.527666
-0.582837
-0.626933
-0.671863
-0.660462
-0.609581
-0.582573
-0.532716
-0.512937
-0.533843
-0.580803
-0.624403
-0.667335
-0.690683
-0.693639
-0.663522
-0.665337
-0.631511
-0.615492
-0.621438
-0.641417
-0.673109
-0.706164
-0.719848
-0.727085
-0.704632
-0.736321
-0.742889
-0.724464
-0.698617
-0.69871
-0.717802
-0.738364
-0.74796
-0.756344
-0.728503
-0.77444
-0.810314
-0.787621
-0.75973
-0.747415
-0.759489
-0.773976
-0.782661
-0.791787
368.905
368.328
366.959
365.075
362.884
360.601
358.427
356.555
355.145
354.24
320.316
319.833
318.361
316.291
314.018
311.581
309.234
307.194
305.655
304.638
272.143
272.21
270.645
268.388
265.63
262.736
259.951
257.533
255.71
254.507
224.339
224.72
223.168
220.498
217.339
213.868
210.498
207.504
205.186
203.818
182.07
178.96
177.198
173.925
170.057
165.647
161.228
157.151
153.981
152.686
138.667
134.51
132.376
128.14
122.975
117.143
111.067
105.533
101.492
99.8849
97.1762
92.7132
89.6597
84.0247
78.3254
70.9825
62.9625
56.2705
51.0353
50.3084
55.4008
49.9141
47.9526
43.2959
37.4544
28.6338
17.4007
11.0187
8.62658
9.07003
17.8847
10.8931
9.57638
7.68858
5.92991
3.38465
1.6222
-1.33543
-0.674759
0.260575
1.21037
2.29488
1.11238
1.38182
0.907363
0.111188
-0.540289
-0.599767
-0.399323
0.215924
-0.359403
-0.475425
-0.43739
-0.422708
-0.523718
-0.65869
-0.779334
-0.893311
-0.865252
-0.555853
-0.500432
-0.502159
-0.48072
-0.463866
-0.458505
-0.542767
-0.708116
-0.872256
-0.950937
-0.708981
-0.480644
-0.492105
-0.489634
-0.470382
-0.478986
-0.519065
-0.570834
-0.642665
-0.776085
-0.637823
-0.50581
-0.503284
-0.495399
-0.482524
-0.484693
-0.509322
-0.536012
-0.563818
-0.659155
-0.588665
-0.543315
-0.526072
-0.509717
-0.497403
-0.499714
-0.521647
-0.54846
-0.575906
-0.6233
-0.595788
-0.575163
-0.553944
-0.531366
-0.520219
-0.524933
-0.548335
-0.576554
-0.607033
-0.63568
-0.629926
-0.615592
-0.596748
-0.572484
-0.567093
-0.57281
-0.592498
-0.617098
-0.643684
-0.666939
-0.66985
-0.665066
-0.656664
-0.647686
-0.642578
-0.642188
-0.651626
-0.665612
-0.683307
-0.699791
-0.707446
-0.715259
-0.721524
-0.724179
-0.720189
-0.714541
-0.713701
-0.717977
-0.726418
-0.737064
-0.746622
-0.757236
-0.772754
-0.784711
-0.782948
-0.774281
-0.770872
-0.771058
-0.774509
-0.782331
-0.791504
367.359
366.665
365.157
363.057
360.594
357.997
355.512
353.364
351.74
350.639
318.815
318.111
316.449
314.241
311.576
308.737
306.001
303.617
301.814
300.535
270.963
270.403
268.59
265.912
262.725
259.311
256.011
253.114
250.921
249.323
224.084
223.198
221.018
217.822
213.859
209.592
205.411
201.65
198.693
196.918
178.828
177.447
174.907
170.786
165.587
159.898
154.142
148.856
144.647
142.932
135.451
132.89
129.528
123.891
117.052
109.319
101.552
94.4547
88.9779
87.9717
93.8794
90.7108
86.1069
79.3615
70.4629
59.1787
48.4521
39.5801
32.3643
33.4429
52.7676
49.0408
46.1755
39.478
28.6283
14.9362
6.61209
4.64462
3.10295
3.70035
18.8825
14.3817
12.3893
7.14482
1.39335
-1.07194
-0.960985
-0.510031
0.299301
0.511068
0.782982
0.591766
0.839373
1.15337
0.206107
-0.392666
-0.409792
-0.358906
-0.0494754
0.24061
-0.383305
-0.273196
-0.337411
-0.484282
-0.563878
-0.634929
-0.715496
-0.744762
-0.606737
-0.280578
-0.564479
-0.53374
-0.539021
-0.504566
-0.48697
-0.538497
-0.654392
-0.730168
-0.696261
-0.472916
-0.540787
-0.542447
-0.555365
-0.531245
-0.522225
-0.510047
-0.514622
-0.554173
-0.577048
-0.474184
-0.546991
-0.544036
-0.535779
-0.521315
-0.514496
-0.511322
-0.510525
-0.520249
-0.536908
-0.496351
-0.565875
-0.563424
-0.550093
-0.535378
-0.530498
-0.531323
-0.538112
-0.54987
-0.56012
-0.545393
-0.592011
-0.58543
-0.569164
-0.557061
-0.555416
-0.560133
-0.570788
-0.585714
-0.598517
-0.595006
-0.627247
-0.617701
-0.603376
-0.593876
-0.59193
-0.599773
-0.611936
-0.626253
-0.639241
-0.641011
-0.671842
-0.66469
-0.65478
-0.646683
-0.64438
-0.651507
-0.660939
-0.67201
-0.682286
-0.687452
-0.720308
-0.719227
-0.715983
-0.70896
-0.705108
-0.710346
-0.71624
-0.7234
-0.731027
-0.736959
-0.768476
-0.772461
-0.774844
-0.772346
-0.766739
-0.769651
-0.774874
-0.779141
-0.784459
-0.789384
365.934
365.142
363.455
361.137
358.397
355.498
352.718
350.316
348.495
347.169
317.373
316.509
314.743
312.22
309.202
305.987
302.886
300.185
298.14
296.537
269.667
268.694
266.597
263.565
259.907
255.994
252.197
248.848
246.288
244.181
222.639
221.498
218.94
215.092
210.432
205.384
200.42
195.886
192.155
189.798
177.495
175.744
172.421
167.322
161.057
154.109
147.217
140.673
135.148
132.966
133.778
131.053
126.392
119.544
110.993
101.583
91.9013
82.27
74.5721
74.4857
91.9623
88.4761
82.779
74.1516
62.1147
48.0405
34.8945
24.5299