/*--------------------------------*- C++ -*----------------------------------*\
| =========                 |                                                 |
| \\      /  F ield         | OpenFOAM: The Open Source CFD Toolbox           |
|  \\    /   O peration     | Version:  2312                                  |
|   \\  /    A nd           | Website:  www.openfoam.com                      |
|    \\/     M anipulation  |                                                 |
\*---------------------------------------------------------------------------*/
FoamFile
{
    version     2.0;
    format      ascii;
    arch        "LSB;label=32;scalar=64";
    class       surfaceScalarField;
    location    "0.615";
    object      phi;
}
// * * * * * * * * * * * * * * * * * * * * * * * * * * * * * * * * * * * * * //

dimensions      [0 3 -1 0 0 0 0];

oriented        oriented;

internalField   nonuniform List<scalar> 
22600
(
-1.14167e-07
8.22116e-08
1.14637e-08
-2.07793e-07
7.26443e-08
2.09817e-08
-2.94686e-07
5.30636e-08
3.3829e-08
-3.62539e-07
2.33458e-08
4.45074e-08
-3.99395e-07
-1.44789e-08
5.13346e-08
-3.97301e-07
-5.75367e-08
5.54423e-08
-3.46872e-07
-1.08462e-07
5.80335e-08
-2.3567e-07
-1.74439e-07
6.32378e-08
-7.92672e-08
-2.31404e-07
7.50011e-08
-1.51179e-07
7.19121e-08
-1.06001e-07
1.73029e-07
-1.74857e-09
-1.89884e-07
1.52295e-07
4.23249e-09
-2.61101e-07
1.12388e-07
1.18929e-08
-3.17126e-07
5.94854e-08
1.9885e-08
-3.5405e-07
-3.35056e-09
2.57958e-08
-3.62902e-07
-7.64957e-08
2.78105e-08
-3.27128e-07
-1.70078e-07
2.58419e-08
-2.20656e-07
-3.06877e-07
2.59651e-08
-5.51506e-08
-4.35392e-07
3.84827e-08
-2.54782e-07
4.84525e-08
-1.22257e-07
2.71859e-07
6.70606e-09
-2.25075e-07
2.45112e-07
1.00012e-08
-3.18221e-07
1.87843e-07
1.76909e-08
-3.93817e-07
1.10014e-07
2.50678e-08
-4.49961e-07
2.76098e-08
2.51835e-08
-4.77103e-07
-6.71518e-08
1.7798e-08
-4.58027e-07
-1.96657e-07
7.50374e-09
-3.38891e-07
-4.48262e-07
2.22481e-08
-9.71601e-08
-7.62583e-07
8.54599e-08
-4.49e-07
9.70573e-08
-1.46378e-07
3.41945e-07
6.10815e-08
-2.73682e-07
3.1767e-07
5.47459e-08
-3.90873e-07
2.55661e-07
4.93726e-08
-4.8455e-07
1.56525e-07
4.71658e-08
-5.47955e-07
5.52445e-08
3.57707e-08
-6.08141e-07
-2.34973e-08
1.65315e-08
-6.56446e-07
-1.82886e-07
3.45336e-08
-5.94701e-07
-6.63828e-07
1.53821e-07
-2.74945e-07
-1.426e-06
3.43665e-07
-1.01992e-06
2.9597e-07
-1.52202e-07
2.5142e-07
2.17564e-07
-2.80921e-07
2.50171e-07
1.96218e-07
-4.01138e-07
2.07894e-07
1.67984e-07
-4.58369e-07
6.50826e-08
1.48673e-07
-5.03285e-07
-2.87982e-08
1.28959e-07
-5.8825e-07
-7.47395e-08
1.36207e-07
-7.05666e-07
-3.18813e-07
2.53344e-07
-7.88243e-07
-1.11946e-06
5.38212e-07
-5.88728e-07
-2.45585e-06
8.3033e-07
-2.19579e-06
5.8715e-07
-5.86295e-09
-6.55073e-08
2.9458e-07
-4.25656e-08
2.22525e-08
2.64621e-07
-1.16635e-07
4.17292e-08
2.40234e-07
-2.1113e-07
-9.57034e-08
2.55281e-07
-2.72592e-07
-2.84252e-07
3.16916e-07
-3.77944e-07
-4.49574e-07
4.80186e-07
-4.59191e-07
-1.02901e-06
7.91439e-07
-7.18589e-07
-2.17289e-06
1.31283e-06
-1.01984e-06
-3.68298e-06
1.52839e-06
-4.17298e-06
9.57349e-07
1.89134e-07
-1.03013e-07
-1.12479e-07
5.86465e-08
3.39191e-07
-1.8645e-07
-2.42727e-07
4.70328e-07
-1.27225e-07
-5.15293e-07
5.59393e-08
1.20923e-07
-6.6545e-07
-6.99138e-07
5.65042e-07
-4.49705e-07
-1.60075e-06
9.35431e-07
3.64423e-07
-3.05167e-06
1.20854e-06
5.53671e-07
-3.76682e-06
1.40468e-06
-8.24171e-07
-3.55614e-06
1.251e-06
-4.75228e-06
-2.44875e-07
-1.60616e-07
5.80811e-07
-4.15716e-07
-8.00504e-07
1.36332e-06
-3.84244e-07
-1.44802e-06
1.23284e-06
-1.14992e-07
-1.26406e-06
-2.15383e-07
8.7359e-08
5.03928e-07
-2.11182e-06
-3.55312e-07
4.21677e-06
-4.20489e-06
-1.1087e-06
7.83541e-06
-4.3539e-06
-2.31642e-06
7.14041e-06
8.02051e-07
-3.87387e-06
1.14287e-06
4.3532e-06
-1.9118e-06
4.53654e-06
-8.14594e-06
-1.63819e-06
2.39536e-06
-2.63672e-07
-1.28235e-06
1.84389e-06
-8.36401e-07
6.44114e-07
5.84007e-07
-1.27763e-06
5.83489e-06
-1.986e-06
-3.42016e-06
9.20584e-06
1.3601e-06
-6.84287e-06
9.65882e-06
3.97482e-06
-8.6327e-06
6.63678e-06
5.15831e-06
-6.49016e-06
1.88911e-06
7.49358e-06
-1.94387e-06
-1.89985e-06
8.40995e-06
-2.67791e-07
6.88147e-06
-4.24478e-06
-2.53049e-07
3.25655e-06
-1.82824e-06
3.39485e-06
4.18038e-06
-5.98439e-06
8.13484e-06
5.9518e-06
-1.01078e-05
1.15103e-05
7.07339e-06
-1.24348e-05
1.21975e-05
8.68367e-06
-8.01075e-06
1.02279e-05
1.12197e-05
-5.27526e-06
5.86959e-06
1.22252e-05
-2.70855e-06
4.51324e-07
1.18318e-05
1.08007e-06
-2.43147e-06
1.06973e-05
5.9541e-07
8.44842e-06
-3.99841e-06
-1.25376e-06
8.22024e-06
-6.81613e-06
1.75896e-06
1.0407e-05
-9.23937e-06
5.95841e-06
1.21663e-05
-1.04139e-05
9.9771e-06
1.24045e-05
-9.34982e-06
1.03721e-05
1.36505e-05
-5.3619e-06
8.33484e-06
1.50542e-05
-1.7973e-06
3.96661e-06
1.49126e-05
1.68076e-06
-1.13373e-06
1.32306e-05
3.70149e-06
-2.60867e-06
1.17328e-05
4.39531e-07
9.69004e-06
-3.85028e-06
-3.33009e-07
1.26204e-05
-7.50479e-06
3.05181e-06
1.37701e-05
-6.74789e-06
5.91679e-06
1.47284e-05
-5.42711e-06
7.93505e-06
1.53556e-05
-4.96936e-06
7.927e-06
1.6172e-05
-2.51338e-06
5.68905e-06
1.65932e-05
6.98955e-07
1.23005e-06
1.47628e-05
4.60882e-06
-2.43369e-06
1.22558e-05
4.63857e-06
-2.18352e-06
1.10094e-05
4.73242e-07
1.02259e-05
-2.71934e-06
1.67387e-07
1.49744e-05
-5.44716e-06
2.99014e-06
1.51939e-05
-4.24652e-06
4.9973e-06
1.58223e-05
-3.10109e-06
6.13514e-06
1.6579e-05
-2.36126e-06
5.69351e-06
1.71308e-05
-5.17165e-07
3.21726e-06
1.62286e-05
2.84093e-06
-6.99747e-07
1.32209e-05
5.45891e-06
-2.39112e-06
1.00341e-05
3.91308e-06
-1.22003e-06
9.33682e-06
5.01452e-07
1.03089e-05
-1.3031e-06
-8.36473e-09
1.45451e-05
-2.019e-06
2.07758e-06
1.41826e-05
-1.07468e-06
3.29768e-06
1.47146e-05
-1.12378e-07
3.81423e-06
1.56109e-05
4.51638e-07
3.15362e-06
1.58445e-05
1.94691e-06
1.11724e-06
1.429e-05
3.97501e-06
-1.30146e-06
1.125e-05
4.38963e-06
-1.44529e-06
7.93628e-06
2.24165e-06
-3.57903e-07
7.97225e-06
2.77187e-07
1.03199e-05
-3.68885e-07
-4.97401e-07
1.15184e-05
1.31001e-06
6.64709e-07
1.08388e-05
2.18166e-06
1.10848e-06
1.13852e-05
2.88564e-06
1.18319e-06
1.25942e-05
2.94197e-06
7.22898e-07
1.30456e-05
3.25917e-06
-4.23145e-07
1.19965e-05
3.4395e-06
-1.06937e-06
9.69836e-06
2.19783e-06
-6.51254e-07
6.72013e-06
7.98036e-07
4.12932e-08
7.34911e-06
-6.94061e-08
9.87147e-06
4.89743e-07
-7.79204e-07
8.01568e-06
2.58651e-06
-5.08869e-07
7.50685e-06
3.06162e-06
-5.71673e-07
8.12147e-06
3.32654e-06
-5.80782e-07
9.58771e-06
3.01557e-06
-6.24063e-07
1.059e-05
2.49892e-06
-9.36981e-07
1.07365e-05
1.57293e-06
-6.08204e-07
8.68426e-06
6.85331e-07
-3.19371e-07
6.34684e-06
8.44578e-08
1.07532e-07
7.43651e-06
-5.14303e-07
8.93258e-06
1.04642e-06
-6.49521e-07
5.80888e-06
1.83368e-06
-8.20488e-07
5.57725e-06
2.10058e-06
-1.07726e-06
6.08968e-06
2.28855e-06
-1.05659e-06
7.55565e-06
2.0114e-06
-8.07359e-07
9.02653e-06
1.31419e-06
-6.22873e-07
1.00182e-05
5.3381e-07
-3.30839e-07
7.95811e-06
4.34112e-07
-3.70009e-07
6.5175e-06
-1.31478e-07
9.41293e-08
7.71999e-06
-7.47612e-07
8.0323e-06
9.94418e-07
-4.99246e-07
4.71235e-06
9.65976e-07
-6.98574e-07
4.67496e-06
1.10162e-06
-9.52922e-07
5.04507e-06
1.29897e-06
-8.8581e-07
6.18783e-06
1.3007e-06
-4.88872e-07
7.64305e-06
9.86558e-07
1.83062e-08
8.78528e-06
7.25742e-07
-1.52792e-09
7.29652e-06
6.81431e-07
-3.13015e-07
6.79721e-06
3.17802e-08
1.23005e-07
7.9954e-06
-7.11419e-07
7.25307e-06
9.02238e-07
-3.37144e-07
4.11446e-06
4.83869e-07
-3.98392e-07
4.17265e-06
5.63552e-07
-5.30917e-07
4.44612e-06
7.31476e-07
-4.26171e-07
5.18637e-06
8.96716e-07
5.17125e-08
6.24824e-06
9.16929e-07
8.01703e-07
7.09567e-06
9.39626e-07
6.62282e-07
6.66105e-06
7.74904e-07
9.12237e-08
7.12912e-06
2.39162e-07
-3.51932e-08
8.6219e-06
-5.00075e-07
6.01785e-06
1.20003e-06
-4.43031e-08
5.25048e-08
3.7719e-06
1.24799e-07
1.35792e-07
3.86776e-06
1.9625e-07
2.71454e-07
4.10322e-06
4.22831e-07
4.46606e-07
4.51319e-06
9.94151e-07
5.66616e-07
5.1103e-06
1.68193e-06
6.19049e-07
5.78884e-06
1.35247e-06
5.18484e-07
6.47203e-06
5.09526e-07
1.81544e-07
7.79052e-06
-3.04353e-07
-2.64164e-07
9.69994e-06
1.451e-06
4.2625e-06
-1.60994e-07
2.29134e-09
1.55691e-07
-2.96587e-07
-1.96651e-09
1.58541e-07
-4.05817e-07
-2.03604e-08
1.63419e-07
-4.79325e-07
-5.19947e-08
1.70011e-07
-5.12471e-07
-9.31973e-08
1.77677e-07
-4.99602e-07
-1.46158e-07
1.88732e-07
-4.2763e-07
-2.1953e-07
2.05592e-07
-2.79821e-07
-3.16165e-07
2.31594e-07
-8.2309e-08
-3.83624e-07
2.61112e-07
-2.27606e-07
2.17209e-07
-1.406e-07
-4.7999e-09
1.34118e-07
-2.65625e-07
-1.95918e-09
1.2925e-07
-3.69562e-07
-3.30106e-08
1.2848e-07
-4.44793e-07
-9.00952e-08
1.33217e-07
-4.88418e-07
-1.65292e-07
1.41516e-07
-4.93839e-07
-2.67573e-07
1.54647e-07
-4.35842e-07
-4.26844e-07
1.75158e-07
-2.74621e-07
-6.61155e-07
2.09733e-07
-4.57372e-08
-8.26287e-07
2.52263e-07
-4.25621e-07
2.00731e-07
-1.74744e-07
1.94963e-08
1.48092e-07
-3.3422e-07
3.06001e-08
1.36918e-07
-4.68487e-07
-1.79887e-08
1.36936e-07
-5.73776e-07
-1.06046e-07
1.46307e-07
-6.50307e-07
-2.23184e-07
1.59608e-07
-6.97584e-07
-3.79128e-07
1.76629e-07
-6.69956e-07
-6.62776e-07
2.15808e-07
-4.59886e-07
-1.16795e-06
3.18973e-07
-8.49882e-08
-1.56439e-06
4.48664e-07
-7.344e-07
3.20848e-07
-2.28483e-07
1.06501e-07
1.96743e-07
-4.33616e-07
1.06365e-07
1.84114e-07
-6.12894e-07
3.49178e-08
1.75745e-07
-7.58761e-07
-9.50049e-08
1.81991e-07
-8.84992e-07
-2.49789e-07
1.88607e-07
-1.01931e-06
-4.44489e-07
2.16211e-07
-1.09094e-06
-9.0949e-07
3.52875e-07
-8.76466e-07
-1.8864e-06
6.57801e-07
-3.06505e-07
-2.71156e-06
9.20875e-07
-1.33468e-06
5.89749e-07
-2.97444e-07
2.74792e-07
3.21989e-07
-5.45793e-07
2.40933e-07
3.09998e-07
-7.56566e-07
1.32636e-07
2.81039e-07
-9.05048e-07
-7.54225e-08
2.77572e-07
-1.05804e-06
-2.58436e-07
2.90598e-07
-1.24395e-06
-5.1203e-07
3.89657e-07
-1.37969e-06
-1.20405e-06
6.83645e-07
-1.27054e-06
-2.58267e-06
1.12533e-06
-7.72854e-07
-3.71872e-06
1.33981e-06
-2.27577e-06
7.55386e-07
-2.46385e-07
4.07355e-07
3.6836e-07
-4.62942e-07
3.51197e-07
3.70915e-07
-6.55612e-07
1.7945e-07
3.86091e-07
-8.78579e-07
-3.14692e-08
4.34295e-07
-1.01211e-06
-3.56236e-07
5.48248e-07
-1.05164e-06
-7.50204e-07
7.57893e-07
-9.94795e-07
-1.51339e-06
1.04392e-06
-1.26159e-06
-2.31551e-06
1.31246e-06
-1.62066e-06
-3.02483e-06
1.19357e-06
-3.64024e-06
7.01149e-07
-1.28855e-07
4.8956e-07
-6.02624e-08
-3.68433e-07
5.31564e-07
-1.27239e-07
-7.66504e-07
4.20145e-07
3.01512e-08
-1.10627e-06
5.14579e-08
3.77764e-07
-1.09895e-06
-5.9563e-07
7.97118e-07
-4.93497e-07
-1.37175e-06
9.51521e-07
4.08483e-07
-1.92795e-06
7.2112e-07
-2.66956e-07
-4.02835e-07
1.67443e-07
-1.93064e-06
6.8792e-07
-7.98069e-07
-4.37898e-06
-1.43676e-06
-8.3106e-08
7.71183e-07
-5.64758e-07
-8.26914e-07
1.26944e-06
-3.78312e-07
-1.64981e-06
1.07841e-06
4.96388e-08
-1.3951e-06
-4.33927e-07
3.18037e-07
2.77928e-07
-2.27195e-06
-3.52022e-07
2.86135e-06
-3.19634e-06
-1.86753e-06
4.35546e-06
-1.75475e-06
-3.98373e-06
1.62312e-06
4.96359e-06
-6.50796e-06
7.05061e-07
6.66295e-06
-6.96878e-06
1.72106e-06
-1.35409e-05
-1.25148e-06
2.26491e-06
-5.45135e-07
-8.28226e-07
1.64026e-06
-1.63047e-06
8.31299e-07
2.64571e-08
-1.88521e-06
5.26118e-06
-4.51887e-06
-3.7651e-06
6.72083e-06
-2.78765e-06
-7.78682e-06
3.95445e-06
1.31684e-06
-1.03795e-05
-1.28301e-06
6.74037e-06
-9.74781e-06
-3.33865e-06
1.20569e-05
-6.98155e-06
-3.0504e-06
1.18215e-05
-5.71459e-06
7.29952e-06
-1.28736e-05
-1.21255e-07
2.84792e-06
-2.98298e-06
2.59001e-06
4.91756e-07
-7.54716e-06
6.25947e-06
-3.75221e-06
-9.99857e-06
6.02699e-06
-3.36579e-06
-1.33554e-05
4.09551e-06
2.20635e-06
-1.10733e-05
-1.63709e-06
9.96698e-06
-8.19281e-06
-6.50719e-06
1.45697e-05
-5.66782e-06
-6.16013e-06
1.55361e-05
-2.7462e-06
-4.22739e-06
1.44212e-05
-3.937e-06
1.14517e-05
-1.2378e-05
-6.80489e-07
3.2808e-06
-8.83499e-06
2.54931e-06
3.28334e-06
-1.52608e-05
5.19611e-06
5.10809e-07
-1.73238e-05
4.80139e-06
2.05293e-06
-1.43738e-05
-3.51052e-08
7.57855e-06
-5.89761e-06
-5.73237e-06
1.44585e-05
-5.91575e-07
-8.77511e-06
1.68117e-05
2.48152e-06
-7.48111e-06
1.58078e-05
2.13582e-06
-5.15383e-06
1.54151e-05
-2.88168e-06
1.31691e-05
-1.07215e-05
5.48325e-07
3.76471e-06
-1.08003e-05
3.17238e-06
2.69338e-06
-8.78199e-06
2.72882e-06
2.69215e-06
-7.1649e-06
6.34975e-07
5.23267e-06
-6.05525e-06
-3.21506e-06
9.60353e-06
-6.88328e-07
-7.37361e-06
1.51821e-05
4.13394e-06
-8.89143e-06
1.58686e-05
7.06974e-06
-7.94515e-06
1.42655e-05
5.2346e-06
-5.59934e-06
1.46007e-05
-1.05819e-06
1.24142e-05
-7.56382e-06
1.047e-06
3.0777e-06
-6.24174e-06
1.57592e-06
2.3618e-06
-4.44385e-06
7.08453e-07
3.8941e-06
-3.43558e-06
-1.37209e-06
7.35658e-06
-2.40463e-06
-4.76039e-06
1.07861e-05
1.68858e-06
-6.84416e-06
1.45477e-05
5.55909e-06
-7.11269e-06
1.39396e-05
7.65644e-06
-6.42112e-06
1.21594e-05
5.32759e-06
-4.67895e-06
1.26455e-05
7.14573e-07
1.04042e-05
-3.97198e-06
1.31948e-06
2.57847e-06
-1.99594e-06
6.29742e-07
2.84925e-06
-8.72393e-07
-1.04432e-06
5.18971e-06
2.66061e-07
-2.66145e-06
8.34479e-06
1.08056e-06
-4.62335e-06
1.14536e-05
3.24125e-06
-5.14385e-06
1.33462e-05
5.69696e-06
-4.33649e-06
1.18369e-05
5.68495e-06
-3.6432e-06
1.02412e-05
3.46661e-06
-2.78891e-06
1.09472e-05
1.12117e-06
8.52355e-06
-1.27718e-06
-5.57061e-08
3.11321e-06
9.57968e-07
-1.0348e-06
4.23186e-06
1.77814e-06
-2.23557e-06
6.74536e-06
2.53076e-06
-3.15409e-06
9.01652e-06
3.18876e-06
-3.68024e-06
1.10003e-05
4.23868e-06
-3.21044e-06
1.16203e-05
4.69568e-06
-2.25984e-06
1.0034e-05
3.05022e-06
-1.65491e-06
8.89679e-06
1.5375e-06
-1.10602e-06
9.7742e-06
5.54706e-07
7.66173e-06
2.45541e-07
-1.09287e-06
3.94629e-06
1.91625e-06
-1.85402e-06
5.13276e-06
2.92188e-06
-2.59368e-06
7.09955e-06
3.71201e-06
-2.77133e-06
8.61273e-06
3.59702e-06
-2.43809e-06
9.7525e-06
3.41344e-06
-1.97379e-06
1.00969e-05
2.63203e-06
-1.69479e-06
9.12546e-06
1.31485e-06
-1.24865e-06
8.15016e-06
3.8495e-07
-3.97722e-07
8.62739e-06
-2.18415e-07
7.47607e-06
8.34375e-07
-1.45644e-06
4.19782e-06
1.46582e-06
-1.68902e-06
5.14179e-06
2.32411e-06
-1.96043e-06
6.55338e-06
3.10613e-06
-1.79147e-06
7.59897e-06
2.85619e-06
-1.4087e-06
8.36941e-06
2.31451e-06
-1.44304e-06
9.09251e-06
1.57251e-06
-1.64365e-06
8.85346e-06
9.06731e-07
-1.3503e-06
7.87428e-06
-1.48941e-07
-3.04656e-07
7.47574e-06
-6.41596e-07
7.37937e-06
7.86466e-07
-1.30173e-06
4.06507e-06
8.1145e-07
-1.20653e-06
4.68809e-06
1.46011e-06
-1.12598e-06
5.59643e-06
2.17537e-06
-8.33386e-07
6.37559e-06
2.23149e-06
-5.46908e-07
7.08187e-06
1.98762e-06
-6.3161e-07
8.06746e-06
1.8355e-06
-7.87281e-07
8.30514e-06
1.38544e-06
-7.59371e-07
7.92328e-06
-4.51248e-08
-5.59838e-08
6.98756e-06
-9.26615e-07
7.65954e-06
5.66091e-07
-6.74873e-07
3.83513e-06
2.90944e-07
-4.73112e-07
4.23944e-06
8.1046e-07
-2.93674e-07
4.78733e-06
1.36114e-06
2.65103e-08
5.33613e-06
1.616e-06
4.19199e-07
5.98446e-06
1.62166e-06
6.889e-07
6.8387e-06
1.8987e-06
6.30287e-07
7.44799e-06
1.69067e-06
4.75622e-07
8.07848e-06
2.38635e-07
3.76311e-07
7.55297e-06
-9.66172e-07
8.28443e-06
9.51454e-07
1.43697e-08
-4.35295e-07
3.7264e-06
3.65597e-07
5.98255e-08
3.96419e-06
6.0175e-07
5.54294e-07
4.26834e-06
9.22948e-07
8.28412e-07
4.63314e-06
1.39857e-06
8.59189e-07
5.21627e-06
1.83861e-06
1.08763e-06
5.93007e-06
1.703e-06
1.19797e-06
6.90412e-06
1.52297e-06
3.11698e-08
8.40888e-06
8.14281e-07
-8.76485e-07
8.87399e-06
1.68101e-06
8.86871e-06
-1.5619e-07
-3.55616e-08
3.31475e-07
-2.86733e-07
-2.76106e-08
3.16694e-07
-3.88505e-07
-3.45252e-08
2.99717e-07
-4.5396e-07
-5.54211e-08
2.90886e-07
-4.79543e-07
-8.71779e-08
2.90439e-07
-4.6153e-07
-1.299e-07
3.00619e-07
-3.89115e-07
-1.89692e-07
3.22868e-07
-2.49898e-07
-2.67305e-07
3.59683e-07
-7.04762e-08
-3.16364e-07
3.98053e-07
-1.71259e-07
3.17991e-07
-1.33668e-07
-9.26678e-08
3.15663e-07
-2.49839e-07
-6.90335e-08
2.86843e-07
-3.45298e-07
-7.15383e-08
2.60952e-07
-4.12675e-07
-1.02972e-07
2.48145e-07
-4.47275e-07
-1.58307e-07
2.47245e-07
-4.43092e-07
-2.41012e-07
2.61577e-07
-3.79842e-07
-3.71098e-07
2.93314e-07
-2.29898e-07
-5.54708e-07
3.47193e-07
-3.20671e-08
-6.64062e-07
4.0213e-07
-2.99541e-07
2.96946e-07
-1.68996e-07
-1.12644e-07
3.32789e-07
-3.12035e-07
-9.15502e-08
3.02474e-07
-4.30443e-07
-9.34707e-08
2.77277e-07
-5.2062e-07
-1.41113e-07
2.74624e-07
-5.80265e-07
-2.25884e-07
2.86829e-07
-6.04923e-07
-3.57641e-07
3.17917e-07
-5.51909e-07
-5.93464e-07
3.8516e-07
-3.39762e-07
-9.64416e-07
5.16534e-07
-2.63329e-08
-1.17152e-06
6.42693e-07
-4.30956e-07
4.25929e-07
-1.97334e-07
-5.88956e-08
3.41706e-07
-3.83705e-07
-6.76038e-08
3.46539e-07
-5.42099e-07
-8.84588e-08
3.29127e-07
-6.75389e-07
-1.56315e-07
3.30484e-07
-7.91221e-07
-2.68533e-07
3.47089e-07
-8.971e-07
-4.41121e-07
4.0557e-07
-9.08649e-07
-8.13722e-07
5.84681e-07
-6.43874e-07
-1.48082e-06
9.09432e-07
-1.44181e-07
-1.86572e-06
1.11538e-06
-6.16555e-07
6.31168e-07
-2.51077e-07
1.50213e-07
3.52048e-07
-5.02178e-07
8.28409e-08
4.10653e-07
-7.13548e-07
8.95574e-09
3.94994e-07
-8.83873e-07
-1.05907e-07
3.97489e-07
-1.05365e-06
-2.50928e-07
4.42772e-07
-1.2161e-06
-4.86899e-07
5.97886e-07
-1.26728e-06
-1.01413e-06
9.35229e-07
-1.03451e-06
-1.93729e-06
1.34903e-06
-4.92365e-07
-2.51043e-06
1.44237e-06
-1.03517e-06
6.81633e-07
-2.6488e-07
4.3856e-07
3.1739e-07
-5.50704e-07
3.04846e-07
4.34733e-07
-8.04656e-07
1.52383e-07
4.96616e-07
-1.0477e-06
4.42678e-09
5.67007e-07
-1.18512e-06
-2.83439e-07
7.1818e-07
-1.18138e-06
-6.68388e-07
9.35641e-07
-1.10431e-06
-1.20934e-06
1.16206e-06
-1.23839e-06
-1.71955e-06
1.22881e-06
-1.27608e-06
-2.34136e-06
1.0622e-06
-2.11926e-06
5.09157e-07
-1.91387e-07
6.93391e-07
-1.29881e-07
-4.91711e-07
5.06797e-07
-2.88667e-08
-8.70271e-07
3.47297e-07
2.13797e-07
-1.16886e-06
1.12744e-07
5.68036e-07
-1.14934e-06
-4.08457e-07
9.02611e-07
-6.84983e-07
-1.22494e-06
1.04372e-06
-2.63561e-09
-1.89783e-06
7.2726e-07
-3.51452e-07
-1.1488e-06
-5.44918e-08
-1.37615e-06
-1.32539e-06
-7.8934e-07
-4.46345e-06
-4.68723e-07
-1.64869e-07
9.29978e-07
-6.65716e-07
-6.54122e-07
1.07427e-06
-4.56535e-07
-1.23533e-06
1.01015e-06
-3.20027e-08
-1.1244e-06
-1.428e-07
4.62646e-07
1.72673e-08
-2.08349e-06
1.81344e-07
1.75186e-06
-3.62216e-06
-1.20491e-06
3.84033e-06
-4.9993e-06
-2.97072e-06
5.09248e-06
-3.66744e-06
-5.24147e-06
4.41631e-06
1.06952e-06
-8.68751e-06
-2.81069e-06
-1.07774e-05
-2.87638e-07
2.00543e-06
-1.25334e-06
2.28933e-08
1.20628e-06
-2.07301e-06
1.17138e-06
-1.44942e-07
-1.87861e-06
4.57989e-06
-4.71113e-06
-2.60528e-06
7.01465e-06
-5.693e-06
-6.61206e-06
7.52941e-06
-4.17988e-06
-1.03366e-05
5.20059e-06
7.62355e-08
-1.24945e-05
3.21437e-06
4.18127e-06
-1.2844e-05
2.95969e-06
8.55327e-06
-1.29437e-05
5.50399e-06
-1.82286e-05
3.63478e-07
2.63757e-06
-4.79141e-06
2.60185e-06
-6.52e-07
-7.92725e-06
5.91231e-06
-4.57907e-06
-8.87491e-06
5.39535e-06
-3.80894e-06
-1.37406e-05
4.92163e-06
-1.11321e-06
-1.51793e-05
1.64798e-06
4.72953e-06
-1.38286e-05
-1.52507e-06
1.02616e-05
-1.26801e-05
-1.42597e-06
1.36809e-05
-1.23449e-05
6.3009e-07
1.53781e-05
-1.28179e-05
1.31257e-05
-1.93696e-05
9.21237e-07
2.56737e-06
-1.14586e-05
3.53247e-06
8.53349e-07
-1.93773e-05
3.83708e-06
-1.75545e-07
-2.20319e-05
2.73433e-06
1.72523e-06
-1.88053e-05
-1.79169e-06
5.01233e-06
-7.49711e-06
-7.43014e-06
1.06929e-05
-9.16536e-07
-8.57039e-06
1.45219e-05
-6.38467e-07
-5.20532e-06
1.75809e-05
-5.12933e-06
-1.80446e-06
1.95068e-05
-1.04112e-05
1.72855e-05
-1.66857e-05
4.98189e-07
1.62096e-07
-1.02545e-05
9.77991e-07
-1.26412e-06
-7.14433e-06
-6.33792e-07
3.63152e-08
-5.76497e-06
-3.97163e-06
3.52313e-06
-4.51531e-06
-8.33252e-06
6.70942e-06
1.97546e-06
-1.15187e-05
1.162e-05
6.3931e-06
-1.14671e-05
1.34062e-05
8.13369e-06
-8.09438e-06
1.57507e-05
3.6922e-06
-4.32257e-06
1.91915e-05
-4.51475e-06
1.75084e-05
-1.21093e-05
-1.62053e-07
-2.69107e-06
-3.05108e-06
-1.75618e-06
-3.12688e-06
-9.8697e-07
-3.42028e-06
-1.2456e-06
-4.89572e-07
-5.89112e-06
3.48505e-06
1.04289e-07
-9.4888e-06
7.56106e-06
4.43462e-06
-1.09753e-05
1.02391e-05
8.42645e-06
-1.02118e-05
1.01448e-05
1.01544e-05
-8.75723e-06
1.1922e-05
7.70168e-06
-5.95019e-06
1.65499e-05
5.49171e-07
1.467e-05
-7.08374e-06
-6.29014e-07
-3.07021e-06
-6.82666e-07
-2.28445e-06
-2.27704e-06
-6.67793e-08
-4.49642e-06
1.58363e-07
1.07407e-06
-6.08013e-06
3.41133e-06
2.73799e-06
-7.74485e-06
7.18166e-06
5.28538e-06
-7.78181e-06
8.58489e-06
7.38814e-06
-6.72337e-06
7.46379e-06
7.30748e-06
-6.93237e-06
9.13595e-06
6.4617e-06
-5.68304e-06
1.33199e-05
3.10185e-06
1.05346e-05
-2.82482e-06
-1.24453e-06
-1.8595e-06
4.47484e-07
-2.77586e-06
-7.32605e-07
1.76503e-06
-4.1506e-06
1.2775e-06
2.78637e-06
-4.91531e-06
3.60437e-06
3.76042e-06
-5.16302e-06
6.47613e-06
5.19192e-06
-4.64647e-06
7.19834e-06
5.56569e-06
-4.29554e-06
5.89396e-06
4.26913e-06
-4.68882e-06
7.44909e-06
3.61764e-06
-3.88091e-06
1.04098e-05
2.65691e-06
7.25015e-06
-3.50946e-07
-1.38776e-06
-2.08455e-07
5.0172e-07
-2.21494e-06
9.82675e-07
2.03377e-06
-3.10009e-06
2.62752e-06
3.24714e-06
-3.23943e-06
3.81433e-06
3.5264e-06
-2.91613e-06
5.56943e-06
3.99685e-06
-3.00127e-06
6.30293e-06
3.61259e-06
-3.70302e-06
5.3306e-06
2.57996e-06
-3.35028e-06
5.8622e-06
1.6191e-06
-2.08026e-06
7.95922e-06
9.62146e-07
5.82907e-06
1.75196e-07
-1.1272e-06
1.05213e-06
-2.16227e-08
-1.34412e-06
2.07983e-06
1.44387e-06
-1.60213e-06
3.24797e-06
2.74369e-06
-1.60012e-06
3.77854e-06
2.88997e-06
-1.41539e-06
4.70625e-06
2.99295e-06
-2.0279e-06
5.83292e-06
2.65503e-06
-3.16128e-06
5.57376e-06
1.79695e-06
-2.66003e-06
4.69759e-06
5.14425e-07
-1.28303e-06
6.43514e-06
-4.94519e-07
5.69042e-06
-3.57901e-07
-5.93955e-07
1.80483e-06
-4.96511e-07
-5.18008e-07
2.61286e-06
8.51143e-07
-4.66998e-07
3.38236e-06
1.98995e-06
-4.16425e-07
3.70803e-06
2.25142e-06
-4.40458e-07
4.32605e-06
2.39186e-06
-9.31386e-07
5.67002e-06
2.48933e-06
-1.83336e-06
6.2637e-06
1.59748e-06
-1.84073e-06
4.71109e-06
-5.12593e-08
-1.01573e-06
5.88398e-06
-1.20045e-06
6.00791e-06
-7.67128e-07
-2.73728e-08
2.43802e-06
-1.09366e-06
2.69751e-07
2.92428e-06
2.01914e-07
3.58245e-07
3.44326e-06
1.21174e-06
3.84838e-07
3.72623e-06
1.57121e-06
2.21964e-07
4.39262e-06
1.71796e-06
-4.44774e-08
5.77746e-06
2.0577e-06
-5.75275e-07
7.11565e-06
1.36952e-06
-9.21931e-07
5.776e-06
-4.79604e-07
-5.44658e-07
6.20473e-06
-1.66419e-06
6.98475e-06
-5.7004e-07
4.71925e-07
-2.01454e-06
3.04677e-06
9.11894e-07
-7.14033e-07
3.25816e-06
9.69951e-07
4.18631e-07
3.52087e-06
9.10463e-07
8.39964e-07
3.77417e-06
5.74903e-07
9.39765e-07
4.6476e-06
2.35025e-07
1.13762e-06
6.06734e-06
-9.58761e-09
6.67413e-07
7.89083e-06
-2.87414e-07
-9.90127e-07
7.07513e-06
-6.27331e-08
-2.07257e-06
7.17613e-06
2.44769e-07
8.35826e-06
-1.61175e-07
1.31503e-08
4.63348e-07
-2.85775e-07
9.32837e-09
4.31966e-07
-3.77246e-07
-5.65366e-09
3.96842e-07
-4.33803e-07
-2.56407e-08
3.73084e-07
-4.51009e-07
-5.43262e-08
3.61971e-07
-4.26207e-07
-9.0211e-08
3.66028e-07
-3.52646e-07
-1.35891e-07
3.85197e-07
-2.23514e-07
-1.9126e-07
4.21812e-07
-6.51102e-08
-2.20872e-07
4.60522e-07
-1.06699e-07
3.5958e-07
-1.48714e-07
-4.99435e-09
4.82845e-07
-2.57487e-07
-1.84759e-08
4.2342e-07
-3.34503e-07
-2.8682e-08
3.60997e-07
-3.86124e-07
-5.35819e-08
3.27707e-07
-4.07285e-07
-9.85404e-08
3.1262e-07
-3.91367e-07
-1.64243e-07
3.1969e-07
-3.24337e-07
-2.57801e-07
3.48194e-07
-1.92702e-07
-3.7654e-07
4.00837e-07
-3.12473e-08
-4.32402e-07
4.52205e-07
-1.65812e-07
3.24812e-07
-1.65859e-07
4.25419e-08
4.56499e-07
-3.03418e-07
-2.73095e-08
4.48867e-07
-4.01544e-07
-5.15825e-08
3.98303e-07
-4.69919e-07
-7.98932e-08
3.69311e-07
-5.05372e-07
-1.41625e-07
3.65366e-07
-4.99312e-07
-2.43546e-07
3.9116e-07
-4.21114e-07
-4.0222e-07
4.5138e-07
-2.35227e-07
-6.05375e-07
5.59483e-07
-1.03671e-08
-6.72054e-07
6.57485e-07
-1.88224e-07
4.37974e-07
-1.43687e-07
1.44465e-07
4.10543e-07
-3.28376e-07
1.99157e-09
5.01927e-07
-4.70594e-07
-5.64495e-08
4.76212e-07
-5.76969e-07
-9.39276e-08
4.50893e-07
-6.51274e-07
-1.71763e-07
4.51532e-07
-6.85691e-07
-3.028e-07
4.99241e-07
-6.20661e-07
-5.2217e-07
6.39602e-07
-3.73131e-07
-8.24767e-07
8.81294e-07
-3.8861e-08
-9.09704e-07
1.01876e-06
-1.67307e-07
5.71391e-07
-1.38398e-07
3.21027e-07
3.50873e-07
-3.80935e-07
1.20982e-07
5.342e-07
-5.92282e-07
8.914e-09
5.40978e-07
-7.45007e-07
-5.87588e-08
5.15046e-07
-8.72522e-07
-1.3863e-07
5.37154e-07
-9.6525e-07
-2.86092e-07
6.73906e-07
-9.26135e-07
-5.89692e-07
9.63637e-07
-6.68675e-07
-1.01419e-06
1.28099e-06
-2.53965e-07
-1.18093e-06
1.29889e-06
-3.05925e-07
5.66286e-07
-1.33215e-07
5.97591e-07
1.88855e-07
-4.25714e-07
3.92131e-07
4.56083e-07
-7.23295e-07
2.26553e-07
5.76558e-07
-9.6046e-07
1.17545e-07
6.27868e-07
-1.14229e-06
7.60484e-09
7.53772e-07
-1.15177e-06
-3.58197e-07
1.01723e-06
-1.06742e-06
-7.6077e-07
1.24878e-06
-9.79511e-07
-1.1991e-06
1.32581e-06
-7.81622e-07
-1.47759e-06
1.16096e-06
-1.01022e-06
4.3183e-07
-1.00125e-07
7.71659e-07
-2.28337e-07
-4.49715e-07
6.505e-07
6.23542e-08
-8.53041e-07
4.97979e-07
3.45696e-07
-1.12229e-06
3.4272e-07
6.12108e-07
-1.13292e-06
-1.60008e-08
9.36849e-07
-9.89373e-07
-5.96844e-07
1.13882e-06
-6.37375e-07
-1.52672e-06
1.14121e-06
-6.48836e-07
-2.06308e-06
8.20941e-07
-1.10067e-06
-2.36219e-06
5.47094e-07
-3.13696e-06
5.5735e-07
-6.0168e-08
7.97739e-07
-7.65253e-07
-2.66889e-07
8.21692e-07
-4.21006e-07
-7.61225e-07
9.49328e-07
1.09844e-08
-9.17438e-07
4.83481e-07
4.78099e-07
-3.16736e-07
-1.04708e-06
6.11719e-07
1.05916e-06
-3.19724e-06
1.95874e-08
2.82907e-06
-5.15643e-06
-1.11091e-06
4.31259e-06
-6.23729e-06
-2.55077e-06
3.06285e-06
-4.88545e-06
-4.91451e-06
-5.84673e-06
-5.00474e-06
6.95675e-08
1.21704e-06
-1.82691e-06
7.32817e-07
2.66006e-07
-2.18057e-06
1.59025e-06
-2.83311e-07
-1.5034e-06
3.39357e-06
-2.24821e-06
-1.67691e-06
7.02928e-06
-6.52233e-06
-4.77252e-06
1.05863e-05
-7.99022e-06
-9.10064e-06
1.29772e-05
-7.42942e-06
-1.26124e-05
1.23453e-05
-3.54216e-06
-1.49073e-05
1.0112e-05
8.00474e-07
-1.63963e-05
3.1168e-06
-1.70801e-05
5.87142e-07
6.74366e-07
-6.15663e-06
2.94382e-06
-1.05047e-06
-8.96744e-06
5.51654e-06
-1.35136e-06
-1.03796e-05
7.85995e-06
-2.82759e-06
-1.55047e-05
1.01736e-05
-2.90377e-06
-2.11115e-05
1.12173e-05
-1.98721e-06
-2.08753e-05
9.85053e-06
1.95021e-06
-2.06929e-05
8.96381e-06
6.55592e-06
-2.15563e-05
7.50735e-06
1.06305e-05
-2.11915e-05
1.31309e-05
-2.18763e-05
1.73411e-06
-1.7471e-07
-1.43878e-05
4.32918e-06
-2.26516e-06
-2.07577e-05
5.64566e-06
-8.9816e-07
-2.38016e-05
5.36699e-06
1.37754e-06
-2.27317e-05
3.91385e-06
1.79054e-06
-1.07383e-05
3.87693e-07
4.70123e-06
-4.07882e-06
1.02505e-06
9.14665e-06
-8.47225e-06
4.41243e-06
1.3972e-05
-1.59328e-05
5.08611e-06
1.80089e-05
-1.84632e-05
1.99331e-05
-1.84018e-05
6.48281e-07
-1.90447e-06
-9.39615e-06
2.51977e-07
-3.90749e-06
-5.1057e-06
-7.55229e-07
-2.23881e-06
-3.41712e-06
-2.9577e-06
1.56513e-06
-2.50043e-06
-6.26904e-06
3.34312e-06
3.73421e-06
-7.93958e-06
6.4932e-06
6.2717e-06
-5.80199e-06
1.03436e-05
4.79916e-06
-1.12026e-06
1.56061e-05
-2.62366e-06
1.44693e-06
2.08444e-05
-9.91748e-06
2.22601e-05
-1.29894e-05
3.86196e-07
-3.56116e-06
-1.21533e-06
-1.28367e-06
-3.69459e-06
4.69994e-07
-3.29539e-06
-2.53515e-06
1.81848e-06
-6.17672e-06
1.4577e-06
3.09305e-06
-9.28363e-06
4.12351e-06
6.76113e-06
-9.7832e-06
5.46794e-06
9.95128e-06
-7.70174e-06
6.8191e-06
1.15974e-05
-4.95598e-06
1.2334e-05
8.22802e-06
-2.64283e-06
2.01333e-05
-1.0529e-06
2.08322e-05
-8.29859e-06
-1.2508e-06
-3.38552e-06
-8.79555e-08
-3.03702e-06
-3.19374e-06
1.21858e-06
-4.52984e-06
-2.12394e-06
2.1557e-06
-6.09996e-06
1.4444e-06
4.32141e-06
-7.55754e-06
4.04664e-06
6.81982e-06
-7.32198e-06
4.09902e-06
8.5215e-06
-6.30865e-06
3.84466e-06
9.2686e-06
-6.14927e-06
8.98863e-06
9.64772e-06
-4.97925e-06
1.77585e-05
4.30667e-06
1.75822e-05
-4.55406e-06
-1.39724e-06
-2.20086e-06
-1.43941e-07
-2.7769e-06
-1.75004e-06
1.701e-06
-3.87455e-06
-1.25974e-06
3.01981e-06
-4.36998e-06
1.08229e-06
4.61796e-06
-4.59798e-06
3.4162e-06
6.05036e-06
-4.41731e-06
3.23196e-06
6.25207e-06
-4.70011e-06
2.63343e-06
5.76316e-06
-5.6444e-06
6.98204e-06
6.56851e-06
-5.09873e-06
1.47361e-05
5.13368e-06
1.37687e-05
-1.63621e-06
-1.01244e-06
-8.86678e-07
-8.73317e-07
-1.4866e-06
-2.09897e-07
9.67815e-07
-2.21859e-06
-7.92538e-08
2.79865e-06
-2.5851e-06
1.10312e-06
3.87208e-06
-2.50414e-06
2.74805e-06
4.58404e-06
-2.9764e-06
3.0267e-06
4.29011e-06
-3.91756e-06
2.49431e-06
3.66026e-06
-4.38772e-06
5.60781e-06
3.46348e-06
-3.6247e-06
1.17816e-05
3.15363e-06
1.04649e-05
-1.45684e-07
-7.3079e-07
-1.69996e-07
-1.37356e-06
-4.22011e-07
7.93865e-07
1.31329e-07
-7.17786e-07
1.02121e-06
1.939e-06
-1.20087e-06
1.6483e-06
2.82787e-06
-1.4266e-06
2.71222e-06
3.25451e-06
-2.25922e-06
3.40944e-06
3.1049e-06
-3.24575e-06
2.91238e-06
2.36541e-06
-3.26265e-06
4.63714e-06
1.502e-06
-2.16733e-06
9.44486e-06
7.46861e-07
8.19662e-06
-2.5697e-07
-2.22185e-07
3.2005e-08
-1.85358e-06
4.29721e-07
1.30498e-06
-3.11895e-07
2.19015e-07
1.83784e-06
1.38402e-06
-2.77164e-07
2.34937e-06
2.04652e-06
-8.77019e-07
3.25613e-06
2.44779e-06
-1.72969e-06
4.27123e-06
2.48021e-06
-2.56271e-06
3.82331e-06
1.51957e-06
-2.72108e-06
4.42327e-06
3.20979e-07
-1.66275e-06
7.74239e-06
-5.56313e-07
6.49198e-06
-7.25237e-07
3.10011e-07
1.12011e-07
-2.7649e-06
1.1241e-06
1.65629e-06
-9.6349e-07
8.51647e-07
2.39165e-06
9.30385e-07
3.13646e-07
2.94674e-06
1.51184e-06
-5.42963e-07
3.95717e-06
1.87353e-06
-1.46104e-06
5.34938e-06
1.89762e-06
-1.9733e-06
4.90723e-06
7.97859e-07
-2.19804e-06
4.73109e-06
-5.62678e-07
-1.51401e-06
6.55607e-06
-1.16189e-06
5.24383e-06
-8.35904e-07
7.79532e-07
-3.90183e-06
-9.57779e-08
1.68136e-06
-2.14227e-06
2.18273e-06
1.33694e-06
2.54065e-07
2.90064e-06
7.23404e-07
1.00238e-06
3.39787e-06
-2.54145e-07
1.27947e-06
4.59501e-06
-1.33618e-06
1.22567e-06
6.34337e-06
-1.58946e-06
1.39943e-08
5.81393e-06
-1.60913e-06
-1.37199e-06
5.13262e-06
-1.25571e-06
-1.77892e-06
5.909e-06
-6.68832e-07
4.90173e-06
-1.78884e-07
1.13097e-07
5.16157e-07
-3.07527e-07
7.22832e-08
4.88326e-07
-3.91482e-07
3.73525e-08
4.43444e-07
-4.36224e-07
5.25728e-09
4.12569e-07
-4.41498e-07
-2.45149e-08
3.9176e-07
-4.07448e-07
-5.54429e-08
3.87421e-07
-3.29699e-07
-9.18295e-08
3.99277e-07
-2.05862e-07
-1.32562e-07
4.30538e-07
-6.21988e-08
-1.48264e-07
4.65121e-07
-5.67341e-08
3.54116e-07
-1.72013e-07
1.72408e-07
6.03708e-07