/*--------------------------------*- C++ -*----------------------------------*\
| =========                 |                                                 |
| \\      /  F ield         | OpenFOAM: The Open Source CFD Toolbox           |
|  \\    /   O peration     | Version:  2312                                  |
|   \\  /    A nd           | Website:  www.openfoam.com                      |
|    \\/     M anipulation  |                                                 |
\*---------------------------------------------------------------------------*/
FoamFile
{
    version     2.0;
    format      ascii;
    arch        "LSB;label=32;scalar=64";
    class       volScalarField;
    location    "0.16";
    object      alpha.water;
}
// * * * * * * * * * * * * * * * * * * * * * * * * * * * * * * * * * * * * * //

dimensions      [0 0 0 0 0 0 0];

internalField   nonuniform List<scalar> 
8000
(
1
1
1
1
1
1
1
1
1
1
1
1
1
1
1
1
1
1
1
1
1
1
1
1
1
1
1
1
1
1
1
1
1
1
1
1
1
1
1
1
1
1
1
1
1
1
1
1
1
1
1
1
1
1
1
1
1
1
1
1
1
1
1
1
1
1
1
1
1
1
1
1
1
1
1
1
1
1
1
1
0.738217
0.722427
0.694672
0.661692
0.62702
0.592117
0.559484
0.53229
0.513028
0.502823
0.0762716
0.067803
0.0532406
0.0387481
0.0269252
0.0178522
0.0115953
0.00774155
0.00560781
0.00465407
0.000627731
0.000482096
0.000302918
0.000171889
9.69621e-05
5.38943e-05
3.21436e-05
2.29362e-05
1.91642e-05
1.73235e-05
9.08015e-05
6.62518e-05
3.71249e-05
1.7112e-05
7.54755e-06
3.46544e-06
1.82711e-06
1.24026e-06
1.00443e-06
8.63282e-07
1.10678e-05
7.21373e-06
3.30073e-06
1.25286e-06
4.71965e-07
1.93036e-07
9.48757e-08
6.17775e-08
4.97691e-08
4.05596e-08
9.28131e-07
5.34583e-07
2.10155e-07
6.87549e-08
2.37455e-08
9.29075e-09
4.44892e-09
2.8153e-09
2.28551e-09
1.7615e-09
5.08316e-08
2.73763e-08
9.79542e-09
3.04183e-09
1.02744e-09
3.97735e-10
2.16572e-10
1.51652e-10
1.26652e-10
9.44986e-11
2.06085e-09
1.08342e-09
3.80009e-10
1.2916e-10
5.57881e-11
2.58019e-11
1.40481e-11
1.03225e-11
8.65551e-12
5.9855e-12
7.74774e-11
4.6595e-11
2.01176e-11
8.17114e-12
3.26909e-12
1.40005e-12
8.5183e-13
1.72871e-12
1.72392e-12
1.31069e-12
4.37485e-12
2.40965e-12
9.54819e-13
1.32885e-12
8.86743e-13
4.54627e-13
2.75532e-13
2.19414e-13
1.82176e-13
1.17087e-13
8.85523e-13
5.81628e-13
2.86294e-13
1.4975e-13
7.35347e-14
3.62443e-14
1.93972e-14
1.07193e-14
7.95545e-15
4.30966e-15
1.17167e-13
4.91083e-14
2.01664e-14
6.18706e-15
2.37722e-15
1.06002e-15
5.53676e-16
3.49389e-16
2.60905e-16
1.29045e-16
1
1
1
1
1
1
1
1
1
1
1
1
1
1
1
1
1
1
1
1
1
1
1
1
1
1
1
1
1
1
1
1
1
1
1
1
1
1
1
1
1
1
1
1
1
1
1
1
1
1
1
1
1
1
1
1
1
1
1
1
1
1
1
1
1
1
1
1
1
1
1
1
1
1
1
1
1
1
1
1
0.800517
0.781097
0.744081
0.697751
0.652433
0.611607
0.575474
0.545517
0.524151
0.512855
0.171569
0.126024
0.0803004
0.0504593
0.0321079
0.0210564
0.0139303
0.00930912
0.00668852
0.00559993
0.000683463
0.00051217
0.000310258
0.000157632
7.80159e-05
4.84269e-05
3.45646e-05
2.60314e-05
2.07126e-05
1.91678e-05
5.75981e-05
4.40471e-05
2.49275e-05
1.169e-05
5.44556e-06
3.12792e-06
2.04871e-06
1.46578e-06
1.14508e-06
1.00997e-06
4.98654e-06
3.64087e-06
1.87789e-06
8.00018e-07
3.48043e-07
1.86129e-07
1.13975e-07
7.64734e-08
5.95823e-08
5.00358e-08
4.05068e-07
2.52813e-07
1.20256e-07
4.81727e-08
1.94475e-08
9.78585e-09
5.78046e-09
3.79478e-09
2.88916e-09
2.29995e-09
2.19516e-08
1.4621e-08
6.48029e-09
2.42535e-09
9.38722e-10
4.62876e-10
2.89222e-10
2.08908e-10
1.67561e-10
1.27465e-10
1.04988e-09
6.78906e-10
2.9239e-10
1.20105e-10
5.66615e-11
3.18201e-11
2.02965e-11
1.50805e-11
1.2304e-11
8.71136e-12
6.0106e-11
4.01387e-11
1.97657e-11
8.36842e-12
3.62547e-12
1.91464e-12
1.1977e-12
1.86032e-12
2.17787e-12
1.72556e-12
4.02414e-12
2.49364e-12
1.66524e-12
1.80796e-12
1.06216e-12
6.30011e-13
4.12887e-13
3.2589e-13
2.77926e-13
1.83428e-13
1.40836e-12
8.03372e-13
4.05258e-13
2.01871e-13
1.04407e-13
5.82094e-14
3.49748e-14
1.9688e-14
1.44703e-14
8.04263e-15
3.77704e-13
1.29091e-13
3.51621e-14
9.15384e-15
3.83607e-15
1.97133e-15
1.10835e-15
6.91798e-16
5.20553e-16
2.63385e-16
1
1
1
1
1
1
1
1
1
1
1
1
1
1
1
1
1
1
1
1
1
1
1
1
1
1
1
1
1
1
1
1
1
1
1
1
1
1
1
1
1
1
1
1
1
1
1
1
1
1
1
1
1
1
1
1
1
1
1
1
1
1
1
1
1
1
1
1
1
1
1
1
1
1
1
1
1
1
1
1
0.911195
0.87928
0.832837
0.773955
0.709096
0.652058
0.606254
0.570416
0.545183
0.531787
0.531429
0.389891
0.211392
0.106565
0.0571956
0.032445
0.0200235
0.0132275
0.00926382
0.00770922
0.0312728
0.00874214
0.000459317
0.000306919
0.000156144
7.18253e-05
4.38415e-05
3.28322e-05
2.59512e-05
2.31131e-05
2.72659e-05
3.15313e-05
2.36544e-05
1.70794e-05
9.21426e-06
4.35305e-06
2.60606e-06
1.87177e-06
1.47097e-06
1.26316e-06
8.55892e-07
1.38482e-06
1.09222e-06
8.24789e-07
4.70989e-07
2.31415e-07
1.39912e-07
9.91368e-08
7.68247e-08
6.30176e-08
5.82885e-08
6.25416e-08
4.70073e-08
3.72174e-08
2.23535e-08
1.11462e-08
6.70378e-09
4.81594e-09
3.82237e-09
2.87793e-09
4.22576e-09
2.57778e-09
2.0874e-09
1.58979e-09
9.47764e-10
4.74188e-10
2.95413e-10
2.43343e-10
2.10465e-10
1.54922e-10
2.07268e-10
1.68944e-10
1.09299e-10
6.63139e-11
4.77392e-11
2.87492e-11
2.04564e-11
1.69002e-11
1.51963e-11
1.05313e-11
1.49856e-11
1.36059e-11
7.43924e-12
4.82151e-12
2.8809e-12
1.69412e-12
1.19822e-12
1.13532e-12
1.85168e-12
1.70795e-12
5.70491e-12
5.91662e-12
2.35825e-12
1.35691e-12
8.27997e-13
5.80984e-13
4.38565e-13
3.64549e-13
3.29492e-13
2.2297e-13
1.57146e-12
2.68918e-12
3.81035e-13
1.87706e-13
9.20668e-14
5.89184e-14
4.06031e-14
2.79153e-14
2.0049e-14
1.1047e-14
6.3912e-13
2.02958e-12
9.70048e-14
3.56163e-14
4.15626e-15
2.07065e-15
1.32139e-15
9.01399e-16
7.02873e-16
3.58396e-16
1
1
1
1
1
1
1
1
1
1
1
1
1
1
1
1
1
1
1
1
0.999998
1
1
1
1
1
1
1
1
1
0.999997
0.999999
1
1
1
1
1
1
1
1
0.999995
0.999999
1
1
1
1
1
1
1
1
0.999995
0.999999
1
1
1
1
1
1
1
1
0.999994
0.999998
1
1
1
1
1
1
1
1
0.999999
1
1
1
1
1
1
1
1
1
0.999913
0.990492
0.939616
0.872572
0.796592
0.717663
0.652687
0.605711
0.574579
0.558454
0.797804
0.675148
0.496895
0.28103
0.133558
0.0635832
0.0329534
0.0198779
0.0137938
0.0115361
0.0661242
0.0358042
0.0102431
0.000513101
0.000380139
0.000184655
7.41557e-05
4.33159e-05
3.44478e-05
3.34859e-05
5.24812e-07
8.36979e-06
1.91014e-05
2.29118e-05
2.05629e-05
1.08013e-05
4.42691e-06
2.57717e-06
2.06153e-06
1.93821e-06
9.79223e-08
1.67615e-07
4.98266e-07
8.40103e-07
9.09574e-07
5.29299e-07
2.27849e-07
1.38665e-07
1.15582e-07
1.01575e-07
4.14152e-08
5.9795e-09
1.43315e-08
2.81933e-08
3.54418e-08
2.28007e-08
1.05717e-08
6.65659e-09
5.89593e-09
4.79059e-09
3.36998e-10
2.31056e-10
4.30125e-10
9.40975e-10
1.29074e-09
8.93934e-10
4.3151e-10
2.93648e-10
2.94606e-10
2.30948e-10
1.61573e-11
1.31601e-11
2.14219e-11
3.25712e-11
4.8873e-11
4.13188e-11
2.54359e-11
2.03446e-11
2.07347e-11
1.48612e-11
1.78902e-12
5.48378e-12
2.24665e-12
1.74567e-12
3.19677e-12
2.36217e-12
1.46414e-12
1.19543e-12
1.22228e-12
8.0821e-13
5.20267e-13
4.67514e-12
1.62563e-12
7.75295e-13
7.16626e-13
6.15666e-13
4.94387e-13
4.41813e-13
4.23973e-13
2.84495e-13
5.05414e-13
2.53091e-12
3.76505e-13
1.25771e-13
3.0627e-14
6.65044e-14
4.87918e-14
4.11851e-14
3.643e-14
2.14861e-14
4.91007e-13
1.72926e-12
1.42046e-13
2.54761e-14
7.57776e-16
5.34562e-15
1.69664e-15
1.33917e-15
1.15329e-15
5.92874e-16
0.999999
1
1
1
1
1
1
1
1
1
0.999989
0.999997
1
1
1
1
1
1
1
1
0.999944
0.999984
0.999998
1
1
1
1
1
1
1
0.999861
0.999965
0.999997
1
1
1
1
1
1
1
0.999807
0.999952
0.999995
1
1
1
1
1
1
1
0.999791
0.999942
0.999995
1
1
1
1
1
1
1
0.99976
0.999924
0.999995
1
1
1
1
1
1
1
0.999913
0.999984
0.999999
1
1
1
1
1
1
1
0.999728
0.999834
0.999957
0.968774
0.891508
0.804268
0.717084
0.650913
0.60999
0.590334
0.651179
0.697098
0.677819
0.568047
0.343785
0.148596
0.063482
0.0320822
0.020699
0.0176915
0.0212919
0.0257745
0.0216762
0.0173525
0.00266458
0.000425735
0.000185928
7.12296e-05
4.82507e-05
5.7016e-05
6.04716e-07
5.95483e-07
2.30497e-06
1.94249e-05
2.91745e-05
2.37956e-05
1.08903e-05
4.31332e-06
3.16026e-06
3.77983e-06
9.30722e-07
1.88909e-07
1.48076e-06
4.54121e-07
1.06737e-06
1.05914e-06
5.3007e-07
2.31197e-07
1.90602e-07
2.14332e-07
3.24995e-08
2.51494e-08
2.85977e-08
1.15191e-08
3.44855e-08
4.04411e-08
2.31152e-08
1.11108e-08
1.01118e-08
1.04056e-08
8.99249e-11
2.57964e-11
4.38618e-11
3.21815e-10
1.08815e-09
1.41596e-09
9.01431e-10
4.71702e-10
4.80484e-10
4.46924e-10
9.13354e-11
1.2954e-11
1.62157e-12
1.00994e-11
5.25444e-11
5.68249e-11
4.13892e-11
2.85463e-11
3.2898e-11
2.86038e-11
1.74192e-10
3.75341e-11
1.21457e-13
5.74809e-13
2.06629e-11
2.99365e-12
2.36022e-12
1.68914e-12
1.99077e-12
1.55702e-12
1.00439e-10
2.81563e-11
5.16445e-14
1.21457e-13
2.22812e-11
1.01438e-12
6.11889e-13
5.88616e-13
6.59149e-13
4.9437e-13
2.76659e-12
3.11007e-11
4.48393e-14
4.37619e-14
1.8359e-11
3.77836e-13
6.23577e-14
6.05014e-14
6.13589e-14
3.90986e-14
1.76839e-11
3.68999e-11
4.2661e-14
2.689e-14
1.4406e-11
2.15177e-13
3.29831e-15
2.12375e-15
2.07746e-15
1.14446e-15
0.999981
0.999996
1
1
1
1
1
1
1
1
0.99975
0.999935
0.999992
0.999999
1
1
1
1
1
1
0.99661
0.999589
0.999955
0.999996
1
1
1
1
1
1
0.934435
0.994134
0.999887
0.999992
1
1
1
1
1
1
0.854378
0.966662
0.999838
0.99999
1
1
1
1
1
1
0.785539
0.927923
0.999818
0.99999
1
1
1
1
1
1
0.722805
0.885832
0.999796
0.999991
1
1
1
1
1
1
0.814919
0.967449
0.999957
0.999998
1
1
1
1
1
1
0.771738
0.927698
0.999808
0.99994
0.97583
0.890579
0.795147
0.707319
0.650091
0.624342
0.0613215
0.204207
0.511818
0.719557
0.618208
0.346846
0.133656
0.0564535
0.0313745
0.0264017
8.72809e-08
1.69314e-07
0.00156838
0.0283831
0.0261151
0.00323443
0.00038357
0.000156557
7.78364e-05
9.97506e-05
5.20131e-07
7.91281e-06
2.39534e-07
2.92165e-06
2.39937e-05
3.04697e-05
2.08477e-05
9.2167e-06
5.50983e-06
8.0425e-06
3.56883e-07
2.8369e-09
1.47646e-08
2.31392e-06
5.58246e-07
1.11847e-06
9.1297e-07
4.65895e-07
3.59785e-07
5.15721e-07
1.55788e-10
1.46611e-10
2.96163e-09
6.38624e-08
1.4211e-08
3.59006e-08
3.57122e-08
2.26867e-08
2.02674e-08
2.62798e-08
2.80846e-09
1.29208e-11
2.66307e-11
1.10435e-10
4.48168e-10
1.10868e-09
1.31764e-09
9.54523e-10
9.80942e-10
1.14103e-09
3.17555e-09
1.09687e-11
8.55563e-12
1.71817e-08
8.16477e-11
3.91641e-11
5.6926e-11
4.74043e-11
5.86346e-11
6.07614e-11
2.37876e-09
7.84622e-12
1.62172e-12
2.94402e-08
9.17862e-10
1.04326e-12
2.57e-12
2.87073e-12
3.7868e-12
3.59347e-12
6.33727e-09
5.74819e-12
1.21457e-13
3.11792e-08
1.09123e-09
5.50687e-14
7.47052e-13
8.41254e-13
1.12193e-12
9.55014e-13
1.36549e-08
4.82419e-12
5.16445e-14
2.93269e-08
9.90937e-10
2.34289e-14
1.51403e-13
9.4651e-14
1.11363e-13
7.96818e-14
1.36787e-08
4.98043e-12
4.4839e-14
2.48753e-08
8.0788e-10
2.09506e-14
6.03183e-14
5.3536e-15
4.07177e-15
2.59595e-15
0.999667
0.999914
0.99999
0.999999
1
1
1
1
1
1
0.949326
0.996579
0.999846
0.999983
0.999999
1
1
1
1
1
0.572425
0.83557
0.997697
0.999931
0.999997
1
1
1
1
1
0.255177
0.542405
0.95591
0.999819
0.999992
1
1
1
1
1
0.12677
0.355369
0.875897
0.999739
0.99999
1
1
1
1
1
0.0696774
0.24641
0.797193
0.999725
0.999991
1
1
1
1
1
0.0504909
0.18849
0.746671
0.999626
0.999991
1
1
1
1
1
0.0407625
0.404018
0.916043
0.999942
0.999998
1
1
1
1
1
2.80408e-05
0.0969058
0.777381
0.999718
0.999942
0.96719
0.87
0.770858
0.694495
0.658068
4.9375e-07
1.17025e-06
0.0801529
0.485345
0.727805
0.571908
0.278829
0.103819
0.0488757
0.0374713
1.09492e-08
1.26995e-07
1.17025e-06
0.00218803
0.0314753
0.0190018
0.000511669
0.000297437
0.000153268
0.000169293
4.06873e-09
2.26732e-08
2.75053e-06
9.16474e-07
2.9296e-06
2.13148e-05
2.29253e-05
1.6302e-05
1.14717e-05
1.74469e-05
2.45189e-10
5.73024e-10
2.64768e-09
7.58387e-07
2.61523e-06
5.01084e-07
8.34533e-07
7.72947e-07
7.97878e-07
1.30145e-06
2.18613e-10
1.55788e-10
5.27671e-10
7.52282e-09
5.6797e-08
1.25827e-08
2.73094e-08
3.53671e-08
4.90908e-08
7.23387e-08
1.41833e-10
2.66307e-11
2.17399e-06
3.46542e-07
4.68152e-11
3.40333e-10
9.21325e-10
1.53496e-09
2.47653e-09
3.20623e-09
7.61738e-11
1.292e-11
4.48155e-06
5.90203e-07
4.08738e-12
9.93691e-12
3.97369e-11
7.31533e-11
1.2087e-10
1.3375e-10
8.07746e-11
1.08541e-11
5.49417e-06
6.67491e-07
7.73627e-13
3.35247e-13
3.0246e-12
4.75326e-12
8.50407e-12
8.45456e-12
1.24483e-10
9.58925e-12
5.65563e-06
6.46685e-07
3.3705e-13
3.76332e-14
1.36177e-12
1.40403e-12
1.88416e-12
1.30606e-12
7.45298e-11
9.42403e-12
5.414e-06
5.90064e-07
3.76332e-14
2.58552e-14
3.44388e-13
2.26238e-13
2.13378e-13
1.56364e-13
8.20383e-11
9.99236e-12
4.65285e-06
5.37685e-07
2.58552e-14
2.40361e-14
2.10756e-13
6.36338e-14
9.81875e-15
6.62306e-15
0.941743
0.983402
0.998254
0.99999
1
1
1
1
1
1
0.348694
0.679642
0.970588
0.999849
0.999993
1
1
1
1
1
0.0028496
0.138735
0.735749
0.997702
0.999957
0.999998
1
1
1
1
0.000321025
0.000718958
0.383109
0.956272
0.99989
0.999997
1
1
1
1
6.50572e-05
0.000107494
0.182814
0.878312
0.999844
0.999995
1
1
1
1
5.13932e-05
5.29828e-05
0.105806
0.804588
0.999828
0.999995
1
1
1
1
5.14818e-05
4.90014e-05
0.0922344
0.75786
0.999813
0.999995
1
1
1
1
4.90014e-05
4.67937e-05
0.249327
0.921705
0.999962
0.999999
1
1
1
1
4.73655e-05
4.90302e-05
0.0221586
0.783518
0.99982
0.999962
0.936276
0.828183
0.739042
0.689872
2.51796e-05
5.03302e-05
5.53034e-05
0.0892807
0.538635
0.676091
0.483421
0.19836
0.0758172
0.0507357
3.6476e-05
9.45753e-05
8.12582e-05
1.57613e-06
0.00331154
0.0221589
0.00896242
0.000422451
0.000284299
0.000284357
1.09577e-08
3.21666e-06
4.55281e-05
2.39793e-06
4.48598e-07
2.79185e-06
1.76084e-05
2.13443e-05
2.28648e-05
3.55613e-05
4.0676e-09
1.23538e-06
2.05101e-05
3.05961e-09
1.75855e-07
1.19e-06
4.59565e-07
9.85311e-07
1.74365e-06
3.17924e-06
8.29669e-07
1.96345e-05
4.13314e-05
1.61738e-09
2.88296e-09
2.56079e-08
1.30584e-08
4.18676e-08
1.13569e-07
2.04813e-07
3.92139e-05
2.15158e-05
4.6474e-05
2.6239e-10
4.08738e-12
4.58183e-11
3.69977e-10
1.89679e-09
6.16455e-09
9.55675e-09
0.000140653
2.14028e-05
4.37899e-05
4.08738e-12
7.73627e-13
3.21404e-12
2.33352e-11
9.85623e-11
2.76944e-10
3.66972e-10
0.000220051
0.000122274
4.02486e-05
7.73627e-13
4.42156e-13
2.76462e-12
3.40972e-12
7.20601e-12
1.88552e-11
1.93255e-11
0.000250203
0.000255085
3.13527e-05
5.21313e-13
3.3817e-13
1.80619e-12
2.53172e-12
2.79219e-12
1.81255e-12
9.1049e-13
9.84272e-05
0.000259035
2.94383e-05
3.74254e-13
1.97916e-13
1.09762e-12
8.46967e-13
7.99029e-13
4.20287e-13
2.8659e-13
3.60106e-05
0.000259489
2.82819e-05
2.55533e-13
1.4356e-13
8.03892e-13
4.57613e-13
4.51317e-13
4.20879e-14
2.06978e-14
0.641785
0.832517
0.985368
0.999919
0.999996
1
1
1
1
1
0.0206074
0.114864
0.691165
0.997299
0.999939
0.999998
1
1
1
1
0.0195773
0.0135689
0.145318
0.844987
0.999612
0.999985
1
1
1
1
0.0303258
0.0118176
0.000678934
0.557528
0.995463
0.999967
0.999999
1
1
1
0.0103896
0.00775561
0.000103389
0.370863
0.970585
0.999955
0.999999
1
1
1
6.50571e-05
0.000552676
5.50777e-05
0.267714
0.937076
0.999946
0.999999
1
1
1
5.14817e-05
6.49194e-05
4.58004e-05
0.21661
0.906187
0.999935
0.999999
1
1
1
5.25142e-05
4.72442e-05
5.22569e-05
0.441967
0.976057
0.999987
1
1
1
1
5.08276e-05
0.00103192
6.01628e-05
0.102955
0.93958
0.999845
0.986024
0.872504
0.774046
0.715765
0.0012123
0.00872486
0.000161841
1.09795e-05
0.232733
0.705001
0.654789
0.354707
0.113646
0.0637666
0.00832599
0.010557
0.000126316
2.1418e-07
3.47859e-07
0.0267755
0.0304902
0.00529878
0.000456809
0.000438685
0.0105409
0.0106163
3.37249e-07
8.8057e-08
1.09734e-05
7.18051e-07
9.53902e-06
2.78736e-05
3.93623e-05
6.1269e-05
0.00558768
0.0105338
7.50829e-08
6.34626e-08
4.32198e-09
1.14221e-07
1.71728e-07
1.24317e-06
3.29527e-06
6.59796e-06
9.69716e-05
0.0103648
9.61316e-08
1.56215e-07
1.68384e-11
1.35743e-08
5.84647e-09
5.64704e-08
2.30006e-07
4.92348e-07
0.000515869
0.0100109
3.23776e-07
4.17593e-07
1.15788e-12
1.3957e-11
2.14579e-10
2.36748e-09
1.34263e-08
2.50114e-08
0.000680759
0.00437934
4.1313e-07
4.75238e-07
4.42156e-13
1.15788e-12
1.16763e-11
1.50461e-10
6.18307e-10
9.74565e-10
0.000269593
1.19286e-06
3.3912e-07
2.82465e-07
3.51827e-13
2.83138e-12
5.09617e-12
1.26327e-11
3.65567e-11
4.18973e-11
3.03919e-06
1.54552e-06
1.44621e-06
4.16518e-10
3.02463e-13
1.66056e-12
4.29393e-12
6.12485e-12
2.34883e-12
2.12349e-12
1.97323e-06
1.88111e-05
1.5966e-06
3.02463e-13
2.63511e-13
1.17929e-12
2.18437e-12
2.69821e-12
8.35367e-13
5.54363e-13
1.02141e-05
7.64487e-05
3.36878e-05
2.63511e-13
2.30238e-13
1.15776e-12
1.75239e-12
1.89105e-12
1.67546e-13
4.71037e-14
0.509148
0.666713
0.954773
0.999705
0.999984
0.999999
1
1
1
1
0.0304285
0.0235286
0.395623
0.963005
0.999786
0.999991
1
1
1
1
0.0447141
0.0194165
0.0076921
0.614299
0.998153
0.99995
0.999999
1
1
1
0.0418021
0.0301474
0.00033381
0.287603
0.948245
0.999878
0.999997
1
1
1
0.00403157
0.0124228
6.87844e-05
0.144054
0.872079
0.99982
0.999995
1
1
1
0.000138371
6.87843e-05
4.58004e-05
0.0861559
0.809117
0.999801
0.999995
1
1
1
0.000121905
4.58002e-05
3.99568e-05
0.0722035
0.765617
0.999788
0.999995
1
1
1
0.000160901
5.22457e-05
4.32102e-05
0.0657852
0.848073
0.999925
0.999999
1
1
1
0.00111787
6.41153e-05
4.701e-05
4.11769e-05
0.787057
0.999743
0.999925
0.900909
0.791742
0.729889
0.00277756
0.00406246
1.83212e-05
3.80191e-07
0.0911034
0.68764
0.783211
0.496265
0.151725
0.0711592
0.00119932
0.010557
2.42658e-05
8.36051e-08
2.51629e-07
0.0299674
0.0657877
0.0274344
0.000641063
0.000575892
0.000392384
0.00508082
8.36325e-08
6.03455e-08
7.40052e-07
8.3724e-07
7.17892e-07
2.91526e-05
5.51367e-05
8.35944e-05
0.000178347
1.99103e-06
3.71394e-08
5.01321e-08
3.22615e-07
8.78112e-07
1.09689e-07
9.95272e-07
4.77767e-06
1.02366e-05
8.51687e-05
0.000257923
4.10725e-09
2.68068e-09
2.68646e-11
1.96728e-08
4.59902e-08
6.13623e-08
3.85905e-07
8.59509e-07
4.58648e-05
0.000604659
1.9181e-06
2.68646e-11
1.32791e-11
1.18598e-11
4.04571e-10
4.07683e-09
2.13788e-08
4.67572e-08
3.56946e-05
0.000590935
1.55307e-05
2.6547e-10
3.94614e-10
1.5577e-12
1.7965e-11
2.04653e-10
1.00823e-09
1.85976e-09
1.22834e-05
0.000176662
5.12439e-05
8.08714e-10
2.32144e-09
9.85787e-13
3.74198e-12
1.45102e-11
5.60625e-11
6.89242e-11
3.35577e-06
3.23536e-06
8.28524e-05
6.48522e-10
1.06786e-08
8.57259e-13
5.86363e-12
5.62189e-12
3.68595e-12
3.78487e-12
1.36902e-06
3.23412e-06
8.29227e-05
3.91773e-10
1.53284e-08
7.81864e-13
3.68812e-12
1.45593e-12
1.31451e-12
8.29867e-13
1.26997e-06
6.91585e-06
7.42391e-05
9.49587e-11
1.45923e-08
7.25422e-13
2.40718e-12
6.22657e-13
3.38537e-13
1.02101e-13
0.524362
0.681416
0.958088
0.999728
0.999985
0.999999
1
1
1
1
0.0348801
0.0271991
0.411928
0.966703
0.999799
0.999991
1
1
1
1
0.0465781
0.0194656
0.0101315
0.624908
0.998489
0.999952
0.999999
1
1
1
0.0299905
0.0288578
0.000314476
0.294809
0.950473
0.999883
0.999997
1
1
1
0.000203713
0.0116266
5.44248e-05
0.14829
0.874703
0.999825
0.999995
1
1
1
0.000145965
5.44248e-05
4.00838e-05
0.090504
0.811967
0.999804
0.999995
1
1
1
0.000103469
4.01479e-05
4.01479e-05
0.0727972
0.770176
0.999793
0.999995
1
1
1
0.000150414
4.23939e-05
3.99456e-05
0.0590796
0.847674
0.999927
0.999999
1
1
1
0.000974825
5.48532e-05
4.32102e-05
3.20918e-05
0.794137
0.99975
0.999927
0.90006
0.791455
0.729734
0.00274262
0.0010336
2.33678e-05
5.52457e-07
0.0896413
0.694906
0.79483
0.505424
0.153523
0.0711144
0.00179537
0.00727736
3.0753e-05
1.3681e-07
2.6194e-07
0.033006
0.0720254
0.0310457
0.000666983
0.000588048
0.000590075
0.00939888
1.10554e-07
9.60577e-08
1.20163e-06
9.39567e-07
7.59238e-07
2.99219e-05
5.69173e-05
8.60792e-05
0.000294252
0.00567562
9.62462e-08
1.63275e-07
2.64322e-07
8.61697e-07
1.14628e-07
9.47666e-07
4.91543e-06
1.07146e-05
0.000123084
0.000154099
9.61128e-08
1.6259e-07
1.16194e-11
2.36049e-08
5.18325e-08
6.24135e-08
4.04253e-07
9.17875e-07
4.94583e-05
0.000476479
1.01748e-07
1.62438e-07
2.46288e-12
1.12497e-11
4.15112e-10
4.23891e-09
2.22764e-08
5.06672e-08
6.14927e-05
0.000709928
4.39061e-08
6.39504e-08
1.3978e-12
1.62918e-12
1.78358e-11
2.11958e-10
1.05502e-09
2.02576e-09
2.85883e-05
0.000321157
5.45344e-09
8.03009e-10
7.21656e-10
1.0438e-12
4.00624e-12
1.48239e-11
5.83697e-11
7.34845e-11
4.7486e-06
1.3011e-06
1.02573e-06
4.18693e-09
9.857e-09
9.08062e-13
5.70858e-12
5.5705e-12
3.83501e-12
4.06504e-12
1.26996e-06
1.36902e-06
4.92066e-06
6.11758e-10
1.81313e-08
8.37515e-13
3.24702e-12
1.4704e-12
1.35455e-12
8.57034e-13
1.13876e-06
1.26996e-06
8.0797e-06
2.61504e-10
1.8149e-08
8.11609e-13
1.89763e-12
5.87909e-13
3.50218e-13
1.04708e-13
0.657634
0.848145
0.987612
0.999928
0.999996
1
1
1
1
1
0.0228815
0.134195
0.717055
0.99817
0.999944
0.999998
1
1
1
1
0.020421
0.0121452
0.164096
0.860114
0.999643
0.999986
1
1
1
1
0.0321965
0.0105523
0.000733059
0.579892
0.996694
0.999969
0.999999
1
1
1
0.0105999
0.0101803
8.41984e-05
0.380341
0.973037
0.999956
0.999999
1
1
1
0.000138815
0.00116411
4.19826e-05
0.271026
0.938681
0.999946
0.999999
1
1
1
4.97582e-05
4.11666e-05
3.99456e-05
0.232985
0.914748
0.999938
0.999999
1
1
1
4.50542e-05
3.12552e-05
4.11666e-05
0.457386
0.979661
0.999988
1
1
1
1
4.41556e-05
0.00347217
4.86345e-05
0.0991464
0.94323
0.999849
0.98616
0.872295
0.77418
0.715691
0.0025873
0.00945926
6.10991e-05
4.84979e-07
0.23321
0.71735
0.672302
0.368267
0.116059
0.0640259
0.0090954
0.00945931
2.94901e-06
4.03313e-07
3.76759e-07
0.0303263
0.0361111
0.00755501
0.000483106
0.000456865
0.00940788
0.00946016
1.6421e-07
7.36549e-07
1.29244e-05
6.46629e-07
8.89278e-06
3.01122e-05
4.18814e-05
6.51865e-05
0.0049708
0.00936976
1.23168e-07
2.91369e-07
3.99262e-09
7.45473e-08
1.59954e-07
1.32606e-06
3.53178e-06
7.24005e-06
0.000123549
0.00916482
1.2376e-07
5.06455e-07
1.60524e-11
1.01918e-08
5.77618e-09
6.06096e-08
2.50709e-07
5.59331e-07
0.000546092
0.00878817
1.87818e-07
7.52521e-07
1.3978e-12
1.39213e-11
2.22621e-10
2.48016e-09
1.47551e-08
2.89761e-08
0.000796176
0.00497971
2.58761e-07
7.64073e-07
7.32582e-13
1.3978e-12
1.1582e-11
1.64193e-10
6.82803e-10
1.13545e-09
0.000397588
0.000192974
8.4055e-07
6.62251e-07
5.52714e-13
3.18861e-12
5.44822e-12
1.31409e-11
3.96346e-11
4.70244e-11
1.97112e-06
1.35756e-06
2.00652e-06
4.36321e-07
4.92811e-13
1.93478e-12
4.66137e-12
5.94715e-12
2.53101e-12
2.4184e-12
1.36902e-06
2.77992e-06
3.02174e-06
1.17982e-07
4.53152e-13
1.20524e-12
2.35734e-12
2.47484e-12
8.8304e-13
6.05625e-13
7.79021e-06
1.29429e-05
3.61809e-06
4.53152e-13
4.40896e-13
1.95678e-12
1.79981e-12
1.80039e-12
1.64087e-13
5.12272e-14
0.946639
0.985614
0.99856
0.999991
1
1
1
1
1
1
0.369947
0.706486
0.975557
0.999864
0.999993
1
1
1
1
1
0.00440803
0.157442
0.760901
0.998476
0.99996
0.999999
1
1
1
1
0.000327793
0.000738629
0.412345
0.963563
0.999899
0.999997
1
1
1
1
7.13424e-05
9.21179e-05
0.198239
0.888299
0.999851
0.999996
1
1
1
1
4.90673e-05
4.11826e-05
0.119021
0.813562
0.999826
0.999995
1
1
1
1
4.11826e-05
3.12552e-05
0.116824
0.782691
0.999822
0.999995
1
1
1
1
3.12552e-05
2.35562e-05
0.265882
0.936038
0.999966
0.999999
1
1
1
1
2.66222e-05
1.73864e-05
0.0123422
0.785265
0.999827
0.999966
0.936203
0.828224
0.7392
0.689575
1.329e-05
1.39002e-05
5.75357e-06
0.0801237
0.531728
0.685376
0.494611
0.20413
0.0766688
0.0509895
3.91782e-05
1.14291e-05
4.56321e-06
4.60271e-07
0.00278211
0.0238829
0.0106848
0.000444238
0.000296629
0.000296883
1.88479e-08
2.09963e-07
5.36194e-05
5.29518e-06
2.97187e-07
2.36776e-06
1.86776e-05
2.25691e-05
2.41625e-05
3.85711e-05
6.56631e-09
4.77593e-09
5.49988e-05
5.45992e-09
6.07442e-08
1.82191e-06
4.70567e-07
1.03995e-06
1.87533e-06
3.54836e-06
9.01752e-10
1.8841e-09
4.51178e-05
2.30909e-09
3.87946e-09
3.38376e-08
1.32345e-08
4.45524e-08
1.23935e-07
2.357e-07
4.32082e-06
4.34341e-08
5.49483e-05
5.3655e-08
4.1052e-12
4.53838e-11
3.80941e-10
2.02475e-09
6.77362e-09
1.11651e-08
1.74416e-05
3.81612e-08
5.49483e-05
4.36287e-08
9.98059e-13
4.1052e-12
2.41234e-11
1.06435e-10
3.05368e-10
4.30201e-10
2.83618e-05
2.06231e-07
5.31775e-05
9.98059e-13
6.58476e-13
5.79016e-12
3.70462e-12
7.84204e-12
2.04398e-11
2.19417e-11
3.92431e-05
2.08846e-08
5.07596e-05
7.1865e-13
5.12406e-13
3.54943e-12
2.80581e-12
3.08658e-12
1.79597e-12
1.03196e-12
4.55349e-05
2.77762e-05
4.52455e-05
5.12406e-13
3.43787e-13
1.35418e-12
1.18011e-12
9.58936e-13
4.5428e-13
3.15135e-13
9.29153e-05
0.000109781
2.71439e-05
3.90735e-13
2.71263e-13
1.01998e-12
7.56909e-13
5.78362e-13
4.92085e-14
2.32208e-14
0.999684
0.999922
0.999991
0.999999
1
1
1
1
1
1
0.955467
0.997473
0.999861
0.999985
0.999999
1
1
1
1
1
0.591456
0.853979
0.99848
0.999937
0.999997
1
1
1
1
1
0.271535
0.569162
0.963455
0.999839
0.999993
1
1
1
1
1
0.134804
0.369849
0.887248
0.999753
0.999991
1
1
1
1
1
0.0763091
0.258358
0.810415
0.999728
0.999991
1
1
1
1
1
0.0559814
0.218002
0.777599
0.999741
0.999991
1
1
1
1
1
0.0397473
0.434364
0.93379
0.999949
0.999999
1
1
1
1
1
2.94322e-05
0.0921063
0.781536
0.999731
0.999949
0.966656
0.869489
0.770621
0.693996
0.657298
4.53712e-07
4.02129e-07
0.0762174
0.471301
0.724768
0.573398
0.281274
0.104485
0.0488526
0.0374997
1.88478e-08
1.80866e-07
4.02129e-07
0.00137519
0.0299453
0.019103
0.000525957
0.000304921
0.000156868
0.000176181
6.56631e-09
1.29107e-07
3.59248e-06
7.53847e-07
3.14759e-06
2.12805e-05
2.35504e-05
1.67358e-05
1.18512e-05
1.89972e-05
9.01524e-10
1.88253e-09
7.25162e-09
5.17697e-07
2.40402e-06
4.81136e-07
8.45077e-07
7.98235e-07
8.37265e-07
1.44124e-06
9.01752e-10
4.72871e-10
1.53448e-09
1.06723e-08
6.72419e-08
1.18043e-08
2.76148e-08
3.63142e-08
5.18424e-08
8.18108e-08
9.01752e-10
6.96925e-08
3.69805e-06
3.46434e-07
4.35336e-11
3.18874e-10
9.13247e-10
1.56296e-09
2.63301e-09
3.65278e-09
7.49467e-10
3.58544e-08
2.49561e-06
6.57829e-07
4.1052e-12
9.27994e-12
3.89574e-11
7.4965e-11
1.282e-10
1.48036e-10
5.33885e-10
8.24109e-09
3.51931e-07
7.8868e-07
1.30917e-12
4.07683e-13
3.60442e-12
4.90518e-12
9.01082e-12
9.2977e-12
3.93254e-10
2.0542e-10
1.50082e-07
7.81442e-07
4.08601e-13
1.3154e-13
2.00997e-12
1.49686e-12
1.97051e-12
1.20945e-12
1.33098e-10
5.47477e-12
1.90761e-08
7.18651e-07
1.3154e-13
1.14407e-13
9.08711e-13
2.81767e-13
2.25919e-13
1.64932e-13
1.07421e-10
3.53935e-12
1.5212e-06
6.25608e-07
1.14407e-13
1.0905e-13
7.04803e-13
1.03335e-13
1.10516e-14
7.31485e-15
0.999982
0.999996
1
1
1
1
1
1
1
1
0.999768
0.999941
0.999993
0.999999
1
1
1
1
1
1
0.997327
0.999628
0.999959
0.999997
1
1
1
1
1
1
0.941018
0.995892
0.999898
0.999993
1
1
1
1
1
1
0.862301
0.970604
0.999848
0.999991
1
1
1
1
1
1
0.794622
0.932632
0.999821
0.999991
1
1
1
1
1
1
0.741823
0.903727
0.999813
0.999991
1
1
1
1
1
1
0.825501
0.975526
0.999963
0.999999
1
1
1
1
1
1
0.785816
0.936695
0.99982
0.999948
0.974896
0.889394
0.794173
0.706375
0.648995
0.623245
0.0708494
0.215855
0.518576
0.721452
0.61711
0.343972
0.132672
0.0560906
0.0310585
0.0263037
1.32584e-07
2.47058e-07
0.00192014
0.0286066
0.0257869
0.00308223
0.000387162
0.000156652
7.77729e-05
0.000103055
7.85349e-07
7.12881e-06
2.6296e-07
3.28812e-06
2.39484e-05
3.06453e-05
2.10613e-05
9.20375e-06
5.53549e-06
8.51518e-06
4.25564e-07
3.93913e-09
1.90239e-08
2.48843e-06
5.41031e-07
1.10886e-06
9.22431e-07
4.68821e-07
3.63944e-07
5.56226e-07
4.72871e-10
1.91767e-10
3.93401e-09
7.24606e-08
1.31529e-08
3.52121e-08
3.56406e-08
2.24653e-08
2.07083e-08
2.85976e-08
3.58872e-09
1.1038e-11
2.83986e-11
1.23243e-10
4.16429e-10
1.06694e-09
1.29032e-09
9.45631e-10
1.00739e-09
1.24474e-09
5.97062e-09
8.13323e-12
7.94457e-12
3.7897e-09
7.63041e-11
3.90392e-11
5.5627e-11
4.70486e-11
6.01579e-11
6.49474e-11
7.08946e-09
5.93771e-12
1.67624e-12
6.02129e-09
7.98704e-10
1.05493e-12
2.94416e-12
2.85365e-12
3.88625e-12
3.85585e-12
6.25633e-09
3.47405e-12
2.06136e-13
7.90117e-09
9.88624e-10
1.38135e-13
9.05716e-13
8.57322e-13
1.15871e-12
9.99468e-13
6.42914e-09
3.71608e-12
9.39109e-12
6.36427e-09
9.32575e-10
1.06147e-13
2.99788e-13
1.02166e-13
1.15232e-13
8.36683e-14
6.3497e-09
1.46858e-12
1.27565e-13
1.15718e-08
8.00166e-10
1.0111e-13
1.97017e-13
1.05279e-14
4.17839e-15
2.73437e-15
0.999999
1
1
1
1
1
1
1
1
1
0.99999
0.999998
1
1
1
1
1
1
1
1
0.999947
0.999986
0.999999
1
1
1
1
1
1
1
0.99987
0.999967
0.999997
1
1
1
1
1
1
1
0.999814
0.999954
0.999996
1
1
1
1
1
1
1
0.999794
0.999943
0.999995
1
1
1
1
1
1
1
0.999773
0.999932
0.999995
1
1
1
1
1
1
1
0.999919
0.999986
0.999999
1
1
1
1
1
1
1
0.999748
0.999843
0.999963
0.967543
0.889922
0.802799
0.71568
0.64948
0.608619
0.589094
0.674921
0.711403
0.686671
0.572223
0.342633
0.14673
0.0626918
0.0316469
0.0203872
0.0175268
0.0274484
0.0291045
0.023714
0.0184033
0.00282042
0.000430454
0.00018552
7.04051e-05
4.77113e-05
5.82488e-05
8.76616e-07
7.46499e-07
2.38279e-06
2.04477e-05
3.01069e-05
2.41088e-05
1.08691e-05
4.2656e-06
3.1546e-06
3.91586e-06
1.25863e-06
1.39737e-07
1.9745e-06
4.65532e-07
1.09021e-06
1.0692e-06
5.3199e-07
2.27307e-07
1.90442e-07
2.24094e-07
2.84819e-08
2.6662e-08
3.59687e-08
1.15427e-08
3.46992e-08
4.03324e-08
2.27051e-08
1.09828e-08
1.01525e-08
1.09241e-08
4.90287e-11
2.47311e-11
4.45242e-11
3.14734e-10
1.06999e-09
1.38533e-09
8.83399e-10
4.66239e-10
4.83341e-10
4.69189e-10
3.20951e-11
1.09989e-11
1.67624e-12
9.71196e-12
5.3056e-11
5.65589e-11
4.02409e-11
2.81239e-11
3.31003e-11
2.97049e-11
3.2637e-10
1.10697e-11
2.06136e-13
6.36423e-13
1.96545e-11
3.53624e-12
2.29602e-12
1.66446e-12
2.00191e-12
1.61591e-12
1.594e-10
1.61649e-11
1.36081e-13
2.06136e-13
2.04584e-11
1.36316e-12
6.18674e-13
5.91679e-13
6.68497e-13
5.10805e-13
4.73847e-10
2.24593e-11
1.31283e-13
1.33782e-13
1.74665e-11
7.17718e-13
7.24632e-14
6.11398e-14
6.22961e-14
4.02864e-14
3.18046e-10
2.01619e-11
1.24324e-13
1.17944e-13
1.46252e-11
5.34387e-13
1.20154e-14
2.24202e-15
2.08604e-15
1.17068e-15
1
1
1
1
1
1
1
1
1
1
1
1
1
1
1
1
1
1
1
1
0.999998
1
1
1
1
1
1
1
1
1
0.999997
0.999999
1
1
1
1
1
1
1
1
0.999995
0.999999
1
1
1
1
1
1
1
1
0.999995
0.999999
1
1
1
1
1
1
1
1
0.999995
0.999999
1
1
1
1
1
1
1
1
0.999999
1
1
1
1
1
1
1
1
1
0.999919
0.988406
0.9378
0.87082
0.794901
0.715989
0.650992
0.604102
0.573126
0.557129
0.803637
0.682211
0.501778
0.282446
0.132527
0.0627257
0.0324308
0.0195394
0.0135501
0.0113558
0.0728678
0.0387189
0.0114606
0.000530409
0.000386584
0.00018473
7.34206e-05
4.29442e-05
3.40545e-05
3.3576e-05
7.13046e-07
9.20253e-06
1.99561e-05
2.38533e-05
2.0988e-05
1.08225e-05
4.39302e-06
2.56276e-06
2.05586e-06
1.96582e-06
1.15475e-07
1.7374e-07
5.13539e-07
8.67099e-07
9.23949e-07
5.29846e-07
2.24648e-07
1.3814e-07
1.15261e-07
1.03099e-07
5.19242e-08
6.2853e-09
1.46086e-08
2.8656e-08
3.55632e-08
2.25412e-08
1.04646e-08
6.63119e-09
5.89955e-09
4.87354e-09
4.18824e-10
2.42869e-10
4.25484e-10