/*--------------------------------*- C++ -*----------------------------------*\
| =========                 |                                                 |
| \\      /  F ield         | OpenFOAM: The Open Source CFD Toolbox           |
|  \\    /   O peration     | Version:  2312                                  |
|   \\  /    A nd           | Website:  www.openfoam.com                      |
|    \\/     M anipulation  |                                                 |
\*---------------------------------------------------------------------------*/
FoamFile
{
    version     2.0;
    format      ascii;
    arch        "LSB;label=32;scalar=64";
    class       surfaceScalarField;
    location    "0.16";
    object      phi;
}
// * * * * * * * * * * * * * * * * * * * * * * * * * * * * * * * * * * * * * //

dimensions      [0 3 -1 0 0 0 0];

oriented        oriented;

internalField   nonuniform List<scalar> 
22600
(
3.38364e-07
5.61399e-07
-8.82638e-07
6.07278e-07
5.57467e-07
-8.26381e-07
7.91584e-07
5.49531e-07
-7.33837e-07
8.79939e-07
5.37874e-07
-6.26228e-07
8.76497e-07
5.23655e-07
-5.20213e-07
7.93953e-07
5.08575e-07
-4.26031e-07
6.48525e-07
4.94366e-07
-3.48939e-07
4.57041e-07
4.82487e-07
-2.91003e-07
2.35682e-07
4.74006e-07
-2.52646e-07
4.68898e-07
-2.33216e-07
3.58348e-07
1.17197e-06
-9.50715e-07
6.42781e-07
1.16215e-06
-8.89118e-07
8.37248e-07
1.1432e-06
-7.88137e-07
9.29869e-07
1.11628e-06
-6.71028e-07
9.25261e-07
1.08413e-06
-5.55862e-07
8.37145e-07
1.05035e-06
-4.53664e-07
6.8301e-07
1.01862e-06
-3.70121e-07
4.80871e-07
9.92072e-07
-3.07446e-07
2.47784e-07
9.73114e-07
-2.66022e-07
9.61734e-07
-2.45051e-07
3.38355e-07
1.75145e-06
-9.01044e-07
6.0571e-07
1.73509e-06
-8.40298e-07
7.86829e-07
1.70419e-06
-7.42105e-07
8.71682e-07
1.66122e-06
-6.29793e-07
8.65667e-07
1.61072e-06
-5.20582e-07
7.82164e-07
1.55819e-06
-4.24333e-07
6.37583e-07
1.50908e-06
-3.4588e-07
4.4863e-07
1.46811e-06
-2.87085e-07
2.3109e-07
1.43888e-06
-2.4823e-07
1.42138e-06
-2.2856e-07
3.20039e-07
2.30525e-06
-8.58392e-07
5.71559e-07
2.28188e-06
-7.98311e-07
7.39978e-07
2.23815e-06
-7.02385e-07
8.1713e-07
2.17807e-06
-5.94007e-07
8.09281e-07
2.10813e-06
-4.89558e-07
7.29666e-07
2.03586e-06
-3.98059e-07
5.9385e-07
1.96856e-06
-3.23664e-07
4.17392e-07
1.9125e-06
-2.67934e-07
2.14853e-07
1.87253e-06
-2.31106e-07
1.8487e-06
-2.12466e-07
2.96784e-07
2.82981e-06
-8.07349e-07
5.28354e-07
2.79859e-06
-7.48276e-07
6.80971e-07
2.74072e-06
-6.55182e-07
7.4859e-07
2.66192e-06
-5.51469e-07
7.38431e-07
2.57074e-06
-4.52455e-07
6.63553e-07
2.47693e-06
-3.66188e-07
5.38615e-07
2.38979e-06
-2.96289e-07
3.77847e-07
2.31728e-06
-2.44013e-07
1.94284e-07
2.26559e-06
-2.09494e-07
2.23503e-06
-1.9204e-07
2.65894e-07
3.3063e-06
-7.29903e-07
4.7057e-07
3.26838e-06
-6.74466e-07
6.02109e-07
3.19682e-06
-5.87638e-07
6.5713e-07
3.09865e-06
-4.91748e-07
6.44056e-07
2.98476e-06
-4.00945e-07
5.75612e-07
2.86767e-06
-3.22295e-07
4.65162e-07
2.75906e-06
-2.58823e-07
3.25187e-07
2.66877e-06
-2.11516e-07
1.66702e-07
2.60442e-06
-1.80351e-07
2.56638e-06
-1.64648e-07
2.30678e-07
3.78687e-06
-6.99914e-07
4.05015e-07
3.73052e-06
-6.36479e-07
5.12113e-07
3.6318e-06
-5.42084e-07
5.52303e-07
3.50203e-06
-4.43571e-07
5.3584e-07
3.35564e-06
-3.5441e-07
4.74989e-07
3.20812e-06
-2.79603e-07
3.81499e-07
3.07304e-06
-2.20483e-07
2.65749e-07
2.96155e-06
-1.77025e-07
1.36313e-07
2.8825e-06
-1.48642e-07
2.83712e-06
-1.34427e-07
1.66904e-07
4.18077e-06
-5.51873e-07
2.91886e-07
4.11125e-06
-5.0571e-07
3.6304e-07
3.98984e-06
-4.29192e-07
3.82954e-07
3.82291e-06
-3.40788e-07
3.63912e-07
3.6362e-06
-2.61524e-07
3.16734e-07
3.45435e-06
-1.9905e-07
2.50233e-07
3.29169e-06
-1.52155e-07
1.71962e-07
3.1583e-06
-1.1848e-07
8.77628e-08
3.06351e-06
-9.68145e-08
3.0111e-06
-8.62174e-08
1.37365e-07
4.71e-06
-6.55535e-07
2.35722e-07
4.5597e-06
-5.46807e-07
2.84745e-07
4.31212e-06
-3.71304e-07
3.01667e-07
4.04643e-06
-2.40444e-07
2.92376e-07
3.8204e-06
-1.74906e-07
2.57058e-07
3.63367e-06
-1.43999e-07
2.0346e-07
3.46499e-06
-1.19695e-07
1.41067e-07
3.31802e-06
-9.73261e-08
7.36052e-08
3.21171e-06
-8.07332e-08
3.1565e-06
-7.17941e-08
6.42545e-07
7.90294e-06
-3.80649e-06
1.03682e-06
7.29921e-06
-3.13378e-06
1.1068e-06
6.41077e-06
-2.16863e-06
1.06822e-06
5.60061e-06
-1.5156e-06
1.04543e-06
5.0566e-06
-1.21341e-06
1.11872e-06
4.57381e-06
-1.01344e-06
1.14532e-06
4.15073e-06
-7.12345e-07
8.74464e-07
3.9305e-06
-3.41618e-07
3.26142e-07
3.90481e-06
-1.44774e-07
3.90536e-06
-4.22721e-07
2.21264e-06
1.45769e-05
-8.83683e-06
3.61693e-06
1.38523e-05
-7.95734e-06
4.24438e-06
1.20846e-05
-6.30133e-06
4.72924e-06
9.87889e-06
-4.76314e-06
4.63796e-06
7.98213e-06
-2.83424e-06
3.76675e-06
6.46685e-06
-1.02183e-06
2.54535e-06
5.5004e-06
-1.28259e-07
1.30014e-06
5.06227e-06
1.13454e-07
3.34026e-07
4.86523e-06
5.69072e-09
4.7011e-06
-4.61717e-07
2.5117e-06
1.63925e-05
-4.25667e-06
4.38887e-06
1.53398e-05
-3.36466e-06
5.31768e-06
1.31226e-05
-1.96676e-06
5.1687e-06
1.04523e-05
-4.24455e-07
3.89661e-06
8.09206e-06
1.16216e-06
2.4129e-06
6.6115e-06
1.33907e-06
1.22186e-06
5.80648e-06
8.84959e-07
4.82467e-07
5.38339e-06
4.18277e-07
7.80074e-08
5.15035e-06
1.19337e-07
4.90283e-06
-1.2371e-07
2.08619e-06
1.42231e-05
2.07062e-07
3.30752e-06
1.26363e-05
1.4821e-06
3.4243e-06
1.01856e-05
2.82025e-06
2.60687e-06
7.96872e-06
3.30104e-06
1.47973e-06
6.53788e-06
2.68133e-06
6.27738e-07
5.77424e-06
1.68925e-06
1.56258e-07
5.35619e-06
9.21767e-07
-4.68164e-08
5.11436e-06
4.72111e-07
-1.06503e-07
4.99197e-06
2.18075e-07
4.70574e-06
9.05799e-08
1.0675e-06
9.44994e-06
3.80998e-06
1.48059e-06
8.24046e-06
3.98278e-06
1.20381e-06
6.74044e-06
3.72191e-06
6.06389e-07
5.70097e-06
2.86517e-06
1.03675e-07
5.17512e-06
1.86547e-06
-1.79017e-07
4.91502e-06
1.14191e-06
-2.79633e-07
4.75734e-06
6.99478e-07
-2.6297e-07
4.66844e-06
4.29262e-07
-1.80883e-07
4.65208e-06
2.57807e-07
4.34736e-06
1.77501e-07
4.09485e-07
5.81105e-06
3.31415e-06
4.34565e-07
5.29915e-06
2.91623e-06
1.76037e-07
4.78621e-06
2.21276e-06
-1.36166e-07
4.4881e-06
1.52507e-06
-3.4137e-07
4.3434e-06
1.03693e-06
-4.26157e-07
4.26785e-06
7.31962e-07
-4.1913e-07
4.23044e-06
5.19878e-07
-3.37277e-07
4.22411e-06
3.62483e-07
-2.0008e-07
4.26171e-06
2.53174e-07
3.9448e-06
2.02478e-07
8.42936e-08
4.09222e-06
1.70385e-06
-2.73172e-08
3.968e-06
1.44276e-06
-2.16481e-07
3.85826e-06
1.11711e-06
-3.83813e-07
3.78802e-06
8.67413e-07
-4.8141e-07
3.75852e-06
6.82468e-07
-5.06704e-07
3.75758e-06
5.35569e-07
-4.62976e-07
3.77604e-06
4.1067e-07
-3.55451e-07
3.80807e-06
3.08523e-07
-1.9835e-07
3.86774e-06
2.36865e-07
3.54338e-06
2.03071e-07
-7.13898e-08
3.34556e-06
8.71447e-07
-2.1942e-07
3.31204e-06
8.03996e-07
-3.59348e-07
3.28919e-06
7.09001e-07
-4.69739e-07
3.28091e-06
6.17494e-07
-5.27999e-07
3.29793e-06
5.18851e-07
-5.26562e-07
3.33235e-06
4.23799e-07
-4.64335e-07
3.37585e-06
3.37968e-07
-3.47022e-07
3.42414e-06
2.66614e-07
-1.87629e-07
3.49089e-06
2.17457e-07
3.16285e-06
1.92907e-07
-1.14547e-07
2.88583e-06
6.13815e-07
-2.65727e-07
2.86956e-06
5.93657e-07
-3.92571e-07
2.87145e-06
5.44586e-07
-4.84926e-07
2.88767e-06
4.85592e-07
-5.2557e-07
2.92379e-06
4.14794e-07
-5.10641e-07
2.97127e-06
3.46147e-07
-4.41603e-07
3.02331e-06
2.835e-07
-3.25247e-07
3.0762e-06
2.31586e-07
-1.73254e-07
3.14249e-06
1.96404e-07
2.81242e-06
1.77168e-07
-1.28569e-07
2.52902e-06
5.12061e-07
-2.75883e-07
2.52188e-06
4.94983e-07
-3.93174e-07
2.53673e-06
4.52006e-07
-4.72612e-07
2.56422e-06
4.02887e-07
-5.01506e-07
2.60742e-06
3.45253e-07
-4.79639e-07
2.65849e-06
2.90915e-07
-4.09589e-07
2.71144e-06
2.41827e-07
-2.98705e-07
2.76344e-06
2.01872e-07
-1.57905e-07
2.82614e-06
1.75549e-07
2.49481e-06
1.59713e-07
-1.38077e-07
4.49767e-07
2.23123e-06
-2.77569e-07
4.31419e-07
2.22996e-06
-3.83474e-07
3.9108e-07
2.25155e-06
-4.50945e-07
3.47416e-07
2.28427e-06
-4.70682e-07
2.9684e-07
2.33032e-06
-4.44434e-07
2.5046e-07
2.38178e-06
-3.75765e-07
2.09604e-07
2.43316e-06
-2.71942e-07
1.7683e-07
2.48279e-06
-1.43252e-07
1.56178e-07
2.54128e-06
1.42481e-07
2.20908e-06
3.90845e-07
5.75974e-07
-1.82962e-06
6.94795e-07
5.71591e-07
-1.70192e-06
8.95139e-07
5.62641e-07
-1.49682e-06
9.83627e-07
5.49438e-07
-1.26415e-06
9.69837e-07
5.33465e-07
-1.03989e-06
8.71206e-07
5.16763e-07
-8.44164e-07
7.07096e-07
5.01254e-07
-6.86082e-07
4.96081e-07
4.88442e-07
-5.68431e-07
2.55124e-07
4.79372e-07
-4.91061e-07
4.73971e-07
-4.52064e-07
4.14748e-07
1.19878e-06
-1.96722e-06
7.36919e-07
1.18868e-06
-1.82838e-06
9.48736e-07
1.16854e-06
-1.60585e-06
1.04164e-06
1.1394e-06
-1.35389e-06
1.02599e-06
1.10441e-06
-1.11116e-06
9.20576e-07
1.06781e-06
-8.99296e-07
7.46265e-07
1.03366e-06
-7.28214e-07
5.23019e-07
1.00524e-06
-6.01001e-07
2.68768e-07
9.85044e-07
-5.17443e-07
9.73033e-07
-4.75345e-07
3.92824e-07
1.79739e-06
-1.87308e-06
6.96183e-07
1.7796e-06
-1.73457e-06
8.93091e-07
1.74529e-06
-1.51576e-06
9.77429e-07
1.69771e-06
-1.27244e-06
9.60541e-07
1.64222e-06
-1.0415e-06
8.60546e-07
1.58508e-06
-8.41608e-07
6.96946e-07
1.53218e-06
-6.80804e-07
4.8817e-07
1.48835e-06
-5.61415e-07
2.50773e-07
1.45723e-06
-4.83021e-07
1.43877e-06
-4.43524e-07
3.72209e-07
2.36672e-06
-1.78231e-06
6.5849e-07
2.34204e-06
-1.64703e-06
8.41641e-07
2.29349e-06
-1.43374e-06
9.17818e-07
2.22705e-06
-1.19952e-06
8.99356e-07
2.15046e-06
-9.79339e-07
8.04005e-07
2.07213e-06
-7.89754e-07
6.50127e-07
1.99983e-06
-6.3743e-07
4.54868e-07
1.93999e-06
-5.24315e-07
2.33506e-07
1.8975e-06
-4.50016e-07
1.87239e-06
-4.1258e-07
3.46077e-07
2.89819e-06
-1.66926e-06
6.11118e-07
2.8687e-06
-1.53997e-06
7.77382e-07
2.80704e-06
-1.335e-06
8.43601e-07
2.72189e-06
-1.11254e-06
8.23164e-07
2.62352e-06
-9.05076e-07
7.33367e-07
2.52277e-06
-7.27029e-07
5.91406e-07
2.42965e-06
-5.8415e-07
4.12963e-07
2.35248e-06
-4.78063e-07
2.11749e-07
2.29762e-06
-4.08397e-07
2.26542e-06
-3.73319e-07
3.11047e-07
3.36933e-06
-1.49844e-06
5.47104e-07
3.33924e-06
-1.38107e-06
6.90987e-07
3.26982e-06
-1.1943e-06
7.44138e-07
3.16892e-06
-9.91926e-07
7.21233e-07
3.04895e-06
-8.03476e-07
6.38956e-07
2.92443e-06
-6.41679e-07
5.12925e-07
2.80876e-06
-5.119e-07
3.56873e-07
2.71274e-06
-4.1572e-07
1.82414e-07
2.6444e-06
-3.52669e-07
2.60421e-06
-3.21024e-07
2.79997e-07
3.86979e-06
-1.46742e-06
4.86415e-07
3.82208e-06
-1.32574e-06
6.02854e-07
3.72782e-06
-1.11652e-06
6.37632e-07
3.59472e-06
-9.04152e-07
6.09185e-07
3.43894e-06
-7.15951e-07
5.33908e-07
3.27975e-06
-5.5965e-07
4.25312e-07
3.1342e-06
-4.37335e-07
2.94558e-07
3.01481e-06
-3.48346e-07
1.50537e-07
2.93044e-06
-2.90665e-07
2.88223e-06
-2.61911e-07
2.16792e-07
4.19125e-06
-1.07912e-06
3.74815e-07
4.16935e-06
-1.011e-06
4.53555e-07
4.10471e-06
-8.84818e-07
4.62266e-07
3.96226e-06
-7.17035e-07
4.2628e-07
3.7624e-06
-5.49e-07
3.63681e-07
3.55284e-06
-4.0954e-07
2.84085e-07
3.36804e-06
-3.06394e-07
1.93852e-07
3.22185e-06
-2.35285e-07
9.83652e-08
3.1197e-06
-1.90582e-07
3.06314e-06
-1.68763e-07
2.18272e-07
4.83947e-06
-1.50932e-06
3.53245e-07
4.81792e-06
-1.33035e-06
3.61781e-07
4.70291e-06
-9.78043e-07
3.36291e-07
4.39001e-06
-6.42704e-07
3.1298e-07
4.02822e-06
-4.17409e-07
2.80883e-07
3.73956e-06
-2.98622e-07
2.2958e-07
3.53386e-06
-2.34214e-07
1.60581e-07
3.38378e-06
-1.90254e-07
8.22814e-08
3.27443e-06
-1.57166e-07
3.21131e-06
-1.37679e-07
8.97908e-07
7.07744e-06
-6.85962e-06
1.38371e-06
7.27939e-06
-6.08106e-06
1.30891e-06
6.86896e-06
-4.25987e-06
1.05635e-06
5.74109e-06
-2.61412e-06
9.41952e-07
4.6583e-06
-1.72909e-06
8.37346e-07
4.1937e-06
-1.36298e-06
6.78245e-07
4.09604e-06
-1.11542e-06
4.50852e-07
4.02462e-06
-7.55068e-07
1.4314e-07
3.89449e-06
-4.57128e-07
3.898e-06
-9.66277e-07
1.26441e-06
7.55782e-06
-1.04215e-05
1.75454e-06
8.09511e-06
-9.26318e-06
1.57978e-06
8.30083e-06
-7.55844e-06
1.2033e-06
7.65447e-06
-6.30005e-06
1.20497e-06
6.52879e-06
-4.70641e-06
1.23728e-06
5.94463e-06
-2.80508e-06
9.29432e-07
5.5869e-06
-1.31126e-06
4.39142e-07
5.23163e-06
-6.03253e-07
-8.86711e-08
4.95307e-06
-5.25066e-07
4.86998e-06
-1.52236e-06
2.51759e-07
8.57263e-06
-5.52884e-06
2.25645e-07
8.98111e-06
-4.22454e-06
3.28363e-07
8.41284e-06
-2.18149e-06
4.59871e-07
7.65244e-06
-5.53932e-07
6.43789e-07
7.2002e-06
3.06846e-07
5.77026e-07
6.7101e-06
6.40364e-07
3.26311e-07
6.14154e-06
5.81042e-07
4.57154e-08
5.68142e-06
2.49082e-07
-1.66825e-07
5.39879e-06
-1.13841e-07
5.16379e-06
-5.84346e-07
-1.0356e-07
8.3145e-06
6.32921e-07
1.96561e-08
8.4374e-06
1.90258e-06
7.25478e-08
7.87059e-06
3.3096e-06
-3.26318e-08
7.25488e-06
3.80378e-06
-1.28086e-07
6.7295e-06
3.24748e-06
-1.97538e-07
6.21597e-06
2.25283e-06
-2.63051e-07
5.77742e-06
1.3514e-06
-2.74335e-07
5.47154e-06
6.93282e-07
-2.36052e-07
5.32695e-06
2.51639e-07
4.99996e-06
1.83614e-08
-3.68504e-08
7.60887e-06
4.67339e-06
-6.93203e-08
7.30041e-06
5.15224e-06
-1.83023e-07
6.69461e-06
5.01159e-06
-3.56105e-07
6.16709e-06
4.12604e-06
-4.84208e-07
5.75682e-06
2.96626e-06
-5.36183e-07
5.43537e-06
1.97449e-06
-5.1248e-07
5.19985e-06
1.25335e-06
-4.16627e-07
5.05323e-06
7.51717e-07
-2.62622e-07
5.01766e-06
4.13098e-07
4.65546e-06
2.59381e-07
3.93252e-08
6.09867e-06
4.90417e-06
-4.99151e-08
5.79847e-06
4.50742e-06
-2.33747e-07
5.42601e-06
3.6652e-06
-4.38753e-07
5.14178e-06
2.75539e-06
-5.70929e-07
4.92982e-06
1.99611e-06
-6.10375e-07
4.77553e-06
1.43125e-06
-5.64392e-07
4.67167e-06
1.00208e-06
-4.40125e-07
4.61674e-06
6.74716e-07
-2.51485e-07
4.63723e-06
4.44963e-07
4.26351e-06
3.42947e-07
1.26945e-08
4.81457e-06
3.06898e-06
-1.41287e-07
4.6778e-06
2.7174e-06
-3.43924e-07
4.51999e-06
2.22577e-06
-5.16629e-07
4.39252e-06
1.78939e-06
-6.12758e-07
4.29838e-06
1.41004e-06
-6.26647e-07
4.23675e-06
1.08824e-06
-5.61405e-07
4.20382e-06
8.13278e-07
-4.25598e-07
4.1989e-06
5.90553e-07
-2.32493e-07
4.24516e-06
4.35822e-07
3.86807e-06
3.66023e-07
-8.99338e-08
4.02194e-06
1.8199e-06
-2.70955e-07
3.96726e-06
1.69555e-06
-4.38764e-07
3.89587e-06
1.50094e-06
-5.64971e-07
3.83781e-06
1.29841e-06
-6.24587e-07
3.8016e-06
1.07525e-06
-6.14621e-07
3.78735e-06
8.63229e-07
-5.36695e-07
3.79127e-06
6.72595e-07
-3.98616e-07
3.81103e-06
5.16409e-07
-2.12655e-07
3.86719e-06
4.09475e-07
3.49005e-06
3.58269e-07
-1.37495e-07
3.50091e-06
1.31865e-06
-3.15128e-07
3.47093e-06
1.26763e-06
-4.60702e-07
3.43409e-06
1.15193e-06
-5.6277e-07
3.4101e-06
1.01537e-06
-6.02716e-07
3.40262e-06
8.53725e-07
-5.80291e-07
3.41067e-06
7.00409e-07
-4.98263e-07
3.43034e-06
5.62401e-07
-3.65072e-07
3.45995e-06
4.49475e-07
-1.92599e-07
3.51729e-06
3.73824e-07
3.14027e-06
3.34355e-07
-1.53328e-07
3.10864e-06
1.0886e-06
-3.2345e-07
3.09019e-06
1.04584e-06
-4.55164e-07
3.07151e-06
9.46297e-07
-5.41163e-07
3.06503e-06
8.33948e-07
-5.67569e-07
3.07101e-06
7.03265e-07
-5.37812e-07
3.08847e-06
5.83359e-07
-4.55953e-07
3.11343e-06
4.76882e-07
-3.30822e-07
3.14535e-06
3.91338e-07
-1.7375e-07
3.20016e-06
3.35612e-07
2.82262e-06
3.0361e-07
-1.64108e-07
9.45609e-07
2.79309e-06
-3.24641e-07
9.01369e-07
2.78077e-06
-4.42953e-07
8.09195e-07
2.7717e-06
-5.14769e-07
7.10516e-07
2.77375e-06
-5.3059e-07
5.97814e-07
2.78586e-06
-4.95928e-07
4.97383e-07
2.80688e-06
-4.15989e-07
4.10347e-07
2.83275e-06
-2.99515e-07
3.41851e-07
2.86386e-06
-1.56975e-07
2.98698e-07
2.91511e-06
2.71563e-07
2.53657e-06
5.07695e-07
6.02828e-07
-2.91372e-06
8.85819e-07
5.98754e-07
-2.6788e-06
1.11626e-06
5.88148e-07
-2.31541e-06
1.20036e-06
5.71678e-07
-1.91993e-06
1.16141e-06
5.51901e-07
-1.55284e-06
1.02742e-06
5.31696e-07
-1.24188e-06
8.24168e-07
5.13413e-07
-9.9624e-07
5.73471e-07
4.98647e-07
-8.1638e-07
2.93474e-07
4.88365e-07
-6.99429e-07
4.82378e-07
-6.40967e-07
5.39562e-07
1.24398e-06
-3.12e-06
9.41374e-07
1.23713e-06
-2.86856e-06
1.18581e-06
1.21591e-06
-2.47804e-06
1.27454e-06
1.18238e-06
-2.05333e-06
1.23233e-06
1.14152e-06
-1.65857e-06
1.08912e-06
1.09905e-06
-1.32344e-06
8.7268e-07
1.05991e-06
-1.05827e-06
6.06596e-07
1.02774e-06
-8.64012e-07
3.10183e-07
1.00507e-06
-7.37733e-07
9.91819e-07
-6.74603e-07
5.14743e-07
1.87853e-06
-2.99649e-06
8.94294e-07
1.86518e-06
-2.74218e-06
1.12027e-06
1.82543e-06
-2.35126e-06
1.19847e-06
1.76732e-06
-1.93559e-06
1.15514e-06
1.70059e-06
-1.55723e-06
1.01898e-06
1.63346e-06
-1.23986e-06
8.15605e-07
1.57263e-06
-9.90154e-07
5.66583e-07
1.523e-06
-8.07647e-07
2.89622e-07
1.48811e-06
-6.891e-07
1.46776e-06
-6.29842e-07
4.9067e-07
2.47685e-06
-2.84773e-06
8.48617e-07
2.459e-06
-2.5988e-06
1.05827e-06
2.40237e-06
-2.22033e-06
1.12767e-06
2.32062e-06
-1.82222e-06
1.08374e-06
2.22869e-06
-1.46351e-06
9.5408e-07
2.13723e-06
-1.16386e-06
7.62559e-07
2.05458e-06
-9.27861e-07
5.29183e-07
1.98716e-06
-7.55098e-07
2.70329e-07
1.93971e-06
-6.42759e-07
1.91208e-06
-5.86572e-07
4.61737e-07
3.01018e-06
-2.64316e-06
7.91749e-07
2.99428e-06
-2.40527e-06
9.81489e-07
2.93085e-06
-2.05321e-06
1.04065e-06
2.83283e-06
-1.68391e-06
9.9606e-07
2.71921e-06
-1.351e-06
8.74125e-07
2.60435e-06
-1.07222e-06
6.96868e-07
2.49941e-06
-8.51724e-07
4.82644e-07
2.41316e-06
-6.89841e-07
2.46262e-07
2.35216e-06
-5.84468e-07
2.31679e-06
-5.31764e-07
4.17724e-07
3.47801e-06
-2.36559e-06
7.10647e-07
3.45494e-06
-2.13465e-06
8.76063e-07
3.3903e-06
-1.81917e-06
9.23152e-07
3.28706e-06
-1.49326e-06
8.78355e-07
3.15866e-06
-1.19813e-06
7.66805e-07
3.02246e-06
-9.48233e-07
6.08576e-07
2.8946e-06
-7.4886e-07
4.19937e-07
2.78812e-06
-6.02038e-07
2.13567e-07
2.71235e-06
-5.0649e-07
2.66816e-06
-4.58828e-07
4.07731e-07
3.99639e-06
-2.37324e-06
6.68685e-07
3.95168e-06
-2.08344e-06
7.96853e-07
3.87153e-06
-1.72592e-06
8.16768e-07
3.74382e-06
-1.38082e-06
7.61184e-07
3.58084e-06
-1.08255e-06
6.54454e-07
3.40653e-06
-8.36994e-07
5.13837e-07
3.24342e-06
-6.45533e-07
3.52253e-07
3.10896e-06
-5.07611e-07
1.78891e-07
3.01431e-06
-4.1926e-07
2.96075e-06
-3.75607e-07
3.00208e-07
4.1524e-06
-1.51887e-06
5.15549e-07
4.14779e-06
-1.42244e-06
6.25309e-07
4.17558e-06
-1.29863e-06
6.28728e-07
4.12067e-06
-1.09731e-06
5.63362e-07
3.95621e-06
-8.58998e-07
4.65467e-07
3.73229e-06
-6.37399e-07
3.54715e-07
3.51343e-06
-4.65656e-07
2.38566e-07
3.33906e-06
-3.4923e-07
1.19973e-07
3.22115e-06
-2.78835e-07
3.15716e-06
-2.45207e-07
3.4501e-07
4.72457e-06
-2.39104e-06
6.1614e-07
4.71731e-06
-2.17101e-06
6.49815e-07
4.87951e-06
-1.71565e-06
5.2679e-07
4.82819e-06
-1.22719e-06
4.14822e-07
4.44123e-06
-7.90462e-07
3.40832e-07
4.00187e-06
-4.94211e-07
2.73261e-07
3.68886e-06
-3.42073e-07
1.93435e-07
3.496e-06
-2.67368e-07
9.83685e-08
3.38364e-06
-2.24587e-07
3.3174e-06
-1.99546e-07
1.02933e-06
4.49393e-06
-7.46843e-06
1.94705e-06
4.89886e-06
-7.18032e-06
2.19707e-06
6.26127e-06
-5.89165e-06
1.82742e-06
6.86401e-06
-4.2803e-06
1.41133e-06
5.91784e-06
-2.78961e-06
1.21887e-06
4.62802e-06
-1.79668e-06
1.06912e-06
4.05521e-06
-1.33202e-06
8.27599e-07
4.00904e-06
-1.02659e-06
4.14045e-07
4.01782e-06
-6.7775e-07
3.93836e-06
-1.17319e-06
1.63207e-06
2.90705e-06
-1.03132e-05
2.06656e-06
4.92293e-06
-9.72174e-06
2.37552e-06
5.9329e-06
-7.53904e-06
2.42907e-06
6.80558e-06
-6.29516e-06
2.22611e-06
6.93313e-06
-5.51873e-06
1.97494e-06
6.19775e-06
-4.12364e-06
1.42629e-06
5.83032e-06
-2.53773e-06
6.333e-07
5.57085e-06
-1.37207e-06
-1.06071e-07
5.23631e-06
-1.00419e-06
5.08811e-06
-2.77818e-06
-7.90478e-07
2.67341e-06
-4.5434e-06
-1.56653e-06
4.3683e-06
-2.89385e-06
-1.93319e-06
5.2897e-06
-1.17162e-06
-1.24372e-06
5.91896e-06
-3.56785e-07
-3.7705e-07
6.36027e-06
1.30379e-08
-5.6782e-08
6.42106e-06
9.67872e-08
-9.86395e-08
6.22014e-06
2.33078e-07
-2.85747e-07
5.9092e-06
9.78413e-08
-4.74832e-07
5.70414e-06
-3.92572e-07
5.42026e-06
-1.39132e-06
-1.62866e-06
3.02352e-06
1.89528e-06
-2.43199e-06
3.85082e-06
3.22338e-06
-2.5022e-06
4.47962e-06
4.18989e-06
-2.1034e-06
5.06998e-06
4.25397e-06
-1.56857e-06
5.49968e-06
3.57325e-06
-1.17574e-06
5.64741e-06
2.63366e-06
-9.20342e-07
5.58259e-06
1.73356e-06
-7.19541e-07
5.4783e-06
9.23385e-07
-5.01461e-07
5.49356e-06
2.44141e-07
5.14194e-06
-2.04776e-07
-9.97543e-07
3.65533e-06
5.1248e-06
-1.49996e-06
3.91236e-06
5.59312e-06
-1.60928e-06
4.22896e-06
5.37156e-06
-1.56677e-06
4.56555e-06
4.58797e-06
-1.42806e-06
4.77773e-06
3.5495e-06
-1.23317e-06
4.87034e-06
2.55668e-06
-1.01159e-06
4.90596e-06
1.70839e-06
-7.55642e-07
4.94556e-06
1.02851e-06
-4.36632e-07
5.06786e-06
5.19791e-07
4.68444e-06
2.80249e-07
-3.63524e-07
3.85984e-06
5.16848e-06
-6.91108e-07
3.89875e-06
4.84861e-06
-9.25125e-07
3.99295e-06
4.13522e-06
-1.06736e-06
4.1192e-06
3.34398e-06
-1.09742e-06
4.23062e-06
2.57327e-06
-1.03327e-06
4.32272e-06
1.91471e-06
-8.89998e-07
4.40285e-06
1.36192e-06
-6.68935e-07
4.48705e-06
9.12159e-07
-3.61365e-07
4.6243e-06
5.80951e-07
4.23121e-06
4.34818e-07
-1.70386e-07
3.66672e-06
3.51683e-06
-4.49659e-07
3.66374e-06
3.23169e-06
-6.97022e-07
3.68667e-06
2.77941e-06
-8.66611e-07
3.74021e-06
2.33796e-06
-9.29726e-07
3.81486e-06
1.88891e-06
-8.98026e-07
3.89918e-06
1.48008e-06
-7.79759e-07
3.98509e-06
1.11278e-06
-5.807e-07
4.07509e-06
8.03461e-07
-3.04401e-07
4.20128e-06
5.8255e-07
3.80888e-06
4.83961e-07
-1.81067e-07
3.38259e-06
2.34597e-06
-4.32052e-07
3.37739e-06
2.23289e-06
-6.39539e-07
3.38526e-06
2.00983e-06
-7.80373e-07
3.41546e-06
1.76398e-06
-8.31128e-07
3.46951e-06
1.47136e-06
-7.98672e-07
3.53969e-06
1.19026e-06
-6.87445e-07
3.61732e-06
9.29142e-07
-5.05532e-07
3.69982e-06
7.09766e-07
-2.62066e-07
3.80975e-06
5.57541e-07
3.42085e-06
4.84236e-07
-1.93652e-07
3.11053e-06
1.83003e-06
-4.19312e-07
3.10188e-06
1.76878e-06
-5.95582e-07
3.10431e-06
1.60915e-06
-7.11212e-07
3.1255e-06
1.42097e-06
-7.46698e-07
3.16751e-06
1.19121e-06
-7.10008e-07
3.22579e-06
9.77623e-07
-6.04944e-07
3.2919e-06
7.82759e-07
-4.40512e-07
3.36285e-06
6.22016e-07
-2.27756e-07
3.45651e-06
5.14308e-07
3.06989e-06
4.57558e-07
-1.97828e-07
2.84917e-06
1.58031e-06
-4.04732e-07
2.83965e-06
1.51497e-06
-5.60498e-07
2.84177e-06
1.36461e-06
-6.56142e-07
2.85942e-06
1.19567e-06
-6.77926e-07
2.89518e-06
9.97378e-07
-6.36128e-07
2.9447e-06
8.22659e-07
-5.35952e-07
3.00056e-06
6.68045e-07
-3.86889e-07
3.06067e-06
5.44459e-07
-2.00116e-07
3.14077e-06
4.64586e-07
2.7551e-06
4.18283e-07
-2.04242e-07
1.41796e-06
2.5984e-06
-3.95436e-07
1.34098e-06
2.59123e-06
-5.32839e-07
1.19293e-06
2.59544e-06
-6.11026e-07
1.03533e-06
2.61279e-06
-6.2088e-07
8.57367e-07
2.64549e-06
-5.74634e-07
7.0677e-07
2.68906e-06
-4.78771e-07
5.77824e-07
2.73722e-06
-3.42949e-07
4.77708e-07
2.78899e-06
-1.77835e-07
4.15328e-07
2.85903e-06
3.75749e-07
2.47308e-06
7.19085e-07
6.33004e-07
-4.22572e-06
1.22042e-06
6.34531e-07
-3.81467e-06
1.49042e-06
6.26258e-07
-3.21166e-06
1.55542e-06
6.06208e-07
-2.59114e-06
1.46692e-06
5.80273e-07
-2.04461e-06
1.27137e-06
5.54148e-07
-1.60047e-06
1.00409e-06
5.31234e-07
-1.26019e-06
6.91065e-07
5.13266e-07
-1.01663e-06
3.51356e-07
5.01039e-07
-8.60758e-07
4.94126e-07
-7.83737e-07
7.65926e-07
1.31061e-06
-4.52029e-06
1.29835e-06
1.30369e-06
-4.07016e-06
1.58502e-06
1.28517e-06
-3.42362e-06
1.65447e-06
1.24662e-06
-2.76319e-06
1.5605e-06
1.19651e-06
-2.18084e-06
1.35201e-06
1.14459e-06
-1.70539e-06
1.06699e-06
1.09756e-06
-1.33958e-06
7.3373e-07
1.0596e-06
-1.07709e-06
3.72788e-07
1.03319e-06
-9.0894e-07
1.01809e-06
-8.25776e-07
7.48239e-07
2.06825e-06
-4.45854e-06
1.24983e-06
2.01033e-06
-3.95041e-06
1.50839e-06
1.95382e-06
-3.27846e-06
1.56179e-06
1.87682e-06
-2.61918e-06
1.46577e-06
1.78959e-06
-2.0543e-06
1.26653e-06
1.70506e-06
-1.60109e-06
9.9816e-07
1.63104e-06
-1.25526e-06
6.85915e-07
1.57223e-06
-1.00803e-06
3.48364e-07
1.53155e-06
-8.49912e-07
1.50835e-06
-7.71746e-07
7.30611e-07
2.84797e-06
-4.31261e-06
1.19638e-06
2.68952e-06
-3.74376e-06
1.42877e-06
2.58453e-06
-3.08344e-06
1.47144e-06
2.47031e-06
-2.45838e-06
1.37702e-06
2.34845e-06
-1.92796e-06
1.18806e-06
2.23335e-06
-1.50319e-06
9.35364e-07
2.13352e-06
-1.17764e-06
6.42256e-07
2.05415e-06
-9.43914e-07
3.26016e-07
1.99911e-06
-7.94081e-07
1.96772e-06
-7.19918e-07
7.03797e-07
3.55138e-06
-4.00232e-06
1.12599e-06
3.2606e-06
-3.39853e-06
1.32779e-06
3.12407e-06
-2.79455e-06
1.36015e-06
2.9998e-06
-2.24576e-06
1.26914e-06
2.86005e-06
-1.77159e-06
1.09281e-06
2.72209e-06
-1.38463e-06
8.58787e-07
2.59887e-06
-1.08306e-06
5.88686e-07
2.49899e-06
-8.64576e-07
2.98493e-07
2.42887e-06
-7.24035e-07
2.38883e-06
-6.54383e-07
6.71509e-07
4.19707e-06
-3.63096e-06
1.02522e-06
3.76951e-06
-2.99727e-06
1.18632e-06
3.57761e-06
-2.43381e-06
1.20795e-06
3.44777e-06
-1.96285e-06
1.12366e-06
3.30702e-06
-1.56081e-06
9.64631e-07
3.15744e-06
-1.22456e-06
7.55432e-07
3.01467e-06
-9.55455e-07
5.16062e-07
2.89416e-06
-7.57845e-07
2.60818e-07
2.80786e-06
-6.30237e-07
2.75789e-06
-5.67076e-07
7.11349e-07
4.74855e-06
-3.59261e-06
1.02727e-06
4.29255e-06
-2.9224e-06
1.12945e-06
4.06411e-06
-2.3146e-06
1.10718e-06
3.91831e-06
-1.82909e-06
1.00303e-06
3.7589e-06
-1.43029e-06
8.44481e-07
3.5775e-06
-1.0985e-06
6.51817e-07
3.39706e-06
-8.35259e-07
4.41132e-07
3.24287e-06
-6.45628e-07
2.22238e-07
3.13302e-06
-5.25524e-07
3.07145e-06
-4.66923e-07
5.0555e-07
5.02909e-06
-2.27757e-06
7.46206e-07
4.40582e-06
-1.77637e-06
8.64801e-07
4.19202e-06
-1.54513e-06
8.74449e-07
4.18941e-06
-1.37805e-06
7.84365e-07
4.13029e-06
-1.1403e-06
6.36092e-07
3.95595e-06
-8.67569e-07
4.71114e-07
3.72394e-06
-6.27558e-07
3.09408e-07
3.51276e-06
-4.57423e-07
1.53397e-07
3.36635e-06
-3.56156e-07
3.28926e-06
-3.09627e-07
4.96663e-07
5.78477e-06
-3.55801e-06
8.1576e-07
4.96068e-06
-3.04496e-06
1.0197e-06
4.67275e-06
-2.40033e-06
9.33705e-07
4.86469e-06
-1.81648e-06
6.95386e-07
4.86372e-06
-1.28557e-06
4.8761e-07
4.468e-06
-7.98495e-07
3.48607e-07
3.99949e-06
-4.78627e-07
2.36874e-07
3.68954e-06
-3.32408e-07
1.20035e-07
3.53223e-06
-2.73624e-07
3.46213e-06
-2.52377e-07
1.01321e-06
4.66642e-06
-7.19536e-06
2.00136e-06
4.02207e-06
-7.22986e-06
2.87228e-06
4.21685e-06
-6.30667e-06
2.94525e-06
5.78992e-06
-5.27849e-06
2.37476e-06
6.82341e-06
-4.17882e-06
1.70568e-06
6.12453e-06
-2.78412e-06
1.37441e-06
4.68167e-06
-1.68292e-06
1.20558e-06
4.03145e-06
-1.19967e-06
8.19822e-07
4.0794e-06
-8.39162e-07
4.21614e-06
-1.10737e-06
1.74497e-06
1.10296e-06
-8.40699e-06
2.7511e-06
2.06054e-06
-8.76635e-06
3.14758e-06
4.05734e-06
-7.776e-06
3.67758e-06
5.47569e-06
-6.51093e-06
3.88873e-06
6.82227e-06
-5.72874e-06
3.54004e-06
7.24306e-06
-4.89346e-06
2.75957e-06
6.28645e-06
-3.36204e-06
1.51931e-06
5.81432e-06
-1.91468e-06
2.69783e-07
5.61001e-06
-1.28526e-06
5.63003e-06
-3.92229e-06
-6.52453e-07
-1.23426e-06
-1.45752e-06
-1.85363e-06
5.79829e-07
-2.11952e-07
-2.15227e-06
2.88361e-06
3.00743e-07
-1.70526e-06
4.54315e-06
1.28749e-07
-7.97568e-07
5.76382e-06
1.63801e-07
-1.19149e-07
6.38028e-06
2.81143e-07
-1.63248e-07
6.35855e-06
2.05083e-07
-5.79663e-07
6.22396e-06
1.04621e-07
-9.39381e-07
6.19721e-06
-6.20052e-07
5.90882e-06
-2.60948e-06
-2.43911e-06
-7.74333e-09
3.11436e-06
-3.67623e-06
6.38447e-07
4.40188e-06
-3.81227e-06
2.1058e-06
5.10375e-06
-3.41135e-06
3.55726e-06
4.83895e-06
-2.75605e-06
4.61635e-06
4.06542e-06
-2.14107e-06
5.23173e-06
3.16723e-06
-1.73065e-06
5.48601e-06
2.19568e-06
-1.40269e-06
5.59391e-06
1.22547e-06
-9.88756e-07
5.82758e-06
1.99848e-07
5.41668e-06
-7.01392e-07
-1.30567e-06
1.16161e-06
5.3406e-06
-2.24623e-06
1.59572e-06
5.57641e-06
-2.59613e-06
2.40132e-06
5.42595e-06
-2.60239e-06
3.26523e-06
4.88626e-06
-2.39497e-06
3.95764e-06
4.00079e-06
-2.07334e-06
4.41557e-06
3.05122e-06
-1.69778e-06
4.69146e-06
2.12737e-06
-1.2745e-06
4.91442e-06
1.28472e-06
-7.22837e-07
5.23206e-06
5.63654e-07
4.78867e-06
1.85427e-07
-6.04818e-07
2.19109e-06
4.83849e-06
-1.16855e-06
2.38899e-06
4.61908e-06
-1.55078e-06
2.76508e-06
4.15369e-06
-1.7393e-06
3.19473e-06
3.603e-06
-1.72881e-06
3.59138e-06
2.92903e-06
-1.58226e-06
3.91668e-06
2.26706e-06
-1.3406e-06
4.17414e-06
1.63759e-06
-1.00178e-06
4.4066e-06
1.08115e-06
-5.22747e-07
4.68679e-06
6.47195e-07
4.24285e-06
4.57902e-07
-3.56832e-07
2.72176e-06
3.41974e-06
-7.58764e-07
2.77292e-06
3.24968e-06
-1.08787e-06
2.92453e-06
2.94907e-06
-1.2913e-06
3.1302e-06
2.60592e-06
-1.33973e-06
3.35832e-06
2.17039e-06
-1.26655e-06
3.58269e-06
1.74089e-06
-1.08772e-06
3.78899e-06
1.3191e-06
-8.0508e-07
3.98426e-06
9.43168e-07
-4.07498e-07
4.20763e-06
6.64132e-07
3.77671e-06
5.42604e-07
-3.10424e-07
2.88744e-06
2.55317e-06
-6.33129e-07
2.8593e-06
2.46921e-06
-8.99576e-07
2.91656e-06
2.28424e-06
-1.06994e-06
3.02055e-06
2.04399e-06
-1.11678e-06
3.15648e-06
1.72005e-06
-1.0604e-06
3.30828e-06
1.4083e-06
-9.06837e-07
3.46102e-06
1.10355e-06
-6.63166e-07
3.6125e-06
8.37852e-07
-3.34165e-07
3.78641e-06
6.49766e-07
3.36805e-06
5.58725e-07
-2.97073e-07
2.85961e-06
2.20989e-06
-5.75626e-07
2.79154e-06
2.11509e-06
-7.98372e-07
2.80654e-06
1.94192e-06
-9.33548e-07
2.86276e-06
1.71394e-06
-9.62357e-07
2.95007e-06
1.42643e-06
-9.04846e-07
3.05633e-06
1.17207e-06
-7.65694e-07
3.16904e-06
9.35595e-07
-5.54265e-07
3.28443e-06
7.38662e-07
-2.80198e-07
3.4202e-06
6.06442e-07
3.00993e-06
5.3548e-07
-2.95347e-07
2.71976e-06
2.06038e-06
-5.45705e-07
2.63998e-06
1.91688e-06
-7.36918e-07
2.63913e-06
1.72323e-06
-8.42841e-07
2.6744e-06
1.48996e-06
-8.52829e-07
2.73665e-06
1.22079e-06
-7.8954e-07
2.81614e-06
9.99556e-07
-6.59286e-07
2.90216e-06
8.04663e-07
-4.72561e-07
2.99164e-06
6.5053e-07
-2.40216e-07
3.10048e-06
5.51964e-07
2.69464e-06
4.93361e-07
-3.01907e-07
1.94898e-06
2.51847e-06
-5.31046e-07
1.76721e-06
2.44289e-06
-6.95494e-07
1.55534e-06
2.44117e-06
-7.76648e-07
1.32074e-06
2.47014e-06
-7.70879e-07
1.06656e-06
2.52169e-06
-7.02281e-07
8.68103e-07
2.58621e-06
-5.78755e-07
7.01122e-07
2.65534e-06
-4.11116e-07
5.73842e-07
2.72786e-06
-2.10234e-07
4.96167e-07
2.81876e-06
4.4548e-07
2.41467e-06
1.06727e-06
6.8814e-07
-5.91506e-06
1.75866e-06
6.72845e-07
-5.1789e-06
2.07099e-06
6.69273e-07
-4.19327e-06
2.08457e-06
6.50711e-07
-3.25542e-06
1.906e-06
6.18161e-07
-2.48421e-06
1.6118e-06
5.83566e-07
-1.88983e-06
1.24952e-06
5.53862e-07
-1.45178e-06
8.48884e-07
5.31291e-07
-1.14728e-06
4.28282e-07
5.16322e-07
-9.56478e-07
5.08128e-07
-8.63583e-07
1.14385e-06
1.60478e-06
-6.50487e-06
1.8708e-06
1.44834e-06
-5.57259e-06
2.20029e-06
1.38018e-06
-4.46402e-06
2.21693e-06
1.33065e-06
-3.45977e-06
2.02982e-06
1.26772e-06
-2.64329e-06
1.71792e-06
1.20205e-06
-2.01197e-06
1.33188e-06
1.14403e-06
-1.5437e-06
9.04482e-07
1.09823e-06
-1.21663e-06
4.56126e-07
1.06688e-06
-1.01115e-06
1.04939e-06
-9.10915e-07