/*--------------------------------*- C++ -*----------------------------------*\
| =========                 |                                                 |
| \\      /  F ield         | OpenFOAM: The Open Source CFD Toolbox           |
|  \\    /   O peration     | Version:  2312                                  |
|   \\  /    A nd           | Website:  www.openfoam.com                      |
|    \\/     M anipulation  |                                                 |
\*---------------------------------------------------------------------------*/
FoamFile
{
    version     2.0;
    format      ascii;
    arch        "LSB;label=32;scalar=64";
    class       volScalarField;
    location    "0.375";
    object      alpha.water;
}
// * * * * * * * * * * * * * * * * * * * * * * * * * * * * * * * * * * * * * //

dimensions      [0 0 0 0 0 0 0];

internalField   nonuniform List<scalar> 
8000
(
1
1
1
1
1
1
1
1
1
1
1
1
1
1
1
1
1
1
1
1
1
1
1
1
1
1
1
1
1
1
1
1
1
1
1
1
1
1
1
1
0.999992
0.999993
1
1
1
1
1
1
1
1
0.793413
0.838243
0.959425
0.998614
1
1
1
1
1
1
0.0714339
0.115246
0.2975
0.53272
0.754641
0.877893
0.954912
0.990165
1
1
4.73378e-06
3.89101e-06
6.60845e-06
5.00639e-05
0.0572963
0.22992
0.465308
0.658769
0.770018
0.822324
3.83739e-05
3.32039e-06
2.99964e-06
6.60845e-06
5.00639e-05
0.000456368
0.0230278
0.0935024
0.174872
0.224548
0.000416036
2.90327e-06
2.80637e-06
2.99964e-06
7.84836e-06
6.27622e-05
0.000332488
0.000848214
0.00157242
0.00194267
0.000426113
6.01094e-05
2.80638e-06
5.80098e-06
2.4142e-05
3.09582e-05
2.20823e-05
7.7098e-05
0.000180423
0.000243648
0.000426116
8.74154e-05
2.80637e-06
9.37873e-06
5.03516e-05
5.64368e-06
1.91212e-05
5.87874e-06
1.51893e-05
3.17897e-05
0.000425478
6.91193e-05
2.81358e-06
5.89933e-06
1.38987e-05
2.74046e-06
2.97602e-06
7.59566e-06
1.35469e-05
1.52903e-05
0.000423919
5.77587e-05
4.40708e-06
2.88962e-06
2.74046e-06
2.27995e-06
1.28079e-06
2.46435e-06
2.99582e-06
4.0506e-06
0.000421826
6.1073e-05
5.79329e-06
1.27769e-05
3.13487e-05
1.72519e-05
1.47288e-05
1.89511e-06
2.26062e-06
2.98518e-06
0.000419469
0.000128495
6.19976e-06
5.15776e-05
5.15776e-05
4.65891e-05
3.30672e-05
7.27654e-06
6.1393e-06
9.66288e-06
0.000339541
0.000262562
7.51595e-05
8.16227e-06
2.00385e-05
7.05702e-06
4.85136e-06
2.99517e-06
3.38515e-06
3.70007e-06
7.26296e-05
0.000263947
0.000209393
5.94043e-08
9.84005e-10
1.34927e-12
1.03341e-13
5.07585e-11
1.21983e-08
2.3772e-10
1.56714e-05
0.000263838
9.42722e-05
9.83952e-10
1.38364e-12
1.12985e-13
1.08086e-13
1.04184e-14
-3.03999e-15
3.45546e-15
1.48545e-06
0.000120252
7.74922e-06
4.31965e-09
9.91788e-11
7.16845e-11
1.33161e-12
3.41275e-15
3.40454e-15
3.43541e-15
1
1
1
1
1
1
1
1
1
1
1
1
1
1
1
1
1
1
1
1
1
1
1
1
1
1
1
1
1
1
1
1
1
1
1
1
1
1
1
1
0.999994
0.999983
0.999997
1
1
1
1
1
1
1
0.839518
0.842753
0.941223
0.996144
1
1
1
1
1
1
0.117911
0.12987
0.290931
0.513914
0.744388
0.898552
0.980729
1
1
1
4.18806e-06
4.99494e-06
8.93148e-06
2.24591e-05
0.0637205
0.223437
0.448743
0.663285
0.781858
0.826607
3.59412e-06
3.00019e-06
5.58379e-06
6.81082e-06
1.75136e-05
0.000591404
0.0153392
0.065312
0.119482
0.147198
0.000113403
3.0002e-06
7.62167e-06
5.94023e-05
9.47408e-05
8.7178e-07
8.08187e-07
2.80939e-06
1.1791e-05
1.89099e-05
0.000426113
7.40312e-06
1.67841e-05
2.85662e-05
9.85937e-05
8.32851e-05
6.2672e-07
4.53537e-07
4.5446e-07
7.92537e-07
0.000425478
1.61449e-05
8.48286e-06
5.96884e-06
6.42431e-05
9.20155e-05
2.05929e-05
5.28656e-07
1.32429e-06
1.26864e-05
0.000423657
8.88929e-06
3.29059e-05
5.9336e-06
4.78263e-05
8.0816e-05
1.21626e-05
7.79236e-06
1.41712e-05
2.5141e-05
0.000419902
8.61228e-06
0.000174191
0.000123968
4.45673e-06
7.38323e-06
7.52322e-07
2.91877e-06
1.07869e-05
2.84184e-05
0.0004188
8.22811e-06
0.000174082
0.000174206
1.30649e-06
1.12186e-05
1.38568e-05
1.79349e-06
5.89643e-06
2.75514e-05
0.000301267
0.000149809
0.000174148
4.3312e-05
2.06948e-05
1.35641e-05
1.37878e-05
5.85509e-06
3.94419e-06
7.35175e-06
0.000102696
0.000259659
0.000138745
6.17225e-08
3.94326e-06
1.19025e-06
9.90497e-07
1.25119e-06
1.27036e-06
6.06844e-07
7.10695e-05
0.000263654
7.51167e-05
3.60674e-09
2.21028e-09
1.91238e-11
3.92321e-10
6.03351e-13
1.62313e-12
1.58783e-12
6.61349e-05
0.000263945
4.07994e-05
3.2481e-10
1.91297e-11
4.74769e-13
1.13046e-13
1.85055e-13
1.37355e-14
2.14465e-14
3.86542e-05
0.000261859
7.84929e-05
8.11469e-09
3.2268e-10
1.68547e-11
3.01876e-13
8.94277e-14
2.03923e-14
4.15963e-14
1
1
1
1
1
1
1
1
1
1
1
1
1
1
1
1
1
1
1
1
1
1
1
1
1
1
1
1
1
1
1
1
1
1
1
1
1
1
1
1
1
0.999997
0.999999
1
1
1
1
1
1
1
0.960335
0.943211
0.980141
0.999517
1
1
1
1
1
1
0.296311
0.292245
0.42989
0.605976
0.797763
0.940228
1
1
1
1
5.95162e-06
1.38068e-05
1.42623e-05
0.00698553
0.0993881
0.262424
0.499494
0.704069
0.812158
0.860957
4.18806e-06
5.59453e-06
6.81081e-06
1.86561e-06
9.31457e-07
0.00367062
0.043932
0.110832
0.165097
0.184396
5.37975e-06
4.02911e-06
5.72185e-05
1.81237e-06
8.71775e-07
8.08187e-07
6.2672e-07
4.53536e-07
4.53796e-07
7.90314e-07
0.000246696
6.33316e-05
9.79312e-05
9.93596e-06
9.24075e-07
8.08072e-07
5.82777e-07
4.27132e-07
4.02545e-07
4.5402e-07
0.000375153
6.73924e-05
8.23515e-05
9.05857e-06
8.456e-06
1.49438e-05
4.0444e-06
5.22829e-07
1.88551e-06
1.52213e-05
0.000222355
3.62219e-05
4.19957e-05
2.81329e-05
1.80164e-05
2.13083e-05
2.99565e-06
4.32516e-07
1.08881e-05
4.36322e-05
7.88679e-05
9.04927e-06
1.02202e-05
5.0592e-05
5.86753e-06
1.5508e-06
2.46496e-07
1.59653e-07
1.04583e-05
4.14039e-05
3.4981e-05
8.00439e-06
2.38432e-05
5.98488e-05
8.99304e-08
1.73044e-07
1.52368e-06
1.79098e-06
3.9371e-06
1.04266e-05
3.77695e-05
6.72406e-06
2.54448e-05
1.66941e-05
3.25718e-08
9.21589e-09
1.06694e-08
5.46981e-07
2.52557e-07
3.38624e-07
8.52883e-05
2.64186e-05
4.29416e-05
2.48988e-08
9.3957e-10
3.08564e-11
1.41023e-11
1.52166e-08
5.45587e-10
7.17047e-11
9.84169e-05
3.91434e-05
4.25836e-05
9.39602e-10
3.09623e-11
1.50088e-11
1.12669e-11
2.50664e-13
2.75634e-12
8.2176e-14
9.81654e-05
4.99033e-05
3.11578e-05
9.29641e-11
4.31325e-11
1.1002e-11
5.88928e-12
2.00297e-13
1.17866e-13
8.41056e-14
4.9211e-05
0.000110475
6.39901e-05
2.08423e-06
9.29e-11
2.35198e-11
7.10975e-13
2.64671e-13
1.15478e-13
1.02937e-13
1
1
1
1
1
1
1
1
1
1
1
1
1
1
1
1
1
1
1
1
1
1
1
1
1
1
1
1
1
1
1
1
1
1
1
1
1
1
1
1
1
1
1
1
1
1
1
1
1
1
0.998662
0.996552
0.999561
1
1
1
1
1
1
1
0.531409
0.516985
0.606349
0.743001
0.90209
0.995409
1
1
1
1
3.7824e-05
5.10382e-05
0.0105132
0.0658865
0.187368
0.402772
0.644614
0.805171
0.889725
0.934924
5.95162e-06
1.23705e-05
9.61099e-06
1.37538e-06
1.04538e-06
0.00944837
0.0927782
0.214031
0.30491
0.338313
8.33337e-06
1.17997e-05
5.43332e-05
1.08424e-06
9.35089e-07
8.7178e-07
6.35004e-07
3.96539e-07
3.8179e-07
7.47704e-07
1.30628e-05
3.93452e-06
9.83827e-05
1.66617e-05
5.27816e-06
5.4767e-06
9.00975e-07
3.57183e-07
2.78359e-07
3.14512e-07
2.04749e-05
1.97767e-06
1.43995e-05
3.17183e-06
1.07811e-05
1.45175e-05
6.89086e-06
4.75813e-07
2.51484e-06
9.1697e-06
6.04457e-06
1.09883e-06
1.84204e-06
2.62573e-06
3.05188e-06
2.89547e-06
1.44683e-06
1.91974e-07
5.33036e-06
2.04344e-05
2.27341e-06
4.38553e-06
3.65345e-07
5.5819e-08
3.60699e-07
1.33731e-08
4.70346e-09
3.7177e-08
3.25816e-06
9.07279e-06
4.99607e-06
4.53259e-06
2.25537e-08
2.4316e-08
9.52749e-08
5.15488e-10
1.5297e-09
2.75563e-07
1.3594e-07
1.02243e-08
3.32928e-06
4.16513e-07
2.56636e-09
2.98063e-07
2.12462e-08
3.01165e-10
3.26254e-10
5.68371e-10
3.99234e-10
4.27678e-10
3.22889e-08
2.29123e-09
3.51115e-10
1.26205e-07
2.01105e-08
5.53993e-10
2.57209e-11
2.45921e-12
3.99909e-12
1.95915e-12
4.86958e-07
6.82702e-11
1.63172e-11
3.51115e-10
2.68498e-08
3.76757e-09
2.47983e-12
5.82278e-13
2.38188e-13
2.31834e-13
1.30915e-05
8.34945e-07
1.4514e-10
4.51873e-08
1.30982e-07
1.74842e-09
6.25361e-13
3.39283e-13
2.37392e-13
3.19564e-13
5.51595e-06
5.28068e-08
6.00309e-06
3.89476e-06
4.71481e-08
3.12439e-11
8.16618e-13
3.63026e-13
1.97698e-13
4.05044e-13
1
1
1
1
1
1
1
1
1
1
1
1
1
1
1
1
1
1
1
1
1
1
1
1
1
1
1
1
1
1
1
1
1
1
1
1
1
1
1
1
1
1
1
1
1
1
1
1
1
1
1
1
1
1
1
1
1
1
1
1
0.75412
0.740408
0.793857
0.902829
0.988706
1
1
0.999999
1
0.999999
0.04131
0.066238
0.100746
0.187336
0.371313
0.611632
0.820914
0.933803
0.979631
0.998356
3.78238e-05
1.7255e-05
1.24331e-05
2.34826e-06
0.000740796
0.0602124
0.221044
0.411701
0.536854
0.580175
8.56845e-06
3.40506e-06
2.85506e-06
1.37814e-06
1.08429e-06
7.74683e-07
6.76068e-07
3.57183e-07
2.78288e-07
4.53585e-06
3.37991e-06
1.56971e-06
7.05584e-05
5.06844e-05
1.40751e-05
3.36596e-07
3.57183e-07
2.95556e-07
2.10947e-07
1.32181e-07
1.33982e-06
1.05738e-06
9.84868e-06
7.13176e-08
1.17469e-06
9.04847e-06
8.17747e-06
1.11955e-06
1.92933e-07
5.40221e-08
1.00996e-06
5.74484e-07
7.13176e-08
5.51574e-08
9.43148e-08
6.78874e-06
5.63837e-06
6.41531e-07
1.84147e-07
2.63959e-07
1.97471e-06
1.29819e-06
7.79426e-07
4.23079e-08
3.87248e-09
1.82117e-08
1.52966e-09
3.4806e-09
3.59174e-09
1.38556e-08
5.00544e-06
4.62706e-06
5.65046e-07
3.70373e-09
3.3754e-09
5.05115e-11
5.50021e-11
2.79639e-10
4.1297e-10
8.26336e-09
3.96803e-06
2.20298e-06
4.29037e-08
3.58295e-10
2.21701e-09
5.75752e-11
1.0923e-11
2.12988e-11
1.81125e-11
8.08827e-09
8.67611e-08
2.17283e-09
3.89023e-10
1.31637e-08
1.32246e-08
1.63429e-09
2.08968e-12
9.90676e-13
8.48596e-13
8.52654e-13
6.82702e-11
8.60131e-12
5.92376e-12
9.5606e-08
5.45575e-08
8.3087e-10
9.79312e-13
7.54131e-13
6.40334e-13
1.36619e-12
3.19898e-11
6.69466e-11
1.63167e-11
3.48687e-07
1.01804e-07
1.63654e-11
5.93906e-13
4.59134e-13
1.13785e-11
1.07545e-11
1.04306e-09
1.43286e-09
1.45068e-10
5.93594e-07
7.5185e-08
1.57927e-11
4.511e-13
2.68321e-13
1.29845e-10
3.9899e-13
1
1
1
1
1
1
1
1
1
1
1
1
1
1
1
1
1
1
1
1
1
1
1
1
1
1
1
1
1
1
1
1
1
1
1
1
1
1
1
1
1
1
1
1
1
1
1
1
0.999999
0.999907
1
1
1
1
1
1
1
1
0.999997
0.999838
0.87461
0.892004
0.936367
0.996776
1
0.999999
0.999999
0.999999
0.999998
0.999966
0.208463
0.224864
0.261825
0.400706
0.615111
0.827979
0.969788
0.999945
0.999951
0.999921
0.000504646
0.000751583
0.00459523
0.0150461
0.0652243
0.219791
0.460428
0.661388
0.766184
0.79135
5.04696e-05
5.54324e-06
4.78821e-06
2.42817e-06
1.00171e-06
2.61265e-07
3.84094e-07
4.22985e-07
0.0160481
0.0255354
1.6202e-05
3.40507e-06
7.61809e-05
8.61089e-05
7.86024e-06
1.477e-07
2.71186e-07
3.57183e-07
2.78359e-07
4.53733e-06
3.93637e-06
1.41152e-05
5.86698e-06
6.50208e-07
2.73337e-07
8.1168e-07
2.29318e-06
4.86494e-07
2.10922e-07
1.31954e-07
1.33982e-06
1.8972e-05
8.31195e-06
5.72199e-08
2.49277e-07
2.38201e-06
2.79762e-06
5.18589e-07
9.30792e-06
1.08913e-06
1.7692e-06
1.21864e-05
5.66014e-06
3.20201e-08
3.24726e-07
1.57205e-06
2.63749e-07
1.72884e-10
8.59971e-06
2.61497e-08
3.73629e-06
2.24024e-06
7.98861e-07
3.54687e-09
5.05115e-11
2.10323e-11
1.09167e-11
2.1661e-11
7.62709e-07
-3.1569e-09
1.48067e-06
1.8041e-07
6.504e-11
7.93601e-11
2.10323e-11
1.16168e-11
2.43745e-12
1.43704e-12
1.60203e-12
-1.70404e-10
8.32246e-11
8.60131e-12
5.92376e-12
1.77992e-09
1.83389e-11
2.43744e-12
1.33066e-12
7.49824e-13
6.83821e-13
1.89126e-12
4.95243e-12
5.92376e-12
4.37371e-12
1.11049e-08
1.7723e-11
1.33064e-12
5.37254e-13
8.30442e-13
4.76227e-13
2.0407e-13
6.88898e-12
6.02067e-12
1.20478e-10
1.01122e-08
2.13546e-11
1.00164e-12
2.01001e-13
1.30727e-13
2.01001e-13
-4.32265e-13
7.63811e-12
2.6925e-11
4.39467e-11
1.26356e-10
1.90617e-11
7.42066e-13
1.30727e-13
1.10632e-13
1.30727e-13
-6.972e-12
1
1
1
1
1
1
1
1
1
1
1
1
1
1
1
1
1
1
1
1
1
1
1
1
1
1
1
1
1
1
1
1
1
1
1
1
1
1
1
0.999985
1
1
1
1
1
1
1
0.999999
0.999993
0.999375
1
1
1
1
1
1
1
0.999997
0.999995
0.999375
0.951039
0.97906
1
1
1
0.999999
0.999999
0.999997
0.999994
0.999931
0.473848
0.468544
0.50654
0.639561
0.82484
0.972452
0.999939
0.999953
0.999963
0.999884
0.0283724
0.0193072
0.0469294
0.103373
0.23447
0.469457
0.709825
0.881071
0.949095
0.954156
0.000352738
1.13477e-05
6.23595e-06
3.30633e-06
2.45779e-07
1.477e-07
0.0254943
0.185722
0.331757
0.326123
9.19762e-05
0.000226689
0.000207602
6.54835e-05
1.477e-07
1.22676e-07
1.01523e-07
2.97093e-07
2.07889e-05
0.000190717
1.81701e-05
0.00015981
3.61425e-06
4.26884e-07
1.72936e-07
9.87039e-08
4.42626e-08
1.01511e-07
6.54751e-07
2.05314e-05
3.83531e-06
3.9976e-05
8.83603e-06
1.45108e-07
1.03885e-05
4.42652e-08
1.10206e-08
3.73963e-08
6.15171e-07
3.90532e-05
1.94741e-06
1.57471e-06
2.01394e-06
1.78839e-07
4.70162e-08
6.93829e-09
3.37511e-09
-2.02731e-10
-7.97507e-08
5.31502e-06
1.65918e-06
1.436e-06
6.64433e-07
3.4909e-09
7.8872e-10
5.05115e-11
5.5002e-11
2.42202e-10
5.62771e-10
-2.37995e-08
3.37249e-06
1.57883e-06
4.48775e-09
1.13477e-10
8.5295e-08
2.10323e-11
1.09231e-11
2.17583e-11
1.88522e-11
4.4967e-10
1.03454e-06
1.74999e-07
4.37356e-12
4.63131e-11
6.98349e-06
1.83389e-11
2.43731e-12
3.08884e-11
1.41355e-07
-7.30314e-12
6.71891e-14
2.21507e-12
3.95683e-12
4.37371e-12
1.35237e-05
5.25813e-06
1.33065e-12
2.33876e-06
4.98706e-07
-3.65585e-11
8.95163e-15
4.91066e-12
9.47506e-12
6.13678e-12
1.35551e-05
3.29365e-05
9.76299e-06
6.717e-07
1.71481e-07
-4.23517e-10
5.41513e-14
3.52004e-13
4.55481e-13
4.39527e-11
6.80484e-06
8.95434e-05
2.87884e-05
6.37045e-07
7.68952e-08
3.14636e-09
1
1
1
1
1
1
1
1
1
1
1
1
1
1
1
1
1
0.999995
1
1
1
1
1
1
1
1
1
0.999611
0.999861
1
1
1
1
1
1
1
1
0.999564
0.999756
0.999993
1
1
1
1
1
1
0.999999
0.999564
0.999768
0.999705
1
1
1
1
1
1
0.999996
0.999739
0.999934
0.999615
0.987558
1
1
1
0.999999
0.999999
0.999997
0.999978
0.999965
0.999957
0.685017
0.690048
0.724537
0.810458
0.936709
0.999944
0.999955
0.99996
0.999955
0.999953
0.11134
0.0783251
0.121311
0.227078
0.421467
0.669182
0.885035
0.989245
0.999667
0.999568
0.000909118
2.92742e-05
1.13484e-05
1.30164e-05
1.17269e-05
5.90533e-06
0.19398
0.472234
0.798369
0.77861
0.000202995
0.000731792
0.000732792
0.000296399
2.45779e-07
1.477e-07
1.72614e-06
8.85351e-05
0.136784
0.226567
3.10457e-05
9.79972e-05
4.87713e-05
0.000303711
0.000353558
0.000206123
1.01523e-07
6.54725e-07
0.00560612
0.145861
3.4905e-06
3.33891e-06
7.23061e-07
0.000100633
0.000544927
0.000464033
1.24787e-06
5.89369e-07
0.00208325
0.162784
2.37956e-06
3.14382e-06
6.73782e-07
1.29229e-08
0.000299108
0.000319338
0.00017702
6.04517e-07
0.000198464
0.114827
2.0882e-06
2.9876e-06
3.44439e-07
2.26344e-09
0.000188486
0.00019552
0.000272022
5.48802e-06
0.00380127
5.77216e-06
7.93303e-06
3.83329e-06
2.0302e-09
3.05381e-10
4.72555e-05
0.000359731
0.000149715
5.13544e-05
1.03906e-06
6.45896e-09
3.70104e-06
8.12998e-07
2.88272e-12
7.22563e-11
1.16176e-05
0.000646681
7.04859e-05
4.25497e-05
1.9826e-05
8.32577e-08
3.61763e-10
2.78428e-14
5.33305e-14
2.95385e-12
9.81754e-05
0.000967678
3.24226e-05
3.88672e-07
6.47445e-05
1.76883e-06
8.63941e-15
8.73107e-15
9.03064e-15
5.33822e-14
0.00020256
0.00110536
3.88596e-07
2.93416e-07
2.05035e-07
2.76672e-07
1.76458e-14
5.44777e-14
1.2624e-14
3.83576e-13
0.000183287
0.00110428
5.76587e-07
2.65595e-07
3.52563e-06
0.000329399
1
1
1
1
1
1
1
1
1
0.973727
1
1
1
1
1
1
1
1
1
1
1
1
1
1
1
1
1
0.999875
0.999957
1
1
1
1
1
1
1
1
0.999603
0.999695
1
1
1
1
1
1
0.999999
0.999995
0.999597
0.999402
0.999999
1
1
1
1
1
0.999998
0.999997
0.999812
0.999402
0.999998
1
1
1
1
1
0.999998
0.999995
0.999983
0.999676
0.999998
0.796243
0.802985
0.831909
0.898613
0.981539
0.999944
0.999964
0.999974
0.999893
0.999991
0.19692
0.136049
0.181651
0.315315
0.531687
0.757449
0.950516
0.999693
0.999873
0.990831
0.00165862
5.37127e-05
2.92951e-05
3.35997e-05
2.48846e-05
0.0180623
0.334078
0.799733
0.990881
0.915544
0.000287878
0.000586299
0.000838593
0.000289915
1.89266e-05
5.90533e-06
5.57674e-05
0.13309
0.905811
0.866243
2.5483e-05
2.84648e-05
0.000413225
0.000621949
0.000504946
0.000113706
1.92921e-06
0.00289202
0.608919
0.886737
4.85991e-06
3.72191e-06
4.48618e-07
0.000623109
0.000650794
0.000260793
5.08591e-06
0.00109125
0.354774
0.885254
6.01814e-06
1.21804e-05
2.90678e-07
6.54567e-05
0.000658543
0.000278915
0.000168622
1.19851e-05
0.117788
0.551923
8.15347e-06
4.04163e-06
1.28035e-07
2.0274e-09
0.000660714
0.00130495
0.000280234
9.2153e-06
1.65359e-05
0.10878
1.64111e-05
4.90701e-06
1.7454e-09
3.177e-10
0.000232637
0.00176441
0.000711031
0.000250657
1.57569e-05
0.0511259
5.63863e-06
1.05385e-06
6.42446e-12
2.97167e-11
3.177e-10
0.00178075
0.00188573
0.000402091
1.34496e-05
0.0687956
-3.84032e-14
2.09223e-15
5.9404e-15
6.87046e-13
8.16714e-05
0.00167606
0.00177222
0.000358789
6.31604e-06
0.0373777
8.69496e-15
8.63925e-15
8.73421e-15
9.01638e-15
0.000146476
0.00149902
0.00161793
0.000603775
2.35305e-06
0.00426447
2.46531e-14
1.16463e-14
8.97858e-15
-3.05483e-14
6.20811e-05
0.0010373
0.00160532
0.00053625
2.76555e-06
0.000607726
1
1
1
1
1
1
1
1
0.959957
0.793617
1
1
1
1
1
1
1
1
0.999421
0.799624
1
1
1
1
1
1
1
1
1
0.818034
1
1
1
1
1
1
0.999989
0.999985
0.999999
0.814022
1
1
1
1
1
0.999933
0.999628
0.99999
0.999998
0.774322
1
1
1
1
1
0.999904
0.999648
0.999995
0.999996
0.763529
1
1
1
1
0.999999
0.999953
0.999986
0.999995
0.99987
0.766418
0.845788
0.836171
0.864759
0.93665
0.997879
0.999892
0.999947
0.999987
0.996526
0.917451
0.244831
0.157853
0.192063
0.332753
0.555776
0.77169
0.961354
0.999753
0.953274
0.924919
0.00210818
5.80916e-05
2.36492e-05
1.33511e-06
1.56636e-05
0.0212161
0.365231
0.869247
0.846482
0.618051
0.000330838
0.000121004
0.000168479
5.14621e-07
9.11924e-07
1.56645e-05
0.000356479
0.361011
0.804261
0.556457
7.90692e-05
0.000121506
7.69329e-05
2.33118e-06
1.30507e-06
2.41961e-06
0.000131241
0.226877
0.824231
0.598322
7.55694e-06
6.93234e-06
1.66749e-06
1.35162e-05
2.81091e-06
6.19837e-06
0.000156657
0.208578
0.824579
0.588821
1.09597e-05
2.00165e-05
3.90404e-06
1.27402e-05
2.59733e-06
8.17964e-06
0.000140558
0.106697
0.672825
0.594274
1.96044e-05
2.00353e-05
4.31052e-06
1.37267e-09
9.31772e-08
0.000106709
0.000792941
0.00625274
0.0968229
0.737256
1.61545e-05
5.16259e-06
1.28913e-09
8.81075e-11
1.37267e-09
0.00173264
0.00504937
0.000139045
0.0156175
0.921752
2.19266e-06
3.37057e-07
3.87909e-12
9.60074e-13
8.81232e-11
0.000535099
0.00317992
0.00129138
2.51516e-05
0.759144
3.20512e-11
1.02033e-13
-6.7233e-15
2.84004e-13
1.16219e-06
2.35878e-05
2.35888e-05
0.001577
1.34496e-05
0.497479
7.86095e-15
8.47108e-15
8.9758e-15
9.15494e-15
9.79568e-06
4.98272e-06
4.38567e-05
0.00162397
0.00407187
0.195762
1.34988e-14
8.79717e-14
8.83631e-15
-6.35135e-14
2.92266e-06
1.75657e-06
0.000664786
0.0015044
0.0012806
0.00518295
1
1
1
1
1
1
1
1
0.961605
0.792605
1
1
1
1
1
1
1
1
0.990617
0.803764
1
1
1
1
1
1
1
1
1
0.815238
1
1
1
1
1
1
0.99999
0.999987
0.999999
0.808952
1
1
1
1
1
0.999947
0.999628
0.999991
0.999997
0.77308
1
1
1
1
1
0.999921
0.999671
0.999995
0.996278
0.763138
1
1
1
1
0.999999
0.999958
0.999957
0.999987
0.988784
0.763223
0.846686
0.836985
0.86614
0.93679
0.998595
0.999901
0.99992
0.999928
0.983506
0.822277
0.249343
0.158912
0.18825
0.332423
0.565574
0.785634
0.969803
0.999664
0.954589
0.865228
0.00213787
2.56858e-05
3.3549e-06
5.09642e-07
1.39768e-05
0.0302065
0.394446
0.902123
0.859436
0.663686
0.000263864
3.35079e-06
3.46325e-07
9.02821e-08
1.31661e-08
1.00049e-05
0.000456095
0.406107
0.814073
0.556045
5.68905e-05
5.10411e-05
1.57618e-05
4.01097e-06
7.66395e-08
2.33637e-08
1.52635e-05
0.227708
0.824643
0.574265
1.70651e-05
1.97202e-05
1.36445e-05
9.47113e-06
3.67843e-07
2.60368e-07
8.95033e-05
0.183514
0.824231
0.626264
1.68525e-05
2.36959e-05
2.30189e-05
4.70235e-06
1.20094e-07
-1.08975e-07
5.56577e-06
0.0621507
0.637341
0.857244
1.75852e-05
2.329e-05
2.02169e-05
2.00469e-06
1.76851e-07
9.48859e-09
-4.88829e-08
1.51529e-07
0.114894
0.92259
1.24806e-05
1.25735e-05
4.44547e-07
1.10168e-10
2.70197e-07
9.19982e-10
1.07464e-05
2.54252e-06
0.111153
0.922608
8.8919e-07
1.88666e-07
9.07378e-12
1.25706e-12
4.28312e-07
3.33223e-08
-1.14977e-07
3.98982e-05
0.218218
0.921752
3.8104e-11
4.29164e-10
2.03442e-12
1.7665e-13
4.11469e-10
3.11252e-09
-1.16696e-07
-8.86747e-07
0.224511
0.898015
1.10672e-14
1.22114e-14
9.69458e-15
1.23345e-14
-5.08089e-11
1.60662e-08
7.53112e-07
-4.40882e-07
0.168843
0.833731
1.31975e-14
1.51766e-13
9.20125e-15
-1.60084e-14
-3.81567e-12
9.83389e-08
-4.62205e-08
-4.00867e-07
0.140239
0.711884
1
1
1
1
1
1
1
1
1
0.99784
1
1
1
1
1
1
1
1
1
1
1
1
1
1
1
1
1
0.999888
0.999967
1
1
1
1
1
1
1
1
0.999605
0.999778
1
1
1
1
1
1
0.999999
0.999996
0.999605
0.999567
0.999999
1
1
1
1
1
0.999998
0.999995
0.999862
0.999655
0.999999
1
1
1
1
1
0.999998
0.999994
0.999973
0.999873
0.999998
0.803218
0.806273
0.832528
0.897009
0.982744
0.999955
0.999966
0.999964
0.99997
0.999997
0.209228
0.139781
0.174675
0.308311
0.537579
0.770257
0.952057
0.999688
0.999955
0.999979
0.00181686
1.29575e-05
3.51695e-07
8.98856e-08
1.30406e-08
0.0194624
0.330303
0.769032
0.998045
0.989271
0.00022608
3.51856e-07
9.56393e-08
1.32948e-08
8.4034e-09
6.91455e-09
1.00045e-05
0.0928998
0.869967
0.938256
3.23581e-05
1.05245e-05
1.09748e-05
1.63939e-06
6.62981e-08
7.23118e-09
3.43973e-09
2.83984e-08
0.525991
0.902616
1.83032e-05
4.53804e-05
2.45028e-05
8.37915e-06
3.44548e-07
4.98462e-07
-4.69189e-09
-1.11183e-07
0.274719
0.827754
9.68042e-06
2.09821e-05
2.34172e-05
1.01431e-05
4.8088e-07
9.46778e-10
-4.62348e-08
-5.05635e-07
0.0410589
0.508844
1.11354e-05
1.29305e-05
5.68187e-06
5.83608e-09
2.20663e-07
2.29388e-08
4.95536e-10
-3.48083e-10
4.73259e-08
0.0790186
1.30483e-05
7.08757e-06
5.17071e-08
4.65447e-10
7.20051e-11
1.21512e-11
4.65833e-10
1.39309e-06
6.65174e-07
0.0566608
5.83377e-06
9.22121e-07
6.91684e-11
1.53927e-12
3.99121e-08
1.44436e-11
4.04132e-10
4.61846e-05
5.47903e-06
0.102582
1.86591e-10
2.20202e-09
2.38814e-11
8.41008e-14
7.31387e-13
2.31234e-07
1.18176e-08
7.59235e-09
4.4813e-05
0.0573171
1.30074e-14
4.72762e-14
2.43227e-14
7.85571e-14
8.47522e-14
1.93615e-06
9.61928e-07
4.2308e-09
7.47476e-09
6.71718e-07
1.27859e-14
9.39831e-14
4.35029e-13
4.9984e-14
9.95833e-14
2.36626e-06
2.0141e-08
2.68211e-09
6.03149e-09
7.47481e-09
1
1
1
1
1
1
1
1
1
1
1
1
1
1
1
1
1
0.999994
0.999999
1
1
1
1
1
1
1
1
0.999602
0.999867
1
1
1
1
1
1
1
1
0.999589
0.999791
0.999977
1
1
1
1
1
1
1
0.999589
0.999903
0.999536
1
1
1
1
1
1
0.999998
0.999826
0.999998
0.999611
0.988554
1
1
1
1
1
0.999998
0.999986
0.999997
0.999971
0.696913
0.699338
0.729853
0.810025
0.936733
0.999957
0.999965
0.999971
0.999989
0.999979
0.123031
0.0847447
0.121646
0.219715
0.413888
0.671059
0.887138
0.988977
0.999691
0.999573
0.000995561
3.81486e-06
1.94968e-07
9.66584e-08
8.402e-09
6.91641e-09
0.183968
0.464919
0.782974
0.748955
0.000116176
1.9497e-07
1.62788e-07
8.4034e-09
6.77223e-09
6.35792e-09
3.69395e-09
2.87122e-08
0.126244
0.147807
1.90783e-05
6.29209e-06
9.63333e-06
2.38434e-06
7.0986e-09
3.6935e-09
2.19854e-09
3.86382e-09
0.00201075
0.0783463
8.62254e-06
4.40693e-05
2.77173e-05
2.6481e-06
4.67859e-09
2.32145e-09
2.39017e-10
1.9343e-10
0.000254926
0.110463
3.64295e-06
2.99522e-05
1.6035e-05
2.98044e-07
2.25763e-09
2.91666e-09
1.9634e-10
1.78815e-10
-1.68061e-07
0.0588993
3.63593e-06
5.27226e-06
1.88866e-06
1.43623e-08
1.34235e-10
1.23173e-11
9.52157e-10
1.65206e-10
4.09201e-12
4.73258e-08
7.63042e-06
2.21686e-06
1.90938e-09
6.76159e-11
6.84569e-12
1.14447e-11
8.90486e-09
1.14516e-10
5.55586e-10
7.86055e-07
2.92176e-06
5.10992e-07
2.84142e-11
2.18865e-12
1.21786e-12
5.97151e-12
1.18734e-08
5.87623e-10
6.18277e-09
1.30782e-05
5.77918e-11
7.01588e-10
7.33433e-12
1.07614e-12
1.06205e-12
1.87181e-10
5.13027e-10
1.38054e-10
1.2175e-07
5.71635e-05
7.87121e-14
1.39409e-12
1.05299e-13
8.47522e-14
1.02388e-12
3.09671e-09
1.11845e-10
2.60686e-10
-1.61568e-08
0.00717217
7.1206e-15
1.14694e-13
4.76402e-13
1.04605e-13
1.49069e-12
3.3341e-09
4.25614e-12
3.25791e-08
7.22823e-09
6.76121e-09
1
1
1
1
1
1
1
1
1
1
1
1
1
1
1
1
1
1
1
1
1
1
1
1
1
1
1
1
1
1
1
1
1
1
1
1
1
1
1
0.99999
1
1
1
1
1
1
1
0.999999
0.999999
0.999268
1
1
1
1
1
1
1
0.999998
0.999999
0.99925
0.954944
0.977176
1
1
1
0.999999
0.999999
0.999998
0.999998
0.999947
0.488891
0.481921
0.511427
0.635579
0.81859
0.971536
0.999948
0.999959
0.999968
0.999929
0.0332955
0.0229996
0.0506989
0.0993415
0.217625
0.451644
0.703232
0.878683
0.947394
0.955568
0.000346492
8.99611e-07
3.60618e-07
1.23803e-07
1.997e-08
1.88547e-08
0.0197063
0.18505
0.331097
0.319976
3.1826e-05
3.60618e-07
2.99178e-07
1.997e-08
8.4034e-09
6.91817e-09
1.03133e-08
1.58505e-08
6.88845e-05
6.96755e-05
1.36733e-05
8.85661e-06
3.60055e-06
3.02498e-06
4.26257e-08
1.60762e-07
4.75075e-08
2.80617e-08
1.73682e-07
3.93303e-06
3.33261e-06
1.21886e-05
1.57667e-05
6.13468e-06
2.55608e-08
7.89922e-08
1.42308e-07
1.44703e-09
4.04558e-07
5.0604e-05
1.51267e-06
1.28653e-05
1.04986e-05
8.07321e-07
8.52524e-10
9.2458e-11
1.80812e-10
1.00013e-10
-6.42485e-09
-7.27607e-08
3.40444e-06
7.8292e-06
2.49601e-06
2.81989e-09
9.24413e-11
1.1801e-11
7.70141e-11
1.12808e-10
-1.46687e-09
5.0233e-09
3.50305e-06
1.61882e-06
6.98027e-08
9.87106e-11
1.17937e-11
8.01116e-12
9.90783e-09
-3.61489e-12
-2.2151e-08
5.86492e-08
6.50012e-07
7.9384e-09
1.19233e-10
7.61443e-11
9.58248e-11
4.87204e-12
2.55945e-08
2.31524e-08
3.7788e-05
1.57331e-06
1.80164e-11
2.0292e-10
2.84207e-11
2.19429e-12
3.90163e-11
4.32369e-12
2.57738e-08
4.53451e-13
9.67562e-05
0.00103377
1.6957e-11
4.00334e-12
2.36311e-12
6.12199e-13
2.17217e-12
2.67747e-12
1.64423e-08
-2.22802e-12
-7.16822e-10
0.00256867
7.77307e-14
5.34149e-12
5.93763e-12
1.04097e-12
1.45834e-12
8.30761e-12
1.06025e-11
1.27644e-07
-8.09604e-12
1.46134e-09
1
1
1
1
1
1
1
1
1
1
1
1
1
1
1
1
1
1
1
1
1
1
1
1
1
1
1
1
1
1
1
1
1
1
1
1
1
1
1
1
1
1
1
1
1
1
1
1
1
0.999928
1
1
1
1
1
1
1
1
1
0.999878
0.885409
0.893026
0.931484
0.992554
1
0.999999
0.999999
1
0.999999
0.999964
0.207371
0.230902
0.269191
0.394819
0.601461
0.815383
0.963225
0.999945
0.999953
0.999925
0.000676005
0.000837968
0.00568716
0.0145461
0.0549529
0.198473
0.436497
0.645181
0.764017
0.797121
5.23912e-05
1.56315e-05
4.32245e-07
2.40591e-07
2.62201e-07
2.20849e-07
3.61382e-08
3.05887e-07
0.0177015
0.0271507
1.40231e-05
6.5239e-06
8.39673e-06
2.02396e-07
1.997e-08
1.88547e-08
1.58843e-08
3.61382e-08
1.75928e-07
1.52677e-06
3.95361e-06
3.73461e-06
3.5283e-06
7.40108e-07
2.74854e-06
5.21414e-06
6.48202e-07
5.63046e-08
5.90796e-08
1.77106e-07
9.20476e-07
8.03091e-07
2.12648e-07
2.15754e-07
2.39329e-07
1.45655e-06
7.47327e-07
5.78239e-08
1.33164e-06
1.35311e-06
1.25333e-06
6.00914e-07
8.96526e-07
2.2636e-07
8.81168e-10
8.51924e-11
9.09807e-09
7.50843e-08
1.61373e-06
-7.45557e-09
5.62758e-06
4.27993e-06
6.88365e-07
9.87891e-10
8.51823e-11
4.37025e-11
4.81501e-12
1.79279e-11
1.36905e-10
4.01686e-10
2.9238e-06
1.82873e-06
9.89179e-08
2.332e-10
1.42444e-10
7.05595e-11
2.10377e-12
6.57666e-13
1.30682e-11
-6.73781e-10
1.11017e-09
7.4043e-10
1.26086e-08
1.11817e-08
1.24384e-09
1.31395e-10
7.3629e-13
4.53906e-13
-1.76664e-11
2.40228e-06
1.94324e-10
2.53158e-10
4.55401e-08
2.21814e-08
8.10806e-10
1.44677e-10
4.54908e-13
3.0598e-13
9.02734e-08
3.41483e-05
1.80164e-11
2.4223e-08
1.77735e-08
6.78658e-11
1.05995e-10
1.08897e-10
3.45208e-13
1.58997e-13
3.97556e-09
4.7218e-06
1.32612e-11
9.0104e-10
5.73848e-10
1.01805e-10
5.80049e-12
5.09871e-11
1.57567e-09
1.05709e-13
1.06943e-12
1.52999e-12
1
1
1
1
1
1
1
1
1
1
1
1
1
1
1
1
1
1
1
1
1
1
1
1
1
1
1
1
1
1
1
1
1
1
1
1
1
1
1
1
1
1
1
1
1
1
1
1
1
1
1
1
1
1
1
1
1
1
1
1
0.757844
0.744578
0.795636
0.897649
0.985783
1
1
0.999999
1
0.999999
0.0326277
0.0666395
0.109156
0.18433
0.354811
0.589001
0.800164
0.920494
0.974335
0.996245
2.30485e-05
2.08668e-05
2.09907e-05
6.08237e-07
0.00043941
0.0493389
0.202944
0.392864
0.529762
0.57804
1.43514e-05
6.58165e-06
6.76079e-07
5.34975e-07
6.39195e-07
6.11778e-07
7.03577e-08
7.18186e-08
5.73622e-07
1.91577e-06
3.28827e-06
4.76685e-06
1.40592e-06
1.31516e-06
9.74308e-06
5.28692e-07
3.63591e-08
6.40193e-08
7.18191e-08
5.73697e-07
9.20476e-07
2.16751e-06
1.10847e-06
7.74494e-07
1.80348e-05
1.26349e-05
5.20225e-07
5.90825e-08
6.89778e-08
1.10227e-06
5.81713e-07
3.94972e-07
4.08438e-08
2.18297e-06
4.55219e-09
9.03325e-06
1.33211e-06
3.71164e-08
2.89603e-07
4.74404e-06
5.67182e-06
4.08438e-08
7.70438e-09
4.55219e-09
3.70235e-09
5.79633e-10
2.36876e-07
1.74483e-08
1.11212e-08
4.97219e-08
1.81954e-05
3.22101e-08
8.65525e-09
3.78066e-08
9.79609e-09
8.51958e-11
3.42339e-11
1.34502e-10
5.16645e-10
3.65107e-09
4.4952e-06
8.65525e-09
4.21564e-09
4.00021e-09
1.74501e-09
7.01624e-11
3.43305e-12
6.84628e-12
6.44097e-11
8.80398e-10
4.71852e-08
2.205e-07
1.83979e-07
4.21461e-08
6.40438e-11
6.03289e-11
3.13673e-12
7.99794e-13
6.86657e-12
6.62599e-11
6.78211e-07
1.46907e-06
1.03305e-06
2.25694e-07
2.91115e-11
2.04701e-12
1.59262e-12
6.48542e-13
9.15142e-13
5.2241e-08
6.12107e-07
3.06546e-06
2.6782e-06
7.5654e-07
1.19219e-10
1.84504e-12
1.49296e-13
1.33799e-13
2.72546e-09
3.38954e-07
9.70229e-08
2.42286e-06
2.43243e-06
5.43617e-07
4.1751e-10
3.72276e-12
1.05683e-13
6.18662e-14
1.65184e-13
1.10023e-09
1
1
1
1
1
1
1
1
1
1
1
1
1
1
1
1
1
1
1
1
1
1
1
1
1
1
1
1
1
1
1
1
1
1
1
1
1
1
1
1
1
1
1
1
1
1
1
1
1
1
0.998248
0.996551
0.999712
1
1
1
1
1
1
1
0.515286
0.5174
0.615064
0.747812
0.899124
0.993128
1
1
1
1
2.28973e-05
6.27596e-05
0.0192508
0.0687004
0.178685
0.378334
0.611505
0.781736
0.877978
0.92817
3.09232e-06
6.58922e-06
3.05754e-06
9.29939e-07
1.27219e-06
0.00995143
0.0887234
0.206769
0.300614
0.334084
9.66682e-06
2.06763e-06
1.03301e-06
7.34642e-07
9.445e-07
8.23107e-07
1.30222e-07
1.31881e-07
2.44921e-07
6.98216e-07
9.85715e-05
8.92755e-06
1.33084e-06
3.1384e-06
1.27111e-05
8.3895e-07
7.03573e-08
7.18029e-08
1.31884e-07
2.45077e-07
7.72101e-05
7.96401e-06
5.37202e-06
1.14281e-05
1.82048e-05
1.80643e-05
1.17168e-06
1.64677e-06
2.65117e-06
1.32417e-05
0.000263295
2.30555e-05
3.7932e-05
9.23306e-06
1.03669e-05
1.98118e-05
1.67506e-06
3.36259e-06
4.10649e-06
2.99848e-05
0.000501046
9.14938e-05
4.2126e-05
7.70411e-09
4.55219e-09
1.88712e-06
4.39557e-08
9.5454e-08
1.91676e-06
1.33144e-05
0.000292721
9.0605e-05
2.52919e-05
2.51157e-08
6.12625e-09
5.79633e-10
1.14182e-09
3.73209e-09
1.6009e-07
4.92509e-06
1.94734e-05
2.07293e-05
3.60745e-06
2.75297e-07
1.03406e-09
7.34133e-11
9.19007e-12
2.5628e-10
1.28625e-09
8.63506e-09
9.90193e-08
1.50698e-07
3.77176e-08
4.42637e-08
2.71582e-09
3.50012e-10
2.55589e-12
1.01843e-12
1.15296e-11
1.01869e-10
3.0818e-06
1.49945e-06
8.21682e-09
6.17939e-09
1.25268e-08
1.50666e-09
5.74668e-12
8.035e-13
7.10978e-13
1.15809e-11
5.72286e-06
5.47499e-06
4.05696e-06