/*--------------------------------*- C++ -*----------------------------------*\
| =========                 |                                                 |
| \\      /  F ield         | OpenFOAM: The Open Source CFD Toolbox           |
|  \\    /   O peration     | Version:  2312                                  |
|   \\  /    A nd           | Website:  www.openfoam.com                      |
|    \\/     M anipulation  |                                                 |
\*---------------------------------------------------------------------------*/
FoamFile
{
    version     2.0;
    format      ascii;
    arch        "LSB;label=32;scalar=64";
    class       volScalarField;
    location    "0.81";
    object      p;
}
// * * * * * * * * * * * * * * * * * * * * * * * * * * * * * * * * * * * * * //

dimensions      [1 -1 -2 0 0 0 0];

internalField   nonuniform List<scalar> 
8000
(
388.633
388.052
386.805
385.018
382.951
380.842
378.885
377.233
375.997
375.252
340.582
339.965
338.585
336.624
334.373
332.092
329.984
328.216
326.9
326.101
293.643
292.925
291.184
288.86
286.251
283.634
281.246
279.272
277.823
276.948
248.074
247.173
244.625
241.633
238.496
235.406
232.632
230.417
228.865
227.904
203.684
202.522
199.03
195.129
191.214
187.472
184.171
181.661
180.007
178.911
159.942
157.898
153.762
148.985
144.109
139.607
135.611
132.697
130.9
129.61
116.287
113.03
108.546
102.894
96.6716
91.1794
86.5277
83.5914
81.8585
80.4912
72.8615
69.3607
65.1121
58.7991
50.6375
45.1044
42.8812
43.4236
45.1681
45.8073
35.7817
32.5674
27.9317
20.5382
12.4172
9.97607
12.8072
15.1015
16.0998
17.0709
14.9208
12.8394
5.69999
0.712487
0.00017616
-0.133759
0.753133
3.90942
7.96046
7.81093
-0.199462
-0.386761
-0.400056
-0.413432
-0.477403
-0.4827
-0.478058
-0.519902
-0.537005
-0.528886
-0.416857
-0.422104
-0.443592
-0.460354
-0.480126
-0.527148
-0.553254
-0.582902
-0.597142
-0.587382
-0.496508
-0.494726
-0.511458
-0.5267
-0.557725
-0.590147
-0.61533
-0.627448
-0.618695
-0.594719
-0.60481
-0.604305
-0.605155
-0.610289
-0.629019
-0.64462
-0.666274
-0.662187
-0.636181
-0.607971
-0.715314
-0.716573
-0.701003
-0.69548
-0.697653
-0.697778
-0.701549
-0.685039
-0.648823
-0.620761
-0.790787
-0.799584
-0.785884
-0.77371
-0.760738
-0.751236
-0.738398
-0.710046
-0.669972
-0.650777
-0.836593
-0.853078
-0.846114
-0.830473
-0.810832
-0.798394
-0.780135
-0.750682
-0.719802
-0.709421
-0.865046
-0.879956
-0.87618
-0.860791
-0.843333
-0.830842
-0.814749
-0.796856
-0.785534
-0.781053
-0.886512
-0.89384
-0.892091
-0.879218
-0.867228
-0.856327
-0.84412
-0.839701
-0.845759
-0.847159
-0.922525
-0.92176
-0.921148
-0.912188
-0.90311
-0.892617
-0.882493
-0.882829
-0.89429
-0.898947
387.994
387.492
386.297
384.514
382.446
380.342
378.386
376.731
375.49
374.745
339.895
339.431
338.142
336.145
333.853
331.558
329.439
327.651
326.309
325.499
292.839
292.384
290.857
288.455
285.716
283.041
280.612
278.58
277.057
276.124
247.063
246.47
244.235
241.204
237.897
234.706
231.834
229.475
227.751
226.693
202.4
201.691
198.379
194.529
190.499
186.634
183.202
180.354
178.201
176.831
157.988
156.82
152.653
147.954
143.092
138.517
134.608
131.38
128.537
126.536
113.615
111.197
106.369
100.433
94.4202
89.1951
84.5473
79.5308
74.8985
72.9809
70.3006
67.5894
62.8217
54.9657
47.8668
43.4002
40.3702
37.5737
34.2184
31.4117
33.5782
31.6914
26.5693
15.9474
10.1861
8.85537
8.54816
8.6349
5.82274
3.67613
13.7708
8.62296
2.8358
-0.0648674
-0.36052
-0.36942
-0.265218
0.0993542
0.656027
0.147523
-0.479264
-0.473602
-0.456585
-0.470921
-0.531534
-0.539434
-0.544045
-0.586445
-0.643982
-0.655848
-0.480593
-0.511494
-0.513142
-0.528687
-0.560668
-0.588891
-0.603375
-0.625743
-0.656989
-0.650116
-0.559672
-0.577209
-0.575807
-0.591701
-0.619515
-0.6411
-0.659919
-0.669309
-0.666944
-0.642945
-0.673105
-0.679097
-0.656085
-0.664868
-0.676302
-0.681072
-0.699834
-0.698398
-0.680166
-0.652875
-0.777594
-0.783777
-0.74214
-0.743673
-0.733754
-0.72386
-0.728468
-0.718211
-0.690321
-0.668721
-0.847063
-0.872336
-0.822277
-0.81899
-0.79614
-0.780177
-0.766821
-0.745084
-0.714932
-0.695082
-0.880455
-0.930527
-0.895123
-0.884697
-0.856441
-0.844947
-0.829926
-0.799295
-0.762765
-0.740362
-0.902089
-0.952983
-0.947673
-0.926921
-0.895087
-0.885995
-0.877568
-0.85238
-0.822259
-0.79692
-0.914027
-0.942874
-0.951582
-0.931499
-0.906099
-0.894961
-0.885226
-0.869956
-0.856607
-0.85302
-0.931032
-0.939735
-0.947028
-0.933415
-0.917028
-0.904243
-0.89012
-0.880726
-0.883293
-0.897
386.642
386.19
385.072
383.364
381.36
379.306
377.383
375.75
374.525
373.799
338.384
338.006
336.831
334.929
332.701
330.447
328.344
326.552
325.2
324.396
290.91
290.661
289.391
287.114
284.424
281.767
279.313
277.218
275.622
274.645
244.249
243.973
242.445
239.669
236.388
233.168
230.178
227.608
225.669
224.471
198.5
198.043
195.873
192.498
188.559
184.672
180.94
177.512
175.004
173.545
153.187
152.204
149.082
145.106
140.659
136.287
132.041
127.928
124.182
121.853
108.066
105.839
101.6
96.9209
91.9785
86.6063
79.7638
72.5165
68.9709
68.2236
64.4851
62.4345
58.2928
52.6317
48.4294
44.4702
38.4723
29.1302
22.5771
20.0703
27.2746
25.945
21.9532
14.313
11.2722
9.78559
8.31821
4.40945
1.35538
0.366034
5.80772
2.06136
0.0632949
-0.418408
-0.580227
-0.538938
-0.431017
-0.395783
-0.29714
-0.196275
-0.574895
-0.575858
-0.545092
-0.583644
-0.628427
-0.627392
-0.587439
-0.554218
-0.516156
-0.478858
-0.560918
-0.586374
-0.576338
-0.607372
-0.651574
-0.680881
-0.652623
-0.623701
-0.606464
-0.575696
-0.618706
-0.636136
-0.62841
-0.648286
-0.680888
-0.707183
-0.703459
-0.673554
-0.652933
-0.624832
-0.721765
-0.723147
-0.697128
-0.707255
-0.722642
-0.73185
-0.742479
-0.716433
-0.696924
-0.682414
-0.824382
-0.812279
-0.772737
-0.777275
-0.775153
-0.767972
-0.768121
-0.756375
-0.743258
-0.742131
-0.879514
-0.885409
-0.842688
-0.847293
-0.839307
-0.828988
-0.823381
-0.818743
-0.815187
-0.804473
-0.904102
-0.941154
-0.905329
-0.914067
-0.908038
-0.904814
-0.906147
-0.899481
-0.888098
-0.852881
-0.930824
-0.982103
-0.972245
-0.971984
-0.95718
-0.953137
-0.955473
-0.942826
-0.916799
-0.866797
-0.949055
-0.991558
-1.0081
-1.00087
-0.97302
-0.955994
-0.946839
-0.924381
-0.892229
-0.864785
-0.946152
-0.975015
-0.998799
-0.989435
-0.961474
-0.938367
-0.917381
-0.893394
-0.875119
-0.877312
384.732
384.289
383.25
381.679
379.807
377.853
375.997
374.41
373.219
372.529
336.259
335.851
334.776
333.063
331.01
328.867
326.817
325.047
323.699
322.931
288.323
288.004
286.866
284.878
282.454
279.938
277.517
275.414
273.81
272.806
240.827
240.533
239.272
236.952
234.036
230.975
227.938
225.23
223.177
221.926
193.899
193.58
191.932
189.168
185.683
181.853
177.739
174.243
171.523
169.937
147.142
146.557
144.303
141.191
137.447
133.174
128.019
122.514
118.473
116.343
100.09
98.4475
95.5993
92.3006
87.8877
80.8415
71.423
65.1738
61.8824
60.3453
54.6347
52.3818
50.093
47.8993
45.7243
40.9437
28.2579
17.16
12.7286
12.0885
17.2882
14.1273
12.349
11.1107
9.31883
8.83014
5.24019
0.777271
0.142712
0.0971642
-0.0405734
-0.301283
-0.502728
-0.595963
-0.647918
-0.605925
-0.509392
-0.409486
-0.257777
-0.138332
-0.537988
-0.567634
-0.593799
-0.642577
-0.689283
-0.673909
-0.581023
-0.498341
-0.449304
-0.406481
-0.580147
-0.604153
-0.608329
-0.648765
-0.697278
-0.715973
-0.648552
-0.596015
-0.569333
-0.557821
-0.650066
-0.665448
-0.663016
-0.680969
-0.717205
-0.735884
-0.706504
-0.65724
-0.644574
-0.644405
-0.740948
-0.734679
-0.723698
-0.731457
-0.754317
-0.763179
-0.741105
-0.697447
-0.702736
-0.716347
-0.843937
-0.81634
-0.791276
-0.795735
-0.810335
-0.81385
-0.781379
-0.757853
-0.779007
-0.805696
-0.899867
-0.875088
-0.852502
-0.868218
-0.884037
-0.894718
-0.88122
-0.876842
-0.905005
-0.915317
-0.906383
-0.913023
-0.90274
-0.942176
-0.972187
-0.994701
-1.00149
-1.00057
-1.00745
-0.972439
-0.929655
-0.96062
-0.973322
-1.00978
-1.03419
-1.04386
-1.04333
-1.02635
-0.998992
-0.944685
-0.955711
-0.994182
-1.02426
-1.04739
-1.04307
-1.02148
-1.00157
-0.970626
-0.928912
-0.883701
-0.954004
-0.988294
-1.02693
-1.03673
-1.01197
-0.976108
-0.947328
-0.916034
-0.883239
-0.86214
382.57
382.139
381.182
379.753
378.029
376.198
374.436
372.921
371.787
371.148
333.864
333.44
332.454
330.931
329.065
327.053
325.09
323.389
322.097
321.355
285.452
285.057
284.018
282.32
280.18
277.825
275.483
273.424
271.811
270.825
237.207
236.837
235.711
233.812
231.319
228.486
225.451
222.729
220.583
219.283
189.122
188.822
187.477
185.297
182.275
178.575
174.607
171.025
168.083
166.31
140.684
140.417
139.021
136.914
133.849
129.856
123.423
117.82
113.549
111.31
91.1499
90.4892
89.3123
87.0518
82.8361
75.5301
67.943
61.1339
55.7608
53.2024
42.554
42.4417
42.7521
42.6057
41.6571
35.9544
23.4253
13.8295
9.6441
9.12054
8.5523
7.92101
8.09899
6.94474
7.62362
8.99261
3.3582
0.223527
0.158577
0.0703617
-0.390782
-0.463456
-0.541489
-0.600296
-0.616789
-0.56472
-0.463453
-0.372056
-0.23222
-0.208511
-0.543865
-0.589348
-0.617775
-0.671519
-0.696994
-0.640144
-0.541011
-0.488781
-0.44676
-0.423939
-0.577866
-0.623342
-0.639057
-0.672849
-0.703897
-0.69022
-0.62366
-0.595345
-0.573499
-0.553042
-0.648359
-0.673752
-0.683072
-0.692439
-0.718698
-0.715257
-0.669605
-0.64716
-0.6457
-0.634995
-0.724875
-0.724454
-0.730453
-0.73192
-0.750816
-0.743475
-0.685967
-0.657551
-0.678185
-0.690935
-0.817086
-0.793905
-0.788196
-0.787376
-0.802975
-0.798996
-0.732711
-0.70421
-0.738546
-0.776004
-0.876411
-0.863962
-0.856202
-0.861425
-0.87429
-0.876559
-0.843076
-0.828296
-0.863764
-0.905432
-0.890584
-0.902782
-0.9105
-0.939587
-0.965416
-0.979777
-0.970194
-0.967256
-0.9737
-0.970008
-0.905649
-0.928593
-0.958991
-1.0075
-1.03751
-1.04243
-1.02529
-1.00199
-0.970996
-0.924479
-0.933867
-0.964719
-1.00179
-1.04116
-1.04747
-1.02291
-0.992494
-0.957034
-0.913143
-0.862477
-0.944155
-0.97156
-1.01308
-1.03676
-1.02134
-0.984819
-0.954555
-0.923913
-0.889728
-0.851075
380.426
380.023
379.146
377.845
376.262
374.555
372.892
371.464
370.407
369.84
331.502
331.1
330.203
328.833
327.125
325.246
323.392
321.786
320.563
319.896
282.64
282.258
281.333
279.85
277.911
275.708
273.467
271.495
269.919
268.975
233.695
233.352
232.412
230.854
228.653
225.921
222.962
220.329
218.191
216.851
184.501
184.28
183.324
181.589
178.972
175.485
171.498
167.946
164.925
162.971
134.351
134.341
133.986
132.765
129.992
125.328
119.066
113.869
109.518
106.775
82.1284
82.3999
83.0356
82.4167
81.1259
75.3662
66.0177
57.8608
50.2777
46.6901
30.8943
32.1512
35.3708
38.2488
37.9101
34.2285
22.9832
13.1536
7.81528
6.85409
3.44113
3.21519
3.26118
4.51701
7.86867
8.31281
2.78277
0.165327
0.070697
-0.0870674
-0.366943
-0.451016
-0.528985
-0.575793
-0.605322
-0.556153
-0.466899
-0.358104
-0.251605
-0.275466
-0.502628
-0.613055
-0.640019
-0.678085
-0.674472
-0.602468
-0.541978
-0.499361
-0.464601
-0.457255
-0.578565
-0.657089
-0.665198
-0.679401
-0.691891
-0.669132
-0.618311
-0.594517
-0.58554
-0.567219
-0.636353
-0.673861
-0.688802
-0.683494
-0.691025
-0.69095
-0.646005
-0.617688
-0.628994
-0.616205
-0.696528
-0.705085
-0.724647
-0.715614
-0.710978
-0.698622
-0.641853
-0.606537
-0.622577
-0.640983
-0.769712
-0.751913
-0.763523
-0.76048
-0.758313
-0.743045
-0.679787
-0.643473
-0.666448
-0.709396
-0.834231
-0.829923
-0.828907
-0.82558
-0.821153
-0.807353
-0.768052
-0.747404
-0.770649
-0.797143
-0.869022
-0.895923
-0.900494
-0.900088
-0.894459
-0.885508
-0.865264
-0.847674
-0.851749
-0.851612
-0.889184
-0.925108
-0.947183
-0.958987
-0.949161
-0.936027
-0.919613
-0.903464
-0.883789
-0.850897
-0.913565
-0.945899
-0.976779
-0.996286
-0.98497
-0.959962
-0.937558
-0.915717
-0.886781
-0.840057
-0.929307
-0.957001
-0.991743
-1.01538
-1.00102
-0.970304
-0.947944
-0.926304
-0.898806
-0.866205
378.522
378.146
377.343
376.15
374.684
373.081
371.512
370.18
369.205
368.708
329.411
329.039
328.223
326.973
325.393
323.627
321.882
320.386
319.25
318.661
280.173
279.83
279.015
277.677
275.876
273.756
271.61
269.761
268.275
267.383
230.63
230.353
229.619
228.322
226.26
223.51
220.626
218.176
216.125
214.695
180.481
180.398
179.824
178.477
175.896
172.01
167.983
164.73
162.026
159.8
128.744
129.094
129.744
129.495
126.906
121.058
114.509
109.634
105.804
102.554
73.8133
75.1286
78.7144
81.163
81.261
73.5738
62.6729
53.4068
45.7867
41.3221
21.3721
22.0313
29.6486
36.1313
37.849
32.4798
21.4345
11.2398
5.73175
4.61426
1.18181
0.578712
1.91516
5.32906
9.20603
7.58823
2.2934
0.273002
-0.016916
-0.183146
-0.209133
-0.417472
-0.520572
-0.581508
-0.614518
-0.524368
-0.406696
-0.284855
-0.257681
-0.304672
-0.451386
-0.636645
-0.654248
-0.649101
-0.626989
-0.579036
-0.533525
-0.484003
-0.470965
-0.468762
-0.578796
-0.701107
-0.687233
-0.66761
-0.648816
-0.643531
-0.607053
-0.572671
-0.577379
-0.565576
-0.622936
-0.663666
-0.681452
-0.660236
-0.643399
-0.647399
-0.609501
-0.575244
-0.59741
-0.594634
-0.66461
-0.681881
-0.711289
-0.696824
-0.66542
-0.646255
-0.608599
-0.581837
-0.596623
-0.61216
-0.718066
-0.707895
-0.735546
-0.738668
-0.722311
-0.698844
-0.657933
-0.630343
-0.637154
-0.668275
-0.786909
-0.770061
-0.78363
-0.792264
-0.78411
-0.765211
-0.734613
-0.714839
-0.723996
-0.738778
-0.840822
-0.846224
-0.858937
-0.859035
-0.850155
-0.834536
-0.812977
-0.79856
-0.796019
-0.789868
-0.878817
-0.9065
-0.925837
-0.921176
-0.905661
-0.885513
-0.867094
-0.856425
-0.841374
-0.818358
-0.908608
-0.936017
-0.962307
-0.969315
-0.950952
-0.923735
-0.906692
-0.896217
-0.875397
-0.845872
-0.93181
-0.957665
-0.982766
-1.00334
-0.990337
-0.958472
-0.943376
-0.933062
-0.914914
-0.892444
377.016
376.662
375.92
374.811
373.436
371.924
370.448
369.208
368.317
367.887
327.769
327.416
326.663
325.506
324.016
322.345
320.71
319.324
318.295
317.784
278.256
277.943
277.203
275.972
274.253
272.17
270.12
268.409
267.031
266.255
228.307
228.073
227.488
226.304
224.184
221.341
218.56
216.391
214.446
213.081
177.523
177.551
177.29
176.079
173.163
168.388
164.368
161.859
159.359
157.261
124.775
125.283
127.088
127.364
123.641
115.841
109.238
105.688
101.625
98.7598
68.0971
70.7663
77.2094
80.2417
77.8154
69.4219
58.4239
48.8376
41.9813
37.1119
14.4453
18.0456
30.1968
37.2932
35.5358
28.2971
19.2275
8.50457
4.45129
3.44892
0.91807
0.889413
3.2987
8.29118
9.42469
6.27323
1.4981
0.249373
0.0104574
-0.129721
0.0583849
-0.321747
-0.53675
-0.579205
-0.504107
-0.423113
-0.381195
-0.243835
-0.276651
-0.317783
-0.353807
-0.655835
-0.653529
-0.603755
-0.563147
-0.548685
-0.523987
-0.465072
-0.464368
-0.461904
-0.596789
-0.739598
-0.696407
-0.639929
-0.60131
-0.604817
-0.578075
-0.529038
-0.541066
-0.545883
-0.608672
-0.641623
-0.663302
-0.640308
-0.604731
-0.590943
-0.554546
-0.519496
-0.557985
-0.574202
-0.637462
-0.655548
-0.68914
-0.68562
-0.640239
-0.603289
-0.572315
-0.559566
-0.582576
-0.606188
-0.682396
-0.680876
-0.711016
-0.723821
-0.702575
-0.672751
-0.641666
-0.630343
-0.638761
-0.662946
-0.746082
-0.734649
-0.747394
-0.765316
-0.761719
-0.744325
-0.725765
-0.715357
-0.714034
-0.728426
-0.810975
-0.802312
-0.809487
-0.824236
-0.823504
-0.812558
-0.801907
-0.791703
-0.780506
-0.780252
-0.863913
-0.869599
-0.87717
-0.885216
-0.879691
-0.869083
-0.860932
-0.849599
-0.837022
-0.823752
-0.903476
-0.919775
-0.933806
-0.939107
-0.927845
-0.915077
-0.906227
-0.897284
-0.887352
-0.874097
-0.937193
-0.95278
-0.966743
-0.975189
-0.968085
-0.956528
-0.948086
-0.941471
-0.935624
-0.932633
376.021
375.675
374.971
373.918
372.607
371.172
369.774
368.603
367.792
367.474
326.7
326.346
325.624
324.516
323.086
321.498
319.958
318.66
317.763
317.378
277.041
276.708
275.992
274.807
273.115
271.081
269.166
267.507
266.289
265.757
226.878
226.671
226.022
224.736
222.534
219.804
217.297
215.067
213.219
212.298
175.769
175.753
175.51
173.975
170.459
165.85
162.816
159.996
157.184
155.738
122.738
122.854
125.168
124.073
118.309
110.455
107.182
102.438
98.3165
96.6221
66.754
68.5908
76.1048
76.2736
69.3237
61.4225
54.4497
45.5067
37.9549
33.9169
12.3227
19.0491
31.9729
34.6152
27.6087
20.7553
13.1042
5.85245
3.51131
2.80869
1.20057
1.35296
4.72719
7.47133
4.81625
1.99914
0.372966
0.0783765
-0.0148704
-0.0830234
0.268259
-0.185122
-0.565605
-0.553988
-0.39157
-0.349904
-0.361029
-0.255425
-0.308966
-0.326851
-0.283998
-0.656894
-0.634241
-0.566214
-0.521527
-0.521512
-0.502195
-0.43868
-0.451513
-0.445373
-0.577599
-0.748389
-0.683514
-0.618034
-0.572108
-0.566654
-0.527353
-0.475571
-0.503531
-0.517131
-0.600531
-0.62807
-0.645476
-0.629936
-0.588615
-0.554836
-0.512866
-0.486067
-0.530459
-0.556146
-0.626832
-0.634499
-0.664873
-0.68383
-0.650097
-0.594994
-0.557673
-0.546898
-0.57535
-0.602137
-0.66956
-0.667656
-0.692516
-0.715282
-0.708028
-0.672434
-0.643328
-0.635994
-0.644182
-0.661358
-0.726697
-0.725178
-0.730025
-0.745965
-0.752031
-0.737768
-0.724395
-0.718559
-0.717686
-0.720776
-0.79098
-0.790811
-0.793132
-0.800076
-0.805112
-0.797445
-0.792053
-0.792716
-0.796382
-0.787801
-0.849337
-0.847661
-0.84885
-0.854731
-0.858236
-0.851377
-0.851109
-0.857254
-0.870035
-0.857489
-0.897949
-0.898079
-0.898011
-0.90116
-0.905653
-0.901865
-0.902484
-0.91004
-0.925976
-0.925195
-0.937815
-0.938088
-0.938628
-0.943345
-0.948237
-0.948678
-0.948991
-0.953183
-0.964508
-0.971531
375.584
375.236
374.54
373.507
372.234
370.858
369.511
368.369
367.649
367.551
326.255
325.883
325.149
324.055
322.672
321.182
319.706
318.431
317.608
317.62
276.585
276.19
275.435
274.258
272.606
270.723
268.821
267.141
266.053
265.882
226.457
226.154
225.327
223.969
221.99
219.598
217.001
214.48
212.686
212.329
175.302
175.184
174.534
172.84
170.028
166.785
162.953
159.098
156.182
155.97
122.313
121.648
123.083
120.915
116.271
112.288
107.177
101.076
96.7019
97.0537
67.4283
67.7402
72.8467
69.8064
63.2835
59.4395
51.856
41.4197
33.9898
32.9508
15.0611
19.9956
28.7932
25.4729
19.3614
16.2833
8.96364
4.5882
2.86871
2.51827
1.73129
1.74195
3.23039
2.08715
1.13469
0.519986
0.137506
0.0101865
-0.0771207
-0.0680595
0.387974
-0.157396
-0.557327
-0.485641
-0.33291
-0.326233
-0.297603
-0.31336
-0.358535
-0.328003
-0.258952
-0.614322
-0.599687
-0.546393
-0.503911
-0.499584
-0.460711
-0.444151
-0.469351
-0.433611
-0.522918
-0.72075
-0.646404
-0.600979
-0.552488
-0.518806
-0.479565
-0.462627
-0.50612
-0.502354
-0.577837
-0.627905
-0.621416
-0.610585
-0.57563
-0.53067
-0.494788
-0.49107
-0.529496
-0.547866
-0.650042
-0.63823
-0.647276
-0.666065
-0.679732
-0.624967
-0.57801
-0.569809
-0.588657
-0.601808
-0.681615
-0.668394
-0.681762
-0.696907
-0.740069
-0.710057
-0.670407
-0.663903
-0.662265
-0.657254
-0.730101
-0.729404
-0.723847
-0.733011
-0.755399
-0.756917
-0.73769
-0.746021
-0.752517
-0.735447
-0.788656
-0.795918
-0.793406
-0.790853
-0.800103
-0.804964
-0.80004
-0.822347
-0.845079
-0.827237
-0.842877
-0.848665
-0.852512
-0.852028
-0.854151
-0.857232
-0.85667
-0.87963
-0.912403
-0.895291
-0.890156
-0.891441
-0.893911
-0.899252
-0.902617
-0.905174
-0.90702
-0.924335
-0.949395
-0.943116
-0.930701
-0.930946
-0.93106
-0.938947
-0.946063
-0.94893
-0.950279
-0.960699
-0.976563
-0.981769
375.762
375.393
374.661
373.595
372.304
370.925
369.575
368.471
367.806
367.794
326.454
326.063
325.279
324.131
322.725
321.226
319.757
318.517
317.778
317.783
276.874
276.431
275.59
274.316
272.641
270.752
268.848
267.245
266.311
266.178
226.969
226.438
225.373
223.874
221.867
219.469
216.826
214.429
213.058
213.14
176.171
175.589
174.449
172.587
170.026
166.762
162.674
159.031
156.954
157.247
123.726
122.82
122.329
120.06
116.823
112.754
106.949
101.498
98.243
99.2765
69.2756
67.7106
70.1371
65.8941
62.0247
58.7774
49.7995
40.3878
34.6008
36.944
21.5264
21.3046
23.9323
19.9761
17.5922
16.3667
8.15597
4.06117
2.83402
3.64191
2.63627
2.14823
1.93107
0.951724
0.652341
0.43837
0.0355454
-0.0222014
-0.0610771
-0.0949668
0.370262
-0.123058
-0.408544
-0.43003
-0.319756
-0.30657
-0.301794
-0.342874
-0.342659
-0.319636
-0.223433
-0.551355
-0.563036
-0.545965
-0.5057
-0.471797
-0.464062
-0.468638
-0.451203
-0.421288
-0.481967
-0.668928
-0.613328
-0.604101
-0.559292
-0.510039
-0.498906
-0.502536
-0.506163
-0.48978
-0.58569
-0.646062
-0.589793
-0.580261
-0.574295
-0.540175
-0.526583
-0.540956
-0.549671
-0.540404
-0.658735
-0.649223
-0.628253
-0.62714
-0.692201
-0.69317
-0.634532
-0.633162
-0.630891
-0.614058
-0.697231
-0.679649
-0.687104
-0.686339
-0.773226
-0.796235
-0.72448
-0.722393
-0.728671
-0.712418
-0.738284
-0.733253
-0.730981
-0.724991
-0.757502
-0.792606
-0.771507
-0.792931
-0.820817
-0.806319
-0.791827
-0.795373
-0.790833
-0.786919
-0.796592
-0.814412
-0.820381
-0.852385
-0.887048
-0.868213
-0.836442
-0.845422
-0.847659
-0.85182
-0.853455
-0.864784
-0.871847
-0.898059
-0.928016
-0.914951
-0.879157
-0.886035
-0.891869
-0.901817
-0.904432
-0.911279
-0.917668
-0.93292
-0.951468
-0.953136
-0.924588
-0.931062
-0.936098
-0.943277
-0.948248
-0.953748
-0.958563
-0.96405
-0.973732
-0.986814
376.449
376.052
375.259
374.121
372.758
371.322
369.956
368.878
368.241
368.127
327.229
326.796
325.929
324.685
323.198
321.624
320.123
318.926
318.232
318.124
277.842
277.336
276.346
274.95
273.194
271.259
269.33
267.774
266.917
266.805
228.225
227.558
226.215
224.545
222.424
219.988
217.401
215.217
214.048
213.921
178.105
177.28
175.589
173.334
170.656
167.412
163.427
160.085
158.389
158.755
126.682
125.298
123.413
120.59
117.36
113.352
107.929
102.992
100.468
101.444
74.3778
70.9129
68.8461
65.2133
61.9724
58.0042
50.469
43.146
39.0952
41.0499
29.741
25.882
22.4273
18.5411
17.8618
16.4619
8.93693
5.16007
4.05278
5.11915
5.75316
2.91305
1.89209
0.901044
0.710101
0.494742
0.178943
0.0842271
-0.0407245
-0.119808
0.413459
-0.0277045
-0.268077
-0.417904
-0.337341
-0.326524
-0.281361
-0.283412
-0.320481
-0.302114
-0.151426
-0.44262
-0.514183
-0.552209
-0.493048
-0.436874
-0.438565
-0.425091
-0.410619
-0.404943
-0.437335
-0.617872
-0.598168
-0.611146
-0.574853
-0.528593
-0.515963
-0.494003
-0.490056
-0.488341
-0.602718
-0.655534
-0.597205
-0.592644
-0.603413
-0.602881
-0.595257
-0.589053
-0.587854
-0.590356
-0.676081
-0.669335
-0.641508
-0.627036
-0.705481
-0.782057
-0.733773
-0.712058
-0.708599
-0.703707
-0.713824
-0.703857
-0.712294
-0.689346
-0.786105
-0.89829
-0.831446
-0.800398
-0.813143
-0.801716
-0.764
-0.763117
-0.772802
-0.747628
-0.793918
-0.853942
-0.841571
-0.845102
-0.880424
-0.867606
-0.812601
-0.818964
-0.826911
-0.830644
-0.813486
-0.818297
-0.847717
-0.882599
-0.918917
-0.912247
-0.860803
-0.860321
-0.869004
-0.880205
-0.864727
-0.873148
-0.892936
-0.92065
-0.947093
-0.951022
-0.896178
-0.888715
-0.887503
-0.90979
-0.914553
-0.923653
-0.935499
-0.953574
-0.97246
-0.984443
-0.930747
-0.915184
-0.91484
-0.944707
-0.955691
-0.964657
-0.972267
-0.981762
-0.993578
-1.00974
377.647
377.218
376.354
375.129
373.664
372.144
370.727
369.627
368.972
368.83
328.552
328.084
327.135
325.757
324.169
322.501
320.933
319.706
318.979
318.826
279.422
278.881
277.778
276.244
274.333
272.301
270.33
268.764
267.868
267.64
230.234
229.526
228.035
226.107
223.776
221.205
218.602
216.518
215.432
215.225
180.857
180.001
178.015
175.392
172.389
169.025
165.228
162.108
160.429
160.799
130.874
129.52
127.067
123.541
119.563
115.126
110.222
105.876
103.413
104.686
80.8258
77.8388
73.0844
68.2385
64.3279
59.6978
53.0855
46.5769
43.3739
45.3509
39.3388
34.2356
28.3762
22.2836
19.2979
16.1066
10.0515
6.4584
5.67184
7.08328
13.8525
6.01869
4.57993
2.69289
1.52113
0.541929
0.189243
0.0797023
0.0102403
-0.0350832
0.929339
0.0622659
-0.16569
-0.414
-0.362071
-0.312173
-0.266496
-0.284216
-0.327829
-0.28112
-0.233992
-0.445138
-0.537579
-0.569974
-0.476713
-0.412865
-0.414532
-0.417532
-0.430279
-0.417202
-0.48455
-0.592172
-0.605942
-0.618722
-0.572747
-0.530015
-0.502923
-0.478166
-0.496394
-0.516081
-0.622959
-0.654169
-0.605264
-0.605326
-0.626831
-0.65414
-0.648575
-0.634415
-0.650781
-0.677108
-0.687279
-0.684517
-0.665249
-0.623836
-0.711303
-0.853832
-0.828564
-0.794146
-0.801451
-0.819983
-0.73832
-0.732406
-0.734357
-0.697378
-0.792101
-0.958912
-0.942687
-0.890101
-0.896872
-0.893659
-0.7939
-0.798803
-0.813967
-0.800808
-0.841385
-0.907743
-0.916249
-0.909102
-0.933303
-0.936801
-0.843014
-0.850643
-0.869497
-0.896248
-0.860557
-0.822696
-0.876581
-0.924932
-0.965039
-0.98356
-0.880199
-0.882925
-0.90224
-0.920731
-0.888063
-0.885287
-0.921395
-0.966087
-1.00493
-1.03192
-0.909433
-0.903674
-0.917515
-0.926438
-0.926866
-0.943249
-0.969157
-1.00278
-1.03815
-1.06599
-0.939084
-0.927501
-0.937136
-0.957655
-0.974815
-0.986754
-1.00167
-1.02688
-1.05525
-1.07396
379.269
378.811
377.876
376.544
374.981
373.368
371.87
370.712
370
369.814
330.329
329.834
328.818
327.352
325.619
323.835
322.173
320.881
320.09
319.901
281.514
280.948
279.763
278.077
276.036
273.876
271.821
270.206
269.247
268.983
232.815
232.111
230.579
228.455
225.903
223.152
220.465
218.369
217.246
217.075
184.225
183.4
181.415
178.623
175.228
171.572
167.853
164.914
163.238
163.264
135.711
134.49
131.994
128.296
123.659
118.492
113.514
109.632
107.068
107.737
87.2047
85.3825
81.5706
75.6427
69.3405
63.122
56.8797
51.6664
47.679
49.3164
45.347
41.4306
37.789
30.2163
22.9601
16.3836
11.7067
8.37741
6.93011
8.48617
17.8047
12.4556
9.40882
4.86864
1.87874
0.459135
0.138425
0.122401
0.11802
0.0731034
3.39307
1.28078
0.179166
-0.496255
-0.429382
-0.383725
-0.353098
-0.302545
-0.331539
-0.290181
-0.435568
-0.535217
-0.592402
-0.604157
-0.510215
-0.446857
-0.44965
-0.448383
-0.477051
-0.461873
-0.525845
-0.593545
-0.612027
-0.622325
-0.579513
-0.564009
-0.537965
-0.508191
-0.521947
-0.550531
-0.631681
-0.648267
-0.614722
-0.602151
-0.634748
-0.701542
-0.6989
-0.683929
-0.71346
-0.752722
-0.699423
-0.699536
-0.670966
-0.611913
-0.704689
-0.8862
-0.896405
-0.865404
-0.876818
-0.898419
-0.752511
-0.762303
-0.750101
-0.706813
-0.793878
-0.976276
-1.007
-0.963714
-0.959992
-0.96262
-0.807838
-0.828996
-0.830542
-0.859721
-0.882614
-0.933852
-0.958247
-0.963516
-0.98678
-1.00903
-0.858503
-0.873132
-0.878081
-0.931737
-0.901345
-0.847542
-0.898065
-0.973356
-1.03063
-1.07435
-0.900108
-0.902844
-0.915512
-0.934032
-0.907259
-0.911774
-0.968027
-1.03725
-1.09574
-1.14282
-0.929715
-0.921439
-0.938672
-0.948075
-0.940469
-0.969815
-1.02187
-1.08761
-1.14326
-1.18524
-0.95495
-0.938156
-0.955889
-0.975319
-0.991549
-1.00848
-1.04874
-1.10908
-1.15959
-1.17966
381.196
380.714
379.715
378.288
376.613
374.897
373.304
372.058
371.258
370.995
332.432
331.918
330.843
329.286
327.436
325.524
323.749
322.358
321.461
321.178
283.965
283.389
282.148
280.341
278.173
275.89
273.729
272.014
270.928
270.551
235.783
235.099
233.566
231.337
228.614
225.716
222.907
220.689
219.337
218.847
187.963
187.152
185.198
182.391
178.913
175.059
171.207
168.16
166.292
165.934
140.539
139.45
137.006
133.443
128.893
123.623
118.157
113.994
111.269
111.271
93.1938
91.7652
89.1527
84.1988
77.422
69.4933
62.1515
57.2582
53.5996
54.4642
49.6299
47.375
45.6262
40.6136
32.7155
22.731
15.0431
11.2411
9.0019
10.6893
18.4542
16.9554
15.3768
9.7158
4.48427
1.12052
0.110176
0.200305
0.259816
0.1573
3.19
1.03514
0.213934
-0.530509
-0.453329
-0.462985
-0.578447
-0.414149
-0.308101
-0.309256
-0.545088
-0.556724
-0.592919
-0.606044
-0.541122
-0.534341
-0.544528
-0.503567
-0.499729
-0.512519
-0.590808
-0.599722
-0.61219
-0.618367
-0.588862
-0.628019
-0.614949
-0.569751
-0.550301
-0.56771
-0.661415
-0.663387
-0.629883
-0.593654
-0.634803
-0.746897
-0.759979
-0.742044
-0.761199
-0.785235
-0.714956
-0.717889
-0.688349
-0.609044
-0.696338
-0.8932
-0.927956
-0.914772
-0.925824
-0.937892
-0.758995
-0.77504
-0.764211
-0.733334
-0.797264
-0.961118
-1.01304
-1.00049
-0.99736
-1.00112
-0.81343
-0.841879
-0.832861
-0.87276
-0.899976
-0.941192
-0.975377
-0.993223
-1.0236
-1.05834
-0.868944
-0.892796
-0.879234
-0.941391
-0.929124
-0.897183
-0.938847
-1.01251
-1.08723
-1.14671
-0.917377
-0.938735
-0.937732
-0.973322
-0.949518
-0.973857
-1.04522
-1.12393
-1.19128
-1.24215
-0.949288
-0.955027
-0.963842
-0.995626
-0.99841
-1.05556
-1.14136
-1.22007
-1.27379
-1.29925
-0.976025
-0.957849
-0.975136
-0.995748
-1.02167
-1.06232
-1.13923
-1.23177
-1.28251
-1.27913
383.27
382.773
381.717
380.193
378.404
376.573
374.881
373.537
372.633
372.262
334.693
334.176
333.051
331.39
329.423
327.394
325.491
324.002
322.984
322.568
286.592
286.043
284.77
282.833
280.513
278.114
275.881
274.023
272.785
272.257
238.933
238.313
236.801
234.456
231.582
228.561
225.643
223.295
221.696
221.075
191.837
191.107
189.168
186.301
182.729
178.871
175.008
171.782
169.562
169.159
145.276
144.372
141.905
138.374
133.935
128.956
123.758
118.991
115.868
115.295
98.8519
97.2878
94.8995
90.8539
85.052
77.7883
69.7371
63.3045
60.0176
59.4751
54.5553
52.3431
50.7028
46.8679
40.5965
32.3055
22.603
15.5269
12.7506
12.5731
18.0852
17.0038
18.5271
15.8314
9.87971
4.35786
0.777142
0.174617
0.252327
0.252501
1.32745
0.196725
0.102494
-0.181504
-0.397622
-0.422292
-0.59318
-0.610411
-0.417953
-0.31329
-0.579944
-0.561554
-0.579887
-0.578829
-0.53915
-0.569158
-0.608975
-0.577611
-0.519058
-0.507732
-0.623668
-0.624849
-0.616305
-0.616722
-0.582614
-0.642514
-0.670574
-0.632832
-0.57762
-0.569137
-0.693673
-0.696234
-0.668801
-0.605234
-0.634612
-0.757842
-0.791506
-0.787937
-0.787892
-0.791695
-0.734756
-0.747033
-0.72634
-0.639085
-0.701729
-0.87289
-0.915968
-0.93061
-0.950482
-0.959628
-0.766306
-0.790066
-0.78273
-0.752399
-0.791482
-0.92273
-0.977395
-0.989933
-1.00456
-1.01599
-0.817137
-0.850467
-0.83897
-0.853135
-0.884614
-0.930216
-0.963924
-0.986624
-1.02254
-1.06452
-0.871931
-0.916124
-0.893662
-0.943098
-0.946414
-0.939183
-0.960103
-1.01399
-1.08258
-1.14539
-0.915567
-0.982811
-0.978932
-1.0199
-1.00445
-1.02534
-1.07062
-1.13536
-1.19549
-1.23996
-0.93666
-0.995401
-0.993428
-1.04308
-1.08388
-1.14573
-1.21489
-1.26926
-1.29905
-1.30095
-0.963274
-0.970635
-0.9961
-1.02327
-1.06159
-1.13902
-1.23985
-1.30667
-1.32568
-1.2855
385.301
384.802
383.695
382.067
380.163
378.223
376.437
374.994
373.991
373.514
336.913
336.423
335.254
333.463
331.359
329.219
327.24
325.632
324.512
323.976
289.182
288.732
287.445
285.324
282.803
280.268
277.933
276.015
274.651
273.971
242.046
241.585
240.11
237.558
234.436
231.285
228.345
225.867
224.174
223.387
195.675
195.093
193.178
190.098
186.285
182.374