/*--------------------------------*- C++ -*----------------------------------*\
| =========                 |                                                 |
| \\      /  F ield         | OpenFOAM: The Open Source CFD Toolbox           |
|  \\    /   O peration     | Version:  2312                                  |
|   \\  /    A nd           | Website:  www.openfoam.com                      |
|    \\/     M anipulation  |                                                 |
\*---------------------------------------------------------------------------*/
FoamFile
{
    version     2.0;
    format      ascii;
    arch        "LSB;label=32;scalar=64";
    class       surfaceScalarField;
    location    "0.81";
    object      phi;
}
// * * * * * * * * * * * * * * * * * * * * * * * * * * * * * * * * * * * * * //

dimensions      [0 3 -1 0 0 0 0];

oriented        oriented;

internalField   nonuniform List<scalar> 
22600
(
1.60532e-07
-3.27512e-07
1.6698e-07
3.34287e-07
-3.33761e-07
1.60005e-07
4.79174e-07
-2.97739e-07
1.52852e-07
5.61479e-07
-2.3915e-07
1.56845e-07
5.83339e-07
-1.80843e-07
1.58983e-07
5.50417e-07
-1.233e-07
1.56222e-07
4.73262e-07
-7.32181e-08
1.50373e-07
3.68567e-07
-3.5854e-08
1.40548e-07
2.51988e-07
-1.27902e-08
1.2937e-07
-4.47672e-09
1.16326e-07
1.29647e-07
-5.92893e-07
1.35734e-07
2.92589e-07
-6.19037e-07
1.22335e-07
4.33666e-07
-5.48383e-07
1.09567e-07
5.17693e-07
-4.49225e-07
1.26049e-07
5.46089e-07
-3.50214e-07
1.40974e-07
5.23867e-07
-2.45285e-07
1.44207e-07
4.59228e-07
-1.49702e-07
1.41122e-07
3.65018e-07
-7.85751e-08
1.36931e-07
2.53819e-07
-3.67219e-08
1.35131e-07
-3.02605e-08
1.29494e-07
1.90619e-07
-9.79589e-07
1.96077e-07
3.9713e-07
-1.03367e-06
2.08121e-07
5.52875e-07
-8.43665e-07
1.39536e-07
6.46068e-07
-6.72137e-07
1.2972e-07
6.69915e-07
-5.3173e-07
1.57668e-07
6.28916e-07
-3.81249e-07
1.76963e-07
5.35674e-07
-2.43896e-07
1.87437e-07
4.08041e-07
-1.47898e-07
1.96956e-07
2.69962e-07
-1.10302e-07
2.11659e-07
-1.45416e-07
2.26768e-07
3.58155e-07
-1.69043e-06
3.52681e-07
6.21799e-07
-1.77954e-06
4.82222e-07
7.40507e-07
-1.29691e-06
3.34533e-07
8.32247e-07
-9.82059e-07
2.18181e-07
8.55101e-07
-7.61347e-07
2.06764e-07
7.76727e-07
-5.42433e-07
2.39558e-07
6.11692e-07
-3.58775e-07
2.79914e-07
4.07915e-07
-2.7882e-07
3.34699e-07
2.3194e-07
-3.43597e-07
4.0927e-07
-5.70055e-07
4.84492e-07
6.23492e-07
-2.92752e-06
6.13598e-07
9.37348e-07
-2.8849e-06
7.9151e-07
9.29547e-07
-1.92729e-06
6.3819e-07
9.25833e-07
-1.44124e-06
4.62894e-07
9.1385e-07
-1.14636e-06
3.96992e-07
7.90822e-07
-8.47691e-07
4.28286e-07
5.37984e-07
-6.0209e-07
4.96153e-07
2.76904e-07
-6.19452e-07
6.01712e-07
1.52124e-07
-9.73767e-07
7.54949e-07
-1.3819e-06
8.62753e-07
7.62443e-07
-4.45265e-06
7.62688e-07
1.08268e-06
-4.15614e-06
9.51003e-07
1.10212e-06
-2.85944e-06
9.1271e-07
1.05361e-06
-2.19255e-06
7.99821e-07
9.81663e-07
-1.76568e-06
6.91269e-07
8.37815e-07
-1.32841e-06
6.24568e-07
6.35802e-07
-9.7756e-07
5.77483e-07
4.86682e-07
-1.17288e-06
7.02548e-07
3.84993e-07
-1.7402e-06
8.68123e-07
-1.92118e-06
9.20285e-07
6.90958e-07
-5.88306e-06
7.39455e-07
9.20895e-07
-5.3346e-06
9.48521e-07
1.11496e-06
-4.12105e-06
1.06755e-06
1.26836e-06
-3.37177e-06
1.02582e-06
1.35145e-06
-2.69607e-06
8.47292e-07
1.36336e-06
-2.00841e-06
6.68091e-07
1.15509e-06
-1.3533e-06
5.84013e-07
8.82149e-07
-1.56851e-06
6.68573e-07
6.16338e-07
-2.1105e-06
6.36115e-07
-2.02035e-06
6.14037e-07
4.99217e-07
-6.99643e-06
6.14157e-07
5.18192e-07
-6.24973e-06
8.96161e-07
8.2353e-07
-5.3753e-06
9.48907e-07
1.44651e-06
-4.75145e-06
7.56704e-07
1.74624e-06
-3.39992e-06
4.04121e-07
1.65393e-06
-2.04993e-06
1.33825e-07
1.22715e-06
-9.47241e-07
2.07178e-08
8.1358e-07
-7.24209e-07
-4.30731e-07
4.22378e-07
-9.143e-07
-8.05002e-07
-7.84652e-07
-7.59111e-07
3.961e-07
-8.00151e-06
6.08971e-07
7.65618e-07
-7.62725e-06
1.008e-06
1.90677e-06
-7.35161e-06
8.35152e-07
3.71955e-06
-6.88285e-06
3.18626e-07
4.0942e-06
-3.66005e-06
-1.14517e-07
3.08087e-06
-8.18434e-07
-2.18167e-07
2.23169e-06
-6.81432e-08
-2.99171e-08
1.37284e-06
-1.86922e-07
3.21555e-07
1.94734e-07
-1.62304e-08
2.80042e-07
-1.84209e-07
2.88672e-07
3.29685e-07
-9.00859e-06
6.77395e-07
2.17205e-06
-9.78151e-06
3.11899e-07
5.3018e-06
-1.00079e-05
-4.73498e-07
8.87537e-06
-8.54087e-06
-1.91555e-06
9.37782e-06
-2.02085e-06
-2.14167e-06
6.22572e-06
1.62375e-06
7.09936e-07
2.13305e-06
2.28181e-06
1.74271e-06
-9.21017e-08
6.66334e-07
1.3719e-06
-1.39089e-06
-1.98547e-07
1.48111e-06
-8.31614e-07
1.29898e-06
2.12013e-07
-8.05014e-06
-1.17046e-06
2.89716e-06
-8.49741e-06
-3.96925e-06
4.57352e-06
-6.43258e-06
-5.25166e-06
6.68348e-06
-5.07337e-06
-5.57744e-06
8.36134e-06
-7.4685e-07
-2.95182e-06
6.78033e-06
2.4707e-06
7.34046e-07
1.08424e-06
4.68199e-06
3.29591e-06
-3.70272e-06
3.83481e-06
1.61848e-06
-5.28396e-06
1.50856e-06
-1.25884e-07
4.82051e-07
-1.7464e-07
-9.63146e-07
-3.52145e-06
-3.56555e-06
1.48257e-06
-3.16772e-06
-7.7754e-06
3.00641e-06
-1.65051e-06
-6.30593e-06
4.78987e-06
-3.32018e-07
-6.5248e-06
6.38903e-06
1.77342e-06
-4.11945e-06
4.71692e-06
4.138e-06
4.82473e-09
-5.5839e-07
6.63621e-06
3.32109e-06
-4.03068e-06
6.59286e-06
7.14226e-07
-5.33472e-06
4.23623e-06
-1.42363e-06
2.62852e-06
-1.27356e-06
-8.88965e-07
2.63854e-06
-5.27102e-06
5.77166e-07
2.916e-06
-7.54984e-06
1.24433e-06
2.67918e-06
-4.99684e-06
3.47135e-06
3.41201e-06
-5.97106e-06
4.34949e-06
5.01465e-06
-4.11936e-06
2.05648e-06
6.63961e-06
-2.08605e-07
-2.37553e-06
8.50526e-06
2.56295e-06
-4.23915e-06
8.77492e-06
-3.18438e-07
-4.76417e-06
6.92084e-06
-2.15958e-06
5.00588e-06
-1.65691e-06
-1.62912e-06
6.31769e-06
-2.05004e-06
-3.33524e-07
6.78321e-06
-5.16282e-06
1.33421e-07
6.1747e-06
-3.96247e-06
1.85851e-06
7.21406e-06
-5.52713e-06
2.03128e-06
8.39166e-06
-3.54979e-06
-3.54176e-07
9.33421e-06
-3.0915e-07
-3.57835e-06
1.05148e-05
1.21461e-06
-4.10716e-06
1.08836e-05
-1.57992e-06
-3.92242e-06
9.63166e-06
-2.89556e-06
7.74817e-06
-2.12229e-06
-2.25009e-06
6.48553e-06
2.08226e-06
-1.92887e-06
9.13202e-06
-2.67004e-06
-1.26461e-06
8.97736e-06
-3.4669e-06
1.03071e-07
1.04822e-05
-4.63587e-06
-3.18539e-07
1.13819e-05
-2.56861e-06
-2.38874e-06
1.19554e-05
-5.50986e-07
-4.03848e-06
1.30916e-05
-9.27083e-07
-3.71899e-06
1.37983e-05
-3.23409e-06
-3.40579e-06
1.29819e-05
-3.66349e-06
1.06999e-05
-1.78032e-06
-2.56703e-06
4.99891e-06
4.05365e-06
-3.21824e-06
1.04212e-05
-6.37995e-07
-2.61313e-06
1.10784e-05
-2.70615e-06
-1.69368e-06
1.27496e-05
-3.18685e-06
-2.34221e-06
1.32883e-05
-1.2579e-06
-3.90222e-06
1.3869e-05
-3.53575e-07
-4.37729e-06
1.57204e-05
-2.15367e-06
-3.63017e-06
1.68282e-05
-3.77703e-06
-3.54685e-06
1.54922e-05
-2.59357e-06
1.20851e-05
3.88127e-07
-2.89692e-06
3.25378e-06
4.64203e-06
-4.29344e-06
1.03977e-05
1.42003e-06
-3.8912e-06
1.20891e-05
-1.41295e-06
-3.25685e-06
1.33488e-05
-1.2335e-06
-3.64211e-06
1.32649e-05
4.0868e-07
-4.6811e-06
1.38396e-05
1.06836e-06
-4.75679e-06
1.63201e-05
-5.2404e-07
-3.95618e-06
1.72742e-05
-1.24668e-06
-3.9673e-06
1.45426e-05
9.60755e-07
1.06474e-05
2.98962e-06
-3.34204e-06
1.50426e-06
5.09157e-06
-5.06812e-06
8.74888e-06
3.37493e-06
-4.8308e-06
1.06796e-05
1.17218e-06
-4.0998e-06
1.10943e-05
1.52352e-06
-3.93198e-06
1.07113e-05
2.38579e-06
-4.35221e-06
1.12832e-05
2.9767e-06
-4.22583e-06
1.34937e-05
2.70008e-06
-3.59444e-06
1.39512e-05
2.69161e-06
-3.69237e-06
1.0793e-05
3.84744e-06
7.47149e-06
3.87951e-06
-3.21197e-06
1.46182e-07
4.57005e-06
-5.11713e-06
5.78198e-06
4.87205e-06
-5.02828e-06
6.55785e-06
4.03291e-06
-4.11685e-06
6.3262e-06
3.85665e-06
-3.44526e-06
6.35193e-06
3.68776e-06
-3.22704e-06
7.04159e-06
4.02336e-06
-2.5969e-06
8.62568e-06
4.23784e-06
-1.72884e-06
8.90358e-06
4.1796e-06
-1.5674e-06
6.81724e-06
3.81436e-06
4.7079e-06
2.96713e-06
-1.49937e-06
1.9566e-06
-3.11044e-07
-3.2589e-06
4.74339e-06
2.79814e-06
-3.89774e-06
4.55932e-06
2.63737e-06
-3.71852e-06
3.90813e-06
2.23885e-06
-3.14272e-06
3.33462e-06
2.4415e-06
-2.33696e-06
3.24157e-06
2.99426e-06
-1.00737e-06
3.1878e-06
4.10829e-06
4.34071e-07
2.80831e-06
4.65383e-06
1.24978e-06
1.93188e-06
4.06965e-06
1.30141e-06
3.35283e-06
1.53051e-07
-3.33421e-07
3.4735e-07
3.58086e-07
-4.18807e-07
3.73776e-07
5.42348e-07
-3.91047e-07
3.59638e-07
6.47274e-07
-3.03012e-07
3.54931e-07
6.80391e-07
-2.26797e-07
3.52664e-07
6.52596e-07
-1.65519e-07
3.49536e-07
5.73384e-07
-1.16532e-07
3.46118e-07
4.53118e-07
-7.87228e-08
3.39537e-07
3.03429e-07
-5.34515e-08
3.32511e-07
-5.04984e-08
3.20211e-07
1.14527e-07
-6.17921e-07
3.05707e-07
3.37341e-07
-8.7611e-07
3.56825e-07
5.42593e-07
-8.18211e-07
3.31479e-07
6.44776e-07
-6.04792e-07
3.25646e-07
6.71465e-07
-4.45224e-07
3.32712e-07
6.4127e-07
-3.2776e-07
3.36644e-07
5.61858e-07
-2.33109e-07
3.3711e-07
4.43131e-07
-1.59401e-07
3.36337e-07
2.98984e-07
-1.14334e-07
3.4016e-07
-1.1914e-07
3.3919e-07
2.05973e-07
-1.03882e-06
4.11001e-07
5.60562e-07
-1.59166e-06
5.69076e-07
8.00696e-07
-1.40935e-06
4.90544e-07
8.74707e-07
-9.5098e-07
4.01896e-07
8.59201e-07
-6.5841e-07
3.8636e-07
7.99048e-07
-4.86751e-07
3.96107e-07
6.91965e-07
-3.45806e-07
4.07217e-07
5.39768e-07
-2.29859e-07
4.19611e-07
3.52821e-07
-1.55183e-07
4.39456e-07
-1.67367e-07
4.52986e-07
4.89072e-07
-1.80163e-06
6.26424e-07
1.00257e-06
-2.60305e-06
9.80114e-07
1.18677e-06
-2.11846e-06
8.59435e-07
1.20429e-06
-1.36277e-06
6.12454e-07
1.13749e-06
-8.91581e-07
5.06735e-07
1.02065e-06
-6.39636e-07
5.09284e-07
8.4638e-07
-4.40955e-07
5.4933e-07
6.15647e-07
-2.69233e-07
6.04807e-07
3.66024e-07
-1.63352e-07
6.67061e-07
-2.204e-07
7.09391e-07
7.95466e-07
-2.91765e-06
9.34151e-07
1.3782e-06
-3.74425e-06
1.34998e-06
1.4533e-06
-2.8212e-06
1.26583e-06
1.39427e-06
-1.80244e-06
9.61595e-07
1.29331e-06
-1.16376e-06
7.7013e-07
1.13149e-06
-8.07194e-07
7.57668e-07
8.92954e-07
-5.44789e-07
8.38524e-07
5.93988e-07
-3.07431e-07
9.38877e-07
3.142e-07
-1.46976e-07
1.01836e-06
-3.35216e-07
1.08246e-06
9.66045e-07
-4.21106e-06
1.09005e-06
1.52202e-06
-4.8439e-06
1.49468e-06
1.62042e-06
-3.59051e-06
1.58362e-06
1.58522e-06
-2.37599e-06
1.40858e-06
1.4424e-06
-1.48511e-06
1.15544e-06
1.21003e-06
-9.74194e-07
1.02394e-06
9.63867e-07
-7.58456e-07
1.03732e-06
7.70724e-07
-5.9448e-07
1.18274e-06
5.8458e-07
-4.23278e-07
1.33057e-06
-4.38757e-07
1.38188e-06
9.87676e-07
-5.50793e-06
1.04865e-06
1.46647e-06
-5.82566e-06
1.45149e-06
1.73167e-06
-4.48921e-06
1.70105e-06
1.89267e-06
-3.21124e-06
1.70007e-06
1.83164e-06
-1.99944e-06
1.42265e-06
1.67552e-06
-1.23212e-06
1.08214e-06
1.70239e-06
-1.16761e-06
9.66294e-07
1.72299e-06
-1.12822e-06
1.18171e-06
1.30644e-06
-6.53399e-07
1.28278e-06
-1.05976e-07
1.1569e-06
8.22523e-07
-6.61782e-06
9.01521e-07
1.21265e-06
-6.70664e-06
1.38701e-06
1.73966e-06
-5.6724e-06
1.60508e-06
2.2146e-06
-4.48356e-06
1.55407e-06
2.1419e-06
-2.73374e-06
1.21113e-06
1.7442e-06
-1.29266e-06
5.92058e-07
1.42995e-06
-7.04817e-07
-1.27823e-07
1.04249e-06
-4.01243e-07
-7.70251e-07
4.7809e-07
2.36772e-07
-1.13077e-06
8.35176e-07
-1.29738e-06
6.91403e-07
-7.89094e-06
1.19068e-06
1.62332e-06
-8.44863e-06
1.81807e-06
3.18209e-06
-8.08628e-06
1.69027e-06
4.74094e-06
-6.93905e-06
1.21527e-06
5.26313e-06
-4.18963e-06
8.19195e-07
4.7402e-06
-1.90748e-06
9.19577e-07
3.38343e-06
-1.91923e-07
8.13958e-07
1.74857e-06
2.61701e-07
1.29348e-06
2.34587e-07
3.70246e-07
1.66055e-06
3.36187e-08
1.55322e-06
1.11005e-06
-9.5422e-06
1.21861e-06
3.35312e-06
-1.15133e-05
1.13355e-06
6.75762e-06
-1.13305e-05
-6.33813e-07
8.87519e-06
-7.53422e-06
-3.43796e-06
1.15903e-05
-4.79928e-06
-4.24718e-06
1.10655e-05
3.01891e-07
-9.74661e-07
7.64736e-06
3.22849e-06
1.74047e-06
1.88958e-06
2.6759e-06
4.71548e-06
-2.43633e-06
-1.93202e-06
8.10928e-06
-2.62739e-06
5.84372e-06
1.71951e-06
-9.01692e-06
-3.41525e-06
2.72045e-06
-1.04087e-05
-6.07481e-06
3.75928e-06
-9.4254e-06
-8.19559e-06
6.24794e-06
-6.94084e-06
-8.65946e-06
7.69562e-06
-2.76346e-06
-6.43533e-06
8.89547e-06
1.67587e-06
-1.83977e-06
7.78337e-06
5.24153e-06
2.39499e-06
2.92077e-06
6.42855e-06
2.72843e-06
-2.81986e-06
3.69436e-06
-1.16435e-08
2.94376e-06
-4.07057e-06
1.70476e-06
-3.29313e-06
-1.09941e-05
9.69471e-07
-5.27649e-06
-1.21723e-05
1.28901e-06
-6.14069e-06
-9.91019e-06
2.61656e-06
-4.05076e-06
-1.07424e-05
4.65321e-06
-4.51974e-07
-8.4676e-06
6.16908e-06
2.72742e-06
-2.5626e-06
5.00831e-06
6.8893e-06
2.83408e-06
1.1344e-06
9.27297e-06
1.74371e-06
-2.95986e-06
9.32118e-06
-2.95618e-06
7.51202e-06
-5.44469e-06
1.21016e-06
1.40131e-06
-1.11756e-05
4.16463e-07
-1.83358e-06
-1.0199e-05
2.26452e-07
-3.20136e-06
-7.74618e-06
1.16057e-06
-8.9684e-07
-1.00591e-05
2.57765e-06
3.08611e-06
-9.07453e-06
3.6403e-06
5.32404e-06
-3.86788e-06
2.38292e-06
8.34169e-06
2.36795e-06
-4.52794e-07
1.17593e-05
3.09602e-08
-2.55574e-06
1.3303e-05
-4.03848e-06
1.05004e-05
-5.52191e-06
1.5925e-06
5.19548e-06
-7.43669e-06
4.1418e-07
2.13491e-06
-7.95299e-06
-2.63081e-07
1.48643e-07
-6.6352e-06
-2.05037e-07
2.92279e-06
-9.40479e-06
4.45693e-07
7.07819e-06
-8.19261e-06
1.46015e-06
8.70123e-06
-4.70078e-06
8.67244e-07
1.02568e-05
-1.07633e-07
-9.42992e-07
1.42868e-05
-2.29719e-06
-1.02304e-06
1.56835e-05
-5.19597e-06
1.23544e-05
-6.0639e-06
4.68218e-07
7.11459e-06
-3.0506e-07
-5.12123e-07
5.21919e-06
-4.77399e-06
-1.32038e-06
3.16877e-06
-5.67878e-06
-1.5672e-06
6.69643e-06
-8.16268e-06
-1.57766e-06
1.10551e-05
-6.53505e-06
-6.81388e-07
1.22104e-05
-4.95638e-06
-2.14768e-07
1.32401e-05
-4.37694e-06
-4.08893e-07
1.6818e-05
-5.57116e-06
1.27967e-06
1.72357e-05
-6.9043e-06
1.41629e-05
-5.79621e-06
-2.88451e-07
5.95559e-06
5.50109e-06
-9.78592e-07
6.45932e-06
-1.18796e-06
-2.21495e-06
5.96525e-06
-4.26628e-06
-2.64097e-06
1.0178e-05
-6.24234e-06
-2.9655e-06
1.44448e-05
-4.32312e-06
-2.37073e-06
1.51867e-05
-3.92471e-06
-1.01256e-06
1.59956e-05
-6.26738e-06
4.81321e-07
1.86173e-05
-7.07023e-06
2.62552e-06
1.86013e-05
-6.10329e-06
1.64827e-05
-2.22478e-06
-3.51913e-07
3.50911e-06
7.44044e-06
-1.3999e-06
7.31702e-06
1.61031e-06
-2.94224e-06
8.81486e-06
-2.72022e-06
-3.56945e-06
1.32023e-05
-3.63064e-06
-3.77657e-06
1.65422e-05
-1.48153e-06
-3.17044e-06
1.66091e-05
-9.6009e-07
-1.60388e-06
1.74357e-05
-3.53066e-06
1.51324e-07
1.95201e-05
-3.90465e-06
1.07374e-06
1.96534e-05
-1.01376e-06
1.76164e-05
3.92775e-06
-1.32687e-06
1.72264e-06
8.20491e-06
-3.43048e-06
8.45887e-06
4.33669e-06
-4.76306e-06
1.11359e-05
1.837e-07
-4.75776e-06
1.46865e-05
3.39867e-08
-4.36409e-06
1.64827e-05
2.05159e-06
-3.76489e-06
1.58685e-05
3.11809e-06
-2.74017e-06
1.70624e-05
2.04864e-06
-1.77012e-06
1.88842e-05
2.35748e-06
-2.11805e-06
1.85135e-05
5.33523e-06
1.62095e-05
7.55721e-06
-3.53069e-06
1.77735e-06
8.04602e-06
-5.97052e-06
8.8819e-06
6.88886e-06
-6.54701e-06
1.10366e-05
4.70879e-06
-5.61984e-06
1.29053e-05
4.71072e-06
-4.5585e-06
1.35344e-05
5.57472e-06
-3.97835e-06
1.28835e-05
6.42821e-06
-3.32782e-06
1.43633e-05
6.28643e-06
-2.71758e-06
1.59576e-05
6.49595e-06
-3.11957e-06
1.54067e-05
7.32312e-06
1.33029e-05
7.158e-06
-4.23294e-06
5.96107e-06
2.00583e-06
-6.81352e-06
8.01928e-06
8.18659e-06
-7.06822e-06
7.5104e-06
8.34017e-06
-5.95507e-06
7.28282e-06
8.41746e-06
-4.6201e-06
6.96522e-06
8.56885e-06
-3.78529e-06
6.90198e-06
8.38824e-06
-2.8184e-06
6.66678e-06
9.91739e-06
-1.72686e-06
6.25797e-06
1.14164e-05
-1.30529e-06
5.45109e-06
1.14659e-05
4.47884e-06
1.04112e-05
1.47049e-07
-2.94522e-07
4.94823e-07
3.44758e-07
-3.84427e-07
5.60494e-07
5.20552e-07
-3.5542e-07
5.39264e-07
6.21169e-07
-2.69434e-07
5.23748e-07
6.53679e-07
-1.96905e-07
5.17058e-07
6.27816e-07
-1.41794e-07
5.17192e-07
5.5199e-07
-1.01027e-07
5.22971e-07
4.34423e-07
-7.29036e-08
5.30008e-07
2.86294e-07
-6.16212e-08
5.42261e-07
-7.44992e-08
5.4175e-07
1.04628e-07
-5.43232e-07
4.49788e-07
3.12554e-07
-8.00921e-07
5.65395e-07
5.12527e-07
-7.61773e-07
5.37858e-07
6.14962e-07
-5.55795e-07
5.09573e-07
6.42616e-07
-3.94812e-07
5.02966e-07
6.13812e-07
-2.83237e-07
5.06891e-07
5.37865e-07
-2.04623e-07
5.16653e-07
4.25005e-07
-1.52756e-07
5.29048e-07
2.87101e-07
-1.34952e-07
5.51395e-07
-1.59716e-07
5.63501e-07
1.35432e-07
-8.42617e-07
5.74954e-07
4.66168e-07
-1.37828e-06
8.15701e-07
7.38895e-07
-1.31579e-06
7.71835e-07
8.26339e-07
-8.9939e-07
6.58047e-07
8.14691e-07
-6.04211e-07
6.07407e-07
7.59386e-07
-4.36059e-07
6.04234e-07
6.58869e-07
-3.13075e-07
6.16186e-07
5.13182e-07
-2.18641e-07
6.31182e-07
3.3336e-07
-1.64925e-07
6.49251e-07
-1.7731e-07
6.43816e-07
3.26326e-07
-1.30267e-06
7.60153e-07
8.42224e-07
-2.07395e-06
1.15989e-06
1.14585e-06
-1.91515e-06
1.15517e-06
1.19542e-06
-1.27433e-06
9.3783e-07
1.10706e-06
-8.04509e-07
7.95391e-07
9.82624e-07
-5.68466e-07
7.66129e-07
8.21151e-07
-3.97225e-07
7.94953e-07
6.03164e-07
-2.24463e-07
8.28617e-07
3.52286e-07
-8.78439e-08
8.40858e-07
-6.62016e-08
7.86776e-07
6.12599e-07
-1.93216e-06
9.51038e-07
1.2558e-06
-2.76971e-06
1.40252e-06
1.51766e-06
-2.40019e-06
1.48901e-06
1.52081e-06
-1.58887e-06
1.27298e-06
1.39281e-06
-9.89469e-07
1.08309e-06
1.22971e-06
-7.05628e-07
1.05793e-06
1.0175e-06
-4.73579e-07
1.12709e-06
7.06226e-07
-1.20358e-07
1.14605e-06
3.64685e-07
1.66126e-07
1.10593e-06
1.83683e-07
1.02006e-06
8.94234e-07
-2.87669e-06
1.14034e-06
1.58797e-06
-3.56314e-06
1.59438e-06
1.82075e-06
-2.85077e-06
1.80142e-06
1.81623e-06
-1.85975e-06
1.68397e-06
1.66749e-06
-1.13815e-06
1.45285e-06
1.48846e-06
-8.75783e-07
1.37312e-06
1.26581e-06
-6.93186e-07
1.47957e-06
9.26838e-07
-2.26531e-07
1.62788e-06
5.28592e-07
3.10235e-07
1.58471e-06
4.59013e-07
1.40237e-06
1.07823e-06
-4.20597e-06
1.29971e-06
1.69897e-06
-4.5205e-06
1.7881e-06
1.94562e-06
-3.44042e-06
2.04405e-06
2.03505e-06
-2.28367e-06
2.03456e-06
1.95395e-06
-1.38008e-06
1.74569e-06
1.8797e-06
-1.19631e-06
1.47692e-06
1.7973e-06
-1.18266e-06
1.53817e-06
1.45734e-06
-3.22648e-07
1.61779e-06
9.88013e-07
4.64304e-07
1.59805e-06
8.76731e-07
1.31304e-06
8.29922e-07
-5.48363e-06
1.34926e-06
1.40658e-06
-5.73067e-06
2.02053e-06
1.84053e-06
-4.45885e-06
2.18957e-06
2.00897e-06
-2.97085e-06
2.07281e-06
1.79831e-06
-1.50375e-06
1.54545e-06
1.28862e-06
-5.39794e-07
4.45227e-07
4.63974e-07
-1.83237e-07
-3.02604e-07
-2.3111e-07
1.66214e-07
-5.6403e-07
-2.93384e-07
2.60582e-07
-8.64773e-07
5.32366e-07
-1.21302e-06
7.55842e-07
-7.02957e-06
1.98078e-06
1.98023e-06
-7.98181e-06
2.84481e-06
3.43713e-06
-6.96357e-06
2.73809e-06
4.4009e-06
-5.02057e-06
2.30123e-06
4.5214e-06
-2.869e-06
2.06394e-06
3.66085e-06
-4.93507e-07
1.73384e-06
3.04457e-06
1.0894e-06
1.57594e-07
2.21238e-06
1.38757e-06
9.04322e-07
4.58412e-07
9.449e-08
3.5806e-06
-1.05566e-06
3.81581e-06
1.91136e-06
-9.50209e-06
1.77977e-06
4.50245e-06
-1.15885e-05
2.1491e-06
7.14739e-06
-1.02253e-05
-1.69848e-08
9.61159e-06
-8.68586e-06
-2.23686e-06
1.17382e-05
-5.69229e-06
-3.55051e-06
1.20964e-05
-1.36345e-06
-4.62942e-07
1.14449e-05
2.24484e-06
1.23651e-06
1.08757e-05
5.40425e-06
1.26799e-06
7.00045e-06
7.41578e-06
4.66327e-06
8.27226e-06
3.40912e-06
1.88383e-06
-7.04046e-06
-7.76072e-06
2.21399e-06
-8.60375e-06
-9.38967e-06
3.42467e-06
-9.83944e-06
-9.79216e-06
5.21209e-06
-8.50643e-06
-1.06263e-05
6.55838e-06
-4.41326e-06
-9.06066e-06
7.29831e-06
5.23176e-07
-4.46631e-06
8.74202e-06
4.07548e-06
-8.79362e-07
8.79663e-06
8.3697e-06
-2.91645e-07
3.4264e-06
1.19675e-05
8.06834e-07
1.24139e-05
-2.25248e-06
-3.34652e-08
-4.70257e-06
-1.32985e-05
-1.00946e-06
-7.5808e-06
-1.22193e-05
-9.90713e-07
-8.78649e-06
-1.09819e-05
-6.64206e-07
-7.28053e-06
-1.22948e-05
1.19373e-06
-3.31324e-06
-1.14255e-05
3.29583e-06
1.96036e-06
-6.10189e-06
5.29916e-06
6.27004e-06
-1.36383e-06
5.34027e-06
1.16895e-05
-1.61724e-06
2.99635e-07
1.62852e-05
-2.23322e-06
1.43952e-05
-5.23875e-06
-5.09966e-07
-3.00889e-06
-1.23594e-05
-6.85843e-07
-6.17987e-06
-1.14241e-05
-5.51016e-07
-6.64658e-06
-1.00209e-05
-1.49037e-06
-4.4889e-06
-1.19114e-05
-1.39036e-06
-1.91368e-07
-1.22964e-05
1.01754e-06
4.33502e-06
-8.65046e-06
2.9353e-06
8.63208e-06
-1.91183e-06
2.27756e-06
1.5183e-05
-2.8048e-06
-5.10604e-07
1.89548e-05
-3.91993e-06
1.48924e-05
-6.96953e-06
-3.25061e-07
5.12222e-08
-1.01717e-05
-9.38769e-07
-3.42423e-06
-1.00949e-05
-8.26243e-07
-3.91139e-06
-9.48292e-06
-2.34238e-06
-1.24941e-06
-1.11282e-05
-3.35644e-06
3.7017e-06
-1.10716e-05
-9.93744e-07
7.62304e-06
-1.03515e-05
9.30994e-07
1.21803e-05
-5.58055e-06
7.58575e-07
1.87249e-05
-5.66668e-06
1.13552e-06
2.02293e-05
-6.8474e-06
1.53111e-05
-8.61633e-06
6.69824e-07
3.11866e-06
-4.04232e-06
-1.16679e-06
-4.65467e-07
-5.89613e-06
-1.35381e-06
-1.50015e-06
-7.90299e-06
-3.2209e-06
2.30754e-06
-9.85253e-06
-4.69258e-06
7.75825e-06
-9.11993e-06
-3.01992e-06
1.11615e-05
-1.01675e-05
-6.25816e-07
1.55558e-05
-1.01466e-05
1.03429e-06
2.09807e-05
-9.48705e-06
3.47219e-06
2.02673e-05
-9.38023e-06
1.55542e-05
-8.00404e-06
2.65756e-07
3.99148e-06
4.36251e-06
-9.53883e-07
1.5864e-06
-2.02018e-06
-1.65246e-06
7.34876e-07
-5.80273e-06
-3.52031e-06
5.60599e-06
-7.67295e-06
-4.90001e-06
1.14472e-05
-6.63239e-06
-3.93416e-06
1.40125e-05
-7.7416e-06
-1.36549e-06
1.67594e-05
-1.00396e-05
1.81235e-06
2.03911e-05
-9.65844e-06
4.70911e-06
1.87717e-05
-7.5044e-06
1.57168e-05
-3.55181e-06
9.07072e-07
2.34643e-06
8.17842e-06
7.83899e-07
2.39531e-06
9.24578e-07
-9.19985e-07
3.39219e-06
-3.67364e-06
-3.24886e-06
8.75873e-06
-4.45451e-06
-4.36954e-06
1.42598e-05
-3.17345e-06
-3.46048e-06
1.54677e-05
-3.32428e-06
-1.19521e-06
1.6016e-05
-5.05258e-06
1.99096e-06
1.78603e-05
-4.55996e-06
3.89496e-06
1.71047e-05
-1.25076e-06
1.63007e-05
4.18329e-06
1.08642e-06
4.70723e-07
8.9942e-06
5.9606e-07
3.66179e-06
3.56058e-06
-1.76535e-06
6.64347e-06
-7.06164e-07
-3.85813e-06
1.18316e-05
-9.46138e-07
-4.12278e-06
1.57506e-05
8.25446e-07
-2.9485e-06
1.51885e-05
2.22295e-06
-1.29657e-06
1.44583e-05
1.95448e-06
4.16532e-07
1.5424e-05
3.08062e-06
6.33011e-07
1.58163e-05
6.40718e-06
1.62747e-05
9.59183e-06
-1.29603e-06
8.3327e-07
8.9795e-06
-3.04537e-06
6.25671e-06
6.0433e-06
-4.76033e-06
9.4962e-06
3.57101e-06
-5.22128e-06
1.30548e-05
3.94848e-06
-4.37923e-06
1.4928e-05
5.55529e-06
-3.23197e-06
1.33874e-05
7.08211e-06
-2.50394e-06
1.26762e-05
7.34049e-06
-1.99558e-06
1.34864e-05
7.92523e-06
-2.22417e-06
1.4238e-05
9.12998e-06
1.48368e-05
9.84358e-06
-3.63863e-06
7.56172e-06
2.87126e-06
-6.30656e-06
8.39974e-06
8.54417e-06
-7.15606e-06
7.85999e-06
9.99611e-06
-6.34964e-06
8.322e-06
1.12092e-05
-4.82984e-06
8.78821e-06
1.15852e-05
-3.81365e-06
9.12404e-06
1.01491e-05
-3.23447e-06
8.85481e-06
9.90899e-06
-2.57013e-06
8.44302e-06
1.0637e-05
-2.10006e-06
7.79854e-06
1.14205e-05
7.03511e-06
1.22965e-05
1.5187e-07
-2.3264e-07
5.75593e-07
3.41912e-07
-2.92292e-07
6.62744e-07
5.05623e-07
-2.62854e-07
6.38408e-07
6.02785e-07
-1.94405e-07
6.2099e-07
6.37039e-07
-1.34073e-07
6.16878e-07
6.14934e-07
-8.30296e-08
6.22327e-07
5.4308e-07
-4.0988e-08
6.35812e-07
4.30634e-07
-8.61471e-09
6.51069e-07
2.83673e-07
1.03237e-08
6.78897e-07
1.19316e-08
6.85399e-07
1.23167e-07
-4.3908e-07
5.3306e-07
3.11004e-07
-5.78894e-07
6.64159e-07
4.86804e-07
-5.38061e-07
6.37265e-07
5.87448e-07
-3.96304e-07
6.10829e-07
6.20845e-07
-2.69934e-07
6.05429e-07
5.98612e-07
-1.67802e-07
6.13896e-07
5.30703e-07
-8.86872e-08
6.32262e-07
4.29872e-07
-3.42704e-08
6.55535e-07
2.96202e-07
-1.66715e-10
6.95555e-07
1.30573e-08
7.18071e-07
1.29809e-07
-6.65547e-07
6.71612e-07
3.78893e-07
-9.06684e-07
8.94407e-07
6.18609e-07
-8.63159e-07
8.57216e-07
7.3474e-07
-6.28432e-07
7.74044e-07
7.61813e-07
-4.2792e-07
7.3832e-07
7.25776e-07
-2.71701e-07
7.44169e-07
6.30241e-07
-1.43432e-07
7.66466e-07
4.88289e-07
-4.63963e-08
7.85261e-07
3.14944e-07
3.17633e-08
7.90666e-07
8.38728e-08
7.38802e-07
2.16541e-07
-9.82206e-07
8.60271e-07
5.80452e-07
-1.30405e-06
1.19334e-06
8.85916e-07
-1.21871e-06
1.20526e-06
1.00514e-06
-8.66496e-07
1.05667e-06
9.96848e-07
-5.75367e-07
9.51128e-07
9.22092e-07
-3.65981e-07
9.35165e-07
7.67668e-07
-1.70007e-07
9.75952e-07
5.37984e-07
8.52996e-09
1.00337e-06
2.9287e-07
1.56151e-07
9.61584e-07
2.21541e-07
7.88042e-07
4.40977e-07
-1.43329e-06
9.61149e-07
9.26402e-07
-1.74505e-06
1.3581e-06
1.23359e-06
-1.52774e-06
1.49085e-06
1.33947e-06
-1.08278e-06
1.38338e-06
1.32356e-06
-7.4405e-07
1.26768e-06
1.23376e-06
-4.84093e-07
1.26585e-06
9.81928e-07
-9.21986e-08
1.30111e-06
6.27113e-07
2.05968e-07
1.30342e-06
2.83597e-07
3.80962e-07
1.22464e-06
4.1528e-07
9.5691e-07
7.63755e-07
-2.17703e-06
1.12032e-06
1.37195e-06
-2.35575e-06
1.59689e-06
1.63441e-06
-1.80211e-06
1.81332e-06
1.69347e-06
-1.21113e-06
1.75326e-06
1.68239e-06
-8.91302e-07
1.61118e-06
1.65815e-06
-6.59691e-07
1.57296e-06
1.42111e-06
-1.33134e-07
1.75755e-06
8.31636e-07
5.82e-07
1.84133e-06
3.13722e-07
7.92858e-07
1.69072e-06
7.48477e-07
1.22585e-06
9.67198e-07
-3.30009e-06
1.45558e-06
1.61343e-06
-3.25231e-06
2.03843e-06
1.84871e-06
-2.22213e-06
2.2288e-06
1.87277e-06
-1.37424e-06
2.17361e-06
1.89261e-06
-1.14e-06
1.97455e-06
1.97694e-06
-1.00144e-06
1.73434e-06
1.6319e-06
-1.51903e-09
1.75159e-06
1.04437e-06
1.05252e-06
1.7348e-06
5.61703e-07
1.43068e-06
1.44289e-06
1.32323e-06
1.0339e-06
6.53049e-07
-4.45333e-06
1.84946e-06
1.3057e-06
-4.41529e-06
2.53085e-06
1.61573e-06
-2.90657e-06
2.56397e-06
1.51082e-06
-1.59236e-06
2.39585e-06
9.84274e-07
-6.98314e-07
1.63031e-06
-1.35302e-07
1.27406e-07
4.35954e-07
-1.05847e-06
7.50612e-07
-1.31569e-07
-1.3399e-06
9.47408e-07
-1.77478e-07
-1.00291e-06
6.91636e-07
-4.62729e-07
1.8932e-07
-7.74511e-07
8.20368e-07
-6.03443e-06
2.74151e-06
2.11543e-06
-6.37202e-06
3.50648e-06
3.17056e-06
-4.66964e-06
3.44602e-06
4.03717e-06
-3.6244e-06
3.46666e-06
3.89197e-06
-1.79288e-06
3.30371e-06
2.35899e-06
1.64513e-06
1.7491e-06
2.20135e-06
1.02577e-06
4.00783e-08
2.81005e-06
1.66759e-06
-4.24569e-07
6.06679e-07
5.66611e-06
8.095e-07
5.97629e-06
6.35764e-07
2.4688e-06
-7.37546e-06
6.52005e-07
5.21314e-06
-6.67933e-06
-2.87926e-07
8.19232e-06
-6.8911e-06
-7.74711e-07
1.06926e-05
-6.12352e-06
-2.23802e-06
8.82809e-06
-2.9644e-06
-5.14483e-07
6.7759e-06
1.83437e-06
1.4e-06
3.8777e-06
4.37541e-06
7.85082e-07
1.13637e-06
8.66523e-06
-2.98832e-06
-2.04022e-06
1.25836e-05
9.22339e-07
1.2855e-05
9.88893e-07
1.67567e-06
-6.77899e-06
-1.00329e-05
2.35946e-06
-7.28695e-06
-9.46585e-06
3.04909e-06
-8.63746e-06
-8.73541e-06
4.357e-06
-8.35671e-06
-9.70107e-06
4.74915e-06
-3.69371e-06
-8.72351e-06
2.96184e-06
3.79544e-06
-4.64006e-06
9.49642e-07
8.00793e-06
-2.49969e-06
-5.06745e-07
1.38336e-05
-4.00367e-06
-3.44345e-06
1.72474e-05
-9.20211e-07
1.42341e-05
-1.87848e-06
-1.1225e-06
-7.19997e-06
-1.1755e-05
-2.32194e-06
-8.03578e-06
-1.0271e-05
-2.3631e-06
-9.31452e-06
-1.02637e-05
-2.18399e-06
-9.18283e-06
-1.16478e-05
-7.18792e-07
-4.63827e-06
-1.19462e-05
-1.33103e-07
4.68973e-06
-7.58187e-06
-7.61058e-07
1.09461e-05
-3.67409e-06
-1.54284e-06
1.77752e-05
-4.77702e-06
-2.58129e-06
1.91819e-05
-3.12925e-06
1.33716e-05
-5.8632e-06
-1.39566e-06
-6.26044e-06
-1.19032e-05
-1.03281e-06
-7.60867e-06
-1.22141e-05
-9.74004e-07
-8.24553e-06
-1.11487e-05
-2.62179e-06
-7.37349e-06
-1.20729e-05
-3.25926e-06
-3.05793e-06
-1.32393e-05
-2.16208e-06
5.92967e-06
-1.09876e-05
-2.15351e-06
1.4112e-05
-5.08627e-06
-1.67868e-06
2.06557e-05
-6.16013e-06
1.52865e-07
1.95862e-05
-6.15578e-06
1.25288e-05
-8.94135e-06
-1.45296e-06
-4.25266e-06
-1.07266e-05
-7.92704e-07
-6.93469e-06
-1.14292e-05
-6.19007e-07
-6.65394e-06
-1.12482e-05
-2.83549e-06
-4.74775e-06
-1.15374e-05
-4.92478e-06
-3.48811e-08
-1.20054e-05
-4.06144e-06
7.63506e-06
-1.29202e-05
-2.82107e-06
1.66612e-05
-9.37012e-06
-3.86251e-07
2.20437e-05
-9.48948e-06
3.6807e-06
1.8617e-05
-9.94513e-06
1.17594e-05
-9.99949e-06
-8.98986e-07
-1.5757e-06
-5.8203e-06
-8.2511e-07
-5.78917e-06
-7.11552e-06
-1.21035e-06
-4.52879e-06
-9.64289e-06
-3.77999e-06
-1.42699e-06
-1.06037e-05
-6.26724e-06
3.38528e-06
-1.00528e-05
-5.87999e-06
8.92487e-06
-1.18446e-05
-2.83516e-06
1.60519e-05
-1.25821e-05
1.6097e-06
2.0157e-05
-1.20453e-05
5.66877e-06
1.58559e-05
-1.06783e-05
1.05934e-05
-7.61736e-06
1.93063e-07
4.3539e-07
2.15837e-06
-7.33834e-07
-4.37148e-06
-2.51098e-06
-2.04846e-06
-2.21295e-06
-6.80395e-06
-4.28529e-06
1.78919e-06
-8.6523e-06
-6.08663e-06
6.42758e-06
-7.87335e-06
-5.96683e-06
9.85095e-06
-8.78747e-06
-2.77277e-06
1.30084e-05
-1.01902e-05
2.09013e-06
1.51406e-05
-9.50493e-06
5.15652e-06
1.13958e-05
-6.11069e-06
8.91604e-06
-2.02873e-06
9.56828e-07
9.68068e-08
7.56018e-06
5.2823e-07
-2.49562e-06
-5.22681e-07
-1.56755e-06
2.12092e-07
-4.00289e-06
-3.4036e-06
4.49576e-06
-5.32504e-06
-4.63919e-06
8.68874e-06
-4.19902e-06
-4.51138e-06
1.01529e-05
-3.75406e-06
-2.35673e-06
9.41613e-06
-3.61501e-06
1.2582e-06
9.29331e-06
-2.32757e-06
3.1066e-06
7.6323e-06
6.64363e-07
8.86717e-06
4.41232e-06
1.90061e-06
-1.21638e-06
8.40677e-06
2.30434e-06
-7.10943e-07
1.37218e-06
5.33047e-08
2.87155e-06
-1.1146e-06
-2.63117e-06
7.0409e-06
-8.0681e-07
-3.91152e-06
1.02795e-05
5.15052e-07
-3.388e-06
9.86813e-06
1.98421e-06
-2.26525e-06
7.2786e-06
2.96928e-06
-7.79028e-07
6.53846e-06
4.34925e-06
-2.06677e-07
6.98073e-06
6.4864e-06
9.93942e-06
8.9439e-06
5.33037e-07
-1.02958e-06
8.25967e-06
-8.4666e-08
2.22077e-06
3.72929e-06
-2.27171e-06
5.98847e-06
2.64114e-06
-4.32715e-06
9.29293e-06
3.75189e-06
-4.68744e-06
1.07091e-05
5.48593e-06
-3.77196e-06
8.90115e-06
7.13361e-06
-3.42409e-06
6.46288e-06
7.80834e-06
-3.27979e-06
6.08065e-06
8.23873e-06
-3.08728e-06
7.20301e-06
8.71518e-06
1.0119e-05
9.39995e-06
-1.87747e-06
7.16419e-06
1.24542e-06
-4.15677e-06
6.97778e-06
5.92202e-06
-6.01286e-06
7.43059e-06
8.27396e-06
-6.57588e-06
8.66317e-06
9.51478e-06
-5.84252e-06
9.47144e-06
9.29254e-06
-4.69371e-06
9.68978e-06
7.18661e-06
-4.01419e-06
9.12437e-06
5.5138e-06
-3.31774e-06
8.49651e-06
5.3307e-06
-2.48284e-06
7.85983e-06
6.30683e-06
7.42363e-06
8.7232e-06
1.53711e-07
-1.70212e-07
5.92094e-07
3.40768e-07
-2.14119e-07
6.89805e-07
5.00761e-07
-1.86689e-07
6.65104e-07
5.9902e-07
-1.28293e-07
6.51024e-07
6.37738e-07
-7.42458e-08
6.52405e-07
6.20327e-07
-2.2334e-08
6.62073e-07
5.51995e-07
2.65674e-08
6.77576e-07
4.41388e-07
6.93616e-08
6.92315e-07
2.85525e-07
1.08722e-07
7.26037e-07
1.46252e-07
7.12091e-07
1.37198e-07
-3.32805e-07
5.58455e-07
3.21089e-07
-4.19595e-07
6.85743e-07
4.83825e-07
-3.72045e-07
6.59886e-07
5.83524e-07
-2.58168e-07
6.41005e-07
6.22884e-07
-1.50124e-07