/*--------------------------------*- C++ -*----------------------------------*\
| =========                 |                                                 |
| \\      /  F ield         | OpenFOAM: The Open Source CFD Toolbox           |
|  \\    /   O peration     | Version:  2312                                  |
|   \\  /    A nd           | Website:  www.openfoam.com                      |
|    \\/     M anipulation  |                                                 |
\*---------------------------------------------------------------------------*/
FoamFile
{
    version     2.0;
    format      ascii;
    arch        "LSB;label=32;scalar=64";
    class       surfaceScalarField;
    location    "0.665";
    object      phi;
}
// * * * * * * * * * * * * * * * * * * * * * * * * * * * * * * * * * * * * * //

dimensions      [0 3 -1 0 0 0 0];

oriented        oriented;

internalField   nonuniform List<scalar> 
22600
(
-2.14097e-07
4.23026e-07
-2.08929e-07
-3.42464e-07
3.31178e-07
-2.0281e-07
-4.42037e-07
2.93153e-07
-1.93581e-07
-5.11277e-07
2.4254e-07
-1.73299e-07
-5.38114e-07
1.76511e-07
-1.49675e-07
-5.17117e-07
1.09464e-07
-1.3046e-07
-4.53347e-07
5.09175e-08
-1.14688e-07
-3.45851e-07
-1.23274e-09
-1.06263e-07
-2.04791e-07
-3.7538e-08
-1.03522e-07
-5.84703e-08
-1.07978e-07
-2.79754e-07
9.76192e-07
-2.73412e-07
-4.50738e-07
7.78624e-07
-2.76463e-07
-5.73844e-07
6.81742e-07
-2.65483e-07
-6.59614e-07
5.59688e-07
-2.31377e-07
-6.87528e-07
4.01012e-07
-1.96586e-07
-6.51639e-07
2.43474e-07
-1.69899e-07
-5.56394e-07
1.0659e-07
-1.50917e-07
-4.1286e-07
-7.00923e-09
-1.37758e-07
-2.36202e-07
-8.74077e-08
-1.26788e-07
-1.3361e-07
-1.24321e-07
-3.07417e-07
1.58649e-06
-3.02876e-07
-5.24407e-07
1.29378e-06
-2.98167e-07
-6.75538e-07
1.17199e-06
-3.39115e-07
-7.78916e-07
9.67368e-07
-3.04302e-07
-8.13545e-07
6.81115e-07
-2.45475e-07
-7.72732e-07
4.02423e-07
-1.99762e-07
-6.64557e-07
1.63887e-07
-1.65471e-07
-4.95484e-07
-3.5933e-08
-1.40149e-07
-2.83595e-07
-1.76922e-07
-1.22375e-07
-2.63194e-07
-1.13178e-07
-2.71492e-07
2.13664e-06
-2.78663e-07
-6.03007e-07
1.75155e-06
-1.26259e-07
-8.67714e-07
1.7084e-06
-2.71705e-07
-1.02428e-06
1.4582e-06
-3.3426e-07
-1.05966e-06
1.01643e-06
-2.99943e-07
-9.95052e-07
5.70051e-07
-2.32238e-07
-8.51284e-07
1.94226e-07
-1.74107e-07
-6.38706e-07
-1.21474e-07
-1.27037e-07
-3.65377e-07
-3.69848e-07
-8.04031e-08
-5.32629e-07
-4.97903e-08
-1.65081e-07
2.46168e-06
-1.59962e-07
-7.27714e-07
2.20562e-06
1.08569e-07
-1.30808e-06
2.34802e-06
-5.92541e-08
-1.5972e-06
1.94991e-06
-2.02594e-07
-1.63325e-06
1.28413e-06
-2.31647e-07
-1.50474e-06
6.17793e-07
-1.76253e-07
-1.27337e-06
5.68155e-08
-9.39567e-08
-9.55727e-07
-4.25112e-07
-1.40064e-08
-5.62729e-07
-8.34346e-07
7.15009e-08
-1.15605e-06
1.27361e-07
-7.52004e-07
3.92168e-06
-7.07992e-07
-1.8057e-06
3.6193e-06
-3.5999e-07
-2.42819e-06
2.9945e-06
-2.39863e-08
-2.57277e-06
2.17181e-06
-7.73129e-08
-2.57672e-06
1.43351e-06
-1.45425e-07
-2.44174e-06
6.06164e-07
-1.23352e-07
-2.11533e-06
-1.8658e-07
-8.30149e-08
-1.59465e-06
-9.14151e-07
-3.16391e-08
-9.72816e-07
-1.48004e-06
2.3858e-08
-2.14416e-06
6.91796e-08
-2.09303e-06
7.98886e-06
-1.97415e-06
-3.19325e-06
6.39405e-06
-1.67453e-06
-3.58467e-06
4.17178e-06
-7.85864e-07
-3.36609e-06
2.26982e-06
-3.16589e-07
-3.07448e-06
1.32964e-06
-1.87739e-07
-2.83222e-06
5.9893e-07
-2.35023e-07
-2.47772e-06
-1.91066e-07
-3.50012e-07
-1.88896e-06
-1.0889e-06
-4.14015e-07
-1.13671e-06
-1.80521e-06
-4.27084e-07
-2.98433e-06
-2.89614e-07
-3.51379e-06
1.43578e-05
-2.85511e-06
-5.02826e-06
1.12952e-05
-3.38668e-06
-6.37321e-06
8.44681e-06
-2.93007e-06
-7.3797e-06
5.44434e-06
-2.16804e-06
-6.10764e-06
1.49776e-06
-1.44018e-06
-4.26504e-06
-3.31842e-07
-9.11823e-07
-2.67718e-06
-1.12999e-06
-6.48939e-07
-1.64554e-06
-1.64928e-06
-4.71251e-07
-8.14971e-07
-2.26163e-06
-3.74159e-07
-3.55251e-06
-2.45179e-08
-6.39877e-06
2.28924e-05
-2.13586e-06
-9.20908e-06
1.86195e-05
-4.51399e-06
-1.15931e-05
1.51734e-05
-4.34256e-06
-1.24378e-05
1.06152e-05
-4.32621e-06
-1.30224e-05
6.33413e-06
-4.25174e-06
-1.23666e-05
2.74942e-06
-3.73704e-06
-7.48107e-06
-3.46936e-06
-2.54618e-06
-3.83802e-06
-3.89964e-06
-1.39268e-06
-1.56602e-06
-3.75194e-06
-7.8169e-07
-3.75591e-06
-4.94641e-07
-3.52538e-06
2.56108e-05
8.07e-07
-6.77291e-06
2.32715e-05
-1.40442e-06
-8.36921e-06
1.79001e-05
-1.13038e-06
-9.25172e-06
1.30778e-05
-1.58006e-06
-9.83977e-06
8.64531e-06
-1.72313e-06
-8.81437e-06
4.81646e-06
-3.09244e-06
-8.30174e-06
1.93184e-06
-5.91384e-06
-6.58615e-06
1.82548e-06
-7.44071e-06
-3.50194e-06
5.67203e-07
-7.40335e-06
5.54224e-07
-7.36121e-06
-5.47995e-08
2.28226e-05
2.84293e-06
-1.29916e-06
2.29497e-05
1.56615e-06
-2.51023e-06
1.66733e-05
2.43784e-06
-3.90395e-06
1.24683e-05
2.00317e-06
-5.15238e-06
9.24395e-06
6.49797e-07
-5.95795e-06
6.74932e-06
-1.12728e-06
-7.02997e-06
5.97139e-06
-2.96753e-06
-5.10163e-06
5.9395e-06
-6.04237e-06
-1.17886e-06
5.94145e-06
-9.29701e-06
7.39533e-06
-1.08214e-05
2.41692e-06
1.75443e-05
2.8614e-06
3.10985e-06
1.92468e-05
3.00999e-06
2.84475e-06
1.37197e-05
3.21872e-06
1.4224e-06
1.05523e-05
3.33837e-06
-9.47649e-07
9.08471e-06
2.52929e-06
-2.41277e-06
8.00946e-06
2.04978e-07
-3.00967e-06
8.06538e-06
-1.49709e-06
-2.01979e-06
8.05217e-06
-3.10255e-06
-3.26313e-07
7.85744e-06
-3.60947e-06
8.81537e-06
-4.21511e-06
2.5954e-06
1.30702e-05
1.87877e-06
4.43279e-06
1.49769e-05
2.43244e-06
4.85993e-06
1.11646e-05
2.12791e-06
4.11684e-06
8.98791e-06
2.30746e-06
2.21671e-06
8.46953e-06
2.51531e-06
4.68606e-07
8.4198e-06
1.33777e-06
-2.55702e-08
8.93843e-06
-3.78871e-07
1.41496e-07
9.22743e-06
-1.34232e-06
8.64049e-07
8.74978e-06
-1.6149e-06
8.61624e-06
-1.50454e-06
1.98621e-06
1.02918e-05
7.92178e-07
3.59173e-06
1.2256e-05
1.11536e-06
4.14485e-06
9.8744e-06
7.37123e-07
4.14977e-06
8.187e-06
7.95993e-07
3.31053e-06
7.81367e-06
1.49512e-06
1.94796e-06
8.30922e-06
1.47315e-06
1.16072e-06
9.47787e-06
2.4781e-07
1.02793e-06
9.96245e-06
-6.02227e-07
1.58493e-06
9.33014e-06
-1.13736e-06
8.56231e-06
-1.35136e-06
1.48099e-06
8.66594e-06
1.44836e-07
2.51731e-06
1.0945e-05
2.74697e-07
2.87878e-06
9.47925e-06
3.36827e-08
3.13779e-06
7.9944e-06
-6.63981e-08
2.92067e-06
7.48306e-06
5.47743e-07
2.06081e-06
8.0547e-06
1.11438e-06
1.44737e-06
9.67769e-06
4.13613e-07
1.3824e-06
1.04429e-05
-4.15466e-07
1.97045e-06
9.68886e-06
-9.4678e-07
8.5583e-06
-1.20215e-06
9.75491e-07
7.78136e-06
-9.09083e-08
1.72841e-06
1.01687e-05
2.34118e-08
1.89751e-06
9.36183e-06
-5.16817e-08
2.00104e-06
8.07002e-06
-1.7915e-07
1.90285e-06
7.33992e-06
2.41323e-07
1.40122e-06
7.70181e-06
8.54522e-07
1.16187e-06
9.31456e-06
6.02482e-07
1.40287e-06
1.03946e-05
-1.9267e-07
1.98204e-06
9.7365e-06
-6.26815e-07
8.48835e-06
-6.88204e-07
3.81064e-07
7.35357e-06
4.67275e-08
1.01766e-06
9.46291e-06
6.91864e-08
1.05968e-06
9.17702e-06
1.42795e-07
9.50092e-07
8.10412e-06
7.54875e-08
7.78601e-07
7.10279e-06
4.08614e-07
4.63494e-07
7.11036e-06
9.06561e-07
4.19919e-07
8.30042e-06
1.05772e-06
8.23185e-07
9.42635e-06
5.64951e-07
1.33898e-06
9.14438e-06
7.63202e-08
7.99875e-06
2.09973e-07
-1.50604e-07
7.12107e-06
3.831e-07
2.88572e-07
8.7987e-06
2.25035e-07
3.22622e-07
8.84715e-06
2.95822e-07
2.20757e-07
7.8405e-06
3.65486e-07
7.98888e-08
6.55651e-06
6.87146e-07
-2.45927e-07
6.39272e-06
1.04346e-06
-3.50721e-07
7.02783e-06
1.37738e-06
-4.8023e-08
7.72267e-06
1.40099e-06
2.39347e-07
7.54366e-06
1.31335e-06
6.57823e-06
1.46668e-06
-5.09627e-07
6.95531e-06
6.75385e-07
-3.50551e-07
8.33453e-06
3.05084e-07
-1.80528e-07
8.34712e-06
3.30011e-07
-4.5941e-08
7.21079e-06
4.9513e-07
2.20996e-08
5.59e-06
8.98469e-07
-2.9003e-07
5.56809e-06
1.13675e-06
-5.65388e-07
5.93048e-06
1.37271e-06
-5.92768e-07
6.08029e-06
1.66975e-06
-6.17468e-07
5.69331e-06
1.87505e-06
4.9075e-06
2.00843e-06
-7.72861e-07
8.91089e-07
6.83708e-06
-7.566e-07
2.03786e-07
8.11449e-06
-3.58294e-07
1.79648e-07
7.76917e-06
3.49394e-08
3.68655e-07
6.4489e-06
2.49433e-07
8.99502e-07
4.476e-06
5.81143e-08
1.17838e-06
4.58104e-06
-2.38602e-07
1.23116e-06
4.99604e-06
-4.91977e-07
1.47586e-06
4.85781e-06
-8.8091e-07
1.69956e-06
4.38268e-06
1.76852e-06
3.83544e-06
-2.08067e-07
3.29972e-07
-3.30834e-07
-2.89174e-07
1.54954e-07
-2.76657e-07
-3.39567e-07
1.26516e-07
-2.69704e-07
-3.85356e-07
1.17458e-07
-2.44968e-07
-4.01893e-07
7.71515e-08
-2.1029e-07
-3.79647e-07
2.12053e-08
-1.73912e-07
-3.22211e-07
-3.40971e-08
-1.38027e-07
-2.39111e-07
-8.02207e-08
-1.09144e-07
-1.42334e-07
-1.15087e-07
-8.52119e-08
-1.41066e-07
-7.74766e-08
-2.82859e-07
7.75528e-07
-4.3611e-07
-3.77969e-07
3.3572e-07
-3.62119e-07
-4.33003e-07
2.7936e-07
-3.63292e-07
-4.96967e-07
2.83831e-07
-3.33786e-07
-5.23966e-07
1.94989e-07
-2.87425e-07
-4.98496e-07
6.66465e-08
-2.4081e-07
-4.25086e-07
-6.07917e-08
-1.97632e-07
-3.16897e-07
-1.66169e-07
-1.59999e-07
-1.84589e-07
-2.49599e-07
-1.24583e-07
-3.16251e-07
-1.03676e-07
-2.95769e-07
1.27736e-06
-5.08942e-07
-3.29394e-07
3.97728e-07
-3.2655e-07
-3.81106e-07
3.73957e-07
-3.82e-07
-5.06188e-07
5.11121e-07
-4.0651e-07
-5.75511e-07
3.75975e-07
-3.57137e-07
-5.6012e-07
1.42666e-07
-2.91173e-07
-4.78633e-07
-7.51623e-08
-2.32587e-07
-3.55613e-07
-2.48823e-07
-1.80515e-07
-2.0496e-07
-3.89782e-07
-1.32846e-07
-5.04303e-07
-9.99813e-08
-1.0472e-07
1.69732e-06
-5.939e-07
-1.36267e-07
4.73673e-07
-1.70656e-07
-3.06054e-07
5.38986e-07
-2.66947e-07
-5.36288e-07
8.43425e-07
-4.36329e-07
-6.81328e-07
6.62241e-07
-4.41168e-07
-6.87343e-07
2.76132e-07
-3.59689e-07
-5.92254e-07
-7.53856e-08
-2.68973e-07
-4.36429e-07
-3.46827e-07
-1.84858e-07
-2.49176e-07
-5.51414e-07
-1.06025e-07
-7.15809e-07
-5.33402e-08
1.21838e-07
2.10588e-06
-6.90357e-07
-1.99983e-07
1.11263e-06
-2.08564e-07
-6.90573e-07
1.14826e-06
-1.77942e-07
-9.69992e-07
1.29489e-06
-3.74644e-07
-1.10795e-06
1.01574e-06
-4.47187e-07
-1.07023e-06
4.35421e-07
-3.73264e-07
-9.12345e-07
-8.18774e-08
-2.45348e-07
-6.77012e-07
-4.82621e-07
-1.13545e-07
-4.02995e-07
-7.6469e-07
1.07602e-08
-1.01131e-06
8.22668e-08
-4.44462e-07
3.58075e-06
-1.7384e-06
-1.48329e-06
3.17593e-06
-1.38447e-06
-1.98262e-06
2.26155e-06
-6.37952e-07
-1.94969e-06
1.64847e-06
-4.63817e-07
-1.94492e-06
1.31225e-06
-4.46713e-07
-1.8771e-06
6.08446e-07
-3.64196e-07
-1.62101e-06
-1.68967e-07
-2.52019e-07
-1.19336e-06
-8.08828e-07
-1.3308e-07
-7.24419e-07
-1.17428e-06
-3.5489e-08
-1.64254e-06
3.88343e-08
-1.82222e-06
6.41244e-06
-2.98362e-06
-2.98971e-06
5.50519e-06
-2.83629e-06
-3.31943e-06
3.66525e-06
-1.85984e-06
-3.07635e-06
2.24784e-06
-1.15904e-06
-2.68602e-06
1.47267e-06
-7.3849e-07
-2.40892e-06
7.06295e-07
-6.09977e-07
-2.09286e-06
-2.53328e-07
-5.81703e-07
-1.61387e-06
-1.14318e-06
-5.58652e-07
-1.00724e-06
-1.67835e-06
-5.29643e-07
-2.58178e-06
-3.31997e-07
-3.49233e-06
1.14225e-05
-4.37288e-06
-4.56083e-06
7.78348e-06
-4.59648e-06
-5.45785e-06
5.87226e-06
-4.24006e-06
-6.0489e-06
4.25179e-06
-3.58094e-06
-5.28743e-06
1.84308e-06
-2.57206e-06
-3.89075e-06
1.55337e-07
-1.75755e-06
-2.53643e-06
-1.10014e-06
-1.15645e-06
-1.69715e-06
-1.74398e-06
-7.09727e-07
-9.37221e-07
-2.31949e-06
-4.92952e-07
-3.45822e-06
1.2931e-08
-5.84888e-06
2.00412e-05
-4.90566e-06
-8.94556e-06
1.41384e-05
-7.77226e-06
-1.19021e-05
1.23731e-05
-7.88684e-06
-1.27916e-05
8.6635e-06
-7.84841e-06
-1.25606e-05
4.88769e-06
-7.52739e-06
-1.1431e-05
1.53954e-06
-6.25084e-06
-6.97735e-06
-3.54626e-06
-4.55369e-06
-3.51267e-06
-3.75781e-06
-2.84354e-06
-1.0906e-06
-3.63452e-06
-1.88874e-06
-3.36095e-06
-1.57126e-06
-4.00307e-06
2.52194e-05
-3.68134e-07
-5.96071e-06
1.87096e-05
-4.01791e-06
-7.0525e-06
1.61789e-05
-3.84443e-06
-7.87481e-06
1.26378e-05
-4.73205e-06
-8.58306e-06
8.6257e-06
-4.75289e-06
-7.86526e-06
4.8046e-06
-7.0753e-06
-6.89884e-06
1.1855e-06
-1.1612e-05
-4.76261e-06
1.88175e-06
-1.52165e-05
-1.53139e-06
2.52234e-06
-1.67914e-05
1.94095e-06
-1.66707e-05
-9.48123e-07
2.54794e-05
3.53109e-06
-2.05393e-06
2.08949e-05
4.8663e-07
-2.05326e-06
1.72628e-05
1.35327e-06
-1.67099e-06
1.43455e-05
-8.68073e-08
-1.53015e-06
1.07354e-05
-1.60078e-06
-2.11812e-06
7.84865e-06
-3.58335e-06
-3.33892e-06
5.52799e-06
-6.08921e-06
-1.55007e-06
5.04196e-06
-1.09914e-05
2.2948e-06
4.34151e-06
-1.49611e-05
3.92633e-06
-1.52254e-05
2.12792e-06
2.10487e-05
5.16417e-06
2.15137e-06
2.0088e-05
3.79345e-06
2.8697e-06
1.55223e-05
4.24091e-06
3.55654e-06
1.3426e-05
3.57108e-06
3.81496e-06
1.15684e-05
1.43793e-06
3.25246e-06
9.88921e-06
-1.27307e-06
2.42222e-06
8.43367e-06
-3.57253e-06
2.89512e-06
6.46941e-06
-5.0029e-06
4.81558e-06
3.60199e-06
-4.79042e-06
1.84093e-06
-3.84869e-06
2.81909e-06
1.56146e-05
4.49372e-06
4.27836e-06
1.66231e-05
4.43802e-06
5.15542e-06
1.26207e-05
4.15243e-06
5.85435e-06
1.09755e-05
4.05908e-06
6.53527e-06
1.05941e-05
2.80865e-06
6.8463e-06
1.0396e-05
5.19914e-07
6.58183e-06
9.77878e-06
-1.45951e-06
6.13409e-06
7.7974e-06
-2.22256e-06
5.90369e-06
4.04605e-06
-1.82856e-06
1.03048e-06
-9.417e-07
2.07312e-06
1.13812e-05
2.95247e-06
3.69374e-06
1.30712e-05
3.04669e-06
4.4431e-06
1.0187e-05
2.42147e-06
5.15642e-06
8.60666e-06
2.45146e-06
6.3996e-06
8.56412e-06
2.28196e-06
7.71003e-06
9.27891e-06
1.27985e-06
8.06349e-06
9.41708e-06
2.56045e-07
7.54164e-06
8.20805e-06
-4.9102e-07
6.67909e-06
4.86981e-06
-1.09857e-06
1.5184e-06
-1.48533e-06
1.51994e-06
8.5816e-06
1.42453e-06
2.52079e-06
1.09197e-05
1.42533e-06
3.14336e-06
8.88789e-06
7.10253e-07
3.7356e-06
7.26118e-06
6.86839e-07
4.87434e-06
6.88652e-06
1.0866e-06
6.45886e-06
7.55492e-06
1.25386e-06
7.36042e-06
7.94769e-06
9.81444e-07
7.32917e-06
7.29004e-06
5.33781e-07
6.5638e-06
4.9344e-06
-2.46019e-07
1.90946e-06
-9.34709e-07
1.22497e-06
6.92849e-06
3.37237e-07
1.90594e-06
9.88689e-06
3.75259e-07
2.54389e-06
8.34112e-06
-1.42856e-07
2.94953e-06
6.84638e-06
-1.69991e-07
3.4255e-06
6.18945e-06
4.62424e-07
4.52578e-06
6.30214e-06
1.00704e-06
5.56048e-06
6.45797e-06
1.0575e-06
5.88528e-06
5.972e-06
8.00578e-07
5.27298e-06
4.51443e-06
4.05466e-07
2.14403e-06
1.91274e-07
6.91474e-07
6.23851e-06
4.5231e-08
1.45283e-06
9.2964e-06
-1.01676e-07
2.1747e-06
8.05327e-06
-2.91219e-07
2.40961e-06
6.82171e-06
-1.34754e-07
2.35199e-06
6.05367e-06
6.02016e-07
2.70934e-06
5.82625e-06
1.0251e-06
3.41877e-06
5.72963e-06
1.07664e-06
3.63043e-06
5.3372e-06
9.881e-07
2.81421e-06
4.37671e-06
1.03025e-06
2.71762e-06
1.13343e-06
9.24525e-09
6.22734e-06
3.85018e-07
8.09356e-07
8.82716e-06
-1.05841e-07
1.4659e-06
7.80815e-06
-1.15603e-07
1.71475e-06
6.73172e-06
2.06623e-07
1.55453e-06
5.90158e-06
9.99456e-07
1.32708e-06
5.82911e-06
1.26806e-06
1.38845e-06
5.72697e-06
1.31867e-06
1.19815e-06
5.47905e-06
1.44942e-06
2.49319e-07
4.85016e-06
1.78873e-06
3.67166e-06
1.99156e-06
-5.65302e-07
6.66817e-06
7.99849e-07
1.83728e-07
8.40236e-06
-1.91396e-08
6.80131e-07
7.63585e-06
5.91678e-09
9.65725e-07
6.54547e-06
3.95789e-07
9.68557e-07
5.53098e-06
1.26622e-06
5.61625e-07
5.80088e-06
1.57191e-06
1.29622e-07
5.86469e-06
1.667e-06
-4.25149e-07
5.74668e-06
1.95689e-06
-1.36891e-06
5.23586e-06
2.43311e-06
4.44644e-06
2.63531e-06
-8.12589e-07
9.33797e-07
7.43805e-06
-2.56541e-08
-2.14289e-07
8.0335e-06
4.7643e-07
-2.09259e-07
7.52267e-06
5.98213e-07
2.21075e-07
6.57127e-06
5.40028e-07
1.24965e-06
5.23901e-06
2.68167e-07
1.77299e-06
5.47813e-06
-2.43386e-07
1.9328e-06
5.67459e-06
-9.73573e-07
2.24382e-06
5.7089e-06
-1.97719e-06
2.61042e-06
5.32862e-06
2.7351e-06
4.87363e-06
-1.99147e-07
2.9304e-07
-4.24728e-07
-2.81466e-07
1.28387e-07
-3.22725e-07
-3.34057e-07
9.92126e-08
-3.16326e-07
-3.75897e-07
8.74312e-08
-2.90559e-07
-3.88896e-07
4.87552e-08
-2.46046e-07
-3.64005e-07
-7.66231e-09
-1.9114e-07
-3.06225e-07
-6.44539e-08
-1.31353e-07
-2.26154e-07
-1.13844e-07
-7.53703e-08
-1.35831e-07
-1.55243e-07
-2.02918e-08
-1.89623e-07
5.83369e-09
-2.71906e-07
6.82713e-07
-5.53876e-07
-3.78414e-07
2.83574e-07
-4.10798e-07
-4.34133e-07
2.04216e-07
-4.12577e-07
-4.89132e-07
1.99654e-07
-3.91011e-07
-5.10087e-07
1.21918e-07
-3.39632e-07
-4.83402e-07
1.52219e-09
-2.76679e-07
-4.10937e-07
-1.26173e-07
-2.08378e-07
-3.02705e-07
-2.39739e-07
-1.42336e-07
-1.7148e-07
-3.40233e-07
-7.08184e-08
-4.17805e-07
-2.28512e-08
-3.42158e-07
1.16835e-06
-6.5242e-07
-3.94562e-07
3.75684e-07
-3.66256e-07
-4.16674e-07
2.39259e-07
-3.9493e-07
-5.15095e-07
3.29239e-07
-4.37674e-07
-5.69892e-07
2.20755e-07
-4.01177e-07
-5.48176e-07
1.40257e-08
-3.25393e-07
-4.64384e-07
-1.99867e-07
-2.42685e-07
-3.38022e-07
-3.84508e-07
-1.62109e-07
-1.84909e-07
-5.42272e-07
-8.39193e-08
-6.45218e-07
-3.67038e-08
-2.65617e-07
1.68746e-06
-8.47392e-07
-2.55866e-07
5.22732e-07
-3.27455e-07
-2.91756e-07
3.09989e-07
-3.01787e-07
-4.84853e-07
5.36647e-07
-4.5064e-07
-6.39811e-07
4.1124e-07
-4.76696e-07
-6.65719e-07
8.00228e-08
-3.99778e-07
-5.74595e-07
-2.69461e-07
-2.90502e-07
-4.25475e-07
-5.41241e-07
-1.77245e-07
-2.40003e-07
-7.47873e-07
-8.58964e-08
-8.62493e-07
-5.6624e-08
-6.28756e-08
2.32715e-06
-1.26718e-06
-1.56872e-07
1.12221e-06
-7.14046e-07
-4.09936e-07
8.44103e-07
-4.58993e-07
-6.75563e-07
9.60297e-07
-5.32667e-07
-8.66488e-07
7.20819e-07
-5.6584e-07
-8.85095e-07
2.00582e-07
-4.75216e-07
-7.73667e-07
-2.98998e-07
-3.27239e-07
-5.81418e-07
-6.78325e-07
-1.68709e-07
-3.46779e-07
-9.27518e-07
-4.42337e-08
-1.06925e-06
-2.56677e-08
-5.53157e-08
3.03205e-06
-2.38799e-06
-6.40745e-07
2.27492e-06
-1.95175e-06
-1.19415e-06
1.97143e-06
-1.21187e-06
-1.36143e-06
1.52023e-06
-8.56475e-07
-1.42933e-06
1.03825e-06
-6.96248e-07
-1.40764e-06
3.66235e-07
-5.5154e-07
-1.20858e-06
-3.71972e-07
-3.78102e-07
-9.01517e-07
-9.0926e-07
-2.09207e-07
-5.46044e-07
-1.21073e-06
-1.07753e-07
-1.47902e-06
-6.95961e-08
-7.52092e-07
4.26854e-06
-3.46803e-06
-1.80826e-06
3.6824e-06
-3.1876e-06
-2.42958e-06
3.10112e-06
-2.36821e-06
-2.49438e-06
2.13448e-06
-1.70848e-06
-2.28278e-06
1.30357e-06
-1.21541e-06
-1.99647e-06
4.39763e-07
-9.69819e-07
-1.67857e-06
-5.02458e-07
-7.69112e-07
-1.31654e-06
-1.22544e-06
-6.04504e-07
-8.10209e-07
-1.74786e-06
-4.98836e-07
-2.2636e-06
-3.57696e-07
-2.72999e-06
8.27112e-06
-5.64546e-06
-3.83701e-06
5.57067e-06
-5.37773e-06
-4.45481e-06
4.10723e-06
-4.62837e-06
-4.96085e-06
3.06913e-06
-4.00955e-06
-4.58761e-06
1.4885e-06
-3.13023e-06
-3.49261e-06
-2.13229e-07
-2.19955e-06
-2.34525e-06
-1.37822e-06
-1.42804e-06
-1.61512e-06
-1.76585e-06
-8.99449e-07
-9.18706e-07
-2.40174e-06
-5.35481e-07
-2.99106e-06
-1.7639e-07
-3.9806e-06
1.61057e-05
-8.75963e-06
-7.96594e-06
1.21407e-05
-1.0357e-05
-1.08049e-05
9.18156e-06
-1.01222e-05
-1.18362e-05
5.57611e-06
-9.32412e-06
-1.15068e-05
2.40381e-06
-8.77206e-06
-9.7547e-06
-1.05753e-06
-7.15866e-06
-6.12983e-06
-4.40083e-06
-5.15595e-06
-3.40589e-06
-3.56219e-06
-3.77114e-06
-1.49379e-06
-2.95808e-06
-3.2445e-06
-2.80487e-06
-3.38014e-06
-1.29354e-06
1.92731e-05
-2.24198e-06
-2.85919e-06
1.50129e-05
-5.32438e-06
-4.1437e-06
1.19722e-05
-5.35058e-06
-6.05919e-06
8.87661e-06
-6.11705e-06
-7.36857e-06
5.13136e-06
-6.17105e-06
-8.07734e-06
1.66822e-06
-9.09229e-06
-9.55738e-06
-7.29521e-07
-1.38033e-05
-9.47614e-06
2.42068e-07
-1.9102e-05
-6.71682e-06
4.80109e-07
-2.29889e-05
-1.48904e-06
-2.50945e-05
1.21078e-06
1.8207e-05
3.38635e-06
9.81817e-07
1.55197e-05
2.08732e-07
1.1985e-06
1.27157e-05
3.93086e-07
8.61111e-07
1.07021e-05
-1.57488e-06
1.70129e-07
7.59666e-06
-3.37509e-06
-1.0233e-06
4.96789e-06
-5.68958e-06
-2.3868e-06
2.63407e-06
-8.0893e-06
-1.64894e-06
1.93104e-06
-1.34182e-05
1.62219e-06
-2.08002e-07
-1.75441e-05
-4.37246e-06
-1.54643e-05
2.88762e-06
1.48274e-05
5.65621e-06
3.52728e-06
1.4508e-05
4.16554e-06
4.33541e-06
1.20176e-05
4.13087e-06
4.80975e-06
1.10946e-05
2.7042e-06
4.68176e-06
9.36734e-06
-2.04762e-07
4.39496e-06
7.36519e-06
-3.38358e-06
4.05581e-06
4.85883e-06
-5.45814e-06
4.82934e-06
2.40278e-06
-6.24818e-06
7.25662e-06
-1.01828e-06
-6.40742e-06
-4.97652e-06
-3.95998e-06
2.60399e-06
1.1654e-05
5.06313e-06
4.21563e-06
1.22712e-05
5.06314e-06
5.08259e-06
1.05031e-05
4.79999e-06
5.79967e-06
1.01381e-05
4.29855e-06
6.35685e-06
9.43201e-06
2.18681e-06
7.02474e-06
8.20801e-06
-9.90788e-07
7.36272e-06
5.76037e-06
-2.69904e-06
7.43657e-06
2.55293e-06
-2.44657e-06
7.44002e-06
-7.07023e-07
-2.14326e-06
-3.72849e-06
-1.44673e-06
1.37981e-06
9.72611e-06
3.50055e-06
2.94239e-06
1.01358e-05
3.61951e-06
3.85357e-06
8.77956e-06
3.23386e-06
4.64265e-06
8.30916e-06
3.4913e-06
5.78046e-06
7.72488e-06
2.85128e-06
7.03182e-06
7.06035e-06
1.17615e-06
7.53498e-06
5.45028e-06
6.29652e-08
7.10216e-06
2.67077e-06
-1.76036e-07
6.32e-06
-3.1472e-07
-7.08713e-07
-3.19889e-06
-1.00615e-06
1.0175e-06
8.1042e-06
2.02894e-06
1.82169e-06
9.07162e-06
1.68536e-06
2.64242e-06
7.64068e-06
1.0284e-06
3.46827e-06
6.57708e-06
1.59307e-06
4.55349e-06
5.55282e-06
2.17344e-06
5.79543e-06
4.8832e-06
2.18907e-06
6.34766e-06
3.9321e-06
1.9474e-06
5.91373e-06
2.12806e-06
1.51041e-06
4.79096e-06
4.49579e-08
5.17068e-07
-2.81374e-06
1.57932e-07
1.42037e-06
6.28888e-06
7.32193e-07
2.03319e-06
8.67726e-06
1.56791e-07
2.529e-06
7.52864e-06
-5.26623e-07
3.13591e-06
5.83928e-06
-3.91028e-08
3.82539e-06
4.33068e-06
9.95088e-07
4.50144e-06
3.40599e-06
1.8082e-06
4.69657e-06
2.75799e-06
2.03648e-06
4.23969e-06
1.68213e-06
1.70339e-06
2.96673e-06
4.55315e-07
1.26806e-06
-1.75593e-06
1.17802e-06
1.39359e-06
4.95258e-06
-1.20629e-08
2.46558e-06
8.14433e-06
-6.40731e-07
2.96511e-06
7.88733e-06
-1.14942e-06
3.18091e-06
6.11655e-06
-6.27827e-07
3.34154e-06
4.26338e-06
5.08684e-07
3.41894e-06
3.14344e-06
1.21026e-06
3.22963e-06
2.58602e-06
1.43792e-06
2.60415e-06
1.93858e-06
1.35712e-06
1.05717e-06
1.22211e-06
1.81043e-06
-2.40164e-07
2.10022e-06
9.08927e-07
4.54864e-06
-1.19968e-07
2.36982e-06
7.53922e-06
-9.61621e-07
3.20547e-06
8.08496e-06
-1.14888e-06
3.24258e-06
6.78827e-06
-5.02213e-07
2.89739e-06
4.83003e-06
7.7798e-07
2.48442e-06
3.57659e-06
1.24789e-06
2.01481e-06
3.14548e-06
1.22881e-06
1.16545e-06
2.83483e-06
1.40253e-06
-5.41535e-07
2.33634e-06
2.38147e-06
1.59657e-06
2.90904e-06
5.74442e-07
4.70755e-06
6.64946e-08
2.04721e-06
7.03461e-06
-9.87297e-07
3.13994e-06
7.94446e-06
-9.46315e-07
3.18494e-06
7.36217e-06
-2.2312e-07
2.50564e-06
5.56013e-06
1.21543e-06
1.74035e-06
4.15323e-06
1.76056e-06
1.05802e-06
3.85722e-06
1.63757e-06
8.63697e-08
3.80201e-06
1.96135e-06
-1.57258e-06
3.49152e-06
2.93688e-06
3.23402e-06
3.58506e-06
5.30332e-07
1.35915e-07
4.9751e-06
1.83936e-06
-1.09686e-06
6.60816e-06
2.96983e-06
-8.65052e-07
7.46979e-06
3.0641e-06
-4.68679e-08
7.53584e-06
2.17905e-06
1.5186e-06
6.17622e-06
1.1916e-06
2.27473e-06
4.63894e-06
4.42529e-07
2.21515e-06
4.32394e-06
-5.04962e-07
2.59368e-06
4.39964e-06
-1.94542e-06
3.30643e-06
4.23595e-06
3.92143e-06
4.20947e-06
-1.78477e-07
2.44343e-07
-4.90593e-07
-2.57337e-07
1.20735e-07
-3.646e-07
-3.08095e-07
9.03844e-08
-3.55953e-07
-3.44406e-07
6.95367e-08
-3.23784e-07
-3.52679e-07
3.04135e-08
-2.68187e-07
-3.25404e-07
-2.03599e-08
-1.98055e-07
-2.67665e-07
-6.8644e-08
-1.20448e-07
-1.90655e-07
-1.064e-07
-4.59814e-08
-1.08964e-07
-1.34566e-07
3.25836e-08
-1.50539e-07
7.28287e-08
-2.36913e-07
5.64885e-07
-6.37506e-07
-3.47597e-07
2.94611e-07
-4.7399e-07
-4.1012e-07
2.07112e-07
-4.66782e-07
-4.58833e-07
1.6442e-07
-4.37182e-07
-4.73134e-07
8.04789e-08
-3.75397e-07
-4.41695e-07
-2.99726e-08
-2.98505e-07
-3.64526e-07
-1.42599e-07
-2.11592e-07
-2.49714e-07
-2.41025e-07
-1.22522e-07
-1.21708e-07
-3.16016e-07
-1.73741e-08
-3.36769e-07
5.27537e-08
-3.09785e-07
9.78502e-07
-7.56253e-07
-4.22623e-07
5.26887e-07
-4.85694e-07
-4.63936e-07
3.44498e-07
-4.91002e-07
-5.20735e-07
2.77855e-07
-4.9431e-07
-5.42728e-07
1.37423e-07
-4.36128e-07
-5.07406e-07
-4.97276e-08
-3.4096e-07
-4.18001e-07
-2.40251e-07
-2.34439e-07
-2.9145e-07
-4.03953e-07
-1.25732e-07
-1.47014e-07
-5.05471e-07
-3.89001e-08
-4.92244e-07
-2.28039e-08
-3.37846e-07
1.46899e-06
-1.00003e-06
-4.49943e-07
8.55615e-07
-5.44087e-07
-4.7387e-07
5.54928e-07
-4.88291e-07
-5.76273e-07
4.8205e-07
-5.52431e-07
-6.50827e-07
2.62748e-07
-5.27468e-07
-6.36665e-07
-4.11601e-08
-4.22507e-07
-5.384e-07
-3.48326e-07
-2.80692e-07
-4.00949e-07
-5.83586e-07
-1.35064e-07
-2.23132e-07
-6.98429e-07
-7.0756e-08
-6.50201e-07
-1.39998e-07
-2.18036e-07
1.98426e-06
-1.56441e-06
-3.83083e-07
1.3113e-06
-1.00468e-06
-5.26198e-07
9.71597e-07
-7.32547e-07
-7.04133e-07
8.42959e-07
-7.15641e-07
-8.20442e-07
4.91979e-07
-6.78762e-07
-8.07851e-07
1.51006e-08
-5.44068e-07
-6.97867e-07
-4.26904e-07
-3.58645e-07
-5.41993e-07
-7.43525e-07
-1.64644e-07
-3.22227e-07
-8.73589e-07
-8.88405e-08
-8.59824e-07
-1.744e-07
-1.03149e-07
2.2385e-06
-2.53907e-06
-4.77465e-07
1.68522e-06
-1.95136e-06
-8.56256e-07
1.53314e-06
-1.39463e-06
-1.07234e-06
1.28746e-06
-1.08489e-06
-1.16251e-06
7.8459e-07
-8.9869e-07
-1.13588e-06
1.63346e-07
-7.26413e-07
-9.57314e-07
-4.81452e-07
-5.02118e-07
-7.3947e-07
-8.86918e-07
-2.83658e-07
-4.70825e-07
-1.07579e-06
-1.74199e-07
-1.18725e-06
-2.5988e-07
-2.93849e-07
2.39838e-06
-3.33407e-06
-1.13258e-06
2.32805e-06
-2.9917e-06
-1.76073e-06
2.18375e-06
-2.39067e-06
-1.99084e-06
1.70086e-06
-1.89176e-06
-1.92135e-06
1.00359e-06
-1.50391e-06
-1.67078e-06
1.80145e-07
-1.23719e-06
-1.34454e-06
-6.35374e-07
-9.41427e-07
-1.0688e-06
-1.09026e-06
-6.76904e-07
-6.77831e-07
-1.44962e-06
-5.15972e-07
-1.78316e-06
-4.8866e-07
-1.84249e-06
5.52052e-06
-6.92511e-06
-3.10416e-06
4.19408e-06
-5.98208e-06
-3.66513e-06
3.03274e-06
-4.91638e-06
-4.10707e-06
2.22091e-06
-4.08766e-06
-3.68499e-06
5.07383e-07
-3.0561e-06
-2.81774e-06
-7.5722e-07
-2.12944e-06
-1.98412e-06
-1.38566e-06
-1.51137e-06
-1.35717e-06
-1.42974e-06
-1.18692e-06
-6.64334e-07
-1.73193e-06
-9.46014e-07
-1.91564e-06
-7.73126e-07
-3.00346e-06
1.08654e-05
-1.1101e-05
-7.17839e-06
9.61182e-06
-1.15998e-05
-9.86817e-06
6.66438e-06
-1.10641e-05
-1.05548e-05
3.11444e-06
-9.53101e-06
-9.47727e-06
-1.38645e-06
-7.95577e-06
-7.43657e-06
-3.85174e-06
-6.10483e-06
-5.14707e-06
-4.13735e-06
-4.69377e-06
-3.29758e-06
-2.96013e-06
-4.09024e-06
-1.81784e-06
-2.0924e-06
-4.36376e-06
-1.87462e-06
-5.19308e-06
3.93386e-07
1.31329e-05
-4.90291e-06
-1.40186e-06
1.23692e-05
-6.28647e-06
-2.86672e-06
9.41099e-06
-6.63232e-06
-4.31241e-06
5.68983e-06
-7.24675e-06
-6.03505e-06
1.53595e-06
-7.37082e-06
-8.64923e-06
-1.21007e-06
-9.11978e-06
-1.20196e-05
-2.31791e-06
-1.22524e-05
-1.44738e-05
-2.47028e-06
-1.71376e-05
-1.39146e-05
-4.18036e-06
-2.14601e-05
-9.57581e-06
-2.50779e-05
2.7997e-06
1.15246e-05
2.19498e-06
3.03134e-06
1.19232e-05
4.23109e-07
3.53896e-06
9.74729e-06
-4.50823e-07
2.58956e-06
7.34937e-06
-2.28501e-06
6.33188e-07
4.9198e-06
-4.80257e-06
-2.62415e-06
2.82954e-06
-6.47186e-06
-5.28737e-06
5.29209e-07
-8.2732e-06
-5.08793e-06
-1.91356e-06
-1.41744e-05
-1.52386e-06
-6.29431e-06
-1.89942e-05
-1.44262e-05
-1.46849e-05
3.20764e-06
9.24907e-06
4.72413e-06
4.94884e-06
1.01144e-05
4.23308e-06
6.27237e-06
9.05493e-06
3.4997e-06
6.26178e-06
8.25016e-06
1.81399e-06
5.00997e-06
6.94789e-06
-9.8104e-07
3.4306e-06
5.29958e-06
-4.27425e-06
1.75636e-06
2.83036e-06
-6.08507e-06
2.3811e-06
4.25351e-08
-8.82902e-06
4.43163e-06
-3.83113e-06
-1.09211e-05
-1.30332e-05
-5.13117e-06
2.10748e-06
8.15945e-06
4.04527e-06
4.22789e-06
8.58651e-06
4.47063e-06
5.79347e-06
8.3088e-06
3.98054e-06
6.30595e-06
8.61046e-06
3.42578e-06
5.85072e-06
8.01923e-06
1.5707e-06
5.65134e-06
6.4658e-06
-1.95763e-06
5.49308e-06
3.79887e-06
-3.50929e-06
5.40634e-06
1.34814e-06
-3.66544e-06
4.87529e-06
-1.20327e-06
-4.24007e-06
-1.10546e-05
-2.18039e-06
9.16383e-07
8.1225e-06
2.62112e-06
2.42463e-06
7.86786e-06
2.82992e-06
3.9523e-06
7.65014e-06
2.36486e-06
4.67516e-06
8.397e-06
2.9819e-06
4.82131e-06
8.05607e-06
2.66829e-06
5.47125e-06
6.73943e-06
2.52577e-07
5.95539e-06
4.56053e-06
-1.18283e-06
5.2993e-06
2.2505e-06
-4.22316e-07
3.7629e-06
-1.96851e-07
-1.7875e-07
-1.12037e-05
-2.04192e-07
6.63438e-07
8.33733e-06
1.15066e-06
1.55716e-06
8.07903e-06
5.80466e-07
2.78057e-06
7.2997e-06
1.55435e-07
3.69991e-06
7.62701e-06
1.44372e-06
4.30623e-06
7.11476e-06
2.50843e-06
5.24235e-06
6.11008e-06
1.88229e-06
5.76401e-06
4.55252e-06
1.43375e-06
4.73998e-06
2.35649e-06
2.42845e-06
2.54637e-06
-1.8343e-07
2.69727e-06
-1.15482e-05
1.25924e-06
1.0086e-06
8.26813e-06
-2.07203e-07
1.98275e-06
8.82544e-06
-1.56376e-06
2.8318e-06
7.66836e-06
-1.74433e-06
3.62144e-06
6.90224e-06
-1.03965e-07
4.48604e-06
5.76304e-06
1.4822e-06
5.23932e-06
5.03653e-06
2.12849e-06
5.1728e-06
4.07354e-06
2.58199e-06
3.8414e-06
1.96706e-06
3.4242e-06
1.54186e-06
-4.8679e-07
3.87097e-06
-1.10141e-05
2.02245e-06
1.44506e-06
7.72213e-06
-9.11124e-07
2.75643e-06
9.38738e-06
-2.51403e-06
3.40059e-06
8.33898e-06
-2.46419e-06
3.586e-06
6.85384e-06
-7.64851e-07
4.16208e-06
4.95148e-06
7.44177e-07
4.6974e-06
4.15477e-06
1.55668e-06
4.30493e-06
3.55827e-06
2.34565e-06
2.84828e-06
1.80503e-06
2.97581e-06
7.21372e-07
-1.95161e-07
3.6457e-06
-9.35399e-06
2.15596e-06
1.71066e-06
6.72131e-06
-8.29797e-07
3.20208e-06
9.20011e-06
-2.26578e-06
3.88267e-06
8.6796e-06
-2.17009e-06
3.50685e-06
7.32184e-06
-5.94399e-07
3.35259e-06
5.14353e-06
7.40199e-07
3.51944e-06
3.91581e-06
1.32001e-06
3.12695e-06
3.32126e-06
1.8583e-06
1.89938e-06
2.19413e-06
2.241e-06
2.91637e-08
8.28664e-07
3.22786e-06
-6.92805e-06
2.29547e-06
1.66637e-06
5.58711e-06
-4.65673e-07
3.20319e-06
8.26278e-06
-1.58678e-06
4.02922e-06
8.36514e-06
-1.45789e-06
3.43691e-06
7.63182e-06
5.92124e-08
2.64637e-06
5.82753e-06
1.32198e-06
2.31955e-06
4.1936e-06
1.80958e-06
1.97588e-06
3.48275e-06
1.81974e-06
1.18074e-06
2.89347e-06
2.05715e-06
-2.20369e-07
2.09491e-06
3.07172e-06
-4.32415e-06
2.65089e-06
1.43695e-06
-3.16624e-07
4.60269e-06
2.81605e-06
-1.19444e-06
6.98127e-06
3.67298e-06
-8.76416e-07
7.51958e-06
3.16584e-06
6.4727e-07
7.44482e-06
2.07983e-06
2.04273e-06
6.3894e-06
1.43601e-06
2.55192e-06
4.56023e-06
1.13918e-06
2.15393e-06
3.8408e-06
7.02212e-07
2.40412e-06
3.52e-06
-2.74701e-07
3.29845e-06
3.0798e-06
3.00313e-06
-2.12866e-06
-1.54871e-07
1.79705e-07
-5.15428e-07
-2.22216e-07
8.20225e-08
-3.79278e-07
-2.63578e-07
5.22784e-08
-3.66869e-07
-2.88991e-07
3.22372e-08
-3.30608e-07
-2.88367e-07
-2.32455e-09
-2.66487e-07
-2.56566e-07
-4.26585e-08
-1.87197e-07
-1.98704e-07
-7.7689e-08
-1.00621e-07
-1.27343e-07
-9.76631e-08
-1.96796e-08
-6.53739e-08
-9.94734e-08
7.0088e-08
-6.66394e-08