/*--------------------------------*- C++ -*----------------------------------*\
| =========                 |                                                 |
| \\      /  F ield         | OpenFOAM: The Open Source CFD Toolbox           |
|  \\    /   O peration     | Version:  2312                                  |
|   \\  /    A nd           | Website:  www.openfoam.com                      |
|    \\/     M anipulation  |                                                 |
\*---------------------------------------------------------------------------*/
FoamFile
{
    version     2.0;
    format      ascii;
    arch        "LSB;label=32;scalar=64";
    class       surfaceScalarField;
    location    "0.855";
    object      alphaPhi0.water;
}
// * * * * * * * * * * * * * * * * * * * * * * * * * * * * * * * * * * * * * //

dimensions      [0 3 -1 0 0 0 0];

oriented        oriented;

internalField   nonuniform List<scalar> 
22600
(
1.49658e-07
-3.04169e-07
1.54511e-07
3.71429e-07
-3.49786e-07
1.28015e-07
5.52968e-07
-2.91208e-07
1.09668e-07
6.5095e-07
-2.17406e-07
1.19424e-07
6.70912e-07
-1.53171e-07
1.33209e-07
6.28174e-07
-9.62035e-08
1.38942e-07
5.38341e-07
-4.83539e-08
1.38186e-07
4.20014e-07
-1.41925e-08
1.32519e-07
2.90221e-07
5.42006e-09
1.24373e-07
1.5036e-08
1.12967e-07
1.30401e-07
-5.67123e-07
1.32553e-07
3.67618e-07
-6.79483e-07
9.24792e-08
5.43629e-07
-5.18588e-07
5.13693e-08
6.31862e-07
-3.69147e-07
6.35088e-08
6.45048e-07
-2.65117e-07
9.87599e-08
6.03114e-07
-1.74942e-07
1.20673e-07
5.21347e-07
-9.40656e-08
1.27479e-07
4.13187e-07
-3.55796e-08
1.29547e-07
2.92858e-07
-7.50274e-09
1.33252e-07
-3.5948e-09
1.31567e-07
2.30951e-07
-1.01908e-06
2.21011e-07
5.57287e-07
-1.24989e-06
2.44073e-07
7.13271e-07
-7.99536e-07
1.24964e-07
7.69664e-07
-4.86338e-07
6.07976e-08
7.62296e-07
-3.40915e-07
8.31668e-08
6.95292e-07
-2.37431e-07
1.29492e-07
5.81121e-07
-1.39918e-07
1.60024e-07
4.39844e-07
-7.55171e-08
1.81215e-07
3.00219e-07
-7.53505e-08
2.07473e-07
-1.42568e-07
2.36092e-07
4.68726e-07
-1.9063e-06
4.18491e-07
8.90516e-07
-2.22214e-06
5.50465e-07
9.56602e-07
-1.25474e-06
3.89118e-07
9.0552e-07
-6.58511e-07
2.23255e-07
8.57892e-07
-4.52351e-07
1.59064e-07
7.66674e-07
-3.33586e-07
1.87373e-07
5.9254e-07
-2.0659e-07
2.40806e-07
3.71052e-07
-1.58059e-07
3.0403e-07
2.31456e-07
-3.35636e-07
3.99881e-07
-6.35296e-07
4.98383e-07
6.84699e-07
-3.1922e-06
6.01268e-07
1.0287e-06
-3.43732e-06
8.71277e-07
1.01121e-06
-1.98024e-06
7.43002e-07
8.63377e-07
-1.06563e-06
5.54955e-07
7.48982e-07
-7.59503e-07
4.21547e-07
6.49144e-07
-6.22687e-07
3.88939e-07
4.49565e-07
-4.19233e-07
4.12222e-07
2.30027e-07
-4.51261e-07
5.12739e-07
2.14344e-07
-1.01526e-06
6.95307e-07
-1.42804e-06
7.98515e-07
7.11175e-07
-4.70718e-06
8.07201e-07
7.38403e-07
-4.80776e-06
1.34732e-06
7.04191e-07
-3.21528e-06
1.2703e-06
6.55721e-07
-2.00587e-06
9.88837e-07
6.12446e-07
-1.44341e-06
7.27202e-07
6.32268e-07
-1.23294e-06
5.90427e-07
5.78412e-07
-8.62842e-07
4.97465e-07
4.61247e-07
-8.63984e-07
5.29888e-07
4.97425e-07
-1.68912e-06
6.37681e-07
-1.92623e-06
6.86712e-07
4.65249e-07
-2.35725e-06
7.84438e-07
5.71826e-07
-1.93115e-06
9.86669e-07
8.61359e-07
-1.96305e-06
1.23487e-06
1.00476e-06
-1.82016e-06
1.07798e-06
9.53664e-07
-1.6965e-06
6.89186e-07
9.91169e-07
-1.70277e-06
4.32474e-07
9.14231e-07
-1.23957e-06
4.53711e-07
6.09766e-07
-9.89992e-07
4.43297e-07
5.33108e-07
-2.0316e-06
4.11858e-07
-2.34139e-06
4.897e-07
9.30571e-09
-1.9035e-11
4.48407e-08
4.93462e-08
-3.07026e-11
-8.3503e-10
2.87586e-07
-2.81223e-11
-4.20183e-09
7.42053e-07
-8.5705e-12
-1.41151e-08
1.15493e-06
-6.54736e-08
-5.36557e-08
1.0425e-06
-3.06776e-07
-8.64866e-08
5.66487e-07
-5.3189e-07
8.69589e-08
2.3597e-07
-6.62552e-07
1.8103e-07
1.64786e-07
-1.7019e-06
1.58299e-07
-1.79171e-06
1.47775e-07
-2.17064e-12
-1.90834e-11
-4.40932e-13
1.8068e-12
-2.95144e-11
-8.27216e-12
3.54813e-12
-2.46569e-11
-8.64333e-12
1.96397e-12
-4.50421e-12
-5.82145e-12
-6.60715e-08
6.09636e-10
-1.30908e-11
-1.98204e-08
-6.1796e-08
-8.32541e-10
-2.7435e-08
-2.65644e-07
1.86614e-07
-1.39509e-07
-3.51338e-07
3.64835e-07
-3.65278e-07
-6.96738e-08
4.31929e-07
-7.01166e-12
3.81861e-07
-6.87594e-13
-1.58097e-11
-5.36255e-12
3.81002e-12
-1.16196e-11
-2.50356e-11
1.28485e-11
-1.01405e-11
-4.93564e-11
3.93605e-11
-1.86949e-11
-1.56618e-11
5.55944e-10
4.09575e-11
5.1295e-11
-6.16164e-08
2.60892e-10
1.95667e-09
-7.21022e-08
-2.99797e-10
4.44125e-08
-3.39499e-09
-2.94347e-11
5.9744e-08
-1.1668e-11
-9.78272e-12
2.5259e-09
-8.66112e-12
6.36245e-12
8.26636e-12
-1.39614e-11
-3.17226e-11
8.0084e-11
-9.54752e-11
-1.73606e-10
8.50041e-11
-8.06218e-11
-1.42103e-10
1.06767e-10
-1.01161e-10
-1.42705e-10
7.80315e-11
-8.99163e-13
-1.02224e-11
3.18922e-10
-1.76864e-11
1.22752e-11
1.81509e-11
-5.45486e-12
1.29126e-11
-5.58017e-12
-6.17929e-12
1.00824e-11
-1.15895e-11
-4.93884e-12
6.67238e-12
-7.62888e-12
5.39439e-12
4.87074e-11
1.03398e-10
-2.71257e-10
1.24617e-10
6.63538e-11
-1.91557e-10
1.81839e-10
3.74256e-11
-1.29029e-10
3.10072e-10
-2.61864e-11
-1.66412e-10
4.62943e-11
4.84506e-12
-6.93822e-11
2.02145e-11
3.61001e-12
-9.04835e-13
3.38956e-12
3.36773e-12
9.42547e-12
-5.53702e-12
7.16854e-13
1.12195e-11
-1.4167e-11
-1.14364e-12
7.44305e-12
-1.09039e-12
-7.7826e-13
5.4367e-11
2.97639e-10
-2.07825e-10
7.97033e-11
1.99358e-10
-1.1374e-10
1.12404e-10
1.17705e-10
-6.72795e-11
1.82508e-10
7.01013e-11
-1.29734e-10
2.76808e-11
5.12575e-11
-8.35834e-11
2.04807e-11
6.89271e-12
-8.06696e-13
2.77503e-12
8.16658e-12
9.36538e-12
-1.06694e-11
1.62467e-11
1.38222e-11
-2.42707e-11
-2.58295e-13
5.95178e-12
-4.34062e-13
-2.75807e-12
1.45311e-11
4.63795e-10
-1.39905e-10
1.82722e-12
4.42724e-11
-1.47755e-11
2.59121e-11
-1.55847e-12
-4.04125e-12
1.15993e-10
7.58591e-11
-1.08182e-11
1.80407e-11
5.69307e-11
-5.89591e-11
-4.30079e-12
1.17291e-11
-1.71606e-13
-4.40039e-12
6.69248e-11
3.08031e-11
-1.19126e-10
5.32486e-11
3.00148e-11
-1.96125e-10
4.52002e-11
2.89091e-12
5.7461e-11
-2.08421e-11
-4.0285e-12
5.17894e-10
-9.28836e-12
-7.40178e-12
7.97937e-12
-1.97697e-12
-1.04903e-11
8.89585e-12
-9.56497e-12
6.74413e-11
5.10428e-11
-6.64654e-12
2.63898e-11
2.73533e-11
-2.90477e-11
1.29529e-11
2.02442e-11
1.71504e-12
-8.3177e-11
1.27393e-10
4.56784e-11
-2.28716e-10
1.31284e-10
5.99804e-11
-2.52564e-10
1.13077e-10
-4.60663e-12
1.18332e-10
-8.15782e-11
-9.06024e-12
3.72983e-12
4.24474e-11
-7.12364e-12
8.8108e-12
-2.52393e-13
-1.49021e-11
6.42782e-12
-3.3194e-12
1.03974e-11
2.55147e-12
-6.7338e-12
2.22028e-11
8.61079e-12
-8.40341e-12
-2.10081e-12
1.00234e-10
8.68832e-12
-1.58703e-10
1.03071e-10
3.26846e-11
-2.48324e-10
1.8367e-10
4.11822e-11
-2.21157e-10
1.46223e-10
-1.84742e-11
1.19094e-10
-8.46904e-11
-6.19433e-12
1.39057e-10
2.5635e-11
-4.04478e-12
1.42832e-11
1.57451e-12
-1.78984e-12
4.70109e-12
-1.07822e-12
-2.79304e-14
1.96271e-12
-2.16852e-12
7.84425e-12
5.41484e-11
-2.4799e-12
-2.52882e-11
1.38279e-10
1.18229e-11
-9.89471e-11
4.8149e-11
2.31844e-11
-1.28087e-10
2.11621e-11
4.39072e-12
-1.79199e-11
6.09851e-11
-2.98179e-11
2.00155e-10
-1.17532e-10
-9.99709e-12
2.71966e-10
1.54366e-10
-1.84221e-12
4.77102e-12
1.2741e-12
-1.54006e-12
4.49433e-12
-4.04643e-13
-5.14904e-12
6.55874e-12
-8.30937e-13
-2.21782e-11
1.09875e-10
-4.78182e-12
-3.70521e-11
1.53713e-10
7.66818e-12
-2.71388e-11
2.73383e-11
8.16233e-12
-2.09781e-11
8.18441e-12
6.25597e-13
2.6101e-11
2.28346e-11
-2.91389e-11
2.23854e-10
-5.88494e-11
-1.94154e-12
1.25018e-10
2.12662e-10
-1.70023e-12
2.94043e-12
1.43228e-12
-2.73215e-12
4.61264e-12
7.74674e-13
-1.11778e-11
9.15234e-12
1.69035e-12
-4.0566e-11
5.44376e-11
9.69571e-12
-2.48208e-11
4.99212e-11
6.95999e-12
-8.74168e-12
8.92544e-12
1.01122e-12
-1.179e-11
8.01408e-12
1.15711e-12
-6.15187e-11
2.20287e-11
5.7835e-12
6.77146e-11
2.08557e-11
-8.04415e-13
1.36271e-10
4.53117e-11
-1.29432e-12
1.68663e-12
1.58671e-12
-2.309e-12
1.62858e-12
3.84173e-12
-5.22464e-12
3.02311e-12
3.57843e-12
-8.17255e-12
7.13401e-12
3.91286e-12
-3.3093e-12
5.6749e-12
9.7319e-12
-3.02716e-12
1.07425e-12
6.3923e-12
-3.83417e-12
2.11569e-12
5.43793e-12
-1.35716e-11
2.39834e-11
5.73857e-12
1.1771e-11
9.13991e-12
1.22629e-07
-3.54263e-07
3.86144e-07
3.91606e-07
-5.49611e-07
4.0865e-07
6.40923e-07
-5.12865e-07
3.73216e-07
7.77214e-07
-3.7288e-07
3.56013e-07
8.10382e-07
-2.48579e-07
3.4862e-07
7.69672e-07
-1.6285e-07
3.42501e-07
6.73483e-07
-1.03022e-07
3.37398e-07
5.34394e-07
-5.98024e-08
3.31411e-07
3.63521e-07
-3.0067e-08
3.25314e-07
-2.09786e-08
3.14364e-07
9.05239e-08
-6.94424e-07
3.8219e-07
4.38286e-07
-1.25651e-06
4.51618e-07
7.21835e-07
-1.12649e-06
3.81446e-07
8.37545e-07
-7.51496e-07
3.26414e-07
8.35251e-07
-4.67136e-07
3.1961e-07
7.72962e-07
-3.05596e-07
3.25708e-07
6.69289e-07
-2.01638e-07
3.29769e-07
5.30059e-07
-1.24646e-07
3.33621e-07
3.65244e-07
-7.37009e-08
3.41701e-07
-6.95288e-08
3.45093e-07
2.6258e-07
-1.29977e-06
5.63773e-07
8.4984e-07
-2.42655e-06
8.26857e-07
1.13966e-06
-1.97254e-06
6.81197e-07
1.17054e-06
-1.17586e-06
4.54277e-07
1.08168e-06
-6.52763e-07
3.57654e-07
9.57003e-07
-4.11785e-07
3.60358e-07
8.10561e-07
-2.8106e-07
3.85887e-07
6.34736e-07
-1.82319e-07
4.14713e-07
4.32349e-07
-1.16673e-07
4.52832e-07
-1.30339e-07
4.8624e-07
6.08886e-07
-2.36347e-06
8.7331e-07
1.37053e-06
-3.95075e-06
1.31304e-06
1.595e-06
-2.96019e-06
1.1523e-06
1.49876e-06
-1.6474e-06
7.9104e-07
1.32931e-06
-8.50675e-07
5.26434e-07
1.15028e-06
-5.08551e-07
4.63164e-07
9.37201e-07
-3.38458e-07
5.11284e-07
6.7593e-07
-2.08808e-07
5.91789e-07
4.26703e-07
-1.65929e-07
6.98365e-07
-3.00794e-07
8.06047e-07
8.59448e-07
-3.72711e-06
1.10561e-06
1.52027e-06
-5.39117e-06
1.65157e-06
1.66885e-06
-3.91065e-06
1.54501e-06
1.54301e-06
-2.19718e-06
1.23059e-06
1.35392e-06
-1.12701e-06
8.8698e-07
1.15223e-06
-6.38939e-07
7.21008e-07
9.01519e-07
-4.42345e-07
7.66824e-07
6.09264e-07
-3.43403e-07
9.39589e-07
4.15868e-07
-4.12198e-07
1.13497e-06
-7.00783e-07
1.2732e-06
1.05266e-06
-5.15655e-06
1.18915e-06
1.36684e-06
-5.77848e-06
1.85581e-06
1.42365e-06
-4.53193e-06
1.83839e-06
1.41912e-06
-2.82434e-06
1.62116e-06
1.30982e-06
-1.57432e-06
1.28387e-06
1.11944e-06
-8.34122e-07
9.75998e-07
9.88401e-07
-6.82434e-07
8.68591e-07
9.654e-07
-8.00186e-07
1.00967e-06
9.10362e-07
-9.88125e-07
1.26864e-06
-1.06395e-06
1.47514e-06
1.00719e-06
-1.77784e-06
7.10098e-07
8.10531e-07
-1.1766e-07
5.7738e-07
1.18422e-06
-9.90117e-07
8.88629e-07
1.51338e-06
-1.25056e-06
1.09687e-06
1.51484e-06
-1.3953e-06
1.09484e-06
1.3132e-06
-1.09723e-06
8.97357e-07
1.38092e-06
-1.06878e-06
7.72367e-07
1.51478e-06
-1.42736e-06
9.36659e-07
1.36733e-06
-1.68589e-06
1.25718e-06
-1.27815e-06
1.3538e-06
6.08849e-08
-2.73114e-11
-2.07842e-08
1.26414e-09
-3.64687e-11
-5.88369e-08
5.32755e-08
-1.20862e-10
-3.39674e-08
4.73088e-07
-1.08314e-10
-9.28515e-08
1.26915e-06
-4.95906e-10
-1.10382e-07
1.64745e-06
-2.00796e-07
5.42948e-09
1.41568e-06
-3.42736e-07
1.10388e-07
9.79939e-07
-7.03801e-07
3.40196e-07
6.96232e-07
-1.28705e-06
6.43473e-07
-9.63909e-07
7.10346e-07
6.40016e-13
-2.36832e-11
-8.26183e-12
2.27259e-12
-2.7096e-11
-1.42128e-11
5.42192e-12
-9.78575e-11
-3.84172e-11
5.69744e-12
-2.30375e-11
-8.88444e-11
6.30518e-12
2.17024e-12
-5.13816e-10
2.13171e-08
-4.2702e-10
-1.3794e-08
3.55647e-07
-7.4136e-08
1.41266e-08
2.50275e-07
-1.61472e-07
4.59556e-07
-1.41982e-07
-2.32761e-09
8.73084e-07
-7.04051e-12
8.5738e-07
1.4084e-12
-1.75702e-11
-8.3212e-12
7.05565e-12
-1.09767e-10
-7.17551e-12
4.16117e-11
-2.55735e-10
-2.78249e-11
4.25777e-11
-1.52541e-10
-3.59684e-12
9.86838e-11
-6.94001e-13
3.15799e-12
1.45511e-09
-1.05442e-11
1.81719e-10
-4.27749e-08
-5.02986e-11
2.05856e-08
-4.76673e-11
-2.29773e-11
9.84763e-08
-1.10487e-11
-6.45609e-12
1.74466e-10
1.56323e-13
7.95328e-12
7.08083e-12
-5.59334e-11
-2.84778e-11
2.70003e-11
-1.68632e-10
-9.93516e-11
9.58136e-11
-2.44175e-10
-6.26475e-11
1.049e-10
-2.70451e-10
-3.51133e-11
-3.33103e-12
-2.55937e-11
-8.4626e-12
4.34977e-11
2.2521e-12
6.77529e-14
1.53341e-11
2.61283e-12
5.91525e-12
2.03288e-12
-5.56313e-12
1.29388e-11
-3.74563e-12
1.22764e-12
1.50002e-11
5.76184e-12
1.02434e-11
-1.7896e-12
-2.59939e-11
-2.47745e-11
2.5378e-11
-1.48489e-10
-7.77528e-11
5.82838e-11
-1.14917e-10
-1.14106e-10
4.5125e-11
-1.17659e-10
-4.70795e-11
2.40806e-12
-9.32329e-12
-6.99536e-11
1.53277e-11
4.08586e-12
1.28615e-13
1.31617e-11
3.923e-12
7.33991e-12
4.68334e-12
4.24376e-12
1.46706e-11
-1.90058e-12
1.22377e-11
2.06313e-11
8.88661e-12
1.54171e-13
-1.77426e-11
6.05113e-11
-6.34409e-11
-2.33555e-12
-9.98777e-12
-1.1774e-10
4.48805e-12
-1.98416e-12
-1.52675e-11
1.10247e-11
-1.28636e-12
-3.29263e-11
1.07981e-11
5.14487e-12
-1.45845e-10
1.02746e-11
4.85239e-12
-1.13982e-11
8.07712e-12
5.55229e-12
4.00456e-12
3.53431e-12
9.9436e-12
1.15141e-11
-7.04257e-12
4.57013e-11
2.35363e-11
2.54232e-11
-1.58165e-11
-3.99002e-11
1.19151e-10
-1.93434e-10
-1.94502e-12
1.35075e-12
-7.29585e-11
-7.06764e-13
-1.05748e-13
-6.89677e-12
-2.10128e-12
9.12361e-13
-1.18352e-11
1.31022e-13
6.33718e-12
-6.92681e-11
3.82031e-12
6.03577e-12
-1.78336e-11
8.99088e-12
4.63659e-11
1.90789e-11
-1.10596e-11
3.22439e-11
5.83669e-12
-7.0068e-12
7.12746e-11
-5.88604e-13
7.45715e-11
-5.15839e-11
-1.95489e-11
-1.45436e-12
-2.69286e-11
-1.50294e-11
4.37794e-12
-1.79785e-12
-2.0349e-12
3.14273e-12
-5.8063e-12
-4.14033e-12
2.55226e-12
-6.54795e-12
-5.25776e-13
7.03075e-12
-1.34455e-11
4.53552e-13
7.62821e-12
-3.43719e-12
-5.50948e-12
1.04833e-10
9.90627e-12
-2.64085e-11
4.03738e-11
-3.80974e-12
-2.69956e-11
1.2695e-10
-1.49856e-11
3.58838e-10
-3.58418e-11
-3.35738e-12
3.08714e-11
1.48242e-11
-4.95354e-12
7.24035e-12
-5.33846e-13
-2.95758e-12
2.42191e-12
-4.11258e-12
-4.72396e-12
3.92013e-12
-6.98353e-12
5.89419e-13
8.66536e-12
-6.6463e-12
-1.74595e-11
2.74558e-11
-2.75836e-12
-1.17623e-11
8.59754e-11
1.34166e-12
-1.2627e-11
3.82887e-11
-6.49409e-14
-2.91251e-11
2.64021e-10
-1.79302e-11
9.08366e-10
-2.45131e-11
-4.27562e-12
5.449e-11
1.30291e-11
-3.87048e-12
1.70391e-11
2.77478e-12
-4.62211e-12
3.18212e-12
-1.97912e-12
-1.9986e-12
5.85789e-12
-7.60751e-12
-4.61093e-12
1.15063e-11
-3.83452e-12
-2.00505e-11
3.72615e-11
-5.00726e-12
-5.64002e-12
3.47577e-11
-2.10624e-13
9.48769e-12
5.58273e-11
-5.40963e-12
-7.56817e-11
6.42054e-10
-1.00092e-11
1.14912e-09
-1.46328e-11
-2.79447e-11
3.51619e-10
2.63675e-10
-2.82729e-12
1.76715e-11
1.58966e-11
-3.80596e-12
4.05083e-12
-7.52291e-13
-1.73459e-12
8.39707e-12
-5.00967e-12
-1.09037e-11
3.07449e-11
-1.19505e-11
-4.84973e-12
3.00795e-11
-1.3094e-11
4.78266e-12
1.78595e-11
-2.45575e-12
-3.13156e-11
1.44441e-10
-1.10678e-11
-1.29907e-10
1.10059e-09
-8.89353e-12
5.55697e-10
-1.20344e-11
-2.27128e-11
2.87651e-10
3.63299e-10
-2.84872e-12
8.60259e-12
8.74841e-12
-5.25647e-12
6.06387e-12
8.52273e-13
-1.10542e-11
1.37736e-11
-2.80534e-14
-1.01986e-11
3.19802e-11
-4.96284e-12
-9.02648e-13
1.48638e-11
-2.81651e-12
-5.14366e-12
1.77645e-11
-7.74238e-13
-1.89585e-10
2.07689e-10
-5.41804e-12
-1.71812e-10
8.87527e-10
4.74049e-12
3.60185e-10
1.22312e-10
-6.24836e-12
1.61781e-10
2.60291e-10
-3.17327e-12
3.25485e-12
3.80227e-12
-3.87134e-12
2.53529e-12
5.60386e-12
-7.80138e-12
3.92853e-12
5.57035e-12
-5.00855e-12
5.87616e-12
1.21794e-11
-5.06586e-13
2.97347e-12
1.12985e-11
2.06292e-12
1.10073e-12
1.38493e-11
-1.3867e-10
1.67001e-11
1.59774e-10
-2.26295e-10
1.14095e-10
3.33968e-10
1.12672e-10
8.52815e-11
1.05171e-07
-2.94361e-07
5.75334e-07
3.57334e-07
-5.07903e-07
6.64391e-07
6.02185e-07
-4.95981e-07
6.24347e-07
7.39956e-07
-3.61518e-07
5.7976e-07
7.76183e-07
-2.34557e-07
5.4695e-07
7.40349e-07
-1.49211e-07
5.27547e-07
6.50707e-07
-9.3486e-08
5.20525e-07
5.16707e-07
-5.45456e-08
5.19958e-07
3.4756e-07
-3.10598e-08
5.2552e-07
-3.36552e-08
5.24107e-07
4.94813e-08
-5.3283e-07
5.71177e-07
3.64703e-07
-1.11874e-06
7.47231e-07
6.66182e-07
-1.11058e-06
6.94563e-07
7.98856e-07
-7.66613e-07
5.98835e-07
8.04222e-07
-4.61584e-07
5.41272e-07
7.46978e-07
-2.8637e-07
5.2011e-07
6.49502e-07
-1.85387e-07
5.19146e-07
5.16666e-07
-1.1624e-07
5.28151e-07
3.55673e-07
-7.64732e-08
5.48108e-07
-8.37209e-08
5.61884e-07
1.31251e-07
-8.5209e-07
7.51782e-07
6.83405e-07
-1.98396e-06
1.13992e-06
1.06569e-06
-1.88911e-06
1.07745e-06
1.15134e-06
-1.23024e-06
8.32255e-07
1.06331e-06
-6.74176e-07
6.58273e-07
9.34314e-07
-3.97824e-07
6.00811e-07
7.97853e-07
-2.68093e-07
6.05054e-07
6.3507e-07
-1.66709e-07
6.27965e-07
4.31834e-07
-7.62102e-08
6.55805e-07
-6.21464e-08
6.70928e-07
4.10373e-07
-1.39866e-06
1.00951e-06
1.19535e-06
-3.03679e-06
1.5809e-06
1.57978e-06
-2.66927e-06
1.54804e-06
1.58581e-06
-1.65225e-06
1.20701e-06
1.40316e-06
-8.47379e-07
8.82282e-07
1.18823e-06
-4.65997e-07
7.46264e-07
9.79661e-07
-3.02289e-07
7.54054e-07
7.46579e-07
-1.58609e-07
8.16771e-07
4.84863e-07
-5.96845e-09
8.89839e-07
5.71304e-08
9.06239e-07
7.0677e-07
-2.20298e-06
1.20317e-06
1.48955e-06
-4.03797e-06
1.87015e-06
1.79123e-06
-3.28428e-06
1.85841e-06
1.76189e-06
-1.96291e-06
1.57062e-06
1.57671e-06
-9.80101e-07
1.20488e-06
1.36856e-06
-5.59786e-07
1.02295e-06
1.16981e-06
-4.1366e-07
1.07695e-06
8.58417e-07
-7.64369e-08
1.16881e-06
5.04684e-07
2.56693e-07
1.22604e-06
2.57867e-07
1.26014e-06
1.01454e-06
-3.34389e-06
1.31693e-06
1.47831e-06
-4.66899e-06
2.06526e-06
1.59772e-06
-3.59813e-06
2.03497e-06
1.62508e-06
-2.20925e-06
1.84056e-06
1.53534e-06
-1.12688e-06
1.5204e-06
1.40246e-06
-7.11357e-07
1.26045e-06
1.31156e-06
-7.38933e-07
1.28477e-06
1.15816e-06
-4.33191e-07
1.51982e-06
8.85496e-07
8.06043e-08
1.7174e-06
3.34799e-07
1.78093e-06
1.20945e-06
-1.89999e-06
1.18788e-06
1.00318e-06
-1.17e-06
1.13165e-06
1.15726e-06
-1.17854e-06
1.28579e-06
1.38188e-06
-1.42332e-06
1.50653e-06
1.42746e-06
-1.32633e-06
1.49389e-06
1.48734e-06
-1.11282e-06
1.23903e-06
1.62243e-06
-1.31208e-06
1.21045e-06
1.70619e-06
-1.05849e-06
1.47823e-06
1.3944e-06
-1.5984e-07
1.80941e-06
4.22141e-07
1.98633e-06
1.27466e-07
-2.2143e-10
-3.00354e-08
2.9442e-08
-3.31716e-10
-7.12939e-08
1.90342e-07
-9.23775e-10
-8.42021e-08
6.42235e-07
-2.31025e-09
-4.91533e-08
1.26032e-06
-1.04943e-08
2.02743e-07
1.53561e-06
-3.49774e-07
1.93496e-07
1.21735e-06
-4.26473e-07
-1.71773e-08
6.62348e-07
-4.86432e-07
5.09529e-07
4.56634e-07
-1.29359e-07
8.70182e-07
1.66608e-07
9.92289e-07
2.96969e-12
-3.72257e-11
-1.90468e-10
9.49258e-12
-1.85347e-11
-3.27173e-10
3.89984e-11
-4.31703e-11
-9.4797e-10
9.43925e-11
-1.35097e-11
-2.437e-09
2.52082e-10
-3.07353e-12
-1.11577e-08
1.82601e-07
-1.73939e-10
-4.84855e-08
8.46786e-07
-2.56956e-08
-7.45577e-08
9.77848e-07
-2.45434e-09
5.0165e-07
5.16179e-07
-8.29668e-09
1.45484e-06
1.33353e-08
1.71849e-06
7.95788e-13
-2.367e-11
-9.97025e-12
1.77282e-12
-1.70174e-11
-5.51829e-12
1.47017e-11
-8.6711e-11
-3.17886e-12
9.24798e-12
-8.46438e-12
-2.66079e-12
1.47913e-11
4.62655e-13
1.15343e-14
1.67382e-11
1.75265e-12
9.18183e-12
-1.4514e-08
1.68392e-10
3.00443e-09
-8.47955e-09
-2.2467e-10
6.58677e-08
-3.90107e-09
-1.20383e-11
6.65672e-08
1.05174e-09
1.89771e-08
-1.20816e-12
-1.02743e-11
-7.68404e-11
-1.76103e-12
-1.11242e-11
-8.11281e-12
2.08835e-11
-2.79367e-11
-8.40572e-12
4.06756e-12
-1.07991e-11
-1.76538e-11
2.43541e-11
-4.7766e-12
-3.04645e-11
2.09771e-11
2.70773e-11
-2.1351e-11
2.56715e-10
-6.83366e-11
7.36231e-11
1.66345e-11
-3.05579e-13
4.65466e-11
4.26252e-12
3.119e-13
2.15287e-11
5.99237e-11
1.07132e-09
-1.56444e-12
-7.31556e-12
-1.98617e-11
-1.1094e-13
-2.31312e-11
-2.54007e-11
1.19803e-12
-8.46255e-12
-1.96563e-11
5.66497e-12
-7.94859e-12
-5.49325e-11
4.34766e-11
2.60822e-11
-3.0742e-10
2.70139e-11
1.33012e-10
-2.54052e-10
2.57935e-11
4.51978e-11
-3.53418e-11
7.39817e-12
5.24423e-12
4.02204e-11
1.12389e-11
6.33841e-12
2.91376e-11
2.95383e-11
4.70001e-11
-4.84305e-12
-1.23122e-11
-4.55639e-11
7.33118e-13
-7.24471e-11
-1.17849e-10
-1.61248e-13
-4.33611e-12
-2.30351e-11
-1.90078e-11
-2.65677e-12
-1.97626e-11
-3.81162e-11
2.43208e-11
-2.611e-10
-2.4054e-11
1.19468e-10
-2.44818e-10
1.24383e-11
5.04279e-11
-7.35791e-11
1.21101e-11
6.6201e-12
1.24706e-11
1.95299e-11
2.32932e-11
2.34031e-11
9.39411e-11
-4.36264e-12
-5.50607e-11
5.90279e-11
-2.17991e-10
-2.2453e-11
-4.86268e-11
-1.68461e-10
-2.71552e-12
-1.77485e-12
-2.71081e-11
-8.64155e-12
2.47111e-13
-8.57962e-12
-4.27104e-11
6.84019e-12
-7.33661e-11
-3.57914e-11
7.44459e-12
-8.79252e-11
8.77004e-13
3.61863e-12
-1.84163e-11
6.67705e-12
7.06393e-12
3.84049e-12
-7.61837e-12
2.9945e-11
-3.33258e-13
3.49934e-11
-2.28109e-11
-1.00486e-10
1.11326e-10
-3.35838e-11
-1.07653e-11
-2.00242e-13
-3.69272e-11
-3.60579e-12
-1.61535e-13
-1.64069e-11
-5.85774e-12
2.39572e-12
-6.65743e-12
-9.75865e-12
7.97785e-12
-1.048e-11
-8.41098e-12
6.67008e-12
-8.13837e-12
-2.15021e-12
1.05228e-11
-6.35236e-12
-1.94592e-12
1.2654e-11
-7.76667e-12
-4.35289e-12
2.18253e-11
-1.34689e-11
2.40375e-11
-2.26846e-11
-9.27832e-12
3.17746e-11
1.33053e-10
-4.66421e-12
2.29296e-12
-9.42065e-13
-4.43556e-12
7.89742e-13
-6.84002e-12
-5.26128e-12
5.46355e-12
-9.74695e-12
-6.17662e-12
1.10747e-11
-9.22983e-12
-8.08018e-12
1.56185e-11
-9.39023e-12
-3.8169e-12
1.69552e-11
-7.00364e-12
-2.3291e-12
2.44274e-11
-1.06209e-11
-1.28159e-12
2.0129e-11
-1.46569e-11
1.84044e-11
-1.6059e-11
-4.0904e-12
1.83467e-10
1.34558e-10
-3.78938e-12
1.93115e-11
2.01102e-12
-9.34139e-12
2.38812e-12
-1.58547e-12
-2.01211e-11
2.03031e-11
-1.97493e-11
-8.40428e-12
8.40638e-11
-5.81647e-11
-7.71109e-12
2.15126e-11
-1.16581e-11
-3.71226e-12
2.32446e-11
-7.21506e-12
-1.41682e-12
4.28125e-11
-8.7286e-12
4.37501e-13
2.05601e-11
-1.19338e-11
1.81199e-11
-1.20209e-11
1.16624e-11
2.45374e-10
1.93148e-10
-4.6897e-12
5.70882e-11
4.09747e-11
-6.86324e-12
3.26327e-12
-7.16824e-13
-3.6542e-11
2.06157e-11
-7.29626e-12
-3.24988e-11
1.0304e-10
-6.53274e-11
-1.01107e-11
7.29458e-11
-4.53683e-11
-8.22628e-12
3.1576e-11
-6.94072e-12
-7.01372e-13
1.03489e-10
-1.28247e-11
2.92988e-13
2.36105e-11
-1.02968e-11
2.90381e-11
-2.0699e-12
2.33959e-11
1.73723e-10
4.87069e-10
-2.53246e-12
3.55877e-11
5.29518e-11
-4.60764e-12
3.92866e-12
8.88948e-13
-2.12747e-11
7.6114e-12
-4.83615e-13
-3.86825e-11
3.64858e-11
-1.71149e-11
-1.19436e-11
8.44113e-11
-4.24443e-11
-1.51722e-11
3.57677e-11
-9.65308e-12
-1.15778e-12
8.65879e-11
-4.5984e-12
-1.29908e-12
6.22161e-11
-1.15943e-12
1.29796e-10
1.81078e-11
-2.42605e-11
4.83808e-11
1.30522e-10
-1.84466e-12
7.19723e-12
6.75408e-12
-2.99358e-12
2.41772e-12
4.33312e-12
-2.93751e-12
2.072e-12
5.67601e-12
-1.26151e-11
5.07007e-12
1.06906e-11
-4.26259e-12
7.2125e-12
1.99666e-11
1.16784e-12
7.08625e-13
1.65961e-11
-1.55348e-11
6.86293e-12
6.11472e-11
-4.02658e-11
5.24715e-11
3.20183e-10
1.69483e-10
3.996e-10
1.14489e-07
-2.1275e-07
6.73595e-07
3.40937e-07
-3.60105e-07
7.98048e-07
5.58881e-07
-3.51629e-07
7.58031e-07
6.904e-07
-2.58343e-07
7.06584e-07
7.33954e-07
-1.6388e-07
6.67276e-07
7.08949e-07
-9.23204e-08
6.44873e-07
6.28969e-07
-3.75435e-08
6.38048e-07
5.03233e-07
5.43377e-09
6.40259e-07
3.38167e-07
3.49575e-08
6.55629e-07
4.24744e-08
6.60145e-07
6.13254e-08
-3.66144e-07
6.63245e-07
3.09337e-07
-7.25931e-07
8.65046e-07
5.70071e-07
-7.42327e-07
8.24528e-07
7.10641e-07
-5.34957e-07
7.34881e-07
7.43113e-07
-3.26278e-07
6.71198e-07
7.09591e-07
-1.82265e-07
6.43577e-07
6.29552e-07
-8.16826e-08
6.43323e-07
5.12228e-07
-6.60032e-09
6.57509e-07
3.60251e-07
4.1695e-08
6.93349e-07
6.33371e-08
7.19849e-07
6.07638e-08
-5.01343e-07
8.26217e-07
4.36334e-07
-1.15627e-06
1.19469e-06
7.94511e-07
-1.19532e-06
1.17226e-06
9.45899e-07
-8.36998e-07
9.82907e-07
9.38372e-07
-4.86411e-07
8.25933e-07
8.6787e-07
-2.74765e-07
7.63812e-07
7.60258e-07
-1.29532e-07
7.60516e-07
6.06739e-07
3.23491e-09
7.71648e-07
4.15211e-07
9.99753e-08
7.89052e-07
1.664e-07
7.73074e-07
2.16008e-07
-7.10478e-07
1.00264e-06
7.90489e-07
-1.67555e-06
1.52569e-06
1.1939e-06
-1.62498e-06
1.57429e-06
1.31742e-06
-1.09183e-06
1.33833e-06
1.24529e-06
-6.01332e-07
1.06933e-06
1.10695e-06
-3.24763e-07
9.34603e-07
9.43653e-07
-1.47897e-07
9.35716e-07
7.27243e-07
5.60027e-08
9.80413e-07
4.55031e-07
2.74985e-07
9.87041e-07
3.90631e-07
8.91891e-07
4.88044e-07
-1.09701e-06
1.10165e-06
1.19004e-06
-2.25598e-06
1.74861e-06
1.54834e-06
-1.94493e-06
1.82007e-06
1.62195e-06
-1.23054e-06
1.63571e-06
1.55097e-06
-7.00605e-07
1.37514e-06
1.45402e-06
-4.50956e-07
1.24609e-06
1.23959e-06
-9.84411e-08
1.24192e-06
8.87676e-07
3.20773e-07
1.25595e-06
4.92174e-07
6.58844e-07
1.23768e-06
7.5455e-07
1.11037e-06
7.34847e-07
-1.83831e-06
1.32353e-06
1.28936e-06
-2.86614e-06
2.1218e-06
1.52681e-06
-2.18702e-06
2.04007e-06
1.60689e-06
-1.30079e-06
1.8308e-06
1.60842e-06
-7.78284e-07
1.59655e-06
1.65997e-06
-6.92873e-07
1.45082e-06
1.62929e-06
-3.4121e-07
1.55822e-06
1.27062e-06
4.66934e-07
1.73234e-06
7.45423e-07
1.12052e-06
1.78092e-06
1.2928e-06
1.57693e-06
1.00265e-06
-1.80196e-06
1.74533e-06
9.57189e-07
-1.54147e-06
2.1079e-06
1.02213e-06
-1.40574e-06
2.01028e-06
1.1934e-06
-1.38817e-06
1.91744e-06
1.39601e-06
-1.20108e-06
1.7143e-06
1.72982e-06
-1.14224e-06
1.35462e-06
1.87137e-06
-6.45703e-07
1.37341e-06
1.67222e-06
4.9036e-07
1.65395e-06
1.20517e-06
1.44643e-06
1.95055e-06
1.97128e-06
1.91214e-06
2.98219e-07
-3.78372e-09
1.41796e-07
2.26301e-07
-4.71654e-09
-4.6725e-08
4.5807e-07
-1.52561e-08
8.89951e-08
8.61209e-07
-3.68005e-08
6.53541e-07
1.14183e-06
-1.46228e-07
9.52342e-07
8.16871e-07
-3.7953e-07
4.11419e-07
3.96095e-07
-2.622e-07
1.7196e-07
3.49569e-07
2.14012e-07
6.82116e-07
4.26303e-07
7.57288e-07
1.11199e-06
1.26689e-06
1.18881e-06
9.1739e-11
-1.65186e-10
-3.8928e-09
2.07736e-10
-1.31007e-11
-5.14642e-09
8.99095e-10
-6.80938e-12
-1.68881e-08
2.27506e-09
-3.95578e-12
-4.06077e-08
1.58003e-08
-1.97413e-11
-1.70885e-07
5.00318e-07
-5.05677e-11
-1.10994e-08
1.26571e-06
-2.92826e-09
1.11928e-07
1.3436e-06
5.52872e-08
2.35095e-07
9.51329e-07
1.35007e-07
1.17449e-06
1.26028e-07
1.56619e-06
3.98327e-12
-1.35597e-10
-1.42023e-11
4.57833e-12
-1.07933e-11
-8.00291e-12
9.80915e-12
-8.89238e-12
-5.09547e-12
1.41185e-11
-7.06992e-12
-4.35461e-12
1.50971e-11
-4.60944e-12
-1.41575e-11
1.24446e-11
-1.97397e-11
-1.19976e-11
9.28897e-11
-3.84954e-11
5.09668e-11
6.55058e-09
6.16887e-09
4.23204e-08
9.09383e-09
8.52803e-09
1.0156e-07
1.41749e-09
8.54476e-08
-1.18858e-12
-1.18951e-11
-6.9761e-11
-2.00083e-12
-1.31854e-11
-5.10597e-12
9.35561e-13
-1.55254e-11
-5.23143e-12
1.82371e-11
-3.68449e-11
-7.59271e-12
7.42811e-11
3.4094e-11
-5.65601e-11
1.25774e-10
2.14066e-10
-1.58016e-10
2.46905e-10
2.27415e-10
6.80184e-11
7.44661e-10
1.91479e-10
5.56659e-09
4.45968e-11
5.23244e-11
9.20251e-09
-7.62379e-10
5.8384e-09
-2.62558e-12
-1.03293e-11
-1.49308e-11
-2.60361e-12
-2.58063e-11
-1.31956e-11
-1.41017e-12
-9.71566e-12
-1.51773e-11
-8.92627e-13
-2.17219e-11
-7.11075e-11
-1.93213e-11
2.69009e-11
-1.54659e-10
-1.1796e-10
3.70766e-10
-1.52648e-10
-3.28214e-11
5.29136e-10
-9.09426e-11
-2.69315e-11
6.15639e-11
1.74512e-10
-2.8e-10
-5.62546e-11
4.10035e-10
-2.10497e-10
-1.26282e-10
-3.93469e-12
-4.18747e-11
-2.01153e-11
-7.53333e-13
-1.46811e-10
-4.00723e-11
5.57628e-13
-4.08513e-11
-1.92579e-11
1.42704e-14
-7.41026e-12
-1.75044e-11
-1.0364e-10
1.55426e-11
-8.65983e-11
-3.88248e-10
1.28669e-10
-1.12028e-10
-9.13605e-11
2.06766e-10
-9.70447e-11
-4.14597e-11
2.46519e-11
1.38599e-12
-1.2286e-10
3.79987e-11
2.77207e-11
-4.99874e-12
-2.19305e-10
-3.53692e-11
-3.51068e-11
-2.1729e-10
-1.13937e-12
-1.50053e-10
-2.32706e-10
-6.9881e-12
-2.011e-11
-9.12339e-11
-1.09019e-11
-1.97747e-12
-9.25198e-12
-7.7295e-11
-4.33237e-12
-5.25597e-11
-1.00402e-10
-1.98034e-11
-1.11821e-10
-5.37158e-11
1.64757e-11
-1.72331e-11
-4.87538e-11
4.30366e-11
-1.10208e-11
-3.38772e-11
2.21182e-11
-2.06181e-11
1.49834e-11
-7.263e-11
-6.30346e-11
7.31571e-11
-5.36532e-11
-4.38913e-11
-8.93475e-12
-1.13406e-10
-6.47474e-12
-4.62939e-12
-8.85784e-11
-6.42946e-12
-2.37766e-13
-8.23961e-12
-1.52368e-11
9.54678e-12
-1.92349e-11
-1.43013e-11
2.17845e-11
-4.88693e-11
-2.10473e-11
2.49544e-11
-9.31655e-12
-1.08887e-11
2.30465e-11
-1.53742e-11
-3.6518e-12
1.78482e-11
-2.07754e-11
1.3782e-11
-2.61349e-11
-9.72041e-12
7.52095e-11
2.02572e-10
-9.37527e-12
-7.98465e-13
-8.39086e-12
-9.62933e-12
-8.24073e-13
-1.2219e-11
-7.36365e-12
4.12743e-12
-9.93225e-12
-9.84992e-12
3.68203e-11
-1.61721e-11
-7.91587e-12
2.14755e-11
-1.10958e-11
-6.57893e-12
2.43532e-11
-8.67523e-12
-2.16062e-12
2.00704e-11
-1.25882e-11
3.36127e-12
1.52498e-11
-1.73095e-11
1.24771e-11
-1.50112e-11
-2.47981e-12
3.38548e-11
1.73339e-10
-3.60638e-12
6.36452e-12
1.07556e-12
-5.74552e-12
7.61256e-13
-2.57918e-12
-4.76432e-11
1.13861e-11
-9.44941e-12
-3.26014e-11
7.20182e-11
-7.47226e-11
-6.93057e-12
7.30091e-11
-3.17399e-11
-3.00199e-12
2.07544e-11
-8.41618e-12
9.22776e-13
1.71802e-11
-1.05129e-11
4.01205e-12
1.52426e-11
-1.54578e-11
1.50865e-11
-1.49919e-11
1.79489e-11
2.0536e-11
2.38527e-11
1.08799e-12
2.79585e-11
1.08691e-11
1.2216e-13
2.38112e-12
5.22151e-13
-3.68904e-11
1.11492e-11
-5.59911e-12
-5.79083e-11
9.17332e-11
-4.18061e-11
-4.13987e-11
1.34138e-10
-7.47607e-11
-3.01358e-12
1.0958e-10
-6.19007e-11
1.43447e-12
1.88475e-11
-1.93593e-11
2.80092e-12
1.79026e-11
-1.39455e-11
1.88215e-11
-8.53735e-13
2.84036e-11
1.52583e-11
4.08648e-11
-9.06426e-13
2.30514e-11
3.15141e-11
2.56803e-12
3.6212e-12
9.61394e-13
1.74449e-12
3.81068e-12
-2.3207e-13
-2.49323e-11
3.58038e-11
-1.17911e-11
-2.58464e-11
1.35325e-10
-3.46929e-11
-5.09562e-12
1.03117e-10
-3.22278e-11
4.91168e-13
2.3553e-11
1.63783e-12
-1.29059e-12
2.03981e-11
1.00471e-12
5.85567e-11
4.25069e-11
-2.98382e-14
3.75822e-11
7.34047e-12
1.92143e-13
1.57788e-11
3.36275e-12
2.3316e-13
2.0699e-12
3.06459e-12
-3.81096e-14
1.60892e-12
4.18394e-12
-4.06134e-12
4.04892e-12
8.73488e-12
-7.74093e-12
1.32363e-11
1.98594e-11
-2.1974e-12
1.18932e-11
2.62578e-11
-2.9828e-12
1.47732e-11
2.05785e-11
-3.90735e-11
4.26268e-11
7.10378e-11
3.16505e-10
6.84392e-10
1.25137e-07
-1.36186e-07
6.84644e-07
3.31163e-07
-2.27894e-07
8.19916e-07
5.25519e-07
-2.17329e-07
7.81004e-07
6.51808e-07
-1.55338e-07
7.35634e-07
7.04293e-07
-8.88136e-08
7.03604e-07
6.91049e-07
-2.68567e-08
6.84973e-07
6.19316e-07
3.10391e-08
6.78742e-07
4.99252e-07
8.31293e-08
6.77194e-07
3.31947e-07
1.2818e-07
6.94753e-07
1.65817e-07
6.83346e-07
9.15446e-08
-2.33843e-07
6.69357e-07
3.00199e-07
-4.25306e-07
8.53803e-07
5.13543e-07