/*--------------------------------*- C++ -*----------------------------------*\
| =========                 |                                                 |
| \\      /  F ield         | OpenFOAM: The Open Source CFD Toolbox           |
|  \\    /   O peration     | Version:  2312                                  |
|   \\  /    A nd           | Website:  www.openfoam.com                      |
|    \\/     M anipulation  |                                                 |
\*---------------------------------------------------------------------------*/
FoamFile
{
    version     2.0;
    format      ascii;
    arch        "LSB;label=32;scalar=64";
    class       surfaceScalarField;
    location    "1.18";
    object      alphaPhi0.water;
}
// * * * * * * * * * * * * * * * * * * * * * * * * * * * * * * * * * * * * * //

dimensions      [0 3 -1 0 0 0 0];

oriented        oriented;

internalField   nonuniform List<scalar> 
22600
(
-6.43539e-08
2.04599e-07
-1.40245e-07
-8.07035e-08
2.44645e-07
-2.28295e-07
-5.73177e-08
2.76615e-07
-3.00001e-07
-3.39862e-08
2.36296e-07
-2.59628e-07
-3.22717e-08
1.70856e-07
-1.7257e-07
-4.08904e-08
1.23646e-07
-1.15027e-07
-4.23385e-08
9.27401e-08
-9.1292e-08
-2.37504e-08
6.5295e-08
-8.38831e-08
2.60206e-08
3.23077e-08
-8.20787e-08
-1.56305e-09
-8.59195e-08
-4.55367e-08
4.03124e-07
-1.52988e-07
-8.9001e-08
4.22461e-07
-1.34351e-07
-1.35633e-07
5.30154e-07
-2.06907e-07
-1.45155e-07
5.24534e-07
-2.78715e-07
-1.43787e-07
4.11483e-07
-2.41995e-07
-1.43598e-07
2.88794e-07
-1.65337e-07
-1.29064e-07
1.97242e-07
-1.19036e-07
-8.69377e-08
1.22785e-07
-9.96164e-08
-8.47835e-09
3.8888e-08
-8.50397e-08
-6.22069e-08
-6.61644e-08
9.49482e-08
3.74485e-07
-6.63091e-08
3.85093e-08
3.60279e-07
1.18621e-07
-1.5515e-07
6.62779e-07
6.10353e-08
-2.65706e-07
6.91678e-07
-5.65889e-08
-2.65638e-07
5.80313e-07
-1.68898e-07
-2.30825e-07
4.36487e-07
-1.82506e-07
-2.14023e-07
3.13993e-07
-1.33553e-07
-1.98044e-07
1.90165e-07
-8.33595e-08
-8.58398e-08
-6.72027e-08
-6.11335e-09
-3.50388e-07
6.68692e-08
1.68701e-07
8.91482e-08
1.16636e-07
1.35404e-07
9.88215e-08
2.94755e-07
-1.69368e-07
7.16765e-07
2.50785e-07
-4.12759e-07
7.7161e-07
1.6346e-07
-4.61354e-07
6.20216e-07
8.69237e-09
-4.36782e-07
4.97087e-07
-8.51729e-08
-4.26814e-07
3.71342e-07
-6.73172e-08
-3.39046e-07
9.07368e-08
1.16607e-08
-1.01539e-07
-4.25584e-07
1.20874e-07
-7.4708e-07
1.51723e-07
-5.85082e-08
-1.91019e-08
1.66758e-07
-1.82679e-07
1.06054e-07
1.16938e-07
-4.57421e-07
7.32168e-07
2.59339e-07
-6.78175e-07
7.51337e-07
2.41026e-07
-7.10799e-07
5.39093e-07
1.13748e-07
-6.47812e-07
4.1365e-07
2.045e-08
-5.21641e-07
2.27762e-07
1.74091e-08
-2.62186e-07
-2.20407e-07
5.1688e-08
-1.55161e-08
-7.26859e-07
5.46059e-08
-8.8968e-07
-1.53489e-09
-2.57655e-07
5.46619e-07
-3.08066e-07
-3.82082e-07
6.53607e-07
-4.23126e-07
-5.78103e-07
9.43761e-07
-1.55714e-08
-7.10812e-07
8.57518e-07
2.65282e-08
-7.26288e-07
6.39744e-07
-8.51747e-08
-6.61416e-07
4.71944e-07
-1.23165e-07
-5.14537e-07
1.79393e-07
-9.85106e-08
-2.84247e-07
-3.522e-07
-9.84963e-08
-1.4408e-07
-7.16712e-07
-1.50317e-07
-8.66823e-07
-1.98693e-07
-3.27925e-07
1.07828e-06
-7.59442e-07
-5.01492e-07
1.19996e-06
-9.02011e-07
-6.42773e-07
1.31963e-06
-6.48587e-07
-8.07086e-07
1.3087e-06
-5.91054e-07
-9.21006e-07
1.34953e-06
-5.95868e-07
-9.14938e-07
1.002e-06
-5.36121e-07
-7.78647e-07
4.92726e-07
-4.49624e-07
-6.6426e-07
-6.41769e-08
-4.0247e-07
-4.66476e-07
-4.58581e-07
-4.56142e-07
-7.37706e-07
-5.23742e-07
-3.26544e-07
1.31906e-08
-1.49238e-07
-4.71313e-07
5.89864e-08
-3.6972e-07
-7.23868e-07
1.44242e-07
-3.89835e-07
-1.11132e-06
2.54702e-07
-2.85715e-07
-1.48868e-06
3.41517e-07
-2.21425e-07
-1.64397e-06
3.2144e-07
-2.735e-07
-1.55622e-06
2.00957e-07
-3.63064e-07
-1.23743e-06
1.22334e-08
-3.82449e-07
-7.27674e-07
-1.48882e-07
-3.94194e-07
-2.38652e-07
-4.51917e-07
-1.96648e-08
3.24715e-09
-7.61571e-09
-3.98161e-08
7.53637e-09
-3.15639e-10
-6.519e-08
2.73005e-09
-1.49122e-09
-1.23604e-07
6.26531e-09
-7.85195e-10
-1.53174e-07
5.64836e-09
-5.74561e-09
-1.2112e-07
8.51137e-09
-1.1577e-08
-2.37151e-08
3.74481e-09
-1.1534e-08
-2.43545e-08
-6.85124e-10
-5.69592e-09
-3.96549e-08
-2.04385e-09
1.42436e-09
-1.34675e-09
1.05004e-08
-1.16444e-09
2.37357e-09
2.25279e-10
-1.7677e-09
2.66121e-09
2.89261e-09
-1.85956e-09
-2.54001e-10
5.61614e-09
-3.58093e-09
-3.59062e-10
7.65162e-09
-5.0623e-09
-6.92475e-10
7.65694e-09
-2.73781e-09
-1.04718e-09
5.51676e-09
-5.78486e-10
-2.61113e-09
2.81479e-09
-4.52664e-11
-2.48138e-09
4.30989e-10
-2.75062e-11
-2.12451e-09
1.2751e-10
-1.34394e-09
8.27024e-11
-1.82411e-10
1.5669e-09
5.05069e-10
-7.12807e-10
7.9747e-11
1.5065e-09
-3.00944e-09
-6.04435e-11
2.08067e-09
-3.43022e-09
-1.13845e-10
1.7386e-09
-2.86149e-09
-9.06779e-10
7.46929e-10
-2.20097e-09
-3.13741e-09
4.40187e-10
-2.23194e-09
-4.12294e-09
9.31541e-11
-1.53388e-09
-2.12295e-09
-5.40729e-11
-8.17357e-10
-1.89221e-09
-3.89445e-11
-8.17316e-10
4.95946e-12
-3.62447e-10
1.13599e-09
5.00652e-10
-1.30181e-09
-5.08311e-10
3.08434e-09
-6.1391e-10
7.07816e-11
3.86471e-10
-1.40365e-09
1.86354e-11
6.17256e-11
-2.63649e-09
-5.6308e-10
-2.01689e-10
-3.07522e-09
-1.44432e-09
-9.39372e-10
-3.3476e-09
-2.28533e-09
-1.3097e-09
-2.51766e-09
-1.81967e-09
-8.45251e-10
-1.14983e-09
-7.65436e-11
-3.43402e-11
-9.68574e-11
-2.42985e-11
-7.27808e-10
8.81387e-10
5.69489e-10
-1.226e-09
-5.27697e-10
1.26305e-09
-1.18132e-09
4.80791e-10
1.22956e-10
-3.34523e-09
3.08132e-10
-9.41449e-11
-3.483e-09
4.17071e-10
-7.46915e-10
-3.03642e-09
-5.01508e-10
-1.07879e-09
-2.98038e-09
-9.94743e-10
-1.03163e-09
-8.95516e-11
-3.53073e-11
-1.13209e-10
-7.14655e-11
-6.39746e-11
-4.10148e-11
-7.72101e-11
-4.96475e-11
-9.12655e-10
9.86567e-10
5.87752e-10
-1.44846e-09
-2.52595e-10
8.29992e-10
-7.48387e-10
8.91375e-10
-8.63542e-12
-1.08963e-09
2.50422e-10
-4.75803e-10
-2.55654e-09
5.6521e-10
-9.79945e-10
-2.42771e-09
2.68054e-10
-5.83398e-10
-9.43084e-11
-1.08963e-11
-9.49819e-11
-1.21902e-10
-4.27471e-11
-1.02538e-11
-1.06659e-10
-7.34243e-11
-3.80202e-11
-3.90859e-11
-1.06539e-10
-1.05343e-09
1.70164e-09
4.80498e-10
-1.45805e-09
-8.31999e-11
6.48608e-10
-5.67047e-10
1.42251e-09
1.14125e-10
-3.40977e-10
1.5615e-10
-1.51824e-10
-3.59018e-10
1.11827e-10
-8.33847e-11
-5.75766e-11
3.79788e-11
9.10245e-11
-9.0712e-11
-1.14901e-11
9.17568e-12
-1.79087e-10
-3.49711e-11
2.50452e-11
-2.3948e-10
-2.63765e-10
1.46575e-11
-2.825e-10
-3.09038e-12
-1.20201e-09
1.18396e-09
1.74619e-10
-1.40756e-09
3.03664e-10
2.31007e-10
-1.12293e-10
6.02343e-10
2.72172e-10
-3.07153e-11
5.28883e-11
9.73943e-12
-2.30913e-11
5.33847e-11
3.88244e-11
-3.78213e-11
8.15918e-12
2.70371e-11
-7.41628e-11
-7.63191e-12
2.08009e-11
-1.23951e-10
-3.87265e-11
2.97606e-11
-9.61977e-10
-4.25436e-10
6.93786e-11
-1.27372e-09
3.109e-11
-7.66816e-10
4.40479e-10
-3.16154e-12
-1.18517e-09
3.65073e-10
-9.30399e-11
-2.02124e-11
-1.78314e-12
6.76756e-11
-8.9704e-12
1.62903e-11
1.3637e-11
-1.28691e-11
2.31152e-11
2.20555e-11
-2.33274e-11
-7.64605e-11
4.01347e-11
-1.37052e-11
-2.65093e-11
2.47653e-11
-8.63067e-11
-1.11861e-12
2.59497e-11
-1.62301e-09
-2.17183e-10
5.02347e-11
-1.00875e-09
-4.45718e-11
-8.69881e-11
1.33647e-10
-2.43854e-11
-9.98632e-11
2.02123e-11
-1.8468e-11
-4.34467e-11
-4.41853e-12
1.48996e-11
-1.29524e-10
-1.21478e-11
3.44361e-11
-2.7249e-10
-1.63342e-10
1.6172e-10
-3.65428e-10
-2.55477e-10
2.69704e-10
-1.54246e-10
-2.43082e-10
1.47837e-10
-3.95578e-11
-1.40715e-10
2.10369e-11
-3.12823e-10
-3.52274e-11
9.56084e-12
-3.17254e-10
-1.30442e-10
-6.74512e-13
1.2783e-10
-1.40604e-12
-8.3847e-12
2.6545e-11
-3.0229e-12
-1.18107e-10
1.8165e-11
4.97681e-12
-3.9263e-10
-7.8247e-11
7.92784e-11
-4.86533e-10
-3.04763e-10
2.33072e-10
-6.22675e-10
-4.12502e-10
2.97551e-10
-6.89939e-10
-4.31333e-10
2.66531e-10
-3.33389e-10
-4.03727e-10
1.19088e-10
-9.45255e-11
-1.82789e-10
4.89526e-12
-8.68107e-11
-7.36914e-12
2.285e-11
-4.96047e-13
4.38682e-10
-5.49736e-13
-1.39316e-12
4.54529e-11
-3.30953e-12
2.26573e-12
1.40259e-11
-1.81954e-10
4.64868e-11
-1.01671e-11
-4.97693e-10
1.77253e-10
-1.79941e-10
-7.02132e-10
2.38651e-10
-4.35697e-10
-8.20433e-10
2.37701e-10
-5.38142e-10
-8.31354e-10
1.5445e-10
-5.34262e-10
-3.14215e-10
1.7326e-11
-4.70146e-10
-6.92619e-12
-2.54264e-10
-1.36812e-07
2.17358e-07
-2.20791e-07
-1.03531e-07
2.58768e-08
-2.87454e-07
2.5387e-08
-4.7108e-08
-3.8181e-07
1.09952e-07
2.73441e-08
-3.71537e-07
1.23297e-07
8.17634e-08
-2.67679e-07
1.10309e-07
7.29797e-08
-1.75019e-07
9.77616e-08
4.81833e-08
-1.26928e-07
9.327e-08
2.57836e-08
-1.05175e-07
9.93491e-08
5.56636e-09
-9.37242e-08
-2.4826e-08
-9.22436e-08
1.92951e-09
3.26942e-07
-2.64503e-07
1.81572e-07
-2.31672e-07
-5.64432e-08
2.08749e-07
-2.18052e-07
-6.31352e-08
1.71412e-07
4.2954e-08
-2.56988e-07
1.10271e-07
2.35563e-07
-3.34655e-07
5.73001e-08
2.16829e-07
-2.56215e-07
3.52711e-08
1.23156e-07
-1.71979e-07
4.2144e-08
4.67683e-08
-1.27474e-07
6.92055e-08
-4.27804e-09
-1.02257e-07
-8.41959e-08
-7.56142e-08
2.7819e-07
1.64917e-07
-1.82473e-07
5.05333e-07
-6.72511e-07
3.32316e-07
3.51236e-07
-3.67214e-07
3.64282e-07
1.38006e-07
9.22032e-08
1.07398e-07
5.44012e-08
3.46717e-07
-1.96447e-07
3.38843e-08
3.40817e-07
-2.85976e-07
2.83486e-08
2.0838e-07
-2.13241e-07
1.43776e-08
1.05131e-07
-1.27751e-07
2.61187e-08
1.67655e-08
-3.88978e-08
-2.33555e-07
8.07591e-08
3.30492e-07
-7.16983e-08
2.27592e-08
2.78371e-07
-7.4345e-07
4.17683e-07
-3.53266e-08
-2.59271e-07
4.56469e-07
-2.81974e-07
1.72673e-07
3.29638e-07
-2.73463e-07
3.24492e-07
2.24064e-08
-1.79229e-07
3.41093e-07
-1.79683e-07
-1.51265e-07
2.7032e-07
-1.57221e-07
-1.51482e-07
1.55014e-07
-3.80054e-08
-2.85791e-08
-1.04637e-07
1.19374e-07
-5.12453e-07
2.37923e-07
4.70066e-08
1.8111e-07
-1.33057e-07
-2.5879e-07
-2.38864e-07
-8.18199e-08
-5.83852e-07
1.07829e-07
2.17301e-07
-7.10354e-07
2.39568e-07
3.00634e-07
-6.2093e-07
2.30208e-07
1.18608e-07
-4.48393e-07
2.12791e-07
-2.37856e-08
-2.71769e-07
1.33729e-07
-2.26234e-08
-2.91924e-08
-8.29659e-08
4.70912e-08
2.35867e-07
-4.12259e-07
9.71673e-08
-6.69119e-07
1.23263e-07
-8.98198e-09
8.27628e-07
-9.45602e-07
-4.0946e-07
6.61384e-07
-9.22896e-07
-6.08048e-07
6.87404e-07
-3.96558e-07
-6.24607e-07
5.65995e-07
-2.8334e-07
-5.44373e-07
4.06315e-07
-3.41516e-07
-3.89413e-07
2.57088e-07
-3.22424e-07
-1.59776e-07
7.01454e-08
-2.64564e-07
1.55232e-07
-2.91458e-07
-2.05012e-07
3.5136e-07
-5.6786e-07
-1.90845e-07
-6.71781e-07
-1.68832e-07
8.75192e-09
1.10739e-06
-1.58652e-06
-4.86517e-07
1.23013e-06
-1.5007e-06
-7.97863e-07
1.28786e-06
-1.35127e-06
-8.59201e-07
1.1171e-06
-1.38295e-06
-7.90677e-07
8.70407e-07
-1.31979e-06
-6.08759e-07
6.75417e-07
-1.13637e-06
-3.39269e-07
3.29533e-07
-9.78501e-07
-1.29032e-07
-4.7758e-08
-8.5645e-07
2.8713e-08
-4.16668e-07
-7.65228e-07
-6.37522e-07
-7.1062e-07
-3.7649e-07
8.74811e-09
-3.22398e-07
-7.74949e-07
7.68178e-08
-5.07084e-07
-1.18106e-06
1.67581e-07
-5.90676e-07
-1.48657e-06
2.37271e-07
-5.77971e-07
-1.6108e-06
2.57367e-07
-6.24921e-07
-1.52877e-06
2.25081e-07
-7.79605e-07
-1.2676e-06
1.4949e-07
-8.75198e-07
-9.36359e-07
2.62475e-08
-8.61063e-07
-5.57957e-07
-1.1862e-07
-8.21537e-07
-2.26247e-07
-8.01611e-07
-5.10784e-08
4.66831e-09
2.61253e-09
-8.04612e-08
6.28388e-09
-2.60523e-09
-1.35198e-07
1.9991e-09
-1.0919e-08
-2.20512e-07
1.22315e-09
-1.66166e-08
-2.50233e-07
3.59848e-09
-2.11316e-08
-2.29488e-07
7.4638e-09
-1.93299e-08
-1.66425e-07
-4.65646e-10
-1.58329e-08
-1.40658e-07
-1.15738e-09
-9.92581e-09
-1.23489e-07
-3.82291e-10
5.72565e-10
-2.21992e-10
5.44457e-09
-2.95431e-09
2.21784e-09
3.7591e-09
-2.70372e-09
1.26122e-09
5.88957e-09
-3.22986e-09
-8.15536e-10
1.00917e-08
-7.35448e-09
1.05906e-11
1.21526e-08
-7.53868e-09
3.6059e-10
1.03999e-08
-1.95023e-09
-2.09329e-11
5.96011e-09
-1.68408e-10
-8.50803e-10
1.39825e-09
-1.10039e-10
-9.16516e-10
1.39203e-10
-1.17105e-10
-2.95382e-10
6.38271e-11
-9.05991e-11
2.36582e-11
-5.86789e-10
1.33831e-09
1.65128e-09
-1.6998e-09
-3.23424e-10
2.97301e-09
-1.2881e-09
3.77333e-10
2.19195e-09
-1.06288e-09
2.98881e-10
9.87727e-10
-9.21838e-10
8.11306e-13
6.09558e-10
-1.58565e-09
-7.1001e-10
3.04534e-10
-1.76792e-09
-1.47064e-09
1.35984e-10
-1.25367e-09
-1.03805e-09
6.45371e-11
-5.50396e-10
-3.09589e-11
-1.44218e-12
-1.3284e-11
-4.41739e-12
-8.21568e-10
1.2536e-09
1.22447e-09
-1.09103e-09
-1.90547e-10
4.42713e-09
-3.74787e-10
1.4468e-10
2.03555e-10
-3.61235e-10
1.21183e-10
7.80356e-11
-1.10899e-09
-3.0978e-11
9.62324e-12
-3.02627e-09
-1.44574e-09
-6.14831e-11
-3.19748e-09
-2.19311e-09
-8.00558e-11
-1.07471e-10
-3.77161e-10
-7.09148e-11
-6.96226e-11
-6.44777e-11
-4.29899e-11
-2.95814e-11
-4.60153e-11
-1.4981e-09
1.191e-09
2.25285e-09
-5.87497e-10
2.63059e-10
1.15466e-09
-4.12459e-10
1.84109e-10
4.42844e-11
-9.2522e-10
4.71118e-10
-2.56321e-11
-3.953e-09
-3.3511e-10
-2.22846e-10
-4.12434e-09
-1.5541e-09
-4.84097e-10
-1.9997e-09
-1.90194e-09
-1.18295e-09
-3.0721e-10
-1.60206e-10
-2.10207e-10
-1.42824e-10
-2.25816e-10
-4.95052e-11
-2.17312e-10
-3.32836e-11
-1.49016e-09
1.26911e-09
2.38839e-09
-1.02754e-09
1.07378e-09
5.75345e-10
-1.22144e-09
3.4638e-10
-2.46234e-11
-3.90642e-09
1.17949e-09
-4.53251e-10
-3.76366e-09
-1.67396e-10
-9.33078e-10
-3.52749e-09
-1.12475e-09
-9.06701e-10
-7.715e-10
-1.21509e-10
-5.39186e-10
-8.53497e-10
-2.85933e-10
-1.47221e-10
-1.41152e-09
-1.46398e-09
-1.92058e-11
-1.66954e-09
-1.29793e-11
-1.50983e-09
1.58839e-09
2.02945e-09
-9.14327e-10
1.57907e-09
5.25901e-10
-7.6812e-10
3.12402e-10
-5.24509e-11
-2.51977e-09
7.27626e-10
-4.25816e-10
-2.44587e-09
3.15599e-10
-2.82951e-10
-3.91839e-10
-1.96931e-11
6.84747e-12
-4.85578e-10
-3.50559e-11
4.77826e-12
-2.15699e-09
-2.44235e-10
1.47361e-11
-2.11055e-09
-1.35097e-09
-4.40755e-12
-1.89251e-09
-4.99313e-12
-1.61514e-09
1.96722e-09
1.76933e-09
-7.50936e-10
1.15391e-09
4.90724e-10
-3.62519e-10
1.70623e-10
2.48718e-12
-2.20768e-10
1.06998e-10
-8.43781e-12
-4.75324e-11
3.42195e-11
1.97136e-10
-8.13033e-11
9.43472e-15
3.09668e-11
-1.01475e-10
-4.33351e-12
2.14678e-11
-1.53199e-09
-5.53927e-11
3.0415e-11
-1.90926e-09
-6.67875e-10
-9.42572e-11
-1.59333e-09
-1.54596e-10
-1.35885e-09
2.38228e-09
1.29903e-09
-1.8943e-10
4.22018e-10
3.60687e-10
-6.61423e-11
7.36863e-11
2.61931e-11
-2.57933e-11
4.78868e-11
2.06802e-11
-2.56765e-11
2.14588e-11
3.85189e-11
-2.80871e-11
-1.07931e-11
3.36672e-11
-1.98479e-11
-6.66259e-12
2.60623e-11
-1.35538e-10
-3.93859e-12
1.76203e-11
-1.35866e-09
-1.33057e-10
-9.52633e-11
-8.08588e-10
-4.23525e-10
-7.49517e-10
9.45733e-11
3.73975e-10
-4.96377e-11
2.48321e-11
2.42398e-10
-4.40932e-11
3.73234e-11
2.91299e-11
-6.37693e-11
4.78046e-11
3.90625e-11
-2.25954e-10
-8.13765e-11
1.44194e-10
-3.07843e-10
-2.00116e-10
1.24996e-10
-6.17801e-11
-5.08134e-11
4.43859e-11
-5.35108e-11
-1.9445e-12
8.25547e-12
-1.82142e-10
-4.54296e-12
-5.99686e-12
-1.12753e-10
-2.52412e-10
-2.27114e-11
7.61393e-11
1.62559e-11
-3.04228e-11
1.63209e-11
7.31118e-12
-6.09048e-11
2.4436e-11
3.66412e-11
-4.92053e-10
2.91617e-11
3.88746e-11
-5.89375e-10
-2.84688e-10
4.7566e-10
-5.20025e-10
-4.03055e-10
4.28889e-10
-1.41147e-10
-1.27376e-10
6.38829e-11
-2.7258e-11
-4.09994e-12
1.04757e-11
-2.72694e-11
-1.30017e-12
-2.21736e-12
-1.26147e-11
-3.72131e-11
-4.68331e-12
3.38923e-13
6.61411e-11
-8.99692e-12
7.87213e-14
1.14285e-11
-2.63976e-11
7.68589e-12
3.20574e-11
-2.45215e-10
1.13042e-10
-3.36635e-12
-5.41852e-10
2.08935e-10
-1.52483e-10
-6.69416e-10
2.38343e-10
-2.69416e-10
-1.62087e-10
7.76285e-11
-1.40273e-10
-3.2771e-11
1.0365e-11
-2.2022e-11
-2.43845e-11
-1.05062e-12
-1.75395e-12
-3.88773e-11
-2.76699e-13
-2.3664e-07
2.44087e-07
-2.28237e-07
-1.82641e-07
-1.74785e-07
-1.66668e-07
8.73114e-08
-4.94949e-07
-1.56814e-07
2.4068e-07
-3.44838e-07
-1.80068e-07
2.23283e-07
-7.19797e-08
-1.78302e-07
1.61995e-07
3.38163e-08
-1.47548e-07
1.21704e-07
3.01674e-08
-1.16804e-07
1.04894e-07
6.64526e-09
-9.50107e-08
1.02684e-07
-1.49196e-08
-7.65938e-08
-5.16511e-08
-6.49475e-08
-9.85272e-08
4.27159e-07
-3.49048e-07
1.80253e-07
-4.99627e-07
-1.03814e-08
3.98919e-07
-8.89529e-07
1.12778e-07
4.17225e-07
-5.7625e-07
-4.38742e-08
2.98767e-07
-8.08727e-08
-2.07304e-07
1.533e-07
1.42043e-07
-2.18975e-07
7.71961e-08
1.03792e-07
-1.695e-07
6.40646e-08
1.88197e-08
-1.26517e-07
8.60144e-08
-4.69414e-08
-9.21847e-08
-1.18545e-07
-6.10973e-08
1.32415e-07
4.95394e-07
-3.83123e-07
4.75372e-07
-7.40354e-07
2.30177e-07
5.00792e-07
-9.57371e-07
4.06913e-07
3.91939e-07
-5.23985e-07
1.64036e-07
2.92036e-07
-2.66203e-08
-1.50797e-07
1.817e-07
2.37384e-07
-2.70982e-07
1.10783e-07
1.86656e-07
-2.25188e-07
9.76008e-08
5.64585e-08
-1.52207e-07
9.24005e-08
2.0847e-09
-8.27235e-08
-1.1492e-07
6.39629e-09
2.52483e-07
6.15846e-07
-3.50176e-07
2.67182e-07
-5.05921e-07
1.68594e-07
6.70785e-08
-6.64681e-07
3.63943e-07
-5.98209e-08
-2.95273e-07
2.27806e-07
-3.48043e-08
6.21483e-08
-9.13787e-08
1.33665e-08
2.76372e-07
-2.66841e-07
1.87862e-08
2.7122e-07
-2.47205e-07
-1.21456e-08
1.85769e-07
-1.36383e-07
6.07191e-09
1.10795e-07
-7.55364e-09
-1.4838e-07
1.27615e-07
2.16524e-07
8.89694e-07
-6.23429e-07
-1.03529e-07
1.55404e-07
-4.23357e-07
-4.50635e-07
-4.7341e-08
-5.32136e-08
-5.61062e-07
6.73021e-08
4.84852e-08
-4.60484e-07
1.4053e-07
-6.03515e-08
-2.69006e-07
2.17639e-07
-1.5653e-07
-1.10755e-07
2.28258e-07
-1.37913e-07
-8.8743e-10
1.80287e-07
-5.72952e-08
1.15762e-07
9.25621e-08
-1.24913e-09
-1.82689e-07
6.9283e-08
1.30765e-07
1.15351e-06
-1.34018e-06
-2.35311e-07
7.72116e-07
-1.17353e-06
-5.8666e-07
6.9346e-07
-7.86009e-07
-6.62397e-07
5.15129e-07
-6.5543e-07
-5.77768e-07
2.75067e-07
-5.60681e-07
-3.90629e-07
1.41091e-07
-4.33016e-07
-1.554e-07
6.35749e-08
-3.3511e-07
8.72878e-08
-3.43099e-09
-2.63982e-07
2.7482e-07
-4.39083e-08
-2.41906e-07
-1.78884e-07
-2.01648e-07
7.22475e-09
1.07328e-06
-1.92776e-06
-5.21375e-07
1.14149e-06
-1.77261e-06
-8.94403e-07
1.18722e-06
-1.81415e-06
-9.66034e-07
8.58921e-07
-1.87394e-06
-8.92876e-07
4.38057e-07
-1.6601e-06
-7.14819e-07
1.44103e-07
-1.33755e-06
-4.90366e-07
5.00944e-10
-1.13973e-06
-2.38345e-07
-1.44644e-07
-9.67268e-07
3.44352e-08
-2.91233e-07
-7.90701e-07
-4.30904e-07
-6.60267e-07
-3.78624e-07
-6.72101e-09
-5.31303e-07
-7.98184e-07
5.6172e-08
-7.12286e-07
-1.15336e-06
1.46311e-07
-9.11934e-07
-1.38904e-06
1.9995e-07
-1.04656e-06
-1.48267e-06
1.79759e-07
-1.17777e-06
-1.43304e-06
1.10129e-07
-1.31165e-06
-1.22243e-06
-1.11375e-08
-1.29462e-06
-8.8009e-07
-1.31855e-07
-1.18923e-06
-4.73599e-07
-2.51263e-07
-1.04439e-06
-3.53666e-07
-9.24095e-07
-7.29889e-08
4.99638e-09
2.04341e-08
-9.53491e-08
4.53826e-09
-7.12535e-09
-1.40238e-07
-8.29728e-10
-2.63449e-08
-1.92938e-07
1.74283e-09
-4.0545e-08
-2.17099e-07
2.71748e-09
-4.50111e-08
-2.35106e-07
5.4103e-09
-6.90755e-08
-2.61794e-07
1.8102e-09
-1.00181e-07
-2.66907e-07
-1.57745e-10
-1.2099e-07
-2.29811e-07
-3.88404e-10
-1.23296e-07
-1.13029e-09
-1.37068e-07
-4.89774e-09
3.00242e-10
1.17451e-08
-2.76935e-09
-2.53083e-10
1.14026e-08
-4.88759e-09
-1.703e-09
1.35515e-08
-9.70491e-09
1.71293e-09
1.57081e-08
-8.61123e-09
7.96325e-10
1.06936e-08
-2.74344e-09
8.296e-11
5.14511e-09
-1.34436e-10
-1.59697e-10
9.10672e-10
-1.52184e-10
-4.4403e-12
1.28299e-11
-2.42758e-10
-6.89178e-12
-1.89935e-10
-3.4471e-11
-9.6214e-10
-1.54101e-09
6.33405e-10
2.91911e-09
-2.13953e-09
-1.7605e-09
6.87654e-09
-1.33561e-09
8.70841e-11
2.94809e-09
-9.78627e-10
4.66381e-10
1.73062e-09
-4.36719e-10
2.0452e-10
6.21873e-10
-2.98657e-10
1.13594e-10
1.17177e-10
-1.46838e-10
9.72983e-11
9.18692e-12
-1.39501e-10
7.36304e-11
-4.42125e-12
-1.32063e-10
7.99806e-11
-2.05506e-11
1.00055e-10
-6.68194e-11
-9.27654e-10
1.1228e-09
1.39911e-09
-1.12972e-09
-3.78217e-10
4.36151e-09
-3.55691e-10
3.80635e-10
7.33252e-10
-1.76642e-10
1.75537e-10
1.51525e-10
-1.03579e-10
9.49572e-11
3.26872e-11
-9.31891e-11
4.898e-11
-1.35388e-11
-8.64044e-11
2.95672e-11
-1.97725e-11
-8.54685e-11
3.60073e-11
-1.11038e-11
-7.86592e-11
6.04159e-11
-1.07319e-11
7.16072e-11
-2.89902e-11
-1.09551e-09
1.27616e-09
9.23098e-10
-3.05709e-10
1.04222e-10
1.6606e-09
-1.81972e-10
1.54773e-10
5.20391e-11
-3.39624e-10
2.15362e-10
1.49809e-11
-1.12451e-09
2.4052e-10
1.59604e-11
-1.71893e-09
-2.92753e-10
3.57882e-11
-1.305e-09
-8.21902e-10
9.79532e-12
-3.5993e-10
-6.36375e-10
9.20614e-12
-6.41274e-11
-2.77294e-11
-1.88607e-12
2.86241e-11
-1.81824e-11
-1.10845e-09
1.39784e-09
2.94064e-09
-7.27159e-10
6.07964e-10
9.35948e-10
-8.36355e-10
4.04763e-10
2.13695e-11
-3.54847e-09
1.56886e-09
-9.66617e-11
-4.55395e-09
6.51305e-10
1.9116e-11
-4.85953e-09
-4.5526e-10
-3.27175e-11
-5.50148e-09
-2.3748e-10
-3.47307e-11
-4.13607e-09
-1.25411e-09
7.1858e-11
-7.34073e-10
-9.38343e-10
1.25097e-10
-7.91978e-10
7.0551e-11
-1.51122e-09
1.45557e-09
2.14164e-09
-1.22401e-09
7.06478e-10
1.03009e-09
-2.08447e-10
1.12363e-09
6.26082e-11
-2.73455e-09
8.2499e-10
-1.36063e-10
-2.58067e-09
4.79598e-10
5.45118e-12
-4.50821e-10
-1.54555e-10
-6.71055e-11
-5.46175e-10
-3.12699e-11
-1.35548e-11
-2.06514e-09
-1.49228e-10
-1.05814e-10
-2.09005e-09
-7.35286e-10
-1.95134e-10
-1.31727e-09
1.79012e-11
-1.82474e-09
1.19242e-09
1.01385e-09
-1.66587e-09
3.2142e-10
9.44481e-10
-6.72523e-10
1.69035e-09
4.55558e-10
-8.65663e-10
1.50393e-10
-4.02932e-12
-5.73679e-10
1.12114e-10
2.62819e-10
-1.3288e-10
-2.22254e-14
2.31401e-10
1.41922e-12
2.14482e-12
1.87612e-11
-2.49564e-10
-1.95802e-12
-2.00597e-12
-1.87774e-09
-2.2972e-10
-2.06321e-10
-9.1797e-10
-4.30895e-10
-1.26277e-09
7.11034e-10
3.98985e-10
-1.37709e-09
3.38926e-10
1.36721e-09
-4.80679e-10
8.64948e-10
6.5498e-10
-5.31048e-11
1.64491e-10
9.91228e-11
-2.18691e-11
3.73127e-11
1.02541e-10
-1.91478e-11
2.53453e-12
4.16462e-11
-1.6782e-11
4.11391e-12
4.08727e-11
8.98718e-12
6.73774e-12
1.17106e-11
-5.17681e-10
-3.87394e-12
-2.25733e-11
-2.69251e-10
-3.3795e-10
-4.65237e-10
7.31708e-11
1.25307e-10
-1.58654e-09
1.47375e-10
4.83697e-10
-1.0768e-10
1.40742e-10
9.3314e-10
-2.69726e-11
5.45321e-11
1.33097e-10
-2.46597e-11
4.36489e-11
1.29421e-10
-1.50277e-11
1.37467e-11
7.56273e-11
-1.14222e-11
3.68754e-12
3.86898e-11
-1.19066e-11
2.99965e-12
1.02278e-11
-2.18574e-11
1.30622e-12
-3.74416e-12
-1.14082e-11
-9.18842e-11
-1.11604e-12
4.7666e-11
1.4036e-11
-1.41162e-10
3.00656e-11
2.2073e-11
-5.76964e-11
-5.22756e-12
2.22062e-10
-5.60463e-11
2.4647e-11
1.71191e-10
-4.15314e-11
7.11036e-11
2.87526e-10
-2.19189e-11
2.29425e-11
2.89752e-10
-9.56591e-12
2.09282e-12
5.24529e-11
-8.19715e-12
1.70218e-12
8.86138e-12
-1.29486e-11
1.95524e-12
-3.65995e-13
8.12082e-12
-4.21219e-11
1.07712e-11
-4.21938e-13
2.19603e-11
-8.33056e-13
8.75483e-13
2.8989e-11
-6.48195e-12
1.20126e-11
-6.82434e-13
-7.05373e-11
1.44868e-10
9.83999e-12
-1.13782e-10
3.95732e-11
4.00955e-11
-4.18522e-11
1.90158e-10
1.38378e-11
-9.22546e-12
4.74934e-11
8.39114e-13
-8.68418e-12
1.06498e-11
9.12308e-13
-1.26525e-11
-9.40764e-14
3.42401e-12
-3.21377e-11
4.45463e-11
-2.08956e-07
1.94016e-07
-2.13297e-07
-2.11783e-07
-1.07969e-07
-5.58723e-08
4.35997e-08
-4.4464e-07
3.24428e-08
2.06824e-07
-3.32695e-07
-1.05968e-08
2.03951e-07
-9.9912e-08
-7.55172e-08
1.52651e-07
7.66606e-09
-1.03913e-07
1.14796e-07
2.19395e-08
-1.00889e-07
9.98788e-08
6.78972e-09
-8.68834e-08
1.01555e-07
-1.38118e-08
-6.44582e-08
-4.35496e-08
-4.448e-08
-2.10907e-07
4.15895e-07
-3.60021e-07
-5.24967e-08
-2.54831e-07
-2.19291e-08
2.36326e-07
-8.0102e-07
1.80335e-07
3.63498e-07
-5.96137e-07
9.23963e-08
2.80941e-07
-1.52008e-07
-7.26499e-08
1.46891e-07
7.25465e-08
-1.49806e-07
7.68586e-08
6.63183e-08
-1.43846e-07
6.96239e-08
2.6426e-11
-1.12519e-07
9.53783e-08
-6.50919e-08
-6.66589e-08
-1.20208e-07
-2.68923e-08
-2.00218e-08
5.51531e-07
-4.98739e-07
2.41384e-07
-2.90926e-07
4.89441e-09
4.10059e-07
-8.33903e-07
2.71293e-07
4.58862e-07
-6.44206e-07
1.6337e-07
3.71526e-07
-1.50228e-07
-6.52393e-08
2.15439e-07
1.44036e-07
-1.86383e-07
1.12242e-07
1.32581e-07
-1.88254e-07
9.47955e-08
1.01482e-08
-1.44882e-07
1.08388e-07
-6.28445e-08
-9.85637e-08
-1.15643e-07
-4.65527e-08
1.44228e-07
7.30548e-07
-6.7342e-07
2.78012e-07
-1.17581e-08
-2.44422e-07
2.52552e-07
-5.12475e-07
6.81722e-08
2.24322e-07
-4.26774e-07
3.86613e-08
2.13764e-07
-8.35987e-08
-1.4745e-07
1.57536e-07
1.96332e-07
-2.6291e-07
7.89319e-08
2.22818e-07
-2.58838e-07
3.01732e-08
1.10663e-07
-1.88139e-07
4.08146e-08
3.45461e-08
-1.15586e-07
-4.98896e-08
-5.79656e-08
2.28087e-07
9.10608e-07
-1.03158e-06
1.52805e-07
4.04906e-07
-7.64917e-07
-7.46074e-08
3.4023e-08
-3.72411e-07
-1.67281e-07
-4.58814e-08
-2.39781e-07
-1.11063e-07
5.31021e-08
-2.53271e-07
-2.31361e-08
2.11401e-07
-2.59526e-07
2.1676e-08
2.60005e-07
-2.19912e-07
1.02242e-08
2.13734e-07
-1.48915e-07
2.2261e-08
1.46596e-07
-1.25336e-07
2.31865e-09
-1.22292e-07
1.70898e-07
9.20817e-07
-1.52128e-06
-5.57236e-08
6.84269e-07
-1.22627e-06
-3.58434e-07
5.20181e-07
-9.69457e-07
-4.61142e-07
2.52999e-07
-8.51602e-07
-3.89231e-07
8.37142e-08
-6.63204e-07
-2.31311e-07
1.16503e-07
-4.96037e-07
-7.99047e-08
1.57729e-07
-3.84241e-07
1.45893e-09
1.86931e-07
-3.18542e-07
6.28331e-08
1.54941e-07
-3.11626e-07
-2.27366e-08
-3.28915e-07
-1.73305e-07
8.3002e-07
-1.93656e-06
-6.17676e-07
8.69283e-07
-1.79552e-06
-9.20614e-07
8.02045e-07
-2.00326e-06
-1.0009e-06
3.69874e-07
-2.01637e-06
-9.2671e-07
3.02464e-08
-1.69113e-06
-7.64323e-07
-2.69403e-08
-1.35649e-06
-5.70612e-07
-5.20399e-08
-1.12367e-06
-3.47664e-07
-9.97399e-08
-9.03545e-07
-6.85072e-08
-1.85019e-07
-7.29897e-07
-3.46488e-07
-6.66145e-07
-3.61264e-07
3.05237e-08
-7.766e-07
-7.39135e-07
7.39215e-08
-9.73046e-07
-1.08362e-06
1.35914e-07
-1.26693e-06
-1.36055e-06
1.51121e-07
-1.57112e-06
-1.47913e-06
7.48448e-08
-1.7612e-06
-1.41331e-06
-5.51338e-08
-1.7048e-06
-1.21813e-06
-1.4976e-07
-1.53883e-06
-8.55504e-07
-2.75495e-07
-1.29475e-06
-4.21042e-07
-4.11116e-07
-1.04592e-06
-5.36916e-07
-8.85368e-07
-5.78294e-08
4.98585e-09
8.62641e-09
-7.22923e-08
7.52666e-09
-2.19409e-08
-9.31611e-08
-4.37425e-09
-2.44754e-08
-1.19149e-07
-8.24916e-09
-2.06075e-08
-1.75679e-07
-6.66832e-10
-7.59525e-08
-2.75119e-07
-9.79507e-10
-1.78987e-07
-3.43342e-07
-1.03256e-09
-3.11273e-07
-3.38636e-07
-1.23099e-09
-3.79453e-07
-2.69445e-07
-4.00505e-09
-3.93418e-07
-8.99704e-09
-4.10149e-07
-6.17979e-09
-9.7489e-11
2.1155e-08
-3.6284e-09
-5.87703e-10
1.5435e-08
-4.30839e-09
-1.44236e-09
1.13663e-08
-6.52042e-09
5.64694e-10
7.96575e-09
-3.25732e-09
3.48594e-10
6.01659e-09
-2.76542e-10
4.91651e-11
9.73203e-10
-2.52488e-10
1.3432e-11
-9.33574e-11
-5.37187e-10
-1.77071e-11
-9.02359e-10
-9.49075e-10
4.51003e-11
-3.80105e-09
3.31543e-11
-9.66254e-09
-1.6306e-09
2.91574e-10
3.54817e-09
-2.11379e-09
-2.11359e-10
6.71165e-09
-1.10145e-09
2.19745e-10
3.06057e-09
-5.55861e-10
4.97106e-10
1.07453e-09
-1.84228e-10
2.24883e-10
3.13035e-10
-1.22602e-10
3.36931e-11
4.82822e-11
-1.44933e-10
1.286e-10
-5.76206e-12
-1.20212e-10
1.32064e-10
-4.13407e-11
-1.13933e-10
6.19566e-11
-4.12634e-11
3.67905e-11
-7.95753e-11
-3.17161e-10
4.33285e-10
1.03638e-09
-1.34408e-09
9.59346e-11
1.61336e-09
-3.5752e-10
2.14191e-10
1.0755e-09
-1.369e-10
1.88713e-10
1.88664e-10
-1.20296e-10
1.4366e-10
5.90751e-11
-1.73444e-10
3.25821e-10
1.56339e-12
-1.11923e-10
1.84136e-10
5.1372e-11
-8.47405e-11
7.31049e-11
1.98312e-11
-7.36942e-11
5.94607e-11
3.09692e-12
5.43677e-11
-7.88744e-11
-4.07752e-11
5.46386e-10
1.74199e-10
-4.12429e-10
7.275e-11
6.80425e-10
-1.69778e-10
1.72012e-10
1.96684e-10
-3.39473e-10
2.32965e-10
7.27177e-11
-6.42777e-10
5.69798e-10
4.31095e-10
-4.18635e-10
6.8381e-10
4.34315e-10
-1.71723e-10
3.8488e-11
5.80002e-11
-1.64846e-10
-3.62057e-11
7.78781e-11
-8.03794e-11
-3.12947e-10
1.04944e-10
-1.78908e-11
8.33707e-11
-1.65911e-11
6.46062e-10
8.23706e-11
-8.0639e-11
3.72772e-10
2.46284e-11
-3.35019e-10
3.84923e-10
5.97647e-11
-2.63293e-09
1.51562e-09
4.10236e-10
-4.28391e-09
1.5368e-09
9.69544e-10
-2.34225e-09
3.3724e-10
3.36645e-10
-1.27586e-09
-9.94621e-12
1.11984e-13
-2.05866e-09
-3.71171e-10
3.71982e-11
-1.00812e-09
-9.60951e-10
2.70117e-10
-8.83878e-10
3.49051e-10
3.53508e-12
4.4219e-10
4.3428e-11
-1.04302e-10
7.16492e-10
5.11708e-11
-6.70611e-11
1.38857e-09
1.71425e-10
-1.71147e-09
1.77167e-09
1.83802e-10
-1.79303e-09
1.22389e-09
7.77973e-10
-5.97974e-10
5.62557e-11
3.94559e-11
-5.93795e-10
8.16344e-12
-1.0544e-11
-1.53503e-09
-6.96391e-11
-4.77493e-11
-1.96064e-09
-3.72399e-10
-1.10963e-10
-1.10597e-09
-1.39265e-10
2.55658e-11
3.02177e-10
3.93252e-11
-1.37109e-10
7.79789e-10
9.71234e-11
-1.34194e-11
6.28998e-10
5.09011e-10
-3.28448e-10
1.63911e-09
3.43942e-10
-7.46138e-10
3.62218e-10
3.35663e-10
-9.264e-11
1.35971e-10
2.65257e-10
-4.81355e-11
7.83418e-12
1.84958e-11
-9.65871e-11
-3.92789e-13
-7.70241e-13
-7.04959e-10
-2.32776e-11
-3.29287e-11
-3.19938e-10
-1.63732e-10
6.75464e-11
1.72074e-10
5.44199e-11
-2.22535e-10
6.55517e-10
7.79895e-11
-1.56473e-10
3.3397e-10
1.08207e-09
1.30967e-10
5.79804e-10
7.30918e-10
7.86908e-12
5.71841e-10
5.73405e-10
-4.76586e-12
2.80763e-11
1.82632e-10
-6.10584e-12
1.7294e-11
5.88563e-11
-7.72936e-12
8.77234e-12
2.25101e-11
-4.85728e-11
6.01397e-14
-6.6005e-12
-2.77391e-11
-1.21885e-10
9.0688e-11
5.9493e-11
1.92408e-11
2.73343e-11
1.22187e-10
-3.77506e-12
-2.7545e-10
2.07747e-10
5.95348e-10
-1.3874e-10
1.17679e-10
1.06366e-09
6.30749e-11
7.1966e-10
7.70921e-10
1.32024e-11
1.18909e-10
3.84667e-10
3.43685e-12
1.28082e-11
5.23451e-11
3.06503e-12
7.30778e-12
9.75969e-12
-6.44519e-12
4.52762e-12
-7.78351e-14
1.00994e-12
-8.90605e-11
2.26899e-11
2.81787e-11
2.16414e-12
4.99453e-11
3.82035e-11
9.33458e-12
-5.75182e-11
3.16498e-11
2.24444e-10
-8.87857e-11
1.3527e-11
6.56649e-10
1.72408e-11
2.84594e-11
8.82484e-10
4.7273e-11
2.82223e-10
8.15049e-10
2.5073e-11
7.56563e-11
4.72155e-10
6.04419e-12
8.42797e-12
2.4519e-11
4.564e-12
6.69578e-12
3.22507e-13
2.1835e-11
-2.86001e-11
1.0361e-11
-1.50003e-11
1.82644e-11
1.47664e-11
9.45782e-13
2.96732e-11
1.34036e-11
1.91344e-11
2.34689e-11
-1.17546e-11
3.41594e-10
5.83753e-11
3.98577e-12
1.68255e-10
-1.58515e-12
5.64293e-11
4.16603e-10
6.57354e-11
4.99892e-11
4.43435e-10
8.11488e-11
9.32129e-11
7.92881e-11
9.76451e-11
2.5896e-11
-1.1401e-11
7.25541e-11
-2.81616e-11
3.59958e-11
-1.16817e-07
1.18787e-07
-2.15266e-07
-1.37467e-07
2.81696e-09
-3.80396e-08
1.53046e-08
-1.61245e-07
4.09155e-08
1.31025e-07
-1.29009e-07
2.69094e-09
1.50916e-07