/*--------------------------------*- C++ -*----------------------------------*\
| =========                 |                                                 |
| \\      /  F ield         | OpenFOAM: The Open Source CFD Toolbox           |
|  \\    /   O peration     | Version:  2312                                  |
|   \\  /    A nd           | Website:  www.openfoam.com                      |
|    \\/     M anipulation  |                                                 |
\*---------------------------------------------------------------------------*/
FoamFile
{
    version     2.0;
    format      ascii;
    arch        "LSB;label=32;scalar=64";
    class       volScalarField;
    location    "0.945";
    object      p;
}
// * * * * * * * * * * * * * * * * * * * * * * * * * * * * * * * * * * * * * //

dimensions      [1 -1 -2 0 0 0 0];

internalField   nonuniform List<scalar> 
8000
(
376.687
376.388
376.042
375.701
375.418
375.259
375.263
375.421
375.679
375.969
327.874
327.33
326.89
326.484
326.102
325.861
325.835
326.014
326.321
326.674
279.217
278.165
277.45
276.866
276.34
275.982
275.926
276.161
276.597
277.117
231.11
229.466
228.048
226.819
225.88
225.322
225.295
225.712
226.378
227.197
184.378
182.228
179.165
176.356
174.3
173.28
173.34
174.103
175.162
176.659
140.96
137.448
131.053
125.496
121.446
119.661
119.967
121.565
123.786
126.035
101.053
94.0931
81.5217
71.4541
64.2212
61.4953
62.827
66.4391
70.9574
75.0182
64.6774
52.4077
32.6388
20.0114
12.6529
10.7197
13.1147
18.6293
24.546
29.3331
29.4228
17.0573
4.32272
1.39307
0.396063
0.0815766
0.290017
1.51415
3.10211
4.33986
3.48841
0.481509
-0.176634
-0.247824
-0.316459
-0.379229
-0.414349
-0.401371
-0.366593
-0.336445
-0.492465
-0.528378
-0.439663
-0.448048
-0.458081
-0.46117
-0.448133
-0.415741
-0.392989
-0.395911
-0.519329
-0.52475
-0.523843
-0.513379
-0.505772
-0.493778
-0.475977
-0.45592
-0.443827
-0.43916
-0.578997
-0.570214
-0.564858
-0.559057
-0.548808
-0.533699
-0.513917
-0.498032
-0.494379
-0.500619
-0.61622
-0.600792
-0.589327
-0.587435
-0.582662
-0.570128
-0.552523
-0.542459
-0.549227
-0.563543
-0.643475
-0.622611
-0.614236
-0.616261
-0.619135
-0.607715
-0.594194
-0.595214
-0.615728
-0.635975
-0.6766
-0.660947
-0.655553
-0.665696
-0.668607
-0.653386
-0.644936
-0.662676
-0.691952
-0.706539
-0.719886
-0.712647
-0.716596
-0.729186
-0.722838
-0.705501
-0.710063
-0.738441
-0.763809
-0.775484
-0.771824
-0.77198
-0.78367
-0.790925
-0.774565
-0.76735
-0.783291
-0.811251
-0.831196
-0.843372
-0.82868
-0.834533
-0.847735
-0.846866
-0.828323
-0.832527
-0.853425
-0.87649
-0.892716
-0.906403
-0.887251
-0.89465
-0.905039
-0.894931
-0.888649
-0.898498
-0.919887
-0.939029
-0.9508
-0.964838
376.448
376.146
375.847
375.58
375.398
375.332
375.404
375.609
375.89
376.185
327.435
326.959
326.591
326.281
326.05
325.934
325.991
326.221
326.553
326.908
278.494
277.597
277.141
276.578
276.294
276.114
276.156
276.432
276.865
277.363
230.116
228.382
227.095
226.282
225.846
225.593
225.673
226.099
226.744
227.543
183.151
181.409
178.024
175.668
174.478
173.924
174.108
174.753
175.527
176.816
138.849
136.97
130.449
124.954
121.928
120.76
121.176
122.436
124.064
125.929
94.5899
90.7731
80.6242
70.7123
65.0782
63.3879
64.7334
67.2455
70.3297
73.4706
48.3117
41.2233
27.7815
16.5058
11.931
11.6293
14.1968
17.5024
20.9587
24.0068
9.26541
6.02341
2.25418
0.709605
0.127219
-0.113663
0.115432
0.733518
1.12564
1.25137
0.0159909
-0.1236
-0.276394
-0.29407
-0.341138
-0.403231
-0.430524
-0.406298
-0.40055
-0.40002
-0.481283
-0.499924
-0.482977
-0.462768
-0.455859
-0.466557
-0.45462
-0.419169
-0.406164
-0.427658
-0.575727
-0.600404
-0.58587
-0.557672
-0.52502
-0.507105
-0.485368
-0.456741
-0.449693
-0.458957
-0.610697
-0.647705
-0.63692
-0.598236
-0.567099
-0.549227
-0.524968
-0.502583
-0.504311
-0.525054
-0.622841
-0.626495
-0.607885
-0.595914
-0.595945
-0.589715
-0.566986
-0.554988
-0.570125
-0.595326
-0.640561
-0.619011
-0.599871
-0.618388
-0.641911
-0.634005
-0.613022
-0.618355
-0.648869
-0.672802
-0.670382
-0.646778
-0.64934
-0.683063
-0.702024
-0.680167
-0.669198
-0.696701
-0.732499
-0.746869
-0.713867
-0.706321
-0.726173
-0.756629
-0.757874
-0.730845
-0.739658
-0.778451
-0.806503
-0.815329
-0.768977
-0.773965
-0.799778
-0.822812
-0.804067
-0.791082
-0.815545
-0.846155
-0.868751
-0.879806
-0.827905
-0.839679
-0.866634
-0.87492
-0.852204
-0.857563
-0.881082
-0.898178
-0.921742
-0.945184
-0.887105
-0.902331
-0.925382
-0.920574
-0.907978
-0.9231
-0.935986
-0.942172
-0.96709
-1.00348
376.202
375.956
375.749
375.57
375.502
375.559
375.74
376.024
376.351
376.658
327.129
326.779
326.568
326.303
326.177
326.201
326.38
326.7
327.083
327.449
277.978
277.487
277.149
276.725
276.515
276.488
276.671
277.049
277.545
278.048
229.164
228.217
227.534
226.519
226.285
226.218
226.449
226.985
227.736
228.467
180.963
179.751
178.123
176.038
175.277
175.046
175.34
176.001
177.1
178.217
133.378
132.387
129.59
125.465
123.347
122.57
123.221
124.574
125.901
127.436
84.5206
83.3567
78.647
71.6525
67.5348
66.6007
68.7305
70.7102
72.8369
74.9317
30.6417
29.4798
24.4096
17.0218
12.8332
12.8037
14.8143
17.2644
20.2542
22.7512
1.93105
2.09618
1.32847
0.313731
-0.128108
-0.27271
-0.246567
0.0130768
0.253445
0.464905
-0.247741
-0.300748
-0.339514
-0.347915
-0.375305
-0.395657
-0.421948
-0.419968
-0.419292
-0.416048
-0.441735
-0.472686
-0.462967
-0.44356
-0.441651
-0.451827
-0.458729
-0.436849
-0.433394
-0.452593
-0.539148
-0.557237
-0.543886
-0.517036
-0.505576
-0.5057
-0.493768
-0.468336
-0.467459
-0.48663
-0.593576
-0.608412
-0.595
-0.572953
-0.568751
-0.565661
-0.54437
-0.51972
-0.525896
-0.552278
-0.619738
-0.621907
-0.597379
-0.598384
-0.617777
-0.619039
-0.596641
-0.582575
-0.596713
-0.618906
-0.640297
-0.622462
-0.609286
-0.64002
-0.672742
-0.668844
-0.649673
-0.653173
-0.675131
-0.686539
-0.670107
-0.651716
-0.664924
-0.709119
-0.735024
-0.717825
-0.710717
-0.732608
-0.752274
-0.750944
-0.714277
-0.712224
-0.740085
-0.777551
-0.785608
-0.768035
-0.779311
-0.807309
-0.819255
-0.811515
-0.768192
-0.779686
-0.811987
-0.834931
-0.824528
-0.820117
-0.846493
-0.868367
-0.874533
-0.872201
-0.827764
-0.847395
-0.876221
-0.882592
-0.865483
-0.875788
-0.904115
-0.915676
-0.922964
-0.934426
-0.888417
-0.912579
-0.933612
-0.928485
-0.91754
-0.933599
-0.948132
-0.94628
-0.964347
-1.00193
375.971
375.792
375.672
375.643
375.736
375.948
376.262
376.648
377.032
377.349
326.862
326.596
326.463
326.38
326.441
326.649
326.99
327.433
327.881
328.256
277.608
277.193
277.032
276.868
276.869
277.064
277.447
278.014
278.605
279.113
228.275
227.597
227.255
226.949
226.898
227.073
227.58
228.349
229.209
229.934
178.893
177.993
177.37
176.606
176.289
176.321
176.827
178.089
179.401
180.512
128.46
127.968
127.345
125.869
124.886
124.625
125.984
127.595
129.3
130.831
75.4758
76.1649
75.4939
72.6314
70.7461
71.4936
72.6729
74.9986
77.9384
80.25
17.1604
21.1423
22.0345
18.4124
15.1717
15.0183
15.9231
19.9738
25.6547
29.5995
0.299427
0.659321
0.839304
0.24776
-0.220897
-0.333638
-0.273478
0.105294
1.09963
2.27879
-0.306176
-0.345363
-0.35172
-0.381239
-0.412222
-0.421435
-0.431915
-0.420954
-0.432112
-0.428715
-0.420676
-0.441737
-0.442819
-0.446669
-0.459242
-0.467573
-0.464899
-0.457956
-0.471068
-0.478923
-0.509661
-0.52348
-0.519026
-0.515114
-0.52785
-0.525885
-0.507748
-0.488794
-0.497491
-0.517733
-0.568966
-0.582376
-0.571834
-0.573647
-0.595303
-0.58862
-0.562602
-0.540322
-0.552008
-0.573114
-0.607898
-0.61235
-0.59612
-0.616042
-0.647077
-0.640827
-0.615873
-0.601456
-0.61537
-0.628403
-0.640385
-0.629358
-0.628284
-0.66797
-0.696377
-0.687614
-0.669577
-0.666542
-0.682867
-0.684342
-0.676203
-0.669019
-0.687448
-0.728043
-0.745746
-0.733581
-0.726871
-0.73592
-0.748944
-0.741653
-0.722084
-0.72692
-0.754021
-0.784378
-0.787341
-0.77399
-0.780938
-0.798354
-0.813265
-0.801974
-0.778921
-0.793118
-0.819338
-0.833141
-0.819574
-0.811004
-0.830927
-0.852314
-0.871213
-0.868837
-0.844769
-0.86442
-0.882969
-0.881011
-0.860474
-0.858743
-0.882411
-0.898721
-0.916329
-0.928322
-0.912018
-0.9365
-0.945187
-0.931951
-0.916159
-0.921477
-0.940898
-0.944561
-0.954838
-0.981081
375.776
375.7
375.706
375.832
376.09
376.464
376.922
377.416
377.855
378.177
326.592
326.467
326.461
326.574
326.841
327.246
327.761
328.331
328.843
329.219
277.231
277.014
276.993
277.091
277.37
277.828
278.462
279.197
279.868
280.368
227.542
227.229
227.211
227.321
227.622
228.15
228.966
229.987
230.947
231.692
177.245
176.994
177.037
177.103
177.388
177.958
179.122
180.646
182.052
183.167
124.753
125.291
126.054
126.26
126.494
127.45
129.134
131.378
133.42
134.939
69.9524
71.9273
73.6522
73.7396
74.3948
74.8461
76.9281
80.591
84.0984
86.422
12.0604
16.9535
20.7811
20.4561
19.4902
18.9072
21.4639
27.8679
34.2054
38.4645
-0.112982
0.0497722
0.581615
0.517063
0.0816581
-0.0425175
0.372769
2.09872
4.93842
7.35007
-0.330575
-0.365733
-0.373031
-0.412002
-0.458887
-0.467583
-0.450506
-0.420873
-0.431651
-0.435365
-0.418581
-0.433974
-0.445624
-0.464504
-0.491146
-0.498989
-0.495189
-0.486915
-0.493953
-0.50242
-0.497522
-0.509531
-0.510342
-0.526456
-0.550774
-0.545272
-0.533696
-0.52451
-0.537705
-0.557027
-0.558157
-0.568283
-0.56463
-0.588331
-0.619498
-0.603023
-0.583089
-0.571439
-0.585904
-0.602264
-0.604579
-0.607907
-0.602421
-0.638955
-0.668508
-0.654595
-0.636524
-0.622546
-0.632201
-0.642685
-0.6459
-0.640291
-0.648512
-0.688562
-0.709022
-0.700397
-0.683892
-0.671209
-0.679027
-0.682163
-0.68789
-0.688026
-0.70538
-0.739198
-0.750222
-0.737946
-0.72357
-0.716751
-0.730563
-0.72705
-0.740886
-0.747205
-0.765893
-0.786683
-0.784481
-0.766707
-0.759152
-0.762469
-0.788631
-0.782743
-0.804958
-0.81657
-0.8292
-0.832343
-0.815141
-0.797162
-0.800356
-0.815007
-0.844509
-0.852117
-0.879007
-0.897166
-0.900622
-0.887996
-0.861842
-0.850904
-0.864255
-0.882238
-0.900022
-0.913922
-0.950319
-0.979046
-0.974657
-0.952178
-0.932112
-0.930779
-0.948047
-0.957427
-0.957386
-0.963447
375.653
375.673
375.812
376.094
376.514
377.047
377.642
378.238
378.733
379.064
326.395
326.393
326.544
326.85
327.318
327.911
328.589
329.281
329.857
330.251
276.906
276.877
277.057
277.409
277.959
278.669
279.521
280.413
281.175
281.689
226.98
226.945
227.257
227.739
228.391
229.265
230.407
231.653
232.751
233.514
176.078
176.304
176.948
177.621
178.511
179.656
181.252
183.052
184.634
185.774
122.815
123.93
125.566
126.834
128.18
129.646
131.882
134.663
137.097
138.805
69.5122
70.4479
73.0416
75.0308
76.0552
77.7185
81.1324
85.549
89.4628
92.2011
11.9175
16.2872
21.2575
22.9201
23.9436
25.6008
29.9185
36.2922
42.6809
47.5779
-0.242177
-0.194617
0.449807
1.03998
1.02178
1.29535
2.89165
6.60286
11.1934
14.7678
-0.349617
-0.384236
-0.415799
-0.426617
-0.449048
-0.463726
-0.450608
-0.421438
-0.425661
-0.422139
-0.426496
-0.43432
-0.458642
-0.486623
-0.505307
-0.515961
-0.529137
-0.514517
-0.499869
-0.511
-0.497942
-0.505893
-0.514665
-0.540857
-0.560823
-0.557316
-0.565546
-0.56975
-0.566222
-0.587764
-0.560716
-0.569161
-0.56741
-0.602742
-0.624702
-0.607213
-0.611538
-0.613795
-0.60757
-0.62737
-0.61184
-0.613463
-0.614916
-0.653335
-0.668903
-0.65946
-0.661302
-0.648828
-0.636022
-0.648909
-0.65862
-0.657063
-0.665665
-0.697066
-0.70959
-0.705648
-0.697039
-0.67254
-0.663537
-0.673192
-0.708621
-0.711857
-0.721346
-0.742634
-0.750488
-0.739085
-0.71828
-0.691252
-0.696648
-0.706963
-0.767454
-0.772554
-0.779287
-0.787561
-0.781913
-0.760049
-0.735228
-0.716688
-0.73581
-0.762027
-0.836426
-0.845139
-0.84351
-0.838457
-0.820027
-0.793136
-0.7758
-0.778001
-0.803605
-0.836327
-0.907584
-0.928255
-0.915347
-0.899665
-0.879914
-0.86206
-0.859609
-0.873015
-0.889157
-0.897311
-0.968448
-1.00375
-0.983956
-0.960287
-0.945601
-0.944337
-0.954414
-0.95621
-0.948343
-0.93814
375.622
375.715
375.971
376.391
376.953
377.62
378.336
379.022
379.564
379.909
326.317
326.404
326.696
327.171
327.803
328.555
329.377
330.175
330.818
331.248
276.726
276.817
277.186
277.77
278.538
279.458
280.506
281.541
282.399
282.947
226.73
226.792
227.36
228.144
229.099
230.281
231.734
233.184
234.416
235.211
175.53
175.937
177.027
178.194
179.379
180.917
183.04
185.184
186.98
188.169
122.684
123.639
125.768
127.573
129.054
131.023
134.103
137.488
140.333
142.265
67.3811
70.2995
73.223
75.3658
77.2344
80.2446
84.8743
89.9158
94.337
97.4319
12.2565
17.0867
22.4813
24.818
26.7412
30.6041
36.6337
43.6787
50.7422
55.2224
-0.238024
-0.188561
0.578304
1.55032
2.01736
3.28092
6.51915
11.5236
17.5251
21.2521
-0.359416
-0.387357
-0.411587
-0.406172
-0.427113
-0.454104
-0.451741
-0.418757
-0.329009
0.430737
-0.425259
-0.428985
-0.461236
-0.486818
-0.507497
-0.525089
-0.532683
-0.530682
-0.518026
-0.529267
-0.500872
-0.5068
-0.522469
-0.54651
-0.564172
-0.562632
-0.576583
-0.594508
-0.596007
-0.604456
-0.567319
-0.574367
-0.578928
-0.607064
-0.616511
-0.605243
-0.617469
-0.625988
-0.621127
-0.63943
-0.62356
-0.625731
-0.629208
-0.653929
-0.658337
-0.652172
-0.658338
-0.64232
-0.626138
-0.650796
-0.675838
-0.676246
-0.681075
-0.697141
-0.701866
-0.694908
-0.684496
-0.6497
-0.629435
-0.66175
-0.73104
-0.733135
-0.73437
-0.741551
-0.742915
-0.727221
-0.699363
-0.654584
-0.641353
-0.689371
-0.790761
-0.794544
-0.790485
-0.788001
-0.778911
-0.752574
-0.712087
-0.679841
-0.685328
-0.746003
-0.854849
-0.865273
-0.853106
-0.842909
-0.826161
-0.799343
-0.765693
-0.75218
-0.778009
-0.824169
-0.916015
-0.938066
-0.919443
-0.903653
-0.885572
-0.868438
-0.854824
-0.854716
-0.868818
-0.863214
-0.972649
-0.996446
-0.981228
-0.963318
-0.949429
-0.946361
-0.944741
-0.929028
-0.91007
-0.889987
375.677
375.82
376.162
376.686
377.356
378.127
378.935
379.694
380.285
380.638
326.362
326.502
326.888
327.486
328.246
329.119
330.055
330.936
331.629
332.079
276.75
276.873
277.36
278.108
279.045
280.137
281.347
282.492
283.408
284.018
226.7
226.799
227.507
228.494
229.654
231.115
232.846
234.47
235.819
236.651
175.538
175.829
177.198
178.53
179.826
181.87
184.549
186.982
188.957
190.184
122.936
123.791
126.099
127.851
129.469
132.421
136.383
140.117
143.129
145.064
67.3278
70.0578
73.5046
75.7638
78.5289
83.1234
88.729
94.075
98.5151
101.349
14.5867
19.8306
24.1037
26.03
28.9976
34.714
42.1221
49.8319
56.3526
59.9686
-0.160841
0.166786
1.24946
1.98434
2.84021
5.3091
10.0294
15.7125
21.6564
24.4442
-0.35196
-0.38317
-0.387764
-0.39891
-0.427745
-0.462699
-0.465615
-0.391824
0.787571
2.36066
-0.43395
-0.443737
-0.461143
-0.487738
-0.514865
-0.528052
-0.535903
-0.544743
-0.549422
-0.514296
-0.509612
-0.515575
-0.527975
-0.54968
-0.565412
-0.563338
-0.574521
-0.601481
-0.615242
-0.588274
-0.57591
-0.583937
-0.587633
-0.604623
-0.609378
-0.599463
-0.599732
-0.611588
-0.623699
-0.625392
-0.635668
-0.638363
-0.639871
-0.65191
-0.652487
-0.639214
-0.629678
-0.613515
-0.602785
-0.626556
-0.691936
-0.691508
-0.691457
-0.697305
-0.695776
-0.681106
-0.658506
-0.619788
-0.584066
-0.625334
-0.746923
-0.746574
-0.742547
-0.741574
-0.736772
-0.719066
-0.675036
-0.615984
-0.592001
-0.663303
-0.801302
-0.804028
-0.796983
-0.790537
-0.779889
-0.757569
-0.707063
-0.65818
-0.677393
-0.75028
-0.857839
-0.866875
-0.856588
-0.849009
-0.836001
-0.816753
-0.785556
-0.771751
-0.795663
-0.814494
-0.915446
-0.927251
-0.917598
-0.910033
-0.898878
-0.893503
-0.884221
-0.879703
-0.86748
-0.85305
-0.974441
-0.982747
-0.976737
-0.970122
-0.965793
-0.979007
-0.985381
-0.953583
-0.927633
-0.922453
375.787
375.954
376.344
376.931
377.669
378.51
379.374
380.18
380.811
381.18
326.485
326.641
327.075
327.745
328.588
329.552
330.561
331.495
332.279
332.703
276.91
277.018
277.541
278.389
279.448
280.687
282
283.191
284.298
284.804
226.846
226.918
227.645
228.793
230.157
231.887
233.774
235.436
236.976
237.713
175.796
175.871
177.344
178.7
180.466
183.067
185.983
188.5
190.501
191.642
123.453
124.093
126.294
127.943
130.333
134.345
138.782
142.495
145.319
146.976
69.1872
71.2651
74.234
76.3317
80.3616
86.3173
92.4326
97.688
101.712
104.072
19.2318
22.4833
25.6772
27.1121
31.6687
39.064
47.3497
55.1147
60.4974
63.5028
0.200509
0.76195
1.84371
2.28863
3.78395
7.60455
13.408
20.5363
25.0759
27.9105
-0.377801
-0.381882
-0.383422
-0.401037
-0.440785
-0.482128
-0.451281
0.0388163
2.7995
5.00542
-0.448753
-0.450391
-0.46192
-0.496829
-0.526799
-0.533751
-0.545539
-0.560178
-0.540339
-0.472723
-0.518858
-0.522984
-0.532547
-0.555284
-0.569615
-0.56846
-0.580754
-0.609787
-0.597549
-0.543036
-0.585016
-0.59072
-0.59351
-0.605237
-0.608652
-0.59544
-0.589254
-0.603235
-0.599504
-0.578901
-0.646112
-0.647494
-0.647729
-0.648658
-0.646859
-0.628802
-0.612439
-0.597934
-0.581437
-0.594648
-0.704098
-0.701354
-0.699261
-0.698334
-0.68877
-0.671777
-0.647267
-0.613
-0.594512
-0.631955
-0.757617
-0.754596
-0.749845
-0.744812
-0.733027
-0.716627
-0.686299
-0.650961
-0.651453
-0.695247
-0.80884
-0.808764
-0.803397
-0.79604
-0.785419
-0.7707
-0.746035
-0.737641
-0.755039
-0.776631
-0.861994
-0.86525
-0.861069
-0.857942
-0.847394
-0.843365
-0.843895
-0.857564
-0.854546
-0.849451
-0.918221
-0.923014
-0.920351
-0.918422
-0.91339
-0.929465
-0.956175
-0.951356
-0.920486
-0.898918
-0.976415
-0.980109
-0.978942
-0.979023
-0.980289
-1.01445
-1.0513
-1.02097
-0.971927
-0.963856
375.9
376.072
376.481
377.098
377.871
378.748
379.635
380.446
381.09
381.447
326.634
326.786
327.231
327.934
328.819
329.837
330.886
331.834
332.59
333.19
277.147
277.231
277.741
278.623
279.756
281.071
282.432
283.668
284.654
285.249
227.171
227.196
227.902
229.091
230.655
232.512
234.429
236.141
237.498
238.279
176.314
176.2
177.504
179.11
181.367
184.219
187.031
189.492
191.357
192.665
124.204
124.438
126.393
128.476
131.776
136.198
140.508
144.069
146.64
148.459
71.0496
72.2758
74.6133
77.2282
82.4197
88.7004
94.7827
99.8966
103.603
105.849
22.4325
24.106
26.2525
27.9977
34.1868
42.2739
50.7372
58.0635
62.927
66.0322
0.857382
1.12396
2.01846
2.46359
4.9855
9.745
15.6728
23.1252
27.7245
31.1653
-0.381726
-0.37382
-0.374077
-0.400677
-0.452272
-0.507024
-0.451463
1.30458
5.34984
8.95314
-0.455409
-0.450783
-0.460781
-0.507033
-0.541036
-0.548045
-0.556696
-0.56159
-0.507997
-0.459616
-0.525556
-0.528977
-0.534598
-0.568426
-0.579624
-0.580477
-0.593935
-0.611339
-0.561133
-0.519395
-0.591747
-0.596905
-0.600909
-0.613892
-0.609632
-0.592722
-0.588839
-0.600346
-0.577866
-0.559515
-0.654063
-0.656426
-0.656293
-0.653856
-0.641596
-0.623624
-0.611045
-0.60662
-0.592427
-0.595075
-0.712558
-0.712366
-0.710748
-0.700716
-0.684492
-0.666176
-0.654727
-0.643843
-0.640692
-0.65074
-0.766268
-0.765433
-0.764878
-0.752669
-0.734269
-0.716283
-0.708037
-0.709036
-0.721845
-0.725657
-0.81691
-0.817076
-0.817441
-0.810665
-0.792008
-0.781973
-0.779361
-0.802312
-0.811137
-0.796838
-0.867923
-0.870364
-0.87153
-0.86903
-0.857224
-0.864351
-0.887689
-0.910629
-0.886555
-0.858963
-0.920644
-0.925422
-0.927286
-0.926745
-0.922525
-0.945335
-0.996117
-0.993859
-0.943638
-0.914044
-0.974078
-0.979939
-0.983069
-0.985286
-0.984951
-1.01769
-1.05763
-1.04151
-0.990139
-0.978553
375.959
376.125
376.525
377.137
377.911
378.787
379.666
380.471
381.096
381.469
326.735
326.878
327.301
327.999
328.886
329.903
330.941
331.874
332.625
333.149
277.347
277.424
277.873
278.741
279.875
281.18
282.532
283.746
284.712
285.177
227.505
227.507
228.102
229.289
230.874
232.712
234.616
236.295
237.633
238.372
176.839
176.645
177.713
179.441
181.814
184.53
187.315
189.677
191.549
192.802
124.981
124.875
126.576
129.111
132.777
136.834
140.896
144.294
146.824
148.498
72.579
72.7343
74.6438
77.8647
83.3877
89.4498
95.3142
100.373
103.955
106.145
24.5162
24.2989
25.4346
27.9494
35.0859
43.3108
51.7834
58.946
63.4566
66.3609
1.26913
1.19221
1.7392
2.38767
5.49021
10.5463
16.9558
24.149
28.6964
31.938
-0.37498
-0.353829
-0.359367
-0.397828
-0.453375
-0.500179
-0.409441
2.30271
7.13899
11.3829
-0.455848
-0.447131
-0.469895
-0.520955
-0.552003
-0.560814
-0.563186
-0.557339
-0.492993
-0.472941
-0.531863
-0.532888
-0.557438
-0.580044
-0.58833
-0.589414
-0.605612
-0.600934
-0.543337
-0.525651
-0.599838
-0.607231
-0.614979
-0.628565
-0.610708
-0.594819
-0.59562
-0.598041
-0.576163
-0.574578
-0.662763
-0.669891
-0.666702
-0.667467
-0.641214
-0.625376
-0.615499
-0.616657
-0.611412
-0.620927
-0.720915
-0.728128
-0.723631
-0.712494
-0.688384
-0.670122
-0.660729
-0.665906
-0.669761
-0.673496
-0.773549
-0.779746
-0.783151
-0.767421
-0.74306
-0.718809
-0.717395
-0.737348
-0.750781
-0.738901
-0.822091
-0.826314
-0.834524
-0.823962
-0.803735
-0.785114
-0.796418
-0.838693
-0.842891
-0.815711
-0.86946
-0.873522
-0.884734
-0.877569
-0.865752
-0.862998
-0.896411
-0.933737
-0.919176
-0.876697
-0.917893
-0.924091
-0.934118
-0.934847
-0.923239
-0.933524
-0.973083
-0.987588
-0.959502
-0.919843
-0.967446
-0.975653
-0.985198
-0.988372
-0.97749
-0.98946
-1.01816
-1.0185
-0.991494
-0.97789
375.922
376.072
376.441
377.023
377.768
378.614
379.46
380.229
380.826
381.139
326.723
326.853
327.242
327.904
328.761
329.738
330.725
331.594
332.341
332.68
277.407
277.465
277.864
278.693
279.781
281.032
282.311
283.41
284.403
284.799
227.736
227.739
228.155
229.338
230.816
232.569
234.371
235.936
237.212
237.794
177.221
177.027
177.848
179.534
181.79
184.377
186.954
189.144
190.897
191.868
125.701
125.335
126.705
129.233
132.715
136.507
140.168
143.357
145.69
147.21
73.7336
73.0015
74.497
77.8633
83.1699
88.7971
94.1973
99.002
102.354
104.489
25.1693
23.7495
24.0947
26.8374
33.999
41.963
50.0768
57.3055
61.6999
64.4143
1.30597
0.937117
1.27837
1.98407
4.82873
9.35562
15.5671
23.2512
27.4264
30.0359
-0.363052
-0.354739
-0.376755
-0.40937
-0.454605
-0.509225
-0.423845
1.81285
6.47049
10.1364
-0.454924
-0.463339
-0.491767
-0.533176
-0.562988
-0.57344
-0.571652
-0.554764
-0.50064
-0.500124
-0.537775
-0.555236
-0.581682
-0.596461
-0.599447
-0.600196
-0.615847
-0.603749
-0.54899
-0.546612
-0.612631
-0.623504
-0.634452
-0.644623
-0.632648
-0.609052
-0.609773
-0.607264
-0.590958
-0.599626
-0.676184
-0.685609
-0.678556
-0.678378
-0.65781
-0.629608
-0.624647
-0.628644
-0.636099
-0.650919
-0.73287
-0.744252
-0.732384
-0.71644
-0.697133
-0.681178
-0.674807
-0.683827
-0.70389
-0.703859
-0.781383
-0.792133
-0.790696
-0.779759
-0.753567
-0.734539
-0.73262
-0.763152
-0.794739
-0.776599
-0.824232
-0.830745
-0.839994
-0.840801
-0.817826
-0.796373
-0.803911
-0.848666
-0.882441
-0.85271
-0.866267
-0.870751
-0.886561
-0.890666
-0.874908
-0.864557
-0.881852
-0.915837
-0.930046
-0.900791
-0.910142
-0.915973
-0.934144
-0.939811
-0.925855
-0.921543
-0.934747
-0.950637
-0.947171
-0.924396
-0.956787
-0.96459
-0.98107
-0.988814
-0.97657
-0.973758
-0.980105
-0.983368
-0.975914
-0.969363
375.787
375.914
376.234
376.758
377.445
378.231
379.024
379.732
380.251
380.525
326.6
326.713
327.049
327.64
328.429
329.335
330.254
331.063
331.656
331.993
277.291
277.362
277.724
278.443
279.435
280.588
281.769
282.806
283.602
283.969
227.791
227.793
228.138
229.089
230.437
232.027
233.668
235.116
236.234
236.705
177.401
177.324
177.936
179.345
181.355
183.663
185.977
188.029
189.542
190.383
126.236
125.856
126.813
129.034
132.176
135.524
138.82
141.751
143.769
145.14
74.4968
73.3716
74.5083
77.7363
82.4327
87.4084
92.2204
96.4898
99.4317
101.504
24.6102
22.9733
22.8634
25.6088
32.2802
39.6156
47.0409
53.9572
58.1259
60.832
0.92892
0.587016
0.820154
1.44755
3.74031
7.37056
13.0689
20.9556
24.6416
26.876
-0.368528
-0.381216
-0.406005
-0.429685
-0.461517
-0.511997
-0.458524
0.336797
3.58846
6.11214
-0.467539
-0.49106
-0.504548
-0.527313
-0.561356
-0.586508
-0.59286
-0.555914
-0.518934
-0.519816
-0.551713
-0.578564
-0.58505
-0.604651
-0.610356
-0.618995
-0.638758
-0.624755
-0.566107
-0.561162
-0.628144
-0.638655
-0.637489
-0.658567
-0.658356
-0.637621
-0.639045
-0.634225
-0.611468
-0.613428
-0.692552
-0.693116
-0.684888
-0.692533
-0.691573
-0.65804
-0.649251
-0.656022
-0.665012
-0.6702
-0.743555
-0.747803
-0.743048
-0.727203
-0.710757
-0.703914
-0.701809
-0.713938
-0.737051
-0.734074
-0.782921
-0.789698
-0.797746
-0.792108
-0.765089
-0.755468
-0.75966
-0.781537
-0.818607
-0.813332
-0.820632
-0.821086
-0.838247
-0.849555
-0.834047
-0.818126
-0.818938
-0.843589
-0.880021
-0.87877
-0.856563
-0.857348
-0.873619
-0.894445
-0.889048
-0.878787
-0.879606
-0.895336
-0.912921
-0.910102
-0.89608
-0.896254
-0.914809
-0.938271
-0.936867
-0.931024
-0.93163
-0.936351
-0.93682
-0.930868
-0.940849
-0.943593
-0.965354
-0.98677
-0.987532
-0.982823
-0.980554
-0.97933
-0.972238
-0.970303
375.576
375.667
375.919
376.357
376.952
377.646
378.352
378.983
379.434
379.678
326.401
326.475
326.729
327.22
327.9
328.694
329.504
330.224
330.748
331.042
277.117
277.167
277.445
278.009
278.843
279.84
280.867
281.781
282.46
282.785
227.646
227.655
227.932
228.653
229.755
231.095
232.488
233.752
234.665
235.111
177.395
177.394
177.865
178.904
180.514
182.427
184.378
186.182
187.392
188.068
126.114
125.957
126.765
128.474
131.082
133.827
136.586
139.175
140.883
141.916
74.5366
73.72
74.7289
77.566
81.0545
85.0736
89.1041
92.7527
95.2172
96.9837
21.7005
20.7843
21.7232
24.6925
30.477
36.5978
42.7006
48.3149
52.4914
55.1469
0.290828
0.303045
0.576329
0.95282
2.67593
5.47204
9.4814
14.574
20.0426
22.8447
-0.384629
-0.392596
-0.430459
-0.450744
-0.465124
-0.505978
-0.479481
-0.335028
0.0844577
1.43766
-0.484851
-0.500105
-0.518299
-0.53437
-0.559341
-0.586592
-0.602974
-0.564146
-0.499989
-0.507687
-0.573303
-0.589518
-0.593911
-0.611103
-0.622509
-0.637778
-0.665421
-0.651034
-0.579128
-0.565293
-0.654203
-0.661383
-0.654242
-0.668864
-0.679597
-0.673189
-0.681042
-0.679276
-0.635717
-0.619331
-0.72586
-0.730099
-0.71551
-0.714625
-0.724451
-0.707862
-0.693237
-0.700071
-0.693829
-0.681827
-0.772308
-0.786463
-0.78077
-0.771843
-0.751982
-0.738409
-0.733611
-0.746748
-0.758452
-0.748217
-0.795893
-0.810627
-0.82627
-0.836537
-0.814052
-0.794156
-0.793166
-0.805918
-0.821499
-0.819943
-0.816885
-0.81793
-0.845178
-0.875981
-0.882658
-0.863428
-0.855746
-0.862159
-0.873761
-0.87658
-0.843048
-0.834849
-0.861693
-0.901135
-0.920137
-0.914862
-0.909659
-0.910011
-0.916115
-0.920157
-0.880166
-0.870149
-0.892957
-0.932368
-0.955633
-0.958425
-0.953132
-0.951183
-0.951523
-0.953195
-0.924185
-0.917323
-0.940265
-0.977753
-1.00022
-1.00038
-0.99159
-0.987212
-0.982153
-0.984051
375.312
375.351
375.519
375.853
376.336
376.915
377.515
378.061
378.465
378.694
326.153
326.17
326.333
326.688
327.223
327.878
328.556
329.171
329.621
329.876
276.883
276.876
277.034
277.422
278.055
278.857
279.697
280.458
281.013
281.306
227.406
227.372
227.532
227.995
228.804
229.84
230.941
231.952
232.651
233.047
177.155
177.201
177.515
178.183
179.3
180.726
182.247
183.662
184.561
185.131
125.707
125.858
126.569
127.737
129.472
131.493
133.533
135.541
136.893
137.887
72.8485
73.1466
74.4841
76.2552
78.9697
81.7174
84.689
87.5688
89.6439
91.3433
17.5515
18.5917
21.3786
24.5503
29.0752
33.146
37.0933
40.945
44.3661
47.1973
0.184606
0.395911
0.744335
1.04517
2.00189
3.71098
5.79051
8.44986
12.2306
15.5287
-0.395333
-0.397103
-0.443829
-0.479751
-0.469449
-0.488414
-0.480887
-0.397414
-0.321067
-0.389061
-0.5089
-0.530267
-0.552462
-0.560865
-0.563538
-0.584678
-0.598242
-0.5623
-0.496024
-0.482092
-0.602528
-0.614036
-0.614836
-0.621365
-0.637127
-0.657942
-0.692212
-0.670967
-0.584073
-0.552918
-0.685352
-0.687863
-0.676863
-0.674323
-0.68788
-0.706789
-0.738021
-0.737648
-0.665997
-0.620409
-0.755443
-0.75653
-0.744344
-0.731393
-0.730341
-0.743383
-0.752182
-0.758509
-0.731817
-0.692711
-0.797038
-0.808785
-0.812537
-0.812436
-0.787905
-0.779515
-0.775508
-0.784411
-0.785108
-0.75974
-0.806518
-0.828397
-0.8589
-0.894999
-0.890398
-0.854892
-0.839716
-0.839709
-0.838497
-0.824476
-0.810336
-0.825969
-0.870757
-0.933781
-0.969556
-0.948017
-0.916684
-0.901837
-0.895107
-0.885492
-0.831813
-0.831162
-0.868309
-0.933363
-0.984979
-0.990822
-0.971406
-0.95328
-0.942585
-0.941726
-0.869438
-0.857783
-0.881573
-0.937735
-0.988368
-1.00731
-0.995397
-0.982648
-0.977654
-0.982733
-0.913999
-0.900725
-0.919046
-0.966748
-1.00843
-1.01962
-1.00831
-1.00149
-1.00294
-1.00705
375.014
374.986
375.061
375.284
375.651
376.115
376.609
377.074
377.435
377.66
325.871
325.801
325.858
326.074
326.463
326.973
327.522
328.039
328.431
328.67
276.58
276.461
276.493
276.7
277.138
277.743
278.403
279.018
279.473
279.742
227.077
226.896
226.881
227.107
227.637
228.386
229.216
229.989
230.537
230.911
176.853
176.729
176.78
177.075
177.776
178.733
179.83
180.883
181.62
182.264
125.688
125.742
126.097
126.525
127.476
128.712
130.087
131.508
132.67
133.591
72.3302
73.0885
74.1928
74.6714
75.8829
77.6663
79.629
81.7336
83.6104
85.131
15.8762
18.5589
22.2076
24.445
27.1338
29.622
31.5049
33.5465
35.9826
38.1786
0.578786
0.712229
1.03262
1.38376
1.88393
2.33415
2.92417
4.01837
5.98616
8.37003
-0.380529
-0.409718
-0.4706
-0.482725
-0.453308
-0.461743
-0.451699
-0.394362
-0.356923
-0.407897
-0.542607
-0.566189
-0.581448
-0.57584
-0.555796
-0.56878
-0.573629
-0.530589
-0.479583
-0.47162
-0.626717
-0.637129
-0.638081
-0.644861
-0.64605
-0.667
-0.698079
-0.664922
-0.576907
-0.539167
-0.703067
-0.703833
-0.697153
-0.694165
-0.708279
-0.745595
-0.789331
-0.779341
-0.688759
-0.621455
-0.763708
-0.765218
-0.753399
-0.7414
-0.73998
-0.775077
-0.812962
-0.81687
-0.770467
-0.70691
-0.796524
-0.813043
-0.810359
-0.808217
-0.789932
-0.799084
-0.816414
-0.826183
-0.814241
-0.773874
-0.7962
-0.831273
-0.85747
-0.889569
-0.88755
-0.869156
-0.860367
-0.860828
-0.855856
-0.834619
-0.789029
-0.825345
-0.877665
-0.942273
-0.97962
-0.974981
-0.949929
-0.933622
-0.919508
-0.902016
-0.808559
-0.828434
-0.882854
-0.958263
-1.02249
-1.0486
-1.03145
-1.00677
-0.982683
-0.967727
-0.859163
-0.857547
-0.891294
-0.957677
-1.02042
-1.05319
-1.05163
-1.03438
-1.01915
-1.01658
-0.910006
-0.897872
-0.916598
-0.966977
-1.01332
-1.03278
-1.03347
-1.03535
-1.04127
-1.04102
374.704
374.603
374.598
374.72
374.982
375.343
375.746
376.139
376.47
376.706
325.552
325.377
325.36
325.451
325.711
326.093
326.519
326.963
327.323
327.575
276.169
275.922
275.897
275.941
276.203
276.64
277.14
277.651
278.063
278.35
226.626
226.249
226.06
226.075
226.381
226.912
227.555
228.139
228.633
229.026
176.66
176.173
175.822
175.647
175.99