/*--------------------------------*- C++ -*----------------------------------*\
| =========                 |                                                 |
| \\      /  F ield         | OpenFOAM: The Open Source CFD Toolbox           |
|  \\    /   O peration     | Version:  2312                                  |
|   \\  /    A nd           | Website:  www.openfoam.com                      |
|    \\/     M anipulation  |                                                 |
\*---------------------------------------------------------------------------*/
FoamFile
{
    version     2.0;
    format      ascii;
    arch        "LSB;label=32;scalar=64";
    class       volScalarField;
    location    "1.245";
    object      p_rgh;
}
// * * * * * * * * * * * * * * * * * * * * * * * * * * * * * * * * * * * * * //

dimensions      [1 -1 -2 0 0 0 0];

internalField   nonuniform List<scalar> 
8000
(
403.471
403.21
402.871
402.442
401.938
401.429
400.99
400.671
400.503
400.518
404.048
403.617
403.165
402.72
402.219
401.675
401.182
400.808
400.599
400.59
405.349
404.861
404.15
403.433
402.762
402.142
401.558
401.101
400.818
400.743
407.714
407.156
406.077
404.964
403.891
402.978
402.186
401.542
401.097
400.914
410.922
410.162
408.711
407.281
405.728
404.359
403.228
402.334
401.641
401.324
415.824
414.516
412.667
410.457
408.227
406.273
404.628
403.357
402.327
401.963
423.648
422.306
418.584
415.141
412.014
409.414
407.375
405.882
404.779
403.968
433.712
430.601
425.275
420.225
416.167
413.049
403.763
395.165
387.428
381.102
423.872
391.547
334.21
276.649
232.284
201.384
188.899
182.802
173.885
158.145
160.463
94.1031
39.5055
13.5274
4.19353
1.57925
1.33982
1.5229
1.31432
0.905252
0.422038
0.283766
0.218745
0.274608
0.160863
0.119088
0.134823
0.142508
0.137775
0.116851
0.18104
0.239842
0.217528
0.359944
0.176487
0.0897351
0.0901017
0.0828824
0.0721301
0.0645699
0.161689
0.247675
0.342532
0.30142
0.0766429
0.0793052
0.0800964
0.0718464
0.0592211
0.052
0.159182
0.266655
0.347816
0.312982
0.0628983
0.0671989
0.138519
0.137693
0.051494
0.0440729
0.226485
0.45836
0.282218
0.190759
0.045098
0.0809345
0.181375
0.180661
0.0815383
0.0430006
0.468527
0.461989
0.218651
0.034119
0.034938
0.0393782
0.150929
0.179764
0.102091
0.0410093
0.476176
0.464036
0.230184
0.036571
0.048724
0.0591987
0.046661
0.0676825
0.0609073
0.0354897
0.489768
0.326708
0.112949
0.0562992
0.146588
0.145032
0.0326221
0.0222345
0.0192321
0.0235999
0.490328
0.0413504
0.0807575
0.149388
0.146604
0.144942
0.122036
0.0187257
0.016513
0.0195543
0.108408
0.0123363
0.0393414
0.0883208
0.141761
0.142826
0.142097
0.123728
0.0173585
0.0196112
402.993
402.666
402.293
401.934
401.499
401.043
400.638
400.343
400.196
400.23
403.431
402.862
402.444
402.038
401.653
401.214
400.774
400.434
400.241
400.235
404.719
403.999
403.234
402.464
402.042
401.56
401.052
400.627
400.356
400.313
407.051
406.289
405.019
403.879
403.009
402.231
401.519
400.914
400.437
400.23
410.076
409.282
407.829
406.215
404.687
403.389
402.256
401.328
400.617
400.338
414.052
413.43
411.737
409.241
406.965
404.958
403.305
401.983
400.98
400.494
421.258
419.865
416.92
413.404
410.158
407.369
405.164
403.436
402.155
401.366
430.78
427.886
423.261
418.428
412.298
402.681
393.726
384
374.749
368.043
401.805
368.616
315.164
261.927
216.607
183.22
157.523
136.492
118.98
105.775
125.502
68.7839
29.4649
10.3592
3.05148
1.07159
0.607507
0.486267
0.421605
0.324468
0.406544
0.212852
0.180755
0.185519
0.117454
0.126456
0.141184
0.109205
0.0881672
0.0688433
0.178784
0.185782
0.187712
0.255533
0.103485
0.0924271
0.106498
0.0783503
0.0542065
0.0467123
0.157719
0.208168
0.291653
0.122206
0.0820206
0.153456
0.18245
0.107722
0.051105
0.0442912
0.161543
0.244915
0.349661
0.129821
0.0778997
0.176772
0.176811
0.172906
0.149162
0.0452329
0.156247
0.240554
0.329429
0.106351
0.0433901
0.163304
0.174239
0.170716
0.16862
0.102094
0.414604
0.254953
0.192332
0.0296873
0.0313061
0.0709106
0.17661
0.171365
0.167451
0.15099
0.479176
0.362579
0.0559481
0.0331882
0.0639928
0.0456904
0.045744
0.140028
0.150072
0.0554069
0.489756
0.272851
0.0483043
0.0900065
0.145457
0.103023
0.0176075
0.00946843
0.00780364
0.0158275
0.485506
0.0626463
0.08025
0.148005
0.142375
0.106961
0.00973437
0.00395133
0.00387215
0.0110793
0.113093
0.0148334
0.0574967
0.102488
0.115774
0.0626812
0.0434319
0.0102742
0.00399333
0.0093909
402.274
401.992
401.837
401.483
400.913
400.419
400.03
399.766
399.656
399.728
402.565
402.186
401.893
401.421
400.972
400.505
400.095
399.793
399.649
399.687
403.619
403.018
402.526
401.65
401.075
400.661
400.224
399.865
399.662
399.677
405.623
404.76
403.951
402.621
401.554
401.004
400.433
399.966
399.653
399.606
408.246
407.347
406.272
404.471
402.91
401.701
400.757
400.046
399.579
399.394
411.929
410.971
409.228
406.76
404.497
402.616
401.182
400.156
399.443
399.078
417.852
416.316
413.556
409.908
406.561
403.782
401.703
400.263
399.293
398.692
426.16
423.462
418.973
410.787
399.786
388.911
378.606
369.799
362.958
358.21
360.755
327.807
270.502
211.472
159.194
117.349
89.9123
75.0845
67.6652
63.3215
76.6501
40.5776
15.2329
3.60515
0.445267
0.366698
0.215605
0.113619
0.0759902
0.0177432
0.267359
0.139507
0.146593
0.135644
0.114241
0.0973107
0.0729413
0.0452492
0.0345761
0.0333762
0.143985
0.125836
0.151424
0.123209
0.0788459
0.0645485
0.0602781
0.0517849
0.0406455
0.0491437
0.140977
0.131135
0.17283
0.165848
0.071678
0.0601313
0.0581059
0.0496155
0.0458071
0.0470955
0.160483
0.234751
0.338548
0.27323
0.080717
0.0694964
0.0900061
0.0847712
0.0587472
0.0510225
0.15871
0.194752
0.305009
0.0887865
0.090045
0.176685
0.173435
0.173155
0.176994
0.0823975
0.420952
0.120811
0.081941
0.030353
0.0318304
0.125394
0.168287
0.162621
0.165521
0.141104
0.484833
0.325293
0.0362813
0.0316624
0.0422273
0.0211119
0.0303037
0.0412164
0.0278791
0.0250268
0.495113
0.350498
0.0421946
0.0520246
0.114321
0.0236064
-0.00177075
-0.0116205
-0.008661
0.00880882
0.506909
0.0993918
0.0388068
0.100609
0.102053
0.00481624
-0.00809346
-0.016282
-0.0160238
-0.00189959
0.161676
0.0201147
0.0405379
0.0909571
0.0318195
-0.00402409
-0.00832454
-0.0134765
-0.0109771
-0.00508836
401.333
401.071
401.049
400.733
400.059
399.564
399.21
398.993
398.937
399.061
401.555
401.231
401.093
400.804
400.128
399.588
399.197
398.948
398.868
398.974
402.199
401.737
401.369
400.771
400.12
399.593
399.169
398.873
398.751
398.824
403.703
402.908
402.233
401.167
400.208
399.596
399.093
398.73
398.556
398.603
405.876
404.946
403.851
402.244
400.795
399.712
398.948
398.446
398.187
398.159
408.83
407.664
405.905
403.473
401.44
399.872
398.794
398.129
397.729
397.522
413.473
411.944
409.084
405.413
402.238
399.787
398.124
397.143
396.56
396.167
417.95
417.14
408.456
398.082
386.731
374.08
363.475
356.852
351.907
348.363
293.921
262.781
200.033
134.778
86.01
58.1616
46.0486
42.5329
41.9624
41.9014
34.4982
16.5562
3.44199
0.449713
0.288951
0.0774944
0.0403565
0.042907
0.0500734
0.0410211
0.232586
0.130142
0.130359
0.118931
0.0947603
0.0614028
0.0466706
0.0426219
0.0437015
0.072511
0.178526
0.111588
0.101193
0.0802367
0.0651322
0.0578202
0.0473857
0.0379098
0.0823586
0.122407
0.213273
0.109338
0.0905188
0.0736267
0.0594856
0.0552626
0.0475049
0.0392079
0.0376798
0.0422579
0.200656
0.122246
0.239858
0.265911
0.129204
0.0548161
0.0894871
0.115111
0.0518254
0.0526281
0.313862
0.107454
0.18882
0.193862
0.111583
0.168335
0.160904
0.160363
0.152376
0.0594415
0.476148
0.100911
0.0811777
0.0395284
0.0279516
0.0526779
0.0386038
0.0121228
0.050395
0.0977228
0.484925
0.458558
0.289059
0.0230145
0.0191005
0.0064107
-0.0140861
-0.0296447
-0.0243457
0.000541871
0.493477
0.48033
0.27377
0.0300309
0.0153795
-0.00135236
-0.0207244
-0.0337598
-0.027159
-0.00384128
0.459432
0.252538
0.0839491
0.0198843
0.0044521
-0.00708173
-0.0201172
-0.0295008
-0.0241451
0.0108073
0.0860146
0.0236205
0.0130806
0.0306212
-0.00512564
-0.0108929
-0.0166045
-0.0221615
-0.000577468
0.110466
400.144
399.909
399.73
399.264
398.892
398.52
398.242
398.093
398.104
398.289
400.323
399.993
399.801
399.408
398.89
398.454
398.138
397.965
397.963
398.136
400.72
400.257
399.843
399.382
398.797
398.298
397.938
397.727
397.684
397.832
401.607
400.942
400.132
399.333
398.591
397.998
397.56
397.307
397.224
397.367
403.036
402.16
401.025
399.62
398.426
397.53
396.932
396.58
396.445
396.579
404.896
403.71
401.942
399.738
398.061
396.896
396.202
395.806
395.622
395.582
408.315
406.812
403.825
400.328
397.512
395.575
394.459
393.879
393.635
393.404
397.527
398.817
390.001
376.205
359.707
345.874
338.16
333.752
330.598
328.645
217.587
188.519
123.812
68.8153
39.3828
27.4441
24.6466
25.1428
26.084
27.1875
9.17151
2.47111
0.502842
0.260374
0.0767978
0.0513182
0.0504261
0.0570374
0.0621394
0.0644356
0.295557
0.200458
0.137029
0.0962882
0.0644102
0.0546761
0.0594366
0.0890652
0.0755493
0.0698962
0.241274
0.139207
0.0963921
0.0771953
0.0683301
0.0677565
0.104349
0.106681
0.113156
0.113103
0.265384
0.0930073
0.0794397
0.0664751
0.0622255
0.0642931
0.108731
0.111516
0.0870401
0.0555331
0.407046
0.0918975
0.0721232
0.0943496
0.115123
0.108323
0.102574
0.0607462
0.0317297
0.0429649
0.449096
0.0938141
0.080889
0.157038
0.0469617
0.0748737
0.0531718
-0.00276552
0.00117081
0.024817
0.470062
0.0917534
0.0804295
0.175251
0.0156926
-0.00191088
-0.0231825
-0.0369921
-0.0285737
-7.57855e-06
0.480469
0.382107
0.25196
0.167789
0.0217262
-0.00261274
-0.0268448
-0.0426577
-0.0363551
-0.00914959
0.487379
0.471501
0.424082
0.259262
0.132468
-0.00469717
-0.0234166
-0.0349663
-0.0221958
0.0469287
0.120319
0.183824
0.224497
0.216665
0.142716
0.0494033
-0.0180446
-0.00658777
0.125609
0.184085
0.0417058
0.0238327
0.0231564
0.087581
0.0484362
-4.87898e-05
-0.0148011
0.0478839
0.201755
0.207893
398.876
398.679
398.439
398.089
397.738
397.436
397.231
397.156
397.236
397.481
398.952
398.695
398.404
398.019
397.611
397.264
397.034
396.949
397.022
397.264
399.123
398.742
398.299
397.797
397.311
396.909
396.648
396.526
396.575
396.813
399.483
398.947
398.192
397.432
396.784
396.277
395.958
395.79
395.828
396.078
400.12
399.297
398.177
396.959
395.994
395.313
394.894
394.703
394.725
394.952
400.892
399.635
397.908
396.049
394.681
393.88
393.522
393.347
393.254
393.369
403.018
401.484
398.41
395.114
392.675
391.522
390.809
390.35
390.145
390.18
374.577
378.135
364.098
339.494
317.191
308.089
305.721
303.314
300.987
299.807
149.184
121.946
68.4301
31.4028
16.5081
12.922
13.4744
13.7654
13.7928
14.2279
0.84353
0.726348
0.269081
0.0797866
0.0672156
0.0683292
0.0688623
0.0695976
0.0698945
0.0726301
0.297739
0.475454
0.114873
0.0714151
0.0628724
0.0946572
0.118133
0.0858575
0.067017
0.065334
0.21529
0.644648
0.0882381
0.074196
0.10341
0.120263
0.117555
0.117231
0.070772
0.0607044
0.132501
0.306018
0.0725047
0.0639781
0.0657577
0.113648
0.108163
0.0445375
0.031953
0.0579224
0.407733
0.0796787
0.0647879
0.0546473
0.042412
0.0752641
0.0410762
0.00224291
0.00898707
0.0320143
0.437962
0.0885984
0.0713247
0.0920473
0.0151436
-0.00779177
-0.0173143
-0.0103911
-0.00882487
0.0123726
0.457469
0.104824
0.156454
0.206909
0.0283962
-0.00886349
-0.0227625
-0.0204012
-0.00375265
0.0261961
0.416666
0.128415
0.0906178
0.203047
0.0616792
0.00905368
0.0497519
0.0132392
0.0593188
0.111894
0.136503
0.116264
0.0869702
0.111952
0.110015
0.136037
0.106877
0.129684
0.182776
0.19938
0.0595933
0.0748314
0.0968377
0.0995941
0.175399
0.170313
0.155513
0.196196
0.198917
0.213866
0.0413337
0.0400865
0.0401816
0.0528882
0.184325
0.17802
0.139116
0.200982
0.213108
0.122512
397.667
397.493
397.247
396.943
396.647
396.411
396.277
396.273
396.414
396.716
397.622
397.397
397.099
396.747
396.408
396.138
395.996
395.986
396.128
396.438
397.557
397.208
396.783
396.326
395.906
395.589
395.41
395.38
395.521
395.849
397.437
396.955
396.292
395.621
395.055
394.622
394.422
394.375
394.517
394.862
397.309
396.583
395.528
394.521
393.769
393.284
392.999
392.944
393.072
393.385
397.133
395.901
394.323
392.719
391.61
390.976
390.968
390.904
390.944
391.173
398.164
396.566
393.515
390.414
388.432
387.838
387.174
387.016
386.932
386.87
349.489
353.918
332.743
300.832
278.517
274.7
276.166
276.836
275.362
272.309
100.446
79.3003
36.5119
12.9163
5.03696
3.73242
4.32362
4.66402
4.24652
3.74416
0.463308
0.454673
0.175551
0.0822101
0.0891013
0.0917259
0.0845974
0.0796845
0.0811955
0.0846403
0.210839
0.316284
0.0932995
0.072125
0.082617
0.0983674
0.0661335
0.0611623
0.0669554
0.0764493
0.143106
0.482182
0.0792395
0.0718013
0.118104
0.111906
0.0461698
0.0352455
0.0461391
0.0665574
0.103455
0.42614
0.064449
0.0566064
0.0800749
0.0487209
0.0283489
0.0123529
0.0236801
0.0465739
0.169736
0.133083
0.0596461
0.0438822
0.0203634
0.00234163
-0.00147504
-0.00239723
0.00446778
0.028542
0.335918
0.0780078
0.170415
0.167823
0.00606821
-0.0115685
-0.017197
-0.00283169
0.0444066
0.0276432
0.27458
0.0697206
0.187559
0.203196
0.173538
0.000291025
-0.012204
0.000614249
0.165718
0.151195
0.138822
0.0648272
0.0534391
0.164499
0.200876
0.170577
0.0611202
0.164237
0.185672
0.204119
0.0870366
0.0885906
0.0334649
0.017769
0.0356759
0.0422397
0.160075
0.196142
0.204367
0.22209
0.0467791
0.0640459
0.0273263
0.0175776
0.0382515
0.0754487
0.21205
0.211061
0.217152
0.15281
0.0378861
0.0203153
0.0187316
0.0190362
0.0423743
0.0778046
0.218147
0.219825
0.0852847
0.048158
396.647
396.486
396.249
395.977
395.727
395.545
395.467
395.523
395.722
396.071
396.492
396.278
395.994
395.675
395.396
395.194
395.107
395.148
395.361
395.718
396.215
395.86
395.483
395.087
394.721
394.463
394.351
394.382
394.574
394.978
395.677
395.182
394.643
394.087
393.602
393.259
393.121
393.142
393.341
393.73
394.933
394.188
393.339
392.537
391.939
391.479
391.33
391.366
391.555
391.904
394.02
392.879
391.439
390.05
389.178
388.712
388.608
388.689
388.847
389.073
393.982
392.496
389.674
386.973
385.633
384.159
383.862
384.267
384.333
383.854
320.871
326.741
304.676
270.667
247.009
243.152
250.998
258.739
259.188
251.661
71.6251
54.1952
18.7955
3.59857
0.306683
0.25662
0.239272
0.207248
0.18392
0.180548
0.309741
0.28479
0.11794
0.0786211
0.103416
0.11015
0.103539
0.0985625
0.0999261
0.106829
0.162299
0.178765
0.0746457
0.0659275
0.0811574
0.0704958
0.0602624
0.0658069
0.0779696
0.0921558
0.110253
0.11442
0.067512
0.0574001
0.108244
0.0477952
0.0289376
0.0364027
0.0489964
0.0678645
0.0936077
0.145071
0.0579988
0.0468983
0.0934902
0.00976364
0.00862836
0.0154978
0.0262804
0.0446613
0.0801358
0.11855
0.0828165
0.145641
0.0278962
-0.00218596
-0.00507687
0.00168584
0.0200521
0.0293024
0.0815704
0.060781
0.193927
0.200384
0.118921
-0.0066168
-0.00999493
0.00451128
0.0368158
0.0283449
0.0836483
0.0595798
0.108077
0.203573
0.195106
0.093388
0.0016218
0.0174214
0.0449163
0.03935
0.129001
0.0629881
0.0443002
0.16786
0.208653
0.212815
0.0477457
0.0503174
0.0683382
0.0739654
0.0718415
0.107332
0.0682604
0.0451496
0.128317
0.108649
0.0499099
0.0821178
0.072835
0.107837
0.0519053
0.065379
0.115717
0.0694146
0.0303688
0.0263073
0.0550883
0.0825386
0.0559573
0.119023
0.113037
0.0187563
0.0448346
0.0500621
0.0342683
0.0306902
0.0514049
0.0387793
0.0451928
0.123672
395.92
395.768
395.537
395.29
395.07
394.918
394.873
394.965
395.205
395.573
395.683
395.471
395.194
394.92
394.673
394.502
394.448
394.526
394.769
395.126
395.213
394.914
394.563
394.181
393.85
393.629
393.558
393.626
393.852
394.198
394.382
393.87
393.439
392.971
392.499
392.208
392.11
392.176
392.391
392.719
393.201
392.415
391.785
391.134
390.566
390.095
389.969
390.051
390.247
390.546
391.785
390.746
389.47
388.255
387.38
386.83
386.627
386.75
386.999
387.279
390.978
389.761
387.346
385.242
383.209
381.284
381.067
381.615
381.872
381.348
294.905
304.515
286.039
249.982
221.419
218.775
231.148
242.821
245.111
237.097
58.5306
41.2961
9.82291
0.873108
0.242796
0.196243
0.202705
0.21817
0.209926
0.202785
0.247284
0.202043
0.080255
0.0670935
0.0893043
0.0990611
0.102627
0.10348
0.107778
0.116821
0.159727
0.127661
0.0545169
0.0453634
0.0551316
0.0533744
0.0591645
0.0670203
0.0773578
0.0935656
0.116653
0.0892303
0.0522512
0.0380795
0.0969841
0.0266441
0.0318798
0.0399602
0.0478879
0.0655281
0.0890528
0.0657983
0.0505532
0.0919719
0.0871648
0.0133467
0.0160926
0.0232911
0.0297195
0.0435428
0.0811608
0.0602614
0.0915462
0.191581
0.0475559
0.00288294
0.00450939
0.0118515
0.0197218
0.0381863
0.0787242
0.058392
0.0912021
0.196718
0.0888513
-0.00114055
-0.000908521
0.0067135
0.0171317
0.0362622
0.126635
0.0626673
0.0458663
0.208696
0.202477
0.0536393
0.00438338
0.0120334
0.0231824
0.0375439
0.0951965
0.089083
0.051494
0.218545
0.22496
0.141946
0.0200569
0.024399
0.0344161
0.067569
0.0734413
0.102368
0.0889659
0.239903
0.253347
0.116675
0.0323785
0.0374333
0.0443647
0.132753
0.121084
0.0482937
0.159168
0.182085
0.116562
0.0513699
0.04631
0.0460859
0.0579618
0.181551
0.130086
0.0313353
0.0862402
0.0476688
0.0533412
0.0542691
0.048613
0.042545
0.101637
0.196884
395.556
395.423
395.179
394.94
394.729
394.586
394.555
394.668
394.938
395.119
395.272
395.05
394.79
394.531
394.29
394.124
394.086
394.191
394.437
394.452
394.709
394.437
394.083
393.711
393.376
393.154
393.101
393.199
393.422
393.251
393.708
393.168
392.782
392.343
391.873
391.565
391.479
391.577
391.798
391.653
392.303
391.495
390.938
390.303
389.606
389.174
389.026
389.115
389.384
389.16
390.722
389.57
388.503
387.317
386.231
385.58
385.194
385.191
385.548
386.091
389.867
388.869
386.711
384.631
381.621
379.12
378.626
378.694
378.698
378.475
279.245
290.728
276.182
238.612
207.778
204.519
214.611
220.427
219.688
216.44
56.924
36.3991
6.88884
0.378604
0.195253
0.153115
0.147645
0.154725
0.16636
0.170915
0.247555
0.176087
0.0562645
0.0539628
0.0766152
0.0852531
0.091543
0.0994218
0.107779
0.11503
0.165247
0.10716
0.0347807
0.0251677
0.036031
0.0457337
0.0534286
0.0594833
0.0668444
0.0859471
0.131423
0.0762703
0.0378804
0.0241319
0.081155
0.0214564
0.0268497
0.0323883
0.0363886
0.055935
0.0903427
0.0630339
0.044019
0.0734146
0.0583342
0.00694284
0.0138872
0.0202967
0.0221428
0.0389198
0.0866272
0.0606938
0.0565143
0.186172
0.0444386
0.00194437
0.00951087
0.0179204
0.0194987
0.0535209
0.0864337
0.0666554
0.0461529
0.198854
0.0717376
0.00486594
0.0115367
0.0201909
0.0234585
0.0580151
0.15064
0.0854582
0.0504567
0.210492
0.128408
0.0165426
0.0191999
0.0260598
0.0316995
0.0666199
0.104192
0.104639
0.0559525
0.221946
0.159441
0.0394543
0.0319754
0.0357813
0.0578222
0.0757629
0.114608
0.0712911
0.155361
0.244741
0.158998
0.0546595
0.045978
0.0460919
0.085289
0.0709137
0.127035
0.0224938
0.164412
0.175508
0.0971393
0.065527
0.057919
0.0513929
0.149833
0.092846
0.135677
0.039207
0.0604065
0.0713698
0.0766372
0.0704689
0.06033
0.101567
0.197518
0.104441
395.583
395.437
395.205
394.959
394.739
394.587
394.55
394.666
394.937
395.144
395.329
395.122
394.828
394.547
394.291
394.113
394.065
394.167
394.415
394.541
394.739
394.477
394.111
393.714
393.358
393.109
393.036
393.123
393.337
393.656
393.74
393.23
392.782
392.307
391.818
391.45
391.313
391.38
391.62
391.86
392.31
391.529
390.889
390.168
389.442
388.907
388.643
388.658
388.96
389.069
390.772
389.605
388.492
387.054
386.075
385.145
384.496
384.262
384.549
385.141
389.931
388.924
387.014
384.817
381.074
377.838
376.22
375.316
375.093
375.544
277.909
286.81
275.411
240.422
207.24
195.388
193.754
192.262
192.142
193.85
55.4171
34.2159
6.27284
0.329824
0.16895
0.127056
0.119102
0.126116
0.13586
0.141126
0.245129
0.158954
0.0386191
0.0417759
0.0625886
0.0682782
0.0704544
0.0798402
0.0910826
0.104777
0.139231
0.0873404
0.0206347
0.0118257
0.0182536
0.0256996
0.0323581
0.0426589
0.0501719
0.0686745
0.0975795
0.0626566
0.0269603
0.0129827
0.0105119
-0.0056371
0.00322276
0.0163365
0.0207395
0.0374424
0.0888052
0.0626254
0.0389623
0.0211062
-0.000573219
-0.0165083
-0.00508142
0.00737971
0.00803776
0.0220438
0.0912354
0.0690748
0.0456556
0.0763875
0.0197002
-0.011237
7.9015e-05
0.0105206
0.00930434
0.0356704
0.146266
0.0819241
0.0522571
0.135056
0.0484555
0.00390418
0.0122979
0.0190647
0.017968
0.0546339
0.159843
0.151539
0.0582001
0.101009
0.0526074
0.0241422
0.0270585
0.0289523
0.0313703
0.0653845
0.0947482
0.084047
0.149402
0.117084
0.0585253
0.0447311
0.0413246
0.0391578
0.068446
0.0743135
0.114332
0.0256671
0.162646
0.140039
0.0725174
0.0607722
0.0542258
0.049282
0.0806015
0.0549134
0.113227
0.0278413
0.123764
0.106268
0.0865157
0.0775725
0.0725571
0.106
0.0530243
0.0506604
0.0681298
0.0445561
0.0658538
0.100908
0.0999875
0.0870609
0.151925
0.198273
0.112389
0.0503707
396.015
395.856
395.609
395.342
395.098
394.924
394.866
394.96
395.211
395.598
395.796
395.567
395.268
394.963
394.681
394.475
394.397
394.467
394.716
395.108
395.333
395.079
394.639
394.194
393.803
393.509
393.383
393.424
393.651
394.074
394.448
393.954
393.489
392.951
392.362
391.892
391.649
391.637
391.876
392.362
393.134
392.315
391.662
390.99
390.118
389.386
388.92
388.779
389.038
389.717
391.759
390.45
389.412
388.274
387.005
385.733
384.689
384.101
384.159
384.95
391.092
389.771
387.734
385.649
382.398
378.508
374.834
372.003
371.123
371.646
290.326
295.55
284.965
256.09
223.323
199.016
180.078
168.314
166.604
169.384
53.2315
36.1224
8.8747
0.682456
0.125702
0.105648
0.103458
0.112574
0.121876
0.1301
0.246628
0.144455
0.0217878
0.0257721
0.0427017
0.041355
0.0483785
0.0648728
0.078624
0.095734
0.124512
0.0668672
0.0153984
0.00905009
0.00317564
-0.0104498
0.00989455
0.0374679
0.0448293
0.0604835
0.0906924
0.057416
0.0265204
0.012983
-0.0029167
-0.0260358
-0.0102288
0.0198851
0.0209354
0.0291687
0.0871753
0.0651736
0.0415274
0.0215469
-0.00328937
-0.0262645
-0.00842919
0.0179651
0.00850626
0.0119799
0.090519
0.0770023
0.0546712
0.0300864
0.0032627
-0.0127147
0.00183076
0.0170868
0.00843886
0.0126756
0.199187
0.173613
0.0627395
0.0391356
0.0189023
0.00849106
0.0159794
0.0224571
0.0158703
0.0237234
0.11681
0.12353
0.0890909
0.0510186
0.0389294
0.0306467
0.0320445
0.0295945
0.0250824
0.0395389
0.0903159
0.0396264
0.0887139
0.0745297
0.0603166
0.0524713
0.0474551
0.0409515
0.0432912
0.0499541
0.108268
0.0287576
0.0841782
0.0796004
0.0775474
0.0703019
0.0650451
0.0553691
0.0526113
0.0451108
0.110994
0.0381027
0.0697735
0.0967917
0.0955243
0.106924
0.0991422
0.0624671
0.0451205
0.042648
0.0817661
0.0566327
0.0950886
0.114581
0.10524
0.0841997
0.0916971
0.128902
0.0822067
0.0567058
396.81
396.641
396.37
396.069
395.787
395.575
395.481
395.535
395.737
396.098
396.641
396.385
396.097
395.756
395.431
395.181
395.059
395.092
395.294
395.674
396.396
396.08
395.61
395.11
394.675
394.323
394.129
394.12
394.318
394.754
395.766
395.283
394.717
394.116
393.431
392.861
392.507
392.415
392.603
393.133
394.761
393.837
393.239
392.471
391.469
390.575
389.929
389.646
389.81
390.445
393.679
392.33
391.322
390.178
388.761
387.328
386.008
385.109
384.905
385.53
393.283
391.782
389.736
387.988
385.04
381.272
376.275
370.751
367.948
368.715
313.884
315.912
304.787
279.002
249.283
215.746
181.563
154.018
145.201
149.892
55.3956
42.7244
18.0544
4.71943
0.121573
0.10838
0.110276
0.116637
0.123312
0.131531
0.228816
0.126922
-0.000934917
0.000313503
0.0296496
0.0434045
0.0544414
0.0696453
0.0802319
0.0931954
0.120338
0.059389
0.0135247
0.0108229
0.0100415
0.00550739
0.0316097
0.0621639
0.0610725
0.0615829
0.0910704
0.0608638
0.0332006
0.0345736
0.0395974
0.024591
0.026364
0.0528449
0.0427594
0.0303141
0.0860419
0.0701996
0.0538283
0.0652863
0.0689844
0.033229
0.0369547
0.0539038
0.0272985
0.00806322
0.163729
0.0887263
0.0965604
0.139843
0.0774152
0.0278397
0.0564408
0.044816
0.0213969
0.00739825
0.186239
0.127912
0.148145
0.12122
0.0569826
0.0393452
0.0701251
0.0421555
0.0265904
0.0218567
0.0633149
0.0566936
0.0700238
0.0574029
0.0510831
0.0522476
0.0569499
0.043155
0.0336791
0.0356029
0.071552
0.0380778
0.0419297
0.0537954
0.0647889
0.0643366
0.0608
0.0601872
0.0473097
0.0433238
0.109274
0.0385684
0.0486324
0.0703827
0.0789634
0.0796467
0.0786566
0.0764429
0.0536741
0.0423174
0.116438
0.0477193
0.0660372
0.102298
0.110174
0.108729
0.0900804
0.0635955
0.0465717
0.0380759
0.122703
0.0485562
0.060796
0.0710725
0.0707315
0.0669655
0.0578142
0.0720107
0.0489863
0.0840832
397.903
397.707
397.423
397.085
396.751
396.483
396.326
396.315
396.459
396.793
397.852
397.601
397.268
396.872
396.484
396.169
395.978
395.946
396.088
396.435
397.809
397.432
396.959
396.424
395.909
395.482
395.201
395.119
395.264
395.647
397.596
397.074
396.433
395.703
394.96
394.297
393.828
393.633
393.729
394.206
397.169
396.227
395.49
394.534
393.402
392.393
391.607
391.186
391.186
391.716
396.647
395.376
394.228
392.815
391.191
389.733
388.341
387.337
386.948
387.272
397.061
395.394
393.347
391.173
388.784
385.376
381.43
376.254
372.271
371.736
345.508
344.929
331.337
306.181
278.904
248.132
208.455
173.718
155.449
154.307
70.439
59.0489
33.4905
14.7711
5.19065
0.147216
0.137452
0.14082
0.1426
0.147377
0.250776
0.151632
0.0122903
0.00975891
0.0364588
0.0714004
0.0858952
0.0919807
0.0955922
0.102987
0.1269
0.0828108
0.123276
0.125693
0.102134
0.0582837
0.0761027
0.0940375
0.0997097
0.0995524
0.101429
0.0811626
0.128937
0.152249
0.148711
0.115493
0.0725219
0.0870444
0.0940188
0.11025
0.153119
0.111002
0.160734
0.173076
0.162448
0.0940919
0.117982
0.0754804
0.0572297
0.0551152
0.173301
0.16016
0.19121
0.184773
0.16468
0.0853273
0.177414
0.0600184
0.037302
0.00898612
0.108322
0.0933668
0.170218
0.184824
0.111652
0.0996107
0.129233
0.0528915
0.0380372
0.0208614
0.0879346
0.0475374
0.0549917
0.0751273
0.0568815
0.0927619
0.0736708
0.0536255
0.0471219
0.0427933
0.0582974
0.0396999
0.044467
0.0508142
0.064928
0.0747556
0.0703881
0.0624235
0.0627119
0.0564671
0.0785204
0.0439963
0.0512028
0.0613708
0.072504
0.0786061
0.0811979
0.08194
0.0828081
0.0714011
0.105939
0.0481746
0.0602371
0.0859456
0.0924669
0.0958906
0.0740437
0.0597398
0.0417987
0.0429735
0.11365
0.0393488
0.0385041
0.0414404
0.0450436
0.0460113
0.0421396
0.0308725
0.0152654
0.027733
399.196
398.972
398.678
398.304
397.914
397.577
397.347
397.267
397.354
397.654
399.278
398.993
398.649
398.21
397.761
397.366
397.091
396.98
397.055
397.352
399.46
399.037
398.551
397.949
397.411
396.891
396.515
396.337
396.388
396.701
399.739
399.143
398.398
397.598
396.809
396.072
395.493
395.182
395.163
395.526
400.125
399.078
398.207
397.022
395.816
394.677
393.774
393.235
393.092
393.439
400.494
399.158
397.904
396.157
394.324
392.664
391.278
390.284
389.854
390.013
401.872
400.213
397.984
395.33
392.876
390.012
387.216
384.508
382.125
381.158
375.832
374.12
360.921
336.13
310.137
286.566
258.656
225.742
203.347
196.799
105.854
91.4773
59.7282
31.3223
16.0651
6.67328
0.51838
0.178609
0.170271
0.176725
0.440478
0.288144
0.0987412
0.0364849
0.0540042
0.0737846
0.0942231
0.104178
0.106307
0.115123
0.22491
0.16316
0.0920376
0.0952632
0.0918417
0.064753
0.0963719
0.103406
0.113573
0.177691
0.240652
0.221894
0.103904
0.0643107
0.0596742
0.0773183
0.174556
0.0952836
0.11274
0.193206
0.164265
0.211748
0.095439
0.0538859
0.0564553
0.143423
0.176804
0.0689798
0.069327
0.1812
0.156691
0.208616
0.0751201
0.0983454
0.16802
0.186661
0.186474
0.0563629
0.0598751
0.105144
0.154966
0.203449
0.0656181
0.18004
0.18324
0.19799
0.135874
0.0493603
0.0522351
0.0428001
0.159718
0.199937
0.0939379
0.137546
0.133896
0.20711
0.0734867
0.0528147
0.0508909
0.0394434
0.0865266
0.117497
0.0885177
0.0466239
0.0607779
0.0965194
0.0649589
0.0599171
0.0593414
0.0607953
0.0507981
0.039265
0.0516688
0.0490733
0.0599591
0.0659862
0.0716802
0.0715458
0.0800481
0.0784397
0.0496696
0.0415988
0.0548999
0.0605618
0.0682313
0.0735047
0.0634452
0.0481878
0.0277696
0.0381671
0.0579946
0.0343563
0.0172654
0.0116911
0.015052
0.018077
0.0161606
0.00347745
-0.0156764
-0.0324348
400.564
400.298
400.027
399.628
399.171
398.768
398.461
398.317
398.352
398.61
400.774
400.42
400.149
399.679
399.163
398.679
398.319
398.126
398.136
398.382
401.191
400.674
400.229
399.803
399.076
398.453
397.968
397.697
397.657
397.9
402.011
401.194
400.383
399.637
398.811
398.013
397.358
396.941
396.826
397.083
403.232
402.161
401.02
399.72
398.416
397.215
396.221
395.608
395.332
395.494
404.825
403.438
401.987
399.908
397.815
395.932
394.44
393.532
393.112
393.098
407.581
405.85
403.369
400.114
396.993
394.353
392.568
390.805
389.747
389.278
403.903
399.882
387.791
366.344
340.696
320.42
303.113
286.627
274.538
270.522
176.827
151.825
103.814
60.0213
33.1322
19.4465
11.8519
7.18435
4.57965
3.1441
1.22486
0.519767
0.239236
0.107848
0.0743379
0.0784716
0.0798117
0.0730187
0.0772245
0.0826268
0.232135
0.120362
0.0570909
0.0486821
0.0561604
0.0592277
0.0774161
0.0780948
0.0798389
0.144606
0.266232
0.130002
0.0377104
0.0437391
0.0616353
0.0999693
0.120145
0.0671784
0.0888913
0.183952
0.222303
0.144137
0.0324964
0.043492
0.123467
0.106328
0.0881504
0.0527291
0.0607785
0.180545
0.255391
0.190701
0.0430186
0.0522949
0.165801
0.11637
0.0585941
0.0489188
0.0697319
0.183544
0.265081
0.199879
0.0497876
0.14788
0.178992
0.124893
0.0537571
0.0466881
0.0641309
0.175735
0.188239
0.25142
0.0950969
0.0965142
0.142231
0.111132
0.052997
0.0458626
0.0469978
0.0552873
0.175805
0.267469
0.0933391
0.0527409
0.0573755
0.0631259
0.0522489
0.0496957
0.0454632
0.0388732
0.0709599
0.120803
0.0555248
0.0475801
0.0509502
0.0510103
0.0535145
0.0496461
0.0436759
0.0420473
0.0496193
0.0349395
0.0305358
0.0295054
0.0323251
0.0378862
0.0433385
0.031582
0.0239973
0.0305572
0.0556298
0.0254202
0.00884927
0.009205
0.0324944
0.0235118
0.0267728
-0.0015857
-0.0282857
-0.039973
401.86
401.543
401.38
400.982
400.42
399.946
399.583
399.376
399.362
399.579
402.163
401.706
401.53
401.243
400.556
399.985
399.549
399.287
399.243
399.449
402.791
402.148
401.775
401.372
400.658
399.99
399.453
399.106
398.991
399.185
404.171
403.232
402.435
401.647
400.72
399.918
399.236
398.761
398.595
398.774
406.301
405.137
403.935
402.465
401
399.769
398.768
398.097
397.784
397.864
409.201
407.847
406.128
403.775
401.471
399.463
397.899
396.905
396.457
396.413
413.592
411.762
409.004
405.336
401.863
398.945
396.8
395.365
394.652
394.527
420.125
417.13
410.418
392.105
370.231
349.405
334.008
326.806
324.159
327.189
289.155
248.033
173.915
107.392
66.395
44.7915
34.21
28.576
24.6524