/*--------------------------------*- C++ -*----------------------------------*\
| =========                 |                                                 |
| \\      /  F ield         | OpenFOAM: The Open Source CFD Toolbox           |
|  \\    /   O peration     | Version:  2312                                  |
|   \\  /    A nd           | Website:  www.openfoam.com                      |
|    \\/     M anipulation  |                                                 |
\*---------------------------------------------------------------------------*/
FoamFile
{
    version     2.0;
    format      ascii;
    arch        "LSB;label=32;scalar=64";
    class       volScalarField;
    location    "0.74";
    object      alpha.water;
}
// * * * * * * * * * * * * * * * * * * * * * * * * * * * * * * * * * * * * * //

dimensions      [0 0 0 0 0 0 0];

internalField   nonuniform List<scalar> 
8000
(
1
1
1
1
1
1
1
1
1
1
1
1
1
1
1
1
1
1
1
1
1
1
1
1
1
1
1
1
1
1
1
1
1
1
1
1
1
1
1
1
1
1
1
1
1
1
1
1
1
1
1
0.999997
1
1
1
1
1
1
1
0.999996
1
0.999999
1
1
1
1
1
0.999994
0.993829
0.968259
1
1
1
1
1
0.925407
0.794934
0.689905
0.597462
0.503502
1
1
1
0.999995
0.849284
0.567665
0.340625
0.164636
0.091866
0.0680465
1
0.999999
0.969316
0.642065
0.265446
0.0714456
0.00487639
0.00107764
0.000706079
0.00070753
0.999994
0.939833
0.52162
0.110032
0.00147367
0.000424509
0.000139998
0.00016876
0.000158476
0.000147784
0.691275
0.383717
0.0529217
0.000499301
0.000205414
6.9676e-05
2.33356e-05
7.75524e-05
5.26783e-05
3.66545e-05
0.0503709
0.00149321
0.000244872
0.000128191
5.00658e-05
1.64135e-05
7.56667e-06
2.77519e-05
1.59778e-05
1.07576e-05
0.000100615
5.28656e-05
6.04301e-05
3.72105e-05
2.24181e-05
1.26161e-05
8.35717e-06
5.65041e-06
3.58864e-06
2.16591e-06
3.03899e-05
3.32747e-05
2.23923e-05
6.5204e-06
3.12807e-06
3.14477e-06
4.44839e-06
1.10132e-06
6.70761e-07
5.22884e-07
9.22723e-06
7.76029e-06
4.39169e-06
1.06313e-06
6.55211e-07
5.22221e-07
5.62074e-07
3.6907e-07
2.8267e-07
2.5572e-07
6.17675e-06
3.87823e-06
8.55119e-07
4.36971e-07
3.7622e-07
3.83505e-07
3.89308e-07
2.55552e-07
2.29538e-07
2.24826e-07
0.000128843
1.08895e-06
4.36994e-07
3.76236e-07
3.58101e-07
3.76233e-07
1.71211e-06
2.29538e-07
2.24826e-07
2.22983e-07
0.000152561
0.000131908
1.92764e-05
3.6167e-07
3.34702e-07
1.79601e-06
2.19062e-05
2.61945e-05
1.21105e-05
3.88741e-06
0.000132091
0.000133252
4.71244e-05
3.97012e-07
3.23141e-07
1.0925e-05
2.18616e-05
1.03356e-05
1.46733e-05
1.80902e-05
1
1
1
1
1
1
1
1
1
1
1
1
1
1
1
1
1
1
1
1
1
1
1
1
1
1
1
1
1
1
1
1
1
1
1
1
1
1
1
1
1
0.999992
1
1
1
1
1
1
1
1
0.999994
0.999413
0.999989
1
1
1
1
1
1
1
0.999997
0.999846
1
1
1
1
1
1
1
0.983634
1
1
1
1
1
1
0.91118
0.796729
0.658434
0.51632
1
0.999999
1
0.977038
0.699455
0.336816
0.143406
0.0477287
0.0112276
0.00537225
0.999999
0.999984
0.760385
0.32413
0.0612024
0.000480177
0.000140456
0.000169059
0.000149767
0.000119404
0.963962
0.647533
0.183101
0.0025258
0.000205562
6.97267e-05
2.34034e-05
7.02396e-05
4.77099e-05
2.63193e-05
0.419111
0.106045
0.000245067
0.000128866
4.83677e-05
1.66065e-05
7.54374e-06
6.17905e-05
9.84317e-05
2.06262e-05
0.00258452
0.000104815
5.54605e-05
4.01311e-05
2.04601e-05
5.88013e-06
4.09285e-06
3.75752e-05
6.56701e-05
1.92084e-05
0.000123761
4.1098e-05
3.1514e-05
1.99898e-05
1.17988e-05
2.2451e-05
2.24946e-05
2.0047e-05
7.07363e-06
7.56353e-06
5.37147e-05
1.68269e-05
2.05571e-05
1.65018e-05
3.04173e-05
3.04246e-05
3.0661e-05
2.72574e-05
1.9103e-06
4.00345e-07
8.03604e-06
1.65514e-05
7.85906e-06
5.84843e-06
2.13643e-05
2.81372e-05
2.28749e-05
1.43952e-05
2.48909e-06
2.70155e-07
5.15969e-06
5.27391e-06
8.02844e-07
5.86852e-07
1.03436e-06
2.21195e-06
1.08577e-06
4.04615e-07
2.59641e-07
2.40052e-07
1.84022e-06
8.41827e-07
5.24189e-07
4.05401e-07
3.34702e-07
3.51426e-07
1.64465e-06
1.19318e-06
4.96868e-06
1.60707e-05
1.14102e-05
4.1056e-06
2.25422e-06
3.28068e-07
3.20743e-07
3.12934e-07
2.37472e-05
2.62258e-05
2.62334e-05
2.60297e-05
0.000189287
1.22334e-05
1.17346e-06
3.23141e-07
3.16935e-07
4.64139e-06
2.15906e-05
2.59382e-05
2.3604e-05
1.8115e-05
1
1
1
1
1
1
1
1
1
1
1
1
1
1
1
1
1
1
1
1
1
1
1
1
1
1
1
1
1
1
1
1
1
1
1
1
1
1
1
1
1
1
1
1
1
1
1
1
1
1
1
0.999998
1
1
1
1
1
1
1
1
1
1
1
1
1
1
1
1
1
1
1
1
1
1
1
1
0.934756
0.837947
0.708475
0.647487
1
1
0.994791
0.774325
0.453008
0.218741
0.113481
0.0375305
0.00409507
0.00244783
0.996092
0.755234
0.361567
0.0966295
0.00351475
0.000214742
7.47697e-05
8.85078e-05
3.32034e-05
7.85191e-06
0.592304
0.182614
0.00705654
0.000286779
9.7398e-05
2.90225e-05
1.48301e-05
5.0337e-05
3.51646e-05
2.37901e-05
0.0664542
0.00382603
0.000216731
6.45488e-05
2.06951e-05
6.04086e-06
5.071e-06
0.000129538
0.000190152
0.000154111
0.000111986
4.90822e-05
4.04351e-05
1.81768e-05
5.30846e-06
1.75103e-06
2.61208e-06
3.3404e-05
3.60462e-05
2.28799e-05
3.04386e-05
1.20059e-05
8.26724e-06
3.80345e-06
1.66478e-06
8.43318e-07
1.23094e-06
1.45399e-05
1.9643e-05
5.42768e-06
1.0481e-05
5.33704e-06
2.12665e-06
1.74022e-06
3.34842e-06
1.64086e-05
3.08926e-05
3.06806e-05
2.22121e-05
7.38179e-07
2.93575e-05
3.57997e-06
1.03304e-06
1.45893e-06
1.10606e-05
2.56177e-05
1.94127e-05
1.31644e-05
5.48723e-06
1.22351e-06
6.13788e-05
4.21045e-06
4.57905e-07
1.08255e-06
5.13344e-06
3.05133e-06
1.02467e-06
1.38292e-06
7.09361e-06
2.28539e-05
0.00020787
1.48525e-06
4.38278e-07
3.66176e-07
3.38262e-07
2.90917e-07
3.28737e-06
2.39719e-05
2.59661e-05
2.59764e-05
0.000259461
1.86661e-06
3.41421e-07
3.13088e-07
3.12432e-07
3.13472e-07
1.62855e-05
2.62258e-05
2.60297e-05
2.32703e-05
0.000240765
2.15377e-05
3.48461e-07
3.15486e-07
3.14537e-07
4.54741e-06
1.23921e-05
1.26811e-05
8.6638e-06
2.61752e-06
1
1
1
1
1
1
1
1
1
1
1
1
1
1
1
1
1
1
1
1
1
1
1
1
1
1
1
1
1
1
1
1
1
1
1
1
1
1
1
0.999997
1
1
1
1
1
1
1
1
1
0.999924
1
1
1
1
1
1
1
1
1
1
1
1
1
1
1
1
1
1
1
0.999998
1
1
1
1
0.999998
0.975686
0.902365
0.784018
0.714344
0.749153
1
0.972802
0.738071
0.423012
0.195315
0.108189
0.0671273
0.0269793
0.0060582
0.0291141
0.71652
0.349174
0.0887179
0.00409194
0.000264288
9.41335e-05
0.000105641
4.82855e-05
7.40943e-06
7.18051e-06
0.127381
0.00925334
0.000429791
0.000163022
4.67511e-05
1.17583e-05
4.23616e-05
0.00016591
5.5085e-05
4.09498e-05
0.00011647
0.000152038
8.02526e-05
3.85591e-05
1.28693e-05
2.58822e-06
2.90925e-05
0.000189536
0.000190152
0.000178759
2.70002e-05
2.83267e-05
1.74564e-05
7.68682e-06
2.86519e-06
8.43313e-07
2.86691e-06
9.41637e-06
7.13045e-06
5.70769e-07
1.19625e-05
7.497e-06
2.91247e-06
1.40738e-06
7.32667e-07
4.70513e-07
4.19349e-07
2.03362e-06
3.97295e-06
4.71331e-07
7.49826e-06
3.12318e-06
7.50244e-07
4.74223e-07
4.46119e-07
3.90405e-07
1.06208e-05
2.48309e-05
1.5951e-05
4.6534e-06
0.000104527
1.17935e-05
3.9485e-07
3.17884e-07
8.187e-07
3.9156e-06
4.98604e-06
5.62227e-06
1.6016e-06
1.37999e-05
0.000256513
2.33784e-05
3.80942e-07
3.33175e-07
1.61193e-06
1.47954e-06
7.41483e-07
7.6529e-06
1.5612e-05
1.35e-05
0.000259951
8.80026e-05
3.49863e-07
3.0045e-07
4.35463e-07
2.70087e-07
3.24343e-06
1.31528e-05
2.03573e-05
1.33254e-05
0.000259461
0.000192209
3.50917e-06
3.14437e-07
3.0045e-07
8.44798e-07
4.05969e-06
5.28567e-06
3.53497e-06
3.55051e-06
0.000108926
0.000181029
9.28856e-06
3.14437e-07
3.15486e-07
1.41561e-06
3.68342e-06
1.62683e-06
1.76817e-07
5.29307e-08
1
1
1
1
1
1
1
1
1
1
1
1
1
1
1
1
1
1
1
1
1
1
1
1
1
1
1
1
0.999999
1
1
1
1
1
1
1
1
0.999999
0.999978
1
1
1
1
1
1
1
1
1
0.999996
0.999291
1
1
1
1
1
1
1
1
1
0.992057
1
1
1
1
0.999999
0.999574
0.993637
0.997402
0.999996
0.999992
1
1
1
0.992608
0.904212
0.680561
0.486075
0.486105
0.636
0.783456
0.942715
0.734105
0.381023
0.137496
0.0477609
0.0228588
0.00966768
0.00329627
0.00279631
0.0751551
0.323847
0.0962917
0.00133574
0.000398345
8.97804e-05
8.283e-05
6.83506e-05
1.55876e-05
6.4665e-06
6.73723e-06
0.000819973
0.000387774
0.000170675
7.43248e-05
1.76648e-05
5.73057e-05
2.25951e-05
9.26554e-05
0.00010028
2.59673e-05
0.000204674
0.00011103
4.36241e-05
1.52669e-05
3.8687e-06
1.07104e-06
5.48815e-05
0.000189422
0.000190152
0.000168452
8.34512e-05
4.36709e-05
1.52702e-05
3.6944e-06
9.68604e-07
4.70511e-07
5.13426e-06
1.13162e-06
1.00008e-05
4.19631e-07
2.70007e-05
1.93706e-05
5.23753e-06
1.07685e-06
4.46112e-07
3.68405e-07
3.60913e-07
3.48885e-07
3.44653e-07
3.60073e-07
1.19625e-05
6.18796e-06
1.24746e-06
3.17883e-07
3.7459e-07
3.36185e-07
3.67581e-07
1.09957e-06
6.7648e-07
9.46453e-07
2.0528e-05
4.25691e-06
1.81834e-06
3.0203e-07
3.11484e-07
2.97634e-07
3.2824e-07
1.6132e-06
1.22559e-06
2.26811e-06
0.000201493
5.38901e-05
1.68284e-06
2.95629e-07
2.78279e-07
2.70087e-07
6.88053e-07
3.19362e-06
1.34879e-06
8.51646e-06
0.000156288
9.10934e-05
4.44608e-06
2.78279e-07
2.69951e-07
2.70087e-07
6.01073e-07
3.34172e-07
5.59413e-07
6.50348e-05
4.4583e-05
9.75486e-05
1.76579e-05
8.88644e-07
2.78279e-07
2.75836e-07
2.88298e-07
3.56702e-07
5.10167e-07
0.000107004
2.12181e-07
6.33933e-05
3.92632e-05
7.54094e-07
3.13203e-07
3.03868e-07
3.81948e-07
4.56138e-07
6.60419e-05
0.000102287
1
1
1
1
1
1
1
1
1
1
1
1
1
1
1
1
1
1
1
1
1
1
1
1
1
1
1
0.999999
1
1
1
1
1
1
1
1
1
0.999995
0.999808
0.999987
1
1
1
1
1
1
1
1
0.999084
0.999995
1
1
1
1
0.999999
0.999996
0.999992
0.999998
0.997848
0.981823
1
1
1
0.999997
0.989351
0.931456
0.880594
0.951898
0.979582
0.977479
1
1
0.976115
0.8333
0.442326
0.153125
0.105682
0.297906
0.601113
0.769522
0.73989
0.434094
0.13077
0.0215379
0.00133573
0.000620431
0.000210754
1.54851e-05
6.44587e-06
0.0906075
0.102024
0.00822507
0.0006748
0.000193266
9.06699e-05
0.000812289
1.55926e-05
6.46722e-06
6.49859e-06
6.39475e-06
0.000833818
0.000535253
0.000160094
3.83877e-05
8.26991e-05
0.000389135
8.99581e-06
2.51382e-05
0.000124511
2.15634e-05
0.000587287
0.000159041
3.84018e-05
1.26459e-05
1.9056e-06
7.21052e-07
3.14955e-05
0.000181411
0.000188833
0.000144088
0.000272647
9.57967e-05
6.62824e-05
1.5186e-05
8.3349e-07
5.9797e-07
1.27391e-06
3.48885e-07
2.50682e-05
2.72283e-05
0.000440298
0.000497463
0.000291057
8.02792e-05
9.73629e-06
3.36188e-07
3.47547e-07
3.42948e-07
3.38272e-07
3.44653e-07
0.000498429
0.000561317
0.000332079
6.46038e-05
9.33542e-07
3.07868e-07
3.28238e-07
3.47531e-07
3.44652e-07
3.60069e-07
0.000302664
0.000400858
0.000162951
1.79764e-06
3.07869e-07
2.90975e-07
3.00749e-07
3.28216e-07
3.98276e-07
4.39093e-07
0.000194688
0.000161651
1.53367e-05
3.42755e-07
2.88513e-07
2.85819e-07
2.91407e-07
3.00746e-07
3.72495e-07
4.3384e-05
2.71332e-05
3.76263e-05
1.96741e-05
1.96273e-05
2.07273e-06
2.70087e-07
2.90514e-07
3.13107e-07
1.84894e-06
0.000108912
1.31844e-07
9.3336e-07
3.65203e-05
3.65203e-05
2.21528e-05
2.95928e-07
3.10892e-07
3.34171e-07
8.45933e-05
0.000107958
2.44365e-08
1.31844e-07
1.4823e-05
2.57826e-05
1.13311e-05
3.05937e-07
3.3455e-07
3.57781e-06
0.000106134
0.000107004
1
1
1
1
1
1
1
1
1
1
1
1
1
1
1
1
0.999998
0.999998
1
1
1
1
1
1
1
1
0.999995
0.999984
0.999999
1
1
1
1
1
1
1
1
0.999994
0.999998
0.999939
1
1
1
1
1
0.999999
0.999999
0.999997
0.996773
0.997699
0.999999
1
1
0.999999
0.999987
0.999954
0.999927
0.999981
0.952356
0.991789
1
1
0.999997
0.982954
0.837099
0.718846
0.732473
0.911115
0.945168
0.976197
0.968714
0.964905
0.850141
0.421635
0.0694859
0.0108384
0.0365919
0.248462
0.583405
0.700081
0.502814
0.198229
0.0276398
0.0016732
0.00154012
0.000857134
6.95448e-05
9.64798e-06
6.44735e-06
0.0511039
0.0142447
0.00302115
0.00199159
0.00122704
0.0027133
0.00104839
6.99794e-06
6.48334e-06
6.40049e-06
6.49864e-06
0.00111906
0.00223651
0.00204674
0.000465396
0.000724392
0.00014019
5.61619e-06
1.89741e-05
2.84986e-05
1.46814e-05
0.000838618
0.00272789
0.000648295
9.18381e-05
1.21669e-06
8.53402e-07
3.39427e-05
0.000178772
0.000186271
0.000108643
0.00419965
0.00369285
0.000626209
8.05376e-05
6.30538e-06
6.16044e-07
1.83911e-05
0.000110115
0.000160794
0.000100461
0.00863579
0.00364004
0.00139811
0.00036242
0.000128196
4.30128e-07
3.42948e-07
3.39991e-07
3.42903e-07
3.38508e-07
0.00596654
0.00451825
0.00246275
0.000939941
0.000202181
3.36186e-07
3.68726e-07
3.42948e-07
3.60211e-07
3.49786e-07
0.000650137
0.0022895
0.00257966
0.00115486
0.000211809
3.19556e-07
3.2824e-07
3.79677e-07
9.24467e-07
5.36783e-07
8.39889e-05
0.00108224
0.00136974
0.000139571
0.000152018
1.33254e-05
3.00749e-07
3.57784e-07
4.228e-07
4.24744e-05
2.58915e-05
6.57916e-05
2.51481e-06
5.51025e-06
3.8768e-05
5.46685e-05
4.9924e-06
3.34173e-07
6.74472e-07
0.000106909
5.70174e-07
1.93778e-07
1.80707e-06
8.14991e-06
1.37628e-05
2.60067e-05
5.54664e-06
5.02726e-07
5.68124e-05
0.000106148
7.56425e-09
4.16483e-08
1.01197e-06
9.31377e-06
8.3846e-07
2.65401e-07
5.53981e-07
2.2997e-06
0.000104132
2.16539e-05
1
1
1
1
1
1
1
0.999998
1
1
1
1
1
1
1
1
0.999997
0.999942
0.999967
1
1
1
1
1
1
1
0.999984
0.99994
0.999972
1
1
1
1
1
1
1
0.999989
0.999987
0.999998
0.999592
1
1
1
1
0.999999
0.999996
0.999987
0.999416
0.983843
0.992236
1
1
1
0.999991
0.999826
0.998415
0.999845
0.994516
0.922748
0.984636
0.999999
0.999999
0.997123
0.877257
0.616073
0.543156
0.755528
0.934427
0.942408
0.989882
0.903764
0.880239
0.56199
0.13506
0.0129583
0.00160038
0.0610139
0.335871
0.603637
0.687076
0.306348
0.0796649
0.00612833
0.00497302
0.0138076
0.0013395
1.12587e-05
9.3704e-06
7.32571e-06
0.0177207
0.00294719
0.00587704
0.0169631
0.0149346
0.0127319
2.0824e-06
2.3683e-06
5.69558e-06
6.49863e-06
7.33207e-06
0.002596
0.0117374
0.0250571
0.00465095
0.000119983
1.74247e-06
4.92393e-06
6.51202e-06
7.23112e-06
1.02924e-05
0.00209672
0.0274864
0.00495839
1.5417e-06
1.49306e-06
1.20289e-06
1.42665e-05
0.000102208
4.19659e-05
4.95551e-05
0.00848214
0.00843211
0.00095014
1.45762e-05
1.20289e-06
8.53402e-07
8.95546e-07
0.000135212
0.000156438
5.89152e-05
0.0114117
1.20115e-05
2.6093e-05
2.52245e-05
1.70374e-06
9.65528e-07
4.30637e-07
3.9368e-05
9.15093e-05
5.11191e-05
0.00642463
7.73061e-07
7.1082e-07
8.84361e-07
3.11727e-05
3.58173e-05
1.33557e-05
3.70064e-07
4.1999e-06
2.46771e-05
0.000270519
7.08992e-07
1.12676e-06
8.79799e-07
8.19929e-05
8.48004e-05
3.92411e-05
3.98269e-07
6.15116e-07
4.34048e-05
1.27573e-05
6.63861e-07
5.43528e-07
2.21668e-05
9.52515e-05
9.10307e-05
4.05909e-05
4.228e-07
6.30741e-07
7.29113e-05
0.000602134
7.43318e-07
2.54719e-06
2.21183e-05
4.14885e-05
5.27014e-05
2.07616e-05
9.25794e-07
1.32189e-06
3.86939e-05
0.000988992
7.22304e-07
1.60594e-06
3.05687e-07
2.27718e-07
2.65401e-07
6.10447e-06
1.19072e-05
1.62659e-05
1.23293e-06
0.000208416
1.56159e-06
1.16141e-06
1.26348e-07
1.83773e-07
2.27502e-07
6.80786e-07
1.46184e-05
1.46842e-05
7.0172e-07
1
1
1
1
1
1
1
1
1
1
1
1
1
1
1
1
1
0.999972
0.999981
1
1
1
1
1
1
1
1
0.99994
0.999964
1
1
1
1
1
1
1
1
0.999978
1
1
1
1
1
1
0.999999
0.999997
0.983142
0.959326
0.97848
0.998063
1
1
0.999999
0.999983
0.999519
0.996091
0.946158
0.922712
0.923494
0.956051
0.999994
0.999993
0.97616
0.773287
0.579625
0.564316
0.828221
0.945973
0.975871
0.991982
0.842396
0.758813
0.316707
0.072259
0.0132572
0.00362961
0.136291
0.383738
0.60565
0.729151
0.208315
0.0407668
0.00775042
0.0180181
0.0185299
0.0015911
1.42526e-05
7.30998e-06
1.02477e-05
0.00999185
0.0038975
0.00535058
0.0236856
0.0275684
0.023119
2.40239e-06
4.63032e-06
7.07926e-06
6.83041e-06
1.01753e-05
0.0043576
0.0212605
0.0351439
0.0300954
0.00297336
1.84885e-06
5.50602e-06
2.5485e-05
5.89008e-05
8.91384e-05
0.00643245
0.0325175
0.0266101
0.00181132
1.51624e-06
1.71209e-06
3.106e-06
4.54166e-05
0.000192623
0.000192623
0.0128558
0.0020617
3.23754e-06
1.51624e-06
1.47599e-06
1.23836e-06
3.64976e-06
2.75041e-05
5.68329e-05
2.89455e-05
0.0117399
8.24177e-07
9.83068e-07
5.28406e-05
1.51624e-06
2.08401e-06
1.41644e-05
2.59298e-05
8.85434e-05
5.54202e-05
0.00164827
7.1082e-07
5.95674e-07
3.79446e-06
3.75586e-06
2.44183e-06
3.18873e-05
3.28564e-06
1.23116e-05
6.05195e-05
9.89819e-07
5.95673e-07
5.43528e-07
5.95673e-07
7.89085e-06
2.67241e-06
4.21624e-05
2.02516e-06
9.39684e-07
6.28294e-05
0.000632801
5.43526e-07
4.81714e-07
5.43527e-07
8.29029e-07
3.26987e-06
2.6011e-05
8.48978e-06
8.69912e-07
5.85956e-05
0.00503956
4.81713e-07
3.5358e-07
2.58395e-06
1.81462e-06
4.02787e-06
7.59328e-06
1.49562e-05
4.00529e-06
8.7584e-07
0.00566967
3.53571e-07
2.70811e-07
3.51091e-06
9.58956e-06
1.79892e-06
1.05953e-06
1.49726e-05
4.23817e-06
7.96665e-07
0.00332443
2.70649e-07
2.54904e-07
2.99587e-07
1.27233e-06
2.65401e-07
6.41526e-07
1.25978e-05
7.96639e-07
7.11191e-07
1
1
1
1
1
1
1
1
1
0.984055
1
1
1
1
1
1
1
0.999999
1
0.985518
1
1
1
1
1
1
1
0.999986
1
0.986971
1
1
1
0.999999
1
0.999999
1
1
1
0.982411
1
1
1
1
1
1
0.99839
0.992889
0.998558
0.978513
1
1
1
0.999988
0.980056
0.916816
0.914964
0.970304
0.991707
0.9785
0.999987
0.999994
0.990763
0.902214
0.823138
0.812803
0.874826
0.958367
0.992623
0.997993
0.774169
0.721351
0.368222
0.110634
0.0901942
0.139686
0.225637
0.424753
0.605085
0.691332
0.180721
0.0404046
0.00812983
0.0085915
0.00122139
5.8875e-05
1.02463e-05
8.30729e-06
1.96832e-05
4.80186e-05
0.00299148
0.00414088
0.0169347
0.0157262
0.00172088
4.32613e-06
9.59811e-06
7.17178e-06
9.81438e-06
2.05499e-05
0.00233068
0.0159997
0.0351404
0.0130015
9.50216e-06
4.23743e-06
8.70124e-05
0.000155034
0.000245496
0.000238195
0.0132055
0.033527
0.0345582
8.48792e-06
6.37676e-06
5.6069e-05
3.96281e-05
2.87682e-05
0.000141212
0.000111222
0.0312491
0.0325843
0.0124691
1.9795e-06
1.51169e-06
1.50892e-06
4.89199e-06
3.99949e-06
4.40385e-06
4.19201e-06
0.0240529
0.0112184
3.23972e-06
0.000352776
3.05153e-06
9.77527e-06
8.44892e-05
6.79626e-06
6.5992e-06
2.46848e-05
0.00189225
8.24178e-07
9.83067e-07
1.62293e-05
3.05577e-06
4.32177e-06
0.000103658
1.7302e-05
6.31384e-06
6.03104e-05
4.67715e-06
9.89819e-07
5.95672e-07
9.14441e-07
6.44849e-06
2.74368e-06
5.48932e-05
1.98669e-05
1.09814e-06
5.03445e-05
0.00301546
8.76709e-07
5.42837e-07
3.184e-06
6.58487e-06
2.85933e-06
6.28163e-06
2.37451e-05
3.70099e-06
2.31275e-06
0.00567619
0.000330437
4.81491e-07
1.17148e-05
2.84735e-06
2.82324e-06
4.88247e-06
5.91611e-06
2.16091e-06
9.18454e-07
0.00567619
0.0027689
3.53577e-07
7.46431e-06
9.58956e-06
2.97304e-06
1.76399e-06
5.50062e-07
7.86003e-07
8.61618e-07
0.00567619
0.00334583
2.70825e-07
2.34988e-07
7.05191e-06
1.54999e-06
7.48855e-07
7.39658e-07
7.84547e-07
7.96601e-07
1
1
1
1
1
1
1
1
1
0.985373
1
1
1
1
1
1
1
1
1
0.99138
1
1
1
1
1
1
1
0.999991
1
0.9846
1
1
1
0.999982
1
1
1
1
1
0.978753
1
1
1
0.99976
0.998822
1
1
0.998621
1
0.978632
1
1
1
0.999298
0.980935
0.965661
0.970166
0.989811
0.999997
0.988717
0.998901
0.999996
0.999574
0.982021
0.913869
0.867128
0.909149
0.989809
0.99988
0.999236
0.724915
0.731012
0.600114
0.364026
0.284208
0.235677
0.31959
0.533634
0.641018
0.673571
0.179726
0.0507375
0.00729526
0.00651555
0.0004294
2.23492e-05
1.67953e-05
1.28925e-05
2.10269e-05
3.95373e-05
0.00233016
0.00209051
0.00230198
0.00265678
0.000379228
1.43884e-05
1.70884e-05
8.85996e-06
3.40551e-05
0.000108823
0.00187231
0.00216165
0.00639652
0.00358765
0.000123921
0.000137418
0.000217819
0.000226508
0.000246236
0.000245496
0.00507991
0.00799105
0.00807334
0.0033182
6.7996e-05
6.4943e-05
8.80912e-05
5.12461e-06
3.21245e-05
4.62979e-05
0.0148777
0.00980855
0.00534412
0.00168162
1.96857e-06
2.29918e-06
1.28595e-05
4.41489e-06
4.19201e-06
3.84172e-06
0.013799
0.00107823
0.000257815
0.000242482
4.55225e-06
1.39628e-05
0.000101027
1.07313e-05
4.08482e-06
3.98333e-06
0.00224169
1.51054e-06
9.04678e-05
6.75536e-06
3.83486e-06
4.95432e-06
0.000103658
5.30906e-05
8.22776e-06
1.04727e-05
3.35633e-06
1.77518e-06
8.85886e-06
1.617e-05
4.05254e-06
3.8444e-06
0.000103658
6.65163e-05
6.50957e-06
4.00564e-06
0.000529323
1.59489e-06
4.03091e-06
1.96512e-05
8.21469e-06
3.05691e-06
0.000102518
2.5723e-05
1.48207e-06
1.25042e-06
0.00386068
1.94013e-06
2.63119e-06
1.70267e-05
1.17372e-05
4.22442e-06
3.00357e-05
8.10188e-07
6.47391e-07
8.84427e-07
0.0051543
1.28313e-06
5.37943e-07
3.39214e-06
2.42442e-06
1.26979e-06
2.43114e-06
2.89945e-07
3.50014e-07
6.51175e-07
0.00412672
4.35255e-06
4.93341e-07
2.90735e-07
2.58115e-07
7.66799e-07
5.38233e-06
4.37111e-07
6.24321e-07
1.44707e-05
1
1
1
1
1
1
1
1
1
1
1
1
1
1
1
1
1
0.999984
0.999991
1
1
1
1
1
1
1
1
0.999943
0.999957
1
1
1
1
0.999997
1
1
0.999996
1
1
0.999175
1
1
1
0.999893
0.998848
1
0.999994
0.995173
0.998904
0.998283
1
1
1
0.999307
0.994079
1
0.999975
0.97636
0.983375
0.999209
0.999727
0.999999
0.999998
0.999838
0.981826
0.932422
0.944648
0.989054
0.994574
0.999028
0.699845
0.756701
0.781558
0.68271
0.480966
0.371295
0.399182
0.553944
0.613434
0.590347
0.201499
0.0675646
0.0342767
0.0264526
0.00716313
0.000501245
2.06614e-05
1.94673e-05
3.79777e-05
7.84299e-05
0.00180713
0.00104767
0.000680772
0.000258789
7.20193e-05
2.0607e-05
1.87321e-05
1.28925e-05
4.51478e-05
0.000248896
0.0010478
0.000614208
0.00028843
0.00011189
3.69813e-05
0.000137588
2.90883e-05
6.0236e-05
0.000193027
0.000142075
0.00327977
0.000984101
0.000161363
0.000399028
2.58583e-05
2.77799e-05
2.62123e-05
5.14074e-06
4.3888e-06
3.84172e-06
0.00112245
0.00107497
0.000513367
0.000292194
1.7566e-05
3.20217e-05
0.000129466
8.60372e-06
3.84172e-06
3.81389e-06
0.000835155
0.00108755
0.000944652
0.000157624
5.01302e-06
1.22704e-05
0.000126927
8.65631e-05
8.51195e-06
3.41902e-06
0.00107637
0.000169379
0.000359958
0.000162678
4.04991e-06
2.81535e-06
7.28784e-05
9.43325e-05
1.88559e-05
3.08198e-06
0.00161763
4.35537e-06
1.92975e-05
4.80316e-05
6.64311e-06
4.86968e-06
4.85186e-05
9.42466e-05
7.26387e-06
2.40964e-06
0.00160736
1.97494e-06
3.35757e-05
2.42628e-05
3.1806e-05
1.00659e-05
5.52586e-05
6.50889e-05
1.77213e-06
1.64551e-06
0.000437402
2.20614e-06
2.42978e-05
1.10997e-05
3.6142e-05
5.29184e-06
2.44126e-05
2.31617e-07
1.86846e-06
1.2504e-06
0.000129955
2.70187e-06
1.28313e-06
5.68791e-06
3.52618e-06
1.27511e-06
3.32644e-07
1.74814e-07
4.16497e-07
7.91177e-06
0.00011969
6.3463e-06
2.66369e-06
5.12733e-07
3.18645e-07
1.05095e-06
1.97738e-07
1.29526e-06
6.18731e-05
0.000359626
1
1
1
1
1
1
1
0.999999
1
1
1
1
1
1
1
1
0.999997
0.99995
0.999982
1
1
1
1
1
1
1
0.99997
0.999943
0.999952
0.999998
1
1
1
1
0.999999
1
0.999994
0.999976
0.999979
1
1
1
1
0.999995
0.999957
1
1
0.999186
0.999996
1
1
1
1
0.999929
1
1
0.999999
0.994866
0.989016
0.999994
0.999999
1
1
1
0.999994
0.991434
0.989388
0.996955
0.952738
0.987312
0.731539
0.786865
0.837956
0.847727
0.687354
0.539111
0.506108
0.649558
0.709006
0.661565
0.245165
0.0955108
0.0857413
0.0781406
0.0376979
0.0141266
0.00126794
0.000560567
0.00295415
3.40927e-05
0.00191485
0.000637332
0.000332545
0.000204391
5.34007e-05
2.11089e-05
2.06608e-05
1.91678e-05
2.11091e-05
2.50744e-05
0.000637333
0.000332689
0.000161356
6.55835e-05
2.98754e-05
7.03445e-05
1.78533e-05
1.24201e-05
3.55965e-05
6.02088e-05
0.00421803
0.000730757
6.57572e-05
2.99387e-05
2.73658e-05
4.98667e-05
8.95939e-05
4.84611e-06
4.34689e-06
4.07344e-06
0.0016214
0.00290262
0.000877658
3.04109e-05
2.24306e-05
5.26738e-05
0.00013978
6.25435e-05
8.5269e-06
3.84172e-06
0.0006758
0.00109418
0.00132274
0.000276493
4.73546e-06
2.14152e-06
0.000102402
3.75077e-05
1.68162e-05
3.81511e-06
0.000446783
2.94468e-05
0.000307974
0.000225792
1.28708e-05
1.10662e-06
3.72917e-07
3.62412e-07
2.40677e-05
3.44185e-06
0.000433926
2.99758e-05
6.02026e-05
3.93568e-05
4.94425e-06
5.57911e-06
2.85904e-07
2.81891e-07
0.000394346
2.17085e-05
0.000516729
4.54115e-05
5.77447e-05
6.9661e-06
3.87479e-05
3.15155e-05
2.97315e-07
2.77093e-07
0.000895418
0.000310241
0.000112157
7.63087e-06
4.08028e-05
8.11843e-06
7.42187e-05
5.0716e-05
2.31617e-07
2.20291e-07
0.000874638
0.000644541
1.64041e-06
5.51162e-06
5.93767e-05
7.32198e-05
7.53389e-05
2.48544e-05
1.74814e-07
1.61884e-07
0.0006684
0.00105087
2.46028e-07
1.16227e-06
2.16296e-05
2.56938e-05
5.6016e-06
1.19385e-06
1.61884e-07
1.59813e-07
4.411e-05
0.00102522
1
1
1
1
1
1
1
1
1
1
1
1
1
1
1
1
0.999998
0.999998
1
1
1
1
1
1
1
1
0.999995
0.999981
0.999999
1
1
1
1
1
1
1
0.999996
0.999998
1
1
1
1
1
1
1
1
1
1
1
1
1
1
1
1
1
1
1
0.999999
0.999996
0.975269
1
1
1
1
1
0.999998
0.999986
0.999952
0.980272
0.898254
0.818146
0.8636
0.877834
0.882357
0.828894
0.727822
0.66795
0.731536
0.775056
0.803485
0.354055
0.122422
0.0907314
0.0658298
0.0369023
0.0264986
0.0262314
0.0373244
0.0503491
0.053149
0.00488013
0.000731844
0.000279562
0.000123447
3.7404e-05
3.85638e-05
2.11629e-05
2.11091e-05
2.41667e-05
3.36794e-05
0.000731852
0.000279612
0.000137953
5.15144e-05
2.75107e-05
0.00019435
0.000343548
0.000180043
9.29962e-05
3.76159e-05
0.00608655
0.00254028
5.15171e-05
2.76341e-05
2.44001e-05
7.25615e-05
0.000397898
0.000811965
0.00094638
0.000450276
0.00528346
0.00515296
0.00179433
2.65246e-05
1.18214e-05
9.29886e-06
3.86566e-06
0.000222705
0.00105738
0.00103698
0.00066645
0.000179434
0.00135541
0.000424847
7.76079e-06
4.05452e-06
3.15489e-06
6.9014e-07
0.00105737
0.00103424
2.08861e-05
2.33652e-05
2.88071e-05
0.000143042
2.90867e-05
3.17878e-06
6.92687e-06
4.26646e-07
0.00105665
0.000553025
1.30763e-05
0.000100655
6.14528e-05
6.9008e-06
4.52922e-06
4.00594e-06
1.32316e-06
2.86052e-07
0.00105075
0.000451481
4.38522e-06
0.000119111
5.14402e-05
5.09096e-06
4.74201e-06
9.25525e-06
7.25613e-07
2.97315e-07
0.0010374
0.000973301
2.25085e-06
0.000135497
2.06175e-05
5.15844e-06
3.59926e-05
5.91403e-05
3.3557e-06
2.31617e-07
0.00079062
0.00069763
1.76061e-06
0.000189384
0.000201664
8.46234e-05
0.000117712
5.82451e-05
6.04926e-07
1.74814e-07
4.40843e-05
6.71047e-05
5.46291e-09
2.16675e-05
0.000238732
0.000235571
0.000141859
3.66718e-06
1.97734e-07
1.5752e-07
8.42532e-07
4.66137e-05
1
1
1
1
1
1
1
1
1
1
1
1
1
1
1
1
1
1
1
1
1
1
1
1
1
1
1
1
0.999999
1
1
1
1
1
1
1
1
1
0.999993
1
1
1
1
1
1
1
1
1
1
0.975612
1
1
1
1
1
1
1
1
0.999999
0.915664
1
1
1
1
1
0.999999
0.999996
0.999986
0.999969
0.900818
0.932336
0.977444
0.957513
0.917207
0.862567
0.810739
0.781274
0.764269
0.765519
0.824141
0.540133
0.2378
0.128235
0.0782024
0.0396049
0.0224871
0.0179373
0.0275859
0.0381611
0.043277
0.0441225
0.00129607
0.000441326
0.000173468
5.36607e-05
4.02062e-05
2.74013e-05
3.70392e-05
3.98277e-05
4.35285e-05
0.00129608
0.0004414
0.000178611
5.95765e-05
2.99671e-05
9.1618e-05
0.000339157
0.000389799
0.000131109
0.000420733
0.00650656
0.00536914
0.000320299
2.99759e-05
2.07117e-05
3.7038e-05
0.000102251
0.000504311
0.000868836
0.00104517
0.00594086
0.00522874
0.0043625
0.00059253
1.38667e-05
3.80503e-06
2.05545e-06
4.21412e-05
0.00026514
0.00102837
2.19229e-05
2.0212e-05
0.000472637
0.000552333
0.000107363
2.05514e-06
9.27396e-07
8.05382e-07
4.40919e-05
0.00101799
2.00083e-05
1.54318e-05
9.62427e-06
2.00569e-05
2.21165e-05
9.60377e-06
8.80952e-07
6.7816e-07
4.67163e-06
0.000428327
2.08861e-05
8.45337e-05
5.35033e-05
5.09096e-06
8.98861e-06
4.0208e-06
8.90903e-06
3.59526e-06
2.00105e-05
2.10467e-05
2.23481e-05
1.97339e-05
1.33496e-05
5.06305e-06
4.24714e-06
4.14589e-06
2.78516e-05
1.80082e-05
4.23009e-05
0.00010884
4.2395e-05
0.000175601
1.69064e-05
5.09096e-06
4.63245e-06
6.44546e-06
3.15542e-05
1.99415e-05
0.000104984
0.000152021
3.69822e-05
0.000303072
6.49381e-05
5.15844e-06
1.25721e-05
5.14303e-05
9.87641e-06
7.67551e-06
0.000134069
0.000114373
3.16208e-06
0.00021592
0.000265655
0.000262
0.000222212
2.15152e-05
5.48259e-07
1.04699e-05
0.000133227
6.77321e-05
1
1
1
1
1
1
1
1
1
1
1
1
1
1
1
1
1
1
1
1
1
1
1
1
1
1
1
1
0.999999
1
1
1
1
1
1
1
1
1
0.999717
0.99868
1
1
1
1
1
1
1
1
0.999182
0.972934
1
1
1
1
1
1
1
1
0.999999
0.978129
1
1
1
1
1
1
0.999999
0.999996
0.999941
0.98842
1
1
1
0.986804
0.92052
0.863773
0.821711
0.776027
0.727312
0.724337
0.765893
0.611196
0.329755
0.145011
0.0674539
0.0299875
0.0158695
0.0104822
0.00136535
0.000163799
0.150962
0.0421875
0.00110253
0.000418944
0.000129891
2.11352e-05
2.70555e-05
2.45879e-05
4.05235e-05
7.58685e-05
0.00361991
0.00110264
0.000377665
0.000102474
2.59833e-05
9.03159e-06
4.75475e-05
0.000143527
0.000339067
0.0007
0.00574907
0.00238692
0.000128574
2.62925e-05
9.0416e-06
5.99284e-06
3.12201e-06
5.27314e-05
0.000416022
0.00108486
0.00365375
0.0040646
0.00419404
0.00129317
1.81067e-05
3.74739e-06
1.69551e-06
1.31178e-06
7.27379e-06
0.000357633
3.77328e-05
3.23463e-05
0.000650735
0.00120175
0.000291307
4.09242e-06
1.31178e-06
9.27396e-07
9.39358e-05
0.000156339
0.000107589
4.18555e-05
8.11529e-06
0.000184479
0.000161785
9.68442e-06
1.05744e-06
8.79464e-07
0.000113975
0.000106004
4.83694e-05
2.55608e-05
7.18003e-06
5.70896e-06
3.08798e-05
4.2851e-06
5.0571e-06
1.4104e-06
3.28992e-05
3.36106e-05
0.00015384
3.53242e-05
5.78153e-06
5.09096e-06
4.63244e-06
4.24083e-06
5.59048e-05
8.0772e-05
1.79909e-05
1.45667e-05
0.00037483
4.91206e-05
5.62124e-06
5.15844e-06
5.26029e-06
6.12573e-05
0.000144433
0.000139299
1.82795e-05
1.2437e-05
0.000269734
0.000308457
6.00425e-06
5.62124e-06
5.71079e-06
0.000126621
0.000149374
0.000102797
8.59346e-06
4.51783e-06
2.15405e-06
0.000324688
0.000253403
4.90241e-05
7.9345e-05
0.000100115
4.41247e-05
5.97391e-05
1.70732e-05
4.28554e-06
1
1
1
1
1
1
1
1
1
1
1
1
1
1
1
1
1
1
1
1
1
1
1
1
1
1
1
1
0.999998
0.999976
1
1
1
1
1
1
1
1
0.999969
0.999654
1
1
0.999999
1
1
1
1
0.999999
0.999949
0.999301
1
1
1
1
1
1
1
1
1
0.999999
1
1
1
1
1
1
1
1
0.999999
0.999886
1
1
1
1
0.995792
0.923313
0.842094
0.764392
0.681345
0.6306
0.964309
0.936374
0.734433
0.400039
0.148547
0.0564374
0.0177083
0.00172091
5.43326e-05
0.000106923
0.446127
0.295211
0.0727398
0.00155819
0.000347882
8.17158e-05
1.03229e-05
1.34143e-05
2.72259e-05
9.67099e-05
0.015336
0.00223255
0.000693706
0.000195657
4.89609e-05
9.79244e-06
4.12698e-06
2.89488e-06
0.000302605
0.000708664
0.000760309
0.000597666
0.000195662
4.89617e-05
9.80555e-06
4.13897e-06
3.38213e-06
1.97044e-06
0.00015859
0.000404213
0.000194334
0.000373912
0.00140163
0.000667934
2.07626e-05
3.15943e-06
1.97122e-06
1.85359e-06
1.66235e-05
7.09749e-06
2.14883e-05
2.64958e-05
0.00113749
0.001115
0.000216363
4.67294e-06
2.31262e-06
2.17355e-06
1.81778e-05
6.48549e-06
1.6292e-05
2.90296e-05
0.000295984
0.000662069
0.00015957
3.96968e-06
1.96021e-06
3.63566e-06
1.21667e-05
6.74112e-06
1.53415e-05
1.39019e-05
8.11506e-06
2.71272e-05
2.93503e-05
5.15372e-06
4.21391e-06
2.05375e-05
1.01895e-05
1.03875e-05
0.000260493
2.91118e-05
6.73991e-06
5.7089e-06
5.74001e-06
4.65836e-06
9.03427e-06
3.36581e-05
1.94932e-05
1.07806e-05
0.000374857
3.39088e-05
6.72372e-06
5.62124e-06
3.76043e-05
0.000183252
0.000120059
5.78126e-05
9.32878e-06
1.00672e-05
0.00037483