/*--------------------------------*- C++ -*----------------------------------*\
| =========                 |                                                 |
| \\      /  F ield         | OpenFOAM: The Open Source CFD Toolbox           |
|  \\    /   O peration     | Version:  2312                                  |
|   \\  /    A nd           | Website:  www.openfoam.com                      |
|    \\/     M anipulation  |                                                 |
\*---------------------------------------------------------------------------*/
FoamFile
{
    version     2.0;
    format      ascii;
    arch        "LSB;label=32;scalar=64";
    class       surfaceScalarField;
    location    "0.74";
    object      alphaPhi0.water;
}
// * * * * * * * * * * * * * * * * * * * * * * * * * * * * * * * * * * * * * //

dimensions      [0 3 -1 0 0 0 0];

oriented        oriented;

internalField   nonuniform List<scalar> 
22600
(
-3.62001e-08
1.07516e-07
-7.1316e-08
-4.32117e-08
7.84414e-08
-7.14297e-08
-4.58703e-08
7.74773e-08
-7.48187e-08
-4.6907e-08
7.42423e-08
-7.32055e-08
-3.95535e-08
6.47456e-08
-7.2099e-08
-2.14654e-08
5.53272e-08
-7.34153e-08
6.12449e-09
4.70921e-08
-7.46821e-08
4.67125e-08
3.77735e-08
-7.83616e-08
9.69103e-08
3.13725e-08
-8.15702e-08
2.69354e-08
-8.5458e-08
-9.4297e-08
3.3429e-07
-1.32477e-07
-1.45664e-07
2.59297e-07
-1.29489e-07
-1.63991e-07
2.27233e-07
-1.31429e-07
-1.68771e-07
1.99551e-07
-1.20529e-07
-1.50158e-07
1.59058e-07
-1.12926e-07
-1.09766e-07
1.24626e-07
-1.09691e-07
-5.22476e-08
9.79507e-08
-1.08377e-07
1.38344e-08
7.80527e-08
-1.06361e-07
8.37206e-08
6.18474e-08
-1.00361e-07
4.6559e-08
-9.71896e-08
-8.86728e-08
5.52837e-07
-1.29874e-07
-1.47425e-07
4.49356e-07
-1.31307e-07
-1.68587e-07
4.10511e-07
-1.62115e-07
-1.76732e-07
3.59492e-07
-1.51797e-07
-1.59109e-07
2.76855e-07
-1.35419e-07
-1.20217e-07
2.09562e-07
-1.23828e-07
-6.53179e-08
1.56445e-07
-1.13393e-07
1.58321e-09
1.10614e-07
-9.94623e-08
7.57369e-08
6.8273e-08
-8.05793e-08
1.88019e-08
-6.22971e-08
-4.77662e-08
7.04426e-07
-1.03823e-07
-1.32522e-07
5.37034e-07
-2.92216e-09
-1.7563e-07
5.79222e-07
-1.25604e-07
-1.85214e-07
5.44339e-07
-1.75262e-07
-1.72178e-07
4.33852e-07
-1.70033e-07
-1.46371e-07
3.22545e-07
-1.3879e-07
-1.04936e-07
2.17138e-07
-1.02127e-07
-5.30309e-08
1.0906e-07
-5.03507e-08
2.74285e-08
-2.79087e-08
1.57225e-08
-2.10641e-07
7.90089e-08
1.27098e-07
5.24445e-07
5.28835e-08
-4.333e-08
4.41242e-07
2.6622e-07
-2.66232e-07
7.63123e-07
3.90021e-08
-3.48521e-07
7.32377e-07
-1.05749e-07
-3.57729e-07
5.64233e-07
-1.21173e-07
-3.49412e-07
3.744e-07
-6.0172e-08
-3.30747e-07
1.79984e-07
1.84884e-08
-2.85676e-07
-3.72503e-08
1.0124e-07
-1.45284e-07
-3.70563e-07
2.02262e-07
-8.29079e-07
3.00074e-07
2.3127e-07
1.34129e-07
1.59046e-07
-9.7993e-08
4.65883e-07
3.0462e-07
-5.46794e-07
1.01692e-06
1.95004e-07
-7.58764e-07
9.34998e-07
9.3476e-09
-8.40566e-07
6.72648e-07
-2.66126e-08
-8.26231e-07
3.70143e-07
-1.00776e-08
-6.87093e-07
5.3582e-08
-1.27355e-08
-4.1956e-07
-3.53714e-07
4.893e-08
-1.81471e-07
-8.42596e-07
2.33942e-07
-1.37212e-06
4.01069e-07
1.09264e-07
-2.05501e-08
4.54142e-08
-2.39643e-07
5.75801e-07
2.38986e-07
-6.06793e-07
1.04935e-06
3.3472e-07
-8.24967e-07
9.96645e-07
1.56527e-07
-8.57964e-07
7.68038e-07
-6.2393e-08
-6.76388e-07
4.32856e-07
-2.4429e-07
-3.03372e-07
-7.68045e-08
-2.42629e-07
-5.54605e-08
-6.33547e-07
3.1894e-08
6.27955e-08
-8.89457e-07
-5.26382e-08
-7.86024e-07
-2.79226e-07
-1.65505e-07
2.9301e-07
-1.48054e-07
-5.60236e-07
9.08885e-07
6.16457e-08
-8.77224e-07
1.16275e-06
2.03592e-07
-9.89922e-07
1.01429e-06
9.50565e-08
-8.23474e-07
6.19816e-07
-1.82258e-08
-5.28031e-07
2.46024e-07
-1.8474e-07
-2.73531e-07
1.60407e-07
-6.04705e-07
6.80243e-08
2.38312e-07
-1.48894e-06
3.0698e-07
2.63532e-07
-1.90657e-06
1.85697e-07
-1.62097e-06
-5.31006e-07
1.19159e-06
-3.67571e-07
-1.28143e-06
2.04232e-06
-3.83017e-07
-1.95778e-06
2.3295e-06
-4.90398e-07
-2.00152e-06
2.18704e-06
-1.12912e-06
-1.32806e-06
1.24936e-06
-1.91367e-06
-3.56467e-07
5.08713e-07
-1.79399e-06
5.76519e-08
6.32798e-08
-1.1788e-06
1.28768e-07
-2.05196e-08
-4.96789e-07
1.20153e-07
-2.42086e-08
-1.23e-07
-1.74126e-08
-9.03358e-08
-7.39914e-07
2.40994e-06
-4.78436e-07
-1.46284e-06
3.43059e-06
-6.6537e-07
-1.6654e-06
2.85673e-06
-8.99193e-07
-7.37459e-07
8.88081e-07
-9.59347e-07
-8.36002e-08
-9.60136e-09
-4.03627e-07
2.47609e-08
-9.93073e-09
-4.79825e-08
1.64009e-08
1.43874e-09
-1.56256e-08
6.91432e-09
-5.99887e-10
-1.42374e-08
-1.43802e-08
-1.89213e-11
-8.48467e-09
-1.05711e-09
-8.11145e-09
-5.6533e-07
3.29673e-06
-3.21614e-07
-6.28063e-07
2.82592e-06
-4.03084e-07
8.87194e-08
3.89535e-07
-1.51219e-07
5.88682e-09
-2.37885e-08
-3.26837e-09
-2.86513e-09
3.84843e-09
-1.1465e-08
-3.52086e-09
6.92885e-10
-7.70793e-09
-2.83091e-10
1.79596e-10
-2.39669e-09
-2.11905e-10
4.7971e-11
-1.55453e-09
-1.22669e-09
-3.91716e-11
-6.90754e-10
4.95348e-11
-8.31978e-11
2.50416e-08
7.56671e-07
1.59986e-07
4.30844e-07
5.76414e-09
1.80063e-07
2.11673e-10
3.34572e-09
-9.34258e-09
-8.12535e-09
-5.25882e-10
-6.34931e-09
-1.68098e-09
8.84331e-10
-1.94081e-09
-7.12633e-10
2.37276e-10
-7.77986e-10
-3.90919e-10
1.37403e-10
-3.16467e-10
-8.59875e-11
3.23479e-11
-4.29339e-10
-2.66347e-11
-6.75562e-11
-2.42355e-10
1.20733e-10
-3.34458e-12
-1.23581e-09
-5.78794e-09
6.22827e-08
-4.61608e-09
-4.82549e-09
-4.00243e-09
-2.71203e-09
7.6729e-10
-2.96142e-09
-1.55304e-09
-8.81852e-11
-8.85864e-10
-4.89237e-10
2.67628e-10
-3.68229e-10
-2.05176e-10
3.81622e-11
-1.32187e-10
-9.79806e-11
1.19526e-10
-6.22912e-11
-2.16567e-12
9.68922e-11
-1.68084e-10
3.79659e-11
4.35814e-11
-1.67129e-10
5.75275e-11
-1.10822e-11
-1.33217e-09
-9.03862e-10
5.88138e-10
-1.70051e-09
-5.15981e-10
-8.65265e-10
-6.62744e-10
1.10776e-10
-5.60194e-10
-4.89185e-10
1.13896e-10
-1.78035e-10
-1.76632e-10
1.90085e-10
-7.38338e-11
-8.16052e-11
8.12797e-11
-6.28417e-11
-2.47316e-11
1.04621e-10
-3.96258e-11
6.38095e-12
7.89556e-11
-2.62729e-11
1.40421e-11
2.66779e-11
-6.14355e-12
2.16258e-11
1.31323e-11
-3.01833e-10
-2.26085e-12
2.8383e-10
-4.69703e-10
-8.42242e-12
-1.6921e-10
-2.3061e-10
6.65291e-11
-9.65081e-11
-1.35984e-10
5.52343e-11
1.15245e-11
-4.54769e-11
6.98634e-11
4.09879e-11
-2.0852e-11
6.71097e-11
3.25814e-11
-3.6985e-12
6.04285e-11
3.38117e-11
2.56528e-12
3.12579e-11
3.94265e-11
3.66419e-12
1.16391e-11
1.12104e-11
7.75249e-12
8.61875e-12
-8.05672e-11
1.41287e-10
1.16824e-10
-1.14146e-10
1.07268e-10
4.8785e-12
-5.86099e-11
5.18018e-11
2.29921e-11
-2.97638e-11
1.63862e-11
1.78984e-11
-1.03918e-11
1.08478e-11
3.80672e-11
-5.39322e-12
7.29946e-12
5.40131e-11
-4.6479e-13
1.03266e-11
4.37655e-11
1.12858e-12
5.65847e-12
2.38318e-11
1.18954e-12
4.98013e-12
6.03423e-12
3.24597e-12
3.69775e-12
-2.19823e-11
2.33469e-10
6.83136e-11
-2.4337e-11
1.07076e-10
2.34274e-11
-1.05741e-11
3.5939e-11
1.13292e-11
-4.94436e-12
4.76685e-12
6.00772e-12
-1.9343e-12
2.24578e-12
4.67922e-12
-8.83852e-13
1.48356e-12
4.04354e-12
2.54381e-13
5.69469e-12
3.04684e-12
7.63116e-13
3.36867e-12
2.02175e-12
8.56033e-13
2.55689e-12
2.14873e-12
1.61295e-12
1.49411e-12
1.73686e-11
2.32328e-10
4.1777e-10
1.54577e-12
4.22649e-10
2.08937e-11
7.39618e-13
3.20718e-11
4.70386e-12
2.84386e-13
1.80219e-12
2.5139e-12
1.24145e-13
-9.73329e-14
1.65355e-12
2.39472e-13
-8.2865e-13
1.29234e-12
3.23921e-12
2.22411e-12
4.62375e-12
9.40383e-13
4.67019e-12
8.90707e-13
1.03714e-12
1.42499e-12
8.73909e-13
7.64899e-13
7.12423e-13
3.0688e-10
1.88471e-11
-6.5834e-12
2.11417e-10
5.05231e-10
2.40038e-10
6.24517e-12
1.47949e-10
6.96645e-11
2.39556e-12
1.22723e-12
3.9734e-12
1.42846e-12
-6.52082e-13
1.11974e-12
2.06976e-11
-2.12683e-11
3.60254e-12
6.15529e-11
-3.94305e-11
2.80187e-11
6.52096e-11
-1.50098e-11
3.88582e-11
1.1689e-11
-1.08716e-12
2.50366e-11
2.57358e-12
2.26e-11
1.59674e-10
-9.3143e-11
-1.55169e-11
4.67354e-10
6.29954e-11
2.73849e-10
5.7398e-12
6.04069e-11
7.91221e-11
2.79938e-12
3.77722e-12
1.17e-13
5.83038e-12
3.85788e-13
-3.98201e-12
3.91507e-11
3.62764e-12
-2.87006e-11
5.7868e-11
1.20023e-11
-2.86531e-11
3.83004e-11
1.5516e-11
-1.02659e-11
9.59122e-11
2.29118e-11
-5.78055e-13
2.9841e-11
-1.73757e-11
-3.65297e-08
7.64096e-08
-1.11196e-07
-1.35724e-08
-1.36169e-08
-8.077e-08
1.70191e-08
-1.11069e-08
-9.43032e-08
3.36272e-08
6.41592e-09
-9.62294e-08
5.22562e-08
2.48463e-09
-9.32126e-08
7.7236e-08
-1.02615e-08
-8.81336e-08
1.05475e-07
-2.40168e-08
-7.89048e-08
1.31332e-07
-3.52292e-08
-6.89886e-08
1.48558e-07
-4.34622e-08
-5.53342e-08
-5.57195e-08
-4.7969e-08
-9.27598e-08
2.55923e-07
-2.1923e-07
-9.38311e-08
2.21661e-08
-1.64201e-07
-6.37482e-08
8.54843e-09
-1.81167e-07
-5.26986e-08
5.06911e-08
-1.75854e-07
-3.12059e-08
3.1341e-08
-1.63275e-07
1.75942e-09
-1.10699e-09
-1.51811e-07
4.37128e-08
-3.47439e-08
-1.39604e-07
8.73349e-08
-6.25144e-08
-1.22698e-07
1.27956e-07
-8.67421e-08
-9.77018e-08
-1.21305e-07
-7.72633e-08
-8.70338e-08
4.43127e-07
-2.30044e-07
-2.0126e-08
-6.8919e-08
-1.07129e-07
1.71603e-08
-1.98541e-08
-1.70998e-07
-7.11621e-09
1.33952e-07
-2.10781e-07
-5.46787e-09
9.74698e-08
-2.03196e-07
2.56435e-08
3.20481e-08
-1.88094e-07
7.2828e-08
-2.51018e-08
-1.7022e-07
1.16264e-07
-6.15391e-08
-1.43873e-07
1.47845e-07
-9.45905e-08
-1.04312e-07
-1.51134e-07
-6.86158e-08
7.20539e-08
5.10032e-07
-2.42783e-07
1.97296e-07
-2.65784e-07
6.87012e-08
1.95032e-07
-9.143e-08
-5.17649e-08
1.01633e-07
2.69079e-07
-2.1699e-07
4.41648e-08
2.34519e-07
-2.49613e-07
5.07058e-08
1.22075e-07
-2.35358e-07
8.45832e-08
3.63821e-08
-1.97489e-07
1.14202e-07
-1.02567e-08
-1.31252e-07
1.3483e-07
-5.10618e-08
-4.84335e-08
-1.43679e-07
1.34602e-08
3.53746e-07
3.74901e-07
-1.65732e-07
4.25475e-07
-3.22858e-07
2.5175e-07
2.00919e-07
7.54013e-08
9.67296e-08
3.95594e-08
5.03154e-07
-1.78464e-07
-4.65273e-08
4.53622e-07
-2.54189e-07
-5.79761e-08
2.95166e-07
-2.21814e-07
-4.55807e-08
1.79856e-07
-1.37381e-07
-2.13883e-08
1.08878e-07
-4.20876e-08
2.38549e-08
5.62462e-08
4.97109e-08
-1.65555e-07
1.32786e-07
3.76327e-07
3.85887e-07
-2.28272e-07
2.94333e-07
-4.4782e-08
1.08122e-07
-4.80121e-08
4.98573e-07
1.14343e-07
-2.46344e-07
8.40259e-07
-1.29425e-07
-3.67638e-07
7.75549e-07
-2.27246e-07
-3.87259e-07
5.40842e-07
-2.36133e-07
-3.0867e-07
3.09267e-07
-2.20735e-07
-1.58507e-07
1.21826e-07
-1.1418e-07
5.27273e-08
-1.76474e-08
9.66108e-08
-2.4871e-07
2.71399e-07
2.7124e-07
5.60982e-07
-4.00926e-07
3.40151e-08
5.09834e-07
-7.84178e-08
-1.74856e-07
9.23681e-07
1.18494e-07
-2.99414e-07
1.20897e-06
-8.76233e-08
-3.99412e-07
1.19245e-06
-3.79292e-07
-3.57303e-07
8.62819e-07
-6.08376e-07
-1.04203e-07
4.006e-07
-5.87063e-07
3.31739e-07
-6.48899e-08
-2.17333e-07
6.00241e-07
-1.94956e-07
-1.43857e-07
-3.18525e-08
-3.41808e-07
1.16306e-07
9.24948e-07
-6.28326e-07
-2.13865e-07
1.25846e-06
-3.56812e-07
-4.51978e-07
1.60354e-06
-2.38149e-07
-5.17249e-07
1.78646e-06
-4.17161e-07
-5.17031e-07
1.86339e-06
-6.89389e-07
-4.05194e-07
1.6897e-06
-1.12346e-06
-1.91402e-07
7.84028e-07
-1.72451e-06
2.84746e-08
3.30596e-07
-2.61642e-06
1.01903e-07
2.21215e-07
-3.09384e-06
1.43026e-07
-2.81355e-06
-3.09191e-07
1.99425e-06
-1.12768e-06
-9.1541e-07
2.67924e-06
-1.19759e-06
-1.20914e-06
2.84113e-06
-1.43427e-06
-9.49024e-07
1.91851e-06
-1.97213e-06
-1.94982e-07
5.99836e-07
-2.10437e-06
3.59467e-08
1.25911e-08
-1.46815e-06
2.85614e-08
1.84172e-09
-9.16058e-07
-2.93765e-09
5.10169e-09
-3.97958e-07
-2.16371e-08
6.93197e-09
-4.96576e-08
9.16207e-09
-5.36873e-08
-5.90457e-07
3.37688e-06
-1.27063e-06
-9.79807e-07
3.57182e-06
-1.24682e-06
-4.98746e-07
1.28551e-06
-9.45882e-07
5.96468e-08
8.05881e-09
-4.25367e-07
1.2671e-08
-8.03138e-09
-8.70285e-08
-3.28693e-09
6.47919e-09
-2.77923e-08
-7.04711e-09
1.37597e-09
-1.18204e-08
-7.69031e-09
8.66574e-10
-1.01964e-08
-7.20049e-09
6.24941e-10
-4.50794e-09
2.56494e-10
-3.20802e-09
-2.76063e-07
3.01397e-06
-5.97406e-07
1.06891e-07
8.75773e-07
-1.90543e-07
5.18816e-08
-1.29941e-07
6.80788e-09
6.91156e-09
1.26455e-09
-1.04442e-08
-2.4017e-09
5.76925e-10
-9.21943e-09
-9.05156e-10
8.39334e-10
-3.82897e-09
-1.05478e-09
2.30081e-10
-1.13941e-09
-9.62775e-10
-7.22338e-11
-9.26021e-10
-7.05113e-10
-1.02989e-10
-4.50041e-10
8.41955e-11
-2.30882e-10
4.87451e-07
3.3738e-09
4.73722e-07
1.19249e-07
-8.16009e-09
7.35871e-09
1.35771e-09
-5.86419e-10
-2.44362e-08
2.99468e-10
-1.23521e-10
-3.33676e-09
-1.91864e-10
2.27634e-10
-1.09746e-09
-9.04602e-11
2.98138e-10
-3.99194e-10
-1.49103e-10
1.49072e-10
-1.48215e-10
-3.07413e-10
2.10949e-10
-5.36641e-10
-5.76079e-11
3.10441e-10
-6.71349e-10
5.74744e-11
-1.88016e-10
-4.04604e-10
-4.15393e-09
-2.74624e-09
-3.74517e-10
-6.27642e-10
-4.87519e-09
4.51137e-11
-2.75423e-10
-3.8506e-09
1.20131e-10
3.25227e-11
-9.07809e-10
3.56487e-11
7.46541e-11
-2.19993e-10
1.14546e-11
2.41254e-10
-6.50442e-11
1.5564e-11
1.80511e-10
-3.51384e-11
8.16102e-11
7.95857e-11
-2.1628e-10
1.1392e-10
3.86552e-11
-2.39103e-10
6.52026e-11
-4.73992e-11
-3.30448e-10
-4.60296e-10
-5.0854e-10
-8.54317e-11
-1.439e-11
-8.5577e-10
4.90432e-11
6.36256e-11
-7.54785e-10
6.12179e-11
1.60463e-11
-2.10557e-10
6.23039e-11
2.43333e-10
-5.25566e-11
7.88617e-11
4.07611e-10
-1.84408e-11
3.49711e-11
3.6819e-10
-2.04902e-11
4.67073e-11
1.52823e-10
-6.18857e-11
1.53872e-11
-1.70689e-11
-1.01841e-11
3.73982e-12
9.39393e-12
-1.05296e-10
1.52476e-10
4.40773e-11
-4.13894e-11
1.62262e-11
-1.76979e-10
5.79058e-12
6.28528e-11
-1.29192e-10
1.48304e-11
4.97403e-11
-2.65454e-11
2.55663e-11
3.79142e-10
2.73838e-11
4.94684e-11
4.73834e-10
8.39482e-11
6.28882e-11
4.05716e-10
9.88526e-11
2.47245e-11
2.08044e-10
1.04709e-10
1.20444e-13
2.01392e-11
4.23561e-11
5.81298e-12
6.20924e-12
-5.8407e-11
1.96448e-10
1.9156e-10
-5.36304e-11
5.13684e-11
-1.99863e-11
-3.00076e-11
1.80256e-11
6.03759e-14
-4.3041e-11
1.26886e-11
2.16275e-11
-6.97022e-11
6.36278e-11
1.17586e-10
-3.69181e-11
1.10883e-10
2.2026e-10
8.67165e-12
5.08581e-11
1.88043e-10
6.38287e-12
2.26382e-11
1.2043e-10
1.39226e-12
2.11745e-11
3.53119e-11
4.22614e-12
6.07707e-12
-2.51691e-11
1.24584e-10
2.00183e-10
-2.00891e-11
3.89932e-11
2.34415e-11
-1.28905e-11
2.22344e-11
8.05908e-12
-1.32263e-11
7.02169e-12
9.9838e-12
-1.23971e-11
6.47012e-12
2.45216e-11
-3.6848e-12
3.51282e-12
2.63413e-11
2.18388e-12
6.47182e-12
1.33232e-11
3.5638e-12
5.49546e-12
1.49447e-11
3.25209e-12
8.15646e-12
1.54427e-11
2.86884e-12
4.20706e-12
-5.04007e-12
1.31677e-10
4.38394e-10
-5.68892e-12
4.62036e-11
1.59245e-11
-3.67869e-12
1.89027e-11
5.04583e-12
-1.68041e-12
3.11236e-12
3.72136e-12
-4.1505e-13
2.50126e-12
3.95467e-12
6.79185e-13
5.67383e-13
2.41878e-12
6.84317e-12
-5.43499e-12
7.33258e-12
1.33549e-11
3.93456e-13
3.33427e-11
9.26542e-11
1.20225e-11
3.77745e-11
4.95924e-11
9.55454e-11
2.73457e-11
7.87917e-10
3.4373e-10
3.07091e-12
2.38974e-10
3.31068e-11
1.44744e-12
5.68986e-11
7.99043e-12
5.70245e-13
5.7614e-12
2.29686e-12
9.10176e-13
1.49443e-12
1.32671e-12
7.32469e-12
-4.11965e-12
1.01045e-12
9.99308e-11
-5.10067e-11
3.26835e-11
1.37853e-10
-3.90375e-11
6.22256e-11
1.65451e-10
-2.95291e-11
6.07825e-11
-2.6014e-11
9.14299e-11
3.74208e-10
-8.47429e-11
5.56672e-10
-1.49041e-11
7.50204e-11
1.03566e-09
2.11583e-12
1.11983e-11
6.1084e-11
2.35345e-12
1.82281e-12
7.56507e-12
2.14558e-12
6.74451e-13
1.33883e-12
9.15102e-11
4.36828e-12
-1.59143e-11
1.4532e-10
1.38549e-11
-3.3975e-11
1.13139e-10
2.78533e-11
-5.40513e-12
1.02797e-10
3.0155e-11
-3.50766e-13
3.80676e-11
-1.51319e-12
-3.95586e-08
7.16011e-08
-1.43238e-07
-2.62573e-08
-1.31443e-08
-8.0927e-08
-4.88065e-09
-1.1942e-08
-1.03738e-07
9.75498e-09
-5.3896e-10
-1.10326e-07
3.27012e-08
-1.12116e-08
-1.04947e-07
6.41007e-08
-3.08104e-08
-8.87226e-08
1.00802e-07
-5.35793e-08
-6.2027e-08
1.32471e-07
-7.25463e-08
-2.8111e-08
1.52556e-07
-9.16917e-08
1.62724e-08
-1.14653e-07
4.46476e-08
-9.33984e-08
2.16739e-07
-2.70969e-07
-1.09359e-07
7.28917e-09
-1.68673e-07
-9.04369e-08
-1.47872e-08
-1.97244e-07
-7.91109e-08
1.77123e-08
-2.05431e-07
-5.3782e-08
-6.00425e-09
-1.93811e-07
-1.39593e-08
-4.91623e-08
-1.73281e-07
3.68207e-08
-1.01926e-07
-1.42037e-07
9.09706e-08
-1.49486e-07
-9.99075e-08
1.40048e-07
-1.97779e-07
-4.06914e-08
-2.42927e-07
5.43822e-09
-1.17766e-07
3.93999e-07
-2.89539e-07
-9.23539e-08
-2.16842e-08
-1.03568e-07
-5.07886e-08
-5.5588e-08
-1.71763e-07
-6.2325e-08
5.11916e-08
-2.32724e-07
-4.63693e-08
1.15462e-08
-2.36703e-07
-2.82512e-09
-6.43065e-08
-2.16494e-07
5.42053e-08
-1.47101e-07
-1.82075e-07
1.10733e-07
-2.17339e-07
-1.32548e-07
1.56374e-07
-2.76215e-07
-7.15173e-08
-3.19644e-07
-3.53046e-08
-7.33212e-08
5.52126e-07
-3.27588e-07
5.99506e-08
-9.12719e-08
5.01721e-09
1.11837e-07
-1.11211e-07
-4.80282e-08
3.4198e-08
1.38943e-07
-2.27102e-07
-1.18769e-08
9.73184e-08
-2.8931e-07
9.01679e-10
-2.7043e-08
-2.854e-07
4.94531e-08
-1.58039e-07
-2.35102e-07
9.71246e-08
-2.38057e-07
-1.58206e-07
1.36369e-07
-2.68028e-07
-9.58641e-08
-2.89818e-07
-9.34461e-08
9.80249e-08
7.34266e-07
-4.45898e-07
2.29203e-07
7.61793e-08
-4.68772e-08
1.96092e-07
6.62774e-08
-4.76478e-08
5.88052e-08
3.61951e-07
-2.64185e-07
-2.58003e-08
2.86003e-07
-3.58268e-07
-2.524e-08
9.59444e-08
-3.45362e-07
9.08981e-09
-5.92821e-08
-2.70467e-07
4.69125e-08
-1.4806e-07
-1.69907e-07
9.41043e-08
-1.49318e-07
-1.16191e-07
-1.63144e-07
-1.35361e-07
2.48778e-07
1.00242e-06
-7.452e-07
2.85277e-07
4.92047e-07
-3.44182e-07
1.1979e-07
5.35798e-07
-1.89688e-07
-5.03816e-08
7.4024e-07
-3.37542e-07
-1.54986e-07
6.08408e-07
-4.45047e-07
-1.47152e-07
3.28454e-07
-4.76476e-07
-6.86032e-08
5.85571e-08
-4.17123e-07
1.89496e-08
-9.53256e-08
-2.54468e-07
1.46309e-07
-6.64966e-08
-1.1357e-07
-1.39943e-11
-8.25631e-08
3.70789e-07
1.1043e-06
-8.73598e-07
2.81e-07
9.552e-07
-4.51782e-07
1.31612e-08
1.18961e-06
-2.67483e-07
-1.60897e-07
1.31507e-06
-4.88396e-07
-2.4431e-07
1.08733e-06
-7.74803e-07
-1.80927e-07
6.16028e-07
-9.59334e-07
4.49014e-08
1.46053e-07
-9.00387e-07
3.93517e-07
-2.2305e-08
-6.3897e-07
6.2388e-07
3.36373e-08
-4.74356e-07
1.88866e-07
-4.99831e-07
3.0315e-07
1.26697e-06
-1.09414e-06
-9.47258e-09
1.63303e-06
-7.22017e-07
-3.49389e-07
1.98334e-06
-6.91961e-07
-5.41595e-07
2.06419e-06
-9.7407e-07
-6.21318e-07
1.87173e-06
-1.39407e-06
-5.49534e-07
1.22256e-06
-2.07272e-06
-2.4633e-07
6.14531e-07
-2.84204e-06
-5.48616e-08
2.69243e-07
-3.40343e-06
5.03773e-08
5.81466e-08
-3.4661e-06
-3.02175e-08
-3.41968e-06
-4.31029e-07
2.40195e-06
-1.83163e-06
-1.1459e-06
2.82681e-06
-1.6765e-06
-1.37203e-06
2.21319e-06
-1.80593e-06
-8.86018e-07
9.00006e-07
-1.71165e-06
-3.29205e-07
9.43504e-08
-1.29523e-06
-1.4886e-07
1.14663e-08
-9.2507e-07
-5.43712e-08
-3.77655e-09
-6.35436e-07
-1.6768e-08
6.42096e-09
-3.11198e-07
-1.73158e-08
5.71597e-09
-8.60846e-08
4.23584e-09
-1.76296e-07
-6.81217e-07
3.10955e-06
-1.67705e-06
-6.85957e-07
1.33888e-06
-9.05737e-07
-1.19028e-07
5.04906e-08
-3.24375e-07
5.544e-09
-1.28835e-08
-6.539e-08
-8.78335e-09
4.67534e-09
-3.00023e-08
-6.86082e-09
3.43393e-09
-2.24886e-08
-7.06841e-09
1.81446e-11
-1.572e-08
-3.10732e-09
1.85564e-10
-8.81727e-09
-1.5238e-09
7.54227e-11
-1.15083e-09
-2.40233e-10
-1.02172e-10
1.22911e-07
5.01432e-07
3.98745e-08
7.91037e-08
-5.62436e-09
-2.86513e-08
9.26487e-09
1.43093e-08
-3.91917e-08
-4.44981e-11
-7.9481e-10
-1.2867e-08
-1.34322e-09
5.3482e-10
-4.09557e-09
-5.68097e-10
2.78943e-10
-1.56044e-09
-4.97624e-10
2.74564e-11
-1.24648e-09
-3.22637e-10
1.33141e-10
-1.13314e-09
-9.94249e-11
-1.54955e-10
-3.38067e-10
3.29981e-11
-2.3162e-10
1.21839e-07
1.82258e-09
1.6846e-08
3.35011e-09
7.16073e-11
-1.88047e-08
2.0305e-09
2.72847e-09
-1.21514e-08
2.87172e-10
2.072e-11
-2.59922e-09
5.81736e-11
1.21417e-10
-5.30922e-10
-9.45719e-13
6.43924e-11
-1.37989e-10
3.91406e-11
2.85595e-11
-1.8336e-10
5.35167e-10
4.60312e-10
-8.34253e-10
5.67473e-10
2.9954e-10
-9.21344e-10
-9.27365e-13
-3.49105e-10
1.40731e-09
1.35597e-11
-1.42379e-09
4.10992e-10
3.64219e-10
-4.44172e-09
5.25592e-10
6.4993e-10
-2.02734e-09
1.1114e-10
5.30884e-11
-6.22466e-10
7.29892e-11
5.10133e-11
-1.22111e-10
4.25204e-11
4.92694e-11
-2.36337e-11
8.69516e-11
2.4427e-11
-1.62702e-11
3.18929e-10
-1.24731e-11
-7.99092e-11
2.69304e-10
-9.14432e-12
-3.70491e-11
-3.26574e-12
-3.28844e-12
1.68169e-10
9.0763e-11
-2.58849e-10
8.19295e-11
6.90691e-11
-4.87442e-10
1.28228e-10
1.09146e-10
-2.82362e-10
4.05475e-11
3.28056e-11
-1.04489e-10
3.86539e-11
3.36282e-11
-2.66545e-11
1.96599e-11
4.78237e-11
-5.0213e-12
6.1336e-11
5.78571e-11
-1.00959e-12
1.56919e-10
4.53582e-11
1.79681e-13
5.55346e-11
1.83227e-11
1.01215e-11
3.5958e-13
6.0419e-12
2.60166e-11
1.47111e-10
-5.00167e-11
1.42445e-11
1.98394e-11
-7.74499e-11
2.00735e-11
9.86799e-12
-3.62211e-11
2.17511e-11
1.25144e-11
-1.29443e-11
5.84618e-11
7.31338e-11
6.02591e-14
1.39878e-10
2.37377e-10
1.41396e-11
1.33719e-10
1.56533e-10
1.14475e-10
1.03525e-10
1.00701e-10
1.87378e-10
1.13113e-11
2.47773e-11
1.23542e-10
2.47854e-12
1.05776e-11
-2.38705e-12
1.03335e-09
2.09255e-10
-3.09428e-13
5.75411e-11
-3.8189e-11
-3.34644e-14
1.52557e-11
-1.92415e-12
-3.67069e-13
1.68897e-11
1.51618e-12
-1.28198e-11
1.12582e-10
9.35061e-12
-3.79209e-13
1.00752e-10
7.87862e-11
1.95335e-11
8.73081e-12
7.48709e-11
1.93984e-11
2.96092e-12
7.17001e-11
3.09428e-12
1.68675e-12
3.51452e-11
8.14038e-12
4.10926e-11
-3.4856e-11
3.0298e-09
1.60372e-09
-8.28695e-12
7.72945e-11
1.72332e-11
-3.55327e-12
1.30122e-11
3.44587e-12
-1.5713e-11
1.01079e-11
5.52957e-12
-1.53847e-11
7.63093e-12
3.28984e-11
-7.91005e-13
4.78848e-12
2.40301e-11
7.16622e-12
5.21176e-13
7.32595e-12
2.1905e-11
-1.56382e-11
1.79585e-11
1.48497e-10
-1.6257e-11
7.47889e-11
1.7202e-12
1.26343e-10
-7.38909e-11
4.32897e-09
2.17533e-09
-3.95751e-12
5.01054e-11
1.26938e-10
-3.54787e-12
1.17468e-11
3.17522e-12
-2.33663e-12
7.22257e-12
2.80668e-12
-3.8461e-13
4.73448e-12
3.54212e-12
3.06816e-12
1.22242e-12
1.84382e-12
7.39524e-11
-1.97828e-11
1.10566e-11
1.63718e-10
-5.22566e-11
6.37833e-11
2.03588e-10
-4.64303e-11
7.4309e-11
-3.22841e-11
1.73449e-10
3.52822e-10
2.16459e-09
1.72995e-09
-3.46238e-13
2.57948e-10
3.93543e-10
-7.2788e-13
1.6621e-11
3.74655e-12
-1.46337e-13
7.4143e-12
2.05467e-12
9.70568e-13
2.82518e-12
1.19687e-12
1.41514e-12
1.95155e-13
6.88158e-13
1.17719e-10
-4.48193e-11
8.59677e-12
1.52924e-10
-5.46386e-11
5.12618e-11
1.73103e-10
-4.12668e-11
5.8588e-11
-3.75653e-11
1.05273e-10
4.33153e-10
4.58357e-10
4.3672e-10
9.77161e-11
3.6108e-10
1.38327e-09
4.89194e-12
1.20049e-11
1.10077e-10
1.63108e-12
1.70101e-12
1.08308e-11
1.91395e-12
8.20778e-13
1.89443e-12
7.44512e-11
5.94031e-12
-1.31527e-12
7.19973e-11
1.20596e-12
-2.25919e-11
5.95752e-11
2.1813e-12
-6.55722e-12
3.71302e-11
9.46593e-12
-5.01736e-13
7.95347e-12
-9.35049e-14
-3.83888e-08
6.13366e-08
-1.66186e-07
-2.83897e-08
-3.74681e-09
-8.71793e-08
-1.0657e-08
-7.80571e-09
-1.13665e-07
7.17273e-09
-7.97705e-09
-1.20179e-07
3.50103e-08
-2.30153e-08
-1.09769e-07
7.48626e-08
-4.32366e-08
-8.53383e-08
1.20081e-07
-6.08516e-08
-4.63937e-08
1.60364e-07
-7.00737e-08
1.67998e-09
1.8112e-07
-7.43618e-08
6.98779e-08
-7.27212e-08
1.109e-07
-8.26438e-08
1.73321e-07
-3.00311e-07
-1.02616e-07
3.2912e-08
-1.8536e-07
-9.61842e-08
4.73364e-09
-2.16215e-07
-8.35373e-08
-8.96407e-10
-2.25158e-07
-5.37354e-08
-3.39879e-08
-2.1264e-07
-3.23508e-09
-8.15791e-08
-1.85439e-07
6.32221e-08
-1.28826e-07
-1.4052e-07
1.34686e-07
-1.61404e-07
-8.00414e-08
1.88437e-07
-1.73017e-07
4.21313e-09
-1.54058e-07
6.84587e-08
-1.09781e-07
3.207e-07
-3.27136e-07
-1.31239e-07
1.12283e-07
-1.6148e-07
-1.10317e-07
3.35281e-08
-2.2148e-07
-9.63027e-08
1.43378e-08
-2.61972e-07
-5.93706e-08
-4.79915e-08
-2.59631e-07
-4.71409e-10
-1.27537e-07
-2.29435e-07
7.01377e-08
-2.05371e-07
-1.7614e-07
1.35075e-07
-2.5059e-07
-1.08299e-07
1.83852e-07
-2.3865e-07
-5.46621e-08
-1.72215e-07
-5.89267e-08
-1.25029e-07
4.89317e-07
-3.71176e-07
-1.28099e-07
2.34138e-07
-1.13768e-07
-8.09553e-08
1.18307e-07
-1.79951e-07
-8.72804e-08
8.99743e-08
-2.96413e-07
-7.16642e-08
-1.25942e-08
-3.40324e-07
-1.84099e-08
-1.47483e-07
-3.18708e-07
4.95553e-08
-2.59803e-07
-2.48635e-07
9.8079e-08
-2.96829e-07
-1.6049e-07
1.4461e-07
-2.41285e-07
-1.3976e-07
-1.50183e-07
-2.3034e-07
-6.38094e-08
6.87022e-07
-5.79794e-07
-7.24696e-08
4.61263e-07
-2.65343e-07
-6.41394e-08
3.27699e-07
-2.65369e-07
-1.01768e-07
2.6418e-07
-4.00763e-07
-8.6632e-08
8.49709e-08
-4.70968e-07
-2.59085e-08
-9.58673e-08
-4.57701e-07
4.18022e-08
-2.31392e-07
-3.6659e-07
6.40789e-08
-2.53692e-07
-2.35321e-07
9.86664e-08
-1.91675e-07
-2.00389e-07
-1.29014e-07
-3.48678e-07
5.14269e-08
9.17333e-07
-1.02694e-06
-4.1915e-10
7.91402e-07
-6.22475e-07
-7.5599e-08
6.91835e-07
-4.78644e-07
-1.65965e-07
5.93579e-07
-5.76574e-07
-1.56862e-07
3.2099e-07
-6.90169e-07
-4.62823e-08
1.88633e-08
-7.01786e-07
6.39209e-08
-1.8311e-07
-5.75608e-07
8.70472e-08
-1.67983e-07
-3.63303e-07
1.18193e-07
-6.81837e-08
-2.68208e-07
-4.50659e-09
-4.54613e-07
1.89069e-07
1.03889e-06
-1.18423e-06
2.61026e-08
1.20063e-06
-6.98044e-07
-2.29838e-07
1.30947e-06
-6.2918e-07
-3.70701e-07
1.13417e-06
-8.88128e-07
-3.29347e-07
6.47982e-07
-1.14315e-06
-1.63578e-07
1.57757e-07
-1.264e-06
7.88689e-08
-1.93092e-08
-1.30663e-06
3.2374e-07
1.77057e-07
-1.22888e-06
4.46893e-07
4.28149e-07
-1.09384e-06
5.46545e-07
-1.11351e-06
2.11255e-08
1.24711e-06
-1.32349e-06
-3.0852e-07
1.77e-06
-9.61742e-07
-6.89394e-07
2.0878e-06
-1.08941e-06
-9.5131e-07
1.87708e-06
-1.45506e-06
-1.09825e-06
1.38973e-06
-1.98887e-06
-1.04151e-06
7.88401e-07
-2.90098e-06
-7.62503e-07
4.80874e-07
-3.23112e-06
-5.51085e-07
2.53823e-07
-3.19879e-06
-2.42792e-07
2.36178e-08
-3.34955e-06
-2.05756e-07
-3.3511e-06
-9.37756e-07
2.33921e-06
-1.98598e-06
-1.53075e-06
1.92387e-06
-1.64173e-06
-1.24298e-06
8.22289e-07
-1.25658e-06
-5.53092e-07
6.99918e-08
-7.75043e-07
-2.65972e-07
1.08055e-08
-4.83221e-07
-1.801e-07
9.77658e-09
-3.00467e-07
-1.24988e-07
1.88563e-09
-1.80092e-07
-3.09005e-08
8.3956e-09
-9.58554e-08
-4.62892e-08
1.33087e-09
-7.81149e-08
-1.24944e-10
-7.27237e-07
-5.20303e-07
9.832e-07
-8.61776e-07
-1.43073e-07
4.36774e-08
-3.39971e-07
1.64745e-08
9.09036e-09
-1.20152e-07
-1.33406e-09
8.44157e-10
-3.4527e-08
-7.05291e-09
2.24184e-09
-1.67384e-08
-8.26334e-09
7.86169e-10
-1.22774e-08
-6.33585e-09
-2.24812e-10
-1.59021e-08
-8.50628e-10
-1.15652e-09
-6.58225e-09
-3.67294e-11
-2.1505e-11
-6.58328e-10
-6.34497e-11
-1.1756e-10
1.68668e-07
-2.93141e-08
5.24572e-09
1.4864e-08
1.50972e-08
-4.40249e-08
6.3016e-09
3.50463e-09
-2.50741e-08
7.53736e-10
4.89975e-10
-7.90712e-09
-4.10547e-10
1.31567e-10
-1.10779e-09
-6.2855e-10
8.06626e-11
-6.70803e-10
-6.15073e-10
-1.3319e-10
-1.16549e-09
-3.74201e-10
5.14686e-11
-1.57894e-09
-1.06835e-10
4.65311e-11
-4.12495e-10
-2.38809e-10
-1.77356e-10
2.25742e-09
1.02732e-10
-1.42447e-08
6.10203e-09
3.14454e-09
-1.06823e-08
1.51632e-09
8.793e-10
-5.04083e-09
4.11432e-10
2.56097e-10
-1.4713e-09
7.91995e-11
3.54214e-11
-2.24609e-10
3.37459e-11
1.50557e-11
-4.42924e-11
3.46864e-10
2.13522e-11
-4.50581e-10
8.40762e-10
2.10426e-10
-1.2045e-09
1.17531e-09
-4.82597e-12
-9.67729e-10
-5.56027e-11
-5.35292e-10
4.2765e-10
4.04094e-10
-2.18825e-09
8.57492e-10
4.50611e-10
-2.25633e-09
3.52354e-10
1.63549e-10
-8.86408e-10
1.2166e-10
6.41835e-11
-2.43492e-10
3.95824e-11
1.74708e-11
-4.9272e-11
2.39809e-11
7.8205e-12
-7.85583e-12
4.86125e-11
8.72824e-12
-1.69452e-11
9.61704e-11
-2.27494e-12
-5.42638e-12
5.89862e-11
-2.28786e-11
-8.55763e-12
-1.02648e-11
-1.70268e-13
9.48064e-11
2.29017e-10
-2.37419e-10
1.44447e-10
8.50548e-11
-2.05133e-10
6.87735e-11
2.85993e-11
-7.99986e-11
2.9667e-11
1.31601e-11
-2.42289e-11
1.22067e-11
8.97183e-12
-4.59873e-12
7.78596e-12
6.50382e-12
-9.79379e-13
6.8297e-12
5.19576e-12
5.04353e-13
2.31939e-11
-1.64925e-11
-1.12436e-12
2.34923e-11
-5.4158e-11
5.51184e-12
1.20442e-12
2.35277e-12
3.7057e-11
2.86052e-10
-1.76583e-10
1.81402e-11
5.46115e-11
-4.41037e-11
8.28972e-12
9.70604e-12
-6.37587e-12
5.05012e-12
3.4013e-12
-1.4782e-12
5.37625e-12
7.26675e-12
9.34365e-14
2.22651e-11
7.62224e-12
3.08705e-12
1.17821e-10
1.86525e-11
9.48271e-12
9.45592e-11
-2.46413e-11
4.5027e-11
1.83492e-11
-1.31321e-11
2.46592e-11
-3.6539e-11
2.65839e-11
1.77631e-10
2.11348e-09
3.20786e-13
7.6851e-13
1.71208e-10
4.95162e-12
1.89428e-14
8.29949e-12
-4.88452e-13
5.60999e-14
3.14451e-12
8.87354e-13
3.10635e-13
1.48503e-11
4.51363e-12
6.62622e-12
2.54288e-11
7.60355e-12
1.79562e-11
5.57684e-13
6.03189e-12
3.66147e-11
-3.27783e-11
2.71225e-12
6.92628e-11
-2.73866e-11
4.1535e-12
-4.97559e-11
6.44766e-11
1.83242e-10
2.45758e-09
1.57141e-09
-6.00061e-12
6.49851e-10
1.35906e-10
-3.22693e-12
5.59479e-12
1.13173e-12
-4.43517e-12
5.52374e-12
1.97837e-12
-2.74861e-12
1.39557e-11
4.61723e-12
3.1141e-12
3.9645e-12
3.92786e-12
1.97921e-11
-3.76551e-12
3.35328e-12
1.13183e-10
-4.5685e-11
2.66531e-11
1.75158e-10
-7.16993e-11
3.93294e-11
-7.48843e-11
4.70298e-11
5.65669e-10
2.20906e-09
2.09538e-09
-5.31653e-11
2.60393e-09
7.19548e-10
-2.64939e-12
1.485e-11
5.84826e-12
-1.8772e-12
5.38815e-12
2.61223e-12
9.42668e-16
4.18369e-12
3.37788e-12
3.60017e-12
6.08787e-13
1.13433e-12
6.05818e-11
-1.04943e-11
6.88985e-12
1.30423e-10
-4.38752e-11
9.27848e-12
8.6028e-11
-5.97883e-11
3.83252e-11
-3.4946e-11
8.54304e-11
1.05974e-09
1.19721e-09
1.95603e-09
7.77332e-11
2.68345e-09
1.32684e-09
-2.01078e-13
1.77418e-10
6.86619e-11
1.33222e-13
4.55845e-12
1.64625e-12
1.26401e-12
2.20994e-12
1.19603e-12
1.25766e-11
-5.58051e-15
1.98486e-12
3.07865e-11
-1.2136e-11
1.28929e-12
3.1671e-11
-1.55185e-11
3.28229e-12
2.84634e-11
-6.92051e-12
7.01635e-12
-1.04285e-12
6.57866e-11
2.65957e-10
4.82568e-11
9.93389e-12
6.60237e-10
1.23389e-09
1.53292e-09
4.33834e-11
2.12533e-10
9.07847e-10
4.51919e-12
5.88442e-12
4.00943e-11
2.94665e-12
1.60846e-12
2.01232e-12
1.72837e-11
3.02192e-13
-1.04442e-13
1.90399e-11
-1.12993e-12
-1.41993e-11
5.10847e-12
2.07306e-12
-1.00163e-11
3.5289e-12
8.51853e-12
-3.74172e-12
9.37349e-12
-5.3297e-13
-3.95387e-08
4.25023e-08
-1.6915e-07
-2.83252e-08
-1.80815e-08
-8.03114e-08
-6.65367e-09
-2.98878e-08
-1.05448e-07
1.80009e-08
-3.53686e-08
-1.09465e-07
5.53572e-08
-5.34574e-08
-9.36683e-08
1.0652e-07
-7.21062e-08
-6.43951e-08
1.63907e-07
-8.17601e-08
-2.20203e-08
2.11351e-07
-7.49272e-08
2.91629e-08
2.21822e-07
-4.71292e-08
1.06536e-07
4.1279e-09
1.2408e-07
-7.7768e-08
1.12315e-07