/*--------------------------------*- C++ -*----------------------------------*\
| =========                 |                                                 |
| \\      /  F ield         | OpenFOAM: The Open Source CFD Toolbox           |
|  \\    /   O peration     | Version:  2312                                  |
|   \\  /    A nd           | Website:  www.openfoam.com                      |
|    \\/     M anipulation  |                                                 |
\*---------------------------------------------------------------------------*/
FoamFile
{
    version     2.0;
    format      ascii;
    arch        "LSB;label=32;scalar=64";
    class       surfaceScalarField;
    location    "0.74";
    object      phi;
}
// * * * * * * * * * * * * * * * * * * * * * * * * * * * * * * * * * * * * * //

dimensions      [0 3 -1 0 0 0 0];

oriented        oriented;

internalField   nonuniform List<scalar> 
22600
(
-3.13453e-08
9.74359e-08
-6.60906e-08
-3.43148e-08
6.93003e-08
-6.63308e-08
-3.38171e-08
6.92947e-08
-6.97924e-08
-3.3125e-08
6.75423e-08
-6.82344e-08
-2.55164e-08
5.97614e-08
-6.73701e-08
-8.76048e-09
5.22401e-08
-6.89961e-08
1.62275e-08
4.56771e-08
-7.06651e-08
5.34927e-08
3.76533e-08
-7.49184e-08
9.97095e-08
3.24105e-08
-7.86272e-08
2.83759e-08
-8.29091e-08
-8.86424e-08
3.127e-07
-1.26622e-07
-1.35498e-07
2.39804e-07
-1.23649e-07
-1.50205e-07
2.09939e-07
-1.25937e-07
-1.52923e-07
1.85347e-07
-1.15087e-07
-1.33929e-07
1.48539e-07
-1.07772e-07
-9.49193e-08
1.18208e-07
-1.04978e-07
-4.06363e-08
9.49456e-08
-1.03551e-07
2.17351e-08
7.77471e-08
-1.02465e-07
8.69718e-08
6.45116e-08
-9.73378e-08
4.99375e-08
-9.46785e-08
-8.18889e-08
5.17465e-07
-1.22876e-07
-1.3497e-07
4.16805e-07
-1.23919e-07
-1.52043e-07
3.82176e-07
-1.55164e-07
-1.57613e-07
3.36238e-07
-1.45322e-07
-1.3922e-07
2.5955e-07
-1.29403e-07
-1.0222e-07
1.98764e-07
-1.17555e-07
-5.10969e-08
1.51689e-07
-1.07867e-07
1.00442e-08
1.1138e-07
-9.4774e-08
7.97188e-08
7.24908e-08
-7.76538e-08
2.50064e-08
-5.98136e-08
-3.976e-08
6.52616e-07
-9.53904e-08
-1.15987e-07
4.88561e-07
4.47119e-09
-1.54032e-07
5.36704e-07
-1.16484e-07
-1.60131e-07
5.09074e-07
-1.66737e-07
-1.46136e-07
4.07395e-07
-1.61841e-07
-1.22286e-07
3.06163e-07
-1.31249e-07
-8.55905e-08
2.10541e-07
-9.55475e-08
-3.91478e-08
1.10071e-07
-4.51338e-08
3.33201e-08
-1.99582e-08
1.99812e-08
-2.00532e-07
8.19056e-08
1.38106e-07
4.50957e-07
6.35522e-08
-2.23374e-08
3.73096e-07
2.75909e-07
-2.37657e-07
7.00728e-07
5.12957e-08
-3.13959e-07
6.80738e-07
-9.53626e-08
-3.21294e-07
5.25829e-07
-1.11098e-07
-3.15269e-07
3.5064e-07
-5.05027e-08
-3.03162e-07
1.71085e-07
2.73489e-08
-2.66877e-07
-3.32269e-08
1.07013e-07
-1.35779e-07
-3.58406e-07
2.07349e-07
-8.11843e-07
3.04722e-07
2.47825e-07
2.86904e-08
1.74442e-07
-6.94714e-08
3.70387e-07
3.20005e-07
-5.06794e-07
9.29567e-07
2.08484e-07
-7.11786e-07
8.61222e-07
2.45081e-08
-7.89689e-07
6.17379e-07
-1.36468e-08
-7.76792e-07
3.36969e-07
7.73019e-10
-6.45672e-07
4.40051e-08
-4.03901e-09
-3.87155e-07
-3.50498e-07
5.87535e-08
-1.61436e-07
-8.24534e-07
2.40411e-07
-1.33111e-06
4.00421e-07
1.33666e-07
-1.71784e-07
6.68083e-08
-2.00805e-07
4.46209e-07
2.58649e-07
-5.54483e-07
9.30468e-07
3.52777e-07
-7.63648e-07
8.93543e-07
1.76844e-07
-7.8887e-07
6.87838e-07
-4.5237e-08
-6.05543e-07
3.82994e-07
-2.29352e-07
-2.42309e-07
-8.64953e-08
-2.32734e-07
-9.00966e-09
-6.18541e-07
3.47433e-08
1.02543e-07
-8.74668e-07
-6.14195e-08
-7.80245e-07
-3.03638e-07
-1.43908e-07
1.0246e-07
-1.30337e-07
-5.07118e-07
7.20967e-07
8.84522e-08
-8.00367e-07
9.84887e-07
2.38829e-07
-8.98003e-07
8.59007e-07
1.32173e-07
-7.5335e-07
5.38107e-07
5.07803e-09
-5.01598e-07
3.01761e-07
-1.7052e-07
-2.59417e-07
3.64572e-07
-6.93247e-07
1.85899e-07
9.56577e-07
-2.02043e-06
6.62504e-07
1.80068e-06
-3.15196e-06
2.63415e-06
-3.40681e-06
-5.01521e-07
9.45647e-07
-3.41666e-07
-1.2256e-06
1.78432e-06
-3.39269e-07
-1.88245e-06
2.08328e-06
-4.41538e-07
-2.06469e-06
2.13993e-06
-1.09868e-06
-1.50478e-06
2.19868e-06
-2.22048e-06
-4.75321e-07
2.89215e-06
-3.61985e-06
5.53974e-07
4.65788e-06
-5.32261e-06
1.61016e-06
6.35536e-06
-6.45497e-06
1.73895e-06
5.99645e-06
-4.32455e-06
7.68586e-06
-4.85336e-06
-7.11883e-07
2.11068e-06
-4.53151e-07
-1.45995e-06
3.15453e-06
-6.22151e-07
-1.78742e-06
3.31583e-06
-9.05081e-07
-1.28056e-06
3.32879e-06
-1.69572e-06
-2.45306e-07
3.73107e-06
-2.56765e-06
1.83837e-06
3.98838e-06
-3.1799e-06
1.69441e-06
1.06048e-05
-5.80294e-06
6.42337e-07
1.28809e-05
-5.47346e-06
-2.96174e-06
1.34905e-05
-3.88995e-06
1.45884e-05
-4.30456e-06
-5.94222e-07
3.02995e-06
-3.25046e-07
-7.38007e-07
3.71024e-06
-4.11921e-07
4.72224e-07
2.47348e-06
-3.67889e-07
2.97139e-06
7.54543e-07
7.50837e-08
2.37174e-07
1.07533e-05
-4.28803e-06
-9.39998e-07
1.23486e-05
-7.18307e-06
-1.06105e-07
1.59136e-05
-6.14273e-06
-4.04589e-07
1.73212e-05
-4.14181e-06
-2.24913e-06
1.72119e-05
-1.87689e-06
1.75266e-05
-1.72437e-08
4.44399e-08
2.70838e-06
2.77132e-07
3.29524e-06
-2.63646e-07
7.23082e-07
3.42319e-06
3.17694e-06
-8.31401e-07
-1.83818e-06
9.75515e-06
-3.73924e-06
-1.99969e-06
1.57788e-05
-4.86401e-06
-1.61897e-06
1.76716e-05
-5.70366e-06
-1.19606e-06
2.03324e-05
-4.84173e-06
-5.86953e-07
2.03138e-05
-3.60172e-06
-6.19765e-07
1.94233e-05
-2.17861e-06
1.93551e-05
4.67744e-07
2.89341e-07
7.21147e-07
1.69789e-06
-1.08489e-06
4.56948e-06
-3.45889e-06
-2.37746e-06
1.02439e-05
-5.7744e-06
-3.21663e-06
1.48956e-05
-4.30128e-06
-3.07068e-06
1.95516e-05
-3.91871e-06
-2.33645e-06
2.10924e-05
-4.15509e-06
-1.28378e-06
2.27328e-05
-3.45304e-06
-1.81259e-07
2.22442e-05
-3.03293e-06
7.32744e-07
2.10686e-05
-2.55929e-06
2.07595e-05
-1.7201e-07
-4.77864e-06
5.11121e-06
3.88582e-07
-4.98112e-06
1.1301e-05
-6.52905e-06
-4.12323e-06
1.53129e-05
-5.92688e-06
-4.36224e-06
1.86637e-05
-3.52907e-06
-3.53574e-06
2.0836e-05
-2.11089e-06
-2.4862e-06
2.18847e-05
-1.84178e-06
-1.05439e-06
2.27567e-05
-1.45573e-06
3.52711e-07
2.21119e-05
-1.27478e-06
1.42663e-06
2.07802e-05
-7.85511e-07
1.95658e-05
1.5712e-06
-5.60472e-06
7.94781e-06
2.76812e-06
-6.12559e-06
1.60196e-05
-4.19774e-06
-6.03376e-06
1.8017e-05
-2.79598e-06
-5.6018e-06
1.83743e-05
-1.42623e-07
-4.08902e-06
1.78824e-05
1.4408e-06
-2.32378e-06
1.8095e-05
2.02447e-06
-6.45993e-07
1.87514e-05
2.32755e-06
6.64899e-07
1.84299e-05
2.37113e-06
1.5016e-06
1.71523e-05
2.79118e-06
1.52992e-05
3.99654e-06
-5.48343e-06
8.37002e-06
5.06122e-06
-6.86174e-06
1.74667e-05
-6.87699e-08
-7.39625e-06
1.71215e-05
1.43011e-06
-6.55094e-06
1.41078e-05
3.42122e-06
-4.45941e-06
1.11596e-05
4.63126e-06
-2.16643e-06
1.05823e-05
5.21973e-06
-2.85728e-07
1.16189e-05
5.25184e-06
9.55265e-07
1.22805e-05
4.90835e-06
1.63315e-06
1.17554e-05
4.71905e-06
1.00601e-05
4.80669e-06
-3.34974e-06
5.62644e-06
6.09332e-06
-4.89481e-06
1.52025e-05
3.80926e-06
-5.54278e-06
1.39411e-05
3.82834e-06
-4.96941e-06
8.63248e-06
4.90195e-06
-3.49545e-06
4.35681e-06
5.32884e-06
-1.64663e-06
3.45116e-06
5.28227e-06
3.4886e-07
4.72707e-06
4.89628e-06
1.90216e-06
6.18928e-06
4.53794e-06
2.76143e-06
6.64408e-06
4.25203e-06
5.95117e-06
3.89229e-06
-7.66824e-08
1.88834e-06
3.81478e-06
3.75718e-08
9.73178e-06
5.35648e-06
3.48975e-07
8.84625e-06
4.78345e-06
1.74502e-07
3.65944e-06
5.1475e-06
-1.24753e-07
4.06601e-08
4.6154e-06
2.29863e-07
-4.24909e-07
3.52146e-06
1.66247e-06
5.0867e-07
2.78579e-06
3.2419e-06
1.99078e-06
2.61908e-06
4.29776e-06
3.02542e-06
2.56279e-06
3.39835e-06
2.37834e-06
1.81554e-06
8.49081e-08
-1.21198e-08
3.96671e-06
4.19352e-06
3.38708e-06
4.51263e-06
4.11951e-06
4.18081e-06
2.97535e-06
7.75737e-07
4.42099e-06
1.41893e-06
-1.6759e-06
3.27298e-06
1.29304e-06
-2.25848e-06
1.95945e-06
2.07482e-06
-1.74639e-06
1.47328e-06
3.17523e-06
-6.89031e-07
1.57941e-06
4.26927e-06
1.23212e-07
1.80817e-06
5.68888e-07
2.18651e-06
2.15033e-06
-1.76195e-06
-3.0346e-07
3.67414e-06
6.84569e-07
1.98514e-06
3.87873e-06
2.07466e-06
1.84025e-06
2.50356e-06
2.18189e-06
-3.10051e-08
1.85197e-06
1.12734e-06
-2.15165e-06
2.13986e-06
5.3773e-07
-3.0841e-06
2.71137e-06
6.5244e-07
-2.97033e-06
3.58166e-06
1.0283e-06
-2.58762e-06
4.82265e-06
1.45837e-06
-2.57613e-06
2.16139e-06
-2.67687e-06
-3.18068e-08
6.72966e-08
-1.0158e-07
-4.93948e-09
-2.18155e-08
-7.13826e-08
2.87381e-08
-1.85862e-08
-8.48838e-08
4.70008e-08
4.92352e-10
-8.69894e-08
6.58487e-08
-1.83719e-09
-8.43809e-08
8.9626e-08
-1.28292e-08
-7.99441e-08
1.14986e-07
-2.44043e-08
-7.16204e-08
1.37484e-07
-3.46861e-08
-6.27305e-08
1.5098e-07
-4.20601e-08
-5.00628e-08
-5.40043e-08
-4.34385e-08
-8.71758e-08
2.36422e-07
-2.08572e-07
-8.42024e-08
5.60608e-09
-1.54044e-07
-5.04581e-08
-7.69624e-09
-1.70571e-07
-3.77238e-08
3.81404e-08
-1.6547e-07
-1.61879e-08
2.21363e-08
-1.53281e-07
1.37662e-08
-5.1501e-09
-1.42611e-07
5.41775e-08
-3.67248e-08
-1.31642e-07
9.43517e-08
-6.14722e-08
-1.15853e-07
1.30712e-07
-8.35673e-08
-9.21907e-08
-1.17414e-07
-7.27239e-08
-7.99947e-08
4.10827e-07
-2.17286e-07
-7.80975e-09
-9.59626e-08
-9.45353e-08
3.30674e-08
-4.54943e-08
-1.58243e-07
1.0173e-08
1.13515e-07
-1.97802e-07
1.06288e-08
8.30185e-08
-1.90741e-07
4.25888e-08
2.30389e-08
-1.77704e-07
8.61029e-08
-2.82641e-08
-1.59841e-07
1.2534e-07
-5.9852e-08
-1.35631e-07
1.51497e-07
-8.92069e-08
-9.81719e-08
-1.43935e-07
-6.40667e-08
8.18639e-08
4.6061e-07
-2.27038e-07
2.12477e-07
-3.06019e-07
8.39142e-08
2.1545e-07
-1.29755e-07
-3.51958e-08
1.25745e-07
2.37175e-07
-2.00692e-07
6.97353e-08
2.1146e-07
-2.34273e-07
7.36768e-08
1.08964e-07
-2.21116e-07
1.02698e-07
3.1597e-08
-1.8443e-07
1.26214e-07
-7.26406e-09
-1.21238e-07
1.39904e-07
-4.16896e-08
-4.12259e-08
-1.30198e-07
1.69759e-08
3.63538e-07
3.07043e-07
-1.46419e-07
4.45677e-07
-3.83241e-07
2.70993e-07
2.29742e-07
1.99355e-08
1.1754e-07
7.21664e-08
4.56517e-07
-1.57129e-07
-1.42481e-08
4.2042e-07
-2.33643e-07
-2.78765e-08
2.7498e-07
-2.0289e-07
-2.09969e-08
1.72914e-07
-1.20847e-07
-6.81318e-09
1.13998e-07
-2.84325e-08
3.19057e-08
6.98661e-08
5.70746e-08
-1.40612e-07
1.35601e-07
3.92506e-07
2.90879e-07
-2.019e-07
3.25215e-07
-1.3301e-07
1.37065e-07
-7.27443e-09
4.19374e-07
1.41534e-07
-1.99916e-07
7.74652e-07
-1.00986e-07
-3.19588e-07
7.26743e-07
-2.00298e-07
-3.4224e-07
5.10346e-07
-2.11941e-07
-2.71712e-07
2.9887e-07
-2.00523e-07
-1.32629e-07
1.30925e-07
-9.72559e-08
6.76895e-08
6.29025e-09
1.03668e-07
-2.01741e-07
2.66305e-07
2.93413e-07
4.30297e-07
-3.66022e-07
7.97481e-08
3.84693e-07
-4.53894e-08
-1.19678e-07
8.14604e-07
1.56973e-07
-2.36887e-07
1.11523e-06
-4.65278e-08
-3.36517e-07
1.12473e-06
-3.43598e-07
-2.95992e-07
8.19847e-07
-5.79378e-07
-4.24128e-08
3.79248e-07
-5.66692e-07
3.82891e-07
-5.11636e-08
-2.08473e-07
6.30946e-07
-1.56532e-07
-1.46652e-07
3.3391e-08
-3.5721e-07
1.46829e-07
7.37452e-07
-5.8432e-07
-1.56448e-07
1.08077e-06
-3.04349e-07
-3.73584e-07
1.44437e-06
-1.73797e-07
-4.2617e-07
1.64946e-06
-3.49466e-07
-4.34142e-07
1.77065e-06
-6.32863e-07
-3.70885e-07
1.68496e-06
-1.09889e-06
-1.39546e-07
1.31643e-06
-1.86177e-06
1.14642e-07
8.57917e-07
-3.1837e-06
2.42515e-07
1.09316e-06
-4.52953e-06
1.94246e-06
-5.20631e-06
-2.62643e-07
1.73828e-06
-1.07985e-06
-8.36691e-07
2.43731e-06
-1.12176e-06
-1.14506e-06
2.68054e-06
-1.36935e-06
-9.15963e-07
2.31257e-06
-1.99089e-06
-2.16338e-07
1.8603e-06
-3.00976e-06
3.86148e-07
1.73323e-06
-4.2706e-06
5.86283e-07
1.60143e-06
-5.80774e-06
-1.0202e-07
3.11755e-06
-8.0263e-06
-2.09262e-06
7.65566e-06
-8.89645e-06
8.55033e-06
-1.04403e-05
-5.45749e-07
3.08151e-06
-1.25063e-06
-1.02499e-06
3.62366e-06
-1.32926e-06
-7.05614e-07
2.8332e-06
-1.37711e-06
9.10718e-07
6.64292e-07
-1.66377e-06
2.00573e-06
1.80158e-06
-3.60393e-06
-9.70098e-07
7.84271e-06
-6.31355e-06
-3.59871e-06
6.2563e-06
-7.8292e-06
-5.30704e-06
8.17345e-06
-8.82103e-06
-5.11201e-06
1.2167e-05
-8.59636e-06
1.21806e-05
-9.24669e-06
-2.72419e-07
3.68801e-06
-6.59123e-07
3.41071e-07
3.01784e-06
-4.1959e-07
5.19543e-06
-2.5786e-06
1.89556e-07
2.43484e-06
6.10554e-06
-2.60557e-06
-2.09522e-06
9.31037e-06
-7.26676e-06
-3.88491e-06
1.1383e-05
-8.93367e-06
-5.38091e-06
1.03071e-05
-8.69754e-06
-5.78439e-06
1.07549e-05
-6.3198e-06
-4.11978e-06
1.2741e-05
-4.11549e-06
1.20708e-05
-2.47688e-06
1.39836e-06
-1.90798e-07
2.75758e-06
4.07352e-06
-6.54981e-07
1.72074e-06
1.80601e-06
5.61639e-06
-6.75888e-06
7.34612e-07
1.00765e-05
-6.63883e-06
-1.55341e-06
1.30206e-05
-6.28625e-06
-3.14833e-06
1.45048e-05
-7.2305e-06
-3.73022e-06
1.30254e-05
-6.97811e-06
-3.38271e-06
1.17074e-05
-4.90174e-06
-9.96585e-07
1.14073e-05
-3.23098e-06
1.13617e-05
-1.41936e-06
-3.8171e-07
2.78143e-06
-8.92625e-07
-1.11811e-06
7.0622e-06
-1.04397e-05
1.14046e-07
1.11482e-05
-1.25383e-05
1.46471e-06
1.32189e-05
-8.79432e-06
1.30497e-06
1.48367e-05
-5.57505e-06
7.21211e-07
1.56558e-05
-4.7223e-06
5.72243e-07
1.43356e-05
-4.61425e-06
1.04183e-06
1.23251e-05
-4.12016e-06
2.40115e-06
1.1007e-05
-3.51836e-06
1.18087e-05
-1.49788e-06
-2.33531e-06
8.38078e-06
-2.87546e-06
-1.32641e-06
1.18279e-05
-1.23037e-05
1.11373e-06
1.48584e-05
-1.20772e-05
3.3202e-06
1.54454e-05
-7.962e-06
3.71337e-06
1.65085e-05
-4.17581e-06
3.35964e-06
1.67006e-05
-2.53294e-06
3.07333e-06
1.54126e-05
-2.24647e-06
2.88903e-06
1.32506e-05
-2.01601e-06
2.51695e-06
1.14303e-05
-8.36695e-07
1.23171e-05
1.55448e-06
-2.46357e-06
1.27925e-05
8.19998e-07
-1.23333e-06
1.52454e-05
-8.84549e-06
5.16393e-07
1.75096e-05
-7.19688e-06
1.30725e-06
1.76616e-05
-3.14969e-06
1.51735e-06
1.73117e-05
4.27433e-07
2.08227e-06
1.60874e-05
2.07276e-06
2.44377e-06
1.46808e-05
2.69791e-06
2.0104e-06
1.28277e-05
3.2274e-06
8.11756e-07
1.13277e-05
4.09234e-06
1.1326e-05
5.56347e-06
-2.91845e-06
1.49902e-05
5.78197e-06
-3.18499e-06
1.84177e-05
-2.97451e-06
-3.78487e-06
2.01112e-05
-5.71637e-07
-4.29346e-06
1.82567e-05
3.33465e-06
-3.13642e-06
1.44124e-05
6.37359e-06
-9.81938e-07
1.13368e-05
7.81591e-06
8.72832e-07
9.95331e-06
8.12453e-06
1.61252e-06
9.18278e-06
7.8136e-06
1.27314e-06
8.8116e-06
7.57457e-06
8.60637e-06
7.64782e-06
-3.23482e-06
1.52764e-05
9.04192e-06
-5.10916e-06
2.11994e-05
2.90189e-06
-6.83642e-06
2.11804e-05
4.48635e-06
-6.79629e-06
1.59417e-05
7.17686e-06
-4.79145e-06
9.21196e-06
8.5244e-06
-1.90928e-06
5.23511e-06
8.50177e-06
1.31858e-06
3.95862e-06
7.66311e-06
3.76871e-06
4.21451e-06
7.05607e-06
5.1258e-06
4.97551e-06
6.73103e-06
5.41462e-06
6.42526e-06
-1.96481e-06
1.26933e-05
8.36263e-06
-3.48203e-06
2.14032e-05
6.66993e-06
-4.22189e-06
2.0372e-05
6.33175e-06
-3.35485e-06
1.29113e-05
7.31082e-06
-1.62728e-06
5.37926e-06
6.72053e-06
6.21343e-07
1.37727e-06
5.13069e-06
3.32298e-06
-5.72471e-08
4.10002e-06
5.63833e-06
5.65369e-07
3.95286e-06
7.37032e-06
1.66166e-06
4.14465e-06
2.4416e-06
4.41508e-06
1.37473e-06
7.43438e-06
3.87212e-06
7.2052e-07
1.86208e-05
6.8237e-06
7.67436e-07
1.84187e-05
6.08725e-06
1.05774e-06
1.10212e-05
6.02077e-06
1.6407e-06
3.71858e-06
4.35072e-06
2.87374e-06
-7.07224e-07
2.81091e-06
4.02345e-06
-1.96909e-06
2.23541e-06
5.0943e-06
-1.41671e-06
2.49064e-06
6.41417e-06
-8.67347e-07
3.01732e-06
-5.60047e-07
3.83863e-06
3.37285e-06
-2.61997e-07
2.56156e-06
4.43461e-06
4.12959e-06
1.4114e-05
4.54847e-06
4.71366e-06
1.56658e-05
4.114e-06
4.05341e-06
9.58417e-06
4.08979e-06
2.33178e-06
2.53835e-06
4.20524e-06
1.36238e-06
-1.64733e-06
4.2801e-06
1.15023e-06
-2.54173e-06
4.90912e-06
1.55063e-06
-2.56806e-06
6.52442e-06
1.97399e-06
-2.99827e-06
3.09757e-06
-3.63066e-06
-3.48887e-08
6.34175e-08
-1.30109e-07
-1.75888e-08
-2.06554e-08
-6.80271e-08
6.64527e-09
-1.81975e-08
-9.09203e-08
2.27975e-08
-5.32241e-09
-9.78193e-08
4.56208e-08
-1.43804e-08
-9.28237e-08
7.55824e-08
-3.23514e-08
-7.75543e-08
1.0925e-07
-5.32456e-08
-5.20425e-08
1.37579e-07
-7.14257e-08
-1.96339e-08
1.54123e-07
-9.02056e-08
2.35988e-08
-1.13235e-07
5.10828e-08
-8.81682e-08
1.99325e-07
-2.56311e-07
-9.93117e-08
-9.48427e-09
-1.54071e-07
-7.73076e-08
-2.78746e-08
-1.82898e-07
-6.44038e-08
7.5242e-09
-1.9122e-07
-3.93121e-08
-1.26695e-08
-1.80084e-07
-1.08787e-09
-5.2469e-08
-1.60718e-07
4.61517e-08
-1.01439e-07
-1.30688e-07
9.65955e-08
-1.47362e-07
-9.03611e-08
1.41685e-07
-1.946e-07
-3.28856e-08
-2.39756e-07
1.19879e-08
-1.10727e-07
3.64993e-07
-2.72227e-07
-8.05359e-08
-4.77745e-08
-8.64362e-08
-3.48803e-08
-7.80269e-08
-1.53746e-07
-4.45816e-08
3.43311e-08
-2.14907e-07
-2.87964e-08
1.57316e-10
-2.19353e-07
1.08576e-08
-6.92565e-08
-2.0057e-07
6.521e-08
-1.47416e-07
-1.68217e-07
1.17362e-07
-2.14063e-07
-1.21082e-07
1.58035e-07
-2.70644e-07
-6.2801e-08
-3.136e-07
-2.90837e-08
-6.45497e-08
5.08193e-07
-3.05688e-07
7.51632e-08
-1.28401e-07
2.48274e-08
1.33241e-07
-1.44756e-07
-2.65446e-08
5.73308e-08
1.1304e-07
-2.03491e-07
8.81312e-09
8.02583e-08
-2.65857e-07
1.86576e-08
-3.6136e-08
-2.64081e-07
6.38439e-08
-1.60137e-07
-2.16895e-07
1.05631e-07
-2.33308e-07
-1.4378e-07
1.3818e-07
-2.58347e-07
-8.60717e-08
-2.79449e-07
-8.80274e-08
1.10179e-07
6.69947e-07
-4.18352e-07
2.4965e-07
2.2424e-08
-1.93019e-08
2.24966e-07
1.80321e-08
-2.05637e-08
9.00481e-08
3.23529e-07
-2.327e-07
3.6092e-09
2.59515e-07
-3.26461e-07
3.82594e-10
8.013e-08
-3.1593e-07
2.89946e-08
-6.50932e-08
-2.44503e-07
6.00536e-08
-1.42236e-07
-1.50563e-07
9.68166e-08
-1.33006e-07
-1.05029e-07
-1.44205e-07
-1.31721e-07
2.63456e-07
9.12803e-07
-7.08212e-07
3.13369e-07
4.15166e-07
-3.05591e-07
1.61426e-07
4.63049e-07
-1.5154e-07
-5.93715e-09
6.8536e-07
-2.95454e-07
-1.11979e-07
5.6741e-07
-4.02151e-07
-1.08948e-07
2.99938e-07
-4.3478e-07
-3.81386e-08
4.31715e-08
-3.79597e-07
3.88799e-08
-8.91408e-08
-2.2737e-07
1.47585e-07
-3.8557e-08
-9.94858e-08
2.80865e-08
-8.48929e-08
3.92613e-07
9.80699e-07
-8.26531e-07
3.21311e-07
8.43199e-07
-4.02121e-07
6.18078e-08
1.09185e-06
-2.12322e-07
-1.02813e-07
1.23703e-06
-4.33577e-07
-1.89444e-07
1.03134e-06
-7.20896e-07
-1.28654e-07
5.67276e-07
-9.07505e-07
9.44774e-08
1.13826e-07
-8.60477e-07
4.32105e-07
-1.47257e-08
-6.20515e-07
6.33846e-07
8.97407e-08
-4.7669e-07
2.75958e-07
-5.22498e-07
3.39627e-07
1.08737e-06
-1.03062e-06
4.77272e-08
1.47846e-06
-6.47708e-07
-2.69039e-07
1.84266e-06
-6.07839e-07
-4.60632e-07
1.9691e-06
-8.89943e-07
-5.62327e-07
1.8337e-06
-1.33353e-06
-5.16296e-07
1.48528e-06
-2.06292e-06
-2.16475e-07
9.43654e-07
-2.99142e-06
-3.40315e-08
6.07772e-07
-3.98864e-06
7.70944e-08
3.02146e-07
-4.85306e-06
-1.09242e-08
-5.03867e-06
-3.78757e-07
2.15003e-06
-1.76375e-06
-1.07549e-06
2.68355e-06
-1.63012e-06
-1.34788e-06
2.55004e-06
-1.80434e-06
-1.15273e-06
2.08379e-06
-2.30072e-06
-7.61445e-07
1.67427e-06
-3.24162e-06
-7.00563e-07
1.89228e-06
-4.73849e-06
-6.87758e-07
1.12798e-06
-6.00487e-06
-2.08445e-06
2.1794e-06
-8.20124e-06
-4.12093e-06
5.3749e-06
-1.19327e-05
2.94276e-06
-1.36087e-05
-6.65505e-07
3.29709e-06
-1.7322e-06
-9.84236e-07
3.01794e-06
-1.34492e-06
-3.28844e-07
1.76481e-06
-1.24728e-06
6.72572e-07
1.36191e-06
-1.9433e-06
-1.69576e-06
7.02994e-06
-6.59127e-06
-3.75582e-06
6.48841e-06
-8.84961e-06
-5.906e-06
5.36262e-06
-9.91365e-06
-7.55792e-06
5.43292e-06
-1.04226e-05
-5.53545e-06
5.83984e-06
-1.10838e-05
3.2441e-06
-1.27546e-05
2.59657e-07
2.23679e-06
1.41519e-07
3.55876e-06
-4.10491e-07
-2.90267e-07
3.17944e-06
8.47191e-06
-6.13822e-06
4.29331e-07
9.97972e-06
-8.47328e-06
-3.06234e-06
1.14297e-05
-8.17487e-06
-4.90861e-06
1.00789e-05
-1.06779e-05
-5.25086e-06
8.52563e-06
-1.15183e-05
-4.79986e-06
6.48226e-06
-7.82015e-06
-1.61059e-06
4.12805e-06
-5.59297e-06
1.01307e-06
-3.95004e-06
1.75032e-06
6.96677e-07
2.54738e-06
2.40872e-06
8.0448e-06
-7.39296e-06
3.32686e-06
1.44367e-05
-1.36418e-05
2.76591e-06
1.48408e-05
-1.0939e-05
9.58735e-07
1.42322e-05
-7.28156e-06
-4.6462e-07
1.15757e-05
-7.30396e-06
3.0141e-07
9.09545e-06
-8.31398e-06
2.11302e-06
6.0365e-06
-6.26758e-06
4.7735e-06
2.95291e-06
-4.71632e-06
1.67937e-07
-3.11314e-06
9.72189e-07
5.80674e-06
-6.97488e-06
1.97903e-06
1.26616e-05
-1.60633e-05
3.63954e-06
1.70788e-05
-1.68409e-05
5.40119e-06
1.6722e-05
-1.24372e-05
6.72712e-06
1.45927e-05
-7.26148e-06
6.921e-06
1.1425e-05
-4.76544e-06
7.39835e-06
8.2048e-06
-4.20095e-06
8.04661e-06
4.88787e-06
-3.6198e-06
8.30974e-06
2.0755e-06
-2.90407e-06
7.82325e-07
-1.96372e-06
1.47943e-06
8.62928e-06
-7.17743e-06
2.02934e-06
1.45041e-05
-1.46962e-05
4.17353e-06
1.67297e-05
-1.38724e-05
6.94714e-06
1.63592e-05
-1.03728e-05
9.46255e-06
1.38977e-05
-5.99624e-06
1.0179e-05
1.09776e-05
-2.80202e-06
9.32296e-06
8.04046e-06
-1.22607e-06
7.35578e-06
5.09706e-06
-2.58039e-07
4.93872e-06
2.74197e-06
9.13909e-07
2.01926e-06
2.16621e-06
1.37993e-06
1.15266e-05
-3.45722e-06
1.65014e-06
1.44348e-05
-9.04638e-06
3.32927e-06
1.58875e-05
-8.03385e-06
5.40806e-06
1.61869e-05
-5.05613e-06
6.52834e-06
1.39779e-05
-7.72985e-07
6.0799e-06
1.0467e-05
3.03176e-06
5.0329e-06
6.89014e-06
4.89522e-06
3.59347e-06
3.90031e-06
5.86358e-06
1.93441e-06
2.1634e-06
6.32997e-06
1.86268e-06
6.69596e-06
-2.1128e-08
1.4451e-05
2.87871e-06
5.29313e-08
1.48026e-05
-3.41635e-06
1.39074e-07
1.72587e-05
-2.02891e-06
-9.35293e-08
1.73115e-05
2.44269e-06
-3.97135e-07
1.36442e-05
7.01088e-06
2.30891e-07
8.34498e-06
9.30993e-06
1.81459e-06
3.78272e-06
9.64823e-06
3.3373e-06
1.26144e-06
8.92977e-06
4.14226e-06
6.17892e-07
8.31512e-06
1.04345e-06
7.84361e-06
-1.35791e-06
1.64667e-05
8.3841e-06
-2.77181e-06
1.72496e-05
1.86875e-06
-3.90279e-06
1.94375e-05
3.43853e-06
-4.63897e-06
1.78878e-05
7.33668e-06
-3.77192e-06
1.18746e-05
9.4269e-06
-9.10949e-07
5.30748e-06
8.67829e-06
2.73571e-06
8.1642e-07
6.98275e-06
5.57718e-06
-6.5215e-07
6.1282e-06
7.45359e-06
-4.64553e-07
5.93705e-06
3.32735e-07
5.7428e-06
-1.22971e-06
1.57678e-05
1.02912e-05
-3.69542e-06
2.01345e-05
6.25075e-06
-4.79355e-06
2.1016e-05
5.85139e-06
-4.34263e-06
1.72321e-05
7.51565e-06
-2.0562e-06
9.66549e-06
6.64325e-06
1.32665e-06
2.74592e-06
4.3094e-06
4.16515e-06
-1.308e-06
3.38594e-06
5.98578e-06
-2.09052e-06
3.5706e-06
7.47723e-06
-1.64132e-06
3.82996e-06
-8.11114e-07
4.09196e-06
1.74426e-06
1.02999e-05
7.59578e-06
-8.96987e-07
2.11764e-05
8.42302e-06
-2.19097e-06
2.17866e-05
6.61056e-06
-1.06266e-06
1.62796e-05
5.84492e-06
1.32742e-06
7.94872e-06
3.6774e-06
3.69457e-06
8.52807e-07
2.33686e-06
4.97739e-06
-2.52914e-06
2.17375e-06
5.66945e-06
-2.85034e-06
2.5584e-06
7.03406e-06
-2.73689e-06
2.74828e-06
-2.1763e-06
3.35683e-06
3.12428e-06
3.21867e-06
3.69496e-06
3.18745e-06
7.28639e-06
1.79565e-05
2.56466e-06
6.49839e-06
2.06247e-05
3.43143e-06
4.52878e-06
1.49375e-05
4.87494e-06
2.60439e-06
6.23259e-06
5.48895e-06
1.80911e-06
-2.07923e-07
5.29632e-06
1.53414e-06
-2.72042e-06
5.64464e-06
1.69593e-06
-3.34396e-06
7.56358e-06
1.45552e-06
-4.13736e-06
2.55816e-06
-3.96337e-06
-3.36998e-08
5.45849e-08
-1.50994e-07
-1.98681e-08
-9.5523e-09
-7.23065e-08
6.16766e-10
-1.25815e-08
-9.88238e-08
1.94198e-08
-1.11004e-08
-1.05522e-07
4.7021e-08
-2.45954e-08
-9.58294e-08
8.51675e-08
-4.33837e-08
-7.23171e-08
1.27061e-07
-5.91774e-08
-3.47585e-08
1.64403e-07
-6.79096e-08
1.09336e-08
1.81762e-07
-7.24075e-08
7.86473e-08
-7.11423e-08
1.18631e-07
-7.71774e-08
1.58784e-07
-2.83333e-07
-9.28553e-08
2.07387e-08
-1.68684e-07
-8.31438e-08
-5.84723e-09
-1.99344e-07
-6.92223e-08
-7.77029e-09
-2.08472e-07
-4.02417e-08
-3.7124e-08
-1.96535e-07
7.3289e-09
-8.15171e-08
-1.70155e-07
7.08143e-08
-1.25855e-07
-1.27496e-07
1.38581e-07
-1.57368e-07
-6.86692e-08
1.88768e-07
-1.68807e-07
1.33266e-08
-1.50721e-07
7.63791e-08
-1.02635e-07
2.96175e-07
-3.06983e-07
-1.18691e-07
9.19729e-08
-1.41615e-07
-9.42642e-08
1.72418e-08
-2.01262e-07
-7.88425e-08
3.27217e-09
-2.41371e-07
-4.28389e-08
-5.33976e-08
-2.39084e-07
1.17213e-08
-1.26951e-07
-2.09696e-07
7.87058e-08
-2.01399e-07
-1.59658e-07
1.39013e-07
-2.44283e-07
-9.44747e-08
1.83253e-07
-2.31826e-07
-4.40223e-08
-1.67117e-07
-5.09832e-08
-1.15367e-07
4.51347e-07
-3.45493e-07
-1.11777e-07
2.01937e-07
-8.87267e-08
-6.03067e-08
9.28315e-08
-1.53604e-07
-6.43083e-08
7.27666e-08
-2.68984e-07
-4.9625e-08
-2.17738e-08
-3.12164e-07
-8.62683e-10
-1.48197e-07
-2.91597e-07
6.03051e-08
-2.54198e-07
-2.25263e-07
1.02266e-07
-2.87808e-07
-1.42216e-07
1.42313e-07
-2.31295e-07
-1.2665e-07
-1.43126e-07
-2.22638e-07
-5.15944e-08
6.30946e-07
-5.46357e-07
-5.03195e-08
4.13389e-07
-2.32028e-07
-3.65146e-08
2.88732e-07
-2.30269e-07
-7.04622e-08
2.37022e-07
-3.63007e-07
-5.73399e-08
6.93971e-08
-4.30754e-07
-2.67401e-09
-1.0122e-07
-4.17573e-07
5.5728e-08
-2.26522e-07
-3.30581e-07
6.91261e-08
-2.42823e-07
-2.08946e-07
9.41687e-08
-1.7819e-07
-1.83177e-07
-1.18883e-07
-3.4233e-07
7.05865e-08
8.36993e-07
-9.84845e-07
3.25234e-08
7.22826e-07
-5.76964e-07
-3.72394e-08
6.36411e-07
-4.29456e-07
-1.22891e-07
5.5129e-07
-5.24071e-07
-1.15073e-07
2.912e-07
-6.31773e-07
-1.35418e-08
4.12227e-10
-6.37943e-07
8.46061e-08
-1.88257e-07
-5.1601e-07
9.33953e-08
-1.56438e-07
-3.22544e-07
1.07667e-07
-4.70955e-08
-2.44852e-07
7.7054e-09
-4.52601e-07
2.14461e-07
9.26889e-07
-1.13089e-06
6.97377e-08
1.10401e-06
-6.38586e-07
-1.75809e-07
1.23467e-06
-5.6503e-07
-3.15206e-07
1.07724e-06
-8.2013e-07
-2.78182e-07
5.94099e-07
-1.06082e-06
-1.23353e-07
1.07645e-07
-1.16957e-06
1.06736e-07
-4.47743e-08
-1.23405e-06
3.37436e-07
1.93608e-07
-1.20126e-06
4.34386e-07
4.69868e-07
-1.0906e-06
5.78139e-07
-1.13636e-06
6.37325e-08
1.08382e-06
-1.25128e-06
-2.36975e-07
1.636e-06
-8.78983e-07
-6.13358e-07
2.00278e-06
-9.99571e-07
-8.99226e-07
1.86891e-06
-1.39574e-06
-1.10393e-06
1.52665e-06
-2.06138e-06
-1.09493e-06
1.05473e-06
-3.019e-06
-9.33926e-07
7.91468e-07
-3.98867e-06
-8.08315e-07
6.83468e-07
-4.60411e-06
-4.26868e-07
1.31254e-07
-4.89589e-06
-6.99795e-07
-4.37401e-06
-8.98583e-07
2.21785e-06
-1.9992e-06
-1.55651e-06
2.33926e-06
-1.67545e-06
-1.73538e-06
2.15987e-06
-1.78256e-06
-1.48838e-06
1.60499e-06
-2.2838e-06
-1.50766e-06
2.09636e-06
-3.79205e-06
-1.79266e-06
1.75121e-06
-5.14997e-06
-2.68424e-06
2.06149e-06
-6.38332e-06
-4.00113e-06
2.65642e-06
-8.85729e-06
-4.4446e-06
1.39726e-06
-1.27553e-05
-3.47567e-06
-1.23766e-05
-7.97441e-07
2.6472e-06
-1.36411e-06
-4.58527e-07
1.92854e-06
-1.27312e-06
1.6205e-06
3.48489e-06
-4.65133e-06
1.55236e-07
8.3394e-06
-7.21245e-06
-2.71597e-06
6.97467e-06
-8.59837e-06
-4.10772e-06
5.31956e-06
-1.10262e-05
-5.97623e-06
6.43216e-06
-1.24158e-05
-5.97085e-06
4.46637e-06
-1.2238e-05
-3.63493e-06
1.68554e-06
-1.3708e-05
-1.28081e-06
-1.63283e-05
1.35148e-06
-1.60085e-06
3.03809e-06
3.16792e-06
7.7345e-06
-7.91267e-06
3.89129e-06
1.20117e-05
-1.53884e-05
1.74695e-06
1.39613e-05
-1.19508e-05
-2.90996e-06
1.12915e-05
-7.83478e-06
-5.7026e-06
7.87528e-06
-1.0441e-05
-4.47514e-06
6.84749e-06
-1.31611e-05
-2.92704e-06
3.89417e-06
-8.79606e-06
-9.52343e-07
1.03014e-06
-6.91228e-06
-1.82503e-06
-5.46746e-06
2.04571e-06
6.94861e-06
-8.04779e-06
6.15319e-06
1.30326e-05
-1.67985e-05
6.91986e-06
1.58474e-05
-1.82442e-05
5.99266e-06
1.72628e-05
-1.33133e-05
3.46779e-06
1.40885e-05
-7.55369e-06
9.99195e-07
9.43063e-06
-6.39072e-06
2.11477e-06
6.10158e-06
-8.68365e-06
4.27846e-06
2.65024e-06
-7.18733e-06
6.22127e-06
-3.51662e-07
-5.27731e-06
-2.9562e-06
-3.04248e-06
3.20672e-06
8.66274e-06
-1.18957e-05
6.18295e-06
1.24367e-05
-1.84436e-05
7.54438e-06
1.44367e-05
-1.67916e-05
8.68793e-06
1.61095e-05
-1.24274e-05
9.04705e-06
1.41329e-05
-7.66498e-06
8.63056e-06
9.74312e-06
-4.66145e-06
8.75869e-06
5.17043e-06
-3.39794e-06
8.92925e-06
1.04814e-06
-2.18825e-06
8.90571e-06
-2.12961e-06
-1.10256e-06
-4.40813e-06
-1.15217e-07
3.39578e-06
7.93244e-06
-9.84291e-06
5.26707e-06
8.89248e-06
-1.30232e-05
6.73432e-06
1.05424e-05
-1.14454e-05
8.36312e-06
1.29252e-05
-8.81732e-06
9.68937e-06
1.21835e-05
-5.37309e-06
1.00552e-05
8.419e-06
-1.84373e-06
9.093e-06
3.87883e-06
1.02773e-06
7.53923e-06
-4.60566e-07
2.80443e-06
6.42041e-06
-3.61504e-06
3.51816e-06
-5.28999e-06
3.57265e-06
3.44654e-06
7.05024e-06
-6.02156e-06
3.96821e-06
6.70873e-06
-7.3843e-06
4.44259e-06
7.95279e-06
-5.91861e-06
5.1091e-06
1.09991e-05
-3.79661e-06
5.85805e-06
1.06983e-05
-3.67657e-08
5.74315e-06
7.17229e-06
4.39335e-06
5.10564e-06
2.23858e-06
7.17297e-06
5.01267e-06
-2.17026e-06
7.66625e-06
5.2559e-06
-4.61633e-06
7.08802e-06
-5.31963e-06
6.27881e-06
2.59081e-06
7.89969e-06
-5.61547e-07
1.14321e-06
7.10904e-06
-2.36906e-06
1.98484e-07
8.48989e-06
-1.62129e-06
1.64538e-07
1.22227e-05
1.25301e-06
1.81221e-07
1.13952e-05
6.29734e-06
1.01441e-06
6.45852e-06
9.19052e-06
3.09936e-06
5.70649e-07
9.23123e-06
5.27527e-06
-3.23348e-06
7.81707e-06
6.7336e-06
-4.58166e-06
6.82211e-06
-4.4996e-06
5.73396e-06
1.05442e-06
9.81663e-06
5.41273e-06
-2.1782e-06
9.90519e-06
2.30523e-06
-3.99562e-06
1.17339e-05
2.01193e-06
-3.79933e-06
1.44805e-05
4.88266e-06
-2.25968e-06
1.15171e-05
7.76534e-06
8.73243e-07
4.78727e-06
7.21663e-06
4.01607e-06
-1.01689e-06
5.42746e-06
5.932e-06
-3.7153e-06
4.69408e-06
7.22189e-06
-4.26965e-06
4.33513e-06
-3.95261e-06
3.55376e-06
1.95972e-06
9.25853e-06
8.88957e-06
-2.25225e-06
1.35896e-05
6.77836e-06
-4.88183e-06
1.51448e-05
5.07011e-06
-3.76309e-06
1.53403e-05
5.53706e-06
-6.86245e-07
9.8627e-06
5.2208e-06
2.66928e-06
2.24666e-06
3.49447e-06
4.8097e-06
-2.62293e-06
2.85157e-06
5.85722e-06
-4.13596e-06
2.94374e-06
7.23534e-06
-4.39026e-06
2.57246e-06
-4.03461e-06
2.19573e-06
3.91101e-06
5.05726e-06
7.88605e-06
1.22237e-06
1.52327e-05
9.46854e-06
-1.60021e-06
1.74693e-05
7.10853e-06
-4.19169e-07
1.47766e-05
5.22763e-06
2.47287e-06
7.35234e-06
3.29572e-06
4.58707e-06
3.31416e-07
2.13791e-06
5.48207e-06
-3.27422e-06
1.93003e-06
6.06901e-06
-4.19342e-06
2.02892e-06
7.92577e-06
-4.82377e-06
1.32503e-06
-4.40712e-06
1.61391e-06
2.9879e-06
4.36426e-06
9.23764e-07
4.28147e-06
8.60971e-06
1.26158e-05
3.59308e-06
7.90621e-06
1.67499e-05
4.48931e-06
5.49619e-06
1.29129e-05
5.7811e-06
3.35005e-06
5.31491e-06
6.10228e-06
2.11921e-06
-2.99855e-07
5.73683e-06
1.66578e-06
-3.04042e-06
6.25893e-06
1.31215e-06
-4.33174e-06
8.39458e-06
3.92201e-07
-5.89609e-06
1.52171e-06
-5.17206e-06
-3.48485e-08
3.74281e-08
-1.53574e-07
-1.98884e-08
-2.21741e-08
-6.50924e-08
4.33184e-09
-3.26973e-08
-9.03467e-08
2.99076e-08
-3.65152e-08
-9.45825e-08
6.64844e-08
-5.29189e-08
-7.94872e-08
1.15475e-07
-7.0099e-08
-5.12085e-08
1.69835e-07
-7.88748e-08
-1.02442e-08
2.13622e-07
-7.20965e-08
3.92431e-08
2.21326e-07
-4.45362e-08
1.15479e-07
5.85144e-09
1.32294e-07
-7.22439e-08
1.01213e-07
-2.74874e-07