/*--------------------------------*- C++ -*----------------------------------*\
| =========                 |                                                 |
| \\      /  F ield         | OpenFOAM: The Open Source CFD Toolbox           |
|  \\    /   O peration     | Version:  2312                                  |
|   \\  /    A nd           | Website:  www.openfoam.com                      |
|    \\/     M anipulation  |                                                 |
\*---------------------------------------------------------------------------*/
FoamFile
{
    version     2.0;
    format      ascii;
    arch        "LSB;label=32;scalar=64";
    class       volScalarField;
    location    "1.425";
    object      alpha.water;
}
// * * * * * * * * * * * * * * * * * * * * * * * * * * * * * * * * * * * * * //

dimensions      [0 0 0 0 0 0 0];

internalField   nonuniform List<scalar> 
8000
(
1
1
1
1
1
1
1
1
1
1
1
1
1
1
1
1
1
1
1
1
1
1
1
1
1
1
1
1
1
1
1
1
1
1
1
1
1
1
1
1
1
1
1
1
1
1
1
1
1
1
1
1
1
1
1
1
1
1
1
1
0.937401
0.937927
0.945985
0.956935
0.970324
0.986553
0.998592
1
1
1
0.304776
0.296975
0.28005
0.285668
0.319844
0.394054
0.508767
0.642915
0.740548
0.795564
0.00020495
0.000292618
0.000230098
0.000249183
0.000265424
0.00181015
0.0135298
0.0460072
0.0931417
0.124258
0.000121351
0.000216107
7.40109e-05
2.46736e-05
3.23855e-05
4.25689e-05
4.92818e-05
1.68546e-05
4.1675e-05
0.000103842
0.00020918
0.000402269
6.87609e-05
7.66242e-06
9.04272e-06
1.07006e-05
7.43541e-06
5.85038e-06
9.06065e-06
5.16775e-05
0.000478029
0.000480309
7.5233e-06
6.88603e-06
7.11012e-06
7.0365e-06
4.74864e-06
5.26503e-06
6.18055e-06
8.55685e-05
0.00028161
0.000482071
8.35646e-06
2.05113e-05
3.1847e-05
8.04089e-06
4.74864e-06
1.10819e-05
0.000138843
0.00016544
0.00017327
0.00049389
9.11862e-05
1.66824e-05
2.96599e-05
5.52429e-06
1.49698e-05
0.000146844
0.000155693
0.000153303
0.000174281
0.000511992
0.000418036
1.19285e-05
9.46883e-06
9.72449e-06
0.000129769
0.000174358
7.84506e-05
2.9311e-06
0.000209802
0.000516627
0.000514821
4.82455e-05
9.57518e-06
7.89314e-05
0.000177226
5.22356e-05
2.9311e-06
2.07165e-06
0.000516627
0.000516651
0.000516627
0.00011485
9.63739e-06
2.43667e-05
4.38125e-05
1.45086e-05
5.37106e-06
2.53459e-06
0.000516651
0.000516627
0.000351167
8.20224e-05
8.45343e-05
4.58795e-06
4.92679e-06
3.70998e-05
6.71271e-05
2.68431e-05
0.000516344
0.00051632
0.000199816
9.57081e-05
8.99242e-05
4.54634e-06
3.73993e-06
6.48595e-05
0.000129879
8.38873e-05
0.000516037
0.000466192
0.000140696
0.000140047
0.000102655
1.55463e-05
2.67365e-06
3.61637e-05
0.000107856
9.29697e-05
1
1
1
1
1
1
1
1
1
1
1
1
1
1
1
1
1
1
1
1
1
1
1
1
1
1
1
1
1
1
1
1
1
1
1
1
1
1
1
1
1
1
1
1
1
1
1
1
1
1
1
1
1
1
1
1
1
1
1
1
0.948757
0.950994
0.950042
0.951711
0.965848
0.984668
0.998603
1
1
1
0.308799
0.304469
0.296221
0.309554
0.35325
0.434011
0.550992
0.679767
0.78164
0.843029
0.000123821
0.000158546
0.00029024
0.000370391
0.000474015
0.0067106
0.0268396
0.0656822
0.113685
0.141305
0.000119845
2.86218e-05
2.86549e-05
4.60254e-05
5.33982e-05
5.48087e-05
3.25064e-05
1.80124e-05
5.16352e-05
0.000122486
0.00026274
2.27129e-05
8.49603e-06
9.48487e-06
1.07538e-05
9.65685e-06
6.49249e-06
5.78304e-06
8.66999e-06
4.87571e-05
0.000265152
1.36085e-05
7.15014e-06
5.96172e-06
5.80915e-06
5.48591e-06
5.06641e-06
5.58875e-06
6.05168e-06
5.84105e-05
0.000128204
0.000121951
1.42047e-05
5.73258e-06
5.45734e-06
5.06642e-06
4.74864e-06
1.53149e-05
6.40654e-05
2.77163e-05
0.000171463
0.00013533
9.45391e-05
4.91079e-05
2.06449e-05
5.39349e-06
3.52135e-05
0.000178829
9.96646e-05
9.73759e-06
0.000304521
0.000444563
0.000129697
3.0964e-05
2.76232e-05
1.30085e-05
0.000158133
0.000178989
8.15879e-05
2.3952e-05
0.000248835
0.000512854
0.000186523
1.53789e-05
1.31128e-05
0.000125437
0.000179094
0.000147593
5.57679e-05
5.98318e-05
8.69081e-05
0.000500756
0.000104744
1.52701e-05
4.10036e-05
0.000175713
0.000143913
9.24462e-05
0.000142106
7.07589e-05
0.000120535
0.000292778
7.57015e-05
2.52811e-05
4.77258e-05
8.64501e-06
4.02044e-05
0.000135243
0.000139214
8.16154e-05
0.00050128
0.000277141
2.1118e-05
6.42375e-05
3.7115e-05
3.64135e-06
4.134e-05
0.000135495
0.000133688
5.39088e-05
0.000515189
0.000292494
6.14507e-05
0.00010044
3.81782e-05
2.89348e-06
6.09741e-06
6.35408e-05
0.000103515
6.60825e-05
1
1
0.999999
0.999991
0.999997
1
1
1
1
1
1
0.999983
0.999926
0.99996
0.999989
1
1
1
1
1
1
0.999954
0.999861
0.999971
1
1
1
1
1
1
1
0.999948
1
1
1
1
1
1
1
1
1
0.999992
0.999999
1
1
1
1
1
1
1
1
1
1
1
1
1
1
1
1
1
0.965097
0.962166
0.966144
0.973752
0.986047
0.997845
1
1
1
1
0.329222
0.329706
0.327898
0.3538
0.416148
0.523403
0.662346
0.785118
0.87022
0.915453
0.000134162
0.000203817
0.000336886
0.000341998
0.00186692
0.0114587
0.0388177
0.0903894
0.155606
0.193703
0.000112586
1.84021e-05
4.0698e-05
4.71525e-05
6.58361e-05
5.25694e-05
6.43048e-05
1.96605e-05
3.21998e-05
7.18564e-05
0.000240595
6.86123e-06
9.38446e-06
1.44868e-05
5.62331e-05
0.000128268
0.000123577
1.43503e-05
1.82529e-05
2.34214e-05
0.000145138
5.48132e-06
6.8617e-06
8.3577e-06
7.86055e-05
0.000140679
0.000135271
0.000102222
3.52354e-05
2.61868e-05
0.000119663
3.70234e-06
1.11566e-05
8.03395e-06
9.00371e-06
1.56888e-05
0.000106482
0.000178829
0.000178194
0.000129752
0.000147979
1.33813e-05
8.09683e-05
4.08192e-05
2.64372e-06
7.01081e-06
0.000141346
0.000178892
0.000178829
0.000178354
0.000188385
5.46945e-05
7.72491e-05
7.50654e-05
1.04428e-05
1.09506e-05
0.000157354
0.000178882
0.000178989
0.000178581
0.000248724
0.00014761
2.56074e-05
4.63144e-05
1.61698e-05
6.95193e-05
0.000178867
0.000179094
0.000178867
0.000178258
8.70301e-05
0.000111333
1.76655e-05
1.30913e-05
0.000140936
0.000178286
0.00017909
0.000178867
0.000176312
0.000138634
5.50844e-06
0.000101556
3.35662e-05
8.90354e-06
7.29339e-05
0.000128091
0.000140838
0.00010755
1.8993e-05
2.19235e-06
0.000119982
0.000133934
3.45394e-06
7.93095e-06
8.21033e-06
7.1811e-06
2.12979e-05
2.44395e-05
1.62731e-06
1.69918e-06
0.000510371
0.00011582
9.83734e-06
3.76221e-05
1.43865e-05
2.17791e-06
2.744e-06
1.36641e-05
1.54889e-06
2.65783e-06
1
0.999999
0.999973
0.999982
0.999997
1
1
1
1
1
1
0.999983
0.999806
0.999806
0.99996
1
1
1
1
1
1
0.999899
0.999805
0.999805
0.999948
1
1
1
1
1
1
0.999956
0.999806
0.999947
1
1
1
1
1
1
1
1
0.999953
0.999998
1
1
1
1
1
1
1
1
1
1
1
1
1
1
1
1
0.977858
0.978074
0.9828
0.990778
0.997862
1
1
1
1
1
0.377437
0.3814
0.394957
0.439892
0.53078
0.665067
0.798738
0.906131
0.96077
0.982596
0.000209737
0.000421341
0.000977063
0.00243358
0.00707303
0.0237455
0.0702143
0.159587
0.263412
0.317801
0.000109539
2.98772e-05
5.27264e-05
5.45017e-05
3.25223e-05
3.35987e-05
2.87361e-05
9.27544e-06
8.58038e-06
1.51098e-05
0.00013891
5.81888e-06
1.23164e-05
2.71317e-05
6.80189e-05
0.000110916
4.46408e-05
9.92987e-06
8.52383e-06
3.70798e-06
9.18837e-05
3.70233e-06
7.25704e-06
2.9271e-05
5.0768e-05
8.80878e-05
0.000122112
7.92182e-05
2.4584e-05
2.40679e-05
4.43555e-05
3.21529e-06
8.65471e-06
1.40618e-05
2.66491e-06
1.10617e-05
9.08528e-05
0.000136935
0.000114445
0.000134085
7.41363e-05
1.84139e-06
1.5081e-05
6.86645e-06
2.4286e-06
2.6349e-06
7.01895e-05
0.00013797
0.000154949
0.000178006
0.000147066
1.88269e-06
4.85314e-05
3.90721e-05
2.00429e-06
2.52859e-06
4.36056e-05
0.000100336
0.000128689
0.000178024
0.000136073
1.04851e-05
5.8408e-05
5.75294e-05
1.78427e-06
1.84855e-06
3.75473e-05
6.8166e-05
0.000130902
0.00017588
2.8104e-05
1.59165e-05
3.52154e-05
4.5435e-05
4.10065e-05
7.7514e-05
7.12604e-05
4.74783e-05
2.92296e-05
4.43799e-05
4.98897e-06
1.58428e-05
9.96419e-06
1.53816e-05
0.000112982
0.00012553
8.09898e-05
6.64346e-06
1.54085e-06
1.63398e-06
0.000113917
3.49045e-05
2.1361e-06
4.10288e-06
3.80236e-05
4.72982e-05
2.85646e-05
2.36316e-06
1.54889e-06
2.28498e-05
0.000499046
1.15465e-05
1.75782e-06
2.136e-06
2.39219e-06
1.71534e-06
1.51516e-06
1.45922e-06
1.49916e-06
7.67669e-05
1
1
0.999995
0.999997
1
1
1
1
1
1
1
0.999997
0.99986
0.999865
0.999976
1
1
1
1
1
1
0.999986
0.999805
0.999805
0.999945
1
1
1
1
1
1
0.999999
0.999899
0.999879
0.999974
1
1
1
1
1
1
1
0.999983
0.99999
0.999994
1
1
1
0.999999
0.999983
1
1
1
1
1
1
1
1
1
0.999994
0.98998
0.991743
0.995496
0.99914
1
1
1
1
1
1
0.45553
0.471558
0.512144
0.591571
0.711947
0.834032
0.940888
0.986617
1
1
0.00209571
0.00482869
0.00803151
0.0117412
0.0270381
0.0735439
0.181716
0.344718
0.494359
0.555136
9.99707e-05
4.59576e-05
6.5965e-05
2.5907e-05
1.60962e-05
1.02356e-05
4.22555e-06
2.51587e-06
2.86882e-06
0.00231143
9.80111e-05
6.99242e-06
1.42214e-05
9.98979e-06
2.02511e-05
6.68905e-06
2.01242e-06
1.89362e-06
2.17094e-06
2.64296e-06
9.78888e-05
3.39818e-06
8.51206e-06
1.67557e-05
3.39615e-06
3.89869e-06
9.99963e-06
5.55252e-06
3.2481e-06
5.16083e-06
2.0134e-05
3.42885e-06
1.29494e-05
1.82058e-05
3.26954e-06
2.55966e-06
7.5785e-06
5.09335e-06
2.79818e-06
5.18904e-06
3.02628e-05
1.62714e-06
1.89436e-06
9.77138e-06
4.3059e-06
1.45221e-06
1.83125e-06
3.56441e-06
1.44658e-06
1.46031e-06
7.07687e-05
1.53461e-06
1.67717e-05
9.91298e-06
2.04206e-06
1.52355e-06
1.44094e-06
1.44354e-06
1.46031e-06
4.11312e-05
3.38574e-05
5.82939e-06
6.12208e-05
3.58114e-05
1.6724e-06
1.50672e-06
1.43826e-06
1.43179e-06
1.44354e-06
0.00014787
5.01391e-06
1.70454e-05
6.20331e-05
6.12208e-05
1.67984e-06
1.48607e-06
1.43178e-06
1.42871e-06
1.43179e-06
9.79934e-05
5.01391e-06
5.19228e-06
2.68977e-05
3.43527e-05
2.16017e-05
2.81942e-05
1.68612e-06
1.42871e-06
1.43587e-06
3.24963e-06
0.000145605
5.06096e-06
1.75765e-06
5.42849e-06
3.25384e-05
2.60762e-05
3.42286e-06
1.42871e-06
6.08596e-06
3.72596e-05
0.000493633
1.74069e-06
1.62976e-06
1.74671e-06
6.65908e-06
5.33907e-06
1.46801e-06
1.44543e-06
1.00842e-05
8.30026e-05
1
1
1
1
1
1
1
1
1
1
1
1
0.999994
0.999994
0.999999
1
1
1
1
1
1
1
0.999966
0.999959
0.999992
1
1
1
1
1
1
1
0.999998
0.999975
0.999987
0.999999
1
1
0.999996
0.999994
1
1
1
0.999995
0.999993
0.999999
1
1
0.999987
0.99997
1
1
1
1
1
1
1
1
0.999994
0.999974
0.998782
0.999488
0.999999
1
1
1
1
1
1
0.999999
0.566272
0.601265
0.677789
0.779068
0.883756
0.966306
1
1
1
0.999999
0.0121133
0.0197742
0.0278818
0.0420843
0.0917957
0.213819
0.393114
0.58997
0.730767
0.781364
6.07872e-05
6.23071e-05
2.98922e-05
8.56083e-06
5.15603e-06
1.15402e-05
1.98567e-06
0.0104725
0.0654378
0.0945625
0.000172971
6.14303e-06
8.55147e-06
4.42984e-06
1.874e-06
1.8386e-06
1.7126e-06
1.70893e-06
1.58492e-06
1.65391e-06
0.000177005
2.09906e-06
3.03377e-06
2.04611e-06
1.56898e-06
1.49257e-06
1.493e-06
1.4697e-06
1.45967e-06
1.46804e-06
0.000113978
1.62714e-06
1.02998e-05
6.47552e-06
1.50969e-06
1.43669e-06
1.44228e-06
1.44647e-06
1.44646e-06
1.46612e-06
9.66151e-05
1.51629e-06
7.08116e-06
1.35703e-05
3.13421e-06
1.43208e-06
1.43247e-06
1.45065e-06
1.44332e-06
1.44658e-06
0.000127699
1.495e-06
1.47871e-06
1.33846e-05
1.35857e-05
1.56967e-06
1.43704e-06
1.44049e-06
1.44522e-06
1.47533e-06
0.000110954
8.47589e-06
3.98859e-05
1.32939e-05
8.07341e-06
1.43704e-06
1.43664e-06
1.43676e-06
1.54252e-06
1.03609e-05
8.58789e-06
2.07456e-05
6.25971e-05
2.49002e-05
1.50853e-06
1.43664e-06
1.43431e-06
1.43028e-06
1.26934e-05
0.000165009
4.98876e-06
5.46469e-06
3.18116e-05
2.17824e-05
1.77241e-06
1.44062e-06
1.43028e-06
1.42871e-06
1.11063e-05
0.000165762
0.000238325
1.77598e-06
1.66494e-06
4.71671e-06
3.4396e-06
1.45952e-06
1.43135e-06
1.43002e-06
1.43135e-06
3.41063e-05
0.000489381
1.66507e-06
1.57819e-06
1.60989e-06
4.63077e-06
3.32314e-06
2.49178e-06
1.43135e-06
1.45771e-06
9.674e-06
1
1
1
1
1
1
1
1
1
1
1
1
1
1
1
1
1
1
1
1
1
1
1
1
1
1
1
0.999998
1
1
1
1
1
1
1
1
1
0.999999
0.999996
1
1
1
1
1
1
1
1
1
0.999987
0.99997
1
1
1
1
1
1
1
1
0.999993
0.999979
1
0.999999
1
1
1
1
1
1
1
1
0.676117
0.728597
0.823251
0.917476
0.981003
1
1
1
1
1
0.038508
0.0532901
0.0715869
0.118691
0.242887
0.4306
0.621312
0.790578
0.895607
0.930381
2.62323e-05
4.01762e-05
2.68893e-05
8.92928e-06
4.37309e-05
2.14916e-06
0.0385529
0.146045
0.247657
0.284635
0.000189307
3.68404e-05
1.43464e-05
2.6848e-06
2.18e-06
1.50678e-06
1.49307e-06
1.47006e-06
1.46476e-06
1.478e-06
0.000190562
3.99399e-06
2.61197e-06
1.91092e-06
1.50687e-06
1.43672e-06
1.43876e-06
1.44388e-06
1.45233e-06
1.46531e-06
0.000189222
1.51629e-06
1.57588e-06
1.81149e-06
1.43671e-06
1.43192e-06
1.43259e-06
1.4424e-06
1.45315e-06
1.4613e-06
0.000171672
1.4958e-06
1.47959e-06
1.82635e-06
1.43209e-06
1.43208e-06
1.43184e-06
1.43259e-06
1.44174e-06
1.47332e-06
0.000161882
1.47859e-06
1.4606e-06
3.15266e-06
1.44724e-06
1.43185e-06
1.43487e-06
1.91657e-06
1.50337e-06
1.69065e-06
0.000157647
0.000121744
2.44226e-05
1.12216e-05
2.10468e-06
1.43214e-06
1.86143e-06
1.11322e-05
1.24097e-05
1.32417e-05
2.72445e-05
4.16748e-05
6.37806e-05
2.16254e-05
2.94312e-06
1.44118e-06
1.43472e-06
6.92116e-06
2.07893e-05
0.00011013
5.01391e-06
5.27221e-06
2.73057e-05
1.35489e-05
1.86546e-06
1.43474e-06
1.43298e-06
1.43028e-06
1.43388e-06
0.000175149
0.000383234
0.000145702
1.63816e-06
3.68636e-06
1.44895e-06
1.43409e-06
1.43273e-06
1.43135e-06
1.43409e-06
9.83168e-05
0.000318414
6.54908e-05
1.57499e-06
1.55222e-06
1.49252e-06
1.44895e-06
1.43409e-06
1.95671e-06
1.66702e-06
5.89156e-05
1
1
1
1
1
1
1
0.999999
1
1
1
1
1
1
1
1
1
0.999995
0.999997
1
1
1
1
1
1
1
0.999999
0.999995
0.999998
1
1
1
1
1
1
1
1
0.999997
0.999983
1
1
1
1
1
1
1
1
0.999999
0.999985
1
1
1
1
1
1
1
1
1
0.999998
1
1
1
1
1
1
1
1
1
1
1
0.760826
0.816973
0.911444
0.978906
1
1
1
1
0.999999
0.999999
0.0845287
0.112131
0.153184
0.255828
0.440472
0.63396
0.805123
0.925131
0.986735
0.998938
2.65228e-05
2.6516e-05
3.38286e-05
6.38146e-05
0.00138611
0.0515214
0.171268
0.347492
0.498512
0.545442
0.000160424
4.95896e-05
4.72126e-06
7.18655e-06
3.6875e-06
1.68795e-06
1.44012e-06
1.44388e-06
1.45229e-06
1.49259e-06
0.000190562
6.2977e-05
1.87892e-06
2.04399e-06
1.67096e-06
1.78764e-06
1.43609e-06
1.44012e-06
1.44384e-06
1.45232e-06
0.000190562
3.54422e-05
1.49792e-06
1.50683e-06
1.44037e-06
1.43275e-06
1.43473e-06
1.43609e-06
1.44861e-06
1.49238e-06
0.000122073
3.27534e-06
1.4606e-06
1.45056e-06
1.43275e-06
1.43182e-06
1.43259e-06
1.44729e-06
1.73938e-06
8.53785e-06
5.49516e-05
1.4606e-06
1.45072e-06
1.43883e-06
1.43467e-06
1.43215e-06
1.43755e-06
1.20434e-05
3.33581e-05
7.79032e-05
0.000153376
7.70471e-05
1.44845e-06
1.4357e-06
1.43486e-06
1.43382e-06
2.55741e-05
5.92961e-05
0.000137508
0.000184827
2.82554e-05
9.22383e-05
6.46977e-05
4.22557e-05
1.12168e-05
1.43485e-06
1.44388e-06
1.7768e-05
0.000173964
0.000183725
3.67548e-05
0.000140359
5.75126e-05
4.86218e-05
2.36519e-05
1.45661e-06
1.43474e-06
1.43388e-06
5.20289e-05
0.000182688
0.000405086
0.000409668
1.248e-05
9.45851e-06
6.75661e-06
1.44236e-06
1.43409e-06
1.7717e-06
2.87454e-05
0.000132986
0.000110293
0.000383946
1.61108e-06
1.70252e-06
1.59013e-06
1.48593e-06
1.44236e-06
3.94973e-05
9.85338e-05
2.17357e-05
1
1
1
1
1
1
1
1
0.999997
1
1
1
1
1
1
1
1
0.999997
0.999992
1
1
1
1
1
1
1
1
0.999997
0.999992
0.999949
1
1
1
1
1
1
1
0.999999
0.999982
0.99987
1
1
1
1
1
1
1
1
0.999977
0.999853
1
1
1
1
1
1
1
1
0.999984
0.999847
1
1
1
1
1
1
1
1
0.999999
0.999963
0.819596
0.865708
0.945804
0.992946
0.999956
1
0.999999
0.999999
0.999998
0.999971
0.146157
0.187447
0.256851
0.403897
0.60803
0.789369
0.918538
0.990763
0.999927
0.999911
2.40236e-05
5.50111e-05
0.000196061
0.00562026
0.0349523
0.142328
0.336915
0.569957
0.744973
0.78011
5.84248e-05
4.33588e-05
1.15782e-05
9.68145e-06
8.0698e-06
1.53046e-06
1.43787e-06
1.45128e-06
0.0266569
0.0348657
0.000186873
8.63356e-05
5.54766e-06
2.93803e-06
1.43277e-05
1.43787e-06
1.43708e-06
1.43785e-06
1.4494e-06
1.49275e-06
8.0719e-05
9.15566e-05
8.30959e-06
1.60411e-06
2.91816e-06
1.43783e-06
1.43609e-06
1.44026e-06
1.53303e-06
1.98448e-06
0.00012108
9.20585e-05
4.09632e-06
1.46239e-06
1.43783e-06
1.43275e-06
1.43767e-06
1.52375e-06
1.09755e-05
8.57e-05
7.89078e-05
2.62756e-05
4.70144e-06
1.45189e-06
1.43883e-06
1.43723e-06
2.1539e-06
2.9095e-05
0.000135597
0.000187911
7.1988e-05
7.22437e-06
6.22182e-06
1.4452e-06
1.4357e-06
2.5e-06
3.83767e-05
0.000117848
0.000186374
0.000187986
1.19217e-05
2.3323e-05
1.62914e-05
9.97217e-06
1.12387e-05
2.10891e-06
1.5615e-06
0.000107532
0.000183963
0.000179976
4.73788e-05
0.000351673
0.000109776
8.88283e-05
2.20178e-05
1.65573e-06
1.47577e-06
5.41319e-05
0.000180386
3.22941e-05
0.000410192
0.000409668
3.75008e-05
2.22318e-05
6.38848e-06
1.54626e-06
3.27248e-05
8.31145e-05
4.37093e-05
2.87444e-06
0.000157886
0.000410031
1.72644e-06
1.95273e-06
1.99933e-06
1.60566e-06
6.45049e-05
7.0296e-05
2.724e-06
2.82368e-06
1
1
1
1
1
1
1
1
0.999984
0.995705
1
1
1
1
1
1
1
1
0.999991
0.995789
1
1
1
1
1
1
1
1
0.999978
0.99579
1
1
1
1
1
1
1
1
0.99996
0.995791
1
1
1
1
1
1
1
1
0.999904
0.995793
1
1
1
1
1
1
1
1
0.99995
0.996613
0.999997
0.999998
1
1
1
1
1
1
0.999997
0.999842
0.84879
0.876954
0.949458
0.994036
0.999996
0.999995
0.999995
0.999998
0.999996
0.999915
0.198659
0.253702
0.343082
0.503309
0.697449
0.854217
0.954596
0.999872
0.999928
0.999868
1.34452e-05
6.04051e-05
0.00249721
0.0134576
0.0611696
0.208836
0.43307
0.691634
0.842142
0.86692
3.98844e-06
1.13208e-05
1.34594e-05
7.56203e-06
7.32249e-06
1.51903e-06
1.43956e-06
0.0162752
0.0664462
0.0733838
3.85962e-05
3.36234e-05
6.78478e-06
8.33526e-06
1.29162e-05
1.43965e-06
1.43773e-06
1.43965e-06
1.47791e-06
1.69402e-06
4.30795e-05
6.12988e-05
1.08474e-05
1.65012e-06
2.11667e-06
1.44241e-06
1.43886e-06
1.45592e-06
1.67203e-06
4.96445e-06
0.000112607
0.000154975
1.30167e-05
1.4966e-06
1.46667e-06
1.43783e-06
1.45586e-06
1.92263e-06
2.16601e-05
0.000123065
0.000308675
0.000250622
9.33837e-06
1.47288e-06
1.45189e-06
1.46667e-06
1.50054e-05
8.64964e-05
0.000160764
0.000189871
1.63035e-05
5.80593e-05
1.1972e-05
1.46545e-06
1.4452e-06
3.77172e-06
4.32331e-05
0.000180967
0.000183963
0.000156381
9.2292e-06
6.43298e-06
5.97337e-06
1.48006e-06
2.02106e-06
1.67983e-06
1.66343e-06
0.000157412
0.000155882
1.2979e-05
2.36461e-05
0.000123794
1.06837e-05
1.9997e-05
1.2115e-05
1.81408e-06
7.15323e-06
2.99233e-05
4.25907e-06
2.86506e-06
0.000408906
0.00041
0.000280103
4.04279e-05
2.20435e-06
1.84223e-05
3.67307e-05
5.81901e-06
3.12752e-06
2.82303e-06
0.000148959
0.000408906
0.000171534
2.28109e-06
2.0712e-06
7.51485e-05
3.15094e-05
2.71746e-06
2.71976e-06
2.72411e-06
1
1
1
1
1
1
1
1
0.999973
0.995609
1
1
1
1
1
1
1
1
0.999991
0.996166
1
1
1
1
1
1
1
0.999999
0.999997
0.997864
1
1
1
1
1
1
1
0.999998
0.999998
0.998281
1
1
1
1
0.999996
0.999997
1
0.999999
0.999999
0.998215
1
1
1
1
0.999997
0.999998
1
1
1
0.99895
0.999993
0.999996
1
1
0.999999
0.999998
1
1
0.999998
0.999915
0.856454
0.86675
0.934033
0.983156
0.99997
0.999976
0.999985
0.999996
0.999997
0.99994
0.217226
0.2777
0.36884
0.504582
0.672438
0.822
0.94994
0.999777
0.999887
0.999864
3.6695e-06
8.70874e-06
2.90604e-05
0.00775874
0.06613
0.19833
0.407027
0.677461
0.818443
0.844352
2.43212e-06
3.03419e-06
4.82248e-06
5.5448e-06
3.05044e-06
1.51562e-06
1.62881e-06
0.00261094
0.0493309
0.0547705
2.80192e-06
1.89755e-06
2.62954e-06
1.13926e-05
3.80341e-06
1.47917e-06
1.43965e-06
1.47791e-06
1.69402e-06
2.54591e-06
2.17419e-05
6.33699e-06
2.72066e-06
3.15478e-06
1.84394e-06
2.07055e-06
5.8828e-06
1.31071e-05
1.84438e-05
1.06775e-05
7.04459e-06
1.70217e-06
2.65155e-06
1.51476e-06
1.53605e-06
3.58727e-06
3.22238e-05
7.11823e-05
9.68009e-05
0.000147394
0.00030857
0.000161341
2.00447e-06
1.49095e-06
1.47718e-06
1.53935e-06
3.35767e-05
0.000132581
0.00013425
0.000197985
0.000272844
0.000271449
1.54976e-05
1.48007e-06
1.47344e-06
3.98044e-06
7.88026e-05
0.000176083
0.000180089
4.99597e-05
4.41448e-05
5.99135e-05
1.15059e-05
1.49095e-06
1.5205e-06
1.5562e-06
1.97687e-05
0.000111041
4.52846e-05
2.86647e-06
0.000264925
3.21068e-06
2.03478e-06
1.56222e-06
1.5562e-06
1.6295e-06
2.10903e-05
3.02285e-06
2.74439e-06
2.81094e-06
0.000278267
0.00028904
0.000230712
1.67852e-05
1.73766e-06
5.96948e-05
3.80836e-05
2.71746e-06
2.72384e-06
2.74439e-06
4.11755e-05
0.000406854
0.000402841
0.000150707
7.25149e-05
0.000179338
3.08801e-05
2.71746e-06
2.71441e-06
3.80852e-06
1
1
1
1
1
1
1
1
1
1
1
1
1
1
1
1
1
0.999998
0.999992
1
1
1
1
1
1
1
1
0.999989
0.999989
1
1
1
1
1
0.999999
1
1
0.999991
0.999989
1
1
1
1
0.999999
0.999996
0.999996
1
0.999999
0.999999
1
1
1
1
1
0.999997
0.999998
1
1
1
1
0.999992
0.999995
1
1
0.999999
0.999999
1
1
1
1
0.839519
0.831017
0.889678
0.955775
0.993306
0.999963
0.999969
0.99999
0.999994
0.999996
0.186669
0.235141
0.299445
0.395846
0.542482
0.720746
0.88544
0.992111
0.999746
0.999804
2.43212e-06
3.6118e-06
3.30788e-05
6.26034e-06
0.0302541
0.118507
0.276571
0.48555
0.655094
0.69326
2.15965e-06
1.89756e-06
6.20634e-05
6.02188e-06
4.0704e-06
1.81386e-06
4.34893e-06
8.16744e-06
7.38453e-06
4.63674e-06
2.12017e-06
1.73479e-06
6.35174e-06
1.94151e-05
1.90597e-05
1.51562e-06
1.62889e-06
2.28586e-06
2.78556e-06
3.77837e-06
2.35839e-06
1.70217e-06
2.66258e-06
1.95328e-05
6.38018e-06
1.05564e-05
8.59039e-05
0.000140904
9.6343e-05
1.17658e-05
1.70217e-06
1.69377e-06
1.68759e-06
2.81568e-06
1.65361e-06
5.9434e-06
0.000138653
0.000223277
0.000224996
0.000177396
6.613e-05
1.6877e-06
1.61018e-06
1.51475e-06
1.53935e-06
1.68813e-06
2.55952e-05
0.000114932
0.000185713
0.000205636
0.000317184
0.000206709
3.18961e-06
1.49095e-06
1.51862e-06
3.7841e-06
0.000126991
0.000171079
9.7927e-05
4.03502e-05
0.000325522
0.00030855
4.3099e-05
1.52152e-06
1.55433e-06
1.57559e-06
5.2659e-05
0.000134637
6.3133e-05
1.39066e-05
0.00033013
5.85827e-05
1.84631e-05
1.60083e-06
1.57559e-06
1.62209e-06
3.66923e-06
2.79036e-06
2.76682e-06
2.79036e-06
0.000142763
3.41676e-05
1.49496e-05
1.78416e-06
1.62209e-06
4.57317e-05
1.7448e-05
2.74627e-06
2.74439e-06
2.76676e-06
1.20548e-05
0.000164329
0.000332055
0.000283047
0.000265624
0.00023364
2.67962e-05
2.71746e-06
2.72384e-06
2.75952e-06
1
1
1
1
1
1
1
1
1
1
1
1
1
1
1
1
1
0.999995
0.999993
0.999999
1
1
1
1
1
1
1
0.999991
0.999989
0.999997
1
1
1
1
1
1
1
0.999997
0.999995
0.999998
1
1
1
1
0.999999
1
1
1
1
1
1
1
1
1
1
1
1
1
1
1
0.999992
0.999993
1
1
1
1
1
1
1
1
0.789104
0.787087
0.851988
0.937085
0.987192
0.999052
0.999971
0.999971
0.999986
0.99999
0.127155
0.159769
0.203369
0.284393
0.41743
0.584001
0.765684
0.90866
0.982889
0.988763
4.52933e-06
6.01913e-06
6.72337e-06
6.02243e-06
6.02243e-06
0.0417938
0.146053
0.286648
0.3965
0.42851
4.67231e-05
4.34648e-05
5.21606e-06
5.8749e-06
6.02177e-06
4.0704e-06
6.02881e-06
1.14846e-05
9.70892e-06
5.85857e-06
3.75547e-05
3.75565e-05
3.02099e-06
6.26674e-06
9.60112e-06
1.42563e-05
1.9228e-05
1.82147e-05
5.23984e-06
4.63674e-06
3.09775e-06
4.38508e-06
2.92789e-06
3.7641e-06
3.85083e-06
6.06783e-05
0.000215332
0.000222748
0.000127484
5.10378e-05
1.71352e-06
1.70217e-06
1.69536e-06
1.72499e-06
1.99013e-06
2.79281e-05
0.000168248
0.000224996
0.000224996
0.000224996
1.71471e-06
1.69537e-06
1.68767e-06
1.62055e-06
1.66699e-06
2.61212e-06
1.89084e-05
3.55022e-05
0.000220572
0.000182984
0.000193739
3.45542e-05
1.62362e-06
1.52152e-06
1.61104e-06
6.3628e-05
0.000179232
0.000166882
4.98789e-05
2.61154e-05
0.000330142
0.000326562
3.36188e-05
1.62379e-06
1.89968e-06
6.29619e-06
0.000172412
0.000170539
0.000138123
9.17657e-05
0.000329715
0.000329715
5.69496e-05
1.66087e-06
1.62209e-06
1.67601e-06
1.8234e-06
3.83572e-05
8.95863e-05
0.000112228
0.000128808
6.26223e-05
2.21294e-06
1.7344e-06
1.7159e-06
1.0251e-05
2.21531e-06
2.87222e-06
2.76682e-06
0.000106204
4.62504e-05
1.96312e-05
5.62353e-05
7.55331e-05
0.000221897
0.00012906
3.68774e-06
2.87131e-06
2.75956e-06
6.74619e-05
1
1
1
1
1
1
1
1
1
1
1
1
1
1
1
1
1
1
1
1
1
1
1
1
1
1
1
1
1
1
1
1
1
1
1
1
1
0.999999
0.999998
0.999999
1
1
1
1
1
1
1
1
1
1
1
1
1
1
1
1
1
1
0.999998
1
0.999991
0.999993
0.999999
1
1
1
1
1
0.999998
1
0.701335
0.726362
0.809141
0.90562
0.974633
0.998858
0.999497
0.999977
0.999969
0.999977
0.0595717
0.0760321
0.101582
0.163443
0.276125
0.430556
0.593327
0.755752
0.868695
0.915735
5.85311e-06
5.82788e-06
7.28382e-06
1.17859e-05
6.64064e-06
7.00377e-06
0.0325919
0.12179
0.19111
0.215047
4.86817e-05
3.21289e-05
6.42215e-06
6.02254e-06
6.18025e-06
6.02881e-06
7.00374e-06
8.34333e-06
6.84834e-06
6.27234e-06
4.8567e-05
4.19337e-05
5.47836e-06
5.48348e-06
7.26646e-06
2.9074e-05
8.30689e-05
6.21469e-05
6.27233e-06
5.60353e-06
2.56453e-05
4.10317e-05
3.03887e-05
4.37064e-06
1.33454e-05
0.000156967
0.000220511
0.000222299
0.000137484
4.0181e-05
7.60919e-06
4.16734e-05
2.8231e-05
4.06357e-06
1.94669e-05
6.93937e-05
0.000128978
0.000224536
0.000224996
0.000224536
2.38345e-06
5.5115e-06
9.21804e-06
4.93638e-06
8.75851e-06
4.3999e-06
7.51715e-06
9.81594e-05
0.000223968
2.83622e-05
3.06128e-06
2.30177e-06
1.71548e-06
1.64552e-06
8.55418e-06
6.86646e-05
0.000152217
7.8239e-05
0.000137886
2.06094e-05
0.000191111
0.000192466
2.00247e-06
1.67165e-06
2.23385e-05
0.000189633
0.000189633
0.000104114
0.000100766
0.000111865
0.000212489
0.000315115
5.55697e-05
2.00247e-06
6.46592e-06
1.25766e-05
0.000120368
0.000146792
7.87045e-05
0.000216937
4.83976e-05
0.000236097
0.000170787
7.83938e-06
1.78943e-06
2.43323e-06
6.1946e-05
6.58877e-05
5.97841e-05
0.000224134
1.64634e-05
2.27813e-05
5.53686e-05
1.17179e-05
1.88961e-05
4.45554e-05
3.88815e-05
4.47448e-06
1.44023e-05
0.000226988
1
1
1
1
1
1
1
1
1
1
1
1
0.999999
0.999999
1
1
1
1
1
1
1
1
0.999994
0.999989
0.999999
1
1
1
1
1
1
1
1
1
1
1
1
0.999997
0.999995
1
1
1
1
1
1
1
1
1
0.999924
0.999901
1
1
1
1
1
1
1
1
0.999963
0.999881
0.99964
0.999997
1
1
1
1
1
1
0.999998
0.999982
0.596022
0.628566
0.704124
0.7955
0.900582
0.972165
0.99931
0.999502
0.999985
0.999966
0.0103995
0.0226246
0.0372608
0.0628436
0.124442
0.243068
0.402606
0.564755
0.696732
0.765547
5.82792e-06
5.85309e-06
5.85311e-06
1.03659e-05
1.58815e-05
1.08087e-05
1.01066e-05
8.34321e-06
0.0327849
0.0490032
4.8566e-05
5.86701e-06
1.18575e-05
2.47093e-05
1.47991e-05
9.35349e-06
8.34333e-06
6.88603e-06
6.36712e-06
6.37931e-06
3.37318e-05
1.22029e-05
7.1762e-06
8.8989e-06
3.31621e-05
3.33695e-05
3.12989e-05
3.81755e-05
1.404e-05
1.6092e-05
1.63842e-05
3.76759e-05
1.53756e-05
3.22731e-05
0.000104369
0.000194729
0.000211761
0.000217919
0.000153138
3.15724e-05
9.71322e-06
5.34564e-05
6.14046e-05
7.07139e-05
0.000111432
0.000177912
0.000196998
0.000220608
0.000224536
0.000166687
3.1905e-06
3.19488e-05
4.15227e-05
1.50589e-05
2.05482e-05
3.06727e-05
0.00012093
0.000216821
3.83146e-05
6.73697e-06
3.70248e-06
3.57262e-06
3.25559e-06
2.17545e-06
2.87376e-06
3.65344e-06
5.27208e-05
0.000141938
0.000153827
5.34061e-06
4.84178e-06
3.2039e-06
2.62412e-06
2.00247e-06
2.92346e-05
0.000135995
0.000158192
0.000125147
0.000205011
5.53011e-06
5.58159e-06
0.000251691
8.14976e-05
2.93047e-06
1.22583e-05
0.000198206
0.000208864
0.000137156
0.00022475
4.10375e-05
6.76556e-06
0.000236979
0.000223878
3.48398e-05
2.43323e-06
0.000114648
0.000219722
0.00012009
0.000227495
0.000227
1.39064e-05
2.72048e-05
8.29158e-05
3.33413e-05
4.16316e-06
0.00013978
0.000220963
0.000121734
0.000228155
0.000227484
1
1
0.999999
0.999999
1
1
1
1
1
1
1
0.999999
0.999968
0.999963
0.999989
1
1
1
1
1
1
0.999998
0.99995
0.999949
0.999975
1
1
1
1
1
1
0.999999
0.999986
0.999983
0.999994
1
1
0.999997
0.999999
1
1
1
1
1
1
1
1
1
0.999851
0.999746
1
1
1
1
1
1
1
1
0.999936
0.999745
0.990986
0.992817
0.996747
0.999408
1
1
1
1
1
0.999959
0.455614
0.481754
0.533688
0.613449
0.734167
0.853492
0.945836
0.989125
0.998424
0.999457
3.98175e-05
0.00170541
0.00901013
0.0217997
0.0440343
0.0954986
0.202698
0.34224
0.483579
0.563639
5.85258e-06
5.85309e-06
1.03658e-05
2.92351e-05
2.93054e-05
2.27146e-05
2.10931e-05
8.79056e-06
6.39026e-06
6.37746e-06
8.56396e-06
6.03469e-06
1.13552e-05
1.95152e-05
2.28272e-05
2.50369e-05
2.12108e-05
6.3903e-06
6.21483e-06
6.06755e-06
5.34768e-06
6.27924e-06
6.74412e-06
1.05693e-05
4.77016e-05
0.000131516
2.57687e-05
7.24965e-06
7.01659e-06
1.77295e-05
4.64937e-06
1.03717e-05
6.3979e-06
2.92427e-05
0.000164266
0.000188557
4.97851e-05
4.21227e-05
0.000146847
6.77503e-05
4.01365e-06
9.98385e-06
7.88801e-06
2.35497e-05
8.21401e-05
0.000193749
0.000253331
0.000145667
8.85159e-05
6.81294e-05
3.70248e-06
4.90941e-06
1.6045e-05
5.08893e-06
3.37276e-06
4.732e-05
0.000254069
0.000128531
6.63239e-06
1.47306e-05
4.05019e-06
3.49928e-06
3.92437e-06
2.54152e-06
2.70796e-06
4.12538e-06
0.000104603
0.000219272
1.55231e-05
1.37168e-05
3.49928e-06
2.7244e-06
2.54152e-06
2.44124e-06
3.08331e-06
9.72572e-06
8.65458e-05
0.000225711
7.5548e-05
5.97943e-06
4.40231e-06
2.4941e-05
1.50424e-05
2.54152e-06
3.6602e-06
7.0842e-05
0.00013876
0.000226339
0.00018921
7.01458e-06
3.03972e-05
3.36283e-05
7.51745e-05
1.85477e-05
3.6825e-06
5.19631e-05
0.000225299
0.000227495
0.000228155
0.000225074
0.000217358
0.000150042
0.000182182
8.14084e-05
4.81624e-06
0.000146621
0.000226051
0.000228155
0.000228331
0.000228155
1
1
0.999995
0.999989
0.999999
1
1
1
1
1
1
1
0.999953
0.999949
0.999968
1
1
1
1
1
1
0.999997
0.99995
0.999949
0.99995
0.999996
1
1
1
0.999997
1
0.999998
0.999985
0.999971
0.999993
1
1
1
0.999993
1
1
1
1
1
1
1
1
1
0.999976
0.999866
1
1
1
1
1
1
1
1
0.999992
0.999795
0.978346
0.974731
0.982925
0.992106
0.998096
1
1
1
1
1
0.339813
0.352979
0.383455
0.441716
0.53733
0.663928
0.797173
0.902262
0.955041
0.98013
7.95546e-05
0.000132332
0.000808467
0.00545446
0.0190439
0.0402708
0.0819866
0.162986
0.264387
0.334745
1.05946e-05
1.67431e-05
4.26092e-05
8.48473e-05
3.47999e-05
3.92811e-05
4.08792e-05
2.49567e-05
6.21446e-06
6.06592e-06
5.77696e-06
6.27924e-06
1.0179e-05
5.12688e-05
1.48713e-05
4.06611e-05
0.000253412
9.09959e-05
5.93913e-06
5.88221e-06
5.77706e-06
5.75276e-06
6.1071e-06
6.19331e-05
8.80179e-06
4.65965e-05
0.000235344
1.72318e-05
5.88221e-06
5.73053e-06
6.14139e-05
6.03243e-06
6.3979e-06
2.56347e-05
3.4149e-06
5.76925e-05
0.000139636
8.78883e-05
0.000136117
3.04866e-05
0.000100168
4.1349e-05
6.57375e-06
3.86601e-06
3.07891e-06
5.19841e-05
0.000258758
0.000154698
4.78916e-05
1.70411e-05
0.000120069
9.48522e-05
9.40831e-06
3.1013e-06
2.81635e-06
3.7257e-05
0.000206672
2.04011e-05
5.37588e-06
4.83582e-06
0.000129947
5.93097e-05
3.16558e-06
2.70573e-06
2.6569e-06
1.45963e-05
9.91546e-05
1.8125e-05
2.0817e-05
7.55396e-05
0.000159653
5.7468e-05
2.70573e-06
2.54152e-06
2.59921e-06
3.75084e-06
0.000101772
0.000159946
0.000102633
7.93773e-05
0.000219621
0.000161048