/*--------------------------------*- C++ -*----------------------------------*\
| =========                 |                                                 |
| \\      /  F ield         | OpenFOAM: The Open Source CFD Toolbox           |
|  \\    /   O peration     | Version:  2312                                  |
|   \\  /    A nd           | Website:  www.openfoam.com                      |
|    \\/     M anipulation  |                                                 |
\*---------------------------------------------------------------------------*/
FoamFile
{
    version     2.0;
    format      ascii;
    arch        "LSB;label=32;scalar=64";
    class       volVectorField;
    location    "1.425";
    object      U;
}
// * * * * * * * * * * * * * * * * * * * * * * * * * * * * * * * * * * * * * //

dimensions      [0 1 -1 0 0 0 0];

internalField   nonuniform List<vector> 
8000
(
(-0.000828669 0.00158938 -0.00125678)
(-0.0011868 0.0036385 -0.00356846)
(-0.000902979 0.00591645 -0.0061574)
(-0.000809607 0.0059964 -0.00581063)
(-0.000989728 0.00418451 -0.00315235)
(-0.00257048 0.00276861 -0.00165654)
(-0.00490428 0.00230129 -0.00154738)
(-0.00692621 0.00202026 -0.00180097)
(-0.0081154 0.001596 -0.00200302)
(-0.00736492 0.000681362 -0.00221018)
(0.000888383 0.00433755 -0.00106909)
(0.00358113 0.00590359 -0.0021377)
(0.00095011 0.0124892 -0.00535747)
(-0.00301148 0.0155854 -0.00495845)
(-0.00519884 0.0139415 -0.00325725)
(-0.00647986 0.0104875 -0.00226733)
(-0.00804377 0.00797366 -0.00217243)
(-0.00957458 0.00618043 -0.00230595)
(-0.0108066 0.00380839 -0.00180135)
(-0.00861444 0.00163837 -0.000866601)
(0.00145578 -0.000375969 0.0033723)
(0.00690523 -0.00359004 0.00567657)
(0.00619734 0.0127403 0.000384313)
(-0.0036893 0.0190284 -0.00140137)
(-0.00998777 0.0187201 -0.00112737)
(-0.0113695 0.0162015 -0.00178219)
(-0.0118847 0.0132334 -0.00201607)
(-0.0141698 0.0110678 -0.00116034)
(-0.0146053 0.0055415 0.00121789)
(-0.00924896 -0.0046189 0.00135128)
(-0.00085136 -0.0151119 0.00863243)
(0.0024036 -0.0240447 0.00827893)
(0.00540006 0.0052923 0.00631228)
(-0.00398418 0.0189495 0.0027947)
(-0.0119528 0.0190633 0.00143571)
(-0.0146943 0.0186785 -0.000168678)
(-0.0163959 0.0184889 -0.000607339)
(-0.0171199 0.0130832 0.00082219)
(-0.011832 -0.0036303 0.00170318)
(-0.00980297 -0.0148197 -0.000544809)
(-0.000745464 -0.0201604 0.00362825)
(-0.00224561 -0.0265522 -0.00199901)
(-0.00163818 -0.000628354 0.00512872)
(-0.00746961 0.0160465 0.00591658)
(-0.0123221 0.0170072 0.0037519)
(-0.0145746 0.0183866 0.00167999)
(-0.0144281 0.0171975 0.00110453)
(-0.0101653 0.00607 0.00131819)
(-0.00805985 -0.0081434 -0.00103313)
(-0.0118109 -0.0131704 -0.00422273)
(-0.00134464 -0.00209976 -0.006595)
(-0.00855071 -0.00290544 -0.0116591)
(-0.0108065 0.0082693 -0.000435913)
(-0.0114723 0.0177447 0.00560322)
(-0.0141027 0.0170573 0.00506268)
(-0.0147804 0.0149464 0.00338118)
(-0.012857 0.00970099 0.00220433)
(-0.0105036 0.00114297 0.00044386)
(-0.0135529 -0.00493137 -0.00418828)
(-0.0154682 -0.00746517 -0.00903625)
(-0.00318902 0.00933009 -0.0128523)
(-0.0119096 0.0110209 -0.0145022)
(-0.0187173 0.0111829 -0.00457841)
(-0.0233224 0.0119807 0.00265744)
(-0.0284456 0.011465 0.00365083)
(-0.0299505 0.0116574 0.00235451)
(-0.028289 0.012082 -0.000599356)
(-0.0280648 0.0127937 -0.00485562)
(-0.0272106 0.0135451 -0.0109182)
(-0.0222805 0.0130485 -0.014972)
(0.00470258 0.0434893 -0.0241029)
(0.00988295 0.0445724 -0.0192185)
(0.00199525 0.0394051 -0.00152027)
(-0.0207409 0.0318944 0.00864882)
(-0.0391357 0.0233852 0.00797156)
(-0.0456731 0.016687 0.00302594)
(-0.0475447 0.0135277 -0.00199389)
(-0.0426006 0.014057 -0.00675811)
(-0.0415577 0.0164662 -0.0109152)
(-0.0402878 0.0165525 -0.0143879)
(0.00323435 0.0746427 -0.036342)
(0.0197661 0.0801338 -0.0406894)
(0.0260659 0.100472 -0.0357682)
(-0.0331757 0.110561 -0.00800138)
(-0.172737 0.0929563 -0.00417132)
(-0.302848 0.065527 -0.0391923)
(-0.269579 0.0490975 -0.0436133)
(-0.189946 0.0423424 -0.0192217)
(-0.140632 0.0445495 -0.00927945)
(-0.119371 0.046437 -0.0104521)
(0.0209296 0.0491354 -0.0337522)
(0.0752021 0.0226405 -0.00882365)
(0.115163 0.112776 0.00236943)
(0.0978609 0.205245 0.0220385)
(0.0411526 0.250464 0.0361673)
(-0.0450545 0.243178 0.0329965)
(-0.114061 0.156393 0.0325352)
(-0.132093 0.01731 0.00811422)
(-0.161012 0.0399699 -0.0663006)
(-0.107418 0.0735983 -0.0801506)
(0.0133917 -0.0156837 -0.0360057)
(0.0573525 -0.0844868 0.00917685)
(0.06369 0.0658748 0.0379598)
(0.0552192 0.179953 0.0339331)
(0.0577044 0.245126 0.0289314)
(0.0290916 0.245894 0.0358667)
(-0.0421121 0.172001 0.0522051)
(-0.140065 0.103329 0.0160063)
(-0.181344 0.103268 -0.0378142)
(-0.136289 0.0901904 -0.0540769)
(-0.00852073 -0.0298475 -0.0543813)
(0.0248867 -0.102248 -0.00194295)
(-0.00698372 0.0797183 0.0207468)
(0.00237479 0.147147 0.00737557)
(0.0210159 0.195577 0.00657119)
(0.0109582 0.202271 0.026596)
(-0.035089 0.143488 0.0510126)
(-0.103239 0.089395 0.0356076)
(-0.127067 0.0442416 0.0206473)
(-0.105109 -0.0121255 0.0295827)
(-0.0189694 0.000154862 -0.0628007)
(0.00987174 -0.107424 -0.0177225)
(-0.022175 0.0601206 0.0255097)
(0.00940654 0.107979 0.00882318)
(0.0185661 0.14549 0.00803154)
(0.0160132 0.15947 0.0254087)
(-0.0246712 0.0995478 0.0480605)
(-0.0773566 0.0237772 0.0480148)
(-0.108453 -0.0585636 0.0501259)
(-0.138287 -0.110178 0.0407127)
(-0.01131 0.0331959 -0.057396)
(0.0203129 -0.114791 -0.0165759)
(-0.00252599 0.00607862 0.0343026)
(0.0202778 0.0763769 0.0289856)
(-0.00884577 0.106742 0.0270638)
(-0.0266933 0.116308 0.0308722)
(-0.0860601 0.0470782 0.0378903)
(-0.129862 -0.0404719 0.045368)
(-0.169834 -0.0956164 0.033815)
(-0.191676 -0.118584 0.00110534)
(0.00624734 0.0531221 -0.0176627)
(0.0468787 -0.127963 0.00816525)
(0.0370915 -0.0776509 0.0237262)
(0.00804467 0.0657704 0.0371751)
(-0.069249 0.0999219 0.0223383)
(-0.0965274 0.092984 0.0193853)
(-0.13486 0.00597197 0.0373834)
(-0.178589 -0.0649431 0.0390795)
(-0.205697 -0.0855686 -0.00221808)
(-0.180745 -0.0907492 -0.0307594)
(0.0351135 -0.0237178 0.035167)
(0.0694855 -0.1678 0.0125112)
(0.0531747 -0.123013 0.0013139)
(-0.00525227 0.0720822 0.0308321)
(-0.0954345 0.104869 0.0119534)
(-0.121059 0.0672157 0.0157326)
(-0.16213 -0.021554 0.0430733)
(-0.221506 -0.0560152 0.0173157)
(-0.216641 -0.0614063 -0.0306985)
(-0.179728 -0.0730211 -0.0400705)
(0.0370998 -0.129989 -0.0136025)
(0.0625682 -0.188424 -0.030883)
(0.0347903 -0.114409 -0.0279051)
(-0.00340537 0.0716946 0.0146409)
(-0.0412496 0.107234 0.0213646)
(-0.0850044 0.0676988 0.030436)
(-0.170492 -0.0108737 0.0485376)
(-0.249973 -0.0302476 0.00477238)
(-0.230547 -0.0420018 -0.0374822)
(-0.195195 -0.0558654 -0.0432397)
(0.0377791 -0.145165 -0.0524297)
(0.0375205 -0.140376 -0.0559051)
(-0.0065291 -0.0567272 -0.0369902)
(-0.0125784 0.0567425 0.000543937)
(0.00809604 0.0609586 0.0223471)
(-0.0226513 0.080084 0.041149)
(-0.153953 0.0207136 0.0539338)
(-0.254635 0.00198732 0.0101231)
(-0.245026 -0.0200862 -0.0323098)
(-0.212985 -0.0344306 -0.0473909)
(0.0362867 -0.122868 -0.0605053)
(0.00486194 -0.07321 -0.0527254)
(-0.046516 -0.014879 -0.0153885)
(-0.0520125 -0.0118562 0.0104457)
(-0.0287537 -0.00348515 0.0176157)
(-0.0278889 0.0621583 0.0434774)
(-0.153739 0.0477827 0.0544398)
(-0.248881 0.0320105 0.0186014)
(-0.254793 0.00833984 -0.0266994)
(-0.224296 -0.00556134 -0.0509616)
(0.0279133 -0.071565 -0.0565609)
(-0.016982 0.00599558 -0.0371539)
(-0.0856118 0.00579411 0.00171241)
(-0.10368 -0.0607315 0.00634174)
(-0.088569 -0.0550193 0.0106101)
(-0.072079 0.0253598 0.0395048)
(-0.143955 0.0554864 0.0561777)
(-0.232268 0.0501496 0.0361523)
(-0.260332 0.0400018 -0.00969724)
(-0.231369 0.0276447 -0.0468435)
(-0.00306214 0.00279583 -0.00277032)
(-0.00204254 0.00264789 -0.00636978)
(0.00292986 -0.00024515 -0.0137606)
(0.00511598 0.00111 -0.017683)
(0.0052218 0.002912 -0.0140525)
(0.00343659 0.00251983 -0.00761632)
(0.000935475 0.00184319 -0.00408271)
(-0.00159393 0.00160436 -0.00301775)
(-0.00413128 0.00153548 -0.00271788)
(-0.00560287 0.00088846 -0.00282945)
(-0.000855887 0.00435926 6.17475e-05)
(0.0123408 -0.0118382 0.00931788)
(0.0180941 -0.00889183 0.00726477)
(0.0126555 0.00133405 -0.00017623)
(0.00536477 0.00833563 -0.00805842)
(0.00142378 0.00953163 -0.00860728)
(-0.00141656 0.00713389 -0.00550383)
(-0.00365155 0.00477995 -0.003575)
(-0.00618813 0.0028345 -0.00253555)
(-0.00701843 0.000289791 -0.000655756)
(0.00633387 -0.0050155 0.00878539)
(0.0127617 -0.0334748 0.016943)
(0.0159758 -0.0222715 0.0168651)
(0.00773256 -0.00195175 0.0134235)
(-0.00227124 0.0100529 0.00495152)
(-0.00444039 0.0140241 -0.00356787)
(-0.0043307 0.0117951 -0.00524618)
(-0.00583528 0.00825056 -0.00291743)
(-0.0100491 0.00658714 0.00116209)
(-0.00889558 -0.0010651 0.00565948)
(0.00623727 -0.0179003 0.00929325)
(0.00542386 -0.0406731 0.00675603)
(0.00324603 -0.0240672 0.0136467)
(-0.00436217 -0.00218237 0.0157197)
(-0.0113053 0.00736229 0.0111762)
(-0.0111469 0.012765 0.00343215)
(-0.00922784 0.0143772 -0.000527202)
(-0.00974507 0.0141684 0.000953378)
(-0.00961702 0.00643722 0.00567282)
(-0.00407807 -0.0113363 0.00622717)
(0.00600597 -0.0127527 -0.00842528)
(0.00193656 -0.0250639 -0.0141162)
(-0.0062887 -0.0180423 9.52745e-05)
(-0.00766707 -0.00678071 0.00905398)
(-0.00918666 -0.000921233 0.00891027)
(-0.00929168 0.00683943 0.00618199)
(-0.00724464 0.0128819 0.00383211)
(-0.00252465 0.0109757 0.00321903)
(0.00306028 0.00078939 0.00204006)
(0.00325693 -0.00868926 -0.00111461)
(0.00473978 0.00378444 -0.0242292)
(-0.00412273 -0.00125636 -0.0269184)
(-0.014427 0.00254106 -0.016313)
(-0.0126371 0.00157496 -0.0060017)
(-0.0110252 0.000691188 -0.00226693)
(-0.00790604 0.00155637 -0.00130443)
(-0.00265709 0.00170359 -0.00172332)
(0.00390116 -0.000442881 -0.00465058)
(0.00569993 -0.00262495 -0.00968965)
(0.00139892 -0.00326633 -0.0139147)
(-0.00416688 0.00831535 -0.0265164)
(-0.0204572 0.0113471 -0.0269905)
(-0.0279122 0.0120603 -0.0220673)
(-0.026847 0.00760302 -0.0146681)
(-0.0263198 0.00500986 -0.0119577)
(-0.0218834 0.0056901 -0.0132539)
(-0.0161733 0.00882073 -0.0155544)
(-0.0118944 0.0130731 -0.0194374)
(-0.00949162 0.016203 -0.0240814)
(-0.00952075 0.0175564 -0.0258245)
(-0.00748863 0.0405301 -0.0275939)
(-0.0237328 0.0413399 -0.0127202)
(-0.0329325 0.0365879 -0.00521176)
(-0.0433033 0.0301444 -0.00568789)
(-0.0514701 0.022065 -0.012803)
(-0.0567923 0.0152909 -0.0191952)
(-0.0539838 0.0115826 -0.024048)
(-0.0421819 0.0113361 -0.0249192)
(-0.0359061 0.0129121 -0.0275861)
(-0.0318838 0.0141341 -0.0288237)
(0.00334672 0.0714195 -0.0242697)
(-0.0118941 0.0912158 -0.010893)
(-0.132887 0.113115 -0.031379)
(-0.248784 0.108246 -0.0815974)
(-0.325829 0.086549 -0.141852)
(-0.324122 0.0556765 -0.171843)
(-0.265662 0.0387331 -0.158606)
(-0.193293 0.0347506 -0.117863)
(-0.138908 0.0373085 -0.0877387)
(-0.106677 0.0366796 -0.0732725)
(-0.0211041 -0.0458633 0.0352543)
(0.0527704 0.0777916 0.0752712)
(0.0353908 0.195632 0.0519226)
(-0.0147579 0.258488 0.0350282)
(-0.0837641 0.262557 0.0267351)
(-0.15927 0.187965 0.0302615)
(-0.214962 0.0765403 -0.00160971)
(-0.21552 0.0315345 -0.038753)
(-0.160509 0.0842583 -0.0943681)
(-0.0988446 0.106242 -0.120296)
(-0.0691811 -0.0676466 0.0398664)
(-0.0348438 0.0413591 0.0619196)
(-0.0133627 0.191155 0.0408298)
(0.00884882 0.282623 0.044189)
(-0.0171223 0.307604 0.0553818)
(-0.0954451 0.250236 0.079489)
(-0.172933 0.130548 0.0793137)
(-0.223327 0.0335702 0.0768715)
(-0.222678 0.00787238 0.0869049)
(-0.179881 0.0089353 0.0796376)
(-0.0900784 -0.0432573 0.0143463)
(-0.0922171 0.0475588 0.021188)
(-0.0945624 0.168473 0.000212106)
(-0.0806393 0.247431 0.0235707)
(-0.0879219 0.278645 0.0587484)
(-0.119645 0.230878 0.0936523)
(-0.154091 0.120029 0.119947)
(-0.193218 0.0155361 0.13076)
(-0.210284 -0.0487295 0.129372)
(-0.192813 -0.0754754 0.112077)
(-0.0858258 -0.0102988 0.00127182)
(-0.0922338 0.0186963 0.0384245)
(-0.086703 0.133246 0.0218511)
(-0.0834277 0.201832 0.0204002)
(-0.100827 0.221998 0.0643972)
(-0.106559 0.180514 0.109924)
(-0.131151 0.0761642 0.145642)
(-0.178282 -0.0343147 0.150715)
(-0.200071 -0.0902207 0.124219)
(-0.195826 -0.09371 0.0786544)
(-0.0676891 0.0145142 -0.0101417)
(-0.0550514 -0.0291995 0.0574896)
(-0.0605363 0.0791643 0.0797363)
(-0.0388938 0.15844 0.0474351)
(-0.0673373 0.178142 0.0696505)
(-0.10982 0.130028 0.114938)
(-0.175673 0.0166127 0.135008)
(-0.211095 -0.0721273 0.110321)
(-0.205236 -0.0807649 0.0522068)
(-0.171773 -0.0590489 -0.0035885)
(-0.0495299 0.0216061 -0.011895)
(0.00577483 -0.097676 0.0533627)
(-0.0330233 0.0305186 0.103006)
(-0.0443643 0.134222 0.0841792)
(-0.0785287 0.167389 0.0784666)
(-0.137027 0.109744 0.103552)
(-0.196678 -0.0180978 0.103513)
(-0.207818 -0.0816307 0.0503859)
(-0.175505 -0.080163 -0.0284098)
(-0.147761 -0.0721998 -0.0608412)
(-0.0205017 0.04417 0.0152957)
(0.0360645 -0.129888 0.0300045)
(-0.0348144 0.0159615 0.0850595)
(-0.0862632 0.145131 0.0970739)
(-0.122066 0.157353 0.0795736)
(-0.158896 0.0698434 0.0844948)
(-0.198913 -0.0449393 0.0728521)
(-0.19606 -0.0812798 0.00354311)
(-0.168842 -0.0941633 -0.0586348)
(-0.162218 -0.0792919 -0.0749203)
(0.00760313 0.0480487 0.0275712)
(0.0317777 -0.0995143 -0.00466387)
(-0.0731847 0.0507793 0.0492952)
(-0.10543 0.144042 0.0874486)
(-0.125139 0.128323 0.085196)
(-0.153446 0.0404132 0.0877565)
(-0.193998 -0.0388054 0.0703341)
(-0.192161 -0.0724441 -0.00838428)
(-0.182175 -0.09263 -0.0645535)
(-0.18606 -0.0730552 -0.084782)
(0.0427079 0.00427201 -0.0165699)
(0.0255579 -0.0732742 -0.030155)
(-0.0637901 0.0514771 0.00847217)
(-0.0663214 0.109 0.0671869)
(-0.0591887 0.100786 0.0934261)
(-0.0942953 0.0651253 0.115431)
(-0.178083 -0.00471997 0.0933411)
(-0.188697 -0.0493909 0.0036777)
(-0.180771 -0.0711781 -0.0649819)
(-0.192366 -0.0582444 -0.100402)
(0.043039 -0.0648862 -0.0599225)
(-0.03723 -0.0299919 -0.0223139)
(-0.0931104 0.0319567 0.0242994)
(-0.0816454 0.0143153 0.0619144)
(-0.0562751 0.0397545 0.089413)
(-0.0781623 0.0684968 0.122745)
(-0.162185 0.0292021 0.102259)
(-0.175112 -0.0177397 0.019463)
(-0.164769 -0.0399626 -0.0614309)
(-0.176898 -0.0352504 -0.113049)
(0.000749802 -0.0463455 -0.0552741)
(-0.109158 0.0171181 0.00137538)
(-0.155539 -0.0045638 0.0372811)
(-0.154849 -0.0630907 0.0537217)
(-0.134773 -0.0331906 0.0714943)
(-0.109549 0.0321947 0.106581)
(-0.142907 0.0350551 0.107227)
(-0.163584 0.00224813 0.0518615)
(-0.146244 -0.0158196 -0.0362968)
(-0.149417 -0.0151526 -0.106943)
(-0.00716571 0.00520308 -0.00369324)
(-0.00830355 -0.00317228 -0.00211583)
(0.00480788 -0.0142743 -0.00344086)
(0.0127331 -0.0121541 -0.00916122)
(0.0155813 -0.00345714 -0.012494)
(0.0115495 0.00168426 -0.00960316)
(0.00457384 0.00212651 -0.00531383)
(-6.45893e-05 0.00168306 -0.00311675)
(-0.00328123 0.00144862 -0.00233577)
(-0.00538535 0.000883788 -0.00209982)
(-0.00742898 0.010578 -0.00353332)
(0.0113547 -0.0176613 0.0153121)
(0.0208254 -0.0293133 0.0194008)
(0.0198073 -0.0215921 0.0133747)
(0.0153109 -0.00764396 0.00077133)
(0.0100991 0.0054376 -0.00815087)
(0.00289715 0.00803989 -0.00727167)
(-0.0020587 0.00515304 -0.00411372)
(-0.00474596 0.00269495 -0.00265299)
(-0.00602121 -0.000565259 -0.00101311)
(0.000589612 0.0108041 0.00314453)
(0.0147078 -0.0291893 0.0199229)
(0.013649 -0.0378378 0.0241481)
(0.00748761 -0.0208922 0.0235514)
(0.00155278 -0.00370447 0.0118768)
(0.00101882 0.00924818 -0.00284173)
(-0.000891009 0.013268 -0.00740606)
(-0.00254673 0.00901847 -0.00470884)
(-0.00567875 0.0053452 -0.00069457)
(-0.0077541 0.00183932 0.00517848)
(0.00709545 0.00879355 0.00333345)
(0.0122677 -0.0216611 0.00393825)
(0.00122503 -0.0283619 0.0127701)
(-0.00718245 -0.0147559 0.0220773)
(-0.0115029 -0.00147536 0.0173983)
(-0.00891915 0.00964131 0.0042672)
(-0.00564958 0.0142634 -0.00352018)
(-0.00516312 0.0129968 -0.00220609)
(-0.00850544 0.011946 0.00282817)
(-0.00677215 0.000705887 0.00834603)
(0.00698189 0.0122508 -0.0175567)
(0.0117979 -0.00724329 -0.0209875)
(-0.000720313 -0.0127758 -0.00790411)
(-0.00782498 -0.0100261 0.00729502)
(-0.0114369 -0.00291363 0.0118985)
(-0.0115066 0.00868963 0.00939244)
(-0.00756789 0.0177521 0.00443257)
(-0.00336062 0.019484 0.00219289)
(-0.00182079 0.0148539 0.0017975)
(6.91354e-05 0.00243918 0.00100186)
(0.00493637 0.00973672 -0.0336705)
(0.00301543 -0.000447842 -0.0358021)
(-0.00641176 0.00388684 -0.0291375)
(-0.0104519 0.00406925 -0.018412)
(-0.012492 0.00330719 -0.0101245)
(-0.0114637 0.00567364 -0.00557941)
(-0.00722721 0.0092124 -0.00497697)
(-0.00108073 0.0121159 -0.00729314)
(0.0017516 0.0129913 -0.0112401)
(-0.000276224 0.00869192 -0.0141319)
(-0.00468058 0.00618415 -0.0326415)
(-0.0195755 0.00600736 -0.038356)
(-0.0271271 0.00898462 -0.0395614)
(-0.0266658 0.00955487 -0.0345988)
(-0.0247863 0.0100288 -0.029978)
(-0.0210623 0.0123911 -0.0274729)
(-0.0177363 0.0153767 -0.0274414)
(-0.0134029 0.0170108 -0.0295865)
(-0.010052 0.0179116 -0.0312472)
(-0.00917533 0.0159015 -0.0307246)
(-0.0112021 0.0306231 -0.01805)
(-0.0341954 0.030538 -0.0169495)
(-0.0477801 0.0270753 -0.0233627)
(-0.0558761 0.0215655 -0.0289304)
(-0.0617987 0.015385 -0.0335974)
(-0.060375 0.00974803 -0.0394368)
(-0.0484087 0.00731768 -0.0424853)
(-0.0339602 0.00652595 -0.0408117)
(-0.0261581 0.0076744 -0.0406512)
(-0.0203668 0.00908751 -0.0398512)
(0.010713 0.0714911 0.00708833)
(-0.064533 0.0913256 -0.0118884)
(-0.176344 0.102783 -0.0936091)
(-0.258064 0.0820436 -0.191379)
(-0.307752 0.0515172 -0.256732)
(-0.291485 0.0295961 -0.260606)
(-0.227153 0.0178739 -0.230913)
(-0.157788 0.0178929 -0.187907)
(-0.110868 0.0201 -0.155352)
(-0.0841844 0.0195882 -0.136883)
(-0.0169861 -0.021597 0.0865112)
(0.0295089 0.151624 0.0957448)
(-0.0422463 0.236167 0.0446177)
(-0.0943395 0.243259 0.0153711)
(-0.177082 0.185678 0.0114593)
(-0.240386 0.085199 0.0104375)
(-0.26504 -0.0122604 0.00610833)
(-0.211661 -0.0295402 -0.0472375)
(-0.144086 0.0139254 -0.178692)
(-0.101745 0.0307952 -0.234153)
(-0.0741056 -0.037366 0.0743238)
(-0.0592972 0.152453 0.0765999)
(-0.0760581 0.268028 0.0559674)
(-0.0937568 0.268359 0.075614)
(-0.137432 0.184572 0.119919)
(-0.175121 0.0656337 0.147606)
(-0.204614 -0.0151153 0.149297)
(-0.223427 -0.0202215 0.144489)
(-0.209949 0.0186807 0.129695)
(-0.167292 0.0572709 0.0953519)
(-0.0895955 -0.00888896 0.0541075)
(-0.129376 0.128955 0.0522978)
(-0.151784 0.200495 0.0482006)
(-0.153857 0.190697 0.0834684)
(-0.164779 0.123449 0.124364)
(-0.185266 0.0384708 0.15711)
(-0.206469 -0.0423164 0.17764)
(-0.214941 -0.0908282 0.167188)
(-0.200179 -0.0931188 0.128659)
(-0.161054 -0.0752916 0.0765315)
(-0.0827907 0.0188527 0.0471536)
(-0.106684 0.115737 0.0724667)
(-0.124676 0.155135 0.067252)
(-0.136534 0.148445 0.0905999)
(-0.153023 0.114886 0.129943)
(-0.171937 0.0582983 0.179891)
(-0.191062 -0.0213557 0.207255)
(-0.200053 -0.0814899 0.173169)
(-0.17482 -0.0924711 0.0917189)
(-0.125605 -0.0842556 0.00945348)
(-0.0791487 0.0336229 0.036464)
(-0.0786635 0.0879633 0.0993549)
(-0.0738703 0.134877 0.0967318)
(-0.0776536 0.153682 0.0932616)
(-0.113329 0.130567 0.130298)
(-0.152219 0.068459 0.183548)
(-0.18465 -0.0231119 0.186724)
(-0.179624 -0.0815074 0.11155)
(-0.135166 -0.0993035 0.010176)
(-0.0896754 -0.113396 -0.0508602)
(-0.0700501 0.0409488 0.0179151)
(-0.0561127 0.0466031 0.106111)
(-0.0650326 0.114526 0.118235)
(-0.0542982 0.158912 0.100537)
(-0.0831148 0.157923 0.126125)
(-0.130566 0.0931506 0.169433)
(-0.161323 -0.0176994 0.14164)
(-0.140294 -0.0818411 0.0425623)
(-0.0985701 -0.115766 -0.0430202)
(-0.081165 -0.145253 -0.0696965)
(-0.0485065 0.0483168 -0.000873878)
(-0.0399238 0.0169931 0.0778194)
(-0.0870543 0.114814 0.117678)
(-0.0839613 0.168748 0.110617)
(-0.0905219 0.17106 0.121963)
(-0.122024 0.0881647 0.140461)
(-0.13541 -0.0277407 0.0904332)
(-0.103613 -0.0830395 -0.00492282)
(-0.0852804 -0.128542 -0.0547335)
(-0.093286 -0.156329 -0.0726656)
(-0.0282919 0.0671127 -0.00897925)
(-0.0556358 0.0224424 0.0398357)
(-0.127225 0.126569 0.103014)
(-0.128839 0.165032 0.117659)
(-0.120943 0.136394 0.118707)
(-0.119784 0.0456015 0.109978)
(-0.104541 -0.0355855 0.055047)
(-0.0679472 -0.0732114 -0.0249122)
(-0.0694623 -0.132109 -0.0593001)
(-0.102604 -0.144916 -0.0815042)
(0.00902721 0.0929704 -0.013695)
(-0.0163731 0.0226635 0.00782257)
(-0.115506 0.104821 0.0820643)
(-0.113416 0.135577 0.123145)
(-0.101632 0.0993442 0.133526)
(-0.0943793 0.0316314 0.128298)
(-0.081882 -0.0215896 0.070902)
(-0.0297084 -0.0476334 -0.0254673)
(-0.0397502 -0.105763 -0.0599388)
(-0.0905587 -0.130558 -0.0889141)
(0.0441082 0.0396641 -0.023575)
(-0.00455599 0.0423196 0.00401934)
(-0.104844 0.0797984 0.0800486)
(-0.094128 0.0731071 0.124614)
(-0.0775663 0.0640618 0.146657)
(-0.0701442 0.0429179 0.155178)
(-0.0592484 0.00792763 0.100404)
(0.00148314 -0.0209746 -0.000676142)
(0.000458595 -0.0698675 -0.0492565)
(-0.0521862 -0.123674 -0.086113)
(0.0120121 -0.0147226 -0.0216366)
(-0.0693712 0.0779837 0.0229002)
(-0.146031 0.0592738 0.0752618)
(-0.141555 0.00975047 0.102414)
(-0.117991 0.0101842 0.124362)
(-0.0766005 0.0254552 0.140688)
(-0.0411928 0.0102241 0.118019)
(0.00383152 -0.0230096 0.0525156)
(0.0366006 -0.0547691 -0.0174755)
(0.00379922 -0.119276 -0.0672868)
(-0.00771159 0.00578009 -0.0030375)
(-0.016009 -0.00284594 0.00222667)
(-0.00142775 -0.017601 0.00674794)
(0.0115309 -0.0168825 0.00331192)
(0.0185506 -0.00726801 -0.00144683)
(0.0146301 9.55121e-05 -0.00336292)
(0.00559661 0.00198223 -0.00301982)
(-0.000115607 0.00185226 -0.00215458)
(-0.00344419 0.00155531 -0.0014673)
(-0.00543188 0.00104317 -0.000752968)
(-0.00751382 0.0133809 -0.00705666)
(0.00315433 -0.0109035 0.0110182)
(0.0148527 -0.0330666 0.0223125)
(0.0178014 -0.03259 0.0188795)
(0.0192844 -0.0167126 0.00525629)
(0.0153678 0.00170101 -0.00395767)
(0.00534446 0.0073776 -0.00483351)
(-0.0016433 0.00510976 -0.00306934)
(-0.00447008 0.00266583 -0.0017668)
(-0.0056551 -0.00036811 -0.00064319)
(-0.00342498 0.0157998 -0.00725623)
(0.0133936 -0.0135029 0.0113325)
(0.0136404 -0.033509 0.0220412)
(0.00810264 -0.0294733 0.0243809)
(0.00723032 -0.013979 0.0109328)
(0.00806196 0.00440901 -0.00398348)
(0.00251855 0.0123678 -0.00718456)
(-0.00212874 0.00868854 -0.00493469)
(-0.00458478 0.00354935 -0.00222773)
(-0.00647207 0.000313415 0.00200854)
(0.00313817 0.018151 -0.0113741)
(0.0159961 -0.00261113 -0.00491096)
(0.00907775 -0.0190496 0.00765938)
(-0.00192519 -0.0186673 0.0194692)
(-0.00531825 -0.00791112 0.0146496)
(-0.00237427 0.00612429 -0.000849703)
(-0.00236672 0.0139939 -0.00777169)
(-0.00442016 0.0112591 -0.00596611)
(-0.00803181 0.00877642 -0.0018667)
(-0.00887135 0.00489171 0.00423169)
(0.00563541 0.0151714 -0.0247132)
(0.0152658 0.0016677 -0.0226871)
(0.00863028 -0.0040682 -0.0109981)
(-0.00316874 -0.00547159 0.00323674)
(-0.0105015 -0.000791558 0.00962753)
(-0.0103786 0.0109229 0.00621438)
(-0.00662702 0.018786 -0.00104822)
(-0.00508055 0.0184484 -0.00310571)
(-0.00763475 0.0147126 -0.00268177)
(-0.00760203 0.00712919 -0.000603368)
(0.00135567 0.00216458 -0.0332171)
(0.000975966 -0.00477476 -0.0348333)
(-0.00542384 0.00207634 -0.0305702)
(-0.0110345 0.00553178 -0.0222958)
(-0.0162775 0.00569625 -0.0137865)
(-0.0165711 0.0103024 -0.00745249)
(-0.0116683 0.0174233 -0.00597606)
(-0.00568064 0.0206752 -0.00787144)
(-0.00552606 0.0195656 -0.0104668)
(-0.00748325 0.0129018 -0.0114637)
(-0.00792541 0.00339961 -0.0328558)
(-0.0228797 0.00323722 -0.0435593)
(-0.0314789 0.00659917 -0.0476535)
(-0.031135 0.00912023 -0.0432139)
(-0.0299399 0.00996702 -0.0371941)
(-0.0282346 0.0103313 -0.0327746)
(-0.0256135 0.0106914 -0.0304208)
(-0.020177 0.0123953 -0.0280347)
(-0.015762 0.0147319 -0.0268094)
(-0.0127894 0.0119439 -0.0263414)
(-0.00673691 0.0249749 -0.0093125)
(-0.0299443 0.0234406 -0.015146)
(-0.0484308 0.0185732 -0.0313366)
(-0.0606226 0.0123982 -0.0401742)
(-0.0640196 0.00553214 -0.0468105)
(-0.0546082 0.00203361 -0.0514809)
(-0.040683 0.00227199 -0.0502919)
(-0.0311812 0.00232561 -0.0471947)
(-0.0236402 0.00554314 -0.0452878)
(-0.0164487 0.006396 -0.0444631)
(0.0202079 0.0757084 0.0114367)
(-0.0464908 0.0939024 -0.0496802)
(-0.151983 0.0850426 -0.177278)
(-0.240819 0.0534258 -0.25053)
(-0.282032 0.026086 -0.276052)
(-0.250135 0.00857227 -0.253555)
(-0.182932 -0.000619722 -0.217195)
(-0.124142 -0.000157632 -0.181731)
(-0.0874679 0.00290401 -0.153087)
(-0.0648725 0.00334762 -0.134407)
(0.0064051 0.0561812 0.147268)
(0.025037 0.20363 0.12211)
(-0.0668611 0.243796 0.0415394)
(-0.145126 0.187453 0.0243332)
(-0.220649 0.0872547 0.0615206)
(-0.240762 -0.0424134 0.107526)
(-0.19908 -0.15089 0.0139746)
(-0.163784 -0.112765 -0.159841)
(-0.142296 -0.096511 -0.275993)
(-0.108716 -0.0813436 -0.33855)
(-0.0573404 0.000326863 0.138583)
(-0.0435279 0.205896 0.136952)
(-0.0902193 0.274317 0.112161)
(-0.117732 0.196155 0.14599)
(-0.137455 0.0676064 0.186876)
(-0.144806 -0.0126736 0.191796)
(-0.166045 -0.019715 0.19237)
(-0.180948 0.0238361 0.199653)
(-0.172928 0.0645373 0.180528)
(-0.151561 0.083824 0.136691)
(-0.0826289 0.0171256 0.124579)
(-0.117146 0.151228 0.111363)
(-0.132666 0.177553 0.10615)
(-0.122268 0.108317 0.13176)
(-0.124562 0.0194146 0.139673)
(-0.144079 -0.0509168 0.144035)
(-0.157165 -0.0921697 0.154449)
(-0.153125 -0.0882688 0.147402)
(-0.138993 -0.0597253 0.130805)
(-0.116432 -0.0563495 0.104868)
(-0.0733026 0.0426824 0.1188)
(-0.100346 0.137322 0.116055)
(-0.114159 0.125098 0.097099)
(-0.109509 0.0810335 0.101261)
(-0.121761 0.0427731 0.119392)
(-0.141057 0.00156674 0.159158)
(-0.1463 -0.0376493 0.175437)
(-0.128955 -0.0494492 0.131369)
(-0.097408 -0.0440186 0.0632524)
(-0.0682425 -0.0730755 0.0195621)
(-0.0699698 0.051175 0.102766)
(-0.0672413 0.137155 0.131244)
(-0.0744651 0.141152 0.106738)
(-0.0950008 0.111108 0.0975044)
(-0.11909 0.0786202 0.123909)
(-0.123844 0.0421268 0.167556)
(-0.116226 0.00158821 0.162814)
(-0.0915646 -0.0199619 0.0838835)
(-0.0628285 -0.0360379 0.00445531)
(-0.0440817 -0.0916456 -0.025996)
(-0.0725044 0.0514003 0.0796843)
(-0.0622359 0.113661 0.130532)
(-0.0597258 0.147553 0.112547)
(-0.0767408 0.149145 0.100483)
(-0.106671 0.12466 0.132571)
(-0.104502 0.0883413 0.16895)
(-0.0871237 0.0446316 0.131755)
(-0.0590837 0.020307 0.0242526)
(-0.0474547 -0.0172089 -0.0488711)
(-0.029079 -0.111444 -0.0502012)
(-0.0687386 0.0615253 0.0592738)
(-0.0734059 0.0874506 0.113002)
(-0.0803767 0.145706 0.112834)
(-0.0795839 0.177912 0.108407)
(-0.0993449 0.166208 0.143451)
(-0.0926747 0.120127 0.164763)
(-0.0693248 0.0745103 0.0996805)
(-0.0432744 0.0665915 -0.0127851)
(-0.0400953 -0.0011438 -0.0527363)
(-0.0199456 -0.146567 -0.0446618)
(-0.0557425 0.0747018 0.044353)
(-0.093551 0.0756495 0.0983071)
(-0.124289 0.149141 0.123759)
(-0.112511 0.186008 0.127501)
(-0.110192 0.167105 0.146677)
(-0.0899501 0.110849 0.13573)
(-0.0549103 0.0827538 0.0543042)
(-0.0295485 0.0791078 -0.0381185)
(-0.0105648 -0.0398034 -0.0517686)
(-0.0127093 -0.175156 -0.0455844)
(-0.0116778 0.0976887 0.0263336)
(-0.0652973 0.0705943 0.0797098)
(-0.140231 0.134942 0.136118)
(-0.130754 0.165033 0.152333)
(-0.114015 0.130213 0.147947)
(-0.0808367 0.0760419 0.107309)
(-0.0325818 0.0632623 0.0135987)
(0.00187847 0.0590814 -0.0652012)
(0.0395712 -0.0860929 -0.060736)
(0.00477329 -0.190351 -0.0461627)
(0.0396127 0.0570951 0.00715607)
(-0.019466 0.0911057 0.0644528)
(-0.124899 0.122187 0.13855)
(-0.117999 0.128096 0.16702)
(-0.0976287 0.094718 0.158118)
(-0.0575811 0.0544631 0.116063)
(0.00160949 0.0343596 0.0256771)
(0.0620086 -0.00364649 -0.0407119)
(0.083997 -0.0966666 -0.0427644)
(0.0444747 -0.193464 -0.0448542)
(0.0154323 -0.00338846 0.0182349)
(-0.0414129 0.128501 0.0676454)
(-0.132783 0.125985 0.123532)
(-0.125135 0.099124 0.146499)
(-0.0969268 0.0719748 0.147299)
(-0.0404336 0.0461589 0.132563)
(0.0253192 0.0124105 0.094442)
(0.0840051 -0.0421396 0.0499427)
(0.115828 -0.108495 0.00451588)
(0.0970032 -0.182576 -0.0355561)
(-0.00422226 0.00419189 -0.00131114)
(-0.0153471 0.000563684 0.00627648)
(-0.00767555 -0.00959295 0.0148323)
(0.00570575 -0.010137 0.014374)
(0.0128689 -0.00391167 0.00821434)
(0.0100509 0.000552205 0.0021917)
(0.00338191 0.00196837 -0.00069078)
(-0.00116887 0.00198005 -0.00144955)
(-0.00397685 0.00180813 -0.00119734)
(-0.00552493 0.00171148 -0.000518212)
(-0.00392696 0.0118123 -0.00724414)
(-0.00749278 0.000953051 0.00600273)
(0.00442873 -0.0217254 0.0195155)
(0.0109011 -0.0246394 0.0190624)
(0.0154168 -0.0102353 0.00972878)
(0.0117763 0.00306548 0.00163902)
(0.00355705 0.00603823 -0.00142239)
(-0.00176056 0.00447996 -0.00139546)
(-0.00398733 0.00290942 -0.000229088)
(-0.00521548 0.00142661 0.00116312)
(-0.000449708 0.0137961 -0.0126206)
(0.00584159 0.000748223 -0.000102763)
(0.0108961 -0.0186533 0.0138321)
(0.00967989 -0.0237243 0.017733)
(0.0109723 -0.0116814 0.00801054)
(0.00950899 0.00505122 -0.00138467)
(0.00237786 0.0101343 -0.00413572)
(-0.00282304 0.00652036 -0.00352664)
(-0.00471191 0.00272534 -0.00212786)
(-0.00568865 0.000759967 0.000138276)
(0.00422205 0.0123769 -0.0183152)
(0.0133203 0.00610498 -0.0137236)
(0.0145678 -0.00610587 -0.000270582)
(0.00785051 -0.0127936 0.0110927)
(0.00457643 -0.00702822 0.00719137)
(0.00396576 0.00627844 -0.00347482)
(-0.000772288 0.0125736 -0.00731222)
(-0.00555729 0.00879766 -0.00621656)
(-0.00815781 0.00512031 -0.00426846)
(-0.00821036 0.00413915 -0.00173185)
(0.0037826 0.000630461 -0.0232303)
(0.012225 -0.00216303 -0.0197006)
(0.0120528 0.000583028 -0.0112272)
(0.00476622 0.000718012 -0.000708823)
(-0.00186095 0.00322596 0.0042408)
(-0.00270611 0.0113445 2.56811e-05)
(-0.00331827 0.0165039 -0.00569988)
(-0.00599156 0.0129658 -0.00654378)
(-0.0105595 0.00844817 -0.00629316)
(-0.0102966 0.00694617 -0.00630162)
(-0.00431401 -0.0114002 -0.0287281)
(-0.00629878 -0.0123655 -0.0329138)
(-0.00982959 -0.00288257 -0.02903)
(-0.0128592 0.00303932 -0.0214984)
(-0.0165559 0.00723177 -0.0132404)
(-0.0144187 0.0147668 -0.00661023)
(-0.00948755 0.0202223 -0.00636283)
(-0.00695331 0.0189273 -0.00812484)
(-0.0109128 0.0139775 -0.0103528)
(-0.0117544 0.00963295 -0.0136882)
(-0.0122918 0.000318389 -0.0325358)
(-0.0305792 -0.000264524 -0.0477447)
(-0.0404318 0.00247709 -0.0520363)
(-0.0397132 0.00360529 -0.0470193)
(-0.0385685 0.00379232 -0.0399567)