/*--------------------------------*- C++ -*----------------------------------*\
| =========                 |                                                 |
| \\      /  F ield         | OpenFOAM: The Open Source CFD Toolbox           |
|  \\    /   O peration     | Version:  2312                                  |
|   \\  /    A nd           | Website:  www.openfoam.com                      |
|    \\/     M anipulation  |                                                 |
\*---------------------------------------------------------------------------*/
FoamFile
{
    version     2.0;
    format      ascii;
    arch        "LSB;label=32;scalar=64";
    class       volVectorField;
    location    "0.085";
    object      U;
}
// * * * * * * * * * * * * * * * * * * * * * * * * * * * * * * * * * * * * * //

dimensions      [0 1 -1 0 0 0 0];

internalField   nonuniform List<vector> 
8000
(
(3.78354e-08 -2.73822e-09 -2.67e-08)
(9.09016e-08 6.87472e-09 -2.88516e-08)
(1.30697e-07 9.50643e-09 -2.92633e-08)
(1.60444e-07 1.57717e-08 -2.79624e-08)
(1.76007e-07 2.3296e-08 -2.72604e-08)
(1.73875e-07 3.12003e-08 -2.64312e-08)
(1.55877e-07 3.84782e-08 -2.586e-08)
(1.22882e-07 4.44277e-08 -2.54194e-08)
(8.08243e-08 4.82483e-08 -2.54978e-08)
(2.81923e-08 5.18911e-08 -2.47259e-08)
(3.33659e-08 -1.1076e-08 -2.55555e-08)
(9.15938e-08 1.51379e-08 -3.03645e-08)
(1.33219e-07 2.53671e-08 -3.07364e-08)
(1.64821e-07 4.51439e-08 -2.90451e-08)
(1.81709e-07 6.84893e-08 -2.85053e-08)
(1.79672e-07 9.25211e-08 -2.76415e-08)
(1.61294e-07 1.15105e-07 -2.70607e-08)
(1.2728e-07 1.3365e-07 -2.65991e-08)
(8.26191e-08 1.47043e-07 -2.6412e-08)
(2.77781e-08 1.58043e-07 -2.57848e-08)
(3.48878e-08 -2.00744e-08 -3.02792e-08)
(1.06591e-07 2.55278e-08 -3.64169e-08)
(1.55161e-07 4.679e-08 -3.68975e-08)
(1.92861e-07 7.92007e-08 -3.43452e-08)
(2.12288e-07 1.18744e-07 -3.32754e-08)
(2.09959e-07 1.59506e-07 -3.17798e-08)
(1.88101e-07 1.98343e-07 -3.08823e-08)
(1.48221e-07 2.30589e-07 -2.98197e-08)
(9.42189e-08 2.54199e-07 -2.91192e-08)
(3.06602e-08 2.69985e-07 -2.88137e-08)
(4.28709e-08 -3.46922e-08 -4.10239e-08)
(1.29943e-07 3.63288e-08 -4.71076e-08)
(1.91062e-07 6.84916e-08 -4.80274e-08)
(2.35959e-07 1.18166e-07 -4.41797e-08)
(2.60705e-07 1.79087e-07 -4.21979e-08)
(2.58054e-07 2.41507e-07 -3.97073e-08)
(2.31338e-07 3.00438e-07 -3.8004e-08)
(1.823e-07 3.50115e-07 -3.64212e-08)
(1.14567e-07 3.8634e-07 -3.55805e-08)
(3.70741e-08 4.05489e-07 -3.5321e-08)
(4.9885e-08 -2.17868e-08 -5.97355e-08)
(1.63168e-07 6.36324e-08 -6.29215e-08)
(2.42568e-07 1.21329e-07 -6.31608e-08)
(3.0224e-07 1.84846e-07 -5.8267e-08)
(3.33773e-07 2.70577e-07 -5.52084e-08)
(3.29875e-07 3.55712e-07 -5.1858e-08)
(2.95692e-07 4.36796e-07 -4.93335e-08)
(2.33469e-07 5.06129e-07 -4.74854e-08)
(1.47288e-07 5.56873e-07 -4.64895e-08)
(4.82452e-08 5.79564e-07 -4.61911e-08)
(6.03467e-08 -2.6592e-08 -8.49486e-08)
(2.17556e-07 8.26306e-08 -8.24488e-08)
(3.18601e-07 1.55444e-07 -8.07938e-08)
(3.83916e-07 2.46448e-07 -7.69445e-08)
(4.29409e-07 3.63993e-07 -7.35863e-08)
(4.22759e-07 4.8165e-07 -7.0446e-08)
(3.8083e-07 5.94565e-07 -6.75735e-08)
(3.01901e-07 6.90907e-07 -6.56561e-08)
(1.93687e-07 7.60966e-07 -6.45193e-08)
(6.58786e-08 7.90231e-07 -6.43196e-08)
(4.78414e-08 3.63719e-08 -1.12588e-07)
(3.02635e-07 1.34758e-07 -1.1063e-07)
(4.10884e-07 3.11767e-07 -1.0512e-07)
(5.09897e-07 4.10947e-07 -1.02128e-07)
(5.67319e-07 6.01846e-07 -9.87047e-08)
(5.59321e-07 7.72506e-07 -9.56781e-08)
(5.04238e-07 9.42414e-07 -9.29957e-08)
(3.9942e-07 1.08775e-06 -9.07537e-08)
(2.58215e-07 1.19286e-06 -8.95832e-08)
(9.01343e-08 1.24215e-06 -8.90692e-08)
(2.51503e-07 -1.00653e-07 -1.65802e-07)
(3.25071e-07 2.72897e-08 -1.53077e-07)
(6.37426e-07 1.5953e-07 -1.57167e-07)
(7.62935e-07 1.92269e-07 -1.52284e-07)
(8.57568e-07 3.0083e-07 -1.49578e-07)
(8.33822e-07 3.89888e-07 -1.45296e-07)
(7.54093e-07 4.79978e-07 -1.41015e-07)
(5.98139e-07 5.5734e-07 -1.36912e-07)
(3.86404e-07 6.12718e-07 -1.33557e-07)
(1.34754e-07 6.50539e-07 -1.31454e-07)
(0.000118382 1.57308e-05 -0.0001303)
(0.000315158 1.96592e-05 -0.000130275)
(0.000479636 2.50923e-05 -0.000128328)
(0.000601958 3.50507e-05 -0.000124622)
(0.000661293 4.60294e-05 -0.000119829)
(0.000656603 5.72554e-05 -0.000114881)
(0.000589569 6.78169e-05 -0.000110203)
(0.000466071 7.66807e-05 -0.000106261)
(0.000298198 8.30703e-05 -0.000103407)
(0.000101918 8.62174e-05 -0.000101027)
(0.000138215 8.65589e-05 -0.000166606)
(0.000382504 0.000129525 -0.000163386)
(0.000586611 0.000178189 -0.000159188)
(0.000730085 0.000258345 -0.000153857)
(0.000806784 0.000347866 -0.000147922)
(0.000804404 0.000436803 -0.000141779)
(0.000723683 0.000521765 -0.000136033)
(0.000572739 0.000593624 -0.000131203)
(0.000367388 0.000645592 -0.000127762)
(0.000125408 0.000667699 -0.000124767)
(0.000160105 0.000186859 -0.000198433)
(0.000435935 0.000239567 -0.000194595)
(0.000672736 0.000334264 -0.000188677)
(0.000841063 0.000467762 -0.000181767)
(0.000928174 0.000622772 -0.000173792)
(0.000924604 0.000783853 -0.000165579)
(0.000831117 0.000935624 -0.000157924)
(0.000657314 0.00106362 -0.00015152)
(0.000421188 0.00115593 -0.000146947)
(0.000143757 0.00119677 -0.000143155)
(0.000191821 0.000307162 -0.000249028)
(0.000529149 0.000386667 -0.000244605)
(0.000814751 0.000533057 -0.000237094)
(0.0010187 0.000733487 -0.00022718)
(0.00112312 0.000966891 -0.000215765)
(0.00111758 0.00120964 -0.000204073)
(0.00100371 0.00143827 -0.000193224)
(0.00079318 0.00163099 -0.000184182)
(0.000507796 0.00176999 -0.000177688)
(0.000173203 0.0018313 -0.000172566)
(0.00023809 0.000484922 -0.000327193)
(0.000661801 0.000594316 -0.000321063)
(0.00101953 0.000799259 -0.000310002)
(0.00127486 0.00107958 -0.000295217)
(0.00140427 0.00140562 -0.00027831)
(0.00139592 0.00174469 -0.000261027)
(0.0012524 0.0020636 -0.000245019)
(0.000988885 0.00233217 -0.00023166)
(0.000632597 0.00252575 -0.000222062)
(0.000215602 0.00261024 -0.000214929)
(0.000301027 0.000744987 -0.000439803)
(0.000843475 0.000891721 -0.000430626)
(0.00129999 0.0011679 -0.000413943)
(0.00162501 0.00154463 -0.000391708)
(0.00178815 0.00198214 -0.000366368)
(0.00177546 0.00243625 -0.000340544)
(0.00159109 0.0028626 -0.00031667)
(0.00125516 0.00322109 -0.000296802)
(0.000802252 0.00347909 -0.00028262)
(0.000273231 0.00359005 -0.000272566)
(0.00038455 0.00113073 -0.000598374)
(0.00108469 0.0013231 -0.000584455)
(0.00167238 0.00168581 -0.000559158)
(0.00208901 0.00217939 -0.000525512)
(0.00229577 0.00275123 -0.000487322)
(0.00227623 0.00334315 -0.000448573)
(0.00203709 0.00389749 -0.000412907)
(0.00160515 0.0043625 -0.000383425)
(0.00102491 0.00469641 -0.000362515)
(0.000348773 0.00483751 -0.000348191)
(0.000493055 0.00170358 -0.000818572)
(0.00139852 0.00195134 -0.000797408)
(0.00215618 0.00241839 -0.000758974)
(0.00269026 0.00305227 -0.000708054)
(0.00295169 0.00378441 -0.000650582)
(0.00292148 0.0045397 -0.000592594)
(0.00261019 0.00524469 -0.00053959)
(0.00205378 0.00583423 -0.000496083)
(0.00130986 0.00625651 -0.000465347)
(0.000445357 0.00643111 -0.000444934)
(0.000631483 0.00255128 -0.00112064)
(0.00179943 0.00286481 -0.00108829)
(0.00277314 0.00345551 -0.00102992)
(0.00345476 0.00425484 -0.000953188)
(0.00378285 0.00517459 -0.000867212)
(0.00373612 0.00611944 -0.000781167)
(0.0033312 0.00699763 -0.000703172)
(0.00261657 0.00772931 -0.000639585)
(0.00166659 0.00825186 -0.000594873)
(0.000566112 0.00846196 -0.000566045)
(0.000804877 0.00379559 -0.00152949)
(0.00230262 0.00418519 -0.00148037)
(0.0035459 0.00491857 -0.00139242)
(0.00440888 0.00590747 -0.00127774)
(0.00481572 0.00704013 -0.00115035)
(0.00474389 0.00819768 -0.00102408)
(0.00421941 0.00926816 -0.000910641)
(0.00330746 0.0101562 -0.000818828)
(0.00210341 0.0107881 -0.000754717)
(0.000713702 0.0110332 -0.000714358)
(0.00101776 0.00560212 -0.0020744)
(0.00292216 0.00607627 -0.00200089)
(0.0044949 0.00696778 -0.00186986)
(0.00557555 0.00816487 -0.00170031)
(0.00607213 0.00952832 -0.00151389)
(0.00596316 0.0109132 -0.00133105)
(0.00528873 0.0121864 -0.00116837)
(0.00413576 0.0132372 -0.00103788)
(0.00262555 0.0139818 -0.000947424)
(0.000889752 0.0142572 -0.000891564)
(0.00127284 0.00818853 -0.00278669)
(0.00366786 0.00875106 -0.00267824)
(0.00563365 0.00980754 -0.00248571)
(0.00696821 0.0112191 -0.00223861)
(0.00756263 0.012816 -0.00196999)
(0.00740049 0.0144266 -0.00170961)
(0.00654199 0.0158973 -0.00148052)
(0.00510179 0.0171038 -0.00129862)
(0.00323246 0.0179548 -0.00117343)
(0.0010939 0.0182491 -0.00109747)
(3.42099e-08 -3.46605e-09 -8.42664e-08)
(8.29394e-08 1.44596e-09 -8.3453e-08)
(1.23047e-07 4.87569e-09 -8.28605e-08)
(1.52156e-07 1.13079e-08 -8.05769e-08)
(1.67234e-07 1.84846e-08 -7.86388e-08)
(1.65754e-07 2.6309e-08 -7.66362e-08)
(1.48963e-07 3.35743e-08 -7.50125e-08)
(1.1759e-07 3.93246e-08 -7.3736e-08)
(7.78535e-08 4.31751e-08 -7.31363e-08)
(2.71407e-08 4.79578e-08 -7.16263e-08)
(3.13421e-08 -7.59462e-09 -8.6132e-08)
(8.25944e-08 1.97272e-09 -8.92631e-08)
(1.24706e-07 1.41178e-08 -8.82963e-08)
(1.55781e-07 3.43068e-08 -8.60978e-08)
(1.71738e-07 5.70026e-08 -8.44473e-08)
(1.71064e-07 8.08456e-08 -8.26129e-08)
(1.54123e-07 1.03181e-07 -8.09026e-08)
(1.21699e-07 1.21492e-07 -7.94546e-08)
(7.87208e-08 1.34798e-07 -7.85957e-08)
(2.62868e-08 1.47372e-07 -7.76988e-08)
(3.24407e-08 -7.67255e-09 -1.00672e-07)
(9.93117e-08 5.97761e-09 -1.06592e-07)
(1.45494e-07 3.02757e-08 -1.04637e-07)
(1.83245e-07 6.35369e-08 -1.01461e-07)
(2.01671e-07 1.02467e-07 -9.8854e-08)
(2.00583e-07 1.42946e-07 -9.59027e-08)
(1.80136e-07 1.81277e-07 -9.34558e-08)
(1.42176e-07 2.13247e-07 -9.11686e-08)
(8.99856e-08 2.36792e-07 -8.97553e-08)
(2.92525e-08 2.54808e-07 -8.93845e-08)
(3.61961e-08 -2.32368e-08 -1.31468e-07)
(1.26229e-07 6.87294e-09 -1.36196e-07)
(1.80235e-07 4.38277e-08 -1.33597e-07)
(2.25745e-07 9.5185e-08 -1.27817e-07)
(2.49238e-07 1.56217e-07 -1.23467e-07)
(2.48161e-07 2.18982e-07 -1.19021e-07)
(2.23133e-07 2.78543e-07 -1.15269e-07)
(1.76311e-07 3.28653e-07 -1.1218e-07)
(1.10514e-07 3.65537e-07 -1.10349e-07)
(3.55534e-08 3.86837e-07 -1.09457e-07)
(3.96168e-08 -2.46621e-08 -1.79516e-07)
(1.63155e-07 1.96996e-08 -1.78389e-07)
(2.31906e-07 8.55261e-08 -1.74792e-07)
(2.92812e-07 1.51088e-07 -1.67108e-07)
(3.23163e-07 2.38975e-07 -1.60737e-07)
(3.21154e-07 3.25865e-07 -1.54399e-07)
(2.88696e-07 4.09226e-07 -1.48958e-07)
(2.286e-07 4.80117e-07 -1.44786e-07)
(1.44457e-07 5.32249e-07 -1.42233e-07)
(4.75506e-08 5.56387e-07 -1.41941e-07)
(4.92519e-08 -6.15326e-08 -2.41252e-07)
(2.18797e-07 1.71895e-08 -2.34671e-07)
(3.10793e-07 1.02742e-07 -2.29661e-07)
(3.76566e-07 1.96602e-07 -2.21193e-07)
(4.21679e-07 3.19042e-07 -2.1372e-07)
(4.16811e-07 4.40769e-07 -2.06209e-07)
(3.76502e-07 5.57433e-07 -1.99112e-07)
(2.98923e-07 6.56952e-07 -1.93778e-07)
(1.9221e-07 7.28774e-07 -1.90306e-07)
(6.57378e-08 7.60709e-07 -1.89185e-07)
(4.66638e-08 -5.25248e-08 -3.20224e-07)
(3.0454e-07 3.88235e-08 -3.13541e-07)
(4.11202e-07 2.33913e-07 -3.03788e-07)
(5.07605e-07 3.39664e-07 -2.94082e-07)
(5.65715e-07 5.33173e-07 -2.84754e-07)
(5.58403e-07 7.09894e-07 -2.75055e-07)
(5.04103e-07 8.83882e-07 -2.66665e-07)
(3.99333e-07 1.03319e-06 -2.59312e-07)
(2.58491e-07 1.14088e-06 -2.54628e-07)
(9.01792e-08 1.19143e-06 -2.52425e-07)
(2.40423e-07 -1.60078e-07 -4.97323e-07)
(3.29182e-07 -4.2192e-08 -4.72339e-07)
(6.38751e-07 1.15526e-07 -4.69742e-07)
(7.70972e-07 1.4878e-07 -4.55174e-07)
(8.65167e-07 2.54847e-07 -4.44176e-07)
(8.43001e-07 3.4656e-07 -4.28393e-07)
(7.62966e-07 4.37978e-07 -4.13623e-07)
(6.05864e-07 5.15706e-07 -4.00658e-07)
(3.91485e-07 5.70572e-07 -3.90789e-07)
(1.36579e-07 6.08652e-07 -3.84224e-07)
(0.000121228 9.98046e-06 -0.000384733)
(0.000318636 1.3569e-05 -0.000382222)
(0.000488435 1.90097e-05 -0.00037413)
(0.000614431 2.94809e-05 -0.000363047)
(0.00067543 4.11227e-05 -0.000349386)
(0.000670562 5.2923e-05 -0.000335143)
(0.00060207 6.39626e-05 -0.000321728)
(0.000475935 7.32086e-05 -0.000310417)
(0.000304497 7.98541e-05 -0.00030224)
(0.000104305 8.31229e-05 -0.000296023)
(0.000141866 5.40061e-05 -0.000484479)
(0.000391794 8.80949e-05 -0.000476744)
(0.00060015 0.000131575 -0.000465538)
(0.000746428 0.00021632 -0.000449957)
(0.000824555 0.000310842 -0.000432482)
(0.00082199 0.000403839 -0.000414498)
(0.000739418 0.000492718 -0.000397656)
(0.000585136 0.000567867 -0.000383481)
(0.000375194 0.000622182 -0.000373303)
(0.000128381 0.000646054 -0.00036543)
(0.00016443 0.000102518 -0.000577501)
(0.000448786 0.000157096 -0.000567408)
(0.00069049 0.000255792 -0.000551459)
(0.000862111 0.000395049 -0.000531159)
(0.000951093 0.00055682 -0.000507864)
(0.000947156 0.000724787 -0.00048393)
(0.000851194 0.00088297 -0.000461569)
(0.000673046 0.00101627 -0.000442823)
(0.000431099 0.00111244 -0.000429342)
(0.000147504 0.00115595 -0.000419258)
(0.000197742 0.000176393 -0.000728151)
(0.000544862 0.000258942 -0.000715471)
(0.000838257 0.000411651 -0.000693854)
(0.00104753 0.000621469 -0.00066482)
(0.00115452 0.000865642 -0.000631498)
(0.00114845 0.00111945 -0.000597286)
(0.00103115 0.00135832 -0.000565446)
(0.000814706 0.00155957 -0.000538814)
(0.000521442 0.00170473 -0.000519642)
(0.000178305 0.00177007 -0.000505903)
(0.000246557 0.000292406 -0.000958105)
(0.000684017 0.000407557 -0.000940155)
(0.00105298 0.00062319 -0.000907751)
(0.00131605 0.000918073 -0.000864477)
(0.00144901 0.00126072 -0.000814992)
(0.00143976 0.00161671 -0.000764337)
(0.00129123 0.00195123 -0.000717322)
(0.00101929 0.00223276 -0.000678074)
(0.000651798 0.00243557 -0.000649928)
(0.000222683 0.0025258 -0.000630649)
(0.000313157 0.000472335 -0.00128985)
(0.000875622 0.000627915 -0.00126286)
(0.00134872 0.000920573 -0.00121387)
(0.00168499 0.00131935 -0.00114849)
(0.00185306 0.00178181 -0.00107398)
(0.00183884 0.00226117 -0.000998015)
(0.00164708 0.00271072 -0.000927769)
(0.00129884 0.00308832 -0.000869407)
(0.000829727 0.00335982 -0.000827814)
(0.000283245 0.00347899 -0.0008003)
(0.000402407 0.00075153 -0.00175794)
(0.00113221 0.000957626 -0.001717)
(0.00174433 0.00134525 -0.00164232)
(0.00217717 0.00187171 -0.00154297)
(0.00239067 0.00248047 -0.00143029)
(0.00236848 0.0031095 -0.00131599)
(0.0021182 0.00369764 -0.00121089)
(0.00166811 0.00419023 -0.00112414)
(0.0010644 0.00454358 -0.00106262)
(0.000363049 0.00469619 -0.00102306)
(0.000519655 0.00118328 -0.00240972)
(0.00146927 0.00145179 -0.00234693)
(0.00226266 0.00195593 -0.00223285)
(0.00281999 0.00263829 -0.00208197)
(0.00309057 0.00342444 -0.00191186)
(0.0030557 0.00423351 -0.00174047)
(0.0027275 0.00498693 -0.00158403)
(0.00214441 0.00561574 -0.00145573)
(0.00136656 0.00606559 -0.00136513)
(0.000465708 0.00625599 -0.00130841)
(0.000671065 0.00184621 -0.00330709)
(0.00190472 0.00219042 -0.00321046)
(0.00293056 0.00283571 -0.00303651)
(0.0036453 0.00370577 -0.00280827)
(0.00398544 0.00470357 -0.00255296)
(0.00393047 0.00572517 -0.00229789)
(0.00349993 0.00667176 -0.00206699)
(0.00274626 0.00745845 -0.00187891)
(0.00174742 0.00801925 -0.00174686)
(0.000594896 0.00825074 -0.00166612)
(0.000863407 0.0028535 -0.00452739)
(0.00245852 0.00328769 -0.00438015)
(0.00377756 0.00410034 -0.00411667)
(0.0046872 0.00519108 -0.00377394)
(0.00510921 0.00643468 -0.00339401)
(0.00502308 0.00769989 -0.00301816)
(0.00446 0.00886524 -0.00268103)
(0.00349121 0.00982873 -0.00240863)
(0.00221743 0.0105126 -0.00221868)
(0.000754047 0.0107862 -0.00210477)
(0.00110373 0.00436541 -0.00616453)
(0.00315112 0.00490343 -0.00594249)
(0.00483318 0.00590804 -0.00554724)
(0.00597858 0.00724909 -0.00503745)
(0.00649302 0.00876709 -0.00447838)
(0.00635976 0.0102998 -0.00393145)
(0.00562754 0.0117015 -0.00344601)
(0.00439261 0.0128531 -0.00305751)
(0.00278421 0.0136664 -0.00278852)
(0.000945609 0.0139789 -0.00262997)
(0.00139796 0.006603 -0.00832186)
(0.00400043 0.00725527 -0.00799076)
(0.00612198 0.00846953 -0.00740544)
(0.00754458 0.0100794 -0.00665679)
(0.00815802 0.0118861 -0.00584592)
(0.00795551 0.0136939 -0.00506274)
(0.00701141 0.0153331 -0.00437601)
(0.00545478 0.0166701 -0.00383217)
(0.0034494 0.0176092 -0.00345854)
(0.00116986 0.0179503 -0.0032418)
(3.30199e-08 -1.36626e-08 -1.32728e-07)
(8.51642e-08 -3.45596e-09 -1.29177e-07)
(1.24654e-07 5.07086e-11 -1.27763e-07)
(1.54106e-07 6.71009e-09 -1.24971e-07)
(1.69429e-07 1.42467e-08 -1.2239e-07)
(1.6781e-07 2.22466e-08 -1.19667e-07)
(1.50767e-07 2.9642e-08 -1.17226e-07)
(1.18977e-07 3.55586e-08 -1.15216e-07)
(7.83892e-08 3.96379e-08 -1.1384e-07)
(2.71343e-08 4.427e-08 -1.12908e-07)
(3.12887e-08 -3.36713e-08 -1.40734e-07)
(8.24285e-08 -1.30365e-08 -1.38696e-07)
(1.26305e-07 -2.75568e-10 -1.37369e-07)
(1.57185e-07 1.97958e-08 -1.35424e-07)
(1.73663e-07 4.31119e-08 -1.32854e-07)
(1.72828e-07 6.75284e-08 -1.30343e-07)
(1.55775e-07 9.03834e-08 -1.28006e-07)
(1.22983e-07 1.09111e-07 -1.26006e-07)
(7.95786e-08 1.22788e-07 -1.24643e-07)
(2.68149e-08 1.34975e-07 -1.23989e-07)
(3.46234e-08 -4.4372e-08 -1.61453e-07)
(9.72497e-08 -2.23419e-08 -1.64545e-07)
(1.47999e-07 3.59912e-09 -1.61514e-07)
(1.84874e-07 3.73531e-08 -1.59135e-07)
(2.04266e-07 7.71748e-08 -1.56023e-07)
(2.03072e-07 1.18489e-07 -1.52628e-07)
(1.82407e-07 1.57739e-07 -1.49376e-07)
(1.44032e-07 1.9032e-07 -1.46707e-07)
(9.13774e-08 2.14484e-07 -1.44783e-07)
(2.98089e-08 2.32731e-07 -1.4389e-07)
(3.9939e-08 -6.94059e-08 -2.01711e-07)
(1.23529e-07 -3.75597e-08 -2.07355e-07)
(1.83996e-07 1.53249e-09 -2.03237e-07)
(2.28747e-07 5.44112e-08 -1.99197e-07)
(2.52797e-07 1.16793e-07 -1.94183e-07)
(2.51603e-07 1.80931e-07 -1.89428e-07)
(2.26339e-07 2.41913e-07 -1.85073e-07)
(1.78902e-07 2.93169e-07 -1.81318e-07)
(1.12171e-07 3.30827e-07 -1.78718e-07)
(3.59201e-08 3.51961e-07 -1.7689e-07)
(4.45824e-08 -8.42941e-08 -2.668e-07)
(1.63148e-07 -4.44069e-08 -2.69604e-07)
(2.36768e-07 2.33399e-08 -2.63425e-07)
(2.97592e-07 9.17442e-08 -2.57486e-07)
(3.28721e-07 1.81277e-07 -2.50976e-07)
(3.26576e-07 2.70481e-07 -2.43834e-07)
(2.93653e-07 3.56042e-07 -2.37279e-07)
(2.32407e-07 4.28809e-07 -2.3171e-07)
(1.46931e-07 4.82069e-07 -2.27688e-07)
(4.88844e-08 5.06659e-07 -2.26712e-07)
(5.52331e-08 -1.46414e-07 -3.58888e-07)
(2.21485e-07 -7.29236e-08 -3.57978e-07)
(3.17553e-07 1.47882e-08 -3.5228e-07)
(3.84372e-07 1.13275e-07 -3.42052e-07)
(4.29672e-07 2.38425e-07 -3.32489e-07)
(4.25047e-07 3.63831e-07 -3.22102e-07)
(3.83864e-07 4.83368e-07 -3.12273e-07)
(3.04447e-07 5.85743e-07 -3.03982e-07)
(1.95629e-07 6.59688e-07 -2.98403e-07)
(6.66279e-08 6.92613e-07 -2.95381e-07)
(5.49723e-08 -1.85872e-07 -4.86863e-07)
(3.11245e-07 -9.94023e-08 -4.82387e-07)
(4.21689e-07 9.47155e-08 -4.72466e-07)
(5.2002e-07 2.09636e-07 -4.57424e-07)
(5.78127e-07 4.06514e-07 -4.43586e-07)
(5.70612e-07 5.8954e-07 -4.2791e-07)
(5.14783e-07 7.68641e-07 -4.14131e-07)
(4.08021e-07 9.2326e-07 -4.02346e-07)
(2.63443e-07 1.03534e-06 -3.93473e-07)
(9.12384e-08 1.08598e-06 -3.89374e-07)
(2.31558e-07 -2.15974e-07 -7.83494e-07)
(3.48694e-07 -1.07736e-07 -7.57133e-07)
(6.55077e-07 4.50286e-08 -7.42976e-07)
(7.88923e-07 8.51277e-08 -7.19802e-07)
(8.8496e-07 1.92493e-07 -6.99051e-07)
(8.64941e-07 2.87334e-07 -6.71769e-07)
(7.82311e-07 3.81874e-07 -6.46701e-07)
(6.21267e-07 4.62763e-07 -6.25623e-07)
(4.02367e-07 5.19687e-07 -6.10792e-07)
(1.40943e-07 5.55856e-07 -6.0151e-07)
(0.000123993 -2.47378e-06 -0.000605548)
(0.000327085 1.66619e-06 -0.000598762)
(0.000501828 8.12762e-06 -0.000584483)
(0.00063068 1.92056e-05 -0.000566519)
(0.000693513 3.16547e-05 -0.000545532)
(0.000688518 4.43326e-05 -0.00052357)
(0.000618101 5.61729e-05 -0.000502875)
(0.00048856 6.60763e-05 -0.000485425)
(0.00031259 7.31841e-05 -0.000472873)
(0.000107083 7.67144e-05 -0.000463257)
(0.000146863 -3.43373e-05 -0.000754098)
(0.000403252 7.20284e-07 -0.000743761)
(0.000617384 5.02251e-05 -0.000726679)
(0.000768226 0.000138653 -0.000702664)
(0.000847945 0.000238227 -0.000675215)
(0.000844918 0.000336904 -0.000647005)
(0.00075985 0.000430941 -0.000620526)
(0.000601185 0.000510294 -0.000598222)
(0.000385382 0.000567641 -0.000582135)
(0.000131847 0.000593935 -0.000569549)
(0.000170812 -5.8243e-05 -0.000899586)
(0.000464836 2.46963e-08 -0.000885626)
(0.000713803 0.000105796 -0.000861933)
(0.000890719 0.000253857 -0.000830103)
(0.000982093 0.000425934 -0.000793642)
(0.000977583 0.000604554 -0.000756084)
(0.000878255 0.000772591 -0.000720938)
(0.000694293 0.000914107 -0.000691412)
(0.000444642 0.00101619 -0.000670117)
(0.00015213 0.00106357 -0.00065412)
(0.00020667 -7.50808e-05 -0.00113946)
(0.000567179 1.31458e-05 -0.00112028)
(0.000871396 0.000177155 -0.00108618)
(0.00108848 0.000402093 -0.00104047)
(0.00119888 0.000663532 -0.000988069)
(0.00119188 0.000934956 -0.000934216)
(0.00106966 0.00119008 -0.000884016)
(0.000844892 0.00140483 -0.000841963)
(0.000540658 0.00155961 -0.000811728)
(0.000184865 0.00163101 -0.000790072)
(0.000259168 -7.7811e-05 -0.0015028)
(0.00071704 4.68356e-05 -0.00147449)
(0.00110271 0.000280658 -0.00142334)
(0.00137704 0.000599555 -0.00135496)
(0.00151489 0.000969431 -0.00127682)
(0.00150405 0.001353 -0.00119681)
(0.00134805 0.00171287 -0.00112251)
(0.00106365 0.00201529 -0.00106053)
(0.000679894 0.00223285 -0.00101622)
(0.000232237 0.00233223 -0.000985766)
(0.000332135 -5.51901e-05 -0.00202869)
(0.000925611 0.00011562 -0.00198563)
(0.00142405 0.000436296 -0.00190763)
(0.00177716 0.000872211 -0.00180369)
(0.00195222 0.0013765 -0.00168543)
(0.0019352 0.00189795 -0.00156492)
(0.00173182 0.00238586 -0.00145359)
(0.00136464 0.00279479 -0.00136128)
(0.000871248 0.00308832 -0.0012956)
(0.000297355 0.00322099 -0.00125195)
(0.000431161 1.21265e-05 -0.00277382)
(0.00120846 0.000242004 -0.00270756)
(0.00185918 0.000672868 -0.00258777)
(0.00231708 0.00125603 -0.00242894)
(0.00254043 0.00192813 -0.00224919)
(0.00251319 0.0026203 -0.00206713)
(0.00224467 0.00326541 -0.00190007)
(0.00176581 0.00380422 -0.0017624)
(0.00112587 0.00418998 -0.00166483)
(0.000383923 0.00436199 -0.00160194)
(0.000563775 0.000158776 -0.00381634)
(0.00158623 0.000464397 -0.00371406)
(0.00243786 0.00103457 -0.00352978)
(0.00303212 0.00180257 -0.00328701)
(0.00331615 0.0026834 -0.0030141)
(0.00327212 0.00358579 -0.00273985)
(0.00291539 0.00442257 -0.00249012)
(0.0022888 0.00511851 -0.00228564)
(0.00145705 0.00561503 -0.00214145)
(0.000496352 0.00583285 -0.00205104)
(0.000739033 0.000442705 -0.00526146)
(0.00208402 0.000843211 -0.00510366)
(0.00319697 0.00158818 -0.00482046)
(0.00396541 0.00258608 -0.0044505)
(0.00432308 0.00372356 -0.00403806)
(0.00425176 0.0048811 -0.0036274)
(0.00377681 0.00594776 -0.00325667)
(0.0029577 0.00683012 -0.00295539)
(0.00187932 0.00745683 -0.00274431)
(0.000639462 0.00772649 -0.00261501)
(0.000966981 0.000954158 -0.00724674)
(0.00273128 0.00147237 -0.0070039)
(0.00418008 0.00243336 -0.00656989)
(0.00516666 0.0037125 -0.0060094)
(0.00561021 0.00515907 -0.00539039)
(0.00549536 0.00661902 -0.00478057)
(0.00486348 0.00795394 -0.00423559)
(0.00379706 0.00905076 -0.00379675)
(0.0024073 0.0098257 -0.00349142)
(0.000818069 0.0101513 -0.00330821)
(0.0012602 0.0018338 -0.00994449)
(0.0035625 0.00249605 -0.00957243)
(0.00543602 0.00371751 -0.0089123)
(0.00668974 0.0053316 -0.0080687)
(0.00722807 0.00713882 -0.00714813)
(0.00704509 0.0089443 -0.00625259)
(0.00620711 0.0105795 -0.00546191)
(0.00482831 0.0119122 -0.00483184)
(0.00305319 0.012848 -0.00439683)
(0.00103603 0.0132292 -0.00414074)
(0.001632 0.00329821 -0.0135555)
(0.00461382 0.00413067 -0.0129892)
(0.0070139 0.00565513 -0.0119978)
(0.00858581 0.007651 -0.0107392)
(0.00922055 0.00985892 -0.00938712)
(0.0089337 0.0120378 -0.00809126)
(0.00782921 0.0139889 -0.00696286)
(0.00606392 0.015564 -0.00607408)
(0.00382298 0.0166621 -0.00546588)
(0.00129497 0.0170911 -0.00511401)
(3.44909e-08 -2.37551e-08 -1.65215e-07)
(8.9834e-08 -1.11605e-08 -1.63839e-07)
(1.27211e-07 -7.11231e-09 -1.61706e-07)
(1.57491e-07 -2.82717e-10 -1.57949e-07)
(1.72544e-07 7.81496e-09 -1.54835e-07)
(1.70936e-07 1.61295e-08 -1.51395e-07)
(1.5345e-07 2.37238e-08 -1.48282e-07)
(1.21011e-07 2.99016e-08 -1.45716e-07)
(7.9717e-08 3.42396e-08 -1.43918e-07)
(2.76972e-08 3.87443e-08 -1.42817e-07)
(2.9953e-08 -6.3703e-08 -1.79155e-07)
(8.39942e-08 -3.56401e-08 -1.75301e-07)
(1.27919e-07 -2.20546e-08 -1.74402e-07)
(1.60238e-07 -1.46624e-09 -1.71125e-07)
(1.76818e-07 2.2679e-08 -1.67977e-07)
(1.75918e-07 4.79432e-08 -1.64402e-07)
(1.5848e-07 7.16094e-08 -1.61316e-07)
(1.25072e-07 9.09524e-08 -1.58703e-07)
(8.12444e-08 1.05076e-07 -1.56917e-07)
(2.77095e-08 1.17332e-07 -1.55992e-07)
(3.50899e-08 -9.3722e-08 -2.0876e-07)
(9.81907e-08 -6.2087e-08 -2.07018e-07)
(1.50946e-07 -3.54716e-08 -2.04978e-07)
(1.88745e-07 -5.14665e-10 -2.00952e-07)
(2.08163e-07 4.10514e-08 -1.96947e-07)
(2.07218e-07 8.38736e-08 -1.92736e-07)
(1.86046e-07 1.24293e-07 -1.88564e-07)
(1.46759e-07 1.57958e-07 -1.85061e-07)
(9.35074e-08 1.8272e-07 -1.82687e-07)
(3.06123e-08 2.01757e-07 -1.81402e-07)
(4.23761e-08 -1.37034e-07 -2.59873e-07)
(1.24155e-07 -9.87167e-08 -2.60611e-07)
(1.88406e-07 -5.77543e-08 -2.56909e-07)
(2.34805e-07 -3.30903e-09 -2.51629e-07)
(2.58979e-07 6.08849e-08 -2.45611e-07)
(2.5724e-07 1.27246e-07 -2.39126e-07)
(2.31206e-07 1.90021e-07 -2.33636e-07)
(1.82633e-07 2.4298e-07 -2.28835e-07)
(1.14647e-07 2.81995e-07 -2.25643e-07)
(3.67943e-08 3.03408e-07 -2.23272e-07)
(4.88826e-08 -1.73437e-07 -3.39868e-07)
(1.66677e-07 -1.32485e-07 -3.39544e-07)
(2.43982e-07 -6.33826e-08 -3.33063e-07)
(3.05223e-07 8.04021e-09 -3.25031e-07)
(3.36768e-07 9.99381e-08 -3.17017e-07)
(3.34799e-07 1.92154e-07 -3.08292e-07)
(3.00765e-07 2.80862e-07 -3.00016e-07)
(2.38154e-07 3.56334e-07 -2.93163e-07)
(1.50665e-07 4.1154e-07 -2.87857e-07)
(5.06685e-08 4.37178e-07 -2.85819e-07)
(6.07333e-08 -2.6652e-07 -4.54334e-07)
(2.26026e-07 -1.96853e-07 -4.5191e-07)
(3.2667e-07 -1.06356e-07 -4.45135e-07)
(3.96306e-07 -3.56552e-09 -4.32734e-07)
(4.41579e-07 1.25692e-07 -4.20789e-07)
(4.36984e-07 2.55671e-07 -4.07344e-07)
(3.94584e-07 3.79522e-07 -3.95165e-07)
(3.12767e-07 4.85372e-07 -3.84378e-07)
(2.00964e-07 5.62164e-07 -3.76806e-07)
(6.83706e-08 5.97575e-07 -3.727e-07)
(6.26231e-08 -3.69385e-07 -6.13808e-07)
(3.19067e-07 -2.88794e-07 -6.09893e-07)
(4.36141e-07 -9.55271e-08 -5.97628e-07)
(5.36453e-07 2.86554e-08 -5.79462e-07)
(5.95199e-07 2.30188e-07 -5.61943e-07)
(5.87834e-07 4.2168e-07 -5.42199e-07)
(5.29651e-07 6.08166e-07 -5.23999e-07)
(4.19986e-07 7.69248e-07 -5.08894e-07)
(2.71518e-07 8.87144e-07 -4.97767e-07)
(9.39634e-08 9.4114e-07 -4.9168e-07)
(2.2917e-07 -2.99681e-07 -9.85926e-07)
(3.69593e-07 -2.01162e-07 -9.611e-07)
(6.76061e-07 -5.42475e-08 -9.44197e-07)
(8.14908e-07 -6.975e-09 -9.13839e-07)
(9.13205e-07 1.02269e-07 -8.84284e-07)
(8.95351e-07 2.01261e-07 -8.49045e-07)
(8.09108e-07 2.99613e-07 -8.16519e-07)
(6.41766e-07 3.8411e-07 -7.89335e-07)
(4.14928e-07 4.44577e-07 -7.70458e-07)
(1.4519e-07 4.8354e-07 -7.59761e-07)
(0.000128613 -1.96444e-05 -0.000767663)
(0.000339516 -1.49922e-05 -0.000758252)
(0.000520608 -7.38878e-06 -0.000740335)
(0.000653486 4.88069e-06 -0.000717195)
(0.000718441 1.84354e-05 -0.000690422)
(0.000713244 3.22539e-05 -0.000662515)
(0.000640227 4.52981e-05 -0.000636229)
(0.00050593 5.61331e-05 -0.000614055)
(0.000323619 6.38967e-05 -0.00059815)
(0.000110823 6.7793e-05 -0.000586023)
(0.000153167 -0.000157352 -0.000953025)
(0.000419158 -0.000120069 -0.000940453)
(0.000641226 -6.36277e-05 -0.000918498)
(0.00079788 3.06846e-05 -0.000888537)
(0.000880208 0.000137421 -0.00085398)
(0.000876678 0.00024396 -0.000818251)
(0.000788205 0.000345294 -0.000784641)
(0.000623523 0.000430669 -0.000756338)
(0.000399666 0.00049215 -0.000735876)
(0.000136771 0.000521129 -0.000719825)
(0.000179166 -0.000282489 -0.00113826)
(0.00048641 -0.00021919 -0.00112131)
(0.000745993 -0.000103496 -0.0010914)
(0.000930393 5.74126e-05 -0.00105102)
(0.00102511 0.0002441 -0.00100469)
(0.00101986 0.000437707 -0.000956852)
(0.000915874 0.000619606 -0.000912085)
(0.000723861 0.000772654 -0.000874486)
(0.000463508 0.000882965 -0.000847377)
(0.000158587 0.000935564 -0.000827092)
(0.000218436 -0.000426985 -0.00144581)
(0.000598099 -0.00033008 -0.00142173)
(0.00091804 -0.000149933 -0.00137794)
(0.00114563 9.6417e-05 -0.00131948)
(0.00126076 0.000382272 -0.00125245)
(0.0012525 0.000678535 -0.00118357)
(0.00112342 0.000956563 -0.00111937)
(0.000886993 0.00119027 -0.00106563)
(0.000567386 0.00135846 -0.0010271)
(0.000193973 0.00143828 -0.000999611)
(0.000276992 -0.000597008 -0.00191187)
(0.000763421 -0.000457988 -0.00187531)
(0.00117245 -0.000198489 -0.00180945)
(0.00146254 0.000154595 -0.00172149)
(0.00160715 0.000563114 -0.00162104)
(0.00159407 0.000985761 -0.00151827)
(0.00142753 0.00138142 -0.00142293)
(0.00112557 0.00171321 -0.00134356)
(0.000719057 0.00195149 -0.00128692)
(0.000245564 0.00206375 -0.00124806)
(0.000359244 -0.000798894 -0.00258912)
(0.000996567 -0.000605412 -0.00253299)
(0.00153055 -0.000244176 -0.00243176)
(0.00190713 0.000245013 -0.00229724)
(0.0020918 0.000809091 -0.00214434)
(0.00207067 0.0013905 -0.00198882)
(0.00185073 0.00193283 -0.00184541)
(0.00145683 0.00238615 -0.00172673)
(0.000929415 0.00271093 -0.00164234)
(0.000317143 0.00286259 -0.00158645)
(0.000473054 -0.00103634 -0.00355441)
(0.00131805 -0.000771107 -0.00346715)
(0.00202275 -0.000277322 -0.00331047)
(0.00251563 0.000387904 -0.0031034)
(0.00275241 0.0011513 -0.00286944)
(0.00271757 0.00193408 -0.00263319)
(0.00242294 0.00266065 -0.00241692)
(0.00190334 0.00326545 -0.00223902)
(0.00121235 0.00369735 -0.00211307)
(0.000413272 0.00389679 -0.00203229)
(0.000628406 -0.00130458 -0.0049155)
(0.00175544 -0.000944683 -0.00477973)
(0.00268936 -0.000277358 -0.00453656)
(0.00333544 0.000616001 -0.00421712)
(0.00363757 0.00163483 -0.00385903)
(0.00357961 0.00267252 -0.00350061)
(0.00318171 0.00362966 -0.0031752)
(0.00249309 0.00442215 -0.00290938)
(0.00158493 0.00498558 -0.00272233)
(0.000539644 0.00524251 -0.00260562)
(0.000838472 -0.00158441 -0.00682246)
(0.00234503 -0.00109996 -0.00661105)
(0.00358309 -0.000205318 -0.00623319)
(0.00442727 0.000982259 -0.00574057)
(0.00480824 0.00232616 -0.0051938)
(0.00471171 0.00368337 -0.00465222)
(0.00417192 0.00492528 -0.00416528)
(0.00325864 0.00594645 -0.00377098)
(0.0020668 0.00666851 -0.00349541)
(0.000702791 0.00699296 -0.00332754)