/*--------------------------------*- C++ -*----------------------------------*\
| =========                 |                                                 |
| \\      /  F ield         | OpenFOAM: The Open Source CFD Toolbox           |
|  \\    /   O peration     | Version:  2312                                  |
|   \\  /    A nd           | Website:  www.openfoam.com                      |
|    \\/     M anipulation  |                                                 |
\*---------------------------------------------------------------------------*/
FoamFile
{
    version     2.0;
    format      ascii;
    arch        "LSB;label=32;scalar=64";
    class       volScalarField;
    location    "0.59";
    object      alpha.water;
}
// * * * * * * * * * * * * * * * * * * * * * * * * * * * * * * * * * * * * * //

dimensions      [0 0 0 0 0 0 0];

internalField   nonuniform List<scalar> 
8000
(
1
1
1
1
1
1
1
1
1
1
1
1
1
1
1
1
1
1
1
1
1
1
1
1
1
1
1
1
1
1
1
1
1
1
1
1
1
1
1
1
0.999998
0.999995
0.999999
1
1
1
1
1
1
1
0.999908
0.99984
0.999957
0.999993
0.999999
1
1
1
1
1
0.976618
0.928363
0.959135
0.989923
0.999912
0.99998
0.999998
1
1
1
0.375144
0.230178
0.29346
0.430161
0.616173
0.758925
0.785852
0.819088
0.865699
0.887783
2.29975e-07
2.27986e-07
2.26908e-07
2.27986e-07
2.29791e-07
0.0371872
0.114161
0.20823
0.353627
0.461706
2.33562e-07
2.26908e-07
2.2599e-07
2.26908e-07
2.38188e-07
1.17811e-06
3.45702e-05
0.00233205
0.00891657
0.0167157
2.84998e-07
2.2599e-07
2.23262e-07
2.2599e-07
2.41283e-07
4.82318e-07
9.78315e-06
8.89945e-05
0.000292832
0.000660013
1.33753e-05
2.35437e-06
2.21449e-07
2.23262e-07
2.35061e-07
3.6513e-07
1.98512e-05
4.63201e-05
5.50467e-05
0.000116135
0.000102366
2.96117e-05
2.22253e-07
2.20784e-07
2.26328e-07
7.95123e-07
3.81056e-06
3.75143e-06
1.02339e-05
1.90185e-05
0.000121228
5.33596e-05
3.55873e-06
2.29294e-07
9.26305e-07
7.72672e-07
8.5014e-07
1.29647e-06
2.63905e-06
3.08711e-06
8.92742e-05
7.55547e-05
3.52971e-05
2.68328e-07
3.49495e-06
1.56418e-05
1.86548e-05
1.50438e-05
3.05718e-05
1.81612e-05
4.6737e-05
7.50562e-05
5.0554e-05
3.67805e-07
3.37157e-06
3.70131e-05
3.59965e-05
3.46597e-05
4.1732e-05
4.14712e-05
1.43023e-05
7.086e-05
2.22077e-05
1.99827e-06
1.0269e-05
1.13667e-05
2.15291e-05
9.95675e-06
2.6338e-05
4.00569e-05
2.39749e-06
1.21111e-05
1.01962e-06
5.27075e-06
3.64158e-05
2.73596e-08
3.87251e-07
1.42921e-08
5.78243e-07
6.38078e-06
1.9591e-06
1.36747e-06
2.84182e-06
1.45948e-05
2.78487e-05
1.13358e-10
6.07567e-10
4.24131e-10
1.55224e-09
6.57763e-09
6.61525e-05
1.1526e-06
4.55961e-06
6.28765e-05
2.79543e-05
5.20292e-12
1.21206e-11
9.96759e-12
3.93472e-11
1.75609e-10
1
1
1
1
1
1
1
1
1
1
1
1
1
1
1
1
1
1
1
1
1
1
1
1
1
1
1
1
1
1
1
0.999999
1
1
1
1
1
1
1
1
0.999995
0.999976
0.999994
0.999999
1
1
1
1
1
1
0.999815
0.999386
0.999804
0.999972
0.999997
1
1
1
1
1
0.918377
0.769986
0.869365
0.970584
0.999349
0.99998
0.999999
1
1
1
0.212838
0.0731855
0.15426
0.34306
0.578001
0.756261
0.846162
0.888129
0.894633
0.905488
2.34521e-07
2.29493e-07
2.27505e-07
2.29232e-07
2.66241e-07
0.0271619
0.0840899
0.169566
0.324911
0.480262
2.32839e-07
2.27388e-07
2.26908e-07
2.27382e-07
2.29232e-07
2.66247e-07
1.37127e-06
5.7778e-05
0.00137276
0.0120102
2.47055e-07
5.08909e-07
2.2599e-07
2.28456e-07
2.51873e-07
1.30924e-06
2.57759e-05
4.52057e-05
0.000122101
0.000257468
1.89556e-06
2.33496e-06
2.2254e-07
2.28142e-07
2.50817e-07
2.32831e-06
2.43175e-05
2.72501e-05
2.1254e-05
2.83533e-05
0.000109631
2.25076e-07
2.19218e-07
6.66281e-07
2.64314e-07
3.59338e-07
8.87709e-06
2.30284e-05
4.53521e-06
3.65348e-06
0.000203956
4.23562e-07
2.25076e-07
2.9286e-06
6.39682e-06
5.72532e-06
1.874e-05
4.14028e-05
1.83784e-05
5.055e-07
0.000203956
2.26869e-05
2.56654e-07
2.81869e-07
1.8225e-05
4.1336e-05
4.15912e-05
4.16641e-05
4.17301e-05
3.04125e-05
0.00018123
1.21478e-05
2.1986e-07
1.33603e-06
2.39871e-05
3.74869e-05
1.32562e-05
3.30653e-05
4.17301e-05
4.17301e-05
0.000177987
5.11535e-06
4.11053e-07
2.0989e-05
3.64053e-05
5.84557e-06
1.68357e-07
4.96674e-06
3.17646e-05
3.95978e-05
0.000160893
2.72127e-06
6.265e-07
1.62652e-05
3.65915e-05
7.76863e-06
6.6121e-10
1.51164e-07
1.67241e-06
5.44278e-06
0.000123839
9.58796e-07
7.42397e-06
1.21526e-05
3.67713e-05
8.526e-06
1.71647e-11
1.58975e-08
1.34653e-09
3.94145e-09
0.000139935
5.42972e-07
6.46439e-05
4.83175e-05
1.98107e-05
5.7189e-06
3.65545e-13
7.95296e-12
3.34966e-11
1.0481e-10
1
1
1
1
1
1
1
1
1
1
1
1
1
1
1
1
1
1
1
1
1
1
1
1
1
1
1
1
1
1
1
1
1
1
1
1
1
1
1
1
0.999999
0.999994
0.999998
1
1
1
1
1
1
1
0.999954
0.9998
0.999935
0.999991
0.999999
1
1
1
1
1
0.957885
0.8662
0.935117
0.991689
0.999928
0.999988
0.999998
1
1
1
0.291534
0.149974
0.264095
0.473258
0.671448
0.792542
0.870416
0.906591
0.913601
0.931259
2.3571e-07
2.31812e-07
2.2894e-07
2.39564e-07
0.00952384
0.0491558
0.103195
0.191256
0.324361
0.439554
2.31812e-07
2.2894e-07
2.27357e-07
2.2894e-07
2.39566e-07
3.24434e-07
2.23118e-06
0.000102057
0.000696749
0.00451228
2.35711e-07
2.31812e-07
2.19722e-07
2.39554e-07
3.2438e-07
3.12887e-05
0.000146215
2.45665e-05
5.19762e-05
0.000224084
2.52675e-07
2.23255e-07
1.99499e-07
2.20976e-07
6.40114e-06
2.24684e-05
2.70688e-05
8.06301e-06
4.49381e-06
6.07495e-05
6.3201e-06
3.57248e-07
1.77459e-07
6.68491e-07
1.21521e-06
1.05342e-06
7.08631e-06
1.07151e-05
1.84141e-06
4.41758e-06
0.000104943
3.49971e-07
3.63108e-07
1.99232e-06
9.9793e-07
2.53602e-06
9.41876e-06
2.50321e-05
1.97694e-05
2.0656e-07
0.00020373
4.33188e-05
3.5654e-07
3.30366e-06
1.46608e-05
1.14295e-05
9.45029e-06
1.65083e-05
1.97846e-05
4.46234e-06
0.000204226
9.88226e-05
5.90533e-08
2.37141e-06
3.03306e-05
3.03927e-05
2.62401e-06
9.09172e-06
1.99326e-05
5.05803e-06
6.88667e-05
6.41229e-05
5.81328e-06
4.18112e-08
2.96966e-05
3.19266e-05
6.63623e-10
3.75077e-06
1.07816e-05
3.7452e-06
4.76897e-05
1.47748e-05
3.57725e-07
1.30602e-07
2.57034e-05
3.20867e-05
1.97248e-11
1.03837e-08
2.7954e-07
8.87411e-07
3.17537e-05
4.80955e-08
5.58482e-05
9.93673e-05
4.33001e-05
3.57002e-05
5.18083e-13
7.40498e-11
1.43135e-10
3.47858e-10
4.46579e-05
1.35926e-09
0.000192692
0.000200159
5.65404e-05
3.96791e-05
2.05483e-14
5.91202e-13
3.55519e-12
8.97971e-12
1
1
1
1
1
1
1
1
1
1
1
1
1
1
1
1
1
1
1
1
1
1
1
1
1
1
1
1
1
1
1
1
1
1
1
1
1
1
1
1
1
0.999999
1
1
1
1
1
1
1
1
0.999993
0.999972
0.999991
0.999998
1
1
1
1
1
1
0.991457
0.969105
0.99122
0.999881
0.999975
0.999996
1
1
1
1
0.443511
0.337509
0.46881
0.632824
0.733919
0.813403
0.881829
0.934797
0.956144
0.966861
2.40791e-07
2.45109e-07
2.71734e-07
0.000380742
0.0281179
0.0593258
0.099797
0.173585
0.289358
0.428934
2.35711e-07
2.31812e-07
2.2894e-07
2.86389e-07
3.24434e-07
5.01703e-07
4.97415e-06
5.26105e-05
0.00040818
0.00336093
5.67805e-07
3.86713e-07
1.23529e-06
3.62578e-06
5.42104e-07
9.61037e-06
1.04872e-05
6.55713e-06
5.31869e-05
0.000843318
2.68949e-06
3.58442e-06
5.86652e-07
9.22928e-07
3.22253e-06
6.40777e-06
4.97729e-06
2.06471e-06
0.000115769
0.00144261
1.32067e-07
1.77702e-07
1.66293e-07
1.48108e-07
4.12739e-06
7.44564e-06
2.19821e-06
1.67511e-06
1.45294e-06
0.000116743
7.37455e-08
3.66875e-07
1.60352e-07
1.4031e-07
7.65595e-07
1.62384e-05
2.39826e-05
2.7396e-06
8.64654e-07
1.05866e-08
5.39419e-08
2.77584e-08
4.2527e-07
1.68274e-07
3.15196e-08
2.87018e-06
1.95996e-05
4.9614e-06
4.11178e-06
1.04743e-08
1.87711e-06
4.27509e-09
5.77956e-08
1.50922e-07
2.74108e-07
2.81459e-07
3.99056e-06
4.45573e-06
1.51187e-08
1.09497e-08
1.832e-09
2.72295e-09
4.27509e-09
9.00077e-09
2.68503e-07
6.387e-07
7.97262e-07
1.15649e-06
3.24741e-09
8.68232e-09
9.19467e-10
1.832e-09
1.05321e-06
1.49678e-05
2.49191e-08
3.37428e-07
2.62688e-10
1.68865e-09
6.92545e-10
3.03915e-09
8.8344e-10
9.19467e-10
7.72348e-05
0.000165126
2.678e-09
4.79076e-07
1.45045e-11
3.54391e-11
4.64094e-10
2.39227e-10
8.88956e-10
8.84222e-10
6.55982e-05
0.000200067
4.221e-07
8.82048e-07
5.18084e-13
1.69116e-12
4.89778e-10
5.09787e-12
1
1
1
1
1
1
1
1
1
1
1
1
1
1
1
1
1
1
1
1
1
1
1
1
1
1
1
1
1
1
1
1
1
1
1
1
1
1
0.999998
0.999994
1
1
1
1
1
1
1
1
1
1
0.999999
0.999997
0.999999
1
1
1
1
1
1
1
0.999922
0.999336
0.99993
0.999975
0.999994
1
1
1
1
1
0.639328
0.578316
0.671361
0.736965
0.789831
0.84143
0.90099
0.966682
1
1
2.5019e-07
5.33427e-07
0.0101332
0.0299678
0.0515496
0.0721574
0.101672
0.183917
0.348067
0.535861
2.58376e-07
2.56453e-07
2.71734e-07
3.34295e-07
5.01703e-07
1.19135e-06
1.77929e-06
2.72463e-05
0.00175229
0.0376899
4.92541e-06
6.97862e-06
1.32316e-05
1.89511e-05
2.64837e-05
1.07293e-06
1.85192e-06
6.97531e-05
0.000704723
0.00211219
9.1834e-06
8.52355e-06
2.48404e-07
6.56421e-07
8.28633e-07
8.47941e-07
1.03453e-06
4.47084e-06
0.000629367
0.00165619
2.40039e-06
1.04994e-06
2.36617e-07
1.40158e-07
7.51475e-07
2.18001e-06
1.63074e-06
6.65858e-06
2.62888e-07
1.05865e-08
2.21662e-06
2.86485e-06
7.12135e-07
1.16593e-07
7.03242e-08
3.23937e-06
5.15727e-05
7.33929e-05
1.92848e-05
1.04651e-08
1.15458e-06
7.72178e-07
4.18736e-07
1.18236e-06
1.22563e-08
1.2786e-06
5.44879e-05
0.000139801
5.08881e-05
1.04743e-08
4.89442e-08
1.24533e-08
5.32391e-08
5.70044e-06
4.5214e-09
2.74727e-07
1.68223e-05
4.31642e-05
3.87683e-07
1.04669e-08
2.38282e-08
4.86645e-09
9.00077e-09
5.3698e-06
3.29792e-09
4.5214e-09
2.02766e-08
1.58134e-07
1.47788e-06
2.24777e-07
2.38428e-08
2.72295e-09
2.58037e-05
2.63941e-05
2.678e-09
3.29792e-09
1.10369e-08
2.13721e-07
2.03556e-07
3.83538e-06
2.20807e-09
1.31263e-07
6.61339e-06
3.39066e-05
2.37852e-09
2.63396e-09
2.62501e-10
8.76265e-08
1.53808e-07
6.18899e-06
8.89024e-10
1.23896e-09
1.08663e-06
3.24891e-05
2.21859e-09
2.35116e-09
1.45044e-11
3.89921e-09
9.09457e-08
3.18441e-06
1
1
1
1
1
1
1
1
1
1
1
1
1
1
1
1
1
1
1
1
1
1
1
1
1
1
1
1
1
1
1
1
1
1
1
1
1
0.999999
1
1
1
1
1
1
1
1
1
1
0.996812
0.975933
1
1
1
1
1
1
1
1
1
0.895063
0.999983
0.99998
0.999989
0.999996
1
1
1
1
1
0.965917
0.775628
0.76172
0.79774
0.818975
0.844088
0.871857
0.914774
0.984564
1
0.999881
0.0448936
0.0287455
0.0527438
0.0633219
0.0725431
0.0837363
0.110365
0.219679
0.495453
0.573311
4.1433e-07
5.44771e-07
7.58636e-07
9.38943e-07
1.21846e-06
1.77918e-06
6.73424e-06
4.91284e-05
0.011875
0.206573
2.1256e-05
6.29622e-05
1.22712e-05
7.40869e-06
8.53138e-05
8.90822e-05
1.46299e-05
5.18288e-05
0.0296533
0.0845386
7.2175e-06
5.25686e-07
2.51406e-07
1.4659e-06
1.93324e-05
8.53052e-07
2.6129e-05
0.000408224
0.000305233
7.34317e-06
3.07443e-06
1.17919e-06
8.63554e-07
2.35914e-06
4.5775e-08
6.09326e-08
2.41729e-06
0.000991926
0.00325323
2.62888e-07
2.99877e-06
2.93444e-06
2.50311e-06
2.30767e-06
4.07036e-08
4.57744e-08
4.23487e-05
0.00041751
9.23363e-05
1.05866e-08
2.16342e-06
7.78678e-07
7.43579e-07
1.57671e-05
2.46869e-08
4.807e-07
1.56707e-05
0.000321127
4.91427e-05
3.49508e-06
1.90048e-06
1.25385e-06
7.74023e-07
2.55557e-05
1.91815e-08
1.00269e-07
2.22996e-06
4.2347e-05
7.76611e-06
1.15724e-05
4.27798e-06
1.50646e-07
1.01963e-05
2.55423e-05
2.85969e-08
2.60918e-08
1.25826e-07
6.9633e-07
1.97828e-05
3.26803e-05
6.37489e-07
5.61511e-07
4.5823e-08
8.81685e-06
3.29792e-09
1.0157e-08
9.65901e-08
7.56225e-07
2.48902e-05
9.76142e-05
2.30794e-09
2.29167e-07
1.23701e-08
5.70775e-09
2.88854e-09
3.60435e-09
1.43898e-08
2.54985e-06
2.37317e-06
9.75683e-05
7.76441e-09
2.65335e-09
1.91918e-09
9.38077e-09
3.24562e-09
1.39754e-07
2.40754e-09
2.84054e-07
1.29476e-09
4.35862e-05
1
1
1
1
1
1
1
1
1
1
1
1
1
1
1
1
0.999997
0.999999
1
1
1
1
1
1
1
1
0.999992
0.999964
0.999997
1
1
1
1
1
1
1
0.999985
0.99999
1
1
1
1
1
1
1
1
0.999998
1
0.977455
0.909761
1
1
1
1
1
1
1
1
0.82087
0.739674
0.999998
0.999999
1
1
1
1
1
1
0.927474
0.739674
0.792742
0.851955
0.875321
0.889714
0.905149
0.918258
0.94616
0.9746
0.999881
0.848272
0.133011
0.0922013
0.109452
0.103465
0.100667
0.110133
0.158371
0.359294
0.628499
0.88333
8.77185e-07
1.17719e-06
2.41779e-06
1.37185e-06
6.5197e-06
6.80809e-06
4.91341e-05
0.000429358
0.0472055
0.745922
3.07242e-05
9.8234e-05
5.0519e-07
7.03161e-07
7.18724e-05
0.000135865
6.44074e-05
9.34496e-05
0.0851778
0.210591
1.86939e-06
4.77541e-07
2.76331e-07
3.99059e-07
8.11308e-05
7.19394e-05
3.20932e-05
0.0159096
0.0866368
0.00744644
7.72773e-07
4.27836e-07
3.84667e-07
7.74261e-06
2.04997e-07
2.98428e-07
0.00183646
0.0179126
0.021887
7.34317e-06
7.13987e-07
5.76142e-07
4.27836e-07
2.19656e-05
4.5775e-08
1.1424e-07
0.00230982
0.0061979
2.62106e-05
1.63588e-05
8.6055e-07
1.65351e-06
2.57006e-06
2.44637e-05
3.74066e-08
4.00808e-05
0.000703568
4.78884e-05
2.93979e-05
0.000112078
6.50769e-06
2.40564e-06
7.86641e-06
9.75493e-06
5.0027e-08
5.80912e-07
1.25169e-06
5.07666e-06
7.9875e-06
0.000120239
7.31384e-06
9.53862e-07
7.70857e-06
6.89438e-07
3.16304e-08
1.25826e-07
2.60298e-05
1.0476e-05
1.96768e-05
6.72437e-05
1.43662e-06
5.45474e-08
1.48793e-06
6.51286e-07
1.32068e-08
2.89037e-06
8.20637e-05
3.12627e-05
5.33388e-05
3.69443e-05
2.0579e-10
4.19305e-08
4.07241e-08
1.51146e-07
5.70668e-09
2.29936e-06
3.66358e-05
1.74375e-05
2.17249e-05
5.78741e-06
2.00888e-11
2.19908e-09
8.60257e-09
4.35207e-08
9.41219e-09
1.28606e-05
3.11347e-05
4.69832e-06
4.12687e-09
5.8175e-08
1
1
1
1
1
1
1
1
1
1
1
1
1
1
1
1
0.999998
0.999918
0.999965
1
1
1
1
1
1
1
0.999954
0.999885
0.999969
1
1
1
1
1
1
0.999999
0.999988
1
1
0.999947
1
1
1
1
1
1
1
0.993245
0.953764
0.996654
1
1
1
1
1
1
1
0.941387
0.854629
0.99615
1
1
1
1
1
1
1
0.978433
0.761945
0.979654
0.821681
0.892209
0.911365
0.942469
0.971044
0.992124
0.989797
0.970963
0.681097
0.846054
0.229624
0.186859
0.193028
0.174251
0.18067
0.222063
0.337393
0.596188
0.67489
0.748913
1.37098e-06
3.76868e-06
3.58214e-05
1.21986e-05
2.22468e-05
3.30048e-05
9.80451e-05
0.104016
0.658245
0.484427
1.98674e-06
3.55831e-06
2.21987e-06
1.15419e-06
1.22016e-05
3.4566e-05
4.38082e-05
0.0467889
0.639302
0.100961
9.78236e-07
7.33297e-07
3.9879e-07
7.0309e-07
0.000234565
0.000258162
9.81453e-05
0.126999
0.389476
0.00408396
8.19171e-07
7.47564e-06
4.47765e-07
3.42373e-06
0.000539052
5.35888e-05
0.0124816
0.0915577
0.0131121
9.76978e-05
2.99601e-06
2.7777e-06
5.0613e-07
4.95964e-05
0.000539199
6.16235e-05
0.00614303
0.0257811
0.000112213
2.62003e-05
9.0535e-07
1.11192e-06
2.21519e-06
0.000273657
0.000345198
1.58545e-05
0.00135209
0.000255523
2.44944e-05
4.01847e-05
5.35616e-06
8.71553e-07
3.35465e-05
0.000437508
0.00018172
1.25169e-06
2.06181e-05
3.0787e-05
8.29029e-06
4.83493e-05
6.72593e-06
5.10959e-07
6.42968e-05
0.000437869
7.6764e-05
6.59265e-05
0.000109973
1.39543e-05
1.41543e-05
3.55356e-05
1.62093e-06
2.34882e-07
2.93107e-05
0.000202936
6.88133e-06
0.000394577
0.000457408
7.9941e-05
5.46425e-05
2.3659e-06
2.74868e-09
6.71572e-07
3.60468e-05
1.37963e-06
2.26189e-07
0.000124953
0.000220073
8.37987e-05
2.2784e-05
4.18418e-07
2.0579e-10
7.59211e-08
2.08397e-06
1.04444e-06
3.53792e-07
1.42839e-05
0.000103221
8.05664e-05
1.51215e-05
1.09391e-07
1
1
1
1
1
1
1
1
1
1
1
1
1
1
1
1
0.999999
0.999972
0.999989
1
1
1
1
1
1
1
0.999999
0.999885
0.99998
1
1
1
1
1
1
1
1
1
1
1
1
1
1
1
1
0.999027
0.982357
0.968524
0.992395
1
1
1
1
1
1
1
0.859118
0.825344
0.958073
0.999951
1
1
1
1
1
1
0.961478
0.825126
0.973035
0.988964
0.868687
0.898725
0.91796
0.958528
1
1
0.999924
0.857991
0.890736
0.721737
0.317169
0.303766
0.308643
0.287504
0.348759
0.497279
0.622621
0.836335
0.584185
0.272147
0.000246058
0.000597921
0.000703992
0.000258027
3.24522e-05
0.00444531
0.0552873
0.697899
0.164483
0.0215421
4.21155e-06
5.25167e-05
3.30699e-05
4.68976e-06
8.04824e-06
9.34754e-06
0.0295358
0.513221
0.00637433
0.0031077
1.65412e-06
5.15542e-06
2.1524e-06
1.1381e-06
7.30671e-06
8.04851e-06
0.0476084
0.342362
0.00187762
0.00068531
9.30183e-07
2.15268e-05
4.11825e-06
4.2882e-06
7.61939e-06
0.000649404
0.0831237
0.212155
0.000551419
0.000143568
8.46898e-06
4.7306e-06
1.4834e-06
6.70859e-06
1.45156e-05
0.0193998
0.148666
0.0390017
0.000143762
4.21826e-05
2.86926e-06
1.90898e-06
4.1973e-06
2.58372e-05
8.53568e-05
0.0493235
0.118742
0.000155414
4.74668e-05
4.58913e-05
5.58231e-06
1.29823e-06
7.38427e-06
0.00024802
0.00819386
0.0337473
0.0188786
0.00015213
7.73625e-05
4.18492e-05
1.52972e-06
7.74507e-07
3.04902e-06
0.00279027
0.00945899
0.00537932
0.000108498
0.000712869
0.00168767
3.26705e-05
5.88181e-07
3.78984e-07
2.84671e-05
0.00361349
0.00617687
0.000553614
0.000206819
0.00060073
0.00225588
2.41955e-05
2.52689e-08
9.95788e-08
0.00026932
0.00214443
0.00192157
0.000158373
7.49363e-05
9.18918e-05
0.000696643
1.1996e-05
2.74868e-09
4.65354e-08
0.000169891
0.000760223
0.000542936
1.40744e-05
6.41618e-06
0.000117838
6.36445e-05
4.18418e-07
1
1
1
1
1
1
1
1
1
0.970447
1
1
1
1
1
1
1
1
1
0.970345
1
1
1
1
1
1
1
0.999993
1
0.967995
1
1
1
1
1
1
1
1
1
0.968313
1
1
1
1
0.999791
1
0.940529
0.995044
1
0.991423
1
1
1
1
1
0.876965
0.814775
0.984129
0.999926
0.999507
1
1
1
1
1
0.916818
0.814775
0.959998
0.999482
0.961867
0.897362
0.912726
0.933341
0.96452
0.993509
0.992124
0.930103
0.814051
0.856235
0.571446
0.428806
0.467276
0.439672
0.416443
0.511584
0.684591
0.854546
0.686065
0.393766
0.0664249
0.0049437
0.0120857
0.0072903
0.00308508
0.0096645
0.0717963
0.439753
0.572335
0.032049
0.00808583
0.000152872
0.000380872
0.000279625
0.000113563
3.23981e-05
0.000116212
0.221813
0.453374
0.00582003
0.00279631
1.68445e-05
4.41018e-05
2.51357e-05
4.73892e-06
8.04837e-06
0.0108433
0.139721
0.403653
0.00189808
0.000900452
2.74281e-06
2e-05
6.04749e-06
0.000333089
0.00289387
0.00410425
0.191733
0.308457
0.000611098
0.000647598
8.50183e-06
1.60498e-05
0.00110463
0.00228545
0.00147562
0.0245285
0.190898
0.0715893
0.000248289
0.000650386
4.82316e-06
0.000329814
0.00139984
0.00195762
0.00187266
0.0580009
0.129044
0.000183291
0.000172934
0.00121199
1.21404e-05
0.000156324
0.000418702
0.0002557
0.0100311
0.0544692
0.00494171
0.000169777
0.000389832
0.00197726
5.33154e-06
3.45285e-06
4.59045e-05
5.57474e-05
0.0166475
0.0350999
2.3341e-05
0.000374743
0.00288547
0.00301921
6.70669e-06
4.45196e-06
6.4843e-06
0.00214867
0.0156667
0.00425187
0.0001186
0.000227413
0.00117367
0.00298337
3.11328e-07
6.98176e-07
5.60376e-06
0.00636873
0.0134622
0.000125029
2.87459e-05
1.54829e-05
3.6246e-05
0.000495296
5.39324e-08
3.53848e-07
0.000430237
0.00468089
0.00487522
2.85893e-05
5.46027e-06
3.59734e-06
2.79579e-06
1.30099e-06
1
1
1
1
1
1
1
1
1
0.976422
1
1
1
1
1
1
1
1
1
0.979326
1
1
1
1
1
1
1
0.999994
1
0.96755
1
1
1
1
1
1
1
1
1
0.979509
1
1
1
1
1
1
0.993852
0.995565
0.999932
0.999733
1
1
1
1
0.982471
0.874938
0.865935
0.993458
0.999891
0.998383
1
1
1
1
0.999276
0.920425
0.814775
0.96892
0.958477
0.847572
0.891799
0.91097
0.933878
0.963552
0.993898
0.995947
0.856525
0.808414
0.693169
0.46238
0.489976
0.508009
0.467932
0.44234
0.544351
0.635158
0.857803
0.738311
0.473197
0.188562
0.0179323
0.0244515
0.00932022
0.00496567
0.0180177
0.0616626
0.857803
0.630021
0.168164
0.0127085
0.000337327
0.000629155
0.000679288
0.0012744
0.00196017
0.252595
0.785659
0.194578
0.00341367
0.00243495
4.50332e-05
0.000121864
0.000418971
0.000116403
0.0442726
0.231602
0.199907
0.00077533
0.000830638
0.000988536
1.10881e-05
5.16501e-05
2.74242e-05
0.0137387
0.0488812
0.0408239
0.000171139
0.00869608
0.000224894
0.00086197
9.74586e-06
1.3414e-05
0.00828159
0.0157083
0.0153527
2.86696e-06
0.000264948
0.00363428
0.000244839
0.0142745
0.00020386
0.00452521
0.00939223
0.00968327
1.77518e-06
2.29519e-06
4.41758e-06
1.05673e-05
0.00212117
0.027073
0.00180623
0.0042604
0.00457104
0.000122738
5.35947e-06
7.08602e-06
5.18285e-06
7.58147e-06
0.00316255
0.025667
0.00138828
0.00132407
4.00342e-05
9.18424e-06
8.35066e-06
9.13386e-06
8.34445e-06
0.000473441
0.00143593
0.0242901
0.000168931
4.89438e-05
1.19414e-05
3.22673e-05
0.000143247
0.000376283
0.000304297
0.000188394
1.21582e-05
0.00535419
4.02231e-07
7.97966e-07
4.34511e-06
0.000654361
0.0018687
0.00199964
0.00096983
3.13238e-06
1.58361e-06
3.13269e-06
1.59262e-08
2.45109e-07
2.45221e-06
0.000891709
0.00318626
0.00266204
0.000580349
1.48012e-06
1.55921e-06
1.58361e-06
1
1
1
1
1
1
1
1
1
1
1
1
1
1
1
1
0.999999
0.999984
0.999994
1
1
1
1
1
1
1
0.999999
0.999906
0.999959
1
1
1
1
1
1
1
0.999995
1
1
1
1
1
1
1
0.999992
1
1
0.999021
0.997301
0.999895
1
1
1
1
1
1
0.96466
0.922151
0.994831
0.999878
1
1
1
1
1
1
0.987703
0.899392
0.936227
0.938643
0.875498
0.896949
0.914301
0.947167
0.999568
1
0.971512
0.928894
0.935856
0.896919
0.392717
0.316978
0.330901
0.336891
0.384923
0.378389
0.68404
0.92186
0.887144
0.740337
0.00816507
0.000875917
0.00256141
0.00314247
0.0195136
0.46515
0.786789
0.601559
0.303848
0.137454
0.000160011
0.000140399
0.000548369
0.0221938
0.233778
0.290396
0.238446
0.0149688
0.00220448
0.000820975
3.91156e-05
0.00014955
0.0138153
0.035783
0.0184085
1.88129e-06
1.20975e-05
8.16767e-05
0.000460119
0.000637063
1.29015e-05
0.000572186
0.0150003
0.0153195
1.75915e-06
4.33816e-07
8.01754e-05
2.18674e-05
9.84922e-05
0.000296832
1.3414e-05
0.0022161
0.00760104
8.81018e-05
1.23732e-06
5.09036e-07
5.14647e-06
9.20355e-06
9.73044e-05
0.000108658
0.00259561
0.004512
0.00295629
1.31489e-06
1.56815e-06
1.23732e-06
2.2946e-06
4.67815e-06
2.31747e-05
4.57502e-07
0.00422177
0.00425939
0.00236427
5.35947e-06
1.77519e-06
2.2952e-06
3.9231e-06
3.15694e-06
5.27067e-05
3.45629e-05
0.00422177
0.00417064
0.000486296
8.35066e-06
6.12386e-06
6.12363e-06
5.18284e-06
0.000199821
5.84664e-05
5.84734e-05
0.00067861
0.00103888
3.04469e-06
8.12859e-06
7.94381e-06
3.64904e-06
0.000779222
0.000179496
6.07746e-06
3.2129e-05
3.28957e-06
1.95581e-06
1.88154e-06
3.04469e-06
0.000101859
0.0010522
0.00116901
0.000130597
3.4054e-06
0.000113178
1.48205e-07
8.10909e-08
2.00678e-07
1.22371e-06
0.00045233
0.00174817
0.00111279
5.5648e-05
1.19441e-06
8.13271e-05
1
1
1
1
1
1
1
1
1
1
1
1
1
1
1
1
0.999999
0.999926
0.999979
1
1
1
1
1
1
1
0.999946
0.999903
0.999961
0.999997
1
1
1
1
1
1
0.999972
0.999966
0.999992
1
1
1
1
1
1
1
1
1
1
1
1
1
1
1
1
1
1
0.999029
0.917655
0.872872
1
1
1
1
1
1
1
0.999996
0.847618
0.831524
0.829794
0.888278
0.901296
0.925292
0.958678
0.984673
1
0.999984
0.933297
0.942807
0.233329
0.172687
0.186555
0.175454
0.190355
0.248489
0.397166
0.495062
0.771377
0.939443
0.00140333
2.26473e-06
3.65874e-05
0.000284143
0.000662411
0.00297491
0.0519343
0.191047
0.31373
0.384133
1.67294e-05
1.39863e-05
5.28614e-05
0.00680805
0.0371703
0.049251
1.1601e-05
2.86857e-05
7.20291e-05
0.000135131
2.32825e-05
0.000171264
0.00172352
0.00278227
0.00136242
2.21116e-07
7.23112e-07
4.58921e-06
1.53133e-05
1.5658e-05
9.20269e-06
0.000135095
0.0021517
0.000753885
4.34667e-07
2.03946e-07
4.34499e-07
2.54829e-06
1.98345e-05
6.49835e-06
1.29015e-05
0.000239475
0.00121812
9.58549e-05
3.6196e-07
3.45526e-07
1.26741e-06
1.05333e-05
2.34131e-05
4.46787e-07
0.00173803
0.00290622
0.000510968
7.06737e-07
1.03028e-06
2.31919e-06
9.89345e-06
6.93195e-06
9.25777e-06
3.36639e-07
0.00362462
0.00417064
0.00247142
7.08015e-06
7.92888e-05
0.000136252
7.60881e-06
1.65068e-06
6.22565e-07
4.57502e-07
0.0023279
0.00338465
0.00195744
0.000106065
6.78906e-05
7.98945e-05
4.0052e-05
0.000233571
9.40981e-07
6.22565e-07
0.000178536
0.000237598
0.000120275
0.000150527
2.94633e-05
4.01062e-07
0.000474785
0.000383858
9.76021e-06
7.68342e-06
8.51815e-07
4.28084e-07
1.37293e-07
3.66162e-06
3.13929e-07
4.97402e-05
0.000985157
0.000196042
6.08777e-06
4.88496e-05
3.4798e-08
1.63388e-08
1.43316e-08
6.91467e-08
1.03796e-06
5.94875e-05
0.00045107
5.92698e-05
5.45699e-06
8.7735e-05
1
1
1
1
1
1
1
1
1
1
1
1
1
1
1
1
0.999997
1
1
1
1
1
1
1
1
1
0.999995
0.999965
0.999996
1
1
1
1
1
1
1
0.999989
0.999988
1
0.997477
1
1
1
1
1
1
0.999998
1
1
0.917762
1
1
1
1
1
1
1
1
1
0.778246
0.999998
0.999999
0.999987
1
1
1
1
1
1
0.908575
0.789807
0.840101
0.858788
0.867327
0.887037
0.910532
0.957173
1
1
0.999989
0.129411
0.0820381
0.0942004
0.0932848
0.0906894
0.112689
0.18296
0.380418
0.629804
0.818092
1.92583e-06
2.15504e-07
8.17159e-07
1.14947e-05
9.85289e-05
0.000484757
0.0067434
0.0866768
0.171687
0.174447
2.16058e-06
1.13297e-05
3.41307e-05
3.24e-05
2.09357e-05
1.66125e-07
4.69545e-07
2.73476e-06
1.4119e-05
2.18684e-05
2.68584e-06
2.25703e-05
3.19084e-06
5.46087e-06
2.48662e-05
1.98263e-07
2.20352e-07
3.62141e-07
3.34832e-06
7.10853e-06
8.63397e-06
3.01047e-05
1.45438e-06
2.2789e-07
1.79421e-06
1.88195e-07
2.03843e-07
6.8882e-06
3.40358e-05
2.48069e-05
4.15771e-05
3.57746e-05
4.43177e-06
1.8224e-07
1.7714e-07
1.7174e-07
7.71191e-06
4.60058e-06
2.18719e-05
1.16001e-05
0.000185347
0.000159129
5.88879e-07
4.49451e-07
4.65188e-07
2.46568e-05
3.93343e-05
2.63171e-06
8.68097e-07
4.9385e-07
0.000215093
0.000803353
0.000244393
0.000328047
0.000330056
0.000330588
4.83201e-05
5.73086e-05
5.98891e-06
6.7321e-07
8.29026e-05
0.00020872
0.000382144
0.00040577
0.000287615
0.000111598
1.39516e-05
0.00015797
1.34733e-05
1.99664e-06
3.20527e-05
2.19941e-05
3.25041e-05
5.47731e-05
1.16725e-05
3.06384e-08
8.18141e-06
0.000137282
2.13462e-05
0.000231011
3.54744e-07
5.05569e-07
1.43243e-07
1.16823e-07
1.18047e-07
1.13333e-07
3.00526e-05
3.55535e-05
3.52129e-05
0.000417541
3.97675e-09
1.98686e-09
1.1008e-09
3.993e-09
4.67239e-08
2.12843e-07
6.00661e-07
6.91119e-07
0.000120479
0.000417541
1
1
1
1
1
1
1
1
1
1
1
1
1
1
1
1
1
1
1
1
1
1
1
1
1
1
1
1
1
1
1
1
1
1
1
1
1
1
0.999996
1
1
1
1
1
1
1
1
1
1
0.894832
1
1
1
1
1
1
1
1
1
0.976816
0.999981
0.999976
0.999987
0.999996
1
1
1
1
1
1
0.772739
0.744961
0.777258
0.793387
0.815008
0.848691
0.908671
0.983408
1
0.999948
0.0440478
0.0225987
0.0393546
0.0480154
0.0530714
0.0615452
0.104619
0.251937
0.565023
0.740408
1.46834e-07
1.55493e-07
1.98043e-07
8.17159e-07
1.11957e-05
6.0087e-05
0.000367789
0.0110763
0.0556375
0.081286
2.33794e-07
3.76737e-07
2.94677e-07
2.75595e-07
5.04382e-07
1.98216e-07
2.28268e-07
3.60069e-07
2.72044e-06
8.4833e-06
1.29442e-06
7.61355e-06
3.57189e-07
2.81056e-07
1.9236e-07
1.88191e-07
1.98263e-07
2.28169e-07
2.88108e-06
8.05306e-06
1.08624e-05
1.12295e-05
2.00305e-07
1.82238e-07
1.77142e-07
1.57505e-07
1.88089e-07
2.08011e-06
2.10872e-05
2.69404e-05
1.87168e-05
2.12403e-07
1.82241e-07
1.76993e-07
1.5084e-07
1.00185e-07
2.30546e-07
4.13239e-06
2.7219e-05
2.73555e-05
6.31267e-07
5.05849e-07
4.83899e-07
5.47103e-07
1.60089e-05
4.0761e-05
2.46041e-07
8.49835e-07
1.17921e-05
1.74399e-05
1.91678e-06
1.14909e-06
1.14051e-06
2.24309e-05
8.73758e-05
9.84043e-05
4.6396e-06
8.43587e-07
1.1706e-06
9.82897e-07
7.7881e-07
4.88175e-07
2.04223e-07
7.36375e-05
8.83664e-05
3.39077e-05
1.13673e-07
6.9891e-07
1.47376e-06
1.12677e-06
7.12611e-07
1.40544e-07
8.44874e-07
1.48638e-05
3.06384e-08
1.18095e-08
2.08367e-08
4.1668e-08
1.69584e-06
5.77495e-05
9.15741e-08
6.25474e-07
3.97503e-08
3.99321e-09
1.20633e-07
5.46891e-09
3.50146e-08
8.08526e-09
5.33607e-06
0.000133192
4.12285e-10
5.59546e-08
8.61785e-11
1.1008e-09
3.99321e-09
6.50484e-09
1.19511e-08
1.32433e-09
2.36462e-05
0.000106473
1
1
1
1
1
1
1
1
1
1
1
1
1
1
1
1
1
1
1
1
1
1
1
1
1
1
1
1
1
1
1
1
1
1
1
1
1
1
0.999991
0.999872
1
1
1
1
1
1
1
1
0.999999
1
0.999999
0.999997
0.999999
1
1
1
1
1
1
1
0.999912
0.998859
0.999919
0.999971
0.999994
1
1
1
1
1
0.633932
0.559464
0.652542
0.712656
0.758268
0.806753
0.876996
0.953667
0.990146
0.994141
1.40671e-07
1.54666e-07
0.00279774
0.0171289
0.0315372
0.0462003
0.0796354
0.188919
0.421922
0.612647
1.40825e-07
1.41422e-07
1.51183e-07
1.98043e-07
5.18142e-07
1.40098e-06
0.000189382
3.67223e-06
0.00357284
0.0298705
1.46826e-07
5.25158e-07
1.60017e-07
2.15826e-07
4.07988e-07
3.29957e-07
5.21378e-07
6.94897e-07
8.7449e-07
2.55297e-06
1.41202e-06
2.58232e-06
1.92297e-07
3.17839e-07
2.77035e-07
1.64719e-07
2.46334e-07
6.47034e-07
9.64506e-07
2.76235e-06
1.97719e-06
1.93302e-07
2.02998e-07
2.0032e-07
1.64876e-07
1.23101e-07
1.64796e-07
4.67208e-06
1.03926e-06
1.52368e-06
2.11753e-07
1.97698e-07
5.05994e-07
1.55938e-07
1.00187e-07
7.94419e-08
1.00143e-07
3.52249e-06
1.13944e-05
1.99595e-05
2.28567e-07
3.77804e-06
2.70665e-05
4.64815e-06
1.58005e-07
6.67979e-08
7.67021e-08
7.28147e-06
3.1601e-05
2.89536e-05
6.31278e-07
4.95073e-07
3.31474e-05
4.25731e-05
7.01083e-07
3.57874e-08
8.74174e-08
1.30108e-06
2.50531e-05
2.83525e-05
1.31542e-07
1.07795e-07
4.95035e-08
5.94341e-05
2.39255e-06
1.18095e-08
9.83085e-08
4.8921e-08
6.08677e-06
1.78396e-05
1.18038e-08
2.41759e-08
1.16357e-08
4.10694e-05
2.80491e-06
4.92762e-09
1.00158e-08
1.18863e-08
7.94784e-07
5.38414e-07
6.85739e-10
3.76314e-09
8.11172e-09
1.67799e-05
1.71267e-06
7.3062e-10
4.95374e-10
3.64197e-09
6.25257e-07
5.82511e-12
5.98494e-11
1.81404e-10
5.74677e-07
9.81211e-05
5.60127e-06
1.95553e-10
1.23603e-10
3.40483e-09
2.38142e-13
9.15362e-13
1
1
1
1
1
1
1
1
1
1
1
1
1
1
1
1
1
1
1
1
1
1
1
1
1
1
1
1
1
1
1
1
1
1
1
1
1
1
1
1
1
0.999999
1
1
1
1
1
1
1
1
0.999993
0.999969
0.99999
0.999998
1
1
1
1
1
1
0.991952
0.968017
0.990146
0.999766
0.999969
0.999996
1
1
1
1
0.448923
0.332878
0.456746
0.60782
0.704641
0.779435
0.854539
0.914324
0.941588
0.957949
1.4067e-07
1.40487e-07
1.50355e-07
3.78178e-07
0.0139837
0.0368954
0.0740453
0.158055
0.321745
0.476181
1.40487e-07
1.40595e-07
1.41422e-07
1.51183e-07
3.78178e-07
2.38907e-06
2.97682e-05
1.27923e-05
0.000200868
0.00539752
1.40821e-07
1.50853e-07
1.53142e-07
1.60016e-07
5.91117e-07
3.88911e-06
9.14194e-07
2.82884e-06
6.17107e-06
3.38175e-05
1.72216e-07
1.51728e-07
1.66417e-07
2.38209e-06
5.09547e-06
5.50323e-06
8.76162e-06
4.82687e-06
1.03926e-06
3.45286e-06
1.77663e-07
1.7731e-07
3.80504e-07
9.26306e-06
1.61405e-05
6.4487e-07
1.49305e-05
1.88894e-05
1.26249e-06
3.93161e-06
1.97698e-07
1.93302e-07
1.97697e-07
4.83352e-06
9.99184e-06
9.0225e-08
1.84088e-05
6.57369e-05
2.64901e-05
2.21102e-06
2.11753e-07
1.97698e-07
3.81563e-05
8.59593e-06
6.36572e-07
4.89469e-08
8.14894e-06
7.56605e-05
4.59349e-05
2.09563e-06
4.55677e-05
5.16467e-07
0.000139994
9.09064e-05
1.22922e-06
3.24486e-08
1.45623e-06
4.89372e-05
6.96743e-05
2.20104e-06
8.82869e-05
1.30846e-05
0.000122792
0.000111997
2.83001e-06
4.92762e-09
1.10142e-07
1.62361e-05
3.82011e-05
2.5874e-06
0.00013275
1.62865e-05
8.4186e-05
9.68e-05
2.40346e-06
7.3062e-10
1.12784e-08
2.04119e-06
6.07891e-06
7.47071e-07
4.46713e-05
2.41759e-08
0.00010954
6.56968e-05
4.28971e-07
2.59912e-10
1.96938e-10
1.32045e-10
7.54182e-10
2.46881e-09
6.85739e-10
2.43947e-09
0.000178025
6.46228e-05
1.12312e-06
2.97366e-11
9.24122e-12
9.56816e-11
8.96352e-12
5.82511e-12
1
1
1
1
1
1
1
1
1
1
1
1
1
1
1
1
1
1
1
1
1
1
1
1
1
1
1
1
1
1
1
1
1
1
1
1
1
1
1
1
0.999999
0.999994
0.999998
1
1
1