/*--------------------------------*- C++ -*----------------------------------*\
| =========                 |                                                 |
| \\      /  F ield         | OpenFOAM: The Open Source CFD Toolbox           |
|  \\    /   O peration     | Version:  2312                                  |
|   \\  /    A nd           | Website:  www.openfoam.com                      |
|    \\/     M anipulation  |                                                 |
\*---------------------------------------------------------------------------*/
FoamFile
{
    version     2.0;
    format      ascii;
    arch        "LSB;label=32;scalar=64";
    class       surfaceScalarField;
    location    "0.59";
    object      phi;
}
// * * * * * * * * * * * * * * * * * * * * * * * * * * * * * * * * * * * * * //

dimensions      [0 3 -1 0 0 0 0];

oriented        oriented;

internalField   nonuniform List<scalar> 
22600
(
1.88569e-07
-3.77937e-07
1.89367e-07
4.09306e-07
-4.16021e-07
1.95284e-07
5.7303e-07
-3.40749e-07
1.77026e-07
6.61193e-07
-2.50427e-07
1.62264e-07
6.78691e-07
-1.6601e-07
1.48512e-07
6.31291e-07
-8.60031e-08
1.33403e-07
5.25638e-07
-1.18361e-08
1.17489e-07
3.76355e-07
4.88909e-08
1.00392e-07
1.98642e-07
9.20562e-08
8.56564e-08
1.15214e-07
7.24466e-08
1.76575e-07
-7.31309e-07
1.76798e-07
4.10327e-07
-8.2655e-07
1.76776e-07
5.75517e-07
-6.62682e-07
1.56743e-07
6.57884e-07
-4.75351e-07
1.42557e-07
6.70253e-07
-3.07313e-07
1.28933e-07
6.22849e-07
-1.51651e-07
1.13052e-07
5.23918e-07
-8.60123e-09
9.5697e-08
3.8258e-07
1.11118e-07
7.91102e-08
2.07236e-07
2.00444e-07
6.69567e-08
2.49813e-07
5.68527e-08
2.31767e-07
-1.19414e-06
2.31068e-07
5.58812e-07
-1.37666e-06
2.23071e-07
7.59702e-07
-1.03401e-06
1.70435e-07
8.44883e-07
-7.09567e-07
1.49035e-07
8.46267e-07
-4.4849e-07
1.39793e-07
7.78917e-07
-2.11145e-07
1.26843e-07
6.48376e-07
1.1625e-08
1.10315e-07
4.69047e-07
1.96308e-07
9.414e-08
2.5283e-07
3.35834e-07
8.08257e-08
4.12492e-07
7.2072e-08
4.27029e-07
-2.03325e-06
4.12073e-07
8.89178e-07
-2.27947e-06
4.40659e-07
1.07275e-06
-1.50221e-06
2.84635e-07
1.11666e-06
-9.39968e-07
1.86483e-07
1.08974e-06
-5.81605e-07
1.60039e-07
9.94996e-07
-2.712e-07
1.54797e-07
8.32651e-07
2.63177e-08
1.47653e-07
6.04882e-07
2.85103e-07
1.38975e-07
3.2885e-07
4.77106e-07
1.3476e-07
5.84191e-07
1.34482e-07
7.30091e-07
-3.45996e-06
6.96619e-07
1.28899e-06
-3.61822e-06
7.79854e-07
1.40964e-06
-2.20551e-06
5.82651e-07
1.37226e-06
-1.29471e-06
3.92114e-07
1.30212e-06
-8.07246e-07
2.95779e-07
1.19033e-06
-4.3443e-07
2.7502e-07
1.00267e-06
-6.48687e-08
2.78851e-07
7.28143e-07
2.73667e-07
2.8596e-07
3.95338e-07
5.04408e-07
3.05502e-07
6.43043e-07
3.1922e-07
8.57092e-07
-5.17922e-06
8.62175e-07
1.32698e-06
-5.13495e-06
1.04684e-06
1.42877e-06
-3.18772e-06
8.80417e-07
1.3905e-06
-1.94188e-06
6.85442e-07
1.27626e-06
-1.23851e-06
5.4551e-07
1.13963e-06
-7.77319e-07
4.79527e-07
9.74289e-07
-3.45371e-07
4.45839e-07
7.00745e-07
1.31696e-07
4.15515e-07
3.77092e-07
4.24926e-07
4.03135e-07
5.97619e-07
4.01869e-07
9.80495e-07
-7.24508e-06
1.08536e-06
1.44171e-06
-7.22431e-06
1.62815e-06
1.65188e-06
-4.73865e-06
1.34076e-06
1.77271e-06
-2.97966e-06
9.16936e-07
1.75035e-06
-1.83324e-06
6.17087e-07
1.57937e-06
-1.01766e-06
4.11326e-07
1.28406e-06
-2.62137e-07
2.12074e-07
9.2728e-07
4.65759e-07
2.27205e-08
5.27113e-07
8.8336e-07
-5.82672e-08
1.06366e-06
-4.96654e-08
1.29367e-06
-9.98347e-06
1.44472e-06
1.82019e-06
-9.82254e-06
2.07171e-06
2.27787e-06
-6.86254e-06
1.66621e-06
2.74599e-06
-4.43978e-06
9.92008e-07
3.20267e-06
-2.86418e-06
5.74248e-07
3.35115e-06
-1.46041e-06
2.94267e-07
3.16767e-06
-1.05218e-07
2.656e-08
2.4908e-06
1.33898e-06
-1.96342e-07
1.45798e-06
2.24034e-06
-3.24166e-07
2.71072e-06
-3.41703e-07
7.9994e-07
-1.15571e-05
7.73649e-07
6.49106e-07
-1.00766e-05
4.04854e-07
3.75388e-07
-6.74134e-06
1.52513e-07
1.0241e-07
-4.17187e-06
5.07241e-09
7.43459e-07
-4.03027e-06
5.25039e-07
3.91415e-06
-5.46203e-06
8.30931e-07
5.557e-06
-2.61978e-06
8.7171e-07
5.58261e-06
7.11466e-07
6.01905e-07
3.61857e-06
4.01444e-06
1.89935e-07
6.60736e-06
-2.33436e-08
-1.16342e-06
-9.40279e-06
-9.90846e-07
-2.0777e-06
-7.15876e-06
-2.00352e-06
-1.78493e-06
-6.07084e-06
-9.6327e-07
-1.05049e-06
-4.9331e-06
2.67801e-08
-2.35531e-06
-3.83242e-06
1.10698e-06
-8.10596e-06
-1.83122e-06
2.11984e-06
-9.97864e-06
3.33846e-07
-1.08095e-06
-7.03853e-06
3.59914e-06
-5.82778e-06
-4.74602e-06
7.72978e-06
-6.00784e-06
1.0173e-05
-4.38415e-06
-2.46115e-06
-4.81493e-06
-2.12671e-06
-3.50031e-06
-3.47771e-06
-2.64189e-06
-4.31302e-06
-3.63962e-06
-1.61852e-06
-4.4672e-06
-3.73268e-06
-1.04623e-06
-4.74746e-06
-3.30833e-06
-2.4384e-07
-6.55384e-06
-1.11121e-06
1.08638e-06
-9.89255e-06
2.03347e-06
1.63908e-06
-1.12061e-05
5.55901e-06
-6.46358e-07
-1.00309e-05
1.10422e-05
-4.48753e-06
1.53379e-05
-7.69922e-06
-1.78573e-06
-1.56942e-06
-1.45979e-06
-2.78935e-06
-1.07575e-06
-1.39834e-06
-4.12384e-06
-1.14465e-06
-1.16048e-06
-5.15363e-06
-1.33477e-06
-1.36811e-06
-6.23275e-06
-1.29282e-06
-9.3639e-07
-7.32059e-06
8.80042e-08
-1.1138e-07
-9.19251e-06
3.10969e-06
7.95703e-07
-1.14924e-05
6.77996e-06
1.07895e-06
-1.08459e-05
1.12375e-05
-8.41851e-07
1.53366e-05
-3.66588e-06
-9.61721e-07
2.24478e-07
-8.32175e-07
-1.83541e-06
6.40116e-07
-8.42174e-07
-3.19776e-06
1.11296e-06
-8.95255e-07
-4.19689e-06
1.13204e-06
-1.46769e-06
-5.29591e-06
1.00522e-06
-1.19903e-06
-6.45792e-06
1.71586e-06
-4.65845e-07
-7.35769e-06
3.80064e-06
2.08813e-07
-8.40269e-06
6.9722e-06
8.52756e-07
-8.34118e-06
1.00972e-05
1.07881e-06
1.27112e-05
-6.74707e-08
-7.99705e-07
1.61422e-06
-5.90035e-07
-1.54839e-06
2.15542e-06
-7.66614e-07
-2.93069e-06
3.00674e-06
-5.11479e-07
-3.81222e-06
3.24646e-06
-1.23289e-06
-4.48528e-06
3.02575e-06
-1.34747e-06
-5.11251e-06
3.28564e-06
-9.42561e-07
-5.34472e-06
4.36334e-06
-3.30489e-07
-5.17311e-06
6.37455e-06
4.26032e-07
-4.67349e-06
8.48113e-06
1.11644e-06
9.80037e-06
1.56583e-06
-1.13885e-06
2.6836e-06
6.94754e-08
-1.47706e-06
3.2633e-06
-7.6968e-07
-2.67477e-06
4.13907e-06
6.53847e-08
-3.49812e-06
4.37601e-06
-3.062e-07
-3.90139e-06
3.94525e-06
-5.16229e-07
-4.08932e-06
4.1458e-06
-6.72231e-07
-3.87434e-06
4.8014e-06
-6.53046e-07
-3.23005e-06
5.88708e-06
-1.56826e-07
-2.30109e-06
7.02706e-06
5.25105e-07
7.71043e-06
1.1991e-06
-1.48647e-06
3.6104e-06
5.59676e-07
-1.73904e-06
4.22245e-06
-7.0657e-07
-2.49109e-06
4.67861e-06
2.12503e-07
-2.8854e-06
4.31635e-06
4.53964e-07
-2.94997e-06
3.51931e-06
4.90515e-07
-3.12372e-06
4.14014e-06
1.79412e-07
-2.90569e-06
4.78886e-06
-2.05478e-07
-2.26775e-06
5.44873e-06
-1.9958e-07
-1.40418e-06
5.99857e-06
1.64912e-07
6.21803e-06
7.65565e-07
-1.81861e-06
4.6193e-06
8.09698e-07
-2.1529e-06
5.32054e-06
-7.63803e-07
-2.38019e-06
4.92553e-06
-1.96365e-08
-2.18473e-06
3.59326e-06
5.27628e-07
-1.82714e-06
2.10486e-06
1.05686e-06
-1.89818e-06
3.2646e-06
9.46582e-07
-1.84301e-06
4.12682e-06
6.06871e-07
-1.46919e-06
4.62669e-06
4.48214e-07
-9.50508e-07
4.98989e-06
4.90001e-07
5.01003e-06
7.70144e-07
-1.93264e-06
5.50621e-06
1.04573e-06
-2.28099e-06
6.6508e-06
-9.81907e-07
-2.02062e-06
5.44596e-06
-7.80794e-07
-1.70112e-06
3.31009e-06
-3.63287e-08
-1.50412e-06
9.85889e-07
9.21973e-07
-1.29251e-06
1.9847e-06
1.06828e-06
-1.01817e-06
2.91751e-06
9.34971e-07
-7.44896e-07
3.37417e-06
9.79245e-07
-4.7552e-07
3.75534e-06
9.6517e-07
3.84511e-06
9.8467e-07
-1.69271e-06
5.78582e-06
1.4131e-06
-2.01828e-06
8.15151e-06
-1.17514e-06
-1.34854e-06
6.52574e-06
-1.74952e-06
-8.76508e-07
4.00819e-06
-1.17013e-06
-1.1847e-06
8.62594e-07
4.31486e-07
-1.23061e-06
1.27978e-06
7.50839e-07
-8.3747e-07
1.98114e-06
5.43227e-07
-5.3137e-07
2.32275e-06
7.45325e-07
-2.72658e-07
2.64167e-06
8.54962e-07
2.80694e-06
8.53792e-07
-1.28378e-06
1.78008e-06
5.28952e-06
-1.74447e-06
-9.96204e-07
9.6084e-06
-7.88918e-07
-2.30967e-06
7.87985e-06
1.31954e-08
-2.08337e-06
5.28945e-06
-5.52509e-07
1.94634e-07
1.23367e-06
-9.81264e-07
6.27458e-07
1.08108e-06
-7.72134e-07
1.82127e-07
1.58989e-06
-5.17356e-07
2.7553e-07
1.79244e-06
-2.28017e-07
3.78615e-07
1.97372e-06
4.34649e-07
2.09434e-06
1.94401e-07
-4.17871e-07
4.12837e-07
4.43763e-07
-5.01608e-07
4.47532e-07
6.32962e-07
-4.23254e-07
4.11081e-07
7.38756e-07
-3.20751e-07
3.77221e-07
7.68471e-07
-2.30974e-07
3.49771e-07
7.28175e-07
-1.52317e-07
3.26016e-07
6.22323e-07
-8.35251e-08
3.06866e-07
4.5869e-07
-2.66913e-08
2.90717e-07
2.48219e-07
1.38422e-08
2.82285e-07
2.94165e-08
2.73212e-07
1.75696e-07
-8.3108e-07
4.14311e-07
4.46819e-07
-1.04888e-06
4.52928e-07
6.46529e-07
-8.71078e-07
4.04857e-07
7.49201e-07
-6.41744e-07
3.60878e-07
7.71602e-07
-4.50945e-07
3.26503e-07
7.25305e-07
-2.90264e-07
2.97295e-07
6.1633e-07
-1.52236e-07
2.73383e-07
4.51682e-07
-3.85842e-08
2.55652e-07
2.44279e-07
3.80891e-08
2.50112e-07
6.00562e-08
2.48614e-07
2.22689e-07
-1.38791e-06
5.65208e-07
6.26327e-07
-1.86352e-06
6.34064e-07
8.77569e-07
-1.47483e-06
5.22944e-07
9.77603e-07
-1.02661e-06
4.33865e-07
9.82486e-07
-6.95992e-07
3.79958e-07
9.13206e-07
-4.3273e-07
3.3859e-07
7.71913e-07
-2.04212e-07
3.03584e-07
5.635e-07
-1.40129e-08
2.77982e-07
3.05912e-07
1.08244e-07
2.68259e-07
1.44193e-07
2.66445e-07
4.58404e-07
-2.32038e-06
8.86143e-07
1.1034e-06
-3.14947e-06
1.08162e-06
1.37269e-06
-2.29816e-06
8.38676e-07
1.39331e-06
-1.45741e-06
5.96661e-07
1.32224e-06
-9.34087e-07
4.69209e-07
1.19699e-06
-5.58908e-07
4.0623e-07
1.00439e-06
-2.28704e-07
3.64737e-07
7.3542e-07
5.86953e-08
3.3524e-07
4.0419e-07
2.52922e-07
3.21313e-07
3.34991e-07
3.13602e-07
8.23463e-07
-3.72509e-06
1.27786e-06
1.67842e-06
-4.84286e-06
1.6183e-06
1.965e-06
-3.34569e-06
1.3436e-06
1.90886e-06
-1.97587e-06
9.66714e-07
1.74458e-06
-1.17802e-06
7.03982e-07
1.5455e-06
-6.59913e-07
5.75106e-07
1.28094e-06
-1.9358e-07
5.08291e-07
9.34492e-07
2.17459e-07
4.73644e-07
5.08647e-07
5.18305e-07
4.65965e-07
6.87237e-07
4.53329e-07
1.07061e-06
-5.31465e-06
1.38113e-06
1.94686e-06
-6.58409e-06
1.91182e-06
2.20674e-06
-4.41403e-06
1.68888e-06
2.1661e-06
-2.59361e-06
1.34382e-06
1.9799e-06
-1.49286e-06
1.04655e-06
1.72295e-06
-7.76529e-07
8.531e-07
1.42844e-06
-1.90424e-07
7.37189e-07
1.04939e-06
3.72294e-07
6.3973e-07
5.67141e-07
8.44212e-07
5.59476e-07
1.12412e-06
5.1466e-07
1.59031e-06
-7.3651e-06
1.54549e-06
2.28771e-06
-7.99016e-06
2.33683e-06
2.46295e-06
-5.19991e-06
1.9514e-06
2.55099e-06
-3.23936e-06
1.47466e-06
2.43804e-06
-1.88384e-06
1.12101e-06
2.12716e-06
-8.742e-07
8.19883e-07
1.68347e-06
-6.03931e-08
5.25732e-07
1.25459e-06
5.78081e-07
2.45817e-07
7.45421e-07
1.24635e-06
4.87575e-08
1.71073e-06
1.4322e-08
1.95363e-06
-9.74224e-06
1.86824e-06
2.03888e-06
-8.30558e-06
2.30186e-06
2.20521e-06
-5.34256e-06
1.64253e-06
2.81694e-06
-4.03515e-06
1.17607e-06
3.41136e-06
-2.83244e-06
9.28418e-07
3.4271e-06
-1.29866e-06
7.02988e-07
2.97965e-06
1.11224e-07
3.02385e-07
2.13695e-06
1.36735e-06
-1.42914e-07
1.14567e-06
2.30835e-06
-3.94885e-07
2.88857e-06
-5.15541e-07
2.71846e-07
-1.01134e-05
8.72964e-07
-6.72276e-07
-6.907e-06
-4.95972e-08
-1.28828e-06
-3.58886e-06
-9.85189e-07
-1.5048e-06
-2.68305e-06
-1.1305e-06
3.20867e-07
-3.58957e-06
-5.435e-07
4.5524e-06
-5.04133e-06
3.42072e-07
6.27248e-06
-1.60446e-06
8.67301e-07
5.93416e-06
1.77891e-06
5.28673e-07
3.70259e-06
4.7818e-06
-5.19548e-08
6.96757e-06
-1.40002e-07
-2.53046e-06
-7.29043e-06
-1.28335e-06
-3.92054e-06
-4.73022e-06
-2.79022e-06
-3.16521e-06
-3.97879e-06
-1.32866e-06
-1.78307e-06
-3.71041e-06
-3.28009e-07
-3.96195e-07
-3.37824e-06
-4.91232e-07
2.41076e-07
-1.91375e-06
-1.64501e-06
-2.31122e-06
1.34211e-06
-1.47522e-06
-5.12255e-06
5.35194e-06
-6.58948e-06
-4.31179e-06
5.56723e-06
-7.60404e-06
7.26103e-06
-5.94186e-06
-3.5137e-06
-3.70993e-06
-2.19351e-06
-4.76834e-06
-3.17405e-06
-2.94342e-06
-5.48976e-06
-3.02097e-06
-1.85492e-06
-6.08048e-06
-2.97167e-06
-1.19425e-06
-6.06098e-06
-2.56451e-06
-1.07708e-06
-5.82119e-06
-3.68413e-07
-6.98745e-07
-6.03695e-06
3.36536e-06
-1.68424e-07
-5.76451e-06
6.38049e-06
-1.94735e-06
-5.77261e-06
7.48112e-06
-6.39332e-06
8.37356e-06
-9.66111e-06
-2.28023e-06
-1.52297e-06
-1.36652e-06
-3.42403e-06
-1.95439e-06
-1.4742e-06
-4.10771e-06
-2.1346e-06
-1.36317e-06
-5.48128e-06
-2.02059e-06
-9.45626e-07
-7.06226e-06
-1.95299e-06
3.30644e-08
-7.79717e-06
-6.49546e-07
9.04656e-07
-7.41498e-06
2.80896e-06
9.69909e-07
-6.41368e-06
6.36899e-06
8.91427e-08
-4.90449e-06
7.85744e-06
-2.72737e-06
8.30476e-06
-6.58245e-06
-1.22243e-06
-2.11338e-07
-9.21369e-07
-2.44577e-06
-4.86679e-07
-1.08654e-06
-2.69753e-06
-1.21266e-06
-1.56544e-06
-3.38105e-06
-1.19365e-06
-1.6111e-06
-4.71029e-06
-1.14364e-06
-6.79142e-07
-6.01455e-06
-6.59047e-07
8.47912e-07
-6.13999e-06
1.27965e-06
1.86355e-06
-5.02442e-06
4.37014e-06
1.73604e-06
-3.15523e-06
6.35275e-06
7.14302e-07
6.4133e-06
-1.01463e-06
-3.54188e-07
5.46612e-07
-9.93797e-07
-1.82089e-06
1.42495e-06
-1.21154e-06
-2.1042e-06
-2.96277e-08
-1.41121e-06
-2.53857e-06
-1.74754e-07
-1.81741e-06
-3.15838e-06
-2.93932e-07
-1.57737e-06
-3.79978e-06
-2.9046e-07
-6.69752e-07
-4.03887e-06
5.64879e-07
6.23378e-07
-3.26959e-06
2.40864e-06
1.61824e-06
-1.77545e-06
4.11235e-06
1.8627e-06
4.57221e-06
1.75268e-06
-4.29459e-07
1.06203e-06
-1.64848e-08
-9.73371e-07
2.58298e-06
-1.3838e-06
-1.07357e-06
1.04018e-06
-9.04216e-07
-1.59074e-06
9.59142e-07
-9.22924e-07
-2.22723e-06
6.77584e-07
-8.51263e-07
-2.48089e-06
3.76436e-07
-1.08547e-06
-2.48955e-06
8.06045e-07
-8.85558e-07
-2.22812e-06
1.91646e-06
7.39336e-08
-1.50683e-06
2.94693e-06
9.69249e-07
3.38195e-06
1.62768e-06
-1.22517e-06
2.06326e-06
7.83618e-07
-1.41759e-06
3.22309e-06
-1.15426e-06
-1.51856e-06
2.17233e-06
-8.18681e-07
-1.60439e-06
1.51825e-06
-1.93119e-08
-1.76056e-06
7.53529e-07
5.7074e-07
-1.91465e-06
7.18204e-07
-8.26529e-09
-1.82159e-06
1.27227e-06
-7.6477e-07
-1.70468e-06
2.17862e-06
-5.78646e-07
-1.61205e-06
2.80728e-06
2.11927e-07
3.02596e-06
9.06647e-07
-1.43973e-06
3.34298e-06
9.69696e-07
-1.62413e-06
3.97066e-06
-1.32697e-06
-1.88395e-06
3.53075e-06
-1.11825e-06
-1.89484e-06
2.32392e-06
-2.67149e-07
-1.83581e-06
7.73364e-07
9.77992e-07
-1.67991e-06
9.07883e-07
6.00998e-07
-1.53253e-06
1.48966e-06
2.42107e-07
-1.42075e-06
2.28886e-06
2.26192e-07
-1.43511e-06
2.91517e-06
3.96474e-07
3.06545e-06
7.09129e-07
-1.22763e-06
4.59902e-06
1.01732e-06
-1.02082e-06
4.79373e-06
-2.01179e-06
-1.15142e-06
4.77011e-06
-1.88954e-06
-1.57557e-06
3.85649e-06
-1.14475e-06
-1.97595e-06
1.52287e-06
5.72848e-07
-1.75857e-06
1.12938e-06
6.29406e-07
-1.37257e-06
1.48657e-06
5.52072e-07
-1.11553e-06
2.17274e-06
8.38328e-07
-9.96973e-07
2.80353e-06
9.58254e-07
2.99812e-06
9.50555e-07
-5.94638e-07
5.37212e-06
1.23464e-06
2.95199e-08
5.72642e-06
-2.732e-06
2.88509e-08
5.82709e-06
-2.80584e-06
-6.23981e-07
5.49796e-06
-2.15877e-06
-1.38883e-06
2.62684e-06
9.23587e-08
-1.46872e-06
1.39562e-06
5.64492e-07
-1.16432e-06
1.41577e-06
3.09626e-07
-8.81885e-07
1.93377e-06
7.01866e-07
-5.86294e-07
2.39712e-06
9.65774e-07
2.60441e-06
9.43871e-07
2.77643e-07
1.65969e-06
5.21486e-06
6.8586e-07
-2.70104e-06
7.02303e-06
9.77286e-07
-3.54653e-06
6.77253e-06
2.79169e-07
-2.79098e-06
6.90369e-06
-5.58513e-07
-1.05287e-07
3.76445e-06
-9.13012e-07
7.40339e-07
1.63723e-06
-7.89077e-07
1.39829e-07
1.33413e-06
-5.63178e-07
2.98652e-07
1.68476e-06
-2.49675e-07
5.17206e-07
1.94504e-06
6.11118e-07
2.07727e-06
1.76308e-07
-3.42096e-07
5.78625e-07
4.07527e-07
-4.22508e-07
6.38821e-07
5.87047e-07
-3.61482e-07
5.93043e-07
6.90897e-07
-2.76315e-07
5.49685e-07
7.24025e-07
-2.00195e-07
5.16838e-07
6.90708e-07
-1.33517e-07
4.92851e-07
5.94263e-07
-7.67072e-08
4.80019e-07
4.39819e-07
-3.17277e-08
4.76888e-07
2.37473e-07
-4.79753e-09
4.89428e-07
-1.6452e-09
4.93581e-07
1.5643e-07
-6.65866e-07
5.81651e-07
4.00006e-07
-8.68024e-07
6.54868e-07
5.87023e-07
-7.38303e-07
5.94661e-07
6.88453e-07
-5.5238e-07
5.35513e-07
7.15345e-07
-3.92074e-07
4.9149e-07
6.76603e-07
-2.5602e-07
4.5854e-07
5.77392e-07
-1.42526e-07
4.38412e-07
4.26626e-07
-5.70029e-08
4.31693e-07
2.36904e-07
-1.27524e-08
4.47788e-07
-8.64596e-09
4.65425e-07
1.70527e-07
-1.0408e-06
7.69614e-07
5.14682e-07
-1.46732e-06
8.89201e-07
7.6061e-07
-1.2349e-06
7.73613e-07
8.75021e-07
-8.95036e-07
6.6211e-07
8.9415e-07
-6.17332e-07
5.86087e-07
8.38821e-07
-3.93648e-07
5.31546e-07
7.13716e-07
-2.07868e-07
4.94033e-07
5.27902e-07
-6.65509e-08
4.73343e-07
2.97302e-07
1.4888e-08
4.71219e-07
5.28077e-08
4.6658e-07
2.92996e-07
-1.52862e-06
1.08097e-06
8.45074e-07
-2.29345e-06
1.35567e-06
1.15054e-06
-1.84993e-06
1.14824e-06
1.22288e-06
-1.26572e-06
8.95014e-07
1.18236e-06
-8.41476e-07
7.33874e-07
1.07798e-06
-5.24178e-07
6.41135e-07
9.05083e-07
-2.51554e-07
5.81321e-07
6.60605e-07
-3.24212e-08
5.45588e-07
3.64226e-07
1.19819e-07
5.12761e-07
2.27509e-07
4.54982e-07
6.0589e-07
-2.26859e-06
1.41194e-06
1.38827e-06
-3.35712e-06
1.89959e-06
1.74817e-06
-2.55839e-06
1.69216e-06
1.77056e-06
-1.63298e-06
1.31158e-06
1.639e-06
-1.0108e-06
1.00487e-06
1.45288e-06
-5.86238e-07
8.23282e-07
1.20292e-06
-2.06935e-07
7.13628e-07
8.6267e-07
1.35394e-07
6.46082e-07
4.55236e-07
4.07988e-07
5.8523e-07
6.20665e-07
4.71007e-07
8.93709e-07
-3.25414e-06
1.47297e-06
1.74643e-06
-4.45106e-06
2.15303e-06
2.09925e-06
-3.23593e-06
2.0136e-06
2.16498e-06
-2.04589e-06
1.691e-06
2.06145e-06
-1.22668e-06
1.36595e-06
1.83471e-06
-6.22502e-07
1.1161e-06
1.52488e-06
-1.1128e-07
9.5137e-07
1.10157e-06
3.83311e-07
8.15121e-07
5.70499e-07
8.3688e-07
6.61654e-07
1.16999e-06
5.00943e-07
1.35468e-06
-4.75849e-06
1.69517e-06
1.99239e-06
-5.2306e-06
2.47866e-06
2.21148e-06
-3.6775e-06
2.17387e-06
2.37697e-06
-2.54202e-06
1.80529e-06
2.37905e-06
-1.56972e-06
1.46198e-06
2.18774e-06
-7.22337e-07
1.11103e-06
1.81533e-06
-1.34625e-08
8.00321e-07
1.34824e-06
5.91199e-07
5.05021e-07
7.62182e-07
1.27644e-06
1.95257e-07
1.87402e-06
-1.27887e-08
1.79581e-06
-6.92628e-06
2.24021e-06
1.62629e-06
-5.24973e-06
2.49052e-06
1.70289e-06
-3.91196e-06
1.80039e-06
2.41659e-06
-3.64563e-06
1.56598e-06
2.90575e-06
-2.49028e-06
1.35982e-06
2.91788e-06
-9.94597e-07
9.63121e-07
2.5294e-06
2.89394e-07
3.88008e-07
1.8245e-06
1.24583e-06
-9.2638e-08
1.01778e-06
2.06756e-06
-3.79282e-07
2.90723e-06
-6.35631e-07
3.74469e-07
-7.0913e-06
6.63519e-07
-9.3717e-07
-3.74918e-06
-2.38504e-07
-1.68056e-06
-2.46774e-06
-1.68602e-06
-9.73045e-07
-3.79646e-06
-1.68719e-06
1.52874e-06
-4.97084e-06
-5.64724e-07
3.79582e-06
-3.24779e-06
3.2819e-07
4.67984e-06
-3.59959e-07
6.32631e-07
4.21672e-06
2.17548e-06
6.21419e-08
2.55107e-06
4.34115e-06
-6.59909e-07
6.36078e-06
-1.05104e-06
-1.12715e-06
-6.53786e-06
-7.09646e-07
-1.48687e-06
-4.19688e-06
-1.9828e-06
-1.00488e-06
-3.04734e-06
-1.23105e-06
-7.95761e-07
-2.74172e-06
-1.59188e-06
-9.48252e-07
-2.03919e-06
-3.2704e-06
-1.46769e-06
-4.07745e-07
-3.96562e-06
-3.08547e-06
2.74633e-06
-2.96374e-06
-6.11882e-06
4.65934e-06
-6.03999e-06
-6.45828e-06
4.56848e-06
-7.4919e-06
6.03358e-06
-7.42089e-06
-2.16747e-06
-4.0865e-06
-2.4774e-06
-2.74873e-06
-3.56703e-06
-2.99201e-06
-3.82581e-06
-1.9253e-06
-1.89988e-06
-5.46928e-06
-6.47373e-07
-1.64512e-06
-6.45377e-06
-3.53034e-07
-1.77876e-06
-6.49839e-06
4.66642e-07
-1.52852e-06
-5.82803e-06
2.53398e-06
-6.2643e-07
-5.53706e-06
4.6225e-06
-2.20149e-06
-5.62278e-06
4.96187e-06
-6.701e-06
4.55891e-06
-1.02955e-05
-2.06699e-06
-1.84162e-06
-1.54441e-06
-3.22865e-06
-2.73319e-06
-1.14637e-06
-4.14292e-06
-1.99152e-06
-3.82683e-07
-5.71725e-06
-5.6835e-07
5.49682e-07
-7.04418e-06
-3.83512e-07
1.39046e-06
-7.46165e-06
-7.21585e-07
2.51034e-06
-6.88636e-06
3.74575e-07
2.55403e-06
-4.83983e-06
2.502e-06
1.63107e-07
-2.04464e-06
3.60037e-06
-4.16106e-06
3.38803e-06
-7.90245e-06
-1.82853e-06
9.55509e-08
-1.03001e-06
-3.27091e-06
-1.52029e-06
-8.57075e-07
-3.12989e-06
-2.65941e-06
-1.03857e-06
-2.96357e-06
-1.94716e-06
-3.98621e-07
-3.64619e-06
-1.14532e-06
7.65285e-07
-4.41083e-06
-1.4399e-06
2.33085e-06
-4.36223e-06
-1.32683e-06
3.51636e-06
-3.02294e-06
-2.34538e-07
3.13329e-06
-9.51934e-07
8.76794e-07
1.36687e-06
1.08034e-06
-8.69459e-07
-3.40132e-07
7.34275e-07
-1.29239e-06
-2.31466e-06
5.00051e-07
-1.25734e-06
-2.75398e-06
-1.91312e-06
-1.71818e-06
-2.31795e-06
-2.55697e-06
-1.64363e-06
-2.03213e-06
-2.14425e-06
-8.64257e-07
-2.28517e-06
-1.9329e-06
7.62788e-08
-2.59797e-06
-1.64743e-06
1.25678e-06
-2.11519e-06
-1.20769e-06
2.10861e-06
-9.25707e-07
-5.70979e-07
2.12099e-06
-1.87646e-07
2.17044e-06
1.56726e-06
1.34861e-08
-8.62959e-07
1.16734e-07
2.07955e-06
-1.51277e-06
-1.34919e-06
1.80612e-07
-1.53203e-06
-1.67973e-06
-1.66331e-06
-1.48605e-06
-1.43094e-06
-1.84104e-06
-1.40327e-06
-1.22728e-06
-1.93436e-06
-1.28766e-06
-1.35416e-06
-1.40858e-06
-9.97536e-07
-1.39353e-06
-7.79687e-07
-3.14692e-07
-1.08903e-06
-1.69279e-07
2.63048e-07
-8.83835e-08
1.38824e-06
8.79813e-07
-4.6342e-08
-3.63695e-08
1.29565e-06
2.10417e-06
-1.59472e-06
2.3391e-07
2.09292e-06
-1.66925e-06
-7.67367e-07
3.43223e-07
-1.02457e-06
-1.02921e-06
-5.38224e-07
-4.70227e-07
-8.6439e-07
-9.18564e-07
-1.18889e-06
-7.50235e-07
-5.68341e-07
-1.71916e-06
-8.38213e-07
5.17315e-08
-1.32209e-06
-9.69513e-07
6.34622e-07
-4.60676e-07
5.86886e-07
2.84825e-07
7.2984e-07
5.85276e-07
-3.91765e-07
1.69664e-06
1.87651e-06
-2.06611e-06
1.40454e-06
3.18247e-06
-1.91569e-06
1.87989e-10
2.59322e-06
-1.11279e-06
-7.85209e-07
1.17601e-06
4.91535e-08
-1.02214e-06
3.04956e-07
-3.85592e-07
-8.61612e-07
4.6836e-07
-9.55122e-07
-7.44912e-07
9.55994e-07
-7.94768e-07
-8.55686e-07
1.29152e-06
-1.49653e-07
1.22e-06
1.35924e-08
1.01346e-06
1.35479e-06
-7.65658e-07
1.85892e-06
1.95636e-06
-2.9371e-06
2.15895e-06
3.38987e-06
-2.39697e-06
9.16781e-07
4.1153e-06
-1.42467e-06
-4.11161e-07
3.09246e-06
-1.56642e-08
-9.63702e-07
1.40225e-06
8.46476e-08
-9.25036e-07
1.14126e-06
-1.59493e-07
-6.93178e-07
1.56538e-06
-2.91174e-09
-5.90668e-07
1.77972e-06
3.67547e-07
1.78689e-06
1.68411e-07
1.42032e-06
2.05016e-06
-8.81067e-07
1.94986e-06
2.43487e-06
-3.74006e-06
2.33565e-06
3.33774e-06
-3.13951e-06
1.20285e-06
4.86334e-06
-1.77403e-06
-1.35965e-07
4.72001e-06
-1.96373e-07
-6.95686e-07
2.13514e-06
3.91325e-07
-7.51837e-07
1.39712e-06
1.09921e-07
-4.99825e-07
1.75268e-06
2.62555e-07
-2.58678e-07
1.95663e-06
5.47727e-07
2.05163e-06
3.70879e-07
1.81375e-06
-5.4831e-07
2.44441e-06
2.16375e-06
-4.03401e-06
3.41784e-06
2.11527e-06
-3.9214e-06
3.76109e-06
8.49551e-07
-2.02585e-06
5.36394e-06
-1.87081e-07
-2.68106e-07
5.91945e-06
-5.02448e-07
6.74087e-07
2.51676e-06
-5.42239e-07
1.31823e-07
1.44492e-06
-2.67652e-07
1.73474e-07
1.60327e-06
-2.0349e-08
4.39096e-07
1.78744e-06
4.74438e-07
1.8822e-06
1.61645e-07
-2.50641e-07
6.67621e-07
3.73845e-07
-3.19047e-07
7.45668e-07
5.43633e-07
-2.75136e-07
6.9839e-07
6.46195e-07
-2.07422e-07
6.54545e-07
6.83836e-07
-1.4477e-07
6.23966e-07
6.58915e-07
-8.73061e-08
6.05079e-07
5.73607e-07
-3.5078e-08
6.00405e-07
4.33131e-07
9.75485e-09
6.07609e-07
2.4003e-07
4.22206e-08
6.40309e-07
6.04923e-08
6.51018e-07
1.42753e-07
-4.7557e-07
6.63826e-07
3.57298e-07
-6.35417e-07
7.56694e-07
5.28712e-07
-5.48331e-07
6.96441e-07
6.28262e-07
-4.08252e-07
6.36794e-07
6.60853e-07
-2.79911e-07
5.94041e-07
6.32793e-07
-1.6508e-07
5.64374e-07
5.52081e-07
-6.69994e-08
5.51045e-07
4.27038e-07
9.23696e-09
5.57255e-07
2.58161e-07
5.90185e-08
5.99867e-07
1.09687e-07
6.32761e-07
1.50315e-07
-7.08986e-07
8.52715e-07
4.27805e-07
-1.01131e-06
9.87604e-07
6.50708e-07
-8.84294e-07
8.86673e-07
7.73048e-07
-6.53441e-07
7.84959e-07
8.07738e-07
-4.40875e-07
7.12361e-07
7.69589e-07
-2.5858e-07
6.63195e-07
6.65378e-07
-1.05748e-07
6.36992e-07
5.00481e-07
1.61925e-08
6.31285e-07
2.90238e-07
1.20556e-07
6.19924e-07
2.6029e-07
5.52456e-07
1.89343e-07
-9.42995e-07
1.12564e-06
5.89728e-07
-1.43917e-06
1.38315e-06
8.80447e-07
-1.25076e-06
1.22399e-06
1.00845e-06
-9.10461e-07
1.02403e-06
1.02258e-06
-6.07895e-07
8.86768e-07
9.55513e-07
-3.52521e-07
8.02138e-07
8.074e-07
-1.29272e-07
7.52958e-07
5.78443e-07
6.53838e-08
7.25354e-07
3.1478e-07
2.6517e-07
6.31809e-07
5.13667e-07
4.30479e-07
3.96681e-07
-1.3005e-06
1.37276e-06
9.73367e-07
-1.96348e-06
1.84721e-06
1.31896e-06
-1.621e-06
1.71681e-06
1.4219e-06
-1.11599e-06
1.41416e-06
1.37811e-06
-7.11516e-07
1.15228e-06
1.25754e-06
-4.00703e-07
9.92031e-07
1.04202e-06
-9.76069e-08
8.97482e-07
7.18444e-07
2.02329e-07
8.32712e-07
3.71371e-07
5.28948e-07
6.68526e-07
8.61136e-07
3.90152e-07
6.78539e-07
-1.91563e-06
1.40956e-06
1.36801e-06
-2.59419e-06
2.09427e-06
1.73597e-06
-2.04077e-06
2.06541e-06
1.8761e-06
-1.38539e-06
1.82028e-06
1.8379e-06
-8.12852e-07
1.50549e-06
1.6711e-06
-3.59987e-07
1.24218e-06
1.38756e-06
7.24955e-08
1.0648e-06
9.49042e-07
5.42439e-07
9.13533e-07
4.50564e-07
9.97801e-07
6.91278e-07
1.39217e-06
3.40061e-07
9.39159e-07
-2.94374e-06
1.78413e-06
1.52228e-06
-3.22642e-06
2.52777e-06
1.84555e-06
-2.51074e-06
2.32057e-06
2.06683e-06
-1.82282e-06
2.02145e-06
2.12261e-06
-1.06002e-06
1.65337e-06
2.03504e-06
-4.1285e-07
1.25146e-06
1.76052e-06
2.13735e-07
9.33602e-07
1.24613e-06
8.95437e-07
6.66416e-07
6.02433e-07
1.46734e-06
3.69409e-07
1.95007e-06
-1.45908e-08
1.20861e-06
-4.60503e-06
2.69289e-06
1.29644e-06
-3.85559e-06
3.03187e-06
1.59719e-06
-3.4983e-06
2.48721e-06
2.13936e-06
-2.93086e-06
2.13184e-06
2.4272e-06
-1.712e-06
1.72396e-06
2.38794e-06
-5.9042e-07
1.17994e-06
2.02114e-06
3.7064e-07
5.97908e-07
1.42434e-06
1.22704e-06
1.72564e-07
7.23692e-07
1.90938e-06
-1.20675e-07
2.50505e-06
-4.69006e-07
3.41553e-07
-4.60246e-06
3.19385e-07
-5.99995e-07
-2.52337e-06
-6.29185e-07
-7.37776e-07
-3.79904e-06
-1.24751e-06
1.82167e-07
-4.57119e-06
-9.66794e-07
1.80966e-06
-3.898e-06
-6.21211e-09
3.12959e-06
-2.23652e-06
6.54361e-07
3.57051e-06
-1.54208e-07
7.16554e-07
3.17306e-06
1.51291e-06
1.73728e-07
1.89082e-06
3.16821e-06
-6.36506e-07
4.86597e-06
-1.57006e-06
-7.08502e-07
-5.13085e-06
5.27243e-07
-3.08763e-07
-4.09238e-06
-8.13526e-07
-2.3886e-08
-3.58675e-06
-1.72822e-06
-3.85773e-07
-2.49078e-06
-3.3104e-06
-1.58401e-06
-1.35338e-06
-4.61679e-06
-3.65269e-06
-5.30986e-07
-3.60248e-06
-4.30349e-06
-2.31257e-07
-2.23589e-06
-5.50817e-06
7.42178e-07
-4.06459e-06
-6.63859e-06
2.11408e-06
-5.30735e-06
3.17827e-06
-6.91737e-06
-1.6318e-06
-3.59654e-06
-2.3799e-06
-1.07282e-06
-4.30551e-06
-3.33786e-06
-9.31798e-07
-2.9372e-06
-2.69045e-06
-2.39725e-06
1.92304e-07
-2.86275e-06
-5.22221e-06
1.83281e-06
-2.14e-06
-7.59479e-06
7.34118e-07
-4.21058e-07
-7.43215e-06
-7.92967e-07
-2.27355e-07
-6.36267e-06
-2.90196e-07
-2.2386e-06
-5.86291e-06
1.73219e-06
-6.81888e-06
8.05985e-07
-9.8258e-06
-1.65693e-06
-1.717e-06
-1.76703e-06
-2.13465e-06
-3.29069e-06
-1.68347e-06
-2.67922e-06
-2.36387e-06
-4.11442e-07
-4.04518e-06
1.56998e-06
5.37952e-07
-5.92094e-06
3.62887e-06
1.47016e-06
-6.58387e-06
1.58376e-06
2.32363e-06
-5.83552e-06
-8.19484e-07
1.83219e-06
-3.88474e-06
-1.12844e-06
-9.49432e-07
-1.47137e-06
-4.14789e-08
-4.80076e-06
-6.07322e-07
-8.30069e-06
-1.93874e-06
5.81884e-07
-1.39014e-06
-3.32152e-06
-1.66531e-06
-1.09968e-06
-3.37337e-06
-2.57422e-06
-7.76367e-07
-3.03687e-06
-5.88071e-08
8.9366e-07
-3.63098e-06
2.84043e-06
2.14783e-06
-4.21327e-06
2.13491e-06
2.36199e-06
-3.82794e-06
-2.28992e-07
2.54053e-06
-2.42601e-06
-1.80732e-06
2.41023e-06
-6.69547e-08
-2.55143e-06
1.51776e-06
-2.48648e-06
-4.47026e-07
-9.71767e-07
2.56971e-06
-2.30845e-06
-2.54725e-06
6.05718e-07
-1.95289e-06
-3.2357e-06
-1.89583e-06
-1.70812e-06
-2.36927e-06
-1.98867e-06
-5.8021e-07
-1.29865e-06
3.29299e-07
5.76248e-07
-1.65348e-06
1.59802e-06
9.68004e-07
-2.23069e-06
7.0846e-07
8.96545e-07
-1.97605e-06
-1.22089e-06
1.26754e-06
-8.38677e-07
-2.75074e-06
1.18291e-06
-2.79079e-06
1.92274e-06
8.45341e-07
2.99697e-06
-2.13556e-06
-1.01612e-07
2.69417e-06
-2.65427e-06
-1.8693e-06
4.15163e-07
-2.07534e-06
-2.58093e-06
-1.57638e-06
-1.18671e-06
-1.48463e-06
-1.14422e-06
-1.02606e-06
-6.556e-07
3.61751e-07
-8.8042e-07
-5.14193e-07
6.49773e-07
-1.08026e-06
-7.6136e-07
-5.28478e-07
-7.59932e-07
-4.62019e-07
-1.86515e-06
-9.21889e-07
-2.24426e-06
9.40477e-07
1.81183e-06
2.23878e-06
-1.09002e-06
2.04358e-06
3.12694e-06
-2.25925e-06
5.7446e-07
2.39729e-06
-2.18226e-06
-1.53065e-06
4.56422e-07
-9.52264e-07
-1.88546e-06
-3.04717e-07
-9.54926e-07
-1.07254e-06
1.90133e-07
-1.83019e-06
-2.2925e-07
4.38248e-07
-2.35093e-06
5.99946e-08
-1.71342e-07
-1.96847e-06
-1.10749e-07
-8.43708e-07
-1.31137e-06
-1.31619e-06
-1.91165e-07
1.70387e-06
1.25425e-06
-1.11111e-06
2.57669e-06
2.5734e-06
-2.3854e-06
1.9255e-06
3.25709e-06
-2.1243e-06
-2.75305e-07
2.31668e-06
-7.7225e-07
-1.53224e-06
1.36909e-06
-3.67719e-07
-1.37064e-06
1.06231e-06
-1.41937e-06
-4.54658e-07
1.02827e-06
-2.46112e-06
5.13365e-08
6.3794e-07
-2.11004e-06
-2.26289e-07
2.33997e-07
-9.49733e-07
-2.51064e-07
-6.69569e-07
1.34469e-06
1.06082e-06
-1.91692e-06
2.00057e-06
2.02042e-06
-3.04002e-06
1.82928e-06
3.33956e-06
-2.30815e-06
1.1376e-07
3.39014e-06
-7.8261e-07
-1.21481e-06
2.79444e-06
-1.12449e-07
-1.25717e-06
1.73121e-06
-5.41892e-07
-5.63569e-07
1.58962e-06
-1.41444e-06
-9.73397e-08
1.48055e-06
-1.31175e-06
-2.5406e-07
1.21456e-06
-4.563e-07
7.73166e-07
-6.28495e-07
1.16403e-06
1.39892e-06
-2.3832e-06
1.218e-06
1.90739e-06
-3.68101e-06
9.6937e-07
3.27687e-06
-2.82819e-06
-2.78551e-07
3.93128e-06
-1.06726e-06
-1.22513e-06
3.68119e-06
-1.36558e-07
-1.12315e-06
2.08368e-06
-6.31268e-08
-5.94892e-07
1.64021e-06
-4.68927e-07
-1.23245e-07
1.77164e-06
-5.00188e-07
-7.78117e-08
1.7148e-06
2.05197e-09
1.39849e-06
-1.35749e-07
1.24153e-06
-2.34896e-06
1.95803e-06
8.08051e-07
-4.05877e-06
2.36562e-06
5.42323e-08
-3.43115e-06
3.54044e-06
-9.52712e-07
-1.39453e-06
4.3069e-06
-1.39853e-06
-2.32311e-07
4.09121e-06
-1.00324e-06
7.31125e-08
2.28936e-06
-5.36363e-07
-2.12834e-07
1.518e-06
-5.55649e-08
-1.41974e-07
1.6063e-06
1.44657e-07
2.64335e-07
1.68934e-06
4.22258e-07
1.47518e-06
1.48108e-07
-1.65347e-07
6.8486e-07
3.46899e-07
-2.28658e-07
7.75535e-07
5.11223e-07
-1.98234e-07
7.323e-07
6.15719e-07
-1.43703e-07
6.93752e-07
6.59996e-07
-9.19664e-08
6.71655e-07
6.46527e-07
-4.22842e-08
6.60832e-07
5.75873e-07
6.76325e-09
6.64296e-07
4.48677e-07
5.75811e-08
6.77223e-07
2.5702e-07
1.06917e-07
7.2505e-07
1.73008e-07
7.04686e-07
1.29288e-07
-3.06005e-07
6.75197e-07
3.24092e-07
-4.44157e-07