/*--------------------------------*- C++ -*----------------------------------*\
| =========                 |                                                 |
| \\      /  F ield         | OpenFOAM: The Open Source CFD Toolbox           |
|  \\    /   O peration     | Version:  2312                                  |
|   \\  /    A nd           | Website:  www.openfoam.com                      |
|    \\/     M anipulation  |                                                 |
\*---------------------------------------------------------------------------*/
FoamFile
{
    version     2.0;
    format      ascii;
    arch        "LSB;label=32;scalar=64";
    class       volScalarField;
    location    "0.775";
    object      p;
}
// * * * * * * * * * * * * * * * * * * * * * * * * * * * * * * * * * * * * * //

dimensions      [1 -1 -2 0 0 0 0];

internalField   nonuniform List<scalar> 
8000
(
373.588
373.008
371.928
370.418
368.693
366.949
365.359
364.065
363.164
362.716
325.824
325.179
323.995
322.284
320.379
318.461
316.722
315.325
314.361
313.903
279.325
278.529
277.131
275.129
272.865
270.604
268.576
267.009
265.859
265.275
234.6
233.487
231.537
229.047
226.243
223.416
220.892
218.882
217.617
217.078
191.944
190.527
187.714
184.412
180.819
177.199
174.002
171.622
170.087
169.454
151.582
149.781
146.137
141.772
136.994
132.161
127.857
124.921
123.046
122.289
113.645
111.187
106.85
101.076
94.5606
88.1221
82.6366
78.7326
76.6497
76.794
79.7569
76.3547
70.8372
63.2934
54.424
47.2963
43.5381
42.6684
44.2998
45.6556
51.2922
47.5067
41.2961
33.84
25.5288
19.0101
15.5258
13.856
16.2044
18.2626
27.8227
25.1314
19.7291
12.3742
5.90592
2.66213
1.12997
0.37412
0.823848
1.63878
13.5365
12.1499
9.42656
2.14505
-0.449169
-0.487854
-0.519116
-0.515671
-0.513432
-0.53941
13.9448
6.76999
-0.23655
-0.686586
-0.599634
-0.604202
-0.580322
-0.528902
-0.582055
-0.656212
-0.792194
-0.756992
-0.707944
-0.698185
-0.63805
-0.64368
-0.636574
-0.621455
-0.64829
-0.683111
-0.849695
-0.820347
-0.746296
-0.699473
-0.6808
-0.694937
-0.697983
-0.703829
-0.713293
-0.713088
-0.874922
-0.842307
-0.798075
-0.761833
-0.753849
-0.762028
-0.760865
-0.757935
-0.755734
-0.743364
-0.905925
-0.900812
-0.877476
-0.840583
-0.817168
-0.809171
-0.79975
-0.78942
-0.785754
-0.776553
-0.922066
-0.937689
-0.924871
-0.879335
-0.844317
-0.826555
-0.814228
-0.806796
-0.809451
-0.812517
-0.918374
-0.936116
-0.934524
-0.893423
-0.855487
-0.835077
-0.823286
-0.820132
-0.827946
-0.84105
-0.930115
-0.938422
-0.950823
-0.924416
-0.890278
-0.866544
-0.852692
-0.849359
-0.856418
-0.869505
-0.983301
-0.984053
-1.00152
-0.984858
-0.952439
-0.926398
-0.910836
-0.904637
-0.907456
-0.915779
372.81
372.255
371.186
369.684
367.959
366.213
364.622
363.335
362.444
362.006
324.873
324.279
323.114
321.475
319.569
317.646
315.903
314.498
313.52
313.013
278.299
277.568
276.209
274.195
271.904
269.62
267.566
265.929
264.788
264.226
233.281
232.225
230.472
227.931
225.045
222.179
219.624
217.608
216.246
215.611
190.291
188.826
186.15
182.869
179.225
175.57
172.321
169.759
167.932
167.097
149.505
147.816
144.009
139.623
134.777
129.996
125.81
122.599
120.31
118.617
111.026
108.772
103.945
98.0441
91.505
85.1885
79.5428
74.1984
69.3025
66.7789
76.3988
72.8738
66.4034
57.9694
49.1453
42.4806
37.8827
34.14
31.3177
28.3227
47.5684
43.5601
36.5213
28.0062
19.6478
12.0555
6.60429
4.4057
3.70622
2.19477
25.1589
21.0779
13.1353
5.64308
1.24702
-0.227191
-0.412413
-0.213367
-0.177856
-0.216878
12.887
11.1467
2.62134
-0.638836
-0.564171
-0.574147
-0.56763
-0.498693
-0.500697
-0.492149
7.83423
2.6425
-0.821978
-0.726458
-0.642066
-0.633522
-0.619053
-0.586248
-0.613319
-0.627526
-0.793049
-0.866066
-0.806619
-0.756769
-0.672558
-0.67778
-0.665541
-0.657546
-0.714101
-0.748956
-0.887341
-0.908831
-0.842384
-0.792617
-0.731179
-0.740347
-0.733112
-0.74004
-0.783277
-0.817746
-0.939192
-0.986921
-0.917432
-0.870647
-0.814321
-0.812588
-0.803653
-0.800674
-0.807493
-0.820325
-0.998147
-1.05686
-0.993248
-0.950209
-0.88474
-0.868957
-0.853189
-0.835256
-0.818411
-0.811073
-1.0162
-1.07501
-1.04297
-0.99352
-0.917443
-0.890468
-0.870336
-0.848708
-0.828939
-0.814322
-0.986695
-1.03524
-1.03275
-0.979061
-0.911199
-0.87894
-0.856949
-0.840898
-0.830312
-0.822656
-0.96731
-0.986132
-1.00318
-0.964221
-0.914217
-0.881287
-0.857936
-0.846736
-0.844768
-0.849493
-0.987426
-1.00202
-1.03958
-1.01717
-0.976101
-0.93905
-0.910057
-0.897034
-0.89557
-0.902352
371.442
370.887
369.812
368.3
366.57
364.824
363.245
361.987
361.146
360.772
323.412
322.824
321.651
319.966
318.043
316.113
314.376
312.997
312.072
311.659
276.514
275.858
274.496
272.427
270.09
267.783
265.718
264.09
263
262.522
230.913
230.03
228.379
225.749
222.777
219.866
217.28
215.258
213.925
213.375
187.051
185.675
183.415
180.044
176.251
172.524
169.219
166.632
164.892
164.198
145.433
143.519
140.165
135.743
130.905
126.081
121.72
118.359
116.131
115.12
106.26
103.484
98.6385
92.6864
86.402
79.9853
73.5511
68.6078
66.3791
65.2183
70.6387
66.2114
59.4348
51.5467
45.1001
38.2921
32.1002
26.7681
21.859
18.8095
41.2447
36.5744
29.9073
21.6293
13.3307
6.92834
3.3631
1.45808
0.251181
0.0936057
19.5899
14.7238
8.25064
2.65135
0.207059
-0.317949
-0.303039
-0.277738
-0.301075
-0.312606
9.03736
6.31744
-0.268288
-0.688655
-0.635722
-0.588547
-0.544921
-0.488632
-0.497142
-0.486484
-0.0805431
-0.560394
-0.773532
-0.796485
-0.715563
-0.658831
-0.6466
-0.612497
-0.627879
-0.629311
-0.770228
-0.854846
-0.86696
-0.855266
-0.767767
-0.720199
-0.705602
-0.679602
-0.719114
-0.760223
-0.865778
-0.908616
-0.906422
-0.905907
-0.834495
-0.804436
-0.786692
-0.769428
-0.804369
-0.85097
-0.968777
-1.02456
-0.986095
-0.985852
-0.919645
-0.885757
-0.865494
-0.845086
-0.852745
-0.880027
-1.03965
-1.08821
-1.05475
-1.05944
-0.992036
-0.941471
-0.909072
-0.882101
-0.867626
-0.870127
-1.06337
-1.11253
-1.10158
-1.10028
-1.01971
-0.959467
-0.918851
-0.884575
-0.860979
-0.843435
-1.03986
-1.0899
-1.1039
-1.084
-0.998386
-0.93386
-0.89139
-0.86377
-0.844921
-0.824956
-1.00244
-1.03923
-1.06188
-1.03712
-0.972426
-0.919633
-0.88134
-0.861335
-0.851685
-0.845921
-0.989639
-1.01396
-1.06108
-1.05868
-1.01993
-0.974069
-0.933297
-0.911646
-0.904204
-0.906456
369.544
368.974
367.885
366.37
364.639
362.896
361.333
360.119
359.344
359.057
321.323
320.705
319.509
317.825
315.905
313.975
312.249
310.916
310.067
309.757
274.024
273.302
271.882
269.838
267.527
265.212
263.149
261.573
260.585
260.242
227.804
226.84
225.059
222.464
219.533
216.615
214.004
212.039
210.863
210.538
183.041
181.612
179.182
175.803
171.998
168.202
164.821
162.436
161.049
160.649
140.294
138.187
134.693
130.311
125.442
120.493
115.727
112.188
110.738
110.634
99.6778
96.4393
91.2944
85.3862
78.8226
71.5729
64.6358
61.2422
61.5156
61.0328
62.5617
57.2244
50.1681
43.931
36.7311
29.4869
22.9611
17.3114
17.1974
17.3072
32.5608
27.9194
20.6084
12.2765
5.59529
2.73814
1.7103
0.0717785
-0.0723606
-0.157371
11.1129
8.0719
3.07755
0.195621
-0.490592
-0.371947
-0.321119
-0.309563
-0.345578
-0.410508
1.24012
-0.0206888
-0.528918
-0.725039
-0.689523
-0.61991
-0.57163
-0.505508
-0.542185
-0.552309
-0.482482
-0.530978
-0.728923
-0.837962
-0.769667
-0.696971
-0.689911
-0.627433
-0.639519
-0.647497
-0.741948
-0.776511
-0.828656
-0.885676
-0.827573
-0.771195
-0.745222
-0.701393
-0.726737
-0.75492
-0.867815
-0.90585
-0.908516
-0.934606
-0.901674
-0.868841
-0.842994
-0.813187
-0.823785
-0.843498
-0.98796
-1.00778
-0.988926
-1.01735
-0.999996
-0.968467
-0.93926
-0.903076
-0.884257
-0.891336
-1.06345
-1.06428
-1.0555
-1.10151
-1.09023
-1.0392
-0.985957
-0.929511
-0.895764
-0.89278
-1.06871
-1.08566
-1.10438
-1.1523
-1.12861
-1.04707
-0.969488
-0.91371
-0.881078
-0.85863
-1.03884
-1.08292
-1.11035
-1.13224
-1.07948
-0.993167
-0.927336
-0.888838
-0.862416
-0.837581
-0.999981
-1.0458
-1.06845
-1.0733
-1.02542
-0.964355
-0.917488
-0.888914
-0.872438
-0.861667
-0.968934
-1.00762
-1.04472
-1.06949
-1.05121
-1.00834
-0.965869
-0.942194
-0.927928
-0.9243
367.346
366.762
365.654
364.126
362.386
360.641
359.097
357.94
357.258
357.093
318.904
318.253
317.028
315.334
313.406
311.462
309.744
308.468
307.709
307.559
271.149
270.35
268.87
266.833
264.526
262.18
260.096
258.597
257.76
257.599
224.21
223.135
221.224
218.635
215.746
212.809
210.099
208.146
207.179
207.17
178.416
176.877
174.218
170.761
166.913
163.006
159.591
157.499
156.29
156.298
134.109
131.814
128.177
123.746
118.81
113.599
108.504
104.826
104.318
105.091
91.6001
87.7868
82.4407
76.0022
68.9109
62.4931
57.3698
54.4189
54.2707
55.0547
52.6568
47.2397
40.7652
32.6322
23.9223
20.2846
14.6432
8.75851
11.9254
14.6381
23.9849
18.2399
11.0872
4.3697
1.71474
1.29041
0.084301
-0.142393
-0.166538
-0.236982
4.92309
2.19986
-0.0131057
-0.484006
-0.527629
-0.475801
-0.428296
-0.325381
-0.42243
-0.478063
0.220812
-0.251484
-0.541931
-0.714099
-0.702113
-0.646032
-0.614517
-0.535518
-0.600608
-0.59149
-0.380678
-0.54551
-0.691835
-0.786031
-0.73608
-0.706773
-0.697379
-0.612745
-0.634454
-0.636765
-0.636169
-0.717305
-0.768973
-0.807772
-0.790251
-0.770707
-0.723082
-0.671721
-0.686447
-0.708372
-0.839887
-0.860853
-0.85547
-0.882274
-0.882482
-0.876705
-0.828387
-0.788106
-0.784144
-0.785404
-0.953719
-0.956462
-0.95297
-0.981697
-0.996746
-0.981676
-0.937996
-0.881426
-0.851706
-0.846934
-1.03367
-1.02328
-1.02639
-1.06196
-1.07669
-1.04655
-0.98158
-0.916867
-0.87919
-0.863685
-1.04462
-1.05385
-1.06985
-1.09958
-1.09991
-1.04575
-0.969865
-0.913299
-0.87731
-0.852685
-1.0169
-1.05711
-1.0691
-1.08366
-1.05889
-0.998887
-0.941321
-0.902754
-0.875176
-0.853544
-0.975939
-1.02831
-1.03723
-1.05236
-1.03054
-0.985852
-0.945422
-0.917394
-0.897326
-0.884772
-0.956472
-0.999276
-1.02334
-1.0615
-1.06083
-1.02881
-0.990299
-0.965262
-0.950839
-0.947885
365.096
364.495
363.368
361.822
360.067
358.317
356.795
355.721
355.152
355.129
316.418
315.74
314.486
312.768
310.817
308.853
307.143
305.937
305.33
305.375
268.182
267.33
265.797
263.74
261.399
258.937
256.754
255.383
254.737
254.931
220.475
219.296
217.286
214.702
211.959
209.161
206.166
204.131
203.201
203.677
173.578
171.847
168.989
165.397
161.629
157.313
153.386
151.186
150.504
151.355
127.573
124.923
121.112
116.635
112.443
106.829
100.601
96.5484
96.9435
98.1962
82.6845
78.278
71.7896
64.992
61.8491
57.3995
47.0701
40.3006
42.1919
45.5521
43.3907
37.1972
28.0194
17.9804
15.7594
14.8906
6.70261
2.50122
5.79082
8.21749
17.4805
10.1604
2.93445
0.691651
0.338911
-0.343303
-0.410128
-0.177763
-0.229038
-0.285016
1.8724
0.181598
-0.400586
-0.49214
-0.537713
-0.611785
-0.455454
-0.32046
-0.472306
-0.500457
0.196494
-0.336311
-0.571708
-0.658241
-0.65484
-0.665816
-0.613895
-0.534118
-0.629099
-0.604247
-0.3751
-0.57333
-0.634007
-0.671475
-0.662364
-0.672318
-0.630808
-0.5728
-0.614456
-0.611118
-0.630922
-0.693248
-0.703509
-0.725222
-0.719025
-0.702485
-0.642251
-0.611853
-0.630289
-0.653677
-0.781664
-0.801727
-0.79305
-0.812338
-0.823341
-0.818491
-0.760702
-0.718596
-0.714389
-0.723943
-0.891045
-0.887168
-0.886967
-0.902088
-0.918282
-0.906051
-0.862086
-0.813302
-0.791614
-0.790491
-0.972324
-0.954025
-0.95451
-0.966447
-0.96978
-0.946084
-0.904546
-0.862503
-0.83827
-0.828212
-1.0048
-1.00171
-0.997848
-0.997517
-0.984014
-0.958694
-0.91994
-0.886227
-0.862604
-0.848422
-0.998683
-1.0202
-1.01326
-1.00766
-0.991102
-0.963528
-0.931134
-0.904117
-0.884148
-0.872532
-0.978791
-1.01243
-1.01122
-1.01812
-1.00968
-0.985003
-0.956594
-0.934314
-0.918867
-0.91556
-0.982675
-1.01044
-1.02187
-1.04514
-1.04803
-1.0261
-0.999297
-0.979893
-0.972028
-0.982855
363.046
362.428
361.285
359.718
357.951
356.194
354.682
353.711
353.24
353.354
314.148
313.445
312.165
310.417
308.441
306.45
304.783
303.665
303.165
303.404
265.457
264.554
262.982
260.901
258.494
255.843
253.617
252.468
251.971
252.485
217.029
215.73
213.637
211.154
208.559
205.7
202.436
200.005
199.366
200.356
169.063
167.035
163.912
160.462
156.542
151.164
146.217
144.209
144.649
146.373
121.58
118.179
114.17
110.701
107.558
101.079
91.9588
87.3653
88.449
90.8411
74.708
68.1251
60.3991
56.6453
56.7428
47.2756
30.35
24.2451
29.0949
32.4582
35.4258
25.9426
13.1559
10.0586
10.7881
9.19259
3.3687
1.18507
1.43427
2.26361
11.0937
2.4285
0.589444
0.156926
-0.0907166
-0.387421
0.0264191
0.0186264
-0.209645
-0.26884
0.476998
-0.122135
-0.304914
-0.427119
-0.516847
-0.596458
-0.354459
-0.31463
-0.482777
-0.485205
-0.0760095
-0.483985
-0.517501
-0.558763
-0.618898
-0.653319
-0.535551
-0.527378
-0.627542
-0.587244
-0.425296
-0.593304
-0.602785
-0.622419
-0.61297
-0.592926
-0.516924
-0.534085
-0.598793
-0.596351
-0.611898
-0.660823
-0.671469
-0.687667
-0.662146
-0.609276
-0.550867
-0.576244
-0.613809
-0.632694
-0.710219
-0.744857
-0.748351
-0.764329
-0.756466
-0.73256
-0.687261
-0.6768
-0.684142
-0.695447
-0.817539
-0.821416
-0.828112
-0.834782
-0.832175
-0.814209
-0.778895
-0.758515
-0.754793
-0.761935
-0.902407
-0.880662
-0.88681
-0.894061
-0.885664
-0.862087
-0.835895
-0.818797
-0.811406
-0.813474
-0.947064
-0.930273
-0.93485
-0.936641
-0.919246
-0.896084
-0.877502
-0.862985
-0.853661
-0.85661
-0.966177
-0.969189
-0.972942
-0.968639
-0.947993
-0.929239
-0.914522
-0.901318
-0.893237
-0.904253
-0.976955
-0.991533
-0.997273
-0.996112
-0.982577
-0.968038
-0.954623
-0.942094
-0.936142
-0.960502
-0.998579
-1.01088
-1.01894
-1.02395
-1.0202
-1.00935
-0.998331
-0.986947
-0.984266
-1.01392
361.428
360.8
359.649
358.072
356.319
354.6
353.156
352.207
351.809
352.006
312.357
311.63
310.332
308.565
306.568
304.593
302.973
301.943
301.553
301.891
263.28
262.328
260.726
258.639
256.231
253.453
251.437
250.283
249.9
250.549
214.244
212.813
210.631
208.198
205.244
201.933
198.377
196.735
196.401
197.449
165.273
162.926
159.616
156.503
152.656
145.45
140.062
139.61
140.187
142.346
115.833
112.09
108.694
105.983
101.47
93.5168
85.8454
83.0315
83.2775
86.3401
67.7309
58.718
50.6447
48.4678
46.3907
35.2691
18.7914
15.8688
20.4884
24.8071
29.3541
14.2163
6.50537
6.32446
6.14633
5.22805
1.67988
0.741723
0.420344
0.94627
6.91551
0.807283
0.442071
0.160413
-0.263049
-0.355096
0.139939
0.104493
-0.151834
-0.241562
0.270232
-0.0796265
-0.287594
-0.448244
-0.56575
-0.553301
-0.270286
-0.320065
-0.473365
-0.461543
-0.173585
-0.498758
-0.528019
-0.570473
-0.62352
-0.590184
-0.437675
-0.519942
-0.596799
-0.555263
-0.43851
-0.5906
-0.590851
-0.620964
-0.59859
-0.517641
-0.432834
-0.514327
-0.581898
-0.585135
-0.574003
-0.636632
-0.652535
-0.673898
-0.636904
-0.55287
-0.50087
-0.565206
-0.619545
-0.632671
-0.663725
-0.710302
-0.721549
-0.741033
-0.727118
-0.683661
-0.649508
-0.668703
-0.684072
-0.689872
-0.725026
-0.779842
-0.785719
-0.794307
-0.788791
-0.769495
-0.749358
-0.742959
-0.743547
-0.750574
-0.834955
-0.837701
-0.840543
-0.843885
-0.840883
-0.82896
-0.814833
-0.805263
-0.801514
-0.810633
-0.903266
-0.886875
-0.887751
-0.890659
-0.887094
-0.878283
-0.86675
-0.85855
-0.854721
-0.872562
-0.934976
-0.927135
-0.926704
-0.930118
-0.92673
-0.919747
-0.911621
-0.904023
-0.901504
-0.937234
-0.967622
-0.965822
-0.964984
-0.966055
-0.964183
-0.959946
-0.954064
-0.944797
-0.939074
-0.977887
-0.996712
-0.997431
-0.998947
-0.999345
-0.999982
-0.99912
-0.996005
-0.986534
-0.978631
-1.00559
360.439
359.807
358.66
357.085
355.358
353.67
352.254
351.328
350.974
351.229
311.271
310.524
309.226
307.452
305.491
303.536
301.942
300.953
300.659
301.06
261.956
260.971
259.358
257.27
254.787
252.16
250.175
249.027
248.779
249.536
212.563
211.04
208.807
206.2
202.894
199.128
196.173
194.975
194.918
196.254
162.878
160.399
157.277
153.934
149.118
141.388
138.738
138.1
138.502
140.909
112.652
107.844
104.673
101.421
94.6043
86.4554
83.47
82.278
83.1601
86.4008
63.7852
53.4007
45.4365
44.2464
39.5267
29.4277
16.5458
13.841
16.991
24.5885
25.6973
11.1956
6.09578
5.92914
4.35975
3.5007
0.905272
0.419858
0.32265
0.933807
5.28758
0.916704
0.529379
0.0584003
-0.50356
-0.317043
0.0515974
0.0161917
-0.134172
-0.223209
0.335662
-0.120783
-0.299292
-0.501238
-0.597108
-0.46392
-0.263041
-0.347952
-0.443238
-0.424705
-0.238001
-0.47337
-0.533851
-0.585299
-0.606726
-0.505568
-0.387379
-0.496524
-0.542298
-0.515421
-0.421974
-0.552804
-0.556395
-0.606778
-0.58551
-0.48369
-0.412971
-0.499593
-0.563143
-0.569945
-0.533975
-0.608384
-0.620894
-0.662178
-0.642234
-0.563867
-0.519514
-0.576115
-0.620491
-0.629353
-0.623073
-0.687661
-0.695631
-0.737439
-0.74174
-0.695265
-0.661458
-0.676106
-0.684272
-0.683304
-0.718018
-0.7636
-0.764612
-0.783372
-0.787357
-0.768535
-0.750111
-0.749503
-0.744398
-0.745201
-0.791756
-0.824649
-0.820758
-0.823515
-0.825096
-0.82112
-0.81507
-0.812412
-0.808071
-0.820664
-0.874333
-0.879741
-0.873429
-0.869695
-0.869518
-0.868879
-0.867521
-0.863938
-0.865788
-0.893775
-0.923424
-0.919916
-0.915976
-0.912495
-0.911596
-0.911189
-0.910612
-0.904636
-0.909855
-0.934728
-0.953501
-0.953922
-0.950629
-0.950177
-0.950055
-0.949871
-0.94959
-0.94131
-0.943575
-0.948688
-0.98842
-0.98891
-0.98672
-0.986509
-0.986937
-0.986774
-0.989032
-0.986261
-0.982038
-0.964672
360.183
359.556
358.422
356.855
355.165
353.518
352.13
351.199
350.864
351.177
310.994
310.248
308.966
307.178
305.294
303.446
301.93
300.944
300.624
301.21
261.683
260.676
259.076
257.067
254.594
252.24
250.415
249.239
248.983
249.741
212.292
210.743
208.474
205.895
202.809
199.68
197.241
195.609
195.339
196.779
162.667
160.033
157.151
153.572
149.031
144.37
140.67
138.156
138.603
142.266
112.48
107.194
103.933
100.718
94.8936
88.6797
84.3932
83.1772
84.2602
87.6696
64.3711
53.5474
48.4392
46.8019
41.36
32.0509
19.5325
13.8306
18.7869
27.9268
24.9201
12.8349
8.84004
9.25276
7.9793
3.956
0.883727
0.357752
0.329253
1.98691
5.10212
0.881903
0.658885
-0.149931
-0.632787
-0.427485
-0.00499995
0.0392244
-0.11133
-0.213604
0.529975
-0.0167961
-0.187217
-0.487657
-0.576723
-0.511163
-0.28808
-0.27752
-0.384737
-0.369922
-0.214334
-0.385297
-0.470141
-0.55538
-0.579706
-0.514847
-0.390068
-0.437641
-0.481379
-0.468216
-0.411325
-0.495565
-0.51703
-0.575648
-0.582366
-0.511303
-0.435833
-0.488235
-0.53711
-0.54296
-0.509149
-0.572562
-0.596473
-0.643955
-0.668939
-0.620894
-0.555472
-0.591922
-0.61239
-0.613282
-0.612389
-0.669514
-0.682037
-0.736261
-0.786175
-0.749071
-0.690467
-0.692772
-0.686167
-0.677218
-0.72034
-0.761803
-0.768722
-0.796105
-0.815278
-0.80113
-0.76833
-0.768478
-0.756557
-0.749603
-0.786412
-0.826827
-0.824508
-0.823029
-0.823831
-0.830214
-0.82265
-0.8249
-0.821252
-0.823676
-0.840955
-0.884037
-0.873108
-0.863594
-0.863708
-0.872759
-0.869052
-0.870794
-0.870006
-0.863344
-0.897409
-0.933752
-0.924302
-0.913365
-0.910059
-0.915261
-0.912297
-0.916216
-0.915346
-0.884493
-0.965386
-0.968217
-0.966259
-0.955127
-0.951785
-0.955971
-0.954782
-0.965025
-0.970226
-0.931201
-0.988299
-0.996436
-0.9981
-0.993599
-0.991945
-0.996117
-0.995494
-1.01261
-1.02187
-0.989632
360.683
360.063
358.949
357.411
355.719
354.067
352.643
351.663
351.268
351.505
311.568
310.802
309.578
307.854
305.972
304.13
302.554
301.498
301.134
301.521
262.46
261.473
259.905
257.924
255.551
253.21
251.204
249.99
249.715
250.307
213.494
211.959
209.709
207.162
204.207
201.145
198.459
196.893
196.788
198.132
164.406
161.973
159.043
155.738
151.774
147.24
143.315
141.675
142.234
144.725
114.918
110.155
106.283
102.964
98.2887
91.7015
86.8781
86.3121
87.7487
91.0623
67.7901
57.6344
52.5314
51.0386
45.4235
34.3161
24.5838
19.8745
25.5526
35.1696
28.2175
18.5134
14.6328
17.0009
11.19
3.90582
0.845624
0.49642
1.57087
4.72501
7.75623
1.75708
1.08753
0.350466
-0.544208
-0.446522
-0.0199156
0.0450699
-0.1235
-0.198625
0.593513
0.0744676
-0.0517519
-0.402247
-0.641393
-0.520791
-0.225845
-0.251424
-0.32309
-0.31578
-0.180825
-0.334926
-0.410385
-0.537572
-0.593339
-0.503981
-0.367299
-0.39828
-0.418992
-0.415427
-0.41976
-0.496934
-0.508229
-0.529314
-0.563112
-0.523615
-0.452571
-0.491174
-0.508535
-0.508151
-0.548925
-0.624736
-0.603307
-0.576149
-0.680385
-0.691321
-0.618855
-0.614529
-0.608509
-0.596771
-0.661417
-0.744338
-0.708272
-0.693734
-0.809758
-0.844459
-0.744321
-0.716229
-0.695212
-0.672858
-0.754733
-0.82166
-0.828681
-0.82086
-0.84069
-0.848586
-0.797699
-0.781082
-0.764991
-0.732707
-0.808971
-0.860777
-0.870891
-0.846143
-0.806914
-0.82395
-0.829655
-0.835063
-0.832392
-0.799531
-0.858855
-0.895963
-0.887316
-0.866446
-0.851152
-0.866481
-0.87583
-0.894656
-0.906183
-0.88107
-0.903442
-0.933036
-0.926902
-0.918195
-0.909246
-0.919626
-0.921318
-0.949357
-0.968257
-0.949874
-0.967363
-0.958166
-0.965071
-0.961032
-0.956396
-0.9626
-0.962523
-0.996344
-1.01444
-0.99199
-0.986061
-0.983426
-0.991142
-0.999492
-0.99665
-1.0017
-1.0022
-1.03096
-1.05129
-1.02629
361.863
361.264
360.136
358.584
356.855
355.156
353.677
352.636
352.141
352.196
312.838
312.209
310.92
309.181
307.253
305.361
303.731
302.606
302.13
302.279
263.946
263.064
261.502
259.499
257.137
254.774
252.741
251.416
251.01
251.33
215.357
213.988
211.781
209.123
206.156
203.117
200.445
198.779
198.564
199.291
167.007
164.986
161.985
158.48
154.528
150.061
146.045
143.923
144.271
146.07
118.682
115.012
110.84
106.305
101.56
94.9373
89.6557
87.7496
89.2729
92.6523
73.0204
66.0688
59.0962
54.4245
48.122
38.5429
31.2477
28.0433
31.8245
38.9249
35.6524
28.3122
19.5997
15.975
12.0431
5.09395
1.90273
1.61022
3.29416
6.57793
10.908
3.46004
1.77422
1.11698
0.225393
-0.106471
-0.0158186
-0.0336354
-0.132619
-0.181467
0.574527
0.128187
-0.191467
-0.414815
-0.491605
-0.373204
-0.236444
-0.254944
-0.27609
-0.281857
-0.169527
-0.486954
-0.5169
-0.536239
-0.515821
-0.455012
-0.38499
-0.37045
-0.370427
-0.379695
-0.469431
-0.592401
-0.58242
-0.522526
-0.554051
-0.542584
-0.504558
-0.499155
-0.489878
-0.479612
-0.580163
-0.689976
-0.638562
-0.571317
-0.692389
-0.764235
-0.703518
-0.65221
-0.614235
-0.576806
-0.698782
-0.799845
-0.729709
-0.705957
-0.817076
-0.932017
-0.818698
-0.751938
-0.712317
-0.659248
-0.799042
-0.862465
-0.871152
-0.861659
-0.861701
-0.887189
-0.836843
-0.80546
-0.797298
-0.754891
-0.880817
-0.904358
-0.940826
-0.908313
-0.807844
-0.802613
-0.846329
-0.866008
-0.888608
-0.867518
-0.94208
-0.939551
-0.942237
-0.914487
-0.852849
-0.858713
-0.900457
-0.93493
-0.972297
-0.967204
-0.961617
-0.961641
-0.954946
-0.943434
-0.923021
-0.934442
-0.949258
-0.983113
-1.02722
-1.02257
-0.979056
-0.977253
-0.966828
-0.975853
-0.973038
-0.978452
-0.982214
-1.00848
-1.05002
-1.02898
-1.00111
-0.997126
-0.983657
-1.00068
-1.0052
-1.01016
-1.00969
-1.02501
-1.05231
-1.03687
363.585
362.962
361.821
360.255
358.485
356.732
355.181
354.032
353.377
353.256
314.664
314.033
312.768
311.031
309.047
307.12
305.414
304.166
303.483
303.396
266.205
265.293
263.73
261.684
259.394
256.95
254.836
253.384
252.694
252.66
217.968
216.733
214.621
211.919
208.897
205.927
203.183
201.465
200.839
201.127
170.366
168.647
165.821
162.303
158.327
154.356
150.156
147.494
146.864
148.314
123.225
120.562
116.56
111.687
106.051
99.8827
94.8485
92.057
91.9248
94.6723
78.2096
74.1496
67.6024
60.7703
54.7404
46.5616
39.2655
35.1766
36.1598
41.1441
41.0498
34.4646
25.7165
19.774
14.139
7.57601
3.93181
3.38231
4.78932
6.68059
14.7292
5.31115
3.27046
1.82913
0.220965
-0.066509
-0.0879287
-0.142821
-0.172864
-0.160475
1.52003
-0.140277
-0.411841
-0.288291
-0.299579
-0.311942
-0.274314
-0.29187
-0.301173
-0.291159
-0.387253
-0.520217
-0.551533
-0.458718
-0.426869
-0.451188
-0.412712
-0.375575
-0.360498
-0.368489
-0.533183
-0.633298
-0.596198
-0.521024
-0.556778
-0.592973
-0.570894
-0.527178
-0.484902
-0.460142
-0.591271
-0.619791
-0.626543
-0.594003
-0.723834
-0.839374
-0.787922
-0.705124
-0.631458
-0.567095
-0.726135
-0.757506
-0.714002
-0.734065
-0.852192
-0.976608
-0.897316
-0.812517
-0.756717
-0.686136
-0.852748
-0.866975
-0.867713
-0.882827
-0.893489
-0.91759
-0.892667
-0.867587
-0.874068
-0.84185
-0.92884
-0.933947
-0.964375
-0.956799
-0.858099
-0.8325
-0.894105
-0.933955
-0.987098
-1.00751
-0.966735
-0.974507
-0.995235
-0.983155
-0.90633
-0.89882
-0.953633
-0.994479
-1.06079
-1.0906
-0.98332
-0.990654
-1.00345
-0.993216
-0.970343
-0.97762
-0.996619
-1.01988
-1.0731
-1.08049
-0.992472
-0.994027
-1.00005
-1.0029
-1.00473
-1.0112
-1.01367
-1.02028
-1.04737
-1.04292
-1.00897
-1.00859
-1.00178
-1.01407
-1.02298
-1.03069
-1.02742
-1.02577
-1.03366
-1.02568
365.667
365.031
363.873
362.286
360.473
358.649
356.993
355.707
354.878
354.58
317.032
316.295
315.013
313.262
311.261
309.247
307.425
306.025
305.142
304.847
268.816
267.935
266.382
264.3
261.927
259.487
257.292
255.663
254.735
254.359
221.19
219.975
217.956
215.288
212.247
209.202
206.467
204.481
203.461
203.14
174.236
172.74
170.09
166.629
162.742
158.692
154.646
151.898
150.436
150.531
128.155
126.033
122.512
117.757
112.181
106.047
101.318
98.2227
95.8661
96.813
83.75
80.8609
75.8932
69.4292
62.8628
55.9083
48.6274
43.4943
39.7339
43.7061
45.4382
41.0636
34.6004
26.9059
19.6177
12.7641
7.52532
5.71117
5.80512
8.64084
21.1141
10.6538
4.58551
1.40094
0.255267
-0.108134
-0.140721
-0.178663
-0.217364
-0.179431
3.1843
-0.28795
-0.423327
-0.223612
-0.232355
-0.321924
-0.332079
-0.326326
-0.308819
-0.315032
-0.4061
-0.523566
-0.523719
-0.39067
-0.397945
-0.47024
-0.481731
-0.449988
-0.37316
-0.360198
-0.573208
-0.609558
-0.584924
-0.524966
-0.579524
-0.658192
-0.678392
-0.641174
-0.530034
-0.45718
-0.667414
-0.633623
-0.602063
-0.618932
-0.75247
-0.903019
-0.877223
-0.814713
-0.7007
-0.593728
-0.769768
-0.761136
-0.721834
-0.745849
-0.869852
-1.00381
-0.963056
-0.899107
-0.848507
-0.775034
-0.869144
-0.882754
-0.872746
-0.880351
-0.918071
-0.944767
-0.944551
-0.947752
-0.975061
-0.987287
-0.935554
-0.968477
-0.991578
-1.00771
-0.936115
-0.888695
-0.950108
-1.01065
-1.07298
-1.13217
-0.981726
-1.01132
-1.03393
-1.04919
-0.983982
-0.96288
-1.02254
-1.06485
-1.11682
-1.16232
-1.00441
-1.01512
-1.03604
-1.0349
-1.01811
-1.03333
-1.06116
-1.07695
-1.10359
-1.12573
-1.01009
-1.00501
-1.02438
-1.0264
-1.03457
-1.04603
-1.05604
-1.05809
-1.06833
-1.06997
-1.01771
-1.00966
-1.01788
-1.02667
-1.04741
-1.05363
-1.04658
-1.04014
-1.03901
-1.02895
367.923
367.286
366.113
364.503
362.641
360.737
358.963
357.527
356.505
356.019
319.462
318.745
317.455
315.684
313.639
311.544
309.591
308.014
306.892
306.371
271.629
270.781
269.244
267.142
264.717
262.217
259.894
258.047
256.764
256.095
224.53
223.444
221.511
218.869
215.82
212.699
209.783
207.489
205.907
204.939
178.424
177.062
174.542
171.15
167.268
163.188
159.177
156.063
153.824
152.514
133.418
131.506
128.319
123.899
118.66
112.972
107.806
103.795
100.125
99.3533
90.0061
87.4479
83.1745
77.2869
71.0766
64.1762
57.2479
51.4269
45.3469
46.9942
49.4321
46.1513
43.0398
36.2441
28.5462
20.6212
13.8097
9.14852
7.5765
10.8293
22.401
15.4124
10.0771
4.48496
1.84481
0.0800063
-0.041163
-0.0522183
-0.125372
-0.15701
3.84134
0.7236
-0.225362
-0.127318
-0.178709
-0.302557
-0.322361
-0.299945
-0.31278
-0.334611
-0.416792
-0.589516
-0.582917
-0.40856
-0.406605
-0.486688
-0.540078
-0.548567
-0.483882
-0.42346
-0.639522
-0.7229
-0.648002
-0.55895
-0.609661
-0.71374
-0.769228
-0.759213
-0.657646
-0.538469
-0.774887
-0.773698
-0.626972
-0.633185
-0.754409
-0.919963
-0.926395
-0.885149
-0.805042
-0.704908
-0.838321
-0.831446
-0.76971
-0.733623
-0.855739
-0.991019
-0.98473
-0.949036
-0.926935
-0.906328
-0.899541
-0.923129
-0.913026
-0.905401
-0.940954
-0.954505
-0.967697
-0.999911
-1.03934
-1.08416
-0.948247
-0.994534
-1.01899
-1.05971
-1.02336
-0.950153
-1.00363
-1.08134
-1.13906
-1.18776
-0.993893
-1.04328
-1.05144
-1.09467
-1.06541
-1.05029
-1.11857
-1.17084
-1.20447
-1.22625
-1.02546
-1.05547
-1.05657
-1.07627
-1.08011
-1.11811
-1.16836
-1.19691
-1.20944
-1.20813
-1.03938
-1.03057
-1.04392
-1.06
-1.07437
-1.09724
-1.11891
-1.12929
-1.13406
-1.13054
-1.04229
-1.01376
-1.03705
-1.04827
-1.071
-1.0706
-1.06431
-1.05884
-1.06061
-1.05658
370.177
369.544
368.359
366.717
364.802
362.814
360.928
359.341
358.148
357.478
321.899
321.202
319.907
318.104
316.002
313.818
311.744
309.995
308.655
307.904
274.46
273.638
272.113
269.982
267.496
264.904
262.437
260.347
258.741
257.778
227.966
226.937
225.052
222.4
219.312
216.079
212.971
210.332
208.182
206.819
182.771
181.388
178.942
175.59
171.7
167.535
163.442
159.937
156.967
155.488
138.901
137.079
133.88
129.648
124.814
119.154
113.715
108.935
104.592
102.561
96.6703
94.4673
90.3112
84.7936
78.1966
71.7222
64.844
58.7053
52.2412
49.1779
56.0132
51.2604
49.0893
44.1856
37.8969
29.0571
21.2627
14.1432
9.9886
10.0901
25.8892
20.1861
15.9709
11.2152
6.10788
1.85612
0.252022
0.135586
0.110046
0.0542811
6.21135
2.36857
0.701757
0.0457809
-0.155121
-0.272305
-0.31768
-0.269412
-0.215941
-0.222571
-0.318192
-0.449409
-0.626679
-0.500926
-0.441908
-0.500646
-0.573972
-0.617558
-0.570221
-0.479804
-0.695763
-0.728688
-0.665627
-0.590246
-0.622575
-0.718301
-0.797517
-0.805979
-0.745136
-0.655315
-0.818641
-0.839325
-0.693533
-0.639671
-0.721111
-0.858214
-0.909515
-0.885456
-0.847569
-0.81282
-0.922882
-0.929898
-0.853764
-0.77033
-0.816859
-0.928636
-0.952442
-0.948114
-0.951349
-0.978395
-0.959589
-0.991111
-0.98306
-0.957278
-0.975759
-0.960693
-0.970893
-1.01949
-1.06631
-1.11846
-0.965068
-1.02129
-1.04043
-1.08588
-1.08021
-1.01691
-1.05643
-1.13603
-1.18941
-1.23308
-1.00473
-1.07346
-1.06786
-1.1282
-1.13062
-1.142
-1.20862
-1.26718
-1.3091
-1.32625
-1.04275
-1.10266
-1.089
-1.13934
-1.15521
-1.21144
-1.27018
-1.30695
-1.32186
-1.31534
-1.05799
-1.07164
-1.06895
-1.10489
-1.12969
-1.16469
-1.18765
-1.19561
-1.19273
-1.19065
-1.06991
-1.0289
-1.05036
-1.07778
-1.09787
-1.09676
-1.07756
-1.05888
-1.06182
-1.06734
372.268
371.631
370.431
368.752
366.781
364.716
362.733
361.025
359.697
358.893
324.167
323.475
322.173
320.325
318.158
315.889
313.71
311.828
310.346
309.446
277.089
276.296
274.787
272.588
270.017
267.333
264.748
262.495
260.696
259.535
231.15
230.183
228.359
225.622
222.419
219.079
215.833
212.982
210.636
209.393
186.709
185.381
183.04
179.588
175.565
171.338
167.174
163.483
160.361
158.262
144.143
142.291
139.093
134.555
129.581
124.257
118.604
113.313
108.598
105.904
103.605
101.069
97.024
91.2984
84.5495
77.5011
70.6519
64.0157
57.2166
52.3313
64.9856
60.434
54.509
49.2904