/*--------------------------------*- C++ -*----------------------------------*\
| =========                 |                                                 |
| \\      /  F ield         | OpenFOAM: The Open Source CFD Toolbox           |
|  \\    /   O peration     | Version:  2312                                  |
|   \\  /    A nd           | Website:  www.openfoam.com                      |
|    \\/     M anipulation  |                                                 |
\*---------------------------------------------------------------------------*/
FoamFile
{
    version     2.0;
    format      ascii;
    arch        "LSB;label=32;scalar=64";
    class       volVectorField;
    location    "0.345";
    object      U;
}
// * * * * * * * * * * * * * * * * * * * * * * * * * * * * * * * * * * * * * //

dimensions      [0 1 -1 0 0 0 0];

internalField   nonuniform List<vector> 
8000
(
(-0.00238453 0.00339176 -0.00283865)
(-0.00787036 0.00288142 -0.00236882)
(-0.0128645 0.0019513 -0.00152973)
(-0.0168194 0.000722346 -0.000554819)
(-0.019126 -0.000719605 0.000341866)
(-0.0195366 -0.00222932 0.00111925)
(-0.0179844 -0.003694 0.00175093)
(-0.0144069 -0.00512809 0.00226974)
(-0.00873051 -0.00646292 0.0027366)
(-0.00267503 -0.00576143 0.00269676)
(-0.0023335 0.0118115 -0.00338056)
(-0.00789848 0.0103755 -0.0029245)
(-0.0129557 0.00771864 -0.0021219)
(-0.0170778 0.00411229 -0.00113454)
(-0.0197467 -0.000138705 -0.000111937)
(-0.0205246 -0.00473767 0.000843486)
(-0.0192 -0.00932443 0.00163202)
(-0.015629 -0.0138911 0.0022913)
(-0.00959903 -0.0181644 0.00288689)
(-0.00292126 -0.0165539 0.0029362)
(-0.00316986 0.0218735 -0.00369812)
(-0.0103292 0.0192855 -0.00306813)
(-0.0168489 0.0145226 -0.00215883)
(-0.022207 0.00805677 -0.00107821)
(-0.0257294 0.000420877 1.76529e-05)
(-0.0268645 -0.00773573 0.00111399)
(-0.0253268 -0.0160889 0.00208408)
(-0.0208997 -0.0246045 0.00296368)
(-0.0129961 -0.0328565 0.00380414)
(-0.0039239 -0.0302694 0.00391471)
(-0.00436165 0.0345846 -0.00416848)
(-0.0138104 0.0307765 -0.00338311)
(-0.0224335 0.0236478 -0.00247318)
(-0.0296675 0.0137426 -0.00114936)
(-0.0345234 0.00176989 0.00019482)
(-0.0364929 -0.0113223 0.00132274)
(-0.0352591 -0.0241959 0.00254008)
(-0.0302641 -0.0377505 0.0038901)
(-0.0199718 -0.051998 0.0056682)
(-0.00645947 -0.0486582 0.00634914)
(-0.00580689 0.0423168 0.00219739)
(-0.0176633 0.0374965 0.00296115)
(-0.0290711 0.0285195 0.00307597)
(-0.0393313 0.0159124 0.00303689)
(-0.0467969 0.00100331 0.00311143)
(-0.049902 -0.0157253 0.004381)
(-0.0490263 -0.034761 0.00578222)
(-0.0449978 -0.0563456 0.00835568)
(-0.0351381 -0.0821851 0.0134495)
(-0.015267 -0.0808123 0.0149629)
(-0.00713864 0.0627858 0.00417694)
(-0.0164889 0.0570629 0.00460306)
(-0.0255929 0.0467152 0.00604629)
(-0.0353661 0.0294631 0.00855504)
(-0.0453542 0.00453362 0.0113123)
(-0.0531138 -0.0236385 0.012892)
(-0.056224 -0.0524839 0.0152251)
(-0.0568828 -0.0835577 0.0197366)
(-0.0539186 -0.130821 0.0266187)
(-0.0233328 -0.152851 0.0237733)
(-0.00384438 0.034265 -0.0262693)
(-0.0167692 0.0282265 -0.0231011)
(-0.0315265 0.0175724 -0.0141923)
(-0.0475867 0.00336349 -0.00392673)
(-0.0629514 -0.0188118 0.00374554)
(-0.0729179 -0.0494464 0.0100609)
(-0.0743178 -0.079498 0.0149359)
(-0.0738004 -0.115575 0.0172117)
(-0.0702671 -0.197378 0.01446)
(-0.00892608 -0.244837 0.0107495)
(0.0171268 0.122486 -0.0835603)
(-0.00807759 0.113628 -0.0715792)
(-0.0549248 0.0914434 -0.0570982)
(-0.105703 0.0558546 -0.0508141)
(-0.136158 0.00377856 -0.0364157)
(-0.154223 -0.060299 -0.0234852)
(-0.150202 -0.120954 -0.0279412)
(-0.128288 -0.189586 -0.0386138)
(-0.0867215 -0.314613 -0.0541505)
(0.0231288 -0.339558 -0.0209734)
(0.0161595 0.327368 -0.389237)
(0.0644504 0.329139 -0.396611)
(0.122717 0.320306 -0.402319)
(0.204238 0.284294 -0.287739)
(0.204391 0.184134 -0.0615997)
(-0.0849052 0.029903 -0.0131713)
(-0.156103 -0.112226 -0.0631229)
(-0.152745 -0.228886 -0.0755194)
(-0.0769554 -0.319193 -0.0779467)
(0.0320573 -0.406136 -0.0219501)
(0.0166728 0.641013 -0.243013)
(0.0831064 0.627261 -0.240155)
(0.164461 0.590187 -0.189314)
(0.229446 0.484496 -0.0458707)
(0.165367 0.337305 0.040631)
(0.0626955 0.207181 -0.00363949)
(0.0202468 0.0502509 -0.0154974)
(-0.0515075 -0.11093 -0.0402519)
(-0.0462333 -0.221801 -0.117811)
(0.0340309 -0.358884 -0.0650759)
(0.0284396 0.680063 -0.0526056)
(0.0959382 0.655579 -0.0343243)
(0.163602 0.594214 0.0207709)
(0.190341 0.492034 0.0774164)
(0.157356 0.391728 0.0574965)
(0.138284 0.291769 0.00711188)
(0.116554 0.158245 -0.00431312)
(-0.000182567 -0.00619676 -0.00507728)
(-0.0295853 -0.131996 -0.115122)
(0.0265368 -0.218456 -0.118105)
(0.028927 0.49137 0.0454077)
(0.0931169 0.471734 0.058123)
(0.142111 0.438115 0.0849466)
(0.162926 0.398676 0.0941082)
(0.160904 0.363109 0.070602)
(0.159708 0.315106 0.0336513)
(0.146526 0.232928 0.00331573)
(0.0436808 0.110842 -0.0117744)
(-0.0217138 0.0195089 -0.104446)
(0.00844992 -0.0618371 -0.131344)
(0.0134729 0.306705 0.0382657)
(0.0724302 0.301688 0.0453266)
(0.0992935 0.288952 0.067323)
(0.105937 0.279723 0.07772)
(0.110769 0.283454 0.0690282)
(0.117134 0.288267 0.0370743)
(0.117482 0.270211 -0.00728109)
(0.0455266 0.208508 -0.0277719)
(-0.0322316 0.150461 -0.0927175)
(0.00964221 0.073119 -0.124866)
(0.000621099 0.197796 -0.000215804)
(0.0422419 0.203635 0.00511628)
(0.0506164 0.194907 0.0277459)
(0.0335814 0.182408 0.0379219)
(0.0293717 0.193078 0.0341888)
(0.0468513 0.231633 0.0195547)
(0.0672603 0.295461 -0.0200848)
(0.0350602 0.292621 -0.0418092)
(-0.0304239 0.253016 -0.0779281)
(0.0096134 0.192585 -0.108023)
(0.00217277 0.132649 -0.0169767)
(0.0218423 0.143942 -0.0119251)
(0.0252548 0.149631 0.00291531)
(0.00878187 0.132224 0.0185913)
(0.0135178 0.103069 0.0319743)
(0.0353052 0.122618 0.0328887)
(0.0425834 0.266963 0.00210665)
(0.0381507 0.356242 -0.0391178)
(-0.0202541 0.334557 -0.0578339)
(0.00442621 0.297761 -0.0871888)
(0.00344139 0.09041 -0.00340164)
(0.00145483 0.101284 0.00395184)
(0.00613518 0.102206 0.0186357)
(0.0214841 0.0521048 0.0345564)
(0.0431193 0.00562913 0.0352281)
(0.0659883 0.00183441 0.0423318)
(0.0464834 0.167401 0.0368361)
(0.0468506 0.383274 -0.0161418)
(-0.0159382 0.399809 -0.0337681)
(-0.00693394 0.380168 -0.0655949)
(0.000292089 0.0546499 0.0195607)
(-0.00650063 0.046544 0.0253519)
(0.0065214 0.0166261 0.0304118)
(0.018473 -0.0156038 0.0213422)
(0.0289736 -0.0444275 0.0178898)
(0.0282872 -0.0559665 0.0298961)
(-0.00261152 0.0982748 0.0435618)
(0.0229536 0.387772 0.00998061)
(-0.0366552 0.457118 -0.0126388)
(-0.0274142 0.427513 -0.0400276)
(7.4701e-05 0.00330479 0.0220218)
(0.000543072 -0.00662941 0.020274)
(-0.000453085 -0.016828 0.0150581)
(-0.00578675 -0.0335093 0.00986236)
(-0.00744147 -0.0655913 0.00932801)
(-0.043038 -0.0821285 0.0209594)
(-0.0891054 0.0617077 0.0467564)
(-0.0541227 0.369261 0.0369207)
(-0.0782047 0.496561 0.0159272)
(-0.0531266 0.407496 0.000952024)
(-0.00147864 -0.0165468 0.011139)
(-0.0068157 -0.0195872 0.0099397)
(-0.0145596 -0.0265175 0.0080546)
(-0.0238398 -0.0376886 0.00565057)
(-0.0386631 -0.0578403 0.00259574)
(-0.0879865 -0.0768384 0.00601976)
(-0.148398 0.015687 0.0368991)
(-0.131472 0.284855 0.0616113)
(-0.100163 0.44039 0.0513837)
(-0.0504062 0.283487 0.034311)
(-0.00323215 -0.0247781 0.00672595)
(-0.0107311 -0.026724 0.0063037)
(-0.0202971 -0.0295352 0.00541102)
(-0.0326488 -0.0329133 0.0039896)
(-0.0509209 -0.0385712 0.000709728)
(-0.0887948 -0.043326 -0.00579906)
(-0.136161 -0.00326486 0.000461363)
(-0.137594 0.139628 0.0353812)
(-0.0797091 0.267798 0.0536918)
(-0.0140222 0.131963 0.0299716)
(-0.00340425 0.000821922 -0.00099822)
(-0.0107102 0.000305275 -1.51403e-05)
(-0.016525 -0.000590183 0.00130734)
(-0.0205153 -0.00165655 0.00275052)
(-0.0224011 -0.0028035 0.00418733)
(-0.0221753 -0.00398355 0.00557793)
(-0.0199429 -0.00517943 0.00687522)
(-0.0156839 -0.00645585 0.00811759)
(-0.00927583 -0.00770702 0.00934696)
(-0.00271505 -0.00647149 0.00880364)
(-0.00297919 0.00351937 -0.00316217)
(-0.0099308 0.00266398 -0.00203405)
(-0.0156573 0.00059536 -0.000411967)
(-0.0198601 -0.0022288 0.00133401)
(-0.0221766 -0.00556316 0.00317547)
(-0.0224567 -0.00922608 0.00502057)
(-0.0206307 -0.013056 0.00674216)
(-0.0165309 -0.0171634 0.00837023)
(-0.00991283 -0.0211919 0.00996737)
(-0.00287238 -0.018197 0.00965755)
(-0.00379751 0.00664635 -0.00341984)
(-0.0127097 0.00542318 -0.0023493)
(-0.0202514 0.00196957 -0.000290474)
(-0.0256985 -0.00273995 0.00181815)
(-0.0287395 -0.00863989 0.00402283)
(-0.029235 -0.015413 0.00636669)
(-0.0271037 -0.0225755 0.00866637)
(-0.0220127 -0.0303815 0.0109867)
(-0.0133808 -0.0381665 0.0133508)
(-0.00381401 -0.0329427 0.0129895)
(-0.00514513 0.0140276 -0.00247771)
(-0.0165702 0.0123806 -0.00172777)
(-0.0263168 0.006942 0.000229611)
(-0.0336808 -0.00141242 0.00267077)
(-0.0384172 -0.0119033 0.0053024)
(-0.0397682 -0.0228742 0.00817585)
(-0.0376663 -0.0341919 0.01134)
(-0.0316638 -0.0468936 0.0150437)
(-0.0199683 -0.0604054 0.0196674)
(-0.00578438 -0.0521853 0.0197866)
(-0.00796206 0.019509 0.00285704)
(-0.0235968 0.0168973 0.00337568)
(-0.0379426 0.00913269 0.00467241)
(-0.0495348 -0.00246404 0.00661819)
(-0.0560312 -0.0156014 0.00930326)
(-0.0572306 -0.0308947 0.0126897)
(-0.0543187 -0.0481888 0.0164141)
(-0.047665 -0.0688287 0.0227559)
(-0.0336655 -0.0929872 0.033328)
(-0.0137178 -0.0824332 0.0348136)
(-0.0110999 0.0562027 0.0044742)
(-0.028488 0.0521554 0.00542334)
(-0.0449539 0.040199 0.00839224)
(-0.0588389 0.0184097 0.0131617)
(-0.0688046 -0.0101649 0.0189833)
(-0.073719 -0.0384178 0.0219709)
(-0.0716229 -0.0664766 0.026863)
(-0.065333 -0.0982735 0.038044)
(-0.0544062 -0.138186 0.0560622)
(-0.0261055 -0.132163 0.0547644)
(-0.00821681 0.048272 -0.0309711)
(-0.0273988 0.0429198 -0.0254579)
(-0.0491854 0.0280104 -0.0146412)
(-0.0721555 0.0053449 -0.00100921)
(-0.0887859 -0.0240091 0.0129553)
(-0.0963159 -0.0590564 0.0262077)
(-0.0938765 -0.0963484 0.0415795)
(-0.0854979 -0.138339 0.0592586)
(-0.0761941 -0.198813 0.0772782)
(-0.0137267 -0.199215 0.0712346)
(0.00340575 0.0997847 -0.127839)
(-0.012593 0.0983716 -0.111016)
(-0.0408193 0.0876564 -0.0898328)
(-0.0703081 0.0572751 -0.0709969)
(-0.0929425 0.0123113 -0.0507692)
(-0.102483 -0.0463449 -0.00282835)
(-0.102018 -0.109997 0.0357105)
(-0.0904558 -0.172674 0.0533644)
(-0.074181 -0.270921 0.0418631)
(0.0459649 -0.309924 0.0699752)
(0.0122613 0.0859745 -0.438851)
(0.0379767 0.109706 -0.445865)
(0.063481 0.12029 -0.468487)
(0.0794172 0.102718 -0.408354)
(0.0887512 0.0800589 -0.14111)
(0.0415819 0.0268639 -0.0424272)
(0.000202963 -0.0517686 -0.0460659)
(0.00416257 -0.129758 -0.0440913)
(-0.00442092 -0.248976 -0.0866017)
(0.057941 -0.320251 0.0138706)
(-0.0163777 0.250489 -0.164043)
(0.0196842 0.230984 -0.195884)
(0.0541525 0.223758 -0.207386)
(0.0958029 0.251204 -0.1449)
(0.131379 0.259707 -0.0553797)
(0.138289 0.201822 -0.0806998)
(0.120105 0.102779 -0.11053)
(0.119404 0.00887324 -0.132721)
(0.119453 -0.0400071 -0.278102)
(0.0387559 -0.146126 -0.139876)
(-0.00258665 0.239728 0.0339476)
(0.0485716 0.250244 0.0116709)
(0.0940889 0.276587 -0.00042112)
(0.139523 0.312163 0.00348412)
(0.171237 0.316457 -0.0209544)
(0.191788 0.268601 -0.0740447)
(0.1643 0.190532 -0.0872415)
(0.110255 0.106236 -0.0668943)
(0.0912216 0.0702718 -0.211666)
(0.0287078 -0.0207509 -0.205878)
(0.000945096 0.137766 0.101872)
(0.076585 0.179495 0.0944205)
(0.135455 0.237621 0.0824781)
(0.185355 0.290494 0.0571399)
(0.218627 0.311548 0.0143105)
(0.23139 0.292763 -0.0257833)
(0.190654 0.253327 -0.038284)
(0.113748 0.199118 -0.0284296)
(0.070574 0.172511 -0.16496)
(0.0326604 0.108251 -0.213267)
(-0.0191752 0.0476715 0.0881923)
(0.0309563 0.117339 0.107773)
(0.0806684 0.182726 0.115144)
(0.129304 0.226581 0.105056)
(0.177239 0.25674 0.0804352)
(0.211555 0.274841 0.0457902)
(0.186314 0.288931 0.00862771)
(0.106022 0.27289 -0.00995973)
(0.049991 0.248508 -0.122501)
(0.0401235 0.196747 -0.189874)
(-0.0179955 0.0303159 0.0753877)
(-0.0189985 0.075583 0.0947174)
(-0.000919828 0.109366 0.11166)
(0.0213621 0.114257 0.12101)
(0.0618059 0.132569 0.122219)
(0.116962 0.203094 0.100531)
(0.13462 0.289514 0.0464237)
(0.086602 0.310203 -0.0068361)
(0.0443379 0.293031 -0.0853933)
(0.0516476 0.271224 -0.159184)
(-0.00420953 0.00788035 0.066073)
(-0.0306179 0.0314755 0.0799337)
(-0.0241566 0.047096 0.0950433)
(-0.00320846 0.0301069 0.105327)
(0.0316346 0.00276377 0.114474)
(0.0850864 0.0458787 0.131913)
(0.10222 0.239985 0.0936159)
(0.0841393 0.305737 0.00893433)
(0.0464948 0.310673 -0.0569382)
(0.056727 0.343619 -0.13099)
(0.000668859 0.0125948 0.0666772)
(-0.0224258 0.0128627 0.0777185)
(-0.012866 -0.00419752 0.0850535)
(0.0111672 -0.0405701 0.075853)
(0.0319482 -0.0627139 0.0691218)
(0.0604737 -0.0273066 0.103134)
(0.0764575 0.177908 0.120947)
(0.0834463 0.310777 0.0317121)
(0.0319262 0.338022 -0.0395079)
(0.0472408 0.409885 -0.104548)
(0.000721797 -0.00702743 0.0714858)
(-0.0050614 -0.0222731 0.0700015)
(-0.000756385 -0.0443005 0.0597413)
(-0.00404179 -0.0568849 0.0415016)
(-0.00687635 -0.0824099 0.0441872)
(-0.00918167 -0.0414309 0.0747131)
(0.0132756 0.15409 0.0947677)
(0.0719455 0.35054 0.0419558)
(0.00447896 0.381601 -0.0246559)
(0.0259342 0.458249 -0.0661914)
(0.00111342 -0.0333281 0.0488884)
(-0.00345558 -0.0375257 0.0433013)
(-0.0162877 -0.0393042 0.0337514)
(-0.0279779 -0.057021 0.0261456)
(-0.0491043 -0.0840004 0.0304806)
(-0.0834591 -0.0397708 0.0585315)
(-0.0655364 0.152133 0.0791138)
(0.034883 0.399275 0.0569104)
(-0.0312722 0.449887 0.00379996)
(-0.0132734 0.467124 -0.000540607)
(-0.00166376 -0.0297725 0.0270116)
(-0.0133125 -0.0319134 0.0256284)
(-0.0269399 -0.0371809 0.0230681)
(-0.043241 -0.0473632 0.0191052)
(-0.0781364 -0.0661676 0.0186696)
(-0.138734 -0.0311284 0.0420211)
(-0.147569 0.152242 0.0827143)
(-0.0617739 0.417848 0.0887923)
(-0.0829279 0.500871 0.0633507)
(-0.0534222 0.36693 0.0757865)
(-0.00293149 -0.0315696 0.0191766)
(-0.014779 -0.0323298 0.0191104)
(-0.0292762 -0.0328281 0.0179113)
(-0.0481587 -0.0338686 0.0161655)
(-0.0813938 -0.0375473 0.0130048)
(-0.142666 -0.0164185 0.0200281)
(-0.187488 0.115741 0.0606374)
(-0.144188 0.340669 0.10191)
(-0.0998714 0.413734 0.112083)
(-0.0310218 0.17599 0.101812)
(-0.00280094 -6.25448e-05 0.0068538)
(-0.00956063 -0.000277803 0.00695418)
(-0.015133 -0.000863197 0.00768172)
(-0.0187964 -0.00165903 0.00860577)
(-0.0203815 -0.00252686 0.00972217)
(-0.0200314 -0.00343623 0.0110361)
(-0.0179041 -0.00439617 0.0124889)
(-0.0139646 -0.00546378 0.0141069)
(-0.00804652 -0.00647338 0.0158302)
(-0.00224696 -0.00515221 0.0145585)
(-0.00210255 0.000287794 0.00450113)
(-0.00805121 0.000600754 0.00436286)
(-0.0134349 -0.0002157 0.00505464)
(-0.0173799 -0.00212872 0.00645419)
(-0.0194434 -0.00461745 0.00814525)
(-0.0196475 -0.00748356 0.0101172)
(-0.0179855 -0.0105777 0.0122162)
(-0.014285 -0.0139806 0.0144118)
(-0.0083134 -0.017222 0.0166639)
(-0.00227347 -0.0139695 0.015771)
(-0.00302249 9.84499e-05 0.00397164)
(-0.0105226 0.0012301 0.00440229)
(-0.0173031 5.04994e-05 0.00531679)
(-0.0224379 -0.00289276 0.00735856)
(-0.0251097 -0.0072122 0.00980378)
(-0.0254302 -0.0124456 0.0125708)
(-0.0233855 -0.0181961 0.0155415)
(-0.0187051 -0.0245396 0.0187104)
(-0.0109966 -0.0305426 0.0220119)
(-0.00295912 -0.0247931 0.0209579)
(-0.00401326 0.00385248 0.00312739)
(-0.0133807 0.00540324 0.00414063)
(-0.0217388 0.00305819 0.00550618)
(-0.0285172 -0.00244044 0.00810296)
(-0.0326817 -0.0100587 0.0115921)
(-0.0337588 -0.0185364 0.015768)
(-0.0316484 -0.0276063 0.0202944)
(-0.0257537 -0.0375727 0.0253912)
(-0.0152536 -0.0472345 0.0312826)
(-0.00394447 -0.0381181 0.0301475)
(-0.00614201 0.00741193 0.00153016)
(-0.0193881 0.00816976 0.0032197)
(-0.0316631 0.00453277 0.00529157)
(-0.0416515 -0.00310412 0.00939032)
(-0.047299 -0.0130215 0.0152424)
(-0.0482624 -0.0249677 0.0211367)
(-0.0447315 -0.0384663 0.0276894)
(-0.0367605 -0.0537385 0.0369511)
(-0.0231999 -0.0691899 0.0485354)
(-0.00846959 -0.056524 0.0449795)
(-0.00979984 0.0324855 -0.00140618)
(-0.0285923 0.0317515 0.00165967)
(-0.045739 0.0244055 0.00765035)
(-0.0585639 0.00876189 0.0149234)
(-0.0651627 -0.0111248 0.0214789)
(-0.0661112 -0.0325339 0.0287725)
(-0.0606371 -0.0560179 0.0404817)
(-0.0518225 -0.0798542 0.0574659)
(-0.0380808 -0.100656 0.0742886)
(-0.0191176 -0.0851601 0.0592281)
(-0.00978788 0.0444519 -0.0463487)
(-0.0338583 0.040866 -0.0391493)
(-0.0569676 0.0285162 -0.0238279)
(-0.0741633 0.00766094 -0.00677416)
(-0.0838239 -0.0210761 0.0112465)
(-0.0866509 -0.0560046 0.0301438)
(-0.0806515 -0.0919698 0.0512749)
(-0.069335 -0.121555 0.0698245)
(-0.0577218 -0.142133 0.0856027)
(-0.016417 -0.120399 0.0765471)
(0.00124075 0.0664068 -0.116549)
(-0.0170873 0.0659158 -0.111371)
(-0.0428825 0.0531161 -0.101356)
(-0.0666452 0.0228922 -0.081172)
(-0.0786385 -0.0191939 -0.0571131)
(-0.0712483 -0.0622012 -0.0348713)
(-0.0541664 -0.101553 -0.0279291)
(-0.0275506 -0.127925 -0.0333901)
(-0.0419332 -0.160603 -0.0268295)
(0.0313619 -0.181659 0.0928951)
(0.0106627 0.0154624 -0.392905)
(0.0354609 0.0413761 -0.401592)
(0.0694334 0.0482047 -0.432464)
(0.125499 0.0104437 -0.43994)
(0.163946 -0.0345631 -0.333094)
(0.115674 -0.0285924 -0.207929)
(0.120195 -0.0465724 -0.217736)
(0.154563 -0.056447 -0.239667)
(0.0895579 -0.121328 -0.261842)
(0.0674723 -0.196393 -0.0111559)
(-0.02293 -0.0359546 -0.202501)
(0.0219133 -0.0329476 -0.23849)
(0.0704261 -0.0536308 -0.227727)
(0.110513 -0.0385346 -0.212913)
(0.165787 0.0628066 -0.18794)
(0.215679 0.0756516 -0.165518)
(0.211422 0.0110274 -0.183699)
(0.198803 -0.0163726 -0.246185)
(0.209381 0.0183977 -0.347494)
(0.0609695 0.0198817 -0.243185)
(-0.00605148 -0.00426374 0.00336591)
(0.0465193 -0.0038923 -0.0033061)
(0.081895 -0.00832793 0.00606279)
(0.112953 0.000366355 0.000127791)
(0.161411 0.0204932 -0.0258677)
(0.202983 0.0375018 -0.0486172)
(0.186121 0.0490341 -0.0773679)
(0.146985 0.0669198 -0.129619)
(0.150305 0.0856583 -0.253136)
(0.0573883 0.123954 -0.268366)
(-0.019646 -0.107391 0.0425017)
(0.014175 -0.112355 0.0550172)
(0.046774 -0.102364 0.078862)
(0.0863287 -0.0829214 0.0917571)
(0.119498 -0.0501421 0.0909192)
(0.131089 -0.00544824 0.0622103)
(0.111109 0.0465761 0.00149298)
(0.0899542 0.095308 -0.0577845)
(0.0925625 0.135381 -0.181299)
(0.0590044 0.213446 -0.243582)
(-0.0205514 -0.0927234 0.0542802)
(-0.0179092 -0.0825986 0.0899523)
(0.00331796 -0.0775349 0.124506)
(0.042814 -0.0757406 0.142452)
(0.0852943 -0.0545569 0.151251)
(0.109231 0.0121328 0.131126)
(0.0673553 0.0655415 0.0594153)
(0.0520566 0.110311 -0.00509403)
(0.0516584 0.165937 -0.124229)
(0.0540002 0.26649 -0.199636)
(-0.0134436 -0.0766987 0.0700336)
(-0.0315929 -0.0736774 0.0992239)
(-0.0241172 -0.0888052 0.12428)
(3.90736e-05 -0.10223 0.142906)
(0.032634 -0.0962046 0.160823)
(0.0801683 -0.00472865 0.179951)
(0.0741167 0.0898094 0.114893)
(0.0539651 0.104455 0.0290385)
(0.0320956 0.184214 -0.0652993)
(0.0505891 0.303026 -0.157115)
(-0.00295406 -0.0655699 0.0808708)
(-0.0244594 -0.0739377 0.0977135)
(-0.0220835 -0.089732 0.106976)
(-0.00723999 -0.100273 0.107745)
(0.010588 -0.106585 0.112792)
(0.0496025 -0.0515143 0.152065)
(0.0813451 0.108856 0.145362)
(0.0445984 0.130537 0.0160875)
(-0.00709729 0.210916 -0.0566795)
(0.0428582 0.338001 -0.128274)
(0.00285821 -0.0495969 0.0839094)
(-0.00739975 -0.0636447 0.0926685)
(-0.00928815 -0.080463 0.0858103)
(-0.00851175 -0.0888721 0.0713448)
(-0.00641162 -0.0883357 0.0655163)
(-0.00206316 -0.00677616 0.0795549)
(0.0566567 0.156081 0.121303)
(0.0132746 0.200019 -0.0248985)
(-0.0586637 0.249549 -0.0879767)
(0.0153988 0.322259 -0.110769)
(0.00175598 -0.0485737 0.0832517)
(-0.000185726 -0.0585569 0.0753074)
(-0.00975663 -0.0629917 0.0597337)
(-0.0217362 -0.0716636 0.0490189)
(-0.0353857 -0.0819016 0.0470838)
(-0.0374213 -0.00072284 0.0446958)
(0.0252618 0.198894 0.0424996)
(0.00371349 0.278656 -0.0560027)
(-0.086104 0.294603 -0.0790941)
(-0.0169588 0.265754 -0.0597633)
(-4.75632e-05 -0.0425458 0.0526512)
(-0.0079751 -0.042914 0.0479492)
(-0.0227425 -0.0452532 0.0416096)
(-0.0359876 -0.0605689 0.0390265)
(-0.0623819 -0.0752518 0.0410879)
(-0.0817483 -0.00561497 0.0420452)
(-0.0231789 0.198738 0.00947072)
(0.00536949 0.330696 -0.0411857)
(-0.0921514 0.316834 -0.00545474)
(-0.0391624 0.209999 0.0523648)
(-0.00266066 -0.0327805 0.0345985)
(-0.0143775 -0.0342954 0.0351233)
(-0.0284772 -0.0380255 0.0340365)
(-0.0457388 -0.0458021 0.0336011)
(-0.0816307 -0.0587026 0.038147)
(-0.128634 -0.0162158 0.0564658)
(-0.106236 0.163284 0.0636245)
(-0.0406829 0.344636 0.0533951)
(-0.0971112 0.315338 0.108403)
(-0.0454209 0.122355 0.146114)
(-0.00318714 -0.0313263 0.0284696)
(-0.0146763 -0.03102 0.0297071)
(-0.0294667 -0.0309822 0.0289774)
(-0.0475962 -0.0313854 0.0299447)
(-0.0792329 -0.0319816 0.0343724)
(-0.131966 -0.0110374 0.0556391)
(-0.159589 0.0971332 0.103047)
(-0.108348 0.267039 0.145835)
(-0.078346 0.259529 0.178099)
(-0.00210901 0.0363753 0.142628)
(-0.00282676 0.000914125 0.0127128)
(-0.00902479 0.000529996 0.0127662)
(-0.0138479 -0.000221813 0.0124283)
(-0.0171417 -0.00104662 0.0126501)
(-0.0184967 -0.00189657 0.0135218)
(-0.0180577 -0.00268691 0.0147411)
(-0.0160266 -0.00349573 0.0162814)
(-0.0123458 -0.00441473 0.0181562)
(-0.00680093 -0.00521318 0.0202002)
(-0.00172581 -0.00373011 0.0182481)
(-0.00234372 0.0017151 0.00880229)
(-0.00770957 0.00155683 0.00858661)
(-0.0117786 0.000667382 0.00888525)
(-0.0150786 -0.000770767 0.00968883)
(-0.0168548 -0.00289147 0.0112658)
(-0.0169409 -0.0052654 0.0133182)
(-0.0154212 -0.00779961 0.0156712)
(-0.0120869 -0.0106422 0.0182353)
(-0.00667627 -0.0131738 0.0208895)
(-0.00160864 -0.00944696 0.0194695)
(-0.00275494 0.00267797 0.00846991)
(-0.00960108 0.00195029 0.00812375)
(-0.0150251 0.0012267 0.0094081)
(-0.0192037 -0.000777882 0.0111136)
(-0.0215501 -0.00425752 0.0135584)
(-0.0217317 -0.00848204 0.0166079)
(-0.019782 -0.0131223 0.0199228)
(-0.0155099 -0.0183428 0.0235133)
(-0.00864752 -0.0228528 0.0272423)
(-0.0020648 -0.0163503 0.0255195)
(-0.00308625 0.00880983 0.00681776)
(-0.0111715 0.00549964 0.0074265)
(-0.0183721 0.00390173 0.00943553)
(-0.0239108 0.000130872 0.0121482)
(-0.0272621 -0.00566534 0.0158871)
(-0.0279978 -0.0124651 0.0206321)
(-0.0259173 -0.0199048 0.025798)
(-0.0205083 -0.0279709 0.0314626)
(-0.011439 -0.0348333 0.0375669)
(-0.0025583 -0.0247062 0.0353118)
(-0.00272219 0.0156406 0.00274727)
(-0.0134281 0.0097296 0.00558664)
(-0.0241886 0.00703532 0.00864629)
(-0.0321497 0.00167609 0.0132023)
(-0.0370812 -0.00667892 0.0195763)
(-0.0384594 -0.0166559 0.0270402)
(-0.0355033 -0.0274752 0.0353077)
(-0.028118 -0.0390928 0.045301)
(-0.0167754 -0.0489722 0.0555685)
(-0.00579392 -0.0351246 0.0495147)
(-0.00363164 0.0276289 -0.00293513)
(-0.0197145 0.0216452 0.001783)
(-0.0354819 0.0164746 0.0083165)
(-0.0462922 0.00636718 0.0163536)
(-0.0520841 -0.00655491 0.0243457)
(-0.0527472 -0.0211853 0.0348612)
(-0.0481089 -0.0388625 0.0500439)
(-0.0399828 -0.0563617 0.0674753)
(-0.0279525 -0.067986 0.0797852)
(-0.0140971 -0.0536183 0.0600288)
(-0.0025976 0.0463084 -0.0371641)
(-0.0268404 0.0407807 -0.0286924)
(-0.0506398 0.0323829 -0.0141739)
(-0.0640128 0.0173548 0.00213306)
(-0.0711702 -0.00606231 0.0212034)
(-0.072861 -0.0358396 0.0428714)
(-0.0642948 -0.068754 0.065119)
(-0.0504698 -0.0909113 0.0823818)
(-0.0408694 -0.0985481 0.0946466)
(-0.0134048 -0.084132 0.0770145)
(0.00567852 0.0461814 -0.0754718)
(-0.00923501 0.0429891 -0.0716089)
(-0.0349128 0.0306951 -0.0615129)
(-0.0635491 0.00758783 -0.0384991)
(-0.0698944 -0.0221289 -0.0155566)
(-0.0470241 -0.0581775 -0.00231148)
(-0.00673163 -0.0914241 -0.00640516)
(0.0319369 -0.103294 -0.0140007)
(-0.00134849 -0.102204 0.00747291)
(0.0158717 -0.111939 0.103444)
(0.0114548 -0.0255335 -0.261362)
(0.0343206 -0.00561439 -0.269818)
(0.0475905 0.00251152 -0.285457)
(0.100041 -0.00501299 -0.31316)
(0.245272 -0.0835325 -0.356151)
(0.261627 -0.12151 -0.282216)
(0.249967 -0.13478 -0.224198)
(0.252348 -0.10667 -0.234148)
(0.161455 -0.0811877 -0.226949)
(0.0336315 -0.0643199 -0.0137759)
(-0.00653091 -0.314814 -0.334353)
(0.0471101 -0.309077 -0.342234)
(0.0991385 -0.351287 -0.312759)
(0.115603 -0.34235 -0.221606)
(0.134618 -0.205466 -0.156907)
(0.182133 -0.146939 -0.125104)
(0.21614 -0.129222 -0.158471)
(0.228148 -0.0867615 -0.250809)
(0.217428 0.0414823 -0.317639)
(0.0791957 0.130839 -0.216049)
(-0.0279409 -0.111291 -0.0318567)
(-0.00303732 -0.105529 -0.0291797)
(0.0148357 -0.112642 -0.0130049)
(0.0306298 -0.142333 0.00814967)
(0.0525403 -0.173264 0.0194743)
(0.0738673 -0.166324 -0.000180524)
(0.100945 -0.126794 -0.0594848)
(0.126175 -0.0573162 -0.12923)
(0.15126 0.0617959 -0.246015)
(0.0926461 0.193752 -0.229694)
(-0.0109386 -0.147472 0.0590337)
(-0.00667361 -0.16815 0.0518438)
(5.48034e-05 -0.21323 0.0503521)
(0.018178 -0.240904 0.0559584)
(0.0326641 -0.229924 0.0715658)
(0.0448752 -0.184672 0.0581527)
(0.0371622 -0.158056 -0.0136711)
(0.0494228 -0.0864708 -0.0506592)
(0.0761184 0.0824911 -0.19717)
(0.0835629 0.238136 -0.2053)
(-0.0113731 -0.136367 0.0644597)
(-0.0150769 -0.151173 0.0682641)
(-0.00610797 -0.179204 0.0737386)
(0.0085027 -0.200942 0.0825457)
(0.0170601 -0.201323 0.105395)
(0.0370001 -0.141659 0.125604)
(0.0215182 -0.114396 0.0378586)
(0.00425468 -0.0713338 -0.00756496)
(0.018113 0.100799 -0.157366)
(0.0622415 0.26461 -0.180952)
(-0.00377516 -0.127415 0.0767982)
(-0.0111426 -0.135456 0.086199)
(-0.00902575 -0.156284 0.0839845)
(-0.00476135 -0.166978 0.0846229)
(-0.00840366 -0.167063 0.0977049)
(0.0122448 -0.102942 0.14231)
(0.0036024 -0.049465 0.0553834)
(-0.0663232 -0.0126221 -0.0205156)
(-0.0461376 0.13673 -0.102102)
(0.0380253 0.280272 -0.148808)
(0.00454003 -0.10497 0.0713337)
(0.00287016 -0.113774 0.0846582)
(-0.00546949 -0.123686 0.0761589)
(-0.0145807 -0.124803 0.0688547)
(-0.0302557 -0.116438 0.0652206)
(-0.0298185 -0.0448044 0.0774014)
(-0.0437826 0.0263916 0.0390849)
(-0.140004 0.0384313 -0.061338)
(-0.0968388 0.155848 -0.104688)
(0.00969543 0.257178 -0.106837)
(0.00818085 -0.0691255 0.057046)
(0.0129853 -0.0822442 0.0730299)
(-0.00240271 -0.087384 0.0635806)
(-0.0178597 -0.0914522 0.0562826)
(-0.0352247 -0.0871931 0.0484606)
(-0.0420341 0.00254675 0.0330163)
(-0.0292734 0.114098 0.0220648)
(-0.138735 0.0688581 -0.0549799)
(-0.132225 0.0732367 -0.109348)
(-0.0361824 0.133258 -0.0866553)
(0.00102727 -0.0468234 0.0728595)
(0.000520123 -0.0571267 0.0627643)
(-0.0131498 -0.0615164 0.0527872)
(-0.0260316 -0.0717895 0.0489266)
(-0.0427226 -0.0772194 0.0443797)
(-0.046331 -0.0150083 0.0329113)
(0.00353233 0.135226 0.0133568)
(-0.0604961 0.120199 -0.00801782)
(-0.118074 0.0419582 -0.0291049)
(-0.0490694 0.00625941 -0.0365821)
(-0.00285046 -0.0394725 0.0496019)
(-0.00967304 -0.0432989 0.0499171)
(-0.0229176 -0.0493307 0.0460637)
(-0.034696 -0.059121 0.0453694)
(-0.0538323 -0.0689089 0.0460661)
(-0.0674376 -0.0362649 0.0515962)
(-0.0255228 0.0829342 0.0472689)
(-0.0227056 0.131488 0.0480042)
(-0.0934486 0.0514422 0.070549)
(-0.0332704 -0.0436784 0.0600183)
(-0.00499833 -0.0359266 0.0408495)
(-0.0132386 -0.0391366 0.0445259)
(-0.0270131 -0.0420513 0.0420498)
(-0.041199 -0.0462543 0.0428886)
(-0.0640944 -0.0530236 0.0483624)
(-0.0924845 -0.0412411 0.0710643)
(-0.086462 0.0347366 0.106494)
(-0.0496156 0.117915 0.129821)
(-0.0699155 0.0649025 0.157722)
(-0.0121116 -0.0644341 0.118303)
(-0.00535059 -0.0322699 0.0351049)
(-0.0134065 -0.0346126 0.04008)
(-0.0277441 -0.0349991 0.0376996)
(-0.0419276 -0.0346393 0.0396043)
(-0.062311 -0.0330386 0.0462323)
(-0.0902918 -0.023072 0.0691887)
(-0.105017 0.0134768 0.120317)
(-0.0733347 0.0739982 0.174559)
(-0.0300511 0.0555487 0.182997)
(0.014251 -0.0418083 0.10975)
(-0.00324739 0.00229861 0.0160936)
(-0.00956424 0.00161765 0.0154281)
(-0.0137399 0.000699432 0.0154144)
(-0.0164276 -0.000414813 0.0154161)
(-0.0172641 -0.00134718 0.0159079)
(-0.0166026 -0.00205647 0.0170118)
(-0.01449 -0.0027038 0.0184622)
(-0.0108973 -0.0034692 0.0204235)
(-0.00550545 -0.00402894 0.0225694)
(-0.00109398 -0.00227443 0.0199354)
(-0.00210399 0.00473531 0.0133694)
(-0.00831193 0.00285955 0.011961)
(-0.0114534 0.00121737 0.011136)
(-0.0136228 -0.000220873 0.011658)
(-0.0147708 -0.00175371 0.0129783)
(-0.0145944 -0.00344041 0.0150328)
(-0.0130712 -0.00531734 0.0173693)
(-0.00998871 -0.00759463 0.0200682)
(-0.00494997 -0.00938127 0.0228807)
(-0.000816604 -0.00488448 0.0209527)
(-0.000507238 0.00770041 0.0102067)
(-0.00821565 0.00322691 0.0117771)
(-0.0133846 0.0014227 0.0116967)
(-0.0166468 -0.0001361 0.0132946)
(-0.0184067 -0.00226714 0.0156248)
(-0.0183113 -0.00520607 0.0186874)
(-0.0164555 -0.00859327 0.0220861)
(-0.0125171 -0.0126798 0.0257658)
(-0.00631458 -0.0157353 0.0295788)
(-0.00107694 -0.00801541 0.0272451)
(0.00157984 0.0183167 0.00559107)
(-0.00812551 0.00816283 0.0109242)
(-0.0155617 0.00437087 0.0121404)
(-0.0198942 0.00126109 0.0146248)
(-0.0225436 -0.00261604 0.0183855)
(-0.0227424 -0.0072774 0.0230124)
(-0.020676 -0.0127018 0.0282034)
(-0.0158574 -0.0190882 0.033915)
(-0.00816393 -0.0235981 0.0400056)
(-0.0012854 -0.0118254 0.0367934)
(0.00387327 0.0279439 0.000476834)
(-0.00731014 0.0132361 0.00977039)
(-0.0184945 0.00766893 0.012831)
(-0.0252435 0.00398255 0.0166791)
(-0.0289303 -0.00112841 0.0222848)
(-0.0297218 -0.00889981 0.0296709)
(-0.0274548 -0.0171839 0.0385251)
(-0.0216733 -0.0260632 0.0488868)
(-0.0130812 -0.0319569 0.0585218)
(-0.00440259 -0.0163232 0.0507567)
(0.00554379 0.0353799 -0.00755329)
(-0.00666043 0.0191978 0.00442814)
(-0.022499 0.0114465 0.0104841)
(-0.0324384 0.00449254 0.0180029)
(-0.0384292 -0.00411399 0.0272011)
(-0.0388674 -0.0121648 0.0384638)
(-0.0352954 -0.0214739 0.0541809)
(-0.0302188 -0.0325989 0.0709221)
(-0.0238929 -0.0386925 0.0793444)
(-0.012485 -0.0241281 0.0568814)
(0.00825777 0.047116 -0.0304203)
(-0.00938268 0.0360657 -0.0164221)
(-0.0341022 0.0304634 -0.00488986)
(-0.0448025 0.0217475 0.00772282)
(-0.0469823 0.00694637 0.0235846)
(-0.0482163 -0.0115441 0.0484376)
(-0.0428476 -0.0344627 0.0742799)
(-0.0298871 -0.0529117 0.0896637)
(-0.0253417 -0.0586777 0.0965258)
(-0.00901103 -0.0515809 0.0743228)
(0.010891 0.039401 -0.0398295)
(-0.00106627 0.0335271 -0.0315886)
(-0.0271049 0.0236634 -0.0211905)