/*--------------------------------*- C++ -*----------------------------------*\
| =========                 |                                                 |
| \\      /  F ield         | OpenFOAM: The Open Source CFD Toolbox           |
|  \\    /   O peration     | Version:  2312                                  |
|   \\  /    A nd           | Website:  www.openfoam.com                      |
|    \\/     M anipulation  |                                                 |
\*---------------------------------------------------------------------------*/
FoamFile
{
    version     2.0;
    format      ascii;
    arch        "LSB;label=32;scalar=64";
    class       surfaceScalarField;
    location    "1.02";
    object      phi;
}
// * * * * * * * * * * * * * * * * * * * * * * * * * * * * * * * * * * * * * //

dimensions      [0 3 -1 0 0 0 0];

oriented        oriented;

internalField   nonuniform List<scalar> 
22600
(
-1.01246e-07
6.33219e-08
-7.70751e-08
-1.00001e-07
7.36433e-08
-7.48889e-08
-1.10145e-07
7.51399e-08
-6.49959e-08
-1.25494e-07
7.11423e-08
-5.57931e-08
-1.37111e-07
6.35914e-08
-5.19742e-08
-1.34897e-07
5.76614e-08
-5.98751e-08
-1.12414e-07
7.08318e-08
-9.33148e-08
-4.47736e-08
8.61235e-08
-1.53764e-07
1.07882e-08
3.60114e-08
-9.1573e-08
2.76669e-08
-1.68787e-08
-8.10896e-08
1.02428e-07
-7.27394e-08
-6.331e-08
1.41274e-07
-8.54105e-08
-5.484e-08
1.51636e-07
-8.49657e-08
-5.4394e-08
1.5171e-07
-8.10134e-08
-6.00542e-08
1.52789e-07
-8.35374e-08
-5.97551e-08
1.69059e-07
-1.11696e-07
-5.84635e-08
2.46591e-07
-1.7705e-07
-4.89237e-08
2.09957e-07
-1.33373e-07
1.03442e-09
-7.64293e-08
6.24826e-08
2.85726e-08
1.28742e-10
-4.9691e-08
7.66504e-09
3.31977e-08
-5.42237e-08
1.75166e-07
-2.93591e-08
-6.27188e-08
2.15789e-07
-5.56588e-08
-6.2483e-08
2.18406e-07
-6.69319e-08
-4.57903e-08
2.28526e-07
-9.24295e-08
-2.66254e-08
2.74993e-07
-1.25099e-07
-1.02363e-07
3.55932e-07
-3.36038e-08
-2.62787e-07
6.00756e-08
3.10305e-07
-1.67219e-07
-7.8323e-07
6.11233e-07
-4.2007e-07
2.81423e-07
-2.70354e-08
-3.59962e-07
2.61012e-07
1.24639e-08
2.02371e-08
1.1543e-07
-5.24425e-09
2.18551e-07
1.49463e-08
-2.44699e-08
2.68305e-07
-3.06736e-08
-5.03902e-09
2.79674e-07
-7.05793e-08
-1.18646e-08
3.13034e-07
-3.1215e-08
-3.66147e-07
3.49328e-07
3.60886e-07
-7.2614e-07
-3.01505e-07
7.21574e-07
-5.55115e-07
-1.77323e-06
8.1897e-07
-1.56295e-06
5.87768e-07
-7.22445e-08
-6.74862e-07
2.60783e-07
8.9113e-09
-3.4144e-07
2.80521e-07
4.60294e-08
-5.31518e-08
2.34585e-07
5.50592e-08
7.00628e-08
1.89213e-07
1.16142e-07
6.29548e-08
1.55637e-07
1.44608e-07
8.84677e-08
1.961e-07
-2.12301e-07
9.38645e-08
6.12373e-07
-6.11294e-07
-7.25287e-07
8.22775e-07
-5.52372e-07
-2.07226e-06
2.40113e-07
-2.46649e-06
3.51162e-07
-2.02853e-07
-7.05319e-07
8.56038e-08
-1.42202e-07
-5.90648e-07
1.88556e-07
-3.57184e-08
-4.13997e-07
2.54363e-07
9.28149e-08
-3.24868e-07
2.66398e-07
2.31878e-07
-3.60172e-07
2.84063e-07
3.34244e-07
-4.28529e-07
4.14631e-07
2.29103e-07
-5.61003e-07
7.60009e-07
4.1682e-09
-1.44133e-06
9.40975e-07
-9.32162e-08
-2.15218e-06
1.77306e-07
-2.49972e-06
-5.99845e-08
-2.82669e-07
-5.77105e-07
-1.67954e-07
-1.46326e-07
-6.03543e-07
-1.23448e-07
6.13409e-08
-5.54666e-07
-6.69976e-08
2.80097e-07
-5.27119e-07
-1.65058e-08
4.54635e-07
-6.21133e-07
8.64239e-08
5.36204e-07
-8.45377e-07
3.35279e-07
4.18651e-07
-1.21808e-06
7.74627e-07
4.10788e-08
-2.06525e-06
1.00149e-06
-6.04272e-08
-2.31221e-06
2.61536e-07
-2.38743e-06
-1.72715e-07
-2.76897e-07
-3.42553e-07
-5.93454e-07
1.38088e-08
-3.53074e-07
-5.41174e-07
2.75153e-07
-2.9317e-07
-5.2284e-07
5.03433e-07
-3.05651e-07
-4.49748e-07
6.7966e-07
-5.50167e-07
-2.47193e-07
7.71248e-07
-1.0027e-06
6.57385e-08
5.8544e-07
-1.57325e-06
5.40986e-07
4.89971e-08
-2.20723e-06
6.78421e-07
-7.1818e-08
-2.21619e-06
2.47887e-08
-2.40972e-06
-4.95268e-08
-4.10561e-07
-1.62732e-06
8.73696e-07
-2.43332e-07
-1.2759e-06
7.55601e-07
-7.3495e-08
-9.05295e-07
4.42287e-07
2.27022e-07
-8.1431e-07
2.08141e-07
3.91569e-07
-7.93245e-07
7.85315e-08
4.25483e-07
-1.12142e-06
8.48048e-08
1.24223e-07
-1.64973e-06
3.77736e-07
-2.77125e-07
-2.21193e-06
4.06052e-07
-2.06367e-08
-2.47739e-06
4.71294e-09
-2.95166e-06
5.21303e-07
-3.5828e-06
-1.45623e-07
3.72251e-07
-5.31269e-06
3.85874e-07
6.81349e-08
-7.14563e-06
-2.94288e-08
9.57085e-07
-4.81e-06
-4.73715e-06
1.58721e-06
-3.37008e-06
-3.75023e-06
1.51706e-06
-2.54282e-06
-3.43047e-06
1.48178e-06
-2.13217e-06
-3.48656e-06
1.42618e-06
-1.59555e-06
-3.83026e-06
1.08171e-06
-4.64947e-07
-4.584e-06
9.76015e-07
-4.60007e-06
1.18346e-06
-4.79094e-07
-3.04521e-06
1.97763e-06
9.87215e-07
-2.10021e-06
1.01978e-06
1.87892e-06
-8.62652e-07
-5.84796e-08
-6.20768e-07
-2.19303e-06
-4.44285e-08
-2.73705e-06
-1.09148e-06
-5.42464e-07
-2.86956e-06
-1.73616e-06
-1.56179e-06
-1.86817e-06
-3.9573e-06
-5.30628e-07
-1.39024e-06
-5.42435e-06
1.11616e-06
-1.07071e-06
-6.58871e-06
1.68518e-06
-6.5627e-06
8.9192e-07
-4.57071e-06
-6.82065e-06
2.66248e-06
-1.37947e-06
-7.21758e-06
1.92613e-06
2.55169e-06
-5.95332e-06
1.15951e-06
3.6579e-06
-2.96762e-06
-3.31627e-07
2.78611e-06
1.19018e-06
-1.40989e-06
1.947e-06
2.06955e-06
-2.96661e-06
2.31631e-06
-3.25018e-07
-4.00159e-06
1.68976e-06
-2.30383e-06
-2.49396e-06
1.90342e-07
-3.63855e-06
-1.45074e-06
-4.29664e-06
-2.07576e-06
-9.05324e-06
-8.1216e-06
-6.19284e-07
-5.41801e-06
-9.43976e-06
-1.41304e-06
-1.25404e-06
-8.91462e-06
-1.20267e-06
2.08841e-06
-6.09661e-06
-2.13456e-07
3.90626e-06
-4.23383e-07
-2.04276e-07
3.1822e-06
4.24257e-06
-1.44895e-06
2.22354e-06
3.91356e-06
-3.27993e-06
1.47624e-06
2.28137e-06
-3.83787e-06
3.40547e-07
9.67398e-07
-3.47024e-06
-5.13788e-07
-3.44229e-06
-9.71394e-06
-7.51344e-06
-3.29719e-06
-6.03817e-06
-8.91145e-06
-4.20409e-06
-2.06849e-06
-8.83403e-06
-4.05027e-06
1.02912e-06
-6.7767e-06
-2.41752e-06
3.19554e-06
-2.54917e-06
-4.06335e-08
3.763e-06
3.60493e-06
7.01554e-08
2.06048e-06
6.62881e-06
-1.01273e-06
2.85123e-07
5.94191e-06
-1.88521e-06
-5.73646e-07
4.18452e-06
-2.35836e-06
1.84084e-06
-2.92827e-06
-9.15919e-06
-6.38733e-06
-3.92131e-06
-5.42798e-06
-7.64395e-06
-4.99872e-06
-1.81506e-06
-7.81455e-06
-4.63241e-06
9.80289e-07
-6.44206e-06
-3.12998e-06
2.80396e-06
-2.87556e-06
-1.49727e-06
3.53476e-06
1.51646e-06
1.35768e-06
1.88706e-06
6.81938e-06
1.45715e-06
-4.17173e-07
8.45881e-06
-2.12661e-07
-9.22038e-07
6.67212e-06
-1.98274e-06
4.0298e-06
-3.11102e-06
-8.51196e-06
-4.93183e-06
-4.2963e-06
-4.61654e-06
-6.05173e-06
-5.48765e-06
-1.28578e-06
-6.86071e-06
-4.28458e-06
8.58495e-07
-6.51633e-06
-2.07002e-06
2.46341e-06
-3.83439e-06
-6.46091e-07
2.85765e-06
-9.90803e-07
2.11303e-06
1.85651e-06
4.39462e-06
3.42589e-06
-4.74589e-07
9.2977e-06
1.49223e-06
-7.26659e-07
8.43519e-06
-1.511e-06
5.62355e-06
-2.32041e-06
-7.82566e-06
-3.06566e-06
-4.63282e-06
-4.06311e-06
-3.97707e-06
-5.83721e-06
-9.97809e-07
-5.59691e-06
-4.3291e-06
8.37693e-07
-6.71799e-06
-1.63383e-06
1.72368e-06
-5.53465e-06
8.14279e-07
1.83569e-06
-3.61978e-06
2.51696e-06
1.43576e-06
5.89917e-07
4.20463e-06
-2.40279e-07
8.10718e-06
2.86657e-06
-4.66056e-07
9.37568e-06
-7.1472e-07
5.38881e-06
-2.31305e-07
-7.41785e-06
-1.1779e-06
-4.30644e-06
-4.11908e-06
-1.82153e-06
-5.4543e-06
-1.3654e-06
-4.05406e-06
-4.29653e-06
6.2674e-07
-6.56107e-06
-2.14906e-06
7.9982e-07
-6.92029e-06
1.21257e-06
3.28149e-07
-5.87789e-06
2.72978e-06
-2.39388e-07
-2.66162e-06
3.81908e-06
-8.73179e-07
5.16344e-06
3.57751e-06
-3.34859e-07
8.39921e-06
4.38156e-07
2.88997e-06
2.16399e-06
-7.93119e-06
5.39171e-08
-3.09522e-06
-4.99529e-06
-7.57437e-07
-3.99999e-06
-2.21344e-06
-3.23792e-06
-3.59799e-06
8.38736e-08
-5.96153e-06
-2.89686e-06
2.05584e-07
-7.38913e-06
3.47114e-07
-1.2708e-06
-6.9098e-06
2.50829e-06
-2.97964e-06
-4.13469e-06
3.18192e-06
-2.65503e-06
1.57623e-06
3.26259e-06
-6.13023e-07
4.53104e-06
1.82618e-06
1.40637e-07
2.13631e-06
-8.04175e-06
-2.09904e-06
7.02314e-07
-5.54778e-06
-2.93356e-06
-3.17842e-07
-3.01625e-06
-3.16129e-06
-2.60817e-06
-6.74467e-07
-3.35175e-06
-4.95156e-06
-9.48399e-07
-7.76971e-07
-6.33823e-06
-3.1673e-06
1.67973e-06
-6.37062e-06
-5.27372e-06
2.24529e-06
-4.27357e-06
-4.47275e-06
1.92234e-06
-1.14706e-06
-1.53914e-06
1.29938e-06
2.9806e-07
-4.40486e-08
-1.35446e-06
-1.3166e-07
2.30187e-08
-7.07833e-08
-1.71169e-07
3.90428e-08
-7.44217e-08
-2.09544e-07
4.08236e-08
-6.74451e-08
-2.41596e-07
3.64634e-08
-6.02036e-08
-2.63164e-07
2.53144e-08
-5.57213e-08
-2.61535e-07
4.20359e-09
-6.57069e-08
-2.01039e-07
-4.75139e-08
-1.06297e-07
-1.81035e-08
-1.85004e-07
-1.51694e-07
8.32578e-08
-1.27865e-07
-6.50695e-08
9.50923e-08
-2.87133e-08
-1.08821e-07
2.4741e-08
-6.65876e-08
-1.27935e-07
6.32921e-08
-9.05454e-08
-1.54986e-07
7.9488e-08
-9.65799e-08
-1.91511e-07
8.94221e-08
-9.74469e-08
-2.44893e-07
9.98244e-08
-1.04665e-07
-3.22949e-07
1.1137e-07
-1.40806e-07
-3.54417e-07
-4.88519e-08
-1.44244e-07
-2.12721e-07
-5.79285e-07
1.19212e-07
2.30117e-08
-5.70295e-07
2.6918e-07
1.64241e-07
-4.60079e-08
-1.07951e-07
4.24588e-08
3.42687e-08
-1.72548e-07
1.51284e-07
-5.27539e-08
-2.17198e-07
1.55157e-07
-8.66792e-08
-2.58388e-07
1.64013e-07
-1.00333e-07
-3.46719e-07
2.29886e-07
-1.3416e-07
-5.11777e-07
2.87589e-07
-1.3626e-07
-7.37e-07
-5.81419e-08
2.00909e-07
-7.76932e-07
-1.02403e-06
7.94986e-07
-3.51161e-07
-1.31841e-06
9.33574e-07
-4.90468e-08
1.4355e-07
-5.21742e-08
-4.52364e-08
2.82008e-07
-1.17298e-07
2.3314e-07
9.86974e-08
-2.02187e-07
2.68321e-07
-1.33287e-08
-2.5615e-07
2.72322e-07
-8.50188e-08
-2.97616e-07
3.43788e-07
-1.43015e-07
-4.17148e-07
3.92939e-07
-1.70343e-08
-7.45366e-07
6.72198e-08
5.63743e-07
-9.6719e-07
-1.02231e-06
9.41674e-07
-6.16897e-07
-1.70381e-06
8.54079e-07
-6.63163e-07
5.84987e-07
-7.54823e-08
-1.77276e-07
3.78633e-07
-4.27056e-08
2.31055e-07
2.49829e-07
-1.07529e-07
4.07474e-07
1.60256e-07
-1.31152e-07
4.18063e-07
6.70947e-08
-5.44524e-08
4.30114e-07
-7.38916e-09
-1.40066e-09
4.29209e-07
1.06779e-07
-9.26051e-08
1.46653e-07
6.24144e-07
-2.99883e-07
-8.7004e-07
8.77782e-07
-3.32211e-07
-1.58306e-06
1.51689e-07
-1.09999e-06
4.55779e-07
-2.7126e-07
-6.66504e-08
2.39662e-07
-2.63257e-07
1.28368e-07
2.8324e-07
-1.62669e-07
2.44273e-07
3.16976e-07
-4.08097e-08
2.68425e-07
2.94176e-07
1.18533e-07
3.07286e-07
2.47549e-07
3.05219e-07
3.08606e-07
3.48548e-07
3.95826e-07
-2.46067e-08
8.40662e-07
3.50961e-07
-9.95087e-07
1.11089e-06
9.16013e-08
-1.32122e-06
1.74833e-07
-1.19301e-06
1.24636e-07
-3.26306e-07
6.22303e-08
-8.58558e-08
-3.31094e-07
5.09478e-08
-4.12399e-08
-2.0062e-07
6.23732e-08
-1.55714e-08
-7.80192e-09
4.08934e-08
1.82076e-08
1.69938e-07
1.7811e-08
1.98158e-07
3.30416e-07
-4.53718e-08
5.28779e-07
4.34392e-07
-4.01492e-07
1.04754e-06
3.5979e-07
-1.10244e-06
1.18345e-06
2.71437e-08
-1.06104e-06
3.33998e-07
-1.26607e-06
-7.25131e-08
-2.42198e-07
1.67786e-07
-8.6277e-07
-3.61418e-08
1.82233e-07
-8.78516e-07
1.36989e-07
2.90114e-07
-9.23711e-07
2.32151e-07
3.39943e-07
-8.4396e-07
2.80768e-07
2.54451e-07
-5.32449e-07
2.95434e-07
2.22883e-08
-1.65876e-08
3.20763e-07
-4.71135e-07
5.853e-07
1.38763e-07
-9.43699e-07
7.01681e-07
-1.89174e-07
-8.52103e-07
1.43789e-07
-1.46857e-06
-3.62052e-08
-5.89002e-07
-1.10969e-06
1.95788e-06
-4.54063e-07
-7.40163e-07
1.54306e-06
-4.74692e-07
-1.29631e-07
8.8266e-07
-3.78468e-07
1.96207e-07
2.55653e-07
-1.71473e-07
1.72718e-07
-4.67301e-08
2.13676e-08
-6.73737e-09
-7.90099e-08
2.36903e-07
-5.33304e-07
2.2437e-07
2.32523e-07
-9.99252e-07
4.65985e-07
2.48703e-08
-1.05192e-06
4.12184e-07
-1.9085e-06
9.8611e-07
-3.35053e-06
1.08203e-07
6.913e-07
-5.31567e-06
1.55423e-06
-2.61111e-07
-7.01933e-06
1.0303e-06
1.50082e-06
-5.60217e-06
-3.60471e-06
3.97097e-06
-3.93172e-06
-4.51621e-06
4.53554e-06
-2.92919e-06
-3.37918e-06
3.8517e-06
-2.22947e-06
-3.23641e-06
3.42956e-06
-1.58161e-06
-3.60061e-06
3.0352e-06
-6.2191e-07
-3.91115e-06
2.87554e-06
-4.00593e-06
2.65897e-06
-1.38225e-06
-1.89408e-06
2.65252e-06
3.36771e-07
-1.9435e-07
1.04934e-06
1.82207e-06
5.52266e-07
-1.06574e-06
2.07957e-06
-1.34311e-06
-2.56353e-06
8.84774e-07
-2.66564e-06
-1.19824e-06
-6.34665e-07
-2.75701e-06
-6.64532e-07
-9.12636e-07
-2.85537e-06
-6.33709e-07
-7.4004e-07
-3.67698e-06
1.01993e-06
-5.04042e-07
-5.02754e-06
2.56557e-06
-5.11898e-06
1.50096e-06
-6.28594e-06
-3.2807e-06
2.36795e-06
-2.17135e-06
-3.7425e-06
1.35968e-06
2.33182e-06
-3.05116e-06
2.59771e-07
4.18876e-06
-1.53977e-06
-1.99189e-06
4.12519e-06
3.01289e-07
-4.31324e-06
4.27843e-06
1.83129e-07
-6.05999e-06
5.04425e-06
-9.6203e-07
-6.66075e-06
4.60667e-06
-1.0358e-06
-4.69756e-06
2.37745e-06
-1.89416e-06
-2.35492e-06
-2.52359e-06
-2.29374e-06
-1.05482e-05
-3.32959e-06
-2.42487e-06
-7.07257e-06
-5.7555e-06
-2.87569e-06
-2.48531e-06
-6.25963e-06
-2.58148e-06
1.6888e-06
-4.00068e-06
-1.92667e-06
4.01859e-06
-1.00756e-08
-2.2227e-06
4.00523e-06
2.60141e-06
-3.85384e-06
3.76566e-06
1.89861e-06
-5.90099e-06
3.61465e-06
1.42403e-06
-6.14669e-06
2.23102e-06
8.21124e-07
-4.80187e-06
1.89832e-07
-3.92472e-06
-1.02975e-05
-3.44874e-06
-5.08319e-06
-7.47015e-06
-6.93158e-06
-5.85541e-06
-4.1421e-06
-8.08183e-06
-5.55611e-06
-5.04801e-07
-5.93249e-06
-4.123e-06
3.2352e-06
-1.06974e-06
-2.72097e-06
5.02086e-06
3.65355e-06
-2.76765e-06
4.25551e-06
5.24183e-06
-3.5906e-06
2.47077e-06
4.86996e-06
-3.5464e-06
7.47466e-07
3.65971e-06
-3.47365e-06
2.13781e-06
-4.12877e-06
-9.13208e-06
-3.50565e-06
-5.95488e-06
-6.31873e-06
-7.13199e-06
-7.61163e-06
-3.82062e-06
-9.02387e-06
-6.18848e-06
-1.53783e-06
-7.44043e-06
-3.90484e-06
2.00269e-06
-2.53432e-06
-3.57321e-06
5.19642e-06
3.76679e-06
-1.9493e-06
4.6905e-06
7.82642e-06
-6.21516e-07
1.81729e-06
8.24333e-06
-7.12821e-07
-3.19687e-07
5.91121e-06
-2.09726e-06
2.66188e-06
-3.95478e-06
-7.55434e-06
-2.55861e-06
-7.43241e-06
-4.90083e-06
-5.88962e-06
-9.38352e-06
-3.1057e-06
-9.04476e-06
-6.05881e-06
-1.75156e-06
-8.62099e-06
-2.2436e-06
9.84176e-07
-4.6043e-06
-1.31184e-06
4.3261e-06
2.50208e-06
3.58337e-08
4.58015e-06
8.0018e-06
2.99645e-06
1.54728e-06
1.07007e-05
2.06774e-06
-2.6851e-07
7.35559e-06
-1.13958e-06
3.37513e-06
-3.30217e-06
-5.48077e-06
-1.01618e-06
-8.40557e-06
-3.22034e-06
-3.79169e-06
-1.01956e-05
-2.03493e-06
-8.24396e-06
-6.31531e-06
-1.05073e-06
-9.51099e-06
-1.72804e-06
3.17423e-07
-6.68961e-06
1.53143e-06
2.91557e-06
-8.8587e-07
3.30676e-06
3.6371e-06
5.3626e-06
6.12231e-06
1.34266e-06
1.13705e-05
4.49121e-06
-2.3938e-07
8.10182e-06
1.21093e-07
4.10883e-06
-1.20438e-06
-3.25811e-06
3.24851e-07
-7.77488e-06
-1.39258e-06
-1.43655e-06
-9.67496e-06
-8.75666e-07
-6.48342e-06
-6.57398e-06
-2.25518e-07
-9.78122e-06
-2.52898e-06
-1.27168e-08
-8.0965e-06
2.40666e-06
8.0429e-07
-4.66625e-06
5.69316e-06
1.13553e-06
1.98157e-06
6.86888e-06
2.96394e-07
1.00846e-05
5.70254e-06
-6.39203e-07
8.43371e-06
1.04186e-06
3.65272e-06
1.98089e-06
-1.73828e-06
1.51975e-06
-6.19397e-06
-1.55369e-07
7.0064e-07
-7.72008e-06
-4.14462e-08
-4.14673e-06
-6.04861e-06
-2.12507e-07
-9.07219e-06
-3.43482e-06
-1.02096e-06
-8.56878e-06
1.62784e-06
-2.46448e-06
-5.62184e-06
4.9074e-06
-3.26797e-06
3.67451e-07
5.59953e-06
-2.30584e-06
7.3211e-06
5.06397e-06
-1.13522e-06
6.84444e-06
2.24481e-06
1.55541e-06
3.0984e-06
-7.18099e-07
-4.82057e-06
3.03643e-06
1.6e-07
-5.76141e-06
2.65041e-06
-3.97458e-07
-4.98847e-06
-1.7621e-06
-1.7068e-06
-3.90578e-06
-7.20882e-06
-3.7286e-06
-1.01841e-07
-7.22211e-06
-6.4622e-06
3.12765e-06
-4.33616e-06
-7.42765e-06
3.53527e-06
4.29266e-08
-5.25182e-06
3.18672e-06
3.88088e-06
-2.07379e-06
1.74386e-06
3.22194e-06
2.29953e-07
-7.9238e-07
-1.3546e-07
-2.17035e-08
-3.07232e-08
-1.63652e-07
2.07099e-09
-4.83005e-08
-1.93544e-07
1.76275e-08
-5.51812e-08
-2.22661e-07
2.14222e-08
-5.2509e-08
-2.52923e-07
1.12391e-08
-3.66976e-08
-2.79268e-07
-2.33441e-08
-1.60178e-08
-2.19032e-07
-1.75061e-07
8.52834e-09
4.34422e-08
-4.75142e-07
6.09725e-08
1.35056e-07
-2.42914e-07
8.62306e-08
9.61613e-08
1.01809e-08
-1.20606e-07
-4.57195e-08
-3.41267e-08
-1.26672e-07
-1.15335e-08
-7.08749e-08
-1.40119e-07
2.50059e-08
-9.05121e-08
-1.75435e-07
5.66799e-08
-9.73881e-08
-2.54429e-07
7.26908e-08
-8.71229e-08
-4.01529e-07
4.79285e-08
-6.49789e-08
-4.67798e-07
-3.01073e-07
4.80372e-08
-1.40934e-07
-1.06786e-06
3.85068e-07
1.63448e-07
-6.12406e-07
3.34291e-07
2.77781e-07
-6.41799e-08
-1.37906e-07
2.49679e-08
-6.00053e-09
-1.78913e-07
5.57006e-08
-7.89816e-08
-2.05952e-07
8.34221e-08
-1.18056e-07
-2.57613e-07
1.33914e-07
-1.25906e-07
-4.1874e-07
2.13269e-07
-1.13612e-07
-6.67185e-07
2.10356e-07
-5.0242e-08
-7.5947e-07
-3.51576e-07
3.43697e-07
-5.50885e-07
-1.4431e-06
9.61637e-07
-1.47444e-07
-9.69018e-07
8.86746e-07
3.1498e-07
-4.1093e-08
-1.11475e-07
2.04075e-07
9.32051e-08
-1.71267e-07
2.21144e-07
-6.9552e-09
-2.17094e-07
2.03648e-07
-8.77263e-08
-2.65377e-07
2.38239e-07
-1.41061e-07
-3.88804e-07
3.41211e-07
-1.47529e-07
-5.18265e-07
3.36465e-07
-1.36829e-08
-4.63503e-07
-2.71135e-07
4.28541e-07
-4.83583e-07
-1.40132e-06
9.1998e-07
-4.19611e-07
-9.83235e-07
8.04324e-07
3.18294e-07
1.62062e-07
-1.06725e-07
4.19659e-07
1.04313e-07
-1.19817e-07
4.82729e-07
1.3358e-09
-1.81382e-07
4.89274e-07
-6.38061e-08
-2.13769e-07
4.80151e-07
-1.42431e-07
-2.06831e-07
4.93292e-07
-1.66408e-07
-1.73362e-07
4.31871e-07
-2.20963e-08
6.43837e-08
-1.57725e-07
2.72988e-07
-4.16488e-08
-1.05044e-06
6.32933e-07
-3.57619e-07
-8.35208e-07
3.19632e-07
2.89744e-07
1.2671e-07
-2.13719e-07
7.76055e-07
-4.64237e-08
-2.14442e-07
7.84623e-07
-1.793e-08
-2.02418e-07
7.6342e-07
3.08069e-08
-1.49686e-07
6.87222e-07
3.43722e-08
-4.51849e-08
6.06835e-07
2.9505e-08
7.86448e-08
5.05203e-07
1.51385e-07
2.30362e-07
3.01147e-08
5.01106e-07
1.13787e-07
-5.72845e-07
7.49864e-07
-2.81227e-07
-4.12444e-07
1.47083e-07
1.49735e-07
-1.65809e-08
-2.7758e-07
1.09636e-06
-3.01673e-07
-3.25814e-07
9.99628e-07
-2.08012e-07
-3.07548e-07
8.83676e-07
-1.54094e-07
-2.16728e-07
7.65633e-07
-1.51023e-07
-7.89817e-08
6.50801e-07
1.64452e-08
6.70364e-08
5.24459e-07
3.63505e-07
1.77247e-07
1.59008e-07
8.08433e-07
8.33558e-08
-1.92384e-07
8.96877e-07
-2.84896e-07
-2.94253e-08
3.19232e-07
-2.41503e-08
-1.83524e-07
-5.48201e-07
1.23052e-06
-1.13193e-06
-3.12357e-07
1.10284e-06
-1.21757e-06
-8.17976e-08
1.08175e-06
-1.35234e-06
7.05805e-08
1.16467e-06
-1.39538e-06
9.20994e-08
1.20203e-06
-1.1052e-06
3.4062e-08
1.0313e-06
-4.65394e-07
-6.06384e-09
5.06525e-07
2.77909e-07
-1.67484e-07
7.01715e-08
6.00545e-07
-3.0733e-07
-3.37866e-09
2.57588e-07
-1.7357e-07
-1.94115e-07
-8.10292e-07
-7.19093e-07
3.84139e-06
-7.47316e-07
-1.38234e-07
2.72116e-06
-7.15484e-07
4.65541e-07
1.46703e-06
-6.22616e-07
9.2998e-07
3.97481e-07
-3.50572e-07
1.02253e-06
-1.39275e-07
-2.9556e-08
8.85292e-07
-2.54014e-07
1.91535e-07
5.62135e-07
-5.23314e-08
1.32286e-07
1.40074e-07
4.55331e-07
-1.81174e-07
-4.31181e-09
7.26577e-07
-4.24951e-07
1.05632e-06
-3.99833e-06
-1.26129e-06
1.80821e-06
-4.57601e-06
-1.00012e-07
2.78336e-07
-5.13125e-06
1.41993e-06
1.10167e-06
-5.5313e-06
1.50491e-06
3.79609e-06
-4.68281e-06
-1.79348e-06
6.50307e-06
-3.13952e-06
-4.17889e-06
7.37259e-06
-2.16565e-06
-2.72455e-06
5.74237e-06
-1.59735e-06
-2.0157e-06
4.62268e-06
-7.54841e-07
-2.42242e-06
4.45114e-06
-2.38998e-06
3.86916e-06
-3.39952e-06
-1.68226e-06
2.18621e-06
-2.03781e-06
-1.53318e-06
1.1208e-06
-6.88318e-07
-6.58139e-07
-3.37162e-07
6.72708e-08
2.09241e-07
-2.02345e-06
1.09299e-06
-1.47695e-06
-2.5405e-06
1.54133e-06
-4.29065e-06
-1.0011e-06
2.09052e-06
-3.79455e-06
-1.1289e-07
1.04373e-06
-1.88771e-06
1.93873e-06
3.59237e-07
-2.16021e-06
2.98785e-06
-3.32496e-06
2.79521e-06
-7.21368e-06
-6.75577e-07
6.71035e-07
-4.8787e-06
-1.9617e-06
-5.46768e-07
-1.85909e-06
-2.44689e-06
-9.71077e-07
5.36273e-07
-1.85311e-06
-2.32489e-06
1.7377e-06
-1.64814e-06
-5.34349e-06
2.71517e-06
-3.13882e-06
-8.18928e-06
4.39504e-06
-3.86812e-06
-8.26704e-06
4.93632e-06
-1.5175e-06
-5.60903e-06
3.1072e-06
1.43483e-07
-2.8295e-06
-5.53327e-07
-1.95818e-06
-9.3152e-06
7.98845e-08
-3.78244e-06
-7.03936e-06
-3.19368e-06
-3.91954e-06
-3.96833e-06
-4.55462e-06
-3.54478e-06
-1.05815e-06
-3.55512e-06
-3.13483e-06
7.9706e-07
-1.65818e-06
-4.06788e-06
1.8582e-06
-1.74448e-06
-6.30934e-06
2.84109e-06
-2.63501e-06
-8.11699e-06
3.75161e-06
-8.3444e-07
-7.74027e-06
3.02511e-06
1.19591e-06
-5.1278e-06
1.94692e-06
-3.39985e-06
-9.21086e-06
-4.26665e-07
-5.29759e-06
-6.85246e-06
-4.86286e-06
-6.54462e-06
-4.13872e-06
-6.95938e-06
-5.8651e-06
-1.68275e-06
-5.86903e-06
-4.26507e-06
6.90504e-07
-2.50092e-06
-4.25147e-06
2.35828e-06
-5.86775e-07
-5.59313e-06
2.76932e-06
-3.46878e-07
-6.28976e-06
2.19763e-06
1.19538e-06
-5.00455e-06
1.45275e-06
2.83051e-06
-4.36337e-06
3.56821e-06
-4.29733e-06
-8.06352e-06
-3.58761e-07
-7.09099e-06
-5.9149e-06
-5.16605e-06
-9.45707e-06
-3.81038e-06
-8.47757e-06
-6.77482e-06
-1.87655e-06
-7.70273e-06
-4.00498e-06
2.80041e-07
-3.96159e-06
-4.26915e-06
2.2216e-06
5.97498e-07
-5.07512e-06
2.11224e-06
3.15077e-06
-4.00981e-06
8.78298e-07
3.85388e-06
-2.13737e-06
-1.29185e-07
3.88277e-06
-2.14204e-06
3.24159e-06
-3.75736e-06
-6.12525e-06
6.89803e-07
-9.57973e-06
-4.81887e-06
-4.30962e-06
-1.15463e-05
-3.90168e-06
-9.19182e-06
-6.26174e-06
-2.50991e-06
-8.732e-06
-2.60609e-06
-4.37293e-07
-4.87475e-06
-2.4713e-06
2.14638e-06
1.11223e-06
-3.06256e-06
2.52822e-06
6.12641e-06
-3.61035e-07
8.88693e-07
7.23995e-06
3.21197e-07
-4.18686e-07
5.09891e-06
-1.04835e-06
2.0177e-06
-2.49698e-06
-3.51087e-06
1.9037e-06
-1.07143e-05
-3.19688e-06
-2.98001e-06
-1.18392e-05
-3.44714e-06
-9.23015e-06
-6.02674e-06
-2.77429e-06
-9.76515e-06
-1.36772e-06
-9.96293e-07
-5.7646e-06
6.43281e-07
1.69766e-06
6.85552e-07
1.03949e-06
2.82686e-06
6.91718e-06
4.20234e-06
1.34648e-06
9.74688e-06
3.46466e-06
5.4589e-08
6.25258e-06
2.593e-07
2.12968e-06
-1.26177e-06
-6.02696e-07
3.26404e-06
-1.02494e-05
-1.01956e-06
-1.24805e-06
-1.09901e-05
-2.30957e-06
-8.417e-06
-6.09712e-06
-2.47227e-06
-1.08181e-05
-1.31331e-06
-1.3115e-06
-7.15038e-06
2.63167e-06
5.82798e-07
-8.66648e-07
5.35107e-06
1.53944e-06
5.91027e-06
6.91917e-06
8.70124e-07
1.03936e-05
5.7251e-06
-3.11123e-07
6.54882e-06
1.92687e-06
2.16698e-06
1.63247e-06
1.85163e-06
4.70263e-06
-8.70554e-06
1.01444e-06
9.76274e-07
-9.10723e-06
-1.3313e-06
-6.3355e-06
-5.78437e-06
-2.84614e-06
-1.07895e-05
-1.94864e-06
-2.81673e-06
-7.70389e-06
2.15194e-06
-2.50441e-06
-1.71043e-06
5.43888e-06
-2.06323e-06
4.65259e-06
6.41604e-06
-1.28466e-06
8.97163e-06
5.70739e-06
-1.1792e-06
5.77539e-06
2.91279e-06
1.15153e-06
2.93465e-06
3.58306e-06
-6.73297e-06
5.92243e-06
2.22389e-06
-6.83903e-06
3.41306e-06
-1.01538e-06
-4.98769e-06
-3.097e-06
-4.2272e-06
-2.54836e-06
-8.93507e-06
-5.86711e-06
6.89517e-07
-6.85532e-06
-6.96518e-06
3.43005e-06
-9.14758e-07
-6.47035e-06
3.98793e-06
3.70509e-06
-4.20377e-06
3.52002e-06
6.37178e-06
-1.80298e-06
1.55889e-06
3.55957e-06
2.93525e-07
-7.15037e-07
-1.46914e-07
-1.32894e-09
-1.41522e-08
-1.60154e-07
4.8256e-09
-3.98865e-08
-1.72193e-07
1.7017e-08
-6.01596e-08
-1.85248e-07
2.31468e-08
-6.26003e-08
-1.98634e-07
1.84694e-08
-4.1781e-08
-2.02846e-07
-7.83738e-09
-3.96835e-09
-1.49139e-07
-9.77472e-08
5.25679e-08
4.41376e-08
-2.75843e-07
1.43539e-07
9.0734e-08
-1.06165e-07
1.45799e-07
8.20619e-08
1.88533e-08
-1.40373e-07
-1.74964e-08
-1.19724e-09
-1.36188e-07
-1.67262e-08
-5.35087e-08
-1.24608e-07
1.16477e-08
-9.67229e-08
-1.29988e-07
4.3762e-08
-1.12623e-07
-1.64622e-07
6.40998e-08
-9.81194e-08
-2.33228e-07
4.60569e-08
-5.02667e-08
-2.43338e-07
-1.0338e-07
6.37798e-08
7.03686e-08
-5.34359e-07
3.29877e-07
2.00488e-07
-1.38203e-07
2.3621e-07
2.74787e-07
-5.64166e-08
-1.51051e-07
5.01469e-08
-5.11941e-08
-1.64502e-07
1.93415e-08
-1.01599e-07
-1.60357e-07
3.84739e-08
-1.49026e-07
-1.81461e-07
9.96028e-08
-1.60643e-07
-2.7345e-07
1.68002e-07
-1.25525e-07
-4.43959e-07
2.00311e-07
-3.39875e-08
-4.70775e-07
8.75459e-10
2.66258e-07
-1.19679e-07
-7.1709e-07
7.93272e-07
1.37875e-07
-1.24767e-07
6.15755e-07
4.51246e-07
-7.9676e-08
-1.18336e-07
2.65632e-07
-1.45499e-07
-1.40346e-07
1.90641e-07
-1.56245e-07
-1.52808e-07
1.55455e-07
-1.92245e-07
-1.79944e-07
1.99543e-07
-2.13864e-07
-2.72175e-07
2.93791e-07
-1.81087e-07
-3.90818e-07
3.51008e-07
-4.57368e-08
-2.93124e-07
6.34332e-08
2.68289e-07
-1.68913e-07
-7.05224e-07
7.83902e-07
-1.3593e-07
1.82813e-08
6.28294e-07
5.76136e-07
-9.87585e-08
-1.02406e-07
5.85817e-07
-3.11691e-07
-9.80977e-08
4.54544e-07
-2.66876e-07
-1.2683e-07
3.90318e-07
-2.69938e-07
-1.54755e-07
4.03898e-07
-3.18861e-07
-1.89111e-07
4.54627e-07
-2.92889e-07
-1.81177e-07
4.59868e-07
-1.3889e-07
-2.07413e-08
7.19322e-08
1.04053e-07
-8.05729e-08
-4.84131e-07
4.71672e-07
-2.81377e-07
2.53187e-07
2.85531e-07
6.35111e-07
-2.13641e-07
-9.57385e-08
1.03458e-06
-5.7014e-07
-1.16699e-07
8.75271e-07
-4.17697e-07
-1.69119e-07
7.89033e-07
-3.15488e-07
-1.62247e-07
7.09462e-07
-2.78063e-07
-1.24205e-07
6.49672e-07
-2.03582e-07
-5.47693e-08
5.89011e-07
-4.71927e-08
1.46335e-08
3.05724e-07
1.97911e-07
-1.22353e-07
1.89719e-08
3.83748e-07
-4.16677e-07
6.33111e-07
6.14825e-08
5.05937e-07
-3.04084e-07
-2.31491e-07
1.60799e-06
-9.01043e-07
-2.82029e-07
1.41961e-06
-7.0181e-07
-3.04192e-07
1.22593e-06
-5.68829e-07
-2.31425e-07
1.0064e-06
-5.20725e-07
-1.43796e-07
9.10179e-07
-3.31691e-07
-6.67888e-08
8.24401e-07
5.11083e-08
-5.05362e-08
6.43732e-07
4.54173e-07
-1.76282e-07
4.75149e-07
5.66445e-07
-3.35089e-07
8.59397e-07
2.51753e-07
4.18495e-07
-4.3117e-07
-8.462e-07
2.32624e-06
-2.07402e-06
-5.55506e-07
1.99391e-06
-2.08257e-06
-2.21552e-07
1.62328e-06
-2.08364e-06
8.30751e-08
1.39947e-06
-2.09308e-06
2.40291e-07
1.51906e-06
-1.8713e-06
2.07689e-07
1.65054e-06
-1.25893e-06
-4.75155e-09
1.47355e-06
-3.3947e-07
-2.29299e-07
9.90191e-07
3.10051e-07
-1.59131e-07
7.25358e-07
3.21459e-07
4.59814e-07
-3.94566e-07
-1.18956e-06
-2.0236e-07
6.41957e-06
-1.15524e-06
-1.25736e-06
5.93811e-06
-9.45561e-07
-1.73453e-06
4.61517e-06
-7.27394e-07
-3.97963e-07
1.97675e-06
-3.20333e-07
1.11246e-06
-1.39731e-07
7.78587e-08
1.63883e-06
-6.40495e-07
3.18028e-07
1.56689e-06
-3.85843e-07
2.46246e-07
1.30204e-06
2.15266e-07
6.82753e-08
6.75334e-07
9.54572e-07
4.92553e-07
1.09185e-06
-2.89621e-06
8.15444e-08
1.51555e-06
-3.69981e-06
-1.02623e-06
8.50811e-07
-4.37574e-06
-1.17735e-06
1.22041e-06
-4.58636e-06
5.39758e-07
3.06899e-06
-4.63542e-06
2.26285e-06
5.40173e-06
-4.27113e-06
1.24779e-06
7.39934e-06
-3.13007e-06
-2.05693e-06
8.22514e-06
-1.88189e-06
-2.14165e-06
6.81818e-06
-8.97389e-07
-1.71147e-06
5.85345e-06
-1.20595e-06
4.67027e-06
-3.4455e-06
-4.29983e-07
1.76338e-06
-2.64352e-06
-1.33207e-06
6.24669e-07
-2.25413e-06
-1.847e-06
-5.68917e-08
-1.53099e-06
-1.15268e-06
-1.05416e-06
-9.73392e-09
-1.68493e-07
-1.6304e-06
1.79853e-06
-2.78122e-07
-1.28346e-06
2.31185e-06
-2.71779e-06
3.46467e-08
1.68453e-06
-2.0013e-06
2.4257e-06
6.76902e-07
-8.66547e-07
3.15052e-06
-1.3691e-06
3.63528e-06
-6.39716e-06
5.53898e-07
-5.13948e-07
-5.11083e-06
-1.13174e-06
-2.03343e-06
-3.82236e-06
-1.63106e-06
-2.47547e-06
-3.09369e-06
-1.21168e-06
-2.99453e-06
-2.09683e-06
-1.69397e-06
-4.81488e-06
6.01798e-07
-4.05899e-06
-7.10703e-06
3.86708e-06
-5.56191e-06
-8.6882e-06
5.33443e-06
-2.43996e-06
-6.6377e-06
3.4045e-06
9.9947e-07
-2.76559e-06
1.32305e-06
-1.24586e-06
-8.14749e-06
3.91082e-07
-3.61162e-06
-6.38373e-06
-2.37774e-06
-4.43731e-06
-4.39632e-06
-2.83331e-06
-4.32993e-06
-3.15274e-06
-1.87707e-06
-3.71303e-06
-2.30606e-06
-1.92243e-06
-4.6861e-06
-7.26508e-07
-5.34958e-06
-6.5983e-06
1.31918e-06
-7.23354e-06
-8.49104e-06
3.5281e-06
-3.65421e-06
-8.73495e-06
2.95439e-06
1.97433e-06
-5.52895e-06
3.97253e-06
-3.09493e-06
-8.33685e-06
-3.03036e-07
-5.29595e-06
-6.13228e-06
-3.72495e-06
-7.40198e-06
-3.55952e-06
-5.25047e-06
-6.0207e-06
-1.46886e-06
-4.49082e-06
-3.74197e-06
-8.21034e-07
-2.73766e-06
-4.08406e-06
-7.33533e-07
-5.06655e-06
-5.96368e-06
-5.89325e-07
-6.49387e-06
-7.17364e-06
3.15608e-07
-3.22986e-06
-6.33383e-06
1.06402e-06
2.76594e-06
-5.90339e-06
5.18523e-06
-4.44602e-06
-6.31295e-06
1.78489e-07
-8.40751e-06
-4.87193e-06
-4.17676e-06
-1.04463e-05
-3.03072e-06
-7.29303e-06
-6.57346e-06
-1.13357e-06
-6.81371e-06
-3.57925e-06
-4.49216e-07
-3.55645e-06
-4.13473e-06
-1.54712e-06
-3.24696e-06
-5.7968e-06
-2.92892e-06
-3.71444e-06
-5.40744e-06
-2.72008e-06
-1.88789e-06
-3.68817e-06
-1.20291e-06
2.16259e-06
-3.05587e-06
4.04931e-06
-3.82435e-06
-3.71415e-06
8.38031e-07
-1.05871e-05
-3.96846e-06
-4.27031e-06
-1.11985e-05
-3.51576e-06
-8.82562e-06
-5.18184e-06
-2.62142e-06
-7.72494e-06
-2.58919e-06
-2.01519e-06
-3.03118e-06
-3.6028e-06
-3.12357e-06
-9.91738e-07
-4.2094e-06
-4.74264e-06
-8.07146e-08
-2.3757e-06
-4.85575e-06
9.75709e-08
-1.55115e-06
-2.88628e-06
1.04859e-06
-1.90384e-06
1.08483e-06
-2.41877e-06
-1.23016e-06
1.92464e-06
-1.14813e-05
-3.1263e-06
-4.00513e-06
-1.02082e-05
-4.13406e-06
-9.75254e-06
-4.09207e-06
-3.77042e-06
-8.39594e-06
-1.06037e-06
-2.76433e-06
-2.42642e-06
-9.67567e-07
-2.97742e-06
6.5745e-07
-3.96619e-07
-3.5999e-06
3.06195e-06
1.68217e-06
-4.11777e-06
2.96646e-06
1.11363e-06
-2.52061e-06
7.54405e-07
-1.04367e-06
-6.90091e-07
-2.00745e-06
9.02499e-07
3.65135e-06
-1.10108e-05
-1.93163e-06
-3.14613e-06
-9.01495e-06
-4.25068e-06
-9.93613e-06
-3.59446e-06
-4.25825e-06
-9.88374e-06
1.82055e-07
-2.8292e-06
-3.23712e-06
2.01335e-06
-2.3255e-06
1.6781e-06
3.82672e-06
-2.42788e-06
4.97e-06
5.11349e-06
-2.94276e-06
5.3228e-06
3.88365e-06
-2.38825e-06
1.30317e-06
8.23597e-07
-9.93197e-07
-4.52676e-07
2.93001e-06
5.43941e-06
-9.37587e-06
-4.79674e-07
-1.14178e-06
-7.7019e-06
-4.23152e-06
-8.622e-06
-3.34665e-06
-5.67936e-06
-1.07768e-05
3.92261e-07
-5.02013e-06
-4.50144e-06
2.75702e-06
-4.48038e-06
1.67234e-06
4.90489e-06
-3.9646e-06
5.19185e-06
5.67842e-06
-3.05013e-06
5.50393e-06
4.6118e-06
-2.12126e-06
1.1529e-06
2.13419e-06
-1.66019e-06
1.48037e-06
4.86954e-06
-7.17459e-06
6.75136e-06
1.16219e-06
-6.10337e-06
1.82992e-06
-3.73122e-06
-3.24508e-06
-5.4712e-06
-7.6745e-06
7.65856e-08
-9.45848e-06
-8.99046e-06
2.55167e-06
-5.04764e-06
-9.03542e-06
4.11864e-06
1.02871e-06
-7.34896e-06
4.44162e-06
3.05171e-06
-3.90257e-06
3.25537e-06
2.32219e-06
-6.96805e-07
1.12306e-06
-1.61704e-06
1.30019e-06
-3.36367e-06
-1.66815e-07
5.75156e-08
-5.45254e-08
-1.6917e-07
2.57876e-08
-6.33194e-08
-1.6111e-07
1.58027e-08