/*--------------------------------*- C++ -*----------------------------------*\
| =========                 |                                                 |
| \\      /  F ield         | OpenFOAM: The Open Source CFD Toolbox           |
|  \\    /   O peration     | Version:  2312                                  |
|   \\  /    A nd           | Website:  www.openfoam.com                      |
|    \\/     M anipulation  |                                                 |
\*---------------------------------------------------------------------------*/
FoamFile
{
    version     2.0;
    format      ascii;
    arch        "LSB;label=32;scalar=64";
    class       surfaceScalarField;
    location    "1.235";
    object      phi;
}
// * * * * * * * * * * * * * * * * * * * * * * * * * * * * * * * * * * * * * //

dimensions      [0 3 -1 0 0 0 0];

oriented        oriented;

internalField   nonuniform List<scalar> 
22600
(
-6.25334e-08
1.90476e-07
-1.27942e-07
-9.21356e-08
2.44749e-07
-2.15147e-07
-7.33088e-08
2.78622e-07
-2.97449e-07
-4.66193e-08
2.4646e-07
-2.7315e-07
-4.09858e-08
1.85486e-07
-1.91119e-07
-4.61782e-08
1.47475e-07
-1.42283e-07
-4.31954e-08
1.27308e-07
-1.3029e-07
-1.84412e-08
1.09216e-07
-1.3397e-07
3.74395e-08
8.43865e-08
-1.40267e-07
5.51251e-08
-1.49349e-07
-3.28799e-08
3.65033e-07
-1.41678e-07
-8.61372e-08
3.97417e-07
-9.94103e-08
-1.41933e-07
5.01016e-07
-1.66598e-07
-1.46894e-07
5.13448e-07
-2.62027e-07
-1.37346e-07
4.33503e-07
-2.57565e-07
-1.33029e-07
3.40199e-07
-1.97041e-07
-1.15574e-07
2.73007e-07
-1.63155e-07
-7.13538e-08
2.21705e-07
-1.56709e-07
6.45973e-09
1.56356e-07
-1.49783e-07
5.79269e-08
-1.31409e-07
9.93197e-08
3.32438e-07
-6.67241e-08
2.50215e-08
3.37018e-07
1.34697e-07
-1.53875e-07
5.86622e-07
9.32908e-08
-2.50854e-07
6.37528e-07
-2.71011e-08
-2.38633e-07
5.9436e-07
-1.73078e-07
-1.97492e-07
5.12339e-07
-2.1328e-07
-1.81448e-07
4.40918e-07
-1.83954e-07
-1.68163e-07
3.55731e-07
-1.47311e-07
-6.30128e-08
1.29972e-07
-7.87658e-08
-1.40939e-07
-8.95814e-09
1.84506e-07
4.38342e-08
1.04097e-07
1.66961e-07
8.03133e-08
2.7425e-07
-1.07023e-07
6.22435e-07
2.38171e-07
-3.25201e-07
6.89686e-07
1.6602e-07
-3.66646e-07
6.47351e-07
-1.15462e-08
-3.43879e-07
6.20128e-07
-1.30557e-07
-3.3444e-07
5.6192e-07
-1.3044e-07
-2.56059e-07
3.41997e-07
-6.46453e-08
-5.65013e-08
-9.46073e-08
2.5021e-08
-3.59292e-07
2.73407e-08
-2.16502e-08
-1.47133e-07
2.12617e-07
-5.46778e-08
-2.54759e-08
1.38817e-07
-2.87898e-07
5.93945e-07
2.6171e-07
-4.83056e-07
6.43009e-07
2.41835e-07
-5.16844e-07
5.73802e-07
1.07337e-07
-4.64304e-07
5.77887e-07
-1.02992e-08
-3.48579e-07
4.85772e-07
-3.95768e-08
-1.31498e-07
1.62223e-07
-3.73069e-08
3.08872e-08
-1.8349e-07
-7.35024e-08
-2.65327e-07
-1.54027e-07
-1.95943e-07
1.55761e-07
-1.06952e-07
-2.3542e-07
2.58073e-07
-2.44072e-07
-3.84129e-07
6.03018e-07
1.39637e-07
-4.75627e-07
5.94323e-07
1.40184e-07
-4.50296e-07
5.47331e-07
1.1411e-09
-3.5447e-07
5.68629e-07
-8.65676e-08
-1.93233e-07
4.68712e-07
-1.44177e-07
-5.9203e-08
2.55952e-07
-2.27759e-07
-3.36435e-08
1.42917e-07
-3.51967e-07
1.32146e-07
-4.48056e-07
-1.67248e-07
9.57202e-07
-6.34193e-07
-2.25616e-07
1.00141e-06
-6.84973e-07
-2.89745e-07
1.05651e-06
-3.89362e-07
-3.1491e-07
1.03115e-06
-4.11658e-07
-3.11658e-07
1.00116e-06
-4.5708e-07
-2.60784e-07
9.64465e-07
-4.4671e-07
-1.90413e-07
8.79009e-07
-4.80668e-07
-1.77559e-07
8.16489e-07
-5.73391e-07
-1.48221e-07
8.25148e-07
-7.11569e-07
8.31905e-07
-8.20634e-07
-4.0058e-07
2.12738e-06
-7.69598e-07
-5.96056e-07
2.07659e-06
-8.79697e-07
-8.06312e-07
1.91463e-06
-6.47863e-07
-1.00523e-06
1.75649e-06
-5.26429e-07
-1.09596e-06
1.63591e-06
-5.44015e-07
-1.00351e-06
1.53588e-06
-6.63871e-07
-8.20215e-07
1.52643e-06
-8.30711e-07
-6.48984e-07
1.64641e-06
-1.00115e-06
-4.76374e-07
1.80275e-06
-1.15022e-06
1.89438e-06
-1.24492e-06
-7.77748e-07
3.62153e-06
-7.16404e-07
-1.14812e-06
3.18153e-06
-7.34567e-07
-1.37466e-06
2.5558e-06
-4.14634e-07
-1.47038e-06
2.1733e-06
-3.21085e-07
-1.43948e-06
2.17154e-06
-5.66535e-07
-1.25144e-06
2.2876e-06
-9.39763e-07
-1.0536e-06
2.60819e-06
-1.2796e-06
-9.09983e-07
3.12825e-06
-1.62545e-06
-8.24334e-07
3.75151e-06
-2.0344e-06
4.17283e-06
-2.41364e-06
-3.74371e-07
4.20233e-06
-2.06427e-07
-1.32534e-07
3.10401e-06
-1.64323e-07
1.67053e-07
2.0713e-06
1.84913e-07
2.58816e-08
1.84598e-06
4.68494e-07
-5.94024e-08
1.41598e-06
8.40848e-07
-6.91547e-07
2.22348e-06
6.96264e-07
-1.22734e-06
3.29519e-06
-1.51217e-07
-1.21997e-06
4.90957e-06
-1.7887e-06
-6.07831e-07
5.65962e-06
-2.52025e-06
5.52065e-06
-2.16266e-06
-5.75606e-07
3.90629e-06
8.71644e-07
-5.66189e-07
2.0443e-06
1.05029e-06
-1.28714e-06
1.13636e-06
1.65591e-06
-1.48778e-06
4.10706e-08
2.00552e-06
-1.57847e-06
-6.19788e-07
2.12645e-06
-1.99399e-06
5.44747e-07
2.09426e-06
-1.88821e-06
1.15117e-06
2.03823e-06
-9.47395e-07
2.1826e-06
1.78618e-06
9.5775e-08
2.91673e-06
1.69971e-06
2.86787e-06
1.75197e-06
-8.60227e-07
3.79764e-06
9.68884e-07
-1.82278e-06
1.0552e-06
1.95166e-06
-3.488e-06
1.28119e-06
1.52039e-06
-3.82918e-06
-3.59555e-07
7.41799e-07
-4.79885e-06
-2.81759e-07
6.3165e-07
-5.37415e-06
1.19739e-08
1.10807e-06
-4.64347e-06
-9.03657e-07
1.32414e-06
-2.89699e-06
-1.16176e-06
1.59787e-06
-1.1379e-06
-6.05224e-07
1.76287e-06
-7.17402e-08
1.88625e-06
-9.53345e-07
3.63921e-06
1.11177e-06
-2.75978e-06
1.49609e-06
1.36554e-06
-4.08705e-06
2.53959e-06
6.887e-08
-5.25066e-06
1.03248e-06
-2.28425e-07
-6.88051e-06
1.06129e-06
2.86794e-07
-7.33314e-06
1.02376e-07
3.62241e-07
-6.37093e-06
-1.92905e-06
6.31875e-08
-4.55983e-06
-2.86515e-06
-1.07706e-07
-2.64831e-06
-2.36609e-06
-1.50648e-07
-1.45272e-06
1.05377e-07
-7.7622e-07
3.41106e-06
1.00437e-06
-2.49137e-06
2.59596e-06
6.15272e-07
-3.77951e-06
4.37783e-06
-5.50113e-07
-5.40856e-06
2.47539e-06
1.86153e-07
-6.97928e-06
1.54761e-06
1.08439e-06
-7.59993e-06
-4.80241e-07
1.20326e-06
-7.42619e-06
-2.99897e-06
8.96185e-07
-6.47425e-06
-4.03254e-06
2.15445e-07
-4.93447e-06
-3.3164e-06
-5.89474e-07
-1.86604e-06
-1.10117e-06
-3.26653e-07
2.93897e-06
7.98741e-07
-1.28004e-06
2.93235e-06
6.17004e-07
-2.6328e-06
5.9568e-06
-2.26215e-07
-4.61437e-06
3.60505e-06
8.51898e-07
-5.93007e-06
1.03492e-06
1.82838e-06
-6.88583e-06
-1.46832e-06
1.94385e-06
-7.65506e-06
-3.78705e-06
1.55731e-06
-7.74779e-06
-4.82733e-06
8.87516e-07
-7.00891e-06
-4.02416e-06
-3.11144e-08
-2.17018e-06
-8.60895e-07
-2.43389e-08
2.45087e-06
5.1244e-07
-1.27762e-07
2.16885e-06
8.66931e-07
-7.44259e-07
6.06549e-06
5.07814e-07
-2.36212e-06
3.99911e-06
1.2238e-06
-3.50269e-06
1.40406e-07
2.03509e-06
-5.24195e-06
-1.96776e-06
2.23872e-06
-7.2604e-06
-3.62808e-06
1.85947e-06
-8.22605e-06
-4.90665e-06
1.04497e-06
-8.12362e-06
-4.53466e-06
4.08078e-07
-2.74607e-06
-2.1233e-07
-1.38479e-07
2.49109e-06
9.82541e-08
-4.01954e-08
1.47239e-06
5.9816e-07
3.36945e-07
4.40594e-06
1.28241e-06
-1.73201e-07
2.94622e-06
1.56303e-06
-1.09645e-06
-7.79206e-07
1.84286e-06
-3.47556e-06
-1.87774e-06
2.28908e-06
-6.31121e-06
-2.92523e-06
2.13282e-06
-7.95326e-06
-4.16598e-06
9.0137e-07
-8.21116e-06
-4.40811e-06
1.31348e-07
-3.49523e-06
2.56853e-07
-5.76664e-07
3.36618e-06
-2.98418e-07
-1.4226e-06
2.07957e-06
2.38776e-07
-8.16951e-07
2.64403e-06
1.15625e-06
-4.42546e-07
1.17795e-06
1.39387e-06
-1.48977e-06
-1.44827e-06
1.7163e-06
-3.53189e-06
-2.29438e-06
2.45878e-06
-5.77284e-06
-3.00618e-06
2.32188e-06
-7.30674e-06
-3.54836e-06
9.1627e-07
-7.64174e-06
-3.75946e-06
-3.13637e-07
-3.64431e-06
-2.53127e-07
-9.33286e-07
4.85785e-06
-5.58389e-07
-2.31214e-06
3.42548e-06
3.29419e-08
-2.29278e-06
1.90296e-06
7.21695e-07
-1.97737e-06
-4.36213e-07
1.29877e-06
-2.98789e-06
-2.3877e-06
1.94993e-06
-4.27891e-06
-3.37257e-06
2.36921e-06
-5.80684e-06
-3.68171e-06
2.20345e-06
-6.88021e-06
-3.56378e-06
1.0888e-06
-6.94932e-06
-3.26246e-06
-4.2789e-07
-3.16283e-06
-1.01199e-06
-4.47419e-07
-7.62354e-07
6.06762e-06
-1.38089e-06
-3.08935e-07
4.66788e-06
-1.95747e-06
6.19585e-07
1.85997e-06
-2.68705e-06
1.54767e-06
-1.25431e-06
-3.66929e-06
1.7112e-06
-3.11664e-06
-4.64253e-06
1.84917e-06
-4.2485e-06
-5.75605e-06
1.75216e-06
-4.32034e-06
-6.53114e-06
1.10581e-06
-3.89449e-06
-6.42896e-06
-1.34256e-07
-3.2304e-06
-1.08559e-06
-2.81105e-06
-1.32099e-07
2.23285e-07
-2.19128e-07
-1.20431e-07
6.98829e-08
-2.96698e-07
-9.32827e-10
-2.40467e-08
-3.92899e-07
8.2412e-08
4.97315e-08
-4.06226e-07
9.99127e-08
1.10364e-07
-3.18983e-07
8.91277e-08
1.08886e-07
-2.40384e-07
8.20496e-08
8.90302e-08
-2.12242e-07
8.62152e-08
7.16493e-08
-2.09785e-07
1.02541e-07
5.75142e-08
-2.14107e-07
2.57114e-08
-2.21774e-07
3.19672e-08
3.19796e-07
-2.70156e-07
1.98656e-07
-1.56868e-07
-3.9348e-08
1.996e-07
-1.77398e-07
-1.41903e-08
1.5012e-07
8.04498e-08
-2.43265e-07
9.79874e-08
2.78059e-07
-3.73127e-07
4.92716e-08
2.8752e-07
-3.26958e-07
3.13377e-08
2.12275e-07
-2.68466e-07
4.39578e-08
1.48672e-07
-2.46351e-07
7.86495e-08
1.12784e-07
-2.39744e-07
4.36043e-08
-2.23186e-07
2.81015e-07
1.68835e-07
-1.96777e-07
5.01642e-07
-5.62056e-07
3.19258e-07
3.53506e-07
-3.15335e-07
3.79364e-07
1.22567e-07
1.48841e-07
1.35446e-07
4.14025e-08
4.0462e-07
-2.18474e-07
2.93387e-08
4.41013e-07
-3.54709e-07
3.2207e-08
3.49753e-07
-3.243e-07
2.20288e-08
2.85557e-07
-2.74018e-07
2.86965e-08
2.37639e-07
-2.10289e-07
-5.63469e-09
-9.60674e-08
3.25029e-07
-6.19951e-08
9.89867e-09
2.91703e-07
-6.44917e-07
3.90436e-07
-2.0831e-10
-2.02264e-07
4.17011e-07
-2.35643e-07
2.34889e-07
3.15407e-07
-2.15565e-07
4.14013e-07
-4.10178e-08
-1.25561e-07
5.01147e-07
-2.80695e-07
-9.90608e-08
4.95337e-07
-3.02525e-07
-1.00822e-07
4.51818e-07
-2.29145e-07
4.18405e-09
2.75832e-07
-1.18177e-07
-1.17272e-07
-1.44724e-08
2.85487e-08
1.53222e-07
-3.11488e-08
-2.45024e-07
-2.10469e-07
-2.20584e-08
-4.91001e-07
3.68308e-08
2.68591e-07
-5.72164e-07
2.51206e-07
3.0668e-07
-4.67371e-07
3.44551e-07
7.20067e-08
-3.05702e-07
4.49118e-07
-1.19939e-07
-1.49208e-07
4.84796e-07
-1.8553e-07
5.13008e-08
4.07681e-07
-1.9368e-07
2.65164e-07
1.97075e-07
-2.08608e-07
-2.26218e-08
-2.38026e-07
-3.24064e-08
6.25813e-07
-5.47136e-07
-3.14994e-07
3.85707e-07
-5.5766e-07
-4.31065e-07
3.88153e-07
-9.56147e-08
-4.14883e-07
4.35339e-07
-6.01309e-08
-3.34367e-07
4.65522e-07
-2.00346e-07
-1.83899e-07
5.13429e-07
-3.01347e-07
4.13472e-08
5.1075e-07
-3.95377e-07
2.83994e-07
4.43025e-07
-5.0575e-07
3.88015e-07
3.74246e-07
-6.3316e-07
3.41817e-07
-7.03332e-07
7.78698e-08
1.09361e-06
-1.17986e-06
-2.30064e-07
1.06394e-06
-1.05527e-06
-3.60768e-07
1.03852e-06
-9.09024e-07
-3.3986e-07
9.85953e-07
-9.8318e-07
-2.94388e-07
9.3824e-07
-9.75271e-07
-1.73378e-07
9.03588e-07
-9.57879e-07
4.29182e-09
8.86384e-07
-1.03397e-06
1.40686e-07
8.64837e-07
-1.1316e-06
1.93551e-07
8.43814e-07
-1.234e-06
8.31015e-07
-1.28495e-06
-3.49809e-07
1.90174e-06
-1.22793e-06
-8.96693e-07
1.97199e-06
-1.24086e-06
-1.14407e-06
1.8732e-06
-1.23517e-06
-1.18682e-06
1.72142e-06
-1.21915e-06
-1.10669e-06
1.57335e-06
-1.25925e-06
-9.06706e-07
1.45088e-06
-1.41115e-06
-6.58606e-07
1.40633e-06
-1.59875e-06
-4.64033e-07
1.44063e-06
-1.77152e-06
-3.48435e-07
1.50018e-06
-1.92218e-06
1.4873e-06
-2.0067e-06
-1.16025e-06
3.30295e-06
-9.57354e-07
-1.99237e-06
3.03977e-06
-9.70229e-07
-2.29226e-06
2.67494e-06
-9.16479e-07
-2.23444e-06
2.41253e-06
-1.07001e-06
-2.04482e-06
2.33757e-06
-1.52038e-06
-1.87302e-06
2.46134e-06
-2.12202e-06
-1.7728e-06
2.78101e-06
-2.7545e-06
-1.68094e-06
3.17087e-06
-3.44754e-06
-1.48118e-06
3.4223e-06
-4.15629e-06
3.38236e-06
-4.68707e-06
-9.12741e-07
4.01966e-06
-1.03954e-08
-1.1658e-06
3.12053e-06
7.9733e-09
-1.20284e-06
2.4497e-06
4.47185e-07
-1.1211e-06
1.84711e-06
9.52178e-07
-9.50984e-07
1.83027e-06
1.17804e-06
-1.59916e-06
3.37299e-06
4.32789e-07
-2.38744e-06
5.27588e-06
-1.85781e-06
-2.61368e-06
5.73813e-06
-4.12973e-06
-2.0854e-06
5.29173e-06
-4.91797e-06
4.86485e-06
-4.77218e-06
-1.74187e-06
5.27141e-06
1.36177e-06
-2.24673e-06
2.55045e-06
2.12523e-06
-2.76137e-06
1.17768e-06
3.44257e-06
-2.79517e-06
-2.92738e-07
4.17917e-06
-2.76365e-06
-3.05136e-07
4.23034e-06
-2.56857e-06
1.33199e-06
3.94018e-06
-2.13926e-06
3.48669e-06
3.39811e-06
-1.76815e-06
5.32315e-06
1.83005e-06
-1.02376e-06
6.05312e-06
1.9391e-07
5.94913e-06
-2.02959e-07
-1.70286e-06
5.55507e-06
2.38809e-06
-3.46613e-06
1.94937e-06
4.316e-06
-5.45148e-06
2.14388e-07
4.46903e-06
-6.43326e-06
-1.88899e-06
3.31982e-06
-7.21373e-06
-1.85529e-06
2.96228e-06
-6.58096e-06
-1.70757e-06
3.51485e-06
-4.77504e-06
-7.65447e-07
3.77036e-06
-2.86522e-06
1.70482e-06
3.30636e-06
-1.402e-06
4.23699e-06
2.11579e-06
5.4578e-06
1.52651e-06
-1.84537e-06
5.29568e-06
3.21653e-06
-4.92507e-06
2.34328e-06
4.05134e-06
-7.23162e-06
4.97826e-07
2.09199e-06
-8.92771e-06
-1.23664e-06
8.15302e-07
-9.71921e-06
-2.03533e-06
1.25834e-06
-8.95766e-06
-3.81396e-06
1.70709e-06
-7.07189e-06
-4.39332e-06
1.80529e-06
-4.32e-06
-2.77818e-06
1.6234e-06
-1.73976e-06
3.51858e-07
1.15425e-06
3.43031e-06
7.47479e-07
-1.89191e-06
5.07998e-06
3.11197e-06
-5.03027e-06
3.91303e-06
2.18389e-06
-7.19558e-06
1.83217e-06
2.80843e-07
-9.11905e-06
2.20119e-07
6.52868e-07
-1.01757e-05
-1.2476e-06
1.35328e-06
-1.00507e-05
-4.01217e-06
1.27654e-06
-9.0947e-06
-5.46668e-06
1.0135e-06
-7.03841e-06
-5.23684e-06
6.17801e-07
-3.93355e-06
-3.41987e-06
7.74054e-08
-8.14567e-08
-5.17148e-07
-1.45434e-06
4.82427e-06
2.5088e-06
-3.62421e-06
5.37261e-06
1.32729e-06
-5.81788e-06
3.36327e-06
4.36348e-07
-7.90034e-06
1.39125e-06
1.76323e-06
-8.80966e-06
-9.30392e-07
2.42049e-06
-9.27568e-06
-3.60723e-06
2.00493e-06
-9.43752e-06
-5.06066e-06
1.31313e-06
-8.84131e-06
-5.44177e-06
4.96239e-07
-7.18726e-06
-4.85116e-06
-2.53863e-07
-2.76111e-06
-1.0487e-06
-9.10309e-07
4.44548e-06
1.80152e-06
-1.70024e-06
6.21875e-06
8.10716e-07
-3.30537e-06
4.81087e-06
6.65344e-07
-5.13378e-06
2.03915e-06
2.40431e-06
-6.05714e-06
-1.26926e-06
3.29731e-06
-7.44233e-06
-3.00672e-06
3.0234e-06
-8.62197e-06
-3.8643e-06
1.84275e-06
-9.13192e-06
-4.39108e-06
5.04244e-07
-8.92607e-06
-4.49409e-06
-1.54842e-07
-3.65113e-06
-7.02062e-07
-6.27026e-07
4.04209e-06
1.12867e-06
-7.41782e-07
6.50679e-06
4.24875e-07
-9.66133e-07
5.19227e-06
1.12536e-06
-1.6175e-06
1.1182e-06
3.13534e-06
-2.90391e-06
-2.06715e-06
3.92716e-06
-5.43925e-06
-2.27577e-06
4.09346e-06
-7.41497e-06
-2.37452e-06
2.61876e-06
-8.53875e-06
-2.63295e-06
2.67033e-07
-9.23781e-06
-3.00524e-06
-6.58434e-07
-3.15118e-06
-3.41172e-07
-9.91609e-07
3.97908e-06
7.56205e-07
-1.49856e-06
6.56222e-06
6.90296e-07
-1.51385e-06
4.17318e-06
2.19063e-06
-1.99342e-06
-8.00385e-07
3.79204e-06
-3.67664e-06
-2.72879e-06
4.06118e-06
-5.44215e-06
-2.50079e-06
4.4493e-06
-6.84287e-06
-1.89878e-06
3.24686e-06
-7.76894e-06
-1.24692e-06
4.56301e-07
-8.62581e-06
-1.14595e-06
-1.31607e-06
-1.72008e-06
-1.12058e-06
-1.91525e-06
4.62647e-06
7.09475e-07
-2.85461e-06
6.18873e-06
1.3458e-06
-3.2528e-06
2.70805e-06
2.58501e-06
-4.08604e-06
-1.9809e-06
3.31252e-06
-5.3525e-06
-3.32001e-06
3.80761e-06
-6.26455e-06
-3.28336e-06
4.06382e-06
-6.77936e-06
-2.379e-06
3.19848e-06
-6.97707e-06
-9.56698e-07
9.96284e-07
-7.14516e-06
-6.74617e-09
-1.39901e-06
-2.60962e-07
-2.51556e-06
-2.08224e-06
4.3512e-07
5.51124e-06
-2.5566e-06
1.10247e-06
5.25168e-06
-2.90662e-06
2.01034e-06
1.66732e-06
-4.05458e-06
2.78697e-06
-2.07224e-06
-5.53457e-06
3.04656e-06
-3.17538e-06
-6.50362e-06
3.0506e-06
-3.51573e-06
-6.73117e-06
2.62968e-06
-3.02896e-06
-6.44104e-06
1.32479e-06
-1.46581e-06
-6.01668e-06
-7.30408e-07
1.65039e-07
-2.55161e-06
6.48178e-07
-2.28816e-07
2.45619e-07
-2.35931e-07
-1.94232e-07
-1.44066e-07
-1.87216e-07
6.73446e-08
-4.82341e-07
-1.72135e-07
2.15608e-07
-3.37842e-07
-2.16647e-07
1.88911e-07
-4.46421e-08
-2.47643e-07
1.22525e-07
7.1225e-08
-2.45223e-07
8.55461e-08
6.86832e-08
-2.43947e-07
8.07126e-08
4.58543e-08
-2.50806e-07
9.5759e-08
2.4914e-08
-2.54067e-07
-1.38993e-08
-2.54256e-07
-6.18919e-08
4.03946e-07
-3.66592e-07
2.09009e-07
-4.28904e-07
-2.54107e-08
3.92165e-07
-8.25646e-07
1.45959e-07
3.83329e-07
-5.21728e-07
-5.05416e-08
2.65053e-07
-3.49568e-08
-2.64537e-07
1.18155e-07
2.14515e-07
-3.2335e-07
4.45206e-08
1.85516e-07
-3.11664e-07
4.31248e-08
1.02502e-07
-3.01602e-07
7.98794e-08
4.18368e-08
-2.93421e-07
-2.8128e-08
-2.78372e-07
1.33087e-07
4.6336e-07
-3.89278e-07
4.4121e-07
-6.28292e-07
2.10523e-07
4.48262e-07
-8.62844e-07
4.0951e-07
3.17149e-07
-4.09386e-07
1.54216e-07
2.32366e-07
5.43436e-08
-2.22991e-07
1.31866e-07
3.44539e-07
-3.84233e-07
7.07355e-08
3.12821e-07
-3.90474e-07
7.0722e-08
1.94436e-07
-3.65939e-07
8.17578e-08
1.54628e-07
-3.34115e-07
4.9834e-08
-2.58675e-07
2.08764e-07
5.88194e-07
-3.23699e-07
2.14586e-07
-3.88972e-07
1.45294e-07
4.38232e-09
-5.73823e-07
3.38194e-07
-9.11693e-08
-1.85106e-07
1.86679e-07
-5.60123e-08
1.75533e-07
-1.97364e-07
-6.20491e-09
4.36253e-07
-4.22216e-07
3.01703e-10
4.64838e-07
-4.61048e-07
-2.06501e-08
4.05641e-07
-4.19398e-07
-2.02895e-09
3.6968e-07
-3.5185e-07
1.46984e-07
-2.47247e-07
1.84841e-07
8.4351e-07
-4.71307e-07
-9.70957e-08
2.1018e-07
-3.39273e-07
-3.88331e-07
-1.64491e-08
2.45254e-09
-4.50382e-07
1.30802e-07
5.28238e-08
-3.60965e-07
3.14164e-07
-1.56041e-07
-2.03302e-07
4.94922e-07
-3.36271e-07
-7.73925e-08
5.65106e-07
-4.11706e-07
-5.77197e-09
5.73213e-07
-4.32873e-07
8.46737e-08
5.37231e-07
-4.66605e-07
3.05336e-07
-4.69334e-07
1.54319e-07
1.04243e-06
-9.0037e-07
-1.28201e-07
6.97373e-07
-7.62333e-07
-3.80536e-07
5.68323e-07
-4.28051e-07
-4.41262e-07
5.50887e-07
-4.1949e-07
-4.02521e-07
5.58826e-07
-4.83749e-07
-2.61562e-07
6.0423e-07
-5.51615e-07
-7.32892e-08
6.31756e-07
-6.503e-07
9.06653e-08
6.63596e-07
-7.60088e-07
1.96586e-07
6.80541e-07
-8.82391e-07
5.61518e-07
-9.60864e-07
2.46702e-08
1.15875e-06
-1.32085e-06
-2.80313e-07
1.10927e-06
-1.16218e-06
-4.90151e-07
1.10323e-06
-1.23409e-06
-5.82255e-07
1.0047e-06
-1.34489e-06
-6.07071e-07
9.19274e-07
-1.3109e-06
-5.17368e-07
8.73304e-07
-1.31666e-06
-3.51384e-07
8.37362e-07
-1.40556e-06
-1.60585e-07
8.19668e-07
-1.47847e-06
1.76492e-08
7.97109e-07
-1.5288e-06
7.25818e-07
-1.56953e-06
-4.71189e-07
1.76791e-06
-1.3659e-06
-1.00662e-06
1.86316e-06
-1.45932e-06
-1.27323e-06
1.80269e-06
-1.66803e-06
-1.41274e-06
1.66909e-06
-1.74402e-06
-1.43102e-06
1.50099e-06
-1.82269e-06
-1.30003e-06
1.32245e-06
-1.99129e-06
-1.04857e-06
1.17751e-06
-2.19036e-06
-7.45356e-07
1.08629e-06
-2.34135e-06
-4.45547e-07
1.01375e-06
-2.43862e-06
9.46961e-07
-2.49719e-06
-1.09454e-06
2.99708e-06
-1.09198e-06
-1.98811e-06
2.8708e-06
-1.08429e-06
-2.40615e-06
2.55549e-06
-1.25123e-06
-2.57696e-06
2.45365e-06
-1.68377e-06
-2.69891e-06
2.5416e-06
-2.43904e-06
-2.74226e-06
2.60115e-06
-3.35737e-06
-2.58526e-06
2.51336e-06
-4.24736e-06
-2.26611e-06
2.3456e-06
-5.026e-06
-1.86668e-06
2.07469e-06
-5.61666e-06
1.74455e-06
-5.96399e-06
-8.13339e-07
3.31645e-06
4.83567e-07
-1.18149e-06
2.71768e-06
5.2924e-07
-1.37836e-06
2.37233e-06
8.27207e-07
-1.54187e-06
2.60066e-06
9.68666e-07
-2.04575e-06
3.0414e-06
1.18213e-06
-3.17371e-06
4.33697e-06
-1.75077e-07
-3.80243e-06
4.38069e-06
-3.09642e-06
-4.20572e-06
3.2243e-06
-4.60514e-06
-4.04888e-06
2.2751e-06
-5.27523e-06
1.74383e-06
-5.38579e-06
-2.21389e-06
4.92347e-06
1.96864e-06
-2.80393e-06
2.71776e-06
2.7152e-06
-2.8751e-06
1.96345e-06
3.92262e-06
-2.5609e-06
1.41089e-06
5.05475e-06
-2.67692e-06
2.14272e-06
5.24503e-06
-2.95345e-06
4.10775e-06
4.44594e-06
-3.19085e-06
5.56864e-06
2.44754e-06
-3.52714e-06
5.59394e-06
-2.03304e-07
-3.58767e-06
4.31846e-06
-1.78892e-06
3.24437e-06
-2.0139e-06
-1.50384e-06
5.25563e-06
3.55976e-06
-2.84147e-06
2.58491e-06
5.78647e-06
-4.0372e-06
1.22829e-06
6.39992e-06
-4.90889e-06
-8.44988e-08
5.68691e-06
-5.80262e-06
9.57968e-07
5.04076e-06
-5.73384e-06
2.89113e-06
4.66268e-06
-4.8505e-06
4.75866e-06
3.69699e-06
-3.98014e-06
6.00072e-06
2.02922e-06
-3.52797e-06
5.7417e-06
2.40395e-07
4.68358e-06
-1.99392e-07
-1.47673e-06
4.67348e-06
5.27541e-06
-4.21925e-06
2.64534e-06
6.73341e-06
-6.36596e-06
3.27398e-07
5.13959e-06
-7.51533e-06
-1.16291e-06
3.04309e-06
-7.56922e-06
-3.67519e-07
2.63771e-06
-6.82837e-06
9.30218e-07
2.92716e-06
-5.60171e-06
2.29408e-06
3.04321e-06
-4.43701e-06
3.70124e-06
2.7582e-06
-3.93442e-06
4.5974e-06
1.79597e-06
4.75063e-06
6.69512e-07
-2.2893e-06
4.48284e-06
5.59193e-06
-6.39713e-06
4.10284e-06
4.83423e-06
-9.11142e-06
1.01421e-06
2.30832e-06
-1.0275e-05
-8.64053e-07
1.51764e-06
-1.00384e-05
-1.27927e-06
2.0284e-06
-8.78589e-06
-1.52728e-06
2.4815e-06
-6.95758e-06
-1.23235e-06
2.71163e-06
-4.92948e-06
-4.59217e-07
2.75016e-06
-3.31619e-06
7.09263e-07
2.35225e-06
2.44236e-06
1.55342e-06
-2.1542e-06
4.46971e-06
4.67613e-06
-4.99198e-06
5.46487e-06
2.80304e-06
-7.11065e-06
2.33971e-06
1.22951e-06
-8.6032e-06
2.7924e-07
2.11247e-06
-9.60979e-06
-7.68474e-07
2.9163e-06
-9.85505e-06
-1.92811e-06
2.65102e-06
-9.53052e-06
-2.3731e-06
2.12936e-06
-8.35185e-06
-2.6025e-06
1.46086e-06
-6.05828e-06
-2.57853e-06
7.40352e-07
-1.27027e-06
2.75195e-07
-1.65505e-06
4.19517e-06
3.73112e-06
-2.95528e-06
5.95685e-06
1.61897e-06
-4.54102e-06
3.51462e-06
1.07618e-06
-5.67094e-06
5.19887e-07
3.29359e-06
-6.56918e-06
-9.64787e-07
4.39186e-06
-7.72666e-06
-1.30811e-06
3.56088e-06
-9.0724e-06
-1.13482e-06
1.95021e-06
-9.85062e-06
-1.51698e-06
1.96948e-07
-9.29618e-06
-2.5707e-06
-7.17119e-07
-2.94853e-06
-9.42301e-07
-1.11414e-06
3.38576e-06
3.05222e-06
-1.57762e-06
5.76763e-06
1.07758e-06
-2.28911e-06
4.41835e-06
9.3312e-07
-2.43458e-06
1.79564e-07
3.62112e-06
-3.22755e-06
-1.81343e-06
5.56877e-06
-5.06796e-06
-8.33751e-07
5.4595e-06
-6.92251e-06
2.58515e-08
3.31265e-06
-8.64433e-06
7.08911e-08
4.00972e-07
-9.57837e-06
-9.94877e-07
-1.30021e-06
-1.97687e-06
-1.71942e-06
-1.29366e-06
2.74454e-06
2.6911e-06
-1.80978e-06
5.57983e-06
1.39422e-06
-2.18793e-06
4.86234e-06
2.1248e-06
-2.39348e-06
-4.40263e-07
4.61742e-06
-3.39577e-06
-2.32444e-06
5.57449e-06
-4.33006e-06
-1.22427e-06
5.77411e-06
-5.2284e-06
-9.46955e-08
4.26574e-06
-6.57053e-06
5.61327e-07
1.30799e-06
-8.08547e-06
4.03217e-07
-1.19923e-06
-5.38338e-08
-2.54365e-06
-2.12292e-06
3.29043e-06
2.28648e-06
-2.68928e-06
5.21043e-06
2.28156e-06
-2.92661e-06
4.30778e-06
3.3769e-06
-3.7245e-06
-8.53965e-07
4.52413e-06
-4.6039e-06
-2.52084e-06
4.88341e-06
-4.70113e-06
-2.05801e-06
4.9948e-06
-4.42426e-06
-1.18722e-06
4.01412e-06
-4.54421e-06
-9.51637e-08
1.77273e-06
-5.42038e-06
6.51503e-07
-7.71136e-07
1.10113e-06
-3.06249e-06
-1.97525e-06
1.30924e-06
4.39157e-06
-2.49299e-06
1.94444e-06
4.88622e-06
-2.30702e-06
2.90745e-06
3.2247e-06
-2.9921e-06
3.4365e-06
-8.18407e-07
-4.07254e-06
3.69761e-06
-2.09145e-06
-4.50051e-06
3.66864e-06
-2.24808e-06
-4.10724e-06
3.12906e-06
-2.07986e-06
-3.5138e-06
1.74251e-06
-1.10632e-06
-3.48443e-06
-3.24097e-07
2.15803e-07
-2.67561e-06
1.36518e-06
-2.18365e-07
2.02814e-07
-2.20379e-07
-2.56723e-07
-6.75438e-08
-8.13144e-08
-1.74847e-10
-4.39816e-07
1.1133e-08
1.62495e-07
-3.35846e-07
-4.34711e-08
1.41486e-07
-7.23786e-08
-1.54256e-07
8.34964e-08
3.87024e-08
-2.25935e-07
5.20645e-08
4.85958e-08
-2.61111e-07
5.49476e-08
2.83811e-08
-2.8207e-07
8.14454e-08
3.62355e-09
-2.84188e-07
-2.93321e-08
-2.78845e-07
-1.97413e-07
4.02591e-07
-3.68955e-07
-6.59168e-08
-1.75203e-07
-4.92473e-08
2.0709e-07
-7.32715e-07
1.65852e-07
3.17259e-07
-5.45846e-07
4.92885e-08
2.1787e-07
-8.90744e-08
-1.48452e-07
7.70483e-08
1.35623e-07
-2.79449e-07
1.27266e-08
1.22001e-07
-3.20747e-07
2.40896e-08
4.45819e-08
-3.29166e-07
7.3834e-08
-2.53309e-08
-3.14211e-07
-8.90048e-08
-2.89961e-07
-6.14829e-09
5.03576e-07
-4.84115e-07
2.1472e-07
-1.58419e-07
-2.71302e-08
3.3708e-07
-6.90105e-07
2.4454e-07
3.61185e-07
-5.12932e-07
9.71972e-08
2.70489e-07
-5.34782e-08
-1.6789e-07
1.18018e-07
2.39864e-07
-3.36003e-07
2.92245e-08
2.16652e-07
-3.96332e-07
3.11898e-08
8.49799e-08
-4.08302e-07
7.2086e-08
5.18946e-09
-4.05532e-07
-5.53601e-08
-3.75215e-07
1.33174e-07
6.44654e-07
-5.97951e-07
2.34838e-07
1.42019e-07
-2.56807e-07
1.889e-07
-3.45702e-07
3.97297e-08
1.4717e-07
-2.57908e-07
-2.66147e-08
1.14569e-07
7.16289e-08
-2.8987e-07
4.63622e-08
3.33702e-07
-4.47847e-07
-2.34439e-08
3.43393e-07
-5.17984e-07
-4.74163e-08
2.1828e-07
-5.28725e-07
-6.91751e-09
1.3639e-07
-5.23548e-07
6.42263e-08
-5.14015e-07
2.05687e-07
7.84889e-07
-8.1723e-07
1.63028e-07
5.05307e-07
-6.59901e-07
-3.26781e-08
1.52775e-07
-3.00319e-07
-1.34589e-07
1.50975e-07
-2.54148e-07
-1.28727e-07
2.82954e-07
-3.73229e-07
-8.99739e-08
4.46383e-07
-4.87705e-07
-6.84918e-08
4.72259e-07
-5.62054e-07
-7.92944e-08
4.01936e-07
-6.05727e-07
-4.99655e-08
3.24126e-07
-6.83669e-07
2.07433e-07
-7.75677e-07
1.65082e-07
8.17789e-07
-1.09835e-06
2.83553e-08
7.21382e-07
-8.41682e-07
-1.9701e-07
5.84713e-07
-6.34624e-07
-3.27824e-07
5.28475e-07
-6.66176e-07
-3.45703e-07
5.14292e-07
-6.97207e-07
-2.54217e-07
5.38443e-07
-7.35161e-07
-1.45317e-07
5.37295e-07
-8.24237e-07
-9.08729e-08
5.24234e-07
-9.36829e-07
-4.07627e-08
4.65144e-07
-1.07352e-06
3.33186e-07
-1.24292e-06
-1.97739e-07
9.98297e-07
-1.30362e-06
-4.67948e-07
1.04369e-06
-1.21428e-06
-6.91658e-07
1.02649e-06
-1.45216e-06
-8.65503e-07
9.32963e-07
-1.57553e-06
-9.13323e-07
8.18131e-07
-1.56692e-06
-8.15526e-07
7.02074e-07
-1.57808e-06
-6.48255e-07
5.86958e-07
-1.6225e-06
-4.45871e-07
5.11938e-07
-1.66856e-06
-1.9608e-07
4.37064e-07
-1.75052e-06
3.32909e-07
-1.87242e-06
-6.97808e-07
1.723e-06
-1.3928e-06
-1.24584e-06
1.79769e-06
-1.66528e-06
-1.62182e-06
1.75717e-06
-2.02273e-06
-1.86775e-06
1.6084e-06
-2.17352e-06
-1.88901e-06
1.30504e-06
-2.28834e-06
-1.69754e-06
9.4993e-07
-2.43062e-06
-1.35752e-06
6.28015e-07
-2.57144e-06
-9.49957e-07
4.46282e-07
-2.68326e-06
-5.32148e-07
3.6165e-07
-2.78102e-06
2.81146e-07
-2.84669e-06
-8.62492e-07
2.78336e-06
-1.28985e-06
-1.8194e-06
2.80232e-06
-1.13201e-06
-2.56682e-06
2.69566e-06
-1.4423e-06
-3.22837e-06
2.74372e-06
-2.15754e-06
-3.70972e-06
2.44794e-06
-3.10059e-06
-3.7873e-06
1.77281e-06
-4.10266e-06
-3.41732e-06
8.35035e-07
-4.82436e-06
-2.91458e-06
3.00196e-07
-5.38266e-06
-2.45124e-06
2.50637e-08
-5.74341e-06
-2.07434e-07
-5.90497e-06
-8.06522e-07
2.85578e-06
1.21767e-06
-1.27237e-06
3.76945e-06
2.79492e-08
-1.94795e-06
4.21906e-06
-2.06071e-08
-2.24975e-06
4.03016e-06
-1.59754e-08
-2.93325e-06
4.04942e-06
2.64151e-07
-4.45251e-06
3.61873e-06
-5.01726e-07
-6.09345e-06
1.79709e-06
-2.41756e-06
-7.40374e-06
3.85785e-07
-3.38042e-06
-7.84385e-06
-7.65507e-07
-4.04455e-06
-1.70944e-06
-4.06342e-06
-2.06554e-06
4.6521e-06
2.23786e-06
-2.43515e-06
3.51009e-06
3.34416e-06
-2.416e-06
3.73022e-06
4.39231e-06
-2.6363e-06
3.46022e-06
5.84498e-06
-3.19666e-06
4.12898e-06
5.72583e-06
-3.98921e-06
4.89844e-06
3.95878e-06
-5.27242e-06
4.05243e-06
1.47541e-06
-6.44245e-06
1.76899e-06
-4.16471e-07
-6.97266e-06
-7.01232e-07
-1.32298e-06
-2.29476e-06
-1.33712e-06
-9.91992e-07
4.30439e-06
4.89947e-06
-1.89802e-06
3.17491e-06
7.02768e-06
-2.88592e-06
3.49955e-06
7.61849e-06
-3.98491e-06
2.94573e-06
7.30039e-06
-4.81631e-06
4.14202e-06
5.85911e-06
-4.86897e-06
5.32837e-06
4.28541e-06
-4.93778e-06
5.04454e-06
2.7737e-06
-5.44468e-06
3.16685e-06
1.13825e-06
-6.41902e-06
4.40747e-07
7.27594e-08
-1.58414e-06
-2.79926e-07
-7.73347e-07
3.24243e-06
7.11071e-06
-2.60748e-06
3.37302e-06
8.36944e-06
-4.16382e-06
2.78994e-06
7.40553e-06
-5.19084e-06
1.83027e-06
5.18557e-06
-5.32399e-06
2.92628e-06
3.9866e-06
-4.73984e-06
3.85038e-06
3.82099e-06
-3.80292e-06
3.497e-06
3.65382e-06
-3.24271e-06
2.45146e-06
2.91338e-06
-3.90837e-06
1.21226e-06
1.6901e-06
7.53162e-08
7.2744e-07
-1.64817e-06
2.99662e-06
7.48592e-06
-4.81793e-06
4.52662e-06
6.85038e-06
-7.27613e-06
2.79117e-06
4.7653e-06
-8.36686e-06
9.49857e-07
3.48878e-06
-8.15887e-06
8.98259e-07
3.84841e-06
-7.31107e-06
9.59105e-07
4.52499e-06
-6.08288e-06
4.44923e-07
4.53551e-06
-4.63046e-06
-7.58582e-08
3.82506e-06
-3.18228e-06
-5.16927e-07
2.63325e-06
-6.8301e-07
1.60055e-06
-2.26956e-06
3.34409e-06
6.59822e-06
-5.16562e-06
5.47241e-06
4.75332e-06
-7.5629e-06
3.32238e-06
3.09558e-06
-8.64592e-06
7.9635e-07
3.34899e-06
-9.36968e-06
5.09346e-07
4.02897e-06
-9.79088e-06
3.02977e-07
3.72835e-06
-9.85596e-06
6.07095e-09
2.63331e-06
-9.30235e-06
-6.00878e-07
1.43226e-06
-7.67842e-06
-1.72904e-06
3.28531e-07
-2.62678e-06
-1.33734e-07
-1.80476e-06
3.15696e-06
5.72301e-06
-3.2938e-06
4.95106e-06
3.62936e-06
-4.65477e-06
3.23969e-06
2.51985e-06
-5.02215e-06
5.21506e-07
3.93582e-06
-5.2732e-06
6.73599e-08
5.08491e-06
-6.16772e-06
5.44888e-07
4.21348e-06
-7.71869e-06
1.10012e-06
2.40713e-06
-8.96033e-06
5.1233e-07
3.25371e-07
-8.99463e-06
-1.01697e-06
-1.3949e-06
-2.55668e-06
-2.12352e-06
-1.18468e-06
2.43091e-06
4.96293e-06
-1.43986e-06
3.02928e-06
3.25456e-06
-1.88749e-06
2.59804e-06
2.02239e-06
-2.2057e-06
8.48859e-07
3.61198e-06
-2.21688e-06
-2.49614e-07
5.89693e-06
-2.75513e-06
4.07613e-07
6.13501e-06
-3.87391e-06
1.37024e-06
4.16131e-06
-5.36379e-06
9.28553e-07
1.47464e-06
-6.48072e-06
-3.2746e-07
-8.72786e-07
-1.20684e-06
-2.89418e-06
-1.12496e-06
2.30498e-06
3.94199e-06
-1.52346e-06
1.91133e-06
2.91067e-06
-1.58183e-06
2.50576e-06
2.27546e-06
-1.5319e-06
1.64209e-06
3.77429e-06
-1.57356e-06
-1.00315e-07
5.46686e-06
-1.61546e-06
1.81945e-07
6.04169e-06
-1.64778e-06
8.22002e-07
4.84631e-06
-2.17974e-06
5.2334e-07
2.24516e-06
-3.10577e-06
-2.92619e-07
-3.08028e-07
-2.63161e-07
-2.6552e-06
-7.75456e-07
2.89611e-06
2.47082e-06
-1.89888e-06
2.76632e-06
2.55001e-06
-2.09335e-06
3.01191e-06
3.06521e-06
-2.01902e-06
1.88678e-06
4.20509e-06
-2.226e-06
6.29408e-08
4.92711e-06
-1.81828e-06
-3.31887e-07
5.10091e-06
-9.7293e-07
-1.98399e-07
4.18917e-06
-4.59021e-07
-2.57023e-07
2.03918e-06
-6.81164e-07
-8.4267e-07
1.05672e-09
-3.445e-07
-2.54705e-06
7.15364e-07
8.23681e-07
2.66631e-06
-5.8905e-07
1.8811e-06
4.13406e-06
-1.40149e-06
2.97285e-06
3.75895e-06
-1.37014e-06
3.63851e-06
1.65338e-06
-1.60694e-06
3.90826e-06
8.91015e-08
-1.49647e-06
3.79837e-06
-5.72079e-07
-6.30777e-07
3.07139e-06
-1.00642e-06
4.36314e-07
1.5548e-06
-1.13641e-06
7.31109e-07
-1.04964e-07
-1.3566e-06
-2.44648e-06
-5.99221e-07
-1.31666e-07
1.39136e-07
-2.27849e-07
-1.87575e-07
4.6674e-08
-7.20795e-08
-6.35023e-08
-1.20324e-07
7.38451e-09
3.63939e-08
-8.45175e-08
-5.88497e-08
4.40782e-08
-1.75027e-09
-1.6019e-07
2.06161e-08
3.31998e-08
-2.35673e-07
1.10151e-08