/*--------------------------------*- C++ -*----------------------------------*\
| =========                 |                                                 |
| \\      /  F ield         | OpenFOAM: The Open Source CFD Toolbox           |
|  \\    /   O peration     | Version:  2312                                  |
|   \\  /    A nd           | Website:  www.openfoam.com                      |
|    \\/     M anipulation  |                                                 |
\*---------------------------------------------------------------------------*/
FoamFile
{
    version     2.0;
    format      ascii;
    arch        "LSB;label=32;scalar=64";
    class       volScalarField;
    location    "0.975";
    object      alpha.water;
}
// * * * * * * * * * * * * * * * * * * * * * * * * * * * * * * * * * * * * * //

dimensions      [0 0 0 0 0 0 0];

internalField   nonuniform List<scalar> 
8000
(
1
1
1
1
1
1
1
1
1
1
1
1
1
1
1
1
1
1
1
1
1
1
1
1
1
1
1
1
1
1
1
1
1
1
1
1
1
0.999996
1
1
1
1
1
1
1
1
1
0.999777
0.995532
0.994802
1
1
1
1
1
1
1
1
0.978926
0.976344
0.994503
1
1
1
1
1
1
1
0.991191
0.976819
0.924632
0.947226
0.961324
0.969046
0.976066
0.990846
1
1
0.997356
0.98402
0.365889
0.376867
0.390207
0.418926
0.5045
0.671319
0.84569
0.961741
0.997186
0.986111
0.000395945
0.000556479
0.00105015
0.00377911
0.0212416
0.111019
0.31576
0.559182
0.808577
0.976745
0.000165478
0.000145856
3.82833e-05
0.000136794
0.000514024
0.00137069
0.00407815
0.0488581
0.15361
0.281972
0.000271686
0.000143041
2.25503e-05
2.77815e-05
8.42148e-05
0.000305686
0.000386453
6.64303e-05
6.1891e-05
6.64303e-05
2.68761e-05
2.24039e-05
2.23317e-05
2.25505e-05
2.80832e-05
6.56115e-05
0.000133548
5.24165e-05
5.94719e-05
0.000136154
0.000145173
5.0559e-05
2.25505e-05
2.48302e-05
6.5517e-05
2.55323e-05
2.89605e-05
3.98796e-05
6.38327e-05
0.000236181
0.000363184
0.000253163
2.40518e-05
2.74767e-05
2.59204e-05
2.14528e-05
1.81058e-05
1.66037e-05
6.78869e-05
0.0001534
0.000365641
0.000368675
6.70928e-05
3.41793e-05
2.14509e-05
1.81057e-05
1.63088e-05
1.50036e-05
5.15929e-05
3.18887e-05
0.000368675
0.000368951
0.00040193
0.000389145
0.000194016
6.04182e-05
1.50036e-05
1.47943e-05
1.87553e-05
1.3819e-05
0.000269186
0.000170747
0.000416596
0.000668933
0.000563427
0.000377897
8.35664e-05
1.40863e-05
1.25101e-05
1.21679e-05
4.83794e-05
7.91969e-05
0.000146565
0.000457581
0.000571736
0.000537409
0.000427925
3.60083e-05
1.20551e-05
1.19847e-05
2.5193e-05
3.07412e-05
0.000183034
0.000424341
0.000483996
0.000526238
0.000505589
0.000163432
1.19847e-05
1.19847e-05
1
1
1
1
1
1
1
1
1
1
1
1
1
1
1
1
1
1
1
1
1
1
1
1
1
1
0.999998
0.999964
1
0.999992
1
1
1
1
1
1
1
0.99962
0.99639
0.999999
1
1
1
1
1
1
1
0.999982
0.988427
0.999921
1
1
1
1
1
1
1
0.999548
0.992334
0.999558
1
1
1
1
1
1
1
1
0.999999
1
0.84052
0.869286
0.891295
0.910315
0.935562
0.976379
1
0.999997
0.999958
0.999995
0.0949159
0.104986
0.133916
0.183829
0.266726
0.403359
0.598772
0.779652
0.868105
0.942052
7.63486e-05
0.000122116
0.000286068
0.000545265
0.00116347
0.00491467
0.0516468
0.178427
0.342821
0.668272
5.70665e-05
0.000101155
9.04758e-05
9.8366e-05
0.000104152
0.000292885
0.000495244
0.000823575
0.0143851
0.046422
0.000266391
0.000228888
8.48062e-05
6.22719e-05
4.17867e-05
5.6724e-05
7.53841e-05
7.74247e-05
5.86628e-05
6.72868e-05
0.000189256
2.23677e-05
2.24039e-05
2.24039e-05
2.30254e-05
4.51852e-05
9.1552e-05
3.73312e-05
5.4062e-05
0.000189552
3.11904e-05
2.24039e-05
2.23408e-05
2.30255e-05
2.60567e-05
6.29741e-05
0.000186941
3.53669e-05
4.67734e-05
0.000390647
2.98978e-05
2.34512e-05
2.33088e-05
2.52034e-05
2.8116e-05
2.86837e-05
7.26927e-05
0.000138349
0.00019993
0.00042242
0.000153055
0.000196792
0.000317426
0.000367253
0.000145868
2.07059e-05
1.73589e-05
0.000248984
0.000254282
0.000110481
0.00034762
0.000797213
0.000803356
0.000814826
0.000760674
0.000117664
1.63088e-05
0.000179916
0.000254951
1.70729e-05
0.00046592
0.000791571
0.000808654
0.00081986
0.000810107
0.000497662
2.12658e-05
2.89545e-05
0.000235198
1.64539e-05
0.000516634
0.000598333
0.000267316
0.000388163
0.000320524
0.000517777
0.000181594
2.35687e-05
3.2674e-05
1.21256e-05
0.000210551
8.51341e-05
1.64064e-05
0.000143363
0.000142993
0.000217211
0.000464989
2.02571e-05
1.20199e-05
1.19847e-05
1
1
1
1
1
1
1
1
1
1
1
1
1
1
1
1
1
1
1
1
1
1
1
1
1
1
0.999999
0.999997
0.999964
1
1
1
1
1
1
0.999999
0.999992
0.999976
0.999633
0.999977
1
1
1
1
1
1
0.999999
0.999701
0.999983
0.99999
1
1
1
1
1
1
1
0.996522
0.999993
1
0.999962
1
1
1
1
1
1
1
1
1
0.672684
0.714902
0.766011
0.815902
0.862495
0.917522
0.973083
0.992568
0.983545
0.964704
0.00719251
0.0112425
0.0253476
0.0554919
0.108359
0.191518
0.303926
0.436838
0.53371
0.601189
1.28727e-06
2.0334e-06
3.13953e-06
3.45758e-06
8.46298e-05
0.000401543
0.00121868
0.00941269
0.0504418
0.181655
6.05551e-06
9.95992e-05
0.000209923
0.000213007
3.90513e-05
2.24944e-05
7.51897e-05
0.000467424
0.000460605
0.000103184
0.000222176
0.000223156
0.000210843
0.000112836
7.44238e-05
6.56409e-05
1.8275e-05
5.35902e-05
6.35378e-05
6.35419e-05
0.00021874
0.000199522
5.01688e-05
2.26875e-05
2.26623e-05
2.33401e-05
2.46229e-05
2.44436e-05
3.65498e-05
4.11459e-05
9.47632e-05
0.000101314
3.28373e-05
2.26237e-05
2.33401e-05
2.46896e-05
3.88392e-05
3.40786e-05
0.000102128
0.000207441
3.95892e-05
3.1224e-05
3.53797e-05
5.65428e-05
6.58348e-05
2.56355e-05
3.14346e-05
3.44133e-05
0.000253182
0.000453012
1.53529e-05
2.20841e-05
0.000330708
0.000785952
0.000661045
0.000168517
2.16216e-05
0.000203377
0.000254951
0.000227014
2.61486e-05
0.000640338
0.000814808
0.000819866
0.000814822
0.000689967
2.97071e-05
0.000180981
0.000254951
1.73624e-05
4.00444e-06
0.000346829
0.000819861
0.000824891
0.000819856
0.000810098
0.000172216
3.22641e-05
0.000254951
1.2441e-05
2.19082e-06
1.00032e-05
0.000362804
0.000829245
0.000824893
0.000398997
0.00012965
2.371e-05
0.000130949
1.20491e-05
1.917e-06
5.33442e-05
6.16047e-05
0.000814842
0.000789857
0.000176067
0.000263473
2.00183e-05
1.20491e-05
1.20171e-05
1
1
1
1
1
1
1
1
1
1
1
1
1
1
1
1
1
1
1
1
1
1
1
1
1
1
0.999999
0.999994
0.999996
1
0.999998
1
1
1
1
1
0.999983
0.999983
1
1
0.999981
0.999999
1
1
1
0.999999
0.999988
0.999999
1
1
0.999999
1
0.999999
1
1
1
1
1
1
1
0.998964
0.999892
0.999999
0.999986
1
1
1
1
1
1
0.543001
0.601098
0.676128
0.741813
0.799217
0.848001
0.890802
0.882541
0.857643
0.827268
1.44578e-06
2.13861e-06
0.000529162
0.0214331
0.0605731
0.112986
0.157665
0.183375
0.238836
0.272626
1.24208e-06
1.4421e-06
1.77779e-06
2.00917e-06
1.91112e-06
1.42636e-06
0.000223915
0.000818897
0.00237955
0.00354063
2.91292e-06
2.55161e-05
5.33621e-05
6.38383e-05
2.15366e-05
4.51414e-06
1.53183e-05
8.20982e-05
0.000258801
0.000312822
2.33541e-05
6.82713e-05
0.000104827
0.000109033
9.55154e-05
6.6529e-05
1.01301e-05
1.8269e-05
3.51903e-05
4.58894e-05
3.80487e-05
5.80673e-05
8.00326e-05
0.000100857
6.41869e-05
3.71055e-05
1.15675e-05
2.2166e-05
2.44436e-05
2.86868e-05
1.33543e-05
1.37285e-05
7.08159e-05
7.88276e-05
2.51483e-05
1.78168e-05
1.19132e-05
7.30855e-05
0.000293206
2.73126e-05
1.37685e-05
6.11311e-05
0.000143119
0.000187992
0.000173996
9.94282e-05
6.92168e-05
4.1654e-05
0.000348421
0.000452888
9.08495e-06
0.00013986
0.000663697
0.000805163
0.000793786
0.000586277
0.000181104
0.000124121
0.000167097
0.000451078
2.05216e-05
0.000508735
0.000805121
0.00082042
0.000805125
0.000737521
0.00021918
0.000133326
8.53782e-05
0.00011485
9.89456e-06
0.000139259
0.000394258
0.000829248
0.000820396
0.000637817
0.00010563
7.75122e-05
7.37093e-05
1.40206e-05
2.9366e-06
3.90814e-06
0.000442646
0.000835121
0.000829242
0.000411128
2.23691e-05
4.90212e-05
3.98002e-05
1.7222e-05
1.98805e-06
2.6601e-06
0.00050724
0.000842619
0.000833142
8.23804e-05
1.96902e-05
1.63901e-05
1.3149e-05
1.20553e-05
1
1
1
1
1
1
1
1
1
1
1
1
1
1
1
1
1
1
1
1
1
1
1
1
1
1
1
0.999999
1
1
1
1
1
1
1
1
0.999998
0.999993
0.999999
1
0.99997
0.999989
1
1
1
0.999999
0.999996
0.999999
1
1
0.999886
0.99999
0.999999
1
1
1
1
1
1
1
0.999578
0.999879
0.999947
0.999986
1
1
1
1
1
1
0.595032
0.650113
0.719281
0.774854
0.800194
0.800774
0.804709
0.780674
0.712805
0.639434
1.28719e-06
1.48737e-06
0.0171159
0.041389
0.0647558
0.0935191
0.0991422
0.0869913
0.0832429
0.0795838
1.19115e-06
1.28719e-06
1.48738e-06
1.77801e-06
2.00813e-06
2.10665e-06
1.77865e-06
0.000211992
0.00128951
0.00185552
1.28717e-06
1.48627e-06
1.77678e-06
2.00822e-06
4.3551e-06
2.15653e-06
4.16617e-06
3.50002e-05
0.000165438
0.000239211
1.89342e-06
3.0583e-06
5.05191e-06
8.05064e-06
1.11917e-05
7.42789e-06
6.77202e-06
1.16191e-05
2.84744e-05
4.1618e-05
3.58628e-06
4.70641e-06
5.92141e-06
2.91785e-05
3.21834e-05
7.17971e-06
9.78488e-06
5.59601e-05
3.58221e-05
2.73126e-05
1.80001e-05
4.00584e-05
6.6842e-05
4.34644e-05
2.21548e-05
5.16698e-05
0.000158394
0.000222352
9.85652e-05
2.73126e-05
4.80613e-05
0.000354814
0.000505901
0.000278315
0.00012967
0.000355412
0.000569314
0.000422682
0.000461591
0.000347431
2.01224e-05
0.000486992
0.000756625
0.000793939
0.000706989
0.000245416
0.000541031
0.000591714
0.000498684
0.000450798
4.26106e-06
0.000126453
0.000383922
0.00077945
0.000570695
4.65274e-05
6.22291e-05
0.000541956
0.000350085
0.000450824
2.18979e-06
2.42495e-05
0.000301776
0.000808772
0.000422076
4.31489e-05
3.36889e-05
0.000119054
0.000382969
0.000304331
2.24939e-06
2.77098e-06
0.000834472
0.000842619
0.000738582
3.36887e-05
2.61466e-05
6.2071e-05
0.000191019
1.89469e-05
2.56578e-06
0.000101496
0.000842621
0.000846187
0.000835978
5.90929e-05
2.23692e-05
8.81026e-05
0.000244395
0.000139976
1
1
1
1
1
1
1
1
1
1
1
1
1
1
1
1
1
1
1
1
1
1
1
1
1
1
1
1
1
1
1
1
1
1
1
1
1
1
1
1
0.999971
0.999984
1
1
1
1
1
1
1
1
0.999859
0.99998
0.999998
0.999999
1
1
1
1
1
1
0.999676
0.999835
0.999911
0.999966
0.99999
1
1
1
1
0.999112
0.729267
0.761282
0.807134
0.847767
0.854598
0.82038
0.752152
0.701748
0.593993
0.492222
0.0172217
0.0375151
0.0659913
0.0950483
0.108649
0.0995645
0.0744117
0.0394518
0.0233104
0.0192715
1.13066e-06
1.33228e-06
1.55164e-06
1.71696e-06
1.90484e-06
2.02869e-06
2.1356e-06
7.01727e-06
0.000214639
0.000996307
1.33219e-06
1.55163e-06
1.71691e-06
1.90484e-06
2.02869e-06
2.13562e-06
2.52589e-06
9.02534e-05
0.000163796
0.000146544
1.22363e-05
2.03368e-06
2.14343e-06
2.16252e-06
2.22146e-06
2.61992e-06
5.39253e-06
4.34467e-05
3.76807e-05
3.60735e-05
4.70932e-05
5.60127e-06
9.53886e-06
2.95172e-06
2.70601e-06
5.21905e-06
1.57249e-05
3.33861e-05
3.16688e-05
2.80898e-05
6.26066e-05
0.000267519
0.000295204
4.31901e-05
5.11629e-06
0.000185546
0.000440477
0.000489964
7.64408e-05
2.73126e-05
4.0135e-05
0.000471071
0.00050582
0.000518193
0.000123183
0.000330989
0.000605977
0.000614905
0.000434506
2.80898e-05
2.20355e-06
8.96648e-05
0.000337605
0.000516508
0.000224141
4.65265e-05
0.00018732
0.000623039
0.000623039
4.63288e-05
2.80853e-06
3.57848e-06
6.26665e-06
1.84615e-05
3.76669e-05
4.33018e-05
3.74002e-05
0.000194322
0.000624865
0.000388206
3.09463e-06
5.10298e-06
8.24618e-05
0.000121493
7.94792e-05
3.73996e-05
3.37292e-05
5.16301e-05
0.000408895
0.000328351
4.93677e-06
0.000133717
0.000623731
0.000835163
0.000615772
3.37286e-05
3.04852e-05
3.37292e-05
3.91714e-05
0.000241592
0.000109142
0.000824917
0.000840489
0.000842622
0.000834914
0.000359812
2.91559e-05
3.34944e-05
9.24064e-05
0.000363466
1
1
1
1
1
1
1
1
1
1
1
1
0.999999
0.999999
1
1
1
1
1
1
1
1
0.999995
1
1
1
1
1
1
1
0.999999
1
0.999999
1
1
1
1
1
1
1
0.999963
0.999996
0.999999
1
1
1
1
1
1
1
0.999961
0.999993
0.999997
0.999999
1
1
1
1
1
1
0.999829
0.999845
0.999896
0.999957
0.999982
0.999994
0.999999
1
1
0.975671
0.829856
0.847565
0.876045
0.910153
0.91179
0.869832
0.768951
0.663681
0.524052
0.449824
0.0906092
0.106858
0.13461
0.17384
0.175903
0.133763
0.062932
0.013541
0.00284591
0.0069047
1.08631e-06
1.23099e-06
1.59308e-06
1.90484e-06
2.02869e-06
2.13562e-06
2.23094e-06
2.29637e-06
5.01519e-06
0.000429723
1.73413e-06
1.83919e-06
2.14347e-06
2.16255e-06
2.22168e-06
2.23094e-06
2.39537e-06
2.6515e-05
8.34095e-05
9.57049e-05
6.64352e-06
4.7287e-05
5.05846e-06
2.95059e-06
2.40866e-06
2.41697e-06
3.48596e-06
1.76812e-05
4.20193e-05
4.67089e-05
5.98144e-06
8.32021e-05
9.14222e-05
2.1357e-05
3.51556e-06
2.33024e-05
1.60796e-05
1.93248e-05
3.02395e-05
6.21049e-05
1.36589e-06
0.000108143
0.000430997
0.00032445
3.44157e-05
0.000212734
0.000458315
0.000379889
6.48311e-05
5.3015e-05
6.79312e-06
6.759e-05
0.000444515
0.000438231
0.000170383
0.000194231
0.000601716
0.000620034
0.000417295
3.63519e-05
6.78393e-06
1.97318e-05
2.07751e-05
3.97754e-05
5.73078e-05
4.50567e-05
9.07894e-05
0.000529903
0.00062539
8.1505e-05
2.21127e-05
3.46744e-05
1.84615e-05
2.90408e-05
3.50343e-05
4.36603e-05
4.4849e-05
5.76723e-05
0.000548975
8.33616e-05
4.06175e-05
2.83989e-05
2.82178e-05
3.50343e-05
5.10344e-05
4.37615e-05
4.12461e-05
4.83329e-05
6.13006e-05
0.000139794
0.000109372
0.000339516
3.76136e-05
0.000209034
0.000412168
0.00016852
5.56945e-05
4.54778e-05
5.78724e-05
0.000533289
0.000303225
0.000797863
0.000574545
0.000611737
0.000546801
0.000412043
0.000139143
0.000263368
7.71658e-05
0.000140384
1
1
1
1
1
1
1
1
1
1
1
0.999994
0.999986
1
1
1
1
1
1
1
1
0.999995
0.99998
0.999998
0.999999
0.999994
1
1
1
1
0.999991
0.999996
0.99999
0.999999
0.999989
0.999973
1
1
1
1
0.999928
0.99998
0.999998
0.999999
0.999996
1
1
1
1
1
0.999925
0.999977
0.999995
0.999998
0.999997
0.999999
1
1
1
1
0.999816
0.999855
0.999908
0.999961
0.999981
0.999985
0.999999
1
0.997675
0.977346
0.900111
0.911593
0.928137
0.951794
0.954402
0.916558
0.806203
0.658395
0.506755
0.462864
0.171339
0.190269
0.217314
0.263254
0.263539
0.189149
0.072494
2.33709e-06
9.99769e-05
0.00533682
1.08621e-06
1.19368e-06
2.12301e-06
2.55474e-06
2.22539e-06
2.23094e-06
2.29637e-06
2.33709e-06
2.32183e-06
9.99521e-05
1.11669e-06
3.43719e-06
4.29894e-06
3.04056e-06
2.40864e-06
2.38613e-06
2.36955e-06
3.6214e-06
3.7644e-05
4.49169e-05
1.27344e-06
4.98184e-05
0.000213978
0.000227828
3.00408e-06
2.66275e-06
2.98953e-06
3.33267e-06
1.51898e-05
2.04511e-05
1.29562e-06
8.55032e-05
0.000437571
0.000450045
2.48217e-05
4.79939e-06
5.10665e-06
5.75996e-06
4.58358e-05
3.51038e-05
1.35036e-06
8.86495e-05
0.000413432
0.000437975
0.000285814
0.00023595
0.000329656
0.000276495
0.000112735
4.80826e-05
1.36589e-06
8.84938e-05
0.000117204
0.000132257
0.000189492
0.000439447
0.000620034
0.000626809
0.000583193
0.000114372
2.28988e-06
0.000115185
2.63788e-05
3.05554e-05
3.43191e-05
3.86682e-05
0.000360835
0.000621086
0.00062353
0.000142037
4.48141e-05
0.000115185
2.90905e-05
3.30615e-05
3.86698e-05
8.66455e-05
9.19541e-05
0.000333754
0.000615492
9.65787e-05
0.000124679
4.44616e-05
3.74892e-05
4.30557e-05
8.78276e-05
0.000315642
0.000302423
6.13006e-05
0.000234453
0.000379305
0.000130721
3.50756e-05
4.30599e-05
4.30599e-05
0.000122128
0.000337416
0.000314821
6.30735e-05
6.41995e-05
0.000671572
1.85928e-05
2.73029e-05
3.50755e-05
4.32952e-05
8.5461e-05
0.000352094
0.000327811
9.7137e-05
5.28097e-05
0.000240743
0.999979
1
1
1
1
1
1
1
1
1
0.999998
0.999994
0.99999
1
1
1
1
1
1
1
1
0.999984
0.999981
0.999993
0.999993
0.999973
0.999978
1
1
1
0.999916
0.999995
0.999995
0.999995
0.999802
0.999722
0.999859
0.999998
1
1
0.999822
0.999921
0.999905
0.999984
0.999946
0.999554
0.99996
0.999997
0.999964
1
0.999832
0.99972
0.999667
0.999982
0.999968
0.999243
0.999983
1
1
0.999997
0.999771
0.999641
0.999732
0.999957
0.999957
0.999597
0.999975
0.999996
0.998004
0.983088
0.953585
0.959387
0.966496
0.977462
0.979751
0.955233
0.853385
0.682854
0.51902
0.487348
0.27728
0.298861
0.320821
0.358236
0.360866
0.262645
0.100815
2.362e-06
2.25183e-05
0.00616093
1.19313e-06
1.58212e-06
4.02429e-06
5.63903e-06
2.86109e-06
2.38613e-06
2.36955e-06
2.3308e-06
2.38527e-06
2.25151e-05
1.31638e-06
1.91415e-05
7.25783e-05
0.000128314
3.59878e-06
2.66314e-06
2.47977e-06
2.39174e-06
2.12811e-05
2.95142e-05
8.31169e-06
7.88306e-05
0.00043985
0.00046413
4.33583e-05
3.79178e-06
2.83327e-06
3.33093e-06
5.58265e-06
9.16697e-06
1.41442e-05
9.08314e-05
0.000456463
0.000478992
0.000358951
1.21899e-05
8.29477e-06
4.71182e-06
3.71281e-05
8.82828e-06
1.47933e-05
4.24424e-05
0.000328649
0.000478884
0.000539172
0.0004458
0.000371626
0.000335484
0.000105432
1.22917e-05
1.79235e-06
2.36335e-05
1.07485e-05
9.05145e-05
0.000305352
0.00061535
0.000626809
0.000626935
0.000580589
6.38629e-05
2.39519e-06
1.72523e-05
2.69308e-05
4.79759e-05
3.86697e-05
0.000138515
0.000606295
0.000626809
0.000623344
0.000175915
1.04454e-05
6.38942e-05
0.000160024
0.000253948
0.000154561
7.80132e-05
0.000140828
0.00061983
0.000620908
0.000117009
7.44957e-05
0.000116814
0.000173288
0.000268137
0.000206771
6.1562e-05
5.41326e-05
0.000133992
0.000633553
0.000359707
9.34751e-05
3.80646e-05
4.15746e-05
0.000139332
0.000304225
0.000200543
5.38311e-05
5.88094e-05
0.000642113
0.000675326
3.20752e-05
2.88251e-05
3.68784e-05
0.000194066
0.000327608
0.000319912
5.36346e-05
5.16343e-05
0.000162536
0.000673188
0.989967
1
1
1
1
1
1
1
1
1
0.994016
1
0.999999
1
1
1
1
1
1
1
0.997077
0.999978
0.999999
0.999997
0.999998
1
0.999924
0.999994
1
1
0.991857
0.999973
0.999999
0.999999
0.999994
0.999867
0.9989
0.999965
0.999996
1
0.99016
0.9997
0.99998
0.999825
0.999986
0.995706
0.998257
0.999997
0.999875
0.999784
0.990458
0.999683
0.999735
0.999077
0.996776
0.995534
0.998259
0.999994
0.99999
0.996761
0.995274
0.999652
0.999697
0.999157
0.998857
0.996848
0.998685
0.999966
0.998767
0.986038
0.980963
0.98822
0.989657
0.992529
0.991639
0.978555
0.904178
0.721893
0.540849
0.510696
0.405219
0.42839
0.436066
0.45465
0.449294
0.332689
0.140421
2.42154e-06
7.23377e-06
0.00747352
1.42324e-06
1.76564e-06
3.30419e-06
1.05855e-05
4.68636e-06
2.80645e-06
2.46814e-06
2.39175e-06
2.48838e-06
7.1483e-06
1.72121e-06
1.14075e-05
5.35531e-05
0.000168662
2.57764e-05
3.53193e-06
2.81529e-06
2.53867e-06
1.73585e-05
1.84617e-05
3.90176e-06
3.98344e-05
0.000399762
0.000478992
0.000337996
3.76196e-05
3.67524e-06
3.61332e-06
6.97346e-06
8.18977e-06
7.53679e-06
4.08533e-05
0.000427171
0.00050024
0.000539172
0.000340549
3.85045e-05
6.06363e-06
7.95384e-06
6.79969e-06
3.82515e-06
8.58988e-06
6.38075e-05
0.000399
0.000566189
0.000589808
0.000585743
0.000329612
3.5282e-05
5.39945e-06
2.39519e-06
4.39335e-06
5.24919e-06
1.07485e-05
0.000390911
0.000620679
0.000627077
0.000626809
0.000438176
1.12929e-05
1.18737e-05
6.17392e-06
3.5298e-05
0.000211052
0.000225389
0.000494684
0.000621101
0.000627077
0.000624373
5.61638e-05
0.000112768
0.000133168
0.000355105
0.00042264
0.000420302
8.10861e-05
0.000499786
0.000621101
0.000620909
8.32724e-05
0.000291711
0.000408989
0.00042264
0.000422723
0.000422677
6.59577e-05
8.54492e-05
0.000145927
0.000543398
0.000121136
0.000300895
0.000240713
0.000289843
0.000422834
0.000225031
2.89545e-05
6.9306e-05
7.9713e-05
0.000411625
0.000674412
0.000151643
2.53343e-05
7.5671e-05
0.000419495
2.52753e-05
2.17017e-05
9.70547e-05
0.000170158
0.000413298
0.000676704
0.988813
0.99862
1
1
1
1
1
1
1
1
0.988816
1
1
1
1
1
1
0.999999
1
1
0.988819
1
1
1
0.999999
1
1
0.999998
1
1
0.991076
0.999991
0.999958
1
0.999981
0.999992
0.999662
0.99998
0.999991
1
0.990593
0.998535
0.998441
0.998867
0.999959
0.997687
0.996582
0.999874
0.999826
0.999426
0.990328
0.997816
0.997284
0.997243
0.998955
0.995609
0.996271
0.999908
1
0.996168
0.992279
0.998442
0.998896
0.999269
0.999542
0.998357
0.998739
0.999917
0.999559
0.987909
0.986969
0.995181
0.995623
0.996151
0.995321
0.983428
0.922722
0.752042
0.565712
0.528682
0.473502
0.501985
0.501753
0.503705
0.481135
0.358926
0.162747
0.00423436
2.31307e-05
0.00891269
1.38758e-06
1.79285e-06
3.31152e-06
8.74854e-06
7.07401e-06
3.1959e-06
2.60073e-06
2.49032e-06
2.59822e-06
2.27819e-05
1.71981e-06
9.40558e-06
4.5944e-05
0.000116461
0.000135559
4.28765e-06
3.1959e-06
2.87266e-06
1.92623e-05
1.89908e-05
2.51896e-06
3.30315e-05
0.000243068
0.000477071
0.000494686
0.000252776
4.32573e-06
7.91318e-06
7.55768e-06
6.81503e-06
2.66302e-06
1.42812e-05
0.000246688
0.000494686
0.00051326
0.00054944
2.77345e-05
5.50008e-06
5.34345e-06
5.39949e-06
3.82236e-06
3.0865e-06
4.0036e-06
0.000222308
0.00054944
0.000567045
0.000526148
0.000178526
5.2774e-06
5.25187e-06
4.39759e-06
3.44671e-06
3.0685e-06
5.24918e-06
9.12258e-05
0.000475609
0.000620679
0.000626809
0.000124244
5.39949e-06
8.40913e-05
4.118e-06
9.8059e-06
3.06421e-05
5.62846e-05
0.000112828
0.000338678
0.000621101
0.000593456
6.00433e-06
0.000202706
0.000121018
0.000256752
0.000334766
0.000391811
0.000379874
0.000178682
0.000374954
0.000603957
2.74256e-05
0.00028855
0.000418654
0.000422542
0.000422812
0.000422542
0.000404888
0.000383571
2.48917e-05
0.000281922
3.53521e-05
0.000322327
0.000411378
0.000422805
0.000422805
0.000295329
0.000372423
0.000390635
0.00022201
0.000127554
0.000228077
0.000162369
0.000153049
0.00034629
0.000422805
3.39618e-05
8.09926e-05
0.000414277
0.000440164
0.00034968
0.000537971
0.999797
1
1
1
1
1
1
1
1
1
1
0.999995
0.999997
1
1
1
1
1
1
1
1
1
1
1
0.999992
0.999999
0.999985
0.999999
1
1
1
0.999606
0.999333
0.999726
0.999847
0.999653
0.999898
1
0.999999
1
0.999103
0.99214
0.99214
0.998014
0.999999
0.999397
0.999523
0.999988
0.99998
0.999996
0.998435
0.9923
0.992275
0.998085
0.99999
0.999858
0.999704
0.999999
1
1
0.998575
0.996836
0.998692
0.999631
0.999966
0.999913
0.99984
0.999993
0.999688
0.991307
0.989116
0.99093
0.992384
0.993889
0.992003
0.975898
0.896148
0.730328
0.574571
0.531376
0.439295
0.477149
0.472263
0.465282
0.441146
0.33045
0.152263
0.0106681
0.000107031
0.00970599
1.59269e-06
1.88442e-06
2.74297e-06
6.41318e-06
7.213e-06
3.79718e-06
2.78254e-06
2.60072e-06
2.77611e-06
0.000106535
1.81198e-06
2.50546e-06
3.25456e-05
7.08021e-05
9.55505e-05
7.90497e-06
1.24444e-05
2.78254e-06
1.50681e-05
2.75451e-05
2.10083e-06
3.03979e-06
0.000106479
0.000435443
0.000477066
0.000177956
2.00106e-05
5.43244e-06
5.45029e-06
6.82217e-06
2.16054e-06
2.62663e-06
5.32527e-05
0.000389602
0.000494686
0.000377405
1.11285e-05
1.09616e-05
5.27741e-06
5.25732e-06
2.66301e-06
2.50891e-06
2.92696e-06
2.97288e-05
0.000385907
0.000527523
0.000127885
9.40574e-06
5.24092e-06
5.25732e-06
3.05209e-05
2.92704e-06
2.76504e-06
3.14686e-06
3.50187e-05
0.00017587
0.000424596
0.00028264
5.2774e-06
5.25732e-06
0.000148932
4.45727e-06
2.99939e-06
1.39462e-05
6.62692e-06
4.77938e-06
9.01421e-05
0.00058017
0.00020936
5.9494e-06
7.92908e-05
4.07244e-05
4.84591e-05
4.16288e-05
1.36496e-05
4.65697e-06
4.73487e-06
0.000120393
0.000441178
6.37777e-06
1.09921e-05
0.000237709
0.000387416
0.000386506
0.00030013
0.000145658
6.86924e-06
7.83449e-06
0.000111281
3.87229e-05
3.11477e-05
0.000413252
0.000417612
0.000422841
0.000417612
0.000397079
0.000163128
7.82296e-06
4.98606e-05
6.86838e-05
0.000113216
0.000367259
0.000415135
0.000419495
0.000351711
0.000380316
0.000277493
3.96927e-05
0.000120784
0.00010219
1
1
1
1
1
1
1
1
1
1
1
0.999997
0.999997
1
1
1
1
1
1
1
1
1
0.999933
0.999997
0.999997
0.999996
0.999999
1
1
1
0.999933
0.999706
0.999588
0.999988
0.999994
0.999975
0.999999
1
1
1
0.999197
0.993591
0.999532
0.999973
1
1
1
1
1
1
0.999644
0.992481
0.999353
0.999984
0.999999
0.999996
1
1
1
1
0.999667
0.998318
0.999594
0.999957
0.999989
0.999989
0.999996
1
1
0.994751
0.974334
0.980719
0.979486
0.979739
0.977672
0.957096
0.870067
0.725274
0.603699
0.546402
0.352856
0.381885
0.372288
0.367622
0.356281
0.275517
0.137098
0.0265639
0.00453738
0.013671
1.77611e-06
1.95875e-06
2.51469e-06
4.95232e-06
5.34925e-06
3.60133e-06
2.93503e-06
2.78254e-06
2.90684e-06
0.000272262
1.92865e-06
2.30014e-06
2.75732e-05
4.94193e-05
3.02616e-05
1.04296e-05
8.09828e-06
3.07706e-06
1.25827e-05
3.75341e-05
2.09752e-06
2.62735e-06
7.23709e-05
0.000199317
0.00016639
3.30458e-05
3.84417e-05
1.54486e-05
1.21295e-05
8.05402e-06
2.13534e-06
2.1605e-06
2.62768e-06
6.88024e-05
0.000204053
4.00217e-05
1.01336e-05
2.99296e-05
3.09699e-05
5.52829e-06
2.16078e-06
2.35001e-06
2.50904e-06
2.95623e-06
3.43303e-05
8.86333e-05
1.11285e-05
1.24343e-05
1.43554e-05
5.241e-06
0.000114355
3.16164e-06
2.64392e-06
2.86569e-06
5.83938e-06
9.26181e-06
2.97131e-05
1.13672e-05
5.76915e-06
5.77295e-06
0.000141335
9.4419e-05
2.76866e-06
5.03957e-06
7.16146e-06
3.88169e-06
1.94505e-05
9.26722e-05
3.51835e-05
6.05064e-06
1.26927e-05
8.8279e-05
2.9994e-06
4.31119e-06
5.38862e-06
3.81896e-06
3.83455e-06
2.20567e-05
8.28568e-05
6.71942e-06
1.3251e-05
1.49399e-05
6.04666e-05
7.00057e-05
8.23977e-06
3.83455e-06
3.72596e-06
6.76754e-06
5.74883e-05
5.75112e-05
1.5751e-05
3.78487e-05
0.000322372
0.000391481
0.000240282
6.16172e-06
3.84415e-06
4.23664e-06
3.03461e-05
8.3621e-05
6.94036e-05
0.000199545
0.000412138
0.000400189
0.000384898
0.000214454
3.78405e-06
3.25861e-06
5.47603e-06
6.94201e-05
1
1
1
1
1
1
1
1
1
1
1
1
0.999999
1
1
1
1
1
1
1
1
1
0.999996
1
1
1
1
1
1
1
0.999977
0.999922
0.999989
1
1
1
1
1
1
1
0.999655
0.999202
0.999976
1
1
1
1
1
1
1
0.999844
0.998911
0.999971
0.999999
1
1
1
1
1
1
0.999789
0.999307
0.999914
0.999964
0.999984
0.999994
1
1
1
1
0.942827
0.947241
0.942212
0.94069
0.942131
0.925944
0.853531
0.733865
0.661335
0.601857
0.249897
0.260282
0.247814
0.243611
0.242393
0.204749
0.124109
0.0493134
0.0262466
0.030587
1.90549e-06
1.98337e-06
2.16931e-06
3.16579e-06
3.64258e-06
4.03198e-06
3.60133e-06
2.93386e-06
1.95445e-05
0.000608498
1.98337e-06
2.08393e-06
1.27899e-05
2.7957e-05
7.68605e-06
5.02499e-06
4.32495e-06
2.9883e-05
6.24596e-05
9.13929e-05
2.02713e-06
2.16932e-06
3.55287e-05
0.00013022
6.69273e-05
5.85118e-06
1.07269e-05
4.80607e-05
4.86395e-05
2.23061e-05
2.11462e-06
2.13463e-06
3.20874e-06
5.484e-05
8.98956e-05
9.33533e-06
1.0013e-05
1.31006e-05
4.76854e-05
6.6317e-06
3.73372e-05
2.32708e-06
2.79558e-06
2.89606e-06
1.1896e-05
9.96679e-05
5.3319e-05
1.45083e-05
1.27403e-05
5.76632e-06
0.000145213
5.5723e-05
1.29682e-05
2.99557e-06
3.15621e-06
4.95235e-06
5.00878e-05
8.02238e-05
1.60094e-05
6.10547e-06
4.50748e-05
0.000105825
0.000106728
9.16427e-06
3.44043e-06
4.53625e-06
3.9284e-06
5.74826e-06
7.22954e-06
6.66892e-06
1.40966e-05
5.70671e-05
8.7062e-05
5.28119e-05
3.72466e-06
3.77925e-06
3.72537e-06
3.87213e-06
1.13363e-05
7.22954e-06
3.48861e-05
1.43671e-05
1.26909e-05
3.98346e-05
3.89406e-05
7.65383e-06
3.74057e-06
6.16673e-06
5.49003e-05
4.17075e-05
2.50616e-05
1.31865e-05
9.45859e-06
1.34971e-05
5.83374e-05
2.30401e-05
3.62832e-06
3.60011e-06
5.85697e-05
8.3621e-05
1.51938e-05
1.08278e-05
3.18521e-05
7.67417e-05
2.58028e-05
1.3761e-05
3.25863e-06
2.95361e-06
2.32536e-05
8.24869e-05
1
1
1
1
1
1
1
1
1
1
1
1
1
1
1
1
1
1
1
1
1
0.999999
0.999999
1
1
1
1
1
1
1
1
1
0.999995
1
1
1
1
1
1
1
0.99998
0.999942
0.999997
1
1
1
1
1
1
1
0.999765
0.999375
0.999996
0.999999
1
1
1
1
1
1
0.999719
0.999569
0.999945
0.999968
0.999989
0.999999
1
1
1
1
0.89646
0.890211
0.873093
0.865045
0.878337
0.882557
0.837185
0.768906
0.733763
0.70056
0.153384
0.146602
0.129199
0.123224
0.131446
0.131657
0.109818
0.0778479
0.0702918
0.0799609
1.97223e-06
1.97858e-06
2.00489e-06
2.2283e-06
2.76866e-06
3.64258e-06
4.04102e-06
3.72038e-06
0.00109272
0.0015684
1.97575e-06
2.00489e-06
3.2692e-06
1.05617e-05
3.86421e-06
4.04899e-06
4.25379e-06
3.72487e-05
0.000254563
0.000282696
2.01487e-06
2.0397e-06
7.25244e-06
5.03164e-05
5.94609e-05
4.78173e-06
5.60249e-06
3.52732e-05
5.43271e-05
0.000109983
3.2881e-06
2.24456e-06
2.41736e-06
3.00248e-05
9.38539e-05
1.46821e-05
8.40603e-06
1.00529e-05
1.85411e-05
9.59425e-05
0.00012467
2.17863e-05
3.43074e-06
1.06512e-05
4.01069e-05
0.000113049
0.000106797
5.27749e-05
4.49425e-05
1.78803e-05
0.000154304
0.000147818
7.43767e-05
3.36838e-06
4.74264e-05
6.19692e-05
0.000116725
0.00011964
0.000118662
1.79486e-05
2.61335e-05
7.03553e-05
0.000112781
7.55121e-05
1.00113e-05
2.97057e-05
2.71579e-05
5.29564e-05
4.18796e-05
9.70988e-06
1.80586e-05
2.661e-05
7.57971e-05
9.90913e-05
6.21284e-05
6.91337e-05
2.21131e-05
6.56989e-06
7.982e-06
7.59855e-06
0.000117998
5.79954e-05
9.45859e-06
8.40713e-05
0.000127655
0.000127599
5.86693e-05
6.55303e-06
2.86468e-05
7.35945e-06
0.000125241
8.61261e-05
7.09262e-06
2.98075e-05
0.000124466
0.000126111
6.98448e-05
3.35309e-06
4.27719e-05
5.86216e-05
1.02077e-05
7.09262e-06
6.819e-06
6.10622e-06
3.70029e-05
0.000101192
3.21945e-05
2.92413e-06
3.39582e-05
8.31468e-05
1
1
1
1
1
1
1
1
1
1
1
1
1
1
1
1
1
1
1
1
1
1
0.999999
1
1
1
1
0.999999
1
1
1
1
0.999994
0.999999
1
1
0.999998
0.999996
1
1
0.999735
0.999749
0.999989
1
1
1
0.999998
0.999999
1
1
0.996684
0.997902
0.999998
1
1
1
1
1
1
1
0.997886
0.998898
0.999963
0.99999
0.999996
1
1
1
1
1
0.82051
0.797581
0.767842
0.760751
0.791713
0.841168
0.859628
0.835238
0.828561
0.823789
0.0583408
0.0453336
0.0384306
0.0372871
0.0514212
0.0817548
0.117932
0.124177
0.156875
0.210981
1.97545e-06
2.00489e-06
2.2283e-06
2.47095e-06
2.69937e-06
2.76623e-06
3.73819e-06
0.000575808
0.00257944
0.00313039
2.09296e-06
2.77941e-06
2.55907e-06
2.69939e-06
4.79335e-06
4.92382e-06
5.42419e-06
7.38157e-05
0.000492008
0.000524069
2.0456e-06
2.25316e-06
1.57466e-05
2.14669e-05
2.93201e-05
5.95599e-06
6.9971e-06
2.78629e-05
9.58332e-05
0.000165505
1.89869e-05
2.31418e-06
4.29372e-05
4.49627e-05
3.00981e-05
5.75184e-05
9.07062e-06
1.32344e-05
3.2976e-05
0.000121928
0.000167296
3.92533e-05
4.52198e-06
6.44087e-05
8.95165e-05
3.31944e-05
0.000117687
0.00010702
0.000117487
3.85307e-05
0.000193809
0.000153729
4.01888e-05
4.95786e-06
8.55401e-05
0.000119647
8.91121e-05
0.000120294
0.000120363
2.0669e-05
0.000202395
9.73632e-05
6.45655e-05
9.72695e-06
4.40708e-05
0.000124676
0.000124816
8.59167e-05
3.60641e-05
7.75885e-06
0.000315151
0.000208662
4.31444e-05
2.00967e-05
9.05325e-05
0.000127756
0.000126477
6.05074e-05
7.82726e-06
7.35945e-06
0.000316648
0.000316816
0.000148875
7.12282e-05
0.000135734
0.000132958
0.000127599
2.55714e-05
5.60475e-06
6.13506e-06
0.000261524
0.000171236
0.000106079
7.23766e-05
0.000104424
0.00011282
5.27938e-05
4.05578e-06
5.11314e-06
6.68625e-06
1.1424e-05
8.60341e-06
8.47196e-06
7.72111e-06
1.34883e-05
1.82621e-05
3.77156e-06
3.29899e-06
1.03679e-05
1.17511e-05
1
1
1
1
1
1
1
1
1
1
1
1
1
1
1
1
1
1
1
1
1
1
1
1
1
1
0.999999
0.999996
0.999998
1
0.999985
0.99998
0.999999
1
1
1
0.999988
0.999988
0.999999
1
0.999483
0.999888
1
1
1
0.999998
0.999989
1
1
1
0.998745
0.999758
1
1
1
1
1
1
1
1
0.999147
0.99987
0.999998
1
1
1
1
1