/*--------------------------------*- C++ -*----------------------------------*\
| =========                 |                                                 |
| \\      /  F ield         | OpenFOAM: The Open Source CFD Toolbox           |
|  \\    /   O peration     | Version:  2312                                  |
|   \\  /    A nd           | Website:  www.openfoam.com                      |
|    \\/     M anipulation  |                                                 |
\*---------------------------------------------------------------------------*/
FoamFile
{
    version     2.0;
    format      ascii;
    arch        "LSB;label=32;scalar=64";
    class       surfaceScalarField;
    location    "0.835";
    object      phi;
}
// * * * * * * * * * * * * * * * * * * * * * * * * * * * * * * * * * * * * * //

dimensions      [0 3 -1 0 0 0 0];

oriented        oriented;

internalField   nonuniform List<scalar> 
22600
(
1.90937e-07
-3.92384e-07
2.01447e-07
4.20345e-07
-4.14987e-07
1.85579e-07
6.09966e-07
-3.59733e-07
1.70112e-07
7.17632e-07
-2.8252e-07
1.74855e-07
7.44622e-07
-2.07084e-07
1.80094e-07
7.01396e-07
-1.35682e-07
1.78908e-07
6.02025e-07
-7.44107e-08
1.73782e-07
4.66097e-07
-2.91542e-08
1.65082e-07
3.1279e-07
-1.72431e-09
1.55032e-07
1.0638e-08
1.42634e-07
1.69138e-07
-7.40626e-07
1.79104e-07
4.06371e-07
-8.02802e-07
1.50582e-07
5.95248e-07
-6.68852e-07
1.20242e-07
7.00915e-07
-5.21947e-07
1.3376e-07
7.27218e-07
-3.90921e-07
1.57534e-07
6.87774e-07
-2.63445e-07
1.67207e-07
5.95927e-07
-1.49599e-07
1.67035e-07
4.67396e-07
-6.58801e-08
1.65257e-07
3.18407e-07
-1.89141e-08
1.66178e-07
-7.62724e-09
1.62991e-07
2.55692e-07
-1.25725e-06
2.60932e-07
5.70853e-07
-1.39873e-06
2.80766e-07
7.62883e-07
-1.04026e-06
1.79375e-07
8.63667e-07
-7.58497e-07
1.35767e-07
8.77684e-07
-5.65797e-07
1.6086e-07
8.11304e-07
-3.89976e-07
1.9291e-07
6.82137e-07
-2.32273e-07
2.11841e-07
5.13941e-07
-1.25286e-07
2.27602e-07
3.36396e-07
-9.09826e-08
2.49613e-07
-1.35197e-07
2.73203e-07
4.74755e-07
-2.19527e-06
4.63267e-07
8.97628e-07
-2.41331e-06
5.91704e-07
1.02627e-06
-1.59451e-06
4.25602e-07
1.06843e-06
-1.07112e-06
2.70476e-07
1.06094e-06
-7.85549e-07
2.27235e-07
9.56583e-07
-5.44914e-07
2.59298e-07
7.49553e-07
-3.3311e-07
3.07867e-07
4.9182e-07
-2.37403e-07
3.6985e-07
2.87664e-07
-3.46512e-07
4.59685e-07
-6.09288e-07
5.5251e-07
7.2592e-07
-3.6125e-06
6.91306e-07
1.20192e-06
-3.75821e-06
8.68909e-07
1.25953e-06
-2.39032e-06
7.38209e-07
1.18484e-06
-1.56416e-06
5.67712e-07
1.10191e-06
-1.16485e-06
4.62236e-07
9.51764e-07
-8.50609e-07
4.55844e-07
6.68555e-07
-5.51472e-07
5.01572e-07
3.70929e-07
-5.5969e-07
6.19913e-07
2.501e-07
-1.03207e-06
8.06383e-07
-1.43713e-06
9.20296e-07
7.94227e-07
-5.17652e-06
7.69795e-07
1.12282e-06
-5.1285e-06
1.04169e-06
1.23886e-06
-3.53e-06
1.02364e-06
1.23078e-06
-2.46607e-06
9.09989e-07
1.14981e-06
-1.84838e-06
7.64504e-07
1.04568e-06
-1.41416e-06
6.67677e-07
8.28147e-07
-9.2274e-07
5.88804e-07
6.17904e-07
-1.03063e-06
6.81182e-07
5.32918e-07
-1.79056e-06
8.43483e-07
-1.98928e-06
9.03952e-07
6.91631e-07
-6.73151e-06
8.63361e-07
8.72095e-07
-6.61661e-06
1.30764e-06
1.1673e-06
-5.15994e-06
1.33474e-06
1.39635e-06
-3.81322e-06
1.1181e-06
1.44232e-06
-2.69443e-06
8.00083e-07
1.48162e-06
-2.0443e-06
5.90832e-07
1.2317e-06
-1.2412e-06
5.68388e-07
8.424e-07
-1.25819e-06
6.1686e-07
6.3884e-07
-2.22265e-06
6.35651e-07
-2.39087e-06
7.54807e-07
5.54555e-07
-8.19864e-06
9.12572e-07
1.3267e-06
-8.46205e-06
1.0733e-06
2.27654e-06
-7.17605e-06
1.06628e-06
2.86292e-06
-5.07037e-06
6.70763e-07
2.69078e-06
-2.76599e-06
2.43706e-07
2.08791e-06
-1.39401e-06
-4.74299e-08
1.26948e-06
-5.01041e-07
7.82685e-08
6.48489e-07
-7.25514e-07
8.83154e-08
3.21967e-07
-1.89987e-06
3.74365e-09
-2.10082e-06
6.54497e-08
3.07756e-07
-8.75742e-06
2.51024e-07
2.46434e-06
-8.83555e-06
-1.78309e-06
4.49391e-06
-7.30428e-06
-1.90134e-06
6.11771e-06
-4.5782e-06
-2.11597e-06
5.64046e-06
-1.16203e-06
-1.12671e-06
3.09889e-06
1.4661e-06
-3.18532e-07
1.23223e-06
1.11247e-06
2.53148e-07
5.02391e-07
-9.41819e-07
9.46149e-07
-2.05709e-07
-2.33572e-06
1.14394e-06
-2.57061e-06
1.11866e-06
-6.01636e-07
-7.39859e-06
-7.57187e-07
1.74881e-06
-7.55978e-06
-3.62621e-06
3.42624e-06
-5.8521e-06
-3.12959e-06
5.55277e-06
-4.41451e-06
-2.29022e-06
4.65386e-06
-3.0174e-07
3.86292e-08
-2.08688e-06
5.2975e-06
2.90933e-06
-2.10845e-06
-6.42408e-07
1.77644e-06
-1.90527e-06
-2.81515e-06
1.67015e-06
-2.42243e-06
-3.21332e-06
1.39476e-06
-2.68906e-06
1.07355e-06
-2.44672e-09
-4.03365e-06
-3.3625e-06
1.63379e-06
-4.18326e-06
-5.01276e-06
2.80429e-06
-3.26062e-06
-3.76197e-06
5.27073e-06
-2.92048e-06
-3.96048e-06
7.90184e-06
-7.69732e-07
-2.16311e-06
8.80974e-06
3.6016e-06
7.87995e-07
4.20734e-06
1.17424e-06
2.78574e-06
-1.90993e-06
-1.07178e-06
4.3739e-06
-6.49022e-06
-2.25023e-06
3.61719e-06
-3.13599e-06
2.38902e-06
5.3601e-07
4.68519e-07
-5.03818e-06
1.77776e-06
-2.72512e-07
-5.1525e-06
2.36964e-06
-3.03418e-07
-3.54908e-06
4.98326e-06
-8.39215e-07
-4.69489e-06
8.05082e-06
1.27797e-09
-3.83859e-06
9.0925e-06
2.5429e-06
1.70443e-08
3.77097e-06
2.76979e-06
3.72597e-06
-3.20655e-06
1.46363e-06
4.4421e-06
-7.7113e-06
-5.61361e-07
2.81588e-06
-1.88823e-06
-3.76906e-07
6.02019e-07
4.56495e-06
-4.69845e-06
1.36305e-06
3.37408e-06
-4.40762e-06
1.75265e-06
2.48903e-06
-3.18205e-06
4.36237e-06
1.59284e-06
-5.04179e-06
6.9584e-06
2.1711e-06
-4.76584e-06
6.38933e-06
3.40537e-06
-2.93411e-07
6.8518e-07
4.24084e-06
4.2331e-06
-5.0947e-06
3.74923e-06
3.49428e-06
-7.61931e-06
1.70994e-06
2.5332e-07
7.57561e-07
-2.49031e-06
-9.40767e-09
7.56897e-06
-2.99461e-06
1.58628e-07
6.34368e-06
-3.13764e-06
6.62183e-07
4.92061e-06
-2.93513e-06
3.17266e-06
4.21731e-06
-5.13494e-06
5.35991e-06
4.61536e-06
-4.63151e-06
3.59156e-06
5.1177e-06
5.60124e-08
-1.89498e-06
5.65874e-06
4.06863e-06
-6.0133e-06
5.54858e-06
2.31897e-06
-7.41361e-06
3.94231e-06
-8.32079e-07
3.08122e-06
-2.53217e-06
-9.40639e-07
7.96504e-06
5.44567e-07
-1.28691e-06
8.32762e-06
-1.63768e-06
-5.6024e-07
7.01267e-06
-2.81874e-06
1.76187e-06
6.81881e-06
-4.9236e-06
3.3177e-06
7.01507e-06
-3.95555e-06
1.11199e-06
6.93283e-06
3.90597e-07
-3.72517e-06
7.0884e-06
3.40749e-06
-6.43085e-06
7.08935e-06
1.16491e-06
-7.24316e-06
5.9118e-06
-1.15718e-06
5.03587e-06
-1.94777e-06
-1.54095e-06
6.24259e-06
3.26339e-06
-2.38163e-06
9.45784e-06
-2.89534e-07
-1.60161e-06
8.77113e-06
-2.53848e-06
1.99774e-07
9.18484e-06
-4.16742e-06
9.26403e-07
9.28781e-06
-2.99938e-06
-1.06494e-06
8.98101e-06
-5.68521e-08
-4.60427e-06
8.90787e-06
1.71986e-06
-6.43409e-06
8.92409e-06
-4.91929e-09
-7.2637e-06
8.07345e-06
-1.33204e-06
7.16652e-06
-1.49086e-06
-1.63574e-06
4.04837e-06
3.82995e-06
-3.01114e-06
9.46291e-06
1.37032e-06
-2.46255e-06
1.0068e-05
-1.84548e-06
-1.43856e-06
1.07301e-05
-2.56927e-06
-1.57483e-06
1.0789e-05
-1.36493e-06
-2.96937e-06
1.09759e-05
-6.00381e-07
-4.88968e-06
1.13041e-05
-4.75961e-07
-6.21295e-06
1.13344e-05
-1.08704e-06
-7.30205e-06
1.02854e-05
-1.12288e-06
8.88625e-06
-3.95593e-07
-1.95705e-06
2.11658e-06
3.88885e-06
-3.59101e-06
8.3667e-06
2.73017e-06
-3.38471e-06
1.0079e-05
-2.17251e-07
-2.98221e-06
1.04583e-05
-1.30701e-07
-3.64859e-06
1.0379e-05
1.07642e-06
-4.62734e-06
1.16721e-05
2.82548e-07
-5.30916e-06
1.31177e-05
-1.13179e-06
-5.91966e-06
1.29333e-05
-9.88399e-07
-6.6556e-06
1.08447e-05
1.76628e-07
8.87204e-06
1.18357e-06
-2.43463e-06
5.48103e-07
4.00311e-06
-3.83349e-06
5.8439e-06
3.92166e-06
-3.81109e-06
7.27797e-06
2.77862e-06
-3.72654e-06
7.38651e-06
2.98725e-06
-4.46739e-06
7.74018e-06
3.37965e-06
-5.18381e-06
9.84274e-06
2.5458e-06
-5.11573e-06
1.21938e-05
8.55847e-07
-4.83934e-06
1.18817e-05
7.75254e-07
-4.80851e-06
9.00988e-06
1.80403e-06
6.76159e-06
2.35294e-06
-1.89507e-06
2.50829e-06
-6.51218e-08
-3.28707e-06
4.39475e-06
2.84115e-06
-3.43896e-06
4.20792e-06
3.22194e-06
-3.41485e-06
4.06467e-06
3.29773e-06
-3.76408e-06
4.10742e-06
3.98198e-06
-3.86277e-06
4.03754e-06
5.9039e-06
-3.11119e-06
3.2782e-06
8.16404e-06
-2.13709e-06
2.76156e-06
8.14601e-06
-1.74319e-06
2.75538e-06
5.8606e-06
2.58804e-06
4.18142e-06
1.74744e-07
-4.15642e-07
4.42345e-07
4.41884e-07
-5.48106e-07
4.66546e-07
6.83599e-07
-5.10046e-07
4.38443e-07
8.216e-07
-3.86879e-07
4.23733e-07
8.61736e-07
-2.74283e-07
4.14241e-07
8.2318e-07
-1.87743e-07
4.05207e-07
7.20395e-07
-1.21008e-07
3.97575e-07
5.6668e-07
-7.02746e-08
3.89071e-07
3.76034e-07
-3.52855e-08
3.80963e-07
-2.49159e-08
3.68406e-07
1.40274e-07
-8.06812e-07
4.30001e-07
4.58516e-07
-1.20147e-06
4.8571e-07
7.3261e-07
-1.09788e-06
4.33987e-07
8.62279e-07
-7.83897e-07
4.01109e-07
8.82009e-07
-5.33469e-07
3.96989e-07
8.30984e-07
-3.66428e-07
3.96917e-07
7.22548e-07
-2.41023e-07
3.95486e-07
5.66885e-07
-1.44532e-07
3.95178e-07
3.79068e-07
-8.14573e-08
4.00167e-07
-7.29335e-08
4.00923e-07
2.78233e-07
-1.41911e-06
5.94999e-07
7.95322e-07
-2.2436e-06
8.05797e-07
1.09351e-06
-1.89911e-06
6.82415e-07
1.17417e-06
-1.24269e-06
5.13902e-07
1.12987e-06
-7.8191e-07
4.53603e-07
1.02826e-06
-5.2762e-07
4.5571e-07
8.79036e-07
-3.50396e-07
4.7044e-07
6.82334e-07
-2.10523e-07
4.90296e-07
4.48308e-07
-1.18816e-07
5.20997e-07
-1.19135e-07
5.46481e-07
6.0768e-07
-2.47358e-06
9.10057e-07
1.33616e-06
-3.69613e-06
1.31576e-06
1.57626e-06
-2.86953e-06
1.15592e-06
1.55628e-06
-1.77174e-06
8.19505e-07
1.44275e-06
-1.05526e-06
6.14104e-07
1.2786e-06
-6.84109e-07
5.79944e-07
1.05164e-06
-4.39932e-07
6.24359e-07
7.62076e-07
-2.47009e-07
6.95899e-07
4.63223e-07
-1.47509e-07
7.87232e-07
-2.30644e-07
8.70227e-07
9.12929e-07
-3.91592e-06
1.22072e-06
1.67978e-06
-5.2535e-06
1.65943e-06
1.86681e-06
-3.89118e-06
1.57282e-06
1.77916e-06
-2.37782e-06
1.26145e-06
1.61172e-06
-1.38212e-06
9.56535e-07
1.39199e-06
-8.57876e-07
8.49338e-07
1.09616e-06
-5.6245e-07
9.19923e-07
7.39748e-07
-3.52282e-07
1.0816e-06
4.41479e-07
-2.78586e-07
1.23573e-06
-5.09058e-07
1.35101e-06
9.97958e-07
-5.4716e-06
1.32752e-06
1.63745e-06
-6.6763e-06
1.82501e-06
1.8921e-06
-4.98702e-06
1.86484e-06
1.92253e-06
-3.20313e-06
1.70487e-06
1.7666e-06
-1.84712e-06
1.38543e-06
1.50145e-06
-1.05223e-06
1.12719e-06
1.2415e-06
-7.87165e-07
1.07347e-06
1.06751e-06
-7.58059e-07
1.26094e-06
8.62604e-07
-7.68658e-07
1.53847e-06
-8.21648e-07
1.7073e-06
9.83541e-07
-7.0791e-06
1.48732e-06
1.60991e-06
-8.13585e-06
2.14082e-06
2.05225e-06
-6.22509e-06
2.13046e-06
2.23838e-06
-4.16577e-06
1.8946e-06
2.09523e-06
-2.44223e-06
1.53835e-06
1.83496e-06
-1.36432e-06
1.16319e-06
1.79596e-06
-1.18175e-06
1.00197e-06
1.80414e-06
-1.40886e-06
1.25948e-06
1.44142e-06
-1.32082e-06
1.55054e-06
-8.34208e-07
1.6483e-06
1.25466e-06
-8.8417e-06
1.42051e-06
2.25912e-06
-9.69039e-06
1.62338e-06
3.10742e-06
-7.45444e-06
1.44732e-06
3.45965e-06
-4.90144e-06
1.0542e-06
3.10574e-06
-2.65581e-06
8.11196e-07
2.4339e-06
-1.26398e-06
5.24071e-07
1.86403e-06
-8.01806e-07
2.68197e-07
1.25701e-06
-9.92658e-07
2.7913e-07
7.36687e-07
-1.22878e-06
4.32022e-07
-8.20719e-07
4.5903e-07
1.84029e-06
-9.74432e-06
-6.86645e-07
2.65092e-06
-8.88701e-06
-3.3971e-06
4.06923e-06
-7.29064e-06
-3.48344e-06
5.37738e-06
-5.47664e-06
-2.84893e-06
6.08995e-06
-2.98657e-06
-1.50852e-06
5.54064e-06
-6.33979e-07
-3.99225e-07
3.72851e-06
7.05096e-07
5.58375e-07
1.80206e-06
-2.82803e-07
2.16275e-06
2.43391e-07
-2.32873e-06
3.80257e-06
-3.38111e-06
4.51745e-06
9.13042e-07
-8.16854e-06
-3.24601e-06
9.88688e-07
-8.24326e-06
-4.3456e-06
2.34638e-06
-8.27705e-06
-3.50088e-06
4.86819e-06
-7.67341e-06
-2.61526e-06
6.22658e-06
-3.89935e-06
-4.06991e-07
3.75694e-06
1.91333e-06
2.83165e-06
7.20504e-08
3.30983e-06
2.8566e-06
-6.20882e-07
-4.53598e-06
6.61626e-06
-2.53569e-06
-5.93524e-06
6.91608e-06
-5.0564e-06
5.60697e-06
5.44506e-07
-5.11292e-06
-6.96262e-06
1.80505e-07
-6.3605e-06
-6.53153e-06
1.0342e-06
-7.34177e-06
-5.55094e-06
3.08817e-06
-7.60815e-06
-6.07971e-06
5.75191e-06
-4.05931e-06
-4.6669e-06
8.66497e-06
7.46227e-07
-9.5797e-07
9.37916e-06
3.64905e-06
1.73232e-06
5.05541e-06
-7.16796e-07
4.87846e-06
2.90622e-08
-2.80316e-06
5.51147e-06
-1.49861e-06
2.23702e-06
2.66568e-08
-2.23955e-06
-7.93821e-06
1.21332e-07
-4.50761e-06
-7.10006e-06
7.87878e-07
-5.38707e-06
-6.17033e-06
1.95716e-06
-5.64503e-06
-7.82729e-06
3.87439e-06
-2.49688e-06
-7.31825e-06
6.73143e-06
4.88852e-07
-2.58263e-06
8.82759e-06
3.76604e-06
1.51282e-06
4.99432e-06
3.46259e-06
4.09599e-06
2.18512e-07
2.2441e-06
2.54442e-06
3.97893e-06
-3.0131e-06
-2.08739e-07
8.92165e-07
-7.62143e-06
-2.24797e-07
-1.7773e-06
-7.12188e-06
3.59407e-07
-2.79551e-06
-6.35781e-06
9.56741e-07
-2.70274e-06
-8.58141e-06
2.23537e-06
1.71368e-07
-8.71273e-06
4.06882e-06
1.90202e-06
-3.54004e-06
4.92037e-06
5.06389e-06
2.0837e-06
1.86717e-06
6.16225e-06
3.8478e-06
-2.21709e-06
6.47518e-06
1.06507e-07
7.90892e-06
-5.24163e-06
-8.34329e-07
4.61028e-06
-5.8784e-06
-1.75883e-06
1.09533e-06
-5.08576e-06
-1.0234e-06
-3.79797e-07
-6.08628e-06
-7.46601e-07
3.76969e-07
-8.49145e-06
3.76271e-07
3.00734e-06
-8.59035e-06
1.85794e-06
4.15189e-06
-3.67553e-06
1.49335e-06
6.68162e-06
2.81551e-06
-1.0415e-06
8.30373e-06
2.71235e-06
-3.72763e-06
9.98735e-06
-1.65812e-06
1.02677e-05
-5.76544e-06
-1.32093e-06
7.5283e-06
-1.05252e-06
-3.12815e-06
3.82659e-06
-2.56173e-06
-2.73943e-06
1.94586e-06
-5.53311e-06
-2.68368e-06
3.49506e-06
-8.09745e-06
-1.40103e-06
5.83767e-06
-8.06854e-06
1.86851e-07
7.06822e-06
-4.11361e-06
-4.01882e-07
8.54698e-06
2.13086e-06
-2.48352e-06
1.08165e-05
7.33727e-07
-3.78768e-06
1.31306e-05
-2.9963e-06
1.20965e-05
-5.82087e-06
-1.52288e-06
7.90311e-06
4.41145e-06
-3.66854e-06
6.32444e-06
-6.41725e-07
-4.00492e-06
4.32928e-06
-4.58552e-06
-4.25752e-06
6.60299e-06
-7.02276e-06
-3.04165e-06
8.91331e-06
-7.29089e-06
-1.02225e-06
1.03785e-05
-5.38657e-06
-1.39951e-06
1.15541e-05
-9.09984e-07
-2.89126e-06
1.40954e-05
-1.79199e-06
-2.82107e-06
1.58089e-05
-4.08049e-06
1.32522e-05
-5.06256e-06
-9.27589e-07
5.79026e-06
6.87039e-06
-3.17093e-06
7.95771e-06
1.98039e-06
-4.18114e-06
6.74582e-06
-3.25182e-06
-4.82922e-06
9.5914e-06
-4.90961e-06
-4.02056e-06
1.20043e-05
-5.2646e-06
-2.088e-06
1.34833e-05
-5.63766e-06
-1.96618e-06
1.50429e-05
-4.08661e-06
-2.56486e-06
1.72431e-05
-3.63604e-06
-1.56128e-06
1.75301e-05
-3.84767e-06
1.41754e-05
-2.46777e-06
-7.00273e-07
3.20545e-06
7.17391e-06
-3.19886e-06
8.57391e-06
4.61255e-06
-4.63505e-06
8.969e-06
-1.00424e-06
-5.10304e-06
1.1931e-05
-2.00232e-06
-4.50677e-06
1.41574e-05
-1.67289e-06
-3.00708e-06
1.55402e-05
-3.27413e-06
-2.29627e-06
1.73419e-05
-4.14158e-06
-2.18591e-06
1.91925e-05
-3.04822e-06
-1.49004e-06
1.84621e-05
-1.45121e-06
1.49348e-05
1.8711e-06
-2.12878e-06
1.88551e-06
7.45183e-06
-4.40633e-06
8.46693e-06
6.30619e-06
-5.58657e-06
1.02149e-05
2.71291e-06
-5.54653e-06
1.24841e-05
2.39414e-06
-5.13604e-06
1.40927e-05
3.03381e-06
-4.1874e-06
1.57096e-05
1.42785e-06
-3.22602e-06
1.7995e-05
-7.58663e-07
-2.6457e-06
1.94952e-05
-1.07811e-07
-2.83048e-06
1.78224e-05
2.62851e-06
1.44058e-05
5.28657e-06
-3.76715e-06
6.22762e-06
1.93333e-06
-5.63321e-06
7.59981e-06
7.12795e-06
-6.00914e-06
6.36675e-06
8.43204e-06
-5.65947e-06
6.30746e-06
9.89165e-06
-5.34327e-06
6.69649e-06
1.11874e-05
-4.75095e-06
5.93805e-06
1.32167e-05
-3.78961e-06
4.16579e-06
1.61461e-05
-2.94241e-06
3.94833e-06
1.74613e-05
-3.27331e-06
5.42129e-06
1.54874e-05
6.17888e-06
1.23179e-05
1.60472e-07
-3.56533e-07
6.38406e-07
4.14852e-07
-5.01831e-07
7.13997e-07
6.49133e-07
-4.74786e-07
6.78948e-07
7.84956e-07
-3.55699e-07
6.43608e-07
8.26385e-07
-2.45019e-07
6.17831e-07
7.92201e-07
-1.63016e-07
6.02407e-07
6.95603e-07
-1.02823e-07
5.96996e-07
5.46703e-07
-5.85841e-08
5.96555e-07
3.58324e-07
-3.30926e-08
6.02434e-07
-3.6325e-08
5.99741e-07
1.11764e-07
-6.66872e-07
6.28575e-07
4.05268e-07
-1.07877e-06
7.69145e-07
6.84336e-07
-1.04354e-06
7.23669e-07
8.214e-07
-7.47346e-07
6.55692e-07
8.46223e-07
-4.89796e-07
6.16945e-07
8.00216e-07
-3.22045e-07
6.01953e-07
6.98298e-07
-2.06674e-07
6.01255e-07
5.49741e-07
-1.23461e-07
6.08612e-07
3.67391e-07
-7.74912e-08
6.26916e-07
-8.42515e-08
6.38366e-07
1.7168e-07
-1.05308e-06
8.09525e-07
6.53381e-07
-1.87364e-06
1.11896e-06
1.01666e-06
-1.78239e-06
1.058e-06
1.13009e-06
-1.21368e-06
8.66803e-07
1.08835e-06
-7.38554e-07
7.44096e-07
9.91172e-07
-4.75049e-07
7.05893e-07
8.54511e-07
-3.07965e-07
7.08392e-07
6.70227e-07
-1.73203e-07
7.24322e-07
4.39063e-07
-7.20497e-08
7.4672e-07
-5.58897e-08
7.52691e-07
4.18626e-07
-1.6455e-06
1.08386e-06
1.14527e-06
-2.85768e-06
1.57316e-06
1.53159e-06
-2.55499e-06
1.5422e-06
1.58584e-06
-1.68392e-06
1.2355e-06
1.45567e-06
-9.71517e-07
9.77232e-07
1.27483e-06
-5.97445e-07
8.83183e-07
1.06465e-06
-3.69967e-07
8.96545e-07
7.98438e-07
-1.56623e-07
9.45527e-07
4.91542e-07
2.95318e-08
9.92546e-07
9.76018e-08
9.78913e-07
7.40431e-07
-2.52591e-06
1.36069e-06
1.57885e-06
-3.93256e-06
1.89589e-06
1.92636e-06
-3.25579e-06
1.92612e-06
1.93278e-06
-2.08196e-06
1.65306e-06
1.76403e-06
-1.17282e-06
1.32659e-06
1.55461e-06
-7.38464e-07
1.19978e-06
1.31925e-06
-4.79064e-07
1.26438e-06
9.39503e-07
-1.33285e-08
1.31805e-06
5.25794e-07
3.36429e-07
1.34254e-06
3.70806e-07
1.33256e-06
9.49383e-07
-3.7365e-06
1.58873e-06
1.73554e-06
-5.07617e-06
2.18246e-06
2.05565e-06
-3.93604e-06
2.22497e-06
2.10876e-06
-2.48726e-06
2.05707e-06
1.97169e-06
-1.37269e-06
1.72236e-06
1.77521e-06
-9.13879e-07
1.49908e-06
1.57487e-06
-7.72784e-07
1.56753e-06
1.28341e-06
-2.7448e-07
1.81356e-06
8.43062e-07
3.90484e-07
1.92475e-06
6.30578e-07
1.89309e-06
1.03256e-06
-5.26808e-06
1.98633e-06
1.73522e-06
-6.37147e-06
2.73347e-06
2.07075e-06
-4.72413e-06
2.58303e-06
2.18199e-06
-3.03241e-06
2.32851e-06
2.10606e-06
-1.74092e-06
1.9825e-06
2.0536e-06
-1.27686e-06
1.57864e-06
2.07172e-06
-1.381e-06
1.59207e-06
1.8803e-06
-6.90102e-07
1.86651e-06
1.36718e-06
3.1047e-07
2.14367e-06
9.20377e-07
2.15602e-06
1.43112e-06
-7.47056e-06
2.19187e-06
2.19234e-06
-7.99297e-06
2.48367e-06
2.63781e-06
-5.93984e-06
2.21757e-06
2.74805e-06
-4.00717e-06
1.91872e-06
2.43818e-06
-2.19499e-06
1.57513e-06
2.03371e-06
-1.12093e-06
7.72606e-07
1.39401e-06
-7.57414e-07
2.84318e-07
6.04214e-07
-2.29263e-07
6.08084e-07
3.21053e-07
2.37882e-07
7.87771e-07
7.51761e-07
7.57479e-07
2.1491e-06
-9.62964e-06
-6.76663e-07
2.71524e-06
-8.44658e-06
-3.50963e-06
3.50244e-06
-7.85331e-06
-2.35717e-06
4.55165e-06
-7.04085e-06
-8.64452e-07
4.96854e-06
-4.21952e-06
9.91112e-08
4.75217e-06
-1.92203e-06
6.18244e-07
4.28819e-06
-3.56213e-07
6.2115e-07
3.13768e-06
1.25404e-06
1.82996e-06
1.96538e-06
7.8582e-07
4.42693e-06
1.94071e-06
5.03417e-06
8.83146e-07
-8.45785e-06
-5.30096e-06
1.31133e-06
-7.48799e-06
-5.73237e-06
3.15582e-06
-8.78862e-06
-4.41006e-06
5.54087e-06
-8.55411e-06
-3.48704e-06
6.57915e-06
-4.03337e-06
-1.63143e-06
6.30291e-06
2.9505e-07
8.90816e-07
2.68063e-06
3.31259e-06
2.81008e-06
8.49055e-08
3.22959e-06
7.23642e-06
-2.26431e-06
3.55643e-07
9.69547e-06
2.47664e-06
7.68852e-06
-2.70994e-07
-6.98951e-06
-8.15996e-06
-5.61179e-07
-7.13699e-06
-6.59234e-06
3.43078e-07
-9.08939e-06
-6.15442e-06
1.9771e-06
-9.2903e-06
-6.97755e-06
3.19246e-06
-3.5283e-06
-6.38733e-06
4.34977e-06
1.92594e-06
-3.74618e-06
6.55581e-06
3.71751e-06
-8.78654e-07
6.97359e-06
3.75841e-06
3.93187e-06
4.58648e-06
2.01944e-06
6.23476e-06
6.24373e-06
3.2115e-06
-1.0985e-06
-5.10297e-06
-8.72626e-06
-9.86271e-07
-6.47285e-06
-7.87643e-06
-3.97174e-07
-7.87044e-06
-7.97838e-06
-3.57854e-07
-7.74646e-06
-9.41044e-06
1.6186e-08
-1.77762e-06
-9.44297e-06
1.31793e-06
3.9435e-06
-5.90194e-06
4.83041e-06
4.5664e-06
-2.84855e-06
7.15107e-06
4.95772e-06
5.7602e-07
4.13723e-06
5.59234e-06
1.98537e-06
1.05075e-05
-2.05906e-06
-1.12886e-06
-2.45696e-06
-9.13858e-06
-5.7242e-07
-4.92334e-06
-9.22783e-06
-3.87057e-07
-5.67447e-06
-8.73915e-06
-1.53493e-06
-4.807e-06
-1.0373e-05
-1.92874e-06
8.44192e-07
-1.09407e-05
-1.04871e-06
6.43132e-06
-6.90789e-06
2.20334e-06
6.3198e-06
-2.92176e-06
4.35428e-06
7.33231e-06
-6.77743e-07
9.33997e-07
1.00298e-05
-9.10629e-07
1.31443e-05
-4.96448e-06
-1.76451e-06
2.30186e-07
-6.80103e-06
-1.71948e-06
-3.00919e-06
-7.04495e-06
-1.56871e-06
-3.52051e-06
-8.391e-06
-3.07462e-06
-1.70451e-06
-1.0088e-05
-3.67744e-06
3.74074e-06
-1.08841e-05
-2.58593e-06
9.26394e-06
-7.59966e-06
4.74669e-08
9.07573e-06
-2.57381e-06
1.10478e-06
1.10652e-05
-2.07782e-06
-1.18258e-06
1.41315e-05
-3.4725e-06
1.43121e-05
-7.24546e-06
-2.13915e-06
3.49787e-06
-2.18105e-06
-3.28658e-06
-6.71779e-07
-3.75171e-06
-3.61981e-06
-1.35944e-06
-7.36096e-06
-5.20885e-06
1.28696e-06
-9.49989e-06
-5.49754e-06
6.40019e-06
-1.04393e-05
-3.82024e-06
1.21336e-05
-8.66056e-06
-1.97415e-06
1.34954e-05
-4.13493e-06
-1.04338e-06
1.56179e-05
-4.74979e-06
-8.22464e-07
1.75064e-05
-6.5921e-06
1.53314e-05
-8.68858e-06
-1.67451e-06
5.42554e-06
4.15829e-06
-3.82501e-06
2.37503e-06
-1.53804e-06
-4.78854e-06
8.25816e-07
-5.80726e-06
-6.56655e-06
4.1053e-06
-8.06309e-06
-6.73428e-06
8.80201e-06
-9.52498e-06
-4.80657e-06
1.45844e-05
-9.76512e-06
-2.94606e-06
1.80963e-05
-7.37143e-06
-1.23772e-06
1.97703e-05
-7.65273e-06
6.50764e-07
1.97924e-05
-8.25504e-06
1.64192e-05
-7.53034e-06
-1.44839e-07
4.57522e-06
7.86556e-06
-1.76996e-06
4.51638e-06
1.46416e-06
-3.53784e-06
3.24993e-06
-3.90806e-06
-5.87608e-06
6.88101e-06
-5.34707e-06
-6.62925e-06
1.11561e-05
-6.86555e-06
-4.93935e-06
1.59791e-05
-8.72222e-06
-2.67509e-06
2.0359e-05
-8.61349e-06
-4.25299e-07
2.19392e-05
-8.05467e-06
1.40996e-06
2.07345e-05
-6.62498e-06
1.70007e-05
-3.67125e-06
1.41616e-06
2.20614e-06
8.12683e-06
2.05396e-07
5.41937e-06
4.92032e-06
-2.06492e-06
5.62906e-06
-1.11305e-06
-4.42875e-06
9.62085e-06
-2.37832e-06
-5.34387e-06
1.32834e-05
-2.88506e-06
-4.14728e-06
1.63648e-05
-4.85646e-06
-1.99925e-06
1.99472e-05
-5.87788e-06
1.56502e-08
2.18314e-05
-4.95533e-06
1.05233e-06
2.0464e-05
-2.21741e-06
1.71328e-05
2.42151e-06
-2.38923e-07
1.17962e-06
8.71727e-06
-1.73069e-06
6.40283e-06
6.81452e-06
-3.45997e-06
8.28563e-06
1.78564e-06
-4.45938e-06
1.17965e-05
1.21789e-06
-4.49336e-06
1.43158e-05
2.03541e-06
-3.38836e-06
1.58477e-05
8.40006e-07
-1.76744e-06
1.82918e-05
-7.24108e-07
-5.72265e-07
2.02301e-05
2.98236e-07
-6.25761e-07
1.9252e-05
3.89401e-06
1.68198e-05
7.75619e-06
-2.85085e-06
8.14395e-06
2.11415e-06
-4.60583e-06
8.4735e-06
7.28411e-06
-5.42306e-06
5.95359e-06
9.51602e-06
-5.29337e-06
6.03879e-06
1.19355e-05
-4.59277e-06
7.03784e-06
1.32738e-05
-3.55104e-06
6.67516e-06
1.40688e-05
-2.5674e-06
5.42445e-06
1.60495e-05
-1.97879e-06
5.68981e-06
1.79e-05
-2.54336e-06
7.8547e-06
1.73832e-05
9.34013e-06
1.55614e-05
1.65338e-07
-2.71819e-07
7.44887e-07
4.01354e-07
-3.70427e-07
8.48409e-07
6.14739e-07
-3.45003e-07
8.10565e-07
7.44909e-07
-2.56204e-07
7.69642e-07
7.91057e-07
-1.6925e-07
7.40932e-07
7.65031e-07
-9.73454e-08
7.25778e-07
6.76358e-07
-3.74495e-08
7.23119e-07
5.35098e-07
1.08904e-08
7.26924e-07
3.5028e-07
4.28557e-08
7.44397e-07
5.16165e-08
7.47552e-07
1.26201e-07
-5.04735e-07
7.35291e-07
3.74768e-07
-7.46524e-07
8.96676e-07
6.18036e-07
-7.20176e-07
8.55574e-07
7.56456e-07
-5.2833e-07
7.89399e-07
7.98123e-07
-3.41078e-07
7.47106e-07
7.6846e-07
-1.95939e-07
7.30209e-07
6.8089e-07
-8.14493e-08
7.32825e-07
5.46582e-07
7.65306e-09
7.46157e-07
3.72195e-07
6.31692e-08
7.80989e-07
8.91174e-08
8.03869e-07
1.29096e-07
-7.45015e-07
9.20709e-07
4.77038e-07
-1.18683e-06
1.21133e-06
8.09438e-07
-1.16543e-06
1.17085e-06
9.66827e-07
-8.37562e-07
1.01865e-06
9.87249e-07
-5.26652e-07
9.09249e-07
9.33465e-07
-3.08247e-07
8.71986e-07
8.17311e-07
-1.30729e-07
8.73825e-07
6.4185e-07
2.40024e-08
8.83434e-07
4.21355e-07
1.37295e-07
8.93089e-07
2.12325e-07
8.60428e-07
2.54956e-07
-1.07022e-06
1.15411e-06
7.77132e-07
-1.71625e-06
1.5804e-06
1.17533e-06
-1.62273e-06
1.60131e-06
1.32814e-06
-1.13862e-06
1.38374e-06
1.29998e-06
-6.91082e-07
1.16982e-06
1.19236e-06
-3.95013e-07
1.07756e-06
1.01763e-06
-1.49461e-07
1.09001e-06
7.56906e-07
1.102e-07
1.12005e-06
4.47354e-07
3.35069e-07
1.10432e-06
4.50648e-07
9.74835e-07
5.30261e-07
-1.57733e-06
1.33754e-06
1.22012e-06
-2.36135e-06
1.85112e-06
1.60756e-06
-2.02816e-06
1.9441e-06
1.72574e-06
-1.37217e-06
1.76844e-06
1.69008e-06
-8.62646e-07
1.53381e-06
1.5957e-06
-5.41637e-07
1.44078e-06
1.33143e-06
-5.62383e-08
1.43542e-06
9.28886e-07
3.92964e-07
1.43784e-06
4.89752e-07
7.21667e-07
1.39508e-06
8.2255e-07
1.21319e-06
7.87246e-07
-2.41681e-06
1.64096e-06
1.55812e-06
-3.21213e-06
2.26237e-06
1.90955e-06
-2.44846e-06
2.29384e-06
1.99992e-06
-1.53481e-06
2.12934e-06
1.98324e-06
-9.99976e-07
1.87637e-06
1.99137e-06
-7.9022e-07
1.73953e-06
1.85854e-06
-2.3342e-07
1.87754e-06
1.32518e-06
7.29973e-07
2.00991e-06
6.86442e-07
1.30578e-06
1.97938e-06
1.42696e-06
1.65959e-06
8.17179e-07
-3.58586e-06
2.33821e-06
1.47066e-06
-4.19619e-06
3.06405e-06
1.81081e-06
-3.01916e-06
2.81357e-06
1.94636e-06
-1.86416e-06
2.52231e-06
2.03267e-06
-1.27443e-06
2.17064e-06
2.29236e-06
-1.25008e-06
1.77881e-06
2.23236e-06
-3.75684e-07
1.79434e-06
1.74946e-06
1.07286e-06
2.00652e-06
1.10333e-06
1.9813e-06
2.11428e-06
2.31858e-06
1.89008e-06
1.16045e-06
-5.37907e-06
2.82463e-06
1.66931e-06
-5.43406e-06
3.21267e-06
1.93284e-06
-4.11022e-06
3.0451e-06
1.93806e-06
-2.64725e-06
2.6966e-06
1.69667e-06
-1.38051e-06
1.9226e-06
1.10871e-06
-7.36919e-07
8.47406e-07
4.13094e-07
1.25001e-07
4.7925e-07
2.39106e-07
1.03058e-06
8.2436e-07
1.5332e-07
1.87556e-06
9.79304e-07
2.25847e-06
8.82843e-07
2.69047e-06
-7.59653e-06
-1.14967e-06
3.6627e-06
-6.69864e-06
-3.21727e-06
3.95802e-06
-6.53785e-06
-2.2487e-07
4.38161e-06
-5.34295e-06
1.40765e-06
4.19911e-06
-2.99087e-06
1.89197e-06
3.80529e-06
-1.39283e-06
1.66798e-06
3.45941e-06
2.03941e-07
8.8809e-07
3.09002e-06
2.37905e-06
8.50869e-07
2.09436e-06
4.78334e-06
2.5148e-06
5.77522e-06
3.11984e-06
2.20894e-06
-7.92089e-06
-7.18554e-06
3.99011e-06
-6.19322e-06
-8.01896e-06
6.20042e-06
-6.63479e-06
-6.52342e-06
7.80444e-06
-5.63185e-06
-4.80216e-06
7.01279e-06
-1.6614e-06
-2.16924e-06
5.56982e-06
1.05233e-06
-1.11376e-07
4.34651e-06
3.83367e-06
4.03656e-07
7.98457e-07
5.79273e-06
7.37079e-06
-2.16825e-06
6.76887e-06
1.06767e-05
9.16938e-06
6.74763e-06
-5.34368e-08
-8.33278e-06
-7.69463e-06
-6.86385e-07
-7.06026e-06
-5.09235e-06
7.2965e-08
-8.75294e-06
-4.79563e-06
2.0133e-06
-8.14087e-06
-6.40886e-06
1.57358e-06
-1.1187e-06
-6.49032e-06
-3.61681e-07
4.00679e-06
-4.76538e-06
-1.0989e-06
7.05075e-06
-3.35851e-06
-8.83105e-07
8.5734e-06
9.35412e-07
-3.32524e-06
1.03389e-05
5.1069e-06
1.31185e-05
1.48191e-06
-1.56733e-06
-6.53607e-06
-8.95563e-06
-2.46556e-06
-6.69498e-06
-7.34347e-06
-2.26335e-06
-8.98948e-06
-7.94405e-06
-1.64645e-06
-8.61229e-06
-9.55592e-06
-1.88546e-06
-6.21136e-07
-9.70153e-06
-4.25688e-06
7.20885e-06
-6.73259e-06
-5.16896e-06
1.02432e-05
-5.12893e-06
-4.66505e-06
1.16858e-05
-3.04024e-06
-5.86807e-06
1.33566e-05
1.70684e-07
1.36492e-05
-2.85707e-06
-1.02501e-06
-4.55483e-06
-1.00948e-05
-8.08826e-07
-6.16931e-06
-9.96969e-06
-1.74546e-06
-7.37687e-06
-9.41514e-06
-3.28186e-06
-6.70258e-06
-1.07463e-05
-4.11202e-06
7.33333e-07
-1.14651e-05
-6.21371e-06
1.02623e-05
-7.85966e-06
-7.19613e-06
1.3356e-05
-5.05216e-06
-6.42872e-06
1.46817e-05
-4.44113e-06
-5.5393e-06
1.49435e-05
-3.38702e-06
1.23232e-05
-6.55455e-06
-1.14812e-06
-2.48363e-06
-7.72412e-06
-5.11006e-07
-5.41373e-06
-8.43763e-06
-1.55684e-06
-5.48256e-06
-9.23948e-06
-4.08336e-06
-4.01452e-06
-1.02496e-05
-5.78006e-06
2.68209e-06
-1.11361e-05
-7.12859e-06
1.27616e-05
-8.75045e-06
-7.46752e-06
1.6556e-05
-5.43487e-06
-5.69004e-06
1.73421e-05
-6.51567e-06
-2.33311e-06
1.59802e-05
-7.86611e-06
1.12076e-05
-1.02066e-05
-1.77466e-06
-2.46712e-08
-2.86535e-06
-1.90888e-06
-4.3871e-06
-4.64412e-06
-3.28169e-06
-3.47109e-06
-7.99963e-06
-5.80765e-06
-1.30092e-06
-9.68752e-06
-7.4643e-06
4.23015e-06
-1.03307e-05
-7.44445e-06
1.36192e-05
-9.53796e-06
-6.31951e-06
1.90469e-05
-7.7507e-06
-3.15852e-06
1.91898e-05
-9.75853e-06
1.68365e-06
1.61593e-05
-1.16133e-05
1.06861e-05
-1.10637e-05
-1.09315e-06
1.97695e-06
3.24982e-06
-2.55129e-06
-2.70046e-06
-1.76653e-06
-4.56874e-06
-1.47832e-06
-5.78258e-06
-6.75937e-06
1.08168e-06
-8.25506e-06
-8.04669e-06
5.20693e-06
-9.21444e-06
-7.00346e-06
1.25796e-05
-9.76878e-06
-4.25754e-06
1.87386e-05
-9.80906e-06
-1.87166e-07
1.87992e-05
-1.13325e-05
3.98466e-06
1.50383e-05
-1.13059e-05
1.10711e-05
-8.31142e-06
8.1038e-07
1.89981e-06
7.13231e-06
-5.33347e-07
-1.83397e-07
2.90818e-07
-3.11327e-06
8.2787e-07
-3.63432e-06
-5.21591e-06
3.41612e-06
-5.57889e-06
-6.6635e-06
6.53351e-06
-6.74455e-06
-5.73516e-06
1.09536e-05
-8.02452e-06
-2.40217e-06
1.56955e-05
-8.90341e-06
1.40816e-06
1.62433e-05
-9.30901e-06
3.49458e-06
1.34895e-05
-7.16259e-06
1.16121e-05
-3.00232e-06
2.34427e-06
7.38535e-08
7.60851e-06
2.55731e-06
1.35971e-06
3.16418e-06
1.0802e-06
2.67842e-06
-1.4865e-06
-1.69573e-06
5.83351e-06
-2.0198e-06
-3.78439e-06
8.38011e-06
-2.64299e-06
-3.9054e-06
9.90895e-06
-3.69082e-06
-1.55441e-06
1.18044e-05
-4.33777e-06
9.63959e-07
1.26573e-05
-3.88772e-06
1.33645e-06
1.19523e-05
-1.05272e-06
1.21963e-05
3.2196e-06
1.63319e-06
-7.23664e-07
7.88161e-06
2.08241e-06
2.7226e-06
5.00241e-06
1.20486e-06
4.86165e-06
4.79968e-07
-7.26728e-07
8.13573e-06
8.47264e-07
-2.02694e-06
9.991e-06
1.72473e-06
-2.23169e-06
9.42508e-06
1.52863e-06
-1.48405e-06
9.116e-06
1.21666e-06
-7.78869e-07
1.02846e-05
1.9657e-06
-1.37157e-06
1.16281e-05
4.81093e-06
1.32105e-05
8.33752e-06
-8.53394e-07
7.69889e-06
5.74783e-07
-1.33221e-06
6.8457e-06
4.82922e-06
-2.09366e-06
4.09392e-06
7.48276e-06
-2.86963e-06
5.02876e-06
9.92175e-06
-2.89712e-06
6.58608e-06
1.04702e-05
-2.64917e-06
6.82284e-06
9.02945e-06
-2.79089e-06
6.2421e-06
8.44006e-06
-3.05357e-06
6.52265e-06
9.71448e-06
-3.53737e-06
8.28519e-06
1.16814e-05
9.86563e-06
1.34919e-05
1.68399e-07
-1.86228e-07
7.62716e-07
3.90625e-07
-2.51122e-07
8.77304e-07
5.89067e-07
-2.2722e-07
8.39343e-07
7.16753e-07
-1.60588e-07
8.02544e-07
7.69879e-07
-9.20018e-08
7.79809e-07
7.52765e-07
-2.52156e-08
7.68107e-07
6.70693e-07
3.90954e-08
7.66096e-07
5.34344e-07
9.64453e-08
7.66827e-07
3.45281e-07
1.46044e-07
7.87417e-07
1.87656e-07
7.72315e-07
1.46031e-07
-3.51415e-07
7.54446e-07
3.70314e-07
-4.85034e-07
9.06305e-07
5.81304e-07
-4.49458e-07
8.66822e-07
7.16262e-07