/*--------------------------------*- C++ -*----------------------------------*\
| =========                 |                                                 |
| \\      /  F ield         | OpenFOAM: The Open Source CFD Toolbox           |
|  \\    /   O peration     | Version:  2312                                  |
|   \\  /    A nd           | Website:  www.openfoam.com                      |
|    \\/     M anipulation  |                                                 |
\*---------------------------------------------------------------------------*/
FoamFile
{
    version     2.0;
    format      ascii;
    arch        "LSB;label=32;scalar=64";
    class       volScalarField;
    location    "0.38";
    object      p;
}
// * * * * * * * * * * * * * * * * * * * * * * * * * * * * * * * * * * * * * //

dimensions      [1 -1 -2 0 0 0 0];

internalField   nonuniform List<scalar> 
8000
(
357.616
356.252
353.696
350.211
346.019
341.325
336.991
333.177
330.762
329.274
309.055
307.574
304.745
300.854
296.188
291.277
286.344
281.984
279.12
277.397
260.998
259.257
255.949
251.327
245.508
239.66
233.91
228.632
224.339
222.096
213.697
211.588
207.542
201.288
194.284
186.882
179.535
172.694
166.049
162.51
167.003
164.359
158.971
151.094
141.81
132.032
122.809
115.481
108.451
105.54
121.913
118.518
111.589
101.328
88.7332
75.7
62.4743
47.0143
31.6504
25.8957
79.3811
75.1486
66.2277
52.8733
37.0951
21.0464
10.8837
5.88034
2.41142
1.5129
40.6515
36.6299
28.0204
15.7702
4.83053
0.599776
0.0502908
0.0342063
0.0958738
0.118524
9.64925
7.85944
4.44571
0.929787
-0.0784887
-0.0942219
-0.0940893
-0.11686
-0.0848767
-0.0627659
-0.240942
-0.309139
-0.382598
-0.448007
-0.420179
-0.36297
-0.309307
-0.28086
-0.248315
-0.230857
-0.548164
-0.54465
-0.539399
-0.5357
-0.525425
-0.482926
-0.437044
-0.405863
-0.376469
-0.364481
-0.628293
-0.621461
-0.608442
-0.592639
-0.56531
-0.534684
-0.512867
-0.496051
-0.470448
-0.456891
-0.639677
-0.635933
-0.626189
-0.612129
-0.591633
-0.580022
-0.571128
-0.560729
-0.543525
-0.528891
-0.643887
-0.642869
-0.638636
-0.632167
-0.625524
-0.624151
-0.620561
-0.61325
-0.60378
-0.590492
-0.673575
-0.673998
-0.67268
-0.670347
-0.668893
-0.668854
-0.669051
-0.664802
-0.660026
-0.647988
-0.720765
-0.720918
-0.720507
-0.720082
-0.720238
-0.721235
-0.72239
-0.719311
-0.716117
-0.706817
-0.771577
-0.771957
-0.772362
-0.773529
-0.775412
-0.77861
-0.783398
-0.777818
-0.773848
-0.766806
-0.822649
-0.823458
-0.824379
-0.827062
-0.831755
-0.842866
-0.851643
-0.838718
-0.832812
-0.825273
-0.873961
-0.874964
-0.876712
-0.879498
-0.884114
-0.897676
-0.907977
-0.894813
-0.884434
-0.87457
-0.924894
-0.925684
-0.927003
-0.929097
-0.933339
-0.943154
-0.947612
-0.935823
-0.927581
-0.922265
358.371
357.022
354.485
351.002
346.851
342.429
338.202
334.626
332.194
330.732
309.822
308.424
305.553
301.728
297.164
292.313
287.636
283.59
280.767
279.134
261.834
260.103
256.85
252.26
246.741
240.801
235.367
230.417
226.563
224.319
214.611
212.518
208.504
202.663
195.82
188.739
181.258
174.682
169.271
165.981
167.976
165.363
160.184
152.653
143.537
133.803
124.47
116.854
110.562
108.333
122.814
119.587
112.959
103.043
90.8462
77.948
65.8205
51.8966
36.3022
31.1982
79.4736
75.6393
67.1384
53.9286
37.7525
22.1222
11.0235
5.98005
3.02464
2.38779
37.4028
34.232
26.699
15.3303
5.41042
0.803874
-0.0237635
-0.026666
0.0686772
0.117176
5.35585
4.66509
2.83016
0.60234
-0.271563
-0.276684
-0.188127
-0.182808
-0.143835
-0.0951769
-0.431945
-0.469671
-0.498525
-0.521439
-0.505207
-0.46419
-0.386936
-0.34414
-0.303448
-0.270915
-0.631602
-0.634709
-0.630016
-0.622761
-0.603826
-0.551144
-0.476443
-0.442929
-0.409958
-0.388568
-0.710903
-0.712848
-0.698623
-0.678841
-0.643661
-0.580305
-0.53231
-0.512786
-0.487994
-0.472868
-0.721177
-0.717584
-0.700117
-0.671264
-0.634494
-0.600821
-0.582205
-0.569682
-0.552732
-0.540609
-0.689135
-0.68567
-0.673333
-0.653119
-0.634112
-0.626298
-0.624018
-0.617974
-0.60932
-0.598281
-0.691494
-0.689223
-0.682152
-0.673123
-0.666288
-0.665902
-0.669815
-0.666765
-0.662764
-0.653379
-0.729456
-0.72759
-0.723905
-0.72009
-0.718093
-0.720717
-0.725784
-0.720945
-0.71715
-0.710827
-0.775144
-0.774848
-0.773799
-0.773823
-0.776039
-0.782187
-0.787784
-0.780116
-0.774694
-0.772489
-0.823907
-0.824808
-0.825798
-0.828466
-0.833362
-0.845113
-0.852382
-0.843765
-0.837485
-0.83488
-0.874697
-0.875837
-0.877395
-0.880258
-0.887074
-0.901078
-0.910586
-0.901789
-0.897328
-0.88949
-0.92514
-0.926082
-0.927361
-0.929607
-0.935711
-0.947984
-0.955356
-0.94721
-0.94277
-0.932395
359.794
358.441
356.038
352.682
348.668
344.428
340.262
336.822
334.688
333.27
311.257
309.867
307.239
303.59
299.213
294.636
290.036
286.074
283.589
282.029
263.402
261.785
258.784
254.367
249.026
243.559
238.226
233.655
230.408
228.548
216.298
214.373
210.796
205.078
198.593
191.738
184.763
179.013
174.722
172.342
169.979
167.52
162.711
155.717
147.167
137.886
128.538
122.189
116.927
115.377
124.817
121.84
115.792
106.729
95.4107
83.4399
73.4802
62.3158
51.465
47.3653
80.7471
77.4634
69.8844
57.836
42.6042
27.6509
15.2489
9.38695
5.89741
5.89109
37.3527
34.6523
27.9412
17.7973
7.41038
1.95841
0.173085
-0.073903
-0.0375787
0.0627887
4.33507
4.0197
2.82753
1.10905
-0.225761
-0.371083
-0.267044
-0.219775
-0.19061
-0.127188
-0.464357
-0.482411
-0.495574
-0.511089
-0.527487
-0.49783
-0.441895
-0.391615
-0.346585
-0.298674
-0.585111
-0.590492
-0.59251
-0.59533
-0.583825
-0.544442
-0.492794
-0.460189
-0.433635
-0.409878
-0.651233
-0.652498
-0.648188
-0.639665
-0.622258
-0.585903
-0.544659
-0.519927
-0.499366
-0.486088
-0.685371
-0.686724
-0.680613
-0.667086
-0.641607
-0.615245
-0.590965
-0.571381
-0.557492
-0.549144
-0.689451
-0.687179
-0.677668
-0.660714
-0.646962
-0.636407
-0.626018
-0.610961
-0.607099
-0.602691
-0.705035
-0.702071
-0.694648
-0.685599
-0.677151
-0.673356
-0.668351
-0.655059
-0.657472
-0.656925
-0.739378
-0.737687
-0.733603
-0.729058
-0.726279
-0.726041
-0.722237
-0.707726
-0.714941
-0.715888
-0.781238
-0.781166
-0.779998
-0.779504
-0.780684
-0.784895
-0.782729
-0.770611
-0.780838
-0.782607
-0.827487
-0.828692
-0.82957
-0.831304
-0.835078
-0.842962
-0.843549
-0.837208
-0.850209
-0.852758
-0.876463
-0.877961
-0.879335
-0.881913
-0.887865
-0.898546
-0.902296
-0.900045
-0.909034
-0.909411
-0.925708
-0.927121
-0.928322
-0.930619
-0.936432
-0.947304
-0.953573
-0.951767
-0.952242
-0.94653
361.714
360.581
358.266
355.038
351.235
347.252
343.539
340.325
338.178
336.954
313.345
312.042
309.563
306.111
302.025
297.727
293.582
289.97
287.564
286.231
265.713
264.209
261.352
257.309
252.494
247.391
242.472
238.181
235.311
233.803
218.911
217.12
213.67
208.673
202.726
196.413
190.263
184.666
181.207
179.389
173.053
170.833
166.502
160.207
152.462
143.835
135.518
128.36
124.472
122.782
128.29
125.458
120.192
112.311
101.89
90.9172
80.4272
72.807
65.1038
62.4509
83.9458
81.3015
74.7596
64.4051
50.8592
35.7142
22.5532
14.2377
10.7114
11.1084
41.6432
39.0963
32.6033
23.1744
12.0865
4.21902
1.15546
0.115819
-0.0661362
0.0572172
7.73653
7.15507
5.01911
2.1754
0.0924075
-0.358085
-0.331562
-0.267842
-0.216208
-0.127206
-0.450842
-0.471339
-0.478329
-0.481874
-0.503585
-0.48084
-0.464096
-0.43832
-0.408794
-0.334462
-0.556737
-0.561826
-0.562748
-0.564225
-0.559976
-0.536468
-0.506779
-0.482564
-0.480979
-0.443942
-0.607203
-0.611278
-0.613326
-0.611624
-0.602956
-0.583716
-0.559524
-0.541038
-0.530857
-0.507054
-0.64731
-0.649685
-0.648559
-0.64345
-0.632951
-0.616804
-0.598117
-0.583907
-0.577567
-0.562685
-0.674941
-0.676177
-0.671593
-0.663638
-0.654834
-0.642982
-0.629807
-0.621804
-0.620522
-0.614309
-0.707352
-0.707768
-0.702545
-0.695689
-0.689147
-0.680661
-0.670204
-0.665297
-0.667558
-0.66122
-0.745414
-0.745568
-0.741985
-0.737782
-0.734059
-0.729469
-0.721241
-0.718628
-0.722175
-0.719441
-0.78638
-0.787206
-0.786155
-0.784979
-0.783633
-0.781854
-0.77817
-0.779061
-0.782773
-0.781875
-0.830457
-0.832602
-0.833178
-0.834105
-0.835384
-0.837479
-0.837022
-0.842743
-0.850222
-0.848249
-0.877583
-0.880033
-0.881184
-0.883306
-0.887086
-0.894024
-0.896964
-0.90363
-0.912063
-0.907692
-0.925614
-0.928196
-0.929256
-0.93143
-0.935534
-0.94345
-0.950213
-0.955968
-0.958179
-0.949474
363.944
362.91
360.84
357.705
354.303
350.671
347.33
344.338
342.277
341.151
315.824
314.637
312.347
309.122
305.371
301.419
297.661
294.317
292.096
290.874
268.559
267.175
264.535
260.831
256.447
251.796
247.339
243.304
240.659
239.473
222.323
220.636
217.452
212.934
207.533
201.803
196.407
191.799
188.768
186.772
177.267
175.187
171.241
165.561
158.622
151.055
143.488
137.586
133.281
131.97
133.509
130.945
126.046
118.876
109.887
100.141
90.6421
82.7829
77.3185
75.7325
90.3321
87.5854
81.6382
72.5504
61.1243
47.975
34.9866
25.8436
20.9284
21.1006
48.7305
46.1466
40.0052
30.7199
19.9072
9.26181
3.99485
1.65575
0.880187
0.917326
12.9417
12.27
9.51132
4.93909
1.13425
-0.20072
-0.356846
-0.335044
-0.289921
-0.130764
-0.407705
-0.469709
-0.474841
-0.470062
-0.482493
-0.459392
-0.458474
-0.463094
-0.464796
-0.386223
-0.533725
-0.540741
-0.542166
-0.540057
-0.539564
-0.520953
-0.518216
-0.514433
-0.54493
-0.491003
-0.576854
-0.581964
-0.583833
-0.582967
-0.580712
-0.573944
-0.569484
-0.569975
-0.59229
-0.537105
-0.62819
-0.62992
-0.628081
-0.624598
-0.620341
-0.613096
-0.608837
-0.610439
-0.617662
-0.582618
-0.670549
-0.671895
-0.666418
-0.660768
-0.654976
-0.646387
-0.641155
-0.641486
-0.639442
-0.625386
-0.712407
-0.713063
-0.706417
-0.700743
-0.694726
-0.686763
-0.681545
-0.679269
-0.67495
-0.665752
-0.75032
-0.751559
-0.747737
-0.743846
-0.739339
-0.733717
-0.730283
-0.727573
-0.723237
-0.718793
-0.787502
-0.791222
-0.790554
-0.789402
-0.787286
-0.784719
-0.783018
-0.783123
-0.778905
-0.775633
-0.829877
-0.834851
-0.835672
-0.836612
-0.836904
-0.837555
-0.837636
-0.840876
-0.840314
-0.836165
-0.876496
-0.881348
-0.882503
-0.884513
-0.886511
-0.889792
-0.892665
-0.895684
-0.895908
-0.889946
-0.924039
-0.928934
-0.9299
-0.932143
-0.934436
-0.938231
-0.942751
-0.945663
-0.945064
-0.939095
366.695
365.74
363.717
360.621
357.5
354.222
351.219
348.506
346.574
345.537
318.651
317.496
315.387
312.373
308.92
305.318
301.921
298.998
296.924
295.883
271.72
270.402
267.98
264.582
260.587
256.378
252.374
248.9
246.514
245.284
226.077
224.455
221.563
217.464
212.601
207.462
202.663
198.478
195.602
194.053
181.95
179.904
176.34
171.235
165.082
158.527
152.432
146.842
143.09
141.431
139.364
136.815
132.375
125.986
118.169
109.743
101.657
94.9595
90.2618
88.2399
97.754
94.9614
89.4929
81.3017
71.3931
60.8186
50.4001
41.5025
36.5204
36.2811
58.2355
55.4856
49.4426
40.0271
29.4003
19.4073
11.2653
6.52375
4.89851
5.28583
20.934
19.2751
16.1099
10.3773
4.38432
0.964304
-0.0623577
-0.266634
-0.285698
-0.125424
0.110835
-0.18163
-0.396462
-0.469292
-0.471939
-0.478561
-0.478637
-0.480878
-0.482136
-0.420331
-0.473041
-0.494574
-0.525249
-0.531783
-0.534473
-0.534689
-0.535901
-0.54386
-0.582807
-0.522555
-0.575914
-0.576006
-0.571289
-0.574051
-0.575477
-0.576216
-0.585895
-0.598413
-0.649971
-0.566648
-0.627789
-0.631404
-0.624896
-0.621574
-0.619151
-0.617095
-0.623566
-0.639605
-0.659429
-0.602263
-0.685169
-0.683399
-0.671568
-0.6641
-0.658579
-0.653054
-0.654142
-0.6593
-0.657693
-0.634533
-0.736465
-0.726907
-0.715222
-0.707079
-0.700524
-0.693809
-0.690769
-0.687025
-0.677383
-0.670438
-0.76561
-0.761295
-0.755259
-0.749965
-0.744687
-0.738999
-0.734624
-0.728952
-0.720674
-0.717014
-0.787845
-0.795104
-0.794877
-0.793685
-0.79091
-0.787449
-0.783945
-0.779833
-0.774068
-0.772387
-0.826184
-0.835968
-0.837921
-0.839106
-0.838539
-0.837359
-0.83569
-0.834139
-0.831023
-0.828589
-0.872545
-0.882408
-0.883893
-0.88588
-0.886583
-0.88699
-0.887016
-0.886658
-0.884544
-0.882161
-0.91744
-0.929708
-0.930588
-0.933075
-0.934144
-0.935032
-0.935746
-0.935807
-0.934179
-0.932194
369.14
368.342
366.425
363.855
360.883
357.863
354.904
352.42
350.647
349.665
321.558
320.363
318.328
315.569
312.361
309.042
305.919
303.311
301.403
300.481
274.74
273.471
271.272
268.159
264.508
260.675
257.06
253.982
251.84
250.666
229.585
228.033
225.518
221.775
217.367
212.745
208.417
204.769
202.251
200.894
186.308
184.342
181.233
176.61
171.116
165.318
159.865
155.244
152.069
150.511
144.97
142.475
138.544
132.716
125.839
118.564
111.865
106.127
102.279
100.529
105.464
102.567
97.5422
89.9645
81.0597
72.0637
63.7928
56.9194
52.6263
51.6887
68.8877
65.569
59.5425
50.3824
39.6882
29.9527
22.2851
16.643
13.7884
14.657
35.1968
31.4051
26.0664
16.8913
10.0057
4.47786
1.76458
0.811098
0.308466
0.536194
5.66666
4.51387
2.25725
-0.233477
-0.470773
-0.467968
-0.468825
-0.482396
-0.494755
-0.441544
-0.354989
-0.533023
-0.530283
-0.512949
-0.529751
-0.534954
-0.547048
-0.565372
-0.601346
-0.532584
-0.566316
-0.591734
-0.586717
-0.572966
-0.572966
-0.57855
-0.596884
-0.620383
-0.677899
-0.596014
-0.632336
-0.633238
-0.631385
-0.624562
-0.621642
-0.622298
-0.63642
-0.663098
-0.697238
-0.622577
-0.71166
-0.688405
-0.68287
-0.671081
-0.663849
-0.659395
-0.664193
-0.674155
-0.677037
-0.641192
-0.760759
-0.737311
-0.726867
-0.714781
-0.706187
-0.69931
-0.697073
-0.692787
-0.680719
-0.671853
-0.765201
-0.768876
-0.76376
-0.7566
-0.749661
-0.742898
-0.737811
-0.730657
-0.719902
-0.716103
-0.770158
-0.79816
-0.798536
-0.798362
-0.794738
-0.789775
-0.784921
-0.778703
-0.771887
-0.770532
-0.81981
-0.837432
-0.840889
-0.842432
-0.840892
-0.838095
-0.83477
-0.830682
-0.826449
-0.825005
-0.87353
-0.887781
-0.887189
-0.888168
-0.887715
-0.886406
-0.884458
-0.882006
-0.879408
-0.878199
-0.921162
-0.935894
-0.933893
-0.934896
-0.93484
-0.934241
-0.933081
-0.931569
-0.929991
-0.929244
371.066
370.39
368.755
366.428
363.523
360.685
357.985
355.723
354.118
353.338
323.383
322.613
320.906
318.283
315.231
312.138
309.265
306.953
305.191
304.345
277.096
276.059
274.327
271.157
267.825
264.288
260.98
258.257
256.355
255.436
232.407
231.09
229.009
225.451
221.393
217.157
213.239
210.12
207.883
206.711
189.696
188.092
185.45
181.182
176.146
170.885
165.989
162.056
159.427
158.085
149.341
147.343
143.941
138.497
132.159
125.632
119.652
114.999
111.999
110.587
111.49
109.056
104.567
97.4339
89.1772
81.0771
74.0612
68.8493
65.7061
64.8302
76.2201
73.4896
67.9309
59.413
49.0615
39.2955
31.682
26.8298
25.0568
26.2994
45.0559
40.9271
34.0367
25.9882
15.6901
9.04513
4.58365
2.49605
2.23278
3.45369
19.2923
14.0915
7.80696
2.2666
-0.39795
-0.471042
-0.463348
-0.469422
-0.475586
-0.373304
1.51915
0.0819459
-0.51855
-0.534259
-0.526077
-0.537681
-0.54753
-0.568656
-0.605124
-0.529742
-0.817431
-0.567097
-0.591572
-0.58925
-0.570363
-0.580875
-0.603752
-0.636192
-0.687571
-0.610851
-0.262164
-0.637047
-0.633769
-0.629604
-0.622574
-0.626407
-0.646514
-0.680687
-0.722356
-0.636397
-0.521676
-0.705258
-0.697903
-0.678856
-0.668234
-0.664431
-0.672933
-0.687193
-0.694923
-0.646458
-0.799225
-0.776307
-0.744275
-0.724548
-0.711997
-0.703741
-0.702605
-0.698483
-0.68711
-0.673386
-0.784698
-0.799544
-0.779324
-0.767578
-0.755735
-0.746465
-0.741294
-0.733082
-0.721744
-0.717405
-0.791386
-0.819396
-0.806938
-0.806596
-0.799953
-0.792374
-0.786575
-0.779413
-0.772266
-0.770536
-0.832578
-0.851484
-0.843953
-0.847093
-0.844396
-0.839844
-0.835304
-0.829858
-0.824492
-0.823817
-0.902149
-0.903169
-0.892388
-0.891351
-0.88989
-0.887218
-0.884198
-0.880783
-0.877824
-0.876456
-0.953881
-0.950068
-0.938142
-0.937469
-0.93632
-0.934707
-0.932744
-0.930571
-0.928703
-0.92789
372.91
372.083
370.282
368.125
365.364
362.637
360.124
358.036
356.571
355.869
325.346
324.396
322.582
320.281
317.186
314.326
311.599
309.451
307.871
307.099
278.606
277.972
276.086
273.397
270.23
266.866
263.735
261.288
259.56
258.76
233.735
233.328
231.201
228.038
224.26
220.265
216.644
213.919
211.885
210.894
190.674
190.782
188.233
184.408
179.711
174.773
170.262
166.707
164.563
163.461
150.147
150.579
147.614
142.594
136.629
130.511
124.941
121.02
118.651
117.527
112.574
113.273
109.485
102.649
94.7169
87.0999
80.5815
76.5774
74.6622
73.9261
76.9428
78.4214
74.1956
65.593
55.1901
45.5809
38.2663
33.8228
33.1533
35.3588
44.2014
46.6644
42.2322
31.4163
19.1324
12.1707
6.96881
3.85663
4.22788
6.93158
20.8454
20.2108
14.7482
4.43558
-0.178383
-0.473933
-0.461008
-0.463695
-0.446775
-0.279279
13.0962
2.60094
0.134324
-0.542573
-0.496973
-0.540627
-0.551402
-0.571893
-0.609259
-0.526598
13.9718
-0.604931
-0.582732
-0.602632
-0.579957
-0.583465
-0.608125
-0.645836
-0.697767
-0.618354
12.9437
-0.13724
-0.689525
-0.644303
-0.634173
-0.631506
-0.652691
-0.690264
-0.735056
-0.641827
5.79761
-0.378352
-0.733914
-0.701681
-0.682984
-0.668746
-0.678154
-0.694488
-0.702796
-0.648425
-0.680052
-0.710465
-0.76634
-0.746544
-0.724733
-0.705974
-0.704742
-0.702811
-0.692989
-0.675177
-0.810656
-0.839763
-0.806419
-0.788832
-0.768617
-0.748724
-0.741807
-0.734913
-0.725622
-0.720799
-0.702844
-0.875034
-0.841948
-0.828037
-0.813057
-0.79621
-0.787917
-0.780197
-0.773623
-0.771687
-0.596294
-0.871254
-0.86787
-0.861815
-0.853784
-0.843312
-0.8368
-0.830343
-0.824768
-0.823834
-0.666634
-0.922027
-0.91285
-0.899227
-0.89529
-0.889312
-0.88505
-0.880737
-0.876942
-0.875846
-0.705391
-0.958848
-0.955304
-0.941503
-0.939558
-0.935962
-0.933224
-0.930501
-0.928286
-0.927462
374.54
373.286
371.141
369.176
366.517
363.639
361.284
359.254
357.842
357.162
328.533
325.411
323.665
321.387
318.489
315.526
312.943
310.762
309.265
308.512
281.908
278.946
277.42
274.801
271.676
268.319
265.297
262.898
261.224
260.422
236.916
234.37
232.859
229.721
225.785
221.844
218.368
215.716
213.936
213.062
194.557
191.848
190.417
186.578
181.769
176.825
172.392
169.223
167.209
166.289
155.082
152.032
150.263
145.309
139.213
133.046
127.72
124.014
121.956
120.985
118.989
115.611
112.576
105.746
97.6159
89.9285
83.3664
79.8635
78.4272
78.2387
81.7958
82.2532
77.9678
68.8971
58.1245
48.3812
40.9423
36.6366
36.4973
39.4957
46.9612
51.0266
47.9643
34.6412
20.8975
13.2076
7.80374
4.321
5.04798
8.79101
28.3771
24.3253
20.7934
5.47184
0.0188665
-0.420962
-0.437772
-0.450122
-0.414243
-0.229976
22.6275
9.72088
1.38552
-0.387065
-0.482798
-0.534753
-0.549058
-0.573681
-0.613136
-0.522237
21.1075
9.33802
-1.0746
-0.594462
-0.574437
-0.581073
-0.60549
-0.649476
-0.704568
-0.620376
22.5854
11.2919
-0.464221
-0.635791
-0.61795
-0.625289
-0.647564
-0.69044
-0.734104
-0.641027
16.4043
7.53805
-0.507999
-0.687758
-0.666416
-0.658325
-0.670452
-0.689637
-0.697539
-0.646287
10.6494
1.41791
-0.645582
-0.745049
-0.714255
-0.697297
-0.69792
-0.699076
-0.690328
-0.674467
9.16221
-0.727378
-0.807623
-0.792577
-0.766328
-0.743671
-0.738049
-0.734619
-0.726957
-0.721769
10.0315
-0.66637
-0.85115
-0.831462
-0.823579
-0.796057
-0.787042
-0.781702
-0.775602
-0.772833
11.2328
-0.446429
-0.851485
-0.855363
-0.863574
-0.848055
-0.838896
-0.832251
-0.826284
-0.82429
9.14691
-0.944089
-0.90456
-0.898095
-0.89697
-0.890178
-0.886058
-0.881503
-0.877504
-0.876161
5.00558
-0.95662
-0.946497
-0.941041
-0.939962
-0.936558
-0.933867
-0.930949
-0.928608
-0.927681
374.265
372.719
370.986
369.093
366.363
363.589
361.274
359.222
357.794
357.05
328.67
325.338
323.395
321.314
318.385
315.447
312.858
310.705
309.245
308.454
282.18
278.954
277.197
274.686
271.539
268.176
265.2
262.829
261.194
260.358
237.209
234.387
232.725
229.616
225.757
221.861
218.328
215.675
213.912
213.005
194.559
191.828
190.337
186.553
181.779
176.824
172.312
169.203
167.182
166.224
154.743
151.919
150.246
145.409
139.316
133.083
127.793
124.02
121.918
120.975
118.277
115.463
112.781
106.104
97.9153
90.0191
83.3233
79.802
78.3793
78.2564
80.7108
82.2651
78.5566
69.8208
58.8778
48.7481
41.0684
36.5742
36.4067
39.4928
48.4204
51.6245
49.3721
36.7506
22.635
13.5009
7.81965
4.34217
5.10096
8.89057
34.4068
26.6546
23.526
7.3877
0.320532
-0.386298
-0.431443
-0.448205
-0.412215
-0.231696
29.1196
14.322
2.4981
-0.241606
-0.477966
-0.534352
-0.551349
-0.578952
-0.619406
-0.524335
26.5812
12.2282
-0.769312
-0.570915
-0.581675
-0.581744
-0.606342
-0.651793
-0.706774
-0.618814
18.6691
10.2229
-0.50772
-0.632663
-0.619357
-0.627735
-0.646944
-0.688824
-0.725323
-0.637145
12.2394
5.10787
-0.600545
-0.667389
-0.659117
-0.66205
-0.67126
-0.685311
-0.688559
-0.643129
6.87656
2.04193
-0.614227
-0.698219
-0.695078
-0.69511
-0.698424
-0.696895
-0.686821
-0.673142
3.90951
-0.947231
-0.311548
-0.773494
-0.74837
-0.738062
-0.735695
-0.733934
-0.726868
-0.721271
5.16526
-0.970091
-0.856249
-0.762079
-0.80016
-0.793947
-0.784358
-0.780708
-0.776176
-0.773059
5.5846
-0.878931
-0.887085
-0.912835
-0.856799
-0.849339
-0.839634
-0.832567
-0.827041
-0.82485
6.00257
-0.878162
-0.897463
-0.909452
-0.907568
-0.895804
-0.887856
-0.882538
-0.878349
-0.876808
10.0036
-0.909549
-0.934009
-0.937661
-0.94135
-0.937125
-0.9345
-0.931469
-0.929119
-0.928153
372.857
372.146
370.185
368.116
365.312
362.48
359.994
357.904
356.432
355.676
325.346
324.285
322.478
320.142
317.145
314.222
311.536
309.315
307.732
306.952
278.812
277.877
275.96
273.264
270.112
266.766
263.71
261.313
259.479
258.623
234.013
233.274
231.093
227.825
224.155
220.198
216.581
213.938
211.842
210.961
191.265
190.813
188.267
184.31
179.679
174.735
170.197
166.686
164.559
163.626
151.149
150.804
147.802
142.656
136.703
130.515
124.952
121
118.661
117.567
114.252
113.681
109.756
102.896
94.8925
87.032
80.3133
76.3133
74.4541
74.007
79.735
79.3147
74.6788
66.1348
55.7369
45.7591
38.1679
33.5783
33.0715
35.4593
47.4686
48.3595
42.8737
32.1848
19.9932
12.2266
6.91488
3.83826
4.33048
7.22873
23.2424
21.6842
15.1844
5.0638
-0.144738
-0.455033
-0.455382
-0.470491
-0.456571
-0.297268
13.8861
2.70436
0.0817305
-0.516973
-0.494201
-0.53513
-0.554797
-0.583411
-0.624304
-0.530944
11.6275
-0.250678
-0.575241
-0.582588
-0.574039
-0.578718
-0.609362
-0.650776
-0.702606
-0.613158
9.62936
0.245988
-0.645923
-0.625957
-0.622203
-0.625806
-0.646393
-0.684081
-0.714101
-0.629971
2.72927
-0.0246721
-0.710438
-0.679048
-0.667969
-0.663402
-0.669396
-0.678527
-0.679639
-0.639623
0.462491
-0.838522
-0.770937
-0.733849
-0.710165
-0.701826
-0.699296
-0.694071
-0.683781
-0.673036
0.808714
-0.802741
-0.749108
-0.781001
-0.746684
-0.743623
-0.738999
-0.733843
-0.726237
-0.721884
1.31208
-0.721685
-0.81612
-0.831514
-0.79396
-0.791714
-0.78642
-0.781293
-0.776071
-0.773469
-0.594096
-0.886221
-0.886897
-0.876677
-0.857539
-0.847818
-0.839019
-0.832437
-0.827282
-0.825452
-0.775103
-0.939119
-0.915479
-0.908191
-0.901589
-0.892417
-0.887425
-0.882767
-0.879011
-0.877497
-0.537379
-0.984571
-0.957416
-0.944269
-0.941948
-0.937787
-0.934789
-0.931853
-0.929518
-0.928669
370.951
370.18
368.613
366.277
363.38
360.496
357.786
355.508
353.921
353.162
323.461
322.502
320.767
318.148
315.082
311.965
309.077
306.68
304.973
304.14
277.082
275.997
274.184
271.087
267.679
264.124
260.815
258.075
256.175
255.282
232.481
231.152
229.02
225.338
221.252
216.998
213.046
209.888
207.697
206.505
189.97
188.267
185.52
181.111
176.041
170.753
165.782
161.933
159.321
157.913
149.757
147.642
144.115
138.518
132.124
125.556
119.629
114.944
112.021
110.565
111.975
109.517
104.7
97.4209
89.0582
80.8257
73.7115
68.6812
65.9943
65.0636
76.9556
74.3627
68.1949
59.5376
49.1369
39.1624
31.374
26.6161
25.3295
26.6875
46.5715
42.4879
34.2886
26.0142
15.6523
8.9077
4.55161
2.50945
2.41134
3.78762
20.3509
15.2101
7.58613
2.42328
-0.388364
-0.461538
-0.463924
-0.482368
-0.489971
-0.388066
1.52042
0.166874
-0.499636
-0.515107
-0.517136
-0.531943
-0.552778
-0.582789
-0.62295
-0.531261
-0.864871
-0.537585
-0.581372
-0.57738
-0.565589
-0.577976
-0.60751
-0.637816
-0.692404
-0.598661
-0.551119
-0.618857
-0.624733
-0.620711
-0.617908
-0.622778
-0.641479
-0.67179
-0.69141
-0.6184
-0.721857
-0.708888
-0.689238
-0.670494
-0.662559
-0.660491
-0.664169
-0.667119
-0.665484
-0.63548
-0.759445
-0.758149
-0.732659
-0.715272
-0.706228
-0.700837
-0.696731
-0.688935
-0.679829
-0.67329
-0.739773
-0.780811
-0.763832
-0.763948
-0.752725
-0.745366
-0.738998
-0.732479
-0.724672
-0.72243
-0.70722
-0.810144
-0.813697
-0.814261
-0.803703
-0.793902
-0.786982
-0.780689
-0.775287
-0.773813
-0.457914
-0.865475
-0.867143
-0.860009
-0.852358
-0.843779
-0.837629
-0.832077
-0.827169
-0.825958
-0.86291
-0.906391
-0.9047
-0.899982
-0.896124
-0.890894
-0.886803
-0.882885
-0.879595
-0.878181
-0.978892
-0.950444
-0.94945
-0.942411
-0.94058
-0.937488
-0.934832
-0.932235
-0.930122
-0.929307
369.149
368.215
366.291
363.816
360.475
357.506
354.64
352.168
350.425
349.642
321.459
320.205
318.152
315.397
312.113
308.777
305.658
303.068
301.134
300.221
274.375
273.248
271.064
267.97
264.291
260.437
256.798
253.695
251.572
250.474
229.385
227.826
225.332
221.576
217.152
212.505
208.133
204.449
201.948
200.557
186.235
184.241
181.09
176.436
170.917
165.102
159.653
155.021
151.843
150.205
144.968
142.474
138.46
132.574
125.666
118.36
111.778
105.96
102.191
100.301
105.428
102.636
97.3662
89.6469
80.6671
71.6404
63.4024
56.81
52.9671
51.7948
68.6381
65.8483
59.4796
50.3809
39.6044
29.6082
21.878
16.6471
14.2456
14.7238
34.9653
31.933
25.7209
16.5238
9.71109
4.3503
1.74631
0.829054
0.386902
0.622924
6.3027
4.78153
2.35412
-0.206568
-0.461081
-0.463575
-0.476695
-0.503474
-0.515345
-0.45023
-0.35255
-0.505822
-0.529176
-0.501046
-0.524902
-0.532986
-0.554589
-0.583409
-0.617608
-0.5295
-0.58076
-0.587854
-0.584687
-0.567875
-0.568269
-0.576608
-0.598001
-0.624699
-0.668997
-0.582013
-0.651288
-0.63605
-0.623407
-0.618588
-0.616043
-0.618442
-0.631119
-0.652166
-0.658833
-0.604074
-0.702056
-0.68814
-0.675233
-0.664908
-0.658924
-0.655808
-0.655607
-0.650279
-0.647185
-0.630861
-0.717042
-0.727497
-0.717387
-0.708681
-0.702275
-0.697248
-0.692238
-0.684436
-0.674939
-0.67238
-0.739809
-0.762442
-0.756507
-0.753699
-0.747276
-0.742276
-0.736631
-0.729661
-0.722751
-0.722283
-0.781602
-0.803556
-0.798564
-0.800787
-0.795591
-0.790858
-0.785922
-0.780104
-0.774929
-0.774483
-0.839056
-0.861556
-0.848793
-0.848705
-0.845303
-0.840904
-0.836961
-0.832664
-0.828457
-0.827374
-0.730741
-0.905289
-0.895478
-0.894932
-0.892716
-0.889566
-0.886772
-0.883789
-0.881049
-0.880041
-0.945476
-0.930426
-0.93918
-0.940506
-0.938967
-0.937071
-0.93508
-0.932954
-0.931111
-0.930374
366.469
365.496
363.443
360.454
357.228
353.878
350.917
348.158
346.204
345.139
318.491
317.246
315.132
312.132
308.634
304.988
301.587
298.706
296.554
295.551
271.383
270.116
267.712
264.319
260.306
256.068
252.027
248.533
246.1
244.849
225.735
224.169
221.292
217.187
212.309
207.139
202.276
198.046
195.151
193.548
181.678
179.662
176.078
170.957
164.79
158.214
152.077
146.489
142.693
140.879
139.073
136.611
132.122
125.702
117.853
109.372
101.175
94.6244
89.9346
87.3879
97.4803
94.7367
89.0507
80.7071
70.757
60.3132
50.0535
41.6578
36.887
36.1084
58.1014
55.4996
49.1705
39.7937
28.9175
18.9157
11.1242
6.76685
5.04206
4.68889
21.3871
19.5115
15.3358
9.73707
4.12786
0.913631
-0.0665403
-0.289775
-0.273933
-0.102419
0.113845
-0.156145
-0.394147
-0.475197
-0.480106
-0.484109
-0.493603
-0.505609
-0.499676
-0.419673
-0.485907
-0.494844
-0.52222
-0.532422
-0.536905
-0.536617
-0.544654
-0.560669
-0.595092
-0.51406
-0.576497
-0.568721
-0.568144
-0.569167
-0.572311
-0.573101
-0.584328
-0.603729
-0.62413
-0.550186
-0.627364
-0.621078
-0.618776
-0.616508
-0.61449
-0.613145
-0.617371
-0.625309
-0.620895
-0.585331
-0.679871
-0.671374
-0.665984
-0.660304
-0.655203
-0.650493
-0.646613
-0.638803
-0.633098
-0.627046
-0.716602
-0.713823
-0.709213
-0.703572
-0.698367
-0.692926
-0.686785
-0.678896
-0.671393
-0.671859
-0.749455
-0.753125
-0.751311
-0.748229
-0.743962
-0.739323
-0.733833
-0.727687
-0.721854
-0.72225
-0.789117
-0.796392
-0.796611
-0.795288
-0.792235
-0.788893
-0.785312
-0.781339
-0.776894
-0.776294
-0.846148
-0.850899
-0.846338
-0.84397
-0.841699
-0.83947
-0.837558
-0.835348
-0.832651
-0.830663
-0.892945
-0.899105
-0.893549
-0.891717
-0.890297
-0.889041
-0.888148
-0.886972
-0.88503
-0.882726
-0.926292
-0.943012
-0.939652
-0.938773
-0.937839
-0.936967
-0.936196
-0.93526
-0.933831
-0.932395
363.746
362.594
360.558
357.491
353.941
350.299
346.808
343.833
341.766
340.623
315.565
314.341
312.048
308.827
305.025
301.01
297.214
293.857
291.58
290.373
268.233
266.855
264.218
260.51
256.113
251.442
246.906
242.871
240.052
238.884
221.967
220.296
217.11
212.595
207.193
201.414
195.927
191.199
188.145
186.117
176.937
174.839
170.884
165.208
158.295
150.674
143.126
137.122
132.745
131.259
132.985
130.55
125.655
118.456
109.479
99.7675
90.4419
82.3796
76.6322
75.0412
89.8609
87.0654
80.9514
71.7272
60.3453
47.6321
35.2543
26.5635
21.1507
20.4394
48.4981
45.8974
39.5919
30.1399
19.2892
9.22817
4.02368
1.79384
0.875683
0.615541
13.2083
12.1665
9.00517
4.68273
1.06993
-0.207851
-0.36635
-0.342802
-0.258909
-0.111055
-0.425736
-0.458197
-0.475187
-0.481076
-0.495107
-0.478902
-0.472576
-0.46344
-0.463104
-0.368356
-0.53853
-0.536789
-0.540145
-0.536434
-0.541008
-0.522968
-0.518459
-0.51301
-0.535928
-0.469733
-0.583004
-0.581664
-0.581431
-0.576789
-0.573641
-0.566273
-0.564424
-0.571799
-0.565992
-0.518579
-0.63332
-0.628636
-0.625323
-0.619469
-0.613598
-0.606463
-0.602445
-0.602458
-0.594382
-0.572016
-0.673653
-0.667469
-0.663706
-0.657783
-0.651388
-0.644217
-0.637343
-0.630476
-0.627156
-0.622389
-0.709511
-0.707078
-0.703787
-0.699086
-0.693755
-0.687707
-0.681442
-0.676189
-0.671439
-0.670278
-0.745161
-0.747226
-0.745751
-0.743267
-0.739781
-0.735551
-0.73111
-0.728241
-0.724006
-0.724013
-0.786214
-0.791405
-0.791234
-0.790489
-0.788886
-0.786901
-0.785507
-0.785328
-0.783603
-0.781325
-0.836612
-0.840003
-0.839961
-0.839387
-0.839106
-0.839129
-0.840357
-0.841322
-0.841985
-0.838904
-0.886585
-0.887274
-0.8883
-0.888056
-0.888592
-0.889984
-0.893016
-0.895207
-0.895523
-0.891191
-0.934728
-0.936088
-0.936451
-0.936369
-0.936693
-0.937785
-0.940265
-0.942272
-0.941988
-0.938012
361.45
360.186
357.904
354.752
350.937
346.841
343.016
339.657
337.549
336.321
313.031
311.695
309.214
305.766
301.663
297.268
293.047
289.359
286.932
285.57
265.364
263.86
260.989
256.933
252.125
246.97
241.946
237.559
234.618
233.079
218.524
216.75
213.272
208.298
202.381
195.979
189.52
184.088
180.463