/*--------------------------------*- C++ -*----------------------------------*\
| =========                 |                                                 |
| \\      /  F ield         | OpenFOAM: The Open Source CFD Toolbox           |
|  \\    /   O peration     | Version:  2312                                  |
|   \\  /    A nd           | Website:  www.openfoam.com                      |
|    \\/     M anipulation  |                                                 |
\*---------------------------------------------------------------------------*/
FoamFile
{
    version     2.0;
    format      ascii;
    arch        "LSB;label=32;scalar=64";
    class       volScalarField;
    location    "0.12";
    object      p;
}
// * * * * * * * * * * * * * * * * * * * * * * * * * * * * * * * * * * * * * //

dimensions      [1 -1 -2 0 0 0 0];

internalField   nonuniform List<scalar> 
8000
(
386.518
386.898
387.632
388.667
389.92
391.282
392.619
393.785
394.638
395.066
336.701
337.073
337.792
338.808
340.041
341.386
342.711
343.871
344.723
345.152
286.134
286.487
287.172
288.142
289.327
290.627
291.917
293.055
293.896
294.322
234.854
235.174
235.797
236.685
237.777
238.986
240.197
241.275
242.08
242.491
182.926
183.196
183.724
184.48
185.416
186.464
187.525
188.483
189.206
189.578
130.453
130.653
131.046
131.613
132.321
133.12
133.941
134.692
135.267
135.566
77.5764
77.69
77.913
78.2364
78.6439
79.1097
79.5947
80.0456
80.3969
80.5826
24.0341
24.0375
24.0448
24.0568
24.0742
24.0978
24.1278
24.1622
24.1949
24.215
-0.578514
-0.576738
-0.572506
-0.565079
-0.553297
-0.535859
-0.512043
-0.483144
-0.45447
-0.436344
-0.66265
-0.661018
-0.657306
-0.650684
-0.639954
-0.623735
-0.601121
-0.573113
-0.544734
-0.526347
-0.713174
-0.711529
-0.707908
-0.701625
-0.691742
-0.677253
-0.65768
-0.634239
-0.611349
-0.597077
-0.768097
-0.766674
-0.763594
-0.75837
-0.75039
-0.739081
-0.724377
-0.707504
-0.691768
-0.6824
-0.826682
-0.825569
-0.823186
-0.81921
-0.813281
-0.805132
-0.794911
-0.78364
-0.773552
-0.767762
-0.888052
-0.887249
-0.885531
-0.882681
-0.878487
-0.872841
-0.865944
-0.858561
-0.852147
-0.848543
-0.951414
-0.950895
-0.949767
-0.947862
-0.945039
-0.94124
-0.936634
-0.931766
-0.92759
-0.925255
-1.01607
-1.01583
-1.01526
-1.01421
-1.01255
-1.01022
-1.00732
-1.00419
-1.00148
-0.999946
-1.08138
-1.08143
-1.08145
-1.08128
-1.08079
-1.07987
-1.07852
-1.0769
-1.07539
-1.07451
-1.14669
-1.14707
-1.14774
-1.14857
-1.14937
-1.14999
-1.1503
-1.15029
-1.15006
-1.14988
-1.21128
-1.21202
-1.21342
-1.21532
-1.21754
-1.21985
-1.222
-1.22378
-1.22501
-1.22567
-1.27443
-1.27552
-1.27763
-1.2806
-1.28423
-1.28824
-1.29226
-1.29588
-1.29866
-1.30021
386.905
387.32
388.122
389.258
390.641
392.153
393.648
394.96
395.926
396.414
337.08
337.487
338.276
339.396
340.764
342.268
343.762
345.08
346.056
346.551
286.493
286.882
287.639
288.719
290.047
291.519
292.996
294.313
295.297
295.8
235.18
235.536
236.231
237.23
238.471
239.862
241.277
242.558
243.528
244.03
183.201
183.504
184.099
184.959
186.04
187.269
188.539
189.71
190.612
191.086
130.657
130.884
131.331
131.983
132.811
133.767
134.774
135.72
136.465
136.863
77.6918
77.8208
78.0762
78.4515
78.9335
79.4984
80.1051
80.6897
81.1628
81.4217
24.0374
24.0408
24.0483
24.0606
24.0788
24.1046
24.1396
24.1831
24.2288
24.2602
-0.576908
-0.575379
-0.57162
-0.5648
-0.55342
-0.53533
-0.508313
-0.471956
-0.431666
-0.402923
-0.661193
-0.659784
-0.656478
-0.650345
-0.639833
-0.62272
-0.596569
-0.560537
-0.519543
-0.489398
-0.711688
-0.710239
-0.706977
-0.701156
-0.691596
-0.676712
-0.655027
-0.626699
-0.596311
-0.575395
-0.766812
-0.765582
-0.762868
-0.758167
-0.750736
-0.739685
-0.724416
-0.705658
-0.686906
-0.674966
-0.825685
-0.824749
-0.822703
-0.819224
-0.813885
-0.806244
-0.796166
-0.784425
-0.773343
-0.766666
-0.88734
-0.886677
-0.885217
-0.882743
-0.878996
-0.873758
-0.867069
-0.859567
-0.852753
-0.848739
-0.950963
-0.950537
-0.949569
-0.947883
-0.945291
-0.941659
-0.937058
-0.931969
-0.927408
-0.92469
-1.01587
-1.01569
-1.01519
-1.01423
-1.01264
-1.01026
-1.00715
-1.00362
-1.00039
-0.998373
-1.08146
-1.08155
-1.08161
-1.08149
-1.081
-1.07996
-1.07833
-1.07625
-1.07418
-1.07276
-1.14708
-1.14751
-1.14826
-1.14918
-1.15006
-1.15068
-1.15087
-1.15059
-1.14997
-1.14936
-1.21203
-1.21285
-1.2144
-1.21652
-1.21901
-1.22161
-1.22402
-1.22597
-1.22724
-1.22774
-1.27553
-1.27675
-1.27911
-1.28247
-1.28662
-1.29126
-1.29601
-1.30037
-1.30377
-1.30558
387.653
388.136
389.075
390.414
392.058
393.877
395.695
397.31
398.513
399.126
337.813
338.29
339.22
340.55
342.194
344.024
345.867
347.518
348.757
349.393
287.191
287.652
288.555
289.857
291.482
293.313
295.186
296.889
298.185
298.859
235.814
236.243
237.087
238.315
239.869
241.652
243.512
245.24
246.584
247.295
183.738
184.108
184.843
185.923
187.313
188.939
190.679
192.34
193.668
194.387
131.057
131.338
131.899
132.734
133.826
135.132
136.568
137.983
139.152
139.804
77.9186
78.0801
78.4041
78.8913
79.5385
80.3305
81.2277
82.1464
82.9391
83.3993
24.0445
24.048
24.0558
24.0684
24.0881
24.1182
24.1636
24.2286
24.3099
24.3788
-0.573023
-0.571988
-0.569252
-0.563937
-0.553977
-0.535348
-0.50188
-0.447739
-0.373343
-0.30391
-0.657837
-0.656853
-0.654414
-0.649488
-0.639962
-0.621862
-0.588957
-0.535184
-0.461792
-0.39312
-0.708384
-0.707313
-0.704835
-0.700178
-0.691832
-0.677124
-0.652309
-0.614654
-0.567694
-0.529532
-0.764009
-0.763159
-0.76125
-0.757818
-0.751991
-0.742334
-0.727127
-0.705847
-0.681847
-0.66457
-0.823531
-0.822943
-0.821627
-0.819301
-0.815478
-0.809423
-0.800407
-0.788581
-0.77622
-0.767939
-0.885803
-0.885405
-0.884488
-0.882842
-0.880149
-0.875994
-0.870071
-0.862688
-0.855353
-0.850509
-0.949966
-0.949705
-0.949056
-0.947816
-0.945718
-0.942469
-0.93792
-0.932397
-0.927015
-0.923343
-1.01539
-1.01528
-1.01493
-1.01413
-1.01259
-1.01004
-1.00637
-1.00181
-0.997261
-0.993939
-1.08153
-1.08167
-1.0818
-1.08172
-1.08113
-1.07972
-1.07732
-1.07401
-1.07042
-1.06746
-1.14778
-1.14829
-1.14918
-1.15024
-1.15119
-1.1517
-1.15148
-1.1504
-1.14867
-1.14665
-1.21344
-1.21441
-1.21626
-1.21882
-1.22183
-1.22498
-1.22786
-1.23009
-1.23136
-1.23117
-1.27764
-1.27912
-1.282
-1.28616
-1.2914
-1.29742
-1.30375
-1.30979
-1.31473
-1.31702
388.71
389.294
390.436
392.078
394.118
396.405
398.725
400.816
402.394
403.208
338.849
339.431
340.572
342.221
344.286
346.623
349.02
351.207
352.876
353.745
288.181
288.752
289.878
291.522
293.611
296.017
298.538
300.888
302.721
303.694
236.72
237.26
238.334
239.923
241.983
244.414
247.034
249.555
251.581
252.684
184.508
184.984
185.939
187.375
189.278
191.591
194.173
196.755
198.914
200.133
131.634
132.001
132.745
133.883
135.427
137.362
139.609
141.961
144.026
145.244
78.2481
78.4616
78.8978
79.5743
80.5127
81.7281
83.2036
84.8398
86.3742
87.3336
24.0561
24.0599
24.0679
24.0811
24.1022
24.1373
24.1994
24.3165
24.5056
24.6325
-0.566107
-0.565768
-0.56466
-0.562238
-0.556081
-0.53922
-0.496671
-0.396033
-0.194945
0.00202466
-0.651736
-0.651323
-0.650205
-0.647569
-0.640995
-0.624166
-0.583905
-0.497399
-0.337224
-0.157996
-0.702566
-0.702027
-0.700809
-0.698441
-0.69345
-0.682046
-0.656737
-0.608051
-0.534199
-0.464086
-0.75919
-0.758917
-0.75835
-0.757343
-0.755235
-0.750195
-0.738877
-0.718225
-0.6904
-0.667294
-0.81989
-0.819839
-0.819726
-0.819486
-0.818766
-0.816602
-0.811375
-0.801971
-0.79006
-0.779948
-0.883212
-0.883215
-0.88316
-0.882918
-0.882175
-0.880301
-0.876442
-0.870225
-0.863004
-0.856617
-0.948246
-0.948217
-0.948034
-0.947469
-0.946154
-0.943567
-0.939197
-0.933017
-0.926326
-0.920353
-1.01446
-1.01445
-1.01426
-1.01358
-1.01198
-1.00893
-1.004
-0.997277
-0.990029
-0.983318
-1.08142
-1.08161
-1.08179
-1.08163
-1.08065
-1.0783
-1.07411
-1.06805
-1.06111
-1.05396
-1.14863
-1.14923
-1.15026
-1.15143
-1.1523
-1.15232
-1.15095
-1.14791
-1.14359
-1.13758
-1.21534
-1.21654
-1.21882
-1.22199
-1.22575
-1.22964
-1.23313
-1.23565
-1.23681
-1.23429
-1.28062
-1.28248
-1.28616
-1.29158
-1.29859
-1.30693
-1.3161
-1.32534
-1.33371
-1.33659
389.992
390.707
392.112
394.151
396.716
399.633
402.643
405.4
407.511
408.614
340.111
340.829
342.247
344.319
346.953
349.987
353.166
356.127
358.433
359.653
289.393
290.108
291.532
293.642
296.377
299.605
303.082
306.421
309.103
310.564
237.836
238.526
239.915
242.012
244.801
248.205
252.016
255.831
259.018
260.815
185.466
186.086
187.352
189.303
191.981
195.378
199.366
203.573
207.289
209.503
132.357
132.846
133.855
135.446
137.7
140.686
144.386
148.541
152.46
154.942
78.6644
78.9528
79.555
80.5236
81.9394
83.9036
86.4994
89.6701
92.9407
95.2036
24.0731
24.0775
24.0866
24.1008
24.1224
24.1603
24.2523
24.4628
24.5197
23.9165
-0.554928
-0.555209
-0.555942
-0.55782
-0.559592
-0.551672
-0.490307
-0.268283
0.0593722
0.17697
-0.641622
-0.641632
-0.641888
-0.64265
-0.642948
-0.636806
-0.59947
-0.4692
-0.205153
0.0338205
-0.693234
-0.693191
-0.693508
-0.694845
-0.697327
-0.697956
-0.685341
-0.644072
-0.576759
-0.522247
-0.751694
-0.752105
-0.753382
-0.756341
-0.7616
-0.768149
-0.771073
-0.764431
-0.751964
-0.742375
-0.814364
-0.814996
-0.816563
-0.819584
-0.824373
-0.83022
-0.834378
-0.833373
-0.828394
-0.818629
-0.879328
-0.879837
-0.880935
-0.882736
-0.885111
-0.887326
-0.887733
-0.884575
-0.879512
-0.869576
-0.945636
-0.945872
-0.946237
-0.946502
-0.946186
-0.944478
-0.940308
-0.93286
-0.924172
-0.912165
-1.01293
-1.01299
-1.01288
-1.01216
-1.01009
-1.00572
-0.998132
-0.986926
-0.974285
-0.9587
-1.08099
-1.08117
-1.08126
-1.08071
-1.07871
-1.07419
-1.06615
-1.05416
-1.03998
-1.02148
-1.14945
-1.15011
-1.15121
-1.15229
-1.15261
-1.15123
-1.14707
-1.13949
-1.12917
-1.11196
-1.21756
-1.21902
-1.22182
-1.22572
-1.23031
-1.23504
-1.23905
-1.24155
-1.24222
-1.23314
-1.28425
-1.28663
-1.2914
-1.29858
-1.3082
-1.3202
-1.33415
-1.34925
-1.36511
-1.36992
391.391
392.258
393.972
396.482
399.68
403.374
407.25
410.872
413.695
415.19
341.493
342.371
344.117
346.699
350.035
353.951
358.146
362.147
365.343
367.07
290.728
291.617
293.403
296.092
299.652
303.965
308.754
313.507
317.466
319.69
239.077
239.951
241.735
244.484
248.251
253.015
258.578
264.407
269.488
272.475
186.54
187.344
189.011
191.654
195.421
200.437
206.663
213.645
220.222
224.44
133.177
133.824
135.187
137.411
140.721
145.39
151.617
159.189
166.941
172.322
79.142
79.5307
80.362
81.7568
83.9241
87.1877
91.9674
98.524
106.232
112.559
24.0965
24.1028
24.1153
24.133
24.1555
24.2041
24.3479
24.2094
22.2224
18.5065
-0.537975
-0.537988
-0.539054
-0.544289
-0.556966
-0.550675
-0.397125
-0.141095
-0.0641007
-0.259197
-0.625913
-0.625402
-0.625529
-0.629104
-0.642218
-0.666976
-0.665267
-0.60668
-0.59001
-0.694723
-0.679216
-0.679096
-0.680293
-0.686093
-0.702034
-0.73294
-0.7768
-0.844896
-0.952895
-1.05088
-0.740826
-0.741741
-0.744929
-0.753281
-0.77096
-0.801027
-0.839978
-0.883697
-0.935913
-0.971385
-0.806601
-0.80791
-0.811403
-0.818783
-0.832028
-0.851821
-0.874169
-0.890802
-0.903798
-0.90026
-0.873983
-0.875005
-0.877389
-0.881729
-0.88841
-0.896883
-0.904387
-0.90512
-0.901631
-0.886321
-0.942037
-0.942498
-0.943354
-0.944403
-0.94505
-0.944109
-0.939648
-0.928001
-0.912099
-0.889021
-1.0107
-1.01074
-1.01051
-1.00931
-1.00593
-0.998656
-0.985632
-0.964381
-0.939025
-0.903721
-1.0801
-1.08016
-1.07988
-1.07837
-1.07415
-1.06521
-1.04936
-1.02432
-0.994677
-0.946114
-1.15005
-1.1507
-1.15167
-1.15221
-1.15107
-1.14647
-1.13623
-1.11793
-1.09514
-1.04745
-1.21983
-1.22157
-1.22489
-1.22951
-1.23488
-1.2403
-1.24453
-1.2459
-1.24797
-1.22628
-1.28824
-1.29125
-1.29738
-1.30687
-1.32013
-1.33783
-1.36025
-1.38633
-1.42263
-1.44478
392.772
393.799
395.842
398.859
402.753
407.318
412.202
416.843
420.518
422.491
342.861
343.911
346.012
349.155
353.278
358.217
363.631
368.938
373.272
375.664
292.06
293.138
295.326
298.671
303.196
308.829
315.277
321.978
327.752
331.108
240.326
241.409
243.644
247.164
252.131
258.657
266.629
275.38
283.574
288.715
187.636
188.652
190.795
194.291
199.476
206.743
216.322
227.811
239.422
247.644
134.024
134.859
136.658
139.704
144.48
151.69
162.119
175.964
191.597
204.168
79.6427
80.1551
81.2814
83.2617
86.5595
92.0177
101.05
115.583
136.165
156.726
24.1269
24.1378
24.1596
24.1913
24.2402
24.3314
24.0908
22.7996
27.5181
48.2774
-0.514098
-0.511334
-0.507046
-0.505889
-0.50436
-0.40798
-0.196301
-0.131722
-0.476321
0.148878
-0.603295
-0.599709
-0.594388
-0.593901
-0.617515
-0.687539
-0.822267
-1.18071
-2.00087
-2.72146
-0.65971
-0.657895
-0.657067
-0.664767
-0.69819
-0.792108
-0.987188
-1.27011
-1.57905
-1.71347
-0.7263
-0.726983
-0.731049
-0.744836
-0.779291
-0.848355
-0.95508
-1.07139
-1.23345
-1.23037
-0.796604
-0.79829
-0.803376
-0.815439
-0.839327
-0.878671
-0.928925
-0.97083
-1.03631
-1.01099
-0.867284
-0.868662
-0.872127
-0.879011
-0.890556
-0.906813
-0.925069
-0.930804
-0.946244
-0.893629
-0.937561
-0.938106
-0.939178
-0.940631
-0.941711
-0.940772
-0.935941
-0.917419
-0.904474
-0.844488
-1.00784
-1.0077
-1.00696
-1.00456
-0.998523
-0.985841
-0.963333
-0.92326
-0.889389
-0.805916
-1.07871
-1.0785
-1.07742
-1.07406
-1.06584
-1.0489
-1.0181
-0.965518
-0.925179
-0.798998
-1.15029
-1.15081
-1.15131
-1.15059
-1.14645
-1.13549
-1.11198
-1.06772
-1.0389
-0.899412
-1.22192
-1.22388
-1.22763
-1.23276
-1.2385
-1.24395
-1.24621
-1.24096
-1.26817
-1.1765
-1.29222
-1.29594
-1.30364
-1.31592
-1.33394
-1.3601
-1.39635
-1.44132
-1.54579
-1.56312
393.987
395.164
397.516
401.02
405.592
411.034
416.945
422.65
427.239
429.737
344.07
345.282
347.723
351.413
356.324
362.317
369.048
375.793
381.43
384.609
293.245
294.507
297.09
301.096
306.627
313.689
322.103
331.113
339.176
344.034
241.449
242.738
245.432
249.761
256.045
264.61
275.526
288.335
300.909
309.271
188.632
189.867
192.513
196.948
203.786
213.861
227.973
246.24
266.464
281.902
134.806
135.842
138.121
142.124
148.732
159.401
176.159
200.709
232.347
262.258
80.1129
80.7629
82.2321
84.9461
89.8036
98.6927
115.81
148.636
198.19
250.166
24.1629
24.1829
24.2262
24.3134
24.4422
24.1325
22.8063
36.7404
103.62
207.706
-0.483988
-0.473761
-0.451595
-0.402965
-0.282453
-0.164539
-0.151733
1.19044
11.0047
23.0585
-0.574188
-0.562742
-0.540535
-0.511026
-0.508394
-0.680524
-1.23167
-1.8923
-1.53708
0.566695
-0.635497
-0.629057
-0.619878
-0.619624
-0.670585
-0.891748
-1.30007
-1.6063
-1.59992
-1.35393
-0.709053
-0.708135
-0.71052
-0.726923
-0.779665
-0.905739
-1.08656
-1.19866
-1.27758
-1.16924
-0.785216
-0.786656
-0.792237
-0.807854
-0.842
-0.902052
-0.979424
-1.04218
-1.07895
-1.05875
-0.859891
-0.861297
-0.865238
-0.873916
-0.8894
-0.911358
-0.936458
-0.953301
-0.960753
-0.946752
-0.932687
-0.933093
-0.933917
-0.935025
-0.935213
-0.930955
-0.919649
-0.897145
-0.881293
-0.84116
-1.00467
-1.00415
-1.00243
-0.997925
-0.987369
-0.964772
-0.923107
-0.852724
-0.808811
-0.695105
-1.07699
-1.0763
-1.07395
-1.0677
-1.05318
-1.02251
-0.962701
-0.843828
-0.765617
-0.527201
-1.15014
-1.15036
-1.14997
-1.14707
-1.13788
-1.11525
-1.06371
-0.940962
-0.880904
-0.496069
-1.22358
-1.22568
-1.22961
-1.23485
-1.24025
-1.24399
-1.23771
-1.19057
-1.22225
-0.852831
-1.29577
-1.3002
-1.30952
-1.32496
-1.34882
-1.38608
-1.43977
-1.49141
-1.65332
-1.5325
394.892
396.186
398.783
402.675
407.798
413.972
420.755
427.388
432.799
435.78
344.973
346.313
349.027
353.162
358.731
365.64
373.535
381.601
388.49
392.457
294.136
295.547
298.454
303.016
309.424
317.801
328.065
339.395
349.866
356.402
242.302
243.763
246.845
251.879
259.36
269.865
283.955
301.2
318.918
331.294
189.398
190.819
193.907
199.203
207.643
220.645
239.863
266.852
298.581
324.193
135.415
136.629
139.349
144.279
152.794
167.382
192.195
232.895
290.613
343.678
80.4862
81.2639
83.0675
86.551
93.1928
106.643
136.992
198.808
293.376
423.044
24.1988
24.2329
24.3168
24.515
24.4213
21.8374
28.4944
106.829
296.699
564.71
-0.452548
-0.429493
-0.367979
-0.176517
0.0559399
-0.102163
-0.428479
11.9161
68.969
149.608
-0.543224
-0.518323
-0.46138
-0.343408
-0.26038
-0.725477
-1.97827
-1.1257
7.68054
19.1731
-0.610736
-0.596463
-0.570268
-0.544987
-0.619658
-1.02986
-1.5743
-1.47859
-0.846556
-0.441829
-0.692244
-0.688311
-0.685742
-0.699759
-0.772998
-0.969304
-1.23834
-1.25115
-1.27519
-1.23592
-0.774586
-0.775122
-0.779767
-0.796621
-0.838817
-0.919357
-1.04994
-1.08943
-1.05238
-0.923345
-0.853207
-0.854296
-0.857971
-0.867241
-0.885204
-0.910957
-0.957536
-0.972789
-0.930951
-0.695603
-0.928344
-0.928412
-0.928557
-0.928606
-0.926938
-0.917504
-0.910656
-0.890374
-0.908951
-0.679232
-1.0018
-1.00077
-0.99775
-0.990514
-0.974288
-0.939663
-0.89126
-0.807778
-0.921888
-0.599409
-1.07531
-1.07403
-1.07006
-1.06018
-1.03768
-0.990499
-0.918966
-0.758184
-0.99837
-0.498663
-1.14974
-1.14951
-1.14784
-1.14198
-1.12587
-1.08913
-1.0282
-0.872773
-1.20479
-0.528665
-1.22467
-1.22674
-1.2305
-1.23533
-1.23963
-1.24404
-1.2597
-1.22982
-1.48986
-0.73728
-1.29845
-1.30344
-1.31418
-1.33292
-1.3643
-1.42342
-1.54535
-1.66747
-1.68039
-0.798769
395.369
396.728
399.46
403.568
409.004
415.595
422.885
430.073
435.987
439.269
345.451
346.862
349.728
354.113
360.056
367.511
376.112
385.01
392.718
397.222
294.61
296.104
299.195
304.08
311.013
320.205
331.669
344.573
356.78
364.602
242.759
244.318
247.626
253.083
261.31
273.096
289.446
310.036
331.87
347.849
189.812
191.343
194.696
200.529
210.031
225.136
248.588
282.956
325.006
360.71
135.748
137.069
140.065
145.603
155.462
173.074
205.315
263.452
344.048
422.675
80.6938
81.5523
83.5767
87.5971
95.6292
113.417
158.381
250.291
422.739
692.932
24.2228
24.271
24.4056
24.6439
23.5733
17.7108
51.4444
215.602
567.96
941.888
-0.430807
-0.394407
-0.278916
0.056654
0.185183
-0.340527
-0.00109948
25.0311
161.316
346.391
-0.521428
-0.482536
-0.379422
-0.137912
0.00645065
-0.826556
-2.62049
1.25015
19.4007
58.7333
-0.594006
-0.571952
-0.525687
-0.467704
-0.570349
-1.12235
-1.64127
-1.16243
-0.444965
6.61451
-0.681424
-0.674553
-0.666067
-0.67507
-0.769392
-1.01325
-1.23357
-1.11942
-1.22001
2.2337
-0.768006
-0.767572
-0.770606
-0.786298
-0.832039
-0.924934
-1.02437
-1.0575
-0.923581
2.75089
-0.849172
-0.849851
-0.852802
-0.861031
-0.877233
-0.901203
-0.913321
-0.966201
-0.703538
3.17985
-0.925742
-0.925441
-0.924715
-0.922745
-0.91585
-0.896624
-0.854118
-0.862146
-0.673601
3.19065
-1.00005
-0.998544
-0.994225
-0.983639
-0.958546
-0.903295
-0.803604
-0.68845
-0.583029
3.26314
-1.07424
-1.0724
-1.0668
-1.05253
-1.01787
-0.93721
-0.784146
-0.492265
-0.47493
3.28305
-1.14939
-1.14867
-1.14544
-1.13523
-1.10672
-1.03528
-0.878085
-0.442125
-0.489416
3.03912
-1.22517
-1.22701
-1.2299
-1.23203
-1.22871
-1.21758
-1.16329
-0.825782
-0.673878
2.46661
-1.29991
-1.30506
-1.31609
-1.33512
-1.3678
-1.44257
-1.56256
-1.54981
-0.7763
1.69563
395.354
396.712
399.44
403.544
408.972
415.554
422.832
430.005
435.902
439.169
345.436
346.846
349.708
354.088
360.023
367.465
376.05
384.925
392.605
397.081
294.596
296.088
299.176
304.053
310.975
320.15
331.586
344.447
356.594
364.345
242.746
244.302
247.606
253.054
261.266
273.023
289.324
309.823
331.507
347.277
189.8
191.329
194.677
200.499
209.978
225.041
248.398
282.567
324.243
359.385
135.739
137.058
140.047
145.573
155.401
172.944
205.019
262.723
342.384
419.378
80.6878
81.5445
83.5638
87.57
95.5597
113.222
157.819
248.788
419.161
684.161
24.2216
24.2692
24.4027
24.6352
23.5306
17.5818
51.1007
216.331
572.915
950.454
-0.431902
-0.396028
-0.281659
0.0534522
0.176751
-0.31148
-0.0482018
24.6247
162.182
347.238
-0.522521
-0.484433
-0.383899
-0.149
-0.0147404
-0.839246
-2.51955
1.36234
18.8998
57.7405
-0.594876
-0.573309
-0.528364
-0.473405
-0.580966
-1.13198
-1.62213
-1.13083
-0.456549
6.44729
-0.682015
-0.675364
-0.667405
-0.677308
-0.772933
-1.01722
-1.22519
-1.11111
-1.2112
2.23603
-0.768372
-0.768016
-0.77123
-0.787208
-0.833365
-0.926865
-1.02265
-1.0558
-0.919864
2.74473
-0.849389
-0.850081
-0.853061
-0.8613
-0.877417
-0.901635
-0.911909
-0.962983
-0.695254
3.19867
-0.925873
-0.925554
-0.924778
-0.922647
-0.915179
-0.894518
-0.845773
-0.839561
-0.649782
3.22343
-1.00015
-0.998611
-0.994191
-0.983278
-0.956952
-0.897135
-0.7843
-0.622051
-0.540608
3.30626
-1.07435
-1.07247
-1.06676
-1.05208
-1.01572
-0.928647
-0.758124
-0.404173
-0.417999
3.3185
-1.14954
-1.1488
-1.1455
-1.13496
-1.10514
-1.03071
-0.86713
-0.410048
-0.432205
3.04756
-1.22538
-1.22723
-1.23014
-1.23227
-1.22906
-1.22132
-1.18226
-0.900829
-0.630805
2.4711
-1.30017
-1.30537
-1.31653
-1.33594
-1.37025
-1.45225
-1.5958
-1.65404
-0.807807
1.68828
394.848
396.139
398.727
402.606
407.71
413.858
420.606
427.201
432.571
435.517
344.93
346.266
348.971
353.091
358.638
365.515
373.366
381.379
388.207
392.119
294.095
295.501
298.397
302.941
309.321
317.655
327.854
339.094
349.454
355.875
242.264
243.719
246.789
251.801
259.244
269.687
283.674
300.757
318.255
330.379
189.364
190.78
193.854
199.122
207.513
220.424
239.494
266.183
297.475
322.556
135.389
136.597
139.303
144.203
152.656
167.119
191.672
231.901
288.813
341.215
80.4696
81.2429
83.0349
86.491
93.0656
106.353
136.277
197.16
290.359
418.7
24.1958
24.2287
24.31
24.5024
24.3837
21.8123
28.2661
105.387
294.921
563.2
-0.455202
-0.43317
-0.374117
-0.18841
0.0346153
-0.112866
-0.310294
11.4442
66.7094
142.487
-0.545755
-0.522102
-0.468389
-0.358753
-0.293461
-0.759504
-1.87613
-0.893053
7.33547
18.6512
-0.61281
-0.599339
-0.575054
-0.55316
-0.632834
-1.04175
-1.54759
-1.4153
-0.916859
-0.566937
-0.693708
-0.690153
-0.688384
-0.703461
-0.777613
-0.975563
-1.21905
-1.21863
-1.27888
-1.24826
-0.775528
-0.776196
-0.781087
-0.79814
-0.840215
-0.921408
-1.04578
-1.08655
-1.06251
-0.920858
-0.853785
-0.854877
-0.858527
-0.86756
-0.884565
-0.909593
-0.956335
-0.97384
-0.93504
-0.680974
-0.928711
-0.92872
-0.928704
-0.928309
-0.925431
-0.915107
-0.906525
-0.886151
-0.910857
-0.665649
-1.00209
-1.00098
-0.997746
-0.989954
-0.972257
-0.93507
-0.882888
-0.792488
-0.920885
-0.576474
-1.07564
-1.07429
-1.07015
-1.05979
-1.03594
-0.985593
-0.905783
-0.727958
-0.994356
-0.475089
-1.1502
-1.14996
-1.14826
-1.14232
-1.12587
-1.08879
-1.02525
-0.861082
-1.21006
-0.549899
-1.22529
-1.22743
-1.23138
-1.2367
-1.24216
-1.25005
-1.26886
-1.25871
-1.512
-0.759192
-1.29924
-1.30435
-1.31545
-1.33512
-1.36878
-1.43397
-1.56422
-1.7192
-1.76985
-0.758246
393.918
395.089
397.429
400.914
405.458
410.863
416.729
422.382
426.919
429.376
344.002
345.208
347.636
351.304
356.184
362.134
368.809
375.486
381.051
384.169
293.18
294.435
297.003
300.984
306.477
313.485
321.817
330.722
338.665
343.407
241.39
242.671
245.348
249.647
255.882
264.368
275.165
287.806
300.162
308.294
188.581
189.808
192.435
196.836
203.613
213.584
227.526
245.511
265.341
280.323
134.766
135.794
138.056
142.023
148.563
159.104
175.626
199.75
230.674
259.734
80.0882
80.7328
82.1885
84.8735
89.6683
98.4172
115.207
147.287
195.68
246.583
24.1592
24.1782
24.2192
24.302
24.4239
24.1102
22.789
35.9414
99.721
200.979
-0.487194
-0.477833
-0.457586
-0.412903
-0.300033
-0.18383
-0.142425
1.20093
10.2525
21.6118
-0.57714
-0.566643
-0.546641
-0.52127
-0.526219
-0.699992
-1.21215
-1.80056
-1.5971
0.258842
-0.637983
-0.632174
-0.624347
-0.626092
-0.678698
-0.896862
-1.29065
-1.58905
-1.63154
-1.4566
-0.710882
-0.710265
-0.713223
-0.73025
-0.78311
-0.907807
-1.08412
-1.19254
-1.28369
-1.19024
-0.786451
-0.787979
-0.793697
-0.809327
-0.843124
-0.902495
-0.977235
-1.04416
-1.08382
-1.05464
-0.860693
-0.862071
-0.86592
-0.874291
-0.889043
-0.91004
-0.933456
-0.952527
-0.956276
-0.931903
-0.933238
-0.933562
-0.934186
-0.934832
-0.934065
-0.928409
-0.914486
-0.889274
-0.870013
-0.818095
-1.00514
-1.00454
-1.0026
-0.99759
-0.985935
-0.961259
-0.915405
-0.837524
-0.790375
-0.658965
-1.07754
-1.0768
-1.0743
-1.06769
-1.05229
-1.01961
-0.954923
-0.827743
-0.745242
-0.485075
-1.15088
-1.15112
-1.15075
-1.1479
-1.13868
-1.11594
-1.06332
-0.940124
-0.883576
-0.485125
-1.22456
-1.22676
-1.23094
-1.23672
-1.24327
-1.24956
-1.24766
-1.21322
-1.26617
-0.912348
-1.29698
-1.30156
-1.31129
-1.32764
-1.35344
-1.39498
-1.45673
-1.52859
-1.71733
-1.64034
392.683
393.703
395.73
398.726
402.588
407.113
411.948
416.534
420.156
422.088
342.774
343.816
345.902
349.02
353.108
358.001
363.357
368.596
372.862
375.198
291.977
293.047
295.218
298.535
303.019
308.594
314.966
321.57
327.237
330.5
240.25
241.324
243.541
247.029
251.946
258.396
266.26
274.864
282.888
287.865
187.571
188.579
190.702
194.163
199.29
206.464
215.898
227.177
238.489
246.421
133.975
134.802
136.583
139.596
144.311
151.416
161.665
175.225
190.454
202.497
79.6128
80.1199
81.2336
83.189
86.4383
91.8009
100.638
114.762
134.61
154.234
24.1232
24.1334
24.1539
24.1835
24.2293
24.3208
24.0983
22.7956
26.6669
45.4342
-0.517148
-0.514886
-0.511609
-0.511902
-0.512476
-0.419989
-0.210193
-0.129689
-0.393248
0.337073
-0.606011
-0.60293
-0.598648
-0.599579
-0.624073
-0.691229
-0.810937
-1.13474
-1.92806
-2.66501
-0.662055
-0.660578
-0.660373
-0.668717
-0.701948
-0.792016
-0.975977
-1.24898
-1.5701
-1.74083
-0.728098
-0.728923
-0.7332
-0.747009
-0.780775
-0.847398
-0.948441
-1.05999
-1.22778
-1.22269
-0.797883
-0.799574
-0.804616
-0.816405
-0.839501
-0.877157
-0.924161
-0.961951
-1.03216
-1.00328
-0.868172
-0.869482
-0.872771
-0.879236
-0.889927
-0.904702
-0.920385
-0.922773
-0.940758
-0.88313
-0.938227
-0.938678
-0.939524
-0.940509
-0.940699
-0.938261
-0.930757
-0.909175
-0.896101
-0.830694
-1.00846
-1.00824
-1.0073
-1.00448
-0.997602
-0.98345
-0.958328
-0.915016
-0.878301
-0.788061
-1.07945
-1.07919
-1.07802
-1.07442
-1.06567
-1.0477
-1.0149
-0.959887
-0.916659
-0.782325
-1.15125
-1.15181
-1.15237
-1.15175
-1.14773
-1.13698
-1.1136
-1.07061
-1.04261
-0.899047
-1.22317
-1.22524
-1.22923
-1.23483
-1.24151
-1.24872
-1.25392
-1.25509
-1.28917
-1.20589
-1.29374
-1.29761
-1.30566
-1.3187
-1.33818
-1.36702
-1.40781
-1.4621
-1.57832
-1.60835
391.286
392.145
393.844
396.331
399.498
403.152
406.981
410.553
413.329
414.788
341.39
342.261
343.991
346.549
349.85
353.722
357.863
361.804
364.943
366.626
290.631
291.512
293.281
295.943
299.464
303.725
308.448
313.125
316.999
319.154
238.989
239.855
241.621
244.341
248.062
252.762
258.239
263.959
268.929
271.807
186.466
187.262
188.911
191.523
195.241
200.183
206.302
213.139
219.541
223.597
133.122
133.761
135.108
137.305
140.567
145.16
151.267
158.666
166.199
171.349
79.1091
79.4931
80.314
81.6894
83.8224
87.0254
91.6985
98.0739
105.51
111.471
24.0932
24.0991
24.111
24.1279
24.1502
24.199
24.3471
24.2394
22.4578
19.0486
-0.540572
-0.540788
-0.542187
-0.547624
-0.559692
-0.551996
-0.401265
-0.146637
-0.0428921
-0.120775
-0.628137
-0.627811
-0.628231
-0.631935
-0.644169
-0.664926
-0.654335
-0.578193
-0.529936
-0.602413
-0.681183
-0.681171
-0.682494
-0.688165
-0.703112
-0.730853
-0.767207
-0.822962
-0.919679
-1.0195
-0.7424
-0.743322
-0.746452
-0.754456
-0.771091
-0.798801
-0.833387
-0.871253
-0.917919
-0.950961
-0.807785
-0.809033
-0.812349
-0.819287
-0.831592
-0.84966
-0.869289
-0.882746
-0.893343
-0.886747
-0.874868
-0.875797
-0.877955
-0.881834
-0.887677
-0.894786
-0.900293
-0.898803
-0.893723
-0.876599
-0.942765
-0.943132
-0.943764
-0.944388
-0.944294
-0.942183
-0.936011
-0.922494
-0.904776
-0.880016
-1.01143
-1.0114
-1.011
-1.00947
-1.0055
-0.997278
-0.982817
-0.959867
-0.932637
-0.895134
-1.08096
-1.08101
-1.08067
-1.07901
-1.07449
-1.06504
-1.04834
-1.02226
-0.99119
-0.940604
-1.15116
-1.15187
-1.15292
-1.15357
-1.15258
-1.14823
-1.13832
-1.12063
-1.09814
-1.05025
-1.22125
-1.22309
-1.22663
-1.23162
-1.23766
-1.2442
-1.25014
-1.25421
-1.25913
-1.24041
-1.28994
-1.29309
-1.29952
-1.30957
-1.32383
-1.34318
-1.36806
-1.39804
-1.43895
-1.46556
389.876
390.584
391.974
393.991
396.527
399.408
402.376
405.091
407.163
408.235
339.999
340.709
342.112
344.16
346.763
349.759
352.891
355.804
358.065
359.254
289.287
289.995
291.403
293.488
296.189
299.372
302.795
306.075
308.698
310.111
237.742
238.424
239.797
241.867
244.619
247.972
251.718
255.457
258.567
260.299
185.387
186
187.25
189.176
191.815
195.157
199.07
203.184
206.797
208.92
132.298
132.781
133.777
135.346
137.565
140.499
144.122
148.177
151.976
154.344
78.6301
78.9148
79.5087
80.4628
81.8549
83.7815
86.3183
89.4009
92.5564
94.699
24.0702
24.0745
24.0833
24.0973
24.1191
24.1582
24.2508
24.461
24.5467
24.1077
-0.557047
-0.557358
-0.558076
-0.55969
-0.560549
-0.550588
-0.487533
-0.270979
0.0506136
0.179361
-0.643356
-0.643378
-0.643583
-0.644033
-0.643358
-0.6348
-0.593101
-0.458394
-0.193825
0.0414187
-0.694807
-0.694745
-0.694954
-0.695915
-0.697434
-0.696073
-0.680187
-0.634733
-0.562948
-0.505121
-0.753008
-0.753356
-0.754451
-0.756969
-0.76131
-0.766223
-0.766768
-0.757567
-0.74289
-0.731377
-0.815415
-0.815956
-0.817297
-0.819865
-0.823846
-0.828418
-0.830886
-0.828283
-0.822499
-0.811822
-0.880181
-0.880591
-0.881461
-0.882841
-0.884526
-0.88573
-0.884865
-0.880532
-0.874886
-0.864053
-0.946401
-0.946551
-0.946719
-0.946632
-0.945749
-0.943222
-0.93801
-0.929541
-0.920108
-0.90717
-1.01373
-1.01374
-1.01351
-1.01254
-1.01006
-1.00508
-0.99668
-0.984601
-0.971112
-0.954606
-1.08195
-1.08212
-1.08218
-1.08156
-1.07937
-1.07456
-1.0661
-1.05363
-1.03878
-1.01943
-1.15065
-1.15137
-1.15255
-1.15374
-1.15419
-1.15298
-1.14904
-1.14172
-1.13136
-1.11361
-1.21906
-1.22061
-1.2236
-1.22779
-1.23283
-1.23822
-1.24316
-1.24683
-1.24839
-1.23949
-1.28603
-1.28853
-1.29354
-1.30114
-1.31142
-1.32441
-1.33973
-1.35658
-1.37405
-1.37977
388.586
389.164
390.293
391.914
393.928
396.183
398.468
400.524
402.07
402.861
338.73
339.305
340.432
342.061
344.098
346.401
348.761
350.909
352.543
353.387
288.07
288.633
289.746
291.368
293.428
295.798
298.277
300.582
302.373
303.315
236.621
237.154
238.214
239.782
241.811
244.203
246.776
249.245
251.219
252.282
184.427
184.896
185.838
187.254
189.127
191.4
193.931
196.454
198.552
199.721
131.574
131.936
132.67
133.791
135.309
137.208
139.407
141.701
143.701
144.862
78.2134
78.4239
78.8537
79.5195
80.4416
81.6331
83.0747
84.6651
86.1445
87.0529
24.0536
24.0574
24.0653
24.0785
24.0997
24.1352
24.1973
24.3103
24.4899
24.6114
-0.567841
-0.567461
-0.566221
-0.563474
-0.556667
-0.538811
-0.495597
-0.39816
-0.211805
-0.0331174
-0.653086
-0.652616
-0.651338
-0.648346
-0.641094
-0.623195
-0.58182
-0.496097
-0.343437
-0.176332
-0.703826
-0.70322