/*--------------------------------*- C++ -*----------------------------------*\
| =========                 |                                                 |
| \\      /  F ield         | OpenFOAM: The Open Source CFD Toolbox           |
|  \\    /   O peration     | Version:  2312                                  |
|   \\  /    A nd           | Website:  www.openfoam.com                      |
|    \\/     M anipulation  |                                                 |
\*---------------------------------------------------------------------------*/
FoamFile
{
    version     2.0;
    format      ascii;
    arch        "LSB;label=32;scalar=64";
    class       volScalarField;
    location    "1.5";
    object      p;
}
// * * * * * * * * * * * * * * * * * * * * * * * * * * * * * * * * * * * * * //

dimensions      [1 -1 -2 0 0 0 0];

internalField   nonuniform List<scalar> 
8000
(
375.045
374.654
374.439
374.367
374.382
374.423
374.409
374.476
374.591
374.673
326.17
325.756
325.536
325.465
325.465
325.488
325.473
325.675
325.87
325.822
277.454
277.016
276.795
276.72
276.714
276.756
276.74
276.978
277.24
277.352
228.94
228.48
228.26
228.199
228.203
228.268
228.254
228.357
228.788
228.894
180.765
180.258
180.059
179.966
179.981
180.068
180.161
180.391
180.593
180.486
133.151
132.522
132.142
132.018
131.987
132.073
132.274
132.523
132.559
132.09
86.4234
85.6799
85.2359
84.9337
84.753
84.6966
84.6229
84.4148
83.9
83.0147
42.0668
41.0301
40.386
39.942
39.5974
39.2426
38.4383
37.0198
35.5044
34.5618
10.9826
9.96241
9.50146
9.16152
8.90789
8.58603
7.8654
6.69309
5.69978
5.1521
-0.394645
-0.414053
-0.415176
-0.408006
-0.3926
-0.376815
-0.361201
-0.344983
-0.339044
-0.320781
-0.473653
-0.470183
-0.469725
-0.468486
-0.463215
-0.453198
-0.440582
-0.431309
-0.428744
-0.41495
-0.51664
-0.513505
-0.510571
-0.507699
-0.502326
-0.494141
-0.487535
-0.48933
-0.490025
-0.477083
-0.564593
-0.560321
-0.556141
-0.551549
-0.545714
-0.539319
-0.536507
-0.540813
-0.539688
-0.53003
-0.614483
-0.608554
-0.603127
-0.59848
-0.595141
-0.5917
-0.589277
-0.588156
-0.583606
-0.578877
-0.664405
-0.660376
-0.65476
-0.649957
-0.646352
-0.643797
-0.642801
-0.639275
-0.634234
-0.630625
-0.712763
-0.709225
-0.704895
-0.700376
-0.697848
-0.698942
-0.698606
-0.695001
-0.69015
-0.687126
-0.761779
-0.757706
-0.754084
-0.750475
-0.747551
-0.74884
-0.750491
-0.749895
-0.74583
-0.74115
-0.812107
-0.807734
-0.804528
-0.801597
-0.79865
-0.798958
-0.800326
-0.800297
-0.799287
-0.794435
-0.863136
-0.858783
-0.855591
-0.85272
-0.850339
-0.850049
-0.850312
-0.85012
-0.84827
-0.846679
-0.918259
-0.912838
-0.90795
-0.903337
-0.901496
-0.900996
-0.900983
-0.900205
-0.898163
-0.895468
374.648
374.288
374.108
374.068
374.096
374.109
374.047
374.288
374.471
374.596
325.714
325.34
325.163
325.124
325.121
325.064
324.932
325.462
325.668
325.789
276.868
276.494
276.334
276.309
276.324
276.311
276.139
276.548
277.007
277.226
228.126
227.744
227.646
227.681
227.753
227.821
227.816
228.124
228.61
228.738
179.624
179.22
179.135
179.244
179.407
179.597
179.873
180.271
180.409
180.26
131.549
131.096
130.979
131.044
131.198
131.465
131.928
132.327
132.237
131.913
83.6935
83.1821
83.1126
83.1521
83.3474
83.694
84.097
84.2522
83.8287
83.1572
37.7926
37.1554
36.8034
36.8311
37.052
37.3893
37.4617
36.9482
36.0459
35.3996
6.85331
6.5134
6.44297
6.61658
6.85108
7.11511
7.15461
6.72967
6.14227
5.67705
-0.423403
-0.42859
-0.424129
-0.421116
-0.4116
-0.402009
-0.386904
-0.366026
-0.359589
-0.341068
-0.467697
-0.470631
-0.47496
-0.477944
-0.477109
-0.472261
-0.461188
-0.448822
-0.44756
-0.430627
-0.513162
-0.512813
-0.510607
-0.509419
-0.507774
-0.502917
-0.49635
-0.495815
-0.500421
-0.483949
-0.562469
-0.560086
-0.556255
-0.552114
-0.549991
-0.549248
-0.548005
-0.548763
-0.545875
-0.531535
-0.613406
-0.610879
-0.605789
-0.600284
-0.597739
-0.598574
-0.597545
-0.593715
-0.585993
-0.577965
-0.664544
-0.66161
-0.656216
-0.650211
-0.646822
-0.648491
-0.649011
-0.644924
-0.637364
-0.631218
-0.714676
-0.710779
-0.706207
-0.701229
-0.697342
-0.699494
-0.701128
-0.700194
-0.695348
-0.689683
-0.765272
-0.760257
-0.756518
-0.753058
-0.7489
-0.750285
-0.752472
-0.752719
-0.750349
-0.746189
-0.816932
-0.81122
-0.807509
-0.805047
-0.801201
-0.801909
-0.803636
-0.803727
-0.801271
-0.797506
-0.870486
-0.864125
-0.859539
-0.856609
-0.853141
-0.85346
-0.854554
-0.854173
-0.851527
-0.846763
-0.926545
-0.919441
-0.912847
-0.908341
-0.904716
-0.904666
-0.905025
-0.90461
-0.902267
-0.897171
373.921
373.619
373.505
373.538
373.622
373.696
373.811
374.248
374.312
374.467
324.899
324.598
324.496
324.531
324.577
324.524
324.71
325.353
325.388
325.65
275.91
275.61
275.533
275.597
275.682
275.818
275.916
276.457
276.772
277.081
226.924
226.648
226.644
226.799
227.002
227.275
227.557
228.075
228.433
228.617
177.959
177.722
177.794
178.07
178.431
178.842
179.377
180.02
180.205
180.236
129.193
128.985
129.11
129.478
129.922
130.45
131.197
131.824
131.909
131.964
80.2
79.965
80.1841
80.7238
81.4062
82.2255
83.1223
83.6838
83.6863
83.6761
32.4194
32.2611
32.3928
33.0231
33.9916
35.101
36.1143
36.7162
36.9247
37.0486
3.43034
3.34427
3.37426
3.86649
4.68375
5.55026
6.24693
6.66653
6.85643
6.82476
-0.419992
-0.428313
-0.430704
-0.429406
-0.411707
-0.395095
-0.395166
-0.384588
-0.371394
-0.347692
-0.459564
-0.464377
-0.468089
-0.470476
-0.468148
-0.465435
-0.467733
-0.461669
-0.457493
-0.441193
-0.506042
-0.508046
-0.508607
-0.508233
-0.508377
-0.50552
-0.506619
-0.506698
-0.505481
-0.491494
-0.555715
-0.555489
-0.553715
-0.550646
-0.552019
-0.557953
-0.559143
-0.558107
-0.549711
-0.537434
-0.609478
-0.606933
-0.602876
-0.596986
-0.595367
-0.601048
-0.60197
-0.599002
-0.591798
-0.583795
-0.662624
-0.659239
-0.65461
-0.647552
-0.641954
-0.646244
-0.64999
-0.648264
-0.642567
-0.635923
-0.715839
-0.711803
-0.708352
-0.702308
-0.69522
-0.698624
-0.703668
-0.704613
-0.700895
-0.693897
-0.768242
-0.76344
-0.761534
-0.757444
-0.749849
-0.752518
-0.755569
-0.756658
-0.754602
-0.750034
-0.818984
-0.814031
-0.81281
-0.811544
-0.805081
-0.806838
-0.808244
-0.807753
-0.80511
-0.800418
-0.870053
-0.865094
-0.86325
-0.86285
-0.858727
-0.859923
-0.860614
-0.859343
-0.856215
-0.850609
-0.924549
-0.917873
-0.915364
-0.913283
-0.910264
-0.911448
-0.911898
-0.910717
-0.907266
-0.901183
372.948
372.716
372.691
372.825
373.007
373.269
373.659
374.062
374.062
374.313
323.828
323.607
323.599
323.739
323.894
324.092
324.441
325
325.022
325.357
274.634
274.431
274.469
274.66
274.879
275.175
275.618
276.257
276.429
276.826
225.34
225.177
225.304
225.624
226.017
226.479
227.08
227.803
228.045
228.451
175.892
175.786
176.011
176.493
177.104
177.784
178.642
179.506
179.798
180.131
126.287
126.272
126.642
127.322
128.159
129.074
130.163
131.087
131.478
131.9
76.1909
76.3471
76.8908
77.7804
78.988
80.347
81.7243
82.7805
83.3858
84.0455
27.1394
27.5217
28.1515
29.1749
30.8656
32.7144
34.4181
35.9224
37.2671
38.5174
1.68933
1.72279
1.73758
2.12327
2.97356
4.11123
5.17022
6.14098
7.17413
8.17444
-0.409824
-0.41744
-0.424697
-0.428144
-0.423924
-0.405404
-0.412703
-0.409995
-0.399909
-0.376291
-0.453121
-0.45791
-0.461735
-0.462612
-0.460369
-0.460237
-0.472777
-0.472552
-0.46936
-0.4552
-0.501235
-0.504225
-0.506069
-0.506846
-0.508405
-0.513402
-0.524641
-0.517492
-0.512973
-0.500427
-0.55608
-0.553378
-0.551535
-0.550115
-0.553882
-0.564746
-0.573002
-0.5657
-0.557347
-0.54615
-0.607901
-0.604074
-0.600369
-0.595624
-0.595014
-0.605445
-0.608282
-0.605024
-0.598785
-0.592889
-0.660817
-0.657322
-0.653299
-0.646186
-0.638221
-0.643913
-0.648613
-0.648653
-0.646567
-0.642355
-0.714514
-0.711722
-0.709653
-0.702747
-0.692244
-0.696948
-0.701603
-0.703087
-0.701489
-0.697802
-0.769038
-0.7649
-0.765373
-0.759051
-0.751865
-0.755815
-0.75769
-0.758677
-0.756384
-0.751496
-0.821431
-0.815652
-0.817226
-0.815344
-0.809829
-0.813049
-0.812514
-0.809714
-0.806939
-0.802224
-0.872115
-0.866201
-0.866378
-0.868207
-0.865728
-0.867592
-0.866787
-0.863447
-0.858574
-0.853159
-0.923449
-0.919012
-0.915922
-0.916842
-0.91672
-0.918927
-0.919396
-0.916899
-0.909803
-0.903567
371.805
371.656
371.728
371.972
372.301
372.671
373.153
373.615
373.771
374.078
322.573
322.446
322.55
322.823
323.148
323.388
323.822
324.362
324.702
325.064
273.143
273.058
273.24
273.594
273.996
274.37
274.883
275.55
276.004
276.42
223.47
223.448
223.749
224.275
224.891
225.521
226.281
227.083
227.585
228.046
173.464
173.533
173.979
174.707
175.602
176.568
177.675
178.702
179.269
179.789
123.068
123.28
123.919
124.901
126.117
127.514
128.958
130.193
130.923
131.638
71.6546
72.2693
73.2831
74.5863
76.2986
78.236
80.1349
81.7443
82.9671
84.1612
22.0723
23.0027
24.1646
25.4603
27.4551
30.1363
32.5868
34.8526
37.1547
39.3304
0.594709
0.775178
0.940645
1.13917
1.72622
2.76324
4.01606
5.35257
7.05075
8.9944
-0.403209
-0.410762
-0.416984
-0.418879
-0.422264
-0.425403
-0.431659
-0.429187
-0.415094
-0.386396
-0.449982
-0.45414
-0.457284
-0.458607
-0.460193
-0.46679
-0.477016
-0.477907
-0.476311
-0.46709
-0.501878
-0.501713
-0.502931
-0.50548
-0.510772
-0.521745
-0.532181
-0.524515
-0.519725
-0.50957
-0.554409
-0.551278
-0.549668
-0.550473
-0.555845
-0.56774
-0.575159
-0.569752
-0.563432
-0.554621
-0.606433
-0.602422
-0.599441
-0.597092
-0.596816
-0.607134
-0.609138
-0.607795
-0.604503
-0.600213
-0.660241
-0.656126
-0.652908
-0.648716
-0.640683
-0.644214
-0.646284
-0.647074
-0.647222
-0.645883
-0.715023
-0.711231
-0.709367
-0.705249
-0.699395
-0.699784
-0.697494
-0.697386
-0.697496
-0.697553
-0.770798
-0.765039
-0.764004
-0.762288
-0.762098
-0.761113
-0.758246
-0.75675
-0.754611
-0.752369
-0.823155
-0.815778
-0.815233
-0.815187
-0.818001
-0.818329
-0.814005
-0.808543
-0.805394
-0.80272
-0.872123
-0.867069
-0.865302
-0.86651
-0.869456
-0.869686
-0.867882
-0.861566
-0.856502
-0.852679
-0.921683
-0.919145
-0.915281
-0.918703
-0.919882
-0.920206
-0.921387
-0.915633
-0.907936
-0.903416
370.587
370.529
370.707
371.065
371.537
372.043
372.556
373.085
373.44
373.718
321.238
321.216
321.446
321.855
322.364
322.882
323.317
323.88
324.411
324.772
271.559
271.602
271.942
272.482
273.102
273.705
274.295
274.985
275.642
276.066
221.472
221.611
222.117
222.876
223.743
224.615
225.519
226.404
227.133
227.654
170.866
171.141
171.865
172.901
174.102
175.365
176.686
177.895
178.745
179.436
119.665
120.158
121.168
122.543
124.156
125.925
127.768
129.345
130.438
131.329
66.5185
67.6458
69.3858
71.4045
73.6072
76.1127
78.5701
80.7873
82.6077
84.1968
17.5399
18.7845
20.4663
22.3037
24.4648
27.446
30.7118
33.7856
36.9083
39.7251
-0.1529
-0.00367433
0.27678
0.590345
0.969154
1.70129
2.91034
4.60807
6.9425
9.41678
-0.377525
-0.391976
-0.404702
-0.413563
-0.417256
-0.4258
-0.437134
-0.444527
-0.439197
-0.395354
-0.435976
-0.44268
-0.449487
-0.454925
-0.459053
-0.468062
-0.476333
-0.480395
-0.48147
-0.47549
-0.493104
-0.49447
-0.497543
-0.502111
-0.507142
-0.516048
-0.5258
-0.525798
-0.521962
-0.515085
-0.550328
-0.547284
-0.547988
-0.550455
-0.554465
-0.561418
-0.568099
-0.56758
-0.56387
-0.557517
-0.605691
-0.600826
-0.600479
-0.600601
-0.600106
-0.606585
-0.6084
-0.605554
-0.603097
-0.600613
-0.661686
-0.656433
-0.656747
-0.656617
-0.649887
-0.649144
-0.646401
-0.643999
-0.643199
-0.644385
-0.716021
-0.7105
-0.713192
-0.716987
-0.714411
-0.707092
-0.697247
-0.692523
-0.691039
-0.693455
-0.769676
-0.76214
-0.764356
-0.767932
-0.772585
-0.766296
-0.756938
-0.752611
-0.750427
-0.74798
-0.82016
-0.812573
-0.81211
-0.814554
-0.820174
-0.819457
-0.81176
-0.805173
-0.803432
-0.80145
-0.868476
-0.865243
-0.86234
-0.862428
-0.867032
-0.866144
-0.864912
-0.856951
-0.853803
-0.85368
-0.919966
-0.919855
-0.916282
-0.914025
-0.916691
-0.9147
-0.916188
-0.908698
-0.905287
-0.904645
369.398
369.43
369.71
370.176
370.762
371.402
372.024
372.607
373.05
373.317
319.934
320.013
320.364
320.906
321.556
322.251
322.914
323.551
324.088
324.418
270.016
270.18
270.67
271.381
272.197
273.031
273.836
274.619
275.298
275.727
219.518
219.804
220.511
221.507
222.618
223.745
224.851
225.876
226.712
227.288
168.319
168.783
169.79
171.175
172.706
174.27
175.823
177.222
178.269
179.129
116.154
116.935
118.391
120.292
122.362
124.531
126.71
128.614
130
131.009
60.9904
62.6443
65.2421
68.1601
71.1299
74.1275
77.1629
79.9756
82.3372
84.284
13.5039
14.8368
17.2345
19.622
22.2964
25.4734
29.0525
32.8418
36.7121
40.2035
-0.222644
-0.215718
-0.193564
0.11726
0.591413
1.14816
2.13697
3.97265
6.93401
10.3186
-0.337486
-0.349763
-0.37375
-0.401149
-0.414204
-0.424807
-0.438105
-0.444536
-0.430958
-0.396857
-0.412943
-0.421388
-0.434564
-0.447184
-0.455243
-0.464659
-0.475387
-0.482652
-0.485881
-0.481354
-0.480796
-0.482464
-0.48921
-0.496419
-0.503196
-0.512006
-0.520287
-0.523036
-0.523089
-0.519306
-0.545214
-0.542464
-0.54529
-0.549039
-0.553639
-0.56104
-0.566082
-0.564988
-0.564863
-0.560199
-0.604981
-0.601118
-0.603297
-0.604434
-0.604601
-0.607791
-0.611016
-0.607392
-0.602296
-0.601143
-0.662469
-0.659188
-0.664513
-0.665906
-0.661197
-0.655867
-0.64993
-0.644803
-0.642046
-0.644861
-0.71481
-0.710257
-0.718674
-0.726045
-0.725488
-0.712725
-0.700357
-0.691768
-0.691175
-0.694893
-0.764625
-0.75931
-0.766412
-0.774789
-0.777771
-0.768427
-0.75773
-0.749432
-0.749564
-0.75013
-0.812235
-0.807772
-0.813037
-0.818782
-0.82184
-0.817558
-0.81131
-0.803094
-0.804057
-0.804751
-0.863316
-0.861992
-0.863932
-0.864264
-0.864252
-0.861194
-0.860599
-0.854804
-0.854208
-0.854327
-0.919152
-0.919794
-0.919193
-0.916014
-0.913251
-0.907147
-0.908276
-0.904422
-0.903859
-0.90411
368.341
368.449
368.817
369.373
370.057
370.799
371.531
372.183
372.667
372.951
318.768
318.93
319.384
320.037
320.806
321.626
322.432
323.166
323.723
324.061
268.619
268.886
269.511
270.369
271.335
272.336
273.316
274.209
274.917
275.369
217.749
218.167
219.055
220.262
221.584
222.907
224.199
225.366
226.263
226.885
166.029
166.653
167.896
169.605
171.46
173.285
175.028
176.591
177.772
178.689
113.005
113.991
115.755
118.176
120.751
123.291
125.774
127.932
129.608
130.917
56.5791
58.3053
61.227
65.1232
68.8972
72.5082
75.9798
79.1907
82.058
84.3155
11.5807
12.5097
14.1861
17.5244
20.6732
24.1663
28.0433
32.3078
36.6792
40.056
-0.239714
-0.232254
-0.222771
-0.160512
0.304542
0.918235
1.76284
3.62662
7.1308
11.3298
-0.323164
-0.329019
-0.342909
-0.376523
-0.405372
-0.420117
-0.428929
-0.435334
-0.430786
-0.389431
-0.395781
-0.404041
-0.417173
-0.434547
-0.449956
-0.462269
-0.471155
-0.476553
-0.483496
-0.485611
-0.470031
-0.473322
-0.480069
-0.489047
-0.498944
-0.509978
-0.518426
-0.520723
-0.52375
-0.521015
-0.54082
-0.539671
-0.541788
-0.546135
-0.551613
-0.559102
-0.566171
-0.567956
-0.566978
-0.56171
-0.605504
-0.603443
-0.60364
-0.60519
-0.605566
-0.606916
-0.610051
-0.609728
-0.606102
-0.603317
-0.660667
-0.662211
-0.665805
-0.66825
-0.663456
-0.656998
-0.65227
-0.649049
-0.647651
-0.648156
-0.711492
-0.713669
-0.72154
-0.727517
-0.723972
-0.713785
-0.705058
-0.69719
-0.697079
-0.698543
-0.760117
-0.761832
-0.768996
-0.776123
-0.774824
-0.766336
-0.759384
-0.752414
-0.751887
-0.75228
-0.810532
-0.811657
-0.816867
-0.822184
-0.820016
-0.812556
-0.808693
-0.803773
-0.80294
-0.80323
-0.865397
-0.865025
-0.867256
-0.869749
-0.864566
-0.855578
-0.854723
-0.851414
-0.850755
-0.852402
-0.922329
-0.920506
-0.920312
-0.921122
-0.915066
-0.900487
-0.90103
-0.900438
-0.900508
-0.902945
367.496
367.654
368.083
368.717
369.485
370.309
371.116
371.828
372.361
372.666
317.812
318.045
318.578
319.322
320.187
321.102
322.001
322.799
323.403
323.771
267.472
267.834
268.559
269.524
270.607
271.733
272.839
273.82
274.571
275.062
216.319
216.859
217.878
219.216
220.683
222.165
223.622
224.91
225.843
226.546
164.201
164.969
166.383
168.282
170.352
172.388
174.32
176.041
177.317
178.358
110.642
111.771
113.728
116.415
119.355
122.204
124.938
127.364
129.266
130.794
53.8253
55.5755
58.4638
62.6893
67.0601
71.1669
75.0116
78.4797
81.745
84.5252
10.577
11.5388
12.9279
15.9158
19.4617
23.1815
27.3266
31.9555
36.6081
39.5824
-0.248984
-0.24456
-0.232176
-0.211807
0.0940386
0.747092
1.60564
3.37794
7.19774
12.1642
-0.31854
-0.323088
-0.330533
-0.352887
-0.390933
-0.407371
-0.414647
-0.422411
-0.424607
-0.352471
-0.390138
-0.395498
-0.405018
-0.421522
-0.441263
-0.453818
-0.460844
-0.467487
-0.476783
-0.48255
-0.467049
-0.468392
-0.473072
-0.481804
-0.493083
-0.503531
-0.511354
-0.516211
-0.5195
-0.522113
-0.541695
-0.537666
-0.53735
-0.541405
-0.547665
-0.554269
-0.560936
-0.563759
-0.563845
-0.56062
-0.604174
-0.602131
-0.599727
-0.601206
-0.60265
-0.605654
-0.606599
-0.606385
-0.60661
-0.60406
-0.662066
-0.662413
-0.660838
-0.661435
-0.659827
-0.656782
-0.653515
-0.64955
-0.650796
-0.651091
-0.716917
-0.718338
-0.715521
-0.717415
-0.715148
-0.709714
-0.70526
-0.699224
-0.700228
-0.702193
-0.769036
-0.768336
-0.767181
-0.768422
-0.76458
-0.75907
-0.755713
-0.749877
-0.750463
-0.753437
-0.820605
-0.81781
-0.818098
-0.819331
-0.813323
-0.804797
-0.802417
-0.798366
-0.79785
-0.802084
-0.873384
-0.869666
-0.871916
-0.87363
-0.86511
-0.8518
-0.849896
-0.848896
-0.847998
-0.850626
-0.926936
-0.92397
-0.924695
-0.926302
-0.917517
-0.90214
-0.897989
-0.90063
-0.899738
-0.901184
366.906
367.094
367.584
368.276
369.105
369.99
370.853
371.61
372.176
372.499
317.185
317.435
318.037
318.846
319.777
320.756
321.721
322.569
323.203
323.592
266.757
267.115
267.907
268.95
270.119
271.335
272.526
273.573
274.358
274.852
215.473
215.995
217.072
218.48
220.052
221.681
223.269
224.627
225.595
226.319
163.139
163.923
165.39
167.333
169.508
171.731
173.862
175.679
176.986
178.092
109.311
110.497
112.49
115.195
118.286
121.363
124.337
126.944
128.964
130.59
52.3271
54.1648
56.9332
61.0408
65.7701
70.1386
74.2806
77.9869
81.4455
84.2797
9.9527
11.0507
12.31
14.6528
18.6225
22.3669
26.6124
31.3897
36.2587
39.8821
-0.253419
-0.252011
-0.241148
-0.215075
-0.0701257
0.563962
1.39659
2.99399
6.79881
12.3496
-0.318501
-0.32143
-0.324815
-0.337975
-0.378118
-0.3968
-0.40345
-0.410914
-0.41771
-0.341227
-0.389634
-0.39117
-0.397516
-0.411081
-0.4321
-0.444424
-0.450432
-0.457113
-0.468659
-0.476065
-0.46634
-0.464389
-0.466873
-0.474782
-0.48633
-0.49437
-0.502178
-0.506954
-0.512125
-0.516834
-0.541327
-0.534487
-0.531951
-0.535553
-0.542989
-0.547275
-0.552275
-0.555258
-0.558215
-0.55639
-0.606243
-0.599913
-0.593213
-0.594975
-0.598482
-0.602563
-0.601674
-0.600353
-0.60393
-0.601648
-0.664442
-0.660874
-0.652429
-0.651772
-0.653349
-0.654351
-0.652001
-0.646537
-0.649753
-0.649632
-0.720107
-0.716521
-0.706729
-0.705896
-0.704913
-0.704093
-0.702621
-0.696599
-0.697712
-0.701759
-0.773631
-0.766991
-0.761404
-0.759517
-0.75494
-0.751119
-0.752106
-0.748048
-0.751752
-0.756129
-0.826439
-0.8184
-0.817676
-0.817095
-0.809552
-0.80102
-0.80182
-0.799435
-0.801506
-0.805311
-0.877849
-0.872355
-0.876073
-0.876574
-0.867064
-0.853593
-0.851326
-0.84718
-0.850931
-0.849794
-0.928859
-0.926259
-0.930721
-0.931239
-0.920437
-0.906305
-0.900287
-0.898
-0.900458
-0.898272
366.632
366.861
367.363
368.084
368.947
369.871
370.771
371.554
372.14
372.474
316.938
317.186
317.791
318.621
319.586
320.618
321.628
322.504
323.16
323.564
266.46
266.805
267.609
268.674
269.882
271.159
272.405
273.49
274.294
274.806
215.088
215.614
216.713
218.146
219.762
221.46
223.111
224.513
225.473
226.275
162.639
163.476
164.975
166.904
169.098
171.385
173.624
175.542
176.896
177.986
108.581
109.922
111.993
114.663
117.729
120.844
123.918
126.699
128.822
130.448
51.3189
53.4207
56.3044
60.4036
65.1274
69.4612
73.6831
77.6217
81.152
84.1094
9.40638
10.58
11.9381
14.2568
18.0696
21.6108
25.7419
30.5502
35.4457
38.9888
-0.255538
-0.253956
-0.246986
-0.226115
-0.145481
0.390081
1.16355
2.61564
6.10584
11.5336
-0.320195
-0.319989
-0.322325
-0.330324
-0.364297
-0.387683
-0.393443
-0.40082
-0.410433
-0.363952
-0.390826
-0.388834
-0.392544
-0.403627
-0.423629
-0.436658
-0.441256
-0.446438
-0.458922
-0.469987
-0.465872
-0.461069
-0.461046
-0.46862
-0.480408
-0.48894
-0.494473
-0.497807
-0.501758
-0.504317
-0.539718
-0.531163
-0.5262
-0.530375
-0.539237
-0.54494
-0.545336
-0.548054
-0.549243
-0.546948
-0.602486
-0.596332
-0.587853
-0.58856
-0.595804
-0.602605
-0.600345
-0.597538
-0.601964
-0.598435
-0.659931
-0.657134
-0.645855
-0.643999
-0.6506
-0.656282
-0.656312
-0.651233
-0.655522
-0.65394
-0.714118
-0.71118
-0.703137
-0.700294
-0.702311
-0.708396
-0.709394
-0.706774
-0.708712
-0.708918
-0.7691
-0.765969
-0.760395
-0.758999
-0.754824
-0.75671
-0.76123
-0.760593
-0.76053
-0.762046
-0.825183
-0.822565
-0.82117
-0.821717
-0.813047
-0.809483
-0.812792
-0.809839
-0.809087
-0.809407
-0.878728
-0.87841
-0.882918
-0.881458
-0.870995
-0.859271
-0.857688
-0.859831
-0.855973
-0.852684
-0.929544
-0.93085
-0.935228
-0.934549
-0.923152
-0.911424
-0.906082
-0.906065
-0.904107
-0.901075
366.784
366.976
367.463
368.175
369.039
369.97
370.878
371.672
372.269
372.605
317.039
317.302
317.884
318.708
319.68
320.721
321.739
322.628
323.295
323.696
266.546
266.935
267.699
268.748
269.967
271.251
272.499
273.598
274.416
274.941
215.168
215.757
216.803
218.202
219.819
221.514
223.162
224.584
225.578
226.361
162.724
163.63
165.074
166.953
169.134
171.407
173.624
175.574
176.975
178.016
108.524
110.029
112.115
114.723
117.745
120.813
123.807
126.58
128.725
130.239
50.9913
53.3989
56.4735
60.4816
65.0737
69.3234
73.4072
77.4144
80.8256
83.3823
8.9845
10.2439
11.8321
14.1168
17.6558
20.926
24.8739
29.7217
34.6513
38.6415
-0.259572
-0.254504
-0.247821
-0.230847
-0.180982
0.251575
0.968732
2.37848
5.42186
9.95985
-0.327809
-0.321567
-0.320597
-0.326752
-0.354826
-0.381976
-0.387228
-0.39298
-0.401669
-0.383364
-0.400529
-0.392768
-0.39032
-0.398536
-0.418158
-0.432925
-0.435723
-0.437513
-0.448935
-0.455636
-0.471838
-0.465577
-0.459607
-0.464008
-0.478077
-0.488324
-0.492892
-0.494041
-0.495028
-0.496719
-0.542126
-0.534935
-0.526346
-0.526561
-0.53903
-0.548051
-0.549627
-0.549201
-0.547951
-0.545393
-0.60367
-0.599358
-0.58899
-0.587237
-0.59862
-0.608082
-0.60984
-0.60777
-0.610034
-0.60288
-0.65786
-0.655199
-0.647382
-0.647307
-0.654519
-0.664556
-0.667278
-0.665382
-0.668875
-0.662838
-0.710613
-0.709699
-0.705169
-0.704817
-0.706941
-0.718455
-0.721712
-0.720438
-0.721642
-0.718707
-0.766703
-0.768742
-0.76788
-0.764401
-0.762087
-0.769322
-0.774191
-0.773635
-0.772852
-0.770141
-0.825398
-0.829923
-0.832724
-0.829453
-0.819707
-0.81611
-0.820898
-0.824582
-0.820249
-0.816966
-0.880531
-0.885717
-0.889623
-0.885829
-0.874654
-0.863711
-0.864394
-0.868752
-0.865079
-0.86271
-0.931152
-0.936956
-0.93965
-0.936639
-0.926213
-0.915956
-0.911985
-0.912985
-0.911007
-0.908851
367.233
367.402
367.858
368.539
369.376
370.289
371.186
371.97
372.561
372.896
317.562
317.78
318.319
319.099
320.04
321.057
322.061
322.943
323.606
323.995
267.196
267.51
268.208
269.195
270.365
271.611
272.833
273.92
274.747
275.249
215.99
216.464
217.411
218.726
220.272
221.905
223.506
224.925
225.973
226.663
163.762
164.518
165.809
167.57
169.643
171.815
173.967
175.905
177.332
178.317
109.82
111.194
113.089
115.517
118.367
121.246
124.097
126.841
128.936
130.338
52.3581
54.7785
57.8181
61.5411
65.8569
69.9635
73.7133
77.6231
80.9099
83.2685
9.3039
10.6379
12.371
14.5419
17.6724
20.47
24.1159
29.4077
34.3396
38.2493
-0.266354
-0.257819
-0.248036
-0.231751
-0.186196
0.172162
0.894185
2.37529
5.02443
8.52632
-0.342086
-0.329497
-0.322863
-0.327009
-0.352875
-0.380408
-0.386033
-0.387639
-0.389752
-0.378442
-0.420531
-0.405722
-0.395735
-0.399652
-0.418135
-0.4331
-0.435052
-0.435483
-0.445994
-0.449085
-0.493082
-0.481767
-0.468773
-0.467722
-0.481088
-0.491968
-0.497587
-0.497549
-0.497592
-0.497545
-0.556762
-0.549081
-0.535944
-0.536261
-0.544635
-0.554135
-0.558332
-0.558955
-0.557662
-0.553097
-0.611213
-0.604569
-0.595725
-0.602147
-0.606184
-0.614732
-0.619247
-0.620465
-0.623646
-0.614436
-0.660609
-0.656193
-0.652656
-0.661146
-0.662907
-0.669955
-0.675223
-0.680071
-0.683754
-0.673907
-0.712644
-0.713133
-0.711927
-0.716995
-0.717136
-0.722881
-0.72797
-0.733655
-0.733156
-0.726584
-0.771473
-0.77691
-0.777278
-0.774994
-0.770394
-0.771508
-0.775826
-0.780682
-0.776136
-0.773306
-0.831351
-0.83902
-0.838573
-0.833129
-0.823708
-0.815741
-0.822596
-0.82782
-0.821675
-0.820637
-0.885721
-0.893083
-0.893155
-0.887661
-0.875651
-0.863717
-0.867242
-0.873899
-0.870013
-0.86871
-0.938115
-0.943247
-0.943654
-0.938737
-0.928124
-0.916656
-0.915166
-0.919562
-0.916976
-0.915894
367.975
368.094
368.5
369.134
369.931
370.805
371.665
372.42
372.996
373.331
318.397
318.557
319.033
319.753
320.634
321.599
322.55
323.405
324.051
324.449
268.223
268.451
269.06
269.957
271.036
272.195
273.345
274.403
275.226
275.729
217.318
217.66
218.476
219.665
221.079
222.586
224.108
225.493
226.57
227.215
165.524
166.062
167.156
168.731
170.592
172.561
174.677
176.591
178.044
178.942
112.31
113.355
114.94
117.065
119.539
121.982
124.878
127.582
129.636
130.957
55.7252
57.7741
60.4531
63.732
67.5976
71.381
74.8013
78.5865
81.6777
83.7726
10.6724
11.9878
13.6422
15.5649
18.1307
20.5999
24.6968
30.1736
34.8936
38.2922
-0.265214
-0.257442
-0.245718
-0.231056
-0.161979
0.200512
1.08796
2.74604
5.16911
7.76428
-0.350857
-0.337594
-0.328711
-0.33306
-0.35862
-0.380193
-0.387767
-0.38735
-0.384274
-0.36737
-0.43316
-0.418232
-0.404758
-0.406703
-0.422256
-0.434188
-0.43745
-0.442513
-0.453725
-0.451794
-0.50701
-0.497176
-0.479757
-0.477034
-0.487567
-0.497388
-0.504898
-0.50676
-0.504675
-0.50315
-0.563225
-0.558374
-0.547658
-0.547054
-0.552088
-0.559513
-0.566731
-0.569877
-0.569251
-0.560993
-0.613198
-0.607081
-0.607145
-0.612873
-0.613247
-0.618351
-0.626461
-0.631757
-0.629661
-0.61935
-0.660809
-0.657995
-0.661885
-0.671958
-0.670124
-0.671247
-0.681234
-0.685566
-0.68288
-0.675073
-0.716281
-0.717043
-0.720423
-0.72411
-0.722231
-0.722448
-0.727835
-0.730782
-0.728129
-0.725625
-0.779045
-0.783744
-0.783364
-0.776959
-0.77036
-0.769193
-0.772704
-0.773205
-0.768584
-0.770365
-0.840612
-0.846459
-0.84393
-0.834324
-0.820951
-0.809931
-0.818841
-0.820897
-0.814207
-0.817225
-0.894928
-0.900762
-0.898133
-0.889488
-0.873695
-0.85843
-0.86631
-0.86958
-0.866308
-0.867047
-0.946889
-0.949509
-0.947367
-0.940834
-0.927694
-0.914641
-0.91567
-0.919193
-0.916098
-0.91636
368.941
368.999
369.337
369.912
370.643
371.455
372.265
372.961
373.512
373.861
319.472
319.563
319.958
320.591
321.39
322.255
323.134
323.893
324.545
324.992
269.525
269.668
270.168
270.931
271.884
272.885
273.924
274.939
275.797
276.334
219.02
219.231
219.898
220.932
222.143
223.497
224.928
226.259
227.319
227.978
167.79
168.117
168.992
170.327
171.916
173.793
175.793
177.649
179.068
179.905
115.642
116.277
117.449
119.153
121.059
123.556
126.318
128.921
130.905
132.13
60.9464
62.2557
64.3191
67.0107
70.0246
72.9201
76.6147
80.3391
83.2948
85.2387
13.2386
14.2781
15.6556
17.5158
19.1465
21.7614
26.5581
32.0182
36.5871
39.8506
-0.254516
-0.245228
-0.222449
-0.205967
-0.054731
0.44875
1.59
3.4814
5.89065
8.41947
-0.353745
-0.344759
-0.339059
-0.34819
-0.370511
-0.384045
-0.388821
-0.384171
-0.385652
-0.355064
-0.42817
-0.42075
-0.4139
-0.417606
-0.429142
-0.435383
-0.443714
-0.454583
-0.46556
-0.458985
-0.504281
-0.498013
-0.488002
-0.486719
-0.494617
-0.502762
-0.514893
-0.516909
-0.51501
-0.512137
-0.56733
-0.563675
-0.557663
-0.555633
-0.56035
-0.565629
-0.577301
-0.57853
-0.573029
-0.565894
-0.616879
-0.615675
-0.619116
-0.620882
-0.618814
-0.621287
-0.631037
-0.631211
-0.625193
-0.619724
-0.663545
-0.665034
-0.671085
-0.675998
-0.672519
-0.672919
-0.678278
-0.677854
-0.673889
-0.671395
-0.72096
-0.723768
-0.726041
-0.723943
-0.719331
-0.720008
-0.723613
-0.723211
-0.720331
-0.719632
-0.7873
-0.792983
-0.788422
-0.776607
-0.764072
-0.761754
-0.767821
-0.768859
-0.766986
-0.770456
-0.850493
-0.858798
-0.851908
-0.835533
-0.817363
-0.804863
-0.815687
-0.819202
-0.817359
-0.82244
-0.904041
-0.912683
-0.906373
-0.892107
-0.871828
-0.856475
-0.865834
-0.869691
-0.867466
-0.871339
-0.954597
-0.958262
-0.953401
-0.942449
-0.926014
-0.915257
-0.91836
-0.920337
-0.917506
-0.917954
370.029
370.023
370.295
370.796
371.449
372.208
372.963
373.534
374.001
374.403
320.682
320.7
321.007
321.552
322.225
322.978
323.81
324.529
325.062
325.581
271.002
271.052
271.432
272.073
272.833
273.665
274.684
275.674
276.454
277.104
220.947
221.035
221.543
222.379
223.41
224.636
226.034
227.312
228.224
228.932
170.361
170.507
171.137
172.251
173.639
175.36
177.333
179.121
180.371
181.155
119.23
119.48
120.111
121.554
123.338
125.683
128.384
130.868
132.742
133.877
66.925
67.5584
69.0295
70.3451
72.5213
75.5957
79.2805
82.852
85.7306
87.5814
17.2602
17.8801
18.7985
19.9054
21.3844
24.8203
29.7591
34.9228
39.471
42.7536
-0.16742
-0.163238
-0.107949
0.0570932
0.339225
1.10925
2.59201
4.7266
7.45168
10.3489
-0.371949
-0.37095
-0.371923
-0.372819
-0.381861
-0.38872
-0.387197
-0.386543
-0.37832
-0.313599
-0.435051
-0.431043
-0.428979
-0.432282
-0.438317
-0.444121
-0.454827
-0.466445
-0.479233
-0.475053
-0.504964
-0.500727
-0.49637
-0.49767
-0.505787
-0.516982
-0.523301
-0.525177
-0.526659
-0.523487
-0.570114
-0.567733
-0.564898
-0.563773
-0.567139
-0.57755
-0.580385
-0.578636
-0.573689
-0.56899
-0.625082
-0.625954
-0.627881
-0.627232
-0.624036
-0.625214
-0.628454
-0.626661
-0.620166
-0.616014
-0.672804
-0.675386
-0.678747
-0.678399
-0.671949
-0.670945
-0.675465
-0.675709
-0.673524
-0.673236
-0.728781
-0.733725
-0.731239
-0.723257
-0.71274
-0.712737
-0.72055
-0.724334
-0.723893
-0.722749
-0.795662
-0.802053
-0.793347
-0.774789
-0.75796
-0.753205
-0.764723
-0.770269
-0.772419
-0.772012
-0.860651
-0.872009
-0.858331
-0.83571
-0.816178
-0.804189
-0.813794
-0.818688
-0.822922
-0.824216
-0.914053
-0.924526
-0.913467
-0.892985
-0.872238
-0.860111
-0.867915
-0.869853
-0.873309
-0.875372
-0.960754
-0.96504
-0.956845
-0.941625
-0.924815
-0.92083
-0.923863
-0.92205
-0.920847
-0.921602
371.119
371.054
371.259
371.686
372.253
372.921
373.624
374.217
374.605
374.901
321.899
321.848
322.078
322.529
323.061
323.725
324.514
325.397
325.747
326.228
272.496
272.457
272.736
273.253
273.878
274.688
275.708
276.662
277.225
277.902
222.901
222.88
223.245