/*--------------------------------*- C++ -*----------------------------------*\
| =========                 |                                                 |
| \\      /  F ield         | OpenFOAM: The Open Source CFD Toolbox           |
|  \\    /   O peration     | Version:  2312                                  |
|   \\  /    A nd           | Website:  www.openfoam.com                      |
|    \\/     M anipulation  |                                                 |
\*---------------------------------------------------------------------------*/
FoamFile
{
    version     2.0;
    format      ascii;
    arch        "LSB;label=32;scalar=64";
    class       volScalarField;
    location    "0.745";
    object      p;
}
// * * * * * * * * * * * * * * * * * * * * * * * * * * * * * * * * * * * * * //

dimensions      [1 -1 -2 0 0 0 0];

internalField   nonuniform List<scalar> 
8000
(
364.826
365.52
366.539
367.783
369.137
370.498
371.747
372.779
373.51
373.979
315.711
316.476
317.612
319
320.512
322.031
323.434
324.594
325.383
325.93
266.497
267.427
268.823
270.535
272.384
274.23
275.927
277.359
278.285
279.02
217.003
218.174
220.029
222.285
224.675
227.125
229.323
231.164
232.301
233.298
167.203
168.563
171.265
174.484
177.834
181.107
183.97
186.384
188.303
189.674
115.966
118.001
122.283
126.819
131.414
136.017
140.218
143.864
146.501
147.895
61.6123
64.022
70.826
78.5147
85.9056
92.5619
98.3138
103.897
106.689
107.976
20.9012
24.1503
30.362
37.7633
46.3967
53.0363
58.4067
65.9158
70.578
73.4756
2.61625
3.86176
5.5203
8.30317
16.8181
25.8328
32.5856
39.9059
43.7148
52.3603
-0.122387
0.113401
0.313257
0.448262
1.02035
4.06723
10.1647
18.0948
22.6976
34.1334
-0.450332
-0.447735
-0.373808
-0.310332
-0.248198
-0.0963967
0.46164
5.91353
10.3844
20.9477
-0.57985
-0.603573
-0.587648
-0.549055
-0.49226
-0.419863
-0.480725
0.410465
6.83107
11.8822
-0.652582
-0.65943
-0.667108
-0.659196
-0.623586
-0.572043
-0.555685
-0.701943
0.513753
11.6343
-0.708381
-0.69084
-0.696723
-0.719338
-0.6968
-0.647798
-0.595824
-0.58967
0.0733601
13.1048
-0.742523
-0.721558
-0.714221
-0.742965
-0.729079
-0.682339
-0.650944
-0.69282
-0.822715
-0.738728
-0.76406
-0.759293
-0.755724
-0.77015
-0.750359
-0.69435
-0.682416
-0.726726
-0.799774
-0.822479
-0.804832
-0.807068
-0.813605
-0.818686
-0.782575
-0.704956
-0.710767
-0.764905
-0.835464
-0.809638
-0.863641
-0.859283
-0.867207
-0.877244
-0.836544
-0.747836
-0.770649
-0.836032
-0.893209
-0.852386
-0.930502
-0.923287
-0.928304
-0.944129
-0.898205
-0.824233
-0.85864
-0.932537
-0.970827
-0.917425
-1.02061
-1.02426
-1.02887
-1.02876
-0.96226
-0.919009
-0.963137
-1.03571
-1.04824
-0.979121
364.463
365.163
366.164
367.368
368.663
369.97
371.127
372.1
372.763
373.213
315.316
316.093
317.21
318.551
319.98
321.414
322.743
323.842
324.498
325.04
266.039
267.015
268.408
270.068
271.823
273.563
275.119
276.474
277.067
277.823
216.543
217.786
219.578
221.675
223.925
226.333
228.267
229.895
230.809
231.676
166.469
168.247
170.924
174.002
177.139
180.198
182.703
184.754
186.305
187.474
115.869
118.123
122.021
126.399
130.956
135.139
138.555
141.664
144.214
145.042
62.8882
66.8593
72.429
79.4121
86.4416
92.2812
96.6833
101.739
103.861
103.832
19.8922
26.0234
31.7267
38.8448
47.0568
53.5805
57.9534
61.9884
64.7214
65.1634
1.45532
2.74991
4.71142
7.96199
15.009
25.4288
31.1063
35.7113
35.6916
42.673
-0.435048
-0.341945
-0.232611
-0.127385
0.130937
1.94541
6.0734
11.9633
14.1502
22.4144
-0.770762
-0.752154
-0.666377
-0.567235
-0.481808
-0.40257
-0.30951
0.100535
1.08612
6.0975
-0.790323
-0.852855
-0.806976
-0.719554
-0.639913
-0.575118
-0.5625
-0.609254
-0.813931
0.0969586
-0.775617
-0.862786
-0.89061
-0.829285
-0.728759
-0.658532
-0.625444
-0.641065
-0.741185
-0.554773
-0.807787
-0.822652
-0.862116
-0.877456
-0.786353
-0.703989
-0.652923
-0.640085
-0.679164
-0.269494
-0.809122
-0.775347
-0.783321
-0.849918
-0.814624
-0.74627
-0.698868
-0.698004
-0.772367
-0.379552
-0.786241
-0.76985
-0.763125
-0.822628
-0.834102
-0.774836
-0.74618
-0.772278
-0.840539
-0.839853
-0.806137
-0.807576
-0.804747
-0.840929
-0.863966
-0.790854
-0.798496
-0.861258
-0.91213
-0.861635
-0.867735
-0.867096
-0.869855
-0.893429
-0.902945
-0.840925
-0.876846
-0.962742
-0.998021
-0.928117
-0.944053
-0.944463
-0.953117
-0.963833
-0.940688
-0.916677
-0.974953
-1.07113
-1.08803
-1.00694
-1.04551
-1.06353
-1.08134
-1.05294
-0.994852
-1.01275
-1.086
-1.17582
-1.16684
-1.06796
363.874
364.576
365.526
366.638
367.832
369.018
370.099
371.004
371.642
372.09
314.746
315.53
316.58
317.802
319.107
320.411
321.631
322.667
323.35
323.744
265.533
266.503
267.784
269.264
270.832
272.445
273.848
275.092
275.732
276.253
216.205
217.476
219.112
220.939
222.831
224.858
226.682
228.221
228.981
229.612
166.79
168.615
170.82
173.28
175.991
178.584
180.77
182.62
183.454
184.319
117.774
120.229
122.973
125.849
129.291
132.739
135.638
138.225
139.649
140.584
67.763
71.679
75.9661
79.4751
84.744
89.3437
92.6018
96.4202
98.3651
99.3994
25.6014
31.5733
36.0154
40.9397
46.2328
50.7064
53.3891
56.2601
56.3076
54.8587
1.37979
3.74889
5.78787
7.98219
12.6737
19.1391
23.6671
27.7379
27.5954
34.5793
-0.558261
-0.542698
-0.504982
-0.45831
-0.372221
-0.0141532
0.968026
3.30329
5.87086
11.121
-0.752648
-0.751577
-0.707781
-0.635839
-0.574078
-0.52476
-0.470077
-0.309482
-0.319963
0.30199
-0.765551
-0.802038
-0.784228
-0.727898
-0.661966
-0.597757
-0.551667
-0.507652
-0.573988
-0.450171
-0.836067
-0.893416
-0.902519
-0.839094
-0.738755
-0.659559
-0.61084
-0.582314
-0.646455
-0.456978
-0.872471
-0.894341
-0.910484
-0.888556
-0.802365
-0.726499
-0.673392
-0.648903
-0.689115
-0.538509
-0.850007
-0.830968
-0.836504
-0.869405
-0.836219
-0.772906
-0.73451
-0.745457
-0.803034
-0.689166
-0.809598
-0.796256
-0.794688
-0.832336
-0.836581
-0.779098
-0.786064
-0.856227
-0.919603
-0.849362
-0.826458
-0.827442
-0.823007
-0.829228
-0.829174
-0.787528
-0.854813
-0.958967
-1.00288
-0.915276
-0.895694
-0.897692
-0.88756
-0.866118
-0.842568
-0.85075
-0.936305
-1.05225
-1.06745
-0.965404
-0.979487
-0.982549
-0.967026
-0.922396
-0.872614
-0.935503
-1.02469
-1.13498
-1.12448
-1.02484
-1.09128
-1.10818
-1.08719
-0.993369
-0.943351
-1.03467
-1.13071
-1.22006
-1.17811
-1.07896
362.973
363.685
364.582
365.597
366.66
367.718
368.659
369.435
369.988
370.389
313.816
314.617
315.597
316.689
317.831
318.929
319.98
320.873
321.388
321.842
264.573
265.557
266.724
268.001
269.347
270.694
271.859
272.93
273.563
273.952
215.323
216.57
217.964
219.426
220.939
222.418
223.963
225.36
226.093
226.625
166.169
167.847
169.602
171.399
173.398
175.415
177.326
179.138
179.801
180.346
117.742
119.866
121.648
123.536
125.397
128.124
130.912
133.239
134.245
134.776
69.1652
71.8345
74.6226
76.385
78.7545
82.255
85.9452
89.2887
90.0807
91.0123
28.9899
33.1712
35.7451
37.6677
39.2592
40.9815
44.5674
48.7394
46.6573
47.6075
2.62838
5.0108
6.59019
7.0611
6.55209
7.63303
11.4685
15.8449
15.4286
23.5251
-0.613284
-0.630683
-0.584693
-0.509175
-0.452305
-0.36147
-0.221387
-0.0439981
0.14684
2.56563
-0.724818
-0.72762
-0.692171
-0.631258
-0.57236
-0.505485
-0.464203
-0.417957
-0.385855
-0.248479
-0.759912
-0.772523
-0.755638
-0.707298
-0.647859
-0.589492
-0.539505
-0.503082
-0.500969
-0.39528
-0.815556
-0.839627
-0.842392
-0.796427
-0.714233
-0.644258
-0.60281
-0.595811
-0.62995
-0.498581
-0.849015
-0.857282
-0.859935
-0.837497
-0.770916
-0.712282
-0.679702
-0.699826
-0.758489
-0.629932
-0.840878
-0.827588
-0.825097
-0.829118
-0.793332
-0.745922
-0.735896
-0.809425
-0.877303
-0.743246
-0.826168
-0.816396
-0.809152
-0.806311
-0.779414
-0.747261
-0.786528
-0.893952
-0.940319
-0.834801
-0.858786
-0.859555
-0.845455
-0.809249
-0.774968
-0.772259
-0.85464
-0.950081
-0.962816
-0.88701
-0.928779
-0.929091
-0.899098
-0.83387
-0.799036
-0.849808
-0.91652
-1.0031
-0.994373
-0.940739
-1.01693
-1.01532
-0.968186
-0.882811
-0.850251
-0.941723
-0.997442
-1.06015
-1.04474
-1.00663
-1.13855
-1.14254
-1.08112
-0.970762
-0.946354
-1.03706
-1.091
-1.12884
-1.09626
-1.06423
361.902
362.61
363.441
364.333
365.233
366.107
366.914
367.587
368.064
368.361
312.691
313.494
314.391
315.325
316.248
317.128
318.008
318.77
319.261
319.64
263.36
264.335
265.369
266.41
267.442
268.548
269.588
270.433
271.031
271.331
213.967
215.2
216.392
217.495
218.558
219.664
220.854
222.052
222.719
223.213
164.702
166.248
167.627
168.833
169.996
171.651
173.304
174.851
175.57
175.96
116.072
117.645
118.91
119.735
120.815
122.802
125.329
127.452
128.306
128.441
69.0614
70.0332
71.1665
71.605
71.9501
74.4323
78.2119
81.2123
81.3466
81.9574
29.6153
29.5947
29.4902
29.3651
28.6115
31.3547
35.7963
40.4788
37.4076
39.7012
3.31381
4.29725
3.73414
2.33672
0.898789
1.58672
3.89642
8.10203
7.4098
12.0691
-0.666492
-0.649802
-0.557843
-0.464676
-0.443435
-0.36253
-0.298395
-0.227797
-0.1608
0.166117
-0.704211
-0.687616
-0.623108
-0.553523
-0.502621
-0.460205
-0.43889
-0.40262
-0.391963
-0.341043
-0.737276
-0.726598
-0.685667
-0.638291
-0.596838
-0.562014
-0.520243
-0.487315
-0.494584
-0.41792
-0.772952
-0.771994
-0.748844
-0.704136
-0.651982
-0.617946
-0.592868
-0.611505
-0.659886
-0.549349
-0.803982
-0.796165
-0.78079
-0.750777
-0.697311
-0.675808
-0.670482
-0.727199
-0.803975
-0.677086
-0.820623
-0.805453
-0.790181
-0.768678
-0.726664
-0.709018
-0.722796
-0.811701
-0.857595
-0.748835
-0.83756
-0.828327
-0.81242
-0.776845
-0.73322
-0.719777
-0.770209
-0.840383
-0.844356
-0.777085
-0.884492
-0.883663
-0.856664
-0.792934
-0.755876
-0.756952
-0.818549
-0.868968
-0.855899
-0.818158
-0.960131
-0.96071
-0.910759
-0.816687
-0.778101
-0.848519
-0.889478
-0.922245
-0.906302
-0.885938
-1.06297
-1.05914
-0.985795
-0.877394
-0.833412
-0.946648
-0.977228
-0.997099
-0.976896
-0.959692
-1.19053
-1.18577
-1.09509
-0.985364
-0.966526
-1.04279
-1.07574
-1.08458
-1.06068
-1.03592
360.781
361.472
362.23
363
363.744
364.456
365.108
365.673
366.074
366.327
311.528
312.307
313.107
313.892
314.634
315.337
316.001
316.62
317.058
317.371
262.092
263.019
263.918
264.735
265.507
266.325
267.128
267.813
268.281
268.609
212.59
213.737
214.706
215.466
216.149
216.875
217.703
218.639
219.182
219.721
162.898
164.344
165.368
166.113
166.917
167.798
168.908
170.216
170.927
171.465
113.943
114.823
115.632
115.758
116.161
117.731
119.819
121.424
122.047
122.431
66.6638
66.3138
66.363
65.7701
64.7862
66.1813
69.6094
72.2794
72.1687
73.756
26.9561
22.5662
21.6296
21.2771
19.4311
22.4325
28.1568
32.255
30.752
32.2845
1.7503
0.957587
0.303762
0.233195
0.235367
0.312376
0.707959
1.49367
2.32244
5.50572
-0.668655
-0.583331
-0.456551
-0.336784
-0.318165
-0.3388
-0.3412
-0.349648
-0.281581
-0.0537995
-0.68923
-0.626841
-0.536036
-0.467222
-0.427371
-0.403613
-0.417904
-0.415357
-0.396477
-0.336188
-0.718269
-0.682884
-0.623646
-0.577991
-0.554302
-0.533425
-0.48974
-0.468457
-0.498031
-0.439291
-0.74711
-0.724847
-0.686134
-0.644139
-0.612431
-0.60499
-0.57681
-0.61437
-0.687208
-0.578026
-0.775872
-0.758739
-0.731317
-0.690466
-0.645845
-0.659305
-0.663792
-0.708014
-0.800414
-0.686877
-0.811136
-0.793535
-0.768389
-0.726041
-0.677385
-0.676674
-0.715798
-0.767636
-0.797616
-0.731963
-0.850717
-0.839462
-0.812071
-0.752764
-0.694675
-0.655319
-0.746945
-0.802882
-0.78966
-0.747803
-0.911836
-0.909352
-0.867228
-0.774303
-0.704857
-0.707521
-0.801541
-0.848512
-0.825586
-0.796001
-1.00054
-1.00137
-0.930767
-0.805739
-0.703958
-0.824006
-0.88961
-0.904952
-0.897225
-0.872707
-1.1111
-1.10908
-1.01057
-0.876473
-0.790284
-0.928815
-0.97904
-0.968643
-0.96718
-0.951253
-1.21826
-1.2164
-1.11018
-1.00425
-1.01789
-1.06283
-1.08018
-1.05732
-1.04097
-1.02299
359.712
360.372
361.052
361.7
362.296
362.877
363.382
363.863
364.168
364.313
310.427
311.173
311.864
312.495
313.05
313.578
314.086
314.609
314.955
315.232
260.916
261.771
262.511
263.095
263.584
264.172
264.776
265.31
265.707
266.031
211.308
212.482
213.098
213.466
213.672
214.05
214.57
215.309
215.809
216.37
161.325
162.7
163.292
163.329
163.223
163.741
164.46
165.456
166.554
167.173
111.953
112.454
112.814
111.686
110.461
111.326
113.498
115.171
115.61
116.55
62.6566
62.6277
62.5444
58.3015
53.6224
54.4716
56.8241
59.9486
62.22
66.4294
18.5325
18.2483
19.6956
15.0252
9.74716
11.2795
16.4659
22.5608
22.3781
25.9467
-0.252646
-0.123218
-0.00484709
0.0420282
0.0117963
-0.0649826
0.0392605
0.269109
0.226658
2.95866
-0.629811
-0.470081
-0.319678
-0.272236
-0.290662
-0.353907
-0.37502
-0.242837
-0.269317
-0.0831234
-0.66534
-0.555569
-0.45813
-0.419829
-0.417801
-0.428963
-0.434495
-0.401475
-0.399483
-0.341885
-0.697429
-0.63403
-0.570817
-0.538648
-0.532434
-0.514888
-0.45172
-0.453985
-0.502734
-0.475266
-0.727842
-0.686635
-0.64493
-0.61919
-0.604442
-0.592057
-0.54534
-0.58997
-0.664097
-0.604404
-0.759765
-0.732563
-0.700051
-0.668446
-0.637438
-0.62784
-0.649903
-0.694017
-0.774999
-0.697803
-0.805459
-0.783395
-0.752065
-0.706165
-0.656277
-0.596976
-0.70325
-0.781874
-0.807912
-0.738916
-0.859545
-0.846968
-0.811036
-0.73896
-0.664822
-0.600398
-0.739551
-0.830666
-0.813046
-0.755684
-0.935782
-0.935398
-0.880796
-0.765686
-0.648187
-0.696285
-0.818385
-0.845008
-0.828343
-0.795061
-1.03665
-1.03668
-0.957631
-0.817891
-0.675147
-0.823094
-0.899283
-0.8656
-0.883472
-0.86132
-1.138
-1.13489
-1.04254
-0.922054
-0.888055
-0.972406
-0.988415
-0.931835
-0.959792
-0.939249
-1.20222
-1.20265
-1.13936
-1.08404
-1.13749
-1.13778
-1.09974
-1.05263
-1.03613
-1.01572
358.81
359.443
360.046
360.606
361.106
361.568
361.96
362.331
362.584
362.762
309.475
310.177
310.787
311.316
311.774
312.182
312.542
312.937
313.21
313.494
259.876
260.662
261.287
261.735
262.103
262.476
262.917
263.197
263.49
263.931
210.125
211.246
211.741
211.851
211.852
211.995
212.175
212.443
212.897
213.539
160.152
161.119
161.344
160.96
160.506
160.558
160.681
161.247
162.485
163.213
110.968
110.398
109.715
108.16
106.648
106.691
106.801
107.734
108.339
110.377
58.6193
59.6343
56.9006
50.0898
45.7002
44.9971
43.0345
42.4544
47.0313
57.3416
14.0526
18.188
16.0935
8.16006
5.57992
5.13262
4.53493
6.30055
11.1673
18.6549
-0.366249
-0.185361
0.0204555
0.118198
0.16198
-0.0747467
-0.197945
0.1166
0.119705
1.38901
-0.53026
-0.372325
-0.264266
-0.188711
-0.145068
-0.242731
-0.348267
-0.25139
-0.237314
-0.188579
-0.622147
-0.489578
-0.419313
-0.39642
-0.400186
-0.438841
-0.455536
-0.437364
-0.449284
-0.364266
-0.662601
-0.585185
-0.534384
-0.507163
-0.504071
-0.49047
-0.462414
-0.490995
-0.532437
-0.510419
-0.709282
-0.66082
-0.626943
-0.597397
-0.590938
-0.553671
-0.549546
-0.62079
-0.66693
-0.639102
-0.749971
-0.720878
-0.693253
-0.655003
-0.64433
-0.61712
-0.656761
-0.76854
-0.811799
-0.732178
-0.799806
-0.784818
-0.752753
-0.692397
-0.654714
-0.663583
-0.751834
-0.875178
-0.876148
-0.773238
-0.869133
-0.866689
-0.823022
-0.744933
-0.663858
-0.702329
-0.811494
-0.86292
-0.837527
-0.774816
-0.961528
-0.962687
-0.905227
-0.812417
-0.753986
-0.782745
-0.85344
-0.815515
-0.831515
-0.79828
-1.05534
-1.05301
-0.997182
-0.893215
-0.928249
-0.915991
-0.921611
-0.828477
-0.895682
-0.861017
-1.11636
-1.12081
-1.10766
-1.03878
-1.09219
-1.07907
-1.02334
-0.940491
-0.975457
-0.94616
-1.13287
-1.15901
-1.21292
-1.24895
-1.2299
-1.21094
-1.13655
-1.08065
-1.04527
-1.02435
358.13
358.717
359.242
359.74
360.183
360.6
360.93
361.23
361.429
361.593
308.761
309.402
309.915
310.398
310.815
311.163
311.461
311.729
311.922
312.108
259.07
259.818
260.323
260.724
260.964
261.305
261.589
261.745
261.89
262.141
209.169
210.106
210.41
210.611
210.758
210.632
210.761
210.743
210.923
211.656
159.186
159.533
158.979
158.666
159.011
158.626
158.655
158.455
159.426
160.35
109.329
108.594
106.932
105.545
105.017
104.817
104.148
102.503
102.537
105.29
57.5064
57.1511
51.456
44.3588
43.1682
43.2285
39.719
34.9322
33.6026
48.2916
16.0906
19.3273
12.0969
6.01587
6.34387
6.66206
3.78395
1.82528
3.5727
12.1596
-0.264899
-0.0715825
0.0864019
0.27594
0.770793
1.07906
-0.0473238
-0.176443
0.00561605
1.14052
-0.421125
-0.273946
-0.133128
0.0581838
0.363119
0.296022
-0.183575
-0.273881
-0.224087
-0.0925273
-0.545671
-0.435635
-0.358244
-0.280078
-0.157891
-0.223579
-0.365594
-0.452824
-0.485135
-0.347028
-0.610826
-0.536466
-0.5138
-0.508354
-0.452105
-0.44919
-0.457202
-0.554974
-0.611542
-0.545107
-0.676305
-0.625578
-0.624006
-0.638494
-0.623289
-0.603005
-0.592951
-0.712134
-0.744251
-0.690262
-0.734638
-0.704166
-0.698037
-0.68315
-0.674454
-0.690497
-0.722046
-0.847221
-0.860224
-0.775683
-0.795609
-0.78856
-0.773293
-0.719336
-0.70377
-0.735441
-0.798877
-0.891089
-0.895634
-0.801134
-0.875484
-0.886254
-0.876949
-0.79933
-0.760712
-0.779914
-0.847721
-0.842614
-0.849663
-0.79409
-0.961214
-0.97567
-0.994533
-0.935154
-0.865931
-0.854207
-0.901176
-0.827423
-0.859354
-0.814462
-1.01474
-1.03282
-1.08564
-1.11199
-1.01995
-0.957814
-0.971943
-0.889515
-0.939129
-0.894431
-1.03636
-1.06954
-1.15358
-1.24603
-1.16126
-1.08192
-1.06505
-1.0219
-1.02419
-0.986305
-1.04723
-1.10646
-1.22291
-1.29687
-1.24958
-1.19258
-1.15722
-1.13425
-1.0953
-1.05956
357.775
358.232
358.69
359.201
359.731
360.119
360.4
360.657
360.822
360.98
308.459
308.881
309.309
309.825
310.448
310.828
310.953
311.144
311.282
311.463
258.825
259.168
259.64
260.135
260.837
261.191
261.256
261.165
261.18
261.4
209.11
209.431
209.815
210.288
210.827
210.976
210.852
210.371
210.115
210.637
159.171
158.838
158.709
159.075
159.995
160.302
159.279
158.3
158.599
159.241
109.124
108.046
106.384
106.556
107.727
108.349
105.318
102.511
100.98
103.2
58.552
56.5163
50.2971
46.8348
48.2803
48.7547
42.6549
37.4152
30.3406
43.3033
19.7436
18.4497
10.1255
7.38873
8.73848
10.0109
6.64269
3.3124
1.58949
9.10848
-0.184089
-0.0129666
0.116408
0.297214
0.859141
1.76241
0.50523
-0.397163
-0.1754
0.989233
-0.303936
-0.155571
0.000496123
0.211476
0.518469
0.62095
0.0441113
-0.239885
-0.198835
0.00290775
-0.463883
-0.361926
-0.213231
-0.0695912
0.0848859
0.0198898
-0.224547
-0.42102
-0.488155
-0.345882
-0.565811
-0.51691
-0.41981
-0.328029
-0.257072
-0.333124
-0.44724
-0.604443
-0.657921
-0.579969
-0.649047
-0.636314
-0.595562
-0.522058
-0.498355
-0.552732
-0.638554
-0.777264
-0.811401
-0.739768
-0.732634
-0.739185
-0.728701
-0.666826
-0.651918
-0.688781
-0.790749
-0.886535
-0.914118
-0.816167
-0.810906
-0.835725
-0.850952
-0.772671
-0.745554
-0.778123
-0.863145
-0.913321
-0.932007
-0.83434
-0.884703
-0.922638
-0.967451
-0.888487
-0.846821
-0.854323
-0.914367
-0.898892
-0.894055
-0.835234
-0.934329
-0.978269
-1.06054
-1.00757
-0.954733
-0.939285
-0.985327
-0.941055
-0.924957
-0.875906
-0.952064
-0.997073
-1.10057
-1.10718
-1.05582
-1.02726
-1.07108
-1.05744
-1.01628
-0.963771
-0.961679
-1.02047
-1.12447
-1.18816
-1.14143
-1.10872
-1.15903
-1.18096
-1.11344
-1.05914
-0.993158
-1.06519
-1.17816
-1.24222
-1.19672
-1.16429
-1.21681
-1.25996
-1.19254
-1.13199
357.745
358.052
358.467
358.978
359.518
359.96
360.295
360.582
360.765
360.937
308.604
308.662
309.053
309.602
310.233
310.655
310.891
311.102
311.25
311.455
258.761
258.832
259.255
259.86
260.796
261.238
261.26
261.23
261.277
261.48
208.553
208.506
209.061
209.849
210.978
211.434
211.219
210.709
210.323
210.84
157.961
157.496
157.823
158.852
160.51
161.632
160.742
159.229
159.155
159.548
107.602
106.255
104.959
105.144
107.709
110.202
108.339
104.065
101.585
103.548
58.1687
54.6662
47.6442
43.0146
44.9841
50.5705
48.8306
43.2202
33.8773
44.7342
20.1407
17.4896
9.72958
6.1389
7.1333
10.718
10.6416
7.18535
3.37669
9.65828
-0.135988
0.0204518
0.168391
0.397001
0.781367
1.15087
0.267677
-0.365833
-0.271309
0.82466
-0.206194
-0.0829947
0.0493521
0.256049
0.4842
0.519335
0.0861259
-0.208328
-0.195854
0.0169685
-0.349681
-0.269121
-0.166237
-0.0356936
0.103664
0.0716991
-0.15726
-0.366953
-0.434829
-0.31923
-0.508146
-0.469039
-0.378496
-0.297113
-0.271585
-0.327787
-0.476625
-0.618537
-0.675725
-0.601993
-0.636783
-0.646875
-0.581389
-0.515431
-0.545354
-0.590916
-0.724273
-0.808653
-0.858964
-0.784163
-0.741306
-0.781715
-0.754833
-0.686536
-0.721189
-0.759119
-0.873251
-0.92225
-0.969969
-0.856005
-0.827052
-0.874154
-0.88881
-0.816134
-0.856144
-0.868646
-0.949048
-0.970137
-0.985024
-0.873283
-0.8842
-0.933145
-0.982336
-0.941169
-0.981258
-0.971001
-1.03121
-0.992355
-0.957198
-0.88739
-0.904748
-0.948221
-1.02247
-1.04568
-1.09824
-1.08971
-1.15167
-1.07642
-1.0059
-0.948447
-0.903905
-0.937833
-1.02747
-1.10869
-1.17807
-1.19556
-1.25243
-1.21195
-1.11619
-1.05288
-0.915095
-0.950971
-1.07518
-1.15823
-1.21384
-1.26809
-1.32027
-1.3138
-1.22852
-1.16119
-0.962016
-1.03751
-1.16764
-1.22023
-1.22099
-1.26033
-1.33194
-1.36521
-1.2983
-1.22636
357.846
358.136
358.531
359.051
359.622
360.169
360.634
360.998
361.244
361.437
308.345
308.585
308.995
309.592
310.242
310.805
311.264
311.553
311.732
312.045
258.408
258.455
258.915
259.572
260.388
261.176
261.672
262.002
262.293
262.319
207.812
207.36
207.641
208.729
210.172
210.973
211.412
211.452
211.456
211.941
156.452
155.867
156.178
156.981
159.058
160.495
160.766
160.392
160.495
161.253
105.281
103.998
102.71
102.286
104.106
107.098
107.475
106.549
105.512
106.597
54.1679
50.2964
42.1624
34.3937
36.8533
44.2516
47.9951
48.1038
38.3999
48.4028
12.9552
12.2041
6.91781
3.57269
4.49953
7.44981
9.57177
9.18878
5.52907
11.5603
-0.117471
0.0495201
0.244252
0.518689
0.781174
0.623504
0.122562
-0.212362
-0.120257
1.02777
-0.160891
-0.071476
0.0884165
0.333064
0.476843
0.324514
0.036611
-0.134103
-0.154566
-0.00192544
-0.277809
-0.23267
-0.157838
-0.0132571
0.075705
-0.0099047
-0.186722
-0.36244
-0.456075
-0.331038
-0.457363
-0.432599
-0.395943
-0.308404
-0.289381
-0.373272
-0.522392
-0.642349
-0.712813
-0.62858
-0.620144
-0.63287
-0.606243
-0.559206
-0.584249
-0.652618
-0.783988
-0.836643
-0.91847
-0.821376
-0.742212
-0.77074
-0.758492
-0.729997
-0.781557
-0.830009
-0.932847
-0.951703
-1.02843
-0.898333
-0.826426
-0.85153
-0.871558
-0.869315
-0.910705
-0.957821
-1.01658
-1.01518
-1.04227
-0.91326
-0.864906
-0.885869
-0.946458
-0.998244
-1.0404
-1.08642
-1.11194
-1.05507
-1.01673
-0.93206
-0.86223
-0.89835
-1.02112
-1.11231
-1.1718
-1.22398
-1.23163
-1.14819
-1.07603
-1.01452
-0.861884
-0.921356
-1.09626
-1.18954
-1.26777
-1.3385
-1.32484
-1.28696
-1.22301
-1.15654
-0.904353
-0.997777
-1.16723
-1.2372
-1.31559
-1.37096
-1.37137
-1.37964
-1.34448
-1.2718
-1.00648
-1.10936
-1.21037
-1.26416
-1.29842
-1.32083
-1.37047
-1.39255
-1.35351
-1.30026
358.249
358.458
358.847
359.431
360.075
360.761
361.385
361.901
362.276
362.487
308.734
308.858
309.287
309.939
310.649
311.386
312.058
312.543
312.858
313.238
258.746
258.608
259.236
259.955
260.843
261.761
262.553
263.272
263.727
263.858
208.206
206.995
208.128
209.111
210.264
211.499
212.421
212.899
213.361
213.896
156.868
156.015
155.742
157.119
158.816
160.842
161.982
162.356
162.983
164.033
104.919
103.312
101.322
101.724
103.693
107.389
109.65
110.221
110.706
111.491
52.5816
47.0262
40.2621
33.5995
39.9899
48.8367
53.3564
51.488
48.425
56.5979
12.3215
9.30174
5.74382
3.29966
4.4777
8.33541
11.3159
9.46733
9.81733
16.6464
-0.00742733
0.140895
0.297211
0.538799
0.603949
0.402529
0.115921
-0.0620571
0.125534
1.59389
-0.131683
-0.0535478
0.125514
0.343384
0.371167
0.151131
-0.0684081
-0.13618
-0.132259
-0.018524
-0.252457
-0.232875
-0.120848
-0.0028065
-0.0403549
-0.180167
-0.311804
-0.432771
-0.479633
-0.318182
-0.442445
-0.438549
-0.388386
-0.33878
-0.414084
-0.510825
-0.608919
-0.690032
-0.743743
-0.62531
-0.609107
-0.625063
-0.634101
-0.612236
-0.708383
-0.783216
-0.843041
-0.872525
-0.941273
-0.826395
-0.735015
-0.763791
-0.78914
-0.79082
-0.88765
-0.960726
-0.972255
-0.970434
-1.06275
-0.926073
-0.81825
-0.852739
-0.877252
-0.914255
-1.0094
-1.07131
-1.03155
-1.03825
-1.0872
-0.951508
-0.866301
-0.915442
-0.970326
-1.03472
-1.13012
-1.15947
-1.11021
-1.0852
-1.07095
-0.972568
-0.905251
-0.993685
-1.08913
-1.16434
-1.25923
-1.24064
-1.21082
-1.18122
-1.13521
-1.06967
-0.966437
-1.08638
-1.17737
-1.27052
-1.34284
-1.30692
-1.29144
-1.31363
-1.30148
-1.24034
-1.06093
-1.15254
-1.20107
-1.30938
-1.37555
-1.34823
-1.33466
-1.3836
-1.39182
-1.32637
-1.13418
-1.16386
-1.19203
-1.29977
-1.36628
-1.36316
-1.35313
-1.38353
-1.37143
-1.32705
358.958
359.076
359.478
360.118
360.869
361.693
362.506
363.182
363.658
363.892
309.455
309.54
309.983
310.662
311.446
312.381
313.241
313.956
314.459
314.839
259.506
259.502
259.94
260.737
261.8
262.904
263.959
264.981
265.565
265.855
209.04
208.438
209.059
209.976
211.164
212.768
214.165
215.166
215.909
216.425
157.532
156.625
157.015
158.293
160.281
162.431
164.253
165.721
166.819
167.524
105.339
102.898
102.497
103.03
105.802
109.962
113.267
115.912
117.001
116.939
54.6993
46.7502
42.9483
39.5478
43.9452
52.885
58.0062
60.688
63.3375
65.8106
17.1735
9.64599
6.51797
4.56473
5.45016
11.1023
14.8129
18.0159
21.9618
24.6381
0.0640798
0.224852
0.404793
0.527358
0.503856
0.397968
0.247188
0.268308
0.247595
2.6764
-0.0801624
0.00313463
0.170435
0.284658
0.220855
0.0128457
-0.155212
-0.110623
-0.0953196
-0.0216358
-0.224915
-0.200145
-0.0767965
-0.0584371
-0.196905
-0.331191
-0.426114
-0.472198
-0.438741
-0.295059
-0.43781
-0.431897
-0.387877
-0.439727
-0.567267
-0.644818
-0.69488
-0.735889
-0.720577
-0.593111
-0.631376
-0.630269
-0.659015
-0.702564
-0.813012
-0.869004
-0.89405
-0.896733
-0.906503
-0.797882
-0.773033
-0.780211
-0.833419
-0.862391
-0.956897
-0.995969
-0.990807
-0.980358
-1.02411
-0.913757
-0.87338
-0.894167
-0.934161
-0.97929
-1.05272
-1.0719
-1.02896
-1.03491
-1.09129
-0.973464
-0.95126
-0.992441
-1.03501
-1.08764
-1.13903
-1.12079
-1.09015
-1.09391
-1.10851
-1.01067
-1.02878
-1.09664
-1.14446
-1.19684
-1.22265
-1.17541
-1.17156
-1.18337
-1.1645
-1.09857
-1.11649
-1.18134
-1.22046
-1.27574
-1.29521
-1.23985
-1.24527
-1.2979
-1.29924
-1.24918
-1.17541
-1.21093
-1.24078
-1.30566
-1.34543
-1.32205
-1.31722
-1.37512
-1.38717
-1.32778
-1.18018
-1.197
-1.23224
-1.30581
-1.36272
-1.39114
-1.39651
-1.41838
-1.39577
-1.34179
359.779
359.905
360.355
361.097
361.985
362.954
363.905
364.732
365.331
365.748
310.289
310.409
310.915
311.725
312.694
313.765
314.793
315.692
316.341
316.793
260.311
260.458
261.012
262.016
263.272
264.647
265.925
267.134
267.866
268.24
209.81
209.72
210.469
211.718
213.227
214.906
216.597
218.083
218.909
219.491
158.147
158.201
159.009
160.883
163.263
165.678
167.763
170.028
171.086
171.709
106.734
104.128
105.913
108.085
111.431
115.523
118.962
122.009
122.941
122.938
58.1269
50.4423
51.232
53.7653
56.9915
62.4243
67.4494
72.2166
73.2678
74.3425
20.7486
11.3003
9.55736
12.6278
16.447
22.5352
27.0336
31.0145
32.4772
34.3145
0.395043
0.405032
0.528
0.585237
0.541568
0.510374
0.869915
1.79626
2.57555
7.84215
0.08337
0.151326
0.264268
0.218655
0.0898113
-0.115709
-0.199143
-0.102065
-0.0746992
0.169341
-0.211396
-0.160806
-0.0997441
-0.202597
-0.34585
-0.426999
-0.463376
-0.435288
-0.376989
-0.266344
-0.495297
-0.464181
-0.481748
-0.602278
-0.697863
-0.731339
-0.741182
-0.731082
-0.669743
-0.538277
-0.719678
-0.696595
-0.738679
-0.803281
-0.872524
-0.907793
-0.916768
-0.902847
-0.861312
-0.750594
-0.875069
-0.862873
-0.890249
-0.912503
-0.971575
-0.997999
-0.999984
-0.98702
-0.987192
-0.892756
-0.974631
-0.973959
-0.99376
-1.00958
-1.04569
-1.05576
-1.04334
-1.03272
-1.07287
-0.980391
-1.05366
-1.07129
-1.09581
-1.11013
-1.11341
-1.10056
-1.09067
-1.09485
-1.12196
-1.04221
-1.13062
-1.15841
-1.18705
-1.20277
-1.19068
-1.14489
-1.15001
-1.17715
-1.17958
-1.11671
-1.18005
-1.21042
-1.23763
-1.26305
-1.27587
-1.22711
-1.23056
-1.27692
-1.2723
-1.22661
-1.18975
-1.21695
-1.23996
-1.28032
-1.34639
-1.37063
-1.35834
-1.38201
-1.36017
-1.31429
-1.17278
-1.19376
-1.21321
-1.25842
-1.3466
-1.44487
-1.48487
-1.47723
-1.42279
-1.36378
360.672
360.838
361.354
362.187
363.214
364.334
365.437
366.367
367.056
367.486
311.199
311.399
311.992
312.924
314.054
315.271
316.472
317.524
318.32
318.835
261.158
261.532
262.268
263.457
264.936
266.544
268.095
269.547
270.304
270.744
210.479
211.052
212.105
213.642
215.45
217.384
219.258
220.99
222.125
222.881
159.145
160.155
161.456
163.795
166.48
169.247
171.798
174.334
175.421
176.268
108.578
107.598
109.862
112.972
116.687
120.632
123.984
127.55
128.997
129.631
58.4738
55.6034
59.2677
65.2253
69.4187
73.2277
76.9221
81.6639
83.3336
84.1314
18.8563
13.8032
14.9542
22.0287
28.0974
32.3275
37.4548
42.8347
42.9348
44.325
0.761598
0.771421
0.745326
0.830014
0.713822
1.12912
4.13212
8.64298
10.9207
16.5852
0.258294
0.295875
0.296515
0.123147
-0.0549477
-0.202545
-0.0734347
0.143355
0.148386
0.729632
-0.251258
-0.218805
-0.280823
-0.405931
-0.469366
-0.474671
-0.432921
-0.351654
-0.351291
-0.262739
-0.626144
-0.576001
-0.650734
-0.734913
-0.775584
-0.775766
-0.746764
-0.673272
-0.601204
-0.466787
-0.837568
-0.788758
-0.821457
-0.857406
-0.892451
-0.915781
-0.912425
-0.863229
-0.792997
-0.697348
-0.98423
-0.942177
-0.941545
-0.943115
-0.971107
-0.991498
-0.992257
-0.966626
-0.931375
-0.856573
-1.08924
-1.07748
-1.06341
-1.04229
-1.04902
-1.05535
-1.05184
-1.02939
-1.03547
-0.971522
-1.15621
-1.17588
-1.17951
-1.15399
-1.13226
-1.11196
-1.10914
-1.09758
-1.12158
-1.05558
-1.19748
-1.23763
-1.26808
-1.26494
-1.23831
-1.17723
-1.16226
-1.16989
-1.1897
-1.1269
-1.20743
-1.2588
-1.30704
-1.34424
-1.36751
-1.30564
-1.25654
-1.25772
-1.26219
-1.20943
-1.19226
-1.23798
-1.28383
-1.34759
-1.44137
-1.47475
-1.41374
-1.3769
-1.34182
-1.28959
-1.16239
-1.19254
-1.2213
-1.27262
-1.37584
-1.48604
-1.507
-1.46385
-1.4038
-1.35236
361.589
361.787
362.362
363.282
364.43
365.684
366.915
367.956
368.714
369.192
312.192
312.433
313.089
314.126
315.408
316.778
318.14
319.369
320.193
320.785
262.373
262.745
263.574
264.897
266.546
268.356
270.099
271.564
272.599
273.126
212.136
212.636
213.764
215.465
217.543
219.738
221.893
223.944
225.171
226.089
161.252
162.088
163.751
166.247
169.237
172.544
175.448
178.442
179.358
180.474
109.7
110.703
113.18
116.513
120.402
124.796
128.934
132.755
134.712
136.022
58.4921
59.397
63.4097
68.7501
73.9367
79.1074
84.235
89.6107
92.0067
93.6566
15.7549
16.2653
19.1615
24.3603
29.5674
36.2302
44.5567
51.1845
52.5217
54.302
0.766148
0.814244
0.777849
0.99141
1.23655
4.53306
12.0309
18.3645
20.5711
29.0337