/*--------------------------------*- C++ -*----------------------------------*\
| =========                 |                                                 |
| \\      /  F ield         | OpenFOAM: The Open Source CFD Toolbox           |
|  \\    /   O peration     | Version:  2312                                  |
|   \\  /    A nd           | Website:  www.openfoam.com                      |
|    \\/     M anipulation  |                                                 |
\*---------------------------------------------------------------------------*/
FoamFile
{
    version     2.0;
    format      ascii;
    arch        "LSB;label=32;scalar=64";
    class       volVectorField;
    location    "0.975";
    object      U;
}
// * * * * * * * * * * * * * * * * * * * * * * * * * * * * * * * * * * * * * //

dimensions      [0 1 -1 0 0 0 0];

internalField   nonuniform List<vector> 
8000
(
(-0.00368474 0.00511721 -0.00471248)
(-0.00711569 0.00470587 -0.0064694)
(-0.00811318 0.00437681 -0.00654846)
(-0.00963251 0.00394002 -0.00541466)
(-0.0112173 0.00362673 -0.0045689)
(-0.0123292 0.00330809 -0.00427201)
(-0.0125083 0.00293605 -0.00429848)
(-0.0116264 0.00244921 -0.0045487)
(-0.00946865 0.00192426 -0.0048338)
(-0.00566935 0.00152403 -0.00517042)
(-0.00544269 0.0194113 -0.00698073)
(-0.00981936 0.0183923 -0.0108586)
(-0.0120226 0.017218 -0.0110459)
(-0.0143387 0.0154853 -0.00854671)
(-0.0161602 0.0131912 -0.00642969)
(-0.0169819 0.0112738 -0.00564609)
(-0.0164277 0.00968811 -0.00548671)
(-0.0145661 0.00812381 -0.00549167)
(-0.0113613 0.00630362 -0.00540041)
(-0.00631895 0.00438181 -0.00546867)
(-0.0034312 0.036108 -0.00579471)
(-0.00600604 0.0329392 -0.0106813)
(-0.0122162 0.0316324 -0.0134499)
(-0.0161901 0.0296983 -0.0108926)
(-0.0182846 0.0253586 -0.00816063)
(-0.0187208 0.0209095 -0.0064725)
(-0.0181742 0.0171057 -0.00575497)
(-0.0169541 0.0133709 -0.00523955)
(-0.0146173 0.00933598 -0.00404751)
(-0.00839822 0.00595927 -0.00266624)
(0.0014993 0.0416378 -0.00313153)
(0.000136345 0.0377322 -0.00566542)
(-0.0129228 0.0453064 -0.00974072)
(-0.0209494 0.044768 -0.00893054)
(-0.0239738 0.0392528 -0.0079254)
(-0.0242285 0.0325775 -0.00651019)
(-0.0247792 0.0271546 -0.00513338)
(-0.0258612 0.0220435 -0.00276421)
(-0.0231512 0.0118626 0.000966818)
(-0.0111263 -0.00360079 0.00225636)
(0.0115995 0.0469102 -0.000284279)
(0.0100763 0.0398729 0.00247394)
(-0.012737 0.0550432 -0.00302888)
(-0.0313236 0.0571055 -0.00205826)
(-0.0379868 0.0512167 -0.00274873)
(-0.038388 0.0440072 -0.00313389)
(-0.0377797 0.0363355 -0.00266981)
(-0.0356343 0.0215658 -0.00109963)
(-0.0253016 -0.00486829 -0.00196812)
(-0.00806908 -0.024236 -0.00699769)
(0.0144685 0.0223297 0.0142341)
(-0.00606924 0.0342949 0.0154568)
(-0.0260129 0.0708725 0.00380503)
(-0.0468156 0.0729749 0.0034724)
(-0.0517991 0.0622067 -0.000860245)
(-0.0485961 0.0523646 -0.00420144)
(-0.0418965 0.041096 -0.00558535)
(-0.0319009 0.0198671 -0.00961363)
(-0.0180625 -0.00848295 -0.0194438)
(-0.00709568 -0.019623 -0.0244817)
(-0.00346218 0.0174639 0.0189438)
(-0.0276194 0.0394126 0.0146736)
(-0.0386919 0.0692309 0.0138731)
(-0.0545429 0.0714196 0.00263981)
(-0.0570834 0.0671669 -0.0131154)
(-0.0513235 0.0622765 -0.0204313)
(-0.0425407 0.0538601 -0.0214426)
(-0.0329428 0.0364495 -0.0254184)
(-0.0268866 0.0156727 -0.0331177)
(-0.0220094 0.00611495 -0.0359278)
(-0.0119462 0.0501634 -0.00230086)
(-0.0276885 0.0702284 -0.0173504)
(-0.0368422 0.0856717 -0.0103163)
(-0.0504474 0.0939943 -0.0249295)
(-0.0609512 0.100835 -0.0335993)
(-0.0768033 0.0984606 -0.0285378)
(-0.0873198 0.086156 -0.0237429)
(-0.0866005 0.0691027 -0.0252409)
(-0.0773645 0.0503847 -0.031912)
(-0.0569873 0.0356962 -0.0383444)
(-0.010044 0.103084 -0.0199601)
(-0.00596779 0.12673 -0.0492418)
(0.00815657 0.146429 -0.0385137)
(-0.0111955 0.166553 -0.0344264)
(-0.0639842 0.181022 -0.0260569)
(-0.122726 0.170206 -0.0142555)
(-0.158023 0.143051 -0.0081887)
(-0.153032 0.112512 -0.0130981)
(-0.118967 0.0864191 -0.0249876)
(-0.0782103 0.067786 -0.0348275)
(-0.00523736 0.166779 -0.0304461)
(0.0305558 0.203533 -0.0718974)
(0.084447 0.221177 -0.0573826)
(0.0731527 0.252045 -0.0306758)
(-0.0180383 0.259041 -0.0086925)
(-0.083663 0.21977 0.0074957)
(-0.116034 0.157099 -0.000621046)
(-0.099604 0.0942209 -0.0246138)
(-0.0642308 0.0382587 -0.0439459)
(-0.0484757 0.0106296 -0.0488457)
(0.0124261 0.130455 -0.0260985)
(0.0819737 0.155291 -0.0848238)
(0.134664 0.213541 -0.0883028)
(0.0362736 0.379426 -0.0497358)
(-0.10931 0.351456 -0.0148842)
(-0.142298 0.269432 0.000755585)
(-0.12126 0.1478 0.0113668)
(-0.0901823 0.0410234 0.0177702)
(-0.085971 0.0508947 0.0100871)
(-0.0492524 0.0628784 -1.29116e-05)
(0.0101915 -0.156532 -0.0455913)
(-0.0893659 -0.0147352 -0.159939)
(-0.0665689 0.363592 -0.124807)
(-0.0357997 0.478619 -0.0583575)
(-0.0974676 0.424469 -0.0315343)
(-0.0983068 0.275315 -0.0256488)
(-0.0423464 0.063638 0.0104045)
(-0.0559659 -0.0255379 0.0251004)
(-0.104587 -0.0380859 0.0298499)
(-0.0885253 -0.0818301 0.050052)
(-0.0187446 0.152893 -0.0503427)
(-0.0820005 0.295661 -0.130759)
(-0.0969357 0.458995 -0.102032)
(-0.0511382 0.536414 -0.0551068)
(-0.066407 0.46496 -0.035201)
(-0.0206104 0.242211 -0.0142113)
(0.00384733 0.00712621 0.0342558)
(-0.0797833 -0.0297295 0.0351054)
(-0.112439 -0.0830261 0.0504276)
(-0.172668 -0.14699 0.0658934)
(-0.00543682 0.225945 0.00594287)
(-0.0378754 0.476908 -0.0781184)
(-0.0674025 0.555675 -0.052874)
(-0.0453401 0.556442 -0.0289264)
(-0.033181 0.442504 -0.0170226)
(0.0310301 0.173621 0.0242619)
(-0.0161881 -0.014928 0.0489193)
(-0.117772 -0.0530986 0.0504543)
(-0.207768 -0.122956 0.0614292)
(-0.321703 -0.2005 0.0505721)
(-0.0114423 0.214854 0.0325035)
(-0.00566786 0.563999 -0.0240107)
(-0.0238392 0.586996 -0.00739193)
(-0.0177826 0.519477 -0.00239973)
(0.0173846 0.360741 0.0134389)
(0.0584532 0.113769 0.0502133)
(-0.0512781 -0.0201625 0.0541871)
(-0.171897 -0.0640776 0.0636927)
(-0.331931 -0.126451 0.0554601)
(-0.438305 -0.215012 0.00233119)
(-0.0348519 0.184182 0.020692)
(-0.000140767 0.538872 0.00389085)
(0.0123253 0.547483 0.00210388)
(0.0358824 0.446196 0.0108247)
(0.0766332 0.277451 0.041402)
(0.0506111 0.085706 0.0588923)
(-0.0966832 -0.0100065 0.0625151)
(-0.267655 -0.047498 0.0722841)
(-0.434465 -0.112736 0.0265146)
(-0.530325 -0.167132 -0.0469281)
(-0.0474656 0.185039 -0.00604859)
(-0.0083555 0.459116 -0.00306142)
(0.0402824 0.469869 -0.00530408)
(0.086505 0.377916 0.0203298)
(0.0953328 0.232866 0.0595023)
(-0.00106599 0.0749375 0.0588484)
(-0.165016 0.0138489 0.0769148)
(-0.360737 -0.0244174 0.0629601)
(-0.505636 -0.066907 -0.00766875)
(-0.585592 -0.0761046 -0.0749702)
(-0.0425478 0.216208 -0.0231878)
(-0.00968894 0.388792 -0.0152811)
(0.0612768 0.401881 -0.00328209)
(0.0983822 0.344627 0.0379867)
(0.0581278 0.207962 0.0620129)
(-0.068521 0.0695183 0.0637189)
(-0.230963 0.0395208 0.0833632)
(-0.412793 0.0122107 0.0472865)
(-0.533757 0.00172506 -0.022856)
(-0.58452 0.0220958 -0.078407)
(-0.0266087 0.256142 -0.0224747)
(0.00254117 0.359253 -0.0180888)
(0.0657328 0.378564 0.00673579)
(0.0677424 0.327863 0.0497503)
(-0.00320735 0.168699 0.0564057)
(-0.13084 0.0782119 0.0661549)
(-0.27431 0.0651481 0.0806346)
(-0.429416 0.0552034 0.0433906)
(-0.529348 0.0683207 -0.0194131)
(-0.55375 0.100663 -0.0620867)
(-0.00365736 0.281696 -0.00695687)
(0.0166953 0.366695 -0.0105647)
(0.0495849 0.382038 0.0204497)
(0.0210168 0.288838 0.0505234)
(-0.0617217 0.137003 0.047754)
(-0.180259 0.0995473 0.0532744)
(-0.286592 0.0867841 0.0775516)
(-0.41043 0.0913996 0.0668591)
(-0.504775 0.121505 0.0132289)
(-0.522888 0.157825 -0.0324285)
(-0.00539698 0.00447399 -0.00963676)
(-0.00894913 0.00132014 -0.0115989)
(-0.00638476 0.000251677 -0.0126536)
(-0.00536421 0.000904499 -0.0110269)
(-0.00606045 0.00158494 -0.00952193)
(-0.00705564 0.0016995 -0.00887182)
(-0.00739312 0.00148025 -0.00873473)
(-0.00692555 0.00113296 -0.00892815)
(-0.00588981 0.000861826 -0.00918469)
(-0.0038646 0.00054074 -0.00963299)
(-0.00926087 0.017292 -0.0136727)
(-0.00856739 0.0060482 -0.0130152)
(-0.00307929 0.00209827 -0.0158884)
(-0.00428662 0.00641228 -0.0160543)
(-0.00752149 0.00756854 -0.013521)
(-0.00981947 0.00682698 -0.0116754)
(-0.0102855 0.00542885 -0.010968)
(-0.00938583 0.0039529 -0.0107136)
(-0.0076293 0.00248815 -0.0103769)
(-0.00445878 0.000359265 -0.010205)
(-0.00869672 0.0311331 -0.012144)
(0.00678737 -0.00406508 -0.000804379)
(0.00887376 -0.00310066 -0.00706767)
(0.00416437 0.012819 -0.0158533)
(-0.00395087 0.0171171 -0.0171401)
(-0.00843311 0.0144516 -0.0148411)
(-0.00956884 0.0103912 -0.0128766)
(-0.00897389 0.00686842 -0.0115535)
(-0.00814598 0.00364773 -0.00952818)
(-0.00519313 -5.41621e-05 -0.00682905)
(-0.00135791 0.0328527 -0.00972912)
(0.0206658 -0.0178276 0.016011)
(0.007335 -0.0101238 0.00931657)
(-0.000559845 0.0209994 -0.00827253)
(-0.00856973 0.0294653 -0.017191)
(-0.0120586 0.0250479 -0.0173589)
(-0.0133957 0.0181022 -0.0142922)
(-0.0147669 0.0141136 -0.010419)
(-0.0156894 0.0113642 -0.00468139)
(-0.00935052 0.00194534 0.00119377)
(0.0102226 0.032027 -0.00195168)
(0.0168791 -0.0136578 0.0273202)
(-0.0126262 0.00780482 0.0189842)
(-0.0210515 0.0341357 -0.000295673)
(-0.0269498 0.0413975 -0.0129465)
(-0.0273278 0.0364588 -0.01551)
(-0.0258946 0.0295467 -0.0133241)
(-0.0228426 0.0235217 -0.00927897)
(-0.0170535 0.0122492 -0.00419245)
(-0.00264503 -0.00829949 -0.00289337)
(0.0120712 0.0320726 0.00367715)
(-0.0121595 0.010168 0.0198951)
(-0.0364315 0.0363434 0.0219988)
(-0.0410187 0.0556861 0.0033515)
(-0.045469 0.0572634 -0.0119064)
(-0.0410366 0.046414 -0.0194614)
(-0.0309712 0.0324279 -0.0237562)
(-0.0163301 0.020704 -0.0265666)
(-0.00238298 0.00920231 -0.0261704)
(0.00721776 -0.00617407 -0.0252944)
(0.010599 0.0626274 -0.0131499)
(-0.020716 0.0550676 -0.0167673)
(-0.0458682 0.0636511 0.00314718)
(-0.0462359 0.0778718 -0.0122322)
(-0.0487572 0.0768794 -0.0372282)
(-0.0436839 0.0612857 -0.0547966)
(-0.0357059 0.0465955 -0.0609056)
(-0.0240496 0.033727 -0.060971)
(-0.014436 0.0222617 -0.0584119)
(-0.00619156 0.0148924 -0.0554308)
(0.0104556 0.102324 -0.0561115)
(-0.022624 0.107581 -0.0643136)
(-0.0491647 0.107334 -0.0542783)
(-0.0569236 0.104833 -0.0733073)
(-0.0723384 0.0941432 -0.0882914)
(-0.0808466 0.0806404 -0.0855227)
(-0.0804868 0.0667949 -0.0792509)
(-0.0692103 0.0520127 -0.0791391)
(-0.0530119 0.0382389 -0.0861419)
(-0.0336158 0.0298451 -0.0926304)
(0.00947665 0.157405 -0.0644134)
(-0.0205569 0.166355 -0.0821352)
(-0.0340252 0.163444 -0.0850775)
(-0.034924 0.169477 -0.0880947)
(-0.0700526 0.169718 -0.066512)
(-0.108965 0.153299 -0.0399303)
(-0.115735 0.126719 -0.0320567)
(-0.0975248 0.105589 -0.0339046)
(-0.0780147 0.0917228 -0.0377898)
(-0.0638449 0.0828214 -0.0342442)
(0.0129496 0.185761 0.00814244)
(-0.00480023 0.197035 -0.0259579)
(0.00701895 0.205976 -0.0330196)
(0.0217167 0.258728 -0.00963408)
(-0.0479458 0.345883 0.077006)
(-0.171523 0.198617 0.0405902)
(-0.158625 0.10414 0.00652555)
(-0.144718 0.0399508 -0.028487)
(-0.145847 0.0549064 -0.0706178)
(-0.134117 0.0759071 -0.0727352)
(0.0111975 0.0930587 0.11438)
(0.0647818 0.172054 0.0872344)
(-0.0421799 0.237296 -0.0722289)
(-0.00504315 0.36704 -0.0541045)
(-0.0460335 0.425152 0.0297337)
(-0.1026 0.240105 0.00784195)
(-0.0816994 0.0387585 0.0590648)
(-0.099058 -0.0622356 0.0918568)
(-0.154318 0.032707 0.0808184)
(-0.114937 0.0697284 0.0695631)
(-0.0461145 -0.0870081 -0.091074)
(-0.0623135 0.237719 -0.109706)
(-0.077155 0.29166 -0.173558)
(-0.0359486 0.38727 -0.105474)
(-0.01312 0.415548 -0.0408944)
(0.0106579 0.242736 -0.0311642)
(0.0516091 0.0532874 0.0447043)
(0.0148496 -0.0233281 0.0877308)
(-0.159756 -0.0393151 0.125968)
(-0.153628 -0.129482 0.157398)
(0.00110104 0.154406 -0.153731)
(-0.0460495 0.274178 -0.186729)
(-0.0921796 0.311377 -0.148908)
(-0.0646837 0.38323 -0.0711505)
(-0.014226 0.359853 -0.0185026)
(0.0522377 0.194658 0.0326712)
(0.0859527 0.0230713 0.101208)
(0.00161157 -0.00195328 0.117136)
(-0.121255 -0.0378185 0.148498)
(-0.197924 -0.146334 0.167353)
(0.046609 0.262037 -0.0727615)
(0.0194726 0.3793 -0.121016)
(-0.0839047 0.388211 -0.0578205)
(-0.0669287 0.389405 0.0146974)
(0.00444062 0.28276 0.0536396)
(0.0901792 0.129147 0.0964915)
(0.0680914 0.00939997 0.141078)
(-0.0825214 0.0143499 0.156975)
(-0.171762 -0.0686741 0.168407)
(-0.283205 -0.119351 0.139947)
(0.0502323 0.237595 0.0209945)
(0.0652958 0.479061 -0.025289)
(-0.0401309 0.465751 0.0134391)
(0.00263301 0.346353 0.0678771)
(0.0800967 0.204719 0.0809617)
(0.129915 0.0996529 0.119367)
(-0.00702527 0.0282008 0.170498)
(-0.149847 4.20299e-05 0.185343)
(-0.256544 -0.034983 0.162076)
(-0.332147 -0.0391666 0.0846224)
(-0.0105807 0.181331 0.0416316)
(0.0534499 0.499056 0.0358794)
(0.0226179 0.448747 0.0629388)
(0.105644 0.288021 0.0714745)
(0.143496 0.192803 0.0816284)
(0.104643 0.123696 0.149208)
(-0.106366 0.0298826 0.195522)
(-0.229205 0.00987075 0.194399)
(-0.325273 0.0260343 0.128669)
(-0.36275 0.0448322 0.0190352)
(-0.0670531 0.181843 0.026667)
(0.011434 0.420546 0.0534425)
(0.0792626 0.355881 0.0463237)
(0.153672 0.269077 0.0408437)
(0.131827 0.237297 0.105305)
(-0.00595423 0.126411 0.186867)
(-0.184924 0.0368246 0.207034)
(-0.293021 0.0530445 0.177328)
(-0.348305 0.104101 0.0788104)
(-0.37413 0.129215 -0.0321725)
(-0.0750626 0.209519 0.00408409)
(-0.00536108 0.3226 -0.00312083)
(0.0876652 0.308428 -0.0223521)
(0.108878 0.302537 0.0335973)
(0.0421725 0.2637 0.155835)
(-0.126859 0.0994611 0.201145)
(-0.24064 0.0566463 0.193662)
(-0.306889 0.100314 0.136365)
(-0.31765 0.171641 0.0366732)
(-0.331497 0.199528 -0.0593125)
(-0.0563451 0.254334 -0.0180012)
(-0.0100777 0.300059 -0.0727742)
(0.0407454 0.31699 -0.0440603)
(0.0208726 0.340912 0.0837824)
(-0.075047 0.231825 0.182459)
(-0.216998 0.0877223 0.178946)
(-0.278576 0.0744542 0.157614)
(-0.299642 0.131399 0.0947458)
(-0.264628 0.214551 0.00581784)
(-0.258217 0.249534 -0.0748269)
(-0.0364411 0.303686 -0.0269919)
(-0.0253614 0.323465 -0.0865492)
(-0.019702 0.345171 -0.00124373)
(-0.0617112 0.338127 0.135314)
(-0.176091 0.189271 0.160379)
(-0.285354 0.0939333 0.129125)
(-0.317038 0.0905464 0.114808)
(-0.308418 0.152214 0.0687085)
(-0.244779 0.238222 -0.010553)
(-0.197267 0.290717 -0.0814266)
(-0.00552461 0.00383496 -0.0115863)
(-0.00997582 -0.000273564 -0.00991827)
(-0.00730041 -0.00177807 -0.0109495)
(-0.00589709 -0.000596224 -0.0113088)
(-0.00678098 0.000571217 -0.0110398)
(-0.00795481 0.000837711 -0.0108614)
(-0.00830063 0.0005379 -0.0107842)
(-0.00765993 0.000155781 -0.0108319)
(-0.00642946 -0.000153938 -0.0107528)
(-0.00424169 -0.00068585 -0.0107489)
(-0.00958362 0.015333 -0.0169505)
(-0.0120081 0.000473483 -0.008493)
(-0.00341719 -0.00662747 -0.00904823)
(-0.00352457 0.000480417 -0.0135683)
(-0.00733029 0.0040915 -0.0147735)
(-0.0102575 0.00421984 -0.014292)
(-0.010952 0.00275942 -0.0137736)
(-0.00984887 0.000856722 -0.0133783)
(-0.00778573 -0.00123016 -0.0127792)
(-0.00447008 -0.00406137 -0.012157)
(-0.011773 0.0277654 -0.018698)
(-0.00185922 -0.00957954 0.000334903)
(0.00886887 -0.0216825 0.000807421)
(0.00812575 -0.000818721 -0.0102323)
(-0.0010492 0.00922308 -0.0168418)
(-0.00783798 0.00890101 -0.0176509)
(-0.0099802 0.00510714 -0.0166973)
(-0.00914094 0.000947026 -0.0157537)
(-0.0076796 -0.00273516 -0.0143356)
(-0.00476231 -0.00648821 -0.0122664)
(-0.010279 0.0384741 -0.0216327)
(0.0117784 -0.0187822 0.00419119)
(0.0081741 -0.0286697 0.00322119)
(0.00899972 0.00187404 -0.00956117)
(-0.00114465 0.0181892 -0.0195562)
(-0.00843886 0.0169965 -0.0223123)
(-0.0116291 0.0105195 -0.0205244)
(-0.0119318 0.00560683 -0.0175989)
(-0.0116768 0.00328741 -0.0140143)
(-0.0078852 -0.00109999 -0.00952772)
(-0.00418534 0.0486335 -0.0238795)
(0.0172369 -0.00340651 -0.00261331)
(-0.00664446 -0.0123274 -0.00302485)
(-0.00844526 0.0139926 -0.0136795)
(-0.0158526 0.0277044 -0.0225196)
(-0.0189042 0.0258721 -0.0239335)
(-0.0177862 0.0189394 -0.0207319)
(-0.0152918 0.0136 -0.0179953)
(-0.0155792 0.0097481 -0.015802)
(-0.00978533 0.00172651 -0.0127073)
(0.00186168 0.067929 -0.0252238)
(0.0132452 0.0357732 -0.0193148)
(-0.0229669 0.0281211 -0.0148067)
(-0.0274976 0.0417993 -0.0199682)
(-0.0330643 0.0427068 -0.0279955)
(-0.0307495 0.0299056 -0.0335721)
(-0.0248896 0.0193217 -0.0387004)
(-0.019029 0.0192786 -0.0414116)
(-0.013292 0.0207221 -0.0391439)
(-0.00445305 0.0084087 -0.0361259)
(0.0102355 0.0985514 -0.0406749)
(0.000850345 0.077172 -0.0438949)
(-0.0396205 0.0749743 -0.0356085)
(-0.0426518 0.0782077 -0.0448582)
(-0.0469714 0.0686182 -0.0668297)
(-0.0499782 0.0551541 -0.0889272)
(-0.0508124 0.0465216 -0.0991095)
(-0.0429046 0.036948 -0.0970337)
(-0.0278144 0.0296257 -0.0878287)
(-0.0113639 0.0231002 -0.0809003)
(0.0011259 0.110838 -0.0895692)
(-0.0264642 0.110961 -0.0830184)
(-0.0590994 0.106054 -0.0856274)
(-0.0719282 0.0888106 -0.111636)
(-0.0956949 0.0680947 -0.133213)
(-0.110889 0.0505463 -0.136573)
(-0.110571 0.0313415 -0.133635)
(-0.0947819 0.0120829 -0.139169)
(-0.0687698 -0.00368981 -0.150072)
(-0.0389382 -0.0125322 -0.156764)
(-0.0211439 0.153724 -0.0762709)
(-0.0549082 0.148359 -0.0920264)
(-0.0690019 0.14168 -0.123111)
(-0.0699211 0.143463 -0.146279)
(-0.0853853 0.1421 -0.119073)
(-0.108856 0.123387 -0.0506487)
(-0.125052 0.0906666 -0.00651252)
(-0.130834 0.0686676 -0.00016959)
(-0.137651 0.0584001 -0.0186314)
(-0.122979 0.0534269 -0.0535764)
(-0.01848 0.197553 0.0579759)
(-0.0530857 0.176675 0.00498277)
(-0.0591364 0.184852 -0.0801295)
(-0.040118 0.225273 -0.107445)
(0.0459878 0.302484 0.0376804)
(-0.0826876 0.201791 0.0916538)
(-0.141259 -0.0810708 0.0907265)
(-0.209145 -0.0587323 0.0467079)
(-0.232699 0.191183 -0.0603432)
(-0.226226 0.233455 -0.0724557)
(-0.0205802 0.119764 0.17765)
(-0.0629442 0.206967 -0.0612249)
(-0.0651358 0.292144 -0.144272)
(-0.0243476 0.297891 -0.137941)
(0.0770047 0.328083 -0.0112113)
(0.0944529 0.249957 0.0207984)
(0.0516461 0.0506889 0.070879)
(-0.0865898 -0.0952207 0.168938)
(-0.19069 0.0411889 0.18075)
(-0.181234 0.0919583 0.191665)
(-0.00981535 0.266301 -0.072307)
(-0.0186401 0.269242 -0.165627)
(-0.0208269 0.236478 -0.188817)
(0.012207 0.155557 -0.141005)
(0.0890529 0.139371 -0.0589096)
(0.147479 0.120014 -0.0217337)
(0.144321 0.0576599 0.0503252)
(0.0628147 0.00983986 0.148283)
(-0.174528 -0.000941562 0.243291)
(-0.172953 -0.0883021 0.275634)
(0.0322947 0.200696 -0.159337)
(0.0473871 0.237153 -0.192477)
(0.0208507 0.143434 -0.151208)
(0.0413151 0.0492437 -0.0797092)
(0.087235 0.0389916 -0.00806456)
(0.119253 0.0526188 0.0503263)
(0.130079 0.0368272 0.124095)
(0.0860492 0.0541804 0.178201)
(-0.106436 0.0544465 0.244225)
(-0.151856 -0.0453216 0.240778)
(0.0543414 0.114809 -0.081508)
(0.0763366 0.210216 -0.108007)
(0.0232752 0.141606 -0.0436291)
(0.0668444 0.0345095 -0.00703222)
(0.10482 0.0170378 0.0124373)
(0.111001 0.046188 0.0826254)
(0.108257 0.0514629 0.187788)
(0.0199085 0.110576 0.232582)
(-0.0982969 0.0789038 0.240839)
(-0.159537 0.0144015 0.159588)
(0.0166429 0.0791286 0.0132199)
(0.0400893 0.227302 0.00993235)
(0.0335668 0.110025 0.036513)
(0.109436 0.0296327 -0.0166723)
(0.103586 0.0651309 -0.0063783)
(0.0988348 0.0954576 0.127565)
(0.0453426 0.0961038 0.261246)
(-0.0589576 0.141321 0.266998)
(-0.124728 0.128065 0.199506)
(-0.174188 0.110489 0.0440245)
(-0.0517236 0.0792892 0.051116)
(-0.00202833 0.180931 0.0669145)
(0.0650133 0.0809903 -0.0146914)
(0.106936 0.0956609 -0.0455254)
(0.0634908 0.145551 0.0382611)
(0.0708767 0.151282 0.224905)
(-0.0618365 0.120008 0.308126)
(-0.12006 0.152903 0.253604)
(-0.158852 0.188154 0.119764)
(-0.192589 0.189522 -0.0422978)
(-0.0761221 0.107186 0.0378872)
(-0.0179675 0.126812 -0.0075788)
(0.0443038 0.118545 -0.0817541)
(0.051565 0.171841 -0.0174098)
(0.0215562 0.206095 0.150893)
(-0.0264272 0.167518 0.305558)
(-0.137837 0.122416 0.295795)
(-0.155709 0.17287 0.193085)
(-0.174563 0.243698 0.0389937)
(-0.200912 0.253425 -0.0766223)
(-0.064258 0.161042 0.000619325)
(-0.0475078 0.149627 -0.103596)
(-0.035081 0.165419 -0.0847175)
(-0.0243669 0.216518 0.0713673)
(-0.0455122 0.229904 0.252294)
(-0.132832 0.153138 0.304453)
(-0.169289 0.132239 0.231646)
(-0.155355 0.195398 0.110149)
(-0.145696 0.277631 -0.0163468)
(-0.138825 0.30071 -0.0861775)
(-0.0530513 0.21942 -0.0279229)
(-0.0986614 0.188286 -0.120408)
(-0.117238 0.199751 -0.0250211)
(-0.0955589 0.242021 0.16349)
(-0.123766 0.224714 0.281976)
(-0.190675 0.148255 0.237713)
(-0.169945 0.138998 0.137376)
(-0.118919 0.190062 0.0292319)
(-0.0753352 0.271941 -0.0510702)
(-0.0302172 0.317791 -0.0993074)
(-0.0528245 0.272833 -0.0298897)
(-0.144758 0.229294 -0.0753072)
(-0.170399 0.238373 0.0570348)
(-0.144782 0.269881 0.219185)
(-0.168946 0.228833 0.254057)
(-0.190554 0.165095 0.159022)
(-0.138215 0.141678 0.0552468)
(-0.0508337 0.163914 -0.0289222)
(0.0200355 0.232816 -0.0759422)
(0.0794947 0.311825 -0.116008)
(-0.00440116 0.00317646 -0.0135478)
(-0.00837575 0.000228036 -0.00912997)
(-0.00766747 -0.000847296 -0.00978771)
(-0.00719866 -0.000121961 -0.0111882)
(-0.00802035 0.000444594 -0.0119398)
(-0.00892574 0.000458332 -0.0121469)
(-0.00908003 0.000144626 -0.0119885)
(-0.00815213 -0.000125486 -0.0116027)
(-0.00657983 -0.000345882 -0.0108549)
(-0.00422559 -0.000726397 -0.0102552)
(-0.00701031 0.0127287 -0.0193297)
(-0.0124728 0.00432819 -0.00907525)
(-0.0090682 -0.000337077 -0.00841038)
(-0.00805458 0.00154557 -0.0126578)
(-0.00998743 0.0030963 -0.015223)
(-0.0116613 0.00273122 -0.0156644)
(-0.0118273 0.00121889 -0.0152233)
(-0.0102245 -0.000850837 -0.0145545)
(-0.0075045 -0.00299764 -0.0132812)
(-0.00400868 -0.00516052 -0.0121004)
(-0.00886458 0.02419 -0.0225744)
(-0.0113522 0.00766376 -0.00428004)
(-0.00334761 -0.00265096 -0.000668893)
(-0.00247283 0.00317905 -0.00926526)
(-0.00673832 0.00597011 -0.0161547)
(-0.0105857 0.004678 -0.018393)
(-0.0119689 0.00106676 -0.0183268)
(-0.0109179 -0.00327365 -0.0178719)
(-0.00861059 -0.00673435 -0.016896)
(-0.00471633 -0.00919623 -0.0159476)
(-0.00790922 0.0357242 -0.0290968)
(-0.00356989 0.0123233 -0.00760173)
(0.00146383 -0.00206735 -0.00198136)
(0.000932595 0.00776593 -0.0119612)
(-0.0051846 0.0124158 -0.0198252)
(-0.0105045 0.00967452 -0.0233882)
(-0.0132819 0.00448319 -0.023264)
(-0.0132818 -0.00104693 -0.0220134)
(-0.0125358 -0.00470489 -0.0210008)
(-0.00784379 -0.00741023 -0.0212057)
(-0.00310619 0.0486424 -0.0429543)
(0.00348762 0.0260928 -0.0221537)
(-0.00224133 0.0095062 -0.0167175)
(-0.00620441 0.015151 -0.0242664)
(-0.0120271 0.018267 -0.027961)
(-0.0138384 0.0147738 -0.0281288)
(-0.0137377 0.00792242 -0.0270225)
(-0.0153708 0.000492282 -0.0277056)
(-0.0184952 -0.00330587 -0.0300198)
(-0.0130371 -0.00592392 -0.0316064)
(0.000158891 0.0602874 -0.0538523)
(0.00226921 0.0472259 -0.0329096)
(-0.0166833 0.0361378 -0.0302288)
(-0.0235663 0.0350337 -0.0374005)
(-0.0262782 0.0260622 -0.0402462)
(-0.0243539 0.0161614 -0.0438127)
(-0.0223072 0.0150649 -0.0471361)
(-0.0203882 0.0153421 -0.0476537)
(-0.019656 0.0105676 -0.0465539)
(-0.0125345 -5.33326e-05 -0.0472808)
(0.00189209 0.0929804 -0.0653188)
(-0.0143153 0.0813738 -0.047095)
(-0.0419793 0.0716782 -0.0484481)
(-0.0467318 0.063399 -0.0626431)
(-0.052397 0.052225 -0.0821095)
(-0.0597708 0.0462527 -0.100357)
(-0.0620666 0.0354608 -0.105946)
(-0.0529521 0.0189603 -0.101356)
(-0.0351264 0.00892396 -0.0904765)
(-0.0154693 0.000345583 -0.0844372)
(-0.0215165 0.0924837 -0.101074)
(-0.0512916 0.0924307 -0.0875992)
(-0.0742128 0.0777026 -0.0975329)
(-0.0897003 0.0583058 -0.127618)
(-0.117084 0.0383218 -0.151828)
(-0.137301 0.0155495 -0.155116)
(-0.142595 -0.0125771 -0.151557)
(-0.128951 -0.0385352 -0.158612)
(-0.0971447 -0.0577828 -0.173016)
(-0.0551476 -0.0680879 -0.179202)
(-0.0557059 0.151444 -0.0721308)
(-0.0893887 0.124064 -0.099141)
(-0.103604 0.108012 -0.149853)
(-0.114257 0.107418 -0.185484)
(-0.108655 0.104668 -0.157889)
(-0.0994996 0.0835986 -0.0637288)
(-0.114306 0.0734827 0.111438)
(-0.20675 0.0506309 0.126708)
(-0.259407 -0.0123669 -0.134243)
(-0.225146 -0.0697978 -0.261541)
(-0.0404827 0.27793 0.181709)
(-0.060545 0.179499 0.00503631)
(-0.0934755 0.137272 -0.160216)
(-0.0939198 0.13115 -0.19042)
(-0.0279712 0.137471 -0.0712536)
(-0.0303728 0.159736 0.0973427)
(-0.14762 0.0684843 0.182492)
(-0.181824 0.0676223 0.138802)
(-0.192789 0.0811729 0.0175647)
(-0.201505 0.0183631 -0.0476323)
(-0.00747266 0.362905 0.085883)
(0.00834551 0.310714 -0.0497936)
(-0.0144451 0.212341 -0.136348)
(0.0250354 0.173094 -0.110552)
(0.098703 0.146099 0.0114108)
(0.11944 0.178092 0.0835594)
(0.0589963 0.101487 0.144574)
(-0.0844337 -0.0784181 0.270664)
(-0.216299 0.00783115 0.299366)
(-0.234502 0.0342819 0.302321)
(0.0258198 0.272542 -0.07336)
(0.0514386 0.215883 -0.116289)
(0.0682718 0.0808167 -0.102879)
(0.109877 -0.00413266 -0.0596901)
(0.150297 0.0157677 0.0206305)
(0.178832 0.091912 0.0768102)
(0.162108 0.106068 0.128451)
(0.0566864 0.0446917 0.236208)
(-0.199768 0.0238217 0.33624)
(-0.203223 -0.0201194 0.329074)
(0.0340108 0.134418 -0.115259)
(0.0561201 0.0995793 -0.105254)
(0.0783153 -0.0306647 -0.040013)
(0.113215 -0.0663306 -0.0483768)
(0.135661 -0.0115603 0.00831795)
(0.132657 0.0591533 0.0797774)
(0.130389 0.101008 0.149681)
(0.103302 0.106782 0.239375)
(-0.136307 0.108712 0.312505)
(-0.167705 0.0661408 0.23989)
(0.032115 0.0441579 -0.0785237)
(0.0309909 0.0301694 -0.0122609)
(0.0554045 -0.0801802 -0.0223397)
(0.0855201 -0.0626816 -0.0719961)
(0.0958715 0.0288301 -0.0239151)
(0.067462 0.0992515 0.064769)
(0.08419 0.128324 0.184397)
(0.0768175 0.176138 0.274827)
(-0.113229 0.181774 0.276183)
(-0.167852 0.139666 0.120297)
(-0.0191687 0.0113827 0.0234865)
(-0.0167287 -0.0213682 0.0507413)
(0.0276316 -0.0722295 -0.0965986)
(0.0340113 -0.00438092 -0.103192)
(0.00942158 0.0986269 -0.0382073)
(-0.000482903 0.150605 0.0884183)
(0.0531892 0.167029 0.266925)
(0.0192037 0.242495 0.308288)
(-0.11761 0.253536 0.210199)
(-0.182374 0.19337 0.0110599)
(-0.0595424 0.0217449 0.0632105)
(-0.0402885 -0.0271989 -0.0327872)
(-0.0284496 -0.015035 -0.124376)
(-0.0384966 0.0573371 -0.0747854)
(-0.0588761 0.141264 0.032121)
(-0.0130871 0.186699 0.215926)
(-0.0069567 0.206668 0.349498)
(-0.0388366 0.290228 0.289234)
(-0.134542 0.310227 0.121886)
(-0.201409 0.23053 -0.0478015)
(-0.0649446 0.0687843 0.0497574)
(-0.0841396 0.017755 -0.0990646)
(-0.104018 0.0225724 -0.114345)
(-0.100583 0.0869134 -0.00499599)
(-0.0818023 0.161169 0.170459)
(-0.0477566 0.207365 0.334517)
(-0.0711407 0.234684 0.339628)
(-0.0741275 0.322495 0.211395)
(-0.140799 0.348983 0.0410109)
(-0.186519 0.270971 -0.0801909)
(-0.0688224 0.127063 0.025597)
(-0.152594 0.0516638 -0.119095)
(-0.189942 0.0472094 -0.0896995)
(-0.155904 0.107002 0.0733547)
(-0.107126 0.168609 0.274318)
(-0.101431 0.207288 0.337011)
(-0.0969291 0.253443 0.241894)
(-0.0746354 0.33997 0.105533)
(-0.108622 0.371765 -0.0243637)
(-0.0901468 0.31282 -0.116459)
(-0.079638 0.188953 0.0222415)
(-0.208831 0.0895258 -0.100164)
(-0.254107 0.0800039 -0.0599812)
(-0.200106 0.144596 0.106755)
(-0.127875 0.194009 0.272244)
(-0.100453 0.215565 0.256238)
(-0.0663456 0.256008 0.127205)
(-0.029822 0.331495 0.00815068)
(-0.0311626 0.376423 -0.0762754)
(0.0370938 0.348821 -0.176642)
(-0.0923815 0.247541 0.0473228)
(-0.240876 0.139319 -0.0587819)
(-0.280975 0.130481 -0.0351292)
(-0.214893 0.201522 0.0887865)
(-0.122942 0.253102 0.177463)
(-0.0515469 0.266954 0.123536)
(0.00404418 0.289016 0.0174256)
(0.0501573 0.333247 -0.0651393)
(0.0683543 0.380063 -0.127082)
(0.128422 0.376624 -0.217343)
(-0.0036323 0.00264746 -0.0150133)
(-0.00699822 0.000694771 -0.00977096)
(-0.00748392 -2.17408e-05 -0.0105738)
(-0.00793806 0.000126462 -0.0118703)
(-0.00876104 0.000191958 -0.012646)
(-0.00935049 7.89803e-05 -0.0127993)
(-0.00929946 -6.8504e-05 -0.012597)
(-0.00812564 -0.000143531 -0.0122216)
(-0.00633249 -4.61863e-05 -0.011182)
(-0.00413579 0.000200336 -0.0104402)
(-0.0050699 0.00964853 -0.0206732)
(-0.0100497 0.00480683 -0.0118817)
(-0.0103355 0.00232575 -0.0118567)
(-0.0104572 0.00212194 -0.0145054)
(-0.0114864 0.00184811 -0.0161124)
(-0.0122136 0.000846105 -0.0163092)
(-0.0118 -0.000747702 -0.0157111)
(-0.00958123 -0.0026435 -0.0147059)
(-0.0064122 -0.00380514 -0.0127981)
(-0.00309928 -0.00396062 -0.0110121)
(-0.00607245 0.0183894 -0.0239957)
(-0.0125784 0.0113349 -0.010378)
(-0.0113076 0.00574204 -0.0080428)
(-0.0103501 0.00422074 -0.0128585)
(-0.0114052 0.0027078 -0.017232)
(-0.0126832 0.000264005 -0.0185756)
(-0.013259 -0.00324088 -0.0183923)
(-0.0118899 -0.00710841 -0.0178969)
(-0.00906134 -0.00895547 -0.0173946)
(-0.00474268 -0.00821848 -0.0176647)
(-0.00536275 0.0276471 -0.0321509)
(-0.0110884 0.0197094 -0.0170046)
(-0.0105602 0.0116912 -0.0118536)
(-0.0104283 0.00920988 -0.0158015)
(-0.0121038 0.00583001 -0.0209004)
(-0.0138142 0.00194621 -0.0232118)
(-0.0151414 -0.00290243 -0.0231148)
(-0.0150896 -0.00907425 -0.0226281)
(-0.0138229 -0.0116911 -0.0239095)
(-0.00720092 -0.0108624 -0.0281173)
(-0.000656394 0.0390738 -0.0504576)
(-0.00587522 0.0311005 -0.0350946)
(-0.00951501 0.0197788 -0.0282986)
(-0.0121665 0.0132508 -0.0291836)
(-0.0141258 0.00693601 -0.0299779)
(-0.013818 0.00119552 -0.0293809)
(-0.0156953 -0.00566477 -0.0298784)
(-0.0181533 -0.0130583 -0.0310228)
(-0.0194983 -0.017247 -0.0341596)
(-0.010181 -0.0168592 -0.0416526)
(-0.00278592 0.0357306 -0.0630652)
(-0.0114861 0.0383284 -0.0450774)
(-0.0219073 0.0288792 -0.0426998)
(-0.0258637 0.0191746 -0.0458059)
(-0.0263742 0.00662869 -0.0489535)
(-0.0252153 0.00033553 -0.051806)
(-0.0247525 0.000107733 -0.0519853)
(-0.0233855 -0.00684217 -0.0491712)
(-0.0231701 -0.0178011 -0.0484263)
(-0.0126738 -0.0223294 -0.056534)
(-0.0112119 0.0730787 -0.0724111)
(-0.0332919 0.0699139 -0.0530809)
(-0.0525639 0.0517999 -0.0590273)
(-0.0578376 0.0373849 -0.0732657)
(-0.0669365 0.0268111 -0.0916769)
(-0.0736619 0.015932 -0.104874)
(-0.0731042 -0.0040394 -0.107755)
(-0.0651972 -0.0224139 -0.100082)
(-0.0478139 -0.0339509 -0.0900778)
(-0.0217453 -0.0378415 -0.0846731)
(-0.0394001 0.0680159 -0.100707)
(-0.0684125 0.061447 -0.091652)
(-0.0892113 0.0449697 -0.104654)
(-0.105908 0.0306834 -0.13471)
(-0.134495 0.009693 -0.162207)
(-0.158112 -0.0230877 -0.166926)
(-0.1601 -0.0575521 -0.157235)