/*--------------------------------*- C++ -*----------------------------------*\
| =========                 |                                                 |
| \\      /  F ield         | OpenFOAM: The Open Source CFD Toolbox           |
|  \\    /   O peration     | Version:  2312                                  |
|   \\  /    A nd           | Website:  www.openfoam.com                      |
|    \\/     M anipulation  |                                                 |
\*---------------------------------------------------------------------------*/
FoamFile
{
    version     2.0;
    format      ascii;
    arch        "LSB;label=32;scalar=64";
    class       volVectorField;
    location    "0.805";
    object      U;
}
// * * * * * * * * * * * * * * * * * * * * * * * * * * * * * * * * * * * * * //

dimensions      [0 1 -1 0 0 0 0];

internalField   nonuniform List<vector> 
8000
(
(0.00256262 -0.00697492 0.00261994)
(0.00910055 -0.00712065 0.0021489)
(0.0151465 -0.0062648 0.00207717)
(0.0191948 -0.00501041 0.00222026)
(0.021084 -0.00378051 0.00226542)
(0.0208111 -0.00260611 0.00213353)
(0.018718 -0.001619 0.00187061)
(0.0153292 -0.000912486 0.00146128)
(0.0112896 -0.000497024 0.00102053)
(0.00729527 -0.000303246 0.000626818)
(0.00166377 -0.0173071 0.00168337)
(0.00747238 -0.0176572 0.000679424)
(0.0130524 -0.015671 0.000737358)
(0.0171286 -0.012665 0.0013561)
(0.019178 -0.00969344 0.00166491)
(0.0193057 -0.00664926 0.00162313)
(0.0177514 -0.00396852 0.00141367)
(0.0149624 -0.00192954 0.0012007)
(0.0112209 -0.000650629 0.00107208)
(0.00749548 -0.000267589 0.000846823)
(0.00280419 -0.0264193 0.00284628)
(0.0108065 -0.0279282 0.000227492)
(0.0170163 -0.024705 -0.000594379)
(0.0217343 -0.0204031 0.000852342)
(0.0238385 -0.016195 0.00203206)
(0.0235909 -0.0114285 0.00247968)
(0.0211195 -0.00716404 0.00267128)
(0.0171537 -0.00411275 0.00283036)
(0.0122147 -0.00241757 0.00305585)
(0.00782098 -0.00249077 0.00327548)
(0.00705935 -0.0445433 0.00676758)
(0.0190779 -0.0471398 0.00422466)
(0.0239631 -0.0374895 6.63891e-05)
(0.0285684 -0.0295419 0.000982328)
(0.0310225 -0.0236951 0.00265322)
(0.0301874 -0.0174179 0.00391808)
(0.0254441 -0.0115115 0.00497748)
(0.0185907 -0.00744172 0.00649235)
(0.0108343 -0.00637028 0.0087333)
(0.00642986 -0.00903614 0.0110574)
(0.0154372 -0.0772996 0.0150833)
(0.0324118 -0.0805215 0.0141732)
(0.0333943 -0.0574128 0.00615093)
(0.0324333 -0.0433534 0.00595962)
(0.0333468 -0.0330059 0.00778574)
(0.0316012 -0.0230264 0.00970831)
(0.0243124 -0.0152397 0.0116686)
(0.0135896 -0.0135313 0.0144568)
(0.00531903 -0.0195246 0.0190448)
(0.00459977 -0.0340534 0.0213516)
(0.0218809 -0.137446 0.0222476)
(0.0375398 -0.128814 0.0243299)
(0.040899 -0.0820022 0.0163057)
(0.0374737 -0.0617977 0.0154876)
(0.0358701 -0.050992 0.0160839)
(0.0319655 -0.0396467 0.0148681)
(0.0245583 -0.0308115 0.012955)
(0.0191486 -0.0345364 0.0170008)
(0.0156648 -0.0550145 0.0182209)
(0.0114174 -0.0724587 0.0144332)
(0.0205894 -0.197693 0.022684)
(0.0316495 -0.180428 0.0281837)
(0.0401388 -0.129667 0.0255033)
(0.0446138 -0.103992 0.0218159)
(0.0480976 -0.085071 0.0163038)
(0.050593 -0.0633275 0.0137229)
(0.0485044 -0.0463108 0.0147073)
(0.0386231 -0.0637694 0.011626)
(0.029218 -0.0917339 -0.00640835)
(0.0188623 -0.0931663 -0.0119109)
(0.0163879 -0.249441 0.0192382)
(0.0186759 -0.222888 0.0264623)
(0.0194328 -0.181966 0.0204398)
(0.035272 -0.150352 0.00384675)
(0.056336 -0.118246 -0.0154641)
(0.0638524 -0.0875562 -0.0214824)
(0.0550388 -0.0558329 -0.00985156)
(0.0405221 -0.05389 -0.02621)
(0.0268489 -0.0597018 -0.047125)
(0.00807672 -0.0462126 -0.0455418)
(0.0135227 -0.286037 0.0139868)
(0.0110318 -0.247774 0.0241192)
(0.0230209 -0.213456 0.0118613)
(0.0797578 -0.186159 -0.0174806)
(0.139101 -0.131291 -0.0430339)
(0.131882 -0.0679692 -0.0695071)
(0.101985 -0.0170639 -0.0813335)
(0.0786336 0.00132774 -0.0713252)
(0.0333411 -0.000884797 -0.0605466)
(-0.0170658 0.00223662 -0.0721195)
(0.00178267 -0.295803 0.0164332)
(0.0302606 -0.277339 0.0205511)
(0.0984017 -0.286153 0.00192146)
(0.230718 -0.307291 -0.0194684)
(0.373025 -0.201419 -0.0088819)
(0.314112 -0.0590167 0.00283024)
(0.171666 -0.00814683 -0.0749814)
(0.056026 0.0230583 -0.120923)
(-0.0392761 0.0680795 -0.102364)
(-0.0777608 0.0532921 -0.133214)
(-0.0548888 -0.339279 0.0382288)
(0.0678693 -0.396495 -0.0380448)
(0.174906 -0.422735 -0.102125)
(0.270929 -0.39428 -0.113872)
(0.302598 -0.109483 -0.0411927)
(0.374726 0.0731205 0.0523917)
(0.16057 0.144266 0.047598)
(-0.177424 0.0873019 -0.100181)
(-0.172641 -0.0304312 -0.112731)
(-0.229878 -0.0619632 -0.116167)
(-0.138875 -0.371886 0.0445939)
(0.0237512 -0.360014 -0.190627)
(0.059587 -0.152586 -0.185764)
(0.181988 -0.0762636 -0.146457)
(0.214141 0.0348611 -0.0611934)
(0.227551 0.139132 0.0293777)
(0.0381008 0.246034 0.0375641)
(-0.170687 0.261005 -0.10107)
(-0.169365 0.175881 -0.124787)
(-0.2158 0.120738 -0.111086)
(-0.120778 -0.0722654 -0.0580172)
(0.0179627 6.89716e-05 -0.308843)
(-0.0126515 0.0318511 -0.208552)
(0.0956875 0.0601336 -0.169336)
(0.141433 0.138062 -0.0630287)
(0.127176 0.237361 0.0210881)
(-0.0740524 0.339474 0.000620532)
(-0.163747 0.362484 -0.10906)
(-0.152126 0.286414 -0.117977)
(-0.170238 0.207427 -0.0844077)
(-0.163525 0.171201 -0.0157787)
(-0.00938773 0.176662 -0.222127)
(-0.0503604 0.17763 -0.171219)
(0.0353179 0.233811 -0.157848)
(0.0629045 0.289952 -0.051921)
(0.0210499 0.350573 0.00921915)
(-0.141644 0.426119 -0.0275617)
(-0.159657 0.450453 -0.121141)
(-0.124359 0.395762 -0.11181)
(-0.126582 0.318882 -0.0522873)
(-0.168132 0.249743 -0.000403339)
(-0.0622644 0.325407 -0.143399)
(-0.109907 0.315627 -0.144523)
(-0.0230038 0.387188 -0.124904)
(-0.0151944 0.433103 -0.0340629)
(-0.0751251 0.46365 -0.00321649)
(-0.171357 0.524299 -0.0476223)
(-0.150066 0.567188 -0.122514)
(-0.0986248 0.540017 -0.0772704)
(-0.128324 0.45969 0.00515441)
(-0.140746 0.222325 0.0269405)
(-0.117547 0.409906 -0.0739911)
(-0.1576 0.425989 -0.116195)
(-0.0810317 0.505215 -0.0783071)
(-0.0851854 0.538238 -0.0112791)
(-0.138459 0.565053 0.000457206)
(-0.187197 0.643504 -0.0318816)
(-0.150091 0.708586 -0.0667408)
(-0.107749 0.68002 0.0148848)
(-0.157393 0.542874 0.0647397)
(-0.118094 0.167312 0.0697076)
(-0.172928 0.445622 -0.00789897)
(-0.195745 0.506082 -0.0621741)
(-0.138662 0.575976 -0.0163183)
(-0.134781 0.580616 0.0199087)
(-0.160235 0.599558 0.0287121)
(-0.185265 0.701812 0.0300166)
(-0.155346 0.760136 0.0377971)
(-0.132738 0.658894 0.0984118)
(-0.176602 0.497649 0.0923367)
(-0.107382 0.102822 0.106556)
(-0.21068 0.423091 0.0680756)
(-0.222817 0.515529 0.0376464)
(-0.178626 0.545616 0.0617699)
(-0.152354 0.52085 0.0579216)
(-0.148058 0.528622 0.0639492)
(-0.15187 0.613173 0.0851581)
(-0.128514 0.633309 0.103719)
(-0.12161 0.493734 0.107205)
(-0.15137 0.346433 0.0681236)
(-0.0647937 0.0320033 0.0901065)
(-0.213989 0.311763 0.125171)
(-0.223297 0.369065 0.114648)
(-0.190054 0.362286 0.105402)
(-0.147785 0.347037 0.0777419)
(-0.121026 0.360341 0.0764215)
(-0.099288 0.417795 0.0879696)
(-0.0618347 0.424057 0.0887838)
(-0.036483 0.327579 0.0554292)
(-0.0393738 0.223881 0.0158638)
(0.0146518 -0.0198579 -0.0229714)
(-0.116958 0.164796 0.101917)
(-0.140431 0.153218 0.103479)
(-0.153689 0.120574 0.0763799)
(-0.144815 0.13489 0.0520043)
(-0.110429 0.165461 0.0456768)
(-0.063216 0.210144 0.0408565)
(-0.00296284 0.230238 0.02675)
(0.050309 0.203035 -0.00349402)
(0.0760843 0.1593 -0.0232193)
(0.00209475 -0.00712184 0.00942011)
(0.00921434 -0.00853353 0.00958386)
(0.0169943 -0.00785454 0.00925944)
(0.0222188 -0.00620908 0.00934735)
(0.0246942 -0.0047379 0.00938179)
(0.0247136 -0.00352835 0.00924787)
(0.0227239 -0.00257539 0.00900897)
(0.0191064 -0.00180222 0.00860219)
(0.0140637 -0.00116171 0.00811895)
(0.00850293 -0.000893133 0.00746805)
(0.000658584 -0.0176248 0.00777188)
(0.00776044 -0.0227797 0.00821134)
(0.016521 -0.0213123 0.00745052)
(0.0219105 -0.0164248 0.00795223)
(0.0241249 -0.012345 0.00853926)
(0.0240672 -0.00912606 0.00872294)
(0.022064 -0.00656836 0.00862509)
(0.0185111 -0.00463074 0.00842933)
(0.0136263 -0.00347118 0.0083257)
(0.00850399 -0.00365806 0.0080531)
(0.000193921 -0.0279093 0.0110491)
(0.0148694 -0.0419739 0.0148891)
(0.0261017 -0.0387876 0.0110377)
(0.0311449 -0.027998 0.0089841)
(0.0316066 -0.0208454 0.00959651)
(0.0303232 -0.0155759 0.0103761)
(0.0274234 -0.0111973 0.0108343)
(0.0228424 -0.00788894 0.0112405)
(0.0164504 -0.00606381 0.011937)
(0.00980741 -0.00668131 0.0126849)
(0.00431356 -0.0474536 0.0187836)
(0.032389 -0.0757641 0.031706)
(0.0418123 -0.0656714 0.0249082)
(0.04474 -0.0421377 0.0151765)
(0.0430648 -0.028552 0.0125204)
(0.0397019 -0.0216973 0.0136078)
(0.0345012 -0.0159025 0.015454)
(0.0272328 -0.0106209 0.0178973)
(0.0177613 -0.00638021 0.0209903)
(0.00958088 -0.0067695 0.0240446)
(0.0145294 -0.0821774 0.0316705)
(0.0471683 -0.114712 0.0469135)
(0.0542216 -0.0913012 0.0419424)
(0.0525477 -0.0582317 0.0282996)
(0.0490823 -0.0374809 0.021665)
(0.044723 -0.0262736 0.0225197)
(0.0374258 -0.0177827 0.0260268)
(0.0274853 -0.0109836 0.0304901)
(0.0149631 -0.00725987 0.0361577)
(0.00791706 -0.0104415 0.0415744)
(0.0245648 -0.130009 0.0367637)
(0.051776 -0.156814 0.0512823)
(0.0598183 -0.11306 0.0538081)
(0.0591771 -0.070548 0.0448712)
(0.0549648 -0.045711 0.0356684)
(0.0478288 -0.0321869 0.0319552)
(0.0383196 -0.0209562 0.0315677)
(0.0308702 -0.00886001 0.0370003)
(0.0229803 -0.000369845 0.046267)
(0.0172015 -0.0113474 0.0524)
(0.0283051 -0.181472 0.034105)
(0.0501533 -0.198903 0.047725)
(0.0618319 -0.149769 0.0583357)
(0.0694465 -0.104027 0.0574401)
(0.070795 -0.0656457 0.0483483)
(0.0650942 -0.0443368 0.0368782)
(0.0611457 -0.042092 0.0305509)
(0.0655449 -0.0420323 0.0370948)
(0.0612905 -0.0357691 0.0474102)
(0.0385841 -0.0259869 0.0470685)
(0.025773 -0.229477 0.0268407)
(0.0399004 -0.232079 0.0393546)
(0.0523725 -0.179985 0.0499006)
(0.0707345 -0.130786 0.0492132)
(0.0816983 -0.0767731 0.0430461)
(0.0697459 -0.0398177 0.0317523)
(0.0596942 -0.0368982 0.00868585)
(0.047673 -0.0288107 -0.025638)
(0.027806 0.00327302 -0.0472224)
(0.00569012 0.0300044 -0.0497196)
(0.0189991 -0.263653 0.0246843)
(0.0308914 -0.251888 0.0436462)
(0.0690745 -0.208801 0.0494038)
(0.131771 -0.169025 0.0434316)
(0.185991 -0.108051 0.033252)
(0.191749 -0.0445501 0.0437681)
(0.160086 -0.00134391 0.0664852)
(0.0907913 0.017462 0.0724159)
(0.0121077 0.0295418 0.0498486)
(-0.0117879 0.0413727 0.0596423)
(0.0139206 -0.288157 0.0406986)
(0.0599532 -0.312872 0.0406545)
(0.158688 -0.332419 0.0143986)
(0.312869 -0.374521 -0.0413774)
(0.430658 -0.309809 -0.0982141)
(0.539028 -0.146014 0.011437)
(0.428244 -0.0121259 0.144005)
(0.233647 0.0555245 0.175175)
(-0.0555679 0.0840475 0.165108)
(-0.161647 0.0433626 0.178956)
(0.0194027 -0.358439 0.00395982)
(0.13724 -0.501988 -0.212938)
(0.175109 -0.517264 -0.295829)
(0.243558 -0.393712 -0.320877)
(0.303599 -0.0958802 -0.219497)
(0.34733 0.10258 -0.021223)
(0.333077 0.195902 0.164278)
(0.179454 0.218499 0.134757)
(-0.0721361 0.0905499 0.00188626)
(-0.198267 0.0547477 0.028874)
(0.0372373 -0.393687 -0.263936)
(0.0848346 -0.353069 -0.468092)
(0.0685859 -0.256601 -0.411028)
(0.120089 -0.16425 -0.426637)
(0.183481 -0.0379991 -0.307532)
(0.234012 0.0873123 -0.0660222)
(0.190854 0.245732 0.160718)
(0.085995 0.367884 0.0556588)
(-0.103231 0.372004 -0.0894101)
(-0.149274 0.303407 -0.0469378)
(0.0367047 -0.0192959 -0.395742)
(0.0648439 -0.133593 -0.445865)
(-0.00566188 -0.195324 -0.318653)
(0.0306333 -0.0859484 -0.385823)
(0.0971348 0.0885286 -0.296956)
(0.130732 0.200611 -0.0739135)
(0.0925238 0.335373 0.126827)
(0.0283827 0.485638 -0.0363646)
(-0.103115 0.543102 -0.157316)
(-0.0539441 0.424343 -0.116633)
(0.0428442 0.114821 -0.168255)
(0.0888912 -0.00400342 -0.297186)
(0.00235103 -0.0571651 -0.236713)
(-0.0161488 0.0732502 -0.344164)
(0.0197298 0.259818 -0.250968)
(0.0158938 0.337748 -0.0684876)
(0.0325951 0.41238 0.0315638)
(-0.00314431 0.579077 -0.133665)
(-0.0483623 0.626474 -0.224026)
(0.0684432 0.48604 -0.173084)
(-0.0519879 0.254974 0.139375)
(0.082928 0.157469 -0.152839)
(-0.0649404 0.0755479 -0.195206)
(-0.0497125 0.229003 -0.282115)
(-0.0492555 0.429048 -0.18138)
(-0.0852749 0.480032 -0.0630483)
(-0.0292609 0.518897 -0.101095)
(-0.0119545 0.667129 -0.227342)
(0.0444736 0.669823 -0.257767)
(0.170873 0.547498 -0.129656)
(-0.138942 0.270472 0.257184)
(0.105752 0.248927 -0.0255937)
(-0.119986 0.202267 -0.141927)
(-0.0798737 0.38281 -0.198846)
(-0.103315 0.576598 -0.0962155)
(-0.142993 0.600327 -0.0251891)
(-0.0714461 0.620141 -0.126503)
(-0.00260719 0.717486 -0.209327)
(0.0991621 0.713052 -0.140839)
(0.152195 0.665854 0.0482165)
(-0.133053 0.182832 0.271507)
(0.0757329 0.265077 0.0729674)
(-0.143836 0.298219 -0.0773797)
(-0.119749 0.507223 -0.0952995)
(-0.144334 0.678933 0.00419648)
(-0.16262 0.675878 0.0609888)
(-0.0973234 0.690615 -0.00129495)
(-0.0247187 0.769528 -0.022065)
(0.034929 0.801362 0.0967102)
(0.00213913 0.755552 0.219325)
(-0.0993672 0.0878898 0.279938)
(-0.0679246 0.329295 0.161688)
(-0.207006 0.445371 0.0412951)
(-0.185598 0.621582 0.0475386)
(-0.177605 0.718899 0.116265)
(-0.163127 0.67852 0.164132)
(-0.127798 0.709894 0.160209)
(-0.0858093 0.787675 0.179098)
(-0.0712041 0.785153 0.24786)
(-0.133857 0.705411 0.265292)
(-0.100523 0.0657711 0.258158)
(-0.230478 0.391022 0.250868)
(-0.287508 0.51779 0.195442)
(-0.248149 0.61783 0.197309)
(-0.193888 0.642439 0.210689)
(-0.155328 0.584929 0.229393)
(-0.138111 0.622556 0.236726)
(-0.108068 0.683004 0.242599)
(-0.0921463 0.66134 0.238208)
(-0.132432 0.578422 0.20412)
(-0.0686479 0.102102 0.16658)
(-0.268312 0.363429 0.274669)
(-0.297774 0.402631 0.261279)
(-0.27181 0.420336 0.243698)
(-0.210813 0.431614 0.217911)
(-0.158001 0.410825 0.204375)
(-0.121772 0.456826 0.194936)
(-0.0739766 0.507854 0.176891)
(-0.0267968 0.506753 0.138941)
(-0.0164595 0.463573 0.101514)
(0.00203804 -0.00622343 0.0156218)
(0.00893803 -0.00775742 0.0175886)
(0.0163357 -0.00708491 0.0169232)
(0.0213031 -0.00552538 0.0165642)
(0.0236778 -0.00416954 0.0164311)
(0.0237171 -0.00311562 0.0163962)
(0.0218364 -0.00233183 0.0164469)
(0.0183567 -0.00168897 0.0164213)
(0.0133771 -0.00122954 0.016477)
(0.00794455 -0.00125285 0.0162287)
(0.000804999 -0.0155463 0.0134996)
(0.00710748 -0.0209367 0.0172926)
(0.0154825 -0.0193522 0.0162979)
(0.02079 -0.0145007 0.0155558)
(0.0230205 -0.0106058 0.0155792)
(0.0229696 -0.00773169 0.0157652)
(0.0210165 -0.00565776 0.0159477)
(0.0176654 -0.00436226 0.016137)
(0.0130456 -0.00416059 0.0165801)
(0.00821102 -0.00532699 0.0168167)
(-0.000351861 -0.0246056 0.0175221)
(0.0106066 -0.0380105 0.0263636)
(0.0233651 -0.0364308 0.0244048)
(0.0290938 -0.026241 0.0201074)
(0.0297989 -0.0187792 0.0185974)
(0.0286493 -0.0136976 0.0186181)
(0.0259239 -0.0101416 0.0189241)
(0.0215945 -0.00796926 0.0193416)
(0.0154299 -0.00737413 0.0200868)
(0.00918726 -0.00867898 0.0203221)
(0.000417308 -0.0376156 0.0240863)
(0.0240531 -0.0641956 0.0400178)
(0.0386024 -0.060465 0.0386091)
(0.0442985 -0.0396636 0.0296121)
(0.0420891 -0.0264379 0.024533)
(0.0378889 -0.0198596 0.0237052)
(0.0328529 -0.0148311 0.0247802)
(0.0262395 -0.0104137 0.0262849)
(0.0169735 -0.00714085 0.0276404)
(0.00876523 -0.00721883 0.0274766)
(0.00614902 -0.0580031 0.0332478)
(0.0402716 -0.0893425 0.0513981)
(0.053711 -0.0817955 0.0523125)
(0.0573243 -0.0539902 0.0421597)
(0.0534028 -0.0335071 0.034703)
(0.0478233 -0.0239067 0.0338009)
(0.0409793 -0.0170291 0.0364921)
(0.0317308 -0.00956249 0.038415)
(0.0183596 -0.00302885 0.0385734)
(0.00806009 -0.00162031 0.0382899)
(0.0156112 -0.0823814 0.0405526)
(0.0528012 -0.110956 0.0575541)
(0.0661294 -0.0931888 0.0645561)
(0.0689505 -0.0605041 0.058735)
(0.064256 -0.0380337 0.0491405)
(0.0574478 -0.0273445 0.0447981)
(0.0503934 -0.0160279 0.046637)
(0.0404932 0.0010043 0.0514528)
(0.0241859 0.0143982 0.0527045)
(0.0127203 0.0126128 0.0512093)
(0.0251359 -0.129561 0.0431203)
(0.0599705 -0.14948 0.059921)
(0.0721104 -0.117829 0.0713376)
(0.0779662 -0.0782403 0.0725904)
(0.0765139 -0.050347 0.0611594)
(0.0708834 -0.0456901 0.047327)
(0.0657707 -0.0456417 0.0420425)
(0.0615257 -0.0258833 0.0497994)
(0.0483285 0.00176324 0.05213)
(0.0275212 0.0172664 0.0415949)
(0.0209494 -0.18544 0.0341629)
(0.0470121 -0.182196 0.0550802)
(0.0604474 -0.13316 0.0648258)
(0.0734115 -0.0828962 0.0659586)
(0.0719198 -0.0401236 0.0512116)
(0.0587912 -0.0324042 0.0143178)
(0.0298081 -0.0302941 -0.0258685)
(-0.012359 0.00923932 -0.0516735)
(-0.0191784 0.0385568 -0.0664193)
(-0.0082771 0.0458157 -0.0751022)
(0.00919026 -0.219278 0.0438065)
(0.0402755 -0.208607 0.07494)
(0.0845835 -0.156474 0.0794062)
(0.139136 -0.108825 0.0687311)
(0.168229 -0.054313 0.0517865)
(0.157983 0.00335252 0.040586)
(0.108414 0.0284668 -0.0069359)
(0.0805574 0.0160137 -0.00572687)
(0.0288428 -0.010196 0.00944762)
(-0.0301066 0.00517004 -0.0147011)
(0.0210958 -0.266224 0.0621345)
(0.0959333 -0.331733 0.0867251)
(0.219248 -0.330828 0.0464421)
(0.374627 -0.313979 -0.0608645)
(0.497974 -0.229776 -0.149563)
(0.544866 -0.0513903 -0.0238782)
(0.531366 0.0412709 0.0588492)
(0.504686 0.140119 0.186372)
(0.433397 0.0442469 0.256235)
(-0.0291532 0.0138151 0.061484)
(0.0575347 -0.382366 -0.0502986)
(0.137796 -0.48908 -0.14666)
(0.185634 -0.475147 -0.319855)
(0.233509 -0.334669 -0.415471)
(0.310893 -0.102496 -0.3377)
(0.328331 -0.0163553 -0.168848)
(0.33795 0.161398 0.0289236)
(0.385619 0.327453 0.0941355)
(0.261766 0.415765 -0.0369999)
(-0.119819 0.425135 -0.226199)
(0.0245176 -0.184687 -0.565087)
(0.0240284 -0.239316 -0.56356)
(-0.0208462 -0.34519 -0.46984)
(-0.0171212 -0.274108 -0.529427)
(0.0172399 -0.122324 -0.455957)
(0.125537 0.0737037 -0.224046)
(0.186707 0.249278 0.0131253)
(0.258348 0.479116 0.00273182)
(0.0740231 0.650311 -0.167208)
(-0.107395 0.56211 -0.274841)
(-0.0151462 -0.157216 -0.543362)
(-0.00490304 -0.308578 -0.452787)
(-0.0296354 -0.334473 -0.366003)
(-0.0349021 -0.217156 -0.482914)
(-0.0744234 -0.0328917 -0.464707)
(-0.0174994 0.142142 -0.289618)
(0.104887 0.330069 -0.0259012)
(0.14848 0.618504 -0.0767267)
(-0.0116497 0.763562 -0.216441)
(0.00776418 0.568035 -0.296178)
(0.0110615 -0.0629585 -0.424786)
(0.00710129 -0.200585 -0.39931)
(-0.029348 -0.2135 -0.323769)
(-0.0489677 -0.0909072 -0.43565)
(-0.121349 0.122772 -0.406026)
(-0.121547 0.264418 -0.32185)
(0.0223713 0.454008 -0.182691)
(0.0612045 0.749203 -0.207629)
(0.0335637 0.804563 -0.302664)
(0.147267 0.580332 -0.342262)
(0.0641627 0.0722579 -0.154221)
(0.0215107 -0.0839423 -0.244859)
(-0.0478872 -0.11053 -0.269304)
(-0.0609458 0.0429509 -0.375341)
(-0.150637 0.288209 -0.324862)
(-0.181157 0.411436 -0.304837)
(-0.0658319 0.581387 -0.350355)
(0.0234087 0.829061 -0.358024)
(0.121774 0.78932 -0.377731)
(0.239838 0.58351 -0.304042)
(-0.0116193 0.18432 0.205114)
(0.0464335 0.0530985 -0.0599111)
(-0.0576269 -0.00363647 -0.188454)
(-0.0739195 0.184702 -0.283869)
(-0.152828 0.443377 -0.222106)
(-0.18579 0.542445 -0.213623)
(-0.10649 0.641739 -0.339582)
(0.0197009 0.796917 -0.355372)
(0.166076 0.711584 -0.277207)
(0.264427 0.582495 -0.0870719)
(-0.0804653 0.138195 0.343615)
(0.125214 0.0716869 0.0643326)
(-0.00881494 0.0744656 -0.109278)
(-0.0781833 0.305368 -0.161446)
(-0.151359 0.569624 -0.0904989)
(-0.164954 0.627278 -0.0446157)
(-0.091585 0.635545 -0.141343)
(0.0277772 0.690505 -0.133391)
(0.139935 0.650027 0.0110417)
(0.160571 0.641059 0.21147)
(-0.0664186 0.0303306 0.378952)
(0.108329 0.0842463 0.172339)
(-0.0537297 0.192025 0.00971803)
(-0.130749 0.437841 -0.00569196)
(-0.169521 0.65441 0.0705645)
(-0.148046 0.644685 0.149609)
(-0.0830273 0.594227 0.118794)
(-0.018255 0.613839 0.153566)
(0.0198909 0.628746 0.272178)
(-0.0110736 0.665325 0.373208)
(-0.0638692 0.0105309 0.361287)
(-0.0854239 0.221632 0.28215)
(-0.195801 0.380959 0.195304)
(-0.219218 0.560812 0.197374)
(-0.195471 0.667868 0.236379)
(-0.142369 0.596583 0.288051)
(-0.107389 0.538911 0.282065)
(-0.0903946 0.551321 0.297941)
(-0.0791166 0.57356 0.328078)
(-0.0993918 0.609327 0.343646)
(-0.069787 0.0951483 0.287347)
(-0.237984 0.332854 0.351745)
(-0.306715 0.437854 0.333256)
(-0.292654 0.518922 0.33415)
(-0.226548 0.54821 0.322643)
(-0.162068 0.475167 0.317258)
(-0.129918 0.441499 0.299935)
(-0.100413 0.451786 0.281381)
(-0.0643904 0.471792 0.249911)
(-0.0426936 0.513246 0.221525)
(0.00220356 -0.00489102 0.0196742)
(0.00909001 -0.00603443 0.0227895)
(0.0160361 -0.00542157 0.0219376)
(0.0207299 -0.00410018 0.0213772)
(0.0230701 -0.00290586 0.0212814)
(0.0232293 -0.00191403 0.021535)
(0.0214521 -0.0010638 0.022083)
(0.0181954 -0.000267064 0.0227549)
(0.0133792 0.000337952 0.0237394)
(0.00785466 0.000522783 0.0239767)
(0.00144807 -0.0124238 0.0175803)
(0.00776622 -0.0158735 0.0226001)
(0.0149189 -0.0141472 0.0216088)
(0.019895 -0.0103243 0.0206954)
(0.0222109 -0.00712643 0.020609)
(0.0223234 -0.00443775 0.0210112)
(0.0205919 -0.00229072 0.0217329)
(0.0176963 -0.00084731 0.0225924)
(0.013521 -0.000234051 0.0239609)
(0.00858781 -0.000444492 0.0247061)
(0.00117894 -0.0202288 0.0224166)
(0.00880483 -0.0269092 0.0316699)
(0.0189747 -0.0253817 0.0301945)
(0.0252065 -0.0187573 0.0265981)
(0.0274608 -0.0128528 0.0251705)
(0.0272718 -0.00810398 0.0253825)
(0.0247956 -0.00463448 0.0261503)
(0.0206054 -0.00246851 0.0269138)
(0.0145194 -0.00104743 0.0276092)
(0.00869966 -0.000170092 0.0268014)
(0.001666 -0.0297191 0.0290974)
(0.0146319 -0.0403744 0.0436464)
(0.0281816 -0.0380909 0.0443865)
(0.0356482 -0.0273839 0.0374944)
(0.0367454 -0.0190578 0.0329597)
(0.0350486 -0.0125183 0.0322715)
(0.0308233 -0.00690915 0.0336212)
(0.0239646 -0.00276654 0.034705)
(0.0138169 0.00122206 0.0341033)
(0.00720383 0.00426934 0.0298071)
(0.00640387 -0.0438472 0.0328905)
(0.0268499 -0.0558081 0.0497734)
(0.041254 -0.0514921 0.0552802)
(0.0483797 -0.0362513 0.0494819)
(0.048794 -0.0243171 0.044236)
(0.0469505 -0.0163292 0.0442021)
(0.040598 -0.00795573 0.046178)
(0.0294547 0.00114778 0.0459252)
(0.0137404 0.0076711 0.042737)
(0.00568185 0.00894384 0.0356785)
(0.0150849 -0.0624222 0.0380527)
(0.0434624 -0.0692039 0.0570825)
(0.057877 -0.0582478 0.0670448)
(0.0627184 -0.040949 0.0639262)
(0.0619184 -0.0282216 0.0578474)
(0.0616672 -0.016177 0.0577013)
(0.0575197 0.00227571 0.0636209)
(0.0415102 0.0129827 0.0668169)
(0.0156532 0.0166853 0.0611828)
(0.00457572 0.0164704 0.0478199)
(0.0209412 -0.104035 0.0477616)
(0.0557462 -0.105568 0.0697397)
(0.0697522 -0.076876 0.0812724)
(0.0727522 -0.051989 0.0797864)
(0.0703286 -0.0443231 0.0687177)
(0.0686967 -0.0412589 0.0582547)
(0.0676791 -0.0171304 0.0644387)
(0.0479832 0.02312 0.0645189)
(0.0254447 0.0375993 0.0571741)
(0.0130963 0.0338108 0.0400974)
(0.00992288 -0.148013 0.0491282)
(0.0412792 -0.133892 0.075887)
(0.0590557 -0.080813 0.0860337)
(0.0621324 -0.0380579 0.0819131)
(0.0495269 -0.0280901 0.0563802)
(0.016126 -0.0184975 0.0069343)
(-0.0576745 0.0207245 -0.0238588)
(-0.0683903 0.0441542 -0.0333214)
(-0.0570772 0.0446975 -0.04262)
(-0.0278436 0.0394892 -0.0551277)
(-8.40366e-05 -0.17173 0.0788755)
(0.0493377 -0.166859 0.117733)
(0.0966211 -0.11035 0.114353)
(0.133457 -0.0637128 0.110981)
(0.164426 -0.0217058 0.107883)
(0.137957 0.0366634 0.0807551)
(0.0132137 0.0551351 -0.011619)
(0.086764 0.0290091 0.0128438)
(0.115108 0.00239356 0.180377)
(-0.0992613 -0.00816386 0.134183)
(0.0311719 -0.259148 0.101133)
(0.148018 -0.34262 0.105394)
(0.265373 -0.313112 0.0409841)
(0.398914 -0.250227 -0.0391137)
(0.504962 -0.139571 -0.0870158)
(0.312429 0.0693295 0.0320717)
(0.315718 0.0779705 0.0631398)
(0.157725 0.185295 -0.0201807)
(0.0419527 0.379101 0.0877099)
(-0.217868 0.361291 0.0612447)
(0.0461083 -0.347363 -0.248787)
(0.117371 -0.31196 -0.335564)
(0.149566 -0.223551 -0.389141)
(0.19192 -0.175493 -0.449158)
(0.262312 -0.0262169 -0.404205)
(0.223932 0.1685 -0.218078)
(0.165507 0.242931 -0.0863321)
(0.0959303 0.475897 -0.100151)
(-0.018873 0.650547 -0.00816377)
(-0.187375 0.539364 -0.0536738)
(-0.0226428 -0.241408 -0.537796)
(-0.0516123 -0.322553 -0.480714)
(-0.0957347 -0.385131 -0.463695)
(-0.106478 -0.357378 -0.514661)
(-0.085425 -0.174706 -0.493127)
(0.021834 0.174815 -0.307517)
(0.04839 0.387842 -0.125318)
(0.029335 0.695088 -0.142158)
(-0.0462 0.780822 -0.0741752)
(-0.0599552 0.525149 -0.18591)
(-0.0615396 -0.28376 -0.513978)
(-0.0480038 -0.334088 -0.485389)
(-0.0246808 -0.36104 -0.444734)
(-0.0631396 -0.314525 -0.501315)
(-0.155715 -0.15938 -0.53798)
(-0.120673 0.170737 -0.453601)
(-0.0170078 0.501204 -0.189324)
(-0.031858 0.828954 -0.204802)
(0.000770708 0.810353 -0.186379)
(0.124001 0.499101 -0.321003)
(-0.0589377 -0.228612 -0.455241)
(-0.0447971 -0.313248 -0.442376)
(-0.00443703 -0.312317 -0.432387)
(-0.045407 -0.239492 -0.471515)
(-0.163981 -0.0522009 -0.47922)
(-0.21592 0.230896 -0.51952)
(-0.0879789 0.624093 -0.393233)
(-0.0404197 0.903237 -0.360889)
(0.120935 0.777677 -0.373635)
(0.259424 0.465719 -0.397211)
(-0.0180244 -0.155134 -0.231038)
(-0.0214297 -0.2777 -0.267552)
(-0.0137276 -0.236871 -0.368245)
(-0.0657602 -0.124814 -0.428839)
(-0.18727 0.0917775 -0.398793)
(-0.265274 0.322421 -0.47414)
(-0.167325 0.62544 -0.530135)
(-0.00980101 0.833945 -0.49441)
(0.188123 0.643324 -0.438057)
(0.275901 0.39812 -0.312469)
(0.0174987 0.0015589 0.0880437)
(0.0273292 -0.193044 -0.0945269)
(-0.0512788 -0.137734 -0.268756)
(-0.102531 0.0152845 -0.342702)
(-0.185767 0.222568 -0.301806)
(-0.235847 0.374083 -0.341878)
(-0.187465 0.509572 -0.41965)
(-0.00837308 0.616591 -0.392308)
(0.160369 0.458318 -0.259385)
(0.22881 0.31624 -0.0642783)
(-0.0516778 0.0335753 0.320214)
(0.116811 -0.136946 0.0181299)
(-0.0522479 -0.0294483 -0.156092)
(-0.092063 0.129505 -0.199689)
(-0.156213 0.324454 -0.161796)
(-0.172916 0.424732 -0.156106)
(-0.14649 0.411713 -0.163515)
(-0.0179126 0.397679 -0.0935329)
(0.0894805 0.288185 0.0744979)
(0.133701 0.309984 0.246297)
(-0.0355089 -0.0360465 0.376407)
(0.148444 -0.103372 0.111654)
(0.0293805 0.0399332 -0.0358144)
(-0.0750934 0.228509 -0.0446911)
(-0.162663 0.407558 0.00581878)
(-0.152617 0.43797 0.070984)
(-0.117591 0.323986 0.128192)
(-0.0640108 0.262646 0.213744)
(-0.0378513 0.256817 0.317228)
(-0.019701 0.37475 0.412174)
(-0.0211397 -0.0675624 0.369841)
(0.0239147 0.0297694 0.207689)
(-0.0944865 0.202452 0.138692)
(-0.174912 0.362975 0.161181)
(-0.214243 0.457723 0.216399)
(-0.17399 0.401708 0.288839)
(-0.140773 0.28142 0.332187)
(-0.130747 0.242755 0.356874)
(-0.124112 0.268796 0.369041)
(-0.103886 0.384305 0.387496)
(-0.032663 0.0266472 0.306649)
(-0.147377 0.193318 0.318667)
(-0.254506 0.329324 0.323697)
(-0.294148 0.409051 0.36152)
(-0.272091 0.410559 0.385019)
(-0.214046 0.316598 0.398298)
(-0.164573 0.230891 0.382156)
(-0.118115 0.208334 0.352888)
(-0.0710218 0.232046 0.317297)
(-0.0231486 0.327276 0.292901)
(0.00223436 -0.00357176 0.0214726)
(0.0091615 -0.0045055 0.0251388)
(0.0159892 -0.00397857 0.0242267)
(0.0206868 -0.00278896 0.0237144)
(0.023123 -0.00166192 0.0237749)
(0.0234832 -0.000577443 0.0242097)
(0.0218164 0.000535063 0.0249219)
(0.0187735 0.00163763 0.0256192)
(0.0138433 0.00266275 0.0270054)
(0.00778337 0.00366091 0.0273812)
(0.00170559 -0.00929007 0.0196022)
(0.00841514 -0.0117705 0.0246855)
(0.0151427 -0.010115 0.0237398)
(0.0199227 -0.00683005 0.0230445)
(0.0223208 -0.00393665 0.0231305)
(0.0226397 -0.00119471 0.0236727)
(0.0210271 0.00117389 0.0245652)
(0.0183889 0.0030917 0.0256714)
(0.0140816 0.00496109 0.0276063)
(0.0087231 0.0068115 0.0286168)
(0.00223758 -0.0158219 0.0246333)
(0.00962137 -0.0199065 0.0323372)
(0.0179612 -0.017752 0.0309023)
(0.0240815 -0.0122638 0.0288508)
(0.027104 -0.00712045 0.0283724)
(0.0274152 -0.00242032 0.0291076)
(0.024751 0.00150579 0.0303769)
(0.0200601 0.00454664 0.0312084)
(0.0130829 0.00809537 0.0308061)
(0.00683919 0.0125551 0.0271834)
(0.00325683 -0.0236361 0.0317503)
(0.0128222 -0.0275978 0.0427537)
(0.023615 -0.0248706 0.0425693)
(0.0311512 -0.0180575 0.0385724)
(0.0344119 -0.0108409 0.0361131)
(0.0346369 -0.00312485 0.0364421)
(0.0305628 0.00307061 0.038632)
(0.0226157 0.00729881 0.039576)
(0.0117001 0.013746 0.0365684)
(0.00651668 0.0202481 0.0264847)
(0.00858528 -0.0336225 0.0339101)
(0.0222678 -0.0363816 0.0475164)
(0.0340177 -0.0311894 0.052533)
(0.042079 -0.0229729 0.0507177)
(0.0459318 -0.0146896 0.0482849)
(0.0457922 -0.00455892 0.0492586)
(0.0385765 0.00809872 0.0523385)
(0.0269761 0.016942 0.0527552)
(0.0112664 0.0211534 0.0480714)
(0.00854752 0.0304066 0.0324266)
(0.015676 -0.0535226 0.0371611)
(0.0364597 -0.0473256 0.0550335)
(0.0477931 -0.0359275 0.064256)
(0.0541272 -0.0258938 0.0643434)
(0.0590892 -0.012862 0.0603608)
(0.0642829 0.00392529 0.0596175)
(0.0593768 0.0170988 0.0671934)
(0.0367543 0.0192644 0.0710257)
(0.00511559 0.0191329 0.0633975)
(0.0021919 0.0400188 0.0394888)
(0.0143606 -0.089736 0.0507137)
(0.0449583 -0.0725758 0.0751767)
(0.0560858 -0.049199 0.0834573)
(0.0577889 -0.0397231 0.0804054)
(0.0693887 -0.0210722 0.0734285)
(0.0753731 -0.000384609 0.0679648)
(0.0609725 0.0409618 0.0744697)
(0.0215496 0.0790558 0.0649625)
(-0.00620919 0.0669325 0.0410983)
(-0.00921633 0.0586101 0.0251065)
(-0.000747505 -0.118331 0.0634149)
(0.0325044 -0.0833584 0.0907533)
(0.0446561 -0.0403918 0.0955911)
(0.0426984 -0.0272478 0.0891179)
(0.0267685 0.00285061 0.0552926)
(-0.0273965 0.0407329 0.0142102)
(-0.0673902 0.0628373 -0.00770776)
(-0.0862748 0.0686964 -0.00572823)
(-0.100014 0.040739 -0.0195987)
(-0.0667736 0.0191011 -0.0284631)
(0.000587153 -0.133168 0.102869)
(0.0569608 -0.123446 0.136073)
(0.103469 -0.0767968 0.147841)
(0.164163 -0.0438737 0.152527)
(0.169061 0.0219761 0.147382)
(0.0602061 0.0646519 0.0626924)
(0.0104765 0.0861337 -0.0131326)
(0.00884811 0.137463 -0.0901446)
(-0.263941 0.0628834 -0.0853943)
(-0.332749 -0.0165102 -0.119883)
(0.0581117 -0.208366 0.0672682)
(0.202147 -0.273018 0.0493711)
(0.334614 -0.258549 0.0281598)
(0.440787 -0.178275 -0.0598287)
(0.31171 0.0595302 0.0869755)
(0.249455 0.123284 0.1143)
(0.140232 0.134684 0.0486951)
(-0.305361 0.532066 -0.21692)
(-0.3347 0.362417 -0.091436)
(-0.36257 0.271762 -0.0983781)
(0.0642487 -0.116356 -0.409694)
(0.159787 -0.117857 -0.372808)
(0.155151 -0.142782 -0.331407)
(0.141008 -0.10336 -0.375898)
(0.202774 0.0714339 -0.30267)