/*--------------------------------*- C++ -*----------------------------------*\
| =========                 |                                                 |
| \\      /  F ield         | OpenFOAM: The Open Source CFD Toolbox           |
|  \\    /   O peration     | Version:  2312                                  |
|   \\  /    A nd           | Website:  www.openfoam.com                      |
|    \\/     M anipulation  |                                                 |
\*---------------------------------------------------------------------------*/
FoamFile
{
    version     2.0;
    format      ascii;
    arch        "LSB;label=32;scalar=64";
    class       surfaceScalarField;
    location    "1.11";
    object      alphaPhi0.water;
}
// * * * * * * * * * * * * * * * * * * * * * * * * * * * * * * * * * * * * * //

dimensions      [0 3 -1 0 0 0 0];

oriented        oriented;

internalField   nonuniform List<scalar> 
22600
(
7.34151e-08
-1.35052e-07
6.16371e-08
1.86942e-07
-9.94945e-08
-1.40322e-08
3.21846e-07
-6.63785e-08
-6.85259e-08
4.07265e-07
-6.69929e-08
-1.84261e-08
4.28302e-07
-7.09652e-08
4.99289e-08
3.95672e-07
-5.45516e-08
8.7181e-08
3.24826e-07
-2.87971e-08
9.96433e-08
2.32703e-07
-6.72668e-09
9.88497e-08
1.39344e-07
-3.74443e-10
9.37334e-08
-4.48588e-09
8.26402e-08
7.60191e-08
-2.52579e-07
4.15079e-08
1.78767e-07
-2.24134e-07
2.18916e-08
2.62969e-07
-1.03228e-07
-4.7352e-08
3.37862e-07
-6.64685e-08
-7.5418e-08
3.64234e-07
-8.70578e-08
-1.02786e-08
3.40343e-07
-8.71667e-08
5.65057e-08
2.8118e-07
-5.6152e-08
8.65178e-08
2.05081e-07
-2.56869e-08
9.50597e-08
1.27517e-07
-2.36803e-08
1.00869e-07
-5.15247e-08
1.04426e-07
2.36736e-07
-6.24775e-07
1.3546e-07
3.44918e-07
-6.30744e-07
2.98428e-07
3.03888e-07
-2.94709e-07
2.32511e-07
3.20517e-07
-1.78238e-07
9.51399e-08
3.75178e-07
-1.69375e-07
2.76562e-08
3.80627e-07
-1.51957e-07
5.93411e-08
3.11778e-07
-9.69369e-08
1.09635e-07
1.88378e-07
-4.60674e-08
1.43781e-07
1.03776e-07
-1.40581e-07
2.01502e-07
-3.13217e-07
2.6301e-07
4.16065e-07
-1.37455e-06
3.33705e-07
5.34954e-07
-1.33166e-06
5.82027e-07
3.73761e-07
-6.60432e-07
5.26916e-07
2.89794e-07
-4.84583e-07
3.90312e-07
3.38943e-07
-4.50931e-07
2.32408e-07
3.57037e-07
-3.44896e-07
1.74845e-07
2.58854e-07
-2.07084e-07
2.0833e-07
1.44271e-07
-2.12014e-07
2.8053e-07
1.31165e-07
-5.13837e-07
3.86361e-07
-7.41445e-07
4.3021e-07
3.06407e-07
-2.25259e-06
5.71641e-07
3.72595e-07
-2.09442e-06
6.96573e-07
2.45785e-07
-1.2297e-06
6.96081e-07
1.95421e-07
-1.05956e-06
6.25343e-07
2.84628e-07
-1.01443e-06
4.74295e-07
3.55172e-07
-7.95867e-07
3.80426e-07
3.5201e-07
-5.70673e-07
3.6675e-07
3.7151e-07
-6.20526e-07
3.89012e-07
3.46169e-07
-8.84479e-07
3.95983e-07
-9.01139e-07
3.42349e-07
5.21826e-08
-2.678e-06
3.73419e-07
1.14316e-07
-2.51176e-06
3.55396e-07
1.67275e-07
-1.90656e-06
6.23952e-07
2.77611e-07
-1.79527e-06
6.254e-07
4.54062e-07
-1.68168e-06
4.90803e-07
6.10044e-07
-1.36195e-06
4.10092e-07
7.03707e-07
-1.05792e-06
3.93586e-07
7.05128e-07
-9.84856e-07
3.62909e-07
4.86391e-07
-9.53216e-07
2.87475e-07
-7.73604e-07
2.18791e-07
6.82857e-09
-2.0828e-06
-2.58322e-07
2.01263e-07
-1.9885e-06
-3.24395e-07
4.99261e-07
-1.91803e-06
4.47128e-08
6.83139e-07
-1.89589e-06
2.04022e-07
7.62397e-07
-1.77409e-06
1.97739e-07
8.20129e-07
-1.55744e-06
1.61469e-07
8.25036e-07
-1.18905e-06
1.26158e-07
6.80072e-07
-9.58508e-07
1.18642e-07
3.49396e-07
-6.9852e-07
7.59941e-08
-4.74347e-07
1.12998e-08
-1.183e-07
-1.01903e-11
-1.04969e-07
-7.78324e-08
-1.70035e-11
-2.24078e-07
9.61744e-08
-8.31938e-11
-1.82949e-07
2.0886e-07
-8.12624e-10
-6.34931e-08
2.13286e-07
-1.13792e-08
1.34277e-07
3.54695e-07
-1.25674e-07
2.90174e-07
5.85496e-07
-5.18749e-07
2.39877e-07
4.64115e-07
-3.91523e-07
5.46511e-08
1.47881e-07
-1.0151e-07
-1.82772e-07
1.09215e-07
-3.84968e-07
-7.93755e-12
-6.88644e-12
5.60827e-12
-1.34586e-11
-1.09271e-11
-4.83714e-13
-4.80007e-11
-4.67792e-11
-1.4896e-12
-6.20623e-10
-2.45635e-10
1.57748e-11
-1.12703e-08
-1.08592e-09
5.69966e-10
-1.39291e-07
-5.40841e-09
7.99951e-09
-8.80375e-08
-5.05848e-09
7.27531e-08
-9.856e-09
-4.65636e-09
1.42732e-07
1.46251e-07
-1.93959e-08
1.11233e-07
1.21734e-08
2.11439e-09
-8.11878e-12
-5.8645e-12
6.72188e-12
-1.47572e-11
-1.12704e-11
6.56507e-12
-1.07655e-10
1.43466e-11
2.48046e-11
-2.24696e-10
-1.59273e-09
1.72353e-10
-2.45001e-10
-4.11163e-09
3.38419e-10
-4.08122e-10
-5.69818e-09
3.40853e-10
-9.33705e-10
-4.56587e-09
3.69711e-10
-3.14386e-09
-2.3091e-09
4.95057e-10
-2.15483e-08
-2.02743e-09
1.42982e-09
-5.35233e-09
9.23115e-09
-1.05629e-11
-1.62093e-12
5.90262e-12
1.89647e-11
-5.58229e-11
1.05873e-11
-1.41178e-09
-2.33331e-09
3.44523e-10
-3.50268e-09
-4.84881e-09
1.06449e-09
-4.33449e-09
-4.99019e-09
1.92799e-09
-6.54641e-09
-4.94752e-09
8.84617e-10
-4.04239e-09
-4.79773e-09
6.21875e-10
-1.62916e-09
-4.43815e-09
3.4831e-10
-1.1962e-09
-2.44378e-09
2.76712e-10
-5.32255e-09
2.84385e-10
-2.96024e-11
1.54057e-11
8.02597e-12
-1.97338e-09
-1.2864e-10
5.95286e-11
-3.96919e-09
-3.54595e-09
8.11481e-10
-5.25561e-09
-4.79246e-09
1.32881e-09
-6.25747e-09
-4.76305e-09
9.25291e-10
-6.8619e-09
-4.08854e-09
-3.69255e-11
-7.28389e-09
-3.59255e-09
-2.78458e-10
-6.41191e-09
-4.27765e-09
-3.32841e-10
-4.61412e-09
-4.73058e-09
-7.17758e-10
-5.85049e-09
-1.24587e-09
9.99279e-11
9.87182e-11
2.41601e-11
-3.19296e-09
1.52647e-10
1.20707e-10
-4.50546e-09
-3.00929e-09
8.87455e-10
-5.89543e-09
-4.24662e-09
9.44639e-10
-6.89579e-09
-3.51324e-09
-3.97372e-11
-3.87514e-09
-9.70488e-10
-8.60559e-11
-3.37865e-09
-3.45262e-10
-2.81846e-10
-5.67278e-09
-1.57156e-09
-9.70203e-10
-5.15526e-09
-3.40455e-09
-1.54572e-09
-4.63143e-09
-2.50995e-09
9.58054e-11
1.49648e-10
2.91755e-11
-2.93599e-09
4.75085e-10
8.84921e-11
-4.35947e-09
-2.12548e-09
6.20705e-10
-5.56341e-09
-3.59374e-09
6.12806e-10
-3.78938e-09
-2.50652e-09
-3.29812e-11
-2.94971e-10
-7.59115e-11
-4.09889e-11
-5.72584e-10
1.57388e-12
-8.75861e-11
-2.16134e-09
-6.01808e-11
-3.12663e-10
-3.19999e-09
-1.12408e-09
-2.59302e-09
-2.40935e-09
-2.57718e-09
7.58033e-11
1.70254e-10
2.22299e-11
-1.68216e-09
3.64599e-10
1.53995e-11
-4.11825e-09
-1.12816e-09
2.57176e-10
-5.01774e-09
-3.0568e-09
5.50346e-10
-3.34876e-09
-2.23041e-09
-2.17784e-11
-1.59477e-10
1.90788e-11
-2.15143e-11
-1.13935e-10
1.18169e-11
-6.1062e-11
-1.40665e-10
1.29166e-12
-9.1171e-11
-6.82794e-10
-1.01065e-10
-1.19525e-09
-2.85953e-10
-1.5262e-09
3.01854e-11
3.36524e-10
1.73974e-11
-5.71445e-10
1.97383e-10
-2.9019e-11
-3.40193e-09
1.61176e-10
6.00236e-11
-4.49237e-09
-2.08819e-09
4.72364e-10
-2.34298e-09
-2.22461e-09
1.92379e-10
-5.24147e-11
1.5393e-11
-2.32665e-12
-4.75858e-11
6.6475e-12
-4.2365e-12
-1.04991e-10
2.09833e-12
-6.28646e-12
-5.18603e-11
-1.01764e-11
-1.95146e-10
-2.51485e-11
-2.772e-10
9.14407e-12
5.32458e-10
1.59042e-11
-5.6982e-12
1.37394e-10
-1.9074e-11
-1.42823e-09
9.3938e-12
-3.75677e-11
-3.85227e-09
-9.51033e-10
4.38705e-10
-4.93061e-11
-8.714e-10
3.26137e-10
-2.59484e-11
-1.48819e-11
3.02006e-12
-2.72155e-11
9.56436e-14
3.5372e-12
-2.87215e-11
-9.0619e-12
8.34705e-12
-2.42622e-11
-1.7905e-11
-2.2325e-12
-1.11983e-11
-1.04204e-11
-1.71169e-11
4.28802e-10
1.98872e-11
-1.94027e-11
2.35945e-10
-5.8413e-12
-1.79078e-10
3.66009e-12
-1.56574e-11
-3.95453e-10
-8.95095e-11
1.65688e-10
-2.78825e-10
-1.32733e-10
2.41167e-10
-1.79588e-10
-3.08785e-11
4.3116e-11
-2.65326e-10
-2.35555e-10
3.1649e-11
-2.35685e-10
-2.84343e-10
4.27286e-11
-5.10308e-11
-1.66039e-10
2.62617e-12
-2.67277e-11
-7.73533e-12
-2.40127e-11
4.48985e-10
3.66832e-11
-1.71445e-11
6.09123e-10
-1.56571e-11
-5.56683e-11
4.18891e-11
-2.82538e-12
-2.68953e-11
-5.10078e-12
7.91024e-11
-6.45706e-11
-4.21028e-11
5.11727e-11
-9.88145e-10
-2.13644e-10
1.00687e-10
-1.00618e-09
-4.00001e-10
1.96816e-10
-9.48932e-10
-4.41949e-10
1.20321e-10
-6.23214e-10
-3.72545e-10
-1.3443e-11
-2.19667e-10
-1.2517e-11
-1.51449e-11
1.44725e-11
9.19657e-11
-7.61796e-12
-1.66135e-11
6.70629e-10
-2.44497e-11
-1.11892e-12
5.74966e-11
-7.88124e-13
7.74238e-11
1.36895e-12
-2.19952e-10
5.50693e-11
-9.92932e-12
-9.72856e-10
1.10976e-10
-2.01733e-10
-1.0535e-09
1.12973e-10
-4.12363e-10
-1.01269e-09
1.41212e-11
-4.76922e-10
-9.19664e-10
-2.67191e-11
-4.1889e-10
-1.38256e-11
-2.63075e-10
8.45124e-09
-1.14819e-07
1.68005e-07
1.65426e-07
-2.88021e-07
1.17015e-07
3.99634e-07
-3.59506e-07
5.67725e-08
5.41565e-07
-2.46064e-07
8.57058e-08
5.77523e-07
-1.46991e-07
1.60963e-07
5.42596e-07
-9.61658e-08
2.18274e-07
4.59438e-07
-6.23206e-08
2.45121e-07
3.41913e-07
-3.45395e-08
2.50914e-07
2.02997e-07
-1.61996e-08
2.4885e-07
-2.14814e-08
2.37703e-07
8.49696e-08
-2.96123e-07
1.37842e-07
3.8441e-07
-8.38752e-07
2.73182e-07
5.77197e-07
-8.38039e-07
2.38393e-07
6.34615e-07
-4.87872e-07
1.08975e-07
6.0126e-07
-2.27869e-07
1.03954e-07
5.31054e-07
-1.46164e-07
1.76709e-07
4.39017e-07
-1.14951e-07
2.31186e-07
3.24523e-07
-7.88369e-08
2.53851e-07
1.97116e-07
-5.42447e-08
2.66321e-07
-7.34351e-08
2.72473e-07
4.01625e-07
-8.31009e-07
2.68721e-07
8.10842e-07
-1.67659e-06
7.27062e-07
8.31373e-07
-1.34903e-06
7.23052e-07
7.7516e-07
-7.6778e-07
4.31274e-07
7.21582e-07
-3.54498e-07
2.07864e-07
6.4878e-07
-2.08024e-07
1.94003e-07
5.43882e-07
-1.66783e-07
2.66365e-07
3.8917e-07
-1.027e-07
3.22355e-07
2.10558e-07
-5.50971e-08
3.80967e-07
-1.79108e-07
4.63328e-07
6.16273e-07
-1.66008e-06
5.46503e-07
8.48431e-07
-2.42784e-06
1.10068e-06
6.75054e-07
-1.73948e-06
1.09061e-06
5.73577e-07
-1.09476e-06
8.18766e-07
6.26687e-07
-6.68237e-07
4.93038e-07
6.50921e-07
-4.20877e-07
3.63465e-07
5.4168e-07
-2.58912e-07
4.09699e-07
3.35126e-07
-1.25453e-07
5.09838e-07
1.8623e-07
-1.55199e-07
6.3536e-07
-4.31278e-07
7.48362e-07
4.62912e-07
-2.28652e-06
7.35174e-07
3.97242e-07
-2.72236e-06
1.05433e-06
2.56365e-07
-2.07616e-06
1.17363e-06
2.83404e-07
-1.58783e-06
1.09138e-06
4.59741e-07
-1.2049e-06
8.34623e-07
5.93712e-07
-8.62317e-07
6.87895e-07
6.03417e-07
-5.89627e-07
6.8776e-07
5.68787e-07
-4.37961e-07
7.3615e-07
4.97668e-07
-4.55104e-07
7.67006e-07
-5.83524e-07
7.7983e-07
2.55987e-07
-2.4086e-06
2.39658e-07
7.82102e-08
-2.60442e-06
4.10161e-07
1.07395e-07
-2.31497e-06
8.33708e-07
3.16699e-07
-2.11088e-06
9.39213e-07
5.96033e-07
-1.82085e-06
8.27438e-07
8.31534e-07
-1.4424e-06
7.54663e-07
9.90451e-07
-1.10882e-06
7.53862e-07
1.0805e-06
-9.08792e-07
7.43689e-07
9.07838e-07
-6.95699e-07
7.00735e-07
-4.79766e-07
6.81833e-07
3.77466e-07
-2.18235e-06
-5.86261e-07
2.91141e-07
-2.1558e-06
-3.18647e-07
4.32194e-07
-2.10511e-06
1.80175e-08
6.98336e-07
-2.00953e-06
1.08456e-07
9.282e-07
-1.85084e-06
1.61561e-07
1.08101e-06
-1.62657e-06
2.0677e-07
1.15987e-06
-1.29871e-06
2.37153e-07
1.11371e-06
-1.07684e-06
3.32891e-07
8.30569e-07
-7.56316e-07
4.19787e-07
-3.68722e-07
4.22035e-07
2.0028e-08
-1.38086e-11
-1.46938e-07
-5.45879e-08
-3.99425e-11
-1.64941e-07
2.82168e-08
-2.8675e-10
-2.18664e-07
1.57193e-07
-2.58374e-09
-1.57812e-07
2.77049e-07
-2.09053e-08
3.01113e-08
5.61504e-07
-1.54203e-07
1.78629e-07
9.34897e-07
-4.72855e-07
1.41959e-07
8.87426e-07
-4.17369e-07
-1.16549e-09
4.95734e-07
-2.39732e-07
-1.55357e-07
2.34825e-10
-2.76199e-07
-9.60165e-12
-6.4212e-12
8.34871e-12
-3.38407e-11
-1.69596e-11
1.55428e-12
-2.45895e-10
-7.33758e-11
5.04966e-12
-2.55889e-09
-2.46583e-10
9.45173e-11
-2.3427e-08
-6.46725e-10
1.29667e-09
-1.70831e-07
-2.77347e-09
8.65517e-09
-9.947e-08
-1.93746e-09
1.24769e-07
1.84872e-08
-4.28208e-09
1.90366e-07
1.77411e-07
-2.24731e-08
1.70244e-07
5.64616e-09
1.08894e-07
-1.2363e-11
-5.16883e-12
1.73828e-11
-3.47807e-11
-1.4775e-11
2.18584e-11
-2.28357e-10
-9.3933e-12
8.84685e-11
-2.37315e-10
-1.35103e-09
2.90335e-10
-1.81424e-10
-1.76162e-09
3.73586e-10
-2.78653e-10
-2.0452e-09
3.43733e-10
-9.96939e-10
-1.008e-09
2.26004e-10
-4.23056e-09
-6.32914e-10
4.16244e-10
-2.64009e-08
-3.57361e-10
1.86385e-09
-1.37609e-09
1.27233e-08
-1.74341e-11
-4.41807e-13
1.71525e-11
-1.02179e-10
-9.0877e-11
5.5158e-11
-2.45847e-09
-1.93639e-09
8.68907e-10
-4.81847e-09
-3.89577e-09
1.24805e-09
-6.31973e-09
-3.1403e-09
9.02864e-10
-3.21826e-09
-3.17522e-10
3.3536e-11
-1.32892e-09
-2.94944e-10
-3.01064e-11
-1.00923e-09
-1.99584e-10
1.27662e-11
-8.66111e-10
-2.61464e-10
2.53631e-10
-9.57478e-10
2.14644e-10
-2.60425e-11
1.45696e-11
1.31085e-11
-1.66517e-09
-1.13905e-10
1.20298e-10
-4.38274e-09
-3.31574e-09
9.50181e-10
-5.04132e-09
-3.03697e-09
1.27624e-09
-1.85833e-09
-1.66483e-10
6.22894e-11
-7.26132e-10
-2.46249e-11
-4.16349e-11
-5.66183e-10
-2.97412e-11
-1.08397e-10
-4.80663e-10
-6.81591e-11
-1.98377e-10
-1.00762e-09
-2.52159e-10
-2.23248e-10
-2.37901e-09
-2.79753e-10
-6.37205e-12
3.23526e-11
9.46925e-12
-3.26147e-09
9.83748e-12
1.49369e-10
-4.59431e-09
-2.66573e-09
1.63015e-09
-7.37194e-10
-1.89191e-09
1.64811e-10
-1.62832e-10
1.12966e-11
-3.74289e-10
-2.66471e-10
2.55675e-11
-1.10725e-10
-5.05084e-10
2.55427e-11
-1.67334e-10
-1.29456e-09
-3.09793e-11
-2.9242e-10
-4.10735e-09
-1.10788e-09
-5.90088e-10
-4.62521e-09
-1.67392e-09
-7.78915e-12
5.55395e-11
9.83268e-12
-3.40169e-09
2.70646e-10
2.37525e-10
-4.91416e-09
-1.95079e-09
1.39162e-09
-3.5864e-10
-1.0532e-09
1.27995e-10
-1.88849e-10
4.63075e-11
-3.159e-10
-2.3729e-10
5.72303e-11
-7.08871e-11
-3.531e-10
7.97101e-11
-8.13841e-11
-1.95494e-09
-9.42042e-11
-2.8724e-10
-5.80388e-09
-2.79334e-09
-2.43734e-09
-5.26448e-09
-3.22013e-09
1.12357e-11
5.54579e-11
8.46319e-12
-2.60547e-09
3.32431e-10
1.78829e-10
-5.67549e-09
-1.24299e-09
9.38285e-10
-7.24996e-10
-1.06574e-09
3.01231e-10
-1.68175e-10
7.37588e-11
-1.33301e-10
-1.68132e-10
7.72632e-11
-5.29459e-11
-1.97794e-10
1.16306e-10
-8.63607e-11
-3.35974e-09
9.58889e-11
-1.39105e-09
-3.67654e-09
-1.74938e-09
-2.82316e-09
-3.49583e-09
-3.20016e-09
3.89706e-12
5.59341e-11
1.09445e-11
-1.05331e-09
2.52589e-10
5.67276e-11
-4.32638e-09
-4.48258e-10
5.35971e-10
-3.26027e-09
-1.8618e-09
5.54853e-10
-1.43384e-10
3.85866e-10
6.04175e-11
-1.09081e-10
4.31719e-11
-9.25423e-12
-5.77036e-11
2.4855e-11
-2.22578e-11
-8.43665e-10
-6.63936e-12
-2.62027e-10
-1.03322e-09
-2.05267e-10
-9.38007e-10
-1.26856e-10
-1.94773e-09
1.2662e-11
1.58437e-10
1.19857e-11
-3.23687e-10
8.43525e-11
7.28883e-12
-3.03506e-09
1.35477e-10
3.50407e-10
-3.33022e-09
-1.59615e-09
9.44336e-10
-5.72858e-11
1.31431e-10
6.41468e-10
-4.68855e-11
2.39298e-11
5.21005e-12
-5.5087e-11
2.50269e-11
1.78097e-12
-6.21666e-11
-6.36396e-12
-4.57112e-12
-1.79188e-11
-6.61474e-13
-1.17377e-10
-1.38252e-11
-6.39244e-11
1.5992e-12
1.93608e-10
-2.08389e-12
-1.59198e-11
6.6707e-11
5.40943e-13
-9.91122e-10
-3.38217e-11
7.71683e-11
-1.94726e-09
-4.88559e-10
8.76744e-10
-5.33125e-11
-2.38143e-11
1.0413e-09
-3.24291e-11
1.35096e-11
1.89103e-11
-1.91963e-11
2.34701e-11
9.20411e-12
-1.32177e-11
1.9015e-11
2.05378e-12
-1.14461e-11
1.70728e-12
-3.55194e-12
-1.30082e-12
-1.68754e-11
5.8119e-12
1.19466e-10
-1.86801e-12
-6.71966e-14
2.54725e-10
-2.03343e-13
-2.0888e-10
1.36122e-10
1.26029e-11
-8.44622e-11
-9.93404e-11
3.12657e-10
-6.81337e-11
-8.68427e-12
2.23444e-10
-7.89994e-11
1.38628e-11
7.33954e-11
-1.21263e-10
6.07369e-11
4.05131e-11
-8.50695e-11
3.12721e-11
1.405e-12
-1.32972e-11
3.57147e-12
-6.23715e-12
2.24347e-12
-1.64988e-11
2.94056e-11
1.01165e-13
5.27013e-11
-2.88683e-12
7.83809e-12
5.86092e-10
-2.36299e-10
4.92348e-11
4.57673e-10
-1.011e-10
3.72373e-10
4.22139e-12
-2.7942e-11
7.64911e-11
-3.27368e-12
-1.87699e-10
1.34087e-11
-3.77097e-13
-4.71421e-10
4.2281e-11
-1.06127e-12
-3.5538e-10
9.88732e-12
-4.15324e-11
-1.15407e-11
-9.39605e-12
-9.11981e-12
-1.55396e-11
2.69135e-12
-6.7465e-08
-8.19232e-08
3.17393e-07
1.02847e-07
-4.39833e-07
3.86536e-07
4.36872e-07
-6.74464e-07
3.97212e-07
6.12883e-07
-4.65843e-07
3.75538e-07
6.20126e-07
-2.18143e-07
3.71862e-07
5.55099e-07
-1.00793e-07
3.84094e-07
4.57232e-07
-5.21801e-08
3.95168e-07
3.33544e-07
-2.60085e-08
4.00611e-07
1.90997e-07
-1.36666e-08
4.05063e-07
-2.8639e-08
4.02492e-07
-9.44465e-09
-1.76111e-07
2.41474e-07
3.51797e-07
-1.05246e-06
5.2457e-07
7.05278e-07
-1.39801e-06
6.08456e-07
8.12398e-07
-9.37009e-07
4.7302e-07
7.16257e-07
-3.86771e-07
3.68723e-07
5.74921e-07
-1.46509e-07
3.63762e-07
4.49876e-07
-8.74248e-08
3.91475e-07
3.27014e-07
-6.1393e-08
4.12098e-07
1.95731e-07
-4.70473e-08
4.30985e-07
-7.22587e-08
4.42876e-07
2.58869e-07
-4.58211e-07
2.91952e-07
7.87506e-07
-1.70121e-06
8.47175e-07
1.00532e-06
-1.87279e-06
9.80027e-07
1.03944e-06
-1.26926e-06
7.29441e-07
9.26268e-07
-5.47752e-07
4.82018e-07
7.45962e-07
-1.83074e-07
4.10874e-07
5.85696e-07
-1.04365e-07
4.43571e-07
4.30877e-07
-6.79292e-08
4.83711e-07
2.48168e-07
-3.29284e-09
5.19921e-07
-2.76545e-08
5.68811e-07
4.73893e-07
-8.41711e-07
4.56111e-07
8.67166e-07
-2.07954e-06
1.08601e-06
8.79519e-07
-2.01715e-06
1.22318e-06
8.61818e-07
-1.39377e-06
9.61044e-07
8.80187e-07
-7.30611e-07
6.57528e-07
8.22835e-07
-3.04531e-07
5.42274e-07
6.70399e-07
-1.13299e-07
5.71068e-07
4.45394e-07
2.57181e-08
6.41196e-07
2.29222e-07
1.23104e-07
7.25134e-07
2.6995e-08
8.14736e-07
5.16978e-07
-1.15201e-06
5.28499e-07
5.90522e-07
-2.12235e-06
1.02245e-06
5.04329e-07
-2.0111e-06
1.25316e-06
5.43639e-07
-1.50359e-06
1.16186e-06
6.80954e-07
-9.71006e-07
9.37704e-07
7.78642e-07
-5.5882e-07
8.44496e-07
7.47447e-07
-2.69302e-07
8.74959e-07
5.95417e-07
-1.30858e-08
9.26985e-07
3.79947e-07
1.65931e-07
9.39649e-07
6.59444e-08
9.71225e-07
4.67246e-07
-1.5698e-06
1.90205e-07
3.56494e-07
-2.16344e-06
5.62724e-07
2.89922e-07
-2.04886e-06
9.39726e-07
4.45187e-07
-1.7574e-06
1.03774e-06
6.93527e-07
-1.3935e-06
1.00158e-06
9.04923e-07
-1.02534e-06
1.00978e-06
9.94411e-07
-6.39287e-07
1.03436e-06
9.41621e-07
-2.47729e-07
1.03112e-06
7.08713e-07
1.07754e-07
9.9182e-07
2.29085e-07
9.69393e-07
4.36244e-07
-2.17402e-06
-3.53805e-07
3.12491e-07
-2.28511e-06
5.29423e-08
3.3549e-07
-2.23924e-06
2.59379e-07
5.45453e-07
-2.1121e-06
2.73629e-07
7.53771e-07
-1.79325e-06
3.53055e-07
8.96295e-07
-1.43036e-06
4.69238e-07
9.75796e-07
-1.01476e-06
5.33137e-07
9.67938e-07
-5.53832e-07
6.46862e-07
7.52176e-07
-4.06666e-08
7.83644e-07
2.60687e-07
8.45158e-07
7.50541e-08
-1.49972e-11
9.67785e-08
-5.66248e-08
-9.33444e-11
1.51851e-07
8.07534e-08
-1.0455e-09
4.78105e-09
3.69142e-07
-1.48645e-08
-3.26583e-08
5.48872e-07
-3.12634e-07
8.94166e-08
6.03856e-07
-3.92788e-07
2.31428e-07
5.96732e-07
-3.98454e-07
2.22256e-07
4.66415e-07
-3.50744e-07
2.15567e-07
2.91316e-07
-2.50038e-07
2.99038e-07
1.73664e-08
2.76634e-07
-9.10912e-12
-6.41539e-12
8.42499e-12
-6.72598e-11
-2.13601e-11
4.48515e-12
-8.5039e-10
-1.11413e-10
2.17839e-11
-1.57897e-08
-4.65226e-10
6.11104e-10
-3.05025e-08
-5.83872e-10
1.47629e-08
-3.62883e-08
-3.4736e-10
9.76384e-08
-8.18567e-10
-6.57212e-10
2.40683e-07
2.07387e-07
-3.71884e-09
3.47586e-07
2.71018e-07
-2.33864e-08
3.89077e-07
-2.17513e-09
3.53439e-07
-8.27803e-12
-4.73788e-12
2.38903e-11
-1.9438e-11
-1.56815e-11
2.4384e-11
-4.98499e-11
-1.19679e-10
7.46949e-11
-5.4257e-11
-3.38144e-10
1.53324e-10
-4.06113e-11
-3.40064e-10
1.15413e-10
-1.04095e-10
-2.91011e-11
8.84966e-11
-6.2902e-10
-4.819e-11
1.29434e-10
-4.06767e-09
-1.34087e-10
3.37106e-10
-2.54539e-08
-1.92766e-10
7.30158e-10
-1.42022e-10
4.99486e-09
-5.20026e-12
-2.87336e-14
1.72193e-11
-9.80668e-11
-1.17368e-11
2.03979e-11
-7.79021e-10
-4.38307e-10
1.60228e-11
-1.04613e-09
-9.56722e-10
6.24905e-11
-8.76325e-10
-1.96745e-10
2.30662e-11
-6.21168e-10
3.01543e-11
7.77716e-11
-4.04622e-10
5.35842e-11
5.25957e-11
-1.18252e-09
6.62508e-11
1.75896e-10
-8.18531e-10
7.78871e-11
4.79406e-11
6.32849e-11
7.82194e-11
-4.16061e-12
6.43773e-12
7.24189e-12
-6.69598e-11
3.46676e-12
1.32895e-11
-9.12573e-10
-2.54264e-10
-8.3994e-11
-1.56669e-09
-5.51411e-10
1.893e-11
-5.42608e-10
-1.33115e-11
-1.28772e-11
-2.98343e-10
4.81042e-11
-5.88551e-11
-2.83249e-10
6.25567e-11
-8.19733e-11
-3.15533e-10
1.0718e-10
-8.50667e-11
-2.55794e-10
9.41753e-11
-1.89351e-10
3.41155e-11
-3.15369e-10
-2.14982e-13
1.11636e-11
4.78732e-12
-5.77693e-11
2.19538e-11
9.71503e-12
-4.2383e-10
-1.16361e-10
-7.48143e-11
-1.18888e-09
-1.08495e-10
-1.55569e-12
-3.75794e-10
3.31345e-10
-8.74156e-11
-2.81274e-10
8.79605e-11
-3.08509e-10
-3.16525e-10
1.04086e-10
-2.30625e-10
-4.21332e-10
1.17094e-10
-2.50706e-10
-4.87301e-10
-1.70734e-10
-3.18624e-10
-1.36555e-09
-2.68203e-10
5.53196e-13
1.58801e-11
4.40747e-12
-8.42781e-11
5.7598e-11
6.28137e-12
-7.52334e-10
1.27828e-10
-8.13788e-11
-1.37533e-09
1.42928e-10
1.35481e-10
-4.44402e-10
6.55341e-10
-1.32564e-11
-4.08558e-10
1.5307e-10
-2.32249e-10
-3.20199e-10
2.64137e-10
-6.43426e-10
-1.14776e-09
2.55006e-10
-1.42981e-09
-4.87139e-09
-2.06272e-09
-1.65504e-09
-4.12572e-09
-1.72674e-09
4.89546e-13
1.81154e-11
5.46532e-12
-2.77607e-11
8.82431e-11
8.01666e-12
-1.04996e-09
3.93777e-10
-4.67587e-11
-1.8464e-09
4.89976e-11
4.76327e-10
-3.41542e-10
1.34078e-09
1.82869e-10
-3.81263e-10
1.63514e-10
-5.26365e-11
-1.37772e-09
3.59395e-10
-2.87804e-10
-4.32262e-09
4.42318e-10
-2.53913e-09
-4.99672e-09
-1.0118e-09
-2.94109e-09
-3.50412e-09
-3.46654e-09
3.18516e-13
1.91885e-11
6.41041e-12
4.6457e-12
8.22269e-11
8.04959e-12
-1.69227e-09
6.54402e-10
2.60076e-11
-2.21765e-09
-4.11049e-10
1.79711e-09
-2.08871e-10
1.24973e-09
8.81538e-10
-1.60949e-10
9.09955e-11
3.98783e-12
-3.7027e-10
8.89375e-11
-5.77228e-11
-5.0868e-10
-5.97036e-11
-5.71298e-10
-8.46775e-10
-2.49013e-10
-1.89008e-10
-4.12316e-10
-1.29046e-09
3.98674e-12
2.10683e-11
4.03958e-12
1.84543e-12
4.60732e-11
2.46372e-12
-1.41587e-09
4.90349e-10
6.7091e-11
-2.69716e-09
-4.55238e-10
2.07747e-09
-1.31523e-09
-1.84454e-10
1.3171e-09
-8.49527e-11
7.35351e-10
2.89261e-10
-6.80012e-11
5.51553e-11
2.61792e-12
-1.34456e-10
-1.70259e-11
-4.36204e-11
-1.61335e-11
-5.80311e-12
-2.01385e-10
-2.21389e-11
-1.27901e-10
1.34044e-11
2.92838e-11
-5.47873e-13
3.4831e-11
8.64673e-12
3.49037e-13
-1.54274e-10
8.51489e-11
7.29218e-11
-1.61087e-09
-1.00353e-10
9.51159e-10
-1.1204e-09
-6.01138e-10
1.57169e-09
-2.87e-11
6.00945e-10
9.1968e-10
-1.08355e-11
2.49002e-11
1.1299e-11
-2.74455e-12
1.27098e-11
1.357e-12
-9.63542e-13
1.02151e-12
-1.05496e-11
5.96129e-13
-2.83383e-11
1.47635e-11
2.45261e-11
-2.75328e-12
1.88336e-11
1.07531e-11
-9.77088e-14
-9.63406e-12
6.59742e-11
3.23285e-11
-5.62862e-10
1.94554e-11
4.38451e-10
-4.27808e-10
-2.12273e-10
1.0343e-09
-1.06005e-11
5.15182e-11
4.85569e-10
-6.15694e-12
1.73551e-11
3.83507e-11
-8.02499e-13
2.12397e-11
1.44738e-11
1.29335e-12
5.9686e-12
-1.26691e-11
5.11999e-12
-2.0059e-11
8.28442e-12
1.04324e-12
8.30736e-12
1.65558e-11
-5.00366e-13
1.69532e-11
3.71634e-12
8.77953e-12
1.26068e-10
-2.00349e-10
3.10534e-10
3.0502e-11
-3.9386e-11
4.98742e-10
-1.32834e-11
-1.4503e-11
3.30304e-11
5.68261e-12
-4.93068e-12
4.07117e-11
9.40363e-12
-1.05925e-12
3.99164e-12
1.23076e-11
8.17215e-13
-1.17988e-11
6.61439e-12
-2.49022e-11
9.85024e-12
-2.0866e-08
-7.81697e-08
4.16429e-07
1.14077e-07
-3.11308e-07
5.62901e-07
4.04571e-07
-5.03358e-07
6.10075e-07
5.71258e-07
-3.55869e-07
5.6472e-07
5.91135e-07
-1.67873e-07
5.19858e-07
5.3356e-07
-5.91503e-08
5.0082e-07
4.37699e-07
-6.81382e-09
4.97842e-07
3.16202e-07
2.15664e-08
5.00543e-07
1.75967e-07
3.34895e-08
5.11809e-07
2.44791e-08
5.16405e-07
-7.25109e-08
-1.06492e-07
3.42308e-07
1.71864e-07
-6.81842e-07
6.50729e-07
5.47209e-07
-1.05718e-06
7.86933e-07
7.0722e-07
-7.26994e-07
6.84134e-07
6.58098e-07
-3.0345e-07
5.53423e-07
5.4662e-07
-9.01739e-08
5.06263e-07
4.31892e-07
-1.08182e-08
5.10209e-07
3.18306e-07
1.704e-08
5.3021e-07
1.90682e-07
2.9324e-08
5.62775e-07
1.90085e-08
5.87206e-07
7.99822e-08
-2.34316e-07
3.39794e-07
4.88297e-07
-1.07294e-06
8.29978e-07
8.45712e-07
-1.47962e-06
1.04505e-06
9.8429e-07
-1.05217e-06
9.16053e-07
8.91217e-07
-4.35284e-07
7.06925e-07
7.1177e-07
-1.02348e-07
6.02495e-07
5.50703e-07
-3.22847e-09
5.97048e-07
3.99758e-07
3.72367e-08
6.14459e-07
2.32405e-07
8.42437e-08
6.32355e-07
9.98771e-08
6.50345e-07
3.00585e-07
-4.24733e-07
3.45943e-07
7.31605e-07
-1.27967e-06
8.62023e-07
9.53297e-07
-1.59022e-06
1.11267e-06
1.05345e-06
-1.20999e-06
1.01885e-06
1.02586e-06
-5.91725e-07
8.4156e-07
8.73481e-07
-1.46771e-07
7.39078e-07
6.63187e-07
5.58582e-08
7.22277e-07
4.4364e-07
1.40371e-07
7.57609e-07
2.32083e-07
2.39188e-07
7.81746e-07
2.80322e-07
7.76031e-07
4.65542e-07
-6.57535e-07
2.95758e-07
7.69618e-07
-1.34975e-06
7.88634e-07
8.61032e-07
-1.52558e-06
1.09748e-06
9.36571e-07
-1.22348e-06
1.09988e-06
9.96935e-07
-7.3249e-07
1.0181e-06
9.76749e-07
-2.80268e-07
9.98179e-07
8.43056e-07
3.1247e-08
1.03326e-06
5.73853e-07
2.76883e-07
1.05968e-06
2.71298e-07
4.63922e-07
1.01747e-06
4.88904e-07
9.4164e-07
5.33318e-07
-1.22388e-06
2.23227e-07
6.63677e-07
-1.63593e-06
7.195e-07
6.84601e-07
-1.61625e-06
1.01033e-06
8.18876e-07
-1.41287e-06
1.093e-06
1.01065e-06
-1.07829e-06
1.1556e-06
1.10766e-06
-5.88197e-07
1.2207e-06
1.04698e-06
-1.32363e-07
1.25865e-06
7.85336e-07
3.2383e-07
1.24582e-06
4.31524e-07
6.32413e-07
1.17714e-06
6.98246e-07
1.04517e-06
3.57085e-07
-2.0255e-06
9.10866e-08
3.55086e-07
-2.12466e-06
5.45257e-07
4.27909e-07
-2.021e-06
5.92929e-07
6.07427e-07
-1.86939e-06
5.51364e-07
8.05997e-07
-1.60764e-06
6.84106e-07
9.33358e-07
-1.03458e-06
7.88301e-07
9.09293e-07
-4.29319e-07
8.54161e-07
7.76246e-07
9.06391e-08
1.0131e-06
5.5403e-07
4.87017e-07
1.15126e-06
7.14448e-07
1.13259e-06
-4.89009e-09
-5.96661e-07
5.29857e-07
-6.12944e-08
-6.21259e-07
6.69853e-07
1.45789e-07
-7.49487e-07
4.58906e-07
4.09399e-07
-7.67213e-07
2.99458e-07
4.62956e-07
-6.63207e-07
3.71317e-07
3.77595e-07
-5.00125e-07
5.13816e-07
2.86591e-07
-3.66569e-07
5.7964e-07
2.60202e-07
-2.92435e-07
7.48188e-07
1.44283e-07
-1.44785e-08
9.24411e-07
1.99581e-07
9.61892e-07
-4.22262e-09
-1.21816e-11
3.61794e-08
-1.57036e-08
-2.75948e-11
2.9273e-08
-1.90605e-08
-1.03512e-10
5.94295e-08
-2.97895e-09
-1.94534e-10
1.05721e-07
3.69899e-08
-1.05938e-10
1.54074e-07
1.18777e-07
-5.45829e-11
2.82885e-07
2.59276e-07
-2.62019e-10
5.2622e-07
4.54323e-07
-7.0267e-09
7.68657e-07
3.10844e-07
-5.10496e-08
8.00689e-07
1.53578e-09
7.39442e-07
-4.65704e-12
-6.68368e-12
2.30329e-11
-1.02148e-11
-1.58404e-11
1.80941e-11
-1.6266e-11
-5.04058e-11
2.63556e-11
-1.09202e-11
-8.77274e-11
3.97505e-11
-3.69075e-12
-2.84618e-11
3.3091e-11
-6.69175e-13
-3.8255e-14
3.15429e-11
-1.98387e-10
-3.87172e-13
6.45019e-11
-7.53272e-09
-8.51665e-11
7.16338e-10
-1.29726e-08
-6.52867e-10
7.70163e-09
-1.3591e-10
3.55254e-09
-5.81721e-12
6.30981e-13
1.56798e-11
-1.09709e-11
-2.23937e-12
9.52668e-12
-5.08173e-11
-2.21976e-11
2.15572e-11
-8.35622e-11
-3.87585e-11
3.52665e-11
-6.76381e-11
-4.0227e-11
1.81884e-11
-5.83244e-11
3.03681e-11
3.76363e-11
-2.01151e-10
6.69574e-11
6.00713e-11
-8.32164e-10
2.10059e-10
-1.19007e-11
-1.53671e-09
6.96217e-11
-4.10435e-10
2.42424e-10
-6.7764e-10
-5.81752e-12
6.94027e-12
5.35651e-12
-1.28713e-11
1.74663e-11
1.88854e-12
-1.20058e-11
-1.47933e-11
-8.88997e-12
-9.60638e-11
4.33706e-13
-3.26902e-12
-3.55521e-10
2.69899e-11
1.78896e-11
-3.34495e-10
3.70917e-10
-3.20029e-11
-3.80547e-10
2.80816e-10
-5.34436e-11
-3.72848e-10
2.17905e-10
-3.431e-11
-4.22952e-10
2.06147e-10
-1.50231e-10
1.8235e-10
-3.73828e-10
-2.91868e-13
1.04215e-11
1.44442e-12
2.08266e-11
1.58309e-11
7.66767e-12
5.807e-11
1.93543e-11
4.44061e-12
-1.10693e-11
2.34491e-11
8.9321e-12
-2.61362e-10
1.05895e-10
2.02935e-11
-8.48504e-10
5.31824e-10
-1.69418e-10
-1.19583e-09
8.31849e-10
-8.57915e-10
-1.21987e-09
2.30338e-11
-1.21211e-09
-5.01307e-10
-8.46226e-10
-6.32168e-10
-3.42681e-10
-7.86433e-11
3.01574e-12
1.28149e-11
-1.05896e-12
5.2481e-11
3.25423e-11
7.59038e-14
9.16231e-11
7.70782e-11
-2.00308e-12
2.90241e-11
1.40494e-10
-2.45193e-12
-1.12011e-10
1.61307e-10
2.31207e-11
-9.35143e-10
5.31153e-10
-4.33157e-11
-4.40608e-09
1.29233e-09
-8.42663e-10
-4.83305e-09
6.33362e-11
-1.30962e-09
-4.79079e-09
-1.46454e-09
-1.25349e-09
-3.17816e-09
-8.19533e-10
4.81946e-12
1.17194e-11
1.66277e-12
7.74363e-11
4.05672e-11
-4.70854e-13
1.30916e-10
1.35749e-10
-5.33576e-12
1.14065e-10
3.49037e-10
-5.64762e-12
1.44317e-12
6.16219e-10
-1.05422e-11
-4.95805e-10
4.30907e-10
9.50109e-11
-8.27788e-10
1.99176e-10
-3.74026e-10
-1.39316e-09
8.51292e-11
-9.30361e-10
-3.64407e-09
-1.33124e-10
-6.97657e-10
-1.62985e-09
-2.65975e-09
4.70155e-11
4.89909e-11
1.05502e-11
6.09265e-11
2.83704e-11
-5.51891e-12
1.19747e-10
9.17748e-11
-6.84456e-12
2.37675e-10
6.43091e-10
-1.2358e-10
2.57212e-10
1.35889e-09
3.18394e-11
-3.38697e-13
7.11656e-10
8.73918e-11
-2.18246e-10
3.61519e-11
2.45379e-11
-5.43997e-11
1.38571e-11
-2.11402e-10
-2.75012e-10
-3.22743e-11
-7.60499e-11
-1.78326e-10
-2.42711e-10
2.88627e-11
1.67649e-11
-5.95207e-12
2.69875e-11
8.24396e-12
-2.6641e-12
7.57127e-11
6.17299e-11
-4.44568e-12
8.59933e-11
5.87935e-10
-3.53629e-11
4.01378e-10
5.32216e-10
4.32159e-10
1.03036e-10
1.51922e-09
5.48248e-10
-7.32395e-12
3.11469e-10
3.12099e-11
2.27667e-11
8.55914e-11
-6.27696e-12
3.81059e-12
2.63539e-11
-5.25408e-11
-2.64564e-11
-1.27341e-10
6.18581e-12
2.64335e-12
-1.12554e-12
1.10152e-11
6.23511e-12
-4.62624e-13
6.64613e-11
4.39872e-11
5.09497e-12
-4.36515e-11
3.93939e-10
2.90654e-11
1.63595e-10
3.83777e-11
4.22915e-10
3.60809e-10
3.15601e-10
6.72261e-10
-2.3104e-11
1.0031e-09
2.58769e-10
-9.2821e-12
1.93607e-10
1.4791e-11
1.99251e-11
1.19338e-11
-7.50766e-12
1.08313e-12
-5.62038e-11
3.40038e-12
3.71748e-12
-5.21899e-12
4.16306e-12
6.27984e-12
-5.21226e-13
4.0846e-11
2.26985e-11
4.30896e-12
1.46146e-11
1.85823e-10
6.25372e-11
3.05222e-11
1.76604e-12
5.66751e-10
1.65962e-10
9.63704e-11
4.44749e-10
1.27533e-10
3.68334e-10
2.84244e-10
2.1034e-11
2.93881e-10
4.57043e-11
1.43263e-11
1.96339e-11
-1.23482e-11
1.33973e-11
-7.23436e-11
3.48482e-12
-2.38946e-12
7.12388e-12
4.25719e-12
-1.7222e-12
8.73811e-12
1.61155e-11
4.25693e-12
1.71174e-11
4.02862e-11
2.67886e-11
2.48891e-10
-2.39933e-12
4.31691e-10
8.42e-12
5.73594e-12
2.52667e-10
2.2075e-11
8.04091e-11
1.21586e-10
6.73852e-12
6.71103e-11
-2.12377e-11
1.63478e-10
7.05421e-12
-1.04265e-11
5.4667e-11
-1.96169e-10
8.84143e-11
4.66856e-08
-7.18384e-08
4.41581e-07
1.75322e-07
-1.69249e-07
6.03513e-07
3.88501e-07
-2.37734e-07
6.3463e-07
5.24524e-07
-1.71478e-07
6.00175e-07
5.54602e-07
-7.25896e-08
5.6237e-07
5.1097e-07
3.24325e-09
5.41208e-07
4.21979e-07
5.36837e-08
5.3315e-07
3.05559e-07
8.43049e-08
5.32658e-07
1.64894e-07
1.08506e-07
5.43967e-07
1.26148e-07
5.35205e-07