/*--------------------------------*- C++ -*----------------------------------*\
| =========                 |                                                 |
| \\      /  F ield         | OpenFOAM: The Open Source CFD Toolbox           |
|  \\    /   O peration     | Version:  2312                                  |
|   \\  /    A nd           | Website:  www.openfoam.com                      |
|    \\/     M anipulation  |                                                 |
\*---------------------------------------------------------------------------*/
FoamFile
{
    version     2.0;
    format      ascii;
    arch        "LSB;label=32;scalar=64";
    class       volScalarField;
    location    "0.685";
    object      p_rgh;
}
// * * * * * * * * * * * * * * * * * * * * * * * * * * * * * * * * * * * * * //

dimensions      [1 -1 -2 0 0 0 0];

internalField   nonuniform List<scalar> 
8000
(
416.241
415.989
415.66
415.312
414.927
414.53
414.137
413.776
413.47
413.235
416.369
416.01
415.647
415.261
414.828
414.383
413.955
413.558
413.238
412.981
416.286
415.752
415.392
415.014
414.568
414.083
413.598
413.159
412.762
412.468
415.948
415.152
414.772
414.446
414.005
413.456
412.903
412.395
412.022
411.762
415.719
414.461
413.521
413.053
412.765
412.346
411.867
411.352
410.874
410.702
417.21
415.394
412.314
410.493
409.654
409.315
409.072
408.474
408.151
408.41
418.499
413.578
406.872
403.57
402.831
403.047
403.453
403.202
402.717
402.683
394.588
329.572
268.22
251.894
270.12
296.202
331.138
351.526
355.302
354.961
209.059
70.1287
24.5899
19.7081
31.2011
46.1345
58.4186
73.9352
86.8387
93.5082
13.6211
2.5909
1.14142
0.674467
0.428738
0.249472
0.191599
0.223414
0.0762506
-0.155955
1.98085
0.719411
0.0719697
-0.162195
-0.24798
-0.236399
-0.211935
-0.169299
-0.259306
-0.407766
0.511322
0.0898415
-0.239454
-0.34742
-0.376805
-0.344745
-0.387077
-0.412615
-0.462465
-0.518775
-0.0691532
-0.224896
-0.352369
-0.404791
-0.405181
-0.327462
-0.380705
-0.44877
-0.481562
-0.505583
-0.179044
-0.282536
-0.362363
-0.397584
-0.395776
-0.358275
-0.360846
-0.419692
-0.44583
-0.462483
-0.181594
-0.241619
-0.300759
-0.335192
-0.347476
-0.355285
-0.365229
-0.386561
-0.408046
-0.423668
-0.133594
-0.195134
-0.234458
-0.26582
-0.290221
-0.310458
-0.329592
-0.347159
-0.364657
-0.381948
-0.037942
-0.162841
-0.196804
-0.219944
-0.244183
-0.267083
-0.286742
-0.302154
-0.316346
-0.335901
-0.0249136
-0.143996
-0.177424
-0.191464
-0.207842
-0.225708
-0.244686
-0.255696
-0.266789
-0.285253
-0.0861422
-0.125773
-0.162261
-0.170959
-0.177185
-0.169432
-0.181089
-0.189176
-0.213798
-0.22448
-0.147436
-0.114678
-0.138995
-0.153859
-0.153291
-0.139509
-0.144084
-0.158409
-0.145052
-0.155019
416.056
415.804
415.509
415.22
414.9
414.554
414.196
413.855
413.547
413.301
416.072
415.704
415.399
415.107
414.77
414.395
414.007
413.633
413.289
413.008
415.795
415.337
415.059
414.79
414.474
414.074
413.625
413.169
412.733
412.375
415.18
414.502
414.364
414.157
413.91
413.451
412.886
412.342
411.805
411.354
414.477
413.59
413.069
412.752
412.731
412.386
411.863
411.16
410.459
409.949
415.394
413.979
411.723
410.298
410.009
409.735
409.355
408.551
407.855
407.477
413.555
409.172
405.805
404.325
404.087
404.044
404.15
403.72
402.78
401.954
334.355
291.221
263.129
265.337
283.903
304.487
335.082
356.28
359.118
355.771
86.9205
40.3393
25.7625
26.3013
36.7726
44.9802
56.5999
75.9156
85.5598
82.0004
3.23197
1.43898
0.715184
0.30609
0.0248143
-0.103026
-0.0880808
-0.0758569
-0.219269
-0.443752
1.1391
0.259702
-0.133579
-0.340573
-0.42718
-0.434704
-0.413742
-0.409259
-0.509999
-0.656072
0.264939
-0.115416
-0.335531
-0.441862
-0.486101
-0.502337
-0.529597
-0.566758
-0.608104
-0.650832
-0.0718116
-0.305517
-0.390889
-0.445842
-0.465716
-0.473874
-0.498957
-0.543417
-0.573178
-0.582328
-0.163207
-0.304353
-0.372966
-0.408746
-0.419096
-0.423767
-0.440638
-0.478168
-0.5042
-0.515382
-0.150574
-0.230868
-0.289522
-0.329384
-0.351007
-0.368401
-0.391037
-0.416485
-0.434995
-0.451709
-0.107642
-0.162054
-0.209935
-0.253477
-0.287639
-0.31327
-0.336299
-0.346812
-0.351637
-0.383068
-0.0151024
-0.125117
-0.177492
-0.212403
-0.244324
-0.266578
-0.272467
-0.281154
-0.298828
-0.329373
-0.0175604
-0.115996
-0.171339
-0.191475
-0.206357
-0.205452
-0.219226
-0.233518
-0.249046
-0.282115
-0.00888789
-0.130869
-0.163272
-0.17027
-0.158704
-0.16829
-0.184571
-0.185453
-0.195479
-0.218101
0.00986855
-0.14666
-0.151043
-0.135559
-0.132367
-0.150823
-0.160225
-0.143563
-0.143535
-0.154846
415.869
415.65
415.412
415.198
414.958
414.683
414.376
414.058
413.745
413.48
415.856
415.544
415.29
415.077
414.835
414.546
414.217
413.859
413.493
413.175
415.586
415.202
414.951
414.769
414.571
414.273
413.882
413.427
412.939
412.508
414.923
414.489
414.359
414.234
414.08
413.738
413.26
412.663
412.001
411.424
413.55
413.153
413.124
413.054
413.103
412.838
412.292
411.497
410.593
409.838
412.073
411.729
411.511
410.934
410.903
410.727
410.249
409.294
408.154
407.104
405.99
406.163
406.372
405.985
406.1
406.167
406.14
405.423
403.844
402.061
264.711
261.908
274.401
283.769
296.727
316.691
348.933
369.889
370.577
365.162
22.554
25.9626
31.1086
38.4045
44.1179
51.9827
73.9854
95.3489
95.5646
74.7621
0.953342
0.705402
0.318219
-0.091242
-0.311107
-0.35645
-0.358622
-0.353615
-0.471677
-0.667272
0.0894506
-0.104573
-0.310467
-0.462344
-0.515519
-0.516151
-0.523772
-0.53674
-0.652997
-0.778119
-0.24303
-0.317844
-0.410018
-0.491833
-0.533556
-0.529885
-0.574732
-0.617469
-0.662736
-0.728766
-0.259805
-0.388399
-0.424221
-0.467438
-0.499234
-0.511741
-0.534198
-0.571033
-0.604088
-0.622595
-0.216973
-0.329219
-0.377138
-0.407819
-0.432491
-0.454889
-0.476663
-0.4948
-0.513833
-0.531347
-0.194057
-0.235261
-0.280788
-0.322725
-0.354728
-0.37933
-0.401614
-0.422556
-0.431036
-0.46674
-0.166082
-0.175164
-0.210802
-0.257038
-0.293388
-0.317161
-0.331771
-0.336461
-0.360957
-0.413275
-0.0683571
-0.163788
-0.188873
-0.22406
-0.252429
-0.251892
-0.266249
-0.284276
-0.305256
-0.362791
-0.0220656
-0.091123
-0.178528
-0.202817
-0.205465
-0.208875
-0.228274
-0.241801
-0.249898
-0.307384
-0.0129446
-0.0102545
-0.133122
-0.181696
-0.17472
-0.175233
-0.199037
-0.195842
-0.19658
-0.243621
-0.0596886
-0.0756666
-0.121816
-0.159243
-0.154368
-0.150077
-0.163925
-0.154028
-0.146766
-0.176347
415.727
415.573
415.412
415.284
415.134
414.938
414.685
414.384
414.052
413.754
415.692
415.479
415.309
415.191
415.053
414.854
414.581
414.229
413.821
413.447
415.458
415.191
415.037
414.974
414.897
414.705
414.363
413.882
413.303
412.764
414.868
414.574
414.545
414.574
414.57
414.359
413.941
413.253
412.404
411.617
413.311
413.122
413.414
413.702
413.923
413.785
413.238
412.246
410.97
409.77
410.421
410.541
411.354
411.91
412.364
412.443
411.818
410.433
408.544
406.641
402.512
404.225
406.55
407.886
408.873
409.278
408.916
407.575
405.003
401.94
242.154
260.051
285.231
300.054
317.616
348.431
374.45
383.905
377.643
362.13
14.8532
26.3801
46.0281
59.1916
68.06
79.3942
99.8113
106.782
80.3894
39.4758
0.328018
0.254286
-0.0681102
-0.432057
-0.451636
-0.456934
-0.491097
-0.432059
-0.4537
-0.465067
-0.286886
-0.348011
-0.443627
-0.529509
-0.526598
-0.536105
-0.565948
-0.543487
-0.644256
-0.56966
-0.404361
-0.438699
-0.473659
-0.521641
-0.545489
-0.557829
-0.589864
-0.557018
-0.684533
-0.705196
-0.401449
-0.430966
-0.445378
-0.476402
-0.507266
-0.529843
-0.558761
-0.57713
-0.63796
-0.64265
-0.319964
-0.35467
-0.376193
-0.406989
-0.440136
-0.467625
-0.494725
-0.526928
-0.551209
-0.472714
-0.246036
-0.263946
-0.29198
-0.331905
-0.369126
-0.398292
-0.419872
-0.443352
-0.460677
-0.344442
-0.204877
-0.209581
-0.237087
-0.277748
-0.313071
-0.337603
-0.348677
-0.367604
-0.386944
-0.278154
-0.188729
-0.193255
-0.214971
-0.245001
-0.270448
-0.285322
-0.292284
-0.308651
-0.327209
-0.243004
-0.183495
-0.18949
-0.203844
-0.221113
-0.233908
-0.239146
-0.249783
-0.258429
-0.267212
-0.160902
-0.177282
-0.183972
-0.191162
-0.198537
-0.201095
-0.201961
-0.206487
-0.208904
-0.208202
-0.12848
-0.170237
-0.171284
-0.173009
-0.173524
-0.170433
-0.165953
-0.166257
-0.164481
-0.155909
-0.147103
415.597
415.517
415.453
415.424
415.377
415.277
415.089
414.816
414.482
414.172
415.537
415.433
415.378
415.38
415.366
415.281
415.069
414.731
414.298
413.885
415.34
415.224
415.219
415.306
415.376
415.309
415.038
414.538
413.892
413.294
414.827
414.765
414.891
415.118
415.326
415.317
414.954
414.182
413.164
412.225
413.502
413.648
414.134
414.686
415.199
415.288
414.797
413.607
411.949
410.358
410.099
410.887
412.228
413.468
414.5
414.853
414.175
412.357
409.674
406.343
402.219
404.777
408.045
410.652
412.456
413.078
412.565
410.445
406.382
401.264
257.519
282.132
304.817
326.662
356.449
384.981
394.476
383.53
360.491
348.791
20.5319
38.434
64.0669
94.7044
117.743
127.839
122.762
92.6894
56.7383
28.5126
0.192756
-0.0366774
-0.404475
-0.472752
-0.46228
-0.481965
-0.395495
-0.0559364
-0.0624455
0.0851645
-0.320063
-0.422286
-0.493647
-0.514715
-0.518247
-0.534284
-0.547174
-0.458637
-0.548402
-0.353652
-0.383398
-0.435725
-0.475376
-0.503628
-0.526197
-0.54117
-0.57768
-0.284718
-0.688489
-0.503523
-0.374684
-0.406948
-0.432926
-0.460898
-0.492692
-0.52321
-0.564717
-0.177112
-0.605901
-0.624271
-0.31764
-0.342566
-0.367625
-0.400542
-0.44078
-0.479406
-0.516397
-0.443408
-0.531813
-0.543434
-0.259608
-0.275291
-0.304337
-0.342382
-0.383964
-0.421893
-0.448554
-0.471358
-0.492545
-0.441587
-0.222913
-0.235808
-0.263952
-0.298302
-0.334993
-0.365141
-0.381075
-0.394936
-0.40878
-0.379115
-0.205677
-0.217975
-0.241369
-0.268143
-0.295333
-0.314069
-0.321486
-0.324773
-0.33785
-0.305735
-0.198059
-0.209158
-0.226203
-0.245023
-0.25977
-0.265527
-0.266242
-0.261
-0.269354
-0.230263
-0.195362
-0.202094
-0.212274
-0.22165
-0.222415
-0.217816
-0.213685
-0.206908
-0.20608
-0.185821
-0.185075
-0.186769
-0.189361
-0.187432
-0.182522
-0.175623
-0.170088
-0.162455
-0.14929
-0.0954401
415.475
415.458
415.488
415.565
415.632
415.641
415.537
415.322
415.037
414.81
415.395
415.377
415.444
415.574
415.7
415.737
415.621
415.338
414.945
414.617
415.215
415.213
415.366
415.623
415.871
415.975
415.821
415.363
414.723
414.137
414.735
414.809
415.146
415.632
416.136
416.382
416.173
415.421
414.292
413.159
413.717
413.998
414.706
415.565
416.518
417.023
416.781
415.535
413.277
410.617
410.604
411.497
413.186
415.048
416.696
417.584
417.233
415.095
411.333
392.219
403.621
405.789
409.555
413.087
415.798
417.478
417.517
414.647
408.92
382.813
290.983
309.385
332.514
365.601
396.655
409.346
404.421
373.311
348.114
350.833
35.0153
46.8366
79.5601
133.004
169.751
175.598
131.79
86.9112
89.1794
104.387
0.0662483
-0.178924
-0.394738
-0.448963
-0.447101
-0.330184
0.411317
0.921275
0.306654
0.361571
-0.287329
-0.410819
-0.467767
-0.4868
-0.496588
-0.488442
-0.377044
-0.281892
-0.34987
-0.249864
-0.324937
-0.402981
-0.446608
-0.47413
-0.493402
-0.509831
0.520427
-0.438235
-0.601574
-0.243563
-0.315145
-0.359698
-0.39996
-0.436659
-0.47283
-0.523691
-0.339962
-0.211966
-0.620947
-0.477032
-0.290911
-0.315823
-0.352694
-0.399071
-0.445541
-0.498898
-0.537754
-0.128425
-0.559297
-0.556685
-0.258285
-0.278208
-0.316194
-0.359916
-0.399976
-0.445141
-0.460687
-0.401699
-0.491572
-0.483275
-0.231896
-0.254373
-0.288185
-0.324638
-0.361777
-0.394767
-0.385666
-0.40928
-0.430312
-0.369688
-0.220164
-0.243526
-0.265374
-0.301498
-0.333466
-0.347723
-0.349213
-0.348251
-0.352126
-0.287632
-0.21613
-0.239922
-0.25959
-0.294863
-0.304411
-0.295631
-0.284358
-0.274017
-0.27194
-0.205601
-0.216531
-0.241426
-0.251857
-0.272153
-0.255007
-0.234507
-0.222731
-0.211362
-0.202307
-0.184079
-0.201465
-0.213919
-0.220365
-0.211859
-0.197644
-0.182475
-0.173496
-0.163603
-0.149936
-0.0597064
415.335
415.367
415.48
415.645
415.812
415.922
415.911
415.779
415.57
415.445
415.244
415.287
415.457
415.694
415.937
416.094
416.087
415.9
415.605
415.408
415.055
415.125
415.407
415.809
416.23
416.507
416.491
416.166
415.594
415.37
414.587
414.694
415.248
415.96
416.734
417.259
417.26
416.623
415.513
415.148
413.783
414.108
414.971
416.163
417.568
418.585
418.7
417.259
414.712
414.786
411.182
411.961
413.762
416.015
418.473
420.341
420.571
417.631
399.619
406.737
405.305
406.861
410.655
414.781
419.059
422.835
423.863
419.991
395.418
374.967
336.057
341.296
365.124
397.99
415.675
421.174
416.299
405.026
388.644
329.793
56.0715
54.8183
94.4921
160.581
197.248
196.094
197.04
242.806
262.611
250.798
-0.0877951
-0.234422
-0.35152
-0.395047
-0.265438
0.722215
16.0076
34.1873
1.47829
1.36478
-0.258679
-0.365319
-0.414605
-0.442367
-0.446885
0.706661
1.61332
-0.11744
0.132722
0.295663
-0.307566
-0.39133
-0.415331
-0.445542
-0.403959
4.84499
3.22996
-0.462144
-0.0741698
0.556782
-0.306959
-0.358197
-0.379988
-0.437622
-0.464641
3.58195
-0.361306
-0.561313
0.0161638
0.526227
-0.289463
-0.316929
-0.348535
-0.417553
0.0114413
1.11815
-0.505919
-0.555318
-0.541703
0.237179
-0.261854
-0.287289
-0.33339
-0.394582
-0.434576
-0.488815
-0.333761
-0.416035
-0.521482
-0.498465
0.0147884
-0.225977
-0.306359
-0.35534
-0.410204
-0.438359
-0.126031
-0.232895
-0.440554
-0.435686
-0.10068
-0.268882
-0.261071
-0.325988
-0.383468
-0.394818
-0.238775
-0.288884
-0.357694
-0.348389
-0.0813424
-0.225387
2.07803
4.54865
0.771481
-0.20096
-0.313479
-0.294658
-0.274606
-0.273925
-0.216378
-0.183447
0.189766
0.292689
0.274815
-0.0435668
-0.23971
-0.224699
-0.196249
-0.201483
-0.202194
-0.225879
-0.229337
-0.25605
0.00732948
-0.0581708
-0.168373
-0.169758
-0.150364
-0.10173
415.157
415.226
415.394
415.614
415.847
416.045
416.151
416.223
416.162
416.114
415.05
415.136
415.363
415.663
415.983
416.247
416.391
416.438
416.312
416.257
414.83
414.926
415.282
415.762
416.292
416.724
416.932
416.913
416.573
416.6
414.337
414.479
415.088
415.901
416.847
417.632
417.875
417.676
416.803
416.939
413.602
413.805
414.749
416.12
417.876
419.322
419.484
418.968
414.242
417.011
411.066
411.678
413.54
416.077
419.277
421.889
421.947
419.889
402.14
418.62
405.959
407.185
410.83
415.546
421.683
427.444
427.75
413.29
401.305
420.109
364.522
361.898
382.987
408.235
421.108
425.883
419.034
385.833
383.894
425.08
78.2786
68.3482
107.667
169.064
199.981
243.207
372.326
419.163
406.151
354.96
-0.0823994
-0.177505
-0.28707
-0.269252
0.589602
54.1634
246.042
312.231
177.191
48.4373
-0.220891
-0.293759
-0.341226
-0.376483
-0.042234
12.5554
17.1532
1.48583
0.752726
0.762673
-0.28867
-0.346849
-0.360142
-0.380152
6.3564
19.5465
-0.125653
-0.187266
0.501364
0.311164
-0.303602
-0.342862
-0.340254
-0.171606
9.98954
25.0911
-0.29433
-0.387317
0.75172
-0.0671606
-0.284231
-0.301911
-0.286111
0.479006
9.17406
14.0742
-0.391088
-0.44488
0.240839
-0.373563
0.474778
-0.147136
-0.0774063
0.246847
5.79449
12.0278
-0.255823
-0.454057
-0.481083
-0.387426
1.52817
-0.109653
0.507186
1.2099
13.306
9.57164
-0.460724
-0.317514
-0.434972
-0.385809
1.08909
0.539532
4.71661
13.9805
17.6693
0.272576
-0.386963
-0.315608
-0.362818
-0.358015
0.626503
5.41953
15.665
15.7332
5.65914
-0.339079
-0.323515
-0.310575
-0.284065
-0.309326
0.733518
1.53951
3.40446
1.15691
-0.289154
-0.042655
-0.245771
-0.233111
-0.204495
-0.237959
0.1624
-0.00961509
-0.294294
-0.259026
-0.167438
-0.134214
-0.139227
-0.130739
-0.147922
-0.154596
414.93
415.011
415.199
415.428
415.682
415.944
416.144
416.355
416.457
416.583
414.803
414.889
415.131
415.429
415.76
416.091
416.347
416.556
416.697
416.878
414.511
414.59
414.948
415.409
415.938
416.452
416.735
416.932
417.122
417.437
413.99
414.027
414.589
415.337
416.243
417.142
417.397
417.343
417.335
418.042
413.088
413.114
413.989
415.216
416.822
418.133
417.478
412.255
417.045
419.759
410.41
410.883
412.563
414.813
417.784
419.643
404.511
397.57
397.956
416.817
405.476
406.363
409.633
414.202
420.854
422.656
405.756
398.969
398.413
420.236
369.893
361.888
382.152
402.662
411.604
426.233
422.392
413.63
429.211
432.467
88.7019
72.8134
107.244
146.095
167.067
334.868
441.895
443.716
442.828
442.393
-0.00596673
-0.0675577
-0.166085
0.00763655
1.9876
162.974
419.19
441.898
329.725
175.878
0.00955605
-0.185021
-0.253349
-0.264114
0.819384
40.8949
50.2816
52.1889
1.39861
1.00465
0.335239
-0.2382
-0.286702
-0.229437
14.2648
30.4216
0.0718515
0.231403
0.640085
0.214389
0.425393
-0.229975
-0.288796
1.48163
37.854
41.8879
-0.130519
0.388004
0.774385
-0.246334
0.735694
-0.172587
-0.259583
9.61684
47.2398
46.7179
-0.365085
1.43874
0.0264367
-0.35373
1.41984
-0.0292552
1.12227
32.3923
50.7627
32.2451
-0.435088
0.0708926
-0.404943
-0.368157
1.55322
-0.0169514
18.2212
51.3674
52.2455
0.288453
-0.398817
-0.387904
-0.362049
-0.363446
1.16858
5.1794
35.7846
41.7576
16.7613
-0.329365
-0.341037
-0.348892
-0.328906
-0.348968
1.40447
11.5853
8.1417
-0.033046
-0.334585
-0.285315
-0.279059
-0.296324
-0.280203
-0.311593
1.59755
0.809868
-0.305283
-0.22853
-0.248095
-0.180396
-0.194653
-0.215997
-0.212772
-0.254205
0.544908
0.70351
-0.242362
-0.194094
-0.163382
-0.143582
-0.129117
-0.117349
-0.147707
-0.188842
414.654
414.73
414.91
415.117
415.361
415.695
415.985
416.302
416.597
416.395
414.493
414.563
414.783
415.035
415.343
415.733
416.126
416.518
416.936
416.188
414.129
414.157
414.459
414.83
415.298
415.862
416.532
417.146
417.675
416.029
413.541
413.43
413.865
414.405
415.06
415.896
416.843
418.007
418.639
415.951
412.457
412.241
412.917
413.639
414.518
415.899
417.861
419.191
420.873
417.325
409.679
409.832
410.934
412.156
413.443
398.24
390.11
414.848
422.647
420.662
404.452
404.902
407.138
409.908
411.964
384.584
383.084
401.129
424.96
429.107
354.592
350.271
370.298
376.497
371.366
400.721
402.143
413.912
434.795
436.403
74.6124
62.8965
85.525
89.4659
79.9793
193.842
398.555
432.582
449.135
450.951
0.114464
0.0242673
-0.095402
-0.0410313
1.06099
18.0895
144.389
273.218
278.394
217.978
0.788288
0.0332143
-0.191194
-0.216353
4.36415
17.5101
1.36554
2.02336
2.15479
1.4609
2.3016
0.211179
-0.228265
0.543713
32.6538
37.739
0.621293
0.985786
1.88034
0.992206
2.54696
0.0865603
-0.243314
3.79127
41.035
40.9136
0.0647067
2.38877
2.28623
0.275317
1.89736
-0.219098
-0.228685
7.16035
34.6604
8.45355
-0.152968
2.64627
-0.108308
-0.344563
1.23004
-0.216304
0.712172
16.7449
20.2916
-0.495418
0.114383
0.738036
-0.394361
-0.393639
0.859527
-0.0319075
14.8404
33.7002
15.7057
-0.435845
-0.126374
-0.356909
-0.349961
-0.407653
0.617453
6.35619
32.4027
39.6175
6.13017
-0.350358
-0.275924
-0.312849
-0.306242
-0.387539
1.17355
16.5951
33.4512
18.0215
-0.0549287
-0.273245
-0.248685
-0.26216
-0.25573
-0.345313
1.05826
13.1218
28.4011
3.85015
-0.237772
-0.194792
-0.185895
-0.205042
-0.200647
-0.281107
0.926862
11.8776
11.9322
-0.191408
-0.159062
-0.142813
-0.141093
-0.144453
-0.133072
-0.199332
414.354
414.415
414.572
414.757
415
415.332
415.673
416.058
416.418
416.291
414.163
414.209
414.392
414.606
414.896
415.296
415.765
416.233
416.764
416.376
413.741
413.717
413.95
414.236
414.637
415.212
415.917
416.589
417.36
415.562
413.08
412.851
413.144
413.489
414.006
414.931
416.157
417.297
418.325
415.753
411.876
411.451
411.835
412.096
412.373
414.304
416.387
418.42
420.008
417.117
408.89
408.701
409.354
409.616
406.69
402.78
410.767
415.703
422.179
423.369
403.015
403.146
404.739
405.523
406.901
383.934
380.282
420.388
425.085
430.479
336.981
341.812
359.304
344.172
318.305
345.931
387.822
426.152
432.903
439.541
57.799
54.0529
70.6414
50.501
29.194
82.6126
261.319
396.217
437.002
447.747
0.241458
0.0943556
-0.0431016
-0.0747807
0.422589
1.17212
7.36979
109.218
158.885
126.505
1.1492
0.134336
-0.143459
-0.160982
0.112252
0.315987
1.25993
2.67789
3.04026
1.65443
2.4701
0.386622
-0.239421
-0.296897
0.316117
1.99985
0.743312
2.40175
2.31966
0.830736
2.70792
-0.0199753
-0.285289
-0.352984
-0.436572
0.213654
1.20636
2.77949
2.61341
0.185841
1.14249
-0.264353
-0.297231
-0.351161
-0.452625
-0.543034
1.25022
2.76764
0.0315556
-0.110469
0.406955
-0.272655
-0.289337
-0.329795
-0.417765
-0.510191
1.29932
2.54299
-0.359624
-0.154958
0.401577
-0.260312
-0.278308
-0.305233
-0.369525
-0.424158
0.688362
-0.0979004
-0.347632
0.00404093
0.512221
-0.212675
-0.254676
-0.288808
-0.325813
-0.345782
-0.0127978
-0.291971
-0.31437
0.0675381
1.11319
-0.0824275
-0.258313
-0.289375
-0.283411
-0.28119
-0.168988
-0.246582
-0.261408
-0.126304
1.81004
-0.172329
-0.241845
-0.255577
-0.218926
-0.219361
-0.160766
-0.196808
-0.202565
-0.241406
1.02387
-0.191449
-0.206606
-0.208014
-0.172234
-0.169328
-0.12509
-0.143649
-0.142394
-0.18528
414.071
414.112
414.235
414.404
414.635
414.935
415.258
415.681
416.011
416.27
413.858
413.879
414.022
414.218
414.497
414.874
415.318
415.807
416.267
416.586
413.389
413.342
413.519
413.768
414.154
414.71
415.39
416.043
416.705
417.052
412.615
412.394
412.602
412.889
413.414
414.311
415.462
416.439
417.454
418.161
411.276
410.9
411.113
411.306
411.868
413.267
415.113
416.314
418.092
419.702
408.158
407.933
408.406
408.509
408.802
411.405
414.334
406.726
414.419
421.41
402.311
402.436
403.557
403.924
405.513
408.729
413.938
405.672
408.158
425.146
338.433
350.563
360.251
354.516
334.42
323.103
347.612
405.203
411.946
425.06
60.9574
62.6567
71.8601
56.7841
44.9337
48.5382
121.154
236.884
311.799
357.232
0.307478
0.202447
0.0593189
-0.0612665
0.0786825
0.574948
2.08316
6.4412
20.8556
36.7666
0.510596
0.0378109
-0.0830509
-0.192798
-0.317928
-0.27444
0.661951
2.75419
3.11343
2.06777
2.21452
-0.177162
-0.243015
-0.345188
-0.497894
-0.542062
1.03835
2.65909
1.65281
1.20481
2.69764
-0.171275
-0.320525
-0.375111
-0.4582
-0.531648
1.99676
2.93608
0.947593
0.54601
1.60417
-0.270328
-0.335091
-0.37327
-0.432081
-0.5319
1.76367
2.4952
-0.131601
0.436049
0.533804
-0.32901
-0.299043
-0.354706
-0.402237
-0.469942
1.16038
0.223398
-0.290732
0.380086
1.39773
-0.296187
-0.25064
-0.324194
-0.357929
-0.40498
0.696876
-0.366965
-0.349107
0.0327683
1.79045
-0.252528
-0.244025
-0.288598
-0.303676
-0.345757
0.200505
-0.342796
-0.339445
-0.257304
1.72802
-0.238709
-0.224768
-0.223453
-0.235857
-0.288378
-0.0305717
-0.278664
-0.298254
-0.317467
1.90216
-0.228199
-0.204138
-0.197456
-0.192725
-0.239916
-0.0248129
-0.191746
-0.232092
-0.273116
0.877438
-0.220463
-0.204902
-0.205987
-0.193494
-0.1889
0.00634816
-0.105119
-0.155017
-0.175664
413.87
413.879
413.954
414.088
414.285
414.541
414.803
415.143
415.349
415.48
413.648
413.64
413.727
413.886
414.132
414.458
414.815
415.222
415.463
415.643
413.181
413.113
413.216
413.417
413.765
414.247
414.808
415.378
415.739
415.735
412.359
412.163
412.288
412.531
413.05
413.812
414.77
415.642
416.109
416.288
411.138
410.781
410.815
411.01
411.779
413.042
414.478
415.718
415.978
416.876
407.98
407.799
408.036
408.286
409.465
411.518
413.692
415.315
413.582
415.71
402.521
402.66
403.239
403.745
405.792
409.397
413.138
415.433
399.429
393.298
340.652
352.642
358.927
361.705
366.445
367.9
381.685
406.783
400.119
385.626
60.507
62.4461
64.5648
62.2819
74.8154
96.7782
130.182
166.3
224.446
285.449
0.401177
0.28074
0.149837
-0.0373117
-0.233171
-0.149534
1.11226
4.4413
6.68967
5.1081
1.29286
0.0973065
-0.080969
-0.221227
-0.410047
-0.595254
0.104254
2.57371
3.27926
2.33898
2.61485
-0.0142527
-0.2554
-0.37276
-0.485456
-0.63697
0.676747
2.83657
2.75801
1.56363
2.70247
1.4228
-0.296044
-0.395545
-0.431317
-0.540107
0.69356
2.64092
0.589264
0.695728
2.93953
1.38835
-0.298497
-0.385712
-0.409926
-0.47725
0.215252
1.24221
-0.137842
0.433696
3.22165
0.10439
-0.277422
-0.36245
-0.376472
-0.410742
-0.272874
-0.382216
-0.300279
0.636994
3.48926
-0.0402043
-0.246602
-0.329608
-0.333998
-0.338774
-0.364431
-0.382309
-0.362641
0.0113984
3.65002
-0.275685
-0.251307
-0.288181
-0.260467
-0.301544
-0.319317
-0.388874
-0.375336
-0.39096
1.89598
-0.255525
-0.226883
-0.220315
-0.224498
-0.277905
-0.13721
-0.339054
-0.341511
-0.335627
1.19626
-0.220803
-0.203681
-0.220628
-0.225359
-0.249678
-0.0121641
-0.199334
-0.27715
-0.247435
0.11801
-0.19496
-0.185247
-0.194807
-0.19635
-0.20445
0.0263138
-0.113043
-0.191398
-0.139439
413.796
413.762
413.771
413.839
413.969
414.152
414.329
414.505
414.578
414.698
413.587
413.531
413.545
413.632
413.802
414.038
414.272
414.479
414.554
414.655
413.171
413.06
413.062
413.176
413.429
413.786
414.148
414.45
414.506
414.312
412.392
412.131
412.17
412.325
412.738
413.331
413.933
414.489
414.519
413.826
411.284
410.954
410.816
410.927
411.589
412.579
413.595
414.503
414.04
413.188
408.323
408.079
408.061
408.339
409.464
411.166
412.893
414.423
412.878
387.249
402.745
402.699
403.02
403.687
405.674
408.833
412.093
414.679
411.807
371.276
329.671
332.615
340.137
354.86
373.616
392.759
406.646
413.709
409.917
393.843
55.8381
52.0259
48.0238
56.8403
85.9596
131.072
164.843
177.501
182.193
231.666
0.439022
0.282816
0.151898
-0.0321024
-0.316528
-0.646122
-0.375447
1.37989
3.79617
3.16757
2.24651
0.0812046
-0.120073
-0.291471
-0.466738
-0.689542
-0.665286
0.48119
2.65616
1.96447
2.59931
0.327039
-0.22601
-0.403415
-0.497069
-0.591669
-0.502304
2.03325
2.63602
2.70803
2.00082
0.863734
-0.249197
-0.402404
-0.41222
-0.462868
-0.327895
2.2565
2.65247
2.19411
2.47052
0.44352
-0.374672
-0.38155
-0.378609
-0.407424
-0.299737
1.41779
1.27278
0.0448725
3.24407
1.20488
-0.367363
-0.347878
-0.345542
-0.347858
-0.334449
-0.310904
-0.243729
0.0965136
3.48152
0.903754
-0.326491
-0.310993
-0.308806
-0.30601
-0.327586
-0.316918
-0.243992
0.648193
3.72912
0.00259492
-0.272579
-0.280385
-0.269548
-0.29507
-0.322879
-0.0305433
-0.16749
0.91349
1.84209
-0.272031
-0.237147
-0.248818
-0.257765
-0.282125
-0.316785
0.425943
-0.126146
1.24054
-0.211617
-0.219101
-0.204686
-0.217255
-0.22951
-0.25562
-0.283329
0.451867
-0.107224
1.83114
-0.172683
-0.180873
-0.174469
-0.185999
-0.196094
-0.213739
-0.240806
-0.0396478
-0.143936
2.21323
413.869
413.785
413.711
413.69
413.72
413.796
413.865
413.926
413.903
413.962
413.704
413.586
413.498
413.48
413.536
413.646
413.744
413.806
413.699
413.755
413.374
413.189
413.069
413.057
413.16
413.335
413.495
413.599
413.379
413.165
412.721
412.434
412.263
412.243
412.451
412.776
413.063
413.294
412.415
411.713
411.659
411.257
410.988
410.932
411.32
411.895
412.448
412.858
411.415
395.844
408.686
408.347
408.203
408.395
409.205
410.292
411.376
412.078
410.859
391.492
402.837
402.654
402.955
403.765
405.219
407.235
409.462
411.174
411.409
400.223
300.32
301.498
310.429
333.165
360.59
384.054
399.132
404.937
403.298
402.049
50.9957
42.1747
35.3961
49.1549
78.6585
116.14
146.472
160.657
154.784
165.715
0.829521
0.234283
0.0777258
-0.0791565
-0.284535
-0.618103
-0.841743
-0.538817
0.270983
0.38466
1.8607
-0.0387468
-0.192627
-0.359643
-0.507693
-0.657643
-0.766973
-0.641438
-0.107946
-0.0759308
1.74325
0.226397
-0.319825
-0.431702
-0.503839
-0.568917
-0.600039
-0.516969
-0.0328288
-0.165156
-0.233211
-0.134732
-0.330097
-0.414146
-0.412198
-0.428632
-0.446237
-0.359939
-0.120959
-0.207582
0.518693
-0.27442
-0.395543
-0.380361
-0.353949
-0.358937
-0.34899
-0.264228
-0.137346
-0.0986224
3.27375
-0.0189156
-0.371209
-0.331403
-0.308828
-0.305149
-0.281254
-0.171801
0.581351
1.40807
3.51637
0.278266
-0.316685
-0.27702
-0.262508
-0.274848
-0.266297
0.115612
2.71251
2.8256
3.61272
0.175763
-0.262874
-0.226554
-0.237914
-0.269065
-0.295272
0.754217
2.81165
2.99397
0.121138
-0.00589207
-0.223385
-0.220624
-0.221757
-0.265245
-0.311946
0.879399
2.87156
2.98415
-0.21387
-0.17414
-0.196974
-0.203635
-0.204692
-0.24235
-0.283107
0.258248
1.16925
3.08686
-0.183004
-0.172722
-0.170023
-0.178003
-0.18722
-0.208178
-0.236758
-0.0738129
-0.237295
0.90016
414.076
413.93
413.764
413.643
413.558
413.512
413.477
413.446
413.363
413.339
413.983
413.782
413.582
413.445
413.364
413.332
413.31
413.272
413.15
413.099
413.752
413.461
413.204
413.047
412.984
412.975
412.963
412.913
412.695
412.555
413.266
412.864
412.519
412.303
412.263
412.304
412.359
412.305
411.81
411.489
412.238
411.713
411.294
411.034
411.094
411.264
411.423
411.412
410.764
407.252
409.473
408.987
408.646
408.482
408.822
409.305
409.741
409.966
409.724
408.817
403.474
403.363
403.494
403.871
404.861
405.675
406.657
407.621
408.177
408.941
274.17
283.454
289.244
303.111
335.715
362.432
381.467
388.252
390.186
391.786
38.2975
37.1487
36.2151
46.3116
66.2173
87.2805
105.931
120.755
123.702
119.993
1.05585
0.323752
-0.0101304
-0.142908
-0.273327
-0.458646
-0.716143
-0.846666
-0.697072
-0.477559
0.248384
-0.120056
-0.256071
-0.389838
-0.527621
-0.661116
-0.72867
-0.715799
-0.604935
-0.485772
-0.0741974
-0.13835
-0.346041
-0.437009
-0.511205
-0.564075
-0.567649
-0.543597
-0.504436
-0.418468
-0.362165
-0.368186
-0.390859
-0.414937
-0.425531
-0.416554
-0.401017
-0.38367
-0.377692
-0.314236
-0.354802
-0.414252
-0.415631
-0.382132
-0.352515
-0.320985
-0.314319
-0.276635
-0.275223
-0.215371
-0.257614
-0.345354
-0.354138
-0.311502
-0.273077
-0.265444
-0.258298
-0.220771
-0.204695
-0.0933497
0.56433
-0.252148
-0.272313
-0.244188
-0.213074
-0.244247
-0.243357
-0.22576
-0.17591
0.128305
1.08662
-0.178405
-0.225915
-0.17346
-0.16269
-0.238272
-0.2506
-0.263397
-0.134103
0.422317
0.188097
-0.122466
-0.196252
-0.0846509
-0.143805
-0.235075
-0.253734
-0.293315
-0.131979
0.785963
-0.0982619
-0.0137669
-0.129663
-0.108255
-0.155176
-0.219536
-0.243149
-0.287115
-0.160532
1.21614
-0.161823
-0.0870519
-0.132064
-0.163434
-0.173095
-0.193919
-0.215439
-0.258072
0.0922688
1.41853
414.384
414.167
413.911
413.692
413.497
413.337
413.206
413.104
412.996
412.929
414.375
414.073
413.769
413.519
413.309
413.141
413.012
412.902
412.764
412.67
414.233
413.808
413.427
413.143
412.931
412.759
412.609
412.467
412.27
412.141
413.871
413.278
412.835
412.473
412.225
412.015
411.862
411.696
411.441
411.367
412.862
412.119
411.647
411.242
411.032
410.857
410.7
410.503
410.238
410.151
410.947
410.025
409.481
408.884
408.635
408.556
408.512
408.484
408.564
408.685
405.11
404.764
404.656
404.333
404.455
404.377
404.41
404.903
405.479
406.163
255.503
267.085
279.318
290.414
312.378
337.03
355.393
367.731
373.032
379.315
23.9594
29.2316
36.6363
44.1034
51.7035
57.0817
66.2162
81.2351
94.5876
100.908
1.04208
0.545173
0.0624935
-0.170713
-0.249409
-0.336903
-0.491185
-0.64991
-0.651102
-0.499313
0.0489272
-0.116883
-0.245187
-0.393363
-0.506509