/*--------------------------------*- C++ -*----------------------------------*\
| =========                 |                                                 |
| \\      /  F ield         | OpenFOAM: The Open Source CFD Toolbox           |
|  \\    /   O peration     | Version:  2312                                  |
|   \\  /    A nd           | Website:  www.openfoam.com                      |
|    \\/     M anipulation  |                                                 |
\*---------------------------------------------------------------------------*/
FoamFile
{
    version     2.0;
    format      ascii;
    arch        "LSB;label=32;scalar=64";
    class       volScalarField;
    location    "0.09";
    object      p_rgh;
}
// * * * * * * * * * * * * * * * * * * * * * * * * * * * * * * * * * * * * * //

dimensions      [1 -1 -2 0 0 0 0];

internalField   nonuniform List<scalar> 
8000
(
392.291
392.291
392.291
392.291
392.292
392.292
392.292
392.292
392.293
392.293
392.291
392.291
392.291
392.291
392.291
392.292
392.292
392.292
392.293
392.293
392.29
392.29
392.29
392.291
392.291
392.292
392.292
392.292
392.292
392.293
392.289
392.29
392.29
392.29
392.291
392.291
392.292
392.292
392.292
392.293
392.288
392.289
392.289
392.29
392.29
392.291
392.291
392.292
392.292
392.292
392.287
392.287
392.288
392.288
392.289
392.29
392.291
392.291
392.292
392.292
392.285
392.286
392.286
392.287
392.288
392.289
392.29
392.291
392.292
392.292
392.282
392.283
392.283
392.285
392.286
392.287
392.289
392.29
392.291
392.291
0.276592
0.276943
0.277613
0.278543
0.279636
0.280789
0.281898
0.282821
0.283655
0.28401
0.273979
0.274438
0.275316
0.276531
0.277965
0.279479
0.280925
0.282157
0.283048
0.28351
0.272289
0.272802
0.273783
0.275142
0.276749
0.278451
0.280078
0.281469
0.282478
0.283002
0.269562
0.270159
0.2713
0.272883
0.274761
0.276756
0.27867
0.280309
0.281503
0.282124
0.265631
0.26634
0.267698
0.269588
0.271837
0.274234
0.276543
0.278528
0.279978
0.280736
0.260266
0.261116
0.262747
0.265022
0.267742
0.270651
0.273467
0.275898
0.277682
0.278619
0.253182
0.254196
0.256148
0.258881
0.262161
0.265689
0.269121
0.272098
0.274292
0.275451
0.244041
0.245236
0.247542
0.250785
0.254696
0.258928
0.263069
0.266684
0.269363
0.270785
0.232475
0.233853
0.236521
0.240289
0.244862
0.249844
0.254755
0.259073
0.262293
0.264014
0.218105
0.219648
0.222644
0.2269
0.232099
0.23781
0.243489
0.248525
0.252312
0.254355
0.200589
0.20225
0.205488
0.210115
0.215813
0.22213
0.228476
0.234161
0.23848
0.240836
0.179672
0.181372
0.184701
0.18949
0.195439
0.202103
0.208877
0.21502
0.219743
0.222356
392.291
392.291
392.291
392.291
392.292
392.292
392.292
392.293
392.293
392.293
392.291
392.291
392.291
392.291
392.292
392.292
392.292
392.292
392.293
392.293
392.29
392.29
392.291
392.291
392.291
392.292
392.292
392.292
392.293
392.293
392.29
392.29
392.29
392.29
392.291
392.291
392.292
392.292
392.293
392.293
392.289
392.289
392.289
392.29
392.29
392.291
392.292
392.292
392.292
392.293
392.287
392.288
392.288
392.289
392.29
392.29
392.291
392.292
392.292
392.293
392.286
392.286
392.287
392.287
392.288
392.289
392.29
392.291
392.292
392.292
392.283
392.283
392.284
392.285
392.287
392.288
392.289
392.291
392.291
392.292
0.276948
0.277303
0.277996
0.278958
0.280084
0.281268
0.282403
0.283373
0.28424
0.284625
0.274445
0.274918
0.275822
0.277073
0.278551
0.280113
0.281604
0.282875
0.283796
0.284272
0.272809
0.27334
0.274355
0.275761
0.277425
0.279188
0.280876
0.282318
0.283366
0.283908
0.270167
0.270787
0.271974
0.273622
0.27558
0.27766
0.279659
0.281373
0.282621
0.283269
0.26635
0.267091
0.268514
0.270496
0.272858
0.275379
0.277811
0.279904
0.281435
0.282235
0.261127
0.262022
0.263744
0.26615
0.26903
0.272119
0.275115
0.277706
0.279609
0.280609
0.254208
0.255286
0.257363
0.260279
0.263786
0.267571
0.271263
0.274475
0.276848
0.278099
0.24525
0.24653
0.249007
0.252499
0.256726
0.261318
0.265831
0.269786
0.272724
0.274283
0.233867
0.235356
0.238249
0.242349
0.247348
0.252824
0.258253
0.263052
0.266645
0.268565
0.219661
0.221344
0.224625
0.229305
0.23506
0.241425
0.247804
0.253502
0.257809
0.260134
0.202262
0.20409
0.207671
0.212817
0.219204
0.22635
0.233603
0.240166
0.245187
0.247928
0.181382
0.183269
0.186985
0.192369
0.199122
0.206775
0.214657
0.221899
0.227526
0.230648
392.291
392.291
392.291
392.292
392.292
392.292
392.293
392.293
392.293
392.293
392.291
392.291
392.291
392.291
392.292
392.292
392.292
392.293
392.293
392.293
392.29
392.291
392.291
392.291
392.292
392.292
392.292
392.293
392.293
392.293
392.29
392.29
392.29
392.291
392.291
392.292
392.292
392.293
392.293
392.293
392.289
392.289
392.29
392.29
392.291
392.291
392.292
392.293
392.293
392.293
392.288
392.288
392.289
392.289
392.29
392.291
392.292
392.292
392.293
392.293
392.286
392.287
392.287
392.288
392.289
392.29
392.291
392.292
392.293
392.293
392.283
392.284
392.285
392.286
392.288
392.289
392.291
392.292
392.293
392.293
0.277628
0.278003
0.278735
0.279752
0.280944
0.282199
0.283426
0.284482
0.285399
0.285841
0.275337
0.275836
0.276791
0.278112
0.279675
0.281327
0.282907
0.284254
0.285229
0.285734
0.273806
0.27437
0.27545
0.276947
0.278722
0.280604
0.282409
0.283953
0.285074
0.285653
0.271326
0.271991
0.273268
0.275043
0.277155
0.279403
0.281568
0.283426
0.28478
0.285478
0.267728
0.268534
0.270083
0.272245
0.274827
0.277591
0.280266
0.282573
0.284263
0.285149
0.26278
0.263766
0.265666
0.268328
0.271526
0.274968
0.27832
0.28123
0.283372
0.284498
0.256185
0.257389
0.259715
0.26299
0.26695
0.271245
0.275458
0.279142
0.281873
0.283314
0.247583
0.249034
0.25185
0.255839
0.260699
0.266016
0.271282
0.275928
0.279398
0.281239
0.236563
0.238278
0.24162
0.246387
0.252248
0.25873
0.265225
0.271022
0.275386
0.277721
0.222686
0.224654
0.228509
0.234053
0.240942
0.24866
0.256501
0.263597
0.269004
0.271927
0.205527
0.207698
0.211978
0.21819
0.226004
0.234891
0.244073
0.252528
0.259088
0.262655
0.184733
0.187008
0.191522
0.198141
0.206585
0.216352
0.226639
0.236309
0.243973
0.248262
392.291
392.291
392.292
392.292
392.292
392.292
392.293
392.293
392.293
392.293
392.291
392.291
392.291
392.292
392.292
392.292
392.293
392.293
392.293
392.293
392.291
392.291
392.291
392.292
392.292
392.292
392.293
392.293
392.293
392.293
392.29
392.29
392.291
392.291
392.292
392.292
392.293
392.293
392.293
392.294
392.29
392.29
392.29
392.291
392.291
392.292
392.293
392.293
392.294
392.294
392.288
392.289
392.289
392.29
392.291
392.292
392.293
392.293
392.294
392.294
392.287
392.287
392.288
392.289
392.29
392.291
392.293
392.294
392.294
392.295
392.285
392.285
392.286
392.287
392.289
392.291
392.292
392.294
392.294
392.295
0.278569
0.278975
0.279758
0.280848
0.28213
0.283511
0.284884
0.286139
0.287126
0.287608
0.276573
0.277108
0.278134
0.279554
0.281235
0.283015
0.284718
0.286172
0.287226
0.287769
0.275188
0.275799
0.27697
0.278597
0.280528
0.282579
0.284549
0.286236
0.287463
0.288096
0.272935
0.273666
0.275069
0.277024
0.279355
0.281844
0.284245
0.286312
0.28782
0.2886
0.269647
0.270546
0.272275
0.274694
0.277594
0.280708
0.283732
0.28635
0.288271
0.289272
0.26509
0.266207
0.268363
0.271395
0.275052
0.279011
0.282885
0.286262
0.288758
0.290065
0.258956
0.260342
0.26303
0.266831
0.271455
0.276504
0.281493
0.28588
0.289155
0.290879
0.250867
0.252569
0.255883
0.260607
0.266407
0.272815
0.279222
0.284921
0.289219
0.291499
0.240375
0.242423
0.246434
0.252201
0.259366
0.267389
0.275537
0.28291
0.288493
0.291498
0.226987
0.229382
0.234103
0.240961
0.249598
0.259431
0.269598
0.27896
0.286145
0.290092
0.210197
0.21289
0.218239
0.226101
0.236162
0.24784
0.260187
0.271816
0.281038
0.285928
0.189559
0.192432
0.198185
0.206755
0.217921
0.231174
0.245536
0.259429
0.270757
0.277253
392.292
392.292
392.292
392.292
392.292
392.293
392.293
392.293
392.294
392.294
392.291
392.292
392.292
392.292
392.292
392.293
392.293
392.293
392.294
392.294
392.291
392.291
392.292
392.292
392.292
392.293
392.293
392.294
392.294
392.294
392.291
392.291
392.291
392.292
392.292
392.293
392.293
392.294
392.294
392.294
392.29
392.29
392.291
392.291
392.292
392.293
392.293
392.294
392.294
392.295
392.289
392.29
392.29
392.291
392.292
392.293
392.294
392.294
392.295
392.295
392.288
392.288
392.289
392.29
392.291
392.293
392.294
392.295
392.296
392.296
392.286
392.287
392.288
392.289
392.291
392.293
392.294
392.295
392.296
392.297
0.279688
0.280127
0.280971
0.282145
0.283561
0.285126
0.286761
0.288209
0.289259
0.289798
0.278035
0.278614
0.279724
0.281263
0.283088
0.285021
0.286873
0.288456
0.289605
0.290195
0.276826
0.277494
0.278776
0.280559
0.282679
0.284936
0.287108
0.288971
0.290326
0.291025
0.274847
0.275658
0.277216
0.279391
0.281991
0.284774
0.287468
0.289792
0.29149
0.292368
0.271935
0.272947
0.274898
0.277635
0.280927
0.284478
0.287941
0.290949
0.293161
0.294311
0.267852
0.269131
0.271607
0.2751
0.279337
0.283947
0.288487
0.292465
0.295414
0.296955
0.262286
0.263901
0.267043
0.27151
0.276981
0.283002
0.289003
0.294324
0.298306
0.3004
0.254833
0.256853
0.260804
0.266472
0.273496
0.281337
0.28927
0.296412
0.301823
0.304693
0.245008
0.247486
0.252364
0.25944
0.268334
0.278434
0.288848
0.298415
0.305774
0.309725
0.23225
0.235204
0.241067
0.24968
0.260693
0.273458
0.286916
0.299613
0.30958
0.315018
0.215958
0.219345
0.226132
0.23625
0.249446
0.265118
0.282151
0.298611
0.311953
0.319363
0.195563
0.199247
0.206705
0.218009
0.233098
0.251546
0.272192
0.292809
0.310216
0.320216
392.292
392.292
392.292
392.293
392.293
392.293
392.294
392.294
392.294
392.294
392.292
392.292
392.292
392.292
392.293
392.293
392.294
392.294
392.294
392.294
392.292
392.292
392.292
392.292
392.293
392.293
392.294
392.294
392.294
392.294
392.291
392.291
392.292
392.292
392.293
392.293
392.294
392.294
392.295
392.295
392.291
392.291
392.291
392.292
392.293
392.294
392.294
392.295
392.295
392.296
392.29
392.29
392.291
392.292
392.293
392.294
392.295
392.296
392.296
392.296
392.289
392.29
392.29
392.291
392.293
392.294
392.295
392.297
392.297
392.298
392.288
392.288
392.289
392.291
392.293
392.294
392.296
392.297
392.298
392.299
0.280871
0.281344
0.282256
0.283552
0.28515
0.287012
0.288846
0.290413
0.291549
0.292132
0.279582
0.280209
0.281411
0.283078
0.285056
0.287155
0.289169
0.290893
0.292145
0.292788
0.278563
0.279293
0.280695
0.282648
0.284975
0.287456
0.289849
0.291905
0.293403
0.294174
0.276881
0.277778
0.279506
0.281922
0.284818
0.287928
0.290947
0.293557
0.295468
0.296456
0.274376
0.275513
0.27771
0.2808
0.284531
0.288572
0.292529
0.29598
0.298524
0.299844
0.270813
0.272273
0.275106
0.279119
0.284011
0.289366
0.294671
0.299347
0.302825
0.304641
0.265872
0.267747
0.271404
0.276633
0.28308
0.290236
0.297427
0.303856
0.308695
0.31124
0.259131
0.261516
0.2662
0.272967
0.281432
0.29099
0.300776
0.309685
0.316494
0.320111
0.250064
0.253042
0.258939
0.267571
0.278552
0.291216
0.304498
0.316876
0.326531
0.331733
0.23804
0.241657
0.24889
0.25964
0.273601
0.290104
0.307961
0.325099
0.338836
0.346387
0.222355
0.226584
0.235134
0.248072
0.265284
0.286171
0.309756
0.333182
0.35265
0.363653
0.2023
0.206989
0.216589
0.231418
0.251736
0.277458
0.307125
0.33826
0.365403
0.381362
392.292
392.292
392.293
392.293
392.293
392.294
392.294
392.294
392.294
392.294
392.292
392.292
392.293
392.293
392.293
392.294
392.294
392.294
392.295
392.295
392.292
392.292
392.292
392.293
392.293
392.294
392.294
392.295
392.295
392.295
392.292
392.292
392.292
392.293
392.293
392.294
392.295
392.295
392.295
392.296
392.291
392.292
392.292
392.293
392.294
392.294
392.295
392.296
392.296
392.296
392.291
392.291
392.292
392.293
392.294
392.295
392.296
392.297
392.297
392.298
392.29
392.291
392.291
392.293
392.294
392.295
392.297
392.298
392.299
392.299
392.289
392.29
392.291
392.292
392.294
392.296
392.298
392.299
392.3
392.301
0.282003
0.282509
0.283517
0.284962
0.286831
0.288884
0.290852
0.292535
0.293755
0.294381
0.281064
0.281737
0.283027
0.284819
0.286947
0.289209
0.291383
0.293246
0.294599
0.295293
0.280229
0.28102
0.28254
0.28466
0.28719
0.289894
0.292505
0.294753
0.296393
0.297237
0.278837
0.27982
0.281716
0.284372
0.287563
0.291
0.294344
0.297244
0.29937
0.300469
0.276733
0.277995
0.280437
0.283882
0.288056
0.292594
0.297057
0.300963
0.30385
0.305348
0.273684
0.275327
0.278521
0.283063
0.288628
0.294754
0.300857
0.306267
0.310306
0.312417
0.269368
0.271507
0.275695
0.28171
0.28918
0.297535
0.306002
0.313632
0.319408
0.322452
0.263347
0.26611
0.271559
0.279485
0.289495
0.300919
0.312751
0.323647
0.332052
0.336534
0.25506
0.258567
0.265549
0.275863
0.289138
0.30469
0.321253
0.336944
0.349361
0.356093
0.243811
0.248143
0.256867
0.269984
0.287283
0.308216
0.331297
0.353975
0.372546
0.382866
0.228795
0.233951
0.244469
0.260627
0.282582
0.310085
0.341795
0.37444
0.402424
0.418539
0.209161
0.214984
0.227042
0.246023
0.272724
0.307546
0.349829
0.396017
0.43807
0.463562
392.292
392.293
392.293
392.293
392.293
392.294
392.294
392.294
392.295
392.295
392.292
392.293
392.293
392.293
392.294
392.294
392.294
392.295
392.295
392.295
392.292
392.292
392.293
392.293
392.294
392.294
392.295
392.295
392.295
392.295
392.292
392.292
392.293
392.293
392.294
392.294
392.295
392.296
392.296
392.296
392.292
392.292
392.293
392.293
392.294
392.295
392.296
392.296
392.297
392.297
392.292
392.292
392.293
392.293
392.295
392.296
392.297
392.298
392.298
392.299
392.291
392.291
392.292
392.294
392.295
392.297
392.298
392.299
392.3
392.301
392.29
392.291
392.292
392.294
392.295
392.297
392.299
392.301
392.302
392.303
0.282977
0.283541
0.284641
0.286271
0.288318
0.290491
0.292576
0.294359
0.295651
0.296314
0.282332
0.283045
0.284412
0.286312
0.288571
0.290976
0.293289
0.295273
0.296713
0.297453
0.281657
0.282502
0.284125
0.286391
0.2891
0.291999
0.294804
0.297221
0.298985
0.299894
0.280519
0.281578
0.283621
0.28649
0.289943
0.29367
0.297306
0.300464
0.302784
0.303984
0.278765
0.280139
0.2828
0.286561
0.291133
0.296121
0.301043
0.305364
0.308565
0.310229
0.276171
0.277977
0.281497
0.286518
0.292696
0.29953
0.306374
0.312469
0.317037
0.319426
0.27241
0.27479
0.27946
0.286195
0.294619
0.304101
0.313781
0.322566
0.329255
0.332786
0.267037
0.270149
0.276307
0.285299
0.296796
0.310019
0.323859
0.336742
0.346769
0.352135
0.259464
0.263466
0.271477
0.283422
0.298927
0.31734
0.337253
0.356421
0.371805
0.380204
0.248942
0.253957
0.264121
0.27957
0.300276
0.32574
0.354428
0.383281
0.407436
0.421026
0.234578
0.240638
0.253105
0.272525
0.29945
0.334054
0.375099
0.418799
0.45754
0.480355
0.215395
0.222351
0.23691
0.260239
0.293844
0.339418
0.396963
0.462829
0.525887
0.565613
392.293
392.293
392.293
392.293
392.294
392.294
392.294
392.295
392.295
392.295
392.293
392.293
392.293
392.293
392.294
392.294
392.295
392.295
392.295
392.295
392.293
392.293
392.293
392.293
392.294
392.294
392.295
392.295
392.296
392.296
392.292
392.293
392.293
392.294
392.294
392.295
392.295
392.296
392.296
392.297
392.292
392.293
392.293
392.294
392.295
392.295
392.296
392.297
392.297
392.298
392.292
392.292
392.293
392.294
392.295
392.296
392.297
392.298
392.299
392.299
392.292
392.292
392.293
392.294
392.296
392.297
392.299
392.3
392.301
392.302
392.291
392.292
392.293
392.295
392.296
392.298
392.3
392.302
392.303
392.304
0.283727
0.284318
0.285502
0.287277
0.289406
0.291667
0.293837
0.295693
0.297038
0.297726
0.283258
0.284001
0.285424
0.287404
0.28976
0.292271
0.294687
0.296759
0.298264
0.299036
0.282703
0.283587
0.285287
0.287661
0.290502
0.293547
0.296496
0.299039
0.300895
0.30185
0.281752
0.282868
0.285021
0.288048
0.291698
0.295643
0.299498
0.302853
0.305318
0.306592
0.28026
0.281717
0.284541
0.288544
0.293416
0.298746
0.304018
0.308658
0.312101
0.31389
0.278005
0.279937
0.283706
0.289092
0.295738
0.303118
0.310537
0.317169
0.322153
0.324759
0.274663
0.277229
0.282272
0.289572
0.298729
0.309094
0.319737
0.329452
0.336881
0.340805
0.269784
0.273167
0.27988
0.289746
0.302387
0.317053
0.332536
0.347072
0.35847
0.364584
0.262762
0.267152
0.275969
0.289173
0.306533
0.327327
0.350086
0.372283
0.390317
0.400219
0.252812
0.258371
0.269688
0.287013
0.310593
0.339968
0.373649
0.408209
0.437724
0.454535
0.238979
0.245773
0.259844
0.282014
0.313268
0.354247
0.404107
0.458819
0.508915
0.539131
0.220189
0.228089
0.244773
0.271927
0.311889
0.367617
0.440624
0.528022
0.616088
0.674018
392.293
392.293
392.293
392.293
392.294
392.294
392.295
392.295
392.295
392.295
392.293
392.293
392.293
392.293
392.294
392.294
392.295
392.295
392.295
392.295
392.293
392.293
392.293
392.294
392.294
392.295
392.295
392.295
392.296
392.296
392.293
392.293
392.293
392.294
392.294
392.295
392.296
392.296
392.297
392.297
392.292
392.293
392.293
392.294
392.295
392.296
392.296
392.297
392.298
392.298
392.292
392.293
392.293
392.294
392.295
392.297
392.298
392.299
392.299
392.3
392.292
392.292
392.293
392.295
392.296
392.298
392.299
392.301
392.302
392.302
392.291
392.292
392.293
392.295
392.297
392.299
392.301
392.303
392.304
392.305
0.284127
0.284735
0.285981
0.287809
0.289981
0.292288
0.294502
0.296396
0.297768
0.298468
0.283749
0.284507
0.28596
0.287982
0.290389
0.292955
0.295425
0.297544
0.299082
0.299869
0.283257
0.284162
0.285901
0.288334
0.291245
0.294366
0.297391
0.300001
0.301906
0.302884
0.282407
0.283552
0.285762
0.288875
0.292629
0.29669
0.300662
0.304121
0.306664
0.307976
0.281055
0.282555
0.285461
0.289597
0.294632
0.300144
0.305604
0.310417
0.31399
0.315844
0.278983
0.280983
0.284892
0.290468
0.297366
0.30504
0.312772
0.319697
0.324909
0.327631
0.275868
0.278534
0.28378
0.291384
0.300941
0.31179
0.322965
0.333197
0.341041
0.345181
0.271258
0.274788
0.281804
0.292142
0.305421
0.320893
0.337302
0.352781
0.364969
0.371512
0.264539
0.269143
0.278406
0.292327
0.310713
0.332863
0.357272
0.381256
0.400883
0.411693
0.254908
0.260769
0.272735
0.29115
0.316353
0.348023
0.384706
0.4228
0.455741
0.474648
0.241379
0.248587
0.26356
0.287249
0.321137
0.366009
0.421441
0.483436
0.541446
0.577045
0.222828
0.23127
0.249194
0.278649
0.322488
0.384711
0.468141
0.571057
0.678621
0.751926
392.293
392.293
392.293
392.293
392.294
392.294
392.295
392.295
392.295
392.295
392.293
392.293
392.293
392.293
392.294
392.294
392.295
392.295
392.295
392.295
392.293
392.293
392.293
392.294
392.294
392.295
392.295
392.295
392.296
392.296
392.293
392.293
392.293
392.294
392.294
392.295
392.296
392.296
392.297
392.297
392.292
392.293
392.293
392.294
392.295
392.296
392.296
392.297
392.298
392.298
392.292
392.293
392.293
392.294
392.295
392.297
392.298
392.299
392.299
392.3
392.292
392.292
392.293
392.295
392.296
392.298
392.299
392.301
392.302
392.302
392.291
392.292
392.293
392.295
392.297
392.299
392.301
392.303
392.304
392.305
0.284129
0.284737
0.285984
0.287811
0.289982
0.292288
0.294501
0.296393
0.297764
0.298463
0.283753
0.284511
0.285964
0.287984
0.29039
0.292954
0.295422
0.29754
0.299078
0.299864
0.283262
0.284167
0.285905
0.288336
0.291246
0.294365
0.297387
0.299995
0.3019
0.302877
0.282413
0.283558
0.285766
0.288878
0.292629
0.296687
0.300655
0.304111
0.306653
0.307963
0.281063
0.282562
0.285466
0.289599
0.29463
0.300137
0.305592
0.310399
0.313969
0.31582
0.278994
0.280992
0.284898
0.290469
0.29736
0.305027
0.31275
0.319667
0.32487
0.327587
0.275881
0.278545
0.283787
0.291384
0.300932
0.311769
0.322929
0.333143
0.340971
0.345101
0.271275
0.274803
0.281813
0.292142
0.305407
0.32086
0.337242
0.352688
0.364844
0.371361
0.264562
0.269162
0.278418
0.292326
0.310691
0.332809
0.357172
0.381094
0.400649
0.411394
0.254939
0.260796
0.272753
0.291151
0.316323
0.347938
0.384539
0.422507
0.45528
0.474012
0.241422
0.248625
0.263588
0.287256
0.3211
0.365887
0.421166
0.482892
0.540477
0.575564
0.222887
0.231325
0.249238
0.278668
0.322451
0.38455
0.467707
0.570042
0.676488
0.748164
392.293
392.293
392.293
392.293
392.294
392.294
392.294
392.295
392.295
392.295
392.293
392.293
392.293
392.293
392.294
392.294
392.295
392.295
392.295
392.295
392.293
392.293
392.293
392.293
392.294
392.294
392.295
392.295
392.296
392.296
392.292
392.293
392.293
392.294
392.294
392.295
392.295
392.296
392.296
392.296
392.292
392.293
392.293
392.294
392.295
392.295
392.296
392.297
392.297
392.298
392.292
392.292
392.293
392.294
392.295
392.296
392.297
392.298
392.299
392.299
392.292
392.292
392.293
392.294
392.296
392.297
392.299
392.3
392.301
392.302
392.291
392.292
392.293
392.295
392.296
392.298
392.3
392.302
392.303
392.304
0.283734
0.284323
0.285507
0.287284
0.28941
0.291667
0.293833
0.295684
0.297026
0.297711
0.283271
0.284013
0.285435
0.287412
0.289765
0.29227
0.294681
0.296748
0.29825
0.299019
0.282719
0.283601
0.285299
0.28767
0.290506
0.293544
0.296485
0.299023
0.300875
0.301827
0.281771
0.282885
0.285035
0.288057
0.291698
0.295634
0.299479
0.302825
0.305285
0.306554
0.280284
0.281738
0.284557
0.288551
0.293411
0.298727
0.303984
0.308611
0.312043
0.313823
0.278036
0.279963
0.283724
0.289098
0.295726
0.303084
0.31048
0.317087
0.322048
0.324637
0.274703
0.277263
0.282295
0.289576
0.298707
0.309039
0.319642
0.329311
0.336698
0.340588
0.269836
0.273212
0.27991
0.28975
0.302352
0.316966
0.332379
0.346832
0.358148
0.364192
0.262832
0.267213
0.276009
0.289178
0.306482
0.327192
0.349831
0.371873
0.389737
0.399491
0.252906
0.258454
0.269746
0.287026
0.310525
0.339767
0.373239
0.407501
0.436647
0.453113
0.239107
0.24589
0.259931
0.282042
0.313189
0.353965
0.403469
0.457601
0.506874
0.536211
0.220364
0.228254
0.244911
0.272005
0.31183
0.36727
0.439699
0.525995
0.612223
0.667882
392.292
392.293
392.293
392.293
392.293
392.294
392.294
392.294
392.295
392.295
392.292
392.293
392.293
392.293
392.294
392.294
392.294
392.295
392.295
392.295
392.292
392.292
392.293
392.293
392.294
392.294
392.295
392.295
392.295
392.295
392.292
392.292
392.293
392.293
392.294
392.294
392.295
392.296
392.296
392.296
392.292
392.292
392.293
392.293
392.294
392.295
392.296
392.296
392.297
392.297
392.292
392.292
392.293
392.293
392.295
392.296
392.297
392.298
392.298
392.299
392.291
392.292
392.292
392.294
392.295
392.297
392.298
392.299
392.3
392.301
392.29
392.291
392.292
392.294
392.295
392.297
392.299
392.301
392.302
392.303
0.282988
0.283548
0.284647
0.286284
0.288325
0.290492
0.29257
0.294346
0.295633
0.296292
0.282354
0.283065
0.28443
0.286326
0.288579
0.290976
0.293281
0.295257
0.296692
0.297428
0.281683
0.282526
0.284146
0.286406
0.289106
0.291996
0.29479
0.297198
0.298955
0.299859
0.280551
0.281608
0.283646
0.286505
0.289946
0.293659
0.297281
0.300427
0.302736
0.303929
0.278806
0.280175
0.282827
0.286576
0.291131
0.296098
0.300999
0.3053
0.308483
0.310135
0.276222
0.278023
0.281531
0.286533
0.292685
0.299489
0.306298
0.312358
0.316894
0.31926
0.272476
0.274849
0.279503
0.286211
0.294598
0.304032
0.313655
0.322378
0.329011
0.332497
0.267126
0.270227
0.276362
0.285317
0.296761
0.30991
0.323657
0.336431
0.346353
0.351633
0.259583
0.263572
0.271553
0.283448
0.298877
0.317177
0.336936
0.355912
0.371092
0.379324
0.249101
0.254101
0.264229
0.279615
0.300216
0.32551
0.353943
0.38245
0.406201
0.419443
0.234793
0.240836
0.253265
0.27261
0.299396
0.333754
0.374391
0.417472
0.455407
0.477439
0.215684
0.222627
0.237153
0.260404
0.293846
0.339092
0.396024
0.460834
0.522316
0.560302
392.292
392.292
392.293
392.293
392.293
392.294
392.294
392.294
392.294
392.294
392.292
392.292
392.292
392.293
392.293
392.294
392.294
392.294
392.295
392.295
392.292
392.292
392.292
392.293
392.293
392.294
392.294
392.295
392.295
392.295
392.292
392.292
392.292
392.293
392.293
392.294
392.295
392.295
392.295
392.296
392.291
392.292
392.292
392.293
392.294
392.294
392.295
392.296
392.296
392.296
392.291
392.291
392.292
392.293
392.294
392.295
392.296
392.297
392.297
392.298
392.29
392.291
392.291
392.293
392.294
392.295
392.297
392.298
392.299
392.299
392.289
392.29
392.291
392.292
392.294
392.296
392.298
392.299
392.3
392.301
0.282013
0.282515
0.283524
0.284968
0.286842
0.288888
0.290848
0.292523
0.293736
0.294358
0.281095
0.281766
0.283053
0.284839
0.286959
0.289212
0.291377
0.29323
0.294576
0.295267
0.280265
0.281055
0.28257
0.284682
0.287202
0.289894
0.292493
0.29473
0.29636
0.2972
0.278882
0.279863
0.281751
0.284396
0.287573
0.290994
0.294321
0.297205
0.299319
0.300411
0.27679
0.278047
0.280479
0.283908
0.288062
0.292577
0.297015
0.300896
0.303763
0.30525
0.273757
0.275393
0.278573
0.283094
0.288629
0.294719
0.300783
0.306153
0.310158
0.312246
0.269463
0.271594
0.275762
0.281746
0.289174
0.297476
0.30588
0.313443
0.319159
0.322162
0.263474
0.266225
0.271648
0.279531
0.289482
0.300826
0.312559
0.323344
0.331643
0.336046
0.255229
0.25872
0.26567
0.275929
0.289123
0.304558
0.320966
0.336472
0.348699
0.355285
0.244036
0.248351
0.257037
0.270088
0.287279
0.308044
0.330884
0.353253
0.371484
0.381527
0.229096
0.234234
0.244714
0.260796
0.28261
0.30989
0.341239
0.373376
0.400748
0.416316
0.209561
0.215371
0.227396
0.246303
0.272856
0.307388
0.349173
0.394575
0.435565
0.459994
392.292
392.292
392.292
392.292
392.293
392.293
392.294
392.294
392.294
392.294
392.292
392.292
392.292
392.292
392.293
392.293
392.294
392.294
392.294
392.294
392.292
392.292
392.292
392.292
392.293
392.293
392.294
392.294
392.294
392.294
392.291
392.291
392.292
392.292
392.293
392.293
392.294
392.294
392.295
392.295
392.291
392.291
392.291
392.292
392.293
392.294
392.294
392.295
392.295
392.296
392.29
392.29
392.291
392.292
392.293
392.294
392.295
392.296
392.296
392.296
392.289
392.29
392.29
392.291
392.293
392.294
392.295
392.297
392.297
392.298
392.288
392.288
392.289
392.291
392.293
392.294
392.296
392.297
392.298
392.299
0.280886
0.281353
0.282261
0.283554
0.285155
0.28702
0.288846
0.290404
0.291534
0.292114
0.279623
0.280247
0.281444
0.283104
0.285074
0.287163
0.289167
0.290881
0.292126
0.292765
0.27861
0.279338
0.280734
0.282678
0.284994
0.287463
0.289843
0.291887
0.293375
0.294142
0.27694
0.277834
0.279553
0.281958
0.284839
0.287932
0.290932
0.293526
0.295424
0.296405
0.274451
0.275582
0.277768
0.280842
0.284552
0.288569
0.2925
0.295925
0.298448
0.299758
0.27091
0.272362
0.27518
0.27917
0.284032
0.289352
0.294617
0.299253
0.302698
0.304495
0.265998
0.267863
0.2715
0.276698
0.283102
0.290206
0.297337
0.303704
0.308487
0.310999
0.259298
0.26167
0.266328
0.273054
0.281461
0.290943
0.300638
0.309449
0.316167
0.319723
0.250284
0.253247
0.259112
0.267692
0.278598
0.291156
0.304303
0.316528
0.326032
0.331124
0.238331
0.241933
0.24913
0.259818
0.273683
0.290046
0.307705
0.324604
0.338091
0.345451
0.22274
0.226953
0.235468
0.24834
0.265439
0.286148
0.309454
0.332519
0.35158
0.362245
0.202803
0.207482
0.217055
0.231824
0.252022
0.277522
0.306852
0.337477
0.363989
0.379371
392.292
392.292
392.292
392.292
392.292
392.293
392.293
392.293
392.294
392.294
392.291
392.292
392.292
392.292
392.292
392.293
392.293
392.293
392.294
392.294
392.291
392.291
392.292
392.292
392.292
392.293
392.293
392.294
392.294
392.294
392.291
392.291
392.291
392.292
392.292
392.293
392.293
392.294
392.294
392.294
392.29
392.29
392.291
392.291
392.292
392.293
392.293
392.294
392.294
392.295
392.289
392.29
392.29
392.291
392.292
392.293
392.294
392.294
392.295
392.295
392.288
392.288
392.289
392.29
392.291
392.293
392.294
392.295
392.296
392.296
392.286
392.287
392.288
392.289
392.291
392.293
392.294
392.295
392.296
392.297
0.279707
0.280139
0.280977
0.282145
0.283557
0.285125
0.286766
0.288205
0.289249
0.289786
0.278085
0.278661
0.279766
0.281297
0.283112
0.285036
0.286878
0.288451
0.289592
0.290179
0.276885
0.27755
0.278825
0.280598
0.282708
0.284952
0.287111
0.288962
0.290308
0.291001
0.27492
0.275727
0.277276
0.279439
0.282024
0.284791
0.287467
0.289775
0.291459
0.292332
0.272027
0.273033
0.274973
0.277694
0.280967
0.284494
0.287933
0.290916
0.293109
0.294248
0.267972
0.269243
0.271704
0.275176
0.279384
0.283961
0.288464
0.292407
0.295327
0.296851
0.262441
0.264047
0.267171
0.271609
0.277041
0.283015
0.288962
0.29423
0.298167
0.300235
0.255038
0.257047
0.260974
0.266605
0.273577
0.281353
0.289209
0.296271
0.301613
0.304438
0.245279
0.247743
0.252593
0.259623
0.268452
0.278466
0.288773
0.298223
0.30547
0.309343
0.232605
0.235544
0.241377
0.249939
0.260874
0.273529
0.286844
0.299369
0.309167
0.314479
0.216421
0.219795
0.226553
0.236619
0.24973
0.265269
0.282109
0.298339
0.311431
0.318648
0.196158
0.199834
0.207272
0.218535
0.233542
0.251848
0.27228
0.292596
0.309658
0.319369
392.291
392.291
392.292
392.292
392.292
392.292
392.293
392.293
392.293
392.293
392.291
392.291
392.291
392.292
392.292
392.292
392.293
392.293
392.293
392.293
392.291
392.291
392.291
392.292
392.292
392.292
392.293
392.293
392.293
392.293
392.29
392.29
392.291
392.291
392.292
392.292
392.293
392.293
392.293
392.294
392.29
392.29
392.29
392.291
392.291
392.292
392.293
392.293
392.294
392.294
392.288
392.289
392.289
392.29
392.291
392.292
392.293
392.293
392.294
392.294
392.287
392.287
392.288
392.289
392.29
392.291
392.293
392.294
392.294
392.295
392.285
392.285
392.286
392.287
392.289
392.291
392.292
392.293
392.294
392.295
0.278593
0.278992
0.279768
0.280848
0.282123
0.283498
0.284869
0.286141
0.287108
0.2876
0.276633
0.277165
0.278183
0.279595
0.281267
0.283038
0.284731
0.286175
0.287221
0.287759
0.275258
0.275866
0.277029
0.278646
0.280566
0.282605
0.284563
0.286239
0.287456
0.288084
0.273022
0.273748
0.275142
0.277085
0.279402
0.281875
0.28426
0.286311
0.287807
0.288582
0.269756
0.270649
0.272367
0.274771
0.277652
0.280746
0.283747
0.286343
0.288247
0.289239
0.26523
0.266339
0.268482
0.271494
0.275128
0.279057
0.282899
0.286245
0.288717
0.290009
0.259139
0.260517
0.263188
0.266964
0.271554
0.276564
0.281508
0.285851
0.28909
0.290792
0.251108
0.2528
0.256094
0.260786
0.266543
0.272897
0.279243
0.284877
0.289126
0.291371
0.240692
0.242728
0.246716
0.252445
0.259557
0.267513
0.275582
0.282875
0.288377
0.291327
0.227399
0.229781
0.234478
0.241295
0.249873
0.259625
0.269692
0.278942
0.286024
0.289892
0.210728
0.21341
0.218737
0.226561
0.236561
0.24815
0.260376
0.271862
0.280933
0.285733
0.190231
0.193099
0.19884
0.207383
0.218499
0.231667
0.245904
0.259632
0.270784
0.277144
392.291
392.291
392.291
392.292
392.292
392.292
392.292
392.293
392.293
392.293
392.291
392.291
392.291
392.291
392.292
392.292
392.292
392.293
392.293