/*--------------------------------*- C++ -*----------------------------------*\
| =========                 |                                                 |
| \\      /  F ield         | OpenFOAM: The Open Source CFD Toolbox           |
|  \\    /   O peration     | Version:  2312                                  |
|   \\  /    A nd           | Website:  www.openfoam.com                      |
|    \\/     M anipulation  |                                                 |
\*---------------------------------------------------------------------------*/
FoamFile
{
    version     2.0;
    format      ascii;
    arch        "LSB;label=32;scalar=64";
    class       volVectorField;
    location    "0.09";
    object      U;
}
// * * * * * * * * * * * * * * * * * * * * * * * * * * * * * * * * * * * * * //

dimensions      [0 1 -1 0 0 0 0];

internalField   nonuniform List<vector> 
8000
(
(-6.58323e-08 1.31776e-07 -6.48504e-08)
(-1.8623e-07 1.22286e-07 -6.48963e-08)
(-2.82513e-07 1.12361e-07 -6.56949e-08)
(-3.54549e-07 9.72141e-08 -6.74502e-08)
(-3.90573e-07 7.93993e-08 -6.93281e-08)
(-3.87619e-07 6.07777e-08 -7.12713e-08)
(-3.46887e-07 4.34732e-08 -7.29562e-08)
(-2.70736e-07 2.92621e-08 -7.38186e-08)
(-1.66553e-07 1.92661e-08 -7.5139e-08)
(-4.37564e-08 1.27937e-08 -7.5972e-08)
(-6.78503e-08 4.02069e-07 -6.78805e-08)
(-1.96042e-07 3.76979e-07 -6.83331e-08)
(-3.01881e-07 3.45572e-07 -6.93753e-08)
(-3.79481e-07 2.99971e-07 -7.15114e-08)
(-4.19235e-07 2.45741e-07 -7.3935e-08)
(-4.17219e-07 1.88692e-07 -7.63263e-08)
(-3.74046e-07 1.35111e-07 -7.8448e-08)
(-2.93039e-07 9.00375e-08 -7.94395e-08)
(-1.79311e-07 5.69279e-08 -8.10429e-08)
(-5.14426e-08 3.98943e-08 -8.34523e-08)
(-7.77675e-08 6.99024e-07 -7.7785e-08)
(-2.27606e-07 6.60484e-07 -7.8441e-08)
(-3.53832e-07 6.04517e-07 -7.9882e-08)
(-4.45111e-07 5.2588e-07 -8.27659e-08)
(-4.92498e-07 4.32629e-07 -8.57987e-08)
(-4.90399e-07 3.34567e-07 -8.90383e-08)
(-4.39982e-07 2.41749e-07 -9.22423e-08)
(-3.45793e-07 1.61782e-07 -9.39454e-08)
(-2.10018e-07 1.04656e-07 -9.76025e-08)
(-6.44958e-08 8.20075e-08 -1.02556e-07)
(-9.49534e-08 1.05289e-06 -9.51347e-08)
(-2.80038e-07 1.00044e-06 -9.60778e-08)
(-4.37483e-07 9.1506e-07 -9.83966e-08)
(-5.50739e-07 7.9541e-07 -1.02349e-07)
(-6.09687e-07 6.54744e-07 -1.06376e-07)
(-6.07338e-07 5.06263e-07 -1.11077e-07)
(-5.46319e-07 3.66137e-07 -1.15913e-07)
(-4.2915e-07 2.4479e-07 -1.19104e-07)
(-2.62949e-07 1.57594e-07 -1.26562e-07)
(-8.19971e-08 1.36703e-07 -1.32126e-07)
(-1.21992e-07 1.49948e-06 -1.22482e-07)
(-3.58508e-07 1.43155e-06 -1.23737e-07)
(-5.5946e-07 1.31101e-06 -1.27201e-07)
(-7.04563e-07 1.14358e-06 -1.32306e-07)
(-7.80542e-07 9.46541e-07 -1.38299e-07)
(-7.77848e-07 7.3731e-07 -1.44949e-07)
(-6.99943e-07 5.42002e-07 -1.52056e-07)
(-5.50605e-07 3.64085e-07 -1.56999e-07)
(-3.37983e-07 2.52723e-07 -1.67561e-07)
(-1.11458e-07 2.19299e-07 -1.75449e-07)
(-1.60364e-07 2.03808e-06 -1.61938e-07)
(-4.67352e-07 1.94848e-06 -1.63442e-07)
(-7.25719e-07 1.78492e-06 -1.68202e-07)
(-9.14139e-07 1.55766e-06 -1.7506e-07)
(-1.01459e-06 1.28948e-06 -1.8302e-07)
(-1.0104e-06 1.00569e-06 -1.92207e-07)
(-9.16899e-07 7.42289e-07 -2.01495e-07)
(-7.10362e-07 5.07175e-07 -2.09539e-07)
(-4.42041e-07 3.58254e-07 -2.22989e-07)
(-1.59993e-07 3.22497e-07 -2.28948e-07)
(-2.15766e-07 3.13722e-06 -2.17997e-07)
(-6.15752e-07 3.00428e-06 -2.18336e-07)
(-9.50233e-07 2.75897e-06 -2.25418e-07)
(-1.19905e-06 2.41795e-06 -2.34857e-07)
(-1.33126e-06 2.0136e-06 -2.46338e-07)
(-1.32377e-06 1.57714e-06 -2.58832e-07)
(-1.19599e-06 1.18726e-06 -2.73316e-07)
(-9.25823e-07 8.00115e-07 -2.8775e-07)
(-5.53943e-07 6.32837e-07 -3.04186e-07)
(-2.52262e-07 5.22573e-07 -3.04951e-07)
(-3.08343e-07 1.64735e-06 -3.15161e-07)
(-9.13849e-07 1.54e-06 -3.28383e-07)
(-1.43841e-06 1.4181e-06 -3.40186e-07)
(-1.81542e-06 1.24314e-06 -3.5766e-07)
(-2.02207e-06 1.03305e-06 -3.77296e-07)
(-2.00693e-06 8.02279e-07 -3.96881e-07)
(-1.84546e-06 6.01222e-07 -4.14197e-07)
(-1.46921e-06 4.00153e-07 -4.19444e-07)
(-1.01636e-06 4.07838e-07 -4.16213e-07)
(-1.78771e-07 4.00529e-07 -4.25977e-07)
(-0.000243373 0.000207664 -0.00024826)
(-0.000712428 0.000200996 -0.000255843)
(-0.00111391 0.000187572 -0.000265908)
(-0.00140789 0.000168741 -0.000279736)
(-0.00156464 0.000146285 -0.000296171)
(-0.0015673 0.000122194 -0.000313656)
(-0.00141658 9.89259e-05 -0.000330093)
(-0.00112731 7.9102e-05 -0.000343375)
(-0.000716208 6.24781e-05 -0.000352679)
(-0.000229428 5.48183e-05 -0.000358083)
(-0.000297859 0.00161494 -0.000303859)
(-0.000873783 0.00156882 -0.000313086)
(-0.00136336 0.00145505 -0.000325476)
(-0.00172256 0.00129535 -0.000342817)
(-0.00191403 0.00110658 -0.000363445)
(-0.00191758 0.000904595 -0.000385505)
(-0.00173005 0.000714944 -0.000406966)
(-0.00136551 0.000543913 -0.000425926)
(-0.00086697 0.000407207 -0.000439704)
(-0.0002828 0.000348414 -0.000445469)
(-0.000338241 0.00288033 -0.000344658)
(-0.000991756 0.00279606 -0.000356313)
(-0.00154898 0.00259598 -0.000372513)
(-0.00195907 0.00231718 -0.000395161)
(-0.0021794 0.00198521 -0.00042232)
(-0.00218615 0.0016311 -0.000451463)
(-0.00197452 0.00129008 -0.000479728)
(-0.0015634 0.000995595 -0.000504667)
(-0.000995748 0.000777326 -0.000522435)
(-0.0003231 0.000663974 -0.000531458)
(-0.000401361 0.00437791 -0.000408447)
(-0.00117825 0.00425495 -0.000424125)
(-0.00184259 0.00395954 -0.000446714)
(-0.00233381 0.00354757 -0.00047848)
(-0.00260066 0.00305599 -0.000516772)
(-0.00261337 0.00253056 -0.000558097)
(-0.00236589 0.002023 -0.000598382)
(-0.00187836 0.00158391 -0.000633392)
(-0.001199 0.00126106 -0.000658908)
(-0.000394298 0.00109101 -0.000671816)
(-0.000490373 0.00618265 -0.000498352)
(-0.00144068 0.00601895 -0.000520025)
(-0.00225608 0.00561883 -0.000552437)
(-0.00286228 0.00505987 -0.000598231)
(-0.00319605 0.00439113 -0.000653705)
(-0.00321881 0.00367434 -0.000713992)
(-0.00292089 0.00297947 -0.000773174)
(-0.00232514 0.00237799 -0.00082483)
(-0.00148852 0.00193467 -0.000862738)
(-0.000494269 0.00170019 -0.000882113)
(-0.000607313 0.00840347 -0.00061641)
(-0.00178619 0.00819753 -0.00064669)
(-0.00280133 0.00768337 -0.00069344)
(-0.00356105 0.00696307 -0.000759739)
(-0.0039857 0.00609836 -0.000840622)
(-0.00402455 0.0051679 -0.000929229)
(-0.00366183 0.00426218 -0.00101691)
(-0.00292284 0.00347539 -0.001094)
(-0.00187657 0.00289397 -0.00115106)
(-0.000629188 0.00258532 -0.00118049)
(-0.000754434 0.0111573 -0.00076484)
(-0.00222163 0.0109109 -0.000807108)
(-0.00349005 0.0102753 -0.00087398)
(-0.00444661 0.00938193 -0.000969397)
(-0.00499049 0.00830478 -0.00108681)
(-0.00505427 0.00713995 -0.00121664)
(-0.00461275 0.00600026 -0.00134632)
(-0.00369284 0.00500533 -0.00146136)
(-0.00237824 0.0042669 -0.00154727)
(-0.000804512 0.00387296 -0.00159199)
(-0.000933129 0.0145688 -0.000944989)
(-0.00275103 0.0142875 -0.00100329)
(-0.00432965 0.0135289 -0.00109758)
(-0.00553062 0.0124581 -0.00123318)
(-0.00622661 0.0111603 -0.0014016)
(-0.00632798 0.00974831 -0.00158975)
(-0.00579545 0.00835792 -0.00177972)
(-0.0046554 0.0071365 -0.00194998)
(-0.00300841 0.00622485 -0.00207823)
(-0.00102634 0.00573533 -0.00214544)
(-0.00114221 0.0187631 -0.00115559)
(-0.00337228 0.0184593 -0.00123469)
(-0.00531858 0.0175858 -0.00136525)
(-0.00681385 0.0163469 -0.00155453)
(-0.00769878 0.0148359 -0.00179197)
(-0.00785506 0.0131802 -0.0020603)
(-0.0072231 0.0115372 -0.00233462)
(-0.00582475 0.0100828 -0.00258339)
(-0.00377864 0.00898956 -0.00277245)
(-0.00129972 0.00839795 -0.00287228)
(-0.00137765 0.0238553 -0.00139248)
(-0.00407437 0.0235505 -0.00149773)
(-0.00644092 0.0225848 -0.00167429)
(-0.00827865 0.0212074 -0.00193239)
(-0.00939116 0.0195158 -0.00225972)
(-0.00962452 0.0176465 -0.00263442)
(-0.00889092 0.0157746 -0.00302284)
(-0.00720145 0.0141022 -0.00337982)
(-0.00469219 0.0128343 -0.00365407)
(-0.00162789 0.0121419 -0.00380027)
(-0.00163135 0.0299358 -0.00164743)
(-0.00483372 0.0296626 -0.00178392)
(-0.00766029 0.0286457 -0.00201585)
(-0.00988055 0.0271865 -0.0023579)
(-0.011257 0.0253801 -0.00279681)
(-0.0115935 0.023365 -0.0033063)
(-0.0107648 0.0213256 -0.0038425)
(-0.00876296 0.0194837 -0.00434285)
(-0.00573767 0.0180725 -0.00473261)
(-0.00201007 0.0172931 -0.0049422)
(-0.00189004 0.0370515 -0.0019069)
(-0.00561152 0.0368542 -0.00207851)
(-0.00891555 0.0358473 -0.00237284)
(-0.0115417 0.0343927 -0.00281094)
(-0.0132096 0.0325763 -0.00338001)
(-0.0136757 0.0305287 -0.00405026)
(-0.0127691 0.0284316 -0.00476703)
(-0.0104522 0.0265132 -0.00544701)
(-0.00688159 0.0250243 -0.00598533)
(-0.00243799 0.0241894 -0.00627915)
(-6.45236e-08 1.22595e-07 -1.8437e-07)
(-1.83041e-07 1.13657e-07 -1.85085e-07)
(-2.78153e-07 1.03341e-07 -1.87598e-07)
(-3.49438e-07 8.79894e-08 -1.91778e-07)
(-3.85544e-07 7.00822e-08 -1.96379e-07)
(-3.83666e-07 5.17245e-08 -2.01145e-07)
(-3.43999e-07 3.46626e-08 -2.05371e-07)
(-2.7006e-07 2.08917e-08 -2.08417e-07)
(-1.6931e-07 1.02389e-08 -2.10877e-07)
(-4.54897e-08 -2.90279e-10 -2.11194e-07)
(-6.68201e-08 3.77377e-07 -1.9705e-07)
(-1.93337e-07 3.53056e-07 -1.9846e-07)
(-2.97751e-07 3.20874e-07 -2.01637e-07)
(-3.7461e-07 2.74571e-07 -2.06794e-07)
(-4.14171e-07 2.19869e-07 -2.12683e-07)
(-4.1303e-07 1.62839e-07 -2.18569e-07)
(-3.70761e-07 1.09325e-07 -2.23816e-07)
(-2.91953e-07 6.51458e-08 -2.27535e-07)
(-1.81431e-07 3.0538e-08 -2.29543e-07)
(-5.07816e-08 1.88405e-09 -2.32417e-07)
(-7.68239e-08 6.60227e-07 -2.28376e-07)
(-2.2529e-07 6.22551e-07 -2.30434e-07)
(-3.50063e-07 5.65515e-07 -2.34713e-07)
(-4.40629e-07 4.85556e-07 -2.41646e-07)
(-4.87582e-07 3.91169e-07 -2.49478e-07)
(-4.86253e-07 2.92191e-07 -2.57603e-07)
(-4.35968e-07 1.98997e-07 -2.65278e-07)
(-3.43527e-07 1.19455e-07 -2.70863e-07)
(-2.09293e-07 5.91841e-08 -2.74773e-07)
(-6.44157e-08 1.44759e-08 -2.82697e-07)
(-9.42507e-08 9.99694e-07 -2.81116e-07)
(-2.78558e-07 9.48526e-07 -2.84049e-07)
(-4.35082e-07 8.6075e-07 -2.90485e-07)
(-5.47842e-07 7.38588e-07 -2.99935e-07)
(-6.06192e-07 5.94716e-07 -3.10876e-07)
(-6.04015e-07 4.43584e-07 -3.2277e-07)
(-5.42324e-07 3.01507e-07 -3.34323e-07)
(-4.2693e-07 1.79171e-07 -3.4316e-07)
(-2.58305e-07 8.66283e-08 -3.52061e-07)
(-8.71096e-08 3.58769e-08 -3.61081e-07)
(-1.21708e-07 1.42958e-06 -3.60505e-07)
(-3.58879e-07 1.36305e-06 -3.64963e-07)
(-5.5996e-07 1.23928e-06 -3.74303e-07)
(-7.05328e-07 1.0675e-06 -3.87703e-07)
(-7.81019e-07 8.65184e-07 -4.03877e-07)
(-7.77995e-07 6.50326e-07 -4.21016e-07)
(-6.9859e-07 4.50175e-07 -4.38571e-07)
(-5.50278e-07 2.68108e-07 -4.5189e-07)
(-3.30683e-07 1.4712e-07 -4.66472e-07)
(-1.20522e-07 8.10045e-08 -4.75722e-07)
(-1.60657e-07 1.94585e-06 -4.72614e-07)
(-4.6989e-07 1.85834e-06 -4.78699e-07)
(-7.30298e-07 1.68931e-06 -4.92233e-07)
(-9.20449e-07 1.45472e-06 -5.1151e-07)
(-1.02161e-06 1.17797e-06 -5.34441e-07)
(-1.01753e-06 8.84531e-07 -5.59133e-07)
(-9.22898e-07 6.10214e-07 -5.84022e-07)
(-7.18358e-07 3.63568e-07 -6.04575e-07)
(-4.35838e-07 1.99959e-07 -6.28606e-07)
(-1.66574e-07 1.3836e-07 -6.35637e-07)
(-2.1543e-07 3.0007e-06 -6.2294e-07)
(-6.20953e-07 2.8735e-06 -6.30528e-07)
(-9.63149e-07 2.62025e-06 -6.50988e-07)
(-1.21543e-06 2.26781e-06 -6.79302e-07)
(-1.34971e-06 1.85047e-06 -7.12891e-07)
(-1.34466e-06 1.40243e-06 -7.48687e-07)
(-1.21889e-06 9.97423e-07 -7.86578e-07)
(-9.49803e-07 5.86224e-07 -8.20319e-07)
(-5.58099e-07 3.8459e-07 -8.53328e-07)
(-2.46032e-07 2.69623e-07 -8.61908e-07)
(-3.21516e-07 1.53861e-06 -9.35823e-07)
(-9.3929e-07 1.45101e-06 -9.61965e-07)
(-1.46919e-06 1.32293e-06 -9.9768e-07)
(-1.85429e-06 1.14238e-06 -1.04705e-06)
(-2.06322e-06 9.26531e-07 -1.10571e-06)
(-2.04576e-06 6.91455e-07 -1.16667e-06)
(-1.87023e-06 4.78014e-07 -1.22777e-06)
(-1.47455e-06 2.36397e-07 -1.26355e-06)
(-1.02944e-06 1.9856e-07 -1.28214e-06)
(-2.10384e-07 2.07026e-07 -1.29286e-06)
(-0.000250931 0.000200952 -0.000726991)
(-0.000732604 0.0001939 -0.000747182)
(-0.00114521 0.0001796 -0.000776274)
(-0.00144749 0.000159499 -0.000816511)
(-0.00160891 0.000135537 -0.000864541)
(-0.00161158 0.000109821 -0.000915758)
(-0.00145576 8.50179e-05 -0.000964834)
(-0.00115767 6.37715e-05 -0.00100545)
(-0.000736273 4.62027e-05 -0.00103367)
(-0.000233648 3.77737e-05 -0.00104917)
(-0.000307034 0.00156823 -0.000891724)
(-0.000898668 0.00151618 -0.000916915)
(-0.0014029 0.00139532 -0.000953314)
(-0.00177301 0.001226 -0.00100415)
(-0.00197051 0.00102544 -0.00106473)
(-0.00197471 0.000810117 -0.00112942)
(-0.00178223 0.000609504 -0.00119174)
(-0.00140703 0.000433901 -0.0012459)
(-0.00089326 0.000292295 -0.00128573)
(-0.000290952 0.000224341 -0.00130389)
(-0.000349847 0.00279495 -0.00101095)
(-0.00102343 0.00270369 -0.00104289)
(-0.00159943 0.00249152 -0.00109052)
(-0.00202351 0.00219584 -0.00115717)
(-0.0022519 0.00184339 -0.00123706)
(-0.00225974 0.00146696 -0.00132279)
(-0.00204224 0.00110414 -0.00140573)
(-0.0016173 0.000790879 -0.00147819)
(-0.00102958 0.000558734 -0.00153025)
(-0.000334428 0.000438383 -0.00155658)
(-0.000416994 0.00425335 -0.00119949)
(-0.00122126 0.00411938 -0.00124276)
(-0.00191107 0.00380515 -0.00130933)
(-0.00242159 0.00336655 -0.00140287)
(-0.00269988 0.00284249 -0.0015156)
(-0.00271457 0.0022815 -0.00163732)
(-0.00245881 0.00173878 -0.00175598)
(-0.00195268 0.00126931 -0.00185901)
(-0.00124609 0.000923474 -0.00193419)
(-0.00040892 0.000741813 -0.00197142)
(-0.000512001 0.00601691 -0.0014646)
(-0.00150081 0.00583733 -0.00152501)
(-0.00235191 0.00540954 -0.00162064)
(-0.00298579 0.00481117 -0.00175568)
(-0.00333654 0.00409396 -0.00191943)
(-0.00336306 0.00332364 -0.00209751)
(-0.0030541 0.00257534 -0.00227244)
(-0.00243236 0.00192662 -0.00242524)
(-0.00155691 0.00144792 -0.00253756)
(-0.000515633 0.001195 -0.00259522)
(-0.000637551 0.00819506 -0.00181351)
(-0.00187087 0.00796737 -0.00189849)
(-0.00293678 0.00741404 -0.00203663)
(-0.00373664 0.00663753 -0.00223273)
(-0.00418684 0.00570307 -0.0024723)
(-0.00423262 0.00469477 -0.00273507)
(-0.00385531 0.00371056 -0.00299541)
(-0.00307969 0.00285353 -0.00322456)
(-0.00197742 0.00221901 -0.00339449)
(-0.000660907 0.00188225 -0.00348227)
(-0.000796662 0.0109081 -0.00225294)
(-0.0023406 0.0106323 -0.00237225)
(-0.00368114 0.00994295 -0.00257046)
(-0.00469596 0.0089717 -0.00285371)
(-0.00527842 0.00779687 -0.00320278)
(-0.00535468 0.00652171 -0.00358935)
(-0.00489452 0.00526929 -0.0039762)
(-0.00392324 0.00417215 -0.00431993)
(-0.00252773 0.00335581 -0.00457723)
(-0.000851875 0.00292039 -0.00471119)
(-0.000991394 0.0142845 -0.0027868)
(-0.00291634 0.0139647 -0.00295249)
(-0.00459654 0.0131345 -0.0032331)
(-0.00588154 0.0119591 -0.00363723)
(-0.00663552 0.0105284 -0.00414007)
(-0.00675886 0.00896408 -0.00470308)
(-0.00620362 0.00741567 -0.00527306)
(-0.00499216 0.00604889 -0.00578504)
(-0.00322849 0.00502553 -0.00617188)
(-0.00109666 0.00447635 -0.00637469)
(-0.00122127 0.0184562 -0.00341273)
(-0.0035982 0.0181037 -0.00363911)
(-0.00568557 0.0171383 -0.00402917)
(-0.00730043 0.0157635 -0.00459561)
(-0.00827155 0.0140776 -0.00530796)
(-0.00846542 0.0122182 -0.00611553)
(-0.00780787 0.0103599 -0.00694412)
(-0.00631188 0.00870422 -0.00769816)
(-0.00409927 0.00745432 -0.00827281)
(-0.00140329 0.00677808 -0.00857676)
(-0.00148284 0.0235477 -0.00411942)
(-0.00437673 0.0231838 -0.00442233)
(-0.00693515 0.0221051 -0.00495192)
(-0.0089399 0.0205586 -0.0057279)
(-0.0101782 0.0186459 -0.0067153)
(-0.0104738 0.0165144 -0.00785034)
(-0.00971499 0.01436 -0.00903246)
(-0.00789571 0.012418 -0.0101241)
(-0.00515331 0.0109362 -0.0109654)
(-0.00177858 0.010127 -0.0114152)
(-0.00176781 0.0296604 -0.00488277)
(-0.00522788 0.0293193 -0.00527758)
(-0.00830882 0.0281708 -0.00597629)
(-0.0107566 0.0265121 -0.00700995)
(-0.0123124 0.0244405 -0.00834206)
(-0.0127478 0.0221044 -0.00989661)
(-0.0119008 0.0197119 -0.0115427)
(-0.00973296 0.0175253 -0.0130886)
(-0.00638871 0.0158339 -0.0142992)
(-0.00222525 0.0148983 -0.0149502)
(-0.00206163 0.0368531 -0.00566326)
(-0.00610934 0.0365832 -0.00616182)
(-0.00974022 0.0354333 -0.00705274)
(-0.0126667 0.033759 -0.008384)
(-0.0145818 0.0316456 -0.0101225)
(-0.015198 0.029231 -0.0121837)
(-0.0142901 0.0267203 -0.014405)
(-0.0117707 0.0243883 -0.0165298)
(-0.00777881 0.0225546 -0.0182253)
(-0.00273943 0.0215221 -0.0191553)
(-6.53306e-08 1.12734e-07 -2.83584e-07)
(-1.85483e-07 1.0318e-07 -2.85012e-07)
(-2.82021e-07 9.2574e-08 -2.88952e-07)
(-3.54446e-07 7.69047e-08 -2.94642e-07)
(-3.91189e-07 5.86809e-08 -3.01344e-07)
(-3.89264e-07 3.98871e-08 -3.0832e-07)
(-3.48932e-07 2.23041e-08 -3.14929e-07)
(-2.7365e-07 8.02312e-09 -3.19911e-07)
(-1.70433e-07 -2.62791e-09 -3.23978e-07)
(-4.7927e-08 -1.1049e-08 -3.2329e-07)
(-6.76437e-08 3.45945e-07 -3.07169e-07)
(-1.96218e-07 3.20334e-07 -3.09011e-07)
(-3.02451e-07 2.87117e-07 -3.13803e-07)
(-3.80677e-07 2.39358e-07 -3.2075e-07)
(-4.20969e-07 1.83142e-07 -3.28781e-07)
(-4.19678e-07 1.24481e-07 -3.37207e-07)
(-3.76605e-07 6.92878e-08 -3.44999e-07)
(-2.95358e-07 2.3818e-08 -3.51065e-07)
(-1.84601e-07 -9.69317e-09 -3.54533e-07)
(-5.1689e-08 -3.40899e-08 -3.54924e-07)
(-7.79424e-08 6.03464e-07 -3.58917e-07)
(-2.29126e-07 5.64377e-07 -3.61499e-07)
(-3.56448e-07 5.05287e-07 -3.67983e-07)
(-4.48799e-07 4.22745e-07 -3.77226e-07)
(-4.96604e-07 3.25333e-07 -3.88105e-07)
(-4.9515e-07 2.23158e-07 -3.9932e-07)
(-4.44138e-07 1.26806e-07 -4.09739e-07)
(-3.48597e-07 4.54933e-08 -4.18641e-07)
(-2.15692e-07 -1.26516e-08 -4.23629e-07)
(-6.28911e-08 -5.89242e-08 -4.29833e-07)
(-9.61083e-08 9.13212e-07 -4.42981e-07)
(-2.84388e-07 8.59909e-07 -4.47246e-07)
(-4.44504e-07 7.692e-07 -4.56747e-07)
(-5.5963e-07 6.4277e-07 -4.69973e-07)
(-6.19315e-07 4.93712e-07 -4.85509e-07)
(-6.17147e-07 3.37161e-07 -5.01906e-07)
(-5.54515e-07 1.89307e-07 -5.1761e-07)
(-4.35531e-07 6.4449e-08 -5.31023e-07)
(-2.67249e-07 -2.51915e-08 -5.39078e-07)
(-8.37246e-08 -8.64934e-08 -5.5006e-07)
(-1.24661e-07 1.30664e-06 -5.66307e-07)
(-3.67579e-07 1.23758e-06 -5.73024e-07)
(-5.73736e-07 1.10909e-06 -5.86931e-07)
(-7.23154e-07 9.30593e-07 -6.06611e-07)
(-8.00767e-07 7.20115e-07 -6.29797e-07)
(-7.98176e-07 4.96722e-07 -6.54258e-07)
(-7.17064e-07 2.87572e-07 -6.78042e-07)
(-5.64043e-07 1.01133e-07 -6.9771e-07)
(-3.42703e-07 -1.94437e-08 -7.11406e-07)
(-1.1884e-07 -1.0246e-07 -7.24433e-07)
(-1.65328e-07 1.78e-06 -7.3744e-07)
(-4.83247e-07 1.6882e-06 -7.47743e-07)
(-7.51429e-07 1.51155e-06 -7.68983e-07)
(-9.4739e-07 1.26646e-06 -7.98711e-07)
(-1.05152e-06 9.77507e-07 -8.33842e-07)
(-1.04804e-06 6.70942e-07 -8.70486e-07)
(-9.50305e-07 3.83304e-07 -9.06896e-07)
(-7.41893e-07 1.27499e-07 -9.35807e-07)
(-4.5299e-07 -4.07722e-08 -9.60418e-07)
(-1.66139e-07 -1.21007e-07 -9.74295e-07)
(-2.22869e-07 2.7501e-06 -9.64395e-07)
(-6.41734e-07 2.61582e-06 -9.81293e-07)
(-9.95294e-07 2.34999e-06 -1.01339e-06)
(-1.2562e-06 1.9796e-06 -1.05785e-06)
(-1.39488e-06 1.54047e-06 -1.11064e-06)
(-1.39098e-06 1.06995e-06 -1.16635e-06)
(-1.26081e-06 6.42075e-07 -1.22131e-06)
(-9.85868e-07 2.16862e-07 -1.26529e-06)
(-5.84285e-07 -1.82136e-09 -1.30307e-06)
(-2.44707e-07 -1.39506e-07 -1.32472e-06)
(-3.33855e-07 1.41551e-06 -1.47522e-06)
(-9.75541e-07 1.32162e-06 -1.50718e-06)
(-1.52492e-06 1.18791e-06 -1.56296e-06)
(-1.92511e-06 9.97867e-07 -1.63926e-06)
(-2.14352e-06 7.70412e-07 -1.73195e-06)
(-2.13075e-06 5.25003e-07 -1.83075e-06)
(-1.94422e-06 3.03661e-07 -1.93346e-06)
(-1.52601e-06 5.55204e-08 -2.00938e-06)
(-1.0516e-06 -3.74853e-09 -2.06487e-06)
(-2.33144e-07 -1.6355e-08 -2.07241e-06)
(-0.000260891 0.000187378 -0.00113758)
(-0.000761592 0.000179468 -0.00116881)
(-0.00119049 0.000163547 -0.00121405)
(-0.00150527 0.000141126 -0.00127695)
(-0.00167395 0.000114306 -0.00135229)
(-0.00167764 8.5495e-05 -0.00143297)
(-0.00151535 5.74677e-05 -0.00151109)
(-0.00120383 3.34592e-05 -0.00157734)
(-0.0007654 1.39844e-05 -0.00162384)
(-0.000242949 4.28447e-06 -0.00164719)
(-0.000319488 0.00145282 -0.00139282)
(-0.000935129 0.00139395 -0.00143298)
(-0.00146043 0.00126243 -0.00149056)
(-0.00184645 0.00107828 -0.00157087)
(-0.00205306 0.000859394 -0.00166657)
(-0.00205819 0.000624193 -0.00176859)
(-0.0018584 0.00040221 -0.0018665)
(-0.00146823 0.000210718 -0.00195081)
(-0.000931664 5.84391e-05 -0.00201242)
(-0.000301541 -1.6579e-05 -0.00204276)
(-0.000366072 0.00259269 -0.00158047)
(-0.00107109 0.00248937 -0.00163142)
(-0.00167473 0.00225735 -0.00170678)
(-0.00212007 0.00193349 -0.00181227)
(-0.00236098 0.00154666 -0.00193871)
(-0.00237077 0.00113259 -0.0020744)
(-0.00214419 0.000732386 -0.00220571)
(-0.0016988 0.000386622 -0.00231948)
(-0.00108106 0.000130842 -0.00240212)
(-0.000350088 -1.26864e-06 -0.00244393)
(-0.000439618 0.00395478 -0.00187742)
(-0.00128786 0.00380198 -0.0019464)
(-0.00201662 0.00345601 -0.00205205)
(-0.00255759 0.00297223 -0.00220055)
(-0.00285447 0.0023927 -0.00237968)
(-0.00287306 0.00177057 -0.0025733)
(-0.00260493 0.00116688 -0.00276225)
(-0.00207007 0.000643858 -0.00292645)
(-0.00131985 0.000257919 -0.00304659)
(-0.000430654 5.54665e-05 -0.00310747)
(-0.000544454 0.00561271 -0.00229534)
(-0.00159648 0.00540544 -0.00239174)
(-0.00250411 0.00493028 -0.00254407)
(-0.00318297 0.00426399 -0.00275936)
(-0.00356221 0.00346268 -0.00302088)
(-0.00359616 0.00259877 -0.00330581)
(-0.00327052 0.00175638 -0.00358624)
(-0.00260746 0.00102378 -0.00383164)
(-0.00166925 0.000481975 -0.00401244)
(-0.000550291 0.000195148 -0.00410499)
(-0.000684364 0.00767594 -0.00284625)
(-0.00200907 0.00740902 -0.00298238)
(-0.00315759 0.00678764 -0.00320341)
(-0.0040246 0.0059127 -0.00351776)
(-0.00451903 0.00485506 -0.00390274)
(-0.00457871 0.00370805 -0.00432608)
(-0.00417932 0.00258268 -0.0047467)
(-0.00334397 0.00159831 -0.00511805)
(-0.00214813 0.000866969 -0.00539431)
(-0.000714025 0.000479397 -0.00553684)
(-0.00086362 0.0102668 -0.00354169)
(-0.0025389 0.00993717 -0.0037336)
(-0.00399974 0.00915304 -0.00405255)
(-0.00511465 0.00804329 -0.0045095)
(-0.00576584 0.00669301 -0.00507437)
(-0.00586752 0.00521746 -0.00570219)
(-0.00537932 0.00375803 -0.00633296)
(-0.00432236 0.00247155 -0.00689519)
(-0.00278757 0.00150975 -0.00731861)
(-0.000933448 0.000997291 -0.00753861)
(-0.0010858 0.0135197 -0.00438891)
(-0.00319707 0.0131282 -0.00465682)
(-0.00505051 0.0121701 -0.00511132)
(-0.00648329 0.0108057 -0.00576787)
(-0.00734334 0.00913208 -0.00658816)
(-0.00751212 0.00728576 -0.0075112)
(-0.00692376 0.00544075 -0.00845077)
(-0.00559102 0.00379787 -0.00929809)
(-0.00362151 0.00256071 -0.00994426)
(-0.00122138 0.00189693 -0.010283)
(-0.00135199 0.0175763 -0.00538602)
(-0.00398843 0.0171318 -0.00575431)
(-0.00632093 0.016 -0.00639046)
(-0.00815074 0.0143762 -0.00731793)
(-0.00928354 0.0123653 -0.00849069)
(-0.00955655 0.010121 -0.00982921)
(-0.00886505 0.00784975 -0.011213)
(-0.00720062 0.00580174 -0.0124819)
(-0.0046873 0.00424399 -0.0134552)
(-0.00159246 0.00340013 -0.0139731)
(-0.00165963 0.022576 -0.00651657)
(-0.00490656 0.0220989 -0.00701248)
(-0.00780422 0.0208132 -0.00788268)
(-0.0101153 0.0189528 -0.00916438)
(-0.0115955 0.0166226 -0.0108069)
(-0.0120244 0.0139861 -0.0127117)
(-0.01124 0.0112769 -0.0147152)
(-0.00919437 0.00879561 -0.0165853)
(-0.00602156 0.00687938 -0.0180326)
(-0.00206175 0.00583358 -0.0188194)
(-0.00200005 0.0286387 -0.0077433)
(-0.00592696 0.0281658 -0.00839399)
(-0.00946468 0.0267741 -0.00955141)
(-0.0123379 0.0247409 -0.0112751)
(-0.0142463 0.0221609 -0.0135166)
(-0.014898 0.0191954 -0.016162)
(-0.0140516 0.0160932 -0.0189999)
(-0.0115952 0.0131976 -0.0217024)
(-0.00764754 0.0109171 -0.0238429)
(-0.00263856 0.00964999 -0.0249879)
(-0.0023564 0.0358437 -0.00900386)
(-0.00700078 0.0354305 -0.00983121)
(-0.0112265 0.0340152 -0.0113196)
(-0.0147244 0.0319256 -0.0135618)
(-0.0171362 0.0292363 -0.0165232)
(-0.0180872 0.02609 -0.0200842)
(-0.0172333 0.0227304 -0.0239849)
(-0.0143672 0.019524 -0.0277819)
(-0.00956773 0.0169419 -0.0308647)
(-0.00333905 0.0154709 -0.0325737)
(-6.6846e-08 9.80186e-08 -3.57269e-07)
(-1.89416e-07 8.79497e-08 -3.58984e-07)
(-2.87693e-07 7.70389e-08 -3.63994e-07)
(-3.61797e-07 6.0819e-08 -3.71277e-07)
(-3.9921e-07 4.19861e-08 -3.79722e-07)
(-3.97236e-07 2.22833e-08 -3.8829e-07)
(-3.55594e-07 3.77479e-09 -3.96605e-07)
(-2.79134e-07 -1.16848e-08 -4.02652e-07)
(-1.72504e-07 -2.35158e-08 -4.07571e-07)
(-4.95529e-08 -3.21208e-08 -4.10005e-07)
(-6.9287e-08 3.00619e-07 -3.87088e-07)
(-2.0087e-07 2.73701e-07 -3.89276e-07)
(-3.09428e-07 2.39099e-07 -3.95387e-07)
(-3.89527e-07 1.89413e-07 -4.04141e-07)
(-4.30604e-07 1.30789e-07 -4.14199e-07)
(-4.29198e-07 6.94919e-08 -4.24693e-07)
(-3.8456e-07 1.16654e-08 -4.34451e-07)
(-3.01352e-07 -3.70012e-08 -4.41706e-07)
(-1.86108e-07 -7.31423e-08 -4.47517e-07)
(-5.31276e-08 -9.38672e-08 -4.45997e-07)
(-8.01168e-08 5.23812e-07 -4.52473e-07)
(-2.35237e-07 4.82735e-07 -4.55935e-07)
(-3.65737e-07 4.21141e-07 -4.64174e-07)
(-4.60709e-07 3.35036e-07 -4.75876e-07)
(-5.09654e-07 2.3325e-07 -4.89488e-07)
(-5.07866e-07 1.26312e-07 -5.034e-07)
(-4.55208e-07 2.49155e-08 -5.16598e-07)
(-3.57206e-07 -6.17692e-08 -5.27329e-07)
(-2.21358e-07 -1.23469e-07 -5.35352e-07)
(-6.40925e-08 -1.63698e-07 -5.36051e-07)
(-9.9336e-08 7.92089e-07 -5.59013e-07)
(-2.92916e-07 7.36298e-07 -5.64745e-07)
(-4.57769e-07 6.41308e-07 -5.76607e-07)
(-5.76576e-07 5.08939e-07 -5.93221e-07)
(-6.38101e-07 3.52985e-07 -6.12814e-07)
(-6.36093e-07 1.88685e-07 -6.33649e-07)
(-5.71411e-07 3.29862e-08 -6.53362e-07)
(-4.48184e-07 -9.93428e-08 -6.6956e-07)
(-2.7715e-07 -1.93515e-07 -6.80375e-07)
(-8.48058e-08 -2.531e-07 -6.86981e-07)
(-1.28937e-07 1.13545e-06 -7.1496e-07)
(-3.80027e-07 1.06287e-06 -7.23899e-07)
(-5.93523e-07 9.27613e-07 -7.41817e-07)
(-7.48175e-07 7.39608e-07 -7.66476e-07)
(-8.28641e-07 5.18003e-07 -7.95609e-07)
(-8.26215e-07 2.83013e-07 -8.26105e-07)
(-7.42027e-07 6.17565e-08 -8.55499e-07)
(-5.83581e-07 -1.34756e-07 -8.80367e-07)
(-3.57641e-07 -2.61198e-07 -8.98e-07)
(-1.20972e-07 -3.48672e-07 -9.10502e-07)
(-1.71935e-07 1.54853e-06 -9.31124e-07)
(-5.02212e-07 1.45119e-06 -9.45205e-07)
(-7.8125e-07 1.26418e-06 -9.72249e-07)
(-9.85287e-07 1.00503e-06 -1.00993e-06)
(-1.09335e-06 6.98917e-07 -1.05438e-06)
(-1.09056e-06 3.74366e-07 -1.10121e-06)
(-9.88218e-07 6.84041e-08 -1.14673e-06)
(-7.71753e-07 -2.01939e-07 -1.18338e-06)
(-4.74252e-07 -3.79514e-07 -1.21132e-06)
(-1.69962e-07 -4.70716e-07 -1.22803e-06)
(-2.32504e-07 2.40174e-06 -1.21971e-06)
(-6.70137e-07 2.2573e-06 -1.24121e-06)
(-1.0397e-06 1.97362e-06 -1.28193e-06)
(-1.31267e-06 1.57886e-06 -1.33831e-06)
(-1.4582e-06 1.11072e-06 -1.40556e-06)
(-1.45532e-06 6.0965e-07 -1.47654e-06)
(-1.31778e-06 1.49499e-07 -1.54579e-06)
(-1.03164e-06 -2.95754e-07 -1.60195e-06)
(-6.17654e-07 -5.30314e-07 -1.64619e-06)
(-2.50691e-07 -6.91591e-07 -1.67186e-06)
(-3.51676e-07 1.23936e-06 -1.86576e-06)
(-1.02532e-06 1.13925e-06 -1.90575e-06)
(-1.60127e-06 9.96098e-07 -1.97651e-06)
(-2.02328e-06 7.92717e-07 -2.07522e-06)
(-2.25471e-06 5.50301e-07 -2.19421e-06)
(-2.24726e-06 2.89722e-07 -2.32168e-06)
(-2.04883e-06 5.24937e-08 -2.45111e-06)
(-1.60601e-06 -2.0188e-07 -2.55408e-06)
(-1.09263e-06 -2.69684e-07 -2.63174e-06)
(-2.56635e-07 -3.03911e-07 -2.65068e-06)
(-0.000274556 0.000168343 -0.00144008)
(-0.000801642 0.000159196 -0.00147962)
(-0.00125339 0.000140979 -0.00153732)
(-0.00158577 0.000115316 -0.0016178)
(-0.00176491 8.45215e-05 -0.00171433)
(-0.00177028 5.10957e-05 -0.00181781)
(-0.00159989 1.85811e-05 -0.00191826)
(-0.00127039 -1.02576e-05 -0.00200379)
(-0.000806383 -3.23527e-05 -0.00206418)
(-0.000255012 -4.33451e-05 -0.00209387)
(-0.000336963 0.00129137 -0.0017624)
(-0.000986149 0.00122354 -0.00181378)
(-0.00154079 0.00107712 -0.00188743)
(-0.00194901 0.000872084 -0.00199013)
(-0.00216821 0.000627304 -0.00211247)
(-0.00217458 0.000363444 -0.00224293)
(-0.00196433 0.000111885 -0.00236819)
(-0.00155278 -0.000106542 -0.00247589)
(-0.00098512 -0.000277694 -0.00255457)
(-0.000317234 -0.000359694 -0.00259393)
(-0.000388806 0.00231071 -0.00200174)
(-0.00113789 0.0021906 -0.00206696)
(-0.00178027 0.00193037 -0.00216376)
(-0.00225543 0.00156652 -0.00229925)
(-0.00251399 0.00113066 -0.0024618)
(-0.00252666 0.000662686 -0.00263641)
(-0.0022872 0.000208811 -0.0028058)
(-0.00181352 -0.000184172 -0.00295221)
(-0.00115384 -0.000474855 -0.00305911)
(-0.000372132 -0.000625618 -0.00311298)
(-0.000471465 0.00353817 -0.00238104)
(-0.00138157 0.00335869 -0.00246964)
(-0.00216521 0.00296746 -0.00260599)
(-0.00274922 0.00241903 -0.00279785)
(-0.00307257 0.00175989 -0.00302964)
(-0.00309702 0.00104966 -0.00328064)
(-0.00281179 0.000357852 -0.00352621)
(-0.00223675 -0.000243152 -0.00373978)
(-0.00142683 -0.000687041 -0.0038964)
(-0.000463833 -0.000919341 -0.00397688)
(-0.000590375 0.0050477 -0.00291559)
(-0.00173178 0.00480087 -0.00304004)
(-0.00271954 0.00425765 -0.00323781)
(-0.00346258 0.00349339 -0.0035178)
(-0.0038829 0.0025703 -0.00385874)
(-0.00392824 0.00157024 -0.00423123)
(-0.00357966 0.000590295 -0.00459907)
(-0.00285816 -0.000265431 -0.00492163)
(-0.00182982 -0.000900049 -0.00515968)
(-0.000599663 -0.00123444 -0.00528138)
(-0.000750867 0.00694815 -0.00362219)
(-0.0022056 0.00662481 -0.00379898)
(-0.00347217 0.00590479 -0.00408787)
(-0.00443594 0.00488654 -0.00449983)
(-0.00499501 0.00364868 -0.00500603)
(-0.0050763 0.00229748 -0.00556485)
(-0.00464686 0.000962951 -0.0061228)
(-0.00372669 -0.000210711 -0.00661714)
(-0.00239552 -0.00108748 -0.00698516)
(-0.000790929 -0.00155144 -0.00717484)
(-0.000959332 0.00936466 -0.00451722)
(-0.00282282 0.00895689 -0.00476814)
(-0.00445706 0.00803394 -0.00518828)
(-0.00571772 0.00672037 -0.00579229)
(-0.00647085 0.00511015 -0.00654238)
(-0.00661282 0.00333526 -0.00738065)
(-0.00608689 0.00156391 -0.0082286)
(-0.00490797 -8.95097e-06 -0.00898931)
(-0.00317009 -0.0011946 -0.0095615)
(-0.00105328 -0.00182577 -0.00985905)
(-0.00122185 0.0124391 -0.00561217)
(-0.00360221 0.0119426 -0.00596519)
(-0.00570763 0.0107951 -0.00656915)
(-0.00735827 0.00914895 -0.00744558)
(-0.00837844 0.00711019 -0.00854734)
(-0.00862077 0.00483513 -0.00979649)
(-0.00798956 0.00253374 -0.0110797)
(-0.00648431 0.000460511 -0.0122489)
(-0.00421177 -0.00111166 -0.0131396)
(-0.00140783 -0.00195807 -0.0136078)
(-0.00154192 0.0163272 -0.00690744)
(-0.00455635 0.0157462 -0.00739689)
(-0.00724925 0.0143648 -0.00825048)
(-0.00940049 0.0123646 -0.00950243)