/*--------------------------------*- C++ -*----------------------------------*\
| =========                 |                                                 |
| \\      /  F ield         | OpenFOAM: The Open Source CFD Toolbox           |
|  \\    /   O peration     | Version:  2312                                  |
|   \\  /    A nd           | Website:  www.openfoam.com                      |
|    \\/     M anipulation  |                                                 |
\*---------------------------------------------------------------------------*/
FoamFile
{
    version     2.0;
    format      ascii;
    arch        "LSB;label=32;scalar=64";
    class       volVectorField;
    location    "1.455";
    object      U;
}
// * * * * * * * * * * * * * * * * * * * * * * * * * * * * * * * * * * * * * //

dimensions      [0 1 -1 0 0 0 0];

internalField   nonuniform List<vector> 
8000
(
(-0.00169773 0.00358289 -0.00237715)
(-0.00373369 0.00553518 -0.00475085)
(-0.00508205 0.00763696 -0.00746148)
(-0.0062899 0.00754416 -0.00718101)
(-0.00712129 0.00555239 -0.00451291)
(-0.00852987 0.00377853 -0.00296955)
(-0.00986596 0.00294598 -0.00287086)
(-0.0102266 0.00236694 -0.00311819)
(-0.00921861 0.00169661 -0.0033087)
(-0.00604072 0.000727774 -0.00350878)
(-0.000125644 0.0102282 -0.00228342)
(0.000802486 0.0115601 -0.00313959)
(-0.00370504 0.0178312 -0.0064578)
(-0.00913533 0.0200689 -0.00595356)
(-0.012049 0.0177018 -0.00446503)
(-0.0132749 0.0134361 -0.00374325)
(-0.013806 0.00991756 -0.00368314)
(-0.0135716 0.00715768 -0.00378043)
(-0.0122994 0.0041808 -0.00319265)
(-0.0073447 0.00184698 -0.00227731)
(0.000152549 0.0102122 0.00156951)
(0.00365376 0.00666934 0.00436518)
(0.00100542 0.0221322 -0.00117417)
(-0.010738 0.0271189 -0.00264395)
(-0.0177742 0.0257173 -0.00261823)
(-0.0192229 0.02157 -0.00347226)
(-0.01891 0.0168453 -0.00377471)
(-0.0191076 0.0128939 -0.00277563)
(-0.0164714 0.00570725 -0.000524999)
(-0.00800813 -0.00468905 -0.000430286)
(-0.00218654 0.00188965 0.00677685)
(-0.00131492 -0.00765476 0.00629604)
(-0.000185581 0.0208314 0.00395592)
(-0.0122627 0.0322829 0.000422018)
(-0.0215749 0.0306372 -0.000919218)
(-0.0249058 0.0278797 -0.00257808)
(-0.0256074 0.0242221 -0.00285819)
(-0.0235545 0.0151313 -0.00135622)
(-0.0151761 -0.00344336 -0.00052444)
(-0.00944089 -0.0146489 -0.00264744)
(-0.00238673 0.00111375 0.00156892)
(-0.00718308 -0.00420101 -0.00488731)
(-0.00834919 0.0209463 0.00313533)
(-0.0168811 0.0359859 0.00282875)
(-0.0247305 0.0347321 0.000415229)
(-0.0283886 0.0325552 -0.00165219)
(-0.0272954 0.0261941 -0.00198827)
(-0.0204446 0.0103888 -0.00166997)
(-0.0141201 -0.00665391 -0.00389762)
(-0.0119377 -0.0128798 -0.00706228)
(-0.00250816 0.0275126 -0.00885323)
(-0.0116639 0.02771 -0.0142136)
(-0.0163135 0.0393613 -0.0027611)
(-0.0216706 0.048039 0.00242287)
(-0.0287224 0.0442632 0.00117073)
(-0.032148 0.0363858 -0.000591438)
(-0.0301311 0.0233175 -0.00165823)
(-0.0247601 0.00710132 -0.00365544)
(-0.0216617 -0.00391376 -0.00855132)
(-0.0152936 -0.0085027 -0.0133851)
(-0.00450539 0.0472328 -0.0148232)
(-0.016539 0.0498353 -0.0170085)
(-0.0260373 0.0526238 -0.00768504)
(-0.0351123 0.0550105 -0.00141459)
(-0.0459431 0.0524114 -0.00154552)
(-0.0520891 0.0454885 -0.00350842)
(-0.0519292 0.0348038 -0.00674171)
(-0.0473809 0.0236029 -0.0114891)
(-0.0370974 0.0153842 -0.0172706)
(-0.0214588 0.0112066 -0.0204556)
(0.000703522 0.0795381 -0.0215137)
(-0.000634923 0.083498 -0.0194293)
(-0.0126096 0.0827005 -0.00693782)
(-0.0409699 0.0806691 8.28911e-05)
(-0.0688204 0.0744261 -0.00314963)
(-0.0825612 0.0607798 -0.00778896)
(-0.0812551 0.0438026 -0.0117357)
(-0.0688411 0.0295444 -0.0157032)
(-0.05372 0.0207997 -0.019349)
(-0.0358225 0.0165342 -0.0216953)
(-0.0244043 0.127845 -0.023926)
(-0.0725598 0.140427 -0.0359302)
(-0.135927 0.15367 -0.0564497)
(-0.191306 0.154377 -0.0661567)
(-0.220292 0.136109 -0.0696673)
(-0.21604 0.10403 -0.0646548)
(-0.187187 0.0733655 -0.0529777)
(-0.149226 0.0525346 -0.0406901)
(-0.112836 0.0422644 -0.0335793)
(-0.0751814 0.0379974 -0.0295031)
(-0.0273178 0.224156 -0.0010526)
(-0.0343709 0.24321 0.0163769)
(-0.0644208 0.324052 0.00356961)
(-0.148068 0.348348 -0.00670197)
(-0.195709 0.302359 -0.0147623)
(-0.182913 0.232407 -0.0398158)
(-0.136605 0.176958 -0.0607778)
(-0.0939404 0.13758 -0.0630729)
(-0.0691786 0.108612 -0.0517916)
(-0.0492471 0.0765441 -0.0286757)
(0.0103929 0.179976 0.00995727)
(0.0640239 0.114231 0.0393899)
(0.0997885 0.26486 0.0502887)
(0.0566757 0.351246 0.0439189)
(-0.0010816 0.322813 0.0428987)
(-0.0606318 0.244872 0.0409612)
(-0.105044 0.179845 0.0285249)
(-0.122175 0.147622 -0.000526196)
(-0.106427 0.12357 -0.0171007)
(-0.0764835 0.0763076 -0.0135655)
(0.0159752 0.0442546 -0.0152492)
(0.0528967 -0.076557 0.00898826)
(0.107394 0.127881 0.0432931)
(0.119738 0.258769 0.0527773)
(0.100913 0.259 0.0517539)
(0.0485997 0.19601 0.0518595)
(-0.0337354 0.107759 0.0528144)
(-0.0925598 0.0578399 0.0330557)
(-0.0904411 0.000750243 0.0332659)
(-0.0843641 -0.0597038 0.0402324)
(-0.00776177 0.0262628 -0.0418304)
(0.0159702 -0.129524 -0.0162327)
(0.0252857 0.0559281 0.0324202)
(0.0664219 0.162174 0.032785)
(0.07739 0.184179 0.0300195)
(0.0585285 0.156527 0.0357531)
(-0.000505079 0.0746361 0.0445661)
(-0.0503219 -0.0104591 0.0476376)
(-0.0968204 -0.0799708 0.0452332)
(-0.142409 -0.106231 0.0234318)
(-0.00868715 0.0342093 -0.0442266)
(0.0186043 -0.14718 -0.00875422)
(0.00809242 -0.0423681 0.029537)
(0.0563867 0.0987375 0.0294714)
(0.0382296 0.133557 0.0212627)
(0.01596 0.12339 0.0260766)
(-0.0403132 0.0316819 0.0410376)
(-0.100925 -0.0466213 0.0429757)
(-0.152871 -0.0778013 0.0125405)
(-0.168055 -0.0926108 -0.0112704)
(0.0116789 0.0447493 0.000309943)
(0.0551423 -0.165806 0.0191082)
(0.0457184 -0.134696 0.0119718)
(0.0438601 0.0608283 0.0299828)
(-0.015847 0.120036 0.0194937)
(-0.046293 0.091499 0.0280836)
(-0.102607 -0.00136611 0.0449538)
(-0.156897 -0.0393282 0.0195264)
(-0.16572 -0.0512521 -0.0171618)
(-0.149795 -0.0678321 -0.0227052)
(0.0353261 -0.0666908 0.033878)
(0.0753705 -0.213129 0.00903318)
(0.051031 -0.165134 -0.00655802)
(0.00301595 0.068583 0.0237675)
(-0.0686395 0.118351 0.0168256)
(-0.0972752 0.0575627 0.034332)
(-0.160881 -0.0108226 0.0376331)
(-0.201409 -0.0256967 -0.000726184)
(-0.182405 -0.04202 -0.0231423)
(-0.162295 -0.0580584 -0.0235742)
(0.0371476 -0.170654 -0.0234566)
(0.0611913 -0.226341 -0.0357842)
(0.0217525 -0.141006 -0.0305285)
(-0.0201621 0.0743883 0.0171999)
(-0.0599689 0.113716 0.0233809)
(-0.102729 0.0462988 0.042337)
(-0.195383 -0.00471762 0.034886)
(-0.228821 -0.0199647 -0.00233613)
(-0.206233 -0.034084 -0.0224803)
(-0.18539 -0.0456573 -0.0287528)
(0.0392473 -0.179678 -0.0546209)
(0.031305 -0.176014 -0.0509748)
(-0.018892 -0.0808662 -0.0331143)
(-0.0264583 0.05585 0.00171591)
(-0.00726719 0.0802384 0.024411)
(-0.0620491 0.0556237 0.0478192)
(-0.191937 0.0104454 0.0418736)
(-0.242058 -0.00904532 0.00342531)
(-0.225774 -0.0191114 -0.0260922)
(-0.202845 -0.02743 -0.0363122)
(0.0347833 -0.153515 -0.0603255)
(-0.0021458 -0.109733 -0.0430832)
(-0.0531261 -0.0414293 -0.014327)
(-0.0492484 -0.0101186 0.00325648)
(-0.0134238 0.0198733 0.0175014)
(-0.0492859 0.0597099 0.0444245)
(-0.181517 0.0309648 0.0433289)
(-0.241348 0.0117481 0.00578997)
(-0.234998 0.00473962 -0.0290959)
(-0.209943 -0.00200341 -0.0426218)
(0.026759 -0.100307 -0.0579387)
(-0.0190317 -0.0361896 -0.0293936)
(-0.0870492 -0.0170072 7.38034e-05)
(-0.0972649 -0.0536972 0.00291933)
(-0.0755666 -0.0214001 0.0119512)
(-0.0698836 0.048034 0.0394467)
(-0.158973 0.0438847 0.0453907)
(-0.22876 0.0325322 0.0167605)
(-0.239499 0.0304751 -0.021765)
(-0.211469 0.0248428 -0.0433552)
(-0.00397823 0.00476644 -0.00621142)
(-0.00443754 0.004548 -0.00960433)
(-0.000758926 0.00119161 -0.0168817)
(-3.94455e-05 0.00221312 -0.021051)
(-0.000750186 0.00416464 -0.0177508)
(-0.0025353 0.00354914 -0.0113969)
(-0.00414021 0.00245806 -0.00792564)
(-0.00502254 0.00188594 -0.00687442)
(-0.00539105 0.00156349 -0.00651496)
(-0.00438981 0.000817182 -0.00659731)
(-0.001785 0.00997481 -0.00377264)
(0.00971842 -0.00626259 0.00639713)
(0.0137358 -0.00368445 0.00433159)
(0.00662539 0.00639704 -0.0035766)
(-0.00186093 0.0121569 -0.0117463)
(-0.00555 0.0123427 -0.0127092)
(-0.00725317 0.00895651 -0.00984387)
(-0.00771222 0.00558946 -0.00788575)
(-0.00784183 0.00284996 -0.0066891)
(-0.00586649 6.1383e-05 -0.00473455)
(0.00529006 0.00559758 0.00427879)
(0.00915954 -0.02211 0.0121742)
(0.0103061 -0.012415 0.0120066)
(0.00055519 0.00703136 0.00875433)
(-0.0107306 0.0172397 4.42968e-05)
(-0.0126576 0.019045 -0.00876671)
(-0.0115781 0.014921 -0.0104164)
(-0.0111597 0.0097737 -0.00793804)
(-0.0123422 0.00660152 -0.0036657)
(-0.00773629 -0.0015673 0.000806004)
(0.00481533 -0.000342487 0.00432031)
(0.00123878 -0.0226642 -0.000189112)
(-0.00376668 -0.00790305 0.00716786)
(-0.0129246 0.012457 0.00957222)
(-0.0212589 0.0194113 0.00451249)
(-0.0212589 0.0213415 -0.00362574)
(-0.0184529 0.0196191 -0.00748613)
(-0.0165454 0.0161885 -0.00551071)
(-0.0128152 0.00615481 -0.000638695)
(-0.00338467 -0.0121096 -0.000159268)
(0.00398593 0.0104578 -0.0151227)
(-0.0029107 -0.00141853 -0.0224315)
(-0.0144285 0.00286463 -0.00715049)
(-0.0182563 0.0132761 0.00200699)
(-0.0225437 0.0170722 0.00104071)
(-0.0236051 0.0209712 -0.00233207)
(-0.0203423 0.0218039 -0.00487304)
(-0.0128002 0.0153524 -0.00521942)
(-0.00279113 0.00197199 -0.00601728)
(0.00293909 -0.00963828 -0.00939497)
(0.00313318 0.0337632 -0.031134)
(-0.00764495 0.0285347 -0.0349665)
(-0.0204419 0.031972 -0.0244926)
(-0.0232568 0.0305243 -0.0144539)
(-0.026074 0.0267534 -0.0116481)
(-0.025962 0.0221586 -0.0114496)
(-0.0207593 0.0153111 -0.0125666)
(-0.010884 0.00618002 -0.015787)
(-0.00326239 -0.00147174 -0.0210217)
(9.01357e-05 -0.00492358 -0.0250663)
(-0.00477766 0.046944 -0.0352532)
(-0.0232548 0.0492863 -0.0383825)
(-0.0338157 0.0514724 -0.0349755)
(-0.0382678 0.0487198 -0.0288448)
(-0.0436256 0.0439773 -0.0277185)
(-0.0441594 0.0380539 -0.0296912)
(-0.0399137 0.0307087 -0.0323494)
(-0.0315229 0.0225188 -0.0362468)
(-0.0209197 0.0153365 -0.03983)
(-0.0105253 0.0113775 -0.0400553)
(-0.0100149 0.0779748 -0.0314494)
(-0.0306908 0.0801543 -0.0259029)
(-0.0441622 0.0807642 -0.0268224)
(-0.0614321 0.0788463 -0.0310281)
(-0.0795681 0.0696461 -0.0389191)
(-0.0871264 0.0548475 -0.0443059)
(-0.0797591 0.0381031 -0.0463848)
(-0.0627347 0.023543 -0.0464718)
(-0.0449608 0.0136989 -0.047147)
(-0.0266758 0.00929962 -0.0465368)
(-0.0402422 0.13058 -0.0447695)
(-0.109288 0.133114 -0.0945603)
(-0.152635 0.139612 -0.125819)
(-0.188434 0.139051 -0.137596)
(-0.213546 0.11976 -0.153054)
(-0.213393 0.0882762 -0.161583)
(-0.187403 0.0580793 -0.157497)
(-0.147127 0.0373324 -0.143725)
(-0.105625 0.0253243 -0.129511)
(-0.0648842 0.0194047 -0.117079)
(-0.0102495 0.250818 0.0336531)
(-0.0303566 0.289296 0.0382842)
(-0.0894114 0.31627 0.0159762)
(-0.173076 0.294564 0.00601167)
(-0.21001 0.227136 -0.0279527)
(-0.197404 0.153672 -0.084085)
(-0.171542 0.106934 -0.110398)
(-0.143707 0.0786149 -0.110979)
(-0.115743 0.0648244 -0.100965)
(-0.0822769 0.0573231 -0.0653444)
(0.000995557 0.164156 0.0958082)
(0.0729638 0.252596 0.13953)
(0.0766821 0.350812 0.116138)
(0.0334757 0.375343 0.101633)
(-0.034859 0.316744 0.0945555)
(-0.117788 0.205952 0.0890072)
(-0.175346 0.114373 0.0964565)
(-0.195613 0.0720103 0.0966635)
(-0.182874 0.0520725 0.0949909)
(-0.158539 0.017647 0.0996292)
(-0.0346619 0.0453977 0.0732562)
(0.0492473 0.124674 0.116967)
(0.100278 0.295477 0.11876)
(0.116361 0.363815 0.119289)
(0.0770814 0.330449 0.117756)
(-0.0269058 0.211465 0.126841)
(-0.121529 0.0654982 0.14357)
(-0.171532 -0.0359271 0.143448)
(-0.177026 -0.0866526 0.134352)
(-0.169071 -0.10224 0.111809)
(-0.0639693 0.023673 0.033949)
(-0.0365334 0.0454174 0.0541947)
(0.0201314 0.215939 0.0692515)
(0.0660312 0.307792 0.0875638)
(0.0564641 0.305742 0.104052)
(-0.00663366 0.205104 0.127328)
(-0.0743907 0.0475343 0.150694)
(-0.135561 -0.0588958 0.143521)
(-0.170897 -0.0840923 0.104376)
(-0.181543 -0.0756672 0.0588469)
(-0.0659454 0.0167704 0.0114823)
(-0.0293748 -0.062687 0.0500067)
(-0.0159444 0.119633 0.075113)
(0.0221301 0.238684 0.0660175)
(-0.00197937 0.245471 0.0946456)
(-0.0473233 0.147293 0.127683)
(-0.124987 -0.00976406 0.136837)
(-0.163959 -0.0683232 0.0911843)
(-0.158865 -0.051949 0.0255868)
(-0.142374 -0.0438689 -0.00629284)
(-0.0413149 0.0224853 0.00474396)
(0.0312338 -0.151982 0.0427168)
(-0.00227663 0.0172785 0.0910426)
(0.00786358 0.18974 0.0749407)
(-0.0527654 0.195102 0.0954071)
(-0.109795 0.0855923 0.122213)
(-0.164267 -0.0403041 0.101331)
(-0.167357 -0.075184 0.0300957)
(-0.148691 -0.0710235 -0.0226279)
(-0.142719 -0.0552452 -0.0366795)
(0.00584341 0.0184195 0.0364013)
(0.0509029 -0.155257 0.0259451)
(-0.0164456 -0.012107 0.073688)
(-0.0479922 0.183877 0.0847742)
(-0.108309 0.161797 0.0907322)
(-0.150512 0.0335374 0.102879)
(-0.181521 -0.0575323 0.0709181)
(-0.173525 -0.0824271 0.00270393)
(-0.172876 -0.0793174 -0.0343164)
(-0.169023 -0.0488678 -0.050364)
(0.0271328 0.00374632 0.0373801)
(0.0373356 -0.120591 -0.00152084)
(-0.0700186 0.0362267 0.0500519)
(-0.0922791 0.173727 0.0833416)
(-0.118808 0.129736 0.090304)
(-0.151574 0.0109818 0.10021)
(-0.193967 -0.0531709 0.0647501)
(-0.183404 -0.0775207 -0.00557803)
(-0.192813 -0.0702849 -0.0455469)
(-0.192203 -0.0416541 -0.0666996)
(0.0500818 -0.0496811 -0.0235613)
(0.0189219 -0.0920556 -0.0266146)
(-0.0702692 0.0450304 0.0112576)
(-0.0710996 0.133955 0.0672216)
(-0.0549031 0.109761 0.0941978)
(-0.107072 0.0383355 0.117162)
(-0.189414 -0.0295895 0.0765398)
(-0.174264 -0.0548805 -0.00602692)
(-0.185186 -0.0464896 -0.0579861)
(-0.191936 -0.030768 -0.0852345)
(0.0355982 -0.103873 -0.0580961)
(-0.0407684 -0.0408601 -0.0198749)
(-0.0786897 0.0274407 0.0127668)
(-0.0613987 0.0319286 0.052381)
(-0.0268767 0.0578698 0.0847954)
(-0.0782389 0.058423 0.115014)
(-0.169754 -0.0013635 0.0817813)
(-0.158993 -0.0261506 0.00160364)
(-0.157377 -0.0163056 -0.060089)
(-0.166992 -0.0122769 -0.0967943)
(-0.00440583 -0.0774754 -0.0527643)
(-0.112686 0.0018594 0.00794445)
(-0.144586 -0.0127058 0.0305029)
(-0.141516 -0.0508154 0.0493639)
(-0.109969 -0.00598085 0.0711973)
(-0.0924087 0.0435213 0.102015)
(-0.143772 0.0115532 0.0906269)
(-0.153069 -0.00963553 0.0305904)
(-0.134073 0.000151301 -0.0408954)
(-0.134914 0.00413284 -0.0902867)
(-0.00803319 0.0067252 -0.00933322)
(-0.0104347 -0.00173455 -0.00725141)
(0.00136056 -0.0131549 -0.00817865)
(0.00756612 -0.0110172 -0.0143223)
(0.00981329 -0.00243161 -0.0181812)
(0.00571251 0.00250919 -0.0155151)
(-0.000619694 0.00251335 -0.01131)
(-0.00352661 0.00174044 -0.00915083)
(-0.00451123 0.00125597 -0.00828276)
(-0.00413519 0.000612425 -0.0079806)
(-0.00835196 0.01564 -0.00999277)
(0.0089059 -0.0120492 0.00975943)
(0.0159321 -0.0241328 0.013488)
(0.0136364 -0.0164827 0.00760128)
(0.00785462 -0.00383191 -0.00493032)
(0.00293108 0.00760971 -0.0145817)
(-0.00312093 0.00911084 -0.0140071)
(-0.00613494 0.00523514 -0.0108464)
(-0.0063324 0.00196918 -0.00922866)
(-0.00482545 -0.00157681 -0.00746891)
(-0.000665721 0.0200483 -0.00428032)
(0.0111383 -0.0183259 0.012035)
(0.00708037 -0.0283182 0.0153546)
(6.56426e-05 -0.0125117 0.0151975)
(-0.00750075 0.00257348 0.00424066)
(-0.00784546 0.0131333 -0.0111128)
(-0.00837645 0.0150669 -0.0155795)
(-0.00794337 0.00901474 -0.012698)
(-0.00809646 0.00405835 -0.00844553)
(-0.00662771 0.000151504 -0.00246279)
(0.00539599 0.0236474 -0.00495683)
(0.0082476 -0.00473532 -0.00624395)
(-0.00631807 -0.0140986 0.00206171)
(-0.0161063 -0.00267441 0.0119379)
(-0.0215737 0.00788846 0.0068633)
(-0.0191617 0.0158997 -0.00691586)
(-0.0150303 0.0172069 -0.0145679)
(-0.0122975 0.0129956 -0.0127049)
(-0.0117782 0.00946629 -0.00734435)
(-0.00596556 -0.0020979 -0.00169299)
(0.00516342 0.0325679 -0.027035)
(0.00713439 0.0146468 -0.0330737)
(-0.00885347 0.00644815 -0.0199122)
(-0.0190394 0.00659472 -0.00462763)
(-0.0246264 0.0113739 -0.000650398)
(-0.0253329 0.019126 -0.00425212)
(-0.020286 0.0228058 -0.00985968)
(-0.013452 0.0196451 -0.0116461)
(-0.00765983 0.011991 -0.0114867)
(-0.000262067 -0.00174733 -0.0119005)
(0.00273734 0.0382487 -0.0445071)
(-0.00189289 0.0279115 -0.0474989)
(-0.01465 0.0311289 -0.0410356)
(-0.0235055 0.0291402 -0.0313747)
(-0.0297048 0.0243327 -0.0246444)
(-0.0307679 0.0212872 -0.0215313)
(-0.0254794 0.0186178 -0.0220997)
(-0.0157377 0.0149314 -0.0247147)
(-0.00717253 0.0101536 -0.0283752)
(-0.00182509 0.00284523 -0.0305416)
(-0.0062576 0.0452322 -0.049256)
(-0.0243178 0.044372 -0.0571099)
(-0.0359053 0.0473389 -0.0590228)
(-0.0414371 0.0471264 -0.0553939)
(-0.0461823 0.0432108 -0.0524765)
(-0.0474138 0.0365036 -0.051177)
(-0.0437551 0.027208 -0.0514604)
(-0.0340352 0.0172167 -0.0524621)
(-0.0218558 0.00961179 -0.0527404)
(-0.0104297 0.00309395 -0.0509799)
(-0.0146457 0.0724962 -0.0377575)
(-0.0428587 0.0732209 -0.0452474)
(-0.0601684 0.0712355 -0.0571677)
(-0.0747555 0.0664469 -0.0641957)
(-0.0859689 0.0550161 -0.0691956)
(-0.085252 0.038964 -0.0729876)
(-0.073398 0.0237266 -0.0737214)
(-0.0561328 0.0108294 -0.0718736)
(-0.0375191 0.00283333 -0.0697803)
(-0.0177576 -0.000845582 -0.0670853)
(-0.0291187 0.135007 -0.0715181)
(-0.0988627 0.130073 -0.131238)
(-0.14981 0.123144 -0.163435)
(-0.181979 0.113815 -0.174249)
(-0.201323 0.090642 -0.192668)
(-0.200688 0.0599168 -0.210379)
(-0.178108 0.0324849 -0.216356)
(-0.139521 0.0122149 -0.208041)
(-0.0970023 0.00120302 -0.194974)
(-0.0562449 -0.00300029 -0.183524)
(0.0158124 0.25286 0.0517322)
(-0.0137591 0.287968 0.0219309)
(-0.129463 0.253563 -0.0445201)
(-0.189781 0.202206 -0.0573535)
(-0.202157 0.137274 -0.08709)
(-0.194312 0.080267 -0.114228)
(-0.181476 0.0325901 -0.124231)
(-0.164984 0.00278427 -0.115997)
(-0.152533 -0.00746112 -0.110675)
(-0.137801 -0.0102127 -0.0886908)
(-0.00352571 0.149124 0.147747)
(0.0686561 0.309641 0.164042)
(0.0212919 0.334986 0.0935774)
(-0.0226463 0.289584 0.0847165)
(-0.0876008 0.184238 0.110754)
(-0.155919 0.0562775 0.148074)
(-0.201096 -0.025631 0.174866)
(-0.213797 -0.0354242 0.175)
(-0.205137 -0.0200915 0.159886)
(-0.183913 -0.0194302 0.143901)
(-0.0473303 0.0665748 0.116734)
(0.0334894 0.256618 0.161059)
(0.0417574 0.339555 0.130963)
(0.0366512 0.303036 0.13737)
(-0.0304013 0.197331 0.168899)
(-0.120892 0.0674881 0.200995)
(-0.182053 -0.0503245 0.215392)
(-0.202521 -0.121705 0.196509)
(-0.190035 -0.137147 0.146902)
(-0.156076 -0.128983 0.0902782)
(-0.0684998 0.0542337 0.0800882)
(-0.0504856 0.18687 0.107111)
(-0.0230363 0.277259 0.11056)
(-0.00954402 0.269605 0.139598)
(-0.0450758 0.206068 0.183329)
(-0.100974 0.0964743 0.223406)
(-0.146693 -0.0332462 0.228084)
(-0.168512 -0.10084 0.16555)
(-0.149977 -0.111652 0.0745298)
(-0.114719 -0.113721 0.00548441)
(-0.0716408 0.0576993 0.0604551)
(-0.0638601 0.118786 0.110264)
(-0.0462678 0.205665 0.117702)
(-0.0403922 0.229152 0.132855)
(-0.0726536 0.186165 0.185266)
(-0.11623 0.0692923 0.223111)
(-0.15494 -0.0585613 0.187547)
(-0.143078 -0.107627 0.0894724)
(-0.111874 -0.135047 0.00247894)
(-0.0937009 -0.142748 -0.0353914)
(-0.0546081 0.0504241 0.0304515)
(-0.0244554 0.0403943 0.104517)
(-0.035622 0.156252 0.136927)
(-0.0333963 0.207507 0.131734)
(-0.0792765 0.172211 0.180612)
(-0.122349 0.0476268 0.198068)
(-0.135483 -0.0673476 0.129131)
(-0.1112 -0.111734 0.0321021)
(-0.102395 -0.14174 -0.022384)
(-0.103035 -0.144319 -0.0491543)
(-0.0235787 0.0378236 0.000757289)
(-0.00545719 0.00145887 0.0634052)
(-0.0516507 0.137497 0.11927)
(-0.0551538 0.206931 0.13057)
(-0.0879542 0.160949 0.160443)
(-0.111972 0.0200412 0.150595)
(-0.104027 -0.0765541 0.0784834)
(-0.0846902 -0.101209 -0.000351201)
(-0.0999788 -0.134247 -0.0324381)
(-0.118261 -0.134077 -0.0598631)
(-0.0118007 0.0387116 -0.0115208)
(-0.0399048 0.0103797 0.0303472)
(-0.096077 0.144366 0.097376)
(-0.0972635 0.192079 0.122636)
(-0.0979628 0.117226 0.130654)
(-0.0938011 -0.0135521 0.112928)
(-0.0780356 -0.0709631 0.0525467)
(-0.0521915 -0.0705111 -0.0219426)
(-0.079406 -0.115291 -0.0421434)
(-0.119261 -0.121734 -0.067114)
(0.00822217 0.0614072 -0.020135)
(-0.0265783 0.00803378 0.00629899)
(-0.103662 0.125292 0.0775266)
(-0.0888788 0.154055 0.115069)
(-0.0660815 0.0837958 0.128777)
(-0.0682334 -0.00375093 0.130992)
(-0.0673206 -0.050215 0.0630086)
(-0.0107791 -0.0330602 -0.03722)
(-0.0352033 -0.0792497 -0.0504315)
(-0.0888803 -0.113078 -0.0708998)
(0.0463917 0.0156863 -0.0272781)
(0.00286197 0.026743 -0.00450594)
(-0.0869203 0.0875222 0.0683386)
(-0.0605419 0.0797247 0.110763)
(-0.0325166 0.0579211 0.136469)
(-0.0451977 0.0265684 0.150969)
(-0.0533867 -0.0220748 0.0868211)
(0.0230113 -0.0177407 -0.0210739)
(0.0145617 -0.0397793 -0.0464049)
(-0.0351348 -0.104107 -0.0660042)
(0.017598 -0.0443223 -0.0242728)
(-0.0597767 0.0665234 0.0218159)
(-0.129706 0.0522277 0.0689689)
(-0.122648 0.00156942 0.0973691)
(-0.0946048 0.00765654 0.121935)
(-0.0575576 0.0195125 0.136561)
(-0.0373731 -0.0151195 0.104808)
(0.0063972 -0.0337318 0.0367107)
(0.0381755 -0.0364379 -0.0185497)
(0.0217736 -0.0946766 -0.0514512)
(-0.00881417 0.00708675 -0.0102473)
(-0.0185232 -0.0018987 -0.00473444)
(-0.00506355 -0.0168144 8.88653e-05)
(0.0063711 -0.0163524 -0.00359797)
(0.0129331 -0.0069998 -0.00878406)
(0.00897665 0.000530485 -0.0109381)
(0.000436438 0.00203578 -0.0106209)
(-0.00352835 0.00153628 -0.00974044)
(-0.00457558 0.0010083 -0.00898316)
(-0.00407971 0.000435216 -0.0081931)
(-0.00815609 0.0173686 -0.0150962)
(0.0007753 -0.00577064 0.00321291)
(0.00986852 -0.0281068 0.0145698)
(0.0109577 -0.0281938 0.0110933)
(0.0117138 -0.0141574 -0.00289837)
(0.00836136 0.00270538 -0.0122888)
(-0.000741909 0.00729935 -0.0133349)
(-0.00567641 0.00405132 -0.0115213)
(-0.00591105 0.000844251 -0.0100859)
(-0.0043455 -0.00242843 -0.00884941)
(-0.00404802 0.0227996 -0.0166963)
(0.00989921 -0.0046556 0.00112346)
(0.006915 -0.0249645 0.0115092)
(-0.000244393 -0.0222279 0.0139512)
(-0.00223207 -0.00905155 0.000309508)
(-0.00118895 0.00649008 -0.0144348)
(-0.00529835 0.0120878 -0.0172917)
(-0.0074531 0.00652737 -0.0149716)
(-0.00683448 0.000175837 -0.0120946)
(-0.00524243 -0.00348019 -0.00773388)
(0.00161168 0.0290742 -0.0224386)
(0.011538 0.0108265 -0.0180659)
(0.00191285 -0.00718628 -0.00531484)
(-0.0116299 -0.00944222 0.00663414)
(-0.0160244 -0.00175598 0.00103488)
(-0.013112 0.00911898 -0.0150289)
(-0.0121268 0.013572 -0.0211559)
(-0.0117428 0.00785355 -0.0189038)
(-0.0113526 0.0033272 -0.0145081)
(-0.00768316 -0.000845869 -0.00824099)
(0.00369195 0.0309571 -0.0371072)
(0.0095861 0.01917 -0.0373512)
(-8.89199e-05 0.0119413 -0.0257636)
(-0.0152567 0.00779796 -0.0121149)
(-0.0238136 0.00889745 -0.00691107)
(-0.0237748 0.0160025 -0.0120575)
(-0.0191332 0.0182725 -0.01947)
(-0.0151089 0.013108 -0.0207087)
(-0.0127694 0.00642284 -0.0196181)
(-0.00693618 -0.00149659 -0.0171125)
(-0.00131804 0.0262585 -0.0489116)
(-0.006135 0.0194062 -0.0507738)
(-0.0163319 0.0249701 -0.0465371)
(-0.0266905 0.0252025 -0.0396055)
(-0.0349733 0.0209452 -0.0329573)
(-0.0355291 0.0200397 -0.0285437)
(-0.028736 0.019828 -0.0287197)
(-0.0194847 0.0158138 -0.030598)
(-0.0136266 0.00911309 -0.0323649)
(-0.00774099 0.000727903 -0.0326586)
(-0.0115973 0.0391083 -0.0578487)
(-0.0329374 0.0373718 -0.0703206)
(-0.0463421 0.0396807 -0.0732807)
(-0.0520826 0.0391067 -0.0695772)
(-0.0567023 0.0325251 -0.065035)
(-0.0568699 0.0221565 -0.0609445)
(-0.0506985 0.0114189 -0.0579339)
(-0.0391201 0.00320255 -0.0556713)
(-0.0261785 -0.00196009 -0.0544755)
(-0.0121135 -0.00734698 -0.0539891)
(-0.0142628 0.0661404 -0.0456703)
(-0.0457113 0.0622753 -0.0592872)
(-0.0679345 0.0555515 -0.0765164)
(-0.0828391 0.0461694 -0.084271)
(-0.088661 0.0326535 -0.0896045)
(-0.0838403 0.0195575 -0.092018)
(-0.0729658 0.00781636 -0.0901085)
(-0.0570481 -0.00326342 -0.0873445)
(-0.0369262 -0.010255 -0.08476)
(-0.0146749 -0.0133818 -0.082777)
(-0.0256503 0.123336 -0.107081)
(-0.0929851 0.110394 -0.15175)
(-0.156874 0.0982351 -0.189251)
(-0.192118 0.0819174 -0.204443)
(-0.207283 0.0545659 -0.223627)
(-0.201083 0.0250749 -0.235402)
(-0.174181 -0.00215281 -0.231825)
(-0.132604 -0.0218457 -0.212503)
(-0.0896584 -0.0310371 -0.193728)
(-0.0499221 -0.033595 -0.180726)
(0.0228765 0.245386 0.0394069)
(-0.0157995 0.267786 0.0229563)
(-0.157814 0.204516 -0.0529528)
(-0.188722 0.139635 -0.0657855)
(-0.200755 0.0721941 -0.0726084)
(-0.191847 0.00722626 -0.0477569)
(-0.165084 -0.069735 0.00487459)
(-0.170741 -0.115126 -0.0465621)
(-0.170308 -0.131622 -0.077645)
(-0.154787 -0.13036 -0.077769)
(0.00369465 0.1636 0.181242)
(0.0629953 0.311655 0.163593)
(-0.0240109 0.292857 0.0903948)
(-0.0625811 0.185463 0.123282)
(-0.116808 0.0251526 0.178157)
(-0.160626 -0.0738515 0.208705)
(-0.185717 -0.0881045 0.224156)
(-0.191763 -0.060581 0.219372)
(-0.190433 -0.0395486 0.195474)
(-0.177608 -0.0446514 0.169394)
(-0.0468899 0.0881352 0.165686)
(0.0200225 0.285977 0.183966)
(-0.00969449 0.296601 0.152523)
(-0.0343834 0.166369 0.184895)
(-0.099536 0.0221047 0.207198)
(-0.154454 -0.0670873 0.225116)
(-0.180083 -0.122646 0.223584)
(-0.175975 -0.13754 0.186904)
(-0.156714 -0.136932 0.134152)
(-0.122211 -0.154712 0.0795429)
(-0.0659472 0.0787708 0.137576)
(-0.0595763 0.223459 0.155454)
(-0.0565316 0.233347 0.157366)
(-0.0614355 0.147726 0.186941)
(-0.0997746 0.0715425 0.223673)
(-0.137723 -0.000509155 0.258751)
(-0.150044 -0.0660348 0.231592)
(-0.132901 -0.0784735 0.140862)
(-0.105409 -0.0850305 0.0579069)
(-0.0819268 -0.128659 0.0132389)
(-0.0618732 0.0855515 0.121226)
(-0.0707056 0.186261 0.155078)
(-0.065453 0.189132 0.154772)
(-0.0731866 0.14921 0.174177)
(-0.100584 0.0980226 0.223607)
(-0.119523 0.0183399 0.252569)
(-0.116346 -0.0492237 0.188234)
(-0.0893207 -0.0577305 0.0721279)
(-0.0809558 -0.0766246 0.000557075)
(-0.0691504 -0.135158 -0.0227898)
(-0.0531479 0.0814435 0.0921937)
(-0.0458633 0.159743 0.151447)
(-0.0496281 0.181642 0.152134)
(-0.059542 0.166646 0.159493)
(-0.0820598 0.127849 0.214531)
(-0.0886966 0.0469372 0.225759)
(-0.0752837 -0.0154235 0.133973)
(-0.0612313 -0.00813644 0.0117432)
(-0.0730412 -0.043468 -0.0390526)
(-0.0590512 -0.140345 -0.0393956)
(-0.0466199 0.0662007 0.0586162)
(-0.0374467 0.126517 0.113151)
(-0.0545028 0.180498 0.131452)
(-0.0570319 0.186457 0.14774)
(-0.0659508 0.150557 0.195829)
(-0.060799 0.0562294 0.184654)
(-0.0443108 0.00963072 0.0867851)
(-0.0437177 0.0469018 -0.022813)
(-0.0616954 -0.0256205 -0.0345567)
(-0.0522318 -0.164037 -0.0350716)
(-0.044609 0.0574465 0.0368141)
(-0.0656398 0.103323 0.0846003)
(-0.0864411 0.17947 0.118952)
(-0.0787783 0.187681 0.140825)
(-0.0676414 0.131609 0.161669)
(-0.0462167 0.0359314 0.128888)
(-0.0220665 0.0249949 0.0395501)
(-0.0222233 0.075137 -0.0446028)
(-0.023374 -0.0374879 -0.0375914)
(-0.0358735 -0.178922 -0.0303451)
(-0.0162353 0.0670969 0.0192377)
(-0.0658623 0.0848336 0.0728117)
(-0.108374 0.163736 0.122089)
(-0.0901679 0.160278 0.141412)
(-0.0664438 0.0850945 0.13891)
(-0.0400949 0.0071681 0.0977848)
(-0.00316206 0.0180833 -0.00206676)
(0.00773654 0.0777291 -0.0677564)
(0.0432128 -0.0551353 -0.0565441)
(0.00836529 -0.176595 -0.0297924)
(0.0423234 0.0370046 -0.000481356)
(-0.0198266 0.085869 0.057822)
(-0.0976222 0.133093 0.12601)
(-0.0734299 0.114331 0.150501)
(-0.049727 0.0555066 0.147862)
(-0.0261855 0.00820463 0.117531)
(0.019006 0.00167924 0.0109522)
(0.0670213 0.0115998 -0.0568175)
(0.0967804 -0.0603488 -0.0461637)
(0.0675893 -0.157117 -0.0354877)
(0.0249102 -0.0301579 0.00958991)
(-0.0324751 0.11524 0.0631218)
(-0.112702 0.116047 0.11962)
(-0.0989529 0.0726945 0.139491)
(-0.0738081 0.0411621 0.142236)
(-0.0267407 0.0201897 0.130177)
(0.0293756 -0.00577426 0.0822559)
(0.0848527 -0.0353234 0.0345817)
(0.119772 -0.0829124 0.00252404)
(0.11672 -0.137636 -0.0326096)
(-0.005309 0.00534841 -0.00929537)
(-0.0183172 0.00136852 -0.0015749)
(-0.011826 -0.00927571 0.00712732)
(0.000361516 -0.0103377 0.00649539)
(0.00717554 -0.00378783 9.55657e-05)
(0.00420374 0.000593244 -0.00620174)
(-0.00180668 0.00154356 -0.00913329)
(-0.00450184 0.00120794 -0.00980302)
(-0.00502392 0.000834839 -0.0095174)
(-0.00407527 0.000667195 -0.00878003)
(-0.00467354 0.0149087 -0.0160564)
(-0.0102367 0.00435787 -0.00319455)
(-1.84178e-05 -0.018619 0.0105191)
(0.00417517 -0.0229741 0.0100009)
(0.00838436 -0.00979323 0.000262249)
(0.00496875 0.00293764 -0.00784806)
(-0.00247273 0.00463443 -0.0108523)
(-0.00566147 0.00207997 -0.0106954)
(-0.00533717 -0.000139007 -0.00944718)
(-0.00383265 -0.00183342 -0.00797495)
(-0.00107581 0.0192784 -0.0226996)
(0.00239 0.00717746 -0.0115298)
(0.00486602 -0.0125696 0.00262366)
(0.000967456 -0.0192005 0.00654732)
(0.00173368 -0.00973002 -0.00408319)
(0.000506595 0.0047698 -0.0130306)
(-0.00541912 0.00742133 -0.0152861)
(-0.0078923 0.00203198 -0.0145693)
(-0.00669799 -0.00281429 -0.0129958)
(-0.0043234 -0.00511658 -0.0105584)
(0.00303031 0.0206708 -0.0300344)
(0.00873928 0.0156895 -0.0273866)
(0.00704256 0.00231482 -0.0142355)
(-0.00243494 -0.00692954 -0.0029227)
(-0.00686926 -0.00424801 -0.00791949)
(-0.00743787 0.00571894 -0.0185008)
(-0.0109199 0.00829535 -0.0215191)
(-0.0126227 0.00157656 -0.0201645)
(-0.0111539 -0.00365351 -0.0180683)
(-0.00673957 -0.00504402 -0.0153001)
(0.00190871 0.0131007 -0.0377033)
(0.00619656 0.0111369 -0.0356128)
(0.00242037 0.0125148 -0.0271223)
(-0.00792313 0.0096821 -0.0174778)
(-0.0158843 0.00780696 -0.0143667)
(-0.0167382 0.0107184 -0.019958)
(-0.0163367 0.0100872 -0.0251556)
(-0.0159585 0.00197142 -0.0253353)
(-0.015036 -0.0046447 -0.0248128)
(-0.00861515 -0.00631077 -0.0245075)
(-0.00697439 0.00733916 -0.0473577)
(-0.0147885 0.00676734 -0.0517438)
(-0.0225952 0.0146068 -0.0478534)
(-0.0295067 0.0172558 -0.0416847)
(-0.0350359 0.0164266 -0.0357343)
(-0.0330444 0.0166001 -0.0316591)
(-0.0266463 0.0137753 -0.0321297)
(-0.020585 0.0050809 -0.0331001)
(-0.0176663 -0.00447478 -0.0348426)
(-0.00994463 -0.00967372 -0.03761)
(-0.0176541 0.0301763 -0.0628374)
(-0.0442844 0.0273233 -0.0789885)
(-0.058546 0.0270738 -0.0812041)
(-0.0632462 0.0230114 -0.0763765)
(-0.065153 0.0140787 -0.0695438)
(-0.0612038 0.00444262 -0.0619275)
(-0.0517764 -0.00285257 -0.0561954)
(-0.0398342 -0.00812039 -0.054427)