/*--------------------------------*- C++ -*----------------------------------*\
| =========                 |                                                 |
| \\      /  F ield         | OpenFOAM: The Open Source CFD Toolbox           |
|  \\    /   O peration     | Version:  2312                                  |
|   \\  /    A nd           | Website:  www.openfoam.com                      |
|    \\/     M anipulation  |                                                 |
\*---------------------------------------------------------------------------*/
FoamFile
{
    version     2.0;
    format      ascii;
    arch        "LSB;label=32;scalar=64";
    class       surfaceScalarField;
    location    "0.545";
    object      alphaPhi0.water;
}
// * * * * * * * * * * * * * * * * * * * * * * * * * * * * * * * * * * * * * //

dimensions      [0 3 -1 0 0 0 0];

oriented        oriented;

internalField   nonuniform List<scalar> 
22600
(
1.34219e-07
-2.7083e-07
1.36612e-07
2.68563e-07
-2.79051e-07
1.44706e-07
3.71361e-07
-2.4122e-07
1.38423e-07
4.30617e-07
-1.93408e-07
1.34152e-07
4.46807e-07
-1.47412e-07
1.31223e-07
4.20462e-07
-1.00562e-07
1.26907e-07
3.56536e-07
-5.74879e-08
1.21414e-07
2.65684e-07
-2.21625e-08
1.13015e-07
1.54315e-07
5.43179e-09
1.05937e-07
1.89321e-08
9.84498e-08
1.10801e-07
-4.94828e-07
1.13198e-07
2.25661e-07
-5.1943e-07
1.25519e-07
3.16635e-07
-4.49832e-07
1.17638e-07
3.74137e-07
-3.63165e-07
1.12256e-07
3.95154e-07
-2.77431e-07
1.09002e-07
3.78203e-07
-1.87838e-07
1.04226e-07
3.27732e-07
-1.04966e-07
9.79495e-08
2.49096e-07
-3.42063e-08
9.068e-08
1.49187e-07
1.9468e-08
8.58723e-08
4.64476e-08
8.08273e-08
1.43122e-07
-7.85259e-07
1.47309e-07
2.95546e-07
-8.26136e-07
1.54281e-07
4.15083e-07
-7.11852e-07
1.42484e-07
4.84174e-07
-5.6817e-07
1.35914e-07
5.05131e-07
-4.29008e-07
1.30619e-07
4.77713e-07
-2.86016e-07
1.25596e-07
4.08116e-07
-1.54986e-07
1.19617e-07
3.04971e-07
-4.41027e-08
1.13042e-07
1.78692e-07
3.81039e-08
1.07643e-07
7.70662e-08
1.05035e-07
2.04363e-07
-1.20316e-06
2.13541e-07
3.94667e-07
-1.23937e-06
2.22931e-07
5.40624e-07
-1.02988e-06
1.72072e-07
6.29875e-07
-8.16039e-07
1.58618e-07
6.5168e-07
-6.09893e-07
1.59081e-07
6.11297e-07
-4.07917e-07
1.62283e-07
5.19387e-07
-2.31202e-07
1.68126e-07
3.86679e-07
-8.59105e-08
1.74516e-07
2.24165e-07
1.73422e-08
1.83276e-07
6.60437e-08
1.90862e-07
4.24672e-07
-2.05378e-06
4.25946e-07
6.64593e-07
-1.9514e-06
4.72107e-07
7.76823e-07
-1.46126e-06
3.19152e-07
8.53452e-07
-1.12912e-06
2.36449e-07
8.52128e-07
-8.4324e-07
2.3467e-07
7.67782e-07
-5.88627e-07
2.65057e-07
6.19316e-07
-3.97589e-07
3.14853e-07
4.36852e-07
-2.73074e-07
3.69627e-07
2.43768e-07
-2.06152e-07
4.16577e-07
-1.64752e-07
4.41174e-07
7.00773e-07
-3.4199e-06
6.6535e-07
9.80651e-07
-3.00415e-06
7.7287e-07
9.91227e-07
-2.09742e-06
6.25584e-07
9.64099e-07
-1.59477e-06
4.92777e-07
8.64089e-07
-1.21947e-06
4.76238e-07
7.05945e-07
-9.61609e-07
5.31126e-07
5.2161e-07
-7.75329e-07
5.62075e-07
3.3666e-07
-6.45537e-07
5.57413e-07
1.82032e-07
-5.91083e-07
5.39556e-07
-5.31645e-07
5.2196e-07
7.66821e-07
-4.95846e-06
7.71747e-07
1.03426e-06
-4.15245e-06
8.80879e-07
1.06684e-06
-2.96598e-06
8.35998e-07
9.86411e-07
-2.22883e-06
7.14527e-07
8.13683e-07
-1.63596e-06
5.89247e-07
6.25972e-07
-1.1856e-06
4.11696e-07
4.57087e-07
-7.80077e-07
1.73533e-07
2.9079e-07
-4.37287e-07
-3.75445e-08
1.65677e-07
-3.15153e-07
-1.33587e-07
-2.63751e-07
-1.57669e-07
5.36505e-07
-6.16041e-06
6.65592e-07
6.05175e-07
-4.99192e-06
7.71134e-07
8.57326e-07
-3.91061e-06
6.93242e-07
1.18182e-06
-2.93158e-06
3.79399e-07
1.30873e-06
-1.75225e-06
-1.97059e-09
1.17934e-06
-6.89457e-07
-3.45766e-07
1.00459e-06
-1.51131e-07
-4.59063e-07
7.21848e-07
5.77315e-08
-3.5813e-07
3.74596e-07
7.81575e-08
-3.32472e-07
5.00468e-08
-3.37957e-07
2.04487e-07
-6.74827e-06
3.85606e-07
4.58914e-07
-5.72813e-06
4.87875e-07
1.56365e-06
-4.84714e-06
2.77821e-07
2.14079e-06
-2.51527e-06
-6.68323e-08
1.64726e-06
-7.01234e-07
-1.21098e-07
1.05227e-06
-1.11881e-07
-8.88247e-08
5.42113e-07
-2.1401e-08
-5.50684e-09
2.02541e-07
-2.18681e-09
9.90652e-08
4.80311e-08
-8.90262e-11
3.5697e-08
-9.51385e-10
3.78161e-09
1.82371e-07
-7.18635e-06
2.82765e-07
1.26409e-06
-5.21826e-06
5.53999e-07
8.7205e-07
-8.63835e-07
2.91916e-07
2.80705e-07
-6.905e-08
1.57557e-07
1.41404e-07
-2.34319e-09
3.92822e-08
2.42815e-08
-1.90138e-12
5.25202e-09
2.36806e-09
-3.06557e-11
5.59448e-10
1.10285e-10
-6.01036e-12
4.09986e-11
6.04305e-11
-9.33332e-11
4.92975e-10
2.8019e-10
5.57645e-11
4.46722e-07
-2.28761e-06
5.28579e-07
8.43983e-07
-7.19187e-08
4.21201e-07
7.14998e-08
-3.6891e-10
1.18583e-08
2.34884e-09
-1.91594e-12
1.02828e-10
1.59281e-12
-1.71721e-12
5.65483e-12
-1.39886e-12
-8.49582e-15
2.19092e-13
-1.65432e-11
7.47891e-14
1.49438e-12
-8.07968e-11
3.29735e-12
-8.10427e-12
-2.3071e-10
-8.01623e-12
-1.46971e-11
8.40486e-11
-6.85307e-12
7.1316e-08
-2.34969e-10
8.51153e-08
2.7779e-10
-5.99332e-10
-2.42706e-12
-2.77519e-13
-8.73848e-11
-3.53261e-12
-1.32331e-12
-5.13285e-13
-4.32319e-13
-2.56497e-12
1.77754e-13
-7.30874e-13
-2.43965e-12
5.4898e-13
-8.02727e-13
-6.64565e-12
2.10865e-12
-4.57622e-12
-1.09061e-11
5.18984e-12
-1.14948e-11
-3.50126e-11
1.71949e-11
-1.72745e-11
4.45705e-11
-1.37687e-11
-3.25542e-11
-2.89813e-10
-3.23455e-11
-4.66735e-11
-4.38664e-10
-1.30659e-10
-1.79257e-12
-1.19156e-10
-2.11774e-10
-1.91448e-12
5.98565e-13
-1.0654e-12
-1.89007e-12
9.50574e-13
-8.95774e-13
-1.97726e-12
1.54521e-12
-1.02844e-12
-1.60982e-12
3.28696e-12
-1.71565e-12
-1.33327e-11
1.3495e-11
-1.5668e-11
-2.19228e-11
1.07642e-10
-4.28154e-11
1.69448e-10
-2.1573e-11
-1.17339e-10
-9.21505e-11
-1.3607e-10
-4.32516e-10
-1.12074e-11
-6.84558e-10
-1.0742e-10
2.8815e-10
-4.84715e-11
-1.15654e-11
2.61104e-11
-9.53488e-13
-8.19254e-12
2.34116e-12
-4.88289e-12
-2.69206e-12
3.22874e-11
-1.68442e-11
-1.03291e-11
3.25924e-11
-2.24512e-11
-2.06355e-11
4.19424e-11
-3.50674e-11
-2.75012e-11
1.47857e-10
-5.84606e-11
2.21341e-10
-4.39206e-11
-1.08278e-10
4.44038e-11
-9.99964e-11
-3.89909e-10
1.73641e-10
-1.99557e-10
-1.04407e-11
5.96648e-10
-8.70962e-13
-1.13584e-11
1.02199e-11
2.736e-14
-1.55469e-11
7.87238e-12
-9.28593e-13
-6.70017e-11
7.17047e-11
-1.12174e-11
-6.05837e-11
4.91325e-11
-4.9509e-11
-2.21932e-11
6.44293e-11
-4.52937e-11
-1.66861e-11
5.47382e-11
-4.63566e-11
1.11024e-10
-3.96885e-11
-1.00338e-10
1.41125e-10
1.25781e-10
-1.56438e-10
8.677e-12
-7.10013e-11
-1.47909e-11
1.45808e-11
-1.9571e-12
-4.98055e-12
5.23198e-12
5.19619e-13
-2.15364e-11
2.58634e-11
2.85999e-12
-4.06968e-11
1.81976e-11
1.05102e-11
-4.11144e-11
-2.42202e-13
9.2371e-12
-1.08554e-11
1.99803e-11
-3.07123e-14
-1.90385e-12
1.22567e-12
-1.63003e-12
1.60867e-12
-2.22206e-12
-3.14973e-11
3.62018e-10
1.51209e-10
-1.17587e-11
4.32734e-11
-6.09084e-11
-1.08411e-12
1.09424e-11
-7.94877e-13
-1.32176e-10
1.18436e-10
4.05219e-13
-1.98371e-11
2.69001e-11
5.04444e-11
-1.56812e-11
5.19036e-13
1.26972e-11
-5.13196e-12
-1.85542e-12
4.89205e-12
-1.14656e-12
-1.0962e-12
1.81637e-12
-1.19323e-12
3.61366e-13
1.42264e-12
-2.14353e-13
3.96026e-12
-9.27254e-11
8.15744e-10
1.99406e-10
-1.63102e-11
5.56033e-11
-9.79238e-11
-6.15879e-11
5.13026e-11
-3.64715e-12
-1.40782e-10
7.36822e-10
-9.91779e-12
-4.81406e-13
8.03193e-13
7.17383e-11
-4.93428e-12
2.05398e-14
4.14551e-12
-1.5027e-12
-9.55776e-14
8.69681e-13
-7.63509e-13
-1.05944e-13
4.06247e-13
-9.26979e-13
6.3987e-13
5.28091e-13
-7.5282e-14
1.13768e-12
-6.58365e-11
5.66069e-10
2.69555e-10
-1.15552e-11
8.01551e-11
-8.21267e-11
-1.43594e-10
1.90967e-10
-1.53954e-11
2.13797e-13
7.99928e-10
-7.46025e-11
-3.65935e-14
-4.18588e-12
3.81052e-11
-3.55026e-14
1.96763e-17
1.94147e-14
-1.33035e-13
-9.91233e-16
2.64301e-15
-9.15301e-14
-5.01167e-17
1.20549e-14
-2.54534e-14
8.40887e-16
1.49707e-14
6.35209e-16
7.34465e-15
-5.45854e-11
2.54055e-10
3.03015e-10
-1.10068e-10
4.31459e-11
8.88585e-11
-2.89264e-11
-3.87113e-11
1.00453e-09
1.68006e-10
-6.40242e-12
7.29637e-10
-1.55915e-16
3.16513e-11
1.14529e-12
-2.62955e-16
1.29126e-16
4.8432e-19
-1.2482e-15
9.92737e-18
-1.70187e-17
-1.32641e-15
-1.1736e-17
-1.17029e-18
-6.0578e-16
-3.89661e-18
5.4122e-18
-8.34134e-18
5.14287e-18
1.42286e-07
-2.78988e-07
2.73314e-07
2.9728e-07
-3.12456e-07
3.02169e-07
4.18838e-07
-2.75425e-07
2.92289e-07
4.93352e-07
-2.29921e-07
2.89559e-07
5.22262e-07
-1.91531e-07
2.93845e-07
5.04443e-07
-1.54811e-07
2.99537e-07
4.4048e-07
-1.22531e-07
3.07909e-07
3.35637e-07
-9.7613e-08
3.1547e-07
1.96469e-07
-8.24809e-08
3.27587e-07
-8.05543e-08
3.31321e-07
1.22858e-07
-5.19041e-07
2.30393e-07
2.63561e-07
-5.97006e-07
2.69366e-07
3.77206e-07
-5.276e-07
2.56168e-07
4.49246e-07
-4.41304e-07
2.51598e-07
4.7945e-07
-3.68775e-07
2.56043e-07
4.64729e-07
-2.98081e-07
2.62218e-07
4.0618e-07
-2.35995e-07
2.69963e-07
3.08842e-07
-1.8821e-07
2.78615e-07
1.82566e-07
-1.63635e-07
2.93303e-07
-1.69943e-07
3.04704e-07
1.4817e-07
-8.23443e-07
3.03541e-07
3.26286e-07
-9.60291e-07
3.3945e-07
4.74833e-07
-8.47987e-07
3.14324e-07
5.63463e-07
-6.98427e-07
3.04408e-07
5.97161e-07
-5.74304e-07
3.0245e-07
5.74032e-07
-4.53512e-07
3.04156e-07
4.95945e-07
-3.46007e-07
3.07716e-07
3.70985e-07
-2.63669e-07
3.13461e-07
2.16394e-07
-2.27769e-07
3.26369e-07
-2.40519e-07
3.38121e-07
2.13258e-07
-1.23356e-06
4.10399e-07
4.49855e-07
-1.43881e-06
4.64854e-07
6.24341e-07
-1.24604e-06
3.95642e-07
7.28095e-07
-1.01086e-06
3.67298e-07
7.60966e-07
-8.15904e-07
3.6781e-07
7.22711e-07
-6.27269e-07
3.74295e-07
6.18066e-07
-4.59473e-07
3.86237e-07
4.59259e-07
-3.32646e-07
4.023e-07
2.65232e-07
-2.68099e-07
4.17632e-07
-2.64877e-07
4.23446e-07
4.79122e-07
-1.95502e-06
6.68283e-07
8.64645e-07
-2.18847e-06
8.36244e-07
1.01578e-06
-1.74705e-06
6.69017e-07
1.05927e-06
-1.33854e-06
5.20644e-07
1.03453e-06
-1.03594e-06
4.79447e-07
9.38322e-07
-7.57362e-07
4.91356e-07
7.65787e-07
-5.03085e-07
5.31e-07
5.39655e-07
-3.21407e-07
5.8452e-07
2.93608e-07
-2.25343e-07
6.19867e-07
-1.92833e-07
6.22062e-07
8.10245e-07
-3.04177e-06
9.41856e-07
1.32267e-06
-3.16587e-06
1.23785e-06
1.42552e-06
-2.35282e-06
1.1285e-06
1.37866e-06
-1.71387e-06
9.14967e-07
1.24003e-06
-1.24507e-06
8.23999e-07
1.03599e-06
-8.64061e-07
8.41867e-07
7.96879e-07
-5.57847e-07
8.55945e-07
5.38383e-07
-3.25474e-07
8.19974e-07
2.80554e-07
-1.885e-07
7.60541e-07
-1.3813e-07
7.20558e-07
9.03154e-07
-4.2421e-06
1.06894e-06
1.376e-06
-4.08825e-06
1.33045e-06
1.52554e-06
-2.97979e-06
1.31349e-06
1.53601e-06
-2.15403e-06
1.14425e-06
1.40042e-06
-1.47402e-06
9.53831e-07
1.14727e-06
-9.54531e-07
7.55323e-07
8.39624e-07
-5.88653e-07
5.11935e-07
5.54888e-07
-3.52468e-07
2.74083e-07
3.1312e-07
-2.04881e-07
1.37331e-07
-1.57734e-07
1.15309e-07
7.58067e-07
-5.10542e-06
7.71209e-07
1.07913e-06
-4.71949e-06
1.08226e-06
1.36442e-06
-3.60883e-06
1.03862e-06
1.68422e-06
-2.82712e-06
7.34393e-07
1.77258e-06
-1.77452e-06
3.33278e-07
1.48395e-06
-7.70751e-07
-4.54447e-08
1.10511e-06
-2.90088e-07
-2.51904e-07
5.53593e-07
-2.13962e-08
-2.23438e-07
1.54616e-07
9.73801e-09
-1.84138e-07
1.38475e-10
-2.36109e-07
4.67063e-07
-5.81281e-06
6.32379e-07
1.17327e-06
-6.05158e-06
1.18916e-06
1.73752e-06
-3.58656e-06
9.27164e-07
1.83417e-06
-1.44639e-06
4.43353e-07
1.24599e-06
-2.84508e-07
1.46782e-07
6.25017e-07
-3.98037e-08
4.39787e-08
2.01452e-07
-3.80179e-09
1.765e-08
2.63846e-08
1.00286e-09
4.98877e-09
2.74086e-09
4.18985e-10
1.1131e-09
1.4405e-10
5.94189e-11
5.57084e-07
-5.24122e-06
1.34947e-06
1.01649e-06
-2.47296e-06
1.04241e-06
4.40282e-07
-1.43694e-07
3.53178e-07
2.94659e-07
-2.16341e-09
2.28122e-08
3.9155e-08
-8.82833e-12
1.02886e-08
3.43164e-09
-5.94271e-11
1.24234e-09
1.04959e-10
-3.50288e-11
1.01046e-10
-2.65389e-10
8.57299e-12
1.26066e-09
-1.01199e-10
1.76769e-10
1.54338e-10
7.20806e-11
-9.09673e-12
4.4888e-07
-8.56996e-08
8.92832e-07
1.34855e-07
-2.68733e-10
1.42266e-07
2.05777e-09
-1.58434e-10
1.1282e-09
-4.45282e-13
-2.3439e-12
-1.61789e-13
-3.77245e-12
-8.05989e-13
4.21764e-13
-5.80928e-11
-1.25714e-12
1.06826e-12
-1.25822e-10
2.94174e-12
1.64747e-13
-1.04943e-10
-9.20162e-12
-3.52178e-12
-1.93275e-11
7.75991e-12
-7.45412e-12
2.23457e-11
-2.87395e-12
-1.19296e-12
-8.63416e-10
5.57331e-10
-6.3486e-12
-2.52747e-10
-5.2156e-12
-2.01249e-12
-1.63239e-10
-1.62275e-12
-3.06587e-12
-6.80363e-13
-1.12044e-12
-3.35351e-12
-1.86814e-13
-1.18233e-12
-9.19907e-12
1.27581e-13
-5.04093e-12
-1.08654e-11
6.20806e-13
-8.34262e-12
-2.4316e-11
5.01839e-12
-6.63002e-12
-5.10707e-11
5.27594e-11
-3.84089e-12
1.0281e-10
-3.57586e-12
-9.56229e-11
-8.52755e-10
-5.70998e-11
-4.21324e-10
-7.69144e-11
-3.05624e-10
-2.81767e-12
-4.37251e-12
-2.35756e-12
-3.74874e-12
-3.87945e-13
-2.02491e-12
-1.72761e-12
-1.04647e-13
-3.11848e-12
-1.93285e-12
8.58863e-13
-1.72432e-12
-3.90202e-12
1.96935e-12
-1.523e-12
-8.01745e-11
8.98617e-12
-6.32687e-12
-1.14242e-10
4.48608e-11
-4.45458e-11
7.4915e-11
-1.69818e-11
-5.25264e-10
-3.8127e-10
-8.49805e-10
-1.81779e-10
7.42796e-11
-3.44541e-10
-7.14006e-12
3.19475e-12
-1.97996e-12
-3.26248e-12
6.98443e-13
-7.47943e-12
-2.41028e-11
1.1038e-11
-1.48022e-11
-2.47483e-11
3.99236e-11
-1.8004e-11
-1.51053e-11
2.45241e-11
-1.54458e-11
-9.74706e-11
2.68954e-11
-5.29455e-11
-8.76347e-11
5.25697e-11
-6.46576e-11
5.87008e-11
-1.94327e-11
-2.27292e-10
-1.3443e-10
-3.73025e-10
-8.45122e-12
7.28654e-11
-2.88892e-10
-2.67586e-12
1.26046e-12
-6.74525e-13
-5.45645e-13
1.96497e-12
-6.83433e-13
-2.4622e-11
3.52098e-11
-5.86216e-12
-8.57722e-11
3.49876e-11
-2.65027e-11
-7.16287e-11
3.58306e-11
-6.57423e-11
-5.63271e-11
5.72973e-11
-7.96495e-11
-5.62268e-11
8.52766e-11
-6.79681e-11
7.15496e-11
-2.12938e-11
-3.09087e-10
1.36062e-10
2.95823e-10
-8.15559e-12
2.28789e-10
-2.9228e-10
-3.91101e-12
1.89887e-12
-3.23699e-12
-6.09707e-12
5.55068e-12
-3.3592e-13
-1.40381e-10
3.02488e-11
2.07911e-11
-3.45415e-11
1.98939e-11
3.69196e-11
-1.98177e-11
6.73923e-12
1.08383e-12
-8.72518e-12
-3.10209e-12
-5.86008e-12
-3.90731e-11
7.06016e-12
-2.28961e-11
8.44221e-11
-5.82469e-12
-1.81987e-10
3.0979e-10
2.69721e-10
-3.01012e-11
4.53683e-10
-2.26167e-10
-9.27285e-12
6.85133e-12
-2.35405e-11
-1.56857e-10
3.67081e-11
-4.15213e-13
-1.37494e-10
1.01521e-10
4.62016e-11
-1.31483e-11
1.31057e-11
5.2219e-11
-1.64775e-12
1.06512e-13
6.04566e-14
-8.71074e-13
5.66786e-14
3.38257e-13
-1.37648e-11
-1.11406e-12
2.63177e-12
-6.93964e-13
4.76534e-12
-1.08034e-11
2.49826e-10
1.63611e-10
-2.30808e-11
8.70269e-10
-1.6737e-10
-6.98882e-12
5.04211e-11
-6.07767e-11
-5.12456e-11
5.47343e-11
-3.67498e-11
-1.08491e-10
8.65674e-11
1.76511e-12
-2.65761e-12
2.43498e-11
3.34161e-11
-1.69949e-12
1.20845e-14
3.87396e-15
-1.52587e-13
2.60114e-13
8.06683e-14
-3.72431e-13
-1.5592e-14
7.10373e-14
-2.55098e-15
6.25836e-14
3.55683e-11
2.80435e-10
1.58754e-10
-2.10878e-11
1.50395e-09
-1.67753e-10
-1.43225e-11
1.19343e-10
-1.29158e-10
-4.81282e-12
9.8792e-11
-1.6725e-10
-2.74169e-11
9.54328e-11
2.01318e-12
-1.02859e-13
1.58569e-11
3.20882e-11
-8.85812e-14
3.27124e-16
7.6227e-17
-3.21811e-15
6.07382e-16
1.0325e-15
-3.47747e-15
6.69028e-18
1.77019e-16
8.48709e-17
3.12422e-16
1.06252e-11
2.11427e-10
2.59275e-10
-1.49024e-11
8.63554e-11
1.4202e-09
-2.62433e-11
-1.1482e-10
1.30886e-10
-7.76969e-12
-1.19893e-10
1.35026e-10
-2.9245e-12
3.05319e-11
3.05098e-10
-9.43286e-16
4.11683e-11
4.48856e-12
-6.11915e-16
1.49683e-18
3.54332e-18
-4.70183e-17
8.57545e-20
4.37077e-18
-4.47745e-17
-1.03969e-18
3.91384e-20
-5.70209e-19
1.03283e-18
1.36259e-07
-2.40095e-07
3.7715e-07
2.87647e-07
-2.74022e-07
4.24802e-07
4.07171e-07
-2.40808e-07
4.13573e-07
4.82187e-07
-1.99571e-07
4.14114e-07
5.13197e-07
-1.644e-07
4.27235e-07
4.98103e-07
-1.32295e-07
4.46926e-07
4.3783e-07
-1.066e-07
4.74781e-07
3.35566e-07
-8.91806e-08
5.06915e-07
1.97891e-07
-8.44017e-08
5.49664e-07
-9.15184e-08
5.70766e-07
1.15228e-07
-4.47368e-07
3.22439e-07
2.50564e-07
-5.24124e-07
3.84132e-07
3.60337e-07
-4.61884e-07
3.67471e-07
4.30587e-07
-3.84105e-07
3.65882e-07
4.61416e-07
-3.18773e-07
3.79586e-07
4.4887e-07
-2.56096e-07
3.98565e-07
3.93907e-07
-2.05989e-07
4.24315e-07
3.04342e-07
-1.76097e-07
4.55096e-07
1.897e-07
-1.76179e-07
4.99723e-07
-1.90744e-07
5.33683e-07
1.38289e-07
-7.05452e-07
4.23336e-07
3.04533e-07
-8.3886e-07
4.87942e-07
4.44925e-07
-7.44739e-07
4.56786e-07
5.32295e-07
-6.12564e-07
4.45498e-07
5.66637e-07
-5.01825e-07
4.5116e-07
5.47061e-07
-3.98816e-07
4.66452e-07
4.73436e-07
-3.14164e-07
4.89516e-07
3.59648e-07
-2.65033e-07
5.16186e-07
2.24758e-07
-2.55643e-07
5.40722e-07
-2.43248e-07
5.42438e-07
1.64609e-07
-1.01699e-06
5.57327e-07
3.796e-07
-1.22938e-06
6.40381e-07
5.60887e-07
-1.11109e-06
5.80703e-07
6.69052e-07
-9.09335e-07
5.55904e-07
7.04882e-07
-7.31423e-07
5.61578e-07
6.70358e-07
-5.66987e-07
5.76991e-07
5.70096e-07
-4.27729e-07
6.00065e-07
4.18552e-07
-3.35001e-07
6.23812e-07
2.48032e-07
-2.77431e-07
6.0994e-07
-2.0132e-07
5.43991e-07
3.1529e-07
-1.44704e-06
7.83043e-07
6.67995e-07
-1.72821e-06
9.82366e-07
8.70758e-07
-1.51252e-06
8.67685e-07
9.44221e-07
-1.19737e-06
7.35216e-07
9.4583e-07
-9.4541e-07
6.91826e-07
8.85494e-07
-7.20758e-07
7.05462e-07
7.37787e-07
-4.94519e-07
7.45497e-07
5.0979e-07
-3.08161e-07
7.85676e-07
2.71649e-07
-1.6314e-07
7.43717e-07
-1.28312e-08
6.24771e-07
6.31218e-07
-2.09324e-06
9.56842e-07
1.16048e-06
-2.34768e-06
1.32806e-06
1.38208e-06
-1.93401e-06
1.32839e-06
1.41844e-06
-1.4681e-06
1.14933e-06
1.35119e-06
-1.10052e-06
1.04636e-06
1.20182e-06
-7.73748e-07
1.04423e-06
9.56647e-07
-4.60966e-07
1.06757e-06
6.23888e-07
-2.01063e-07
1.04563e-06
2.9251e-07
-2.93609e-08
9.5814e-07
9.37448e-08
8.48363e-07
8.34606e-07
-2.94869e-06
1.0898e-06
1.34432e-06
-2.99001e-06
1.46312e-06
1.59879e-06
-2.42019e-06
1.54525e-06
1.72639e-06
-1.85915e-06
1.40773e-06
1.69317e-06
-1.33756e-06
1.22412e-06
1.49559e-06
-9.00302e-07
1.07948e-06
1.15511e-06
-5.52661e-07
9.44089e-07
7.35165e-07
-2.7903e-07
7.71944e-07
3.65839e-07
-1.50277e-07
6.30638e-07
-7.42555e-08
5.68348e-07
6.7167e-07
-3.82576e-06
9.77327e-07
1.06392e-06
-3.64326e-06
1.34492e-06
1.37865e-06
-3.03103e-06
1.33629e-06
1.68491e-06
-2.52471e-06
1.09505e-06
1.72051e-06
-1.62846e-06
7.07052e-07
1.47202e-06
-8.22539e-07
3.60736e-07
1.07498e-06
-3.3147e-07
1.26738e-07
4.76095e-07
-9.75116e-09
2.5162e-08
1.2132e-07
-2.15049e-08
7.74797e-08
-2.83336e-09
4.33864e-08
2.66621e-07
-4.68506e-06
1.65089e-06
9.47758e-07
-3.67593e-06
1.79545e-06
1.31201e-06
-2.11262e-06
1.33287e-06
1.36017e-06
-9.63865e-07
8.13508e-07
1.00274e-06
-7.9852e-08
4.32757e-07
5.82842e-07
-4.84732e-09
2.22852e-07
2.49882e-07
-1.88565e-09
5.39525e-08
2.22031e-08
1.78906e-09
-6.75179e-09
1.7633e-09
4.94383e-10
-8.90762e-10
5.85981e-11
-1.01035e-09
3.58783e-07
-8.07412e-07
8.80106e-07
3.57158e-07
-1.58527e-07
4.6429e-07
2.05766e-07
-2.58058e-09
2.33428e-07
7.58427e-08
-2.67496e-12
5.06496e-08
3.79861e-09
-9.63427e-12
2.49044e-09
6.65529e-11
-2.72118e-11
1.46149e-10
-1.7867e-09
-1.09122e-12
4.58116e-11
-6.01941e-10
6.19733e-11
1.76958e-09
-4.62848e-11
-1.07317e-11
6.64017e-11
6.19994e-12
-2.59726e-11
2.1665e-08
-6.97061e-10
6.83944e-08
1.44954e-09
-1.48866e-10
4.11148e-09
-5.73702e-13
-1.59925e-12
-4.38239e-13
-1.54387e-12
-1.13646e-12
-7.14005e-13
-1.03284e-11
-6.12272e-13
3.93899e-13
-5.06546e-11
7.05837e-14
2.29794e-12
-2.15855e-10
1.1087e-11
7.47597e-12
-6.00529e-11
-1.49221e-11
2.42896e-11
-8.78368e-12
-3.39309e-13
-2.64387e-13
1.43252e-12
-1.24325e-11
-2.49424e-12
-1.38494e-10
-6.95883e-13
-1.70253e-12
-1.48165e-10
-6.08801e-12
-2.26477e-12
-4.40831e-13
-2.53512e-12
-2.33545e-12
-6.39689e-13
-1.68908e-12
-3.4278e-12
-1.69866e-13
-6.58837e-13
-3.02291e-11
-5.6239e-13
-1.99814e-12
-1.85634e-11
1.11162e-13
-1.25261e-12
-6.56042e-12
-1.69568e-12
4.0227e-16
-8.97911e-12
-2.17513e-12
-2.00491e-14
-6.79401e-12
-1.92009e-13
-1.54682e-10
-2.39227e-10
-6.26048e-12
-2.78874e-12
-1.5685e-11
-6.77166e-12
-4.30962e-12
-7.10814e-13
-1.67193e-12
-3.49247e-12
-3.17775e-12
-1.49109e-12
-3.33577e-12
-1.04525e-12
-1.68602e-12
-3.31493e-12
9.2988e-13
-9.43388e-12
-2.60575e-12
-1.07674e-12
-4.25925e-12
-2.40031e-11
-7.34563e-13
1.82159e-12
-4.40041e-11
-2.4973e-11
-4.6971e-12
-9.41685e-12
-2.7591e-12
-2.04505e-10
-2.46362e-10
-7.16496e-12
-8.93532e-12
7.03547e-11
-5.57905e-12
-7.79417e-12
-2.60776e-13
-1.41877e-12
-1.29691e-11
-1.22858e-12
-3.1821e-12
-1.17182e-11
-2.175e-12
-5.189e-12
-8.2687e-12
-2.15083e-12
-7.48552e-12
-5.46686e-12
-2.49847e-11
-2.24757e-12
-5.69023e-11
-2.57654e-11
3.72839e-12
-7.37663e-11
-1.91403e-11
-2.37266e-11
-5.75988e-12
-7.00492e-13
3.30497e-10
-3.24303e-10
-3.65828e-11
-5.21907e-12
2.57105e-10
-5.01781e-11
-2.0044e-12
2.73247e-13
-1.17473e-12
-1.03878e-12
-2.93376e-13
-2.7874e-12
-1.6546e-11
-1.96742e-12
-1.18876e-11
-3.06776e-11
-3.3543e-12
-5.58039e-12
-2.5519e-11
-2.93783e-11
-1.08313e-11
-4.0088e-11
-2.89533e-12
-6.1905e-11
-5.89894e-11
1.05751e-11
-5.98529e-11
4.97005e-12
-1.34409e-13
1.48693e-10
-2.22145e-10
-2.79521e-11
9.42315e-12
1.85031e-10
-2.77502e-11
-1.4309e-12
1.1802e-11
-2.61763e-13
-1.73888e-12
3.46315e-12
-4.21526e-13
-5.49565e-11
4.07839e-11
-1.0432e-11
-6.31823e-11
2.79413e-12
-1.28669e-11
-1.88983e-11
-3.18964e-12
-2.00521e-11
-3.15697e-11
-4.52142e-13
-2.30017e-11
-3.26531e-11
1.87737e-11
-3.35045e-11
6.44078e-12
-3.49326e-13
8.8947e-11
-1.72452e-11
-5.5788e-12
9.00573e-11
7.33667e-11
-1.23133e-12
2.74797e-12
3.04173e-10
-2.33865e-11
-1.04182e-11
7.69092e-11
-5.62477e-11
-9.68626e-11
1.48383e-10
-9.24295e-12
-3.17311e-11
8.60918e-11
-1.37092e-12
-4.01586e-12
8.66261e-14
-2.05928e-13
-8.39285e-12
-3.76355e-13
-3.56991e-13
-4.60209e-12
-2.31169e-14
-7.80638e-13
-1.37093e-14
-1.93962e-13
8.10371e-11
5.19909e-12
-8.01854e-14
2.11903e-10
7.32993e-11
-5.97496e-14
2.06993e-10
1.02249e-09
-4.26713e-10
-9.18872e-12
8.63489e-10
-4.09319e-10
-9.71122e-11
1.86029e-10
-1.80552e-11
-1.57607e-11
1.28914e-10
4.06153e-12
-6.82299e-13
1.97597e-13
-2.03853e-16
-9.46248e-14
-4.43625e-14
5.62959e-16
-4.94568e-14
7.63543e-16
3.95786e-16
3.33854e-17
-1.30683e-15
9.3008e-11
1.51245e-11
-7.45162e-15
3.98776e-10
1.88484e-10
-1.33647e-14
3.27075e-10
7.00283e-10
-4.76146e-10
-4.27654e-12
1.16604e-09
-6.20445e-10
-8.25875e-11
2.30275e-10
-8.25901e-11
-2.02764e-13
1.39346e-10
3.47552e-11
-6.71798e-15
1.44915e-15
4.05609e-16
-1.18409e-15
2.18617e-17
-2.77227e-17
-3.01005e-16
2.09545e-17
-2.22804e-17
7.34254e-18
-2.95143e-17
1.86493e-10
-4.38357e-15
4.25001e-11
2.65121e-10
-5.63532e-16
4.77021e-10
9.28289e-11
-1.63637e-10
1.95703e-10
-1.04965e-11
-5.34978e-10
9.50113e-10
-5.10084e-11
-4.3587e-11
2.26901e-10
-1.48086e-15
5.29095e-11
6.46405e-11
-4.60098e-17
5.49073e-18
1.1468e-17
-2.25481e-17
5.29473e-20
1.45977e-19
-4.02292e-18
-4.84553e-19
2.59939e-19
-2.74526e-18
1.08317e-18
1.32227e-07
-1.91304e-07
4.36226e-07
2.85169e-07
-2.27708e-07
4.99569e-07
4.07962e-07
-1.98366e-07
4.89146e-07
4.85833e-07
-1.57859e-07
4.94104e-07
5.21056e-07
-1.23279e-07
5.15291e-07
5.10894e-07
-8.99663e-08
5.47055e-07
4.56607e-07
-5.96082e-08
5.88677e-07
3.61424e-07
-3.47208e-08
6.36819e-07
2.23302e-07
-1.8523e-08
7.06309e-07
-3.67243e-09
7.3504e-07
1.10219e-07
-3.5809e-07
3.79006e-07
2.46576e-07
-4.35293e-07
4.5536e-07
3.58938e-07
-3.81182e-07
4.37925e-07
4.31832e-07
-3.05038e-07
4.40166e-07
4.65721e-07
-2.38311e-07
4.60729e-07
4.57571e-07
-1.72598e-07
4.89348e-07
4.13275e-07
-1.1824e-07
5.27243e-07
3.3946e-07
-8.12247e-08
5.75415e-07
2.33112e-07
-5.67501e-08
6.44299e-07
-5.90144e-09
6.81706e-07
1.33297e-07
-5.57572e-07
4.89521e-07
2.96726e-07
-6.83295e-07
5.72516e-07
4.35152e-07
-6.04763e-07
5.4194e-07
5.24463e-07
-4.83917e-07
5.35066e-07
5.63773e-07
-3.77388e-07
5.50927e-07
5.49352e-07
-2.74099e-07
5.82374e-07
4.82022e-07
-1.87119e-07
6.25725e-07
3.68978e-07
-1.20879e-07
6.68884e-07
2.36399e-07
-4.44199e-08
6.60971e-07
9.95462e-08
5.64218e-07
1.53107e-07
-7.95322e-07
6.4197e-07
3.53557e-07
-9.83801e-07
7.40437e-07
5.37282e-07
-8.93871e-07
6.86087e-07
6.52599e-07
-7.14481e-07
6.7115e-07
6.93268e-07
-5.4288e-07
6.86401e-07
6.61318e-07
-3.82159e-07
7.17001e-07
5.54471e-07
-2.43242e-07
7.63036e-07
3.84061e-07
-1.11342e-07
7.84684e-07
2.26837e-07
7.1338e-08
6.51406e-07
3.01531e-07
4.15428e-07
2.29342e-07
-1.09817e-06
8.56547e-07
5.0063e-07
-1.30833e-06
1.03561e-06
7.11905e-07
-1.18073e-06
9.43274e-07
8.33569e-07
-9.56097e-07
8.55167e-07
8.80016e-07
-7.49201e-07
8.517e-07
8.41716e-07
-5.38638e-07
9.00241e-07
6.86695e-07
-2.98913e-07
9.56189e-07
4.35046e-07
-2.3981e-08
9.49965e-07
2.33226e-07
2.87275e-07
7.29601e-07
5.72596e-07
4.26194e-07
4.76711e-07
-1.55517e-06
9.37134e-07
8.92214e-07
-1.70088e-06
1.3051e-06
1.13658e-06
-1.46459e-06
1.36789e-06
1.2381e-06
-1.15053e-06
1.24225e-06
1.24045e-06
-8.65026e-07
1.15983e-06
1.149e-06
-5.53234e-07
1.15026e-06
9.15742e-07
-1.61494e-07
1.16341e-06
5.68876e-07
2.25511e-07
1.14301e-06
2.50699e-07
5.61321e-07
1.00227e-06
7.92836e-07
7.73643e-07
6.94186e-07
-2.16852e-06
1.00899e-06
1.13004e-06
-2.15435e-06
1.48078e-06
1.40146e-06
-1.8595e-06
1.66878e-06
1.57432e-06
-1.48359e-06
1.56794e-06
1.64131e-06
-1.10658e-06
1.39871e-06
1.5948e-06
-7.02291e-07
1.27505e-06
1.31844e-06
-1.31226e-07
1.19018e-06
8.45361e-07
3.15575e-07
1.15496e-06
3.80533e-07
5.05454e-07
1.15133e-06
6.07359e-07
1.05154e-06
3.68979e-07
-2.84857e-06
1.28945e-06
7.5256e-07
-2.8703e-06
1.67907e-06
1.10589e-06
-2.52791e-06
1.65274e-06
1.44619e-06
-2.15369e-06
1.44815e-06
1.52263e-06
-1.4474e-06
1.1327e-06
1.40125e-06
-8.4497e-07
8.64869e-07
1.05642e-06
-2.80668e-07
7.05768e-07
6.45561e-07
-3.38492e-08
6.95907e-07
2.20791e-07
1.37602e-08
8.86673e-07
-3.68885e-08
9.53391e-07
-5.88093e-08
-2.40021e-06
2.14195e-06
4.8528e-07
-1.51627e-06
1.94338e-06
8.20487e-07
-9.75339e-07
1.43703e-06
1.02049e-06
-9.27539e-08
1.04654e-06
9.33007e-07
-5.83255e-09
7.43883e-07
7.00439e-07
-3.46176e-10
5.14669e-07
3.62782e-07
-2.08145e-10
2.9848e-07
9.79957e-08
-3.3576e-09
1.09609e-07
6.14933e-09
1.90663e-09
4.58792e-09
3.08334e-11
-3.19461e-08
1.95738e-07
-6.52979e-08
2.76771e-07
2.53685e-08
-4.86935e-09
3.1362e-07
4.94059e-08
-9.53012e-12
8.66986e-08
3.679e-09
-1.57528e-11
3.63882e-09
2.12494e-10
-2.39547e-12
1.28417e-10
4.83968e-12
-1.29366e-12
8.92889e-12
-1.71266e-10
-2.65768e-12
9.75416e-12
-1.89102e-09
-2.6042e-11
1.33837e-10
-2.47911e-10
2.97443e-12
2.75863e-10
-5.63389e-11
-2.2592e-10
7.13209e-10
-5.54141e-12
2.38643e-09
-8.54963e-14
-3.83785e-11
2.16971e-12
-5.31587e-13
-1.88782e-12
-8.05364e-12
-8.46376e-13
-1.95727e-12
-1.3985e-11
-9.55967e-13
1.2938e-14
-1.43484e-12
-6.61659e-12
2.10446e-12
1.57776e-12
-7.34193e-11
2.7529e-11
7.01551e-12
-3.3607e-11
4.39529e-12
1.27032e-11
-2.38787e-11
-4.40534e-12
2.20616e-12
-7.75241e-12
-2.96106e-11
-1.61982e-12
-3.44636e-12
-3.74113e-12
-1.79584e-12
-2.98733e-12
-4.22605e-11
-1.92296e-12
-4.60545e-13
-8.51155e-12
-1.98408e-12
-2.48539e-13
-1.80831e-12
-4.16116e-13
2.31828e-13
8.61965e-13
-1.7326e-11
6.14871e-12
8.53873e-13
-9.02372e-12
1.57527e-11
9.31996e-13
-2.36428e-12
6.57939e-13
6.20652e-12
-1.14881e-12
-9.89684e-13
1.2893e-12
-6.80571e-13
-3.71791e-13
-4.27211e-12
5.30805e-13
-1.46298e-11
-1.90655e-12
-2.09046e-13
-1.66621e-11
-2.49324e-12
-7.58277e-13
-1.32095e-12
-2.10347e-12
-1.01217e-12
-1.1866e-12
-2.50707e-12
-5.03968e-13
-4.67712e-13
-4.24275e-11
1.65985e-13
-2.39808e-12
-2.06071e-11
1.1007e-11
-7.23721e-11
-1.22739e-12
-1.31784e-12
-2.82739e-11
-3.71387e-13
-2.35221e-12
-2.85012e-12
-5.08091e-14
-3.03946e-12
-6.92233e-13
1.3559e-12
-6.8088e-12
-1.70187e-12
8.1777e-13
-5.15733e-12
-2.68489e-12
-4.27085e-13
-3.70626e-13
-1.95019e-12
-2.62182e-12
1.95136e-13
-2.45005e-12
-2.59095e-12
-1.26651e-12
-2.02843e-11
-2.96731e-13
-2.19433e-12
-1.95588e-11
-4.43703e-13
-1.00051e-10
-2.78203e-12
-1.09634e-12
-5.38932e-11
-6.31694e-14
-9.66214e-12
-1.90915e-11
-1.05684e-14
-4.77937e-13
1.7408e-11
4.75315e-11
-1.62534e-11
-1.32354e-12
1.64706e-11
-1.85864e-11
-4.86583e-12
8.69544e-13
-6.96832e-13
-7.43377e-12
5.53737e-13
9.69741e-13
-1.24321e-12
-1.00638e-11
-1.6498e-12
-1.30918e-12
-4.67361e-12
-1.59921e-12
-4.51774e-12
-9.85445e-13
-9.29818e-12
-5.36176e-12
2.90348e-13
-1.29551e-11
-9.44056e-15
-2.40534e-12
-7.84582e-12
-6.74241e-15
-1.65528e-13
1.0634e-11
5.75224e-12
-1.04002e-12
6.93865e-13
1.11061e-12
-2.25677e-12
4.68924e-14
3.24362e-12
-2.62721e-13
-1.18837e-11
1.41529e-11
-1.21609e-12
-1.47122e-11
3.66035e-13
-8.22873e-13
-1.14614e-11
-3.22381e-13
-2.03517e-12
-1.42494e-11
1.7503e-12
-3.8821e-12
-8.31618e-12
5.38306e-12
-8.40319e-12
-5.24749e-14
2.45658e-12
-4.16903e-12
-6.43717e-16
-4.02918e-13
1.75994e-13
7.74844e-14
-8.24492e-14
1.16163e-13
4.5647e-14
-9.07851e-14
4.98582e-11
3.66658e-10
-7.80241e-11
-2.194e-12
6.01489e-10
-9.65309e-11
-1.51635e-11
8.55231e-12
-6.45394e-15
-2.3908e-12
5.2499e-12
-5.23169e-13
-3.85799e-12
2.42984e-13
-2.50482e-13
-1.85555e-12
2.74713e-14
-6.12267e-13
-4.55298e-14
4.39643e-14
-4.08133e-13
2.9283e-15
-2.42997e-13
2.45788e-15
1.19023e-15
-8.23464e-15
3.88229e-13
1.12539e-14
-4.13354e-13
4.98057e-10
7.96607e-10
-7.15346e-10
5.08778e-12
1.1873e-09
-4.14611e-10
-1.59796e-11
2.40405e-10
-1.16281e-15
-3.0693e-13
3.30629e-12
-3.18018e-14
-6.71421e-14
6.33189e-15
-3.43982e-15
-2.60768e-14
5.52419e-16
-1.45408e-14
-1.07281e-15
3.09445e-16
1.78996e-14
4.60402e-16
-7.0184e-16
7.48267e-16
4.17026e-16
-9.43744e-15
6.63646e-14
2.59492e-15
-7.24182e-14
3.52152e-10
4.81255e-10
-8.93624e-10
-2.45152e-11
1.40685e-09
-3.67798e-10
-3.75753e-11
1.33026e-09
-4.43821e-12
-7.64417e-15
5.51767e-13
1.46938e-13
-9.47662e-16
7.53724e-17
-3.67553e-17
-3.53892e-16
1.50007e-18
-1.02098e-16
-4.67391e-17
-4.24393e-17
-9.19903e-17
6.24776e-17
-2.26496e-16
7.02181e-16
-7.21014e-15
4.45374e-16
7.76243e-16
-1.14043e-15
1.00171e-15
2.02925e-10
-3.70013e-10
2.13022e-10
-7.72473e-11
-3.57565e-10
1.6237e-09
-1.6515e-10
3.7589e-11
1.43568e-09
-8.95802e-17
2.02421e-12
6.24059e-12
-9.04292e-18
-2.50292e-19
4.47232e-19
-3.25092e-18
-9.44286e-18
9.34174e-20
-4.74892e-18
-1.2214e-16
5.17785e-19
-1.88069e-16
1.18634e-17
1.29697e-07
-1.44309e-07
4.50838e-07
2.89947e-07
-1.88212e-07
5.27531e-07
4.21114e-07
-1.62083e-07
5.20063e-07
5.07526e-07
-1.22036e-07
5.29728e-07
5.49289e-07
-8.73606e-08
5.60887e-07
5.47798e-07
-5.28204e-08
6.01366e-07
5.02389e-07
-1.89231e-08
6.5301e-07
4.12889e-07
1.43522e-08
7.11967e-07
2.64354e-07
5.49171e-08
7.99927e-07