/*--------------------------------*- C++ -*----------------------------------*\
| =========                 |                                                 |
| \\      /  F ield         | OpenFOAM: The Open Source CFD Toolbox           |
|  \\    /   O peration     | Version:  2312                                  |
|   \\  /    A nd           | Website:  www.openfoam.com                      |
|    \\/     M anipulation  |                                                 |
\*---------------------------------------------------------------------------*/
FoamFile
{
    version     2.0;
    format      ascii;
    arch        "LSB;label=32;scalar=64";
    class       surfaceScalarField;
    location    "0.545";
    object      phi;
}
// * * * * * * * * * * * * * * * * * * * * * * * * * * * * * * * * * * * * * //

dimensions      [0 3 -1 0 0 0 0];

oriented        oriented;

internalField   nonuniform List<scalar> 
22600
(
1.38053e-07
-2.78366e-07
1.40313e-07
2.76449e-07
-2.86601e-07
1.48205e-07
3.82459e-07
-2.47311e-07
1.41301e-07
4.438e-07
-1.97634e-07
1.36294e-07
4.60786e-07
-1.49528e-07
1.32543e-07
4.33887e-07
-1.00496e-07
1.27395e-07
3.68069e-07
-5.52983e-08
1.21116e-07
2.73998e-07
-1.79783e-08
1.12049e-07
1.5866e-07
1.08244e-08
1.04515e-07
2.51069e-08
9.6739e-08
1.15485e-07
-5.11596e-07
1.17745e-07
2.354e-07
-5.36162e-07
1.29646e-07
3.30166e-07
-4.63154e-07
1.21077e-07
3.89899e-07
-3.72193e-07
1.14826e-07
4.11619e-07
-2.81843e-07
1.10594e-07
3.93871e-07
-1.87594e-07
1.04847e-07
3.41104e-07
-1.0023e-07
9.76982e-08
2.58852e-07
-2.54373e-08
8.97114e-08
1.54308e-07
3.09932e-08
8.4376e-08
5.96007e-08
7.90384e-08
1.48807e-07
-8.13277e-07
1.52874e-07
3.07924e-07
-8.54483e-07
1.59204e-07
4.32314e-07
-7.33814e-07
1.4627e-07
5.04276e-07
-5.82871e-07
1.38716e-07
5.26115e-07
-4.35973e-07
1.32291e-07
4.97762e-07
-2.85291e-07
1.2605e-07
4.2531e-07
-1.46778e-07
1.19001e-07
3.17486e-07
-2.91979e-08
1.11585e-07
1.85345e-07
5.7382e-08
1.05753e-07
9.89903e-08
1.02901e-07
2.14221e-07
-1.25063e-06
2.23133e-07
4.14448e-07
-1.28672e-06
2.3201e-07
5.6551e-07
-1.06274e-06
1.77861e-07
6.57792e-07
-8.37046e-07
1.61894e-07
6.80419e-07
-6.19351e-07
1.6075e-07
6.38584e-07
-4.05891e-07
1.62436e-07
5.42841e-07
-2.18007e-07
1.66972e-07
4.03818e-07
-6.25776e-08
1.72402e-07
2.33243e-07
4.7173e-08
1.80785e-07
9.92342e-08
1.88484e-07
4.40873e-07
-2.13213e-06
4.40624e-07
6.95998e-07
-2.02943e-06
4.87581e-07
8.12548e-07
-1.51069e-06
3.31405e-07
8.90843e-07
-1.15924e-06
2.43898e-07
8.89947e-07
-8.57012e-07
2.38556e-07
8.03585e-07
-5.86047e-07
2.66518e-07
6.50042e-07
-3.7837e-07
3.13906e-07
4.59988e-07
-2.39421e-07
3.66898e-07
2.56965e-07
-1.62862e-07
4.13057e-07
-1.14875e-07
4.37362e-07
7.18678e-07
-3.53341e-06
6.82604e-07
1.01885e-06
-3.11973e-06
7.9013e-07
1.03824e-06
-2.1725e-06
6.42423e-07
1.01287e-06
-1.64002e-06
5.06148e-07
9.1223e-07
-1.23847e-06
4.82093e-07
7.51198e-07
-9.55056e-07
5.30041e-07
5.60661e-07
-7.44354e-07
5.56522e-07
3.64786e-07
-5.92939e-07
5.49392e-07
1.97184e-07
-5.25679e-07
5.3042e-07
-4.58126e-07
5.11816e-07
7.80834e-07
-5.10403e-06
7.89783e-07
1.06089e-06
-4.29758e-06
8.97797e-07
1.10771e-06
-3.06983e-06
8.50512e-07
1.04237e-06
-2.29876e-06
7.24089e-07
8.81508e-07
-1.66791e-06
5.90299e-07
6.96526e-07
-1.17727e-06
4.07199e-07
5.17898e-07
-7.33608e-07
1.67882e-07
3.36889e-07
-3.6714e-07
-4.47902e-08
1.94621e-07
-2.42008e-07
-1.41402e-07
-1.90219e-07
-1.66793e-07
5.45831e-07
-6.32839e-06
6.78528e-07
6.3022e-07
-5.16059e-06
7.7862e-07
9.28176e-07
-4.06842e-06
7.00634e-07
1.31618e-06
-3.07661e-06
3.89836e-07
1.57465e-06
-1.93377e-06
7.39407e-09
1.68088e-06
-9.20619e-07
-3.6289e-07
1.77119e-06
-2.48306e-07
-5.75613e-07
1.52062e-06
4.44599e-07
-5.61167e-07
8.78442e-07
1.03902e-06
-6.38851e-07
1.47515e-06
-7.81768e-07
2.21448e-07
-6.94679e-06
3.96954e-07
5.62476e-07
-6.00966e-06
5.08039e-07
1.91172e-06
-5.74727e-06
3.29606e-07
3.89557e-06
-5.04329e-06
-1.71738e-08
5.46028e-06
-3.30765e-06
-1.90828e-07
6.22578e-06
-1.40008e-06
-2.86032e-07
7.06502e-06
-1.09984e-06
1.22961e-08
7.37269e-06
-1.33466e-06
1.47159e-06
4.28627e-06
2.49342e-06
1.63201e-06
6.29544e-06
5.2294e-07
2.61987e-07
-7.57271e-06
3.63935e-07
1.92329e-06
-8.42659e-06
7.55632e-07
5.0596e-06
-9.6529e-06
7.69312e-07
8.47111e-06
-9.60106e-06
1.14626e-06
9.48064e-06
-5.70776e-06
1.39059e-06
8.69188e-06
-2.15339e-06
1.54207e-06
6.43019e-06
-3.97747e-07
1.55959e-06
3.20821e-06
5.24641e-07
1.36268e-06
1.49731e-08
5.03858e-06
6.48078e-07
8.57741e-06
-3.19121e-08
9.90769e-07
-9.72408e-06
1.16061e-06
4.59351e-06
-1.38181e-05
1.78872e-06
3.95861e-06
-9.76231e-06
7.44303e-07
1.87752e-06
-7.22042e-06
-2.99538e-07
-2.21595e-07
-3.82749e-06
2.1885e-07
-2.64099e-06
-2.3918e-07
5.05186e-07
-4.12411e-06
5.13641e-07
5.71735e-07
-5.24622e-06
2.29462e-06
-6.47869e-07
-3.95928e-06
4.61162e-06
-8.59975e-07
7.48538e-06
-9.33997e-07
1.3494e-06
-1.2848e-05
1.77448e-06
-6.37586e-08
-1.11674e-05
-1.23745e-06
-1.3762e-06
-6.22736e-06
-2.2225e-06
-5.15587e-06
-1.7697e-06
-1.67104e-06
-7.29937e-06
4.48273e-07
-2.13227e-06
-6.51341e-06
9.02721e-07
-1.92786e-06
-5.92265e-06
1.85157e-06
-1.92869e-06
-5.01337e-06
3.22127e-06
-1.83592e-06
-3.61978e-06
4.69674e-06
-1.4787e-06
6.23589e-06
-9.69013e-07
-2.27864e-06
-8.69494e-06
-1.87438e-06
-3.87812e-06
-4.38529e-06
-5.18266e-06
-5.50068e-06
-9.40135e-07
-3.66466e-06
-6.69567e-06
2.02923e-06
-2.60394e-06
-6.56058e-06
3.25154e-06
-2.93836e-06
-5.84177e-06
3.39689e-06
-3.21298e-06
-4.71688e-06
3.77131e-06
-3.04463e-06
-3.44415e-06
4.28811e-06
-2.33957e-06
-2.3107e-06
4.90073e-06
-1.33743e-06
5.58107e-06
-6.57569e-07
-3.36001e-06
-2.42959e-06
-2.90534e-06
-3.3302e-06
1.96168e-08
-4.43472e-06
-4.62369e-06
2.28913e-06
-1.93578e-06
-5.93771e-06
4.76735e-06
-1.4241e-06
-5.66564e-06
5.05415e-06
-2.07468e-06
-4.81723e-06
5.01847e-06
-2.46999e-06
-3.67915e-06
5.26053e-06
-2.62729e-06
-2.41422e-06
5.32067e-06
-2.29749e-06
-1.41223e-06
5.28566e-06
-1.38693e-06
5.38958e-06
-6.68077e-07
-2.98588e-06
1.45053e-06
-8.94227e-07
-2.83917e-06
3.31638e-06
-3.44348e-06
-4.2409e-06
4.57938e-06
-8.88512e-07
-5.12718e-06
5.66515e-06
-1.15246e-08
-4.54783e-06
4.66206e-06
-1.87268e-07
-3.83567e-06
4.79598e-06
-4.89666e-07
-3.00035e-06
5.40339e-06
-9.7819e-07
-1.89125e-06
5.50767e-06
-1.2961e-06
-9.00097e-07
5.44178e-06
-1.14728e-06
5.28786e-06
-5.81106e-07
-3.19145e-06
3.7777e-06
8.64274e-07
-3.18185e-06
6.17537e-06
-2.86858e-06
-4.09833e-06
6.19676e-06
-7.00901e-07
-4.37372e-06
5.21894e-06
7.21601e-07
-3.48301e-06
2.48982e-06
1.28152e-06
-2.86659e-06
3.08403e-06
1.09552e-06
-2.27165e-06
4.34991e-06
4.58539e-07
-1.4287e-06
4.72939e-06
-6.46713e-08
-6.0309e-07
4.87752e-06
-2.61343e-07
4.75217e-06
-6.87849e-08
-3.01749e-06
5.15918e-06
1.636e-06
-3.19284e-06
8.84965e-06
-2.49893e-06
-3.55474e-06
7.86134e-06
-1.30268e-06
-3.66258e-06
5.11736e-06
2.09413e-07
-3.17954e-06
6.52872e-07
1.3539e-06
-2.61534e-06
1.02276e-06
1.49708e-06
-1.81985e-06
2.39605e-06
1.15837e-06
-1.09545e-06
3.0259e-06
9.79081e-07
-4.44623e-07
3.45634e-06
7.70344e-07
3.5484e-06
7.07643e-07
-2.36573e-06
5.13369e-06
2.39121e-06
-2.74881e-06
1.12401e-05
-2.00737e-06
-2.42297e-06
9.64269e-06
-2.1072e-06
-1.88105e-06
5.72627e-06
-1.15084e-06
-2.1588e-06
1.8416e-08
9.12208e-07
-2.36146e-06
1.45015e-07
1.08039e-06
-1.73044e-06
1.13019e-06
6.34829e-07
-1.10395e-06
1.68186e-06
7.17545e-07
-5.40624e-07
2.1242e-06
7.68805e-07
2.32691e-06
7.17489e-07
-1.69699e-06
3.88895e-06
2.94174e-06
-2.21922e-06
1.26623e-05
-8.99962e-07
-1.31492e-06
1.10991e-05
-2.36066e-06
-1.05577e-07
6.19677e-06
-1.67984e-06
-9.24047e-07
-7.21671e-08
9.0905e-07
-1.68298e-06
6.1027e-08
8.42931e-07
-1.42714e-06
7.53107e-07
1.21244e-07
-1.03505e-06
1.14212e-06
1.4765e-07
-5.53489e-07
1.43729e-06
2.05352e-07
1.57287e-06
2.27039e-07
-1.52286e-06
3.08214e-06
2.32967e-06
-1.75696e-06
1.30527e-06
1.15911e-05
-2.9349e-07
-1.56811e-06
1.12037e-05
1.16585e-06
-7.07122e-07
5.44455e-06
-3.9755e-07
1.30604e-06
1.85185e-07
-1.19032e-06
6.97328e-07
1.56482e-07
-1.10028e-06
3.90341e-08
6.24026e-07
-8.24174e-07
-2.12566e-08
8.87281e-07
-4.28935e-07
-4.21103e-08
1.08416e-06
-3.41411e-08
1.15697e-06
1.45919e-07
-2.86561e-07
2.80954e-07
3.04924e-07
-3.20369e-07
3.09569e-07
4.2967e-07
-2.81947e-07
2.98502e-07
5.06232e-07
-2.345e-07
2.94231e-07
5.35934e-07
-1.93956e-07
2.96796e-07
5.1759e-07
-1.5505e-07
3.00789e-07
4.51791e-07
-1.20637e-07
3.07552e-07
3.43892e-07
-9.38061e-08
3.13755e-07
2.00774e-07
-7.71696e-08
3.24803e-07
-7.44235e-08
3.27916e-07
1.27108e-07
-5.35825e-07
2.39901e-07
2.72719e-07
-6.14649e-07
2.78315e-07
3.90156e-07
-5.4203e-07
2.63723e-07
4.64471e-07
-4.51247e-07
2.57258e-07
4.9545e-07
-3.7395e-07
2.5961e-07
4.80051e-07
-2.98538e-07
2.63734e-07
4.19357e-07
-2.3186e-07
2.69616e-07
3.18504e-07
-1.79978e-07
2.76737e-07
1.87638e-07
-1.5225e-07
2.90324e-07
-1.56801e-07
3.0108e-07
1.53208e-07
-8.51915e-07
3.15756e-07
3.37993e-07
-9.91225e-07
3.50995e-07
4.91433e-07
-8.72842e-07
3.23642e-07
5.83082e-07
-7.15358e-07
3.11179e-07
6.17808e-07
-5.82951e-07
3.06565e-07
5.93951e-07
-4.54183e-07
3.05551e-07
5.13284e-07
-3.38902e-07
3.06709e-07
3.83886e-07
-2.49561e-07
3.10565e-07
2.23323e-07
-2.08134e-07
3.22199e-07
-2.17767e-07
3.33321e-07
2.22766e-07
-1.28137e-06
4.29822e-07
4.71104e-07
-1.49286e-06
4.85303e-07
6.50864e-07
-1.28539e-06
4.10649e-07
7.56875e-07
-1.03585e-06
3.76376e-07
7.9022e-07
-8.27915e-07
3.72369e-07
7.50634e-07
-6.27213e-07
3.75052e-07
6.42416e-07
-4.47567e-07
3.83854e-07
4.77592e-07
-3.0995e-07
3.97616e-07
2.75298e-07
-2.36612e-07
4.11557e-07
-2.28129e-07
4.16995e-07
4.95681e-07
-2.03459e-06
6.9816e-07
8.998e-07
-2.27908e-06
8.6969e-07
1.05677e-06
-1.80772e-06
6.96758e-07
1.10096e-06
-1.37445e-06
5.38303e-07
1.07522e-06
-1.05207e-06
4.88456e-07
9.76548e-07
-7.56163e-07
4.94137e-07
7.99051e-07
-4.84631e-07
5.28467e-07
5.65234e-07
-2.87509e-07
5.78273e-07
3.08356e-07
-1.78607e-07
6.11931e-07
-1.38313e-07
6.14955e-07
8.28057e-07
-3.16123e-06
9.81188e-07
1.36106e-06
-3.29876e-06
1.2768e-06
1.47545e-06
-2.44143e-06
1.16175e-06
1.43248e-06
-1.765e-06
9.39665e-07
1.29387e-06
-1.26646e-06
8.3509e-07
1.08662e-06
-8.59528e-07
8.40663e-07
8.39841e-07
-5.27675e-07
8.46342e-07
5.70363e-07
-2.74659e-07
8.06021e-07
2.97626e-07
-1.20301e-07
7.4485e-07
-6.21001e-08
7.04309e-07
9.20152e-07
-4.39349e-06
1.1019e-06
1.40684e-06
-4.25093e-06
1.36329e-06
1.57076e-06
-3.09326e-06
1.33841e-06
1.59303e-06
-2.22369e-06
1.16052e-06
1.46786e-06
-1.50782e-06
9.56827e-07
1.21741e-06
-9.48424e-07
7.46551e-07
8.97693e-07
-5.36722e-07
4.96643e-07
6.00638e-07
-2.78239e-07
2.55844e-07
3.43208e-07
-1.2171e-07
1.17436e-07
-7.24213e-08
9.88097e-08
7.65293e-07
-5.28052e-06
8.00257e-07
1.11956e-06
-4.95005e-06
1.12346e-06
1.43868e-06
-3.78997e-06
1.07823e-06
1.79264e-06
-2.95505e-06
7.67241e-07
1.94771e-06
-2.00881e-06
3.53307e-07
1.85242e-06
-1.17404e-06
-4.19825e-08
1.73098e-06
-6.79634e-07
-3.11259e-07
1.18054e-06
6.65207e-08
-3.55486e-07
4.48075e-07
3.7204e-07
-4.00136e-07
2.63737e-07
-6.16795e-07
4.87319e-07
-6.10412e-06
7.33241e-07
1.36636e-06
-6.70642e-06
1.38538e-06
2.39017e-06
-5.68722e-06
1.20305e-06
3.72663e-06
-5.06225e-06
7.53562e-07
4.90243e-06
-3.74498e-06
3.69547e-07
6.52593e-06
-3.29526e-06
2.11689e-07
9.88315e-06
-4.27542e-06
2.50862e-07
8.89862e-06
2.08661e-06
4.36045e-07
4.47783e-06
5.74604e-06
6.78795e-07
6.67687e-06
3.19017e-07
7.68701e-07
-8.55131e-06
2.04243e-06
3.18334e-06
-1.16388e-05
3.27334e-06
6.19279e-06
-1.05464e-05
2.61906e-06
7.99184e-06
-7.62604e-06
1.911e-06
7.60617e-06
-4.10615e-06
2.13742e-06
6.03401e-06
-2.3823e-06
2.20128e-06
2.23893e-06
-8.04542e-07
1.88379e-06
-6.84901e-07
3.63446e-06
2.73867e-06
-2.26564e-06
6.81584e-06
1.15903e-06
7.35746e-06
-8.23145e-07
1.9339e-06
-1.41055e-05
4.7809e-06
2.60311e-06
-1.3377e-05
2.85773e-06
4.15567e-07
-7.79217e-06
1.77594e-07
-1.56792e-06
-5.04829e-06
-8.93788e-07
-4.57608e-06
-1.6625e-06
7.83365e-07
-6.92547e-06
-6.94194e-07
1.16647e-06
-8.34926e-06
1.15529e-06
3.56972e-08
-7.67531e-06
2.41251e-06
-9.98637e-08
-5.09271e-06
4.23872e-06
-8.65448e-07
5.355e-06
-1.93449e-06
-8.94801e-07
-1.16454e-05
2.09133e-07
-4.75572e-06
-6.68168e-06
-4.07183e-06
-7.55216e-06
-1.95607e-06
-5.26215e-06
-8.73561e-06
-1.91431e-06
-3.62157e-06
-7.98387e-06
-1.57511e-06
-2.97139e-06
-7.57927e-06
-8.48372e-07
-2.17829e-06
-6.77412e-06
1.04838e-07
-1.68337e-06
-5.61953e-06
7.17151e-07
-1.29515e-06
-3.89451e-06
1.77031e-06
-7.3531e-07
2.92647e-06
-5.07244e-07
-3.75367e-06
-5.55526e-06
-4.21079e-06
-7.41507e-06
-1.44101e-06
-6.76193e-06
-6.73536e-06
-1.07626e-06
-5.22417e-06
-6.01518e-06
-8.62589e-07
-4.37585e-06
-5.68652e-06
-3.79286e-07
-4.46283e-06
-5.46437e-06
1.10218e-07
-4.39373e-06
-4.70839e-06
3.27649e-07
-4.02341e-06
-3.88149e-06
5.36948e-07
-2.98626e-06
-3.16606e-06
1.05842e-06
-1.34097e-06
1.69684e-06
-4.05567e-07
-2.57939e-06
-2.16914e-06
-3.71206e-06
-4.76988e-06
1.07313e-06
-4.75837e-06
-4.82281e-06
6.36958e-07
-3.59607e-06
-4.66638e-06
1.03765e-06
-3.48077e-06
-4.58509e-06
1.26919e-06
-3.80444e-06
-4.11033e-06
1.20287e-06
-4.0374e-06
-3.28778e-06
1.01339e-06
-4.13558e-06
-2.67599e-06
1.11182e-06
-3.48414e-06
-2.50792e-06
1.3318e-06
-1.82837e-06
1.42175e-06
-7.11095e-07
-1.30594e-06
-4.93489e-07
-1.26394e-06
-3.15339e-06
3.82626e-06
-4.34916e-06
-3.64704e-06
2.66444e-06
-2.42234e-06
-3.62518e-06
2.43598e-06
-1.43172e-06
-3.55556e-06
1.86932e-06
-8.57027e-07
-2.93266e-06
1.13348e-06
-1.04317e-06
-2.09478e-06
1.07975e-06
-1.88243e-06
-1.41571e-06
1.48203e-06
-2.34538e-06
-1.42587e-06
2.06676e-06
-1.8721e-06
2.01793e-06
-9.09488e-07
-1.92819e-06
9.99507e-07
1.29947e-06
-2.81385e-06
5.32559e-06
-3.48225e-06
-3.66975e-06
5.11042e-06
-2.29099e-06
-3.89979e-06
3.87157e-06
-4.83954e-07
-3.64395e-06
1.72631e-06
1.1687e-06
-2.74301e-06
4.30722e-07
8.97334e-07
-1.96526e-06
7.24355e-07
3.61779e-08
-1.37471e-06
1.45099e-06
-6.24193e-07
-1.06556e-06
2.33591e-06
-8.39643e-07
2.39399e-06
-3.63319e-07
-1.18456e-06
2.18587e-06
1.6342e-06
-2.10003e-06
6.82092e-06
-3.07878e-06
-3.06263e-06
7.65549e-06
-2.88515e-06
-3.56095e-06
5.84033e-06
-1.26103e-06
-3.72141e-06
2.18958e-06
1.05108e-06
-3.11718e-06
3.37004e-07
9.86564e-07
-2.29515e-06
5.38965e-07
5.2173e-07
-1.63384e-06
1.25111e-06
5.17637e-07
-1.06177e-06
2.13778e-06
3.96399e-07
2.3566e-06
3.61743e-07
-1.22711e-07
2.55654e-06
2.14326e-06
-9.03472e-07
8.48905e-06
-2.89475e-06
-1.74802e-06
9.92416e-06
-3.53132e-06
-2.23819e-06
7.94813e-06
-2.76848e-06
-2.58352e-06
3.1783e-06
2.68816e-07
-2.53862e-06
7.46285e-07
6.2621e-07
-2.02016e-06
4.70574e-07
1.84756e-07
-1.54811e-06
1.07788e-06
4.18712e-07
-9.34741e-07
1.71827e-06
5.74947e-07
1.93046e-06
4.68289e-07
8.57848e-07
2.18527e-06
2.45516e-06
-2.59979e-07
1.06671e-05
-1.96019e-06
-1.10012e-06
1.18327e-05
-3.42911e-06
-9.42119e-07
9.77053e-06
-3.66025e-06
-1.08856e-06
4.17778e-06
5.60085e-08
-1.45082e-06
1.1171e-06
8.3437e-07
-1.28128e-06
3.72253e-07
5.00281e-08
-1.02263e-06
9.27852e-07
3.90202e-08
-5.65205e-07
1.33786e-06
1.2833e-07
1.45366e-06
1.10025e-07
3.63795e-07
2.96836e-06
1.93526e-06
-9.30322e-07
4.95552e-07
1.27709e-05
-1.63211e-06
-2.38705e-06
1.33535e-05
-2.94432e-07
-3.42227e-06
1.1148e-05
-1.43795e-07
4.88118e-07
4.84507e-06
-7.51831e-07
1.1568e-06
1.26567e-06
-8.34719e-07
1.17377e-07
3.76804e-07
-6.6022e-07
-2.20058e-08
7.54101e-07
-3.37848e-07
-5.66194e-08
1.02999e-06
-7.76416e-08
1.08569e-06
1.39268e-07
-2.46213e-07
3.87899e-07
2.94099e-07
-2.8055e-07
4.35288e-07
4.16436e-07
-2.46313e-07
4.22479e-07
4.93293e-07
-2.03532e-07
4.20907e-07
5.25076e-07
-1.6664e-07
4.31653e-07
5.09632e-07
-1.32735e-07
4.48968e-07
4.47812e-07
-1.05218e-07
4.7459e-07
3.42864e-07
-8.61238e-08
5.04828e-07
2.01603e-07
-8.00103e-08
5.46074e-07
-8.64119e-08
5.66313e-07
1.18805e-07
-4.60743e-07
3.35626e-07
2.58358e-07
-5.38543e-07
3.96755e-07
3.71472e-07
-4.73959e-07
3.78256e-07
4.43807e-07
-3.92651e-07
3.74042e-07
4.75423e-07
-3.23502e-07
3.84855e-07
4.62399e-07
-2.57003e-07
4.01026e-07
4.05622e-07
-2.03037e-07
4.24212e-07
3.12939e-07
-1.696e-07
4.52895e-07
1.9411e-07
-1.66904e-07
4.96048e-07
-1.80021e-07
5.29242e-07
1.42217e-07
-7.27505e-07
4.40301e-07
3.14009e-07
-8.63662e-07
5.04322e-07
4.58868e-07
-7.65662e-07
4.70485e-07
5.49029e-07
-6.27275e-07
4.55642e-07
5.8446e-07
-5.09814e-07
4.57445e-07
5.64424e-07
-4.00287e-07
4.68872e-07
4.88755e-07
-3.09172e-07
4.88512e-07
3.71156e-07
-2.54034e-07
5.12598e-07
2.3087e-07
-2.40026e-07
5.35607e-07
-2.2514e-07
5.3679e-07
1.70673e-07
-1.05015e-06
5.81792e-07
3.95024e-07
-1.26868e-06
6.65967e-07
5.8175e-07
-1.14272e-06
6.00982e-07
6.92593e-07
-9.30923e-07
5.69181e-07
7.29413e-07
-7.42928e-07
5.68662e-07
6.94423e-07
-5.68832e-07
5.78586e-07
5.9162e-07
-4.19502e-07
5.96987e-07
4.35076e-07
-3.17387e-07
6.17513e-07
2.5729e-07
-2.52715e-07
6.02032e-07
-1.71814e-07
5.35706e-07
3.28144e-07
-1.4976e-06
8.17465e-07
6.97074e-07
-1.78927e-06
1.02135e-06
9.06416e-07
-1.55687e-06
9.01567e-07
9.81353e-07
-1.22556e-06
7.58004e-07
9.82146e-07
-9.58749e-07
7.03484e-07
9.19972e-07
-7.2041e-07
7.0789e-07
7.68595e-07
-4.79937e-07
7.4028e-07
5.34154e-07
-2.80281e-07
7.75608e-07
2.87109e-07
-1.24698e-07
7.30959e-07
4.05473e-08
6.09474e-07
6.48764e-07
-2.16971e-06
1.00454e-06
1.19515e-06
-2.43674e-06
1.37789e-06
1.42618e-06
-1.99693e-06
1.37078e-06
1.46675e-06
-1.50694e-06
1.18047e-06
1.39973e-06
-1.11776e-06
1.06112e-06
1.24768e-06
-7.71398e-07
1.0437e-06
9.96677e-07
-4.38201e-07
1.05561e-06
6.54581e-07
-1.59406e-07
1.02724e-06
3.09078e-07
2.76346e-08
9.38022e-07
1.65998e-07
8.28169e-07
8.49469e-07
-3.05231e-06
1.13503e-06
1.37024e-06
-3.10361e-06
1.50937e-06
1.63552e-06
-2.50414e-06
1.58035e-06
1.77211e-06
-1.91512e-06
1.43211e-06
1.74701e-06
-1.3671e-06
1.23126e-06
1.55372e-06
-9.00131e-07
1.06857e-06
1.20598e-06
-5.14471e-07
9.20646e-07
7.75893e-07
-2.16627e-07
7.43157e-07
3.94659e-07
-7.20391e-08
5.98343e-07
3.4438e-08
5.35073e-07
6.77441e-07
-3.97817e-06
1.04867e-06
1.1047e-06
-3.82775e-06
1.42034e-06
1.44366e-06
-3.16342e-06
1.39855e-06
1.7706e-06
-2.61602e-06
1.1412e-06
1.85087e-06
-1.82728e-06
7.33218e-07
1.73837e-06
-1.19776e-06
3.68154e-07
1.51475e-06
-7.13483e-07
1.11371e-07
8.86895e-07
6.10267e-08
-5.28688e-09
3.09568e-07
4.10367e-08
6.41155e-08
-2.84612e-07
2.70418e-08
3.20385e-07
-5.56409e-06
1.99878e-06
1.23002e-06
-5.82819e-06
2.47619e-06
1.94021e-06
-4.65668e-06
1.98612e-06
2.75217e-06
-4.06497e-06
1.39056e-06
3.59208e-06
-3.25657e-06
9.58926e-07
4.86732e-06
-3.00434e-06
7.43034e-07
8.10912e-06
-4.03747e-06
3.33046e-07
6.0862e-06
2.88861e-06
-3.68614e-07
1.68639e-06
5.62918e-06
-5.09542e-07
4.68284e-06
-1.17579e-06
9.5303e-07
-9.59456e-06
5.11988e-06
2.64165e-06
-1.07907e-05
6.54726e-06
4.04976e-06
-8.12693e-06
4.6812e-06
3.92429e-06
-4.67431e-06
2.64581e-06
3.09225e-06
-2.31308e-06
2.02597e-06
9.27812e-07
-8.16914e-07
2.17829e-06
-2.75018e-06
-7.69677e-08
1.60128e-06
-4.7836e-06
4.86226e-06
2.79845e-06
-4.30028e-06
5.28354e-06
1.02136e-06
3.43889e-06
-1.31922e-06
1.32859e-06
-1.01535e-05
4.01128e-06
2.33015e-07
-8.12408e-06
1.28665e-06
-2.40161e-06
-3.95677e-06
-1.35794e-06
-3.75474e-06
-2.58226e-06
-1.6327e-06
-5.35326e-06
-7.39438e-07
8.08236e-07
-7.37333e-06
6.59951e-07
1.70968e-06
-9.83085e-06
1.80326e-06
6.1299e-07
-8.55603e-06
2.02932e-06
1.45826e-06
-5.51066e-06
1.41854e-06
-4.58156e-08
9.35343e-07
-2.0866e-06
-1.62774e-06
-7.00964e-06
-1.30701e-06
-5.52114e-06
-2.24664e-06
-6.05586e-06
-7.06751e-06
-1.32372e-06
-6.34883e-06
-6.96726e-06
-2.30786e-06
-3.99622e-06
-6.80457e-06
-1.99199e-06
-1.88153e-06
-7.16432e-06
-5.53939e-07
-6.04647e-07
-6.74423e-06
3.47263e-08
-3.34915e-07
-5.47901e-06
-8.20101e-07
2.89048e-07
-3.85135e-06
-1.53407e-06
5.89638e-07
-4.85471e-07
-2.96572e-07
-3.60526e-06
-2.09517e-06
-5.52001e-06
-6.27137e-06
-8.18246e-07
-5.52421e-06
-5.98582e-06
-2.38953e-06
-4.4439e-06
-5.46423e-06
-3.02667e-06
-4.17862e-06
-5.48891e-06
-2.51408e-06
-3.91605e-06
-5.1752e-06
-1.76862e-06
-3.49276e-06
-4.39129e-06
-1.52929e-06
-3.24329e-06
-3.78289e-06
-1.88458e-06
-2.53017e-06
-3.43114e-06
-1.86523e-06
-1.36155e-06
-7.8102e-07
-6.70611e-07
-1.11573e-06
-8.26552e-07
-3.86495e-06
-4.3389e-06
1.63297e-06
-3.98641e-06
-5.24374e-06
-1.32342e-06
-3.75734e-06
-5.18565e-06
-2.57875e-06
-3.98677e-06
-4.95891e-06
-2.24728e-06
-4.29798e-06
-4.11856e-06
-2.00053e-06
-4.64584e-06
-3.08316e-06
-1.89865e-06
-4.80161e-06
-2.66417e-06
-1.39623e-06
-4.39149e-06
-2.87404e-06
-9.22413e-07
-2.56133e-06
-4.32578e-07
-9.53883e-07
1.24814e-06
-1.352e-06
-1.98662e-06
-1.15579e-06
3.04873e-06
-3.36098e-06
-3.09314e-06
1.01206e-06
-2.82048e-06
-3.61987e-06
-8.79449e-07
-2.60428e-06
-3.51828e-06
-8.07301e-07
-2.3986e-06
-2.55919e-06
-1.19296e-06
-2.80982e-06
-1.46511e-06
-1.34203e-06
-3.53312e-06
-1.17331e-06
-2.25362e-07
-3.80806e-06
-1.7391e-06
3.8388e-07
-2.6126e-06
3.2746e-07
-1.31067e-06
1.34914e-06
-1.15555e-06
-2.4612e-07
1.19578e-06
2.46049e-06
-2.74065e-06
-9.52836e-07
3.54439e-06
-2.67471e-06
-2.35719e-06
2.12081e-06
-2.07987e-06
-2.567e-06
1.32392e-06
-7.52706e-07
-2.09984e-06
-7.45915e-08
-6.88198e-07
-1.47543e-06
-5.24577e-07
-1.40569e-06
-1.09746e-06
6.19542e-07
-1.84707e-06
-1.23268e-06
1.18953e-06
-1.51008e-06
9.25978e-07
-1.01508e-06
1.67567e-06
-3.07555e-07
-8.89458e-07
2.25066e-06
2.0043e-06
-3.19758e-06
9.69395e-07
5.009e-06
-3.0685e-06
-1.07535e-06
5.27595e-06
-2.37142e-06
-1.86269e-06
3.75185e-06
-5.89536e-07
-2.07097e-06
1.2404e-06
-1.20147e-07
-1.94996e-06
1.74144e-07
-2.9801e-07
-1.50563e-06
1.0122e-06
-3.19368e-07
-1.04058e-06
1.47857e-06
-3.57678e-07
1.28444e-06
-5.10258e-07
2.43983e-06
3.42246e-07
-9.46363e-07
2.90817e-06
2.57072e-06
-3.92951e-06
2.15251e-06
5.89282e-06
-3.65949e-06
-1.59705e-07
7.60419e-06
-2.78451e-06
-1.2468e-06
5.95814e-06
-8.50379e-07
-1.60718e-06
2.19257e-06
3.44299e-08
-1.66313e-06
5.05924e-07
-9.10812e-08
-1.29072e-06
1.11325e-06
-5.47564e-08
-6.88351e-07
1.49647e-06
-4.53142e-08
1.45319e-06
-3.77075e-07
3.06864e-06
6.46367e-07
-9.17595e-07
3.27382e-06
4.37481e-06
-3.96945e-06
2.38534e-06
7.30473e-06
-3.95253e-06
-1.47512e-08
9.25646e-06
-2.91243e-06
-9.13804e-07
7.7031e-06
-7.89911e-07
-1.05756e-06
2.61383e-06
5.56871e-07
-1.17865e-06
5.83539e-07
9.34952e-08
-8.70531e-07
9.61861e-07
-1.17703e-07
-4.13804e-07
1.3096e-06
-1.41532e-07
1.35724e-06
-3.73278e-07
3.03154e-06
-1.22061e-07
7.05248e-07
2.97075e-06
-2.13331e-06
7.06445e-06
1.68944e-06
-3.22976e-06
9.42875e-06
-3.6834e-07
-2.74424e-06
1.06362e-05
-7.75295e-07
-2.52758e-07
8.85093e-06
-6.91684e-07
1.11158e-06
2.57544e-06
-8.61265e-07
2.35179e-07
6.35314e-07
-6.3266e-07
-4.74384e-08
7.58689e-07
-3.1781e-07
-1.23395e-07
1.06153e-06
-2.83779e-07
1.11843e-06
1.34495e-07
-1.95554e-07
4.48959e-07
2.90074e-07
-2.32282e-07
5.1199e-07
4.15094e-07
-2.02323e-07
4.99781e-07
4.9452e-07
-1.60803e-07
5.02283e-07
5.30435e-07
-1.25003e-07
5.20741e-07
5.20077e-07
-9.03941e-08
5.49721e-07
4.64565e-07
-5.86853e-08
5.88788e-07
3.6713e-07
-3.24659e-08
6.34729e-07
2.25946e-07
-1.52166e-08
7.02475e-07
-1.84084e-10
7.30406e-07
1.12932e-07
-3.6718e-07
3.9432e-07
2.52473e-07
-4.45196e-07
4.70128e-07
3.6744e-07
-3.89693e-07
4.5066e-07
4.42065e-07
-3.11287e-07
4.49901e-07
4.76697e-07
-2.41965e-07
4.67186e-07
4.68321e-07
-1.73545e-07
4.92553e-07
4.22652e-07
-1.16296e-07
5.27491e-07
3.46373e-07
-7.64708e-08
5.7318e-07
2.36549e-07
-5.0031e-08
6.40686e-07
1.38222e-09
6.77691e-07
1.36262e-07
-5.72358e-07
5.09217e-07
3.03724e-07
-7.00094e-07
5.91758e-07
4.45606e-07
-6.1936e-07
5.58271e-07
5.37176e-07
-4.94526e-07
5.47311e-07
5.77487e-07
-3.83504e-07
5.58674e-07
5.63026e-07
-2.75813e-07
5.856e-07
4.94437e-07
-1.84188e-07
6.24993e-07
3.78616e-07
-1.13499e-07
6.65447e-07
2.41579e-07
-3.4119e-08
6.56732e-07
1.11231e-07
5.60642e-07
1.56643e-07
-8.16571e-07
6.69362e-07
3.62867e-07
-1.00871e-06
7.68363e-07
5.50852e-07
-9.15361e-07
7.08998e-07
6.68992e-07
-7.30578e-07
6.87092e-07
7.11277e-07
-5.52811e-07
6.95684e-07
6.79784e-07
-3.85656e-07
7.19922e-07
5.71833e-07
-2.3946e-07
7.60211e-07
3.97896e-07
-1.00573e-07
7.78523e-07
2.34543e-07
8.55378e-08
6.45729e-07
3.18978e-07
4.10207e-07
2.36884e-07
-1.12886e-06
8.92868e-07
5.18727e-07
-1.3447e-06
1.0755e-06
7.35421e-07
-1.20915e-06
9.7866e-07
8.58921e-07
-9.7569e-07
8.79615e-07
9.05762e-07
-7.60224e-07
8.64056e-07
8.67791e-07
-5.4157e-07
9.01774e-07
7.12083e-07
-2.92405e-07
9.48933e-07
4.54904e-07
-5.93787e-09
9.38151e-07
2.44752e-07
3.07764e-07
7.18885e-07
5.97582e-07
4.14597e-07
4.90451e-07
-1.60075e-06
9.85983e-07
9.18321e-07
-1.7523e-06
1.35762e-06
1.1693e-06
-1.50346e-06
1.41411e-06
1.27425e-06
-1.17677e-06
1.2766e-06
1.27791e-06
-8.79451e-07
1.17669e-06
1.18653e-06
-5.57424e-07
1.15093e-06
9.50895e-07
-1.52514e-07
1.15136e-06
5.97328e-07
2.52442e-07
1.12243e-06
2.66287e-07
6.02274e-07
9.74553e-07
8.47443e-07
7.37501e-07
7.04416e-07
-2.23774e-06
1.0676e-06
1.14897e-06
-2.22472e-06
1.53724e-06
1.42851e-06
-1.91489e-06
1.71225e-06
1.60801e-06
-1.52328e-06
1.59912e-06
1.68041e-06
-1.13119e-06
1.41061e-06
1.63957e-06
-7.13653e-07
1.26564e-06
1.36483e-06
-1.21142e-07
1.16401e-06
8.8596e-07
3.60076e-07
1.11439e-06
4.0697e-07
5.87476e-07
1.09213e-06
7.2596e-07
9.76882e-07
3.76507e-07
-2.98485e-06
1.41927e-06
7.87563e-07
-3.00478e-06
1.78934e-06
1.15467e-06
-2.61997e-06
1.73651e-06
1.50921e-06
-2.24662e-06
1.51e-06
1.62276e-06
-1.68576e-06
1.17423e-06
1.57177e-06
-1.17953e-06
8.85016e-07
1.34416e-06
-5.11615e-07
7.2945e-07
9.72402e-07
-3.17516e-08
7.58302e-07
3.96496e-07
1.91158e-07
1.03634e-06
-1.12693e-07
1.2246e-06
4.88026e-09
-4.86333e-06
3.87238e-06
8.31183e-07
-5.31793e-06
3.96303e-06
1.41381e-06
-4.15584e-06
2.93937e-06
2.29127e-06
-4.08271e-06
2.34918e-06
3.15733e-06
-3.49429e-06
1.9014e-06
3.98424e-06
-2.77179e-06
1.50839e-06
4.79295e-06
-2.24113e-06
1.25385e-06
5.71953e-06
-2.35597e-06
1.02902e-06
1.98008e-06
3.2109e-06
2.10176e-07
2.70574e-06
-2.24146e-06
1.44721e-06
-9.43644e-06
8.24577e-06
2.22339e-06
-8.22099e-06
8.67414e-06
2.67617e-06
-4.78263e-06
4.85521e-06
2.69864e-06
-4.07182e-06
2.61244e-06
2.65805e-06
-2.87808e-06
1.45036e-06
7.38664e-07
-3.35285e-07
1.66117e-06
-4.00681e-06
1.40473e-06
2.7009e-06
-7.60802e-06
1.09779e-06
2.94589e-06
-5.81478e-06
9.28017e-07
1.511e-06
-2.64271e-06
3.59143e-07
4.49126e-07
-7.92003e-06
2.04574e-06
-5.29922e-07
-5.48264e-06
-4.72642e-07
-1.14169e-06
-2.32411e-06
-3.20468e-06
-1.91675e-06
-1.34052e-06
-3.58893e-06
-2.44295e-06
1.83381e-07
-1.72703e-06
-4.8854e-06
2.59386e-06
1.22298e-06
-8.17973e-06
3.71081e-06
1.60124e-06
-8.99774e-06
1.44726e-06
1.9268e-06
-6.34679e-06
-2.38488e-06
6.16136e-07
-4.13448e-06
-3.17638e-06
-1.77162e-06
-3.04932e-06
-4.4061e-06
-3.48458e-06
-2.0428e-06
-7.78274e-06
-3.93799e-06
-1.65734e-06
-6.56219e-06
-4.0158e-06
-7.78544e-07
-4.48038e-06
-4.53076e-06
3.96667e-07
-1.57984e-06
-5.66029e-06
2.48519e-06
6.3356e-07
-6.2647e-06
3.57574e-06
4.0458e-07
-5.94004e-06
6.38522e-07
7.73122e-07
-4.76849e-06
-3.73298e-06
7.66176e-07
-3.50444e-06
-2.2514e-06
-3.59742e-06
7.19937e-07
-5.69184e-06
-5.73673e-06
-8.20336e-07
-4.60736e-06
-6.08528e-06
-2.28584e-06
-3.46686e-06
-5.45473e-06
-2.66071e-06
-2.927e-06
-5.09119e-06
-1.7223e-06
-2.16062e-06
-4.89646e-06
2.59896e-07
-1.4622e-06
-4.00845e-06
1.37959e-06
-1.93516e-06
-3.44469e-06
-3.49305e-07
-2.10611e-06
-3.36927e-06
-3.97094e-06
-1.199e-06
-3.27391e-06
-1.33873e-06
-1.80469e-06
3.1111e-06
-4.45142e-06
-5.00349e-06
1.90401e-06
-3.51196e-06
-6.28293e-06
-1.20283e-06
-3.56091e-06
-6.28181e-06
-3.11296e-06
-3.53564e-06
-5.79508e-06
-2.89064e-06
-3.61638e-06
-4.8674e-06
-1.50897e-06
-3.80464e-06
-3.30132e-06
-3.97793e-07
-4.59031e-06
-1.9332e-06
-8.11773e-07
-5.29713e-06
-1.799e-06
-2.51968e-06
-4.14678e-06
-2.3695e-06
-1.16543e-06
1.02271e-06
2.73816e-06
-2.63639e-06
-1.05339e-06
3.44522e-06
-2.82608e-06
-3.27875e-06
1.2017e-06
-2.99965e-06
-4.67267e-06
-1.40264e-06
-2.92067e-06
-4.77163e-06
-2.15792e-06
-3.03235e-06
-3.99441e-06
-1.17201e-06
-3.92401e-06
-2.53128e-06
-2.89868e-07
-5.10418e-06
-1.22089e-06
1.69027e-09
-5.93191e-06
-1.06755e-06
-6.79602e-07
-4.60602e-06
-1.19939e-06
-1.83e-06
2.25977e-06
1.54965e-06
-1.31738e-06
2.33041e-06
3.12597e-06
-2.49204e-06
4.42621e-07
3.13123e-06
-2.71646e-06
-2.22316e-06
1.58916e-06
-2.4059e-06
-3.21753e-06
-3.04089e-08
-1.88585e-06
-2.83028e-06
-9.52342e-08
-2.15222e-06
-1.90393e-06
4.35026e-07
-3.05695e-06
-9.88782e-07
9.18692e-07
-3.67922e-06
-7.75598e-07
4.8519e-07
-2.88806e-06
-1.89714e-07
-2.03764e-06
1.85788e-06
8.50489e-07
-2.04817e-06
2.90355e-06
2.28604e-06
-3.40332e-06
2.27948e-06
3.62904e-06
-2.94224e-06
-4.74185e-07
4.01882e-06
-2.04742e-06
-2.25702e-06
2.35596e-06
-1.19309e-06
-2.49976e-06
9.69263e-07
-9.41894e-07
-1.93419e-06
8.0395e-07
-1.23251e-06
-1.10504e-06
1.32274e-06
-1.55255e-06
-5.53093e-07
1.1583e-06
-1.58274e-06
6.29452e-07
-1.79196e-06
1.66048e-06
8.64829e-07
-2.62117e-06
2.4016e-06
1.8213e-06
-4.20589e-06
2.27405e-06
3.50062e-06
-3.40352e-06
1.29131e-08
5.40052e-06
-1.90508e-06
-1.80376e-06
4.08207e-06
-7.59809e-07
-2.17062e-06
1.67254e-06
-3.01982e-07
-1.73248e-06
8.40403e-07
-5.65674e-07
-1.06015e-06
1.32199e-06
-7.26346e-07
-4.75154e-07
1.46685e-06
-9.38864e-07
1.14699e-06
-1.48988e-06
1.71943e-06
1.04309e-06
-2.8153e-06
2.11378e-06
2.04755e-06
-4.59004e-06
1.74334e-06
3.76577e-06
-3.84725e-06
-2.1532e-07
6.24964e-06
-1.8029e-06
-1.73065e-06
5.17224e-06
-3.6476e-07
-1.78098e-06
2.01212e-06
2.67615e-07
-1.38576e-06
8.09566e-07
-2.7089e-07
-8.92484e-07
1.09492e-06
-3.83916e-07
-4.48221e-07
1.41042e-06
-5.29371e-07
1.29251e-06
-1.08437e-06
1.90678e-06
-2.2593e-06
1.27355e-06
2.42062e-06
-3.82859e-06
3.22898e-06
1.72675e-06
-3.60435e-06
4.83423e-06
-3.86896e-07
-1.55763e-06
7.17667e-06
-1.75765e-06
1.5833e-07
6.1319e-06
-1.40917e-06
6.59118e-07
2.1161e-06
-1.06443e-06
-9.59157e-08
7.95922e-07
-7.15437e-07
-1.41232e-07
8.39722e-07
-4.01883e-07
-2.07327e-07
1.18079e-06
-6.50834e-07
1.18345e-06
1.31133e-07
-1.46462e-07
4.64287e-07
2.93125e-07
-1.90646e-07
5.40645e-07
4.25887e-07
-1.64324e-07
5.31342e-07
5.13457e-07
-1.2376e-07
5.38473e-07
5.55856e-07
-8.83952e-08
5.66737e-07
5.54322e-07
-5.30769e-08
6.04331e-07
5.08081e-07
-1.8225e-08
6.53254e-07
4.16897e-07
1.61351e-08
7.09777e-07
2.6596e-07
5.75935e-08
7.95818e-07
1.3537e-07
7.758e-07
1.09067e-07