/*--------------------------------*- C++ -*----------------------------------*\
| =========                 |                                                 |
| \\      /  F ield         | OpenFOAM: The Open Source CFD Toolbox           |
|  \\    /   O peration     | Version:  2312                                  |
|   \\  /    A nd           | Website:  www.openfoam.com                      |
|    \\/     M anipulation  |                                                 |
\*---------------------------------------------------------------------------*/
FoamFile
{
    version     2.0;
    format      ascii;
    arch        "LSB;label=32;scalar=64";
    class       volScalarField;
    location    "0.38";
    object      p;
}
// * * * * * * * * * * * * * * * * * * * * * * * * * * * * * * * * * * * * * //

dimensions      [1 -1 -2 0 0 0 0];

internalField   nonuniform List<scalar> 
8000
(
329.836
331.232
333.818
337.679
341.913
346.428
350.693
354.044
356.432
357.673
278.082
279.76
282.739
287.068
291.796
296.653
301.256
305.049
307.732
309.11
222.976
224.993
229.364
234.625
240.24
245.966
251.67
256.209
259.427
261.058
163.902
166.413
173.489
180.273
187.512
194.78
201.672
207.554
211.811
213.787
107.43
110.844
116.782
123.582
132.617
142.147
151.309
159.056
164.499
167.061
27.1412
32.9319
47.5901
62.8311
76.0961
88.8221
101.378
111.615
118.553
121.948
1.69945
2.67223
6.18343
11.175
21.4097
37.071
52.6909
66.0863
75.1485
79.3996
0.135337
0.109233
0.037226
0.0335389
0.807581
5.34218
15.3612
27.6053
36.5949
40.6818
-0.0468243
-0.0939463
-0.13121
-0.13197
-0.136065
-0.112118
0.72791
3.95891
7.51906
9.57224
-0.215128
-0.26582
-0.289478
-0.326305
-0.386263
-0.432544
-0.454016
-0.374252
-0.292984
-0.238852
-0.357352
-0.387693
-0.398345
-0.431249
-0.475289
-0.518958
-0.533358
-0.531831
-0.536359
-0.545435
-0.458128
-0.474919
-0.483091
-0.50158
-0.525853
-0.557801
-0.588841
-0.60489
-0.616357
-0.627334
-0.536831
-0.547216
-0.550294
-0.564664
-0.581625
-0.59899
-0.617185
-0.627898
-0.634509
-0.639707
-0.600337
-0.606238
-0.606217
-0.618638
-0.629951
-0.637655
-0.641401
-0.642346
-0.643536
-0.645493
-0.655407
-0.65891
-0.66001
-0.665858
-0.670484
-0.673482
-0.674213
-0.674009
-0.674499
-0.675017
-0.708191
-0.710889
-0.713185
-0.713157
-0.712562
-0.713774
-0.716176
-0.718615
-0.720391
-0.720898
-0.762418
-0.765319
-0.76843
-0.766685
-0.764791
-0.76492
-0.76688
-0.769102
-0.770498
-0.770812
-0.821784
-0.824121
-0.832269
-0.831613
-0.825029
-0.821931
-0.821067
-0.821529
-0.821815
-0.821923
-0.874018
-0.883844
-0.900641
-0.900584
-0.883999
-0.878169
-0.875231
-0.874102
-0.873436
-0.873445
-0.923151
-0.935089
-0.949069
-0.950312
-0.938171
-0.930829
-0.927521
-0.925789
-0.924883
-0.924656
331.263
332.811
335.341
338.909
343.034
347.363
351.44
354.809
357.18
358.414
279.783
281.454
284.29
288.335
292.887
297.686
302.151
305.884
308.507
309.868
224.985
227.258
231.205
236.088
241.363
247.247
252.629
257.105
260.261
261.884
166.388
169.955
175.489
182.017
189.451
196.371
203.051
208.697
212.675
214.677
110.749
112.147
117.973
125.328
134.353
143.984
152.969
160.36
165.471
168.037
33.1695
37.5897
52.1015
65.5911
77.8636
91.1775
103.337
113.06
119.566
122.909
2.76598
3.23066
5.98568
10.6656
21.6276
37.9065
54.1571
67.1007
75.7303
79.4902
0.113966
0.0728691
-0.0386469
-0.0773731
0.93814
5.40382
15.0122
26.2537
34.0303
37.3627
-0.073658
-0.145065
-0.190084
-0.211714
-0.289097
-0.278657
0.469987
2.51611
4.40673
5.25552
-0.23528
-0.301087
-0.329806
-0.390392
-0.460838
-0.486935
-0.501014
-0.477013
-0.460375
-0.433645
-0.360201
-0.40897
-0.419271
-0.459986
-0.524814
-0.572126
-0.594251
-0.597581
-0.612064
-0.624138
-0.464763
-0.490471
-0.494595
-0.519902
-0.573201
-0.632557
-0.66405
-0.672971
-0.692638
-0.705639
-0.547048
-0.561206
-0.558291
-0.578433
-0.611351
-0.652595
-0.689045
-0.710058
-0.723457
-0.725941
-0.611273
-0.616489
-0.611996
-0.630379
-0.646527
-0.66154
-0.676314
-0.688136
-0.694553
-0.694569
-0.66517
-0.664433
-0.661658
-0.675131
-0.680233
-0.680331
-0.681501
-0.685844
-0.691621
-0.693433
-0.718478
-0.713895
-0.712503
-0.721785
-0.718869
-0.716525
-0.716736
-0.720005
-0.725194
-0.728473
-0.773763
-0.766434
-0.768549
-0.772887
-0.769153
-0.765467
-0.766345
-0.768874
-0.771675
-0.77376
-0.829837
-0.826717
-0.832744
-0.837454
-0.831205
-0.825606
-0.822
-0.821774
-0.822017
-0.822863
-0.885625
-0.889325
-0.89846
-0.90555
-0.890911
-0.881551
-0.876479
-0.874827
-0.874071
-0.874228
-0.931724
-0.942706
-0.949833
-0.959151
-0.945167
-0.933823
-0.928442
-0.926347
-0.925267
-0.925002
333.812
335.343
337.479
341.073
345.06
349.232
353.13
356.364
358.619
359.81
282.756
284.294
286.854
290.78
295.173
299.766
303.986
307.521
310.018
311.324
229.343
231.161
234.362
238.977
244.083
249.61
254.684
258.968
261.992
263.537
173.385
175.451
179.879
185.669
192.615
199.26
205.508
210.86
214.594
216.413
116.523
117.904
123.204
129.745
138.665
147.799
156.159
162.964
167.653
170.03
47.9009
52.5621
62.3878
72.8036
83.5983
96.0887
107.282
116.048
121.909
124.865
6.29919
6.18537
9.12856
14.2894
27.0681
43.3133
58.588
70.1237
77.4915
80.7682
0.0496927
-0.0208922
-0.0845355
0.134471
1.86851
7.4503
18.0957
28.0097
34.5708
37.3005
-0.110703
-0.181265
-0.208105
-0.249121
-0.337769
-0.244382
1.01879
2.70952
3.89171
4.30044
-0.270271
-0.339835
-0.359376
-0.413216
-0.453616
-0.49007
-0.488663
-0.477869
-0.480196
-0.468601
-0.390255
-0.439935
-0.434556
-0.461516
-0.491881
-0.534703
-0.562162
-0.568972
-0.57693
-0.581433
-0.485864
-0.525254
-0.515429
-0.532888
-0.561484
-0.592018
-0.616827
-0.634019
-0.647502
-0.651414
-0.569398
-0.589231
-0.574994
-0.583973
-0.609797
-0.638535
-0.666925
-0.685342
-0.695928
-0.691645
-0.629449
-0.635363
-0.618915
-0.623868
-0.645263
-0.660737
-0.674515
-0.687523
-0.696717
-0.695865
-0.67744
-0.675936
-0.657495
-0.66313
-0.679812
-0.685979
-0.689069
-0.695852
-0.706447
-0.708851
-0.725488
-0.722275
-0.703294
-0.710958
-0.72262
-0.724709
-0.72602
-0.728394
-0.734471
-0.738876
-0.777448
-0.776463
-0.759138
-0.767994
-0.776306
-0.773981
-0.773694
-0.775359
-0.777697
-0.780079
-0.837444
-0.838692
-0.824869
-0.83241
-0.835379
-0.829523
-0.826512
-0.82592
-0.825986
-0.826782
-0.898533
-0.902728
-0.891333
-0.896215
-0.892789
-0.884426
-0.879119
-0.877172
-0.876345
-0.876318
-0.944439
-0.952058
-0.946788
-0.952467
-0.946379
-0.93616
-0.929979
-0.92761
-0.926389
-0.925988
337.685
338.942
341.103
344.222
347.833
351.839
355.581
358.603
360.663
361.767
287.124
288.378
290.838
294.322
298.351
302.597
306.564
309.862
312.138
313.454
234.632
236.124
239.041
243.268
248.059
253.076
257.747
261.633
264.34
265.849
180.22
182.005
185.77
191.153
197.171
203.39
209.195
213.961
217.308
219.019
123.507
125.269
129.709
136.614
144.862
153.204
160.714
166.833
171.005
173.126
63.0305
65.982
73.0649
81.0982
91.9721
102.919
113.042
120.584
125.594
128.338
11.2142
10.9129
14.721
23.2952
36.8109
52.1251
65.3388
75.0995
81.3154
83.9367
0.045602
-0.0238241
0.163104
1.22602
4.55259
12.6717
23.7926
32.8022
38.899
41.3665
-0.105127
-0.183693
-0.251517
-0.323362
-0.360996
0.0192732
2.07657
4.87712
6.91246
7.66532
-0.30222
-0.375429
-0.41887
-0.450881
-0.461093
-0.484689
-0.470015
-0.471186
-0.480567
-0.467851
-0.423283
-0.468514
-0.475054
-0.492147
-0.511581
-0.532946
-0.545576
-0.549331
-0.556491
-0.555963
-0.50979
-0.540999
-0.543188
-0.553962
-0.565459
-0.5841
-0.60143
-0.611572
-0.61356
-0.608546
-0.582031
-0.600136
-0.597093
-0.59877
-0.607961
-0.624571
-0.642889
-0.655174
-0.658468
-0.651817
-0.635759
-0.640973
-0.633381
-0.632709
-0.641603
-0.654587
-0.667031
-0.677656
-0.683869
-0.681664
-0.680037
-0.677233
-0.668565
-0.666892
-0.678838
-0.688886
-0.695838
-0.702814
-0.709639
-0.711865
-0.725791
-0.722689
-0.716757
-0.7146
-0.725116
-0.730912
-0.734445
-0.738211
-0.742789
-0.745694
-0.778401
-0.779097
-0.77599
-0.771154
-0.777272
-0.779151
-0.780486
-0.782056
-0.78402
-0.785549
-0.843493
-0.845393
-0.839272
-0.830607
-0.832155
-0.831096
-0.830363
-0.830137
-0.830136
-0.830425
-0.910844
-0.912013
-0.901047
-0.891486
-0.889511
-0.884378
-0.881183
-0.879563
-0.878527
-0.878261
-0.956727
-0.963992
-0.957194
-0.949795
-0.944047
-0.935762
-0.931116
-0.928913
-0.927368
-0.926875
342.083
343.131
345.132
347.908
351.333
354.887
358.276
361.204
363.088
363.993
291.89
292.984
295.273
298.4
302.086
305.956
309.601
312.668
314.785
315.91
240.31
241.563
244.275
248.119
252.512
257.063
261.31
264.864
267.365
268.684
187.464
189.297
192.485
197.195
202.617
208.236
213.469
217.808
220.855
222.467
132.483
134.413
138.701
144.915
152.177
159.498
166.183
171.637
175.379
177.326
75.8193
78.0052
83.7883
92.0052
101.516
111.047
119.705
126.505
131.086
133.504
20.9844
21.9946
27.4025
37.0115
49.8699
62.603
73.4956
81.9656
87.472
90.115
0.64036
0.876623
1.9344
4.60076
10.4656
21.1737
31.6359
40.225
45.6619
48.0564
-0.102231
-0.259812
-0.351569
-0.349615
-0.199206
1.38544
5.06807
9.13855
11.5776
12.5489
-0.346909
-0.443432
-0.472632
-0.469115
-0.464005
-0.480505
-0.456539
-0.464332
-0.489055
-0.46548
-0.457437
-0.510858
-0.517358
-0.520694
-0.512945
-0.5334
-0.528369
-0.530075
-0.541402
-0.535573
-0.521875
-0.554771
-0.570862
-0.57551
-0.569493
-0.574304
-0.577257
-0.578489
-0.581155
-0.579231
-0.584973
-0.603812
-0.617685
-0.619669
-0.614895
-0.619102
-0.625476
-0.630534
-0.632863
-0.630406
-0.635952
-0.638279
-0.645954
-0.650107
-0.650081
-0.655559
-0.662673
-0.669089
-0.673099
-0.673539
-0.677644
-0.670535
-0.674422
-0.682759
-0.68749
-0.693966
-0.700243
-0.705917
-0.711018
-0.713161
-0.722626
-0.715607
-0.719935
-0.726969
-0.731004
-0.736314
-0.74069
-0.744139
-0.747359
-0.748086
-0.775195
-0.773435
-0.77872
-0.778864
-0.780012
-0.783138
-0.785517
-0.786771
-0.787641
-0.786635
-0.83617
-0.838838
-0.838936
-0.832959
-0.833494
-0.833348
-0.833724
-0.833317
-0.83246
-0.831228
-0.895159
-0.899032
-0.895521
-0.889874
-0.887515
-0.884644
-0.883356
-0.881757
-0.87989
-0.878913
-0.946727
-0.95195
-0.948514
-0.944133
-0.939124
-0.934715
-0.932556
-0.930396
-0.927776
-0.926945
346.679
347.496
349.308
351.839
354.923
358.157
361.217
363.982
365.751
366.88
296.809
297.809
299.832
302.652
305.989
309.508
312.842
315.677
317.56
318.757
246.166
247.4
249.71
253.165
257.107
261.211
265.064
268.309
270.607
271.87
194.838
196.426
199.279
203.45
208.282
213.311
218.005
221.932
224.723
226.248
142.226
144.122
147.935
153.355
159.579
165.968
171.894
176.766
180.174
182.064
88.987
91.3225
96.2347
103.225
111.193
119.39
126.84
132.855
137
139.318
36.8163
38.1001
43.5595
52.3882
62.7758
72.9188
82.2182
89.7991
94.7916
97.3471
4.64656
5.37241
7.68452
13.1258
21.5285
31.2621
41.2998
49.6741
54.7041
57.0317
-0.0939819
-0.259157
-0.192786
0.198464
1.53575
5.04159
10.35
15.4028
17.7218
19.073
-0.410743
-0.480373
-0.493814
-0.490021
-0.479639
-0.471909
-0.45444
-0.374148
-0.241812
0.0156923
-0.497217
-0.555191
-0.54311
-0.540318
-0.534962
-0.532687
-0.519477
-0.509512
-0.48962
-0.475135
-0.548119
-0.616039
-0.597598
-0.595611
-0.577736
-0.575489
-0.569488
-0.560816
-0.559846
-0.565994
-0.597132
-0.64584
-0.648613
-0.638549
-0.623349
-0.623114
-0.624315
-0.625219
-0.629354
-0.63074
-0.638112
-0.656364
-0.666654
-0.664951
-0.65922
-0.662575
-0.667845
-0.674448
-0.678354
-0.698772
-0.677029
-0.67661
-0.685371
-0.693437
-0.696407
-0.701675
-0.707317
-0.714438
-0.723351
-0.739288
-0.722618
-0.717561
-0.724418
-0.733545
-0.737902
-0.742382
-0.74648
-0.749617
-0.754225
-0.754046
-0.774808
-0.772239
-0.77787
-0.781928
-0.784249
-0.786811
-0.78943
-0.78972
-0.790594
-0.786204
-0.831165
-0.831987
-0.833415
-0.833458
-0.834111
-0.834894
-0.83658
-0.835669
-0.834654
-0.831497
-0.885617
-0.887578
-0.887804
-0.886053
-0.885049
-0.88464
-0.885377
-0.883892
-0.881794
-0.880761
-0.936243
-0.938589
-0.938529
-0.936684
-0.934845
-0.933991
-0.933652
-0.931903
-0.928474
-0.92798
350.785
351.583
353.257
355.638
358.274
361.189
364.148
366.697
368.357
369.277
301.43
302.319
304.134
306.674
309.664
312.869
315.958
318.6
320.536
321.546
251.891
252.855
254.958
257.899
261.402
265.105
268.607
271.536
273.639
274.911
201.85
203.259
205.661
209.298
213.569
218.051
222.28
225.827
228.288
229.835
151.499
153.271
156.428
160.952
166.336
171.963
177.228
181.601
184.676
186.545
101.747
103.709
107.555
113.134
119.906
126.942
133.462
138.959
142.798
145.05
53.1132
54.6544
58.9304
65.5436
73.7384
82.3407
90.6969
97.8381
102.638
105.155
15.6627
15.3586
18.4226
24.3449
32.2585
41.5832
51.2256
59.8023
65.1793
67.8282
0.803405
0.584493
1.17962
2.46222
5.47268
10.6134
16.4795
25.6856
30.5741
33.5199
-0.47011
-0.491553
-0.480015
-0.465596
-0.469107
-0.474233
-0.237941
1.75744
3.68357
4.52707
-0.522017
-0.562731
-0.541416
-0.539359
-0.53279
-0.52969
-0.501378
-0.50631
-0.498649
-0.258843
-0.585395
-0.640512
-0.605708
-0.595103
-0.578997
-0.573107
-0.570731
-0.566333
-0.5738
-0.558427
-0.628429
-0.692668
-0.663918
-0.642982
-0.626149
-0.62643
-0.631069
-0.633495
-0.638582
-0.644575
-0.654154
-0.689535
-0.688062
-0.673374
-0.665531
-0.671481
-0.679342
-0.692349
-0.695864
-0.738656
-0.684844
-0.695975
-0.702195
-0.702636
-0.703625
-0.710676
-0.717685
-0.731782
-0.738979
-0.750459
-0.726464
-0.727652
-0.734147
-0.740245
-0.743402
-0.747976
-0.752536
-0.755041
-0.759255
-0.730841
-0.776696
-0.77604
-0.781429
-0.785401
-0.787124
-0.789655
-0.792963
-0.789907
-0.788335
-0.769725
-0.829858
-0.830465
-0.832719
-0.834288
-0.834805
-0.836464
-0.841604
-0.838011
-0.83559
-0.824598
-0.882511
-0.88318
-0.884016
-0.884366
-0.884428
-0.885905
-0.892105
-0.888049
-0.884467
-0.880818
-0.933209
-0.933536
-0.933805
-0.933719
-0.933784
-0.935608
-0.941443
-0.936696
-0.929648
-0.926385
354.206
355.004
356.552
358.774
361.326
364.068
366.692
368.989
370.484
371.279
305.276
306.122
307.745
310.043
312.791
315.757
318.616
321.141
322.789
323.731
256.509
257.423
259.353
261.861
265.002
268.382
271.57
274.532
276.2
277.457
208.187
209.109
211.325
214.211
217.964
222.004
225.844
229.193
231.175
232.83
159.882
160.911
163.435
167.165
171.85
176.861
181.617
185.6
188.262
190.073
112.385
113.763
116.66
120.995
126.784
132.978
138.98
144.036
147.467
149.62
67.2164
68.1412
71.0639
75.3773
82.1959
89.9047
97.845
104.505
108.937
111.467
29.239
27.355
28.8772
33.7139
40.8703
49.8104
59.6625
67.661
72.9038
75.9264
4.55155
2.92316
3.04704
5.25966
9.3488
15.3211
25.2845
33.3765
40.1593
44.2833
-0.393381
-0.45831
-0.468858
-0.461698
-0.459027
-0.370865
1.80726
7.67195
13.025
16.0511
-0.5354
-0.556857
-0.5313
-0.539491
-0.533574
-0.506105
-0.517467
-0.451824
0.0971737
0.58028
-0.601667
-0.653317
-0.608241
-0.593367
-0.577219
-0.555828
-0.578538
-0.564418
-0.5877
-1.22917
-0.643907
-0.709811
-0.658856
-0.642971
-0.624315
-0.620642
-0.640039
-0.655887
-0.707985
0.130865
-0.665123
-0.700382
-0.689159
-0.673659
-0.672069
-0.679568
-0.694499
-0.739062
-0.795878
-0.292362
-0.692833
-0.708967
-0.711096
-0.706157
-0.710104
-0.719101
-0.729228
-0.760079
-0.768104
-0.861638
-0.732225
-0.736978
-0.741818
-0.74442
-0.748106
-0.750307
-0.754731
-0.754117
-0.77857
-0.724492
-0.779369
-0.780314
-0.784393
-0.787713
-0.788212
-0.785037
-0.799138
-0.788124
-0.806139
-0.765102
-0.829626
-0.830624
-0.832767
-0.834961
-0.833275
-0.825278
-0.852171
-0.842711
-0.854617
-0.836016
-0.881123
-0.881747
-0.882573
-0.883837
-0.881071
-0.870597
-0.900063
-0.896713
-0.898288
-0.905042
-0.93168
-0.931994
-0.93223
-0.932801
-0.930737
-0.918431
-0.944334
-0.94606
-0.93584
-0.941933
356.663
357.418
358.84
360.864
363.231
365.873
368.379
370.497
372.087
373.217
307.994
308.775
310.259
312.389
314.948
317.712
320.498
322.749
324.473
325.462
259.731
260.573
262.255
264.599
267.523
270.684
273.632
276.125
277.964
278.846
212.131
213.049
214.886
217.562
221.019
224.771
228.209
231.076
233.155
234.007
165.009
166.006
168.127
171.364
175.604
180.241
184.556
187.984
190.358
191.139
119.372
120.403
122.604
126.145
131.353
137.075
142.685
147.218
149.943
150.885
76.4124
76.8569
78.4264
81.3011
87.5365
94.8027
102.559
108.723
112.289
113.686
38.0306
35.2681
35.6396
39.7584
45.9067
54.6267
65.0624
72.6206
76.738
78.9808
8.30642
4.87668
4.2773
7.04855
11.1839
17.1116
30.1365
39.5208
44.1553
45.8022
-0.304351
-0.416861
-0.461551
-0.473659
-0.493831
-0.225958
3.75938
12.7888
19.3892
19.0466
-0.554077
-0.572464
-0.536833
-0.551254
-0.538807
-0.489987
-0.492353
0.0724129
4.55435
7.35176
-0.612775
-0.661595
-0.60567
-0.583986
-0.568743
-0.548449
-0.566738
-0.538294
0.772952
9.12459
-0.642097
-0.71074
-0.654296
-0.634206
-0.623965
-0.626918
-0.639298
-0.649419
0.375311
11.191
-0.662118
-0.696287
-0.683298
-0.673759
-0.671518
-0.6922
-0.711258
-0.820892
-0.25756
3.83974
-0.692222
-0.709964
-0.710983
-0.704445
-0.713791
-0.711864
-0.755444
-0.848231
-0.931025
-0.650477
-0.733356
-0.740986
-0.744986
-0.745283
-0.750733
-0.729331
-0.74114
-0.744209
-0.780572
-0.591624
-0.780235
-0.782751
-0.786179
-0.788276
-0.788125
-0.766999
-0.770778
-0.791493
-0.813007
-0.411194
-0.829799
-0.830782
-0.832951
-0.835228
-0.834602
-0.814706
-0.832293
-0.859009
-0.862869
-0.701853
-0.880395
-0.881099
-0.882224
-0.883853
-0.884082
-0.869122
-0.886893
-0.917235
-0.898405
-1.02854
-0.930932
-0.931277
-0.931811
-0.932803
-0.93343
-0.929392
-0.932703
-0.960332
-0.924021
-1.02515
357.939
358.67
360.031
361.936
364.081
367.011
369.216
371.209
373.104
374.998
309.394
310.141
311.545
313.588
316.026
318.83
321.514
323.606
325.457
328.784
261.382
262.192
263.749
266.002
268.805
271.92
274.854
277.27
278.793
281.906
214.153
215.045
216.674
219.232
222.59
226.29
229.729
232.514
233.843
236.687
167.589
168.496
170.383
173.416
177.537
182.129
186.406
189.693
190.686
194.446
122.715
123.5
125.364
128.674
133.701
139.372
144.894
149.125
150.039
155.177
80.5938
80.4386
81.1661
83.9048
90.0373
97.2982
105.085
111.061
112.303
119.302
42.2116
38.4287
37.9269
41.6817
47.9289
56.9872
68.1227
75.4482
76.585
81.8029
10.6139
5.60699
4.42065
7.36818
11.6479
18.6853
34.1726
43.7735
43.169
46.056
-0.212013
-0.403049
-0.465666
-0.481834
-0.464287
0.119734
5.10057
16.9229
17.6772
21.8268
-0.569595
-0.591973
-0.559374
-0.56004
-0.545475
-0.468289
-0.276612
0.829168
7.68408
12.4911
-0.626159
-0.671794
-0.606376
-0.596255
-0.573287
-0.555157
-0.554594
-0.871871
10.1061
11.9423
-0.63681
-0.7161
-0.649472
-0.640407
-0.629902
-0.624783
-0.638107
0.317496
11.9711
14.1509
-0.652123
-0.688106
-0.677685
-0.673004
-0.67755
-0.697676
-0.717619
-0.189224
6.03579
11.2683
-0.685879
-0.70387
-0.706611
-0.703375
-0.718529
-0.739097
-0.736148
-0.875757
-0.76003
7.57999
-0.730474
-0.738756
-0.743077
-0.741226
-0.750373
-0.739316
-0.618587
-0.697634
-0.585252
12.546
-0.77867
-0.781676
-0.784588
-0.785304
-0.786797
-0.78435
-0.752925
-0.786249
-0.812466
8.27218
-0.828595
-0.829613
-0.83124
-0.83222
-0.829949
-0.821639
-0.845603
-0.879851
-0.87941
2.94007
-0.879421
-0.879945
-0.880714
-0.881223
-0.880231
-0.873107
-0.890276
-0.918281
-0.895782
-0.414975
-0.930277
-0.930508
-0.930781
-0.930812
-0.928363
-0.931688
-0.955588
-0.94791
-0.903216
-1.41197
357.907
358.649
360.034
361.909
364.063
366.928
369.109
371.126
372.978
374.648
309.361
310.107
311.506
313.546
315.983
318.77
321.463
323.454
325.284
328.509
261.348
262.19
263.678
265.941
268.75
271.85
274.756
277.073
278.691
281.791
214.11
215.014
216.604
219.173
222.529
226.206
229.592
232.262
233.793
236.674
167.548
168.451
170.318
173.358
177.484
182.047
186.233
189.328
190.234
194.373
122.676
123.44
125.288
128.604
133.662
139.319
144.755
148.847
149.526
155.126
80.5376
80.34
81.074
83.898
90.0767
97.3311
105.041
110.868
111.892
119.19
42.1566
38.2215
37.663
41.6927
48.1655
57.3109
68.3445
75.4965
76.5149
83.6489
10.7256
5.55246
4.32569
7.42492
12.0381
19.5063
34.8591
44.1991
43.7484
47.4943
-0.235651
-0.447283
-0.492625
-0.483187
-0.444997
0.208202
5.74352
18.261
19.6316
24.4999
-0.572519
-0.620417
-0.582875
-0.566577
-0.536876
-0.455489
-0.242549
1.62226
10.2212
15.908
-0.623515
-0.686082
-0.615878
-0.611257
-0.576676
-0.568456
-0.572414
-0.721512
11.4242
14.9059
-0.630113
-0.706889
-0.658202
-0.643848
-0.632902
-0.642567
-0.664325
0.0281457
12.0105
14.2253
-0.64618
-0.690326
-0.681291
-0.673339
-0.676256
-0.701538
-0.723617
-0.673246
3.67894
13.4346
-0.681906
-0.701097
-0.707194
-0.70542
-0.707563
-0.729015
-0.700759
-0.792105
-0.679472
11.5948
-0.727401
-0.736015
-0.741227
-0.741571
-0.737965
-0.718908
-0.68928
-0.693305
-0.108533
13.2227
-0.776283
-0.779425
-0.782395
-0.781598
-0.774637
-0.750125
-0.747408
-0.773567
0.848225
15.121
-0.826955
-0.827744
-0.829016
-0.827329
-0.820561
-0.803401
-0.811332
-0.842738
0.64622
15.7186
-0.878305
-0.878635
-0.878701
-0.876393
-0.868158
-0.861447
-0.884512
-0.914958
0.330525
15.419
-0.929733
-0.929797
-0.929518
-0.928088
-0.921624
-0.926476
-0.958368
-0.965122
0.202181
10.9372
356.562
357.321
358.705
360.777
363.096
365.821
368.35
370.464
372.156
373.51
307.901
308.738
310.144
312.272
314.825
317.621
320.409
322.672
324.453
325.47
259.61
260.427
262.084
264.469
267.389
270.552
273.535
276.056
278.039
278.961
211.989
212.907
214.707
217.408
220.863
224.599
228.075
230.956
233.326
234.223
164.902
165.904
168.058
171.197
175.424
180.019
184.316
187.806
190.567
191.509
119.304
120.3
122.426
125.859
131.133
136.818
142.347
146.915
150.09
151.557
76.3187
76.6486
78.1353
81.2815
87.3681
94.5661
102.17
108.382
112.484
114.907
37.96
34.9739
34.9939
39.2544
45.8237
54.5993
64.7363
72.2923
77.1885
80.9417
8.67543
4.83304
4.05047
6.98168
11.6355
17.7785
30.1458
39.3404
44.9091
48.9193
-0.329711
-0.493402
-0.515288
-0.498327
-0.483784
-0.217413
3.80186
13.1027
19.0737
21.1469
-0.556532
-0.629606
-0.594693
-0.571162
-0.54371
-0.480497
-0.507029
0.0841087
2.91564
6.06923
-0.610573
-0.684762
-0.631228
-0.614468
-0.581464
-0.561904
-0.578009
-0.507051
0.152467
5.18769
-0.623914
-0.694687
-0.669553
-0.64907
-0.634233
-0.631169
-0.656342
-0.656057
0.607099
6.94432
-0.642479
-0.686006
-0.685379
-0.676752
-0.677217
-0.686753
-0.71398
-0.798964
-0.771656
1.8954
-0.67884
-0.697608
-0.705459
-0.706678
-0.712607
-0.720144
-0.727303
-0.766532
-0.809319
-0.533959
-0.724356
-0.731739
-0.738255
-0.741769
-0.744465
-0.746362
-0.739781
-0.757388
-0.816213
-0.45419
-0.774013
-0.776493
-0.780863
-0.783781
-0.785583
-0.787967
-0.790241
-0.809053
-0.869337
-0.214761
-0.825911
-0.826671
-0.829339
-0.831413
-0.833388
-0.838741
-0.851423
-0.856763
-0.912472
-0.593513
-0.878155
-0.878722
-0.880071
-0.881308
-0.883187
-0.891174
-0.906869
-0.917124
-0.952062
-1.02448
-0.92981
-0.930085
-0.930854
-0.932034
-0.93452
-0.944377
-0.957105
-0.961377
-0.960186
-0.993887
354.017
354.819
356.338
358.491
361.008
363.839
366.55
368.866
370.352
371.244
305.102
305.979
307.55
309.826
312.568
315.559
318.459
321.001
322.655
323.76
256.318
257.234
259.089
261.649
264.787
268.175
271.415
274.423
276.176
277.447
207.924
208.916
211.054
213.976
217.715
221.749
225.62
228.989
231.278
232.78
159.763
160.777
163.196
166.895
171.538
176.522
181.298
185.35
188.22
190.169
112.377
113.708
116.432
120.613
126.35
132.521
138.535
143.706
147.413
149.783
67.2335
68.1341
70.7714
75.0002
81.6616
89.3434
97.2718
104.084
108.839
111.602
28.9467
27.4477
28.3928
32.8606
40.0917
49.1945
59.034
67.1338
72.9546
76.0394
4.9053
3.06915
2.95534
5.07051
9.34555
15.672
25.2145
33.0687
40.5834
44.544
-0.393483
-0.502733
-0.512986
-0.494094
-0.465991
-0.374703
1.77405
7.74175
13.5229
16.1947
-0.535064
-0.61601
-0.59148
-0.569392
-0.538222
-0.513968
-0.517323
-0.505829
0.119145
0.540686
-0.593653
-0.666768
-0.62906
-0.616186
-0.582798
-0.563944
-0.576501
-0.576738
-0.561454
-1.2382
-0.615816
-0.676902
-0.668133
-0.650861
-0.631
-0.625745
-0.637791
-0.650845
-0.701376
-0.152828
-0.638131
-0.673219
-0.679136
-0.673908
-0.668852
-0.674042
-0.692491
-0.732055
-0.849232
-0.612204
-0.675666
-0.688572
-0.696985
-0.701168
-0.703811
-0.708602
-0.714792
-0.725099
-0.785524
-0.746781
-0.721358
-0.724908
-0.731621
-0.737679
-0.740807
-0.74171
-0.741014
-0.736886
-0.770769
-0.70548
-0.772136
-0.772947
-0.778047
-0.782181
-0.783633
-0.782996
-0.785405
-0.787134
-0.825383
-0.774532
-0.825355
-0.825956
-0.829081
-0.831197
-0.831555
-0.831258
-0.835218
-0.836828
-0.862321
-0.860622
-0.878651
-0.87931
-0.880735
-0.8816
-0.881788
-0.882094
-0.887393
-0.88624
-0.915717
-0.895736
-0.930471
-0.930805
-0.931597
-0.932253
-0.93276
-0.934434
-0.940063
-0.94251
-0.954525
-0.976517
350.483
351.313
352.971
355.233
358.001
360.862
364.055
366.586
368.205
369.25
301.187
302.036
303.903
306.398
309.395
312.601
315.746
318.38
320.251
321.426
251.673
252.676
254.879
257.677
261.135
264.823
268.33
271.202
273.423
274.74
201.887
203.142
205.627
209.063
213.259
217.71
221.942
225.517
228.114
229.654
151.543
153.188
156.231
160.642
165.934
171.512
176.783
181.224
184.428
186.366
101.913
103.686
107.289
112.659
119.308
126.303
132.849
138.449
142.433
144.843
53.5146
54.7286
58.5005
64.887
72.8896
81.4542
89.8574
97.1227
102.073
104.759
16.2759
15.9282
18.3079
23.5485
31.1841
40.4001
50.1116
58.8882
64.5422
66.8625
1.02844
0.723629
1.20745
2.27348
5.04809
10.256
16.1005
25.2495
30.4003
31.7813
-0.452406
-0.518837
-0.52165
-0.493864
-0.462908
-0.449397
-0.250048
1.87042
3.86952
3.96585
-0.529876
-0.608538
-0.591577
-0.570929
-0.534936
-0.520036
-0.502539
-0.520825
-0.472042
-0.377451
-0.583068
-0.648765
-0.616084
-0.614412
-0.583825
-0.568126
-0.564375
-0.581703
-0.586506
-0.571928
-0.605719
-0.653051
-0.650496
-0.646574
-0.62768
-0.620331
-0.624413
-0.638961
-0.67143
-0.64733
-0.633031
-0.653849
-0.663196
-0.664596
-0.661518
-0.66338
-0.672686
-0.693397
-0.718831
-0.731816
-0.673225
-0.676227
-0.683174
-0.69125
-0.697156
-0.701866
-0.707443
-0.716162
-0.734292
-0.7121
-0.720038
-0.717608
-0.721908
-0.731578
-0.737806
-0.741257
-0.743467
-0.742113
-0.747164
-0.708678
-0.772336
-0.77041
-0.776125
-0.780785
-0.784132
-0.786203
-0.788061
-0.787921
-0.791208
-0.775758
-0.826615
-0.826715
-0.830053
-0.832287
-0.833869
-0.835425
-0.837844
-0.839896
-0.844695
-0.830769
-0.881034
-0.881426
-0.882781
-0.883723
-0.884555
-0.885997
-0.888856
-0.8914
-0.895627
-0.865183
-0.93219
-0.932558
-0.933362
-0.934004
-0.934775
-0.936341
-0.938846
-0.940488
-0.942814
-0.94486
346.342
347.19
349.013
351.561
354.619
357.781
361.098
363.694
365.511
366.609
296.556
297.527
299.552
302.35
305.683
309.194
312.583
315.424
317.423
318.593
246.118
247.22
249.569
252.909
256.796
260.879
264.736
267.985
270.337
271.62
194.683
196.22
199.018
203.145
207.909
212.906
217.597
221.547
224.385
225.943
142.179
144.016
147.702
152.993
159.089
165.443
171.369
176.287
179.751
181.713
89.1511
91.3846
96.0527
102.772
110.538
118.643
126.116
132.232
136.485
138.896
37.4024
38.4757
43.5227
51.739
61.7928
71.809
81.1678
88.9551
94.1431
96.8104
4.59947
5.66393
7.87996
12.635
20.5211
30.1133
40.1399
48.8341
54.1648
56.2319
-0.0525032
-0.256055
-0.227983
0.120494
1.2539
4.52267
9.81746
15.0027
17.9582
18.557
-0.405521
-0.506584
-0.547526
-0.519707
-0.482005
-0.462517
-0.46465
-0.392926
-0.17258
-0.121102
-0.506562
-0.594174
-0.58472
-0.567952
-0.537687
-0.526314
-0.524642
-0.519283
-0.488862
-0.481363
-0.547571
-0.614532
-0.604678
-0.605101
-0.582051
-0.570331
-0.56706
-0.565606
-0.560388
-0.558544
-0.58598
-0.615161
-0.625978
-0.632039
-0.621452
-0.616035
-0.618794
-0.625254
-0.631047
-0.631993
-0.6289
-0.63404
-0.641393
-0.649384
-0.652901
-0.655786
-0.662764
-0.67401
-0.685136
-0.693864
-0.673411
-0.667775
-0.66888
-0.680439
-0.689801
-0.695711
-0.701862
-0.708834
-0.71756
-0.719731
-0.721264
-0.714217
-0.715586
-0.725874
-0.733685
-0.738487
-0.742099
-0.744218
-0.746719
-0.734095
-0.77467
-0.771588
-0.776123
-0.779406
-0.782862
-0.785474
-0.787483
-0.788286
-0.789774
-0.780542
-0.831269
-0.832149
-0.83348
-0.833721
-0.834587
-0.835379
-0.836568
-0.837303
-0.839843
-0.840579
-0.885173
-0.887589
-0.8881
-0.887163
-0.886354
-0.886052
-0.886726
-0.887286
-0.890539
-0.897124
-0.935983
-0.937971
-0.938318
-0.937383
-0.936416
-0.936109
-0.936561
-0.937102
-0.937837
-0.941952
341.871
342.816
344.783
347.648
351.034
354.522
358.087
360.916
362.833
363.868
291.577
292.648
294.92
298.081
301.761
305.619
309.299
312.359
314.515
315.688
239.97
241.328
243.908
247.792
252.175
256.706
260.945
264.5
267.009
268.399
187.156
188.91
192.116
196.841
202.21
207.798
213.014
217.369
220.436
222.079
132.277
134.201
138.42
144.55
151.665
158.936
165.62
171.104
174.893
176.915
75.7087
78.057
83.9376
91.6343
100.847
110.277
118.902
125.81
130.513
132.974
20.4137
22.349
28.3726
36.7975
48.9811
61.4116
72.2808
80.9633
86.7399
89.5205
0.583041
0.878287
2.13874
4.51703
9.85796
20.1157
30.5675
39.4814
45.1412
47.4545
-0.089395
-0.250383
-0.362231
-0.369093
-0.193399
1.15108
4.6659
8.7561
11.5293
12.538
-0.340715
-0.442172
-0.495865
-0.494106
-0.465375
-0.479169
-0.469865
-0.476279
-0.485871
-0.480251
-0.463517
-0.525613
-0.541691
-0.539771
-0.52044
-0.530589
-0.531444
-0.53744
-0.53813
-0.53709
-0.530511
-0.561504
-0.576511
-0.584531
-0.573566
-0.571538
-0.574568
-0.579408
-0.580649
-0.577915
-0.587127
-0.599249
-0.611262
-0.616588
-0.612702
-0.613237
-0.618926
-0.627389
-0.633887
-0.629941
-0.634221
-0.635569
-0.635239
-0.639452
-0.643967
-0.649171
-0.657112
-0.666445
-0.67433
-0.672958
-0.676128
-0.67107
-0.668077
-0.675303
-0.683101
-0.689684
-0.696608
-0.703079
-0.708531
-0.709001
-0.723501
-0.718969
-0.720029
-0.726007
-0.730974
-0.735226
-0.739106
-0.741843
-0.743634
-0.740669
-0.779674
-0.779874
-0.782393
-0.782392
-0.782963
-0.784267
-0.785708
-0.786337
-0.786541
-0.783687
-0.842564
-0.84555
-0.843677
-0.839445
-0.836674
-0.835399
-0.835204
-0.83502
-0.835379
-0.834936
-0.900373
-0.903666
-0.899978
-0.89504
-0.889868
-0.886677
-0.885447
-0.884846
-0.885128
-0.885461
-0.946862
-0.951342
-0.949519
-0.945033
-0.939768
-0.936503
-0.93523
-0.934764
-0.934567
-0.935988
337.376
338.571
340.679
343.847
347.593
351.625
355.22
358.26
360.345
361.502
286.749
287.991
290.437
293.958
298.028
302.262
306.221
309.518
311.796
313.161
234.233
235.732
238.613
242.909
247.734
252.743
257.366
261.24
263.929
265.517
179.813
181.583
185.245
190.831
196.778
202.962
208.698
213.503
216.86
218.604
123.025
124.798
129.157
136.144
144.286