/*--------------------------------*- C++ -*----------------------------------*\
| =========                 |                                                 |
| \\      /  F ield         | OpenFOAM: The Open Source CFD Toolbox           |
|  \\    /   O peration     | Version:  2312                                  |
|   \\  /    A nd           | Website:  www.openfoam.com                      |
|    \\/     M anipulation  |                                                 |
\*---------------------------------------------------------------------------*/
FoamFile
{
    version     2.0;
    format      ascii;
    arch        "LSB;label=32;scalar=64";
    class       volVectorField;
    location    "0.13";
    object      U;
}
// * * * * * * * * * * * * * * * * * * * * * * * * * * * * * * * * * * * * * //

dimensions      [0 1 -1 0 0 0 0];

internalField   nonuniform List<vector> 
8000
(
(-0.00107247 0.00216325 -0.00109296)
(-0.00314408 0.00218494 -0.0011886)
(-0.00499149 0.00222296 -0.00137747)
(-0.00645771 0.00227096 -0.00165612)
(-0.00738413 0.00231985 -0.00201396)
(-0.00762578 0.00236057 -0.00242959)
(-0.00707944 0.00238673 -0.00286699)
(-0.0057214 0.0023969 -0.00327483)
(-0.00364398 0.00239556 -0.00359182)
(-0.00107214 0.00239083 -0.00376038)
(-0.00105402 0.00645282 -0.00107401)
(-0.00309354 0.00652455 -0.00117202)
(-0.00491896 0.00665077 -0.00136643)
(-0.00637861 0.00681329 -0.00165524)
(-0.00731526 0.00698445 -0.00202951)
(-0.00758065 0.00713564 -0.00246885)
(-0.0070635 0.00724478 -0.00293668)
(-0.00572912 0.00730372 -0.00337815)
(-0.00366061 0.00732144 -0.00372526)
(-0.00108173 0.00731862 -0.00391151)
(-0.00100501 0.0106075 -0.00102382)
(-0.002954 0.0107453 -0.0011243)
(-0.00471064 0.0109928 -0.0013252)
(-0.00613449 0.0113205 -0.00162727)
(-0.00707401 0.0116818 -0.00202501)
(-0.00737833 0.0120252 -0.00250078)
(-0.0069235 0.0123056 -0.00301789)
(-0.00565465 0.0124968 -0.00351649)
(-0.00363546 0.0125985 -0.00391664)
(-0.00108299 0.012632 -0.004135)
(-0.000920037 0.0144927 -0.000936962)
(-0.00270964 0.0147174 -0.00103749)
(-0.00433804 0.0151297 -0.00124049)
(-0.00568227 0.0156907 -0.00155034)
(-0.0066022 0.0163353 -0.0019664)
(-0.00694814 0.0169866 -0.00247591)
(-0.00658391 0.0175679 -0.00304447)
(-0.00542993 0.0180181 -0.00360769)
(-0.00352152 0.0183054 -0.0040715)
(-0.00106004 0.0184303 -0.00433016)
(-0.000787099 0.0179408 -0.000801332)
(-0.00232349 0.0182698 -0.000895471)
(-0.00373698 0.0188847 -0.00108763)
(-0.00492863 0.0197406 -0.00138573)
(-0.00577794 0.0207577 -0.00179463)
(-0.00614578 0.021834 -0.00230838)
(-0.00589241 0.022854 -0.00289842)
(-0.0049177 0.0237051 -0.00350117)
(-0.00322375 0.0242976 -0.00401289)
(-0.000981721 0.0245814 -0.004306)
(-0.000599288 0.0207057 -0.000609976)
(-0.0017738 0.0211414 -0.000687661)
(-0.00286681 0.0219673 -0.000847936)
(-0.00380874 0.0231378 -0.00110067)
(-0.00450832 0.0245653 -0.00145507)
(-0.00485156 0.0261278 -0.00191229)
(-0.00471288 0.0276714 -0.00245328)
(-0.00398668 0.0290228 -0.00302371)
(-0.00264575 0.0300135 -0.00352369)
(-0.000815049 0.0305133 -0.00381859)
(-0.000362077 0.0243889 -0.000368478)
(-0.00107106 0.0249602 -0.000418342)
(-0.00173958 0.0260542 -0.000522261)
(-0.00232932 0.0276265 -0.000688889)
(-0.00278651 0.0295832 -0.000927979)
(-0.00303828 0.0317817 -0.0012453)
(-0.00299634 0.0340233 -0.00163302)
(-0.00257501 0.0360562 -0.00205598)
(-0.00173329 0.0376025 -0.0024397)
(-0.000539402 0.0384104 -0.00267333)
(-3.57243e-05 0.013924 -3.63013e-05)
(-0.000101016 0.0142728 -4.08038e-05)
(-0.000167806 0.0149474 -5.06342e-05)
(-0.000232461 0.0159251 -6.70872e-05)
(-0.000290666 0.0171562 -9.1893e-05)
(-0.000334578 0.0185602 -0.000126322)
(-0.000351311 0.020017 -0.000167686)
(-0.000321134 0.0213629 -0.000203653)
(-0.000225674 0.0224062 -0.00021996)
(-6.93478e-05 0.0229615 -0.000216381)
(-0.000940923 0.0240245 -0.000956001)
(-0.00265754 0.0245788 -0.00101025)
(-0.00433456 0.025664 -0.00109773)
(-0.00580846 0.027224 -0.00123645)
(-0.00703562 0.0291627 -0.00144028)
(-0.00795584 0.0313245 -0.00173225)
(-0.00842284 0.0334664 -0.0021091)
(-0.00799746 0.0352386 -0.00227515)
(-0.00589436 0.0362417 -0.00168158)
(-0.00193853 0.0364138 -0.000878852)
(-0.00870321 0.0451681 -0.008779)
(-0.0272101 0.0465751 -0.00937819)
(-0.0467461 0.0486131 -0.0100981)
(-0.0682351 0.0519739 -0.0114151)
(-0.0926859 0.056834 -0.0138759)
(-0.12112 0.0634553 -0.0188566)
(-0.152714 0.0719143 -0.03009)
(-0.176517 0.0808052 -0.0533889)
(-0.15651 0.0874929 -0.0854777)
(-0.0584443 0.0922443 -0.118372)
(-0.00836941 0.0797847 -0.00845372)
(-0.0261765 0.0836297 -0.00897586)
(-0.044516 0.0886641 -0.00946524)
(-0.0640339 0.0970503 -0.0103012)
(-0.0848942 0.109961 -0.0117494)
(-0.10659 0.129328 -0.0144297)
(-0.126315 0.158026 -0.0198074)
(-0.135276 0.198847 -0.0311936)
(-0.114162 0.248689 -0.0501862)
(-0.0422936 0.28707 -0.0682706)
(-0.00682564 0.111268 -0.00690372)
(-0.0213095 0.116526 -0.00722639)
(-0.0357835 0.122827 -0.00733417)
(-0.0504307 0.133002 -0.00748612)
(-0.0648083 0.148001 -0.00773017)
(-0.077767 0.169154 -0.00822924)
(-0.0865181 0.197987 -0.00931803)
(-0.0855066 0.235153 -0.0115704)
(-0.0665524 0.276852 -0.0156594)
(-0.0232573 0.308184 -0.0203953)
(-0.00524371 0.136321 -0.00531361)
(-0.0163942 0.142254 -0.00549163)
(-0.0272122 0.148467 -0.00535911)
(-0.0376374 0.158169 -0.00512462)
(-0.0470545 0.171794 -0.00477685)
(-0.0543801 0.189771 -0.00435401)
(-0.0576152 0.212206 -0.00396574)
(-0.0536673 0.238064 -0.00371461)
(-0.0392453 0.263609 -0.00361264)
(-0.0131569 0.280812 -0.00394082)
(-0.00380747 0.155159 -0.00386697)
(-0.0119817 0.161379 -0.00396442)
(-0.0197177 0.166846 -0.00373281)
(-0.0268933 0.175135 -0.00336453)
(-0.0329505 0.186304 -0.00285867)
(-0.0370949 0.200249 -0.00225089)
(-0.0380833 0.21646 -0.00163593)
(-0.0342869 0.233571 -0.00114559)
(-0.0243211 0.248803 -0.000872483)
(-0.00811905 0.258003 -0.00101278)
(-0.0025843 0.168536 -0.00263129)
(-0.00825485 0.174876 -0.00268934)
(-0.0135144 0.179413 -0.00243425)
(-0.0182686 0.186134 -0.00204873)
(-0.0220877 0.194913 -0.0015474)
(-0.0244532 0.205438 -0.000973491)
(-0.0246382 0.217076 -0.000414855)
(-0.0217956 0.228669 8.33783e-06)
(-0.015311 0.238372 0.000184992)
(-0.00522325 0.243874 -4.52567e-05)
(-0.00158224 0.177358 -0.00161538)
(-0.00521926 0.183778 -0.00165216)
(-0.00853398 0.187444 -0.0013989)
(-0.0114897 0.192779 -0.0010253)
(-0.0137894 0.199597 -0.00055149)
(-0.0151266 0.207546 -1.88575e-05)
(-0.0150987 0.216047 0.000497229)
(-0.0132732 0.224216 0.00089799)
(-0.00938185 0.230829 0.00108941)
(-0.00335401 0.234462 0.000878642)
(-0.000778096 0.182486 -0.000796863)
(-0.00278916 0.189001 -0.000817183)
(-0.00458509 0.191935 -0.000567297)
(-0.00619346 0.196138 -0.000199882)
(-0.00742918 0.201433 0.000266679)
(-0.00814127 0.207491 0.000797766)
(-0.00813128 0.213829 0.00132961)
(-0.00718935 0.219779 0.00177544)
(-0.00522856 0.224542 0.00207005)
(-0.00204006 0.227126 0.00192737)
(-0.000134503 0.18466 -0.000139058)
(-0.000853294 0.191302 -0.000143759)
(-0.00146891 0.193651 0.000107596)
(-0.00205795 0.196955 0.000480804)
(-0.00252551 0.201065 0.000958825)
(-0.00283723 0.205697 0.00151549)
(-0.0029237 0.210473 0.00209869)
(-0.00268331 0.214888 0.00262221)
(-0.00217286 0.218434 0.00306404)
(-0.0010714 0.220357 0.00302037)
(0.000382878 0.184524 0.000392225)
(0.000694066 0.191326 0.000404118)
(0.000991876 0.193182 0.000657474)
(0.00117169 0.195767 0.00103819)
(0.00126302 0.198943 0.00153345)
(0.00120972 0.202485 0.00211821)
(0.000991121 0.206079 0.00275689)
(0.000689253 0.209359 0.00331943)
(0.000125648 0.211982 0.00392995)
(-0.000332429 0.213453 0.00395824)
(0.000801435 0.182505 0.000826882)
(0.00191246 0.189523 0.000848925)
(0.00291736 0.190965 0.00110529)
(0.00369461 0.192987 0.00149536)
(0.0041866 0.195452 0.002004)
(0.00429089 0.19815 0.00260237)
(0.00393251 0.200846 0.00326392)
(0.00318716 0.203284 0.00386503)
(0.00183135 0.205171 0.00451631)
(0.000232681 0.206255 0.00463315)
(-0.00116811 0.00218549 -0.00320611)
(-0.0034294 0.00220507 -0.00349172)
(-0.00546145 0.00223807 -0.00405776)
(-0.00709737 0.00227671 -0.00489544)
(-0.00816121 0.0023102 -0.00597562)
(-0.00848255 0.00232838 -0.00723656)
(-0.00792816 0.00232535 -0.00857121)
(-0.00644905 0.00230301 -0.00982325)
(-0.00413135 0.00227239 -0.010802)
(-0.0012266 0.00225038 -0.0113248)
(-0.00115202 0.00652627 -0.00315416)
(-0.00338676 0.00659334 -0.00344769)
(-0.00540457 0.00670789 -0.00403227)
(-0.00704473 0.00684751 -0.00490389)
(-0.00813225 0.00697944 -0.00603897)
(-0.00849116 0.00707124 -0.00737965)
(-0.00797573 0.00710143 -0.00881734)
(-0.00651994 0.0070703 -0.0101845)
(-0.00419534 0.00700537 -0.0112675)
(-0.00125235 0.00695297 -0.011852)
(-0.00110548 0.0107483 -0.00301115)
(-0.00325616 0.0108835 -0.00331364)
(-0.00521593 0.0111223 -0.00392128)
(-0.00683731 0.0114287 -0.0048394)
(-0.00795096 0.0117478 -0.00605624)
(-0.00837475 0.0120206 -0.00752363)
(-0.00794248 0.0121998 -0.00913363)
(-0.00655604 0.0122687 -0.010702)
(-0.00425568 0.0122533 -0.0119739)
(-0.00128326 0.0122141 -0.0126745)
(-0.00102055 0.014722 -0.00276124)
(-0.00301389 0.014953 -0.00306585)
(-0.00485306 0.0153743 -0.00368439)
(-0.00641103 0.0159394 -0.00463461)
(-0.00753108 0.0165731 -0.00592188)
(-0.00802969 0.0171866 -0.0075151)
(-0.00771901 0.0176951 -0.00931459)
(-0.00645972 0.0180412 -0.0111215)
(-0.00424581 0.018217 -0.0126305)
(-0.00129737 0.0182672 -0.0134835)
(-0.000881231 0.0182761 -0.00236705)
(-0.00261043 0.018628 -0.00265435)
(-0.00422914 0.0192859 -0.00324462)
(-0.00563816 0.0201992 -0.00416796)
(-0.00670362 0.0212784 -0.00544877)
(-0.00725287 0.0224073 -0.0070803)
(-0.00708848 0.0234553 -0.00898436)
(-0.00603503 0.0242995 -0.0109646)
(-0.00403055 0.0248561 -0.0126784)
(-0.00125065 0.0251038 -0.0136795)
(-0.000676968 0.0211492 -0.00180664)
(-0.00201228 0.0216293 -0.00204543)
(-0.00328134 0.0225438 -0.00254189)
(-0.00441794 0.0238463 -0.00333293)
(-0.00532249 0.0254443 -0.00445769)
(-0.0058527 0.0272039 -0.00593407)
(-0.00582737 0.0289506 -0.00771673)
(-0.00505995 0.0304825 -0.00964055)
(-0.00344269 0.0316021 -0.0113708)
(-0.0010853 0.0321619 -0.0124199)
(-0.000411939 0.0249702 -0.0010908)
(-0.0012251 0.0256144 -0.00124505)
(-0.00201099 0.0268585 -0.00156949)
(-0.00273625 0.0286664 -0.0020965)
(-0.00334453 0.0309513 -0.00286634)
(-0.00374534 0.03357 -0.00391159)
(-0.00380939 0.0363067 -0.00522505)
(-0.00338416 0.0388678 -0.00670888)
(-0.0023526 0.0408918 -0.00811289)
(-0.000752604 0.0419951 -0.00900909)
(-4.02293e-05 0.0142788 -0.000102823)
(-0.000115105 0.0146759 -0.000116916)
(-0.000193504 0.0154517 -0.000147952)
(-0.000272835 0.0165917 -0.000200817)
(-0.000348697 0.0180555 -0.00028245)
(-0.00040888 0.0197684 -0.000396029)
(-0.000426995 0.0216046 -0.000527252)
(-0.000371655 0.0233795 -0.000640627)
(-0.000235637 0.0248435 -0.000685311)
(-6.22279e-05 0.0256785 -0.000635968)
(-0.000994941 0.0245888 -0.00270238)
(-0.00280674 0.0252198 -0.00285144)
(-0.00457517 0.026463 -0.00310526)
(-0.00613634 0.0282736 -0.0035011)
(-0.00745918 0.0305664 -0.00407734)
(-0.00846459 0.0331702 -0.00484302)
(-0.00870197 0.035748 -0.00532533)
(-0.00741919 0.0376008 -0.00421367)
(-0.00492707 0.0381327 -0.00380858)
(-0.0014941 0.0380678 -0.00796949)
(-0.00929923 0.0465824 -0.0274422)
(-0.0288944 0.0481252 -0.0291152)
(-0.0498592 0.0503868 -0.0313505)
(-0.0734744 0.0541733 -0.0352432)
(-0.101973 0.0598194 -0.0421564)
(-0.140003 0.0673507 -0.0552034)
(-0.192713 0.0746608 -0.0830445)
(-0.229923 0.0826306 -0.147743)
(-0.17569 0.119514 -0.30477)
(-0.0510836 0.162779 -0.489007)
(-0.00888814 0.0836361 -0.0264392)
(-0.0275975 0.0878693 -0.0278554)
(-0.0470269 0.0936293 -0.0293552)
(-0.0679282 0.103367 -0.0317388)
(-0.0910286 0.118764 -0.0355447)
(-0.117124 0.142835 -0.0421547)
(-0.14674 0.181172 -0.0560546)
(-0.170984 0.241992 -0.0863337)
(-0.151636 0.321037 -0.138599)
(-0.05605 0.379962 -0.205118)
(-0.00714537 0.116538 -0.0215545)
(-0.0221093 0.122204 -0.0223544)
(-0.0371078 0.129178 -0.0226589)
(-0.0522483 0.140508 -0.022958)
(-0.0672694 0.157423 -0.0232257)
(-0.0813113 0.181841 -0.0236624)
(-0.0920685 0.216632 -0.0250573)
(-0.0945665 0.265735 -0.0291004)
(-0.0785518 0.327193 -0.0359278)
(-0.0295603 0.376074 -0.0441529)
(-0.00541931 0.142272 -0.016614)
(-0.0167689 0.148532 -0.0169916)
(-0.0277906 0.155161 -0.0165796)
(-0.0383014 0.165506 -0.0157786)
(-0.0477566 0.180055 -0.0144662)
(-0.0551775 0.199375 -0.0126316)
(-0.0586105 0.223835 -0.0104336)
(-0.0548523 0.25288 -0.00794415)
(-0.0407693 0.283333 -0.00493645)
(-0.0142232 0.305663 -0.00309316)
(-0.003903 0.161402 -0.0121688)
(-0.0121412 0.167871 -0.0123323)
(-0.0199592 0.173542 -0.0116502)
(-0.0271196 0.182107 -0.0105299)
(-0.0331192 0.1936 -0.00893089)
(-0.0372408 0.207911 -0.00692166)
(-0.0383159 0.224554 -0.00475244)
(-0.0346859 0.242134 -0.0027602)
(-0.0249888 0.257715 -0.00117272)
(-0.00866824 0.267176 -0.00123611)
(-0.00264093 0.174903 -0.00840236)
(-0.00832032 0.181452 -0.00847174)
(-0.0136242 0.186082 -0.00774129)
(-0.0183585 0.192915 -0.00662332)
(-0.022141 0.201801 -0.00514405)
(-0.0245092 0.212417 -0.00342055)
(-0.0247963 0.224142 -0.00171615)
(-0.0221645 0.235834 -0.000390783)
(-0.0160214 0.245602 0.000247064)
(-0.00579599 0.251088 -0.000703107)
(-0.00161806 0.183807 -0.00532317)
(-0.00523938 0.19043 -0.00534618)
(-0.00858073 0.19415 -0.00463171)
(-0.0115173 0.199553 -0.00357246)
(-0.0137898 0.206446 -0.00221677)
(-0.0151319 0.214478 -0.000679073)
(-0.0151855 0.223088 0.000812844)
(-0.0135296 0.231408 0.00195762)
(-0.00998064 0.238231 0.00252895)
(-0.00386968 0.24197 0.00154922)
(-0.000797851 0.18903 -0.0028482)
(-0.00277528 0.19576 -0.00283605)
(-0.0045788 0.19874 -0.00213404)
(-0.00615303 0.203012 -0.00109929)
(-0.0073438 0.208398 0.000223557)
(-0.00803243 0.214577 0.00174285)
(-0.00806229 0.22109 0.00327054)
(-0.00722008 0.227278 0.00453103)
(-0.00560856 0.232358 0.00544256)
(-0.002461 0.235091 0.00476098)
(-0.000138973 0.191331 -0.000868206)
(-0.000805679 0.198208 -0.000821266)
(-0.00140483 0.200599 -0.000116437)
(-0.00193561 0.203972 0.000931965)
(-0.00233008 0.2082 0.00228889)
(-0.0025771 0.212999 0.00388733)
(-0.0026576 0.218 0.00557586)
(-0.00243558 0.22265 0.00703302)
(-0.00227675 0.226588 0.00847254)
(-0.00137979 0.22865 0.00821164)
(0.000394707 0.191357 0.000722304)
(0.000773652 0.198407 0.000801625)
(0.00110664 0.200318 0.00151069)
(0.00137094 0.202998 0.00258781)
(0.00156267 0.206321 0.00399576)
(0.00161335 0.210039 0.00568226)
(0.0014061 0.213864 0.00752345)
(0.00118747 0.217364 0.0091533)
(0.000285509 0.22031 0.0110138)
(-0.000563335 0.221898 0.0110894)
(0.000823145 0.189559 0.00198636)
(0.00201669 0.196851 0.00209211)
(0.00308018 0.198373 0.00281835)
(0.00396197 0.200513 0.00391782)
(0.0045648 0.20313 0.0053594)
(0.00478395 0.206024 0.00709159)
(0.00445792 0.20894 0.00902275)
(0.0038043 0.211596 0.0107453)
(0.00214392 0.213693 0.0127741)
(0.000106321 0.214888 0.0130728)
(-0.00135722 0.00222455 -0.00509645)
(-0.00399569 0.0022391 -0.00556772)
(-0.00639766 0.00226022 -0.00650517)
(-0.00837883 0.00227671 -0.0079009)
(-0.00972915 0.00227382 -0.00971552)
(-0.0102256 0.00223837 -0.0118552)
(-0.00967021 0.00216508 -0.0141461)
(-0.00795563 0.00206328 -0.0163216)
(-0.00514774 0.00196003 -0.0180418)
(-0.00155006 0.00189466 -0.018969)
(-0.00134669 0.00665577 -0.00502181)
(-0.0039716 0.00671113 -0.00550881)
(-0.00637749 0.00679676 -0.00648308)
(-0.00838825 0.0068803 -0.00794624)
(-0.00979422 0.00691665 -0.00987054)
(-0.0103621 0.00686345 -0.0121713)
(-0.00987087 0.00669927 -0.0146736)
(-0.00818094 0.00644368 -0.0170901)
(-0.00532896 0.00616948 -0.019034)
(-0.00161599 0.00598942 -0.0200955)
(-0.00130667 0.0110018 -0.00480803)
(-0.00386408 0.0111281 -0.00531487)
(-0.00623868 0.0113411 -0.00633912)
(-0.00827248 0.0115892 -0.00790162)
(-0.00976183 0.0117969 -0.00999944)
(-0.0104596 0.0118861 -0.0125702)
(-0.0101056 0.011803 -0.0154444)
(-0.00849808 0.0115528 -0.0183024)
(-0.00561009 0.0112272 -0.0206708)
(-0.00172413 0.0109915 -0.0220012)
(-0.00122387 0.0151433 -0.00442653)
(-0.00363274 0.0153833 -0.00494323)
(-0.00590893 0.0158131 -0.00600078)
(-0.00792268 0.016369 -0.00764631)
(-0.00948628 0.0169497 -0.00991401)
(-0.0103449 0.0174369 -0.0127799)
(-0.0101945 0.0177241 -0.0160953)
(-0.00874976 0.0177621 -0.0195137)
(-0.00588642 0.0176074 -0.0224497)
(-0.0018409 0.0174315 -0.0241567)
(-0.00107371 0.0189035 -0.00381222)
(-0.00320102 0.0192984 -0.00430611)
(-0.00525246 0.0200356 -0.00533119)
(-0.00713541 0.021051 -0.0069611)
(-0.0086937 0.022231 -0.00927267)
(-0.00968556 0.0234244 -0.0122969)
(-0.00978153 0.0244616 -0.0159363)
(-0.00861661 0.0251961 -0.019853)
(-0.00594256 0.025568 -0.0233721)
(-0.00189804 0.0256561 -0.0255129)
(-0.00083753 0.0219911 -0.00292396)
(-0.00250902 0.0225599 -0.00334004)
(-0.00415577 0.0236519 -0.0042161)
(-0.00572671 0.0252191 -0.00564086)
(-0.00711247 0.0271581 -0.00772275)
(-0.00811467 0.0293074 -0.0105481)
(-0.00842458 0.0314425 -0.0140946)
(-0.0076466 0.0332916 -0.0180936)
(-0.00543008 0.0345942 -0.0218681)
(-0.00177382 0.0352011 -0.0242813)
(-0.000516055 0.0260848 -0.00177421)
(-0.00154974 0.0268794 -0.00204667)
(-0.00259197 0.0284363 -0.00262879)
(-0.00362767 0.0307425 -0.00359909)
(-0.00460396 0.0337356 -0.00506767)
(-0.00540068 0.0372865 -0.00715424)
(-0.00579916 0.0411649 -0.00992943)
(-0.00547009 0.0449926 -0.0132887)
(-0.00404039 0.0482028 -0.0167283)
(-0.0013546 0.0500701 -0.0191048)
(-5.00758e-05 0.0149662 -0.00017108)
(-0.000146161 0.0154647 -0.000196822)
(-0.000251293 0.0164553 -0.000254673)
(-0.000366135 0.0179464 -0.000356753)
(-0.000484541 0.0199279 -0.000519253)
(-0.000577576 0.0223545 -0.000748559)
(-0.000593456 0.0251233 -0.00103701)
(-0.000472319 0.0280301 -0.00136024)
(-0.000204133 0.030611 -0.00163374)
(-5.25829e-06 0.0321165 -0.00162489)
(-0.00108112 0.0256947 -0.00440801)
(-0.00305874 0.026484 -0.00464478)
(-0.00497191 0.0280598 -0.00503743)
(-0.00666679 0.0304134 -0.00563425)
(-0.00808083 0.0334852 -0.00644592)
(-0.00866223 0.0370791 -0.00702568)
(-0.0072543 0.0405307 -0.00612353)
(-0.00638352 0.0429575 -0.0089396)
(-0.0088533 0.0467299 -0.0320074)
(-0.00474289 0.0508288 -0.0533411)
(-0.009992 0.0486333 -0.0471474)
(-0.031101 0.0503968 -0.0501475)
(-0.0538952 0.0531293 -0.0540329)
(-0.0804623 0.0578646 -0.0602282)
(-0.114951 0.0648069 -0.0698211)
(-0.166935 0.071651 -0.085664)
(-0.222478 0.0828191 -0.137041)
(-0.192768 0.155429 -0.368977)
(-0.110574 0.265782 -0.784587)
(-0.0249319 0.310781 -0.996331)
(-0.009356 0.08868 -0.0449801)
(-0.0290745 0.0936279 -0.0474117)
(-0.0495145 0.100856 -0.049787)
(-0.0717564 0.113261 -0.0529653)
(-0.0973404 0.133344 -0.0569714)
(-0.130362 0.165563 -0.063161)
(-0.174014 0.22117 -0.0772135)
(-0.194746 0.314188 -0.121042)
(-0.142965 0.4059 -0.25251)
(-0.0417294 0.418757 -0.419979)
(-0.00723867 0.122861 -0.0362178)
(-0.0223986 0.129191 -0.0374964)
(-0.0373865 0.1374 -0.0377049)
(-0.0523296 0.150765 -0.0373183)
(-0.0671369 0.170901 -0.0357078)
(-0.0815643 0.200508 -0.0324231)
(-0.0948023 0.245425 -0.0273751)
(-0.101138 0.314476 -0.0181568)
(-0.0840612 0.395762 -0.00770971)
(-0.0308306 0.448655 -0.0215341)
(-0.00527763 0.148521 -0.0275998)
(-0.0163474 0.155193 -0.0281549)
(-0.0268918 0.162456 -0.0272143)
(-0.0366969 0.173686 -0.0252652)
(-0.0452979 0.189345 -0.021842)
(-0.0518995 0.210017 -0.0165736)
(-0.0546453 0.236343 -0.00923856)
(-0.0505348 0.268679 0.00164239)
(-0.0380237 0.303386 0.0188514)
(-0.0143618 0.328532 0.0313908)
(-0.00366583 0.166917 -0.0200447)
(-0.0114534 0.173588 -0.0202766)
(-0.0187145 0.17946 -0.0190079)
(-0.0252181 0.188205 -0.0168502)
(-0.0305629 0.199739 -0.013654)
(-0.0342402 0.21384 -0.00945594)
(-0.0352646 0.229897 -0.0045814)
(-0.0319889 0.246224 0.00047928)
(-0.0238956 0.259571 0.00602884)
(-0.00923152 0.266996 0.00731277)
(-0.00238249 0.179495 -0.0137696)
(-0.00758669 0.186138 -0.0138765)
(-0.0123818 0.190783 -0.0126203)
(-0.0166024 0.197561 -0.0106663)
(-0.0199618 0.206258 -0.0080335)
(-0.0221694 0.216516 -0.00490493)
(-0.0227272 0.227721 -0.00172812)
(-0.0208209 0.238714 0.000826666)
(-0.0162907 0.24757 0.00235242)
(-0.00677273 0.252362 -0.000623216)
(-0.00136269 0.187532 -0.00871183)
(-0.00452307 0.19421 -0.00875781)
(-0.00740395 0.197911 -0.00757303)
(-0.00991028 0.203258 -0.00580011)
(-0.0118566 0.210047 -0.00350224)
(-0.0131066 0.21795 -0.000854536)
(-0.0134341 0.226459 0.00175226)
(-0.0124061 0.234738 0.00373756)
(-0.0103715 0.24171 0.0050005)
(-0.00483132 0.245677 0.00165246)
(-0.000546718 0.192024 -0.00468496)
(-0.00207231 0.198801 -0.00467824)
(-0.00343223 0.201777 -0.00352702)
(-0.00459391 0.206048 -0.00181514)
(-0.00545675 0.211448 0.000406882)
(-0.0060058 0.217697 0.00301861)
(-0.00621855 0.224388 0.00572278)
(-0.00578299 0.230808 0.00792995)
(-0.00553408 0.236504 0.0101326)
(-0.00314526 0.239847 0.00765276)
(0.000112941 0.193738 -0.00149343)
(-0.000100559 0.200658 -0.00142846)
(-0.00025085 0.203056 -0.000271775)
(-0.000348812 0.206468 0.00146416)
(-0.000369826 0.210761 0.00375738)
(-0.000389846 0.21569 0.00653753)
(-0.00058697 0.220934 0.00961257)
(-0.000496894 0.225874 0.0121432)
(-0.00150193 0.230441 0.0156696)
(-0.00171805 0.233154 0.0144708)
(0.000647464 0.193272 0.00104094)
(0.00148188 0.200378 0.00115644)
(0.00228275 0.202293 0.00233412)
(0.0030105 0.205 0.00412949)
(0.00361369 0.208368 0.00652279)
(0.00395423 0.212179 0.00948307)
(0.00370355 0.216183 0.0128683)
(0.00351034 0.219896 0.0157787)
(0.00157291 0.223202 0.0199742)
(-0.000645256 0.225251 0.0198493)
(0.00107925 0.191059 0.00303853)
(0.0027425 0.198432 0.00320473)
(0.00428188 0.199938 0.00440797)
(0.00563173 0.202074 0.0062347)
(0.0066638 0.204693 0.00867645)
(0.00721832 0.207594 0.0117182)
(0.00686985 0.210565 0.0152427)
(0.00630314 0.21324 0.0182735)
(0.00368847 0.215417 0.0226574)
(0.000171122 0.216834 0.0231398)
(-0.00163686 0.00227396 -0.0066069)
(-0.00483558 0.00227908 -0.00725003)
(-0.00779461 0.00227796 -0.00853663)
(-0.0103078 0.0022531 -0.0104691)
(-0.0121159 0.00218185 -0.0130116)
(-0.0129137 0.00204436 -0.0160539)
(-0.0123952 0.00183498 -0.0193667)
(-0.0103454 0.00157558 -0.0225716)
(-0.00677903 0.00132376 -0.02515)
(-0.00207239 0.00116841 -0.026561)
(-0.00163655 0.00682279 -0.0065253)
(-0.00484561 0.00685507 -0.00719516)
(-0.00784199 0.00688435 -0.00854426)
(-0.010432 0.00685944 -0.0105918)
(-0.0123568 0.00671093 -0.0133237)
(-0.0132931 0.00637457 -0.0166487)
(-0.0128927 0.00582418 -0.0203412)
(-0.010878 0.00511256 -0.0239904)
(-0.00719863 0.00440073 -0.0269981)
(-0.0022207 0.00394553 -0.0286692)
(-0.00160992 0.0113378 -0.00627429)
(-0.00478487 0.0114427 -0.00698131)
(-0.00780267 0.011597 -0.0084228)
(-0.0104977 0.0117192 -0.0106524)
(-0.0126198 0.0116925 -0.0137028)
(-0.0138201 0.0113973 -0.0175291)
(-0.0136752 0.0107605 -0.0219258)
(-0.011783 0.00982493 -0.0264342)
(-0.00795494 0.00881553 -0.0303005)
(-0.00249782 0.00812979 -0.0325455)
(-0.00153501 0.0157175 -0.00581041)
(-0.00458592 0.0159614 -0.00654384)
(-0.00755612 0.0163817 -0.00806267)
(-0.0103244 0.0168793 -0.0104696)
(-0.0126653 0.0172988 -0.0138688)
(-0.0142122 0.0174581 -0.0182964)
(-0.0144548 0.0172001 -0.0236005)
(-0.0128169 0.0164859 -0.0292846)
(-0.00889157 0.0155094 -0.0343676)
(-0.00285481 0.014748 -0.0374624)
(-0.00137315 0.0197781 -0.00503872)
(-0.00412745 0.0202306 -0.00575311)
(-0.00688412 0.0210699 -0.00725804)
(-0.00957993 0.0222039 -0.00970832)
(-0.0120405 0.0234687 -0.0132956)
(-0.0139189 0.0246376 -0.0181714)
(-0.0146491 0.0254535 -0.0242985)
(-0.0134775 0.0257159 -0.0312218)
(-0.0096972 0.0254336 -0.0377941)
(-0.00320248 0.0249757 -0.0420588)
(-0.00109148 0.0231862 -0.00389332)
(-0.0033029 0.0238876 -0.00450697)
(-0.00558215 0.0252449 -0.00582293)
(-0.00792498 0.0272068 -0.00802685)
(-0.0102312 0.0296475 -0.0113773)
(-0.0122284 0.0323444 -0.0161441)
(-0.0133804 0.034955 -0.0224544)
(-0.0128448 0.037045 -0.0299971)
(-0.0096412 0.0382483 -0.0375899)
(-0.00328013 0.0385808 -0.0428545)
(-0.000683517 0.0276896 -0.0023812)
(-0.00207872 0.028721 -0.00279126)
(-0.00356341 0.0307778 -0.00368791)
(-0.00517561 0.0338997 -0.00524023)
(-0.0069016 0.0380914 -0.0077161)
(-0.00861252 0.0432901 -0.01148)
(-0.00995604 0.0492685 -0.0169086)
(-0.0102041 0.055464 -0.0240866)
(-0.00819122 0.06083 -0.0320982)
(-0.00290482 0.0642557 -0.0382822)
(-6.65822e-05 0.0159642 -0.000237606)
(-0.000199165 0.0166259 -0.00027816)
(-0.000353481 0.0179689 -0.000371845)
(-0.000537088 0.0200554 -0.000543261)
(-0.000739783 0.0229563 -0.000827868)
(-0.000925899 0.0267404 -0.00128536)
(-0.00103678 0.0314167 -0.00204964)
(-0.000973894 0.0366129 -0.00340555)
(-0.000543054 0.0411922 -0.00498957)
(-8.49616e-05 0.0442476 -0.00484621)
(-0.0012154 0.0272875 -0.00591275)
(-0.00344416 0.0283294 -0.00622897)
(-0.00556137 0.0304505 -0.00674179)
(-0.00738401 0.0337096 -0.00745422)
(-0.00841124 0.0381171 -0.00799221)
(-0.00746988 0.0433575 -0.00736506)
(-0.00877801 0.0490569 -0.0110388)
(-0.0205401 0.0596891 -0.045238)
(-0.0234219 0.0769761 -0.120848)
(-0.00764468 0.0930273 -0.18887)
(-0.0111964 0.0520181 -0.0689062)
(-0.034726 0.0541947 -0.0737719)
(-0.0599373 0.0578533 -0.0800806)
(-0.0896224 0.0639896 -0.0887621)
(-0.129803 0.0711509 -0.100282)
(-0.177907 0.0852423 -0.12812)
(-0.177072 0.174921 -0.312077)
(-0.159522 0.313316 -0.776182)
(-0.14642 0.316164 -1.07333)
(-0.0411 0.316704 -1.12932)
(-0.0101057 0.0970782 -0.0648072)
(-0.0312555 0.103324 -0.0684387)
(-0.0525751 0.113137 -0.0717749)
(-0.0752035 0.129958 -0.0748858)
(-0.101989 0.15709 -0.0770455)
(-0.136406 0.203329 -0.0772681)
(-0.153553 0.290455 -0.0854335)
(-0.109834 0.387507 -0.204518)
(-0.0551945 0.312376 -0.465709)
(-0.0132418 0.100787 -0.681466)
(-0.00733464 0.133075 -0.051138)
(-0.0225689 0.140513 -0.0527991)
(-0.0369261 0.150686 -0.0525838)
(-0.0502548 0.166998 -0.0503123)
(-0.0624605 0.191203 -0.0442141)
(-0.073529 0.227151 -0.0321531)
(-0.078686 0.282503 -0.00748468)
(-0.0626694 0.350915 0.0300843)
(-0.0300512 0.386877 0.0367927)
(-0.00832465 0.373261 -0.00429019)
(-0.00500873 0.158289 -0.0382494)
(-0.015469 0.165572 -0.0388274)
(-0.0248994 0.173672 -0.037053)
(-0.032928 0.185807 -0.0331808)
(-0.0390973 0.202019 -0.0261713)
(-0.042789 0.222366 -0.0151147)
(-0.0417845 0.246786 0.00181892)
(-0.0323797 0.271614 0.0294402)
(-0.0196548 0.288247 0.0701317)
(-0.00895963 0.297688 0.0855532)
(-0.00327737 0.17529 -0.0273953)
(-0.0102887 0.182219 -0.0275788)
(-0.0165328 0.188241 -0.0255833)
(-0.021769 0.196884 -0.0220809)
(-0.0257559 0.207718 -0.0167987)
(-0.0282956 0.220098 -0.00975981)
(-0.0287866 0.232883 -0.00127715)
(-0.0254332 0.243163 0.00817584)
(-0.0209834 0.247335 0.0204969)
(-0.0107748 0.248734 0.0198707)
(-0.00198526 0.18631 -0.0186507)
(-0.00644387 0.193055 -0.0187205)
(-0.010415 0.197629 -0.0169126)
(-0.0137767 0.204132 -0.0140588)
(-0.0164014 0.212214 -0.0101955)
(-0.0182793 0.221433 -0.00559995)
(-0.0192399 0.231123 -0.000958688)
(-0.0184497 0.240252 0.00237007)
(-0.017924 0.247607 0.00470019)
(-0.0100133 0.253814 -0.005374)
(-0.000982115 0.192962 -0.0117502)
(-0.00344987 0.199705 -0.0117677)
(-0.00562447 0.203341 -0.0101317)
(-0.00745266 0.208542 -0.00765842)
(-0.00886191 0.215098 -0.00443419)
(-0.0099313 0.222737 -0.000677219)
(-0.0107161 0.231058 0.0030283)
(-0.0105598 0.239399 0.00539153)
(-0.0123649 0.24826 0.00771214)
(-0.00812954 0.257579 -0.0020553)
(-0.000175224 0.19632 -0.00633685)
(-0.00102988 0.203165 -0.00629061)
(-0.00171721 0.206135 -0.00471512)
(-0.00222694 0.210407 -0.00233895)
(-0.00252843 0.215856 0.000797844)
(-0.00276682 0.222288 0.00460473)
(-0.00326336 0.229446 0.00878252)
(-0.00307967 0.236519 0.0117397)
(-0.00621015 0.245189 0.0166465)
(-0.00570917 0.255527 0.00943262)
(0.000488476 0.197133 -0.00209226)
(0.000951921 0.204121 -0.00196616)
(0.00148642 0.206555 -0.000369933)
(0.00208392 0.210048 0.00206856)
(0.0027222 0.214506 0.00538304)
(0.00322594 0.219758 0.00958332)
(0.00283345 0.225608 0.0146477)
(0.00336042 0.23129 0.018228)
(-0.000284846 0.238485 0.0257174)
(-0.00326572 0.248282 0.0211476)
(0.00102898 0.195943 0.00124028)
(0.00256053 0.203146 0.00144306)
(0.00407849 0.205088 0.00308814)
(0.00554867 0.207877 0.00562935)
(0.00689267 0.211389 0.00913038)
(0.00790268 0.215459 0.0136653)
(0.0075821 0.219885 0.0193444)
(0.00803825 0.224194 0.0236486)
(0.0040175 0.229174 0.0321926)
(-0.00140694 0.237592 0.0296523)
(0.00147012 0.193167 0.00386287)
(0.00384365 0.20066 0.0041367)
(0.00610918 0.202162 0.00581047)
(0.00821737 0.204343 0.00839778)
(0.010021 0.207028 0.0119765)
(0.0112887 0.210026 0.0166)
(0.0108868 0.21317 0.0225003)
(0.0109654 0.216053 0.0269311)
(0.00667303 0.219172 0.0353164)
(-5.96407e-05 0.226227 0.0340571)
(-0.00199709 0.00232443 -0.00757724)
(-0.00592203 0.00231395 -0.00836139)
(-0.00961654 0.00227612 -0.00994137)
(-0.0128538 0.00218257 -0.0123412)
(-0.0153141 0.0019963 -0.015547)
(-0.0165809 0.00168386 -0.0194559)
(-0.016188 0.00123498 -0.0238093)
(-0.0137386 0.00069029 -0.02814)
(-0.00913624 0.000156746 -0.0317185)
(-0.00283382 -0.000170311 -0.0337117)
(-0.00201341 0.00699913 -0.00750592)
(-0.00598751 0.00699165 -0.00833059)
(-0.00977431 0.00692443 -0.0100058)
(-0.0131677 0.00671371 -0.0125828)
(-0.0158506 0.00624558 -0.0160851)
(-0.017378 0.00541146 -0.0204473)
(-0.0172095 0.00416555 -0.025427)
(-0.0148336 0.00260722 -0.030504)
(-0.0100042 0.00104455 -0.034844)
(-0.00313852 2.96782e-05 -0.0373416)
(-0.00201058 0.0117091 -0.00725714)
(-0.00600945 0.0117711 -0.00814283)
(-0.0099097 0.0118127 -0.00996894)
(-0.0135525 0.0116992 -0.012844)
(-0.0166387 0.0112366 -0.0168733)
(-0.0186829 0.0102199 -0.0220804)
(-0.0190109 0.00852203 -0.0282754)
(-0.016873 0.00623465 -0.0348904)
(-0.011722 0.00383299 -0.0408476)
(-0.00376646 0.00217324 -0.0444711)
(-0.00195435 0.0163786 -0.00677188)
(-0.00588197 0.0166111 -0.00771064)
(-0.00983446 0.0169774 -0.00968349)
(-0.0137288 0.0173124 -0.012883)
(-0.0173136 0.0173554 -0.0175442)
(-0.0200784 0.0167913 -0.0238518)
(-0.0211863 0.0153445 -0.0317544)
(-0.019522 0.0129621 -0.0406546)
(-0.0140687 0.0100958 -0.0490427)
(-0.00464729 0.0078961 -0.054521)
(-0.00178549 0.02082 -0.00592563)
(-0.00541762 0.0213347 -0.00686182)
(-0.00920735 0.0222747 -0.00887118)
(-0.013173 0.023493 -0.0122413)