/*--------------------------------*- C++ -*----------------------------------*\
| =========                 |                                                 |
| \\      /  F ield         | OpenFOAM: The Open Source CFD Toolbox           |
|  \\    /   O peration     | Version:  2312                                  |
|   \\  /    A nd           | Website:  www.openfoam.com                      |
|    \\/     M anipulation  |                                                 |
\*---------------------------------------------------------------------------*/
FoamFile
{
    version     2.0;
    format      ascii;
    arch        "LSB;label=32;scalar=64";
    class       volVectorField;
    location    "1.01";
    object      U;
}
// * * * * * * * * * * * * * * * * * * * * * * * * * * * * * * * * * * * * * //

dimensions      [0 1 -1 0 0 0 0];

internalField   nonuniform List<vector> 
8000
(
(-0.00321258 0.00144756 -0.00368653)
(-0.00196227 0.00155882 -0.00351865)
(-0.00135035 0.00167703 -0.00311656)
(-0.00136561 0.00169706 -0.00273016)
(-0.00166035 0.00157815 -0.00254889)
(-0.00189484 0.00138955 -0.00272921)
(-0.00202054 0.00128109 -0.00350891)
(-0.00128572 0.00183904 -0.00526434)
(0.00161976 0.00134606 -0.00442343)
(0.00207266 0.00102049 -0.00158624)
(-0.00270239 0.00419144 -0.00385424)
(-0.000717327 0.00529266 -0.00406203)
(0.000648503 0.00563348 -0.00391285)
(0.00146374 0.00564693 -0.00365912)
(0.00173916 0.00563614 -0.00358697)
(0.00155093 0.00605222 -0.00415919)
(0.00112826 0.00796867 -0.00655696)
(-6.99877e-05 0.00766815 -0.00967782)
(0.000916071 0.00461864 -0.00570224)
(0.00254883 0.00518454 -0.000897466)
(-0.00127909 0.00564546 -0.000654822)
(0.00041579 0.0073065 -0.00225096)
(0.000793996 0.00835548 -0.00302022)
(0.00138344 0.00925367 -0.00323199)
(0.00203438 0.0102927 -0.00359047)
(0.00327482 0.0122938 -0.00481651)
(0.00206803 0.0156669 -0.00674507)
(-0.00334377 0.014717 -0.00878154)
(-0.00945509 -0.000955759 0.00531623)
(-0.000126551 0.00567031 0.00754141)
(-0.00190141 -0.00238238 0.00507294)
(0.00358736 0.0105257 0.00207694)
(0.00422939 0.0138901 -0.000544369)
(0.003844 0.0141162 -0.00172566)
(0.00398739 0.0148281 -0.00246844)
(0.00633043 0.017211 -0.00320929)
(0.00136266 0.0215338 -0.000130463)
(-0.0204194 0.00501721 0.00800298)
(-0.0296603 -0.0435028 0.0283215)
(-0.012232 -0.0214753 0.0150753)
(-0.0048302 -0.023662 0.00106399)
(0.00324138 -0.00518489 0.00497636)
(0.00647776 0.00835525 0.00538579)
(0.00741352 0.0140225 0.00560091)
(0.00921563 0.0167985 0.00638184)
(0.0143873 0.0201068 0.00639987)
(0.00926091 0.0209244 0.0108189)
(-0.0188135 -0.0112809 0.015534)
(-0.0239022 -0.0838095 0.0175005)
(-0.020314 -0.086148 0.00321172)
(-0.00762911 -0.0265548 -0.00818367)
(-0.00355645 -0.0162527 -0.00347119)
(0.00216216 -0.00383945 0.00105686)
(0.00824771 0.00198671 0.00299318)
(0.0142675 0.00178493 0.00535913)
(0.0222946 0.00370038 0.0113816)
(0.0212214 0.00743175 0.0182475)
(0.00576636 -0.0198026 0.0210752)
(0.00373066 -0.0614916 0.00458971)
(-0.00646817 -0.0928571 -0.0119764)
(-0.0117842 -0.0190117 -0.0169826)
(-0.00457379 -0.018891 -0.0145654)
(0.00477656 -0.01414 -0.0111589)
(0.0158892 -0.00958368 -0.00962438)
(0.0249766 -0.0082025 -0.00917421)
(0.0321986 -0.0112575 -0.00314151)
(0.0308682 -0.020884 0.0119782)
(0.0135124 -0.0584851 0.0231874)
(0.00202209 -0.0735259 0.00355112)
(0.000652734 -0.0778579 -0.0139948)
(-0.0175786 -0.00576634 -0.018022)
(-0.000855309 -0.00628597 -0.0152918)
(0.0135181 -0.00471571 -0.0146502)
(0.0269555 -0.00466536 -0.0133212)
(0.0369514 -0.00990949 -0.0111423)
(0.0420944 -0.0212154 -0.00726103)
(0.0417667 -0.0399754 0.00640029)
(0.0197131 -0.0694002 0.0152068)
(-0.00292943 -0.0660392 -0.00364586)
(0.00320073 -0.0674968 -0.0046719)
(-0.0242901 0.00496833 0.00704998)
(-0.00213037 0.00445238 0.00928436)
(0.0124519 0.0111297 0.00898163)
(0.0265612 0.0177055 0.00539869)
(0.033381 0.0154402 0.000626615)
(0.037705 0.000672551 -0.0041002)
(0.0325071 -0.0247359 0.00386894)
(0.00714251 -0.0557642 0.00524096)
(-0.00592561 -0.0646784 -0.0126265)
(0.0127062 -0.080345 0.00294374)
(-0.0684394 -0.0829627 -0.0122613)
(-0.178505 -0.0718406 -0.0230383)
(-0.255411 -0.0492261 -0.0153499)
(-0.16139 -0.0240482 0.00865424)
(-0.114151 -0.00089022 0.0126082)
(-0.0878647 -0.00363851 0.011191)
(-0.0792672 -0.0171878 0.0113728)
(-0.0712942 -0.0303128 -0.00621708)
(-0.0386795 -0.0336107 -0.0211037)
(0.0141418 -0.0575646 -0.000570046)
(-0.0324781 0.0168208 0.0214085)
(0.00250326 0.0852994 0.00679229)
(0.037169 0.0662812 -0.0208245)
(0.0122141 -0.206596 0.0043064)
(-0.179334 -0.161837 -0.00187022)
(-0.20916 -0.172166 -0.0723488)
(-0.170218 -0.212289 -0.0671579)
(-0.115906 -0.246716 -0.0152018)
(-0.0828142 -0.25757 0.0205315)
(-0.0197564 -0.207536 0.021666)
(-0.179918 -0.186407 0.0567313)
(-0.110699 -0.154338 0.0454663)
(0.0219467 -0.0459931 0.0274401)
(0.135122 0.0757131 -0.0166165)
(0.110181 0.121846 -0.0269885)
(0.0447825 0.0883432 -0.0603991)
(0.0704358 -0.0984969 -0.10756)
(0.0663101 -0.193669 -0.0530809)
(-0.00730701 -0.312067 -0.0346444)
(-0.0202627 -0.3402 -0.0734558)
(-0.403248 -0.308157 -0.00514277)
(-0.315768 -0.351838 -0.0266522)
(-0.162887 -0.308387 -0.0184694)
(0.00217265 -0.148898 0.00788359)
(0.136284 0.100812 -0.00169348)
(0.143295 0.174333 -0.042467)
(0.0882175 0.0629988 -0.110697)
(0.067226 2.91804e-05 -0.137723)
(0.00656451 -0.0391101 -0.146323)
(-0.00817826 -0.0836222 -0.151423)
(-0.498608 -0.307105 -0.10447)
(-0.384654 -0.374508 -0.137431)
(-0.228813 -0.387109 -0.128595)
(-0.0677564 -0.297771 -0.068193)
(0.0639803 -0.0656136 0.0100139)
(0.148506 0.200631 0.000553889)
(0.103532 0.234443 -0.0503469)
(0.0318775 0.162379 -0.0979482)
(-0.0346884 0.0924993 -0.126361)
(-0.0203421 0.0221925 -0.130226)
(-0.493952 -0.250613 -0.152603)
(-0.365048 -0.321264 -0.187146)
(-0.204305 -0.337813 -0.192673)
(-0.056978 -0.273553 -0.143583)
(0.06047 -0.14603 -0.0477116)
(0.122645 0.11775 0.0368357)
(0.110416 0.317198 0.0131888)
(0.015435 0.30794 -0.0552027)
(-0.0456928 0.227087 -0.112968)
(-0.0151962 0.135081 -0.116954)
(-0.470067 -0.209969 -0.154998)
(-0.332307 -0.272687 -0.183533)
(-0.173395 -0.295328 -0.185913)
(-0.0459597 -0.251846 -0.141829)
(0.061674 -0.116444 -0.0789473)
(0.113811 -0.0236712 0.0186995)
(0.101856 0.255235 0.0633427)
(0.0294385 0.404073 -0.00140448)
(-0.0372107 0.332531 -0.0882633)
(-0.00133849 0.248632 -0.0595695)
(-0.439432 -0.144149 -0.146771)
(-0.301195 -0.194786 -0.173917)
(-0.14951 -0.235168 -0.168844)
(-0.0374849 -0.238292 -0.111243)
(0.0467834 -0.160076 -0.0503995)
(0.0912658 -0.056047 -0.00228924)
(0.0641206 0.0900414 0.0632596)
(0.0448029 0.385166 0.053956)
(-0.0198271 0.412879 -0.0423497)
(0.0111905 0.287541 0.0210003)
(-0.408402 -0.0670752 -0.129832)
(-0.28435 -0.104495 -0.155986)
(-0.149931 -0.164254 -0.151727)
(-0.0439011 -0.221615 -0.0998643)
(0.0332044 -0.211159 -0.0247505)
(0.0368753 -0.166673 0.00480633)
(0.00444106 -0.0601141 0.0281297)
(-0.00854373 0.248534 0.081196)
(-0.015381 0.421248 0.0198241)
(0.0183342 0.207664 0.0650873)
(-0.405966 0.00236635 -0.0736251)
(-0.312539 -0.0220184 -0.094881)
(-0.184201 -0.0974878 -0.111778)
(-0.0636177 -0.203071 -0.109342)
(0.0150252 -0.24914 -0.0377061)
(0.00932475 -0.240346 0.0077369)
(-0.0669551 -0.150966 0.0134738)
(-0.111513 0.0977784 0.0574343)
(-0.045885 0.278511 0.0618829)
(0.000660535 0.0673679 0.0423721)
(-0.394868 0.0417411 -0.0412262)
(-0.321762 0.0102253 -0.0691853)
(-0.208444 -0.0702009 -0.100465)
(-0.0884782 -0.175753 -0.121481)
(-0.013677 -0.242876 -0.0765033)
(-0.033747 -0.253627 -0.0180408)
(-0.132652 -0.17244 0.00289938)
(-0.176015 -0.0187244 0.00725112)
(-0.110656 0.0598913 0.0179927)
(-0.0339874 -0.0218523 -0.00376816)
(-0.00343589 0.000833563 -0.00572196)
(-0.00397926 0.000897485 -0.0055694)
(-0.00480295 0.00092122 -0.0050142)
(-0.00565088 0.000861453 -0.00453551)
(-0.00644093 0.000571092 -0.00432498)
(-0.00700705 -0.00013865 -0.00477217)
(-0.00701967 -0.00171268 -0.00670058)
(-0.00309247 -0.00302676 -0.010147)
(0.00511819 -0.000402335 -0.00650663)
(0.00468791 0.00229728 -0.00282765)
(-0.00291303 0.0013684 -0.00566482)
(-0.00251713 0.00281455 -0.00631159)
(-0.00254046 0.00319915 -0.00629041)
(-0.00315952 0.00328252 -0.00608038)
(-0.00439728 0.00317924 -0.00625104)
(-0.00692461 0.0027562 -0.00799728)
(-0.0108061 0.00090446 -0.0113988)
(-0.0112954 -0.00871902 -0.00603943)
(-0.00154617 -0.00739214 0.00619303)
(0.00751014 0.00809628 -0.0024098)
(-0.00181705 0.000866122 -0.00085504)
(-0.00326517 0.00269281 -0.00442527)
(-0.00461141 0.00425768 -0.00567972)
(-0.00520094 0.00596235 -0.00616366)
(-0.00662596 0.00814745 -0.00763575)
(-0.0115919 0.0102537 -0.00982603)
(-0.0218943 0.00143144 -0.000815092)
(-0.0299614 -0.0328525 0.0268377)
(-0.0273966 -0.0329594 0.03539)
(0.00487465 0.0115383 0.00880138)
(-0.000362152 0.00410565 0.00958547)
(0.00025056 0.0118611 0.0016473)
(-0.00270831 0.0114778 -0.00312847)
(-0.00436301 0.0116508 -0.00577534)
(-0.00583806 0.0155042 -0.00827032)
(-0.0071325 0.0188752 -0.00521134)
(-0.0195377 0.00372611 0.0213436)
(-0.0307748 -0.04157 0.0411662)
(-0.0390894 -0.0595126 0.03345)
(-0.00546339 -0.000438091 0.0284443)
(-0.0047615 -0.00535064 0.012017)
(0.00336289 0.00898943 0.00986739)
(0.00178115 0.0145591 0.00626865)
(0.000387717 0.0163407 0.00320606)
(0.00129908 0.0199254 -0.000159665)
(0.00722559 0.0234406 0.00289213)
(0.00215969 0.0143848 0.0291234)
(0.00113126 -0.0289758 0.0436052)
(-0.0176501 -0.0644844 -2.49449e-05)
(-0.00855806 -0.0338831 0.0220467)
(-0.00836955 -0.00744623 0.00387955)
(-0.00761467 0.0110776 0.00765828)
(-0.00268287 0.0210875 0.00911973)
(0.00346615 0.0238731 0.00873891)
(0.00899493 0.0259417 0.00841754)
(0.0179206 0.0266888 0.0132115)
(0.0195056 0.0189437 0.0342738)
(0.0275969 -0.0161741 0.0505914)
(0.013139 -0.0418147 0.00367316)
(-0.00410543 -0.0290603 0.00219038)
(-0.00911141 0.0104764 -0.0136575)
(-0.00945261 0.00977081 -0.0114882)
(-0.00409065 0.0114299 -0.0094306)
(0.00521402 0.0132197 -0.00541166)
(0.013202 0.017193 0.00386547)
(0.0206324 0.0204894 0.0182373)
(0.0240653 0.00844315 0.0400709)
(0.0303071 -0.0260095 0.0517365)
(0.0155018 -0.0291853 0.0105911)
(-0.00557892 -0.029055 -0.00864039)
(-0.0120149 0.0132526 -0.0422292)
(3.97637e-05 0.0145451 -0.0403386)
(0.0113502 0.0168777 -0.0396535)
(0.0197212 0.0172815 -0.0353199)
(0.0225487 0.0157039 -0.0229299)
(0.0231065 0.0117363 -0.00197333)
(0.021123 0.000592814 0.0226657)
(0.0242632 -0.0155707 0.0284888)
(0.00258152 -0.0135541 -0.000796605)
(-0.00642836 -0.02251 -0.00786055)
(-0.0267637 0.0342607 0.0549179)
(-0.0137352 0.0348661 0.0448964)
(-0.00734824 0.0433645 0.0187468)
(-0.00365998 0.0518921 -0.00394386)
(0.00229692 0.0517646 -0.0141809)
(0.0116715 0.0414791 -0.00982049)
(0.0160678 0.0227486 0.00786765)
(0.0252147 0.00673879 0.0146468)
(0.0113295 0.00582794 0.00588124)
(0.000702444 -0.0345511 0.0286266)
(-0.0661607 -0.0658042 0.0155361)
(-0.0914632 -0.0312544 -0.012386)
(-0.193423 0.0263607 0.0447568)
(-0.202671 0.0345875 0.0904546)
(-0.139199 0.0436615 0.0836415)
(-0.0990776 0.037404 0.0874892)
(-0.0828363 0.0193099 0.0997933)
(-0.0632278 0.00371413 0.0915803)
(-0.050445 -0.00129918 0.0831496)
(0.00435024 -0.0298545 0.0778811)
(-0.0909998 -0.0203049 0.0980605)
(-0.0205954 0.0788581 0.0438331)
(0.0197477 0.138369 -0.0252868)
(0.0419864 0.0180719 -0.044042)
(0.0521439 -0.237016 -0.0644479)
(-0.03229 -0.251637 -0.00617749)
(-0.18822 -0.216345 0.057687)
(-0.128228 -0.259188 0.0687864)
(-0.085462 -0.316618 0.0926357)
(-0.0243003 -0.288564 0.0811317)
(-0.285351 -0.164815 0.146382)
(-0.18387 -0.109035 0.119253)
(-0.0139953 0.0042191 0.0645253)
(0.138337 0.0956784 -0.0384229)
(0.16014 0.0645829 -0.113983)
(0.152678 0.00962096 -0.191725)
(0.166066 0.0195197 -0.215007)
(0.180703 0.00271319 -0.137729)
(0.109481 -0.0852101 -0.0901598)
(0.0191249 -0.089663 -0.125228)
(-0.469442 -0.163809 0.0361632)
(-0.387521 -0.207075 -0.00594577)
(-0.23262 -0.201042 -1.39023e-05)
(-0.0270163 -0.0902443 0.0217593)
(0.149084 0.0829259 -0.0248907)
(0.170096 0.0945562 -0.103447)
(0.130803 -0.0122956 -0.205609)
(0.145131 -0.0336594 -0.232306)
(0.102291 -0.0553569 -0.210454)
(0.0436787 -0.0804834 -0.215386)
(-0.477193 -0.0669009 -0.128653)
(-0.416248 -0.19918 -0.183904)
(-0.291846 -0.264962 -0.184859)
(-0.145403 -0.203595 -0.10771)
(0.0413607 -0.0346028 0.0201113)
(0.189075 0.158207 0.00366541)
(0.17525 0.164369 -0.0714895)
(0.135976 0.134264 -0.138831)
(0.0376396 0.0873024 -0.169651)
(-0.00485518 0.0468047 -0.206098)
(-0.464367 -0.0772386 -0.175046)
(-0.369725 -0.246105 -0.247246)
(-0.244735 -0.328312 -0.264708)
(-0.154616 -0.260948 -0.194532)
(-0.0355193 -0.0656493 -0.0998063)
(0.168032 0.164956 0.0716167)
(0.209035 0.2976 0.0764552)
(0.131956 0.276279 -0.0269996)
(0.0147523 0.195586 -0.129012)
(-0.0328608 0.0812256 -0.189408)
(-0.410953 -0.0852197 -0.197956)
(-0.293974 -0.262557 -0.291791)
(-0.180946 -0.364181 -0.275669)
(-0.136216 -0.32063 -0.152699)
(-0.0698117 -0.135599 -0.0756937)
(0.105294 0.138615 0.10099)
(0.203354 0.373651 0.188558)
(0.129346 0.411448 0.0816532)
(0.0166128 0.279848 -0.0794569)
(-0.0289045 0.123714 -0.124361)
(-0.32691 -0.0512072 -0.229619)
(-0.207618 -0.199507 -0.33942)
(-0.118543 -0.334211 -0.295314)
(-0.108095 -0.342268 -0.125019)
(-0.0639393 -0.200335 0.0165717)
(0.0347963 0.107021 0.13703)
(0.148918 0.307188 0.249115)
(0.124398 0.484525 0.170515)
(0.00716017 0.33215 -0.0198003)
(-0.0267104 0.204344 0.00712488)
(-0.231871 -0.0101288 -0.223852)
(-0.129652 -0.112603 -0.3359)
(-0.0592914 -0.274754 -0.303748)
(-0.0688064 -0.349375 -0.156344)
(-0.0326269 -0.268411 0.049976)
(-0.00682767 -0.080934 0.165072)
(0.0497193 0.145025 0.241205)
(0.0581228 0.445831 0.213244)
(-0.0245054 0.388273 0.0458959)
(-0.0118064 0.231428 0.123262)
(-0.158252 0.0378955 -0.178152)
(-0.0777848 -0.0146142 -0.266773)
(-0.0133185 -0.180982 -0.265714)
(-0.0303482 -0.332907 -0.199339)
(-0.0152234 -0.31895 0.0157634)
(-0.0578747 -0.207436 0.132155)
(-0.101072 0.0389384 0.186253)
(-0.0906728 0.343596 0.186229)
(-0.0745137 0.380249 0.112153)
(-0.0124718 0.151041 0.129864)
(-0.0810877 0.103791 -0.13214)
(-0.0384046 0.0810063 -0.19029)
(0.000404223 -0.0769034 -0.215873)
(-0.0215551 -0.278228 -0.211579)
(-0.0690784 -0.30609 -0.0507025)
(-0.16229 -0.198096 0.0863612)
(-0.250398 0.0103589 0.119163)
(-0.23972 0.224932 0.121075)
(-0.151515 0.230834 0.0834968)
(-0.050647 0.031636 0.0102254)
(-0.00377229 1.02451e-05 -0.00518487)
(-0.00379744 0.000263464 -0.00550149)
(-0.00418254 0.00037572 -0.00530886)
(-0.00477289 0.000388319 -0.00491983)
(-0.00555326 0.00013604 -0.00434221)
(-0.00674712 -0.000856727 -0.00394797)
(-0.00789324 -0.00354979 -0.00394821)
(-0.00237835 -0.00701106 -0.00337003)
(0.00835744 -0.00394676 -0.00107501)
(0.00537749 0.00200997 -0.0023373)
(-0.00339568 -0.0020167 -0.0056013)
(-0.00275347 -0.000346184 -0.00669979)
(-0.00203947 0.00119106 -0.00698017)
(-0.00226201 0.00197071 -0.0069181)
(-0.00375044 0.00197323 -0.00664005)
(-0.00785398 0.000863218 -0.00665045)
(-0.0150451 -0.00634672 -0.00302652)
(-0.0136125 -0.0254193 0.0109242)
(0.00668921 -0.0112667 0.0119203)
(0.0107144 0.00911421 -0.00464648)
(-0.00308681 -0.00300816 -0.00357465)
(-0.00403099 -0.0014046 -0.0069445)
(-0.00411449 0.0007827 -0.00821094)
(-0.00450022 0.00348282 -0.00833093)
(-0.00674758 0.00620899 -0.00848327)
(-0.0165367 0.00635791 -0.00638569)
(-0.0294905 -0.0116768 0.0102545)
(-0.0212246 -0.0518539 0.0341043)
(-0.0190914 -0.0328187 0.0379071)
(0.0127517 0.0173698 -0.00290072)
(-0.00203383 0.00389068 0.0031435)
(-0.00271686 0.00530251 -0.00287299)
(-0.00375638 0.00647214 -0.00696613)
(-0.00403144 0.00947025 -0.00964565)
(-0.0061625 0.0144608 -0.0107818)
(-0.0133654 0.015068 -0.00438873)
(-0.0218838 -0.00881385 0.0160009)
(-0.00437118 -0.0586845 0.03273)
(-0.0309673 -0.0381352 0.0297411)
(0.00453286 0.0211687 0.010284)
(-0.0035333 0.011944 0.00517213)
(0.00039961 0.0132219 -0.00184003)
(-0.000998923 0.0124305 -0.00521821)
(-0.00204939 0.0139574 -0.00843355)
(-0.00189039 0.0186839 -0.0106668)
(-0.000821867 0.0205462 -0.0044224)
(-0.00269706 -0.00192622 0.0111166)
(0.0215222 -0.0421999 0.0228284)
(-0.0176192 -0.0264659 0.00411166)
(-0.00447333 0.0217691 0.00987495)
(-0.00639501 0.0154572 -0.00422097)
(-0.00383193 0.0203242 -0.00366977)
(-0.00183614 0.0245014 -0.00149707)
(0.000818677 0.0261977 -0.00156884)
(0.0048612 0.0275117 -0.00270823)
(0.0092468 0.0261134 0.00213279)
(0.0109108 0.00516374 0.0197074)
(0.0261727 -0.0237955 0.0291315)
(-0.00794305 -0.0162183 -0.00145287)
(-0.0109883 0.0239968 0.00112806)
(-0.00685873 0.0512834 -0.0253621)
(-0.00641278 0.0493557 -0.0217852)
(-0.00454303 0.0468056 -0.019547)
(-0.000448701 0.0430267 -0.0175524)
(0.0046725 0.0387555 -0.00829337)
(0.010561 0.0344595 0.00696037)
(0.0134427 0.0204759 0.0271051)
(0.0232299 0.00512638 0.0312014)
(-0.00367677 0.0150516 0.0048984)
(-0.0113429 0.0238354 -0.00785344)
(-0.0231909 0.0278214 -0.0694136)
(-0.010629 0.026629 -0.0693059)
(0.00301184 0.0263491 -0.0705001)
(0.0139029 0.0311956 -0.0659063)
(0.0181395 0.0376672 -0.0515864)
(0.017254 0.0387713 -0.0260488)
(0.0109057 0.0294824 0.00362345)
(0.0128908 0.0193649 0.013113)
(-0.00733719 0.023886 -0.00150169)
(-0.00244387 0.0217834 -0.0088822)
(-0.0351765 0.0691528 0.065554)
(-0.0291661 0.0649472 0.0370541)
(-0.0234163 0.066446 0.00725679)
(-0.0127631 0.0734609 -0.025809)
(-0.00230678 0.0777919 -0.040942)
(0.0165648 0.073621 -0.04345)
(0.0237115 0.0611795 -0.0211469)
(0.0270334 0.0446158 0.00686237)
(0.00124959 0.0382774 0.0186374)
(-0.00225298 0.0265048 0.0398066)
(-0.138612 -0.164147 -0.0224565)
(-0.123548 -0.0761783 -0.060046)
(-0.109905 0.0134943 -0.0419991)
(-0.172586 0.0828189 0.140146)
(-0.174324 0.0860019 0.218729)
(-0.119291 0.0739263 0.187427)
(-0.0767969 0.0611387 0.151929)
(-0.0513638 0.0481598 0.150871)
(-0.0552616 0.0419254 0.158281)
(-0.00724242 0.0116244 0.147142)
(-0.157366 -0.100302 0.106574)
(-0.112992 -0.0632727 0.068531)
(-0.0588832 -0.00229136 0.0111448)
(-0.0252731 0.100831 -0.0778814)
(-0.0341024 0.161335 -0.016152)
(0.0375231 -0.0975071 0.0416053)
(0.0900219 -0.23587 -0.00660957)
(0.000310286 -0.173076 0.0994242)
(-0.0369066 -0.207996 0.185902)
(0.0215251 -0.224614 0.120276)
(-0.294579 -0.126252 0.0942357)
(-0.249892 -0.114852 0.0574283)
(-0.153594 -0.0852388 0.0442867)
(-0.0406467 -0.0319153 -0.000689445)
(0.0399637 -0.0107004 -0.129741)
(0.102435 -0.0795846 -0.245856)
(0.1602 -0.0474215 -0.277423)
(0.19029 0.0535222 -0.189918)
(0.155548 0.065028 -0.107385)
(0.0882857 -0.0131412 -0.103452)
(-0.370874 -0.0144163 -0.0919035)
(-0.347378 -0.0856421 -0.118269)
(-0.25771 -0.141293 -0.0954317)
(-0.126828 -0.120764 -0.069099)
(0.000656199 -0.0634036 -0.0748771)
(0.0791338 -0.0664978 -0.151457)
(0.0948679 -0.126922 -0.282007)
(0.151047 -0.0575033 -0.293823)
(0.154257 -0.0213392 -0.23061)
(0.0859384 -0.0245461 -0.19556)
(-0.380479 0.0592955 -0.192685)
(-0.362894 -0.108578 -0.218505)
(-0.263116 -0.209635 -0.236209)
(-0.163147 -0.189851 -0.206819)
(-0.055216 -0.0956252 -0.17586)
(0.0680643 -0.0405638 -0.16188)
(0.117003 -0.0255062 -0.197587)
(0.157241 0.0499338 -0.201533)
(0.097471 0.0865206 -0.191333)
(0.0370335 0.10946 -0.221402)
(-0.391831 0.0297913 -0.197848)
(-0.318915 -0.191355 -0.287035)
(-0.209418 -0.31676 -0.30165)
(-0.148264 -0.29077 -0.216634)
(-0.072044 -0.153051 -0.206554)
(0.0314497 -0.00697849 -0.192918)
(0.10908 0.0696891 -0.125913)
(0.130291 0.129241 -0.0953463)
(0.062153 0.152923 -0.115162)
(-0.0309955 0.121457 -0.187793)
(-0.323206 0.050899 -0.248496)
(-0.2298 -0.187345 -0.404169)
(-0.161726 -0.354662 -0.341751)
(-0.152972 -0.346194 -0.164296)
(-0.0937977 -0.203791 -0.130408)
(-0.0094032 0.0177488 -0.140912)
(0.123145 0.21046 0.0234423)
(0.13525 0.259305 0.0525165)
(0.0650564 0.210468 -0.0415333)
(-0.03133 0.0920751 -0.13875)
(-0.203284 0.0909549 -0.316338)
(-0.127901 -0.130087 -0.493182)
(-0.116879 -0.352755 -0.350892)
(-0.158142 -0.360656 -0.124597)
(-0.113653 -0.221146 -0.00598641)
(-0.0549564 0.028997 0.017557)
(0.120233 0.301454 0.207745)
(0.128725 0.387957 0.196471)
(0.0676543 0.269903 0.0360113)
(-0.0340032 0.107418 -0.0516302)
(-0.068571 0.131764 -0.325462)
(-0.0305413 -0.0599271 -0.490901)
(-0.0452239 -0.326956 -0.353681)
(-0.131133 -0.386821 -0.133507)
(-0.115685 -0.265774 0.0648109)
(-0.0609439 0.0163333 0.203526)
(0.0513329 0.286274 0.302994)
(0.0814648 0.447598 0.283)
(0.0167188 0.304649 0.0878368)
(-0.0433423 0.151008 0.0951667)
(0.0469546 0.182641 -0.282347)
(0.0636385 0.038158 -0.409813)
(0.0290714 -0.251272 -0.335424)
(-0.0917588 -0.401108 -0.169642)
(-0.135495 -0.31932 0.0356563)
(-0.109773 -0.0550982 0.226918)
(-0.0882272 0.232844 0.2867)
(-0.0350281 0.422913 0.2779)
(-0.0667978 0.323172 0.136214)
(-0.0426566 0.133822 0.149695)
(0.135195 0.237514 -0.230372)
(0.132289 0.129031 -0.30414)
(0.0721774 -0.142174 -0.279892)
(-0.067376 -0.361082 -0.193869)
(-0.19403 -0.317717 -0.0267993)
(-0.236333 -0.0591761 0.150772)
(-0.248324 0.182791 0.2048)
(-0.195097 0.336942 0.198931)
(-0.147001 0.261711 0.111795)
(-0.0477339 0.0599405 0.0376178)
(-0.00431618 0.000400558 -0.00401424)
(-0.0039223 0.000420141 -0.00487782)
(-0.00352117 0.000512513 -0.00537576)
(-0.00349926 0.000527539 -0.00532419)
(-0.00374188 0.000398123 -0.00448912)
(-0.00418688 -0.000253514 -0.0031123)
(-0.00484459 -0.00180068 -0.000873992)
(-5.50502e-05 -0.0050853 0.00254557)
(0.00634907 -0.0024282 0.00281132)
(0.00371841 0.00172315 -0.00179997)
(-0.00403741 -0.00174299 -0.00469019)
(-0.00342413 -0.00114827 -0.00630944)
(-0.00180165 0.000205478 -0.00732795)
(-0.00093495 0.0012695 -0.00761759)
(-0.00132402 0.00166798 -0.00692568)
(-0.00305357 0.000891841 -0.00510932)
(-0.00723075 -0.00321327 -2.62413e-05)
(-0.0031299 -0.0117639 0.0120564)
(0.0119095 -0.00244861 0.00803912)
(0.00739366 0.00839605 -0.00536345)
(-0.00384094 -0.00278549 -0.0062566)
(-0.00397465 -0.00275285 -0.00844938)
(-0.00256076 -0.000888052 -0.00997)
(-0.00190778 0.00185765 -0.0100845)
(-0.00308401 0.0045892 -0.00860508)
(-0.00843426 0.00534257 -0.00502358)
(-0.0175988 -0.000224672 0.00957561)
(-0.010203 -0.0224216 0.0342351)
(0.00578958 -0.00153521 0.0281322)
(0.010088 0.0177964 -0.00559288)
(-0.00262848 0.002168 -0.00820923)
(-0.0020183 0.000396426 -0.00987964)
(-0.00144684 0.00144714 -0.0118256)
(-0.000708905 0.00572316 -0.012621)
(-0.00228266 0.010529 -0.0115337)
(-0.00741385 0.0134961 -0.00573456)
(-0.0152188 0.00600982 0.00992586)
(0.00154675 -0.0273534 0.0320909)
(-0.00959826 0.00160589 0.0299869)
(0.00515099 0.0272959 -0.00578733)
(-0.0029098 0.0127274 -0.0145031)
(0.000814789 0.00956631 -0.015512)
(0.00145735 0.00803285 -0.016545)
(0.00116117 0.0104158 -0.0182451)
(0.000443566 0.0156791 -0.0169618)
(-0.000832388 0.0197787 -0.0100841)
(-0.00131886 0.0085343 2.66101e-05)
(0.011648 -0.0141577 0.0140674)
(-0.0110748 0.0157569 0.0106984)
(-0.00395158 0.0356436 -0.0103994)
(-0.00191459 0.0210976 -0.0263878)
(0.00140593 0.0147665 -0.0236024)
(0.00155129 0.0135893 -0.0194106)
(0.00208545 0.0165303 -0.016984)
(0.00437115 0.0204184 -0.0141336)
(0.00600635 0.0224071 -0.00762084)
(0.00802514 0.00996806 0.00347353)
(0.0115752 -0.00505308 0.0116702)
(-0.0105003 0.027622 -0.00179536)
(-0.0140886 0.0366296 -0.015358)
(-0.00534974 0.0524298 -0.0455464)
(-0.00318191 0.0494869 -0.0389508)
(-0.00168463 0.0492705 -0.0331867)
(0.00141887 0.0464665 -0.0299242)
(0.00518874 0.0433243 -0.0197897)
(0.00891073 0.0407535 -0.00325668)
(0.00892824 0.0344652 0.0122037)
(0.0100298 0.0330291 0.0158339)
(-0.00778724 0.0556684 0.00263892)
(-0.00594501 0.0381992 -0.0225813)
(-0.0370277 0.0285068 -0.104282)
(-0.020379 0.0229113 -0.103571)
(-0.0032746 0.0162012 -0.103414)
(0.0139077 0.0170757 -0.0979117)
(0.0236615 0.0289977 -0.0808803)
(0.0267715 0.0422387 -0.0526026)
(0.0202905 0.0454403 -0.0169016)
(0.0132387 0.0411605 0.00578914)
(-0.0038808 0.0541041 0.00231345)
(0.0104094 0.0413866 -0.0210355)
(-0.0537399 0.126315 0.208747)
(-0.0475461 0.102505 0.125283)
(-0.0372474 0.0770851 0.0429241)
(-0.0272214 0.0660855 -0.0288634)
(0.00445774 0.0738771 -0.0743073)
(0.0348169 0.0810557 -0.0768484)
(0.0507172 0.0822969 -0.0513022)
(0.0500152 0.0765083 -0.0062955)
(0.0204933 0.0668301 0.0275869)
(0.0135902 0.0728889 0.043262)
(-0.100138 0.174915 0.0905032)
(-0.07671 0.131064 0.0468968)
(-0.07631 -0.0344036 -0.00467566)
(-0.0896734 -0.112788 0.0374804)
(-0.114872 0.104338 0.154571)
(-0.144587 0.13833 0.312697)
(-0.127467 0.117252 0.279788)
(-0.0648751 0.100104 0.19877)
(-0.0509767 0.0814375 0.20642)
(-0.0102732 0.0612188 0.194409)
(-0.160837 -0.0204892 0.107989)
(-0.118587 -0.0646503 0.079077)
(-0.0792451 -0.0806226 0.051323)
(-0.0815016 -0.0521625 0.00913061)
(-0.0614329 0.0512819 -0.0461612)
(0.026168 0.192523 -0.00869871)
(0.0309823 0.146775 0.133629)
(0.0792815 -0.103176 0.0792339)
(0.00741032 -0.148923 0.111965)
(-0.00674737 -0.0855284 0.160432)
(-0.244872 -0.0412806 0.0567257)
(-0.224085 -0.0684788 -0.0211135)
(-0.178205 -0.109199 -0.0442202)
(-0.133409 -0.118473 -0.06726)
(-0.103858 -0.106366 -0.147913)
(-0.0437297 -0.0833685 -0.243534)
(0.0766382 0.00754901 -0.235605)
(0.189835 0.103334 -0.166573)
(0.191117 0.107815 -0.112942)
(0.0968891 0.0513259 -0.0924588)
(-0.296757 0.0656054 -0.112974)
(-0.291503 -0.0454132 -0.140533)
(-0.22966 -0.101581 -0.14077)
(-0.169115 -0.0856042 -0.132533)
(-0.133135 -0.0832841 -0.181643)
(-0.0815911 -0.157536 -0.27561)
(-0.00491924 -0.210307 -0.338287)
(0.131088 -0.0923143 -0.322358)
(0.18047 0.0362898 -0.223735)
(0.0915816 0.0826672 -0.168305)
(-0.371535 0.0256548 -0.141988)
(-0.328613 -0.138759 -0.206771)
(-0.229652 -0.196293 -0.22503)
(-0.150138 -0.151565 -0.170638)
(-0.0936056 -0.11377 -0.18536)
(-0.0600558 -0.201511 -0.26492)
(-0.0367783 -0.25923 -0.320304)
(0.0444195 -0.104941 -0.269401)
(0.0957371 0.09369 -0.216656)
(0.058353 0.172052 -0.20665)
(-0.336679 0.0143809 -0.199649)
(-0.251879 -0.178546 -0.348027)
(-0.17045 -0.286904 -0.320674)
(-0.12053 -0.269925 -0.189149)
(-0.04675 -0.178048 -0.181597)
(-0.0467495 -0.191502 -0.251303)
(-0.0923225 -0.224307 -0.268122)
(-0.077836 -0.0997719 -0.196955)
(-0.00465319 0.121269 -0.126448)
(-0.0260772 0.199467 -0.162397)
(-0.19594 0.0545016 -0.315554)
(-0.13919 -0.149361 -0.492839)
(-0.141595 -0.325319 -0.341894)
(-0.141997 -0.334982 -0.163803)
(-0.0892976 -0.215782 -0.150614)
(-0.0983496 -0.132292 -0.206442)
(-0.148082 -0.0962791 -0.15698)
(-0.143961 -0.0277132 -0.093483)
(-0.0816246 0.094383 -0.0824245)
(-0.0755299 0.0998195 -0.093584)
(-0.0303073 0.0849603 -0.393504)
(-0.0510033 -0.11917 -0.528501)
(-0.1334 -0.357987 -0.297088)
(-0.179855 -0.349064 -0.106528)
(-0.157524 -0.189542 -0.0643201)
(-0.170948 -0.0561403 -0.0878895)
(-0.146695 0.0477098 0.0158846)
(-0.103995 0.0837534 0.0652846)
(-0.0990259 0.0734769 -0.00806309)
(-0.0615669 0.0149411 -0.0319635)
(0.0956075 0.135209 -0.399803)
(0.0145507 -0.0846108 -0.485969)
(-0.0961731 -0.362877 -0.280966)
(-0.197431 -0.36903 -0.0711906)
(-0.187353 -0.161573 0.0367635)
(-0.172694 0.0344241 0.0880945)
(-0.126932 0.168955 0.184297)
(-0.0718132 0.216885 0.206612)
(-0.112504 0.103202 0.0856821)
(-0.0764531 0.00991357 0.0638744)
(0.169774 0.197985 -0.361368)
(0.0871221 -0.0335987 -0.403716)
(-0.0500903 -0.333689 -0.258651)
(-0.199405 -0.410544 -0.0669019)
(-0.247714 -0.206383 0.0790809)
(-0.221108 0.0562787 0.186013)
(-0.193996 0.219997 0.249673)
(-0.123825 0.274454 0.252409)
(-0.134938 0.141807 0.140029)
(-0.0687466 0.00969869 0.100754)
(0.22377 0.260241 -0.298438)
(0.14282 0.0427183 -0.310944)
(0.00190873 -0.257585 -0.227291)
(-0.187265 -0.402927 -0.0776496)
(-0.356502 -0.236224 0.0714842)
(-0.364097 0.0545622 0.17136)
(-0.333884 0.2266 0.222345)
(-0.240422 0.266537 0.198097)
(-0.136036 0.133994 0.0912546)
(-0.00904702 -0.0313947 0.00471401)
(-0.00504809 0.00165395 -0.0044361)
(-0.004518 0.00091016 -0.00535809)
(-0.00338901 0.000657989 -0.00624828)
(-0.00255692 0.000567421 -0.00629762)
(-0.00204264 0.000593078 -0.00538145)
(-0.00187243 0.000357913 -0.00371601)
(-0.00182183 -0.000261375 -0.00139037)
(0.000807529 -0.00148142 0.00228663)
(0.00406174 -3.31332e-05 0.00273172)
(0.00252296 0.00206681 -0.00264894)
(-0.00493152 0.00089562 -0.00366837)
(-0.00478824 -0.000727015 -0.00588909)
(-0.0023255 -0.000818246 -0.00793591)
(-0.000286773 -0.000252152 -0.00870887)
(0.000748765 0.000587119 -0.00811325)
(0.000610729 0.00102001 -0.00623335)
(-0.000469712 0.000261061 -0.00259082)
(0.00303415 -0.00240182 0.0048753)
(0.00787112 0.00156765 0.00337047)
(0.00409383 0.0067926 -0.00630033)
(-0.00466243 0.000577162 -0.00800351)
(-0.00462829 -0.0026572 -0.00936835)
(-0.00191234 -0.00311519 -0.0110996)
(9.46229e-05 -0.000945293 -0.0115541)
(0.000745338 0.00199279 -0.0101194)
(-0.000185246 0.00423874 -0.00655695)
(-0.00311928 0.00470476 0.00186273)
(0.00103927 0.00261258 0.0185323)
(0.0120434 0.010858 0.0121163)
(0.00591101 0.0156601 -0.0075992)
(-0.00301699 0.00358694 -0.016699)
(-0.00185898 -0.00139469 -0.0151803)
(0.000515205 -0.00346084 -0.015526)
(0.00249058 -0.000583369 -0.0156792)
(0.00295135 0.00432941 -0.0137017)
(0.00157766 0.00887706 -0.00846573)
(-0.00143995 0.0127696 0.00222094)
(0.0022906 0.0100808 0.0225324)
(0.00842978 0.0228152 0.0137309)
(0.0045708 0.0243188 -0.0102151)
(-0.00206141 0.00968153 -0.0291009)
(0.00137481 0.0027408 -0.0239268)
(0.00289017 -0.00140217 -0.0219266)
(0.00472254 0.00181076 -0.0226432)
(0.00609099 0.00816988 -0.0209852)
(0.00630898 0.0147963 -0.0144834)
(0.00463825 0.0198065 -0.00336984)
(0.0060583 0.0207941 0.0101991)
(0.00428167 0.0373579 0.00114053)
(-0.0038637 0.034067 -0.0186201)
(0.000218359 0.0148973 -0.0440797)
(0.0047134 0.0036895 -0.0342896)
(0.00363821 -0.00186904 -0.02931)
(0.00358375 -0.000474814 -0.0277536)
(0.00655073 0.00538121 -0.0231893)
(0.0102975 0.0129549 -0.0153842)
(0.00958108 0.0207222 -0.00498769)
(0.0118279 0.0275284 -0.000426801)
(-0.000425732 0.0484034 -0.00950709)
(-0.00904993 0.030842 -0.0250502)
(-0.00600171 0.0199559 -0.0664751)
(0.00160122 0.0166985 -0.0557448)
(0.00460464 0.0198647 -0.048377)
(0.00731016 0.0223531 -0.0440768)
(0.010365 0.0243762 -0.0355305)
(0.0158685 0.0308643 -0.0197005)
(0.0113446 0.0422934 -0.00110511)