/*--------------------------------*- C++ -*----------------------------------*\
| =========                 |                                                 |
| \\      /  F ield         | OpenFOAM: The Open Source CFD Toolbox           |
|  \\    /   O peration     | Version:  2312                                  |
|   \\  /    A nd           | Website:  www.openfoam.com                      |
|    \\/     M anipulation  |                                                 |
\*---------------------------------------------------------------------------*/
FoamFile
{
    version     2.0;
    format      ascii;
    arch        "LSB;label=32;scalar=64";
    class       surfaceScalarField;
    location    "0.825";
    object      alphaPhi0.water;
}
// * * * * * * * * * * * * * * * * * * * * * * * * * * * * * * * * * * * * * //

dimensions      [0 3 -1 0 0 0 0];

oriented        oriented;

internalField   nonuniform List<scalar> 
22600
(
1.85799e-07
-3.81115e-07
1.95315e-07
3.94982e-07
-3.93563e-07
1.84381e-07
5.68888e-07
-3.4669e-07
1.72784e-07
6.68781e-07
-2.76621e-07
1.76728e-07
6.9551e-07
-2.0648e-07
1.79752e-07
6.56686e-07
-1.38377e-07
1.77201e-07
5.64565e-07
-7.92591e-08
1.7138e-07
4.37731e-07
-3.51296e-08
1.61964e-07
2.94263e-07
-7.77613e-09
1.51244e-07
2.94199e-09
1.38563e-07
1.60368e-07
-7.11503e-07
1.70021e-07
3.68576e-07
-7.50529e-07
1.48758e-07
5.41152e-07
-6.46394e-07
1.27128e-07
6.41753e-07
-5.19527e-07
1.42305e-07
6.71712e-07
-3.97615e-07
1.61176e-07
6.40008e-07
-2.73407e-07
1.66734e-07
5.57347e-07
-1.61227e-07
1.64629e-07
4.38641e-07
-7.79395e-08
1.61516e-07
2.99303e-07
-2.94647e-08
1.61027e-07
-1.86062e-08
1.56497e-07
2.35055e-07
-1.18954e-06
2.42984e-07
5.04827e-07
-1.27919e-06
2.58888e-07
6.88576e-07
-1.00333e-06
1.73189e-07
7.94512e-07
-7.71703e-07
1.4624e-07
8.16982e-07
-5.93384e-07
1.73299e-07
7.61657e-07
-4.16494e-07
1.98412e-07
6.44512e-07
-2.56664e-07
2.12581e-07
4.87502e-07
-1.46315e-07
2.25386e-07
3.18405e-07
-1.04338e-07
2.43971e-07
-1.41277e-07
2.635e-07
4.32925e-07
-2.05198e-06
4.29515e-07
7.89551e-07
-2.19511e-06
5.59297e-07
9.21246e-07
-1.5346e-06
3.99573e-07
9.99895e-07
-1.11062e-06
2.60268e-07
1.01406e-06
-8.40376e-07
2.32825e-07
9.20082e-07
-5.88599e-07
2.66085e-07
7.24911e-07
-3.72592e-07
3.11099e-07
4.81781e-07
-2.73614e-07
3.70429e-07
2.77231e-07
-3.53768e-07
4.5398e-07
-5.97e-07
5.39444e-07
6.97048e-07
-3.4363e-06
6.87275e-07
1.1234e-06
-3.48275e-06
8.6129e-07
1.16157e-06
-2.28667e-06
7.13899e-07
1.12851e-06
-1.6148e-06
5.37239e-07
1.08454e-06
-1.24501e-06
4.48608e-07
9.4072e-07
-9.04779e-07
4.59997e-07
6.57698e-07
-6.07763e-07
5.18193e-07
3.62299e-07
-6.14296e-07
6.36081e-07
2.22175e-07
-1.02499e-06
8.11342e-07
-1.42708e-06
9.24642e-07
8.02332e-07
-5.03517e-06
7.96612e-07
1.18445e-06
-4.85839e-06
9.93617e-07
1.2842e-06
-3.36147e-06
9.75098e-07
1.26209e-06
-2.47021e-06
8.77542e-07
1.1837e-06
-1.92061e-06
7.54004e-07
1.04582e-06
-1.43687e-06
6.6997e-07
8.06853e-07
-9.73223e-07
6.04424e-07
6.06271e-07
-1.13598e-06
7.22266e-07
4.91329e-07
-1.80309e-06
8.9306e-07
-1.97959e-06
9.49365e-07
7.09105e-07
-6.50826e-06
7.65653e-07
8.9395e-07
-6.10588e-06
1.06454e-06
1.13847e-06
-4.74739e-06
1.14299e-06
1.38241e-06
-3.76545e-06
1.0526e-06
1.48977e-06
-2.85687e-06
8.2951e-07
1.52176e-06
-2.11841e-06
6.49728e-07
1.25573e-06
-1.3001e-06
5.92895e-07
9.00726e-07
-1.43206e-06
6.629e-07
6.39405e-07
-2.15741e-06
6.65736e-07
-2.23585e-06
7.22857e-07
5.5718e-07
-7.77501e-06
7.90695e-07
8.30344e-07
-7.17789e-06
1.20599e-06
1.43377e-06
-5.4354e-06
1.1476e-06
1.99694e-06
-3.42276e-06
7.7521e-07
2.07856e-06
-1.94091e-06
3.50328e-07
1.74072e-06
-1.21813e-06
1.14657e-08
9.78546e-07
-5.31359e-07
3.85084e-08
5.88158e-07
-6.76792e-07
-1.0698e-07
3.26439e-07
-1.44114e-06
-2.85286e-07
-1.54013e-06
-2.20786e-07
2.51548e-07
-1.97313e-06
4.18466e-07
7.11086e-07
-5.18972e-09
2.47219e-07
9.28258e-07
-2.78427e-10
6.98318e-08
9.69068e-07
-5.3322e-11
-6.4377e-08
1.10565e-06
-3.65656e-12
-8.59337e-08
1.23221e-06
1.0553e-08
-5.5768e-08
8.98951e-07
1.70403e-08
4.0425e-08
6.53986e-07
-3.42103e-07
3.33788e-07
4.0478e-08
-9.16758e-07
5.37644e-07
-1.01961e-06
5.61072e-07
5.18309e-09
-5.68393e-11
-6.04213e-10
2.04222e-10
-5.87256e-11
-1.32882e-10
2.36657e-11
-3.31196e-11
-1.64743e-11
1.23934e-11
-1.79442e-11
-6.29018e-12
9.53407e-12
-2.51257e-12
-1.99203e-12
6.89089e-09
8.02168e-10
3.02271e-09
-2.11731e-10
5.51697e-10
5.26397e-08
-2.14943e-07
-6.91448e-10
1.8201e-07
-3.4658e-07
-8.8604e-12
2.38792e-07
-8.2127e-12
1.92212e-07
-1.72468e-12
-6.47457e-11
-1.0256e-11
4.87657e-12
-4.9557e-11
-3.39962e-11
8.72673e-12
-2.55015e-11
-2.21498e-11
1.89464e-11
-1.13293e-11
-2.19178e-11
1.86875e-11
-1.53547e-12
-4.26759e-12
7.53738e-10
1.8774e-11
4.35645e-11
7.20992e-10
7.04247e-11
6.12929e-10
-4.43518e-12
-3.13872e-12
3.6367e-11
-1.07972e-11
-7.47245e-12
4.25261e-12
-8.34339e-12
2.75091e-12
-2.31602e-14
-2.59495e-11
-1.44028e-10
1.642e-11
-3.02218e-11
-2.42899e-10
2.91196e-11
-1.88927e-11
-2.20081e-10
4.70609e-11
-1.18458e-11
-2.25307e-10
1.46208e-11
2.42508e-12
-1.04747e-11
2.31998e-11
6.52645e-12
9.54545e-13
1.62477e-11
1.5735e-11
2.75514e-11
-1.72717e-11
1.37256e-11
1.48054e-11
-1.85985e-11
1.04265e-11
8.15009e-12
4.79088e-16
6.48147e-13
6.26256e-12
2.22948e-10
-4.86565e-10
2.90214e-11
7.97133e-11
-4.39486e-10
3.93643e-11
5.49204e-11
-3.03739e-10
7.86604e-11
7.17891e-11
-4.55242e-10
1.64078e-11
1.61904e-11
-2.42677e-11
1.60367e-11
5.4758e-12
-3.96634e-14
-3.19971e-12
1.49243e-10
3.72123e-11
-5.01608e-11
2.61437e-11
7.61357e-12
-5.22331e-11
6.68087e-11
-1.09173e-11
4.86251e-11
-1.36594e-11
-7.96781e-12
8.85539e-11
-1.33018e-10
1.1691e-12
2.60632e-11
-1.6105e-11
8.84629e-12
-8.2499e-13
-1.51899e-11
5.2345e-11
6.12953e-11
-3.09951e-10
7.44758e-12
3.03296e-11
-9.32128e-12
1.11012e-11
3.13626e-11
-3.82039e-15
-1.36984e-11
2.06284e-10
6.91768e-11
-1.92921e-11
1.58055e-11
2.35563e-12
-1.25987e-10
1.08026e-10
-3.6564e-11
1.25974e-10
-1.05244e-10
-1.08586e-11
2.56644e-10
2.70242e-11
-4.47952e-12
2.08928e-11
-4.86009e-12
-8.97705e-12
2.51437e-12
-1.29664e-11
1.91594e-11
2.80939e-11
-1.18035e-10
1.55304e-11
5.1933e-11
-7.90942e-12
-8.4433e-12
1.70891e-10
-1.57781e-13
-1.1097e-11
2.60089e-10
5.02662e-11
-2.56172e-11
1.80895e-11
-5.66483e-13
-1.2037e-10
8.10756e-11
-4.73838e-11
1.3971e-10
-1.19216e-10
-3.93939e-11
2.96282e-10
1.17153e-10
-4.63919e-12
8.01556e-11
-9.26751e-13
-8.68304e-12
6.73703e-12
-1.59131e-12
-7.74048e-13
4.5675e-12
-7.96075e-12
-3.60841e-12
5.41559e-11
-9.54808e-12
-6.02394e-11
1.49112e-10
-3.5865e-12
-4.19245e-11
1.35348e-10
-8.22934e-12
-3.41533e-11
6.37659e-12
-1.37906e-12
-6.45636e-11
2.20994e-11
-4.53146e-11
4.90167e-11
-6.46067e-11
-1.28745e-10
2.49503e-10
1.24104e-10
-6.48076e-12
2.10831e-10
2.61908e-11
-3.9827e-12
4.73757e-12
-6.52859e-13
-2.24361e-12
3.78216e-12
-1.25135e-12
-2.7251e-11
3.93116e-11
-1.15178e-12
-3.59727e-11
2.18055e-11
-9.61317e-13
-7.92065e-12
1.17704e-11
-2.19835e-12
-5.6211e-12
5.16498e-12
-1.3142e-12
-7.12987e-12
6.92483e-12
-5.74602e-12
2.01705e-11
6.50866e-12
-1.3933e-10
1.3836e-10
9.24699e-11
-3.62203e-12
9.32111e-11
4.2279e-11
-3.01626e-12
3.89419e-12
1.42025e-13
-4.60094e-12
4.87131e-12
3.41169e-13
-5.77345e-12
3.03794e-12
2.6537e-12
-4.40946e-12
8.456e-12
2.01511e-12
-2.16246e-12
8.25225e-12
-6.51847e-14
-1.77102e-12
4.03428e-12
-3.74844e-13
-2.33024e-12
5.09745e-12
1.00773e-12
5.59526e-12
2.66819e-11
-8.10118e-11
1.7361e-11
1.8046e-10
-1.93378e-12
9.03976e-12
4.99773e-12
-2.01059e-12
2.67251e-12
1.23473e-12
-1.89971e-12
3.33415e-12
1.33062e-12
-2.07947e-12
1.85025e-12
1.75962e-12
-1.7704e-12
7.60912e-12
1.79729e-12
-8.80998e-13
5.38815e-12
8.61512e-13
-7.81261e-13
2.29178e-12
5.26998e-13
-8.81838e-13
1.91327e-12
2.1635e-12
1.47141e-12
5.0622e-12
-5.55636e-12
1.86625e-10
-1.86209e-11
-1.24771e-12
1.42127e-11
6.9784e-11
-1.45636e-12
1.583e-12
1.24244e-12
-1.79923e-12
1.55034e-12
2.02319e-12
-5.67445e-12
3.26365e-12
3.01582e-12
-3.86919e-12
6.60004e-12
1.29815e-11
-1.29376e-12
3.67946e-12
2.5567e-11
-5.02574e-13
9.38074e-12
1.54623e-11
-1.00443e-13
2.43397e-11
9.55264e-12
5.94382e-12
3.12921e-12
1.74421e-07
-3.9308e-07
4.13975e-07
4.1752e-07
-4.97926e-07
4.39208e-07
6.36346e-07
-4.64111e-07
4.18068e-07
7.62471e-07
-3.5749e-07
4.08094e-07
8.01565e-07
-2.60993e-07
4.01651e-07
7.67893e-07
-1.84137e-07
3.9501e-07
6.73236e-07
-1.23027e-07
3.89064e-07
5.29868e-07
-7.58697e-08
3.81201e-07
3.51428e-07
-4.35861e-08
3.73271e-07
-3.57302e-08
3.6049e-07
1.38246e-07
-7.5039e-07
3.89085e-07
4.15156e-07
-1.06701e-06
4.40935e-07
6.61761e-07
-9.8646e-07
4.02873e-07
7.83369e-07
-7.21056e-07
3.84262e-07
8.09848e-07
-5.11733e-07
3.85437e-07
7.69212e-07
-3.63419e-07
3.86652e-07
6.71381e-07
-2.46251e-07
3.85683e-07
5.27068e-07
-1.54928e-07
3.84887e-07
3.51894e-07
-9.6367e-08
3.88981e-07
-9.20781e-08
3.88527e-07
2.53962e-07
-1.28892e-06
5.27555e-07
6.95431e-07
-1.95849e-06
7.08898e-07
9.73026e-07
-1.69892e-06
6.08054e-07
1.06002e-06
-1.14272e-06
4.80911e-07
1.03466e-06
-7.57515e-07
4.44443e-07
9.5365e-07
-5.34233e-07
4.50232e-07
8.20685e-07
-3.63464e-07
4.6276e-07
6.37439e-07
-2.25209e-07
4.78913e-07
4.15747e-07
-1.34768e-07
5.04063e-07
-1.37073e-07
5.23654e-07
5.62155e-07
-2.22673e-06
8.0517e-07
1.19567e-06
-3.21779e-06
1.18499e-06
1.41431e-06
-2.55869e-06
1.0407e-06
1.4249e-06
-1.637e-06
7.43965e-07
1.34268e-06
-1.03122e-06
5.8875e-07
1.20199e-06
-7.02694e-07
5.75239e-07
9.94328e-07
-4.63471e-07
6.18765e-07
7.22578e-07
-2.66751e-07
6.83721e-07
4.33702e-07
-1.5325e-07
7.61339e-07
-2.17724e-07
8.24716e-07
8.76514e-07
-3.55347e-06
1.1375e-06
1.58334e-06
-4.62944e-06
1.56536e-06
1.72566e-06
-3.46313e-06
1.47569e-06
1.65687e-06
-2.18865e-06
1.15769e-06
1.52568e-06
-1.35147e-06
9.00046e-07
1.33088e-06
-8.88956e-07
8.41065e-07
1.05297e-06
-5.89297e-07
9.2193e-07
7.09651e-07
-3.4589e-07
1.05854e-06
3.99911e-07
-2.09972e-07
1.17781e-06
-4.13394e-07
1.269e-06
1.02358e-06
-5.04474e-06
1.2644e-06
1.66094e-06
-5.95054e-06
1.67736e-06
1.86075e-06
-4.44545e-06
1.75765e-06
1.86531e-06
-2.92709e-06
1.6115e-06
1.71671e-06
-1.77004e-06
1.32118e-06
1.45816e-06
-1.08147e-06
1.12104e-06
1.18592e-06
-8.19396e-07
1.10676e-06
9.81985e-07
-7.09184e-07
1.28949e-06
7.55989e-07
-6.06767e-07
1.51585e-06
-6.34272e-07
1.62729e-06
9.62419e-07
-6.49968e-06
1.26028e-06
1.48489e-06
-7.15902e-06
1.75645e-06
1.87495e-06
-5.60135e-06
1.91351e-06
2.11618e-06
-3.96736e-06
1.85403e-06
2.06142e-06
-2.43762e-06
1.5525e-06
1.86248e-06
-1.41241e-06
1.17973e-06
1.84683e-06
-1.24788e-06
1.03705e-06
1.84522e-06
-1.34365e-06
1.29901e-06
1.41438e-06
-1.02253e-06
1.51238e-06
-4.90692e-07
1.51465e-06
8.55385e-07
-7.6398e-06
1.42912e-06
1.52677e-06
-6.91669e-06
1.93552e-06
2.24491e-06
-4.76653e-06
1.82948e-06
2.65094e-06
-2.84736e-06
1.47598e-06
2.51469e-06
-1.60791e-06
1.09467e-06
2.0916e-06
-9.14887e-07
6.36014e-07
1.6401e-06
-6.51619e-07
1.78642e-07
1.14715e-06
-6.48829e-07
-1.14625e-07
6.14873e-07
-4.42922e-07
-1.86946e-07
1.04742e-08
-2.65015e-07
5.45587e-07
-1.45623e-07
4.75612e-07
6.17283e-07
-3.24366e-09
2.78862e-07
7.38978e-07
-2.80242e-10
1.32054e-07
8.73117e-07
-6.86885e-11
1.36441e-08
1.05986e-06
-1.50033e-11
-7.50641e-09
1.5564e-06
-2.71863e-09
8.95632e-08
1.42587e-06
-8.56101e-10
2.5929e-07
8.49844e-07
-4.84801e-08
5.52124e-07
2.16847e-07
-4.16049e-07
6.78567e-07
-4.73559e-07
5.8711e-07
3.10329e-09
-2.03283e-10
-1.07304e-11
1.09336e-10
-2.90939e-10
-2.34767e-11
1.87124e-11
-1.40882e-10
-2.59224e-11
1.24113e-11
-5.38002e-11
-1.13733e-11
1.09822e-11
-1.00383e-11
-4.59703e-12
2.94929e-10
-8.58227e-12
2.73808e-11
3.45866e-08
7.79114e-10
1.26967e-09
2.8541e-08
-1.21209e-09
5.73893e-08
-1.45147e-07
-1.76015e-10
2.07999e-07
-4.95791e-10
5.20464e-08
6.28907e-12
-1.92332e-10
-4.43711e-11
4.89326e-12
-2.30869e-10
-1.12558e-10
1.55327e-11
-3.372e-10
-1.94454e-10
1.29641e-11
-8.64691e-11
-4.77544e-11
1.09749e-11
-8.67103e-12
-8.51521e-12
4.68015e-11
7.06732e-13
-4.26679e-12
1.31493e-09
1.8535e-11
9.16626e-11
1.01112e-10
2.702e-12
4.19002e-11
4.22321e-12
-8.48347e-11
9.21206e-12
-7.19894e-11
-3.6303e-10
3.04381e-11
-2.27796e-10
-2.94937e-10
8.27667e-12
-4.2143e-10
-6.46578e-10
2.58399e-11
-5.49333e-10
-5.39245e-10
2.2935e-11
-4.44077e-10
-5.1304e-10
4.91085e-12
-1.26373e-11
-1.4626e-11
6.48285e-12
6.43286e-13
-2.01544e-12
4.39895e-11
-4.29249e-12
1.01579e-11
3.90898e-11
1.19379e-11
1.37477e-11
-7.08515e-12
1.16516e-10
-4.49292e-12
8.83502e-11
-1.22323e-10
3.57041e-11
9.57259e-11
-4.70611e-10
7.23527e-12
-3.19434e-11
-4.25324e-10
2.3606e-11
-3.08018e-11
-4.8368e-10
7.51529e-11
-1.93557e-10
-5.19738e-10
3.10728e-12
2.25638e-12
-1.31312e-11
2.87082e-12
2.20647e-12
-2.2476e-12
1.82505e-11
2.38525e-11
5.11229e-13
1.01825e-11
1.58335e-11
5.64453e-12
-2.65909e-11
2.21317e-10
-1.77583e-11
4.92288e-10
-3.309e-11
5.30157e-12
7.99899e-12
-1.04491e-10
-1.95288e-12
2.15223e-12
-1.8742e-11
-4.14486e-11
-1.06764e-12
-5.16207e-12
-1.79343e-11
2.06673e-11
-3.49455e-10
8.34825e-13
7.12556e-12
-2.05409e-11
1.86369e-12
3.96833e-12
-3.67615e-12
1.40057e-11
5.2044e-11
-1.91721e-12
-1.20332e-12
1.88e-11
2.78928e-12
-9.39875e-11
3.18568e-10
-1.92671e-11
1.02687e-09
-4.20466e-10
-2.52205e-12
1.3759e-10
8.31186e-13
-5.64757e-12
1.6235e-11
-3.12458e-11
-3.67033e-11
8.22756e-12
-5.1896e-12
-1.35818e-11
-3.48694e-12
-2.54737e-11
-1.48487e-12
1.43213e-11
-2.33968e-11
2.70057e-13
6.38555e-12
-5.21255e-12
1.52275e-12
3.75692e-11
-1.29574e-12
-6.77583e-12
1.9222e-11
-4.02754e-12
-1.34125e-10
4.17109e-10
-1.28981e-10
1.12378e-09
-3.10165e-10
-1.64609e-11
3.07312e-10
1.72521e-10
-6.35849e-12
5.28473e-11
-2.27295e-12
-2.70987e-12
2.94847e-12
-2.5449e-12
-7.22079e-12
-5.48273e-13
-5.87441e-12
-2.41292e-12
2.15992e-11
-1.72644e-11
-1.96937e-12
9.11179e-12
-7.63894e-12
-1.58067e-13
7.5905e-12
-7.32589e-12
7.15141e-12
1.63929e-11
-1.30043e-11
-1.84667e-11
3.32762e-10
-1.36325e-10
1.15232e-09
-2.03262e-10
-1.74149e-11
2.15914e-10
1.8339e-10
-3.76128e-12
1.24569e-10
1.48417e-11
-2.73696e-12
2.96886e-12
-1.78927e-12
-5.97608e-12
3.6401e-12
-2.22702e-12
-4.20248e-12
1.52368e-11
-4.73803e-12
-1.81746e-12
1.20165e-11
-6.64908e-12
7.20971e-14
6.60252e-12
8.05626e-13
1.54048e-12
1.46495e-11
-4.80043e-12
1.17374e-11
1.49622e-10
-8.61185e-11
1.1811e-09
-7.51436e-12
-3.417e-11
1.1047e-10
4.23811e-11
-2.96292e-12
1.07853e-10
4.76242e-11
-3.11163e-12
3.64629e-12
-4.45119e-13
-4.43584e-12
5.53075e-12
-3.16951e-13
-4.474e-12
7.23022e-12
4.53344e-13
-2.43816e-12
8.7239e-12
-4.4071e-15
-6.41663e-13
7.25213e-12
-5.78984e-13
3.82002e-12
2.75472e-11
-1.25574e-12
-5.27162e-11
1.73998e-10
3.41284e-12
8.16821e-10
4.05456e-10
-6.95523e-11
1.50885e-10
8.94857e-11
-2.0535e-12
1.83137e-11
1.30601e-11
-2.45258e-12
3.95028e-12
1.29302e-12
-2.70497e-12
5.33826e-12
1.29792e-12
-1.92684e-12
4.45351e-12
2.30836e-12
-1.43178e-12
6.05511e-12
1.83369e-12
-4.18413e-12
7.80057e-12
1.30771e-12
-1.27998e-12
1.19969e-10
9.48332e-12
-9.73622e-11
2.93891e-10
1.08193e-10
1.77091e-10
3.81191e-10
-2.49394e-11
2.2155e-10
2.5312e-10
-2.27456e-12
4.62974e-12
5.16774e-12
-2.38082e-12
2.49882e-12
3.03746e-12
-2.20691e-12
2.48391e-12
4.13341e-12
-2.20946e-12
2.66382e-12
4.47946e-12
-8.81143e-13
3.42726e-12
1.06302e-11
-1.16422e-11
4.83371e-12
1.75033e-11
-2.97989e-11
6.06793e-11
9.56008e-11
-1.64957e-11
2.35255e-10
8.72397e-11
1.67835e-10
5.5514e-12
1.64059e-07
-3.42166e-07
5.92082e-07
3.97343e-07
-4.559e-07
6.61824e-07
6.08105e-07
-4.26239e-07
6.33546e-07
7.30769e-07
-3.22477e-07
6.07907e-07
7.70127e-07
-2.2902e-07
5.91312e-07
7.39706e-07
-1.57795e-07
5.83227e-07
6.49915e-07
-1.0413e-07
5.82985e-07
5.10256e-07
-6.49713e-08
5.85831e-07
3.33679e-07
-4.45192e-08
5.94367e-07
-5.15623e-08
5.9223e-07
1.19066e-07
-6.39732e-07
5.67585e-07
3.76645e-07
-9.66047e-07
6.93504e-07
6.22488e-07
-9.26078e-07
6.56868e-07
7.47421e-07
-6.72133e-07
6.08986e-07
7.76996e-07
-4.59495e-07
5.86337e-07
7.398e-07
-3.14456e-07
5.80509e-07
6.47096e-07
-2.10394e-07
5.84651e-07
5.09167e-07
-1.36423e-07
5.94268e-07
3.39761e-07
-1.00065e-07
6.13933e-07
-1.13558e-07
6.25065e-07
1.64996e-07
-1.00312e-06
7.25948e-07
5.76939e-07
-1.66573e-06
9.96643e-07
9.03387e-07
-1.58911e-06
9.44643e-07
1.01199e-06
-1.09267e-06
7.92844e-07
9.89774e-07
-6.9964e-07
7.06808e-07
9.14563e-07
-4.75348e-07
6.86334e-07
7.91849e-07
-3.18194e-07
6.93275e-07
6.17796e-07
-1.92116e-07
7.08659e-07
4.01175e-07
-1.0803e-07
7.28649e-07
-1.01865e-07
7.28819e-07
3.84951e-07
-1.54857e-06
9.65671e-07
1.01674e-06
-2.51823e-06
1.40569e-06
1.37087e-06
-2.29028e-06
1.38776e-06
1.43451e-06
-1.53667e-06
1.12433e-06
1.33202e-06
-9.32581e-07
9.24176e-07
1.18062e-06
-6.12823e-07
8.64118e-07
9.89603e-07
-3.94753e-07
8.86337e-07
7.35125e-07
-1.81189e-07
9.27271e-07
4.40947e-07
-9.96918e-09
9.57457e-07
4.15934e-08
9.23306e-07
6.94859e-07
-2.33116e-06
1.22523e-06
1.46398e-06
-3.43872e-06
1.71642e-06
1.78311e-06
-2.90847e-06
1.77465e-06
1.7962e-06
-1.91353e-06
1.52145e-06
1.65118e-06
-1.14237e-06
1.25486e-06
1.46428e-06
-7.65533e-07
1.18067e-06
1.23312e-06
-4.94133e-07
1.25247e-06
8.70089e-07
-4.73534e-08
1.28773e-06
4.70363e-07
2.87642e-07
1.27992e-06
3.20286e-07
1.23259e-06
9.65353e-07
-3.48551e-06
1.45345e-06
1.73443e-06
-4.47479e-06
1.94434e-06
2.03017e-06
-3.52643e-06
2.07988e-06
2.06846e-06
-2.29026e-06
1.94998e-06
1.92852e-06
-1.33639e-06
1.65515e-06
1.7347e-06
-9.49789e-07
1.49911e-06
1.51103e-06
-7.59996e-07
1.59631e-06
1.17568e-06
-2.31841e-07
1.80932e-06
7.19219e-07
4.15886e-07
1.84407e-06
6.18551e-07
1.73246e-06
1.00304e-06
-4.92247e-06
1.69586e-06
1.67803e-06
-5.66697e-06
2.27849e-06
2.02528e-06
-4.31815e-06
2.36109e-06
2.18461e-06
-2.87066e-06
2.27623e-06
2.14166e-06
-1.69527e-06
1.95457e-06
2.08912e-06
-1.3172e-06
1.59971e-06
2.05906e-06
-1.3517e-06
1.65883e-06
1.758e-06
-4.98983e-07
1.86722e-06
1.2123e-06
4.5665e-07
2.01731e-06
9.84708e-07
1.86919e-06
8.98027e-07
-5.46957e-06
2.08178e-06
1.60455e-06
-4.75096e-06
2.60419e-06
2.14894e-06
-3.26043e-06
2.45202e-06
2.32656e-06
-2.11909e-06
2.16836e-06
2.15869e-06
-1.26157e-06
1.70587e-06
1.72377e-06
-6.75495e-07
7.16685e-07
9.55639e-07
-4.24174e-07
8.89915e-08
2.23082e-07
9.25502e-09
1.17701e-07
5.39596e-08
1.72439e-07
8.2241e-08
3.59483e-07
-3.52979e-08
5.22257e-07
-7.17284e-11
5.12569e-07
4.92226e-07
-1.839e-10
3.59799e-07
7.48846e-07
-3.43077e-10
3.21865e-07
1.00194e-06
-1.17335e-10
2.91557e-07
1.47195e-06
-4.49281e-11
3.75857e-07
1.61028e-06
-4.11804e-11
5.35958e-07
1.34006e-06
2.63754e-09
2.63779e-07
7.29199e-07
-1.4317e-08
4.11911e-07
2.0893e-07
-3.91621e-08
3.41871e-07
-4.59984e-08
1.92331e-07
1.06154e-11
-8.61041e-11
-2.29904e-11
1.30869e-11
-1.71944e-10
-3.42234e-11
2.34056e-11
-3.29439e-10
-2.91525e-11
1.83839e-11
-7.98651e-11
-2.94543e-11
1.38227e-11
-1.31865e-11
-2.82768e-11
1.51183e-11
-7.55101e-13
2.24237e-14
3.38e-09
1.04773e-10
4.61004e-10
1.81057e-08
3.44297e-09
1.73692e-08
7.20838e-09
2.13317e-10
5.2035e-08
-2.86188e-09
2.95319e-08
4.20238e-12
-9.29508e-11
-6.08432e-11
-2.05411e-12
-3.87621e-10
-9.14082e-11
1.40635e-11
-5.00136e-10
-1.82953e-10
7.64976e-12
-2.14106e-10
-4.61378e-11
6.93754e-12
-1.13245e-11
-1.61873e-11
2.27291e-11
1.73094e-12
-4.01239e-11
3.73913e-10
7.40176e-12
-1.45683e-10
3.65607e-09
7.28953e-11
1.21649e-10
2.53312e-09
-2.18768e-10
1.56227e-09
-5.56231e-10
3.23422e-10
-4.08339e-11
-2.31824e-10
-6.6148e-11
-9.40236e-11
-4.35971e-10
-3.64569e-10
-5.85444e-11
-6.98488e-10
-7.33162e-10
-1.10199e-11
-3.87793e-10
-1.96117e-10
1.09428e-14
-5.61319e-12
-3.82444e-11
3.53015e-12
2.82635e-12
-2.1884e-11
2.72571e-11
5.57698e-12
-1.5416e-11
1.7845e-10
9.52965e-12
-4.15824e-11
1.44903e-10
-3.21978e-11
-3.21466e-11
1.34954e-11
-3.24487e-10
-4.17371e-11
-4.20252e-11
-1.01214e-10
-4.33603e-11
-1.53316e-10
-1.76857e-10
-2.17115e-11
-1.77891e-11
-3.66127e-10
-2.12472e-11
-1.31002e-10
-8.12699e-11
-2.68926e-12
-2.99034e-12
-3.70174e-11
7.89079e-15
4.4822e-12
-9.03006e-12
5.37472e-12
5.99058e-12
-1.06598e-11
2.37469e-11
1.50492e-11
-1.8816e-11
-1.51146e-13
8.07276e-11
-6.35975e-11
2.71689e-10
-1.72463e-10
-1.73398e-11
-5.65738e-13
-1.62155e-10
-1.37823e-12
-9.69015e-11
-1.8387e-10
-1.09701e-11
-3.28584e-12
-1.11562e-11
-1.40796e-11
-4.41503e-12
-3.13831e-11
-5.53777e-12
9.2795e-12
-4.2211e-11
-1.97792e-12
6.8543e-12
-1.0512e-11
1.02446e-12
9.48492e-12
-1.13585e-11
5.54482e-12
4.2617e-11
-2.28012e-11
-1.27886e-11
1.47216e-10
-5.92368e-11
5.26344e-10
-1.48291e-10
-3.71266e-11
1.45949e-10
-1.64334e-10
-7.07411e-12
-9.65756e-12
-1.71018e-10
-2.5714e-12
-9.76566e-13
-1.23797e-11
-1.64121e-11
4.4844e-13
-1.71069e-11
-6.15961e-12
8.65462e-12
-4.79825e-11
-2.86308e-12
8.95741e-12
-1.14802e-11
8.7454e-13
1.39895e-11
-1.1095e-11
-1.8061e-12
6.34415e-11
-2.95417e-11
2.50543e-11
4.44013e-10
-1.07303e-10
4.69243e-10
-7.01179e-11
-2.38092e-11
9.93755e-11
2.21928e-10
-4.3601e-12
7.01614e-12
-1.18514e-11
-3.89809e-12
3.21823e-13
-5.48723e-12
-6.12198e-12
1.38376e-12
-4.98551e-12
-5.77824e-12
1.46777e-12
-1.12064e-11
-3.36803e-12
1.20724e-11
-1.63278e-11
-1.95051e-12
1.80592e-11
-1.45845e-11
-1.26864e-12
5.66913e-11
-2.46973e-11
7.58913e-11
5.10985e-10
-8.13415e-11
1.75658e-10
-6.04249e-11
9.88023e-12
6.38016e-11
1.06003e-10
-4.96877e-13
1.64265e-11
5.08437e-12
-1.90515e-12
1.82878e-12
-1.65792e-12
-1.71229e-12
2.64781e-12
-1.78938e-12
-5.04278e-12
4.51024e-12
-5.72429e-12
-4.24289e-12
1.35164e-11
-1.51962e-11
7.06476e-15
1.80451e-11
-7.49258e-12
8.38858e-12
2.51823e-11
-9.80432e-12
8.72385e-11
3.44843e-10
-8.92996e-11
3.27938e-10
-4.33887e-12
8.96522e-12
6.54738e-12
1.5099e-11
1.38908e-12
1.7827e-11
1.00785e-12
-1.02045e-12
4.18243e-12
-4.47487e-13
-1.62716e-12
4.04298e-12
-6.09988e-13
-2.71578e-12
5.91404e-12
-4.51687e-13
-2.40429e-12
1.00322e-11
8.42651e-13
-3.91122e-13
1.19535e-11
1.23586e-12
2.3986e-12
1.64303e-11
-1.96668e-12
6.18178e-11
1.37127e-10
7.90323e-12
1.17939e-09
1.93771e-10
-2.74688e-12
9.68728e-12
2.1554e-11
-2.82793e-12
6.93543e-12
7.62385e-12
-1.47005e-12
3.69221e-12
1.57637e-12
-1.76632e-12
4.63795e-12
8.83741e-13
-1.75671e-12
5.85519e-12
1.78225e-12
-1.26194e-12
7.20454e-12
2.61677e-12
-8.62311e-13
8.15106e-12
2.61525e-12
3.5774e-12
1.94241e-11
6.09974e-12
-7.09779e-11
3.47636e-10
9.93307e-11
9.58159e-10
7.56017e-10
-6.08084e-12
5.46276e-11
1.12176e-10
-2.03126e-12
3.76598e-12
3.70756e-12
-2.21639e-12
2.64969e-12
3.60544e-12
-2.10004e-12
2.60682e-12
4.27057e-12
-1.80371e-12
3.22735e-12
4.79884e-12
-1.73579e-12
3.81365e-12
6.13326e-12
-6.95813e-12
8.08863e-12
9.62533e-12
1.3523e-12
5.22212e-11
6.50995e-11
-1.40438e-10
4.5027e-10
3.09837e-10
5.68192e-10
4.48439e-10
1.68474e-07
-2.6616e-07
6.89768e-07
3.88873e-07
-3.42482e-07
7.83907e-07
5.83217e-07
-3.13176e-07
7.52378e-07
7.01233e-07
-2.32951e-07
7.22843e-07
7.43762e-07
-1.57279e-07
7.06061e-07
7.19274e-07
-9.30814e-08
7.00797e-07
6.35413e-07
-3.88522e-08
7.05698e-07
5.02167e-07
4.42091e-09
7.14656e-07
3.27886e-07
3.20413e-08
7.36606e-07
3.81166e-08
7.40804e-07
1.35729e-07
-5.01606e-07
6.67302e-07
3.61524e-07
-6.85836e-07
8.11064e-07
5.76913e-07
-6.48017e-07
7.7632e-07
7.01304e-07
-4.78238e-07
7.29882e-07
7.41915e-07
-3.17642e-07
7.06089e-07
7.15981e-07
-1.88273e-07
7.01634e-07
6.34562e-07
-8.43494e-08
7.11568e-07
5.09323e-07
-5.01879e-09
7.28947e-07
3.45948e-07
4.34788e-08
7.6587e-07
6.44997e-08
7.88112e-07
1.40986e-07
-7.53962e-07
8.37318e-07
4.4684e-07
-1.08522e-06
1.09018e-06
7.40461e-07
-1.04675e-06
1.04976e-06
8.83844e-07
-7.59636e-07
9.3086e-07
9.12238e-07
-4.97756e-07
8.58527e-07
8.68485e-07
-3.01341e-07
8.43155e-07
7.58782e-07
-1.36239e-07
8.54868e-07
5.90774e-07
3.37536e-09
8.68273e-07
3.83002e-07
1.03925e-07
8.75975e-07
1.71382e-07
8.33467e-07
2.473e-07
-1.09547e-06
1.05988e-06
6.98397e-07
-1.56438e-06
1.43375e-06
1.06075e-06
-1.4714e-06
1.45005e-06
1.20768e-06
-1.04682e-06
1.26458e-06
1.19665e-06
-6.6604e-07
1.1035e-06
1.10842e-06
-3.98607e-07
1.04961e-06
9.38185e-07
-1.56133e-07
1.07647e-06
6.81467e-07
8.24766e-08
1.10489e-06
3.88192e-07
2.78665e-07
1.07599e-06
3.73434e-07
9.24636e-07
5.01042e-07
-1.59518e-06
1.22391e-06
1.10705e-06
-2.12704e-06
1.67307e-06
1.46851e-06
-1.84515e-06
1.78696e-06
1.59308e-06
-1.28987e-06
1.63993e-06
1.57649e-06
-8.53266e-07
1.45867e-06
1.48798e-06
-5.40858e-07
1.41143e-06
1.2192e-06
-5.80299e-08
1.42314e-06
8.24632e-07
3.39395e-07
1.42539e-06
4.11473e-07
6.05897e-07
1.36585e-06
6.78007e-07
1.14274e-06
8.11789e-07
-2.43679e-06
1.48329e-06
1.53173e-06
-2.91418e-06
2.01161e-06
1.85797e-06
-2.2353e-06
2.14381e-06
1.94386e-06
-1.45779e-06
2.03203e-06
1.93653e-06
-1.0126e-06
1.82181e-06
1.93213e-06
-7.66193e-07
1.72885e-06
1.74259e-06
-1.69716e-07
1.89752e-06
1.15157e-06
7.34518e-07
2.00523e-06
5.31246e-07
1.15419e-06
1.91611e-06
1.188e-06
1.51973e-06
8.58461e-07
-3.59541e-06
1.9971e-06
1.56302e-06
-3.95442e-06
2.6165e-06
1.90866e-06
-2.82716e-06
2.60841e-06
2.01621e-06
-1.74328e-06
2.45446e-06
2.09142e-06
-1.29233e-06
2.15917e-06
2.28853e-06
-1.20289e-06
1.83931e-06
2.083e-06
-1.67825e-07
1.86247e-06
1.49581e-06
1.20322e-06
1.98571e-06
8.59926e-07
1.90402e-06
1.90336e-06
1.98785e-06
1.5669e-06
6.69073e-07
-3.17572e-06
2.46547e-06
1.26257e-06
-2.76028e-06
2.96319e-06
1.70612e-06
-2.10132e-06
2.88846e-06
1.75236e-06
-1.36433e-06
2.62784e-06
1.42974e-06
-7.51535e-07
1.85022e-06
5.90515e-07
-3.07656e-07
6.66248e-07
-1.17568e-07
2.02534e-07
2.63137e-07
-3.09884e-07
3.86377e-07
3.76694e-07
-2.76175e-07
4.15392e-07
2.74794e-07
3.16921e-07
1.15974e-07
3.43775e-07
-1.77039e-10
3.28619e-07
4.16829e-07
-2.17007e-10
3.2174e-07
7.66164e-07
-2.98635e-10
4.99154e-07
1.16656e-06
-5.16946e-10
6.69411e-07
1.40424e-06
-8.10052e-10
9.03416e-07
1.22278e-06
-1.1046e-10
8.42313e-07
7.52554e-07
-2.24598e-09
2.19508e-07
2.55906e-07
-2.50358e-08
8.83701e-08
6.75419e-08
-3.06487e-08
8.47244e-08
-2.29564e-08
3.77884e-08
1.81618e-11
-9.19989e-11
-1.32263e-10
3.17658e-11
-7.45057e-11
-1.97992e-10
4.67884e-11
-1.31892e-10
-2.1442e-10
7.01763e-11
-6.66909e-11
-4.82382e-10
8.49684e-11
-2.98087e-11
-8.09045e-10
1.43825e-11
-1.59597e-11
2.0223e-12
9.96316e-09
-2.47116e-09
-1.23596e-10
4.31958e-09
-3.00091e-09
2.9648e-09
-6.95657e-10
-1.73605e-09
2.52737e-08
-9.92312e-10
1.02362e-08
1.01352e-11
-1.14206e-10
-6.75601e-11
2.98409e-12
-5.89549e-11
-2.24224e-11
7.54082e-12
-3.01573e-10
-3.23722e-11
1.18898e-11
-5.52628e-11
-3.02359e-11
2.26894e-11
-3.39338e-11
-2.74286e-11
1.48908e-11
7.45823e-11
-5.04452e-10
-4.44241e-10
-2.19179e-10
-1.6497e-09
-9.66957e-10
-8.84789e-10
-1.81745e-09
-1.72641e-09
-5.20022e-10
6.94182e-10
-6.63552e-10
-1.35137e-11
-2.48541e-12
-1.93795e-11
-1.82878e-10
-9.26732e-11
-1.95393e-11
-2.12839e-11
-2.55886e-11
-1.70021e-10
-5.02447e-11
-3.927e-11
-1.62397e-11
-9.30488e-11
-8.6772e-12
-2.33334e-11
-5.23506e-10
-2.23194e-11
7.47157e-12
-1.15398e-10
-1.69915e-10
8.36192e-12
-3.73265e-10
-4.14815e-10
-1.94873e-10
-4.50839e-10
-5.17147e-10
-2.49274e-10
-1.44727e-10
-2.43741e-10
-4.0068e-10
-6.76501e-12
-6.80251e-11
-4.52162e-11
-7.61286e-12
-1.40023e-10
-5.21797e-11
-2.02674e-12
-2.35883e-11
-3.67379e-11
-2.318e-11
-9.34297e-12
-6.37592e-11
-5.50002e-12
-1.46439e-11
-1.97666e-10
-1.7417e-11
9.81864e-12
-2.42748e-11
-6.19229e-11
2.29815e-11
-8.479e-11
-1.01631e-10
-1.85805e-11
-1.17045e-10
-1.15995e-10
-4.32882e-11
-7.85865e-11
1.69619e-10
-2.93586e-10
-5.48617e-11
-1.81996e-10
-1.8605e-10
-1.09177e-11
-2.60678e-10
-3.71949e-10
-1.87782e-12
-1.00601e-11
-3.48547e-11
-2.08893e-11
-5.32142e-12
-1.40076e-11
-1.08519e-11
6.39097e-13
-6.58703e-11
-1.02625e-11
1.92954e-11
-2.01993e-11
-4.52199e-11
2.8307e-11
-3.12018e-11
-4.35763e-11
1.87113e-11
-6.37429e-11
2.04107e-12
2.46333e-11
-4.00255e-11
6.49018e-11
-6.05046e-11
-7.60049e-11
-3.27487e-11
-2.1864e-10
-2.23396e-11
-1.93252e-10
-2.9059e-10
-5.26515e-12
-4.22289e-12
-4.3145e-11
-1.74467e-11
-1.1782e-12
-7.90798e-12
-1.62431e-11
2.25524e-12
-3.20186e-11
-8.96938e-12
2.23671e-11
-2.30808e-11
-2.01865e-11
4.38783e-11
-1.75735e-11
-5.24876e-12
1.46047e-11
-4.01913e-11
1.78881e-11
6.07617e-11
-3.48969e-11
1.95927e-11
-1.97592e-11
-2.11578e-11
1.04841e-11
1.84568e-10
-1.20655e-11
-1.4109e-11
-3.28398e-11
-3.58716e-12
-1.21119e-12
-1.73553e-11
-5.37691e-12
8.47908e-13
-5.63226e-12
-1.9746e-11
8.90676e-12
-2.23616e-11
-1.42323e-11
7.22677e-11
-6.85821e-11
-1.68318e-12
8.98881e-11
-4.20096e-11
4.39006e-12
4.30604e-11
-2.74742e-11
3.52648e-11
1.15659e-10
-1.53249e-11
4.06011e-11
-2.15458e-11
5.83313e-12
1.11081e-12
4.16706e-11
1.05715e-13
-2.36684e-12
-1.15921e-13
-6.12708e-13
2.57366e-13
-2.18821e-12
-1.82353e-12
2.33645e-12
-1.51438e-12
-2.99307e-11
2.374e-11
-3.15471e-11
-4.71327e-11
6.84768e-11
-6.59863e-11
-1.51627e-11
9.1924e-11
-7.481e-11
4.30894e-12
5.28563e-11
-4.67265e-11
2.52167e-11
5.43689e-11
-6.14241e-12
7.75314e-11
-1.81475e-13
2.76796e-12
-1.36323e-12
1.49103e-11
1.37679e-12
-1.63312e-14
1.29524e-12
7.42091e-13
2.36201e-12
-6.23139e-13
-8.30797e-13
4.60134e-12
4.45918e-13
-8.60975e-12
1.0919e-11
-2.82915e-12
-1.96941e-11
2.42559e-11
-1.08788e-11
-7.24548e-12
4.24601e-11
-1.13095e-11
2.27088e-12
4.03074e-11
-1.15348e-12
7.94593e-12
4.78119e-11
8.51824e-12
6.15336e-10
1.76941e-10
1.45346e-12
-1.00411e-12
1.87136e-11
3.15135e-13
1.34471e-12
2.6019e-12
-1.06471e-13
5.64697e-12
1.5913e-12
-1.14095e-12
3.85908e-12
2.57725e-12
-2.26384e-12
5.99128e-12
7.24354e-12
-2.33869e-12
7.46679e-12
1.74472e-11
-2.6894e-12
2.05906e-11
3.15829e-11
3.40982e-12
6.10407e-11
4.40068e-11
-1.28302e-10
3.74226e-10
1.1735e-10
8.80366e-10
6.16617e-10
-1.08776e-12
4.34372e-11
1.31152e-11
-4.48148e-12
6.59908e-12
3.86106e-12
-1.44714e-12
2.21027e-11
1.36478e-11
-2.12662e-12
2.97845e-12
4.00647e-12
-7.65539e-12
7.41361e-12
7.09622e-12
-8.08561e-12
5.60971e-11
4.35103e-11
1.4352e-12
1.44654e-10
1.13184e-10
-4.60236e-11
1.89965e-10
1.5751e-10
-2.54103e-10
3.49007e-10
3.45701e-10
6.26687e-10
7.96715e-10
1.70184e-07
-1.88556e-07
7.08141e-07
3.82267e-07
-2.41343e-07
8.13167e-07
5.67479e-07
-2.14069e-07
7.81235e-07
6.84905e-07
-1.49804e-07
7.55221e-07
7.33139e-07
-8.62034e-08
7.44031e-07
7.15373e-07
-2.39047e-08
7.42467e-07
6.36455e-07
3.60294e-08
7.48587e-07
5.06496e-07
8.90693e-08
7.55545e-07
3.2563e-07
1.35646e-07
7.81827e-07
1.7628e-07
7.66609e-07
1.51988e-07
-3.6418e-07
6.90937e-07
3.63934e-07
-4.70697e-07
8.28472e-07
5.57019e-07
-4.2575e-07
7.94917e-07
6.79315e-07