/*--------------------------------*- C++ -*----------------------------------*\
| =========                 |                                                 |
| \\      /  F ield         | OpenFOAM: The Open Source CFD Toolbox           |
|  \\    /   O peration     | Version:  2312                                  |
|   \\  /    A nd           | Website:  www.openfoam.com                      |
|    \\/     M anipulation  |                                                 |
\*---------------------------------------------------------------------------*/
FoamFile
{
    version     2.0;
    format      ascii;
    arch        "LSB;label=32;scalar=64";
    class       volVectorField;
    location    "0.285";
    object      U;
}
// * * * * * * * * * * * * * * * * * * * * * * * * * * * * * * * * * * * * * //

dimensions      [0 1 -1 0 0 0 0];

internalField   nonuniform List<vector> 
8000
(
(-0.00205858 -0.00208187 0.00314643)
(-0.00691393 -0.00234895 0.00328876)
(-0.0110966 -0.00279779 0.003536)
(-0.0142422 -0.00333488 0.00370958)
(-0.0159846 -0.00389442 0.00371085)
(-0.0161563 -0.00443087 0.00354784)
(-0.0147449 -0.00491984 0.00327486)
(-0.0118244 -0.00536706 0.00299253)
(-0.00745985 -0.0059158 0.00283747)
(-0.00246915 -0.00542532 0.00249581)
(-0.0016776 -0.00502097 0.00313765)
(-0.00597027 -0.00571301 0.00326725)
(-0.00971315 -0.00690478 0.00346995)
(-0.0126229 -0.00837842 0.00363607)
(-0.0143413 -0.00995812 0.00362645)
(-0.0146707 -0.0114639 0.00346159)
(-0.0135321 -0.0128411 0.00317193)
(-0.010952 -0.0141493 0.00285966)
(-0.00701283 -0.0156662 0.00266848)
(-0.00234882 -0.014709 0.00237693)
(-0.00210145 -0.00948383 0.00472068)
(-0.0071157 -0.0106149 0.00491422)
(-0.0114199 -0.0125266 0.00501892)
(-0.014737 -0.014834 0.00506119)
(-0.0166457 -0.0172691 0.00490493)
(-0.0169732 -0.0195925 0.00455347)
(-0.0156726 -0.0217175 0.00407346)
(-0.0127335 -0.0237323 0.00359978)
(-0.00832392 -0.0261225 0.00328691)
(-0.00289887 -0.024812 0.00291911)
(-0.00241709 -0.0178831 0.0074137)
(-0.00790755 -0.0193298 0.00757466)
(-0.0125561 -0.021758 0.00735689)
(-0.0161406 -0.024679 0.00704105)
(-0.0181942 -0.0277209 0.00658587)
(-0.0185889 -0.0306252 0.00593675)
(-0.0172761 -0.0332441 0.00518978)
(-0.0141925 -0.0357435 0.00445584)
(-0.00958902 -0.0388133 0.00395992)
(-0.00350299 -0.0375789 0.00351577)
(-0.00283604 -0.0319247 0.0170743)
(-0.00867675 -0.0333016 0.0166295)
(-0.0138068 -0.0355601 0.0148044)
(-0.0179329 -0.0385148 0.0124905)
(-0.0202324 -0.0414749 0.0103418)
(-0.0205565 -0.0442075 0.00848856)
(-0.0190817 -0.0466482 0.00693773)
(-0.0158853 -0.0491992 0.00560142)
(-0.011071 -0.0527933 0.00475039)
(-0.00418431 -0.0524742 0.00418997)
(-0.00275451 -0.0693221 0.0328459)
(-0.00650573 -0.0688735 0.0317817)
(-0.0107282 -0.0668265 0.0296569)
(-0.0161075 -0.0659029 0.0259043)
(-0.0208158 -0.0661252 0.0210127)
(-0.0231423 -0.0663452 0.0158058)
(-0.0225021 -0.0660119 0.0114936)
(-0.019602 -0.0660578 0.00836836)
(-0.014434 -0.0688523 0.00651962)
(-0.00563995 -0.0695206 0.0056572)
(0.00111619 -0.138372 0.0142792)
(0.00758833 -0.134445 0.0146757)
(0.0107563 -0.124975 0.0199466)
(0.00790139 -0.114128 0.0267693)
(-0.000279567 -0.105036 0.0305578)
(-0.0108525 -0.0988444 0.0278799)
(-0.0189077 -0.0942546 0.0211393)
(-0.0221288 -0.0904618 0.0150039)
(-0.0206354 -0.0925444 0.0110777)
(-0.00952712 -0.0954161 0.00957245)
(0.0127971 -0.197699 -0.0514399)
(0.0220385 -0.190752 -0.0485582)
(0.0260128 -0.179504 -0.0374782)
(0.028818 -0.164895 -0.0202161)
(0.032627 -0.14534 -0.000264679)
(0.029878 -0.124905 0.01635)
(0.0154359 -0.110003 0.0225985)
(-0.00322771 -0.103787 0.019198)
(-0.0183222 -0.115082 0.0152235)
(-0.0132219 -0.136793 0.0131085)
(0.0410627 -0.194363 -0.063953)
(0.00614682 -0.183236 -0.0616059)
(-0.0512959 -0.17805 -0.064091)
(-0.0407859 -0.194125 -0.0808877)
(-0.0203194 -0.190521 -0.0758049)
(0.0124392 -0.165104 -0.054817)
(0.0398971 -0.128353 -0.0235793)
(0.0409736 -0.0963958 -0.00397059)
(0.0142217 -0.107197 0.00530196)
(-0.0016535 -0.161236 0.00144297)
(0.0438098 -0.114946 -0.0556487)
(0.0548611 -0.110891 -0.0374781)
(0.0410532 -0.108489 -0.0144605)
(0.00666831 -0.168917 -0.0347896)
(-0.0433876 -0.185833 -0.0676194)
(-0.121944 -0.222868 -0.117026)
(-0.120078 -0.193221 -0.106084)
(0.0201226 -0.145204 -0.0643389)
(0.0530159 -0.0847262 -0.0330961)
(0.0400418 -0.105067 -0.0385686)
(0.0186401 -0.0160177 -0.0904016)
(0.0422873 -0.00579475 -0.0719779)
(0.0247004 0.0213532 -0.0287773)
(0.0182338 0.0327398 -0.0482896)
(0.0471095 0.01611 -0.104388)
(0.0824006 -0.0560773 -0.148081)
(0.126906 -0.138185 -0.134327)
(0.0335986 -0.331196 -0.0639176)
(-0.0503336 -0.160693 -0.112793)
(0.0914599 0.000969071 -0.0867838)
(-0.00625038 0.0257408 -0.102635)
(0.0122612 0.0466713 -0.0880218)
(-0.0158971 0.0703444 -0.0506385)
(-0.0500776 0.0945759 -0.0595155)
(-0.0217797 0.118302 -0.128205)
(0.070669 0.118544 -0.202703)
(0.134798 0.107472 -0.2344)
(0.175875 -0.00106521 -0.123419)
(-0.123916 -0.0508388 -0.136058)
(0.0974868 -0.00902798 -0.0940551)
(0.000933468 0.0742852 -0.108756)
(0.0255668 0.0996634 -0.0958823)
(0.0170298 0.119735 -0.0651362)
(-0.0203193 0.129586 -0.0522982)
(-0.0287262 0.152137 -0.0693808)
(0.0296206 0.193061 -0.0918295)
(0.0930685 0.236692 -0.122744)
(0.220019 0.236406 -0.102714)
(0.0397047 0.168331 -0.0651461)
(0.0706117 -0.167788 -0.127147)
(0.00866154 0.0826482 -0.0854063)
(0.0388044 0.106359 -0.0801147)
(0.0482019 0.129223 -0.0592183)
(0.0242027 0.12685 -0.028698)
(0.0199859 0.104858 0.0105534)
(0.055933 0.0985163 0.0318124)
(0.0849133 0.171958 0.031636)
(0.20027 0.300276 -0.0164053)
(0.123942 0.350685 -0.0455923)
(0.0745096 0.239209 -0.148312)
(0.00448183 0.0742914 -0.0576107)
(0.0135394 0.0869553 -0.043373)
(0.0104988 0.10445 -0.0127092)
(0.00378531 0.0549648 0.0352837)
(0.0204238 -0.048885 0.0576194)
(0.044332 -0.0782933 0.0545441)
(0.0208672 -0.0147484 0.0651972)
(0.0822869 0.258487 0.0335825)
(0.0776477 0.481809 -0.0501998)
(0.0444982 0.509998 -0.100669)
(-0.00307034 0.0625068 -0.00952524)
(-0.0177463 0.0646696 0.00638864)
(-0.0223998 0.0327486 0.0364576)
(-0.00685896 -0.0557676 0.0440021)
(-0.0157347 -0.0969508 0.0232119)
(-0.0398854 -0.119478 0.0191369)
(-0.108657 -0.0677999 0.039401)
(-0.112375 0.242165 0.0519413)
(-0.041456 0.593365 -0.00728016)
(-0.0136654 0.602704 -0.00774417)
(-0.00376848 0.0134192 0.0293791)
(-0.00991235 -0.0040541 0.0340951)
(-0.00461055 -0.0507408 0.0336112)
(-0.0180237 -0.0760684 0.0178751)
(-0.0455355 -0.0844535 0.00775098)
(-0.0839078 -0.10285 -0.000893738)
(-0.160331 -0.0864667 0.00478793)
(-0.207192 0.123048 0.0484158)
(-0.136305 0.454958 0.0613597)
(-0.0491568 0.410141 0.0552724)
(4.8548e-05 -0.0528337 0.0264803)
(-0.00188618 -0.0602577 0.0228867)
(-0.010805 -0.0681705 0.0148582)
(-0.0297906 -0.0719515 0.00894592)
(-0.0505701 -0.0723146 0.00549472)
(-0.0794354 -0.0687005 -0.00052472)
(-0.124283 -0.0488667 -0.00886439)
(-0.159148 0.0305705 0.00599389)
(-0.126147 0.177981 0.0497754)
(-0.0355207 0.152702 0.0500395)
(0.00195749 -0.0701206 0.011897)
(-0.00607695 -0.0700469 0.0102318)
(-0.0165008 -0.0715983 0.00818928)
(-0.029509 -0.0711346 0.00653572)
(-0.0447758 -0.0657102 0.00496367)
(-0.0621428 -0.0543043 0.00304301)
(-0.0799083 -0.0294107 0.000238234)
(-0.0863921 0.0187301 -0.00084534)
(-0.0615303 0.068096 0.0108021)
(-0.0130608 0.0593837 0.0211089)
(0.00254373 -0.0771193 0.00770087)
(-0.00606635 -0.0765212 0.00709201)
(-0.0151584 -0.075169 0.00625205)
(-0.0253991 -0.0715567 0.00539204)
(-0.0360269 -0.0643114 0.00473877)
(-0.0459093 -0.052215 0.00422525)
(-0.0524646 -0.0327109 0.00384064)
(-0.0495083 -0.0043748 0.004356)
(-0.031395 0.0207426 0.00710185)
(-0.00801214 0.0145743 0.0106331)
(-0.00317321 -0.00429275 0.0145938)
(-0.0100566 -0.00447857 0.014654)
(-0.0154215 -0.00478414 0.014386)
(-0.0189684 -0.00505454 0.0136996)
(-0.0204535 -0.00531742 0.0126822)
(-0.0199655 -0.00556921 0.0114764)
(-0.0177171 -0.00583491 0.0102484)
(-0.013902 -0.00615083 0.0092196)
(-0.0086297 -0.00666555 0.00870754)
(-0.00281097 -0.00591583 0.00753796)
(-0.00246873 -0.0115701 0.0140873)
(-0.00840164 -0.0115868 0.0142052)
(-0.0130829 -0.0120784 0.0140782)
(-0.0163145 -0.0126535 0.0134345)
(-0.0178746 -0.013304 0.0124088)
(-0.0177294 -0.0140177 0.0111701)
(-0.0159677 -0.0148032 0.00987477)
(-0.0126819 -0.0157584 0.00872641)
(-0.00799961 -0.0171948 0.00808664)
(-0.00264057 -0.0156714 0.00709831)
(-0.00277209 -0.0211988 0.0192532)
(-0.00959748 -0.0207845 0.0188996)
(-0.0151041 -0.0211838 0.0185559)
(-0.0188132 -0.021825 0.0175402)
(-0.0206013 -0.0225894 0.0159892)
(-0.0204498 -0.0235283 0.0141506)
(-0.0184704 -0.0246337 0.0122662)
(-0.0147432 -0.02607 0.0106072)
(-0.00950312 -0.0283099 0.00957257)
(-0.00326712 -0.0261337 0.00839447)
(-0.00291866 -0.0342934 0.0290453)
(-0.00997573 -0.033202 0.0276959)
(-0.0159486 -0.0332579 0.0261659)
(-0.0200384 -0.0337646 0.0239672)
(-0.0221709 -0.0343775 0.0212522)
(-0.0222555 -0.0352824 0.0182872)
(-0.0203483 -0.0364803 0.015338)
(-0.0164755 -0.0382115 0.012743)
(-0.0109639 -0.0410885 0.0110169)
(-0.00394572 -0.0388345 0.00964082)
(-0.00388386 -0.0510897 0.0481696)
(-0.0115824 -0.049551 0.045509)
(-0.0181211 -0.0490752 0.0414503)
(-0.0224805 -0.0491766 0.0364488)
(-0.0246808 -0.0490126 0.0310399)
(-0.0248109 -0.0490178 0.0256623)
(-0.0229295 -0.0496084 0.0205264)
(-0.0189068 -0.0510999 0.0160489)
(-0.0129199 -0.0543595 0.0129627)
(-0.00473709 -0.0528256 0.0111034)
(-0.00588085 -0.0704199 0.0688981)
(-0.015045 -0.0697067 0.0657168)
(-0.0227247 -0.06974 0.0608232)
(-0.0285021 -0.0700776 0.0544187)
(-0.030704 -0.0700883 0.0462928)
(-0.0305747 -0.069186 0.0375867)
(-0.0282036 -0.0679882 0.0292099)
(-0.0237374 -0.067483 0.0219318)
(-0.0168795 -0.0697638 0.0169183)
(-0.00652708 -0.068889 0.0144527)
(-0.00446811 -0.0985817 0.0804311)
(-0.010691 -0.0974693 0.0775708)
(-0.0161684 -0.0981836 0.0750525)
(-0.0263993 -0.0970748 0.0714673)
(-0.0314351 -0.0945398 0.0635213)
(-0.0327108 -0.0926405 0.0519162)
(-0.0304833 -0.0907553 0.0393179)
(-0.0283185 -0.0896981 0.0284815)
(-0.0225817 -0.0919331 0.0226475)
(-0.0112037 -0.0925362 0.0206178)
(0.0111776 -0.149939 0.0902588)
(0.00886445 -0.147534 0.0890584)
(0.00509537 -0.142017 0.0883995)
(0.00640932 -0.13455 0.0862359)
(-0.00154012 -0.125539 0.08163)
(-0.00823508 -0.111035 0.0686155)
(-0.00968684 -0.0988991 0.0507568)
(-0.0200338 -0.0942085 0.0320561)
(-0.0229764 -0.10414 0.023194)
(-0.0153086 -0.11496 0.0182765)
(0.0560846 -0.216703 0.0310611)
(0.052138 -0.213458 0.0465766)
(-0.0174083 -0.197583 0.0526456)
(-0.00794517 -0.14738 0.067408)
(0.0877025 -0.165744 0.0645335)
(0.0447115 -0.153008 0.0856603)
(0.00745996 -0.11294 0.0738574)
(0.00480726 -0.0794674 0.0560803)
(-0.0212937 -0.0839134 0.0218642)
(-0.0040454 -0.107305 -0.013343)
(0.0310981 -0.0656205 -0.209103)
(0.0770541 -0.0377345 -0.19351)
(0.133911 0.0107824 -0.215115)
(0.202692 0.0293134 -0.212905)
(0.224997 -0.139876 -0.133465)
(0.176502 -0.171892 0.00512032)
(-0.0988828 -0.149852 0.0871637)
(-0.0433693 -0.154286 0.121842)
(-0.0542476 -0.0806881 0.0537876)
(0.0353758 -0.0822508 -0.0516557)
(0.00430075 -0.0869865 -0.11481)
(0.0420223 -0.0426455 -0.11656)
(0.111117 0.0492595 -0.127296)
(0.214882 0.14464 -0.208694)
(0.26194 0.183781 -0.280208)
(0.208516 0.193823 -0.292536)
(0.135559 0.104668 -0.166486)
(-0.063731 -0.21179 -0.00505662)
(-0.0852078 -0.200089 0.0521726)
(0.104122 -0.14595 0.033952)
(-0.0404878 -0.0806525 -0.0510393)
(-0.0531694 -0.042459 -0.0443465)
(-0.0498849 0.0168815 -0.0311882)
(0.0132147 0.100136 -0.0672119)
(0.119533 0.195709 -0.171042)
(0.191584 0.254219 -0.274463)
(0.230068 0.262091 -0.32087)
(0.224916 0.163657 -0.233837)
(-0.000564696 -0.202864 -0.110693)
(0.128742 -0.0484526 0.10609)
(-0.0274683 -0.0799377 -0.0292507)
(-0.0740202 -0.0360374 0.00506514)
(-0.12031 -0.03117 0.0522932)
(-0.119468 -0.0343407 0.0716237)
(-0.0713862 0.0265062 0.0422132)
(0.0276601 0.130011 -0.044582)
(0.130299 0.228754 -0.195693)
(0.237049 0.274096 -0.220085)
(0.0674136 0.208212 -0.159375)
(0.060958 0.241301 -0.175759)
(-0.0148394 -0.0504773 0.0168224)
(-0.0548714 -0.0268861 0.0556567)
(-0.065952 -0.0556051 0.0916462)
(-0.0545508 -0.0950371 0.113582)
(-0.0258117 -0.0970148 0.132684)
(0.0282915 -0.0307049 0.14945)
(0.0721018 0.143529 0.0882861)
(0.182523 0.337406 -0.0747661)
(0.0441856 0.403731 -0.14071)
(0.0286029 0.384561 -0.268859)
(-0.0132582 -0.0473398 0.0530416)
(-0.0575182 -0.0541241 0.0683048)
(-0.0540658 -0.0883599 0.090371)
(-0.0419773 -0.134946 0.099503)
(-0.0328717 -0.161601 0.0946047)
(-0.0209353 -0.117516 0.114776)
(-0.00285065 0.0545457 0.141925)
(0.125553 0.381989 0.0219555)
(0.0179649 0.519516 -0.12187)
(0.0202249 0.433779 -0.177068)
(-0.00208004 -0.0376405 0.0731376)
(-0.0296486 -0.0557926 0.0837402)
(-0.0289627 -0.103155 0.088956)
(-0.0355755 -0.136792 0.0662965)
(-0.0708548 -0.134619 0.0439893)
(-0.121943 -0.110729 0.0618713)
(-0.141033 0.0548946 0.100144)
(-0.0237564 0.412361 0.070348)
(-0.0202847 0.617656 -0.0416867)
(-0.0126279 0.504197 0.0177955)
(0.00247696 -0.0632635 0.0850915)
(-0.00242658 -0.0810469 0.0804744)
(-0.00907019 -0.105911 0.0614418)
(-0.0433072 -0.0966406 0.0368993)
(-0.0873644 -0.0919092 0.0253371)
(-0.158565 -0.08658 0.0298183)
(-0.236438 0.0237622 0.076824)
(-0.204465 0.326032 0.124527)
(-0.119236 0.560645 0.117271)
(-0.0592662 0.364176 0.156256)
(0.00426658 -0.0830536 0.0548416)
(-0.00171489 -0.0838879 0.0462705)
(-0.0212266 -0.0782996 0.0321865)
(-0.0475377 -0.0727832 0.0247835)
(-0.075943 -0.0641644 0.0209151)
(-0.120998 -0.0455102 0.0181918)
(-0.184489 0.00990697 0.0377264)
(-0.215384 0.14755 0.107441)
(-0.142303 0.283409 0.165996)
(-0.0304408 0.127019 0.141022)
(0.00336203 -0.0708725 0.027619)
(-0.00971158 -0.0698517 0.0249467)
(-0.0241814 -0.0694295 0.0219529)
(-0.040173 -0.0646102 0.0199782)
(-0.0588276 -0.0542622 0.0189281)
(-0.0808246 -0.0339009 0.0190506)
(-0.102908 0.00804362 0.0231521)
(-0.109056 0.0680111 0.0438436)
(-0.0656583 0.11036 0.0810165)
(-0.00112687 0.0547017 0.068266)
(0.00372764 -0.0718115 0.0212097)
(-0.00805437 -0.0704459 0.020261)
(-0.0196224 -0.067488 0.0188558)
(-0.0317744 -0.0620122 0.0176293)
(-0.0439901 -0.0525012 0.0170348)
(-0.055175 -0.0368258 0.0176205)
(-0.0616253 -0.0112763 0.0199911)
(-0.0545801 0.0236784 0.0252992)
(-0.0287728 0.0432006 0.0341001)
(-0.00451916 0.0141887 0.0354404)
(-0.00305096 -0.00329551 0.0300821)
(-0.0102214 -0.00329419 0.0286737)
(-0.0160784 -0.00347307 0.0268509)
(-0.0199204 -0.00378545 0.024449)
(-0.0215206 -0.00414119 0.0217723)
(-0.0210552 -0.00452971 0.0191247)
(-0.0187571 -0.00497065 0.0167358)
(-0.0147681 -0.00549403 0.0149017)
(-0.00914387 -0.00615352 0.0140353)
(-0.00296698 -0.00537237 0.0119584)
(-0.00220173 -0.00883938 0.0305526)
(-0.00818027 -0.00820083 0.0285765)
(-0.0133922 -0.00809459 0.0261945)
(-0.017137 -0.00868311 0.0237449)
(-0.018955 -0.00965941 0.0210112)
(-0.0189374 -0.010876 0.0183283)
(-0.0171909 -0.012245 0.0158767)
(-0.0137391 -0.0138223 0.0138907)
(-0.00864288 -0.0157659 0.0128339)
(-0.0028342 -0.0141626 0.0111017)
(-0.0029078 -0.0156979 0.0378611)
(-0.00981005 -0.0142079 0.036159)
(-0.0157125 -0.0138009 0.0329695)
(-0.0201966 -0.0145183 0.0298139)
(-0.0223995 -0.0159474 0.0262901)
(-0.0224141 -0.0178832 0.0226902)
(-0.0204051 -0.0201604 0.0193244)
(-0.0164024 -0.0228289 0.0165327)
(-0.0105362 -0.0260859 0.0148707)
(-0.00357836 -0.0237556 0.0128532)
(-0.00344779 -0.0228407 0.0494693)
(-0.0111052 -0.0209532 0.0477625)
(-0.017463 -0.0205609 0.0434312)
(-0.0225999 -0.0216282 0.0387703)
(-0.0253617 -0.023632 0.0337777)
(-0.025686 -0.0263982 0.0285837)
(-0.0236826 -0.0297058 0.0236538)
(-0.0192821 -0.0335545 0.0193899)
(-0.0126897 -0.0382205 0.0165788)
(-0.00443965 -0.0357871 0.0142816)
(-0.0043356 -0.0295819 0.0691729)
(-0.0133926 -0.0286846 0.0675033)
(-0.0207308 -0.0286326 0.0615352)
(-0.02642 -0.0299247 0.0543576)
(-0.0297757 -0.0322329 0.0466916)
(-0.0305832 -0.0356765 0.0386775)
(-0.0287304 -0.0400156 0.0309322)
(-0.0238952 -0.0450353 0.0239954)
(-0.0160183 -0.0511056 0.0189924)
(-0.00559478 -0.0492586 0.0159397)
(-0.0060945 -0.0331838 0.087996)
(-0.0189291 -0.0347015 0.0864656)
(-0.0286995 -0.0363928 0.0820876)
(-0.0349354 -0.0388222 0.0741327)
(-0.0380237 -0.0421593 0.0639429)
(-0.038955 -0.0467007 0.0528569)
(-0.0369409 -0.0526534 0.0416739)
(-0.031378 -0.0594905 0.0315004)
(-0.0219534 -0.0674615 0.0237924)
(-0.00843983 -0.0661034 0.0195786)
(-0.00674415 -0.0364064 0.096954)
(-0.0232799 -0.040973 0.0950554)
(-0.0356164 -0.0468259 0.0974142)
(-0.0451418 -0.0499092 0.0944527)
(-0.0474064 -0.0529659 0.0811414)
(-0.0470593 -0.0584845 0.0663582)
(-0.0425465 -0.0676537 0.0504312)
(-0.0360165 -0.0781121 0.0365989)
(-0.028441 -0.0895291 0.0284537)
(-0.0153342 -0.0905127 0.0219926)
(0.00116879 -0.0616868 0.115803)
(-0.012031 -0.0677191 0.111865)
(-0.0228581 -0.0722829 0.0985102)
(-0.0277743 -0.0771745 0.0955503)
(-0.0352578 -0.0781461 0.102914)
(-0.0379472 -0.0763949 0.0892681)
(-0.0341519 -0.0805835 0.0634857)
(-0.0338146 -0.085677 0.0362991)
(-0.0313305 -0.0935884 0.0217895)
(-0.0192904 -0.104612 0.00316575)
(0.0462068 -0.0367022 -0.0224294)
(0.0678634 -0.0482615 0.032957)
(0.0302881 -0.0416248 -0.0542877)
(-0.0313597 -0.0294082 -0.207555)
(0.014248 -0.0767301 -0.022022)
(-0.0035876 -0.0885041 0.0925236)
(-0.0496195 -0.0798605 0.1006)
(-0.0645828 -0.0744333 0.0603441)
(-0.0559058 -0.0758074 -0.00334255)
(0.00700479 -0.0982213 -0.0421165)
(-0.0113178 -0.0227378 -0.317572)
(0.0680073 0.0654632 -0.328646)
(0.12232 0.114915 -0.37437)
(0.14696 0.136688 -0.409933)
(0.0988571 -0.0557215 -0.402651)
(0.064395 -0.0254138 -0.174478)
(-0.141875 -0.0328912 0.0170427)
(-0.135838 -0.0950391 0.0524646)
(-0.139497 -0.164298 -0.0154589)
(0.0712394 -0.132978 -0.0292779)
(-0.00813488 -0.181586 -0.142118)
(0.0586792 -0.140109 -0.138371)
(0.156086 -0.066582 -0.158311)
(0.276486 0.0644071 -0.2479)
(0.307537 0.153466 -0.362842)
(0.24613 0.231491 -0.375339)
(0.0861859 0.227806 -0.253669)
(0.0669118 0.0411871 -0.17398)
(-0.0433709 -0.281212 -0.182365)
(0.0520727 -0.311723 -0.0644298)
(-0.0514765 -0.161717 -0.0510727)
(-0.0599393 -0.174799 -0.025509)
(-0.0391921 -0.17731 0.0185569)
(0.0288792 -0.104946 0.0150247)
(0.178681 0.0676773 -0.106687)
(0.251438 0.225502 -0.245649)
(0.259961 0.295016 -0.32498)
(0.276743 0.252505 -0.346493)
(0.238098 0.18344 -0.379884)
(0.139238 0.064424 -0.326107)
(-0.0327826 -0.168321 -0.0464773)
(-0.0760368 -0.1771 -0.00642173)
(-0.106476 -0.209035 0.058674)
(-0.114643 -0.222661 0.106719)
(-0.0720588 -0.142177 0.104001)
(0.0595144 0.0368672 -0.00385848)
(0.168924 0.166176 -0.176427)
(0.222532 0.238092 -0.276088)
(0.212813 0.270821 -0.322464)
(0.128032 0.295157 -0.327798)
(-0.012081 -0.121892 -0.00343053)
(-0.0485034 -0.132377 0.0274575)
(-0.0543688 -0.178213 0.0660813)
(-0.0586706 -0.211939 0.102038)
(-0.0599483 -0.194282 0.14495)
(-0.0187421 -0.0976292 0.170275)
(0.0579075 0.0960752 0.0565626)
(0.0921649 0.249806 -0.135446)
(0.0306136 0.3077 -0.218865)
(0.0225274 0.364057 -0.261715)
(-0.00917167 -0.0997738 0.0588248)
(-0.0392607 -0.126197 0.0676033)
(-0.0382801 -0.169024 0.0724724)
(-0.0512325 -0.181848 0.0724922)
(-0.0760202 -0.165233 0.0819486)
(-0.0860988 -0.0890292 0.108906)
(-0.0386331 0.101182 0.0937742)
(0.00492195 0.303212 -0.0583146)
(-0.0967294 0.287371 -0.149626)
(-0.056503 0.202676 -0.130899)
(0.00173426 -0.0906348 0.0912459)
(-0.0108133 -0.11252 0.0889423)
(-0.0183495 -0.137516 0.0733781)
(-0.0486132 -0.133043 0.0540735)
(-0.0941288 -0.125674 0.0519087)
(-0.14475 -0.0871511 0.0752958)
(-0.142486 0.0809717 0.0982657)
(-0.0721975 0.311016 0.058062)
(-0.11558 0.307862 0.0291687)
(-0.0620237 0.139194 0.0845846)
(0.00465953 -0.0888429 0.0872045)
(0.00161833 -0.0973011 0.0752411)
(-0.0162201 -0.0994372 0.0523852)
(-0.0500287 -0.0890673 0.0406339)
(-0.0900256 -0.0840301 0.0426104)
(-0.151927 -0.0678539 0.0636601)
(-0.204508 0.0209671 0.126694)
(-0.173398 0.209395 0.190316)
(-0.121488 0.259601 0.217226)
(-0.0399086 0.0453615 0.196484)
(0.00362237 -0.0745848 0.0516312)
(-0.00622226 -0.0738834 0.0434219)
(-0.0253331 -0.0719605 0.0349042)
(-0.0471795 -0.0691614 0.0342332)
(-0.0723478 -0.060679 0.0374646)
(-0.108415 -0.0385085 0.0487676)
(-0.148321 0.0107096 0.088685)
(-0.153207 0.0849765 0.169425)
(-0.0858252 0.121378 0.223474)
(0.00456589 0.00312106 0.151468)
(0.00246232 -0.0661347 0.0356958)
(-0.0107876 -0.065912 0.033208)
(-0.0244185 -0.0655415 0.0315607)
(-0.0393861 -0.0613374 0.031343)
(-0.0558385 -0.0522222 0.0332263)
(-0.0727913 -0.0336387 0.0395168)
(-0.0848643 0.00264631 0.054439)
(-0.0774972 0.0477282 0.0847695)
(-0.0326259 0.0597001 0.113675)
(0.0045412 0.00678906 0.0847419)
(0.00289842 -0.0684909 0.0350653)
(-0.00914893 -0.0668341 0.0327727)
(-0.0205279 -0.0642584 0.030394)
(-0.0317953 -0.05962 0.0290868)
(-0.0424361 -0.0513015 0.0291943)
(-0.0511387 -0.0374018 0.0321156)
(-0.0542077 -0.016087 0.0386024)
(-0.0448711 0.0104462 0.0488015)
(-0.021077 0.0214414 0.0579856)
(-0.00257721 -0.0102341 0.0512066)
(-0.00409588 0.000137588 0.0405379)
(-0.0122545 -0.000361092 0.0392307)
(-0.0183069 -0.00119811 0.0359016)
(-0.0225039 -0.0019279 0.0320158)
(-0.0242365 -0.00271857 0.0281861)
(-0.0236835 -0.00344634 0.0245124)
(-0.0211092 -0.00417144 0.0213193)
(-0.016605 -0.0049746 0.0189608)
(-0.0101775 -0.00584027 0.0179134)
(-0.00325144 -0.00492875 0.0149427)
(-0.00362791 -0.000307235 0.0389918)
(-0.0110512 -0.00101762 0.0373828)
(-0.0160476 -0.00231231 0.0344961)
(-0.019821 -0.00361728 0.0305735)
(-0.0218032 -0.00553407 0.0267449)
(-0.0216824 -0.0076647 0.023104)
(-0.0196777 -0.0098713 0.0199125)
(-0.0157275 -0.0122537 0.0174205)
(-0.00979525 -0.014823 0.0161888)
(-0.00314877 -0.012873 0.0137484)
(-0.00376725 0.000284849 0.0470312)
(-0.01275 -0.00241577 0.0446)
(-0.0192538 -0.00377899 0.0419692)
(-0.0236862 -0.00560046 0.0376709)
(-0.0261727 -0.00853144 0.0329134)
(-0.0261888 -0.0121175 0.028344)
(-0.0238728 -0.0159548 0.0240806)
(-0.0191998 -0.0201761 0.0206042)
(-0.0122069 -0.0246707 0.0186566)
(-0.00405989 -0.021774 0.0158447)
(-0.00377781 0.00676922 0.0587992)
(-0.0139529 -0.00172388 0.0567044)
(-0.0222567 -0.00444847 0.0533378)
(-0.027657 -0.00743611 0.0478485)
(-0.0307846 -0.0118953 0.0413067)
(-0.0312132 -0.017375 0.035024)
(-0.0288373 -0.0232786 0.0290187)
(-0.0235531 -0.029709 0.0238506)
(-0.015302 -0.0365167 0.0205022)
(-0.00518326 -0.0333276 0.0174024)
(-0.0024474 0.0133684 0.077118)
(-0.0145615 -0.000557719 0.0766591)
(-0.0259674 -0.00546764 0.0721613)
(-0.0331719 -0.00965948 0.0645186)
(-0.0375826 -0.0153463 0.0551491)
(-0.0389509 -0.0227132 0.0459451)
(-0.0368286 -0.030962 0.0369812)
(-0.030881 -0.0399807 0.0288867)
(-0.0205601 -0.0496471 0.0230469)
(-0.00695711 -0.0467548 0.0191315)
(-0.00180857 0.021539 0.0994622)
(-0.0171293 0.00534529 0.0989853)
(-0.0326002 -0.00306376 0.0934984)
(-0.0415905 -0.00966174 0.0846936)
(-0.0470731 -0.0172926 0.0728978)
(-0.0495929 -0.0269438 0.0604139)
(-0.0479367 -0.0386134 0.0481464)
(-0.0416524 -0.0525296 0.0371898)
(-0.0293866 -0.0680057 0.0282571)
(-0.0116554 -0.06611 0.0223776)
(-0.00205003 0.0288051 0.114901)
(-0.023253 0.0124442 0.116273)
(-0.0434181 -0.00134384 0.114016)
(-0.0532158 -0.00867989 0.104668)
(-0.0565873 -0.0141586 0.0882711)
(-0.0572672 -0.0265962 0.0712852)
(-0.0548573 -0.0447677 0.0560188)
(-0.04972 -0.0669016 0.0436804)
(-0.0392705 -0.0904087 0.0306624)
(-0.021536 -0.0947586 0.019216)
(-0.00447836 -0.00241843 0.138435)
(-0.021918 -0.0136271 0.135439)
(-0.0341431 -0.0282311 0.121034)
(-0.0459242 -0.0372385 0.115216)
(-0.0581745 -0.0401704 0.113689)
(-0.065124 -0.0448411 0.0975842)
(-0.0643467 -0.0586169 0.0679879)
(-0.0611226 -0.0783435 0.0370946)
(-0.0500009 -0.0978079 0.0104939)
(-0.0224894 -0.11174 -0.0131722)
(-0.0307217 0.0212086 -0.178782)
(0.0142793 0.000356811 -0.168723)
(0.0440608 -0.0184353 -0.170262)
(-0.0486592 0.00152518 -0.153741)
(-0.0781411 0.00256056 0.0441452)
(-0.0940156 -0.032989 0.118189)
(-0.114731 -0.0531958 0.10532)
(-0.10683 -0.0775843 0.0391489)
(-0.0761045 -0.110523 -0.00945733)
(0.0275287 -0.129368 -0.048003)
(-0.0634589 -0.11121 -0.240036)
(0.0243476 -0.0619614 -0.259322)
(0.0884228 -0.0140111 -0.300476)
(0.121013 0.101589 -0.370152)
(0.104042 0.0240896 -0.431356)
(0.0563716 -0.0198465 -0.29509)
(-0.0513445 0.00145258 -0.0526958)
(-0.074688 -0.0337539 0.0346605)
(-0.110722 -0.152212 0.0626988)
(0.107746 -0.183864 0.0957408)
(-0.0181372 -0.255118 -0.1263)
(0.0601078 -0.228847 -0.0992063)
(0.150802 -0.222573 -0.0643025)
(0.262404 -0.0951427 -0.12479)
(0.327465 0.0361939 -0.263628)
(0.315525 0.142647 -0.359652)
(0.268516 0.203537 -0.347148)
(0.252862 0.20973 -0.253998)
(0.187316 0.127218 -0.261571)
(0.1139 -0.119713 -0.247956)
(-0.0403513 -0.205368 -0.01889)
(-0.031789 -0.209699 -0.00897398)
(-0.0213702 -0.259654 0.0373295)
(0.0222425 -0.236549 0.0614213)
(0.141016 -0.112004 -0.00370369)
(0.263087 0.0670775 -0.15193)
(0.303963 0.18113 -0.294216)
(0.339496 0.238198 -0.369874)
(0.33207 0.225135 -0.395181)
(0.267002 0.134265 -0.291187)
(-0.0300581 -0.198763 0.000437511)
(-0.0380763 -0.217 0.00278277)
(-0.0608682 -0.259795 0.0434904)
(-0.0895764 -0.284578 0.0914159)
(-0.076278 -0.235992 0.106011)
(0.0188777 -0.108568 0.0219918)
(0.110069 0.0193979 -0.127306)
(0.169655 0.1292 -0.238266)
(0.197407 0.206878 -0.252696)
(0.190338 0.286464 -0.211363)
(-0.00495014 -0.170592 0.0252468)
(-0.0109437 -0.175223 0.0278856)
(-0.0148515 -0.198276 0.0371227)
(-0.0427047 -0.216007 0.0679428)
(-0.0767557 -0.206298 0.116546)
(-0.0730314 -0.136637 0.133036)
(-0.0506456 -0.0251942 0.0424166)
(-0.0876846 0.0543382 -0.0666424)
(-0.0902279 0.168795 -0.107625)
(0.0227836 0.304664 -0.141628)
(-0.00415635 -0.135192 0.0607139)
(-0.0121405 -0.149967 0.0561203)
(-0.0186725 -0.165429 0.046381)
(-0.0451645 -0.163464 0.0485911)
(-0.0808668 -0.150802 0.065849)
(-0.103328 -0.104514 0.0923641)
(-0.0959484 -0.00755196 0.0866646)
(-0.140979 0.0255786 0.0230196)
(-0.182951 -0.00838521 -0.0502961)
(-0.076397 0.032917 -0.0857793)
(0.00267874 -0.106736 0.0759259)
(6.49009e-05 -0.116965 0.0652384)
(-0.0137979 -0.122439 0.0487486)
(-0.0442437 -0.119626 0.0465499)
(-0.0795976 -0.118549 0.0570875)
(-0.113464 -0.100385 0.0861493)
(-0.118408 -0.0306945 0.128436)
(-0.102607 0.0463191 0.139987)
(-0.119075 0.000638123 0.110959)
(-0.050106 -0.0781012 0.0497293)
(0.0030004 -0.0824554 0.0661418)
(-0.00257529 -0.0871236 0.0554728)
(-0.0199598 -0.08849 0.0430964)
(-0.0439542 -0.088525 0.0438346)
(-0.0713819 -0.0853911 0.0527723)
(-0.106086 -0.0723035 0.0783075)
(-0.13053 -0.0407004 0.138572)
(-0.113234 0.0047896 0.207732)
(-0.0699897 -0.0107821 0.218453)
(-0.00492342 -0.0917653 0.129702)
(0.000740444 -0.065461 0.0506423)
(-0.0111847 -0.0700599 0.0453185)
(-0.0256359 -0.0734894 0.0409455)
(-0.0420305 -0.0732999 0.0424326)
(-0.060053 -0.0677514 0.0480261)
(-0.0794734 -0.0522626 0.0627714)
(-0.0923161 -0.0224172 0.0971736)
(-0.0787917 0.00628763 0.151039)
(-0.0289458 -0.00190891 0.175651)
(0.00906671 -0.0522323 0.109597)
(-0.000408116 -0.064178 0.04872)
(-0.0132401 -0.0680065 0.0457633)
(-0.024937 -0.0686954 0.0418705)
(-0.0372509 -0.0657705 0.0409194)
(-0.0493582 -0.059203 0.043013)
(-0.0593918 -0.0462867 0.0506821)
(-0.062144 -0.0244431 0.0653932)
(-0.0493765 0.000922191 0.0872416)
(-0.0193311 0.0035296 0.101473)
(0.000151595 -0.0335201 0.075263)
(-0.00017922 -0.0654966 0.0488217)
(-0.0120862 -0.0684613 0.0463837)
(-0.0223625 -0.0677061 0.041627)
(-0.0318773 -0.0638484 0.0390068)
(-0.0398773 -0.0573469 0.0383408)
(-0.0449524 -0.0469686 0.0413675)
(-0.0447412 -0.0322396 0.047908)
(-0.0352765 -0.0163012 0.0570339)
(-0.0174736 -0.0120979 0.0633214)
(-0.00303785 -0.0347188 0.0526835)
(-0.00501346 0.0038174 0.0469159)
(-0.015133 0.00261671 0.0439024)
(-0.0221886 0.00138567 0.0410356)
(-0.0266092 -9.01593e-05 0.0366605)
(-0.0282242 -0.00135596 0.0319788)
(-0.0274173 -0.00244789 0.0277307)
(-0.0243121 -0.00345227 0.0239907)
(-0.0190099 -0.00453866 0.0213368)
(-0.0114214 -0.00557972 0.0202281)
(-0.00353053 -0.0044495 0.016421)
(-0.00278235 0.00948064 0.0461358)
(-0.0129905 0.00593218 0.0430624)
(-0.0196947 0.00308136 0.0386892)
(-0.0238312 0.00058731 0.0344752)
(-0.025692 -0.0019474 0.0297954)
(-0.0253533 -0.00471826 0.0257117)
(-0.0228793 -0.00767404 0.022027)
(-0.0181966 -0.0108963 0.01926)
(-0.0111074 -0.0140512 0.0180295)
(-0.00344515 -0.0115202 0.014961)
(-0.00104713 0.0180155 0.0489323)
(-0.0132193 0.00968392 0.0512855)
(-0.0225856 0.00531712 0.0464642)
(-0.028121 0.0016876 0.0416405)
(-0.0309271 -0.00219137 0.0362978)
(-0.0308106 -0.00690678 0.0311545)
(-0.0281448 -0.0121312 0.0265063)
(-0.0225878 -0.0179155 0.0226903)
(-0.0141102 -0.0235877 0.0207045)
(-0.00454554 -0.0196924 0.0172073)
(0.00179406 0.0371529 0.056409)
(-0.0137381 0.0203847 0.0636404)
(-0.0263393 0.0114021 0.0590195)
(-0.0333874 0.00494461 0.0522863)
(-0.037328 -0.00137716 0.0451303)
(-0.0375854 -0.00910629 0.0379489)
(-0.0348539 -0.0173822 0.0315292)
(-0.0285153 -0.0264142 0.0259264)
(-0.018283 -0.0353541 0.022467)
(-0.00594122 -0.0307773 0.0187577)
(0.00359668 0.053448 0.0726795)
(-0.0138219 0.0310412 0.0836721)
(-0.030916 0.0168513 0.0792066)
(-0.0412177 0.00770388 0.0695865)
(-0.0470758 -0.000284477 0.0591489)
(-0.0483322 -0.010912 0.0486437)
(-0.0458465 -0.0226767 0.0392463)
(-0.0387052 -0.0356622 0.0307829)
(-0.0257852 -0.049138 0.0249375)
(-0.00853511 -0.0443999 0.0205782)
(0.00245708 0.0789705 0.0925576)
(-0.015297 0.0534149 0.104923)
(-0.0374047 0.0325543 0.100946)
(-0.0513547 0.0166114 0.0893411)
(-0.0595229 0.00299871 0.0758835)
(-0.0625171 -0.0112306 0.0618623)
(-0.0603981 -0.0268976 0.0494485)
(-0.0529993 -0.0465949 0.0390253)
(-0.0378263 -0.0693721 0.0304882)
(-0.0159583 -0.0666763 0.0230305)
(0.00206388 0.0984005 0.124364)
(-0.0209315 0.0730211 0.135349)
(-0.0513046 0.048132 0.132273)
(-0.0683868 0.0314248 0.115749)
(-0.0731149 0.0167307 0.0931955)
(-0.0725533 -0.0010287 0.0708555)
(-0.0704641 -0.0260681 0.0567271)
(-0.0662168 -0.0570677 0.0471753)
(-0.051819 -0.0920663 0.032803)
(-0.0286342 -0.0999579 0.0118067)
(-0.0126231 0.07746 0.155257)
(-0.0356069 0.0553275 0.161296)
(-0.052128 0.0259701 0.154519)
(-0.0630002 0.00333468 0.137414)