/*--------------------------------*- C++ -*----------------------------------*\
| =========                 |                                                 |
| \\      /  F ield         | OpenFOAM: The Open Source CFD Toolbox           |
|  \\    /   O peration     | Version:  2312                                  |
|   \\  /    A nd           | Website:  www.openfoam.com                      |
|    \\/     M anipulation  |                                                 |
\*---------------------------------------------------------------------------*/
FoamFile
{
    version     2.0;
    format      ascii;
    arch        "LSB;label=32;scalar=64";
    class       volVectorField;
    location    "0.88";
    object      U;
}
// * * * * * * * * * * * * * * * * * * * * * * * * * * * * * * * * * * * * * //

dimensions      [0 1 -1 0 0 0 0];

internalField   nonuniform List<vector> 
8000
(
(0.00535694 0.000269415 -0.00110036)
(0.00372145 0.000739837 -0.000979013)
(0.00113183 0.00101843 -0.000729085)
(-0.00190163 0.00106755 -0.000596999)
(-0.00470576 0.00091252 -0.000793456)
(-0.00701758 0.000612834 -0.00146451)
(-0.00816386 7.5127e-05 -0.00259345)
(-0.00659714 -0.00101348 -0.00369051)
(-0.000888655 -0.00213357 -0.00360331)
(0.00185037 -0.000246149 -0.0014157)
(0.00658732 0.00104421 -0.000879566)
(0.00541836 0.00274952 -0.00100365)
(0.00322169 0.00340612 -0.00101916)
(0.000939014 0.00357781 -0.00113947)
(-0.00143047 0.00366857 -0.00155537)
(-0.0039978 0.00412042 -0.00271428)
(-0.00639204 0.00428291 -0.00520521)
(-0.00647081 0.00175525 -0.00798259)
(-0.000669946 -0.00215827 -0.00700049)
(0.00323654 0.00268382 -0.00165683)
(0.00853027 -0.000327571 0.00145015)
(0.00709846 0.00345876 0.000591269)
(0.00388469 0.00531526 8.84982e-06)
(0.00116324 0.00619677 -0.000532925)
(-0.00116522 0.00736982 -0.00154406)
(-0.00388456 0.0106493 -0.00412328)
(-0.00907253 0.0140181 -0.00870143)
(-0.0140589 0.00735495 -0.00993587)
(-0.00910404 -0.00796952 -0.000827205)
(0.000177828 0.00360982 0.00365387)
(0.0119806 -0.00790332 0.00796098)
(0.0130622 0.00368332 0.00496823)
(0.00827184 0.00697879 0.00303775)
(0.00454954 0.00775859 0.00212499)
(0.00320004 0.00996121 0.000450621)
(0.00170435 0.0183345 -0.00304642)
(-0.00913253 0.0249851 -0.00520272)
(-0.0213199 0.00158782 0.00356954)
(-0.0253324 -0.0390138 0.0210157)
(-0.0138211 -0.011577 0.0115023)
(0.0093857 -0.0329766 0.00851524)
(0.0153412 -0.00861636 0.00904865)
(0.0116508 0.00353701 0.00927833)
(0.0103545 0.00624879 0.0101761)
(0.0174055 0.00972019 0.0094005)
(0.0229775 0.022792 0.00555968)
(0.0147794 0.026173 0.00681694)
(0.0114485 -0.0199242 0.0220654)
(-0.0270761 -0.0959106 0.0313868)
(-0.0337375 -0.0713225 0.00390568)
(0.0128178 -0.0489025 -0.00228659)
(0.0111633 -0.0240807 -0.00392689)
(0.00732005 -0.010466 -0.00318263)
(0.0126304 -0.018606 -0.00268633)
(0.0291422 -0.0235046 0.00318854)
(0.0501584 -0.00405355 0.0129937)
(0.0675608 -0.00409446 0.0200979)
(0.0889006 -0.0573973 0.0263426)
(0.0625804 -0.0955704 -0.0231721)
(-0.00342407 -0.140475 -0.042655)
(0.0209435 -0.0484219 -0.0197686)
(0.0222104 -0.0201773 -0.0202955)
(0.0242205 -0.00930404 -0.0258769)
(0.0376399 -0.0248656 -0.0385018)
(0.043935 -0.0525339 -0.028124)
(0.0515438 -0.06946 0.00437745)
(0.0765285 -0.0858154 0.010128)
(0.142607 -0.0891534 -0.0508948)
(0.235325 0.150429 -0.174536)
(0.226521 0.241215 -0.217332)
(-0.0131534 -0.0412241 -0.0502033)
(0.0143601 -0.00773848 -0.0471816)
(0.0472326 0.00501422 -0.048648)
(0.0805543 0.00287299 -0.0590913)
(0.0766462 -0.0250735 -0.0439265)
(0.0695745 -0.0699651 -0.0161631)
(0.071636 -0.0943729 -0.129834)
(0.117575 0.0258132 -0.367064)
(0.0923672 0.346314 -0.341165)
(0.0754933 0.700955 -0.16841)
(-0.128099 -0.0509669 -0.0158317)
(-0.0737096 -0.0430954 -0.0203456)
(-0.0163085 -0.0353254 -0.00744228)
(0.0461354 -0.018301 0.0140434)
(0.114455 0.00309434 0.0230464)
(0.0949209 0.0424272 -0.00692584)
(-0.133152 0.173928 -0.172874)
(-0.0826753 0.451033 -0.237207)
(-0.0400597 0.675786 -0.251972)
(-0.00268436 0.799498 -0.0320424)
(-0.265278 -0.113984 0.0483122)
(-0.250991 -0.174353 0.028008)
(-0.247083 -0.226553 0.00387935)
(-0.310322 -0.30932 -0.0326578)
(-0.334865 -0.0797685 -0.0596766)
(-0.213937 0.30939 -0.0677714)
(-0.284598 0.329602 -0.147213)
(-0.216775 0.558512 -0.145516)
(-0.13901 0.722082 -0.106086)
(-0.0250382 0.618192 0.0547921)
(-0.298828 -0.159579 -0.000408227)
(-0.274027 -0.172718 -0.0342774)
(-0.260215 -0.151753 -0.0471305)
(-0.28486 -0.111392 -0.0466068)
(-0.316372 0.00990192 -0.0354782)
(-0.303239 0.234336 -0.0549382)
(-0.278955 0.355815 -0.111551)
(-0.228539 0.499953 -0.105882)
(-0.153062 0.587373 -0.0389185)
(0.0381507 0.466107 0.0598759)
(-0.271268 -0.118615 -0.0556721)
(-0.225514 -0.134101 -0.0607725)
(-0.191827 -0.13184 -0.0512604)
(-0.176371 -0.116332 -0.0372414)
(-0.154139 -0.0514366 -0.0103835)
(-0.126071 0.0829615 0.000371001)
(-0.13654 0.26113 -0.04684)
(-0.121564 0.439305 -0.0959557)
(-0.0832659 0.482465 -0.0618529)
(0.0850298 0.404002 0.0567306)
(-0.268325 -0.0844841 -0.0639317)
(-0.206362 -0.104872 -0.0363663)
(-0.171773 -0.116482 -0.0107252)
(-0.123915 -0.145993 0.0209522)
(-0.0617474 -0.133141 0.0714412)
(0.0156922 -0.0222438 0.11465)
(0.0272992 0.168063 0.0589694)
(0.0166693 0.361933 -0.0369256)
(0.0112256 0.438215 -0.0797099)
(0.0929187 0.373443 0.0433702)
(-0.275077 -0.0366055 -0.0299831)
(-0.21296 -0.111265 -0.00597513)
(-0.154557 -0.211065 0.00581033)
(-0.0833939 -0.291049 0.0386967)
(-0.00368086 -0.305015 0.0629759)
(0.0772992 -0.25017 0.112232)
(0.116139 -0.0529665 0.14712)
(0.09702 0.224629 0.0754452)
(0.0732375 0.394547 -0.0364229)
(0.0869715 0.360675 0.0345532)
(-0.289459 -0.0654796 -0.0241377)
(-0.227222 -0.204467 -0.022632)
(-0.166792 -0.32207 -0.00304106)
(-0.106382 -0.37629 -0.009268)
(-0.0179142 -0.363348 -0.0231423)
(0.062955 -0.36384 0.015508)
(0.106177 -0.275646 0.0814355)
(0.101705 -0.0131006 0.12372)
(0.0742191 0.28806 0.0397258)
(0.0705301 0.345493 0.0384035)
(-0.31196 -0.109978 -0.0446525)
(-0.275394 -0.269484 -0.0310079)
(-0.24772 -0.352364 -0.0276644)
(-0.183109 -0.364027 -0.0700581)
(-0.0757301 -0.368093 -0.0788199)
(0.0194307 -0.413124 -0.0449922)
(0.064608 -0.411871 0.0133066)
(0.060821 -0.223318 0.0983166)
(0.0228894 0.106376 0.101083)
(0.0392993 0.279056 0.0540638)
(-0.357307 -0.136224 -0.0541062)
(-0.364022 -0.275921 -0.019949)
(-0.362898 -0.324231 -0.0451734)
(-0.281575 -0.329946 -0.0975273)
(-0.158299 -0.378187 -0.103313)
(-0.0483803 -0.450591 -0.0797692)
(0.015517 -0.489912 -0.0368917)
(0.0194096 -0.387375 0.037847)
(-0.0284644 -0.130132 0.109062)
(-0.0219098 0.14869 0.0761759)
(-0.39779 -0.117104 -0.0371389)
(-0.447843 -0.248519 0.00556504)
(-0.468912 -0.282885 -0.0395534)
(-0.380796 -0.292821 -0.0967075)
(-0.262149 -0.352807 -0.122987)
(-0.143083 -0.432311 -0.126033)
(-0.0471717 -0.483263 -0.10288)
(0.00307615 -0.466925 -0.0559664)
(0.00982004 -0.304887 0.0129865)
(-0.0479881 -0.0559316 0.0823549)
(-0.380184 -0.0792973 0.00796033)
(-0.488251 -0.216084 0.0370106)
(-0.541389 -0.25289 -0.0175066)
(-0.469548 -0.249986 -0.0784596)
(-0.366235 -0.29022 -0.123904)
(-0.239953 -0.358701 -0.154217)
(-0.113484 -0.415526 -0.159108)
(-0.0107156 -0.424798 -0.133373)
(0.0540392 -0.344658 -0.0726982)
(0.0248573 -0.162042 0.0404225)
(-0.321368 -0.056936 0.0569245)
(-0.505423 -0.192844 0.0570679)
(-0.580452 -0.236569 -0.00540678)
(-0.535527 -0.223849 -0.0569218)
(-0.45027 -0.23849 -0.0973803)
(-0.323716 -0.285517 -0.142861)
(-0.172766 -0.332783 -0.176031)
(-0.0241028 -0.351853 -0.169763)
(0.0767552 -0.30028 -0.0990029)
(0.0947661 -0.168663 0.0099562)
(0.00515172 -0.000162455 0.00206211)
(0.000985806 0.000157263 0.00203603)
(-0.00350504 0.000183389 0.00216601)
(-0.00763262 -5.2275e-05 0.00204668)
(-0.0111765 -0.000596147 0.001553)
(-0.0138373 -0.00168257 0.000541066)
(-0.0141354 -0.00382311 -0.000971879)
(-0.00972628 -0.00656941 -0.00204517)
(0.000605561 -0.00707475 -0.000732621)
(0.00404735 -0.00183169 0.00115548)
(0.00640471 -0.00169943 0.00267664)
(0.00290992 0.000314521 0.00209012)
(-0.00129886 0.000726858 0.00175748)
(-0.00546844 0.000465187 0.00125886)
(-0.00964557 -0.00025453 0.000237911)
(-0.0143415 -0.00217155 -0.00201935)
(-0.0181888 -0.00767081 -0.00484734)
(-0.0161048 -0.017476 -0.00354276)
(-0.00117217 -0.0209608 0.00284711)
(0.00803945 -0.00116394 0.00169521)
(0.00834373 -0.00448566 0.00724716)
(0.00267193 -0.000497619 0.0047363)
(-0.00343762 0.00111684 0.00331437)
(-0.00841314 0.00177945 0.00190396)
(-0.0139306 0.00235772 -0.00072955)
(-0.0223479 0.00170859 -0.0044766)
(-0.0340774 -0.00981367 -0.00201757)
(-0.0374154 -0.0417115 0.0144517)
(-0.018716 -0.0573909 0.030278)
(0.00480303 -0.00120177 0.0132697)
(0.0131358 -0.00474412 0.0181353)
(0.00740098 0.00437895 0.0115539)
(-0.00160874 0.00448205 0.00752742)
(-0.00845645 0.00445006 0.00421995)
(-0.013769 0.00729575 -4.94871e-05)
(-0.023258 0.00875519 -0.00026707)
(-0.0397806 -0.0158959 0.0153811)
(-0.0433195 -0.080836 0.0446908)
(-0.0429839 -0.110266 0.0574948)
(-0.00670216 -0.019963 0.0223502)
(0.0147 -0.0212737 0.0296646)
(0.0151509 -0.000907375 0.0228793)
(0.00366792 0.00507085 0.0182859)
(-0.0012332 0.00829784 0.0145054)
(0.000804482 0.0131155 0.010683)
(0.000430108 0.0149201 0.0135172)
(-0.0016298 -0.0160067 0.0322566)
(0.0058282 -0.0947855 0.0548289)
(-0.0507108 -0.133212 0.0211811)
(-0.0197266 -0.0580751 -0.00729926)
(0.0114021 -0.0297801 0.0197694)
(0.00531742 0.00366017 0.014931)
(0.00140111 0.0118099 0.0114099)
(0.0060014 0.00841816 0.0101174)
(0.0170406 0.00869424 0.0151993)
(0.0383657 0.00608504 0.0258547)
(0.0668556 -0.0244517 0.0415427)
(0.102755 -0.0661358 0.0151889)
(0.00497308 -0.0585515 -0.132616)
(-0.0229519 -0.105352 -0.102945)
(0.0205901 -0.0402512 0.00730432)
(0.0061854 -0.0298338 -0.000836901)
(0.00698261 -0.0308664 -0.00530773)
(0.017658 -0.0295916 -0.00191834)
(0.0264736 -0.0280098 0.00816148)
(0.0535899 -0.0488063 0.0216219)
(0.09712 -0.0777782 -0.00233617)
(0.166471 -0.021241 -0.120976)
(0.112857 0.104176 -0.301193)
(0.0196158 -0.0595723 -0.267409)
(0.00337679 -0.0136876 0.0107974)
(0.0113493 -0.00626631 0.0055722)
(0.0225584 -0.0195757 0.00714961)
(0.0358386 -0.035266 0.022226)
(0.035972 -0.043039 0.00301853)
(0.0573593 -0.0667566 -0.0759017)
(0.125797 -0.0996099 -0.242805)
(0.190754 -0.00554526 -0.377259)
(0.0967098 0.151757 -0.361146)
(0.0450916 0.0809955 -0.182443)
(-0.151459 -0.0797493 0.0358506)
(-0.119007 -0.0727183 0.0513371)
(-0.0919702 -0.0678032 0.0731252)
(-0.0889269 -0.0603703 0.110397)
(0.0137943 -0.0130375 -0.00810222)
(-0.0745085 -0.0458541 -0.254489)
(-0.0629072 -0.0882471 -0.193096)
(-0.0999322 0.0987152 -0.199156)
(-0.152446 0.393126 -0.137186)
(-0.082632 0.26072 0.00561221)
(-0.294907 0.0191093 0.0471301)
(-0.306462 -0.00157228 0.0517819)
(-0.332407 0.00628771 0.0690712)
(-0.34154 0.0339114 0.0377166)
(-0.271763 0.141927 -0.0147004)
(-0.198973 0.0406658 -0.0140253)
(-0.127436 -0.0259555 -0.0180259)
(-0.212249 0.175614 -0.0921817)
(-0.237968 0.267252 -0.0290133)
(-0.0367873 0.0342868 0.000736341)
(-0.28678 -0.00260562 0.0243727)
(-0.29596 -0.0246395 -0.0237779)
(-0.281552 -0.0586199 -0.00904121)
(-0.230974 -0.111743 0.0392786)
(-0.13898 -0.180352 0.0925462)
(-0.01592 -0.252711 0.126136)
(0.0614221 -0.217738 0.14047)
(0.0175357 0.111675 0.0216927)
(-0.121069 0.208398 -0.0460514)
(0.0751165 -0.0882627 -0.0145776)
(-0.252841 0.0541659 -0.0902229)
(-0.220326 -0.00815268 -0.136946)
(-0.152455 -0.0778595 -0.0892774)
(-0.0760163 -0.153297 0.00354343)
(0.0231774 -0.292921 0.0910396)
(0.104888 -0.34277 0.121632)
(0.162469 -0.269796 0.173688)
(0.185524 -0.00627504 0.17512)
(0.0717903 0.197165 0.0335032)
(0.111192 0.0486035 0.017385)
(-0.240736 0.0740831 -0.166924)
(-0.143672 -0.0405031 -0.139399)
(-0.0838074 -0.103973 0.00117442)
(-0.0382944 -0.217568 0.0701696)
(0.0639737 -0.337542 0.0580429)
(0.125566 -0.308746 0.0951405)
(0.203519 -0.224518 0.192932)
(0.230406 -0.0255741 0.208294)
(0.152116 0.171906 0.113367)
(0.115248 0.162086 0.0661931)
(-0.207626 0.105031 -0.167361)
(-0.0852414 -0.0153123 -0.0403108)
(-0.0606175 -0.123784 0.0808222)
(-0.00308198 -0.311221 0.0241402)
(0.0553625 -0.307198 -0.0393297)
(0.106937 -0.244802 0.0502765)
(0.18635 -0.216188 0.215441)
(0.223576 -0.00657775 0.264121)
(0.177829 0.219615 0.173854)
(0.114465 0.289247 0.110166)
(-0.149754 0.0994473 -0.0943916)
(-0.0725275 -0.0485202 0.0729425)
(-0.0724834 -0.250198 0.0189719)
(-0.0248691 -0.309568 -0.0816943)
(-0.00118734 -0.223004 -0.123064)
(0.069626 -0.17913 0.0147069)
(0.117617 -0.276677 0.17472)
(0.158784 -0.131881 0.289708)
(0.143817 0.214545 0.235102)
(0.103083 0.381723 0.150948)
(-0.117944 0.0684101 -0.00308897)
(-0.134878 -0.157205 0.0424073)
(-0.150189 -0.285261 -0.0640011)
(-0.133967 -0.230698 -0.166349)
(-0.0921 -0.200074 -0.142844)
(-7.09021e-05 -0.244165 -0.0116304)
(0.0169283 -0.336438 0.118585)
(0.0235501 -0.276629 0.264884)
(0.030967 0.116816 0.279169)
(0.0668701 0.394445 0.177459)
(-0.170183 -0.00573477 0.0388087)
(-0.260948 -0.228157 -0.0101242)
(-0.285755 -0.218198 -0.0985562)
(-0.264839 -0.177568 -0.205203)
(-0.202865 -0.239947 -0.181242)
(-0.133763 -0.330215 -0.0870433)
(-0.121633 -0.38591 0.0384377)
(-0.146126 -0.332865 0.19201)
(-0.135331 -0.00848719 0.27431)
(-0.0127379 0.328521 0.168858)
(-0.310627 -0.0784946 0.0303331)
(-0.410347 -0.212732 0.0172713)
(-0.42248 -0.153421 -0.0946297)
(-0.383889 -0.139283 -0.215783)
(-0.322361 -0.217971 -0.249435)
(-0.268336 -0.315989 -0.216918)
(-0.249321 -0.372229 -0.116349)
(-0.248779 -0.31049 0.0402637)
(-0.213594 -0.09741 0.155838)
(-0.107727 0.149705 0.129213)
(-0.450511 -0.118656 0.0811844)
(-0.537318 -0.195818 0.0797703)
(-0.529003 -0.131928 -0.0488914)
(-0.480852 -0.111482 -0.177528)
(-0.421674 -0.166039 -0.271117)
(-0.356009 -0.236082 -0.318197)
(-0.300954 -0.287459 -0.284384)
(-0.247742 -0.276292 -0.146191)
(-0.190862 -0.161935 0.0466453)
(-0.0853664 -0.0458837 0.0796227)
(-0.49721 -0.118443 0.169705)
(-0.621378 -0.197759 0.128321)
(-0.605921 -0.140432 0.00691656)
(-0.562737 -0.102844 -0.108912)
(-0.503393 -0.13228 -0.216211)
(-0.420463 -0.182551 -0.302879)
(-0.323902 -0.216645 -0.341429)
(-0.221627 -0.204473 -0.287386)
(-0.129096 -0.155996 -0.0985722)
(0.0364701 -0.11292 0.0796371)
(0.0046932 -0.000691101 0.00763488)
(0.000644961 -0.000260524 0.00705748)
(-0.00371118 -0.00018349 0.00669011)
(-0.00767128 -0.000397119 0.00625759)
(-0.0110211 -0.000920396 0.005891)
(-0.0134307 -0.0021738 0.00571764)
(-0.0131585 -0.00454494 0.0059069)
(-0.00794011 -0.00727769 0.00689949)
(0.00215177 -0.00698883 0.00890378)
(0.00428504 -0.000855284 0.00647443)
(0.00571305 -0.00402926 0.00845225)
(0.00227158 -0.00172549 0.00702205)
(-0.00162139 -0.000522057 0.00607275)
(-0.00571992 -0.000402501 0.00528208)
(-0.00998346 -0.0011976 0.00449444)
(-0.0145983 -0.00417289 0.00375141)
(-0.0173972 -0.011735 0.00481121)
(-0.0127808 -0.0217556 0.0106301)
(0.0038062 -0.0195706 0.0159642)
(0.00926609 0.00208008 0.00591278)
(0.00683228 -0.00736676 0.0125856)
(0.00104997 -0.00359378 0.0093344)
(-0.00434148 -0.00128228 0.00734631)
(-0.00923574 -2.68647e-05 0.00575214)
(-0.0155389 0.000218846 0.00389114)
(-0.0253675 -0.00362321 0.00363383)
(-0.035635 -0.0192377 0.0134218)
(-0.0328972 -0.0451954 0.0357091)
(-0.00899297 -0.0441085 0.0456793)
(0.0125809 0.0102106 0.0134422)
(0.00994706 -0.00342506 0.0223757)
(0.00253164 0.00093583 0.0163772)
(-0.00541002 0.00189802 0.0116382)
(-0.0118311 0.00296747 0.00728213)
(-0.0197163 0.00513566 0.00341876)
(-0.0327595 0.00123548 0.00742651)
(-0.0457545 -0.0286489 0.0309004)
(-0.0398113 -0.0812037 0.0612235)
(-0.027436 -0.0779946 0.0617121)
(0.00284173 0.0130298 0.0210204)
(0.0136178 -0.00517696 0.0348791)
(0.00760828 0.00354882 0.0253741)
(-0.00405049 0.00363035 0.0196993)
(-0.010327 0.00453805 0.0132059)
(-0.0126326 0.00869809 0.00861354)
(-0.0181673 0.00552517 0.016135)
(-0.0181041 -0.0333662 0.0383215)
(-0.00822611 -0.0932938 0.0459936)
(-0.0404939 -0.0806022 0.00544138)
(-0.00669035 -0.0034842 -0.0175171)
(0.0148368 0.00473128 0.0380291)
(0.00614399 0.0221535 0.0288445)
(-0.0034435 0.0243371 0.0245953)
(-0.00293279 0.0177528 0.0184296)
(0.00442202 0.0147804 0.0160958)
(0.0159329 0.00596964 0.0231881)
(0.0376631 -0.0320356 0.0284739)
(0.0432953 -0.0612182 -0.0198296)
(-0.0442976 -0.0708119 -0.107182)
(-0.0147318 -0.0463804 -0.0843099)
(0.0131556 -0.0129999 0.0234352)
(-0.00616954 -0.00429669 0.0150801)
(-0.0199541 -0.0162954 0.00772167)
(-0.00998557 -0.0279689 -0.00284208)
(0.0124199 -0.0260404 0.00789641)
(0.0391869 -0.0264805 0.0149471)
(0.0742138 -0.0452334 -0.0165945)
(0.0912282 -0.0351369 -0.121421)
(-0.0166854 -0.115942 -0.209041)
(-0.00844267 -0.13919 -0.14035)
(0.0182446 0.0278891 -0.0234742)
(0.0168636 0.0281389 -0.0320475)
(0.0118432 0.00783099 -0.0420445)
(0.0118913 -0.0338377 -0.0257584)
(0.0199356 -0.0508638 -0.0160826)
(0.0467976 -0.0611646 -0.0534291)
(0.0816749 -0.0916886 -0.135819)
(0.134934 -0.0786021 -0.247134)
(0.0156776 -0.119329 -0.334886)
(0.0373012 -0.235304 -0.267345)
(-0.043218 -0.0261009 0.0183194)
(-0.0225437 -0.00877371 0.00164907)
(0.00179197 -0.00924531 -0.00977445)
(-0.0143261 -0.0287219 -0.0494303)
(0.0143903 -0.0470785 -0.221301)
(0.000785822 -0.133198 -0.233744)
(-0.0335812 -0.256524 -0.162279)
(-0.0101827 -0.176081 -0.178663)
(-0.177434 0.00276513 -0.151399)
(-0.0127449 -0.142905 -0.112724)
(-0.143931 0.045162 -0.210289)
(-0.193826 0.0354689 -0.0592283)
(-0.210737 0.046134 0.0305761)
(-0.266127 0.051711 0.0222887)
(-0.196717 0.0665141 0.0470633)
(-0.0250239 -0.228416 0.0965508)
(0.0163843 -0.311846 0.0770313)
(0.053039 -0.128764 0.0730459)
(-0.151227 0.00241233 -0.000298575)
(-0.0221311 -0.22199 0.0536395)
(-0.230166 0.190572 0.0704854)
(-0.264358 0.17703 0.0324271)
(-0.243907 0.148882 -0.0163888)
(-0.18793 0.041176 0.00629094)
(-0.0315764 -0.166398 0.0875569)
(0.122382 -0.36143 0.0657875)
(0.116657 -0.362326 0.0318096)
(0.172514 -0.24787 0.110708)
(0.0735673 -0.0451639 0.0666806)
(0.0348132 -0.282387 0.0340145)
(-0.189473 0.224353 -0.00415922)
(-0.205475 0.200945 -0.117432)
(-0.149776 0.126447 -0.138891)
(-0.0360899 0.00936609 -0.104214)
(0.102362 -0.237546 0.0116552)
(0.172704 -0.331355 -0.0224998)
(0.133871 -0.272659 -0.0290346)
(0.212425 -0.186766 0.107598)
(0.112067 -0.0508907 0.106206)
(0.0662512 -0.220275 0.0260245)
(-0.186004 0.270639 -0.126311)
(-0.134175 0.13258 -0.183675)
(-0.0645606 0.0105127 -0.100755)
(0.0165569 -0.0681004 0.0347888)
(0.125732 -0.265035 -0.0401486)
(0.148696 -0.239067 -0.0980738)
(0.10784 -0.139938 -0.0209985)
(0.210587 -0.0924465 0.153502)
(0.0409846 0.0645547 0.0654541)
(0.0834574 -0.0913679 0.0244112)
(-0.167169 0.246189 -0.187613)
(-0.0592945 0.0689893 -0.128964)
(-0.0356367 0.0386886 0.069499)
(0.0645961 -0.175058 0.0511816)
(0.0788188 -0.231066 -0.146707)
(0.0733008 -0.0821511 -0.138373)
(0.0964537 -0.0434847 0.0782746)
(0.209961 -0.0440495 0.263701)
(0.142028 0.153043 0.161511)
(0.118124 0.0944964 0.0606485)
(-0.082326 0.17658 -0.179261)
(-0.0398349 0.0833619 0.00243491)
(0.00653386 -0.0506634 0.126277)
(0.0387163 -0.213233 -0.0950679)
(-0.0276232 -0.134264 -0.21491)
(0.0166826 0.0176291 -0.0477581)
(0.0747696 -0.0502573 0.164019)
(0.143211 -0.0816069 0.343032)
(0.160312 0.197052 0.288567)
(0.12341 0.277921 0.157026)
(-0.0161025 0.159677 -0.113169)
(-0.0228506 0.061704 0.138079)
(-0.0418519 -0.146858 0.0166669)
(-0.105754 -0.152009 -0.209305)
(-0.15115 -0.105223 -0.162557)
(-0.0909162 -0.118218 0.0179883)
(-0.0563355 -0.159143 0.162641)
(-0.0318859 -0.15519 0.324895)
(0.0335034 0.176983 0.329152)
(0.0703189 0.38161 0.215111)
(-0.0124086 0.193159 0.051831)
(-0.0811339 -0.0320548 0.140621)
(-0.170065 -0.120333 -0.0785602)
(-0.264332 -0.0877182 -0.243523)
(-0.284908 -0.145783 -0.1969)
(-0.269735 -0.219362 -0.0480993)
(-0.286026 -0.249234 0.100079)
(-0.275298 -0.132915 0.251195)
(-0.172273 0.166646 0.316986)
(-0.0244452 0.34748 0.218532)
(-0.105719 0.150668 0.179796)
(-0.233113 -0.0965886 0.102259)
(-0.3072 -0.042704 -0.0906219)
(-0.375141 -0.030846 -0.261759)
(-0.37762 -0.101085 -0.315585)
(-0.371168 -0.184716 -0.256439)
(-0.40411 -0.249336 -0.126351)
(-0.396718 -0.193789 0.0504144)
(-0.278246 -0.00159566 0.200383)
(-0.0970441 0.143693 0.157853)
(-0.278931 0.0436799 0.226197)
(-0.379582 -0.0945308 0.13467)
(-0.415843 -0.0164686 -0.0502375)
(-0.436282 -0.0146435 -0.217064)
(-0.431763 -0.0766466 -0.349514)
(-0.408355 -0.138998 -0.425545)
(-0.376304 -0.186079 -0.411889)
(-0.324662 -0.202199 -0.29029)
(-0.226156 -0.147018 -0.0706234)
(-0.083358 -0.0395341 0.065765)
(-0.398658 -0.0240874 0.282425)
(-0.480824 -0.104222 0.178079)
(-0.482077 -0.0390462 -0.00769711)
(-0.469981 -0.0221412 -0.155367)
(-0.457062 -0.0608431 -0.292073)
(-0.432919 -0.125574 -0.404819)
(-0.369108 -0.177454 -0.469396)
(-0.260854 -0.17151 -0.449161)
(-0.177015 -0.112931 -0.25641)
(-0.065783 -0.0722846 -0.0293206)
(0.0040165 0.000327417 0.0132547)
(8.5155e-05 0.000507263 0.0120629)
(-0.00379817 0.000480265 0.0108902)
(-0.0073858 0.000184772 0.00991452)
(-0.0102007 -0.000360022 0.00942019)
(-0.0119137 -0.001477 0.00963141)
(-0.0111613 -0.00329954 0.0108157)
(-0.00641043 -0.00515323 0.0127331)
(0.00145441 -0.00449149 0.0142204)
(0.00314773 5.22536e-05 0.00866482)
(0.00482953 -0.0015576 0.0144869)
(0.00101715 -0.000342249 0.0123664)
(-0.00214156 0.00062521 0.0104744)
(-0.00546932 0.000619273 0.00899176)
(-0.00882744 -0.000302278 0.00814661)
(-0.0118889 -0.00285307 0.00841339)
(-0.0124009 -0.00840734 0.0109618)
(-0.00653304 -0.0145747 0.0162839)
(0.00583802 -0.0107219 0.0186016)
(0.00653837 0.00393127 0.00670165)
(0.00575021 -0.00324261 0.0171328)
(7.37152e-05 -0.00163397 0.0140491)
(-0.004229 0.00022826 0.0115389)
(-0.00840387 0.00139571 0.00967441)
(-0.0132491 0.00103784 0.008572)
(-0.0195808 -0.0029236 0.0102361)
(-0.0236718 -0.013548 0.0199261)
(-0.0167304 -0.0254732 0.0371689)
(0.00336946 -0.0150878 0.0395098)
(0.0116098 0.0144478 0.00864184)
(0.00841504 0.000880423 0.0226794)
(0.00136745 0.00148161 0.0190203)
(-0.00527831 0.00236893 0.0151877)
(-0.011087 0.00346402 0.0115643)
(-0.0185438 0.00381737 0.00926765)
(-0.0285056 -0.000275185 0.0138754)
(-0.034854 -0.0172737 0.0341936)
(-0.026315 -0.0387003 0.0596443)
(-0.00939052 -0.0215896 0.0545902)
(0.00909446 0.0275157 0.00913249)
(0.0112196 0.00594393 0.0285116)
(0.00330607 0.00682034 0.0236789)
(-0.00731497 0.00568795 0.0190608)
(-0.0146462 0.00581822 0.0130748)
(-0.0197833 0.00672908 0.00965636)
(-0.0258684 0.00270784 0.0168681)
(-0.0262743 -0.0201067 0.038067)
(-0.0153626 -0.0458506 0.0465128)
(-0.0192976 -0.0183202 0.0196134)
(-0.00408483 0.031205 -0.0138319)
(0.0154287 0.019109 0.0396128)
(0.00616731 0.0249114 0.0319551)
(-0.00711022 0.0248377 0.0297129)
(-0.0141484 0.0197228 0.0243513)
(-0.0135951 0.0132592 0.0199107)
(-0.00874751 0.00498586 0.0225375)
(0.00222657 -0.0217888 0.0256484)
(0.00172131 -0.0396341 -0.000406187)
(-0.0300778 -0.0167219 -0.0485038)
(-0.0158788 0.00143853 -0.0590235)
(0.0149112 0.0235757 0.03765)
(-0.00668084 0.0266353 0.0318137)
(-0.0283498 0.0184868 0.0268375)
(-0.0313666 0.00413451 0.0208761)
(-0.0161154 -0.00947418 0.0210574)
(0.00686134 -0.0146014 0.0218785)
(0.0273004 -0.028344 0.000702443)
(0.0125978 -0.0484907 -0.0535904)
(-0.04646 -0.0640969 -0.0978326)
(-0.0105274 -0.0672702 -0.0755707)
(0.0176916 0.0428771 0.00592369)
(0.0111451 0.044423 -0.000671989)
(-0.000969891 0.0327556 -0.00827657)
(-0.00617685 -0.00294245 -0.00464866)
(0.000967773 -0.0335643 0.00680298)
(0.0156971 -0.0420769 -0.0189687)
(0.0322295 -0.0560268 -0.0696252)
(0.0592682 -0.0874285 -0.155787)
(-0.035813 -0.156398 -0.257487)
(0.0352036 -0.165345 -0.193255)
(0.014412 0.0136227 0.0450599)
(0.00349247 0.0224813 0.0301247)
(0.00850851 0.0106005 0.0160594)
(0.0218749 -0.0145912 -0.00726482)
(0.0159736 -0.0528625 -0.130732)
(0.00884294 -0.0757748 -0.244649)
(-0.00844478 -0.141458 -0.238217)
(0.0302433 -0.135732 -0.255181)
(-0.0662813 -0.206066 -0.310869)
(0.0605976 -0.210524 -0.364283)
(-0.00522496 0.0304834 -0.0421394)
(-0.0108919 0.0192246 -0.0785808)
(0.0244364 0.0123153 -0.114098)
(-0.031812 -0.00416024 -0.0844301)
(-0.208872 -0.102768 0.0313342)
(-0.0976613 0.06717 0.110977)
(-0.0650159 -0.0621774 0.112305)
(0.0393672 -0.0353292 0.15772)
(0.0277294 -0.0183061 0.110489)
(0.0486964 -0.0431548 -0.101269)
(-0.102677 -0.14476 0.0457273)
(-0.131963 -0.0158486 -0.0800341)
(-0.119926 0.113362 -0.0920657)
(-0.102191 0.176992 -0.0749502)
(-0.0673597 0.0298454 0.00452965)
(0.134776 -0.197686 0.084997)
(0.0984383 -0.213031 0.0240435)
(0.0962331 -0.207775 0.0882809)
(0.107268 -0.0616023 0.140226)
(0.0747525 0.106093 0.0573687)
(-0.107041 0.189438 -0.0254322)
(-0.121141 0.189008 -0.138587)
(-0.0903766 0.171147 -0.141402)
(-0.00254817 0.126605 -0.143641)
(0.131546 -0.0546311 -0.0395312)
(0.219653 -0.177289 -0.0302591)
(0.135918 -0.146982 -0.0872423)
(0.0604439 -0.119871 0.0514621)
(0.0213622 -0.0533884 0.071025)
(0.0348888 0.177439 0.000188309)
(-0.124498 0.326884 -0.110217)
(-0.0649639 0.174716 -0.164074)
(0.000660924 0.0649154 -0.124313)
(0.0691892 0.0297557 -0.0234134)
(0.160357 -0.171809 -0.0557245)
(0.168631 -0.169405 -0.133945)
(0.030083 -0.0412087 -0.130949)
(-0.0546974 0.0473733 0.149242)
(-0.164367 0.198843 -0.0279593)
(-0.0375775 0.197644 -0.0825325)
(-0.0903536 0.266704 -0.166392)
(0.0149447 0.0649071 -0.132764)
(-0.0369025 0.0760589 0.0266446)
(0.07787 -0.107851 0.0887856)
(0.0630346 -0.193087 -0.170327)
(0.0208457 -0.0540245 -0.226081)
(-0.109282 0.1543 -0.0136155)
(-0.0585375 0.093681 0.216908)
(-0.172774 0.0549331 0.0704436)
(-0.0278186 -0.083831 0.0307663)
(0.0197838 0.141567 -0.195746)
(-0.016331 0.101412 -0.0134421)
(-0.0263046 0.0480865 0.177675)
(0.00994055 -0.190181 -0.0826069)
(-0.104441 -0.106924 -0.243165)
(-0.0884 0.120748 -0.0377013)
(-0.0778397 0.192136 0.148907)
(0.049866 0.056766 0.333342)
(-0.0026151 0.119681 0.252584)
(0.00688757 -0.0482578 0.174595)
(0.0586755 0.144461 -0.155932)
(-0.0425548 0.150202 0.157692)
(-0.038913 -0.0407019 0.122609)
(-0.171296 -0.114049 -0.188144)
(-0.239881 -0.0530077 -0.125896)
(-0.181361 -0.0168846 0.0989994)
(-0.145445 -0.0152577 0.222729)
(-0.104 -0.0165768 0.326453)
(-0.0271561 0.143219 0.311541)
(-0.0158278 0.00737128 0.209547)
(0.0342352 0.224466 0.00678952)
(-0.0485716 0.135855 0.26878)
(-0.144842 -0.0252986 0.0296162)
(-0.304006 -0.0420909 -0.222865)
(-0.35512 -0.0714433 -0.189656)
(-0.340735 -0.113703 0.00405984)
(-0.362433 -0.157003 0.149653)
(-0.329245 -0.128685 0.263409)
(-0.196522 -0.0357293 0.304097)
(-0.0503822 -0.0480808 0.182691)
(-0.0333625 0.285917 0.249688)
(-0.120264 0.0700758 0.263405)
(-0.221831 0.0275786 0.00741705)
(-0.354214 0.0269352 -0.245175)
(-0.396654 -0.00791402 -0.35901)
(-0.372761 -0.0491819 -0.292061)
(-0.36371 -0.151067 -0.151236)
(-0.340974 -0.226767 -0.0303371)
(-0.227162 -0.195387 0.0621749)
(-0.0687051 -0.131206 0.0599071)
(-0.154861 0.236459 0.377248)
(-0.210641 0.0213014 0.25272)
(-0.267358 0.0558294 0.042179)
(-0.349445 0.0490594 -0.18134)
(-0.399568 -0.00895562 -0.369412)
(-0.416384 -0.0634017 -0.470712)
(-0.374673 -0.109876 -0.482655)
(-0.294212 -0.144319 -0.419042)
(-0.204767 -0.150416 -0.263249)
(-0.075875 -0.148551 -0.0921926)
(-0.252013 0.151578 0.411955)
(-0.265585 -0.00585231 0.268255)
(-0.272721 0.0373113 0.0709542)
(-0.286141 0.0642464 -0.114761)
(-0.323498 0.0359669 -0.291163)
(-0.376233 -0.0571508 -0.434439)
(-0.357265 -0.171687 -0.523331)
(-0.222748 -0.21632 -0.552836)
(-0.130655 -0.0926645 -0.390612)
(-0.0651813 -0.123935 -0.153212)
(0.00300664 0.00250926 0.0158958)
(-0.00106902 0.00201958 0.0144663)
(-0.00452682 0.00161941 0.0128387)
(-0.0076522 0.00110612 0.0115998)
(-0.00985668 0.0004789 0.0110627)
(-0.0108417 -0.000446284 0.0112943)
(-0.0096922 -0.00170414 0.0124495)
(-0.00580513 -0.00280479 0.0142465)
(-9.28688e-05 -0.00214377 0.015145)
(0.00179821 0.000598553 0.00834108)
(0.00359404 0.0037534 0.019075)
(-0.00124244 0.00295419 0.0161788)
(-0.00377351 0.00262763 0.0131435)
(-0.00618968 0.00193111 0.0108892)
(-0.00832922 0.000782322 0.00973613)
(-0.00979941 -0.00104578 0.0100042)
(-0.00902521 -0.00399992 0.012144)
(-0.00402448 -0.00695969 0.015503)
(0.00335575 -0.00437875 0.0160624)
(0.00359174 0.00339774 0.00542567)
(0.00459921 0.00574519 0.0197298)
(-0.001399 0.00366349 0.0174703)
(-0.00498356 0.00328712 0.0143605)
(-0.00842178 0.00345862 0.0118987)
(-0.0114683 0.0027432 0.0108147)
(-0.0138936 -5.44128e-05 0.0122269)
(-0.0134261 -0.00540471 0.0185027)
(-0.00569638 -0.00952751 0.0277402)
(0.00666662 -0.00144163 0.0260905)
(0.00616618 0.0113838 0.00449054)
(0.00718359 0.0109167 0.021087)
(0.000600835 0.00722511 0.0206833)
(-0.00503509 0.00523177 0.0174701)
(-0.0102517 0.00455211 0.0140576)
(-0.0153861 0.00322212 0.0125493)
(-0.0199719 0.000427079 0.0161178)
(-0.0197971 -0.00536019 0.0285111)
(-0.0101733 -0.00880734 0.0428293)
(0.00336913 0.0056398 0.033962)
(0.00715686 0.0202646 5.76536e-05)
(0.0101149 0.0194194 0.0234167)
(0.002356 0.0139905 0.0234523)
(-0.00739817 0.00979115 0.0200263)
(-0.0151384 0.00858064 0.014746)
(-0.0200147 0.00689207 0.0122618)
(-0.022797 0.00368583 0.0169346)
(-0.0210016 -0.00294216 0.0308497)
(-0.0117882 -0.00533265 0.0369938)
(-0.00623508 0.0145705 0.0136613)
(-0.00126793 0.028608 -0.0208669)
(0.0144156 0.0290673 0.0308114)
(0.00490467 0.0250618 0.0302416)
(-0.0106796 0.0206106 0.0294978)
(-0.0217544 0.0151657 0.0246566)
(-0.0252052 0.00765919 0.0213557)
(-0.022385 0.00288206 0.0226934)
(-0.0161444 -0.00444948 0.0245258)
(-0.0105989 -0.00460423 0.00817831)
(-0.0150957 0.0136998 -0.0265047)
(-0.0127669 0.0132456 -0.0449414)
(0.0168049 0.0457105 0.0382623)
(-0.00665623 0.0391539 0.0407219)
(-0.0317717 0.0316239 0.0365467)
(-0.0414703 0.0186486 0.0292558)
(-0.0359526 0.000445102 0.0264176)
(-0.0237101 -0.00998839 0.0239453)
(-0.0148471 -0.0130747 0.0107255)
(-0.0175356 -0.00959428 -0.0176375)
(-0.0287333 0.00215508 -0.0461425)
(-0.0104834 -0.0232588 -0.0557651)
(0.0152381 0.0513727 0.0155238)
(-0.00213851 0.0484842 0.0145418)
(-0.018372 0.0388931 0.00289499)
(-0.0243552 0.0100211 0.00102976)
(-0.0221738 -0.0206859 0.0172077)
(-0.0107846 -0.0265194 0.019765)
(-0.00129904 -0.0340963 -0.00858385)