/*--------------------------------*- C++ -*----------------------------------*\
| =========                 |                                                 |
| \\      /  F ield         | OpenFOAM: The Open Source CFD Toolbox           |
|  \\    /   O peration     | Version:  2312                                  |
|   \\  /    A nd           | Website:  www.openfoam.com                      |
|    \\/     M anipulation  |                                                 |
\*---------------------------------------------------------------------------*/
FoamFile
{
    version     2.0;
    format      ascii;
    arch        "LSB;label=32;scalar=64";
    class       volScalarField;
    location    "0.27";
    object      p;
}
// * * * * * * * * * * * * * * * * * * * * * * * * * * * * * * * * * * * * * //

dimensions      [1 -1 -2 0 0 0 0];

internalField   nonuniform List<scalar> 
8000
(
392.526
392.404
392.138
391.831
391.55
391.347
391.243
391.23
391.274
391.336
343.603
343.431
343.084
342.675
342.289
341.984
341.789
341.702
341.694
341.727
294.894
294.612
294.087
293.46
292.848
292.332
291.954
291.722
291.608
291.58
246.639
246.15
245.312
244.308
243.309
242.424
241.718
241.212
240.896
240.749
199.126
198.3
196.963
195.373
193.767
192.291
191.059
190.133
189.51
189.168
152.979
151.552
149.359
146.82
144.224
141.754
139.638
137.986
136.758
135.975
109.048
106.46
102.973
99.1064
95.0964
90.9736
87.1788
84.073
81.7062
80.1706
69.2054
64.6247
59.9119
54.7778
49.4115
42.6542
36.9944
33.0114
30.602
29.3565
40.8022
32.4299
26.2628
20.3279
15.4099
9.86706
6.75078
4.76779
3.55906
2.64152
26.0052
13.4206
5.44757
1.45277
-0.279539
-0.499803
-0.543352
-0.549134
-0.553736
-0.592697
12.2445
1.06079
-0.458562
-0.564353
-0.540246
-0.567877
-0.611631
-0.630416
-0.631229
-0.634823
0.56801
-0.597834
-0.547096
-0.595909
-0.64221
-0.685092
-0.71645
-0.724856
-0.714699
-0.704234
-0.806658
-0.776465
-0.731753
-0.748918
-0.776983
-0.801242
-0.804946
-0.795943
-0.783061
-0.772627
-0.850275
-0.892688
-0.888575
-0.892577
-0.890512
-0.882747
-0.867532
-0.85239
-0.841427
-0.8351
-0.935487
-0.980676
-0.983861
-0.963751
-0.936691
-0.921041
-0.908104
-0.898953
-0.89339
-0.890328
-0.954836
-1.0115
-1.02909
-1.00524
-0.977888
-0.964145
-0.954465
-0.94693
-0.942189
-0.939431
-0.964253
-0.993314
-1.0243
-1.02814
-1.01922
-1.01231
-1.00607
-0.999723
-0.995019
-0.992073
-1.01104
-1.02143
-1.04545
-1.06013
-1.06359
-1.06306
-1.06068
-1.05707
-1.05314
-1.05
-1.07996
-1.08587
-1.09932
-1.10878
-1.11425
-1.11674
-1.11712
-1.11595
-1.11374
-1.11099
-1.14455
-1.14784
-1.15492
-1.16233
-1.16821
-1.17222
-1.1745
-1.17516
-1.17433
-1.17216
392.398
392.298
392.058
391.799
391.594
391.494
391.514
391.631
391.783
391.91
343.425
343.273
342.952
342.593
342.286
342.093
342.033
342.088
342.193
342.299
294.605
294.344
293.844
293.267
292.743
292.36
292.148
292.088
292.113
292.18
246.142
245.673
244.855
243.898
242.997
242.268
241.755
241.446
241.284
241.24
198.289
197.482
196.139
194.564
193.035
191.706
190.643
189.854
189.31
189.027
151.536
150.153
147.899
145.261
142.643
140.255
138.173
136.408
135.028
134.127
106.431
104.036
100.438
96.2146
91.7894
87.2828
82.8444
78.8479
75.8938
73.2807
64.5657
60.739
55.6845
49.3482
42.0278
34.417
27.717
22.7619
19.6569
15.3517
32.2855
27.047
20.4207
13.1765
8.03538
4.48897
2.14305
0.825962
-0.225929
-0.258109
12.9436
6.06643
1.10666
-0.394389
-0.612282
-0.593471
-0.589117
-0.581161
-0.582347
-0.561832
0.363092
-0.561145
-0.754789
-0.632905
-0.626053
-0.649296
-0.671876
-0.670565
-0.659933
-0.644645
-0.696488
-0.70803
-0.73224
-0.706872
-0.723749
-0.75415
-0.777302
-0.774594
-0.752149
-0.724788
-0.767051
-0.821592
-0.844723
-0.884908
-0.887779
-0.874879
-0.859675
-0.83361
-0.806499
-0.786153
-0.890741
-0.942843
-0.974546
-0.994007
-0.969485
-0.934495
-0.902373
-0.877561
-0.859959
-0.846771
-0.98375
-1.01998
-1.03008
-1.01307
-0.97434
-0.946552
-0.926471
-0.914364
-0.908536
-0.901268
-0.998778
-1.03728
-1.05466
-1.03985
-1.0004
-0.976349
-0.962084
-0.953313
-0.949853
-0.9471
-0.983396
-1.00147
-1.02803
-1.03066
-1.02361
-1.01592
-1.00924
-1.00276
-0.998177
-0.99511
-1.01657
-1.0171
-1.03671
-1.05375
-1.06289
-1.06408
-1.06227
-1.05919
-1.05557
-1.05217
-1.0834
-1.08257
-1.09418
-1.1072
-1.11422
-1.11768
-1.11858
-1.11783
-1.11602
-1.11329
-1.14703
-1.14841
-1.15467
-1.16272
-1.16936
-1.17398
-1.17674
-1.1778
-1.17723
-1.17496
392.121
392.047
391.841
391.639
391.52
391.533
391.691
391.957
392.239
392.462
343.067
342.941
342.653
342.351
342.136
342.07
342.166
342.386
342.639
342.845
294.068
293.833
293.351
292.82
292.391
292.157
292.137
292.293
292.523
292.726
245.291
244.842
244
243.04
242.204
241.63
241.342
241.293
241.385
241.527
196.937
196.126
194.635
192.923
191.366
190.157
189.308
188.773
188.488
188.443
149.325
147.885
145.283
142.297
139.498
137.165
135.261
133.702
132.546
131.91
102.922
100.423
96.1587
91.0171
86.1269
81.8891
78.1577
74.637
72.2574
70.4251
59.8333
55.6836
48.7601
40.429
33.3038
27.3682
22.278
16.3893
14.5217
12.6157
26.0876
20.2865
13.2071
7.37081
4.11684
2.08894
0.572695
-0.358887
-0.493549
-0.509222
5.27347
0.608414
-0.548143
-0.575494
-0.491145
-0.523176
-0.549286
-0.543612
-0.566758
-0.560664
-0.574763
-0.838235
-0.658901
-0.608017
-0.620036
-0.657414
-0.668151
-0.654253
-0.643714
-0.636055
-0.630785
-0.739364
-0.767737
-0.753723
-0.757816
-0.780497
-0.792095
-0.776734
-0.746621
-0.721886
-0.755895
-0.847664
-0.936071
-0.952284
-0.923992
-0.892939
-0.862528
-0.828348
-0.792421
-0.769241
-0.885408
-0.959341
-1.02928
-1.02217
-0.965008
-0.922311
-0.890874
-0.863963
-0.840941
-0.825181
-0.98037
-1.018
-1.03846
-1.0164
-0.981302
-0.948873
-0.92422
-0.905759
-0.892542
-0.881434
-1.02219
-1.04364
-1.04132
-1.02858
-0.999463
-0.977522
-0.961884
-0.950269
-0.942361
-0.936103
-1.01554
-1.01917
-1.01719
-1.01859
-1.01999
-1.01512
-1.00841
-1.00164
-0.996031
-0.991468
-1.04038
-1.03271
-1.03962
-1.05457
-1.06281
-1.06395
-1.06186
-1.0586
-1.05503
-1.05127
-1.09581
-1.0925
-1.09946
-1.10899
-1.11555
-1.11891
-1.11974
-1.11895
-1.11713
-1.11409
-1.15364
-1.15405
-1.15886
-1.16589
-1.17237
-1.17721
-1.18032
-1.1817
-1.18135
-1.17866
391.799
391.772
391.624
391.516
391.536
391.729
392.098
392.587
393.059
393.396
342.642
342.566
342.335
342.127
342.058
342.182
342.499
342.962
343.413
343.715
293.424
293.238
292.803
292.361
292.092
292.089
292.359
292.851
293.368
293.732
244.267
243.868
243.022
242.116
241.44
241.137
241.216
241.59
242.038
242.385
195.325
194.53
192.904
191.145
189.709
188.79
188.377
188.393
188.528
188.776
146.757
145.226
142.289
139.116
136.416
134.46
133.254
132.408
131.738
131.547
99.023
96.1723
91.0179
85.4478
80.8054
77.2915
74.7994
72.5129
70
68.7279
54.6257
49.255
40.3624
31.936
24.8204
19.3728
16.5581
14.9397
12.5432
10.647
19.9146
13.1917
7.4204
3.5405
1.28098
-0.0427891
-0.372687
-0.464475
-0.435138
-0.428715
1.08981
-0.417566
-0.605339
-0.51391
-0.495189
-0.520563
-0.527649
-0.53043
-0.535573
-0.536995
-0.666512
-0.656297
-0.627772
-0.621381
-0.632295
-0.630593
-0.630407
-0.640961
-0.633822
-0.633728
-0.684304
-0.756403
-0.789307
-0.794948
-0.776779
-0.767153
-0.766524
-0.753619
-0.726874
-0.707376
-0.784662
-0.885874
-0.95907
-0.954064
-0.909106
-0.869037
-0.83702
-0.810486
-0.77841
-0.759269
-0.887681
-0.957574
-1.00039
-0.974454
-0.929849
-0.90014
-0.870447
-0.846702
-0.826121
-0.812847
-0.962206
-1.00086
-1.01027
-0.985971
-0.958301
-0.934242
-0.9096
-0.890197
-0.876809
-0.866832
-1.00741
-1.03145
-1.01943
-0.999233
-0.98253
-0.967433
-0.952636
-0.93979
-0.93002
-0.92265
-1.02336
-1.02333
-1.01484
-1.01497
-1.01498
-1.01029
-1.00283
-0.995189
-0.988494
-0.982851
-1.05621
-1.04933
-1.05233
-1.05903
-1.06268
-1.06215
-1.05904
-1.05535
-1.05155
-1.04707
-1.10646
-1.10522
-1.10798
-1.11327
-1.11779
-1.12001
-1.12027
-1.11945
-1.11797
-1.11427
-1.16146
-1.16208
-1.16561
-1.1712
-1.17697
-1.18179
-1.18532
-1.18737
-1.18801
-1.18448
391.497
391.547
391.484
391.515
391.738
392.2
392.894
393.705
394.378
394.811
342.234
342.238
342.099
342.037
342.18
342.588
343.245
344.087
344.738
345.108
292.789
292.692
292.352
292.071
292.063
292.426
293.108
294.071
294.863
295.4
243.242
242.94
242.161
241.417
241.051
241.215
241.905
242.872
243.744
244.367
193.687
192.971
191.318
189.682
188.571
188.17
188.353
189.336
190.09
190.686
144.124
142.569
139.453
136.386
134.024
132.773
132.615
132.656
132.897
133.41
94.9798
91.6838
86.0915
80.7976
76.6777
73.8756
71.9458
70.1668
67.5434
66.3519
49.1931
41.9014
33.3212
24.8943
17.3963
14.498
12.8032
10.7897
8.21028
6.28653
15.0005
7.99753
4.23333
1.32908
-0.151267
-0.349712
-0.3867
-0.39657
-0.401558
-0.38461
-0.382561
-0.653165
-0.530594
-0.520213
-0.513056
-0.514379
-0.528135
-0.526386
-0.527813
-0.512675
-0.608731
-0.666851
-0.659391
-0.668085
-0.633147
-0.595455
-0.588853
-0.588531
-0.609171
-0.607786
-0.719659
-0.778015
-0.811459
-0.816617
-0.772295
-0.733449
-0.726168
-0.713245
-0.690947
-0.680758
-0.802079
-0.885291
-0.928021
-0.917631
-0.877643
-0.831485
-0.80259
-0.780984
-0.758097
-0.741154
-0.872226
-0.919413
-0.94201
-0.926238
-0.901168
-0.877239
-0.844449
-0.827814
-0.811236
-0.794199
-0.924828
-0.955193
-0.967429
-0.951902
-0.933022
-0.911465
-0.888725
-0.875049
-0.864257
-0.849991
-0.976515
-0.992331
-0.989554
-0.977264
-0.965339
-0.952462
-0.939179
-0.92925
-0.919778
-0.908978
-1.01574
-1.01729
-1.01434
-1.01178
-1.0081
-1.00143
-0.993474
-0.988024
-0.981107
-0.97279
-1.06096
-1.05923
-1.05968
-1.06088
-1.06039
-1.05725
-1.05269
-1.05036
-1.04708
-1.04104
-1.11292
-1.11262
-1.11422
-1.11699
-1.11906
-1.11943
-1.11839
-1.1182
-1.11824
-1.11384
-1.16812
-1.16919
-1.17223
-1.17688
-1.18197
-1.18664
-1.19048
-1.19339
-1.19615
-1.19181
391.269
391.422
391.472
391.683
392.175
393.015
394.135
395.339
396.255
396.859
341.903
342.019
342.006
342.135
342.563
343.417
344.6
345.93
346.974
347.771
292.244
292.282
292.091
292.042
292.404
293.306
294.672
296.277
297.559
298.515
242.326
242.18
241.557
241.089
241.204
242.066
243.642
245.597
247.265
248.528
192.173
191.601
190.068
188.731
188.172
188.65
190.057
192.212
194.283
196.008
141.613
140.114
137.041
134.346
132.671
132.134
133.232
135.85
138.879
141.531
90.8019
87.0926
81.7766
77.2039
73.8048
70.7281
67.9891
69.0173
73.0157
77.2203
42.3798
34.3478
27.5209
19.6012
14.5567
11.3474
8.58708
6.49106
6.38278
7.68398
9.53979
4.37875
2.09971
-0.00973408
-0.39392
-0.391228
-0.38714
-0.394857
-0.375645
-0.268899
-0.542136
-0.629285
-0.566711
-0.564102
-0.543325
-0.547615
-0.55797
-0.536385
-0.536194
-0.524219
-0.609449
-0.672386
-0.681571
-0.673174
-0.591279
-0.583152
-0.558779
-0.553405
-0.585543
-0.607716
-0.734411
-0.788428
-0.812708
-0.796113
-0.738131
-0.703922
-0.705704
-0.691465
-0.671454
-0.676924
-0.804646
-0.863569
-0.878009
-0.861773
-0.82306
-0.782061
-0.78632
-0.789899
-0.751392
-0.723857
-0.861602
-0.891926
-0.898386
-0.881353
-0.859426
-0.830039
-0.811984
-0.837829
-0.809936
-0.765813
-0.912846
-0.926946
-0.931528
-0.919238
-0.90087
-0.87925
-0.861106
-0.860885
-0.850465
-0.819306
-0.960735
-0.967525
-0.966812
-0.958186
-0.945966
-0.931679
-0.917228
-0.906124
-0.894957
-0.88017
-1.00939
-1.01051
-1.00891
-1.00456
-0.997025
-0.985933
-0.973155
-0.96437
-0.958011
-0.949229
-1.06151
-1.0614
-1.06073
-1.05893
-1.05465
-1.04708
-1.03668
-1.03274
-1.03157
-1.02534
-1.11658
-1.11699
-1.11781
-1.1186
-1.11803
-1.11538
-1.11003
-1.10974
-1.11318
-1.10853
-1.1733
-1.17478
-1.17768
-1.18182
-1.18621
-1.19039
-1.19365
-1.19751
-1.20585
-1.20082
391.136
391.414
391.601
392.023
392.841
394.108
395.72
397.393
398.571
398.95
341.678
341.93
342.073
342.422
343.193
344.576
346.423
348.479
350.148
351.14
291.835
292.038
292.039
292.28
293.058
294.649
296.901
299.442
301.446
302.878
241.584
241.633
241.235
241.142
241.905
243.633
246.484
249.862
252.697
254.747
190.901
190.491
189.168
188.293
188.53
190.069
193.24
197.572
201.784
205.29
139.458
137.951
135.024
132.972
132.169
133.171
137.247
143.599
150.414
156.125
86.9671
82.6173
77.9408
74.5107
71.654
67.9337
69.626
78.2173
89.7576
99.2591
36.6853
27.9554
22.4303
16.3941
12.6577
8.67427
6.70874
8.46878
16.6169
26.0622
6.46229
2.04305
0.461404
-0.424804
-0.446544
-0.384286
-0.328323
-0.183656
0.0618236
0.736205
-0.559893
-0.606138
-0.583903
-0.580537
-0.547091
-0.549487
-0.550974
-0.554424
-0.581603
-0.613985
-0.624347
-0.67197
-0.659659
-0.612589
-0.573208
-0.605131
-0.603617
-0.625528
-0.654381
-0.710692
-0.730738
-0.778087
-0.775193
-0.733972
-0.692198
-0.69093
-0.706736
-0.728809
-0.72253
-0.741021
-0.79745
-0.832065
-0.825971
-0.795932
-0.759453
-0.722757
-0.739615
-0.771863
-0.762966
-0.720479
-0.850512
-0.87427
-0.862917
-0.839347
-0.811629
-0.779785
-0.752015
-0.78338
-0.791101
-0.728019
-0.899229
-0.912233
-0.906568
-0.891539
-0.872058
-0.854022
-0.840527
-0.83749
-0.824106
-0.770751
-0.950737
-0.955669
-0.95226
-0.942246
-0.928868
-0.916446
-0.914227
-0.902869
-0.876282
-0.843577
-1.0045
-1.00595
-1.00313
-0.996334
-0.985832
-0.974114
-0.968203
-0.981194
-0.95329
-0.92799
-1.06076
-1.06128
-1.05944
-1.05517
-1.04769
-1.03677
-1.02248
-1.05188
-1.04052
-1.01587
-1.11865
-1.11942
-1.11951
-1.11851
-1.11499
-1.10916
-1.09938
-1.12567
-1.13292
-1.11361
-1.17727
-1.17908
-1.18197
-1.1857
-1.18891
-1.19105
-1.19191
-1.21084
-1.23545
-1.22469
391.093
391.501
391.835
392.478
393.618
395.282
397.359
399.462
400.581
400.883
341.561
341.953
342.259
342.849
344.001
345.877
348.453
351.393
353.629
354.672
291.57
291.943
292.158
292.731
293.984
296.227
299.424
303.076
306
307.804
241.041
241.285
241.145
241.462
242.793
245.566
249.875
254.936
259.069
261.674
189.931
189.65
188.575
188.232
189.25
192.211
197.65
204.846
211.706
216.433
137.735
136.095
133.372
132.019
132.279
135.821
143.734
154.614
165.29
173.253
83.7838
78.6498
74.4058
72.0863
69.2327
69.0743
78.7304
95.8591
112.367
124.443
32.7555
23.3758
16.635
14.5827
10.4875
6.70161
9.05004
24.7479
44.9929
60.4464
4.4635
0.64803
-0.299099
-0.493324
-0.44712
-0.36456
-0.186114
0.601687
6.59501
13.2481
-0.556397
-0.58812
-0.556554
-0.57796
-0.559168
-0.556946
-0.607288
-0.655784
-0.612614
-0.156108
-0.624685
-0.654455
-0.63191
-0.613633
-0.595876
-0.64982
-0.627989
-0.620123
-0.654388
-0.783555
-0.714614
-0.745474
-0.729409
-0.697251
-0.670706
-0.63795
-0.617526
-0.668756
-0.734043
-0.858925
-0.786792
-0.809148
-0.783679
-0.754787
-0.734297
-0.717563
-0.678928
-0.7477
-0.806954
-0.964647
-0.845391
-0.863879
-0.837646
-0.81476
-0.799663
-0.791362
-0.791751
-0.829913
-0.848474
-0.802623
-0.896213
-0.910565
-0.891467
-0.87487
-0.860729
-0.852768
-0.86089
-0.885169
-0.847725
-0.732434
-0.946895
-0.952913
-0.943578
-0.930753
-0.917071
-0.901187
-0.885212
-0.911828
-0.890677
-0.826148
-1.00111
-1.00313
-0.998459
-0.988456
-0.973297
-0.94597
-0.896771
-0.964685
-0.97255
-0.931641
-1.05962
-1.06083
-1.05778
-1.05052
-1.03527
-1.00986
-0.937988
-1.03552
-1.06993
-1.02221
-1.11984
-1.12103
-1.12039
-1.11751
-1.10852
-1.08797
-1.04155
-1.1041
-1.17151
-1.12123
-1.18023
-1.18239
-1.18533
-1.18873
-1.18966
-1.18465
-1.16909
-1.18216
-1.27868
-1.22746
391.109
391.624
392.089
392.92
394.261
396.17
398.485
400.539
401.9
403.533
341.522
342.028
342.484
343.271
344.625
346.897
350.081
353.536
356.981
360.4
291.424
291.937
292.36
293.215
294.742
297.468
301.36
305.895
310.561
314.502
240.691
241.09
241.207
241.872
243.627
247.191
252.609
258.923
265.13
269.601
189.265
189.056
188.255
188.361
189.983
194.274
201.821
211.557
221.218
228.004
136.428
134.624
132.173
131.358
132.663
138.845
150.499
165.072
179.155
189.605
81.4193
75.6855
72.1173
69.9527
67.5715
73.4537
90.4851
112.388
131.862
145.47
30.5346
20.0249
14.5037
12.4202
8.13185
7.00744
18.9387
46.2356
71.4396
88.0718
3.26738
-0.175944
-0.46523
-0.468921
-0.424334
-0.285221
0.186263
7.20785
20.0371
35.9382
-0.556812
-0.56014
-0.562279
-0.556284
-0.539489
-0.533002
-0.576639
-0.513357
1.55957
7.40536
-0.616861
-0.629979
-0.607981
-0.6029
-0.58743
-0.591987
-0.589205
-0.610558
-0.669729
5.66806
-0.700312
-0.718519
-0.695685
-0.674064
-0.625045
-0.626689
-0.629321
-0.681868
-0.635097
3.97937
-0.779927
-0.790352
-0.760963
-0.732772
-0.720145
-0.691866
-0.700156
-0.722937
-0.727251
-0.824744
-0.84357
-0.853905
-0.824005
-0.802618
-0.781123
-0.759987
-0.788091
-0.773525
-0.770567
-0.750544
-0.897756
-0.909599
-0.883242
-0.867387
-0.847795
-0.831301
-0.827531
-0.816114
-0.775392
-0.868666
-0.947585
-0.955243
-0.940172
-0.926205
-0.910685
-0.890557
-0.834837
-0.846632
-0.815294
-0.972973
-1.00093
-1.00355
-0.996835
-0.985459
-0.970171
-0.943258
-0.863936
-0.893581
-0.884715
-1.02766
-1.05926
-1.06093
-1.05762
-1.04975
-1.0328
-0.998766
-0.921085
-0.978447
-0.978517
-1.07527
-1.1207
-1.12251
-1.12175
-1.11845
-1.10548
-1.0759
-1.05898
-1.08824
-1.09361
-1.16774
-1.18227
-1.18482
-1.18799
-1.19134
-1.18826
-1.17574
-1.16642
-1.20305
-1.21358
-1.26242
391.142
391.721
392.28
393.218
394.647
396.715
398.749
400.789
403.403
405.195
341.526
342.102
342.656
343.526
344.933
347.622
350.949
354.556
360.708
368.802
291.364
291.971
292.528
293.53
295.191
298.327
302.64
307.748
314.7
325.375
240.511
241.012
241.316
242.171
244.172
248.387
254.546
261.601
269.837
282.082
188.881
188.723
188.176
188.582
190.555
195.989
205.215
216.402
228.246
242.818
135.58
133.65
131.533
131.231
133.309
141.535
156.043
173.12
189.541
207.915
79.8444
72.751
70.3536
68.9851
67.0363
77.9507
99.7149
124.641
145.524
166.936
29.2044
14.5087
12.491
10.7915
6.65445
8.69674
28.7787
62.5574
88.8189
106.666
2.08992
-0.149969
-0.496316
-0.451153
-0.384193
-0.150599
1.05357
14.4234
36.9534
54.0368
-0.617807
-0.535719
-0.547027
-0.538074
-0.534657
-0.543236
-0.577183
-0.0882984
7.89792
24.2352
-0.620192
-0.617453
-0.602758
-0.586645
-0.602071
-0.616982
-0.660449
-0.731994
6.54281
18.1408
-0.690294
-0.705525
-0.702257
-0.68549
-0.684248
-0.689402
-0.695275
-0.764605
5.15043
12.3642
-0.775331
-0.781497
-0.764636
-0.755003
-0.744914
-0.777993
-0.738418
-0.807368
-0.498776
4.54254
-0.841097
-0.84683
-0.824069
-0.804128
-0.789151
-0.837304
-0.808127
-0.781237
-0.816423
4.04982
-0.898024
-0.905079
-0.882932
-0.870994
-0.85324
-0.884662
-0.855116
-0.819632
-0.859286
6.3845
-0.948635
-0.956291
-0.940611
-0.928299
-0.915978
-0.914532
-0.924223
-0.868542
-0.900349
6.44209
-1.00158
-1.00493
-0.998288
-0.987724
-0.980822
-0.945758
-1.0113
-0.938628
-0.953299
2.2438
-1.05983
-1.06195
-1.05984
-1.05444
-1.05014
-1.01031
-1.07948
-1.01757
-1.04367
-0.763486
-1.12142
-1.12388
-1.1244
-1.12426
-1.12231
-1.1012
-1.14035
-1.10972
-1.12629
-1.14575
-1.1833
-1.18631
-1.19042
-1.19612
-1.19986
-1.19846
-1.21988
-1.20823
-1.20576
-1.24269
391.155
391.735
392.296
393.236
394.665
396.741
398.729
400.698
403.21
404.355
341.539
342.117
342.674
343.542
344.958
347.639
350.958
354.564
360.936
368.156
291.377
291.987
292.55
293.551
295.204
298.342
302.68
307.871
315.125
325.099
240.523
241.03
241.34
242.197
244.191
248.442
254.683
261.849
270.369
282.114
188.889
188.741
188.202
188.614
190.591
196.094
205.449
216.79
228.887
243.316
135.568
133.666
131.545
131.249
133.352
141.719
156.41
173.656
190.139
207.169
79.8209
72.7331
70.2716
68.8619
66.8567
78.0745
99.9778
124.918
145.547
162.025
29.2453
14.4939
12.4298
10.6696
6.4358
8.46874
28.4426
61.9366
88.1734
102.469
2.07488
-0.161528
-0.508133
-0.473033
-0.41809
-0.204891
1.06029
14.2888
36.4384
52.2564
-0.617553
-0.540191
-0.556833
-0.559521
-0.566638
-0.572696
-0.670867
-0.237359
8.04528
23.7158
-0.620736
-0.617239
-0.608377
-0.602551
-0.621177
-0.636281
-0.691231
-0.792827
6.80028
17.7965
-0.688933
-0.703771
-0.703814
-0.716066
-0.722652
-0.729157
-0.714969
-0.72298
6.64508
12.6235
-0.773516
-0.782158
-0.77397
-0.7727
-0.778537
-0.80792
-0.761769
-0.763259
-0.480859
4.52825
-0.840297
-0.847397
-0.830934
-0.823167
-0.814697
-0.862566
-0.836041
-0.805744
-0.861598
4.69735
-0.897636
-0.905381
-0.887094
-0.879758
-0.873948
-0.900509
-0.882444
-0.826518
-0.699846
5.98503
-0.948958
-0.957289
-0.944872
-0.936874
-0.934758
-0.938369
-0.952133
-0.923644
-0.866644
2.66278
-1.00231
-1.00634
-1.00228
-0.997675
-0.996628
-0.981524
-1.04018
-1.01345
-1.01181
0.849501
-1.06049
-1.0632
-1.06307
-1.06239
-1.06288
-1.05241
-1.12976
-1.09241
-1.15008
1.21862
-1.12175
-1.12472
-1.12662
-1.12978
-1.13231
-1.13829
-1.20415
-1.1746
-1.22282
2.49417
-1.18319
-1.18648
-1.19132
-1.1992
-1.20705
-1.22443
-1.26118
-1.24916
-1.22973
1.83061
391.147
391.666
392.134
392.968
394.309
396.217
398.508
400.512
401.976
403.57
341.56
342.071
342.532
343.323
344.682
346.94
350.104
353.495
356.998
360.149
291.461
291.981
292.414
293.277
294.801
297.516
301.418
305.948
310.787
314.538
240.723
241.131
241.263
241.942
243.719
247.307
252.757
259.106
265.579
269.929
189.282
189.089
188.306
188.431
190.106
194.484
202.052
211.8
221.84
228.614
136.393
134.633
132.191
131.435
132.825
139.286
151.037
165.436
179.728
190.072
81.3799
75.5967
71.9118
69.6911
67.2303
74.0044
91.2371
112.574
131.948
145.087
30.6488
19.7364
14.3221
12.1319
7.07904
6.19505
18.1918
44.6503
70.0718
86.7052
3.13724
-0.224848
-0.489339
-0.460609
-0.487559
-0.599809
-0.280081
6.72365
18.5981
34.0699
-0.56367
-0.572009
-0.577667
-0.562154
-0.555903
-0.59676
-0.668594
-0.581901
1.3027
5.99515
-0.621169
-0.633007
-0.615319
-0.610571
-0.598556
-0.635818
-0.644731
-0.630975
-1.02769
5.25082
-0.695851
-0.710142
-0.70665
-0.703422
-0.697353
-0.692446
-0.69628
-0.665153
-0.499891
5.26206
-0.776327
-0.785702
-0.769279
-0.767139
-0.766807
-0.760792
-0.739135
-0.72148
-0.654524
-0.117468
-0.843157
-0.854288
-0.833313
-0.82811
-0.824623
-0.834698
-0.788709
-0.748268
-0.698777
-0.556225
-0.897855
-0.910871
-0.892107
-0.886396
-0.884618
-0.892739
-0.870414
-0.811835
-0.759524
-0.832309
-0.948748
-0.95782
-0.94882
-0.943352
-0.942194
-0.94163
-0.947282
-0.917696
-0.893216
-1.08725
-1.00267
-1.00664
-1.00502
-1.00299
-1.00291
-0.999239
-1.02317
-1.02242
-1.01905
-1.10933
-1.06069
-1.06365
-1.0647
-1.06573
-1.06779
-1.06961
-1.10156
-1.13164
-1.15062
-1.21826
-1.12127
-1.12422
-1.1267
-1.13057
-1.13604
-1.14498
-1.17783
-1.21773
-1.27162
-1.42596
-1.18169
-1.18481
-1.18955
-1.19697
-1.2067
-1.21905
-1.24656
-1.28689
-1.39193
-1.66189
391.151
391.563
391.902
392.55
393.695
395.358
397.419
399.485
400.584
400.857
341.618
342.016
342.329
342.925
344.084
345.959
348.521
351.428
353.7
354.748
291.625
292.007
292.232
292.818
294.085
296.336
299.541
303.185
306.233
307.92
241.089
241.345
241.221
241.565
242.937
245.749
250.095
255.14
259.481
261.968
189.961
189.7
188.648
188.342
189.424
192.487
197.975
205.11
212.139
216.824
137.71
136.115
133.415
132.134
132.511
136.383
144.439
155.071
165.652
173.494
83.7355
78.5908
74.2414
71.9498
68.9747
69.3721
79.3524
95.7652
112.24
124.096
32.8912
23.2128
16.403
14.3769
9.96072
6.41274
8.54069
22.8168
43.4671
58.7706
4.31283
0.568636
-0.359622
-0.552109
-0.541189
-0.535144
-0.305184
0.612962
5.97551
12.3325
-0.557555
-0.599192
-0.570701
-0.571741
-0.573087
-0.590193
-0.577684
-0.520219
-0.513768
-0.396716
-0.623213
-0.652463
-0.633586
-0.63336
-0.640412
-0.63022
-0.587598
-0.546052
-0.560615
-0.724274
-0.704819
-0.7271
-0.722643
-0.720212
-0.717097
-0.708428
-0.672274
-0.613997
-0.578659
-0.666352
-0.783011
-0.801024
-0.783896
-0.777448
-0.774779
-0.77079
-0.75407
-0.692034
-0.640915
-0.70955
-0.844373
-0.86474
-0.84404
-0.836221
-0.827966
-0.821986
-0.807112
-0.77565
-0.738745
-0.756994
-0.89547
-0.912104
-0.898463
-0.891149
-0.885033
-0.87544
-0.861224
-0.839245
-0.828888
-0.851541
-0.947663
-0.955126
-0.951176
-0.946799
-0.942241
-0.932672
-0.92422
-0.902908
-0.897942
-0.911202
-1.00236
-1.00579
-1.00615
-1.00488
-1.00304
-0.997989
-0.998032
-0.977153
-0.951705
-0.877032
-1.06058
-1.06317
-1.06454
-1.06565
-1.06709
-1.06869
-1.07801
-1.07387
-1.05829
-0.999404
-1.11987
-1.12214
-1.12468
-1.12827
-1.13334
-1.14094
-1.15564
-1.1659
-1.17505
-1.19744
-1.17889
-1.18149
-1.18568
-1.19196
-1.20066
-1.21212
-1.2286
-1.248
-1.29166
-1.34906
391.211
391.494
391.687
392.114
392.938
394.208
395.81
397.474
398.664
399.118
341.753
342.01
342.161
342.517
343.295
344.682
346.522
348.56
350.228
351.341
291.909
292.119
292.132
292.385
293.173
294.784
297.045
299.566
301.607
303.107
241.651
241.712
241.331
241.261
242.058
243.825
246.697
250.034
252.898
254.933
190.956
190.562
189.263
188.419
188.681
190.313
193.518
197.778
201.938
205.377
139.485
137.992
135.101
133.126
132.457
133.558
137.767
143.959
150.627
156.129
86.9679
82.6278
77.9253
74.6008
71.8401
67.7687
69.6634
78.2103
89.7508
98.7605
36.8105
28.0571
22.2369
16.3268
12.4563
8.09309
6.54953
8.31281
15.9089
24.9834
6.40181
2.0028
0.359651
-0.505812
-0.50822
-0.449226
-0.304586
-0.0513386
-0.161161
0.415426
-0.557727
-0.617089
-0.599285
-0.582491
-0.554851
-0.524589
-0.49477
-0.477727
-0.549644
-0.626336
-0.620989
-0.667364
-0.67951
-0.67677
-0.67932
-0.641198
-0.576017
-0.528721
-0.521811
-0.568452
-0.713446
-0.747786
-0.780759
-0.78889
-0.773897
-0.733429
-0.664252
-0.614861
-0.578886
-0.570317
-0.78721
-0.812519
-0.813141
-0.818488
-0.81351
-0.792511
-0.746297
-0.698367
-0.666096
-0.65162
-0.842982
-0.869161
-0.8606
-0.857893
-0.852344
-0.841659
-0.81675
-0.775543
-0.754587
-0.733681
-0.894708
-0.908768
-0.906792
-0.904021
-0.898394
-0.888717
-0.874323
-0.850271
-0.831327
-0.814309
-0.948091
-0.953883
-0.954829
-0.95327
-0.949508
-0.942433
-0.933894
-0.919464
-0.905025
-0.883527
-1.00345
-1.00598
-1.00723
-1.00739
-1.00615
-1.00282
-0.999443
-0.989552
-0.974309
-0.948102
-1.06009
-1.06178
-1.06337
-1.06503
-1.06631
-1.06711
-1.06892
-1.06428
-1.05458
-1.0385
-1.11751
-1.11916
-1.12154
-1.12484
-1.12869
-1.13316
-1.13936
-1.14024
-1.14203
-1.14567
-1.17496
-1.17698
-1.18051
-1.18563
-1.19189
-1.19938
-1.20854
-1.21375
-1.22524
-1.23336
391.357
391.515
391.57
391.786
392.284
393.128
394.245
395.439
396.353
396.97
341.991
342.112
342.106
342.242
342.676
343.533
344.713
346.028
347.057
347.881
292.332
292.376
292.194
292.155
292.527
293.441
294.812
296.394
297.664
298.637
242.411
242.274
241.664
241.211
241.346
242.23
243.82
245.732
247.345
248.551
192.255
191.691
190.174
188.85
188.311
188.821
190.24
192.345
194.313
195.862
141.698
140.189
137.139
134.464
132.806
132.296
133.495
136.05
138.896
141.229
90.933
87.1796
81.856
77.2927
73.9601
70.3635
67.8539
69.1213
72.6027
76.2804
42.6108
34.6019
27.5758
19.1217
14.3772
11.1577
8.55454
6.87232
5.79257
6.95136
9.58515
4.39745
2.01754
-0.190726
-0.457651
-0.420406
-0.366903
-0.384846
-0.504342
-0.3283
-0.549371
-0.631928
-0.588151
-0.583959
-0.532968
-0.476738
-0.463873
-0.497275
-0.517751
-0.507233
-0.605287
-0.659917
-0.701391
-0.719609
-0.685659
-0.620787
-0.564363
-0.561318
-0.54814
-0.521502
-0.708186
-0.746598
-0.81429
-0.86632
-0.833878
-0.756373
-0.677837
-0.64733
-0.625977
-0.609886
-0.785626
-0.811333
-0.838462
-0.875852
-0.874998
-0.831617
-0.770651
-0.733291
-0.716
-0.716832
-0.845412
-0.868387
-0.876997
-0.886914
-0.89005
-0.877031
-0.843414
-0.807853
-0.788843
-0.786806
-0.902148
-0.91419
-0.920029
-0.921939
-0.919429
-0.90978
-0.892235
-0.866971
-0.850198
-0.84447
-0.953436
-0.958949
-0.96137
-0.961821
-0.959686
-0.953349
-0.942659
-0.925997
-0.910777
-0.896341
-1.00506
-1.00656
-1.00842
-1.01006
-1.01011
-1.0071
-1.0012
-0.990496
-0.977606
-0.959899
-1.05876
-1.05961
-1.06146
-1.06382
-1.06548
-1.06557
-1.06406
-1.05812
-1.04973
-1.03599
-1.11411
-1.1152
-1.1175
-1.12072
-1.12399
-1.12656
-1.12837
-1.12655
-1.12349
-1.11473
-1.17018
-1.17173
-1.17473
-1.17902
-1.18384
-1.18847
-1.19265
-1.19341
-1.19317
-1.18514
391.595
391.648
391.59
391.625
391.853
392.318
393.012
393.821
394.49
394.929
342.332
342.34
342.205
342.149
342.297
342.708
343.363
344.199
344.838
345.227
292.887
292.795
292.461
292.186
292.185
292.552
293.23
294.191
294.966
295.524
243.341
243.044
242.273
241.534
241.176
241.348
242.052
242.996
243.819
244.42
193.788
193.077
191.433
189.794
188.678
188.271
188.406
189.424
190.102
190.594
144.234
142.677
139.57
136.485
134.101
132.873
132.796
132.857
132.886
133.148
95.1149
91.8296
86.2397
80.8828
76.7211
73.6668
71.6775
70.5822
67.3184
65.7392
49.3867
42.3039
33.6726
24.8902
17.1241
14.3196
12.8361
11.0058
7.91659
6.15292
15.0921
8.11601
4.25777
1.26195
-0.245178
-0.416042
-0.431671
-0.480364
-0.449148
-0.372674
-0.359055
-0.646171
-0.54912
-0.572373
-0.546731
-0.50422
-0.477416
-0.507737
-0.498077
-0.493864
-0.604258
-0.648215
-0.664322
-0.722953
-0.697137
-0.621593
-0.582269
-0.590237
-0.576981
-0.567623
-0.702439
-0.727161
-0.794382
-0.870048
-0.852695
-0.773069
-0.714064
-0.699644
-0.673999
-0.65623
-0.777164
-0.803311
-0.855655
-0.911602
-0.915311
-0.861225
-0.80784
-0.77929
-0.753725
-0.733694
-0.853526
-0.873003
-0.893088
-0.90867
-0.918193
-0.913452
-0.877856
-0.844467
-0.817112
-0.799159
-0.91483
-0.935169
-0.940145
-0.9401
-0.938106
-0.931465
-0.913318
-0.889049
-0.868956
-0.856718
-0.964327
-0.973595
-0.971749
-0.97047
-0.968796
-0.963544
-0.953182
-0.938393
-0.923986
-0.911892
-1.00726
-1.00724
-1.00812
-1.01132
-1.01292
-1.01075
-1.00473
-0.995294
-0.984482
-0.972491
-1.05617
-1.05564
-1.0579
-1.06148
-1.06399
-1.06411
-1.06157
-1.05584
-1.04818
-1.03852
-1.10944
-1.10984
-1.11232
-1.11599
-1.11927
-1.12107
-1.12094
-1.11797
-1.11309
-1.10534
-1.16463
-1.16575
-1.16851
-1.17244
-1.17647
-1.1796
-1.18116
-1.17984
-1.17609
-1.16827
391.902
391.879
391.734
391.63
391.654
391.851
392.222
392.712
393.184
393.523
342.746
342.673
342.445
342.242
342.177
342.305
342.622
343.085
343.53
343.828
293.529
293.346
292.915
292.478
292.212
292.212
292.484
292.977
293.487
293.846
244.374
243.978
243.136
242.231
241.555
241.255
241.335
241.708
242.141
242.472
195.436
194.645
193.023
191.254
189.806
188.881
188.458
188.475
188.575
188.776
146.881
145.352
142.419
139.214
136.472
134.493
133.285
132.477
131.778
131.421
99.1689
96.3198
91.1932
85.5175
80.7627
77.097
74.4226
72.2881
69.8054
68.3558
54.8263
49.6346
40.7531
32.0231
24.6939
19.5055
16.2735
14.8828
12.6441
10.6487
20.1418
13.504
7.64462
3.51798
1.18282
-0.0354489
-0.385539
-0.504814
-0.444557
-0.422732
1.36149
-0.426522
-0.632794
-0.592315
-0.575697
-0.566419
-0.539118
-0.542698
-0.535366
-0.527214