/*--------------------------------*- C++ -*----------------------------------*\
| =========                 |                                                 |
| \\      /  F ield         | OpenFOAM: The Open Source CFD Toolbox           |
|  \\    /   O peration     | Version:  2312                                  |
|   \\  /    A nd           | Website:  www.openfoam.com                      |
|    \\/     M anipulation  |                                                 |
\*---------------------------------------------------------------------------*/
FoamFile
{
    version     2.0;
    format      ascii;
    arch        "LSB;label=32;scalar=64";
    class       surfaceScalarField;
    location    "0.285";
    object      alphaPhi0.water;
}
// * * * * * * * * * * * * * * * * * * * * * * * * * * * * * * * * * * * * * //

dimensions      [0 3 -1 0 0 0 0];

oriented        oriented;

internalField   nonuniform List<scalar> 
22600
(
1.24002e-07
-2.47362e-07
1.2336e-07
2.48537e-07
-2.66212e-07
1.41677e-07
3.40307e-07
-2.41003e-07
1.49233e-07
3.95845e-07
-2.19846e-07
1.64307e-07
4.12244e-07
-1.97613e-07
1.81214e-07
3.88823e-07
-1.73032e-07
1.96453e-07
3.28465e-07
-1.47197e-07
2.07555e-07
2.38457e-07
-1.22967e-07
2.12975e-07
1.27821e-07
-1.03348e-07
2.13984e-07
-9.31839e-08
2.10672e-07
1.17832e-07
-4.82175e-07
1.16981e-07
2.31471e-07
-5.12408e-07
1.32557e-07
3.13915e-07
-4.6544e-07
1.41993e-07
3.61525e-07
-4.26276e-07
1.58819e-07
3.72663e-07
-3.85326e-07
1.76576e-07
3.47938e-07
-3.406e-07
1.92292e-07
2.91393e-07
-2.94168e-07
2.03516e-07
2.10601e-07
-2.50492e-07
2.08318e-07
1.13342e-07
-2.14463e-07
2.08374e-07
-1.95844e-07
2.04315e-07
1.42555e-07
-7.66565e-07
1.41834e-07
2.69574e-07
-8.00437e-07
1.6101e-07
3.62204e-07
-7.35222e-07
1.77153e-07
4.15894e-07
-6.82082e-07
2.02116e-07
4.28948e-07
-6.27166e-07
2.28786e-07
4.01455e-07
-5.66701e-07
2.53594e-07
3.37119e-07
-5.02737e-07
2.72904e-07
2.43877e-07
-4.4074e-07
2.8349e-07
1.30999e-07
-3.89233e-07
2.87649e-07
-3.63355e-07
2.88053e-07
1.67254e-07
-1.10035e-06
1.66527e-07
3.02289e-07
-1.12477e-06
1.89301e-07
3.99443e-07
-1.04924e-06
2.16868e-07
4.54307e-07
-9.93891e-07
2.56945e-07
4.66095e-07
-9.39053e-07
3.00098e-07
4.35966e-07
-8.78009e-07
3.41437e-07
3.67256e-07
-8.12291e-07
3.78264e-07
2.66168e-07
-7.4729e-07
4.07638e-07
1.42946e-07
-6.9645e-07
4.30439e-07
-6.71882e-07
4.42555e-07
1.9503e-07
-1.48955e-06
1.94179e-07
3.40298e-07
-1.49459e-06
2.24545e-07
4.40151e-07
-1.42304e-06
2.73941e-07
4.96799e-07
-1.3965e-06
3.45959e-07
5.10453e-07
-1.38049e-06
4.2778e-07
4.78786e-07
-1.36088e-06
5.14539e-07
4.02258e-07
-1.34081e-06
6.05049e-07
2.89547e-07
-1.32926e-06
6.94678e-07
1.54962e-07
-1.33228e-06
7.70413e-07
-1.3296e-06
8.06323e-07
2.56559e-07
-2.00182e-06
2.55713e-07
4.25704e-07
-1.96045e-06
2.96725e-07
5.20073e-07
-1.90206e-06
3.84656e-07
5.61318e-07
-1.95515e-06
5.17415e-07
5.38554e-07
-2.03211e-06
6.74397e-07
4.47417e-07
-2.11682e-06
8.47091e-07
3.14794e-07
-2.22425e-06
1.01608e-06
1.95146e-07
-2.36162e-06
1.15204e-06
9.96915e-08
-2.48958e-06
1.25283e-06
-2.5352e-06
1.31253e-06
3.91051e-07
-2.78385e-06
3.91084e-07
5.24756e-07
-2.52474e-06
4.30617e-07
4.98949e-07
-2.43208e-06
5.55895e-07
3.65805e-07
-2.59458e-06
7.72849e-07
1.26292e-07
-2.82135e-06
1.02947e-06
-1.44152e-07
-3.0926e-06
1.24738e-06
-3.30922e-07
-3.3983e-06
1.36232e-06
-3.35598e-07
-3.59644e-06
1.32662e-06
-2.05054e-07
-3.56981e-06
1.29065e-06
-3.4919e-06
1.32873e-06
4.2206e-07
-3.54377e-06
4.22808e-07
2.47669e-07
-2.8353e-06
4.89629e-07
-1.37874e-07
-2.61919e-06
6.56299e-07
-4.86814e-07
-2.57227e-06
9.44268e-07
-6.39894e-07
-2.148e-06
1.0569e-06
-5.27668e-07
-1.685e-06
9.22566e-07
-2.84969e-07
-1.2226e-06
6.56034e-07
-1.08844e-07
-8.70964e-08
4.76466e-07
-3.89798e-08
-4.40267e-09
3.59734e-07
-1.57587e-10
3.03331e-07
-8.47896e-08
-3.05623e-06
-8.9682e-08
-5.17212e-07
-1.8049e-06
2.292e-07
-5.66419e-07
-9.05449e-07
3.64476e-07
-2.06721e-07
-1.10358e-07
2.09722e-07
2.72879e-08
-2.97941e-09
3.21237e-08
6.0072e-08
-8.82382e-11
-1.56855e-08
9.16117e-08
-3.1417e-11
-2.31139e-12
4.5394e-09
-3.33942e-11
-1.09295e-12
1.52464e-10
-1.57426e-11
-7.68133e-14
-5.58523e-12
2.79624e-13
-6.54608e-07
-1.01232e-06
-6.57994e-07
-1.53234e-07
-3.55876e-07
6.98331e-08
1.13312e-07
-3.33665e-11
3.33351e-08
3.08385e-09
-3.73881e-11
-1.17184e-10
9.47079e-11
-9.43623e-12
-4.76219e-12
6.64904e-12
-3.38916e-12
-1.33738e-11
3.32636e-12
-8.59584e-13
-3.75479e-11
1.88649e-12
-6.65024e-13
-3.48936e-11
7.87798e-13
-2.55821e-13
-1.71899e-11
-8.76167e-13
-5.02541e-12
-8.89406e-08
-7.8569e-08
-7.62659e-08
-1.35459e-13
-2.77737e-08
-9.58807e-10
-6.22046e-12
-4.10516e-11
-6.02025e-12
-5.01512e-12
-3.938e-11
-2.46343e-11
-1.57749e-12
1.48055e-11
-5.06866e-11
9.01505e-13
1.32803e-11
-2.50075e-11
1.08798e-12
1.0951e-11
-1.45552e-11
1.00661e-12
2.25009e-12
-2.76633e-12
2.69658e-13
1.68848e-12
-2.4354e-12
4.54007e-13
-1.64236e-12
7.76744e-08
-1.32741e-09
8.79379e-08
-1.66637e-09
3.21141e-09
-8.26321e-10
-7.3555e-10
1.24597e-10
-8.74375e-10
-2.12227e-10
7.78454e-10
-2.48523e-10
-5.80582e-12
7.39654e-10
-2.41286e-11
1.78389e-12
1.48071e-10
-1.65157e-11
4.94102e-12
1.02809e-10
-6.51681e-12
7.0436e-13
3.07951e-12
-1.12433e-13
5.31819e-14
9.62145e-13
5.01917e-13
1.39258e-12
-1.34923e-12
-1.00937e-09
-1.98158e-11
-3.33974e-10
-9.23993e-10
-4.93408e-10
-7.69044e-10
-1.69213e-09
2.10722e-09
-1.73788e-09
-1.08292e-09
2.75972e-09
-1.71165e-09
-2.27431e-10
2.14961e-09
-1.32168e-09
1.26488e-11
1.02071e-09
-5.68387e-10
-1.53898e-11
2.87602e-10
-6.43521e-11
2.28646e-12
2.25911e-11
6.9834e-12
-8.28763e-14
1.63902e-12
4.6441e-13
1.0512e-11
-7.80833e-12
-2.9491e-11
2.72104e-11
-3.15028e-11
-4.18586e-10
5.67698e-11
-1.96636e-10
-6.37467e-10
8.28272e-10
-6.16688e-10
-5.16393e-10
3.15768e-10
2.71959e-11
-5.97787e-11
1.46984e-10
2.05569e-10
2.45707e-11
8.59018e-11
1.58609e-10
-2.62676e-12
7.27177e-11
7.9218e-11
-8.73744e-13
2.91101e-11
1.57476e-11
-2.43322e-12
8.68846e-12
1.1268e-11
2.49432e-11
-1.15454e-11
-2.12381e-11
3.75374e-11
-1.22992e-11
-1.20686e-10
1.48653e-10
-1.19702e-11
-4.99462e-11
-4.7249e-11
1.18346e-10
-1.68435e-11
-1.72685e-12
4.87892e-11
-2.57461e-12
-1.45149e-13
4.11949e-11
3.24193e-13
-1.60241e-15
1.56979e-11
2.46661e-12
-1.08295e-17
1.36927e-11
-4.66508e-13
1.42362e-11
1.99231e-11
-1.95708e-12
1.31655e-11
7.30162e-12
1.02386e-11
5.84005e-12
-5.15037e-12
1.90614e-11
7.93371e-12
1.99203e-12
8.44287e-11
1.71582e-11
1.39599e-12
4.85801e-12
2.83053e-11
1.07353e-13
-1.25454e-12
8.34431e-13
7.39414e-16
-4.34956e-14
5.23179e-15
3.52117e-18
-8.95406e-16
3.28877e-17
3.88207e-18
-9.81602e-18
7.76382e-19
1.14845e-12
-1.20915e-18
4.73019e-12
1.43828e-12
4.26339e-13
5.00886e-12
3.84625e-13
5.22112e-12
7.77154e-12
2.05151e-12
9.03605e-12
4.98632e-11
3.22843e-11
2.19199e-11
2.91488e-12
6.01155e-12
1.71955e-11
4.51693e-14
-1.67463e-13
5.58863e-13
8.91438e-16
-6.97232e-15
8.18365e-15
1.04754e-17
-1.56858e-16
1.55954e-16
1.12063e-18
-3.09133e-18
2.71666e-18
4.18508e-21
-2.02044e-19
8.567e-20
1.0204e-14
-6.9988e-20
1.17599e-13
-4.89371e-20
2.656e-13
6.42958e-13
1.8035e-14
1.37723e-12
1.38319e-11
3.22498e-13
8.7486e-12
6.27877e-13
-1.0202e-13
1.79337e-12
7.33962e-15
-7.9361e-15
1.12475e-14
1.68358e-16
-2.3756e-16
2.52302e-16
5.98846e-19
-1.89789e-18
1.08653e-17
4.79676e-20
-3.11392e-19
2.51001e-19
2.04586e-20
-1.75111e-19
3.2618e-20
3.00455e-21
-7.4242e-20
1.79603e-20
-7.25642e-20
2.12462e-20
6.81725e-15
5.1083e-17
1.08504e-14
2.13673e-13
2.89394e-15
9.96457e-14
1.27562e-14
-2.00378e-16
4.41625e-15
2.41439e-16
-5.57816e-17
4.3027e-17
7.1874e-19
-6.97366e-19
2.48743e-18
1.80843e-19
-9.64121e-20
8.86787e-20
8.87774e-20
-7.75189e-20
3.62179e-20
4.69165e-20
-1.27994e-19
3.62863e-20
1.01139e-20
-5.40072e-20
1.3578e-20
-9.68922e-20
1.79409e-20
2.11677e-17
2.9001e-17
1.62252e-20
1.86675e-15
9.10043e-16
4.67764e-18
9.40989e-17
2.62628e-17
-3.34152e-18
1.19121e-19
2.4835e-19
-1.18613e-20
3.38411e-20
8.36625e-21
-2.87372e-21
2.96302e-20
6.57117e-21
-3.67226e-21
2.02432e-20
6.19876e-21
-6.50491e-21
2.73628e-20
1.38756e-20
-1.26984e-20
1.07495e-20
1.01494e-20
-2.08061e-20
2.019e-20
-9.08383e-20
1.42312e-07
-2.66203e-07
2.4725e-07
2.90371e-07
-2.95487e-07
2.89106e-07
4.0458e-07
-2.71729e-07
3.06752e-07
4.81698e-07
-2.56607e-07
3.43796e-07
5.16551e-07
-2.44652e-07
3.91014e-07
5.04169e-07
-2.3317e-07
4.42006e-07
4.42112e-07
-2.22141e-07
4.91753e-07
3.32682e-07
-2.1155e-07
5.33955e-07
1.82322e-07
-2.01453e-07
5.65797e-07
-2.00542e-07
5.81692e-07
1.33402e-07
-5.12329e-07
2.29705e-07
2.66585e-07
-5.60912e-07
2.64798e-07
3.67084e-07
-5.16941e-07
2.86707e-07
4.31235e-07
-4.89122e-07
3.27183e-07
4.55826e-07
-4.68567e-07
3.759e-07
4.38873e-07
-4.51444e-07
4.27519e-07
3.80812e-07
-4.38144e-07
4.77579e-07
2.85094e-07
-4.27342e-07
5.19829e-07
1.55571e-07
-4.20032e-07
5.56475e-07
-4.31467e-07
5.77237e-07
1.61725e-07
-8.00203e-07
2.67983e-07
3.107e-07
-8.57964e-07
3.09087e-07
4.23788e-07
-7.97078e-07
3.44201e-07
4.9581e-07
-7.61053e-07
4.02026e-07
5.23038e-07
-7.37474e-07
4.70464e-07
5.03126e-07
-7.19946e-07
5.42009e-07
4.36201e-07
-7.07514e-07
6.092e-07
3.2367e-07
-6.97703e-07
6.6638e-07
1.71897e-07
-6.95968e-07
7.15359e-07
-7.22257e-07
7.38332e-07
1.90035e-07
-1.12429e-06
3.00577e-07
3.49737e-07
-1.17624e-06
3.47875e-07
4.68475e-07
-1.10668e-06
4.07732e-07
5.41085e-07
-1.07422e-06
4.97501e-07
5.64482e-07
-1.06149e-06
6.00713e-07
5.3819e-07
-1.06022e-06
7.08005e-07
4.62953e-07
-1.06339e-06
8.09379e-07
3.38811e-07
-1.0659e-06
8.99973e-07
1.76059e-07
-1.07936e-06
9.7658e-07
-1.12268e-06
1.00893e-06
2.2544e-07
-1.4938e-06
3.38247e-07
4.03999e-07
-1.53205e-06
4.01794e-07
5.29845e-07
-1.46828e-06
5.09697e-07
6.02406e-07
-1.4617e-06
6.6088e-07
6.23834e-07
-1.48594e-06
8.30808e-07
5.96033e-07
-1.52361e-06
1.00573e-06
5.1698e-07
-1.55426e-06
1.17497e-06
3.82815e-07
-1.56768e-06
1.33063e-06
1.98505e-07
-1.58303e-06
1.4584e-06
-1.62582e-06
1.50361e-06
2.97488e-07
-1.95909e-06
4.23523e-07
5.1384e-07
-1.96313e-06
5.11454e-07
6.50174e-07
-1.90208e-06
6.82126e-07
7.26946e-07
-1.93689e-06
9.15839e-07
7.46538e-07
-2.00293e-06
1.1718e-06
7.13827e-07
-2.07131e-06
1.42751e-06
6.2131e-07
-2.10437e-06
1.65873e-06
4.60776e-07
-2.09585e-06
1.84081e-06
2.36033e-07
-2.06622e-06
1.96086e-06
-2.08467e-06
2.01819e-06
4.30792e-07
-2.52036e-06
5.216e-07
6.37721e-07
-2.36978e-06
6.3038e-07
7.25012e-07
-2.24767e-06
8.1425e-07
7.66715e-07
-2.35442e-06
1.14896e-06
7.43344e-07
-2.4612e-06
1.51173e-06
6.60399e-07
-2.56698e-06
1.82684e-06
4.92386e-07
-2.5922e-06
2.06223e-06
2.99478e-07
-2.37556e-06
2.09919e-06
1.37744e-07
-2.10228e-06
2.05216e-06
-1.91895e-06
2.06703e-06
4.94325e-07
-2.82347e-06
2.36173e-07
5.42134e-07
-2.42694e-06
5.00272e-07
4.18968e-07
-2.20454e-06
8.19989e-07
2.54736e-07
-1.93939e-06
1.33476e-06
1.54277e-07
-1.42189e-06
1.61614e-06
2.72507e-08
-9.31274e-07
1.59074e-06
-1.60766e-08
-2.38539e-10
1.25027e-06
1.81645e-08
-8.61465e-11
9.89881e-07
3.30634e-08
-5.31335e-11
7.88972e-07
-4.25513e-11
6.8165e-07
2.38636e-07
-1.79494e-06
-5.2337e-07
1.47545e-07
-1.35092e-06
1.48646e-07
-1.99241e-08
-6.45052e-07
7.68826e-07
-1.27857e-07
-1.37569e-08
5.15955e-07
-5.06446e-08
-7.50553e-12
1.68021e-07
-1.92057e-12
-1.30699e-10
4.48829e-09
1.94599e-12
-1.75594e-11
-2.16396e-10
1.25845e-12
-6.04425e-11
-1.1418e-11
9.06459e-13
-4.75458e-11
-3.39594e-12
-3.87933e-11
-3.02115e-12
3.79432e-08
-3.63779e-07
-1.18921e-07
5.50101e-08
-1.36283e-07
2.15795e-07
1.38962e-08
-2.51663e-10
5.5373e-08
-5.55503e-12
-3.79512e-13
-1.85392e-13
-1.39782e-11
-3.9802e-12
-2.81299e-11
-4.1596e-11
-1.0364e-12
-1.39342e-10
-5.75158e-11
7.47383e-12
-6.32415e-11
-4.75666e-11
3.75812e-12
-1.19358e-10
-1.79722e-11
-2.11857e-11
-2.89086e-10
-4.28597e-11
-1.11512e-10
-2.32803e-09
-3.6407e-08
1.7186e-08
-2.15946e-11
-3.21646e-09
1.34345e-09
-4.01477e-11
-4.90533e-12
-1.43285e-10
-4.79587e-11
4.27632e-11
-8.39714e-11
-6.43858e-11
3.46248e-11
-1.0113e-10
-7.11688e-11
4.24774e-11
-9.05045e-11
-5.59044e-11
3.33016e-11
-6.15214e-11
-1.25829e-10
1.4487e-11
3.73533e-11
-6.2465e-11
1.55333e-12
-6.06839e-10
-6.4499e-12
-2.34187e-10
-1.87172e-09
3.84958e-09
-3.10397e-10
-2.48248e-09
5.39169e-10
-1.30324e-09
-6.92156e-10
1.11972e-09
-2.90586e-10
-3.2225e-11
3.54313e-10
-1.14523e-10
-2.31726e-11
8.39415e-11
-9.81886e-11
-1.92813e-11
8.74246e-11
-7.6082e-11
-3.0775e-11
9.31379e-11
-5.34155e-11
-1.32187e-11
1.18093e-11
-1.61476e-11
-4.45854e-12
8.58701e-14
7.79875e-13
-8.18349e-13
-3.22765e-13
-1.08115e-09
-3.71817e-10
-2.82135e-10
-2.56577e-09
2.11482e-09
-1.84702e-09
-2.54127e-09
2.26319e-09
-2.27436e-09
-2.21443e-09
1.1806e-09
-2.11268e-09
-1.77768e-09
3.69584e-10
-6.39749e-10
-5.94084e-10
-2.5697e-11
-2.45777e-10
4.66347e-12
-4.67222e-11
4.88525e-11
1.76041e-12
-2.15914e-12
4.77321e-11
2.8302e-12
-2.21968e-12
1.16883e-12
-3.82852e-11
2.67841e-12
-2.80054e-10
2.88587e-11
-1.70997e-10
-1.59167e-09
1.72462e-09
-1.13301e-09
-1.00758e-09
2.46716e-09
-7.73262e-10
-6.88198e-10
1.67729e-10
1.66391e-10
-5.92757e-11
-3.775e-11
4.34709e-11
8.44556e-13
-1.52974e-11
2.37268e-11
1.73045e-12
-7.439e-12
5.71483e-12
1.66748e-11
-2.28212e-12
7.86125e-13
5.00285e-11
-6.12644e-12
4.83002e-11
-3.85902e-11
2.88919e-11
-7.88017e-11
1.58668e-10
-2.07598e-11
-3.50037e-10
3.1588e-11
-1.86871e-10
-1.17272e-10
-1.5699e-11
1.32642e-10
-2.8033e-12
-1.49269e-12
2.31566e-11
-7.1189e-14
-2.79368e-13
1.01496e-12
5.82818e-14
-1.3168e-14
2.85257e-13
1.13347e-12
-2.5052e-16
4.44897e-13
3.72468e-12
-2.67292e-12
3.58644e-13
2.60168e-11
-2.28587e-12
1.9447e-12
-1.96662e-11
4.28195e-11
9.83913e-13
1.49905e-10
1.28799e-11
-1.81483e-12
-3.03339e-11
1.0974e-11
2.14657e-12
-2.2617e-11
3.02885e-11
2.18955e-13
-1.0522e-14
6.29953e-13
1.00352e-14
-7.30556e-14
8.89203e-15
2.00332e-16
-3.52925e-15
2.57278e-16
3.55632e-17
-8.78889e-17
5.81441e-18
7.16156e-13
-2.24417e-17
1.39836e-13
3.34076e-13
-1.14683e-13
2.81154e-13
-2.59954e-13
1.40167e-12
2.23451e-11
6.0916e-11
5.95853e-11
1.51321e-11
3.98011e-11
2.0535e-11
-7.80673e-14
1.11712e-11
3.73676e-12
5.56352e-14
-1.08548e-14
4.4086e-13
2.86302e-15
-2.33516e-14
1.24155e-14
8.52874e-17
-1.01504e-15
4.6382e-16
2.0813e-17
-2.93809e-17
9.81211e-18
1.50026e-19
-1.96571e-18
3.94422e-19
5.80662e-16
-5.40927e-19
2.3361e-15
-9.22129e-20
5.67805e-15
1.54037e-11
7.85363e-13
2.34954e-11
1.69609e-11
1.46712e-12
2.15573e-11
5.27956e-13
1.81613e-12
6.96193e-12
3.36026e-14
6.86413e-15
2.10401e-13
1.25988e-15
-9.73043e-16
4.79825e-15
2.79537e-17
-2.64544e-17
1.3783e-16
6.59008e-19
-2.17416e-18
3.64043e-18
3.64238e-19
-9.46744e-19
4.67464e-19
9.71005e-21
-1.99137e-19
2.72553e-20
-9.4743e-20
2.61797e-20
2.65584e-13
7.55384e-15
5.09677e-13
8.65733e-13
4.8289e-14
7.79476e-13
1.99672e-13
-2.24798e-14
2.14595e-13
1.22903e-15
-2.60856e-17
7.1998e-15
2.856e-17
-3.08876e-17
2.22909e-16
1.1795e-18
-5.0976e-19
3.15817e-18
7.84327e-19
-4.64103e-19
5.48155e-19
3.14251e-19
-4.23486e-19
3.23115e-19
3.2364e-20
-1.60787e-19
9.65619e-20
-1.38554e-19
5.1349e-20
3.06971e-15
4.06121e-15
1.70167e-17
2.67398e-14
2.26996e-14
3.34063e-16
6.46638e-16
3.41201e-15
-1.73203e-16
3.36625e-17
4.32753e-17
-2.44731e-18
2.55362e-19
7.48032e-19
-3.28149e-20
2.37904e-19
9.64158e-20
-3.58286e-20
1.80059e-19
8.51743e-20
-3.87229e-20
1.16193e-19
8.78528e-20
-5.2996e-20
4.01797e-20
7.47056e-20
-8.34989e-20
6.87043e-20
-1.29774e-19
1.49884e-07
-2.41014e-07
3.38381e-07
3.08031e-07
-2.71782e-07
4.0274e-07
4.28312e-07
-2.3992e-07
4.26391e-07
5.0762e-07
-2.14916e-07
4.79404e-07
5.42034e-07
-1.93581e-07
5.5018e-07
5.2753e-07
-1.74388e-07
6.30898e-07
4.6098e-07
-1.58098e-07
7.164e-07
3.41832e-07
-1.4679e-07
7.99894e-07
1.8148e-07
-1.44918e-07
8.71068e-07
-1.5359e-07
9.04667e-07
1.42836e-07
-4.65451e-07
3.11306e-07
2.88476e-07
-5.17099e-07
3.64476e-07
3.95836e-07
-4.53691e-07
3.93119e-07
4.61497e-07
-4.03343e-07
4.49949e-07
4.83493e-07
-3.61272e-07
5.21595e-07
4.60982e-07
-3.26854e-07
6.02495e-07
3.93621e-07
-3.01829e-07
6.88671e-07
2.83935e-07
-2.90259e-07
7.72983e-07
1.49539e-07
-2.99009e-07
8.44962e-07
-3.29974e-07
8.88211e-07
1.77847e-07
-7.35227e-07
3.59913e-07
3.45824e-07
-7.9744e-07
4.2145e-07
4.70067e-07
-7.01466e-07
4.67733e-07
5.45649e-07
-6.2451e-07
5.47613e-07
5.70172e-07
-5.60469e-07
6.45138e-07
5.42166e-07
-5.07373e-07
7.50533e-07
4.59917e-07
-4.69155e-07
8.58775e-07
3.31287e-07
-4.50795e-07
9.55546e-07
1.78349e-07
-4.63264e-07
1.03255e-06
-5.08314e-07
1.08007e-06
2.17588e-07
-1.0493e-06
3.9706e-07
4.09491e-07
-1.1074e-06
4.65933e-07
5.48039e-07
-9.78041e-07
5.45758e-07
6.2754e-07
-8.72882e-07
6.66373e-07
6.47986e-07
-7.86397e-07
8.06196e-07
6.10203e-07
-7.16002e-07
9.54418e-07
5.13545e-07
-6.67686e-07
1.10457e-06
3.69632e-07
-6.42679e-07
1.23577e-06
1.98771e-07
-6.55915e-07
1.34009e-06
-6.91016e-07
1.37701e-06
2.74717e-07
-1.42341e-06
4.37642e-07
5.11575e-07
-1.46956e-06
5.27092e-07
6.70539e-07
-1.29587e-06
6.68559e-07
7.52036e-07
-1.15547e-06
8.61969e-07
7.6328e-07
-1.04287e-06
1.07603e-06
7.12661e-07
-9.57266e-07
1.29761e-06
6.01008e-07
-8.95146e-07
1.51409e-06
4.37199e-07
-8.50081e-07
1.70184e-06
2.28815e-07
-8.31638e-07
1.84251e-06
-8.19254e-07
1.85209e-06
3.84762e-07
-1.90243e-06
5.17782e-07
6.84654e-07
-1.90497e-06
6.46975e-07
8.67879e-07
-1.65944e-06
8.62479e-07
9.49899e-07
-1.45898e-06
1.13734e-06
9.46584e-07
-1.3053e-06
1.43755e-06
8.88116e-07
-1.21051e-06
1.73923e-06
7.79039e-07
-1.13194e-06
2.0046e-06
5.95834e-07
-1.04188e-06
2.21581e-06
3.16916e-07
-9.46025e-07
2.35417e-06
-8.7166e-07
2.37693e-06
5.55102e-07
-2.42439e-06
4.88526e-07
8.30836e-07
-2.2611e-06
7.10843e-07
1.01464e-06
-1.99973e-06
9.70809e-07
1.11255e-06
-1.72227e-06
1.31445e-06
1.11179e-06
-1.49868e-06
1.70599e-06
1.08257e-06
-1.4286e-06
2.07425e-06
9.82804e-07
-1.35486e-06
2.38622e-06
7.29193e-07
-1.1627e-06
2.55713e-06
3.83433e-07
-9.66966e-07
2.59745e-06
-8.17942e-07
2.64307e-06
6.65408e-07
-2.59253e-06
-1.74333e-07
8.74344e-07
-2.24303e-06
3.56197e-07
9.33371e-07
-1.90078e-06
8.30088e-07
8.3568e-07
-1.22042e-06
1.37627e-06
7.1142e-07
-7.57213e-07
1.79883e-06
5.50962e-07
-5.18689e-07
1.97355e-06
3.56992e-07
-4.7201e-09
1.77811e-06
2.08955e-07
-4.98695e-10
1.57866e-06
1.09264e-07
-5.51276e-10
1.50845e-06
-7.77592e-10
1.44965e-06
3.81701e-07
-9.09387e-07
-5.42668e-07
6.99409e-07
-6.96482e-07
-5.8287e-09
3.6571e-07
-1.10253e-07
5.26874e-07
4.5962e-08
-5.88465e-11
4.96584e-07
-1.03153e-08
-2.64248e-10
2.13197e-07
4.15612e-09
-1.19763e-09
2.98113e-08
-1.21256e-11
-8.30746e-14
-7.79311e-10
-8.4334e-12
-7.65482e-11
-4.03525e-10
-4.84297e-12
-1.94299e-10
-3.49273e-10
-5.06471e-11
-7.39594e-10
2.06805e-08
-1.73441e-08
1.16952e-07
5.94111e-08
-1.51375e-09
8.10956e-08
-2.45229e-12
3.27147e-11
4.6108e-09
-1.66671e-11
-1.25211e-11
-3.61297e-12
-7.7041e-11
-5.13161e-11
-2.09014e-10
-3.94837e-10
-1.95535e-10
-8.66119e-10
-4.43626e-10
-6.01797e-11
-5.3107e-11
-6.17131e-10
-1.98314e-10
-1.46604e-09
-2.92493e-10
-4.40749e-10
-7.00695e-10
-2.75103e-10
1.35841e-11
-5.46967e-11
-1.48082e-10
-3.59786e-12
-2.37073e-10
-5.73546e-11
-2.21886e-11
-1.85042e-10
5.82801e-11
-1.30505e-10
-2.66333e-10
3.29574e-11
8.90813e-12
-3.84775e-10
-2.544e-11
-4.54601e-11
-4.68473e-10
-4.30049e-11
-3.04182e-10
-7.16555e-10
-7.6611e-11
-1.83343e-09
-6.60404e-10
-2.75674e-10
-1.39681e-09
-2.81349e-10
-3.74589e-11
-2.97327e-10
-4.3422e-11
-1.77678e-10
-7.75331e-10
4.04419e-10
-3.72578e-10
-3.45836e-10
1.12176e-09
-3.78194e-10
-1.09745e-10
1.98239e-10
-1.35456e-10
-8.36457e-11
-1.32919e-10
-1.2947e-10
-4.57995e-11
-6.18754e-11
-6.14003e-11
-6.21533e-11
-8.87958e-11
-3.17669e-11
-6.1621e-11
-1.8631e-10
-5.4271e-12
-2.43601e-11
-1.28218e-10
-2.7136e-14
-6.84345e-13
-2.52873e-11
9.65067e-13
-3.58788e-11
-4.10852e-14
-1.5143e-09
1.03612e-09
-3.76841e-10
-2.01778e-09
2.44036e-09
-1.82291e-09
-2.0028e-09
7.96979e-10
-2.13599e-09
-8.01111e-10
-1.86482e-10
-8.31318e-10
-1.14373e-10
-1.98357e-11
-2.32691e-10
-2.87912e-11
-1.09361e-11
-2.46318e-10
2.16266e-11
-4.57315e-12
-9.7628e-12
2.11258e-13
-7.38069e-13
-1.15588e-13
2.2124e-12
-3.32888e-11
5.43833e-13
-8.23926e-11
4.33386e-13
-4.21409e-10
2.12364e-10
-1.20582e-10
-5.90243e-10
2.77321e-09
-4.4919e-10
-5.30438e-10
5.05201e-10
-5.6146e-10
-4.71e-11
-2.05734e-11
-1.08904e-12
-2.75545e-13
-1.05753e-12
5.51628e-12
6.11541e-13
-2.85972e-13
1.091e-11
1.47631e-13
-3.53453e-13
1.88997e-12
2.95016e-13
-2.20097e-13
4.8265e-14
3.10406e-11
-6.22526e-12
3.29507e-13
-9.69988e-11
6.52798e-12
4.20775e-11
1.50045e-11
-5.71981e-12
7.97133e-11
-2.66127e-11
-4.29647e-11
-3.68041e-12
-5.19384e-11
-7.00129e-12
9.28754e-14
-2.63866e-15
1.16834e-12
1.92856e-14
-1.14516e-13
1.02111e-13
9.70009e-15
-1.292e-14
2.10402e-14
3.74868e-14
-9.79311e-16
6.46429e-14
2.35003e-13
-1.19734e-13
5.92805e-14
6.98839e-12
-2.88373e-13
1.96212e-13
-1.38887e-12
4.35641e-12
2.45383e-11
4.03361e-11
-2.30208e-13
2.08185e-11
-1.33105e-11
1.30684e-12
3.60074e-12
-8.29762e-12
2.15558e-12
2.07071e-13
8.77834e-14
8.49141e-13
1.30454e-14
-1.48614e-14
3.35754e-14
9.9603e-16
-1.36477e-15
7.56908e-16
6.16804e-17
-5.3956e-17
1.52006e-17
1.65131e-14
-1.52076e-17
3.6668e-15
5.45704e-15
-2.29589e-15
6.07818e-15
-5.50598e-15
1.89888e-14
2.13964e-11
1.5857e-11
9.30418e-12
2.80664e-12
2.19647e-11
8.58374e-13
-4.66335e-13
3.21546e-12
-1.25761e-13
1.2919e-15
9.75873e-15
4.90728e-14
6.53647e-16
-5.667e-15
3.8466e-15
-9.81972e-19
-3.2682e-16
1.06481e-16
1.22407e-17
-1.30118e-17
2.87833e-18
1.85349e-19
-3.11151e-18
1.75712e-19
1.20442e-17
-1.13604e-18
2.94803e-17
-1.56959e-19
1.70182e-16
3.74516e-12
-4.35292e-13
7.71379e-13
9.41293e-12
1.91195e-12
2.79649e-12
-1.33089e-13
1.8371e-12
6.88076e-13
4.37611e-15
6.66406e-15
3.36699e-14
2.79768e-16
-2.79777e-16
1.63199e-15
7.21777e-18
-9.98611e-18
2.33918e-17
2.34878e-18
-3.26665e-18
2.69797e-18
9.12494e-19
-1.36652e-18
9.25231e-19
1.53561e-20
-2.5001e-19
3.41129e-20
-1.50431e-19
2.73035e-20
1.28634e-14
-3.19793e-15
1.65584e-14
2.70414e-13
-1.67051e-14
1.93364e-13
1.30549e-13
-7.6478e-15
1.13016e-13
1.00836e-16
-1.73324e-17
3.2561e-15
1.25532e-18
-7.53936e-18
3.73585e-17
1.4577e-18
-2.92749e-19
1.17057e-18
1.12214e-18
-3.03103e-19
7.97962e-19
2.90008e-19
-3.37052e-19
4.37732e-19
6.14179e-20
-2.90335e-19
1.75369e-19
-2.8817e-19
1.54222e-19
1.05381e-16
1.50973e-16
-8.92009e-18
4.93553e-15
8.09438e-16
-1.29891e-16
3.28208e-16
3.25631e-16
-3.96419e-17
1.15631e-17
9.06868e-18
-5.84228e-19
1.61294e-19
1.57481e-19
-1.16683e-20
1.57546e-19
6.0225e-20
-1.84063e-20
1.33088e-19
7.6373e-20
-3.46922e-20
1.41578e-19
1.19458e-19
-9.52305e-20
1.10189e-19
3.46816e-19
-3.70406e-19
2.97568e-19
-3.1319e-19
1.64896e-07
-2.19834e-07
3.93318e-07
3.45037e-07
-2.56712e-07
4.79311e-07
4.81313e-07
-2.14954e-07
5.0507e-07
5.6996e-07
-1.76622e-07
5.67377e-07
6.08312e-07
-1.4166e-07
6.53488e-07
5.92993e-07
-1.06579e-07
7.52796e-07
5.21247e-07
-7.21514e-08
8.60298e-07
3.96082e-07
-4.3835e-08
9.68893e-07
2.22337e-07
-1.53558e-08
1.06017e-06
-2.33059e-09
1.11579e-06
1.59621e-07
-4.2628e-07
3.58131e-07
3.28933e-07
-4.89417e-07
4.27869e-07
4.52641e-07
-4.03441e-07
4.57897e-07
5.2695e-07
-3.24357e-07
5.23375e-07
5.52394e-07
-2.54005e-07
6.08497e-07
5.29553e-07
-1.86644e-07
7.05401e-07
4.60496e-07
-1.28882e-07
8.14458e-07
3.55509e-07
-8.82453e-08
9.2238e-07
2.18046e-07
-5.40866e-08
1.02116e-06
-4.37376e-09
1.08112e-06
2.02759e-07
-6.82187e-07
4.1306e-07
4.03651e-07
-7.61707e-07
4.92847e-07
5.49933e-07
-6.24785e-07
5.42796e-07
6.36647e-07
-4.97219e-07
6.3376e-07
6.63767e-07
-3.81169e-07
7.45182e-07
6.31997e-07
-2.7154e-07
8.672e-07
5.47619e-07
-1.80529e-07
9.94799e-07
4.13711e-07
-1.18506e-07
1.11971e-06
2.4181e-07
-6.7944e-08
1.21831e-06
8.40475e-08
1.20227e-06
2.57636e-07
-9.94401e-07
4.51638e-07
4.99295e-07
-1.07562e-06
5.38191e-07
6.68639e-07
-8.73508e-07
6.25137e-07
7.63093e-07
-6.85876e-07
7.60576e-07
7.86205e-07
-5.14374e-07
9.16288e-07
7.40628e-07
-3.57877e-07
1.08633e-06
6.35359e-07
-2.30221e-07
1.25953e-06
4.67128e-07
-1.4049e-07
1.42599e-06
2.55764e-07
-4.91014e-08
1.53261e-06
2.48087e-07
1.43862e-06
3.46497e-07
-1.3979e-06
4.94642e-07
6.62571e-07
-1.46465e-06
6.00045e-07
8.63852e-07
-1.15714e-06
7.50909e-07
9.61207e-07
-8.81667e-07
9.60405e-07
9.69008e-07
-6.38731e-07
1.19259e-06
8.95482e-07
-4.25541e-07
1.4388e-06
7.5045e-07
-2.60536e-07
1.68943e-06
5.25237e-07
-1.32451e-07
1.91901e-06
2.45276e-07
3.0357e-08
2.04301e-06
4.27582e-07
1.88526e-06
5.16886e-07
-1.95553e-06
5.58537e-07
9.1746e-07
-1.94365e-06
7.25408e-07
1.14216e-06
-1.46709e-06
9.47728e-07
1.22635e-06
-1.0546e-06
1.22609e-06
1.20114e-06
-7.26667e-07
1.5507e-06
1.09072e-06
-4.59006e-07
1.88311e-06
9.18587e-07
-2.65086e-07
2.18128e-06
6.44956e-07
-7.85398e-08
2.43553e-06
2.71958e-07
1.9215e-07
2.56537e-06
6.03736e-07
2.43784e-06
7.73878e-07
-2.58402e-06
3.43425e-07
1.16422e-06
-2.37204e-06
7.49171e-07
1.35169e-06
-1.75314e-06
1.06952e-06
1.39451e-06
-1.13466e-06
1.35171e-06
1.36672e-06
-7.10892e-07
1.71797e-06
1.30876e-06
-4.86312e-07
2.15946e-06
1.18947e-06
-3.93758e-07
2.63413e-06
8.95e-07
-2.19286e-07
2.99921e-06
4.66228e-07
5.94794e-08
3.14837e-06
3.88438e-07
3.13551e-06
9.56875e-07
-2.54477e-06
-5.34623e-07
1.37474e-06
-1.97837e-06
1.97104e-07
1.44844e-06
-1.29893e-06
7.46217e-07
1.31584e-06
-6.0371e-07
1.24071e-06
1.14767e-06
-2.54196e-07
1.69048e-06
8.59631e-07
-9.80185e-08
1.99335e-06
5.60921e-07
-1.36572e-08
2.11629e-06
3.20112e-07
-1.00861e-08
2.10635e-06
1.4901e-07
-1.56617e-08
2.1241e-06
-1.60061e-08
2.11486e-06
2.1453e-07
-1.13801e-07
-1.64898e-07
4.8778e-07
-7.98763e-08
-1.0277e-07
4.40689e-07
-4.52032e-09
1.31723e-07
1.67016e-07
-3.77867e-10
2.64146e-07
3.71787e-08
-2.97898e-09
1.80304e-07
1.40578e-08
-8.24066e-09
3.2756e-08
-2.91303e-10
-1.94549e-10
-1.76583e-09
-6.6816e-10
-1.89901e-09
-8.17042e-09
-1.00039e-09
-7.59089e-10
-1.49406e-08
-4.02285e-10
-1.67495e-08
-1.32728e-09
-5.8891e-11
4.50162e-09
-5.7419e-11
-6.23971e-11
-2.45999e-12
-2.59191e-11
-2.49172e-11
7.84829e-11
-1.79709e-10
-1.12077e-10
2.16797e-12
-6.70344e-10
-1.78104e-09
-9.53209e-10
-3.27559e-09
-3.71758e-09
-2.91056e-09
-4.11409e-09
-2.94554e-09
-2.30453e-09
-3.41444e-09
-3.50857e-09
-2.62326e-09
-4.83318e-10
-6.23718e-10
-2.44792e-10
-1.51841e-10
-2.83304e-10
-5.56798e-11
-2.58353e-11
-1.8896e-12
-1.34787e-10
4.1578e-12
-4.54883e-11
-5.97708e-10
1.63511e-10
-3.26365e-10
-1.21146e-09
-7.52054e-11
-1.73791e-09
-2.40171e-09
-1.92671e-10
-2.48845e-09
-4.8015e-09
-3.7846e-10
-1.69958e-09
-4.56691e-09
-3.45545e-10
-2.19224e-09
-1.18602e-09
-7.73258e-12
-1.11052e-09
-1.04798e-10
-1.45468e-12
-2.76079e-11
-2.83598e-12
-1.87559e-11
-2.28448e-10
1.12732e-09
-1.37862e-10
-1.27251e-10
7.25461e-10
-1.02125e-10
-9.47836e-11
1.44422e-10
-1.85736e-10
-4.04492e-11
-1.38585e-10
-3.61631e-11
-2.46503e-11
-2.29703e-10
-4.05192e-11
-1.28069e-11
-4.01388e-10
-1.56927e-11
-2.54257e-13
-3.62462e-10
-1.04653e-12
-6.26946e-14
-8.10812e-12
-4.13701e-14
-7.82791e-14
-7.07365e-13
-1.23383e-14
-1.42429e-12
-2.10659e-13
-6.98091e-10
7.95838e-10
-5.03375e-11
-1.07916e-09
1.26727e-09
-1.07304e-09
-4.23173e-10
-1.06112e-10
-1.45918e-09
-2.08868e-10
-1.09148e-11
-1.20238e-10
-1.51622e-10
-4.70135e-10
-2.68326e-10
-9.18782e-11
-5.0744e-10
-1.71618e-10
4.0162e-12
-3.1961e-10
-2.52831e-11
-1.70549e-13
-4.14015e-12
4.60262e-13
1.05053e-14
-6.47575e-13
5.16217e-14
-4.70239e-12
3.70918e-14
1.08727e-10
1.52415e-11
-1.51614e-11
3.60161e-10
4.18078e-11
-1.94106e-10
1.37335e-11
-3.11792e-12
-1.74322e-11
2.44437e-13
-2.49812e-12
1.94226e-13
3.70556e-11
-5.53684e-13
2.89884e-11
8.27145e-11
-3.00797e-13
-1.36533e-11
6.48574e-12
-6.96207e-14
-4.66765e-12
-5.6116e-14
-9.52277e-15
7.08709e-13
5.25028e-14
-3.48691e-13
2.5017e-15
-3.96769e-12
-3.18128e-14
9.71093e-12
-2.83411e-13
-6.50289e-13
1.00775e-11
-1.42354e-12
-1.16578e-13
3.20255e-12
-1.97577e-13
8.37922e-14
1.22604e-12
-4.09054e-13
3.90447e-13
2.89716e-13
-1.56982e-13
2.65804e-13
7.39737e-15
-4.8861e-15
6.90546e-15
1.1293e-15
-1.34273e-16
1.35885e-15
1.36045e-15
-3.14096e-15
5.29736e-14
2.93493e-14
-5.93695e-15
4.60593e-14
-2.84145e-13
1.42289e-14
5.58831e-13
-1.10843e-12
5.01769e-14
4.24564e-13
4.93472e-14
-3.50312e-15
7.97477e-13
1.66892e-14
5.28462e-14
1.25102e-13
-5.97883e-14
-7.1293e-15
4.32181e-15
-5.91737e-15
2.7502e-15
1.83765e-16
-1.35817e-16
1.1574e-16
4.51003e-18
-6.91314e-18
2.75821e-18
2.10022e-16
-2.42097e-19
3.18713e-16
9.67814e-17
-2.81014e-17
2.81691e-16
-1.67379e-16
3.11519e-14
8.33341e-13
-2.61893e-13
7.95094e-14
3.07031e-13
5.76109e-14
3.87155e-14
5.25457e-14
1.46954e-14
-1.14364e-14
1.51113e-15
-8.06808e-15
7.01262e-16
3.00041e-17
-7.0131e-16
7.82718e-17
3.44839e-18
-3.02319e-17
1.55603e-17
2.24536e-18
-2.60148e-18
1.04625e-17
6.60118e-20
-1.13589e-18
7.92938e-20
3.28773e-19
-1.08735e-19
7.85774e-19
-3.7594e-19
3.22872e-18
2.72756e-14
-1.19082e-14
1.55048e-14
3.6198e-13
4.52245e-14
4.66803e-14
3.99208e-14
1.615e-14
-2.89658e-15
-7.79785e-16
-3.31668e-16
7.59382e-16
2.37974e-18
-2.31378e-17
1.29497e-17
3.00819e-18
-1.72979e-18
6.4107e-18
8.22291e-19
-1.23413e-18
5.19455e-17
3.92434e-19
-7.03132e-19
1.0199e-18
2.41087e-20
-1.03256e-19
9.41278e-20
-3.79386e-19
4.61539e-20
1.58837e-16
-1.20563e-16
4.72642e-16
1.08283e-14
-3.36246e-16
1.71798e-15
3.09357e-15
-3.85242e-18
5.58964e-17
1.19017e-17
-7.79551e-18
6.95808e-18
1.31321e-18
-1.9168e-19
1.41598e-18
8.01086e-19
-1.49393e-19
5.32361e-19
6.7625e-19
-2.23214e-19
3.14251e-19
2.5662e-19
-3.28594e-19
2.42803e-19
1.12065e-19
-1.73916e-18
3.59293e-19
-2.42033e-18
1.02979e-18
9.09544e-19
1.08773e-18
-3.84367e-20
6.21858e-17
3.66946e-17
-2.79005e-18
1.02883e-17
9.71166e-18
-4.93341e-19
1.49162e-19
1.09656e-19
-8.60905e-21
9.48771e-20
7.45877e-20
-1.6951e-20
8.94929e-20
4.87276e-20
-2.94167e-20
1.70389e-19
8.19561e-20
-1.00496e-19
3.00017e-19
2.1861e-19
-4.19369e-19
1.24696e-18
6.66502e-18
-8.36276e-18
6.89112e-18
-5.58845e-18
1.81732e-07
-1.97514e-07
4.09101e-07
3.92195e-07
-2.44786e-07
5.13634e-07
5.51939e-07
-1.93656e-07
5.38981e-07
6.55937e-07
-1.41598e-07
6.04978e-07
7.03103e-07
-9.3142e-08
6.99464e-07
6.91635e-07
-4.42146e-08
8.08478e-07
6.20121e-07
3.87731e-09
9.27936e-07
4.83123e-07
5.70406e-08
1.04885e-06
2.78903e-07
1.08319e-07
1.15607e-06
1.83296e-07
1.18781e-06
1.77266e-07
-3.85158e-07
3.68508e-07
3.77559e-07
-4.68903e-07
4.51694e-07
5.2415e-07
-3.61332e-07
4.78982e-07