/*--------------------------------*- C++ -*----------------------------------*\
| =========                 |                                                 |
| \\      /  F ield         | OpenFOAM: The Open Source CFD Toolbox           |
|  \\    /   O peration     | Version:  2312                                  |
|   \\  /    A nd           | Website:  www.openfoam.com                      |
|    \\/     M anipulation  |                                                 |
\*---------------------------------------------------------------------------*/
FoamFile
{
    version     2.0;
    format      ascii;
    arch        "LSB;label=32;scalar=64";
    class       volVectorField;
    location    "0.62";
    object      U;
}
// * * * * * * * * * * * * * * * * * * * * * * * * * * * * * * * * * * * * * //

dimensions      [0 1 -1 0 0 0 0];

internalField   nonuniform List<vector> 
8000
(
(7.43689e-05 -0.00198002 0.000103933)
(0.00329355 -0.00364634 -0.00026318)
(0.00773942 -0.00273883 -0.000438411)
(0.00996277 -0.0017879 -0.000349154)
(0.0105566 -0.00111186 -0.000242262)
(0.00992628 -0.000568284 -0.000280527)
(0.00830971 -5.31387e-05 -0.000492725)
(0.00589049 0.000389366 -0.000903232)
(0.00308129 0.000702298 -0.00139424)
(0.00040913 0.000860069 -0.00184615)
(-0.000960526 -0.0031179 -0.000981099)
(0.00206125 -0.00787981 -0.00224893)
(0.00670171 -0.00525768 -0.00222568)
(0.00839103 -0.002597 -0.00168692)
(0.00845665 -0.000842134 -0.00128016)
(0.00769612 0.000567648 -0.0011801)
(0.00640175 0.00193587 -0.00135766)
(0.00480431 0.00311708 -0.00169431)
(0.00270245 0.0039276 -0.00201418)
(0.000410069 0.00431006 -0.00235629)
(-0.000564705 -0.00319024 -0.000762404)
(0.0052302 -0.0118682 -0.00350932)
(0.0108389 -0.00661394 -0.00468877)
(0.0119989 -0.00218123 -0.00353673)
(0.0113981 -0.000290592 -0.00219251)
(0.0101455 0.00112291 -0.00147604)
(0.00838538 0.00277438 -0.00126272)
(0.00606643 0.00459448 -0.00141991)
(0.00330659 0.00602979 -0.00177004)
(0.000573374 0.0067426 -0.00218425)
(0.00475561 -0.00821216 0.00404343)
(0.014912 -0.0210193 0.00131766)
(0.0183366 -0.00764615 -0.00398304)
(0.0159318 0.000582951 -0.00487116)
(0.0135141 0.00261764 -0.00308524)
(0.0122919 0.00370128 -0.00155594)
(0.0105587 0.00561804 -0.00092872)
(0.00785704 0.00791841 -0.000851671)
(0.00441069 0.00942456 -0.000949237)
(0.000949521 0.00996751 -0.00121052)
(0.0137424 -0.0356921 0.0140723)
(0.0213655 -0.0443899 0.0164666)
(0.0153268 -0.0129407 0.00573463)
(0.0107972 0.00220793 0.000493323)
(0.00783554 0.00342829 0.000244839)
(0.00766691 0.00303822 0.0016841)
(0.00847254 0.00601696 0.00289075)
(0.00662785 0.00942313 0.00365137)
(0.00311507 0.0107202 0.00428261)
(0.000163827 0.0101269 0.00442137)
(0.0247814 -0.110885 0.0285336)
(0.0150566 -0.105124 0.0412873)
(-0.00978019 -0.0424698 0.0273185)
(-0.0108616 -0.0093455 0.0130828)
(-0.00759697 -0.00352694 0.0072646)
(-0.00669032 -0.0070763 0.00615157)
(-0.00556751 -0.0053162 0.00560656)
(-0.00482521 0.000220521 0.00595557)
(-0.00637839 0.000841731 0.00678134)
(-0.00392877 -0.00176998 0.00723816)
(0.0349521 -0.165615 0.0366146)
(-0.0351941 -0.121322 0.0510306)
(-0.0456987 -0.101107 0.045267)
(-0.0183687 -0.0675986 0.0284822)
(0.00501461 -0.0358159 0.0115989)
(0.0121819 -0.0177853 0.00222532)
(0.00325855 -0.00920018 -0.00490158)
(-0.00347363 -0.00552728 -0.00921245)
(-0.011599 -0.0108848 -0.0105733)
(-0.00687798 -0.0198158 -0.0103774)
(0.0171282 -0.0630328 0.0101142)
(-0.110084 0.056424 -0.0213369)
(-0.176964 -0.0977106 0.00093524)
(-0.162124 -0.138233 0.0245717)
(-0.048086 -0.0869258 0.018663)
(0.0204107 -0.049483 0.00041826)
(0.0620241 -0.00692819 -0.0127594)
(0.0457341 0.0283202 -0.0203617)
(0.0145444 0.0264343 -0.0220825)
(0.00102913 -0.0170259 -0.0199681)
(-0.0197147 -0.039419 -0.0272056)
(0.0213383 0.085532 -0.031839)
(0.0638123 0.0877433 -0.013546)
(-0.017638 -0.0601825 0.0248332)
(-0.230084 -0.171435 -0.0148163)
(-0.286474 -0.0936418 -0.0606157)
(-0.135452 -0.0323885 -0.0243307)
(0.00847371 0.0446937 -0.0141902)
(0.0532301 0.046595 -0.0161033)
(0.0538177 0.0247951 -0.018959)
(-0.0439743 -0.0103184 -0.0468884)
(-0.0305622 0.0424695 -0.0542777)
(0.0113488 0.0370665 -0.0130422)
(-0.0199304 0.0868155 0.0299132)
(-0.169867 0.058534 0.00191086)
(-0.31296 -0.0506212 -0.126994)
(-0.427697 -0.153338 -0.157582)
(-0.351998 -0.100867 -0.122566)
(-0.104767 0.0397301 -0.0727612)
(-0.0018158 0.0967944 -0.0395419)
(-0.0386342 0.0676876 -0.0416042)
(-0.0506294 0.0728568 -0.0438372)
(-0.0533549 0.0384387 -0.0242983)
(-0.049437 0.0556413 -0.00285905)
(-0.0552745 0.163861 0.0334555)
(-0.181817 0.231464 -0.0313515)
(-0.262516 0.147067 -0.157044)
(-0.250391 -0.0235425 -0.267519)
(-0.225543 -0.188109 -0.329707)
(-0.127932 0.0486371 -0.25384)
(-0.0188722 0.11744 -0.0293328)
(-0.0330384 0.114574 -0.0241034)
(-0.0602061 0.072706 -0.0231815)
(-0.0889184 0.058198 -0.0211418)
(-0.085469 0.118445 0.0246153)
(-0.13217 0.236789 0.0258387)
(-0.222864 0.285357 -0.0957168)
(-0.228158 0.27045 -0.231063)
(-0.246117 0.265362 -0.285559)
(-0.188561 0.289062 -0.300868)
(-0.00613131 0.136625 -0.0235047)
(-0.0171988 0.15081 -0.0150412)
(-0.0480117 0.129348 -0.0186857)
(-0.0807332 0.107588 -0.0320082)
(-0.104199 0.126196 -0.000949429)
(-0.13252 0.208927 0.035897)
(-0.206152 0.330145 -0.0247767)
(-0.237278 0.428169 -0.157107)
(-0.223616 0.462569 -0.237862)
(-0.164544 0.462614 -0.276686)
(-0.00406644 0.152302 -0.0200926)
(-0.0155457 0.183115 -0.0114105)
(-0.0497403 0.178225 -0.0127881)
(-0.0794717 0.153171 -0.0353966)
(-0.105132 0.155368 -0.0214259)
(-0.135003 0.205827 0.0162825)
(-0.180425 0.311955 0.0244102)
(-0.219407 0.453485 -0.0525618)
(-0.192098 0.548028 -0.150049)
(-0.126781 0.573411 -0.204414)
(-0.0198136 0.175498 -0.00923548)
(-0.0193961 0.20956 -0.00582358)
(-0.0539028 0.225169 -0.00196185)
(-0.0863707 0.206614 -0.0292403)
(-0.109402 0.195261 -0.0270652)
(-0.131196 0.216783 -0.00586075)
(-0.150319 0.279047 0.0274612)
(-0.173072 0.382005 0.0249714)
(-0.160257 0.489371 -0.0295391)
(-0.108937 0.551549 -0.0793249)
(-0.0354449 0.19445 0.00392217)
(-0.0296249 0.228076 -4.77065e-05)
(-0.0582479 0.253756 0.00521077)
(-0.0871472 0.244771 -0.0211513)
(-0.104378 0.225862 -0.0225528)
(-0.120948 0.231515 -0.0153388)
(-0.124695 0.262805 0.00567115)
(-0.125865 0.310133 0.0339214)
(-0.118809 0.364683 0.03929)
(-0.0883281 0.403839 0.0262335)
(-0.0456753 0.211597 0.0105043)
(-0.0477345 0.242481 0.00242539)
(-0.0671977 0.262347 0.0073459)
(-0.0756396 0.244801 -0.0102908)
(-0.0727298 0.218068 -0.00527931)
(-0.0880833 0.230478 -0.00708324)
(-0.0942234 0.252428 -0.00445059)
(-0.0870305 0.274368 0.0121748)
(-0.0763735 0.285455 0.032068)
(-0.0580181 0.285311 0.0427284)
(-0.0529747 0.234552 0.012924)
(-0.065421 0.259598 0.00158388)
(-0.0752885 0.254704 0.00600081)
(-0.0616267 0.209194 0.000501163)
(-0.042168 0.164698 0.0153494)
(-0.0492277 0.203518 0.0140643)
(-0.0564831 0.228312 0.00630893)
(-0.0528871 0.243571 0.00754333)
(-0.0442736 0.243695 0.0141779)
(-0.0336605 0.231814 0.0201437)
(-0.0564189 0.26163 0.0162763)
(-0.0714625 0.287303 -0.00397042)
(-0.0679231 0.251805 -0.00668077)
(-0.0414122 0.183783 -0.00497522)
(-0.0275623 0.118341 0.0143341)
(-0.0407361 0.161107 0.024853)
(-0.0322832 0.1899 0.0198551)
(-0.0304917 0.200665 0.0155724)
(-0.0263158 0.204363 0.0136477)
(-0.0223799 0.197764 0.0116798)
(-0.0511533 0.281707 0.0204366)
(-0.0673574 0.326204 -0.0108798)
(-0.049011 0.271959 -0.0327428)
(-0.0105241 0.204142 -0.0314455)
(-0.000171368 0.11338 0.00133545)
(-0.0433482 0.133453 0.017936)
(-0.0282254 0.160061 0.0169373)
(-0.0273143 0.167557 0.013615)
(-0.0232826 0.174083 0.0109585)
(-0.0197513 0.175489 0.00725927)
(-0.000290603 -0.00371584 0.0035036)
(0.0039814 -0.00694927 0.00420104)
(0.0104529 -0.00583865 0.00356451)
(0.0139289 -0.00426146 0.00327894)
(0.0151591 -0.00312106 0.00322425)
(0.0147956 -0.00232942 0.00316078)
(0.0131429 -0.00170282 0.00302025)
(0.0103286 -0.00116274 0.00268964)
(0.00630372 -0.000633589 0.00229243)
(0.00169782 -0.000328673 0.00175009)
(-0.00223099 -0.00807816 0.00226556)
(0.0022709 -0.0180735 0.00253008)
(0.0103166 -0.0149716 0.00150741)
(0.0135996 -0.0100727 0.00136662)
(0.0141642 -0.0066821 0.00161177)
(0.0133307 -0.00448945 0.00174183)
(0.0115337 -0.00283266 0.001681)
(0.00887509 -0.00156545 0.00146247)
(0.00527521 -0.000910348 0.00127769)
(0.00135524 -0.00109864 0.000996676)
(-0.00333334 -0.0123637 0.00522542)
(0.00751806 -0.0348644 0.0072575)
(0.0194368 -0.0273858 0.00284968)
(0.0218438 -0.0167227 0.000574023)
(0.0203868 -0.010727 0.000831263)
(0.0182468 -0.00738641 0.00151045)
(0.0155971 -0.00489786 0.00178088)
(0.0119238 -0.00295477 0.00167108)
(0.00710665 -0.00190655 0.00151092)
(0.00205036 -0.00238989 0.00143602)
(0.00204309 -0.0224746 0.0141595)
(0.0241775 -0.0659016 0.0224883)
(0.0377477 -0.0482798 0.0134074)
(0.0367004 -0.024085 0.00445997)
(0.030228 -0.01297 0.00152555)
(0.0251674 -0.00862128 0.00205041)
(0.0210739 -0.00502067 0.00287857)
(0.0161663 -0.00170617 0.00317816)
(0.0100084 -0.000336161 0.00353213)
(0.00321776 -0.00137069 0.00405063)
(0.0170332 -0.0478379 0.0219501)
(0.0429658 -0.10575 0.0422844)
(0.042875 -0.0708789 0.0322699)
(0.041191 -0.0307549 0.0173022)
(0.0346399 -0.0141572 0.00906836)
(0.0287229 -0.00952964 0.00709714)
(0.0247525 -0.00513043 0.00758418)
(0.0192467 -0.000346846 0.00821793)
(0.0115363 0.0031682 0.00950862)
(0.00323698 0.00325368 0.0107939)
(0.0403922 -0.109373 0.0196334)
(0.0416219 -0.140477 0.0485019)
(0.00701854 -0.0890135 0.0515575)
(0.0163691 -0.0376829 0.0343993)
(0.0225248 -0.0151793 0.0213724)
(0.0211527 -0.0111867 0.0158313)
(0.0177876 -0.00580337 0.0137451)
(0.0137373 0.00349835 0.0131373)
(0.007003 0.00763149 0.0135475)
(0.000639126 0.00681055 0.0146554)
(0.0516048 -0.113289 -0.0288852)
(-0.0400119 -0.00577121 -0.0155692)
(-0.0850722 -0.072893 0.0246485)
(-0.0293808 -0.0772376 0.0349106)
(0.0149359 -0.0429701 0.0286934)
(0.0296425 -0.0151802 0.019963)
(0.0210295 -0.00678243 0.0109685)
(0.0114572 0.000295399 0.00258107)
(0.00153459 0.00918443 -0.00186229)
(-0.000135067 0.00956002 0.00137523)
(-0.0295807 0.08593 -0.0903454)
(-0.194111 0.255541 -0.16642)
(-0.238027 0.0436901 -0.176822)
(-0.208384 -0.077909 -0.0812528)
(-0.0615676 -0.0733803 0.00136116)
(0.0250019 -0.0431275 0.0136889)
(0.0659706 -0.00703995 0.0124322)
(0.0448022 0.0211804 -0.000776938)
(0.00460263 0.0244446 -0.0113998)
(-0.00835163 -0.00475985 -0.0123352)
(-0.0363217 0.0974008 0.0452259)
(-0.0590838 0.327743 -0.0304782)
(-0.0362466 0.197467 -0.0140117)
(-0.060788 -0.0159626 -0.0239855)
(-0.136141 -0.128462 -0.0656816)
(-0.213818 -0.0662332 -0.0643488)
(-0.150392 -0.0360238 -0.0297286)
(0.00772345 0.0398291 -0.000811318)
(0.050618 0.0507327 0.00196229)
(0.0460608 0.0312278 0.0135898)
(-0.0720995 0.0376781 0.00502304)
(-0.0276964 0.158189 0.000653727)
(0.0142513 0.135519 0.0461633)
(-0.00485096 0.127976 0.0447209)
(-0.0489044 0.122994 0.0270114)
(-0.00180737 0.0600856 -0.0811456)
(-0.324681 -0.0949712 -0.143756)
(-0.370118 -0.086051 -0.0997574)
(-0.0982813 0.0413196 -0.035711)
(0.0120471 0.0870541 0.00352897)
(-0.0663728 0.0736248 -0.00618399)
(-0.0776592 0.0878521 -0.018138)
(-0.0832515 0.0850866 0.0025083)
(-0.0840715 0.114331 0.0157801)
(-0.0365712 0.19369 0.0333297)
(0.0484917 0.261703 -0.00466472)
(-0.0263489 0.205372 -0.12641)
(-0.0572002 0.0552837 -0.238457)
(-0.107012 -0.290309 -0.32309)
(-0.0897065 0.0283384 -0.265389)
(-0.0353826 0.111858 0.00521168)
(-0.0609022 0.0994061 -0.0110547)
(-0.0768561 0.0764774 -0.0156495)
(-0.111673 0.0658698 0.00445835)
(-0.0870183 0.135867 0.0424438)
(-0.00610743 0.262183 0.056803)
(0.0458103 0.274082 -0.018147)
(0.0379415 0.179239 -0.176781)
(-0.0926675 0.0359682 -0.288088)
(-0.119916 0.0444961 -0.347299)
(-0.0058352 0.119141 0.00584619)
(-0.0470783 0.10819 -0.0104211)
(-0.038513 0.0896437 -0.0283858)
(-0.054787 0.0808235 -0.0135594)
(-0.0782352 0.0905147 0.030808)
(-0.0493385 0.175139 0.0674036)
(0.0164104 0.249007 0.0565775)
(0.0567364 0.223029 -0.0339301)
(-0.00146303 0.130694 -0.14428)
(-0.033576 0.100973 -0.233013)
(0.0367377 0.13039 -0.00537005)
(-0.0391748 0.13806 -0.0104222)
(-0.0307558 0.0898612 -0.0257982)
(-0.0327169 0.0688628 -0.0308751)
(-0.0489723 0.0672826 0.00282839)
(-0.0518134 0.0973606 0.0478842)
(-0.0168938 0.164511 0.0775672)
(0.0302711 0.205868 0.0621228)
(0.0478402 0.168667 0.0115257)
(0.0338792 0.123169 -0.0485665)
(0.0226541 0.118231 0.00765848)
(-0.0113305 0.182309 -0.0152498)
(-0.00696821 0.123019 -4.92743e-05)
(-0.00659255 0.101641 -0.00408792)
(-0.0371733 0.0866145 0.00590969)
(-0.0475796 0.0764235 0.0201492)
(-0.0364211 0.0975791 0.0543871)
(-0.00953726 0.138127 0.0872088)
(0.0181832 0.152011 0.0874119)
(0.0214517 0.133535 0.0765661)
(-0.029593 0.135371 0.0229437)
(-0.0068375 0.204811 -0.0159297)
(-0.018523 0.153441 0.0145362)
(-0.00793041 0.140185 0.0317302)
(-0.0339018 0.119615 0.0356962)
(-0.0457484 0.096774 0.0296183)
(-0.0476161 0.0986094 0.0301755)
(-0.0427311 0.118972 0.0595265)
(-0.03254 0.133423 0.0911995)
(-0.0301322 0.131487 0.111333)
(-0.0623411 0.161182 0.0368877)
(-0.0242067 0.212816 -0.0145082)
(-0.0461967 0.171991 0.015677)
(-0.0331804 0.143456 0.0481087)
(-0.0365055 0.120298 0.0560686)
(-0.0422554 0.124629 0.0465331)
(-0.0516044 0.135341 0.0339792)
(-0.0578822 0.148894 0.0383607)
(-0.0629209 0.154879 0.0605899)
(-0.0643165 0.150865 0.0832266)
(-0.0744513 0.19696 0.0447459)
(-0.0283353 0.22562 -0.0260858)
(-0.045153 0.198985 -0.00596092)
(-0.0392582 0.149675 0.03188)
(-0.0482556 0.109658 0.0562539)
(-0.0465683 0.133128 0.0533957)
(-0.0479103 0.152354 0.0458479)
(-0.0539824 0.173385 0.0430634)
(-0.0643387 0.18027 0.0451847)
(-0.0709504 0.174835 0.0501403)
(-0.0762899 0.244641 0.0513699)
(-0.0130128 0.242035 -0.0510943)
(-0.0149307 0.235335 -0.0459244)
(-0.00613262 0.195114 -0.0132523)
(-0.0481231 0.124363 0.0410539)
(-0.0538972 0.133435 0.0430911)
(-0.0472683 0.147668 0.0387695)
(-0.0480132 0.17029 0.0456917)
(-0.0522141 0.183758 0.0420093)
(-0.0567431 0.181004 0.0333019)
(-0.0657415 0.291713 0.0641531)
(0.00950715 0.262219 -0.0711046)
(0.0172427 0.252568 -0.0877469)
(0.0390627 0.247269 -0.0622034)
(-0.0231502 0.16757 0.0255337)
(-0.0464207 0.141988 0.0335748)
(-0.0445364 0.144809 0.0171332)
(-0.045141 0.161869 0.0272545)
(-0.0423513 0.175094 0.0262125)
(-0.0390757 0.177855 0.015509)
(-0.000464971 -0.00280443 0.0082031)
(0.00335833 -0.00584029 0.0109347)
(0.00932953 -0.00505318 0.00979693)
(0.0126639 -0.00382489 0.00881006)
(0.0139985 -0.00292132 0.00831163)
(0.0138462 -0.00230118 0.00813106)
(0.0124208 -0.00184328 0.00816043)
(0.00986581 -0.00141131 0.00826343)
(0.00598285 -0.0010044 0.00858298)
(0.00150842 -0.000885134 0.00860477)
(-0.00219418 -0.00542196 0.00722014)
(0.00128987 -0.0149088 0.0109402)
(0.00846679 -0.0128063 0.00905423)
(0.0117311 -0.00889623 0.00742525)
(0.0126329 -0.00615132 0.00667451)
(0.0121074 -0.00442324 0.00639906)
(0.0105353 -0.00327515 0.00639743)
(0.00811086 -0.00260288 0.00658855)
(0.00483941 -0.00268926 0.00718595)
(0.00143985 -0.00361647 0.00766176)
(-0.00452544 -0.00696321 0.0114265)
(0.00283691 -0.0272556 0.0197191)
(0.0144083 -0.0238256 0.0149539)
(0.0179565 -0.0159509 0.00993834)
(0.0176566 -0.0107232 0.00783147)
(0.0161876 -0.00776081 0.00722543)
(0.0139582 -0.00595122 0.00702355)
(0.0107728 -0.00508016 0.00703427)
(0.00660455 -0.00549085 0.00757643)
(0.00233498 -0.00675252 0.00810001)
(-0.00358999 -0.00875969 0.0186206)
(0.0142364 -0.0483608 0.0363708)
(0.0300241 -0.0404976 0.0291681)
(0.0319955 -0.0234922 0.0172371)
(0.0273255 -0.0143786 0.0105964)
(0.0225668 -0.0104209 0.00867846)
(0.018503 -0.00772988 0.00832336)
(0.0139194 -0.0059741 0.00834756)
(0.00824712 -0.00609628 0.0086803)
(0.00272768 -0.0065057 0.00859587)
(0.00601306 -0.0152243 0.0160049)
(0.0330617 -0.0717118 0.0412454)
(0.0427816 -0.0581906 0.0404397)
(0.0441047 -0.0301032 0.0284251)
(0.0380888 -0.0157071 0.0182493)
(0.0310357 -0.0113396 0.0136606)
(0.025157 -0.00859808 0.012144)
(0.0185919 -0.0063209 0.0116206)
(0.0101349 -0.00481787 0.0121538)
(0.00220432 -0.00358596 0.0117847)
(0.0273855 -0.0449407 -0.0089594)
(0.0506371 -0.0904307 0.00876283)
(0.0271673 -0.0647857 0.0262512)
(0.0298795 -0.0325405 0.0291366)
(0.033978 -0.0157132 0.0255152)
(0.032407 -0.0112496 0.0216447)
(0.0278488 -0.00668006 0.0193326)
(0.0207584 -1.73531e-05 0.0175196)
(0.0107111 0.00316112 0.0157913)
(0.000821311 0.00502929 0.0143)
(0.0478737 -0.0998866 -0.0477695)
(0.0252517 -0.0679915 -0.0778775)
(-0.038619 -0.0555386 -0.0367173)
(-0.00891903 -0.0575457 0.00253104)
(0.0221238 -0.0341225 0.0191514)
(0.0326966 -0.0133318 0.019891)
(0.0281235 -0.00560446 0.0129489)
(0.019456 0.00211969 0.00346007)
(0.00768302 0.0114261 -0.00408498)
(3.90755e-05 0.0150449 -0.00495929)
(-0.00473929 -0.0965465 -0.15548)
(-0.177979 0.0688949 -0.223391)
(-0.160385 0.00126384 -0.167697)
(-0.100203 -0.0777828 -0.0970175)
(-0.0342015 -0.0614002 -0.0429537)
(0.025218 -0.0369171 -0.00687035)
(0.0528446 -0.00619922 0.00221975)
(0.0324447 0.01516 -0.0123633)
(0.00265527 0.0191161 -0.0236019)
(-0.00651984 0.00832052 -0.0277842)
(-0.0218456 0.089695 0.10896)
(-0.0223271 0.239941 0.00215084)
(-0.0227745 -0.102174 -0.019696)
(-0.0932415 -0.134689 -0.131698)
(-0.185119 -0.077224 -0.212997)
(-0.206045 -0.0564503 -0.153322)
(-0.0783135 -0.0198903 -0.0599045)
(0.00593578 0.0371985 -0.0276687)
(0.0279375 0.0403349 -0.0301398)
(0.01501 0.0378774 -0.0234014)
(-0.0404433 0.00614752 0.0673744)
(0.0348226 0.131462 0.0582723)
(0.0521235 0.117594 0.0493229)
(-0.0188753 0.122745 -0.0300452)
(-0.0476245 0.0921278 -0.169897)
(-0.0938319 -0.00908916 -0.23474)
(-0.364028 -0.158913 -0.223066)
(-0.28721 -0.0330733 -0.152746)
(-0.111953 0.0569249 -0.107242)
(-0.0315017 0.0808845 -0.0763474)
(-0.0427033 0.0249411 0.0152234)
(-0.0232431 0.0571207 0.0160545)
(-0.0299324 0.112538 0.0393183)
(-0.0578834 0.188978 -0.00449071)
(-0.0427038 0.247064 -0.0864263)
(-0.0218377 0.241443 -0.161223)
(-0.0637103 0.102092 -0.246918)
(-0.130489 -0.0769552 -0.346099)
(-0.165292 -0.155563 -0.383711)
(-0.0839153 0.0724131 -0.288916)
(-0.0382691 0.0693061 0.0215922)
(-0.0687504 0.0796359 0.0228809)
(-0.0942594 0.119838 0.0426858)
(-0.128905 0.140264 0.0549459)
(-0.0993122 0.176218 0.0345932)
(-0.0193359 0.217438 -0.026319)
(0.0526588 0.151049 -0.125516)
(0.0448449 0.0588825 -0.218452)
(-0.0626572 -0.0654607 -0.309362)
(-0.0609073 -0.0130948 -0.370318)
(-0.0320543 0.1041 0.0103665)
(-0.0748585 0.0704849 -0.00732905)
(-0.0584494 0.0872456 -0.0164893)
(-0.0528656 0.116821 0.0175745)
(-0.0504466 0.0932279 0.0712406)
(-0.0110632 0.0774442 0.0904953)
(0.0548133 0.0708237 0.0339603)
(0.0820679 0.0186585 -0.0718145)
(0.0592096 -0.0799091 -0.160646)
(0.0225131 -0.0943737 -0.221481)
(0.0192756 0.152544 -0.0129924)
(-0.0473414 0.0808547 -0.0233457)
(-0.0497738 0.0262903 -0.0524767)
(-0.0176369 0.0361309 -0.0418295)
(0.00950315 0.0338556 0.00670873)
(0.0176507 0.00577677 0.060437)
(0.0337067 -0.0196607 0.0872497)
(0.0532103 -0.0510146 0.0558918)
(0.0584991 -0.0987892 -0.030097)
(0.035681 -0.115201 -0.0947559)
(0.0587014 0.126324 -0.0146008)
(0.0457859 0.157122 -0.0291668)
(-0.00183796 0.0683627 -0.0480035)
(-0.0132048 0.0109718 -0.0482927)
(0.00715824 -0.00271236 -0.0215471)
(0.0266935 -0.0111928 0.000276316)
(0.0294291 -0.0247015 0.0275905)
(0.0273374 -0.0522695 0.0540101)
(0.0240612 -0.0744002 0.0290163)
(-0.00129591 -0.099362 -0.00411395)
(0.00699114 0.0750275 0.0210598)
(0.0724049 0.181505 -0.0232952)
(0.0548926 0.143001 -0.0467582)
(0.0167542 0.053821 -0.0331849)
(0.00587891 0.0183133 0.00953742)
(0.0138514 -0.00260051 -0.0153922)
(0.0150067 -0.00378584 -0.0231721)
(0.00977524 -0.0147309 0.00754892)
(-0.0118334 -0.0163894 0.0318019)
(-0.0387904 -0.0395741 0.0326957)
(-0.0219896 0.0880162 0.0292664)
(0.0610636 0.176894 -0.0292322)
(0.081449 0.189074 -0.0502901)
(0.051688 0.120463 -0.036216)
(0.00371733 0.0568586 0.0296426)
(-0.00162975 0.0360472 0.00352849)
(-0.00961653 0.0372088 -0.0157499)
(-0.00917647 0.0382989 -0.00147422)
(-0.0361702 0.0407025 0.0227282)
(-0.0601272 0.020611 0.0245662)
(-0.0120712 0.108497 0.0252812)
(0.0518234 0.163716 -0.0519776)
(0.0900721 0.210061 -0.0625162)
(0.0818652 0.185899 -0.0493472)
(0.012358 0.115305 0.0221092)
(-0.012475 0.078438 0.0187808)
(-0.0275024 0.0811675 0.00993934)
(-0.0271491 0.0870551 0.0208351)
(-0.0467315 0.0871475 0.0268758)
(-0.0616585 0.0710795 0.0135329)
(0.00510593 0.133448 0.0200467)
(0.0515309 0.162251 -0.086292)
(0.0834537 0.211013 -0.0846695)
(0.0950412 0.226612 -0.0646933)
(0.0252441 0.180152 0.00538912)
(-0.0156168 0.119679 0.0264018)
(-0.0372607 0.114806 0.0197263)
(-0.038431 0.120586 0.0306372)
(-0.0478696 0.119838 0.0286629)
(-0.0518307 0.110616 0.00316092)
(0.017303 0.159941 0.0291247)
(0.0608021 0.172071 -0.111338)
(0.0681981 0.198229 -0.114057)
(0.083142 0.232051 -0.0784311)
(0.0238064 0.234131 -0.00820428)
(-0.0158552 0.152962 0.0326596)
(-0.0397779 0.136107 0.0158705)
(-0.0399712 0.142595 0.0183745)
(-0.043805 0.143873 0.014073)
(-0.0418224 0.14268 -0.0129818)
(-0.000374422 -0.00182625 0.0106199)
(0.00307916 -0.00424643 0.0146017)
(0.00834843 -0.00380835 0.0133375)
(0.0115187 -0.00292255 0.0122078)
(0.0129874 -0.00220584 0.0117088)
(0.0130703 -0.00165893 0.0116925)
(0.0118833 -0.00115884 0.0121019)
(0.00967848 -0.000548166 0.0128809)
(0.00602506 1.38451e-05 0.0141186)
(0.00172742 0.000299894 0.0146069)
(-0.00165668 -0.00269983 0.00907821)
(0.00120133 -0.00995089 0.0143784)
(0.00691666 -0.00880269 0.0125001)
(0.00996226 -0.0061878 0.0106987)
(0.0111267 -0.00423409 0.00984549)
(0.0109417 -0.00287977 0.00963408)
(0.00975264 -0.00188717 0.00995561)
(0.00802816 -0.00118579 0.0106749)
(0.00558481 -0.000974557 0.0122822)
(0.0025254 -0.00100697 0.0134679)
(-0.0033729 -0.00232311 0.012792)
(0.000472194 -0.0163563 0.0225043)
(0.00927925 -0.0156364 0.0188045)
(0.0134607 -0.0111429 0.0143978)
(0.0146001 -0.00749366 0.0122215)
(0.0140999 -0.00513764 0.0114982)
(0.0124879 -0.00376847 0.0115004)
(0.00998769 -0.00327521 0.0119889)
(0.00633587 -0.0033434 0.0129606)
(0.00257975 -0.00212154 0.0130934)
(-0.00457399 0.000143287 0.0166741)
(0.00453901 -0.0237053 0.035829)
(0.0169295 -0.0230106 0.031516)
(0.0212776 -0.0158692 0.0219524)
(0.0206136 -0.0106773 0.0160973)
(0.0183992 -0.00754565 0.0141131)
(0.0155219 -0.00551775 0.0138121)
(0.0115 -0.00433295 0.0141786)
(0.00584309 -0.00282965 0.0139058)
(0.00202447 0.00212565 0.0115432)
(0.000491681 0.00137671 0.0115414)
(0.0173587 -0.0306909 0.0388624)
(0.0293376 -0.029738 0.0411475)
(0.0331145 -0.0182437 0.0320081)
(0.0305566 -0.0111273 0.0230962)
(0.0260601 -0.00811123 0.0186145)
(0.0212027 -0.00609378 0.0169187)
(0.0146053 -0.0044363 0.01649)
(0.00582229 -0.00104389 0.0154685)
(0.00124994 0.00585648 0.00994242)
(0.012722 -0.00979057 -0.0102571)
(0.0343095 -0.0375696 0.0142668)
(0.0303393 -0.0324125 0.0270893)
(0.0327068 -0.0187488 0.0309254)
(0.0349594 -0.0101935 0.0289352)
(0.0332836 -0.00746432 0.0258108)
(0.0281709 -0.00436278 0.0237285)
(0.0191985 0.000235895 0.0213386)
(0.00638214 0.00556108 0.0169033)
(-0.000999802 0.0118422 0.00991373)
(0.0310436 -0.0669261 -0.0208138)
(0.0394487 -0.0755414 -0.0279312)
(0.00456234 -0.05607 -0.00872204)
(0.0129125 -0.0399923 0.0139858)
(0.0277954 -0.019205 0.0243344)
(0.0324705 -0.0040143 0.0225662)
(0.0308982 0.00469001 0.0181884)
(0.0226332 0.0122832 0.013007)
(0.00532602 0.020058 0.00462473)
(-0.00506512 0.0255198 -0.00313827)
(0.0154157 -0.146061 -0.146759)
(-0.0672743 -0.0726413 -0.187748)
(-0.0732564 -0.0729129 -0.108943)
(-0.0371601 -0.0711871 -0.0628869)
(0.000234703 -0.0491746 -0.0200191)
(0.0329839 -0.0238968 0.00967732)
(0.0403536 0.00303694 0.0108338)
(0.0185247 0.0247699 -0.00220714)
(-0.00643754 0.0293351 -0.0136005)
(-0.0133703 0.0170677 -0.0199813)
(-0.0047055 -0.0522491 0.0645185)
(-0.0146079 -0.0288599 -0.0108438)
(-0.039449 -0.149539 -0.136166)
(-0.0792964 -0.1151 -0.234425)
(-0.174069 -0.0918202 -0.273452)
(-0.205208 -0.0497477 -0.163061)
(-0.054606 0.00286344 -0.0414623)
(-0.0138902 0.0393429 -0.0264867)
(-0.00540887 0.0417989 -0.0335778)
(-0.00295663 0.0367194 -0.0408245)
(-0.0326086 0.0269321 0.0654468)
(0.0139833 0.0714466 0.0370349)
(0.035224 0.0722456 -0.0308636)
(0.00579067 0.0702111 -0.107637)
(-0.0251902 0.00549234 -0.223481)
(-0.177822 -0.0691633 -0.236878)
(-0.41013 -0.150462 -0.250835)
(-0.296507 -0.000233619 -0.193371)
(-0.151857 0.044364 -0.161207)
(-0.0705162 0.0489219 -0.16365)
(-0.0392892 -0.00119184 0.00325743)
(0.0156252 -0.0195371 0.000835323)
(0.0461284 0.0382407 0.0113236)
(0.0470859 0.127996 -0.019542)
(-0.01528 0.208512 -0.073797)
(-0.0510926 0.203707 -0.172192)
(-0.113467 0.0140626 -0.229617)
(-0.191825 -0.189704 -0.273891)
(-0.239084 -0.169883 -0.324157)
(-0.141209 -0.0144857 -0.374307)
(-0.0318858 0.0461952 0.026602)
(-0.0347884 0.0199631 0.0398761)
(-0.0355807 0.0898336 0.067201)
(-0.0633082 0.176417 0.0734364)
(-0.104987 0.19773 0.0566005)
(-0.0496661 0.154224 0.00451523)
(0.0348273 0.0376042 -0.0699138)
(0.0313882 -0.0638122 -0.120189)
(-0.0766592 -0.145693 -0.184092)
(-0.0288467 -0.0742916 -0.285824)
(-0.0351253 0.0979052 0.022331)
(-0.0700539 0.0555491 0.0148902)
(-0.0625742 0.107507 0.0342666)
(-0.0592704 0.208416 0.0914137)
(-0.0904448 0.169708 0.111734)
(-0.0365595 0.0680409 0.115312)
(0.0318853 -0.0249499 0.0820462)
(0.0424807 -0.112568 0.02902)
(0.00175039 -0.184991 -0.0665588)
(0.0233091 -0.170944 -0.132615)
(-0.0168836 0.161424 -0.0122172)
(-0.0332077 0.081263 -0.0293238)
(-0.0529286 0.0473361 -0.0376626)
(-0.0172199 0.13972 0.0131523)
(0.0099258 0.181335 0.0609959)
(0.0189781 0.101047 0.0855071)
(0.0209593 0.00555811 0.0949925)
(0.0173194 -0.092096 0.0601985)
(0.00670199 -0.148326 -0.0135614)
(-0.0042622 -0.147358 -0.0174574)
(0.0107256 0.208216 -0.0389019)
(0.0301729 0.167435 -0.063736)
(0.00235117 0.0787123 -0.0615613)
(-0.0313217 0.0467489 -0.0427568)
(0.0335747 0.102001 -0.0264062)
(0.0635528 0.120368 0.00274832)
(0.0493386 0.0656462 0.0283176)
(0.0143526 -0.0317445 0.0260224)
(0.00236312 -0.105664 -0.00886528)
(-0.0216041 -0.137323 0.0111655)
(0.0333048 0.210716 -0.0334669)
(0.0728853 0.225408 -0.0701977)
(0.0784528 0.155966 -0.0685301)
(-0.000593034 0.0651541 -0.0332479)
(-0.017808 0.0394143 -0.0357993)
(0.0374024 0.0839995 -0.0439482)
(0.0566924 0.0730481 -0.0359391)
(0.0299908 -0.00196122 -0.0209848)
(0.00323369 -0.0651515 -0.00276254)
(-0.0427099 -0.0935498 0.00576083)
(0.0373449 0.173294 -0.0264842)
(0.0872602 0.223297 -0.0702639)
(0.118362 0.201598 -0.068942)
(0.0556291 0.130935 -0.0257723)
(-0.0300351 0.070817 -0.00578708)
(-0.0112416 0.0685545 -0.0375367)
(0.0185095 0.0606341 -0.0598599)
(0.0201782 0.0109798 -0.0478844)
(-0.0124252 -0.0207877 -5.32868e-05)
(-0.0624349 -0.0446406 -0.0156922)
(0.0335478 0.133062 -0.0424272)
(0.073241 0.188545 -0.0888903)
(0.111235 0.212606 -0.0732875)
(0.0758736 0.182534 -0.0206913)
(-0.0252393 0.129808 0.015362)
(-0.0344425 0.100449 -0.00333328)
(-0.0215871 0.0819506 -0.037847)
(-0.00337604 0.0502912 -0.0309623)
(-0.0328748 0.0277044 0.000859258)
(-0.073198 -0.00359559 -0.0383561)
(0.0353824 0.120464 -0.0645856)
(0.0493676 0.161573 -0.117907)
(0.0713247 0.208212 -0.0837074)
(0.0562997 0.208032 -0.0182363)
(-0.0307063 0.183322 0.026489)
(-0.0423593 0.135667 0.0238382)
(-0.0410489 0.119351 -0.00229227)
(-0.0277861 0.0987109 -0.0059635)
(-0.0500894 0.0760291 -0.0030059)
(-0.0804717 0.0392567 -0.0578629)
(0.0392915 0.123931 -0.0708336)
(0.0392598 0.151264 -0.13935)
(0.0254117 0.204778 -0.0991282)
(0.0128053 0.213804 -0.0203657)
(-0.0484283 0.216925 0.0286283)
(-0.04741 0.156112 0.0332876)
(-0.0505877 0.139462 0.0100012)
(-0.0430949 0.133198 -0.000385621)
(-0.0597363 0.120107 -0.0113834)
(-0.0867075 0.0774545 -0.0725665)
(-0.000269809 -0.00111333 0.0113626)
(0.00303525 -0.00308449 0.0159833)
(0.00787912 -0.00288103 0.0148514)
(0.0110362 -0.00217993 0.0138797)
(0.0127052 -0.00153785 0.0136204)
(0.0130939 -0.000958961 0.0138519)
(0.0122731 -0.000236348 0.0146104)
(0.010462 0.000635037 0.0154783)
(0.00690035 0.00155341 0.0173173)
(0.00236558 0.00271521 0.0180057)
(-0.00126753 -0.000917748 0.00924543)
(0.00147159 -0.00656391 0.0149995)
(0.00623899 -0.00602633 0.0135016)
(0.00914936 -0.00416905 0.0120322)
(0.0105231 -0.0027215 0.011459)
(0.0106977 -0.00162097 0.0114916)
(0.00990625 -0.000659035 0.0120172)
(0.00894363 0.000349534 0.0132578)
(0.00657339 0.00158677 0.0159585)
(0.00330938 0.00405435 0.0179693)
(-0.00204797 -0.000358625 0.012192)
(0.000798457 -0.0103303 0.0211933)
(0.00732402 -0.0103102 0.0185904)
(0.0114031 -0.00729872 0.0156328)
(0.013215 -0.00459833 0.014247)
(0.0133461 -0.00275674 0.0139932)
(0.0121815 -0.00181436 0.0146136)
(0.00968704 -0.00116384 0.0158448)
(0.00488945 0.000732148 0.0163791)
(0.00111433 0.00697847 0.0134443)
(-0.00284702 0.00240933 0.0142903)
(0.00140808 -0.0124056 0.0299704)
(0.00987639 -0.0136529 0.0274093)
(0.0150155 -0.0103101 0.0215585)
(0.0168814 -0.0067683 0.0181565)
(0.0164607 -0.00417709 0.0172917)
(0.0142847 -0.00261511 0.017807)
(0.009828 -0.000904081 0.0189912)
(0.00380346 0.00325462 0.0164892)
(0.00142632 0.0100918 0.00626609)
(0.000253018 0.00331981 0.00838225)
(0.00864027 -0.01394 0.0324781)
(0.017644 -0.0153516 0.0355735)
(0.0222856 -0.0109482 0.0298829)
(0.0229599 -0.00677087 0.0239756)
(0.0213787 -0.00349205 0.0214357)
(0.0181073 -0.00156317 0.0215883)
(0.0114882 -0.00031726 0.0226989)
(0.00294806 0.00605474 0.0175437)
(0.00186636 0.0125126 0.00566092)
(0.00710592 -0.00316507 -0.0072609)
(0.0214507 -0.0153966 0.0202682)
(0.0254892 -0.0161486 0.0306478)
(0.0289595 -0.0106814 0.0327636)
(0.0303452 -0.00619255 0.0302302)
(0.0279525 -0.00413255 0.0269176)
(0.0218603 -0.00133381 0.0248414)
(0.0123394 0.00278073 0.023284)
(0.00203774 0.00877329 0.0177034)
(0.000656537 0.0124392 0.00117033)
(0.0145556 -0.0355698 0.00310914)
(0.0328112 -0.042403 0.0157036)
(0.0200651 -0.0319298 0.022854)
(0.0225895 -0.0183802 0.0293871)
(0.0274854 -0.0033689 0.0291112)
(0.0278644 0.00945697 0.0239058)
(0.0244452 0.0153437 0.0192944)
(0.0110306 0.0163384 0.0139858)
(-0.00470938 0.0166601 0.00783029)
(-0.00451273 0.0120927 -0.0141087)
(0.019885 -0.0910641 -0.0427478)