/*--------------------------------*- C++ -*----------------------------------*\
| =========                 |                                                 |
| \\      /  F ield         | OpenFOAM: The Open Source CFD Toolbox           |
|  \\    /   O peration     | Version:  2312                                  |
|   \\  /    A nd           | Website:  www.openfoam.com                      |
|    \\/     M anipulation  |                                                 |
\*---------------------------------------------------------------------------*/
FoamFile
{
    version     2.0;
    format      ascii;
    arch        "LSB;label=32;scalar=64";
    class       volScalarField;
    location    "0.67";
    object      p;
}
// * * * * * * * * * * * * * * * * * * * * * * * * * * * * * * * * * * * * * //

dimensions      [1 -1 -2 0 0 0 0];

internalField   nonuniform List<scalar> 
8000
(
371.464
371.74
372.439
373.557
374.957
376.502
378.025
379.375
380.405
381.026
321.553
321.768
322.521
323.754
325.31
327.037
328.748
330.26
331.409
332.085
270.456
270.56
271.454
272.991
274.951
277.118
279.249
281.113
282.506
283.307
217.944
217.834
218.852
220.921
223.62
226.551
229.428
231.928
233.788
234.84
164.828
164.025
164.321
166.749
170.684
175.051
179.283
182.833
185.336
186.793
112.581
110.374
108.035
110.003
114.806
121.155
127.638
132.751
136.341
138.638
57.3883
50.9574
44.6002
45.7763
53.26
63.8629
73.9444
81.4986
86.4926
89.4969
14.0047
8.91481
6.21023
6.2888
8.07887
15.2546
26.3818
34.7215
38.7952
41.0354
1.72214
1.16572
0.600218
0.253701
-0.0318013
0.20382
2.18356
5.75152
9.16612
9.88977
0.248502
-0.0830167
-0.336735
-0.497866
-0.556941
-0.548596
-0.511154
-0.475003
-0.431946
-0.288909
-0.354839
-0.539829
-0.637484
-0.704699
-0.728188
-0.729787
-0.722557
-0.706856
-0.70876
-0.762055
-0.564833
-0.676061
-0.732933
-0.779708
-0.809536
-0.822092
-0.839648
-0.859547
-0.895912
-0.945487
-0.653869
-0.715399
-0.774445
-0.823753
-0.860653
-0.887368
-0.914931
-0.94681
-0.985882
-1.02966
-0.735203
-0.763937
-0.811735
-0.859468
-0.899156
-0.934657
-0.96975
-1.00131
-1.0324
-1.06256
-0.813623
-0.82809
-0.859206
-0.897247
-0.934586
-0.969409
-1.00356
-1.03395
-1.0622
-1.08905
-0.882303
-0.89218
-0.911909
-0.939179
-0.969717
-0.999797
-1.0281
-1.05438
-1.08025
-1.10652
-0.947324
-0.951099
-0.963512
-0.98234
-1.00457
-1.02801
-1.04898
-1.06714
-1.08571
-1.10704
-1.00617
-1.00468
-1.01175
-1.02356
-1.03809
-1.05476
-1.06876
-1.07731
-1.08684
-1.09945
-1.05365
-1.05363
-1.05615
-1.06339
-1.07102
-1.08058
-1.0879
-1.09116
-1.09349
-1.09742
-1.09668
-1.09744
-1.09843
-1.10197
-1.10464
-1.10822
-1.11053
-1.10973
-1.1067
-1.10331
371.739
372.01
372.722
373.864
375.285
376.834
378.347
379.677
380.681
381.28
321.755
321.965
322.757
324.042
325.643
327.386
329.084
330.564
331.673
332.32
270.521
270.727
271.694
273.286
275.318
277.504
279.607
281.413
282.729
283.469
217.777
217.787
219.133
221.268
224.099
227.045
229.833
232.195
233.866
234.784
163.978
163.674
164.68
167.274
171.412
175.769
179.787
183.027
185.198
186.426
110.428
110.227
108.676
110.917
116.267
122.593
128.6
133.213
136.271
138.135
51.1095
50.2264
46.9857
49.0983
56.5384
66.4925
75.5767
82.4473
86.9437
89.4516
8.55267
8.02871
6.61436
6.9145
9.47859
17.9141
27.6233
34.5285
38.2772
40.3759
0.931419
0.622424
0.15556
-0.143702
-0.176677
0.376228
2.22133
5.43977
8.82256
11.1279
-0.157196
-0.329465
-0.511264
-0.624368
-0.650048
-0.632175
-0.576371
-0.551503
-0.612054
-0.726338
-0.548172
-0.666283
-0.730592
-0.786635
-0.81015
-0.808193
-0.793875
-0.803775
-0.872674
-0.974584
-0.621145
-0.742149
-0.773451
-0.826345
-0.864372
-0.885509
-0.89952
-0.938861
-1.00859
-1.0846
-0.656597
-0.735941
-0.780001
-0.834357
-0.883347
-0.92468
-0.963648
-1.00636
-1.05412
-1.09956
-0.721711
-0.75561
-0.801254
-0.854377
-0.90306
-0.950346
-0.9997
-1.04421
-1.07959
-1.1161
-0.799222
-0.813683
-0.848759
-0.892882
-0.934444
-0.97593
-1.02039
-1.05893
-1.08928
-1.12486
-0.874477
-0.884481
-0.908695
-0.94011
-0.971728
-1.00381
-1.03868
-1.06915
-1.09396
-1.12707
-0.946725
-0.95154
-0.965968
-0.986296
-1.00886
-1.03231
-1.0582
-1.08213
-1.10142
-1.12702
-1.00683
-1.00889
-1.01488
-1.0274
-1.04238
-1.05923
-1.07589
-1.09102
-1.10292
-1.11676
-1.05564
-1.05724
-1.05822
-1.06531
-1.07361
-1.08455
-1.0924
-1.09788
-1.10076
-1.10356
-1.0986
-1.09957
-1.09926
-1.10252
-1.10542
-1.1103
-1.11219
-1.1108
-1.10654
-1.10131
372.445
372.728
373.454
374.604
376.02
377.544
379.02
380.296
381.243
381.799
322.508
322.754
323.559
324.852
326.452
328.173
329.819
331.228
332.259
332.845
271.391
271.662
272.657
274.262
276.295
278.443
280.463
282.153
283.347
283.987
218.705
219.048
220.487
222.644
225.401
228.253
230.901
233.051
234.528
235.29
164.048
164.509
166.391
169.306
173.35
177.47
181.114
184.005
185.941
186.9
107.612
108.421
110.523
113.923
119.405
125.338
130.616
134.639
137.318
138.8
43.9652
46.5119
49.2419
53.9641
62.0958
71.0628
78.7941
84.7307
88.5571
90.4921
5.47182
6.18009
6.84016
8.334
13.2768
22.3696
30.0993
36.525
40.8848
43.7671
0.364453
0.120738
-0.262266
-0.39203
-0.102578
0.834812
2.93063
6.75098
10.2273
12.3166
-0.400337
-0.514115
-0.641484
-0.712178
-0.718703
-0.679436
-0.638851
-0.655591
-0.78972
-0.978405
-0.650673
-0.730342
-0.777194
-0.829502
-0.842861
-0.83282
-0.827864
-0.872627
-1.00527
-1.14405
-0.683147
-0.764962
-0.803561
-0.853783
-0.881312
-0.892997
-0.919184
-0.980563
-1.07768
-1.18715
-0.701036
-0.754394
-0.797435
-0.850435
-0.893765
-0.92705
-0.970712
-1.02794
-1.08701
-1.15039
-0.752039
-0.773807
-0.814292
-0.865225
-0.910661
-0.951542
-0.997293
-1.04436
-1.08847
-1.14494
-0.818048
-0.828729
-0.861263
-0.902941
-0.941551
-0.978053
-1.01666
-1.05605
-1.09479
-1.14607
-0.88477
-0.89435
-0.918719
-0.949206
-0.978975
-1.00796
-1.03786
-1.06665
-1.09578
-1.13822
-0.947975
-0.955439
-0.972786
-0.993674
-1.0156
-1.03776
-1.0595
-1.07779
-1.09513
-1.12427
-1.00795
-1.00951
-1.0205
-1.03319
-1.04842
-1.06432
-1.07809
-1.08744
-1.09413
-1.10886
-1.0602
-1.06128
-1.06393
-1.07
-1.079
-1.08866
-1.09534
-1.09729
-1.09512
-1.09615
-1.10598
-1.10673
-1.10446
-1.1059
-1.10909
-1.11308
-1.11471
-1.11118
-1.10271
-1.09348
373.585
373.895
374.629
375.765
377.145
378.615
380.008
381.187
382.034
382.539
323.759
324.058
324.873
326.15
327.707
329.353
330.902
332.189
333.09
333.587
272.932
273.258
274.271
275.873
277.844
279.883
281.748
283.249
284.247
284.74
220.724
221.141
222.613
224.786
227.435
230.1
232.509
234.347
235.51
236.038
166.284
166.944
169.196
172.405
176.268
180.029
183.199
185.547
186.953
187.54
109.205
110.279
113.68
118.299
123.817
129.168
133.589
136.667
138.46
139.134
43.9515
47.659
53.3684
60.6765
69.178
76.9504
83.126
87.6432
90.2323
91.1831
5.29644
6.06969
7.95559
13.0952
20.8249
28.4134
34.6997
40.5973
44.51
46.2147
0.0843094
-0.178946
-0.416431
-0.175166
0.889471
2.26867
4.89027
8.57495
10.7275
10.6668
-0.551628
-0.643822
-0.731384
-0.782615
-0.761919
-0.72065
-0.717044
-0.740147
-0.796131
-0.693853
-0.716615
-0.772487
-0.822099
-0.864527
-0.856286
-0.82971
-0.825942
-0.854864
-0.974063
-1.02333
-0.729278
-0.775506
-0.820506
-0.8676
-0.885704
-0.889349
-0.913858
-0.958538
-1.04624
-1.15079
-0.744295
-0.771782
-0.811866
-0.861511
-0.900876
-0.930594
-0.976147
-1.03361
-1.093
-1.15459
-0.78633
-0.800176
-0.833317
-0.879695
-0.924858
-0.965084
-1.01471
-1.07084
-1.11629
-1.15369
-0.841107
-0.851752
-0.878698
-0.918082
-0.960154
-0.999507
-1.04155
-1.0863
-1.12058
-1.15424
-0.900803
-0.91102
-0.932089
-0.962144
-0.996679
-1.02992
-1.06183
-1.09206
-1.11401
-1.14778
-0.959668
-0.968126
-0.983774
-1.00506
-1.02994
-1.05478
-1.07682
-1.09356
-1.10465
-1.13082
-1.01375
-1.02008
-1.03164
-1.04573
-1.06126
-1.07714
-1.08977
-1.096
-1.09743
-1.11017
-1.06334
-1.06756
-1.07557
-1.08483
-1.09187
-1.09928
-1.10424
-1.10331
-1.0968
-1.0981
-1.10862
-1.1102
-1.11503
-1.12002
-1.12112
-1.12213
-1.12187
-1.1165
-1.10502
-1.09545
375.025
375.361
376.099
377.203
378.526
379.919
381.211
382.277
383.033
383.48
325.358
325.708
326.532
327.773
329.264
330.814
332.231
333.37
334.118
334.546
274.934
275.344
276.373
277.928
279.789
281.674
283.346
284.618
285.404
285.778
223.447
224.02
225.454
227.54
230.028
232.483
234.564
236.018
236.816
237.12
170.164
171.08
173.316
176.405
179.962
183.298
185.973
187.67
188.423
188.556
113.763
115.465
119.161
123.953
129.203
133.943
137.484
139.461
140.048
139.555
50.5654
54.5604
61.4032
69.4195
77.4623
83.982
88.7489
91.4709
91.9409
90.8594
6.58419
8.08964
12.635
21.2813
30.1076
36.9116
42.3296
46.2022
46.7895
44.8855
-0.159682
-0.324466
-0.197738
1.05822
3.56015
6.45577
8.67661
10.0092
10.1528
9.15958
-0.601907
-0.691507
-0.762785
-0.801845
-0.783864
-0.772961
-0.737679
-0.536176
-0.219492
0.49998
-0.724001
-0.776565
-0.830353
-0.854782
-0.840898
-0.833161
-0.823958
-0.788139
-0.782893
-0.511914
-0.741571
-0.776229
-0.818202
-0.852461
-0.868913
-0.877013
-0.898503
-0.916385
-0.992073
-0.983691
-0.761717
-0.782786
-0.814444
-0.855797
-0.895421
-0.928004
-0.976121
-1.04048
-1.11329
-1.14647
-0.802259
-0.8179
-0.84277
-0.883822
-0.934374
-0.979982
-1.03718
-1.11147
-1.16889
-1.19966
-0.853164
-0.869149
-0.890789
-0.926702
-0.976625
-1.02564
-1.0778
-1.14409
-1.1816
-1.20655
-0.909549
-0.924139
-0.943419
-0.973338
-1.01463
-1.05702
-1.0968
-1.13801
-1.15939
-1.18021
-0.966008
-0.977084
-0.994105
-1.01846
-1.04915
-1.08037
-1.10622
-1.12431
-1.13188
-1.14072
-1.02056
-1.02896
-1.04288
-1.05993
-1.08071
-1.10029
-1.11184
-1.11363
-1.10961
-1.10636
-1.0733
-1.07875
-1.08933
-1.10009
-1.11058
-1.11781
-1.11854
-1.11178
-1.10042
-1.08791
-1.12021
-1.12204
-1.12898
-1.1343
-1.13669
-1.13576
-1.13137
-1.12178
-1.10669
-1.08311
376.627
376.973
377.697
378.76
380.016
381.324
382.514
383.461
384.192
384.6
327.151
327.525
328.348
329.529
330.939
332.382
333.679
334.699
335.393
335.75
277.183
277.631
278.649
280.124
281.861
283.597
285.095
286.166
286.798
287.023
226.485
227.103
228.493
230.437
232.783
235.018
236.818
237.949
238.43
238.282
174.658
175.63
177.735
180.601
183.811
186.795
189.061
190.258
190.293
189.381
120.028
121.902
125.474
129.942
134.752
138.913
141.8
142.831
141.905
141.477
60.9042
64.6707
71.0173
78.2526
85.3579
91.1415
95.0525
95.9456
93.6214
92.1074
11.0768
14.9418
21.9871
30.9913
39.4801
46.4432
51.1916
52.3497
49.2414
46.4431
-0.0575207
-0.0317746
0.857291
3.42326
8.47482
12.6102
14
13.6195
12.2476
9.75818
-0.582544
-0.692999
-0.744641
-0.791418
-0.779851
-0.698664
-0.392587
0.0988438
0.342649
1.15638
-0.702346
-0.766971
-0.807634
-0.825557
-0.83035
-0.828756
-0.833829
-0.8595
-0.669293
-0.108073
-0.722043
-0.762859
-0.79637
-0.823825
-0.847279
-0.868555
-0.919215
-0.974768
-1.08394
-0.949627
-0.752612
-0.778692
-0.805196
-0.838759
-0.87937
-0.926713
-0.998003
-1.04841
-1.26507
-1.18401
-0.801031
-0.823902
-0.848202
-0.884963
-0.940263
-1.00532
-1.08922
-1.18335
-1.28606
-1.27203
-0.860371
-0.882092
-0.906639
-0.942211
-0.993205
-1.05934
-1.13819
-1.23164
-1.2635
-1.25949
-0.920272
-0.939895
-0.961595
-0.993229
-1.02991
-1.08164
-1.1427
-1.21044
-1.21643
-1.22009
-0.977915
-0.995198
-1.01336
-1.03558
-1.06833
-1.11012
-1.14745
-1.17114
-1.16857
-1.17186
-1.03213
-1.05037
-1.06196
-1.07655
-1.10661
-1.13681
-1.14651
-1.14402
-1.13063
-1.12735
-1.08535
-1.10268
-1.11621
-1.1303
-1.14057
-1.1474
-1.14325
-1.13298
-1.11396
-1.1022
-1.13124
-1.1411
-1.15055
-1.1591
-1.15765
-1.15313
-1.14696
-1.13682
-1.11724
-1.09356
378.212
378.554
379.256
380.252
381.426
382.645
383.766
384.73
385.301
385.708
328.937
329.309
330.1
331.208
332.512
333.846
335.048
335.998
336.592
336.923
279.421
279.858
280.83
282.193
283.782
285.363
286.729
287.693
288.151
288.564
229.524
230.075
231.401
233.201
235.296
237.296
238.899
239.867
239.94
240.313
179.15
179.996
181.809
184.309
187.226
189.912
191.9
192.47
191.82
192.079
126.951
128.447
131.458
135.298
139.585
143.353
145.924
145.567
144.286
143.877
72.1168
74.699
79.8164
85.8923
92.2696
97.8896
101.36
100.369
98.6997
98.6411
22.0385
25.5981
31.8168
39.5793
48.0768
55.6351
60.2945
60.6446
58.5785
55.8112
0.955562
1.44072
3.1711
7.68871
14.5233
20.1677
23.8471
22.636
19.7051
20.9953
-0.572859
-0.649763
-0.705937
-0.747554
-0.496158
0.426029
1.22282
0.336299
0.822528
1.11382
-0.688258
-0.755938
-0.768108
-0.786952
-0.793307
-0.739114
-0.881747
-1.66485
-0.796677
0.527896
-0.705282
-0.764821
-0.768813
-0.788639
-0.807095
-0.819561
-0.987362
-0.947315
-1.02723
-0.552508
-0.743454
-0.777745
-0.784807
-0.813184
-0.846545
-0.847992
-0.941832
-1.18498
-1.36394
-1.10234
-0.794848
-0.816338
-0.838821
-0.872754
-0.925782
-1.02597
-1.17946
-1.30482
-1.42257
-1.29229
-0.859431
-0.8802
-0.912056
-0.968227
-1.04823
-1.12389
-1.18596
-1.33147
-1.37141
-1.27095
-0.925837
-0.951646
-0.976682
-1.02969
-1.06796
-1.11289
-1.19113
-1.30339
-1.27698
-1.20766
-0.990596
-1.01948
-1.03173
-1.04969
-1.09775
-1.15712
-1.20884
-1.22281
-1.19796
-1.18315
-1.04999
-1.08556
-1.07467
-1.09162
-1.17263
-1.22063
-1.20128
-1.17946
-1.1525
-1.17876
-1.10844
-1.14374
-1.15667
-1.1889
-1.2075
-1.19894
-1.17897
-1.15955
-1.13471
-1.14324
-1.15138
-1.17983
-1.19515
-1.20522
-1.19109
-1.17443
-1.16669
-1.15369
-1.13795
-1.12658
379.598
379.927
380.59
381.506
382.587
383.731
384.797
385.743
386.393
386.816
330.502
330.855
331.591
332.602
333.787
335.032
336.196
337.159
337.811
338.293
281.379
281.774
282.66
283.874
285.287
286.713
288.147
289.094
289.647
290.309
232.185
232.644
233.792
235.355
237.185
238.979
240.543
241.506
241.776
242.635
182.971
183.548
185.077
187.174
189.719
192.194
193.925
195.166
194.816
195.852
132.609
133.66
136.077
139.214
142.98
146.429
148.34
148.783
149.861
150.245
80.5339
82.4502
86.6023
91.59
97.3544
102.73
105.395
103.699
105.269
104.784
33.1053
34.4959
39.6136
46.2987
54.4442
62.8239
66.1645
65.1629
67.2461
62.1403
4.65846
4.45085
7.21756
12.2948
18.8129
26.1902
29.6717
29.7502
29.4866
26.3899
-0.521105
-0.568725
-0.631235
-0.678397
0.001631
2.73529
5.61626
8.53602
9.85563
8.34189
-0.650311
-0.701492
-0.708373
-0.726771
-0.701798
-0.585361
-0.433218
4.95695
2.51884
1.83179
-0.692725
-0.754623
-0.727018
-0.741603
-0.754871
-0.87833
0.179209
-0.385912
0.0580291
0.428377
-0.739917
-0.77557
-0.759893
-0.777309
-0.8313
-0.673042
-0.846145
-0.984927
-0.991723
-0.602576
-0.791253
-0.810862
-0.817536
-0.833611
-0.739297
-0.821645
-1.35502
-1.24474
-1.26224
-1.05969
-0.85521
-0.87431
-0.888646
-0.959177
-0.970279
-1.09558
-1.23189
-1.34542
-1.22735
-1.23493
-0.914799
-0.955584
-0.963285
-1.01911
-1.01291
-0.979587
-1.24159
-1.36461
-1.23907
-1.20819
-0.988657
-1.01949
-1.00368
-1.00533
-1.03761
-1.0091
-1.27496
-1.27513
-1.21776
-1.19026
-1.04951
-1.10116
-1.06671
-0.687838
-0.760748
-1.27946
-1.23836
-1.21809
-1.18411
-1.16772
-1.12805
-1.177
-1.14939
-1.17313
-1.2489
-1.20725
-1.20164
-1.18406
-1.16403
-1.14927
-1.17898
-1.22148
-1.25107
-1.24526
-1.22104
-1.1798
-1.18308
-1.16704
-1.16219
-1.14399
380.613
380.923
381.539
382.368
383.352
384.465
385.477
386.445
387.165
387.75
331.655
331.973
332.646
333.541
334.587
335.811
336.899
337.91
338.705
339.289
282.81
283.137
283.92
284.963
286.156
287.614
288.781
289.844
290.679
291.579
234.134
234.419
235.387
236.679
238.204
239.912
241.072
242.053
242.828
244.057
185.649
185.933
187.173
188.805
190.788
192.82
194.148
195.389
196.274
198.096
136.395
137.124
139.022
141.362
144.198
146.751
149.748
151.903
153.329
153.996
86.0141
87.5779
90.8361
94.5113
99.1513
104.198
107.978
110.285
110.82
110.297
38.6445
39.8902
44.2346
49.3907
56.7117
67.0351
70.5681
71.081
70.6471
71.5189
8.45704
8.01858
10.9037
13.5412
18.4529
29.8103
35.2872
35.9855
35.6578
33.8691
-0.43916
-0.47025
-0.493895
-0.498861
0.150485
3.68368
15.508
18.7511
18.7275
22.0639
-0.581934
-0.61018
-0.61477
-0.627646
-0.524442
-0.533071
8.7791
24.9284
11.433
5.89024
-0.663581
-0.695641
-0.673819
-0.686974
-0.678662
-0.312398
2.23039
1.29825
2.1814
2.55954
-0.726451
-0.744864
-0.727632
-0.735019
-0.822907
0.577606
-0.43893
-0.48132
0.0835222
0.169958
-0.778517
-0.800257
-0.784088
-0.788343
-0.717428
0.524595
-1.01388
-0.931975
-0.721476
-0.912069
-0.838654
-0.859715
-0.84039
-0.904231
-0.504031
0.302893
-1.11358
-1.18209
-0.977493
-1.12816
-0.869299
-0.925761
-0.917751
-0.951559
-0.0210949
-0.748108
-1.27349
-1.26291
-1.11245
-1.14177
-0.939718
-0.982988
-1.04138
-0.256286
-0.288228
-0.963797
-1.23866
-1.16879
-1.15586
-1.14917
-1.00752
-1.05785
-0.211227
-0.169782
-0.741486
-1.21683
-1.20271
-1.17907
-1.15608
-1.15166
-1.12171
-1.24642
-1.28886
-1.23267
-1.21224
-1.1884
-1.20267
-1.18943
-1.15891
-1.15454
-1.18107
-1.25183
-1.25185
-1.21472
-1.18277
-1.16106
-1.19129
-1.1922
-1.1633
-1.16264
381.143
381.433
382.009
382.768
383.725
384.772
385.792
386.786
387.648
388.371
332.253
332.541
333.158
333.96
334.954
336.074
337.169
338.303
339.28
340.31
283.554
283.816
284.507
285.408
286.509
287.801
289.06
290.534
291.643
292.808
235.155
235.291
236.098
237.138
238.39
239.701
241.217
242.964
244.471
246.25
187.095
187.114
188.105
189.257
190.62
192.096
194.405
197.147
198.863
201.318
138.582
138.963
140.285
141.726
143.534
146.668
150.643
152.036
155.638
157.837
89.0995
90.2278
92.3176
94.5007
98.0326
105.245
110.461
109.742
111.943
114.906
41.8104
43.0709
45.9834
48.4094
53.7883
66.8824
72.3705
70.9731
72.4363
75.6584
9.97342
9.93663
12.8292
11.0989
12.4558
26.1081
35.1217
34.7153
39.4562
40.8778
-0.350788
-0.394011
-0.431098
-0.40107
0.175672
1.99243
9.61412
16.517
28.719
27.2941
-0.469126
-0.511816
-0.535108
-0.548803
-0.40717
-0.450715
1.63798
8.37529
7.83271
7.33255
-0.579015
-0.618219
-0.613988
-0.629233
-0.609165
-0.207782
0.431025
0.790091
2.45364
3.96102
-0.663823
-0.687088
-0.683199
-0.680184
-0.504752
0.669092
-0.44861
-0.138819
0.55888
1.16507
-0.709889
-0.757036
-0.755584
-0.729352
-0.244359
0.330374
-0.867096
-0.758494
-0.615634
-0.720495
-0.742227
-0.833415
-0.813077
-0.802793
-0.213544
-0.784355
-1.11186
-1.12689
-0.957472
-1.09536
-0.807044
-0.881615
-0.840912
-0.66046
-0.589876
-1.20937
-1.23746
-1.24166
-1.11767
-1.16595
-0.881129
-0.916101
-0.860989
-0.357957
-0.71688
-1.20498
-1.25604
-1.22231
-1.17417
-1.18532
-0.954035
-0.924382
-0.55007
-0.403382
-1.15893
-1.21875
-1.2507
-1.20625
-1.17422
-1.19943
-1.02751
-1.06889
-0.49996
-0.720832
-1.21498
-1.18184
-1.22889
-1.2142
-1.17707
-1.21192
-1.08662
-1.16475
-0.56683
-1.17306
-1.17504
-1.16265
-1.20543
-1.21628
-1.17917
-1.22496
381.123
381.403
381.961
382.702
383.65
384.684
385.734
386.762
387.65
388.331
332.237
332.508
333.099
333.875
334.859
335.94
337.117
338.288
339.326
340.179
283.55
283.775
284.416
285.243
286.397
287.575
288.92
290.299
291.56
292.739
235.187
235.237
235.946
236.846
238.151
239.339
241.183
242.926
244.577
246.348
187.218
187.046
187.861
188.735
189.929
191.638
193.935
196.335
198.558
201.159
138.858
138.864
139.876
140.686
142.284
145.198
147.8
151.062
153.361
156.772
89.4363
90.0157
91.6624
92.8746
95.9899
103.451
107.44
107.358
109.246
114.964
42.0205
42.4952
44.7383
44.9239
47.7157
58.4016
65.1226
65.9491
70.4931
77.5677
9.81494
9.54078
11.8166
7.82692
5.4321
11.5296
21.4844
26.5029
34.224
43.198
-0.283283
-0.354472
-0.423008
-0.404748
-0.2797
-0.284819
0.496364
5.5483
14.9651
26.4896
-0.357382
-0.46434
-0.521874
-0.516817
-0.486578
-0.548316
-0.810348
0.490406
4.16076
7.70759
-0.421625
-0.562232
-0.617043
-0.597337
-0.584501
-0.615853
-0.407474
0.296048
1.80993
3.48205
-0.511631
-0.684019
-0.707318
-0.677289
-0.677962
-0.703987
-0.646701
-0.26369
0.364022
0.416311
-0.614613
-0.794541
-0.782275
-0.75859
-0.781707
-0.839318
-0.859455
-0.775882
-0.596381
-0.595778
-0.751891
-0.851687
-0.853623
-0.853416
-0.892649
-0.994891
-1.05409
-1.12118
-0.990233
-0.930915
-0.842874
-0.923819
-0.908189
-0.926625
-0.985405
-1.12912
-1.22793
-1.23355
-1.14651
-1.08258
-0.919793
-0.966137
-0.9649
-0.994238
-1.06918
-1.20204
-1.32311
-1.26456
-1.23451
-1.16107
-0.99251
-1.02329
-1.03692
-1.08557
-1.13823
-1.22397
-1.32599
-1.23821
-1.22774
-1.22045
-1.04732
-1.10319
-1.14186
-1.17363
-1.19059
-1.22537
-1.29504
-1.27156
-1.21774
-1.27683
-1.11782
-1.15904
-1.19168
-1.20482
-1.19999
-1.21884
-1.25645
-1.2552
-1.21997
-1.31241
380.557
380.837
381.403
382.169
383.155
384.225
385.281
386.357
387.201
387.823
331.603
331.877
332.48
333.302
334.32
335.468
336.653
337.851
338.8
339.485
282.775
283.013
283.676
284.58
285.729
287.031
288.411
289.702
290.913
291.599
234.153
234.249
234.99
235.986
237.291
238.872
240.66
242.213
243.733
244.767
185.739
185.669
186.539
187.51
188.906
190.799
193.001
194.878
196.992
198.758
136.705
136.818
137.906
138.889
140.396
142.622
145.7
148.543
150.097
153.037
86.8779
87.2885
88.9528
90.0798
92.0017
95.7436
99.2235
102.507
105.536
109.579
39.0758
39.1387
41.0774
41.8322
43.4233
47.9503
52.9794
57.6113
62.8183
68.3344
7.85719
8.13552
9.80249
7.93613
6.12106
7.98184
14.2598
18.9778
25.8849
34.5511
-0.295649
-0.361985
-0.405509
-0.392704
-0.295341
-0.232353
-0.2774
1.1122
5.5001
11.8232
-0.380117
-0.489711
-0.523119
-0.508688
-0.459312
-0.451672
-0.469808
0.116766
2.36237
4.81358
-0.501884
-0.612923
-0.644173
-0.61041
-0.561378
-0.573532
-0.583598
-0.178352
0.937083
2.28761
-0.626629
-0.743079
-0.749509
-0.70098
-0.674928
-0.702728
-0.704985
-0.521273
-0.11572
0.242624
-0.743386
-0.868541
-0.828676
-0.786921
-0.783648
-0.846347
-0.860612
-0.87661
-0.671612
-0.75496
-0.827468
-0.928772
-0.898344
-0.876581
-0.896932
-0.994688
-1.05891
-1.07172
-1.03657
-0.997173
-0.883137
-0.966249
-0.954483
-0.956343
-0.991436
-1.11459
-1.23475
-1.16212
-1.16044
-1.06356
-0.932839
-1.0082
-1.00217
-1.02513
-1.06594
-1.18619
-1.30218
-1.1863
-1.19611
-1.1122
-1.00782
-1.06421
-1.05919
-1.09175
-1.12866
-1.21875
-1.32762
-1.24834
-1.21947
-1.18781
-1.06178
-1.12609
-1.12968
-1.15398
-1.17994
-1.23754
-1.31927
-1.31699
-1.25722
-1.26913
-1.13816
-1.16931
-1.18877
-1.19976
-1.20573
-1.24104
-1.29538
-1.31634
-1.28494
-1.31701
379.526
379.814
380.407
381.245
382.27
383.387
384.477
385.552
386.314
386.828
330.445
330.734
331.37
332.269
333.366
334.568
335.771
336.919
337.721
338.279
281.358
281.637
282.349
283.36
284.611
285.968
287.416
288.7
289.608
289.849
232.262
232.488
233.311
234.472
235.968
237.632
239.326
240.947
241.921
242.362
183.232
183.398
184.321
185.602
187.409
189.505
191.601
193.452
194.092
195.3
133.156
133.575
134.892
136.418
138.625
141.375
144.115
145.99
146.041
147.833
81.9646
82.8198
84.8655
86.8047
89.499
93.3641
97.1783
99.86
101.102
104.007
34.9674
35.3142
36.7676
38.525
41.3484
45.7255
50.4372
55.1268
59.0934
61.7221
5.25714
5.57016
6.72426
6.87059
7.11932
9.18997
13.0267
17.2577
22.3174
27.1361
-0.264248
-0.363993
-0.41777
-0.418809
-0.331557
-0.246738
-0.214156
0.228816
1.93027
4.04857
-0.419378
-0.498434
-0.543088
-0.542197
-0.47201
-0.428068
-0.47622
-0.396055
0.397878
1.39315
-0.566618
-0.601965
-0.665726
-0.650825
-0.571303
-0.566632
-0.654516
-0.659115
-0.479948
-0.122845
-0.702077
-0.742434
-0.764757
-0.723322
-0.678488
-0.706226
-0.757401
-0.816143
-0.855753
-0.904529
-0.796876
-0.890246
-0.848621
-0.80535
-0.782549
-0.83281
-0.872998
-0.98604
-0.934249
-1.21144
-0.847184
-1.02167
-0.922847
-0.892001
-0.883934
-0.958449
-1.01832
-1.04444
-1.00678
-1.1657
-0.897977
-1.05939
-0.981247
-0.970936
-0.975412
-1.06098
-1.14975
-1.12725
-1.10546
-1.11149
-0.944762
-1.0686
-1.02558
-1.03235
-1.04937
-1.13138
-1.2173
-1.16933
-1.15171
-1.10365
-0.997333
-1.08069
-1.0633
-1.08597
-1.10534
-1.17603
-1.25207
-1.25508
-1.21381
-1.17212
-1.06114
-1.11577
-1.10893
-1.13411
-1.1548
-1.20665
-1.28161
-1.32492
-1.28468
-1.27465
-1.13446
-1.14904
-1.15213
-1.1712
-1.18948
-1.23388
-1.29368
-1.34579
-1.33301
-1.3196
378.156
378.454
379.079
379.986
381.085
382.277
383.422
384.5
385.192
385.753
328.904
329.211
329.89
330.874
332.071
333.362
334.601
335.732
336.375
336.975
279.456
279.777
280.562
281.706
283.101
284.596
286.021
287.261
287.963
288.151
229.716
230.053
231.032
232.413
234.141
235.984
237.684
239.152
239.625
239.474
179.707
180.126
181.307
182.999
185.219
187.553
189.671
191.424
191.451
191.21
128.14
128.953
130.802
133.128
136.081
139.125
141.885
144.235
143.194
144.98
74.7468
76.1578
79.0503
82.335
86.3649
90.5958
94.3503
97.2155
97.207
100.739
27.381
28.511
30.2328
33.4853
38.6598
43.997
48.2595
51.5379
53.6635
56.6103
2.46227
2.56652
3.01927
4.30347
7.07865
11.0371
14.3734
15.7512
15.3512
16.9235
-0.267525
-0.38738
-0.457723
-0.483606
-0.413948
-0.306648
-0.293641
-0.446769
-0.352159
0.00022172
-0.419545
-0.539039
-0.595168
-0.612733
-0.532542
-0.464573
-0.529546
-0.743882
-0.865559
-0.836259
-0.573111
-0.652472
-0.70257
-0.71175
-0.624446
-0.595929
-0.676912
-0.839634
-1.02271
-1.15419
-0.738087
-0.77719
-0.779471
-0.749952
-0.696573
-0.713577
-0.781628
-0.880217
-1.06848
-1.35478
-0.787899
-0.846134
-0.839564
-0.807877
-0.786524
-0.820065
-0.88699
-0.974384
-1.10751
-1.4248
-0.821109
-0.957758
-0.915034
-0.880356
-0.873911
-0.920198
-0.978518
-1.06289
-1.14354
-1.25674
-0.89598
-1.10614
-0.981811
-0.953393
-0.954506
-1.00326
-1.04908
-1.11842
-1.05708
-1.07944
-0.980131
-1.11718
-1.01894
-1.01719
-1.02335
-1.06706
-1.10977
-1.14618
-1.02976
-1.01161
-1.01906
-1.09857
-1.05411
-1.06896
-1.08011
-1.11731
-1.16392
-1.19319
-1.15063
-1.0847
-1.09664
-1.10734
-1.09323
-1.1143
-1.13003
-1.16654
-1.22647
-1.27275
-1.26068
-1.20061
-1.13203
-1.13416
-1.13315
-1.15243
-1.17282
-1.21329
-1.28839
-1.37639
-1.38287
-1.29375
376.605
376.911
377.567
378.541
379.722
380.992
382.186
383.202
384.028
384.633
327.161
327.477
328.196
329.261
330.566
331.953
333.244
334.31
335.095
335.723
277.291
277.639
278.498
279.789
281.326
282.95
284.436
285.634
286.329
286.715
226.811
227.241
228.347
229.946
231.926
233.955
235.746
237.18
237.293
237.373
175.467
176.109
177.681
179.824
182.43
185.036
187.279
188.986
188.713
190.634
121.722
123.051
125.709
128.911
132.577
136.045
138.931
140.989
141.117
142.968
64.8887
67.4502
72.008
76.8934
82.0383
86.6562
90.4536
93.1398
94.3594
96.466
16.4025
19.7692
23.7391
28.3511
34.5589
39.9897
43.6228
46.119
47.8947
50.0973
0.780146
0.819148
1.06282
2.33817
5.59517
9.44076
11.8101
12.3551
11.2129
11.1616
-0.274459
-0.449233
-0.537086
-0.570587
-0.52656
-0.42146
-0.36233
-0.475672
-0.740611
-0.89767
-0.470089
-0.633005
-0.692038
-0.702552
-0.624584
-0.54151
-0.558876
-0.745417
-1.0453
-1.25718
-0.67213
-0.741362
-0.769385
-0.760576
-0.689291
-0.64558
-0.698486
-0.855289
-1.09143
-1.27256
-0.749103
-0.784539
-0.790971
-0.762871
-0.716491
-0.721088
-0.78726
-0.908
-1.06048
-1.21471
-0.749142
-0.795243
-0.813824
-0.798335
-0.788745
-0.815305
-0.880381
-0.986605
-1.13189
-1.24569
-0.763799
-0.861072
-0.872482
-0.860959
-0.865769
-0.896992
-0.953113
-1.0392
-1.15227
-1.17827
-0.811655
-1.00692
-0.951094
-0.931917
-0.938969
-0.965497
-0.998243
-1.0193
-1.03974
-1.01672
-0.934753
-1.0955
-1.0029
-0.994674
-1.00162
-1.0201
-1.02567
-0.981064
-0.910671
-0.874456
-1.05082
-1.0964
-1.04067
-1.04681
-1.05467
-1.07121
-1.07022
-1.016
-0.961201
-0.86133
-1.10877
-1.10376
-1.08141
-1.09413
-1.10592
-1.12821
-1.15697
-1.17813
-1.18206
-0.974782
-1.13507
-1.13036
-1.1229
-1.13705
-1.15396
-1.18467
-1.25093
-1.37744
-1.41127
-1.20353
375.039
375.342
376.023
377.059
378.32
379.678
380.973
382.107
382.972
383.579
325.408
325.713
326.461
327.61
329.01
330.506
331.92
333.128
334.006
334.618
275.085
275.424
276.338
277.748
279.458
281.249
282.887
284.241
285.134
285.693
223.815
224.264
225.509
227.338
229.553
231.81
233.846
235.443
236.302
236.909
170.983
171.703
173.639
176.255
179.305
182.275
184.849
186.78
187.768
188.595
115.176
116.683
120.018
124.029
128.34
132.362
135.707
138.134
139.567
140.535
54.0555
57.6103
63.7954
70.3388
76.7479
81.85
86.0641
89.3093
91.5156
93.2672
9.00843
10.9278
16.177
23.1637
29.3294
34.3705
38.1276
41.0033
43.3523
45.4426
0.576559
0.13488
0.193466
1.29817
3.16558
5.43486
7.31572
8.80183
9.82878
10.604
-0.274259
-0.503835
-0.618064
-0.649646
-0.62588
-0.545774
-0.46938
-0.486354
-0.611706
-0.680685
-0.560386
-0.707551
-0.75984
-0.778904
-0.718318
-0.649235
-0.615207
-0.691239
-0.8732
-1.02844
-0.711148
-0.775411
-0.794635
-0.78012
-0.73847
-0.710316
-0.725096
-0.824671
-0.988802
-1.1304
-0.755913
-0.784444
-0.784652
-0.759885
-0.730323
-0.729387
-0.78262
-0.873926
-0.979118
-1.05978
-0.753413
-0.778759
-0.786871
-0.777627
-0.778077
-0.805499
-0.857757
-0.935588
-1.03222
-1.09777
-0.761171
-0.804446
-0.830513
-0.83439
-0.847792
-0.875313
-0.91919
-0.976723
-1.04327
-1.07378
-0.823087
-0.891364
-0.904369
-0.90553
-0.918504
-0.940502
-0.968223
-0.995366
-1.02361
-1.01949
-0.940757
-0.993398
-0.973248
-0.971762
-0.980972
-0.996451
-1.01066
-1.01722
-1.00841
-0.972494
-1.03831
-1.0488
-1.02608
-1.02751
-1.03605
-1.04948
-1.06195
-1.05926
-1.02632
-0.953316
-1.08715
-1.0877
-1.07406
-1.07736
-1.08816
-1.10461
-1.12425
-1.13003
-1.09606
-1.01304
-1.12704
-1.12673
-1.11763
-1.12294
-1.13631
-1.15623
-1.18669
-1.21911
-1.20898
-1.14491
373.627
373.913
374.608
375.699
377.036
378.482
379.882
381.119
382.065
382.725
323.829
324.097
324.867
326.085
327.58
329.169
330.733
332.075
333.067
333.712
273.072
273.359
274.314
275.835
277.714
279.71
281.514
283.055
284.142
284.816
220.995
221.362
222.76
224.805
227.287
229.797
232.13
234.016
235.293
236.099
166.763
167.416
169.622
172.645
176.192
179.635
182.65
185.024
186.601
187.517
109.777
110.968
114.564
119.024
123.985
128.678
132.724
135.845
138.067
139.344
45.3193
49.5605
55.8594
62.9909
70.4456
76.7253
81.7802
86.0995
89.266
91.3064
6.68093
7.50941
10.2251
16.2811
22.9149
28.2452
32.4694
36.6547
39.4455
41.9538
0.759331
0.0277082
-0.285098
0.132011
1.23794
2.15352
3.83974
6.57025
9.32843
11.2889
-0.230317
-0.511576
-0.642289
-0.698796
-0.684539
-0.630732
-0.553612
-0.505689
-0.478589
-0.4259
-0.545894
-0.692771
-0.748581
-0.79885
-0.797198
-0.75718
-0.708395
-0.704218
-0.765376
-0.837926
-0.683443
-0.744608
-0.765597
-0.781486
-0.779977
-0.781362
-0.787746
-0.814643
-0.903568
-1.01247
-0.734845
-0.757593
-0.755516
-0.750228
-0.746498
-0.754996
-0.788127
-0.843624
-0.903475
-0.955425
-0.740154
-0.750608
-0.749831
-0.752135
-0.764764
-0.790661
-0.835806
-0.89331
-0.952206
-0.997635
-0.76668