/*--------------------------------*- C++ -*----------------------------------*\
| =========                 |                                                 |
| \\      /  F ield         | OpenFOAM: The Open Source CFD Toolbox           |
|  \\    /   O peration     | Version:  2312                                  |
|   \\  /    A nd           | Website:  www.openfoam.com                      |
|    \\/     M anipulation  |                                                 |
\*---------------------------------------------------------------------------*/
FoamFile
{
    version     2.0;
    format      ascii;
    arch        "LSB;label=32;scalar=64";
    class       surfaceScalarField;
    location    "1.26";
    object      alphaPhi0.water;
}
// * * * * * * * * * * * * * * * * * * * * * * * * * * * * * * * * * * * * * //

dimensions      [0 3 -1 0 0 0 0];

oriented        oriented;

internalField   nonuniform List<scalar> 
22600
(
-3.65499e-08
1.14278e-07
-7.77281e-08
-4.78856e-08
1.76452e-07
-1.65116e-07
-1.62497e-08
2.18334e-07
-2.4997e-07
1.77831e-08
1.97497e-07
-2.3153e-07
2.34869e-08
1.43325e-07
-1.49029e-07
1.06762e-08
1.12228e-07
-9.94172e-08
-2.52109e-10
9.9084e-08
-8.81556e-08
5.543e-09
8.7413e-08
-9.32081e-08
3.88426e-08
6.82748e-08
-1.01574e-07
4.33626e-08
-1.12843e-07
-1.63272e-09
1.99734e-07
-8.38238e-08
-3.10044e-08
2.44554e-07
-3.87309e-08
-7.39233e-08
3.638e-07
-1.02547e-07
-7.17983e-08
3.99184e-07
-2.03812e-07
-6.17436e-08
3.41448e-07
-2.08178e-07
-6.6141e-08
2.67366e-07
-1.5074e-07
-6.39241e-08
2.14715e-07
-1.17848e-07
-4.04396e-08
1.76767e-07
-1.12838e-07
1.22328e-08
1.24148e-07
-1.08545e-07
3.26899e-08
-9.19043e-08
1.39305e-07
6.63462e-08
-5.91642e-09
9.31069e-08
9.1434e-08
1.99318e-07
-6.83222e-08
3.58737e-07
1.66492e-07
-1.60435e-07
4.44525e-07
4.67721e-08
-1.5014e-07
4.41031e-07
-1.09878e-07
-1.17739e-07
3.90539e-07
-1.55574e-07
-1.17865e-07
3.44343e-07
-1.29503e-07
-1.25468e-07
2.79364e-07
-9.49944e-08
-4.73184e-08
7.66499e-08
-3.06521e-08
-1.79835e-07
3.79816e-08
2.34766e-07
-3.51809e-07
1.83389e-07
2.69772e-07
-2.88538e-07
3.44966e-07
1.98789e-08
2.96319e-07
3.12311e-07
-1.93972e-07
4.10656e-07
2.47719e-07
-2.44393e-07
4.26708e-07
6.47443e-08
-2.3595e-07
4.44747e-07
-6.2651e-08
-2.46675e-07
4.18015e-07
-6.29469e-08
-1.91939e-07
2.25993e-07
-1.36387e-09
-2.76067e-08
-1.79788e-07
9.21059e-08
-4.2241e-07
9.08384e-08
5.16371e-08
-7.17208e-07
3.13762e-07
8.73759e-08
-5.51573e-07
2.27296e-07
-1.05033e-07
1.4173e-07
3.46997e-07
-2.93969e-07
2.6736e-07
3.32232e-07
-3.46971e-07
2.75496e-07
2.04214e-07
-3.22347e-07
3.3525e-07
8.48722e-08
-2.40528e-07
2.80719e-07
5.54774e-08
-5.21165e-08
-2.49905e-08
6.25711e-08
7.50021e-08
-3.22016e-07
1.51085e-08
-3.79955e-07
-6.56996e-08
-7.18095e-08
-6.72909e-07
2.75109e-08
-2.86855e-08
-4.95925e-07
-9.87724e-08
-1.35723e-07
-1.8177e-08
2.66944e-07
-2.34011e-07
8.3575e-08
2.82073e-07
-2.38234e-07
1.30946e-07
1.48772e-07
-1.7412e-07
2.0948e-07
6.16566e-08
-4.25096e-08
1.47467e-07
1.64185e-09
4.52853e-08
-2.94591e-08
-8.33262e-08
5.00199e-08
-1.1589e-07
-2.1086e-07
-8.11148e-08
-3.11528e-07
4.8887e-08
-3.03516e-07
-4.1828e-07
9.8938e-08
-8.34981e-08
-4.62478e-07
7.73111e-08
1.96176e-07
-1.92726e-07
3.00798e-08
3.37085e-07
-2.06279e-07
-6.83724e-09
4.09848e-07
-2.41985e-07
-1.08305e-08
4.3016e-07
-2.16687e-07
8.28655e-09
3.72895e-07
-2.44545e-07
-1.23642e-08
3.23021e-07
-3.31829e-07
-9.8716e-09
3.4911e-07
-4.67493e-07
4.10304e-07
-5.73856e-07
-3.71023e-08
2.50612e-07
-5.17026e-07
-6.62151e-08
5.57125e-07
-6.1151e-07
-2.15489e-07
7.83306e-07
-4.37857e-07
-4.58806e-07
9.28971e-07
-3.48569e-07
-6.29383e-07
9.31369e-07
-3.50943e-07
-6.32309e-07
8.50667e-07
-4.17581e-07
-5.31224e-07
7.75268e-07
-5.03459e-07
-4.07317e-07
6.42707e-07
-5.97471e-07
-2.51819e-07
6.94545e-07
-6.9007e-07
7.73523e-07
-7.63051e-07
-2.67528e-07
7.64498e-07
-4.47503e-07
-3.48124e-07
7.49232e-07
-4.41978e-07
-5.03121e-07
5.98507e-07
-2.10992e-07
-6.4324e-07
4.52929e-07
-1.69004e-07
-6.7252e-07
3.24417e-07
-2.85793e-07
-6.13979e-07
2.33961e-07
-4.26962e-07
-5.47404e-07
1.88407e-07
-5.31166e-07
-4.37578e-07
1.86192e-07
-6.02179e-07
-2.97841e-07
2.11726e-07
-7.08189e-07
2.23002e-07
-7.9714e-07
1.3605e-07
2.17445e-08
4.55858e-08
1.84985e-07
6.23465e-10
4.09967e-08
1.06908e-07
2.25914e-09
5.94206e-08
3.53031e-08
2.74562e-09
3.67343e-08
-6.0654e-09
-3.75247e-10
1.5489e-08
-3.12104e-08
1.07608e-09
-9.79351e-09
-3.96619e-08
8.46042e-10
-2.43066e-08
-3.26489e-08
-6.20668e-10
-2.64316e-08
-1.3868e-08
-8.41261e-10
-2.75599e-08
-1.98876e-10
-2.11418e-08
-3.95598e-10
-4.62116e-11
1.16025e-09
-5.00179e-10
-3.28464e-10
8.81574e-10
-2.82094e-10
-4.51495e-10
2.24225e-09
-3.25144e-10
-5.49122e-11
3.84369e-09
-1.58654e-09
-8.0524e-10
2.7568e-09
-2.11109e-09
2.25162e-10
1.25843e-09
-1.37763e-09
3.58686e-10
-1.72992e-10
-4.2045e-10
2.64564e-10
-1.36322e-09
7.00947e-10
2.30358e-10
-1.53131e-09
1.86914e-10
-2.22823e-10
-2.1001e-10
1.33405e-10
4.96492e-11
-2.40716e-10
-1.13615e-10
1.49891e-10
-1.17032e-09
-1.58321e-10
1.55866e-10
-4.11272e-10
-1.44184e-10
2.54841e-10
-4.00053e-10
6.18528e-11
7.00636e-11
-4.18959e-10
4.99953e-11
1.30162e-10
-2.20773e-10
-8.4484e-12
1.45432e-10
-6.97039e-11
-5.1458e-12
1.57169e-10
9.12502e-12
6.37376e-12
1.74529e-10
2.29159e-11
1.95485e-10
-1.90577e-10
2.37026e-10
3.53171e-11
-7.22339e-10
2.62096e-10
5.48516e-11
-1.33695e-09
4.69635e-10
1.14806e-11
-1.42918e-10
1.2671e-10
7.49558e-11
-1.79026e-10
2.0774e-11
1.5346e-11
-1.66886e-10
-7.28679e-11
2.89397e-11
-9.22315e-11
-2.61354e-10
6.88121e-11
-4.47383e-11
-4.33746e-11
1.9138e-11
-2.46118e-11
-7.7714e-12
1.83136e-11
-1.66695e-12
2.14409e-11
-2.2079e-10
3.1359e-10
2.42638e-11
-6.50423e-10
8.62287e-10
7.94304e-12
-1.2919e-09
9.92058e-10
8.69325e-12
-3.86608e-10
3.38815e-10
1.64575e-10
-4.73839e-10
1.72159e-11
6.00018e-11
-9.62859e-10
-2.42172e-10
1.11862e-10
-9.00898e-10
-6.1158e-10
1.06174e-10
-8.13572e-11
-3.26872e-10
9.19152e-13
-4.34145e-11
-1.69793e-11
-2.41363e-11
-5.86485e-12
-1.96108e-12
2.42611e-12
6.02868e-10
2.7743e-11
-5.68436e-10
1.35508e-09
9.04745e-11
-1.18104e-09
1.34031e-09
8.91715e-11
-3.2429e-10
1.14365e-10
1.4166e-10
-3.84674e-10
-4.29406e-12
8.50189e-11
-1.18228e-09
-2.26193e-10
2.35833e-10
-1.26538e-09
-6.91612e-10
2.1952e-10
-1.65765e-10
-5.92902e-10
5.46313e-11
-6.20352e-11
-1.61863e-11
-1.00964e-10
-4.04671e-12
-2.1325e-11
1.57438e-10
1.01907e-09
8.50878e-11
1.15381e-10
1.05226e-09
3.56422e-10
-1.46724e-10
1.03126e-09
1.23497e-10
-6.94521e-11
4.05642e-11
2.83222e-11
-8.16492e-11
-1.70238e-11
4.1891e-11
-5.62903e-10
-1.22712e-10
1.30199e-10
-1.20593e-09
-6.85322e-11
2.28875e-10
-9.00222e-11
-1.86799e-10
9.96747e-11
-8.43012e-11
-3.77464e-11
7.64703e-13
-5.17574e-12
-3.02853e-11
2.50089e-10
7.65935e-10
1.59103e-11
2.85502e-10
6.85605e-10
3.43589e-10
2.87977e-11
8.43029e-10
1.98617e-10
-3.80639e-11
4.9761e-11
2.4493e-11
-7.37174e-11
-1.86431e-10
7.52748e-11
-3.2698e-11
-1.36081e-10
4.25949e-11
-6.39434e-11
-2.22235e-11
1.06569e-11
-1.35559e-10
-1.5424e-11
2.92111e-11
-5.68066e-12
-2.17534e-11
1.35866e-11
-1.20141e-11
5.73556e-12
-4.76915e-11
9.36266e-10
-1.15793e-10
-3.12239e-10
2.84283e-10
8.21953e-11
-3.74822e-11
8.90804e-11
1.03777e-10
-6.18508e-11
5.70601e-11
4.08133e-11
-2.31222e-10
-2.37574e-10
2.26536e-10
-1.47567e-10
-2.91254e-10
1.68946e-10
-2.69892e-11
-1.53089e-10
1.31413e-11
-2.71613e-11
-1.67696e-11
2.85754e-12
-3.58833e-11
-1.30034e-11
1.64595e-12
-9.71958e-12
4.55889e-12
-1.13597e-10
1.26226e-09
-2.10534e-10
-2.27299e-10
1.8849e-11
4.95348e-12
-1.77029e-10
1.22867e-11
2.5862e-11
-2.45423e-10
-4.29501e-11
1.74426e-10
-4.01599e-10
-3.35809e-10
2.60385e-10
-4.83008e-10
-4.51316e-10
2.46672e-10
-1.63475e-10
-3.78682e-10
1.2764e-10
-2.93112e-11
-1.55676e-10
5.54654e-12
-2.34536e-11
-1.76633e-11
-5.55544e-13
-8.44834e-12
-1.1421e-12
-6.00641e-11
-1.61805e-10
5.10568e-11
-5.70231e-11
-2.36973e-13
1.40111e-11
-6.28358e-11
3.43368e-11
2.1322e-11
-3.40466e-10
1.41538e-10
-5.76013e-11
-5.00439e-10
1.93639e-10
-3.64274e-10
-6.08489e-10
2.23154e-10
-5.61942e-10
-6.22587e-10
1.71825e-10
-5.31307e-10
-2.1884e-10
5.55551e-11
-4.13978e-10
-3.53418e-11
-4.65069e-13
-1.92921e-10
-2.25489e-12
-1.81771e-11
-1.04476e-07
1.56767e-07
-1.30019e-07
-7.40674e-08
1.29321e-08
-2.08457e-07
5.23796e-08
-7.23147e-08
-3.04102e-07
1.44215e-07
2.82178e-09
-3.26187e-07
1.6122e-07
7.65601e-08
-2.42594e-07
1.41767e-07
8.29039e-08
-1.62868e-07
1.20516e-07
6.87801e-08
-1.35685e-07
1.06463e-07
5.69592e-08
-1.36114e-07
1.01157e-07
4.79263e-08
-1.44195e-07
1.97395e-08
-1.55911e-07
7.73621e-08
1.70093e-07
-1.74512e-07
2.60237e-07
-2.77147e-07
6.84772e-08
2.65721e-07
-2.82833e-07
1.0249e-07
2.19171e-07
-2.63261e-08
-1.28112e-07
1.68071e-07
1.97539e-07
-2.78056e-07
1.10961e-07
2.31171e-07
-2.41897e-07
7.74314e-08
1.70789e-07
-1.86327e-07
7.0968e-08
1.1825e-07
-1.67665e-07
8.23733e-08
9.37013e-08
-1.65725e-07
3.36948e-08
-1.52959e-07
3.12786e-07
-6.11638e-08
-8.74455e-08
5.62796e-07
-7.5545e-07
4.27581e-07
4.42112e-07
-4.90525e-07
4.94812e-07
2.02437e-07
-3.38607e-09
2.63502e-07
1.18e-07
2.74502e-07
-1.02403e-07
9.99394e-08
3.42346e-07
-2.48689e-07
8.81101e-08
2.78623e-07
-2.25507e-07
5.91426e-08
2.34366e-07
-1.82143e-07
3.82207e-08
2.10515e-07
-1.26544e-07
-1.84858e-08
-1.56899e-08
3.6897e-07
-4.01805e-07
1.55061e-07
3.76155e-07
-9.30712e-07
5.13e-07
1.16579e-07
-4.62282e-07
5.43645e-07
-1.12125e-07
1.89107e-08
4.54127e-07
-9.83199e-08
2.32673e-07
9.27679e-08
-2.33151e-08
3.60104e-07
-1.55414e-07
-1.50924e-08
3.90574e-07
-1.83121e-07
-4.37888e-08
3.81088e-07
-1.19389e-07
2.73656e-08
2.48771e-07
-1.73051e-08
-1.23599e-07
8.05946e-08
9.02917e-08
-3.42876e-07
1.6454e-07
-1.14991e-07
-6.47049e-07
1.48887e-07
-3.16147e-07
-3.54262e-07
4.40134e-07
-3.88412e-07
-6.70827e-08
4.9049e-07
-2.99235e-07
9.08491e-08
2.56862e-07
-1.59927e-07
2.60239e-07
4.54292e-08
-4.02695e-08
3.48011e-07
-2.16175e-08
1.17152e-07
3.23123e-07
-3.68859e-08
2.84582e-07
1.58344e-07
-6.18937e-08
-5.16886e-08
-1.0529e-07
6.85879e-08
-1.11953e-07
-2.72e-07
-1.10476e-07
-2.75017e-07
-2.91739e-07
-1.87117e-07
-1.79057e-07
1.68379e-07
-1.7572e-07
-1.94896e-08
2.23084e-07
-1.1727e-07
1.05186e-07
7.59855e-08
-5.64448e-09
2.37376e-07
-2.71058e-08
1.7009e-07
3.04998e-07
-1.31079e-07
3.6414e-07
3.04364e-07
-2.58617e-07
4.35508e-07
2.86384e-07
-4.10267e-07
2.80973e-07
-5.08464e-07
2.48471e-07
-1.77938e-08
-7.6091e-07
7.95087e-08
9.73769e-08
-6.6591e-07
-2.954e-09
2.34216e-07
-5.23536e-07
1.38052e-08
3.28968e-07
-5.71496e-07
1.17773e-08
4.14928e-07
-5.497e-07
7.03588e-08
4.98739e-07
-5.36631e-07
1.8541e-07
5.69781e-07
-6.24379e-07
2.81251e-07
6.18616e-07
-7.41922e-07
3.00459e-07
6.65793e-07
-8.6611e-07
7.13184e-07
-9.439e-07
-8.62266e-09
2.56972e-07
-7.83169e-07
-3.22792e-07
6.09763e-07
-8.09727e-07
-5.00883e-07
8.05756e-07
-8.31307e-07
-5.82035e-07
8.61334e-07
-7.99783e-07
-5.90506e-07
8.63755e-07
-7.91299e-07
-4.94108e-07
8.62744e-07
-8.77983e-07
-3.38621e-07
7.41578e-07
-1.02909e-06
-2.02791e-07
8.01639e-07
-1.16749e-06
-1.1538e-07
8.63549e-07
-1.29206e-06
8.90039e-07
-1.38134e-06
-5.9344e-07
6.19653e-07
-4.50096e-07
-1.01783e-06
6.89617e-07
-4.82955e-07
-1.10495e-06
5.52696e-07
-4.41548e-07
-9.88282e-07
3.55168e-07
-4.70318e-07
-8.15795e-07
2.04812e-07
-5.59723e-07
-6.87713e-07
1.12283e-07
-6.42376e-07
-5.77983e-07
6.36234e-08
-7.06734e-07
-4.66145e-07
3.45022e-08
-7.96981e-07
-3.43823e-07
2.52722e-08
-8.82135e-07
1.33476e-08
-9.23128e-07
-6.09987e-08
-1.71174e-09
1.85774e-07
-2.16413e-08
2.43102e-09
1.04647e-07
-4.69775e-09
3.09425e-09
7.47995e-08
-5.26756e-09
-1.89562e-09
4.50341e-08
-2.36037e-08
-8.03585e-11
1.1987e-08
-2.70004e-08
1.92499e-09
-1.6258e-08
-2.64615e-08
4.50341e-10
-2.40757e-08
-2.34956e-08
1.05037e-09
-2.48587e-08
-1.59922e-08
1.13759e-09
-2.19608e-08
-4.212e-11
-1.62645e-08
-1.87798e-09
-9.41446e-11
1.56583e-09
-2.67049e-09
-5.47606e-10
4.32879e-09
-1.47945e-09
-8.93781e-10
4.77356e-09
-1.86865e-09
-2.34331e-10
2.86234e-09
-2.72597e-09
4.39369e-10
2.42112e-09
-2.12529e-09
1.10144e-09
8.78788e-10
-1.71601e-09
5.1225e-10
-3.25359e-10
-1.18304e-09
6.38172e-11
-6.839e-10
-5.62004e-10
5.67545e-11
-5.32833e-10
-1.39664e-11
-1.97853e-10
-1.95405e-10
1.13802e-11
1.89313e-10
-6.63642e-10
-1.94879e-10
2.02304e-10
-1.25373e-09
-4.13382e-10
2.95886e-10
-9.24075e-10
-1.38667e-10
2.02657e-10
-1.14535e-09
-2.25226e-10
3.43778e-10
-6.76589e-10
-2.26229e-10
4.72822e-10
-2.27965e-10
8.71871e-11
3.68274e-10
-6.62596e-11
6.12577e-11
1.90074e-10
-2.20793e-11
1.53655e-10
9.3304e-11
7.50835e-11
1.39496e-10
-3.62402e-10
3.19426e-10
1.86626e-10
-1.6452e-09
1.28077e-10
2.41862e-10
-6.43117e-10
-1.52548e-10
8.97929e-11
-7.97724e-10
-1.64404e-10
5.85291e-11
-1.50804e-09
-3.67395e-10
1.669e-10
-1.56742e-09
-8.83524e-10
4.65353e-10
-4.93443e-10
-6.53566e-10
3.39888e-10
-6.5858e-11
-2.97927e-11
6.91653e-11
-1.28991e-11
1.21472e-10
3.99206e-11
6.72376e-11
3.30346e-11
-3.58322e-10
5.77349e-10
1.65656e-10
-1.3165e-09
6.2232e-10
2.35871e-10
-1.93883e-09
3.10939e-10
2.20115e-10
-1.19135e-09
-3.37234e-11
9.62675e-11
-1.76812e-09
-3.30286e-10
1.07947e-10
-1.78712e-09
-1.08578e-09
2.58032e-10
-1.41081e-09
-1.04974e-09
2.04088e-10
-8.3385e-10
-6.04112e-10
7.98952e-11
-4.6191e-11
2.45729e-12
8.99858e-12
3.46752e-11
1.61169e-12
-3.42215e-10
6.73701e-10
1.48138e-10
-1.32557e-09
1.39274e-09
9.08223e-11
-1.28933e-09
4.37227e-10
2.86398e-10
-5.5884e-10
9.72907e-12
6.05014e-11
-1.38156e-09
-7.60413e-11
2.73757e-10
-1.8359e-09
-6.37917e-10
2.98673e-10
-1.74834e-09
-9.7747e-10
1.57077e-10
-1.40287e-09
-8.15846e-10
-2.27071e-11
-3.92452e-10
-3.5448e-10
-1.56961e-10
1.75253e-11
-1.72332e-11
-1.20897e-10
2.30561e-09
1.61409e-10
-6.24189e-10
2.09482e-09
-7.65376e-13
-1.15226e-10
2.48271e-10
1.09541e-10
-1.54682e-10
1.0122e-11
3.52535e-11
-2.18303e-10
-6.03678e-11
8.16878e-11
-1.19204e-09
-2.199e-10
3.52158e-10
-1.59576e-09
-5.24338e-10
2.35858e-10
-1.76366e-09
-6.03231e-10
7.52504e-11
-9.91063e-10
-2.7159e-10
-4.78062e-11
-6.69511e-12
-1.60758e-11
2.38428e-11
1.93198e-09
3.80735e-10
-6.81928e-11
1.98794e-09
1.39254e-10
-6.49929e-11
1.12472e-10
7.24832e-11
-1.34576e-10
8.49074e-12
4.70552e-11
-8.55386e-11
-2.85392e-10
1.59403e-10
-1.25808e-10
-1.24158e-10
3.60662e-11
-8.56204e-10
-1.21263e-11
1.00921e-10
-6.60075e-10
-1.48574e-11
6.60298e-11
-1.51378e-10
-1.81415e-11
1.51565e-11
-9.3522e-12
6.03165e-12
-8.84405e-11
1.709e-09
1.97482e-10
-1.36871e-10
1.07978e-09
1.5407e-10
-1.14979e-10
8.47936e-11
5.44388e-11
-2.62782e-10
-1.48782e-10
2.42735e-10
-3.95014e-10
-3.26399e-10
4.07308e-10
-3.13916e-11
-1.42682e-10
1.43114e-10
-2.62478e-11
-9.61902e-12
7.71922e-12
-3.48943e-11
-2.8589e-12
1.48487e-12
-4.79314e-11
-2.18414e-12
2.00623e-13
-3.63103e-12
2.49784e-12
-2.90376e-10
1.60817e-09
1.80411e-10
-3.18836e-10
7.10079e-11
2.10679e-10
-3.79364e-10
1.06045e-10
7.87384e-11
-5.26036e-10
-2.25051e-10
4.01299e-10
-5.78119e-10
-4.22934e-10
4.15026e-10
-1.71114e-10
-2.1878e-10
1.37479e-10
-2.77215e-11
-3.57977e-11
1.19984e-11
-2.44845e-11
-1.02177e-12
1.33855e-12
-2.44185e-11
1.64251e-12
-3.89882e-12
1.138e-13
-4.73581e-12
-1.57794e-10
7.10184e-11
6.13394e-11
-1.34722e-10
2.04265e-11
1.52262e-11
-1.40594e-10
1.13655e-10
4.50669e-11
-4.51492e-10
2.09493e-10
-3.72756e-11
-7.42279e-10
1.44212e-10
-1.72388e-10
-6.09645e-10
3.77322e-11
-3.68668e-10
-1.45457e-10
-1.22353e-12
-2.78074e-10
-2.85682e-11
-2.24271e-14
-1.08431e-11
-2.59148e-11
-5.71873e-12
4.88246e-12
-1.17258e-11
4.91644e-12
-2.01168e-07
1.87121e-07
-1.15972e-07
-1.45536e-07
-1.94322e-07
-6.9767e-08
1.289e-07
-5.32224e-07
-4.63142e-08
2.84298e-07
-3.81769e-07
-9.9816e-08
2.54021e-07
-7.55863e-08
-1.36731e-07
1.74172e-07
5.43463e-08
-1.37365e-07
1.2058e-07
5.76417e-08
-1.39734e-07
9.65162e-08
3.95581e-08
-1.51608e-07
9.01236e-08
2.2481e-08
-1.60283e-07
-1.39134e-08
-1.65508e-07
-2.2312e-08
2.71829e-07
-2.36907e-07
2.76208e-07
-5.32899e-07
1.08534e-07
4.65765e-07
-9.10341e-07
2.91083e-07
4.56179e-07
-5.96709e-07
9.64413e-08
3.35316e-07
-9.64628e-08
-1.36312e-07
1.76975e-07
1.76384e-07
-2.05595e-07
8.52508e-08
1.62396e-07
-1.99358e-07
6.34928e-08
8.84011e-08
-1.9475e-07
7.80545e-08
3.44753e-08
-1.92281e-07
-2.72972e-08
-1.83219e-07
1.72648e-07
2.44519e-07
-2.32783e-07
5.00128e-07
-7.92037e-07
3.59322e-07
5.1576e-07
-9.98634e-07
5.67639e-07
3.8779e-07
-5.18687e-07
3.13504e-07
3.02792e-07
-4.51232e-08
-6.87451e-08
1.94771e-07
2.78366e-07
-2.42649e-07
1.16818e-07
2.71488e-07
-2.56645e-07
9.64327e-08
1.67258e-07
-2.40615e-07
8.48058e-08
1.38409e-07
-2.18851e-07
5.09291e-08
-1.50612e-07
2.54262e-07
2.66852e-07
-1.21535e-07
2.8678e-07
-6.34971e-07
3.23308e-07
1.06702e-07
-7.95593e-07
5.20576e-07
2.4218e-08
-3.56869e-07
3.74774e-07
5.11859e-08
4.09534e-08
-2.02768e-08
8.05638e-08
3.44372e-07
-2.50798e-07
6.34159e-08
4.02717e-07
-2.97202e-07
1.85128e-08
3.60886e-07
-2.68113e-07
1.13132e-08
3.44335e-07
-2.16031e-07
1.56083e-07
-1.26156e-07
2.53616e-07
3.78018e-07
-2.00242e-07
3.6577e-08
-1.71692e-07
-9.75081e-08
-2.27016e-07
-3.48257e-07
2.56113e-07
-2.68575e-07
-1.2899e-07
3.0417e-07
-1.89662e-07
1.32336e-07
8.65659e-08
-6.92117e-08
3.81838e-07
-1.12487e-07
1.41634e-08
4.98013e-07
-2.0029e-07
4.15257e-08
5.31867e-07
-2.3523e-07
9.22022e-08
5.18693e-07
-2.86928e-07
3.1801e-07
-3.13696e-07
2.68211e-07
3.54959e-07
-5.17152e-07
8.67829e-08
1.17138e-07
-3.99188e-07
-1.24099e-07
7.80514e-08
-4.70686e-08
-1.80422e-07
1.81187e-07
-3.07713e-08
-1.74534e-07
3.15441e-07
-1.13007e-07
-8.08838e-08
4.70064e-07
-2.08983e-07
4.86379e-08
5.74609e-07
-3.37197e-07
1.46875e-07
6.50364e-07
-4.75351e-07
2.00789e-07
6.83336e-07
-6.28824e-07
5.77949e-07
-7.50552e-07
1.86873e-07
2.04081e-07
-7.96906e-07
3.55903e-08
2.59545e-07
-6.57033e-07
-1.19001e-07
4.17462e-07
-7.08355e-07
-2.2066e-07
5.07537e-07
-7.96187e-07
-2.94155e-07
6.12851e-07
-7.73616e-07
-2.73151e-07
7.25652e-07
-8.13222e-07
-1.84806e-07
7.96615e-07
-9.34731e-07
-6.32364e-08
8.3692e-07
-1.05005e-06
6.6373e-08
8.44563e-07
-1.15695e-06
7.96187e-07
-1.25534e-06
-1.77215e-07
3.65068e-07
-7.66941e-07
-4.74178e-07
6.53315e-07
-9.06535e-07
-6.71763e-07
8.80824e-07
-1.09708e-06
-8.37509e-07
1.00113e-06
-1.12763e-06
-9.16389e-07
1.066e-06
-1.16557e-06
-8.92925e-07
8.96032e-07
-1.33938e-06
-7.55682e-07
8.77288e-07
-1.54592e-06
-5.34541e-07
8.34301e-07
-1.72123e-06
-2.77138e-07
7.8474e-07
-1.84906e-06
7.39438e-07
-1.93765e-06
-5.45949e-07
4.81316e-07
-3.41055e-07
-9.32576e-07
4.99927e-07
-4.07259e-07
-1.01527e-06
3.6675e-07
-4.71525e-07
-9.16302e-07
1.87839e-07
-4.94378e-07
-7.68192e-07
5.19901e-08
-5.02405e-07
-6.20802e-07
-1.19499e-09
-5.03827e-07
-4.93559e-07
1.13934e-08
-5.20908e-07
-3.84028e-07
2.53196e-08
-5.46584e-07
-2.8794e-07
2.54222e-08
-5.55611e-07
2.15946e-08
-5.33072e-07
-2.57985e-08
-4.87449e-09
2.08672e-07
-3.11201e-09
-1.34885e-09
1.25475e-07
3.41547e-09
-3.48758e-09
8.0832e-08
-8.07628e-09
-3.6234e-09
3.93428e-08
-1.84287e-08
1.33573e-09
-3.8323e-09
-2.3417e-08
4.76042e-10
-1.26101e-08
-2.56034e-08
1.2792e-10
-1.00754e-08
-2.09961e-08
6.69849e-10
-4.5322e-09
-1.50706e-08
3.34342e-10
-3.58023e-11
-6.32133e-12
-6.5859e-11
-2.01724e-09
-5.72802e-10
9.9848e-10
-1.35346e-09
-2.65637e-10
2.56823e-09
-1.13945e-09
-3.5405e-10
1.60568e-09
-2.91799e-09
-1.98055e-10
1.61662e-09
-1.67524e-09
2.70947e-10
1.93562e-09
-9.56451e-10
1.73346e-10
3.13809e-10
-6.73365e-10
-1.33438e-10
-7.73739e-11
-5.22335e-10
-9.08898e-11
-1.0392e-10
-4.3352e-10
-4.84105e-11
-2.5791e-10
4.77905e-12
-2.51571e-10
-1.12037e-10
1.9566e-10
1.68974e-10
-4.41505e-10
-3.88938e-11
2.3928e-10
-5.87933e-10
-2.12675e-10
2.47746e-10
-4.94875e-10
-3.05517e-11
2.96799e-10
-4.29657e-10
5.79781e-11
4.36304e-10
-2.01381e-10
4.99357e-12
2.63118e-10
-9.79055e-11
5.93482e-11
1.00706e-10
-5.89752e-11
8.55027e-11
2.54276e-11
-1.4594e-10
2.27427e-11
-1.69186e-11
3.91475e-11
7.07568e-11
-2.2805e-10
2.89545e-10
4.83892e-10
-9.88597e-10
-2.82222e-11
1.4915e-10
-1.30539e-09
-3.58182e-10
3.88588e-10
-4.65486e-10
-1.38576e-10
1.67115e-10
-3.06423e-10
-1.12256e-11
7.19749e-11
-2.09849e-10
3.59146e-11
1.0031e-10
-8.12989e-11
1.84154e-10
9.62625e-11
-6.31648e-11
1.37941e-10
6.15362e-11
-4.64405e-11
9.04034e-11
1.7091e-11
4.60845e-11
2.33784e-11
-4.66632e-10
5.55065e-10
5.26256e-10
-2.23263e-09
3.96023e-10
5.65244e-10
-2.33898e-09
-1.84748e-10
3.90944e-10
-9.47769e-10
-6.799e-11
3.36762e-10
-7.6562e-10
-2.14791e-10
9.24704e-11
-7.05741e-10
-4.24576e-10
7.76784e-11
-4.27174e-10
-1.31073e-10
9.75557e-11
-6.58979e-11
1.47176e-10
4.13648e-11
-4.57428e-11
1.25431e-10
8.14863e-12
4.81514e-11
6.41306e-12
-4.98134e-10
8.38185e-10
4.04818e-10
-1.81992e-09
4.7226e-10
3.2047e-10
-8.78145e-10
1.02115e-10
2.82294e-10
-9.69348e-10
-1.25282e-11
1.96391e-10
-1.82062e-09
-2.35483e-10
4.83763e-10
-1.80061e-09
-5.78936e-10
4.34795e-10
-1.55594e-09
-4.86423e-10
3.24152e-10
-1.27975e-09
-2.73677e-10
1.23726e-10
-1.07286e-10
2.13436e-11
1.77592e-11
2.21229e-11
2.14197e-12
-1.72038e-10
2.43546e-09
7.28685e-10
-2.80606e-10
5.31565e-10
3.93961e-11
-8.59592e-11
7.49556e-11
2.68616e-11
-1.2656e-10
-3.35047e-12
5.15477e-11
-8.60696e-10
-1.26713e-10
2.13443e-10
-1.50804e-09
-1.59877e-10
4.34191e-10
-1.88644e-09
-1.27707e-10
2.57321e-10
-2.02327e-09
-1.41863e-10
6.32372e-11
-7.57414e-10
-6.69187e-11
-3.20307e-11
-5.46685e-12
-1.34611e-11
-1.99885e-10
1.97642e-09
1.05345e-09
-6.55771e-11
1.76513e-09
1.44159e-10
-6.31749e-11
5.06114e-11
6.46535e-11
-1.05341e-10
-8.1743e-12
6.68086e-11
-5.10621e-11
-2.07492e-10
4.14938e-11
-2.58175e-10
-7.57316e-12
2.85591e-11
-3.29682e-10
-6.79107e-13
5.15107e-11
-6.66219e-11
-2.03669e-12
1.07647e-12
-5.24957e-11
-2.75796e-12
-1.27299e-12
-4.15907e-12
-2.37369e-12
-1.90539e-10
1.4649e-09
8.99283e-10
-6.92368e-11
1.67938e-09
3.15299e-10
-1.33793e-10
6.12929e-11
8.38491e-11
-3.15686e-10
-1.59797e-10
3.13896e-10
-1.58168e-10
-2.73968e-10
3.60896e-10
-2.06202e-11
-6.62816e-12
2.64254e-11
-2.30038e-11
6.53825e-13
1.01317e-11
-2.62809e-11
1.23986e-12
2.95558e-12
-2.85972e-11
2.97631e-12
-1.49303e-12
1.74955e-12
-1.83969e-12
-3.81263e-10
1.20499e-09
8.21942e-10
-2.41126e-10
2.6925e-10
5.32371e-10
-4.2745e-10
1.29694e-10
1.4907e-10
-5.47003e-10
-2.89321e-10
3.65033e-10
-1.38196e-10
-1.12574e-10
1.92382e-10
-2.3123e-11
-1.23863e-11
2.85549e-11
-1.7173e-11
-3.68192e-12
1.07244e-11
-1.89147e-11
1.52486e-12
4.07728e-12
-3.05862e-11
6.91395e-12
2.79153e-12
8.18807e-12
-1.19698e-11
-1.83985e-10
2.79088e-10
4.76158e-11
-1.32252e-10
4.84578e-11
1.40909e-11
-1.76812e-10
7.76339e-11
7.73624e-11
-1.40618e-10
1.4843e-10
-1.08301e-11
-4.11468e-11
4.13305e-11
-1.30858e-11
-2.41635e-11
1.58808e-11
-1.45733e-11
-1.47368e-11
1.09069e-11
-3.22817e-11
-2.00591e-11
6.76622e-12
-8.38909e-12
-4.63563e-11
5.56015e-13
4.29803e-12
-1.28174e-10
2.48411e-11
-1.98946e-07
1.58368e-07
-7.53948e-08
-2.19262e-07
-1.04587e-07
5.51365e-08
5.67374e-08
-4.85626e-07
1.63312e-07
2.32179e-07
-3.7458e-07
9.93217e-08
2.04404e-07
-9.19574e-08
-1.69979e-08
1.30786e-07
3.21968e-08
-9.59441e-08
8.22786e-08
4.72513e-08
-1.38479e-07
6.56532e-08
3.14461e-08
-1.66428e-07
7.06053e-08
1.01217e-08
-1.75357e-07
-2.00196e-08
-1.76391e-07
-1.63354e-07
2.97874e-07
-2.13059e-07
-1.68574e-09
-2.57565e-07
9.9844e-08
2.78554e-07
-8.03128e-07
3.2837e-07
3.90909e-07
-6.03665e-07
2.13188e-07
2.88311e-07
-1.23445e-07
-2.22648e-09
1.3061e-07
1.22154e-07
-1.37851e-07
4.7438e-08
1.18805e-07
-1.8774e-07
3.87522e-08
4.86048e-08
-2.03222e-07
6.63e-08
-1.40354e-08
-1.95672e-07
-7.13564e-08
-1.77606e-07
4.19841e-08
3.23379e-07
-3.00273e-07
2.82232e-07
-2.88091e-07
1.49628e-07
4.08965e-07
-7.87751e-07
4.25808e-07
4.31862e-07
-5.88559e-07
2.75629e-07
3.40738e-07
-1.02932e-07
1.86323e-09
1.74726e-07
2.16263e-07
-1.70746e-07
6.72946e-08
2.08807e-07
-2.39215e-07
4.81481e-08
8.87293e-08
-2.61592e-07
6.72934e-08
1.65007e-08
-2.68532e-07
-3.03776e-08
-2.47348e-07
1.8809e-07
3.6917e-07
-3.55416e-07
3.14314e-07
-5.38783e-08
-3.70964e-08
2.84857e-07
-5.0801e-07
2.70191e-07
2.51027e-07
-3.70682e-07
1.90795e-07
2.04295e-07
6.30027e-09
-8.27765e-08
1.14906e-07
2.98968e-07
-2.44113e-07
2.11445e-08
3.28428e-07
-3.23062e-07
-2.43863e-08
2.14621e-07
-3.48474e-07
-7.4745e-09
1.42735e-07
-3.59177e-07
9.26076e-08
-3.67469e-07
2.74551e-07
3.78973e-07
-4.84596e-07
2.87581e-07
1.91152e-07
-3.55645e-07
1.35798e-07
-1.0038e-07
2.32837e-10
4.09132e-08
-1.27315e-08
4.10944e-08
2.89094e-08
1.9502e-07
-9.01504e-08
2.42032e-08
4.13806e-07
-2.22619e-07
-1.09606e-09
4.67091e-07
-3.13654e-07
-4.85543e-08
4.01953e-07
-3.75105e-07
-4.63311e-08
3.288e-07
-4.75217e-07
2.42348e-07
-5.98673e-07
2.73671e-07
2.26752e-07
-6.38603e-07
2.37392e-07
2.25803e-07
-3.97565e-07
5.24196e-08
2.17028e-07
-1.7952e-07
-7.30992e-08
3.058e-07
-2.23785e-07
-1.27482e-07
4.19086e-07
-2.8269e-07
-9.39384e-08
5.30479e-07
-3.592e-07
-4.97978e-08
5.70764e-07
-4.8501e-07
-5.17554e-08
5.5626e-07
-6.27701e-07
-3.57636e-08
4.8941e-07
-8.05426e-07
3.79971e-07
-1.02308e-06
-3.84735e-08
1.81799e-07
-7.13479e-07
-1.55203e-07
3.25091e-07
-6.39591e-07
-3.3167e-07
5.26409e-07
-8.41269e-07
-5.26963e-07
6.62057e-07
-9.57151e-07
-6.30762e-07
7.41068e-07
-9.91798e-07
-6.11995e-07
7.56631e-07
-1.05814e-06
-5.28008e-07
7.11777e-07
-1.15973e-06
-3.87355e-07
6.41812e-07
-1.27625e-06
-1.70002e-07
5.51846e-07
-1.43674e-06
4.51358e-07
-1.60788e-06
-4.62921e-07
5.46694e-07
-6.68915e-07
-7.76564e-07
7.50322e-07
-1.01812e-06
-1.0709e-06
1.04489e-06
-1.32123e-06
-1.31386e-06
1.17613e-06
-1.39874e-06
-1.40748e-06
9.36282e-07
-1.53473e-06
-1.31475e-06
7.82648e-07
-1.69936e-06
-1.09442e-06
6.078e-07
-1.88417e-06
-7.81562e-07
4.59709e-07
-2.03256e-06
-4.27218e-07
3.52824e-07
-2.14125e-06
2.72166e-07
-2.20914e-06
-4.01456e-07
3.56373e-07
-2.80839e-07
-7.37911e-07
3.16462e-07
-2.67552e-07
-8.61769e-07
1.90422e-07
-3.35797e-07
-7.75109e-07
1.76409e-08
-3.11498e-07
-6.04665e-07
-7.92947e-09
-2.55961e-07
-4.49747e-07
1.5243e-08
-2.1096e-07
-3.4626e-07
1.72973e-08
-1.77424e-07
-2.79644e-07
1.03834e-08
-1.54514e-07
-2.25408e-07
-1.1823e-10
-1.38539e-07
-4.08557e-10
-1.19468e-07
1.63868e-08
-1.86418e-09
1.56373e-07
3.06317e-08
-2.87461e-09
9.90362e-08
1.89117e-08
-3.01204e-09
4.18892e-08
-8.88163e-09
3.39985e-09
1.20107e-08
-1.73787e-08
-1.38582e-10
-3.60201e-09
-1.30652e-08
1.65854e-10
-9.83655e-10
-5.96939e-09
1.59754e-10
-2.17129e-11
-4.71073e-11
-1.20536e-11
-2.38334e-11
-9.83739e-11
-8.14953e-11
-2.00079e-11
-2.79066e-10
-3.31989e-11
-1.61198e-10
-1.3216e-10
4.43825e-10
-6.30622e-10
4.66229e-12
2.58489e-10
-2.34579e-09
-1.20096e-10
8.94339e-10
-1.04041e-09
2.22388e-10
3.43048e-09
-5.89337e-10
2.75869e-10
9.3682e-10
-2.81841e-10
8.64355e-11
1.07964e-10
-1.58812e-10
4.79043e-11
-4.33309e-11
-2.59675e-10
-2.16987e-11
-1.54768e-10
-5.8948e-10
-2.38053e-10
-1.41838e-10
-3.13026e-10
-1.34888e-10
-8.505e-11
5.80036e-11
2.723e-10
-1.42012e-10
6.79908e-11
2.99931e-10
-2.64894e-10
5.32667e-11
2.425e-10
-2.98939e-10
4.74648e-11
5.59861e-10
-1.80234e-10
1.86559e-10
4.10971e-10
-9.88902e-11
1.43104e-10
1.62944e-10
-6.1646e-11
9.76635e-11
3.9583e-11
-2.90687e-10
6.3248e-11
4.99227e-12
-7.34404e-10
-6.25863e-11
-8.02401e-11
-8.76114e-11
1.20443e-11
-9.11986e-11
3.20561e-10
8.00273e-10
-1.89676e-10
1.16726e-10
2.40617e-10
-1.9059e-10
4.46163e-11
1.37932e-10
-1.70702e-10
1.45365e-10
1.23666e-10
-1.21147e-10
1.0838e-10
1.39291e-10
-7.00063e-11
1.31358e-10
1.13152e-10
-5.39934e-11
1.23111e-10
1.08e-10
-5.58982e-11
1.22272e-10
6.12202e-11
-5.24472e-11
7.00383e-13
1.01871e-11
-4.38228e-14
5.63224e-12
-2.75345e-10
4.49549e-10
1.10416e-09
-1.79676e-09
3.9413e-10
1.77702e-10
-1.93055e-09
8.63833e-11
9.29274e-10
-2.97393e-10
3.27383e-11
4.11511e-10
-2.20885e-10
3.10705e-11
1.11543e-10
-3.1129e-10
7.38046e-11
1.748e-10
-3.14534e-10
1.62183e-10
1.16373e-10
-1.02257e-10
2.18696e-10
1.5222e-10
-6.04653e-11
1.70405e-11
1.741e-11
2.91921e-12
7.13917e-12
-2.66682e-10
5.7954e-10
7.58756e-10
-1.32379e-09
4.39642e-10
7.85343e-11
-2.11169e-09
1.35311e-10
4.05051e-10
-2.10978e-09
-6.87607e-12
6.00343e-10
-1.6449e-09
-5.84248e-11
5.57394e-11
-1.70419e-09
-2.48891e-11
5.56959e-10
-1.72086e-09
3.18008e-11
4.72982e-10
-1.36614e-09
-2.05126e-11
1.75374e-10
-1.91023e-10
-5.73478e-11
2.74518e-11
-8.03909e-11
1.63574e-12
-1.80729e-10
2.03171e-09
2.3969e-09
-2.24725e-10
6.21507e-10
1.08101e-10
-4.76611e-11
4.64248e-11
1.04742e-10
-1.08857e-10
-4.24925e-13
1.13322e-10
-5.73413e-10
-1.29093e-11
1.69938e-10
-7.81499e-10
6.34253e-12
9.66921e-11
-6.12582e-10
2.86852e-12
9.09549e-12
-7.06397e-10
-4.07095e-13
-1.05889e-12
-8.02291e-10
-1.56037e-11
-1.81773e-11
-5.29281e-11
2.45078e-11
-3.54161e-10
1.50366e-09
1.95106e-09
-5.31889e-10
1.78358e-09
7.43515e-10
-5.50441e-11
2.81824e-10
6.1227e-10
-3.50447e-11
-4.06148e-12
5.27171e-11
-1.77687e-11
-1.80397e-11
2.30557e-11
-3.63667e-11
2.30157e-12
2.71903e-11
-2.18416e-11
9.45478e-12
2.24889e-11
-2.56044e-11
1.36326e-12
3.72983e-12
-3.57966e-11
-3.82192e-12
-1.57222e-12
-9.07885e-12
-1.62171e-11
-3.40457e-10
9.76809e-10
1.77313e-09
-3.84387e-10
1.14766e-09
1.01053e-09
-1.20493e-10
3.31075e-10
8.53739e-10
-7.85195e-11
-2.58123e-12
2.73559e-10
-1.38172e-11
-9.89001e-12
1.87102e-10
-1.08825e-11
4.09254e-13
2.52381e-11
-9.34163e-12
2.04523e-12
1.6337e-11
-1.25618e-11
6.10244e-13
8.89519e-12
-3.52185e-11
-4.74355e-12
1.09965e-12
-1.35362e-11
-9.42108e-11
-3.69957e-10
8.9483e-10
1.28926e-09
-3.90522e-10
2.37291e-10
8.17852e-10
-7.47629e-11
2.48798e-11
4.99818e-10
-3.13143e-11
4.44726e-12
3.30671e-10
-1.24253e-11
-3.75247e-12
1.67292e-10
-8.07017e-12
-2.79696e-12
2.82789e-11
-5.40642e-12
-2.70719e-12
1.19696e-11
-6.43365e-12
-2.89688e-12
8.94674e-12
-7.62455e-11
-3.6169e-11
4.03382e-12
-1.71077e-10
-4.66903e-10
-2.48618e-11
1.0215e-10
-9.86234e-12
-2.91503e-11
5.86909e-11
3.54858e-11
-5.62308e-11
4.84186e-11
2.4714e-12
-1.65267e-11
2.12235e-10
1.42161e-11
-9.15039e-12
3.17806e-11
-1.66919e-12
-6.25895e-12
1.49088e-11
-2.9953e-12
-2.45097e-12
1.15443e-11
-6.27622e-12
-3.63043e-14
6.95296e-12
-6.97006e-12
4.83889e-11
6.05529e-12
-6.77265e-11
-4.01138e-10
-3.28174e-10
-1.09941e-07
1.09294e-07
-7.4748e-08
-1.55565e-07
2.52524e-08
7.5508e-08
-1.29917e-08
-1.42224e-07
1.62963e-07
9.19928e-08
-9.69564e-08
9.12935e-08
9.39243e-08
-2.33901e-10
-1.86957e-08
5.96585e-08
3.87583e-08
-1.00437e-07
3.47023e-08
3.9411e-08