/*--------------------------------*- C++ -*----------------------------------*\
| =========                 |                                                 |
| \\      /  F ield         | OpenFOAM: The Open Source CFD Toolbox           |
|  \\    /   O peration     | Version:  2312                                  |
|   \\  /    A nd           | Website:  www.openfoam.com                      |
|    \\/     M anipulation  |                                                 |
\*---------------------------------------------------------------------------*/
FoamFile
{
    version     2.0;
    format      ascii;
    arch        "LSB;label=32;scalar=64";
    class       volScalarField;
    location    "1.26";
    object      p;
}
// * * * * * * * * * * * * * * * * * * * * * * * * * * * * * * * * * * * * * //

dimensions      [1 -1 -2 0 0 0 0];

internalField   nonuniform List<scalar> 
8000
(
376.578
376.224
375.726
375.099
374.359
373.602
372.923
372.4
372.08
372.017
328.279
327.738
327.132
326.468
325.756
324.976
324.252
323.682
323.323
323.236
280.835
280.273
279.414
278.443
277.611
276.78
275.983
275.344
274.92
274.74
234.536
233.946
232.787
231.521
230.287
229.205
228.232
227.446
226.832
226.583
189.158
188.455
186.977
185.532
183.917
182.446
181.182
180.139
179.331
179.012
145.465
144.697
142.407
140.449
138.378
136.481
134.87
133.561
132.646
132.178
104.115
102.929
100.535
97.5504
94.6849
92.2333
90.3515
88.8954
87.8797
87.2327
64.4306
62.6534
59.2362
55.6061
52.1793
49.486
47.6153
46.4498
45.7942
45.1711
34.1212
29.9275
24.9398
20.6876
17.7238
15.9076
14.9742
14.7887
14.8065
14.4347
12.0313
7.38605
3.56156
1.57199
0.630254
0.232298
0.0831023
0.0364757
-0.000356509
-0.0896923
-0.437307
-0.449829
-0.453646
-0.456171
-0.464191
-0.463545
-0.467217
-0.479381
-0.492271
-0.498771
-0.501096
-0.495628
-0.499028
-0.509221
-0.51292
-0.508521
-0.50795
-0.514119
-0.520154
-0.521008
-0.533595
-0.534266
-0.542919
-0.560592
-0.560216
-0.555732
-0.557392
-0.566115
-0.571463
-0.568532
-0.58034
-0.584332
-0.598427
-0.61638
-0.617688
-0.615671
-0.614322
-0.621704
-0.626847
-0.624077
-0.634649
-0.637227
-0.660928
-0.678068
-0.678163
-0.676552
-0.672244
-0.675814
-0.676814
-0.670728
-0.695906
-0.702451
-0.72407
-0.736164
-0.733259
-0.729213
-0.726299
-0.728139
-0.72562
-0.717493
-0.760703
-0.769989
-0.779126
-0.781776
-0.77776
-0.774172
-0.775607
-0.780067
-0.77967
-0.772821
-0.820037
-0.834572
-0.828141
-0.819637
-0.822249
-0.822591
-0.826871
-0.833136
-0.835352
-0.830203
-0.878006
-0.888288
-0.881057
-0.87478
-0.87683
-0.878237
-0.881416
-0.886042
-0.888725
-0.885876
-0.937312
-0.943681
-0.943608
-0.941129
-0.937676
-0.936273
-0.936446
-0.938588
-0.939492
-0.93651
375.991
375.606
375.056
374.496
373.774
373.033
372.357
371.83
371.512
371.457
327.537
326.908
326.331
325.649
325.034
324.32
323.612
323.039
322.674
322.576
280.109
279.352
278.425
277.469
276.727
275.971
275.199
274.54
274.097
273.978
233.713
232.968
231.611
230.272
229.167
228.175
227.22
226.363
225.733
225.48
188.083
187.416
185.965
184.363
182.669
181.179
179.87
178.724
177.824
177.363
143.948
143.231
141.491
139.064
136.866
134.886
133.017
131.561
130.479
129.93
102.65
101.015
98.697
95.3983
92.4134
89.7636
87.543
85.781
84.4993
83.7146
61.4496
60.1602
57.1943
53.3004
49.4424
46.104
43.5285
41.6296
40.2229
39.1521
31.6088
27.7864
23.1543
18.9402
15.5833
13.0076
11.3606
10.2525
9.25666
8.31917
9.3951
5.47163
2.67859
1.03966
0.240502
-0.10535
-0.26913
-0.33366
-0.359286
-0.393143
-0.444116
-0.449851
-0.453619
-0.462749
-0.464271
-0.456047
-0.459213
-0.468652
-0.482356
-0.493165
-0.483161
-0.483544
-0.494554
-0.510521
-0.50939
-0.504318
-0.508562
-0.519445
-0.528247
-0.528478
-0.516924
-0.522131
-0.541292
-0.558693
-0.559812
-0.55559
-0.562454
-0.571126
-0.576152
-0.573933
-0.566203
-0.576454
-0.597156
-0.617655
-0.62108
-0.619238
-0.623834
-0.630677
-0.632956
-0.627842
-0.628063
-0.640814
-0.665826
-0.680687
-0.680994
-0.677658
-0.678827
-0.68557
-0.685261
-0.675431
-0.693963
-0.707226
-0.733683
-0.741857
-0.734047
-0.728951
-0.729644
-0.736531
-0.739513
-0.72687
-0.757331
-0.769915
-0.78365
-0.783431
-0.777329
-0.774294
-0.780835
-0.788756
-0.790916
-0.779468
-0.819133
-0.828905
-0.820968
-0.81741
-0.822248
-0.827484
-0.834711
-0.842787
-0.84428
-0.837698
-0.877929
-0.883328
-0.872861
-0.874703
-0.880927
-0.886414
-0.891977
-0.897618
-0.899494
-0.894406
-0.936218
-0.942695
-0.943407
-0.943534
-0.944366
-0.945656
-0.946613
-0.950372
-0.952025
-0.946994
375.071
374.704
374.4
373.798
372.92
372.069
371.346
370.794
370.471
370.425
326.47
325.986
325.574
324.891
324.075
323.249
322.498
321.902
321.537
321.453
278.81
278.142
277.491
276.358
275.417
274.645
273.863
273.197
272.762
272.627
232.209
231.332
230.358
228.767
227.392
226.421
225.505
224.718
224.181
223.922
186.283
185.474
184.266
182.265
180.469
178.853
177.517
176.508
175.794
175.398
141.659
140.704
139.042
136.373
133.938
131.675
129.954
128.648
127.694
127.13
99.1954
97.7238
95.2586
91.6549
88.3371
85.4016
83.1017
81.4265
80.2354
79.4311
58.3118
56.6393
53.2242
48.5705
43.8051
39.6949
36.7625
34.9028
33.6423
32.6592
27.2516
23.9703
19.435
14.7626
10.7755
7.8813
6.10858
5.0675
4.37818
3.84525
5.79873
3.33703
1.38254
0.165838
-0.190813
-0.309394
-0.373892
-0.379931
-0.380538
-0.404761
-0.438507
-0.448732
-0.458394
-0.466796
-0.450283
-0.444511
-0.45644
-0.46738
-0.479309
-0.489893
-0.481069
-0.487009
-0.503624
-0.518929
-0.512762
-0.508971
-0.514
-0.523784
-0.531489
-0.528094
-0.513257
-0.523976
-0.544548
-0.561631
-0.563202
-0.565591
-0.570378
-0.573912
-0.572801
-0.563957
-0.556373
-0.570062
-0.594454
-0.613204
-0.615574
-0.620024
-0.624903
-0.626151
-0.621113
-0.610154
-0.620636
-0.639634
-0.662574
-0.672681
-0.673873
-0.674551
-0.679206
-0.679269
-0.674461
-0.662977
-0.687711
-0.707297
-0.729738
-0.735399
-0.730467
-0.727889
-0.735792
-0.739838
-0.734971
-0.720353
-0.748381
-0.767779
-0.781114
-0.781757
-0.778696
-0.782107
-0.793358
-0.801303
-0.796658
-0.780444
-0.811284
-0.824107
-0.822903
-0.8246
-0.831488
-0.840994
-0.852152
-0.860533
-0.857527
-0.843667
-0.872773
-0.882675
-0.876936
-0.884179
-0.89338
-0.900351
-0.908363
-0.915897
-0.916562
-0.905018
-0.93091
-0.939936
-0.946361
-0.951383
-0.953816
-0.956278
-0.958774
-0.963984
-0.967533
-0.959997
373.872
373.507
373.32
372.615
371.669
370.715
369.941
369.363
369.034
369.003
325.193
324.716
324.479
323.795
322.86
321.81
320.971
320.34
319.97
319.906
277.132
276.57
276.013
275.065
274.053
272.99
272.084
271.367
270.923
270.798
230.082
229.224
228.362
226.919
225.49
224.326
223.293
222.463
221.917
221.714
183.874
182.878
181.677
179.672
177.721
175.996
174.623
173.615
172.919
172.584
138.57
137.297
135.303
132.562
130.111
127.898
126.174
124.932
124.034
123.47
95.1781
93.6404
90.7962
86.9079
83.3073
80.2346
77.9293
76.3197
75.2002
74.4115
53.9355
51.9932
47.6827
42.0224
36.55
32.3141
29.5792
28.0546
27.1446
26.3674
21.715
19.1282
14.4419
9.53756
5.68666
3.58907
2.49162
1.96644
1.68829
1.47508
2.73344
1.44956
0.131675
-0.206998
-0.297394
-0.361874
-0.375658
-0.367333
-0.368213
-0.387078
-0.433877
-0.445957
-0.462764
-0.442925
-0.434077
-0.447437
-0.456005
-0.45823
-0.458549
-0.464979
-0.486313
-0.496081
-0.506793
-0.509485
-0.506563
-0.509327
-0.517225
-0.523666
-0.52057
-0.512608
-0.522486
-0.534841
-0.552873
-0.56192
-0.562145
-0.564501
-0.570656
-0.574514
-0.571436
-0.562551
-0.561957
-0.57963
-0.598726
-0.612507
-0.615088
-0.618017
-0.621554
-0.620226
-0.615178
-0.605033
-0.617789
-0.63948
-0.656754
-0.666413
-0.671022
-0.676659
-0.682474
-0.679325
-0.671872
-0.658068
-0.681865
-0.704455
-0.725079
-0.730219
-0.72963
-0.73849
-0.753702
-0.759811
-0.751316
-0.731877
-0.743817
-0.764096
-0.78109
-0.782112
-0.783639
-0.795534
-0.814156
-0.824241
-0.819052
-0.798579
-0.80854
-0.82013
-0.828483
-0.83233
-0.841909
-0.855398
-0.871616
-0.88081
-0.874058
-0.853968
-0.871124
-0.882873
-0.885034
-0.892198
-0.901668
-0.911032
-0.92169
-0.929089
-0.926264
-0.908719
-0.929182
-0.937408
-0.946865
-0.956861
-0.960566
-0.964628
-0.968227
-0.972695
-0.974524
-0.960158
372.377
372.023
371.649
370.827
369.872
369.015
368.239
367.648
367.313
367.297
323.674
323.219
322.783
321.974
320.876
319.962
319.119
318.468
318.091
318.041
275.365
274.745
274.078
273.169
271.979
270.909
269.938
269.162
268.706
268.585
227.76
226.938
225.821
224.534
223.151
221.828
220.665
219.763
219.167
218.965
180.994
179.886
178.223
176.348
174.457
172.71
171.254
170.134
169.379
169.046
134.613
133.199
131.115
128.174
125.713
123.505
121.776
120.438
119.432
118.82
90.4597
88.8646
85.4918
81.3038
77.4774
74.3272
72.0803
70.4785
69.4311
68.7552
48.6047
46.1477
40.8608
34.4775
28.741
24.66
22.3217
21.2222
20.594
20.1389
16.1188
13.7645
9.13281
4.8159
2.31665
1.03257
0.417389
0.124014
0.106853
0.0959237
0.798584
0.0645625
-0.251605
-0.297325
-0.336392
-0.358095
-0.366781
-0.369559
-0.359877
-0.353359
-0.436994
-0.455721
-0.435999
-0.428196
-0.436618
-0.444084
-0.44584
-0.441187
-0.43443
-0.427678
-0.486948
-0.490098
-0.492043
-0.497003
-0.501052
-0.506939
-0.509623
-0.50551
-0.498066
-0.487242
-0.526622
-0.540971
-0.549378
-0.555879
-0.557327
-0.561944
-0.564815
-0.565864
-0.560274
-0.548518
-0.574229
-0.591778
-0.605855
-0.611318
-0.614265
-0.619431
-0.624766
-0.624073
-0.618287
-0.607348
-0.624262
-0.642575
-0.658303
-0.664756
-0.67533
-0.687373
-0.698682
-0.701477
-0.694959
-0.677561
-0.679702
-0.703067
-0.722494
-0.7296
-0.735927
-0.752982
-0.771241
-0.779872
-0.771443
-0.748047
-0.744313
-0.762983
-0.781428
-0.786373
-0.789855
-0.806041
-0.827074
-0.837735
-0.831249
-0.808948
-0.809913
-0.818522
-0.825839
-0.837723
-0.847332
-0.859887
-0.876687
-0.884927
-0.879171
-0.860637
-0.873179
-0.881902
-0.885251
-0.894977
-0.904557
-0.912426
-0.922501
-0.926897
-0.922914
-0.9082
-0.929283
-0.935837
-0.944035
-0.955026
-0.960862
-0.965006
-0.969016
-0.971128
-0.967844
-0.953986
370.749
370.401
369.872
369.056
368.125
367.222
366.41
365.797
365.45
365.445
321.952
321.537
320.93
320.049
319.005
318.018
317.135
316.453
316.058
316.013
273.439
272.88
272.067
271.014
269.822
268.661
267.625
266.808
266.301
266.179
225.334
224.592
223.429
221.971
220.513
219.087
217.813
216.791
216.126
215.91
177.771
176.754
175.065
173.026
171.065
169.255
167.668
166.342
165.46
165.076
130.631
128.825
126.708
123.897
121.245
118.966
117.133
115.563
114.4
113.739
85.4565
83.6747
79.8433
75.4655
71.4083
68.218
66.1661
63.9744
62.1466
61.0219
42.3829
39.7567
34.1125
27.4405
21.6457
18.062
16.5677
15.54
14.643
13.994
11.1389
9.11985
5.16022
2.11973
0.607887
0.0345175
-0.135126
-0.188315
-0.201029
-0.193836
-0.143008
-0.271055
-0.331047
-0.341478
-0.339336
-0.326799
-0.320915
-0.318586
-0.316162
-0.306582
-0.430986
-0.423535
-0.428737
-0.43467
-0.429432
-0.421756
-0.412867
-0.411743
-0.407093
-0.397331
-0.476621
-0.486952
-0.488733
-0.496129
-0.497948
-0.497032
-0.492748
-0.491962
-0.485473
-0.471665
-0.523861
-0.545781
-0.547207
-0.554495
-0.559212
-0.563158
-0.565394
-0.566789
-0.559859
-0.542669
-0.573609
-0.600435
-0.606355
-0.611876
-0.620402
-0.631512
-0.638471
-0.639703
-0.633169
-0.613582
-0.629801
-0.651234
-0.660367
-0.669956
-0.687684
-0.70416
-0.712103
-0.713752
-0.705954
-0.685175
-0.684713
-0.705832
-0.72389
-0.733717
-0.744586
-0.758801
-0.771448
-0.777793
-0.770148
-0.749045
-0.744391
-0.764547
-0.786745
-0.794933
-0.795763
-0.806753
-0.821465
-0.82672
-0.81998
-0.801716
-0.810504
-0.821597
-0.838748
-0.847382
-0.851078
-0.857243
-0.867385
-0.871408
-0.865535
-0.850493
-0.871318
-0.879902
-0.888522
-0.897892
-0.902184
-0.907017
-0.914138
-0.916396
-0.91319
-0.899656
-0.927564
-0.935537
-0.943203
-0.950905
-0.953976
-0.957659
-0.96284
-0.964643
-0.961176
-0.948547
369.161
368.801
368.203
367.363
366.41
365.461
364.614
363.969
363.604
363.6
320.25
319.836
319.171
318.22
317.158
316.111
315.178
314.458
314.033
313.99
271.513
270.968
270.096
268.974
267.691
266.449
265.337
264.447
263.893
263.768
222.949
222.231
221.112
219.496
217.939
216.395
214.993
213.849
213.085
212.821
174.663
173.663
172.037
169.848
167.879
165.955
164.084
162.594
161.521
161.011
126.714
125.049
122.767
119.899
117.102
114.689
112.561
110.659
109.112
108.211
80.4959
78.5234
74.6894
70.1771
65.9457
62.8441
59.7556
56.6981
54.1584
52.4303
36.4551
34.1101
28.693
22.0207
16.4928
13.7692
12.5524
11.3929
10.2545
9.41179
7.26777
5.92711
2.82533
0.65026
-0.0283572
-0.149399
-0.204534
-0.21706
-0.215848
-0.216413
-0.269242
-0.33061
-0.378526
-0.371016
-0.339582
-0.321856
-0.319113
-0.316484
-0.31077
-0.304454
-0.402273
-0.407092
-0.434816
-0.438602
-0.422514
-0.416624
-0.415413
-0.41009
-0.399589
-0.386152
-0.468415
-0.450152
-0.495565
-0.502904
-0.502047
-0.502318
-0.501062
-0.495391
-0.48341
-0.46502
-0.520391
-0.54241
-0.553457
-0.561511
-0.569728
-0.575764
-0.575592
-0.57144
-0.56088
-0.541131
-0.57768
-0.60773
-0.60916
-0.618606
-0.634586
-0.644983
-0.646003
-0.641621
-0.632983
-0.613549
-0.634321
-0.658357
-0.663646
-0.67669
-0.695922
-0.707013
-0.707581
-0.704226
-0.695411
-0.678246
-0.689511
-0.710006
-0.724521
-0.738484
-0.748448
-0.753459
-0.755985
-0.755295
-0.748589
-0.731475
-0.749346
-0.762727
-0.787282
-0.801755
-0.801236
-0.800967
-0.803508
-0.804047
-0.797277
-0.780963
-0.810468
-0.81826
-0.839045
-0.856079
-0.85728
-0.854671
-0.85345
-0.852066
-0.84635
-0.830791
-0.869187
-0.877175
-0.888118
-0.897838
-0.902135
-0.902912
-0.901359
-0.901684
-0.897476
-0.883025
-0.927724
-0.935758
-0.941165
-0.943728
-0.946361
-0.949014
-0.94956
-0.952272
-0.949014
-0.934755
367.762
367.38
366.733
365.868
364.883
363.889
362.999
362.32
361.934
361.926
318.729
318.276
317.533
316.588
315.504
314.404
313.419
312.645
312.183
312.126
269.749
269.151
268.252
267.057
265.783
264.459
263.264
262.292
261.668
261.5
220.797
220.009
218.797
217.304
215.666
213.921
212.446
211.162
210.265
209.9
171.903
170.835
169.247
167.227
165.121
163.054
160.915
159.159
157.854
157.15
123.297
121.7
119.425
116.489
113.509
110.927
108.383
106.001
104.045
102.777
76.1302
74.215
70.5518
65.9383
61.346
57.7762
53.8207
50.2479
47.2563
44.9173
31.6779
29.8269
24.9798
18.4679
13.1276
10.9235
9.6605
8.46208
7.31789
6.34098
5.00378
4.00816
1.4839
0.0844825
-0.152144
-0.189338
-0.223545
-0.232383
-0.230494
-0.226612
-0.265198
-0.362782
-0.410923
-0.383451
-0.339046
-0.331468
-0.327993
-0.322735
-0.313132
-0.302263
-0.390611
-0.408452
-0.442422
-0.445048
-0.432885
-0.42995
-0.423085
-0.412605
-0.399558
-0.38327
-0.468405
-0.47139
-0.502127
-0.510894
-0.51214
-0.512283
-0.504856
-0.493939
-0.48269
-0.465856
-0.524894
-0.537393
-0.56049
-0.569963
-0.580596
-0.581669
-0.576592
-0.566605
-0.557171
-0.542243
-0.582929
-0.608193
-0.612525
-0.625707
-0.64306
-0.64573
-0.642751
-0.634642
-0.624921
-0.611216
-0.640174
-0.661283
-0.665963
-0.683238
-0.698795
-0.702023
-0.700744
-0.694965
-0.684986
-0.67128
-0.698002
-0.709688
-0.723175
-0.741994
-0.749969
-0.748513
-0.746351
-0.743124
-0.735072
-0.722146
-0.753726
-0.759228
-0.781466
-0.800097
-0.801642
-0.793355
-0.790424
-0.788041
-0.780747
-0.768385
-0.810353
-0.816293
-0.831163
-0.846901
-0.850793
-0.844002
-0.841066
-0.83695
-0.828001
-0.815837
-0.870088
-0.878582
-0.88357
-0.886556
-0.889253
-0.889334
-0.888265
-0.885001
-0.876451
-0.865775
-0.927499
-0.937061
-0.937863
-0.931205
-0.928536
-0.930738
-0.933591
-0.933126
-0.927227
-0.918564
366.696
366.305
365.626
364.722
363.692
362.645
361.706
360.984
360.575
360.555
317.582
317.119
316.36
315.355
314.22
313.064
312.007
311.17
310.663
310.569
268.411
267.841
266.908
265.698
264.312
262.887
261.594
260.528
259.818
259.566
219.143
218.348
217.185
215.663
213.894
212.025
210.368
208.94
207.899
207.418
169.78
168.79
167.23
165.215
162.896
160.396
158.224
156.273
154.751
153.913
120.644
119.17
116.935
113.907
110.726
107.771
104.854
102.068
99.7825
98.2991
72.739
71.0404
67.5685
62.8227
58.4307
54.0526
49.3547
45.4204
42.1765
39.6173
28.3136
26.9428
22.5573
15.8855
10.8517
8.98641
7.751
6.57628
5.428
4.46474
3.80526
2.89902
0.816998
-0.0560552
-0.19619
-0.22516
-0.24577
-0.249011
-0.243149
-0.234081
-0.273704
-0.380017
-0.429365
-0.386988
-0.344659
-0.342404
-0.340082
-0.334417
-0.323165
-0.307839
-0.389419
-0.41558
-0.450523
-0.454929
-0.44538
-0.438473
-0.428953
-0.42005
-0.409153
-0.392158
-0.471702
-0.477853
-0.509194
-0.519676
-0.521207
-0.514435
-0.504979
-0.496058
-0.48846
-0.474926
-0.529061
-0.547286
-0.565531
-0.57668
-0.586788
-0.581562
-0.572738
-0.564185
-0.557495
-0.547391
-0.585151
-0.606141
-0.616763
-0.630462
-0.646479
-0.643878
-0.636011
-0.627236
-0.619734
-0.611114
-0.641743
-0.658783
-0.667716
-0.688185
-0.698547
-0.699531
-0.693282
-0.684697
-0.675627
-0.666818
-0.696035
-0.706488
-0.725224
-0.743993
-0.749215
-0.748322
-0.742054
-0.73391
-0.724626
-0.715957
-0.752693
-0.75834
-0.776045
-0.792598
-0.794718
-0.788618
-0.783801
-0.77719
-0.769365
-0.762279
-0.812037
-0.819524
-0.826116
-0.831584
-0.83055
-0.826265
-0.824392
-0.819632
-0.81439
-0.808676
-0.872527
-0.883182
-0.879581
-0.869871
-0.864566
-0.864834
-0.863839
-0.863683
-0.862086
-0.856959
-0.927138
-0.937154
-0.932319
-0.916367
-0.907367
-0.906303
-0.910438
-0.914937
-0.914901
-0.908366
366.062
365.658
364.956
364.015
362.942
361.83
360.856
360.096
359.666
359.542
316.904
316.422
315.627
314.594
313.408
312.201
311.071
310.183
309.629
309.569
267.61
267.039
266.092
264.827
263.359
261.849
260.467
259.325
258.533
258.395
218.159
217.316
216.168
214.609
212.722
210.733
208.916
207.358
206.197
205.808
168.541
167.494
165.986
163.907
161.436
158.74
156.272
154.093
152.435
151.718
119.069
117.682
115.415
112.291
108.943
105.59
102.196
98.9368
96.3589
94.992
70.6729
69.1217
65.7612
60.981
56.8613
51.3867
46.0542
41.5135
37.9988
35.7038
26.4781
25.2604
21.0766
14.3943
9.77803
7.82712
6.45322
5.1009
3.94698
3.1717
3.44424
2.33435
0.466423
-0.115235
-0.211839
-0.246071
-0.261266
-0.261367
-0.252965
-0.24128
-0.285889
-0.381423
-0.437029
-0.392318
-0.350576
-0.350252
-0.351431
-0.348009
-0.338099
-0.321098
-0.393088
-0.423293
-0.458704
-0.464954
-0.453756
-0.443742
-0.437836
-0.433557
-0.426622
-0.409608
-0.472245
-0.488439
-0.518675
-0.529559
-0.530052
-0.523941
-0.514815
-0.508607
-0.503975
-0.490618
-0.528592
-0.549968
-0.570961
-0.584082
-0.593846
-0.592188
-0.580873
-0.572906
-0.568608
-0.558809
-0.582386
-0.603224
-0.619462
-0.633887
-0.649103
-0.651081
-0.638282
-0.628337
-0.623832
-0.616295
-0.635989
-0.653054
-0.671602
-0.690014
-0.6993
-0.700956
-0.688308
-0.677682
-0.673215
-0.667211
-0.691368
-0.702356
-0.722454
-0.741207
-0.744577
-0.744293
-0.733714
-0.724298
-0.719791
-0.714558
-0.750689
-0.759118
-0.770959
-0.780989
-0.780178
-0.778678
-0.773581
-0.768175
-0.76498
-0.760948
-0.81324
-0.823375
-0.822258
-0.813601
-0.807571
-0.808394
-0.810677
-0.810784
-0.810731
-0.8082
-0.873576
-0.884424
-0.873807
-0.850829
-0.840597
-0.842646
-0.850088
-0.856442
-0.860024
-0.857683
-0.92238
-0.931365
-0.918496
-0.891733
-0.883357
-0.887565
-0.899211
-0.909918
-0.912654
-0.908952
365.914
365.502
364.774
363.811
362.704
361.565
360.54
359.749
359.299
359.204
316.761
316.28
315.438
314.371
313.139
311.874
310.704
309.774
309.194
309.102
267.449
266.876
265.898
264.559
263.018
261.445
259.988
258.777
257.949
257.718
217.972
217.109
215.881
214.268
212.214
210.185
208.221
206.53
205.309
204.861
168.333
167.17
165.613
163.461
160.884
157.935
155.19
152.777
151.008
150.304
118.681
117.21
114.978
111.771
108.014
104.465
100.56
96.7292
93.7517
92.3444
70.1373
68.6246
65.3349
60.7996
56.4408
50.0176
43.8259
38.3693
34.3097
32.1096
25.94
24.4536
20.5963
14.3629
9.75663
7.27055
5.38672
3.77616
2.69074
2.14617
3.39121
2.0351
0.332507
-0.141459
-0.224038
-0.256228
-0.268339
-0.265526
-0.256179
-0.244272
-0.291981
-0.380518
-0.437565
-0.394147
-0.354592
-0.358734
-0.362899
-0.359366
-0.350201
-0.331553
-0.396362
-0.431521
-0.466491
-0.471167
-0.460837
-0.458981
-0.456392
-0.448164
-0.441773
-0.422948
-0.473149
-0.497579
-0.528354
-0.537431
-0.540657
-0.54202
-0.535984
-0.523917
-0.518576
-0.504052
-0.528019
-0.552039
-0.575902
-0.591009
-0.604286
-0.611326
-0.600077
-0.586581
-0.581401
-0.570934
-0.578771
-0.598519
-0.618986
-0.638823
-0.655836
-0.665282
-0.652057
-0.638321
-0.633642
-0.624777
-0.630171
-0.644681
-0.666271
-0.687516
-0.701091
-0.705595
-0.694293
-0.682676
-0.680065
-0.672915
-0.687842
-0.6968
-0.713424
-0.731982
-0.738643
-0.739647
-0.730868
-0.724132
-0.724041
-0.718779
-0.751891
-0.758666
-0.764415
-0.766662
-0.764988
-0.765877
-0.765351
-0.764842
-0.767173
-0.764568
-0.814873
-0.823765
-0.818556
-0.798851
-0.790358
-0.794952
-0.800866
-0.805344
-0.811807
-0.812684
-0.871448
-0.882401
-0.862609
-0.83192
-0.822609
-0.828842
-0.840095
-0.852
-0.862072
-0.862717
-0.910665
-0.919846
-0.897636
-0.871233
-0.869008
-0.877248
-0.891737
-0.906345
-0.914405
-0.912281
366.262
365.852
365.109
364.127
362.999
361.842
360.794
359.982
359.513
359.464
317.161
316.644
315.804
314.721
313.46
312.161
310.963
310.003
309.414
309.301
267.957
267.393
266.341
264.966
263.389
261.762
260.24
258.973
258.137
257.879
218.579
217.716
216.463
214.774
212.709
210.522
208.416
206.607
205.361
204.879
169.052
167.84
166.261
164.052
161.256
158.206
155.205
152.552
150.689
149.936
119.589
118.033
115.798
112.604
108.461
104.719
100.284
95.8647
92.4553
90.8761
71.2487
69.3943
66.3313
62.139
57.4082
50.1653
42.9612
36.3635
31.5036
29.164
26.7046
24.5289
20.7741
15.3965
10.7817
7.42851
4.77898
2.91973
1.89638
1.47794
3.53368
2.00461
0.282164
-0.15847
-0.230621
-0.260633
-0.269415
-0.261183
-0.24895
-0.235056
-0.299595
-0.387653
-0.445951
-0.406897
-0.367364
-0.374533
-0.373871
-0.363274
-0.350585
-0.330915
-0.404078
-0.44381
-0.472588
-0.477912
-0.475011
-0.48635
-0.474102
-0.449128
-0.440906
-0.426044
-0.478162
-0.506433
-0.530839
-0.536762
-0.543452
-0.559828
-0.548527
-0.520563
-0.515345
-0.508865
-0.530889
-0.552454
-0.575308
-0.588697
-0.603701
-0.618012
-0.606143
-0.582059
-0.57801
-0.575847
-0.578868
-0.593282
-0.613455
-0.632768
-0.65272
-0.664976
-0.652445
-0.633445
-0.63075
-0.628215
-0.62912
-0.637825
-0.65489
-0.676611
-0.694846
-0.702728
-0.691551
-0.679123
-0.678429
-0.67453
-0.691252
-0.694475
-0.703895
-0.717548
-0.726124
-0.73007
-0.725383
-0.721316
-0.724412
-0.721344
-0.75541
-0.760987
-0.761518
-0.757058
-0.751145
-0.754783
-0.757415
-0.760186
-0.766691
-0.767032
-0.814118
-0.825032
-0.817163
-0.792657
-0.77916
-0.784628
-0.788753
-0.796574
-0.809313
-0.815363
-0.865375
-0.874264
-0.853013
-0.821542
-0.813589
-0.819909
-0.830379
-0.84602
-0.860479
-0.866456
-0.900967
-0.911216
-0.889901
-0.871333
-0.871332
-0.878757
-0.890346
-0.903113
-0.913668
-0.918362
367.09
366.666
365.928
364.943
363.809
362.652
361.602
360.787
360.304
360.249
318.046
317.539
316.716
315.615
314.347
313.041
311.841
310.886
310.299
310.186
269.025
268.418
267.361
266.008
264.426
262.79
261.254
259.988
259.172
258.933
219.908
219.032
217.746
216.051
213.989
211.767
209.619
207.791
206.565
206.121
170.739
169.347
167.822
165.65
162.852
159.731
156.632
153.907
152.031
151.322
121.714
119.935
117.716
114.66
110.726
106.662
102.057
97.4114
93.8171
92.2704
74.0049
71.8028
68.6205
64.4257
59.6928
52.556
44.8141
37.3387
31.6365
29.1577
29.1446
26.3061
21.8219
16.7648
12.4218
8.60361
5.26183
2.95682
1.8114
1.44089
3.95875
2.52505
0.550007
-0.180541
-0.242552
-0.248555
-0.256662
-0.250927
-0.236783
-0.222005
-0.32193
-0.395054
-0.443127
-0.434036
-0.390552
-0.375079
-0.365515
-0.352615
-0.339486
-0.323942
-0.417845
-0.460512
-0.479078
-0.481614
-0.479126
-0.485473
-0.460579
-0.426428
-0.421764
-0.419859
-0.485299
-0.511689
-0.529891
-0.531617
-0.534425
-0.542283
-0.525351
-0.497233
-0.495684
-0.505958
-0.5372
-0.551898
-0.568635
-0.574336
-0.58232
-0.590556
-0.577531
-0.558017
-0.560721
-0.57736
-0.585063
-0.591209
-0.602035
-0.612135
-0.626002
-0.632503
-0.621342
-0.610989
-0.61552
-0.631364
-0.637373
-0.639985
-0.643622
-0.655581
-0.669183
-0.670887
-0.663168
-0.65979
-0.665945
-0.673074
-0.700344
-0.703107
-0.700906
-0.707034
-0.708614
-0.706434
-0.703818
-0.706043
-0.713483
-0.717353
-0.760166
-0.766442
-0.763397
-0.756202
-0.743852
-0.741706
-0.742898
-0.747961
-0.757244
-0.763407
-0.813975
-0.821751
-0.814105
-0.794839
-0.779591
-0.777908
-0.77828
-0.785896
-0.80162
-0.815138
-0.859525
-0.864854
-0.850463
-0.829575
-0.822548
-0.822575
-0.828213
-0.84218
-0.861509
-0.876471
-0.898771
-0.912057
-0.902655
-0.892355
-0.891074
-0.893288
-0.900595
-0.911959
-0.924771
-0.936631
368.295
367.867
367.153
366.185
365.063
363.916
362.877
362.064
361.58
361.531
319.354
318.857
318.059
316.979
315.722
314.43
313.246
312.305
311.729
311.623
270.589
269.908
268.916
267.596
266.053
264.447
262.942
261.712
260.931
260.722
221.854
221.006
219.704
217.993
215.989
213.853
211.774
210.018
208.848
208.438
173.224
171.912
170.309
168.109
165.423
162.432
159.458
156.864
155.068
154.354
124.882
123.01
120.859
117.807
114.115
110.058
105.912
101.762
98.4725
96.9704
78.0934
75.7466
72.4331
68.2685
63.6162
57.6477
50.4411
43.1881
37.4286
34.6436
33.4816
30.2989
25.1417
19.387
14.5492
10.9408
7.35217
4.44298
2.88286
2.35751
5.18987
3.83815
1.56536
0.0674533
-0.211361
-0.215729
-0.222506
-0.221817
-0.218184
-0.207371
-0.317459
-0.402042
-0.428826
-0.424983
-0.370743
-0.340622
-0.33258
-0.331738
-0.322468
-0.311758
-0.424126
-0.469285
-0.483755
-0.476301
-0.447979
-0.432303
-0.413902
-0.395448
-0.394964
-0.403521
-0.492953
-0.510139
-0.522399
-0.517039
-0.505442
-0.499402
-0.485116
-0.469903
-0.473531
-0.492325
-0.545222
-0.551116
-0.556977
-0.554979
-0.552591
-0.554956
-0.544219
-0.535436
-0.544839
-0.572466
-0.595232
-0.593894
-0.592842
-0.593867
-0.602266
-0.602483
-0.592094
-0.592943
-0.60582
-0.634582
-0.651233
-0.647857
-0.640554
-0.646897
-0.655615
-0.647505
-0.640371
-0.646746
-0.65899
-0.678008
-0.710019
-0.710434
-0.706699
-0.709532
-0.704771
-0.691732
-0.688396
-0.696764
-0.705817
-0.714708
-0.763475
-0.768925
-0.765897
-0.762421
-0.747276
-0.737843
-0.736154
-0.74358
-0.751971
-0.759903
-0.815328
-0.818452
-0.813404
-0.804526
-0.79172
-0.784966
-0.781501
-0.787154
-0.802559
-0.819043
-0.860943
-0.863649
-0.858476
-0.850999
-0.845167
-0.840893
-0.841223
-0.855591
-0.879157
-0.900048
-0.905217
-0.920429
-0.92361
-0.924752
-0.924284
-0.924603
-0.930394
-0.946263
-0.967293
-0.986457
369.768
369.343
368.672
367.736
366.63
365.515
364.5
363.707
363.237
363.193
320.958
320.461
319.718
318.691
317.453
316.188
315.046
314.136
313.58
313.482
272.417
271.754
270.807
269.582
268.105
266.578
265.13
263.964
263.223
263.029
224.187
223.337
222.014
220.397
218.525
216.553
214.628
213.022
211.954
211.598
176.353
175.046
173.375
171.192
168.669
166.066
163.306
161.008
159.424
158.791
128.927
127.093
125
121.863
118.259
114.37
110.979
107.777
105.352
104.199
82.9805
80.8229
77.5536
73.3523
68.7158
64.3011
58.879
53.3466
48.6785
46.0652
39.6829
36.2223
30.7105
24.2903
18.3448
14.44
11.355
8.35289
6.23022
5.34557
8.05477
6.236
3.39553
1.16001
-0.0283872
-0.180711
-0.198837
-0.197997
-0.199445
-0.181522
-0.27697
-0.360304
-0.386693
-0.384076
-0.355243
-0.319523
-0.320385
-0.323063
-0.318614
-0.305044
-0.432489
-0.451775
-0.46105
-0.456196
-0.437786
-0.410999
-0.393573
-0.380822
-0.383792
-0.391877
-0.503877
-0.507869
-0.511828
-0.509737
-0.498856
-0.488152
-0.471428
-0.46232
-0.46664
-0.483671
-0.557267
-0.558607
-0.561194
-0.556769
-0.552143
-0.546715
-0.536053
-0.531627
-0.539306
-0.564928
-0.608461
-0.603428
-0.603703
-0.602559
-0.603259
-0.593922
-0.588046
-0.590354
-0.602188
-0.631761
-0.663644
-0.657272
-0.653787
-0.657148
-0.658112
-0.642242
-0.640075
-0.647762
-0.661182
-0.687511
-0.718105
-0.715637
-0.714314
-0.714675
-0.708527
-0.692435
-0.695049
-0.702683
-0.712548
-0.726202
-0.767323
-0.772145
-0.772407
-0.766853
-0.754591
-0.746871
-0.747816
-0.753159
-0.761022
-0.76739
-0.816918
-0.823886
-0.820812
-0.814598
-0.805506
-0.801569
-0.798096
-0.803707
-0.816954
-0.829916
-0.867377
-0.872294
-0.872233
-0.873684
-0.870469
-0.866273
-0.862752
-0.874153
-0.899907
-0.921476
-0.91733
-0.930725
-0.942905
-0.954057
-0.956243
-0.954217
-0.959749
-0.979562
-1.00245
-1.02061
371.358
370.931
370.345
369.44
368.33
367.285
366.31
365.545
365.093
365.057
322.68
322.156
321.543
320.619
319.364
318.161
317.056
316.19
315.662
315.573
274.365
273.649
272.771
271.833
270.369
268.926
267.583
266.487
265.793
265.607
226.657
225.724
224.341
223.042
221.32
219.519
217.799
216.381
215.449
215.121
179.692
178.411
176.7
174.639
172.288
169.897
167.626
165.667
164.382
163.952
133.412
131.765
129.665
126.553
123.188
119.803
116.75
113.973
112.349
111.621
88.6663
86.5977
83.563
79.3449
74.9586
70.7949
66.9252
64.2143
61.3041
59.5232
47.0826
43.733
38.1702
31.5408
25.1105
20.1241
17.047
14.8543
13.0051
11.9095
14.113
11.1161
6.54749
3.22828
1.22106
0.175683
-0.111548
-0.176087
-0.195207
-0.166375
0.0452112
-0.304563
-0.356905
-0.345411
-0.340803
-0.333464
-0.333072
-0.331177
-0.32668
-0.318323
-0.49971
-0.496089
-0.468285
-0.442834
-0.435077
-0.430467
-0.407986
-0.387536
-0.388097
-0.400177
-0.532818
-0.533009
-0.527444
-0.51199
-0.499971
-0.499895
-0.487135
-0.470328
-0.471699
-0.490241
-0.57625
-0.580865
-0.583962
-0.567631
-0.558714
-0.562672
-0.556385
-0.537881
-0.543348
-0.569534
-0.620857
-0.624283
-0.626884
-0.61655
-0.613396
-0.608366
-0.603871
-0.597585
-0.608298
-0.634669
-0.67558
-0.678347
-0.672423
-0.666402
-0.664816
-0.654471
-0.652339
-0.656122
-0.67111
-0.693959
-0.729108
-0.731421
-0.723391
-0.715415
-0.710663
-0.705563
-0.708555
-0.715209
-0.730283
-0.745001
-0.771979
-0.777546
-0.772124
-0.760403
-0.757907
-0.760586
-0.765769
-0.769786
-0.780049
-0.788504
-0.818442
-0.827383
-0.822654
-0.810736
-0.810476
-0.816488
-0.819296
-0.82329
-0.83497
-0.843691
-0.869635
-0.878477
-0.878707
-0.877768
-0.880167
-0.882102
-0.881208
-0.890828
-0.909751
-0.923862
-0.922943
-0.935015
-0.947601
-0.960984
-0.96701
-0.967263
-0.968336
-0.983383
-1.00242
-1.01359
372.892
372.443
372.031
371.275
370.126
369.054
368.112
367.384
366.944
366.913
324.321
323.768
323.258
322.516
321.327
320.126
319.067
318.243
317.746
317.669
276.233
275.392