/*--------------------------------*- C++ -*----------------------------------*\
| =========                 |                                                 |
| \\      /  F ield         | OpenFOAM: The Open Source CFD Toolbox           |
|  \\    /   O peration     | Version:  2312                                  |
|   \\  /    A nd           | Website:  www.openfoam.com                      |
|    \\/     M anipulation  |                                                 |
\*---------------------------------------------------------------------------*/
FoamFile
{
    version     2.0;
    format      ascii;
    arch        "LSB;label=32;scalar=64";
    class       volScalarField;
    location    "0.71";
    object      p_rgh;
}
// * * * * * * * * * * * * * * * * * * * * * * * * * * * * * * * * * * * * * //

dimensions      [1 -1 -2 0 0 0 0];

internalField   nonuniform List<scalar> 
8000
(
400.248
399.533
399.339
399.621
400.279
401.182
402.176
403.105
403.843
404.343
399.873
399.213
399.136
399.588
400.455
401.589
402.812
403.934
404.81
405.466
399.043
398.508
398.705
399.532
400.827
402.416
404.076
405.576
406.724
407.682
397.654
397.274
397.89
399.322
401.318
403.68
406.088
408.201
409.856
411.207
395.7
395.614
396.885
399.056
402.112
405.582
409.119
412.267
414.892
416.844
391.285
391.776
394.298
397.814
402.063
407.389
413.212
418.57
423.261
425.175
381.646
384.114
388.672
394.112
400.546
408.939
418.535
427.618
434.622
434.718
234.941
265.005
295.328
310.498
310.327
341.802
398.653
439.826
452.907
460.149
22.6905
29.8236
43.8847
63.3951
109.106
179.514
296.625
424.496
476.335
492.938
-0.0319759
0.0630672
0.166179
0.383467
1.27179
14.0457
68.9109
259.404
446.2
498.286
-0.150749
-0.103149
-0.0553671
0.0486997
0.288208
0.72491
1.69608
45.8247
246.209
446.806
-0.269189
-0.232327
-0.20972
-0.190354
-0.0883586
0.171916
0.474277
1.07924
21.2085
282.083
-0.283187
-0.25276
-0.236785
-0.27136
-0.236293
-0.0670215
0.144524
0.365953
0.741583
32.9662
-0.260723
-0.249137
-0.239787
-0.259832
-0.227889
-0.170895
-0.0052359
0.101772
0.209757
0.832193
-0.254643
-0.254606
-0.247291
-0.268066
-0.276276
-0.21751
-0.0903344
-0.0259584
0.0177893
0.436367
-0.262531
-0.264723
-0.254468
-0.286271
-0.322109
-0.255925
-0.170207
-0.133845
-0.141099
0.148517
-0.27602
-0.285417
-0.272893
-0.300666
-0.346438
-0.305876
-0.272853
-0.248793
-0.159924
0.160096
-0.296869
-0.3278
-0.343709
-0.348157
-0.381055
-0.371532
-0.391785
-0.37801
0.262923
0.170994
-0.305704
-0.369678
-0.45174
-0.442295
-0.424945
-0.447306
-0.485612
-0.303802
0.341739
0.0429576
-0.30828
-0.410082
-0.50653
-0.494041
-0.430945
-0.480999
-0.525257
0.211766
0.415906
-0.00704526
400.047
399.285
399.024
399.224
399.792
400.598
401.497
402.347
403.034
403.528
399.64
398.934
398.786
399.149
399.911
400.929
402.03
403.047
403.833
404.493
398.718
398.141
398.277
399.009
400.177
401.62
403.124
404.503
405.506
406.405
397.111
396.696
397.226
398.591
400.465
402.651
404.817
406.853
407.746
409.497
394.596
394.571
395.886
398.109
400.936
404.191
407.336
410.308
412.451
414.456
389.737
390.267
392.827
396.188
400.455
405.438
410.541
415.968
420.592
422.308
376.521
379.672
385.776
392.616
398.753
406.468
415.034
423.923
431.393
433.289
197.38
226.794
271.513
311.271
346.008
384.562
418.038
432.952
444.939
453.2
0.205755
0.319161
0.456129
3.7709
26.5438
74.5179
171.826
335.739
445.086
458.453
-0.135362
-0.0796959
-0.0242352
0.0258129
0.205526
0.777588
2.48048
45.096
190.157
283.366
-0.313087
-0.283601
-0.273114
-0.240928
-0.0850609
0.144667
0.431777
1.15541
5.64665
41.116
-0.399175
-0.349749
-0.348444
-0.394027
-0.324255
-0.112556
0.0686597
0.258574
0.716182
2.93227
-0.390344
-0.333654
-0.336322
-0.388922
-0.429675
-0.203849
-0.0499901
0.0337664
0.149028
1.31652
-0.33428
-0.302454
-0.306302
-0.351395
-0.410391
-0.253986
-0.138967
-0.0819262
-0.0631527
0.287471
-0.295366
-0.290294
-0.296286
-0.359443
-0.403237
-0.302605
-0.215598
-0.17634
-0.197522
-0.0202863
-0.277913
-0.29568
-0.307626
-0.3751
-0.404002
-0.335493
-0.291798
-0.288648
-0.344053
-0.0881721
-0.291415
-0.325083
-0.335776
-0.405111
-0.395907
-0.373456
-0.393112
-0.416517
-0.498942
0.168015
-0.323151
-0.378685
-0.416684
-0.440773
-0.392517
-0.440141
-0.508661
-0.555722
-0.615542
0.287648
-0.344033
-0.440633
-0.523102
-0.465555
-0.403411
-0.524642
-0.611442
-0.669889
-0.581527
0.39743
-0.37012
-0.524181
-0.585802
-0.517883
-0.479688
-0.606595
-0.689695
-0.72781
-0.467778
0.258276
399.717
398.865
398.479
398.529
398.936
399.582
400.339
401.077
401.688
402.131
399.339
398.54
398.253
398.437
399.017
399.846
400.78
401.671
402.383
402.951
398.486
397.809
397.771
398.313
399.226
400.419
401.703
402.936
403.849
404.589
396.972
396.496
396.82
397.863
399.423
401.265
403.154
405.071
406.287
407.189
394.508
394.335
395.413
397.352
399.833
402.61
405.281
408.198
409.551
411.116
390.212
390.426
392.45
395.462
399.397
403.604
407.803
412.338
414.631
416.677
380.937
382.315
386.962
392.848
399.32
405.398
411.633
418.416
422.567
424.325
227.103
244.561
277.087
316.132
345.97
372.85
398.382
424.303
431.084
401.945
0.045831
0.160188
0.137609
8.00169
30.0795
64.4335
111.758
196.706
286.703
309.032
-0.140535
-0.0605095
0.00809439
0.0254632
0.0609868
0.35776
1.17959
3.44782
17.155
56.5823
-0.283541
-0.239755
-0.224758
-0.227645
-0.183799
-0.0632605
0.139875
0.41788
0.988812
3.25815
-0.371801
-0.326179
-0.320831
-0.328529
-0.282132
-0.175483
-0.0582368
0.0508272
0.202911
0.936871
-0.376538
-0.340329
-0.345281
-0.370248
-0.329254
-0.207111
-0.116571
-0.0750832
-0.062905
0.257531
-0.352833
-0.334228
-0.340834
-0.357358
-0.346849
-0.24679
-0.195799
-0.192136
-0.238461
-0.0689771
-0.327696
-0.337744
-0.350396
-0.362174
-0.351689
-0.269327
-0.268302
-0.304825
-0.383604
-0.245256
-0.322189
-0.360635
-0.37792
-0.380328
-0.326132
-0.26561
-0.34141
-0.38339
-0.511664
-0.315114
-0.348924
-0.396998
-0.420497
-0.399457
-0.21122
-0.298766
-0.438728
-0.511003
-0.603934
-0.321324
-0.385796
-0.454174
-0.488302
-0.395515
-0.174826
-0.383984
-0.547453
-0.638829
-0.634487
-0.271897
-0.433363
-0.531189
-0.547602
-0.432984
-0.292858
-0.480554
-0.635506
-0.712101
-0.566117
-0.0980226
-0.459848
-0.602744
-0.59957
-0.473483
-0.421208
-0.551288
-0.687703
-0.719421
-0.446385
0.13491
399.221
398.26
397.705
397.553
397.743
398.177
398.75
399.342
399.855
400.228
398.886
397.969
397.501
397.455
397.778
398.354
399.065
399.779
400.378
400.849
398.151
397.34
397.083
397.318
397.916
398.777
399.754
400.713
401.481
402.111
396.903
396.246
396.299
396.907
398.035
399.394
400.827
402.209
403.196
404.073
394.96
394.57
395.242
396.667
398.461
400.513
402.506
404.434
405.734
406.989
391.747
391.541
392.892
395.146
398.103
401.2
404.181
406.985
408.692
410.197
386.069
386.008
389.244
393.819
398.865
403.36
407.312
410.86
412.633
414.156
283.6
284.125
301.073
320.294
336.969
353.6
369.808
391.638
396.702
337.244
0.129705
0.428424
3.93969
22.568
46.1295
72.1449
99.4681
126.711
128.989
166.268
-0.0682104
0.0477433
0.134904
0.162328
0.12625
0.0835115
0.333174
0.865139
2.02369
7.05758
-0.161165
-0.0384831
-0.0160666
-0.108658
-0.184867
-0.164995
-0.0704906
0.0699842
0.271739
1.25775
-0.316451
-0.218474
-0.189579
-0.217816
-0.233348
-0.205587
-0.144272
-0.0799904
-0.0545124
0.279898
-0.315676
-0.252948
-0.265604
-0.278794
-0.264594
-0.214778
-0.184967
-0.203653
-0.256653
-0.0645357
-0.270911
-0.234536
-0.303102
-0.305815
-0.277256
-0.230765
-0.227523
-0.294446
-0.363873
-0.200466
-0.25402
-0.272953
-0.350969
-0.329363
-0.281852
-0.222589
-0.263095
-0.368552
-0.444566
-0.283076
-0.26763
-0.35491
-0.404994
-0.34506
-0.238381
-0.198837
-0.326983
-0.445171
-0.502256
-0.311223
-0.299701
-0.430756
-0.450833
-0.349193
-0.162622
-0.240066
-0.419221
-0.520303
-0.494086
-0.270287
-0.412437
-0.502845
-0.505097
-0.339659
-0.195912
-0.334213
-0.48365
-0.566627
-0.449853
-0.226514
-0.488636
-0.574189
-0.527643
-0.394508
-0.342549
-0.420293
-0.506548
-0.541471
-0.365853
-0.135685
-0.497615
-0.566772
-0.536955
-0.495603
-0.496545
-0.316085
-0.322573
-0.551288
-0.384671
-0.177344
398.612
397.477
396.72
396.319
396.245
396.432
396.8
397.241
397.653
397.956
398.338
397.248
396.546
396.213
396.217
396.496
396.96
397.491
397.972
398.355
397.764
396.761
396.21
396.059
396.268
396.731
397.376
398.076
398.687
399.206
396.804
395.965
395.694
395.815
396.295
397.08
398.001
398.963
399.75
400.468
395.456
394.953
395.231
395.986
396.963
398.082
399.308
400.565
401.543
402.433
392.5
393.188
394.185
395.258
396.848
398.598
400.27
401.822
402.752
403.748
389.754
391.022
394.164
396.67
399.346
401.617
403.171
403.779
403.228
402.557
307.905
304.146
324.921
331.342
334.158
341.128
351.292
359.741
347.408
302.464
21.6861
34.5254
73.2764
120.753
147.174
155.256
135.865
106.775
71.386
96.6199
-0.0499023
0.0611652
0.103924
0.017065
-0.0603202
-0.0568089
-0.0123775
0.130666
0.680705
2.44842
-0.134012
0.0642131
0.064011
-0.0538308
-0.131894
-0.187404
-0.131047
-0.0558372
-0.0162549
0.450903
-0.20111
-0.0611564
-0.106184
-0.200802
-0.236855
-0.203206
-0.154187
-0.136077
-0.205263
0.0159486
-0.221973
-0.170851
-0.215154
-0.259042
-0.255431
-0.216675
-0.191318
-0.229994
-0.285884
-0.0996166
-0.23209
-0.206738
-0.212426
-0.269967
-0.236405
-0.206
-0.200406
-0.277324
-0.284763
-0.19973
-0.238142
-0.251666
-0.252051
-0.293262
-0.233671
-0.181354
-0.216885
-0.351493
-0.344116
-0.239984
-0.287511
-0.298454
-0.32974
-0.32125
-0.209889
-0.166223
-0.268042
-0.412625
-0.382293
-0.203368
-0.384712
-0.406016
-0.408759
-0.339529
-0.204905
-0.226184
-0.334379
-0.399761
-0.31352
-0.173117
-0.448332
-0.52061
-0.46006
-0.378263
-0.319345
-0.305201
-0.319108
-0.390745
-0.276249
-0.181335
-0.494783
-0.548143
-0.491381
-0.472461
-0.478413
-0.271531
-0.165221
-0.291052
-0.299712
-0.215318
-0.463001
-0.501421
-0.49406
-0.555893
-0.577587
-0.400221
-0.176912
-0.148944
-0.338527
-0.256479
397.92
396.581
395.567
394.857
394.476
394.412
394.591
394.907
395.243
395.496
397.728
396.406
395.397
394.704
394.341
394.312
394.552
394.94
395.337
395.669
397.317
396.031
395.105
394.46
394.164
394.264
394.639
395.148
395.655
396.112
396.773
395.574
394.833
394.258
394.012
394.156
394.628
395.341
396.014
396.712
395.714
395.087
394.807
394.544
394.571
394.89
395.549
396.315
397.079
397.797
384.856
394.258
395.285
394.786
394.801
395.069
395.74
396.429
396.939
398.179
387.533
395.872
398.516
398.771
399.077
399.517
399.329
397.844
395.635
397.045
321.681
301.979
342.734
374.747
374.109
363.721
351.519
340.34
311.852
290.969
83.6704
149.505
214.983
246.369
225.58
193.536
142.565
88.0644
48.7068
69.6987
-0.0336482
0.0432128
-0.04079
-0.242158
-0.301204
-0.196686
-0.0844464
0.0194216
0.126237
1.23731
-0.0929732
0.00863309
-0.141334
-0.289361
-0.256163
-0.233964
-0.178649
-0.128683
-0.186351
0.0743453
-0.15579
-0.0202339
-0.156372
-0.274905
-0.170486
0.00680148
-0.0664894
-0.161657
-0.303512
-0.0731391
-0.180682
-0.1234
-0.216711
-0.324333
-0.276322
-0.197486
-0.150831
-0.212294
-0.294667
-0.149029
-0.23416
-0.20323
-0.243355
-0.309497
-0.262284
-0.210567
-0.176356
-0.248474
-0.246301
-0.186532
-0.318164
-0.278424
-0.286787
-0.303763
-0.24751
-0.19476
-0.187881
-0.275236
-0.244789
-0.186896
-0.350596
-0.384592
-0.348445
-0.322218
-0.240818
-0.201382
-0.245167
-0.309856
-0.254883
-0.181438
-0.382699
-0.428606
-0.379105
-0.331995
-0.282294
-0.276811
-0.286739
-0.311066
-0.246647
-0.18354
-0.420837
-0.472442
-0.424446
-0.368365
-0.392489
-0.354059
-0.244201
-0.263951
-0.238622
-0.189827
-0.448621
-0.466955
-0.4351
-0.415252
-0.478051
-0.43898
-0.266391
-0.0671395
-0.258928
-0.213011
-0.404359
-0.411477
-0.407575
-0.439973
-0.511551
-0.465436
-0.347721
-0.0782031
-0.280268
-0.245773
397.123
395.561
394.206
393.159
392.478
392.182
392.226
392.485
392.794
393.037
397.018
395.422
394.002
392.881
392.134
391.844
391.944
392.287
392.673
392.996
396.819
395.123
393.619
392.343
391.49
391.238
391.46
391.977
392.531
393.027
396.76
395.115
393.323
391.705
390.708
390.469
390.783
391.493
392.231
393.051
396.686
395.143
393.302
391.377
390.17
390.072
390.744
391.739
392.671
393.459
397.337
395.574
394.487
391.949
389.895
389.368
389.932
390.628
391.221
393.115
391.867
398.386
399.596
396.936
393.967
392.802
393.994
393.23
391.118
390.954
348.814
358.795
393.923
407.691
401.298
398.495
384.204
347.184
300.02
276.584
212.833
264.457
281.865
259.364
173.514
98.9839
82.4372
63.8052
40.6484
59.5161
-0.0294067
0.0337709
-0.2293
-0.404808
-0.319004
-0.251889
-0.113389
-0.00580948
0.0175862
0.32839
-0.0443761
-0.176821
-0.511066
-0.670643
-0.51077
-0.282397
-0.177088
-0.145185
-0.273521
-0.0714281
-0.0704539
-0.102589
-0.396335
-0.556257
-0.106813
-0.0327299
-0.153691
-0.17656
-0.378708
-0.154933
-0.191451
-0.209256
-0.350615
-0.390595
-0.276262
-0.198984
-0.14418
-0.212692
-0.319149
-0.156715
-0.285278
-0.27961
-0.354792
-0.379987
-0.315073
-0.23857
-0.185909
-0.221512
-0.189494
-0.101333
-0.325379
-0.343987
-0.352741
-0.354426
-0.298601
-0.236878
-0.203231
-0.237823
-0.186976
-0.0920076
-0.342666
-0.385797
-0.374305
-0.335899
-0.265243
-0.235629
-0.230472
-0.252703
-0.214163
-0.158255
-0.35284
-0.42935
-0.360819
-0.308728
-0.248694
-0.255485
-0.247824
-0.249219
-0.221275
-0.180313
-0.378481
-0.432886
-0.34828
-0.260028
-0.266593
-0.282295
-0.261764
-0.227612
-0.228577
-0.195186
-0.395439
-0.404288
-0.322921
-0.254849
-0.285759
-0.317936
-0.283009
-0.244348
-0.24163
-0.213235
-0.346536
-0.346162
-0.282212
-0.315952
-0.281813
-0.339543
-0.312553
-0.272959
-0.254729
-0.230852
396.26
394.51
392.762
391.457
390.451
389.932
389.906
390.19
390.529
390.79
396.18
394.313
392.435
390.966
389.788
389.225
389.281
389.709
390.178
390.554
396.016
393.887
391.812
390.174
388.605
387.851
388.051
388.778
389.522
390.164
396.051
393.826
391.142
388.826
386.979
385.841
386.266
387.49
388.628
389.723
396.444
393.199
390.157
387.126
383.895
382.951
384.174
386.319
387.988
389.402
396.894
391.426
389.276
386.079
378.515
379.034
381.327
384.362
386.439
388.722
395.705
395.211
389.147
386.444
375.675
379.353
384.551
387.572
387.22
386.478
408.65
401.154
398.122
375.845
253.423
274.159
373.458
380.215
326.092
272.594
336.651
276.615
169.793
61.2257
3.77571
1.73997
16.373
36.1819
33.7597
58.0772
9.18659
0.0262322
-0.136986
0.0265954
0.480994
0.156174
0.0218175
0.0248987
-0.0178403
0.264891
-0.154329
-0.347029
-0.472956
-0.226304
0.143808
-0.101059
-0.114497
-0.091908
-0.252041
-0.117279
-0.00947809
-0.230856
-0.443102
-0.273949
-0.142776
-0.198272
-0.186883
-0.166189
-0.384746
-0.203687
-0.171044
-0.325687
-0.409047
-0.29725
-0.339898
-0.274826
-0.2125
-0.21781
-0.332673
-0.146324
-0.265906
-0.339094
-0.36263
-0.30961
-0.337832
-0.282378
-0.236218
-0.220762
-0.187049
-0.0737658
-0.324126
-0.373008
-0.382619
-0.38201
-0.317225
-0.250301
-0.240863
-0.216946
-0.143681
-0.0573961
-0.346252
-0.392266
-0.377258
-0.318755
-0.235152
-0.186925
-0.226826
-0.215737
-0.183217
-0.0871602
-0.355243
-0.409984
-0.355568
-0.241072
-0.125765
-0.0884611
-0.186008
-0.220489
-0.202695
-0.159195
-0.361677
-0.402245
-0.298969
-0.16771
-0.0466958
0.0740023
-0.160783
-0.239609
-0.223609
-0.201414
-0.342138
-0.361193
-0.246292
-0.124689
0.0447031
0.133146
-0.175648
-0.259817
-0.236523
-0.208567
-0.285891
-0.301241
-0.223731
0.0536752
0.345597
0.0889042
-0.15221
-0.267812
-0.235382
-0.215135
395.405
393.5
391.209
389.59
388.29
387.776
387.824
388.24
388.668
388.977
395.278
393.098
390.688
388.603
387.046
386.528
386.753
387.465
388.085
388.553
394.97
392.377
389.493
386.58
383.878
383.864
384.562
385.821
386.929
387.772
394.845
391.561
387.73
383.916
379.24
379.006
380.954
383.368
385.374
386.78
395.244
389.929
384.081
377.814
370.13
372.028
375.593
380.195
383.541
385.87
396.352
383.877
371.912
366.469
352.998
361.697
368.166
376.414
381.541
384.938
399.363
375.351
363.54
346.923
288.751
293.239
356.65
377.786
382.301
382.858
406.726
394.553
381.223
197.874
24.5788
17.5349
106.795
347.903
355.178
280.041
362.069
101.078
12.1221
2.94004
3.07739
2.47862
1.44141
8.17122
19.3072
73.7664
18.3996
0.411912
1.02056
1.73979
2.14779
1.0222
0.377005
0.178166
0.04118
0.241797
-0.223577
-0.0412419
0.446282
1.50474
1.31758
0.182683
-0.0146447
-0.0053895
-0.179115
-0.114937
-0.287662
-0.288056
0.548655
0.870059
0.852086
-0.138596
-0.131812
-0.137777
-0.350336
-0.216779
-0.263803
-0.263558
0.671031
0.707193
0.769586
-0.182573
-0.20045
-0.224528
-0.373172
-0.179461
-0.272215
-0.342931
-0.16323
0.524464
0.77777
-0.109213
-0.224811
-0.242425
-0.248007
-0.147549
-0.303905
-0.365844
-0.433215
-0.435198
-0.10192
0.560034
-0.224191
-0.224465
-0.166379
-0.0642078
-0.329284
-0.386213
-0.399516
-0.340394
-0.183975
0.724843
-0.209841
-0.220837
-0.18554
-0.070978
-0.340463
-0.3987
-0.367094
-0.260267
0.175223
0.757861
-0.210824
-0.234348
-0.207564
-0.144611
-0.33378
-0.391368
-0.337561
-0.223322
0.284256
0.801624
-0.181745
-0.248951
-0.224267
-0.192437
-0.305185
-0.363352
-0.306771
-0.188456
0.0320452
0.790443
0.0812915
-0.254577
-0.225979
-0.194076
-0.26396
-0.324181
-0.220643
0.145036
-0.122985
0.0655543
0.81879
-0.2343
-0.212036
-0.183801
394.253
392.604
390.148
388.573
387.017
386.354
386.425
386.957
387.472
387.83
393.857
392.188
389.235
387.065
385.495
384.652
384.964
385.929
386.699
387.261
391.928
391.03
387.579
384.293
381.853
380.669
381.869
383.612
385.113
386.177
390.42
389.879
385.284
379.845
374.67
372.415
376.277
379.956
382.849
384.724
389.657
387.842
380.629
371.098
348.051
355.957
367.126
374.455
379.84
383.212
392.06
385.766
370.322
331.075
306.916
326.131
349.955
366.403
376.197
381.478
396.081
385.548
358.807
299.412
173.21
100.451
206.856
350.488
375.821
379.225
396.676
353.545
270.278
77.7396
6.77893
8.95348
5.97837
107.31
346.676
299.759
140.345
8.19256
3.14792
2.86149
3.81501
3.83206
2.45337
0.873481
7.21805
106.021
0.910117
1.25739
2.00738
1.8861
1.69414
2.06229
0.706172
0.38818
0.168294
0.278977
-0.0113053
0.485477
0.93823
1.05422
0.843709
0.310651
0.179648
0.115016
-0.0867982
-0.0747151
-0.246992
-0.0307001
0.436665
0.465175
0.321744
0.0504959
-0.063972
-0.116149
-0.310868
-0.219351
-0.425154
-0.124225
0.507482
0.126668
0.0627769
-0.133572
-0.202686
-0.224773
-0.433648
-0.243472
-0.362004
0.209267
0.402751
0.070385
-0.0564162
-0.194699
-0.248108
-0.211492
-0.375094
-0.207052
-0.266593
0.249205
0.334919
0.0529833
-0.059272
0.286786
-0.246216
-0.160315
-0.252062
-0.129802
-0.241481
0.182632
0.066429
-0.222584
-0.0441792
0.638202
-0.244643
-0.239537
-0.207717
-0.119132
-0.252726
-0.269918
-0.328733
-0.291255
-0.133851
0.69124
-0.252919
-0.264537
-0.237622
-0.190197
-0.313444
-0.342143
0.177015
-0.24917
-0.151963
-0.0775928
0.1813
-0.264232
-0.250509
-0.204941
-0.315312
-0.247038
0.444555
-0.0622413
-0.127421
-0.0689735
0.814426
-0.243299
-0.234905
-0.202482
-0.273285
-0.168915
0.539962
0.412642
-0.111819
0.132788
0.899682
-0.209154
-0.203286
-0.177438
393.76
392.24
389.892
388.089
386.575
385.865
385.988
386.568
387.14
387.53
392.964
391.757
388.955
386.694
384.778
383.914
384.357
385.397
386.294
386.917
391.501
390.612
387.146
383.788
381.17
379.6
380.684
382.822
384.534
385.739
389.614
388.932
384.158
378.865
373.373
369.283
373.462
378.43
381.834
384.129
388.317
386.424
378.599
370.135
349.337
340.159
360.076
370.945
378.046
382.289
390.899
383.907
372.665
336.811
294.842
288.501
322.063
356.269
372.28
379.755
392.928
379.522
358.115
298.126
140.847
46.3578
73.3157
255.063
368.042
379.565
353.274
210.62
160.305
49.4723
5.94868
5.87486
4.41775
9.97553
248.775
326.329
32.6094
4.01925
3.33565
2.9873
3.25351
2.69428
1.94771
1.17964
3.22506
155.229
1.39245
2.6096
2.98314
2.17205
1.52649
1.00291
0.780055
0.552306
0.289643
2.58105
0.910688
0.991384
1.17832
1.39511
0.848921
0.500817
0.33798
0.142868
-0.00285848
0.00460897
0.768227
0.371249
0.459672
1.22928
0.97243
0.196223
0.135925
-0.0800561
-0.254968
-0.199279
-0.33381
-0.17132
-0.00124499
0.725715
0.922644
-0.0658569
-0.101512
-0.119108
-0.425866
-0.284234
-0.461998
-0.361498
-0.245268
-0.223888
-0.0399267
-0.226801
-0.257833
-0.110148
-0.424033
-0.266732
-0.394524
-0.243886
-0.317375
-0.313969
-0.302935
-0.290796
-0.279457
-0.187576
-0.311122
-0.218477
-0.28492
-0.0830427
-0.338278
-0.319386
-0.310149
-0.291036
-0.306233
-0.269856
-0.270703
-0.215155
-0.255752
-0.065393
-0.339833
-0.307828
-0.152119
-0.021578
-0.348587
-0.30414
-0.287769
-0.253694
-0.311023
-0.134448
-0.329358
-0.276016
-0.0407134
0.281973
-0.356927
-0.326484
-0.31152
-0.274435
-0.293788
-0.386408
-0.304407
-0.240944
-0.120655
0.421479
-0.0477571
-0.30747
-0.265723
-0.259626
-0.24401
-0.314996
-0.0807097
-0.115653
-0.152472
0.32878
0.77497
-0.245356
-0.181674
-0.217332
394.324
392.457
390.336
388.602
387.273
386.604
386.69
387.222
387.765
388.148
394.091
391.893
389.531
387.419
385.784
384.932
385.265
386.214
387.027
387.619
393.587
390.819
387.821
384.854
382.393
381.315
382.112
383.999
385.514
386.625
392.781
388.774
384.101
380.369
376.085
373.52
376.351
380.181
383.288
385.298
391.722
382.234
372.198
371.565
365.863
360.42
367.016
374.512
380.476
383.927
392.377
377.015
370.414
363.476
342.964
335.562
350.75
365.579
376.072
382.05
393.774
380.595
370.791
335.97
212.279
148.19
218.915
338.456
374.238
381.835
344.527
206.859
210.955
98.6603
5.67276
4.81285
4.18383
79.4852
338.533
323.834
29.6802
5.15847
3.90981
3.13714
3.29892
2.2503
1.24431
0.725433
10.7762
154.16
2.07274
2.92712
3.28222
2.83544
1.27357
0.714848
0.556816
0.374458
0.212409
1.30727
1.32352
2.09017
2.34743
2.09411
1.07472
0.221657
0.190152
0.102116
0.0157539
0.0682016
0.973017
0.26402
0.808375
1.51101
1.25604
0.10196
0.0969307
-0.0828019
-0.215269
-0.170435
0.263951
-0.25446
-0.170523
1.27639
1.08079
0.0808555
0.0681059
-0.0348956
-0.384528
-0.299859
-0.467463
-0.390732
-0.318889
0.280855
0.780631
-0.154908
0.0136242
0.00513104
-0.43684
-0.308977
-0.433318
-0.432902
-0.344165
-0.368495
-0.391673
-0.335731
0.00483294
0.0154289
-0.355167
-0.262801
-0.373717
-0.423178
-0.366559
-0.346132
-0.378423
-0.380045
-0.245702
0.01395
-0.339209
-0.272854
-0.320111
-0.38278
-0.348144
-0.276777
-0.334064
-0.403303
-0.452691
-0.0662329
-0.387475
-0.332025
-0.285243
-0.346908
-0.289931
-0.104838
0.268263
-0.120558
-0.476662
-0.439018
-0.320437
-0.36862
-0.240697
-0.306878
-0.254795
-0.0164309
0.612466
0.346582
-0.433167
-0.424525
-0.116386
-0.343573
-0.189896
-0.242041
-0.217685
0.00541903
0.436128
0.480463
-0.297195
-0.308752
0.00368906
-0.272935
394.658
393.054
391.315
389.888
388.789
388.245
388.34
388.769
389.26
389.615
394.433
392.627
390.772
389.15
387.791
387.135
387.35
388.046
388.756
389.269
394.009
391.918
389.712
387.545
385.768
384.768
385.251
386.569
387.804
388.706
393.355
389.789
387.573
385.12
382.559
380.68
381.645
384.264
386.378
388.055
392.329
381.958
384.312
381.436
376.957
374.322
376.087
381.662
385.48
387.601
393.681
385.2
384.03
377.256
367.622
364.286
367.702
377.676
383.351
386.888
377.045
388.566
385.255
373.738
335.664
340.434
354.536
372.835
383.71
387.753
361.75
301.982
326.378
275.728
50.1172
19.885
60.6415
313.834
376.775
309.819
101.513
7.58289
3.84502
2.85905
2.21777
1.24855
0.717034
6.75933
34.7676
147.765
2.41857
2.79926
2.07422
1.4283
0.676719
0.347326
0.263601
0.159343
0.15547
0.540495
1.46528
1.70626
1.81112
0.874833
0.0530041
-0.0599621
0.00341226
-0.00329839
-0.0274934
0.0462242
1.13051
1.11952
0.590179
-0.0687879
-0.341391
-0.263144
-0.204016
-0.189273
-0.215089
-0.173896
-0.313599
-0.233851
-0.283376
-0.3571
-0.429547
-0.362157
-0.310367
-0.275422
-0.360017
-0.302222
-0.379531
-0.377372
-0.375101
-0.411082
-0.435292
-0.396986
-0.203193
-0.169234
-0.443947
-0.330634
-0.345806
-0.367261
-0.385146
-0.412769
-0.421424
-0.409188
-0.0929476
-0.115923
-0.396895
-0.302385
-0.301911
-0.252102
-0.337437
-0.399916
-0.431974
-0.442404
-0.266781
-0.198958
-0.415796
-0.347368
-0.187495
0.0131582
0.270974
0.162734
-0.461308
-0.464447
-0.5226
-0.43739
-0.481878
-0.448476
0.157682
-0.0198542
0.81182
0.736515
-0.282458
-0.537615
-0.574256
-0.567782
-0.359742
-0.385011
0.405622
-0.172425
0.934266
0.833859
0.514232
-0.514714
-0.5391
-0.517223
-0.195059
-0.257066
0.0268621
-0.162556
0.743598
0.948616
0.866766
-0.295919
-0.419495
-0.373635
-0.070126
-0.235117
395.277
393.996
392.567
391.493
390.731
390.404
390.527
390.926
391.376
391.695
395.078
393.646
392.211
391
390.121
389.759
389.976
390.551
391.149
391.592
394.74
393.275
391.496
389.986
388.882
388.446
388.902
389.91
390.881
391.537
394.114
392.335
390.529
388.44
386.986
386.35
387.131
388.875
390.362
391.502
393.291
390.909
389.513
386.662
384.384
383.602
385.15
388.436
390.911
392.172
374.796
390.801
388.933
384.506
380.551
379.012
381.957
387.722
390.491
391.981
357.91
388.318
390.708
385.605
379.404
374.589
378.887
387.256
392.282
393.449
363.946
360.912
358.68
365.654
296.041
227.642
322.314
399.895
368.99
284.688
173.44
59.0708
28.0358
15.2309
16.4965
14.0244
31.4357
53.332
77.5773
138.209
2.87898
2.26337
0.8873
0.469205
0.173407
0.0384007
-0.0167207
0.0361308
0.139045
0.532309
1.59091
1.39216
0.379427
-0.146185
-0.267279
-0.175085
-0.146657
-0.117895
-0.0866653
0.0258756
1.26085
1.20595
0.436113
-0.322235
-0.371497
-0.309355
-0.269095
-0.236389
-0.236012
-0.176652
-0.00321252
0.0163
-0.291412
-0.448016
-0.423535
-0.394152
-0.364402
-0.308662
-0.362326
-0.303709
-0.338192
-0.390122
-0.437057
-0.467346
-0.449672
-0.435669
-0.414537
-0.378446
-0.465465
-0.344719
-0.306568
-0.370599
-0.312919
-0.442248
-0.453121
-0.450396
-0.465704
-0.463349
-0.454549
-0.349066
0.688199
-0.218405
-0.0615834
-0.424667
-0.469773
-0.477858
-0.516444
-0.554988
-0.507247
-0.435896
1.21321
0.0456708
-0.0066195
-0.44484
-0.498545
-0.520657
-0.567457
-0.641487
-0.606879
-0.564487
0.257239
0.131351
-0.00664048
-0.462395
-0.520321
-0.560086
-0.595956
-0.646088
-0.552552
-0.379756
-0.200882
-0.073774
0.0256347
-0.430497
-0.509273
-0.562794
-0.577167
-0.578388
-0.353679
-0.235463
-0.161668
-0.092459
0.105176
-0.38065
-0.467679
-0.508068
-0.488993
-0.451636
-0.11736
-0.00462823
395.985
395.07
393.92
393.245
392.816
392.73
392.966
393.382
393.813
394.121
395.765
394.707
393.721
392.985
392.523
392.453
392.773
393.324
393.875
394.278
395.172
394.339
393.281
392.486
391.989
392.001
392.54
393.38
394.161
394.721
394.305
393.749
392.729
391.796
391.239
391.247
392.091
393.438
394.596
395.392
382.519
393.162
392.206
391.123
390.644
390.961
392.392
394.47
396.046
396.922
361.774
389.402
391.968
390.442
389.413
389.656
392.125
395.419
397.108
397.479
359.779
388.77
393.771
392.605
392.287
391.781
395.721
398.905
399.517
399.236
381.053
365.488
342.937
355.379
389.423
399.224
402.98
392.401
367.093
292.412
159.242
100.054
71.8716
85.3133
88.3001
100.231
112.695
111.098
105.274
115.167
2.81216
1.06288
0.108465
0.0738348
-0.0609623
-0.151218
-0.126467
0.102105
0.222933
0.908552
1.55179
0.666591
-0.270853
-0.282422
-0.218496
-0.199685
-0.192946
-0.144179
-0.09459
0.0616062
1.17902
0.964577
-0.239985
-0.326687
-0.282651
-0.307136
-0.278382
-0.265821
-0.264977
-0.16822
1.05511
0.598263
-0.422393
-0.483279
-0.434958
-0.400822
-0.370812
-0.327792
-0.376787
-0.296043
-0.177924
-0.439445
-0.514126
-0.501092
-0.470824
-0.444192
-0.411766
-0.393927
-0.468257
-0.352642
-0.351184
-0.431991
-0.495982
-0.459788
-0.482044
-0.468162
-0.43997
-0.463963
-0.489535
-0.393572
0.0975481
-0.278666
-0.453863
-0.432899
-0.499896
-0.495627
-0.486045
-0.523387
-0.559025
-0.511768
0.622038
0.42758
-0.402221
-0.43281
-0.523227
-0.523158
-0.547541
-0.629243
-0.695148
-0.670833
0.741611
0.609938
-0.3586
-0.444406
-0.53212
-0.552362
-0.582393
-0.667097
-0.686902
-0.702655
0.888455
0.732403
-0.33684
-0.428353
-0.524413
-0.568154
-0.573847
-0.622658
-0.609155
-0.401833
0.903454
0.756154
-0.28915
-0.394125
-0.505791
-0.55505
-0.526586
-0.491945
-0.42742
-0.0598116
396.696
396.076
395.34
394.939
394.811
394.962
395.338
395.824
396.287
396.618
396.579
395.796
395.18
394.822
394.732
394.953
395.437
396.045
396.609
397.026
395.915
395.404
394.886
394.628
394.675
395.055
395.753
396.61
397.367
397.925
394.604
394.759
394.534
394.387
394.547
395.179
396.262
397.549
398.588
399.301
386.102
393.588
394.231
394.358
394.994
396.064
397.628
399.526
400.869
401.65
377.426
391.84
393.974
393.952
394.574
396.248
398.729
401.554
403.135
403.451
386.748
394.808
395.296
395.983
397.869
400.164
402.991
405.727
406.507
406.097
380.608
355.669
321.87
324.181
350.781
374.44
379.342
381.78
384.891
329.839
100.489
88.7211
84.263
112.428
123.447
117.896
112.73
121.86
121.617
117.196
0.687424
-0.106901
-0.302443
-0.158005
0.386614
-0.00922497
0.157575
0.433469
0.587728
1.84457
0.249389
-0.268776
-0.448613
-0.264501
-0.10613
-0.176032
-0.133563
-0.0879678
-0.0406798
0.304051
0.916007
-0.118552
-0.503975
-0.383938
-0.295708
-0.283928
-0.293027
-0.286394
-0.273795
-0.1173
0.96288
-0.0724084
-0.564949
-0.499126
-0.454232
-0.420318
-0.389062
-0.348882
-0.388255
-0.272507
1.08392
-0.317973
-0.572855
-0.519818
-0.498747
-0.472495
-0.428549
-0.376853
-0.460398
-0.3495
0.0293956
-0.447322
-0.517959
-0.493952
-0.50964
-0.499798
-0.432423
-0.403348
-0.476857
-0.408314
-0.381382
-0.421014
-0.465314
-0.465861
-0.506996
-0.516764
-0.459152
-0.458344
-0.53115
-0.513624
-0.26755
-0.331342
-0.429845
-0.463949
-0.514409
-0.533711
-0.511638
-0.565126
-0.652734
-0.657132
0.172143
-0.212194
-0.394429
-0.463379
-0.528026
-0.551693
-0.547566
-0.63089
-0.706492
-0.710412
0.411847
-0.107999
-0.3576
-0.4515
-0.527152
-0.569353
-0.556997
-0.603201
-0.651894
-0.641792
0.31799
-0.0148295
-0.336521
-0.430347
-0.521645
-0.581324
-0.537195
-0.499094
-0.518885
-0.283664
397.642
397.025
396.585
396.445
396.575
396.94
397.468
398.047
398.564
398.937
397.433
396.886
396.496
396.427
396.638
397.12
397.778
398.483
399.097
399.572
396.971
396.576
396.317
396.439
396.892
397.575
398.483
399.449
400.247
400.867
396.25
396.058
396.043
396.406
397.119
398.24
399.596
401.008
402.037
402.881
395.089
395.284
395.751
396.651
397.93
399.596
401.543
403.633
404.992
405.995
394.266
394.341
395.178
396.334
398.055
400.397
403.331
406.63
408.566
409.471
394.427
394.086
395.072
397.081
399.662
402.993
406.93
411.434
413.822
414.214
346.305
340.244
329.205