/*--------------------------------*- C++ -*----------------------------------*\
| =========                 |                                                 |
| \\      /  F ield         | OpenFOAM: The Open Source CFD Toolbox           |
|  \\    /   O peration     | Version:  2312                                  |
|   \\  /    A nd           | Website:  www.openfoam.com                      |
|    \\/     M anipulation  |                                                 |
\*---------------------------------------------------------------------------*/
FoamFile
{
    version     2.0;
    format      ascii;
    arch        "LSB;label=32;scalar=64";
    class       volScalarField;
    location    "0.35";
    object      alpha.water;
}
// * * * * * * * * * * * * * * * * * * * * * * * * * * * * * * * * * * * * * //

dimensions      [0 0 0 0 0 0 0];

internalField   nonuniform List<scalar> 
8000
(
1
1
1
1
1
1
1
1
1
1
1
1
1
1
1
1
1
1
1
1
1
1
1
1
1
1
1
1
1
1
1
1
1
1
1
1
1
1
1
1
0.999992
0.999992
0.999999
1
1
1
1
1
1
1
0.999592
0.999124
0.999908
0.999975
0.999995
1
1
1
1
1
0.653632
0.565541
0.744911
0.8271
0.842402
0.84001
0.84509
0.858351
0.87497
0.894639
0.0050723
2.38455e-06
0.0435174
0.100605
0.135548
0.158855
0.179609
0.209994
0.248942
0.28968
2.38455e-06
1.90119e-06
1.9065e-06
1.90117e-06
2.8533e-06
0.000102101
0.000679699
0.00121731
0.00170313
0.00200561
0.000228158
1.94866e-05
1.90124e-06
5.92003e-06
1.39094e-05
3.11219e-05
0.000107377
0.000217777
0.000315771
0.000377883
0.000544492
0.000182976
1.92763e-06
5.28155e-06
3.92776e-05
2.26125e-05
1.99508e-05
1.78803e-05
3.43123e-05
4.2474e-05
0.000545031
0.000129096
1.98499e-06
2.56818e-06
2.27381e-05
1.72184e-05
5.12673e-06
3.02827e-06
5.14337e-06
7.29609e-06
0.000545382
0.000124594
1.95841e-06
2.2285e-06
2.50067e-06
4.14865e-06
2.92941e-06
8.68265e-07
1.56778e-06
2.36338e-06
0.000545308
0.000148993
2.11593e-06
2.42089e-06
8.76999e-06
2.47499e-06
1.67254e-06
4.26467e-07
9.15709e-07
1.56778e-06
0.000442709
0.000247278
3.03825e-06
9.01206e-05
8.91546e-05
6.08141e-05
4.59031e-05
4.2733e-06
1.16261e-06
5.34188e-06
8.15043e-05
0.000295461
0.000192253
7.53408e-05
5.59244e-05
2.63312e-05
1.93089e-05
8.1155e-06
6.95674e-06
1.01842e-05
3.52902e-05
0.000294854
0.000273201
2.90722e-07
1.11324e-07
1.5901e-12
1.57535e-12
9.36388e-07
2.34271e-06
1.79996e-06
1.81402e-05
0.000173184
8.03961e-05
1.0934e-06
2.19536e-12
1.77216e-12
1.6128e-13
1.42464e-14
-2.75199e-15
8.78903e-15
4.85592e-06
3.26609e-06
1.31302e-07
9.29099e-08
4.89024e-10
1.05026e-12
1.73301e-14
1.63492e-14
1.67229e-14
1.68212e-14
1.02734e-08
5.99503e-08
6.07428e-09
1.64285e-09
1.44604e-09
7.5919e-11
7.71021e-14
1.57777e-14
1.66946e-14
4.16287e-14
1
1
1
1
1
1
1
1
1
1
1
1
1
1
1
1
1
1
1
1
1
1
1
1
1
1
1
1
1
1
1
1
1
1
1
1
1
1
1
1
0.999993
0.99999
0.999997
0.999999
1
1
1
1
1
1
0.999075
0.998003
0.999838
0.999948
0.999987
0.999999
1
1
1
1
0.562435
0.5254
0.688304
0.780648
0.834163
0.865153
0.893345
0.922232
0.948802
0.964921
6.4621e-06
2.01636e-06
0.0303269
0.0625281
0.108433
0.158076
0.209767
0.272244
0.3372
0.388254
2.00749e-06
1.96392e-06
1.9065e-06
2.13458e-06
3.99268e-06
2.70299e-05
0.000109636
0.000270046
0.000462276
0.000708985
0.000160899
2.01636e-06
2.06859e-06
3.07101e-05
0.000159861
0.000137496
5.13828e-06
1.78803e-05
3.43123e-05
4.24748e-05
0.000544613
4.57248e-05
5.37063e-06
3.60159e-06
0.000108134
0.000162655
1.85561e-05
1.92202e-06
5.02733e-06
4.9059e-06
0.000541576
6.9587e-06
6.46802e-06
1.14831e-06
2.21185e-05
7.75023e-05
3.649e-05
1.02507e-06
1.8477e-06
4.75161e-06
0.000542461
8.6354e-06
4.09318e-05
2.43857e-05
5.4497e-05
4.41682e-05
5.87562e-06
1.72976e-06
2.57832e-06
1.09199e-05
0.00054369
9.41677e-06
0.00020721
0.000205399
2.5498e-05
1.8179e-05
2.94659e-06
1.79532e-07
6.90729e-06
3.6858e-05
0.000240548
0.000168125
0.000222169
0.000152026
2.47533e-05
1.82638e-05
1.75626e-05
4.27774e-06
4.20636e-06
2.58419e-05
6.59414e-05
0.000293128
0.000223986
5.48614e-06
1.081e-05
4.19061e-06
3.53871e-06
3.42582e-06
2.51296e-06
2.36714e-06
6.24345e-05
0.000295423
0.000145762
1.63898e-08
4.60859e-10
1.85916e-11
1.37642e-12
7.11202e-08
4.75055e-07
2.67948e-07
5.97132e-05
0.000292319
3.81471e-05
4.62518e-10
1.86135e-11
1.72406e-12
1.24986e-12
1.60274e-13
1.17124e-14
-1.62788e-15
3.74205e-05
0.000287572
4.4641e-05
1.85127e-08
4.55602e-10
1.09001e-11
1.47082e-13
1.73557e-14
1.6801e-14
1.70933e-14
9.54887e-06
5.76848e-05
3.90462e-05
5.30593e-06
9.38033e-10
4.51952e-11
5.31072e-13
1.44107e-14
3.90463e-14
5.82338e-14
1
1
1
1
1
1
1
1
1
1
1
1
1
1
1
1
1
1
1
1
1
1
1
1
1
1
1
1
1
1
1
1
1
1
1
1
1
1
1
1
0.999999
0.999997
0.999999
1
1
1
1
1
1
1
0.999908
0.999838
0.999913
0.999968
0.999993
0.999999
1
1
1
1
0.738147
0.679684
0.739804
0.803507
0.874601
0.927221
0.958119
0.988548
1
1
0.0354398
0.0241075
0.0552588
0.0774393
0.13938
0.22188
0.323114
0.440372
0.548711
0.619298
2.17998e-06
2.00903e-06
2.13458e-06
3.52773e-06
7.07141e-06
2.66126e-05
0.000445116
0.00854457
0.0237732
0.0345074
2.19092e-05
1.81625e-05
4.81222e-05
1.06842e-05
4.73481e-05
3.36844e-05
1.40639e-06
1.41316e-06
3.89362e-06
4.64084e-06
0.000286434
0.000124637
0.000109045
1.14831e-06
1.41824e-06
1.47233e-06
1.49311e-06
1.67055e-06
5.66719e-06
4.87462e-06
0.000158652
8.80453e-05
7.98536e-05
8.98296e-07
4.5499e-06
4.15809e-06
2.61486e-06
8.6245e-07
2.74927e-07
4.06589e-06
2.95591e-05
1.14125e-05
7.02027e-05
1.49322e-05
9.71562e-06
1.23819e-05
3.37933e-06
1.74716e-06
5.27865e-06
3.76488e-05
4.91941e-06
1.16398e-05
4.02307e-05
3.30115e-05
8.51817e-06
3.66198e-06
8.08589e-07
4.8067e-08
6.72611e-06
4.08591e-05
6.95289e-05
6.18621e-05
5.52793e-05
2.73083e-05
2.24394e-08
1.05816e-08
1.21967e-08
9.28477e-07
1.43679e-06
6.92045e-06
0.00012585
0.000116549
6.17601e-05
7.38147e-07
5.33595e-10
1.08143e-10
5.24084e-11
9.03199e-10
1.549e-09
1.06773e-09
0.00012585
9.68528e-05
5.91965e-05
5.33595e-10
1.08146e-10
1.85311e-11
1.25491e-12
6.07604e-13
3.12394e-12
9.07453e-13
7.43346e-05
4.15367e-05
3.05225e-05
9.08824e-08
1.85482e-11
1.25416e-12
7.34204e-13
3.23582e-13
5.44737e-14
4.00685e-14
1.28909e-05
5.42988e-05
3.05525e-05
2.62292e-07
4.01898e-10
1.03333e-11
5.23741e-13
4.79721e-13
9.08215e-14
5.63936e-14
1.28864e-06
5.09295e-05
3.34668e-05
2.50774e-06
3.45518e-09
8.37088e-11
1.41715e-12
1.47875e-13
1.26283e-13
1.17904e-13
1
1
1
1
1
1
1
1
1
1
1
1
1
1
1
1
1
1
1
1
1
1
1
1
1
1
1
1
1
1
1
1
1
1
1
1
1
1
1
1
1
0.999999
1
1
1
1
1
1
1
1
0.999975
0.999947
0.999967
0.999989
0.999998
1
1
1
1
1
0.821604
0.773627
0.797275
0.858994
0.936059
0.98419
1
1
1
1
0.0913515
0.0613904
0.0757304
0.112083
0.198561
0.336323
0.522692
0.675496
0.773806
0.834997
2.35976e-06
2.17998e-06
3.52068e-06
7.07141e-06
3.54929e-06
8.09087e-06
0.0231471
0.111343
0.18959
0.221719
1.95989e-06
1.9152e-05
7.15327e-05
1.59535e-05
2.91127e-06
2.00538e-06
8.04642e-07
4.95598e-07
8.69585e-07
2.35683e-06
8.33918e-07
3.14841e-06
0.000114375
2.77659e-05
2.57873e-06
2.5254e-06
4.85625e-07
4.62941e-07
1.953e-07
7.74582e-07
5.97805e-07
2.45486e-06
1.542e-05
8.0098e-07
1.38717e-05
1.38529e-05
1.02498e-05
9.13201e-07
2.44459e-07
1.50217e-06
5.06177e-07
2.09669e-05
1.99169e-05
3.79564e-06
1.16435e-05
1.34216e-05
1.03759e-05
1.07183e-06
2.33901e-06
1.08712e-05
3.03158e-06
1.4154e-05
5.09285e-08
1.04579e-08
7.5862e-08
5.197e-07
9.75979e-09
1.16362e-08
1.75212e-06
9.66416e-06
1.16503e-05
5.44921e-08
1.12961e-08
4.85621e-09
8.84799e-10
3.21117e-10
2.9933e-10
1.94069e-09
1.73218e-09
1.17139e-09
8.52724e-06
1.0011e-08
1.76051e-09
1.39125e-07
2.61762e-08
8.39553e-11
7.2254e-12
2.08152e-11
1.85456e-10
1.06339e-10
1.03646e-06
2.7191e-10
4.75406e-10
3.80364e-08
1.42754e-08
2.05914e-11
4.13653e-12
4.70474e-13
3.77311e-13
4.4281e-13
1.32296e-06
5.01683e-10
3.06762e-10
2.08012e-07
2.89588e-08
5.15979e-12
4.70497e-13
4.01448e-13
3.26173e-13
3.9892e-13
1.381e-06
2.18699e-08
1.87538e-06
1.30475e-06
1.32071e-08
1.17874e-11
4.86965e-13
3.16518e-13
3.42804e-13
4.48985e-13
2.0188e-07
8.27889e-06
6.24534e-06
1.24048e-06
8.49723e-10
1.91134e-11
4.4897e-13
2.16274e-13
3.40017e-13
7.19902e-13
1
1
1
1
1
1
1
1
1
1
1
1
1
1
1
1
1
1
1
1
1
1
1
1
1
1
1
1
1
1
1
1
1
1
1
1
1
1
1
1
1
1
1
1
1
1
1
1
1
1
0.999995
0.999986
0.999992
0.999998
1
1
1
1
1
1
0.838259
0.826102
0.865133
0.932598
0.984876
0.999668
1
1
1
1
0.130032
0.10697
0.132472
0.193064
0.332582
0.577493
0.773555
0.880574
0.947147
0.987568
2.35474e-06
3.83248e-06
7.95513e-06
3.18538e-05
1.28644e-05
0.000365276
0.140725
0.348433
0.507162
0.574006
2.13251e-06
4.22777e-06
3.41859e-05
6.3839e-05
2.51609e-06
9.39262e-07
1.19719e-06
1.20238e-06
3.65266e-05
5.57413e-05
1.43135e-06
3.14393e-06
0.000110852
0.000113266
2.01011e-05
7.08804e-07
7.99869e-07
1.53556e-07
8.30261e-08
9.78073e-08
3.87234e-07
1.46942e-07
5.98573e-08
1.44307e-08
5.9811e-06
9.15975e-06
8.08788e-06
1.00906e-07
8.33571e-08
8.01997e-08
3.34913e-07
1.46413e-07
1.44307e-08
1.04579e-08
6.01029e-06
1.32129e-05
1.23173e-05
5.00997e-07
7.39867e-08
9.99645e-08
6.01568e-06
2.07014e-06
4.73845e-08
4.85621e-09
7.48626e-07
6.82989e-06
1.92952e-06
3.21648e-08
3.78877e-08
5.67208e-08
1.16414e-05
3.31743e-06
4.48581e-09
8.05362e-10
3.21117e-10
9.94715e-11
3.18665e-11
3.97781e-08
9.54645e-09
3.10511e-08
1.55934e-06
3.35609e-07
2.91332e-10
8.31795e-09
3.85603e-09
4.12504e-11
3.67406e-12
1.20368e-12
5.22075e-12
1.00845e-08
2.0997e-10
8.78381e-11
4.79525e-10
1.96787e-08
8.83524e-09
2.1144e-10
8.50858e-13
3.81512e-13
4.48652e-13
3.71293e-13
5.8699e-10
2.22362e-11
2.82911e-11
1.20468e-07
2.69802e-08
4.99384e-12
3.81488e-13
3.01326e-13
3.79373e-13
5.63366e-13
2.16539e-10
4.91882e-10
2.96128e-10
2.48939e-07
3.60591e-08
7.96368e-12
2.25968e-13
8.23273e-14
6.22486e-12
2.36745e-11
9.71301e-11
5.6311e-09
5.07517e-09
3.88263e-08
1.89439e-09
1.38752e-12
7.29524e-14
5.6461e-14
1.55192e-10
1.28196e-10
1
1
1
1
1
1
1
1
1
1
1
1
1
1
1
1
1
1
1
1
1
1
1
1
1
1
1
1
1
1
1
1
1
1
1
1
1
1
1
1
1
1
1
1
1
1
1
1
1
0.999985
1
0.999999
0.999999
1
1
1
1
1
1
0.999952
0.837353
0.859468
0.921262
0.982793
0.999614
1
1
1
1
0.999987
0.162424
0.163471
0.219629
0.329735
0.57542
0.832807
0.967112
1
1
1
6.6287e-05
3.78832e-05
3.32346e-05
6.5679e-05
0.000776914
0.133214
0.381992
0.662035
0.831362
0.903105
1.26104e-05
9.97519e-06
5.24452e-05
5.39018e-05
1.12891e-05
4.35484e-07
5.07227e-06
0.0829743
0.206302
0.275842
3.52629e-06
4.21156e-06
8.84929e-05
0.000269116
7.09068e-05
1.7869e-07
2.53519e-07
1.00108e-07
7.71715e-08
8.07446e-07
1.28287e-06
6.42944e-07
4.1079e-06
1.80774e-08
7.71039e-08
1.21164e-07
1.01163e-07
9.36304e-08
8.14646e-08
6.09725e-08
5.06649e-07
4.77766e-06
3.05919e-06
1.1671e-08
9.49652e-07
1.16054e-06
1.41874e-06
1.41181e-07
9.48223e-08
2.88407e-07
1.21834e-06
4.81005e-06
1.45697e-06
3.24955e-09
2.15168e-06
3.13307e-06
1.622e-06
6.75491e-09
1.52552e-06
3.71879e-05
3.86964e-06
2.60044e-06
9.81159e-08
3.10826e-10
3.32635e-10
1.46961e-08
3.92615e-08
5.36221e-12
3.81813e-06
1.35995e-06
7.23974e-07
8.52385e-08
3.65566e-11
2.36892e-10
2.1295e-11
9.3528e-12
5.30307e-12
2.81962e-12
5.84605e-13
-6.22056e-11
1.52301e-11
1.91744e-11
3.4991e-11
1.61837e-10
3.87052e-11
2.64555e-11
1.92345e-10
5.7503e-13
4.14985e-13
4.32278e-13
9.04173e-12
1.79182e-12
6.19604e-12
4.09128e-10
4.69718e-11
4.17981e-12
5.7503e-13
3.79373e-13
4.23701e-13
3.67127e-13
1.14507e-12
1.16644e-11
1.38626e-11
3.96344e-11
4.6646e-11
3.11215e-10
3.98415e-12
2.25978e-13
3.79373e-13
2.69152e-13
1.05244e-12
9.63011e-11
9.45794e-11
1.54627e-11
4.26837e-12
4.38038e-11
2.04979e-09
8.23273e-14
4.80049e-13
1.29159e-12
1
1
1
1
1
1
1
1
1
1
1
1
1
1
1
1
1
1
1
1
1
1
1
1
1
1
1
1
1
1
1
1
1
1
1
1
1
1
1
1
1
1
1
1
1
1
1
1
1
0.999358
1
1
1
1
1
1
1
1
1
0.999316
0.843925
0.893894
0.957684
1
1
1
1
1
1
0.999838
0.19237
0.223453
0.332199
0.519087
0.770887
0.968213
1
1
1
1
0.000749096
0.0002114
0.000392406
0.0246901
0.131233
0.37632
0.694661
0.894068
0.973622
0.999993
0.000127575
6.12184e-05
0.000325386
4.00609e-05
2.05599e-06
1.03532e-05
0.181371
0.439942
0.657819
0.735206
2.62121e-05
2.22199e-05
0.000316384
0.000364104
1.16497e-06
2.85734e-07
4.05423e-07
6.55595e-06
0.0212757
0.0541065
3.97318e-06
4.47748e-05
2.55636e-06
8.48199e-08
1.93965e-06
1.78741e-07
1.64556e-07
1.00407e-07
9.44568e-08
8.7207e-07
1.45385e-06
1.76631e-05
4.3631e-06
6.6962e-08
1.0775e-05
1.31446e-05
1.88326e-07
1.63689e-07
1.93812e-07
2.47192e-06
1.38531e-06
3.64747e-06
1.49439e-06
9.0072e-09
5.63445e-08
4.34707e-08
2.41061e-09
1.40769e-05
1.4353e-05
1.95172e-05
3.64232e-06
3.19289e-06
4.58064e-07
2.89455e-10
6.9518e-09
1.9776e-09
8.95334e-10
1.64508e-05
7.97163e-06
3.55598e-05
3.46296e-06
8.18424e-07
4.03542e-11
9.86592e-12
2.89456e-10
2.1295e-11
9.3528e-12
4.38366e-05
0.000136577
4.66903e-06
2.33554e-07
2.72187e-09
2.43176e-12
7.0321e-12
5.36489e-06
3.87052e-11
1.15809e-10
1.1064e-05
1.6905e-06
4.98326e-13
9.07393e-13
1.0214e-12
2.94205e-12
2.45755e-12
1.16606e-05
9.25856e-08
4.17981e-12
9.78828e-06
1.17403e-05
6.31118e-11
1.86641e-14
1.32187e-13
1.32383e-13
8.14734e-12
9.88347e-06
1.50242e-05
2.82505e-06
2.79156e-06
2.90975e-06
1.48099e-12
1.8382e-14
1.03892e-12
9.12983e-13
1.70009e-12
3.99046e-06
4.17456e-05
5.94124e-06
3.77345e-06
1.29628e-06
1.17401e-08
1
1
1
1
1
1
1
1
1
1
1
1
1
1
1
1
1
1
1
1
1
1
1
1
1
1
1
0.999594
0.999869
1
1
1
1
1
1
1
1
0.999529
0.99976
1
1
1
1
1
1
1
1
0.999529
0.999764
0.999671
1
1
1
1
1
1
1
0.999706
0.999931
0.999499
0.859107
0.927789
0.995608
1
1
1
1
0.999998
1
0.999879
0.225248
0.287304
0.462613
0.683918
0.885394
1
1
1
1
0.999999
0.00130635
0.000610619
0.00915573
0.10723
0.338428
0.658562
0.894988
0.999996
0.999999
0.999998
0.000247862
0.000360742
0.000745755
0.000152235
0.000134846
0.104524
0.443968
0.787924
0.990986
0.999893
5.49378e-05
0.000611287
0.000819993
0.000821362
5.65987e-05
1.04869e-05
3.00503e-06
0.138119
0.603725
0.649947
1.32567e-05
0.000209197
0.000114457
0.000283211
0.000651772
0.000342259
4.05473e-07
2.76773e-06
0.0177499
0.079358
2.42459e-06
2.26636e-06
1.8898e-06
0.000101346
0.000407205
0.000565984
2.10848e-05
7.07133e-07
2.47266e-06
0.0443725
1.6411e-06
5.18764e-06
1.82742e-06
2.13262e-05
0.000330827
0.000487505
0.00021919
1.2953e-05
1.34864e-05
0.0875364
3.29697e-06
2.35993e-06
7.11396e-08
8.7004e-10
0.000219365
0.000256913
0.000343476
1.93088e-05
0.000522335
0.150316
8.5931e-06
2.38711e-06
7.42995e-10
1.32364e-10
8.46451e-05
0.000458771
0.000165884
0.000164593
0.00471727
1.77604e-05
1.68944e-06
1.54986e-07
4.88397e-13
5.30175e-12
5.11206e-05
0.00065581
3.23599e-09
0.000219465
1.67864e-06
1.81299e-09
1.86019e-14
1.32702e-13
1.32388e-13
4.88955e-13
0.000122592
0.000835513
1.47936e-05
2.83696e-05
7.72931e-06
1.98282e-09
1.44048e-14
1.26463e-14
1.03878e-14
1.3239e-13
0.000176806
0.00099015
1.01252e-05
2.24913e-06
4.76283e-06
2.50285e-06
2.43582e-14
1.92858e-14
1.41087e-14
9.13638e-13
0.000112886
0.000895474
2.84202e-05
1.91782e-06
3.00285e-06
0.000103913
1
1
1
1
1
1
1
1
1
0.952459
1
1
1
1
1
1
1
1
1
1
1
1
1
1
1
1
1
0.999888
0.999972
1
1
1
1
1
1
1
1
0.999601
0.999714
1
1
1
1
1
1
1
1
0.999598
0.999374
0.999999
1
1
1
1
1
1
1
0.999789
0.999374
0.999998
0.887953
0.958839
1
1
1
1
1
0.999997
0.99961
0.999997
0.262861
0.350814
0.576747
0.790045
0.953455
1
1
0.999999
0.999981
0.999998
0.00175947
0.0011714
0.027438
0.193214
0.503981
0.828192
0.975742
0.999998
0.999938
0.998787
0.00035286
0.00080593
0.000580063
0.000329065
0.000322583
0.233189
0.659603
0.988655
0.994217
0.946789
0.000117824
0.00118547
0.00117767
0.000611963
0.000210865
6.46992e-05
0.0272791
0.600694
0.992027
0.894925
5.81718e-05
0.000209457
0.000640047
0.000752991
0.000511728
9.91661e-05
3.00842e-06
0.010609
0.732678
0.898064
3.37323e-06
6.27158e-06
1.47554e-05
0.000764869
0.000773354
0.0002575
1.60148e-05
1.39651e-05
0.210516
0.905102
2.21301e-06
1.54224e-05
6.10375e-08
0.000275964
0.000790538
0.000253416
4.37938e-05
0.000158422
0.195982
0.890932
1.10173e-05
2.77441e-06
2.74493e-08
4.42274e-10
0.000803709
0.00119967
4.80315e-05
0.000218046
0.183407
0.640169
1.47142e-05
2.25749e-06
4.00556e-10
4.79314e-11
0.000376217
0.00195082
0.000257186
0.000457794
7.30785e-06
0.0755961
2.25936e-06
2.16811e-07
1.25844e-12
6.0391e-12
0.000125385
0.00195195
0.00189626
0.000281749
2.13393e-06
0.0283333
1.06703e-14
1.13264e-14
1.003e-14
1.25853e-12
0.000151456
0.00194752
0.00194309
0.000759833
7.29684e-06
0.036337
1.43724e-14
9.81472e-15
6.70809e-15
1.03886e-14
9.15369e-05
0.00182599
0.00194309
0.00145867
6.10561e-05
0.0134752
2.74037e-14
1.17247e-14
6.34269e-15
1.41098e-14
5.52157e-06
0.000980401
0.00192733
0.00085833
1.37753e-06
0.000118459
1
1
1
1
1
1
1
1
0.937127
0.749909
1
1
1
1
1
1
1
1
0.983771
0.75469
1
1
1
1
1
1
1
1
1
0.762788
1
1
1
1
1
1
1
0.99999
0.999997
0.749985
1
1
1
1
1
0.999988
0.999576
0.999989
0.999994
0.742207
1
1
1
1
1
0.999968
0.999567
0.999995
0.999997
0.764638
0.913676
0.973912
1
1
1
0.999992
0.999925
0.999999
0.999999
0.865704
0.294531
0.397414
0.634766
0.843359
0.989643
1
1
0.999999
0.995804
0.85016
0.00204277
0.00119776
0.0432741
0.234139
0.574282
0.900091
0.999989
0.999991
0.961826
0.603753
0.000380321
0.000357116
0.000101509
1.32487e-05
0.00014008
0.288194
0.751338
0.999807
0.881251
0.534958
9.97427e-05
0.000649596
0.000247593
4.0752e-06
1.05703e-06
5.25259e-05
0.0865363
0.722196
0.824116
0.534958
3.43558e-05
0.000158942
0.000216205
1.68738e-05
1.89029e-07
9.01094e-07
5.1827e-05
0.146955
0.865311
0.557356
3.54724e-06
3.41309e-06
3.46431e-06
9.19237e-05
1.05835e-06
1.31634e-06
1.45512e-05
0.0838811
0.915346
0.540248
2.92989e-06
2.2927e-05
3.41415e-06
3.19949e-05
1.46962e-06
3.5339e-06
2.83664e-05
0.089781
0.929294
0.541179
2.11768e-05
2.09182e-05
3.88784e-06
5.87298e-07
6.66989e-07
1.15434e-05
0.0002072
0.138733
0.568434
0.685595
1.47308e-05
2.82544e-06
2.20489e-10
9.10091e-12
3.10758e-08
0.000251981
0.00899598
0.00754976
0.0352196
0.91126
4.88647e-07
1.22581e-08
8.70912e-13
4.50208e-12
8.39347e-06
0.000601743
0.00570377
0.00229996
7.29684e-06
0.857664
-7.28413e-15
2.04754e-11
6.70234e-15
1.92124e-13
1.28759e-05
0.000290512
0.00113101
0.000720976
1.80846e-05
0.725587
1.0834e-14
6.70817e-15
6.63886e-15
6.70817e-15
1.26685e-05
1.90725e-06
0.000141352
0.000914544
2.39012e-05
0.48535
8.59448e-14
9.95706e-14
6.34965e-15
6.58873e-15
2.89858e-06
4.66433e-07
1.79986e-05
0.00065451
0.0016372
0.115294
1
1
1
1
1
1
1
1
0.934858
0.748259
1
1
1
1
1
1
1
1
0.973075
0.760146
1
1
1
1
1
1
1
1
0.997722
0.757403
1
1
1
1
1
1
1
0.999995
0.999994
0.747207
1
1
1
1
1
0.99999
0.999589
0.999988
0.998046
0.741655
1
1
1
1
1
0.999976
0.999567
0.999997
0.996076
0.741682
0.915108
0.974213
1
1
1
0.999994
0.999944
0.999999
0.99217
0.783339
0.299781
0.404945
0.635597
0.841081
0.990223
1
1
0.999999
0.984984
0.815915
0.00210353
0.00134717
0.0439906
0.231383
0.576285
0.904664
0.999991
0.999965
0.959774
0.705642
0.000403446
0.000143372
9.67643e-06
4.0752e-06
0.000108362
0.285291
0.762717
0.999749
0.894178
0.535894
7.5283e-05
7.94987e-05
6.83813e-06
6.46644e-07
1.82724e-07
3.29318e-05
0.100662
0.76921
0.847851
0.534958
1.00921e-05
6.88291e-05
8.11273e-06
1.35099e-06
4.65215e-08
2.08042e-09
2.16103e-07
0.170674
0.890895
0.535894
3.70817e-06
4.09457e-06
9.05678e-06
1.19728e-05
3.94197e-06
1.0427e-07
5.07091e-06
0.0901758
0.930943
0.568356
3.35149e-06
2.45808e-05
2.45602e-05
4.10269e-06
3.2685e-07
1.04348e-06
7.9014e-05
0.101845
0.931779
0.851524
2.26146e-05
2.50822e-05
2.13776e-05
2.2331e-06
1.25166e-06
1.59345e-05
1.46405e-07
0.0840467
0.677707
0.928696
1.2488e-05
1.00299e-05
1.64795e-10
4.50208e-12
5.56992e-07
3.91283e-05
3.57398e-09
3.38146e-07
0.0582111
0.928696
7.30801e-08
5.94074e-09
1.12513e-12
3.31681e-13
1.12698e-06
7.51419e-10
9.4861e-10
1.22913e-09
0.115098
0.928696
1.48531e-14
3.24341e-11
2.01719e-13
1.49526e-13
9.73864e-07
2.11078e-09
9.24906e-10
-2.7776e-08
0.152677
0.917836
1.47708e-14
8.75833e-15
6.73152e-15
9.96227e-15
3.18613e-07
1.54061e-08
-2.89672e-08
-7.55035e-08
0.146128
0.910123
7.91228e-14
1.614e-13
6.76532e-15
7.2851e-15
1.45576e-07
2.75768e-08
-5.79388e-08
1.26054e-06
0.109998
0.814903
1
1
1
1
1
1
1
1
1
0.978833
1
1
1
1
1
1
1
1
1
1
1
1
1
1
1
1
1
0.999901
0.999983
1
1
1
1
1
1
1
1
0.999603
0.999797
1
1
1
1
1
1
1
1
0.999599
0.999546
0.999999
1
1
1
1
1
1
1
0.999834
0.999607
0.999999
0.895851
0.961015
1
1
1
1
1
0.999999
0.999818
1
0.275604
0.366744
0.581334
0.784961
0.954148
1
1
1
1
1
0.00187614
0.00060322
0.0324466
0.191945
0.498851
0.828063
0.978244
0.999999
0.999991
1
0.000360552
6.95066e-05
5.32182e-06
6.68706e-07
1.96833e-05
0.196082
0.631244
0.982002
0.996653
0.995237
5.81581e-05
9.52485e-06
6.44459e-06
2.11492e-07
4.57731e-08
3.03886e-10
0.00169745
0.518145
0.99588
0.959475
8.98984e-06
4.05747e-05
9.57763e-06
4.657e-08
3.0011e-08
2.33901e-08
2.13493e-08
2.51372e-08
0.64322
0.954977
3.35149e-06
2.35374e-05
1.68042e-05
2.52392e-06
3.58177e-08
1.27221e-07
5.12286e-07
4.5021e-08
0.187471
0.911129
2.90856e-06
2.03454e-05
2.45595e-05
6.66982e-06
6.69066e-08
9.7977e-07
5.26839e-05
0.000149879
0.193668
0.900629
1.63703e-05
1.63793e-05
5.40308e-06
6.73303e-08
7.65998e-07
7.28618e-08
-2.99992e-09
8.96411e-06
0.117477
0.542948
1.49833e-05
3.03186e-06
1.25703e-09
3.47483e-11
1.27329e-08
3.70842e-12
3.9694e-10
8.35404e-06
9.6725e-06
0.0304595
9.81828e-07
8.35907e-08
1.51776e-12
2.60861e-13
1.31959e-11
2.33955e-10
6.27185e-10
8.66355e-10
1.22913e-09
0.0380142
2.84334e-15
2.91619e-14
1.23391e-13
2.34916e-13
2.50743e-13
2.44123e-09
8.14036e-10
7.62137e-10
4.13207e-09
0.105148
1.49397e-14
1.29463e-14
2.10679e-13
2.25038e-13
2.29757e-13
5.39176e-09
4.28268e-10
8.90094e-10
5.78906e-08
0.00515504
2.37734e-14
1.18244e-13
4.75724e-13
2.04813e-13
2.27882e-13
3.46777e-08
1.91398e-10
6.02592e-08
1.25666e-07
2.67605e-07
1
1
1
1
1
1
1
1
1
1
1
1
1
1
1
1
1
1
1
1
1
1
1
1
1
1
1
0.999581
0.999876
1
1
1
1
1
1
1
1
0.999556
0.999799
1
1
1
1
1
1
1
1
0.999557
0.999892
0.999485
1
1
1
1
1
1
1
0.999794
1
0.999463
0.865699
0.927661
0.994984
1
1
1
1
1
1
0.999891
0.234375
0.298881
0.47156
0.683446
0.886607
1
1
1
1
1
0.00142382
0.000409723
0.0123139
0.113016
0.339981
0.661979
0.901721
0.999999
0.999999
0.999999
0.00027189
4.7493e-05
1.06344e-06
3.20945e-07
9.91837e-07
0.0735425
0.419736
0.773491
0.982557
0.999735
4.24697e-05
1.85919e-06
3.33735e-07
2.36962e-07
5.23968e-08
2.31397e-08
1.93808e-08
0.0906915
0.541062
0.619811
7.03919e-06
8.26574e-06
1.0568e-05
1.71637e-06
1.85441e-08
2.08134e-08
1.98299e-08
2.12047e-08
2.51273e-08
0.0445596
2.76278e-06
2.09893e-05
1.85251e-05
1.37418e-06
7.44263e-09
1.21467e-08
1.26274e-08
1.47617e-08
4.40624e-08
0.0345557
2.68284e-06
1.77605e-05
6.24139e-06
1.16978e-08
2.3863e-09
1.37541e-08
1.226e-09
1.40269e-09
4.9101e-06
0.0669067
5.56396e-06
3.76718e-06
5.44765e-08
1.41186e-09
4.58545e-09
-9.93081e-12
3.07842e-10
4.06742e-10
9.1407e-06
0.0577441
7.2558e-06
1.96663e-06
7.92039e-10
1.8743e-11
3.29986e-12
1.38582e-12
1.54796e-08
1.4383e-10
6.68192e-05
8.18397e-07
9.40418e-07
6.56162e-08
1.83656e-12
6.76428e-13
7.86777e-13
9.81534e-13
1.91022e-08
3.11762e-10
3.76709e-09
0.000337564
8.37429e-14
1.32461e-12
6.50251e-13
8.23609e-13
7.51867e-13
7.85567e-13
7.36107e-09
3.06959e-10
7.18421e-08
0.00456619
1.50982e-14
2.90973e-14
2.04512e-13
5.49267e-13
6.89311e-13
7.40778e-13
-3.18082e-11
-1.47401e-10
1.0929e-07
0.00894128
2.16218e-14
4.85772e-14
1.07037e-13
3.1546e-13
4.40734e-13
5.74371e-13
8.79716e-11
1.97619e-09
2.39332e-09
1.24058e-07
1
1
1
1
1
1
1
1
1
1
1
1
1
1
1
1
1
1
1
1
1
1
1
1
1
1
1
1
1
1
1
1
1
1
1
1
1
1
1
1
1
1
1
1
1
1
1
1
1
0.999304
1
1
1
1
1
1
1
1
1
0.999233
0.847001
0.890356
0.957301
1
1
1
1
1
1
0.999905
0.191073
0.224592
0.338627
0.5199
0.769372
0.970677
1
1
1
1
0.000762794
0.000225356
0.000434276
0.0310045
0.137232
0.373217
0.686595
0.888646
0.972089
0.999993
0.000134961
7.73411e-06
7.90727e-07
1.37869e-07
1.71919e-07
-6.91164e-07
0.157016
0.421004
0.636046
0.712153
2.38404e-05
7.65403e-07
2.74018e-07
1.97848e-07
1.8211e-07
1.0901e-07
3.35686e-08
1.2938e-07
0.00231939
0.032525
4.29568e-06
3.61095e-06
5.73612e-06
1.58768e-06
6.20199e-08
6.70781e-08
2.13498e-08
2.51324e-08
5.14585e-08
3.92676e-07
1.98474e-06
4.65965e-06
1.03993e-05
2.59714e-06
1.67768e-07
6.58556e-07
3.76114e-07
6.21678e-08
1.48788e-06
1.30465e-05
2.53833e-06
5.85911e-06
2.27324e-06
1.83467e-09
1.46265e-10
6.42658e-09
3.11693e-10
5.35929e-07
5.69801e-05
1.92423e-05
6.10795e-06
4.28351e-06
1.4384e-07
1.46265e-10
6.24711e-12
3.37035e-12
-2.81552e-13
-5.47462e-10
8.62801e-08
4.76055e-07
3.55564e-06
7.90199e-07
7.50608e-11
1.18169e-11
3.4002e-12
2.50986e-12
6.17641e-09
2.66555e-11
6.08103e-08
1.06385e-08
5.44547e-08
6.84705e-11
2.78358e-11
1.1279e-11
9.56358e-12
1.39497e-12
4.511e-08
1.12714e-12
3.03783e-06
1.79434e-06
3.65379e-12
4.83262e-12
1.83557e-12
9.42319e-13
4.64858e-12
4.64345e-11
4.71542e-08
8.0978e-12
2.80286e-05
0.000348361
8.26087e-14
3.56546e-12
2.9307e-12
7.3898e-13
6.21502e-13
7.85567e-13
3.76275e-08
2.53022e-10
5.00379e-05
0.00153029
3.62774e-14
9.79525e-13
6.54514e-13
1.83998e-13
1.16293e-13
2.67984e-11
2.86856e-11
2.19401e-07
2.35115e-13
1.10807e-09
1
1
1
1
1
1
1
1
1
1
1
1
1
1
1
1
1
1
1
1
1
1
1
1
1
1
1
1
1
1
1
1
1
1
1
1
1
1
1
1
1
1
1
1
1
1
1
1
1
0.999987
1
0.999999
0.999999
1
1
1
1
1
1
0.999976
0.83824
0.857791
0.920487
0.981613
0.999573
1
1
1
1
0.999994
0.152514
0.162848
0.230019
0.336477
0.570717
0.827598
0.962263
1
1
1
1.98825e-05
2.43488e-05
1.26618e-05
7.38688e-06
0.000810014
0.120847
0.352225
0.629216
0.81888
0.895307
9.78906e-06
4.59735e-06
6.08436e-06
3.33488e-07
5.6425e-07
7.13684e-07
3.04058e-06
0.0768555
0.197659
0.261079
3.96352e-06
2.09861e-06
1.41741e-05
2.8278e-07
3.75901e-07
5.09111e-07
6.23329e-08
3.89233e-08
4.23608e-08
3.26126e-07
2.19461e-06
1.3847e-06
1.91423e-06
1.32371e-06
6.78603e-06
8.43271e-06
2.98077e-08
3.63164e-08
3.9119e-08
5.60658e-08
1.11157e-06
6.86607e-07
1.19381e-07
7.14281e-08
3.80281e-06
6.68882e-06
5.39995e-07
3.91431e-08
1.67234e-07
2.08423e-06
6.96453e-06
5.14859e-06
1.12674e-07
4.80075e-10
1.09547e-10
1.13549e-11
2.38954e-07
1.05198e-07
2.23324e-06
2.37964e-07
8.98873e-06
3.78348e-06
2.43347e-09
1.09547e-10
1.13549e-11
6.25736e-12
1.83258e-08
-9.61755e-11
-3.83481e-11
2.54549e-09
4.68688e-07
6.86406e-08
2.11232e-09
8.89607e-10
1.28784e-10
3.88054e-11
1.59944e-12
1.11882e-12
1.19375e-12
-4.11627e-10
4.76515e-10
5.3798e-10
1.44078e-08
4.83792e-09
2.81682e-10
1.42646e-10
1.12714e-12
9.66155e-13
7.12107e-10
2.35577e-07
7.10793e-12
8.17981e-11
8.28187e-11
6.97911e-11
2.49474e-10
1.91017e-10
7.32822e-11
1.89935e-12
1.52938e-07
5.73979e-06
1.59329e-11
4.10219e-10
2.93304e-10
3.3829e-11
4.68546e-11
1.53646e-10
1.43214e-12
4.32471e-13
5.07734e-12
5.0367e-09
4.11114e-12
1.0151e-10
6.16914e-11
7.35281e-12
8.13006e-12
7.81518e-11
2.2298e-09
5.18442e-14
1.92974e-13
5.08379e-12
1
1
1
1
1
1
1
1
1
1
1
1
1
1
1
1
1
1
1
1
1
1
1
1
1
1
1
1
1
1
1
1
1
1
1
1
1
1
1
1
1
1
1
1
1
1
1
1
1
1
0.999995
0.999986
0.999992
0.999998
1
0.999999
1
1
1
1
0.836503
0.824792
0.866958
0.931909
0.983845
0.999587
1
1
1
1
0.119664
0.104785
0.142495
0.198827
0.330404
0.566265
0.757605
0.864596
0.936993
0.982027
1.7506e-06
1.57988e-06
2.55616e-06
1.6046e-06
1.04968e-05
0.000109998
0.117913
0.320501
0.494579
0.566815
3.3343e-06
1.22888e-06
2.22071e-06
7.99434e-07
1.39759e-06
6.29534e-07
1.55368e-07
2.8486e-06
2.0515e-05
4.77231e-05
2.67363e-06
1.60213e-06
5.29397e-06
1.20407e-06
5.92952e-06
3.046e-07
4.133e-08
3.86862e-08
5.87737e-08
2.09979e-07
5.20126e-06
2.66074e-06
2.34708e-06
2.0849e-06
2.68155e-05
1.00023e-05
4.01867e-08
3.89253e-08
3.91735e-08
5.85368e-08
6.9389e-05
1.11157e-06
1.19396e-05
4.55672e-06
6.38517e-06
1.34057e-05
1.21454e-07
7.90991e-08
3.27703e-08
1.155e-06
8.64395e-05
3.33425e-06
2.39218e-08
3.42893e-09
4.80075e-10
2.10742e-06
5.76848e-07
2.13826e-07
1.38219e-08
1.33706e-07
1.24066e-05
3.75958e-06
8.3208e-08
5.52349e-08
1.8111e-09
8.10349e-12
5.68818e-08
8.51975e-09
6.26213e-11
-1.87059e-10
5.40529e-08
4.14532e-08
2.9435e-09
3.30811e-09
7.5832e-10
1.96137e-12
1.1502e-12
8.56072e-13
2.75955e-11
2.16534e-10
2.23305e-07
4.70835e-07
2.1664e-07
2.20317e-08
4.02201e-10
2.81154e-11
9.09918e-13
8.28801e-13
9.09918e-13
3.47709e-09
7.74402e-07
1.29908e-06
7.74044e-07
1.26154e-07
2.14414e-11
1.01574e-12
7.54311e-13
7.13706e-13
8.28801e-13
1.27439e-09
1.62939e-07
1.85474e-06
1.23841e-06
1.24207e-07
6.70394e-10
1.43232e-12
4.41902e-13
5.19031e-14
1.48744e-09
2.80437e-07
2.85808e-10
2.31895e-07
1.21548e-07
1.22996e-08
4.4374e-10
3.67075e-13
5.02607e-14
4.71831e-14
5.19175e-14
3.63662e-10
1
1
1
1
1
1
1
1
1
1
1
1
1
1
1
1
1
1
1
1
1
1
1
1
1
1
1
1
1
1
1
1
1
1
1
1
1
1
1
1
1
0.999999
1
1
1
1
1
1
1
1
0.999974
0.999947
0.999967
0.999989
0.999998
1
1
1
1
1
0.818947
0.769304
0.798792
0.860233
0.93489
0.982149
1
1
1
1
0.0838615
0.0551759
0.0813796
0.117079
0.198038
0.328678
0.505497
0.658015
0.760978
0.825119
1.41351e-06
1.05425e-06
1.09622e-06
1.18765e-06
2.10639e-06
1.24534e-05
0.0198241
0.103962
0.186697
0.22098
1.97968e-06
1.03721e-06
1.04465e-06
1.09622e-06
8.65155e-07
2.82997e-07
7.09384e-08
1.11384e-07
5.24614e-07
2.16393e-06
1.26764e-05
1.03721e-06
1.07773e-06
1.51496e-06
4.83233e-06
7.31278e-08
5.79201e-08
5.89809e-08
1.12287e-07
5.25727e-07
0.00014975
4.09309e-06
2.94166e-05
7.06559e-06
2.68155e-05
1.12061e-05
4.19306e-08
2.18999e-07
7.71353e-07
6.76381e-06
0.000459956
0.000203041
6.03466e-05
1.25658e-06
2.51846e-05
2.6022e-05
1.48859e-06
8.67999e-08
2.70639e-06
2.43893e-05
0.000303095
0.000209007
4.72416e-05
2.39218e-08
3.42893e-09
1.76321e-05
2.23944e-06
1.83026e-07
2.53819e-07
1.27646e-05
1.73987e-05
2.39765e-05
5.30936e-06
4.68523e-07
2.05237e-09
1.2899e-10
4.61583e-11
8.59595e-10
2.51558e-09
2.58527e-07
2.20184e-07
4.18594e-08
5.0988e-09
1.09632e-07
1.14002e-08
9.62537e-12
1.96137e-12
5.47615e-12
8.74913e-11
2.37742e-10
3.50003e-06
3.56113e-07
5.33312e-09
2.25166e-09
2.15971e-09
3.2883e-10
2.57904e-12
9.09908e-13
1.21608e-12
3.06263e-11
5.68437e-06
5.74289e-06
1.91455e-06
4.65516e-07
2.67029e-10
2.84996e-12
1.08729e-12
1.17477e-12
9.9651e-13
7.37699e-13
4.50563e-06
5.75248e-06
5.77294e-06
2.38942e-06
9.04704e-10
1.38524e-11
4.39021e-13
4.32403e-13
2.82556e-13
2.82497e-14
1.06549e-06
4.58932e-06
4.02435e-06
8.30207e-07
3.65776e-10
5.63702e-12
1.47681e-13
1.50035e-13
2.81726e-13
6.61219e-13
1
1
1
1
1
1
1
1
1
1
1
1
1
1
1
1
1
1
1
1
1
1
1
1
1
1
1
1
1
1
1
1
1
1
1
1
1
1
1
1
0.999999
0.999997
0.999999
1
1
1
1
1
1
1
0.999906
0.999837