/*--------------------------------*- C++ -*----------------------------------*\
| =========                 |                                                 |
| \\      /  F ield         | OpenFOAM: The Open Source CFD Toolbox           |
|  \\    /   O peration     | Version:  2312                                  |
|   \\  /    A nd           | Website:  www.openfoam.com                      |
|    \\/     M anipulation  |                                                 |
\*---------------------------------------------------------------------------*/
FoamFile
{
    version     2.0;
    format      ascii;
    arch        "LSB;label=32;scalar=64";
    class       surfaceScalarField;
    location    "0.35";
    object      phi;
}
// * * * * * * * * * * * * * * * * * * * * * * * * * * * * * * * * * * * * * //

dimensions      [0 3 -1 0 0 0 0];

oriented        oriented;

internalField   nonuniform List<scalar> 
22600
(
1.21864e-07
-2.44965e-07
1.23101e-07
2.73431e-07
-2.79552e-07
1.27985e-07
3.80753e-07
-2.12841e-07
1.05519e-07
4.40154e-07
-1.41304e-07
8.19036e-08
4.53795e-07
-6.99347e-08
5.62936e-08
4.20314e-07
5.03819e-09
2.84423e-08
3.46537e-07
7.18629e-08
1.91429e-09
2.44856e-07
1.28993e-07
-2.73122e-08
1.27969e-07
1.71131e-07
-5.42443e-08
1.9294e-07
-7.34113e-08
1.33757e-07
-5.14052e-07
1.35329e-07
2.99484e-07
-5.81139e-07
1.3586e-07
4.10566e-07
-4.3089e-07
1.06968e-07
4.66371e-07
-2.73965e-07
7.68549e-08
4.7316e-07
-1.21012e-07
4.42887e-08
4.31598e-07
3.64664e-08
1.01335e-08
3.52199e-07
1.75858e-07
-2.45966e-08
2.48572e-07
2.93177e-07
-6.05568e-08
1.30633e-07
3.79574e-07
-9.05031e-08
4.24744e-07
-1.11332e-07
1.83172e-07
-8.83322e-07
1.86098e-07
4.08033e-07
-9.90486e-07
1.84486e-07
5.49427e-07
-7.14133e-07
1.41849e-07
6.16685e-07
-4.41565e-07
1.00342e-07
6.22668e-07
-1.85422e-07
5.84267e-08
5.65263e-07
7.78041e-08
1.60677e-08
4.59476e-07
3.04376e-07
-2.27308e-08
3.21989e-07
4.95862e-07
-6.51979e-08
1.67892e-07
6.34458e-07
-1.00787e-07
7.06459e-07
-1.23089e-07
3.06816e-07
-1.50466e-06
3.1452e-07
6.19796e-07
-1.59099e-06
2.87522e-07
7.85906e-07
-1.07567e-06
1.95428e-07
8.54917e-07
-6.41657e-07
1.31081e-07
8.40753e-07
-2.47895e-07
7.66362e-08
7.64983e-07
1.27191e-07
2.63825e-08
6.19428e-07
4.77271e-07
-2.73395e-08
4.31803e-07
7.56403e-07
-7.29156e-08
2.23711e-07
9.48786e-07
-1.06236e-07
1.04735e-06
-1.25658e-07
6.44493e-07
-2.8055e-06
6.56355e-07
9.95252e-07
-2.52829e-06
5.86542e-07
1.11094e-06
-1.55152e-06
3.60159e-07
1.16828e-06
-9.41291e-07
2.42291e-07
1.16391e-06
-4.21477e-07
1.77958e-07
1.02249e-06
1.57598e-07
1.11012e-07
7.96602e-07
6.3248e-07
7.06762e-08
5.31375e-07
9.85878e-07
3.57521e-08
2.67934e-07
1.19834e-06
1.38835e-08
1.31636e-06
-4.19053e-09
1.07038e-06
-4.92753e-06
1.05164e-06
1.33965e-06
-3.92981e-06
1.13225e-06
1.32684e-06
-2.35708e-06
8.18378e-07
1.28835e-06
-1.49334e-06
5.90531e-07
1.12157e-06
-7.1506e-07
4.60372e-07
9.21101e-07
-9.42327e-09
3.67485e-07
6.05703e-07
7.15027e-07
2.32851e-07
3.17538e-07
1.15764e-06
1.16399e-07
1.11785e-07
1.37854e-06
2.55575e-08
1.49462e-06
-1.44724e-09
1.08876e-06
-7.09756e-06
1.08127e-06
1.50408e-06
-5.41735e-06
1.07223e-06
1.75995e-06
-3.58814e-06
9.75181e-07
1.84407e-06
-2.35245e-06
7.74995e-07
1.7027e-06
-1.06681e-06
4.93128e-07
1.43088e-06
4.18967e-08
2.20499e-07
1.02465e-06
1.21807e-06
-9.68164e-08
6.2101e-07
1.97361e-06
-4.12319e-07
2.76595e-07
2.40511e-06
-6.82154e-07
2.55462e-06
-8.07265e-07
9.63192e-08
-7.39588e-06
2.01996e-07
-5.8741e-07
-3.43337e-06
-1.30024e-06
1.99183e-06
-4.96026e-06
-1.20712e-06
2.82855e-06
-2.33046e-06
-8.58712e-07
2.9919e-06
-3.48091e-07
-8.82068e-07
2.84755e-06
1.75924e-06
-1.573e-06
2.33445e-06
3.69833e-06
-1.96715e-06
1.71066e-06
4.87815e-06
-2.28075e-06
1.09297e-06
5.51899e-06
-2.49619e-06
5.62858e-06
-2.5691e-06
-8.88043e-08
-7.4959e-06
1.88832e-07
1.19854e-06
-3.08285e-06
-1.63788e-06
3.289e-07
-1.15885e-06
-2.93177e-06
-1.31909e-06
1.26212e-06
-1.94459e-06
-4.9229e-06
4.28801e-06
-1.03229e-06
-6.41163e-06
8.06098e-06
-4.81301e-06
-4.49817e-06
1.09283e-05
-9.14341e-06
-2.64291e-06
1.28427e-05
-9.81978e-06
-1.15934e-06
1.34132e-05
-9.37777e-06
1.33041e-05
-8.76135e-06
-1.73437e-06
-5.25427e-06
-5.07265e-07
-2.23134e-06
1.8649e-07
-2.77237e-06
-2.58667e-06
2.36217e-06
-3.16568e-06
-3.04022e-06
3.90858e-06
-2.19291e-06
-4.29483e-06
6.26516e-06
-7.22534e-07
-5.30658e-06
9.55767e-06
-4.84938e-07
-4.92154e-06
1.2908e-05
-2.36478e-06
-3.29625e-06
1.53581e-05
-4.14072e-06
-1.62549e-06
1.63371e-05
-4.59467e-06
1.64655e-05
-4.45665e-06
-2.31018e-06
-2.55097e-06
-3.93125e-07
-2.60173e-06
2.75111e-06
-2.27307e-06
-3.14342e-06
4.9914e-06
-2.08755e-06
-3.11623e-06
6.01966e-06
-2.13827e-06
-3.13501e-06
7.68538e-06
-1.40144e-06
-3.34893e-06
9.86317e-06
-9.15925e-08
-3.43412e-06
1.2386e-05
6.0718e-07
-2.60366e-06
1.45759e-05
-4.82577e-08
-1.33291e-06
1.54848e-05
-4.18477e-07
1.56172e-05
-3.62401e-07
-2.35021e-06
-1.73053e-07
-2.77004e-08
-2.63229e-06
4.67536e-06
-1.64217e-06
-3.0543e-06
6.62541e-06
-1.212e-06
-2.83125e-06
7.33066e-06
-1.53406e-06
-2.6444e-06
8.57222e-06
-1.07369e-06
-2.48923e-06
9.82189e-06
-1.13881e-07
-2.40418e-06
1.0979e-05
1.32196e-06
-1.91201e-06
1.16318e-05
2.45195e-06
-1.02595e-06
1.17099e-05
2.88887e-06
1.18007e-05
2.75952e-06
-2.30309e-06
2.08516e-06
4.48673e-08
-2.36248e-06
5.9084e-06
-1.17365e-06
-2.53093e-06
7.73129e-06
-9.37431e-07
-2.46848e-06
8.11687e-06
-8.48662e-07
-2.40736e-06
8.71979e-06
-2.0869e-07
-2.22631e-06
9.09902e-06
5.4181e-07
-2.02864e-06
9.06942e-06
1.71191e-06
-1.72225e-06
8.24526e-06
3.08014e-06
-1.25827e-06
7.55693e-06
3.68898e-06
7.79897e-06
3.05431e-06
-2.28047e-06
4.31837e-06
4.72623e-08
-2.04525e-06
6.6648e-06
-9.91612e-07
-2.03425e-06
8.45123e-06
-7.30936e-07
-2.00341e-06
8.06048e-06
2.55342e-08
-1.93388e-06
7.64056e-06
1.00969e-06
-1.65061e-06
7.41786e-06
1.39788e-06
-1.21776e-06
6.77399e-06
1.8626e-06
-1.08982e-06
5.37752e-06
2.7398e-06
-1.27813e-06
4.66767e-06
3.07757e-06
5.02447e-06
2.11953e-06
-2.2519e-06
6.53633e-06
3.39346e-08
-2.03657e-06
7.59444e-06
-1.14497e-06
-1.99183e-06
8.66333e-06
-2.56854e-07
-1.76855e-06
6.66508e-06
1.17213e-06
-1.28518e-06
5.23729e-06
1.9199e-06
-5.88993e-07
4.72588e-06
1.99581e-06
1.44456e-07
4.08613e-06
1.95442e-06
2.1961e-08
3.41825e-06
2.08176e-06
-6.71513e-07
3.36008e-06
2.00106e-06
3.44889e-06
1.28542e-06
-2.19469e-06
8.67085e-06
6.01706e-08
-2.43478e-06
9.01375e-06
-1.17922e-06
-2.42891e-06
8.13271e-06
5.24753e-07
-1.94292e-06
3.95312e-06
2.22598e-06
-1.15264e-06
1.9176e-06
2.5294e-06
-2.77001e-07
1.69938e-06
2.15087e-06
3.83174e-07
1.50074e-06
1.92521e-06
3.40595e-07
1.78371e-06
1.67713e-06
-6.26933e-08
2.41801e-06
1.34536e-06
2.32532e-06
1.04876e-06
-1.82146e-06
1.00238e-05
4.68501e-07
-2.35256e-06
1.04858e-05
-9.40979e-07
-2.43932e-06
7.11932e-06
1.10016e-06
-2.07514e-06
9.92969e-07
2.59597e-06
-1.31688e-06
-8.43756e-07
2.0031e-06
-6.24855e-07
-3.0629e-07
1.31366e-06
-2.9956e-07
1.1462e-08
1.16399e-06
-1.18731e-07
3.68323e-07
1.23455e-06
7.31201e-08
9.78006e-07
1.24815e-06
1.04684e-06
1.23314e-06
-7.99433e-07
9.37401e-06
1.44924e-06
-8.95077e-07
1.08556e-05
-2.74112e-07
-3.74134e-07
5.31254e-06
1.28583e-06
-4.09693e-07
-1.0257e-06
2.05423e-06
-5.00652e-07
-2.09459e-06
1.3418e-06
-1.83661e-07
-1.28567e-06
6.62395e-07
-9.25154e-08
-6.66971e-07
5.87284e-07
-1.26017e-07
-3.21196e-07
7.2302e-07
-1.92937e-08
-3.49282e-08
9.06213e-07
1.52528e-08
9.68157e-07
6.85689e-07
6.47688e-06
2.21144e-06
1.64541e-06
8.57071e-06
1.32515e-06
2.17802e-06
2.9761e-06
1.80383e-06
1.29191e-06
-1.75007e-06
1.61048e-06
6.19727e-07
-2.13986e-06
7.17463e-07
4.22725e-07
-1.36483e-06
2.76153e-07
3.31055e-07
-9.00446e-07
3.25144e-07
2.0394e-07
-6.42277e-07
4.48198e-07
1.15344e-07
-4.64396e-07
5.18066e-07
-4.2283e-07
5.337e-07
1.46927e-06
1.70926e-06
3.29835e-06
3.13517e-06
2.22641e-06
4.67839e-06
3.2592e-06
1.75925e-06
1.09282e-06
2.00886e-06
7.24329e-07
-1.22407e-06
1.22186e-06
5.26182e-09
-1.35812e-06
8.51469e-07
2.73138e-08
-1.02176e-06
5.85751e-07
1.97448e-07
-8.32177e-07
3.59048e-07
3.06388e-07
-7.21965e-07
1.77983e-07
3.58873e-07
-6.422e-07
3.6258e-07
-6.13915e-07
1.2678e-07
-2.79114e-07
2.75435e-07
2.96218e-07
-3.39693e-07
2.9824e-07
4.20462e-07
-2.76525e-07
2.578e-07
4.96303e-07
-2.11509e-07
2.17572e-07
5.25824e-07
-1.5232e-07
1.79094e-07
5.07271e-07
-9.4923e-08
1.41918e-07
4.41566e-07
-3.9964e-08
1.07583e-07
3.30402e-07
8.23624e-09
7.5615e-08
1.80596e-07
4.46947e-08
5.08669e-08
6.03585e-08
3.5607e-08
1.34314e-07
-5.79903e-07
3.01804e-07
3.14866e-07
-7.01664e-07
3.17279e-07
4.39625e-07
-5.58554e-07
2.64236e-07
5.07842e-07
-4.13338e-07
2.10467e-07
5.26206e-07
-2.83574e-07
1.57178e-07
4.97268e-07
-1.60588e-07
1.04736e-07
4.23817e-07
-4.69457e-08
5.58361e-08
3.11671e-07
4.71463e-08
1.26788e-08
1.68534e-07
1.12997e-07
-1.56678e-08
1.34284e-07
-2.99079e-08
1.81202e-07
-9.87238e-07
4.12231e-07
4.25772e-07
-1.19314e-06
4.31386e-07
5.85372e-07
-9.27241e-07
3.50937e-07
6.68814e-07
-6.6898e-07
2.72542e-07
6.88862e-07
-4.43356e-07
1.9816e-07
6.50369e-07
-2.32757e-07
1.2673e-07
5.52999e-07
-3.17481e-08
5.94414e-08
4.01818e-07
1.31761e-07
1.36865e-09
2.1146e-07
2.36521e-07
-3.39536e-08
2.66726e-07
-5.6975e-08
2.79364e-07
-1.58057e-06
6.28484e-07
6.34497e-07
-1.9076e-06
6.46851e-07
8.38077e-07
-1.4272e-06
4.91807e-07
9.31467e-07
-9.93572e-07
3.62283e-07
9.39952e-07
-6.24853e-07
2.49649e-07
8.59082e-07
-2.70272e-07
1.44769e-07
7.31366e-07
7.06919e-09
6.15591e-08
5.3035e-07
2.6715e-07
-7.28894e-09
2.76731e-07
4.37044e-07
-5.31396e-08
4.8777e-07
-8.27079e-08
5.82782e-07
-2.50657e-06
9.99573e-07
1.07685e-06
-2.87461e-06
1.05949e-06
1.30844e-06
-2.06291e-06
7.64269e-07
1.39345e-06
-1.38019e-06
5.43907e-07
1.39104e-06
-8.26426e-07
3.81938e-07
1.2896e-06
-2.83518e-07
2.25701e-07
1.04006e-06
2.44208e-07
8.30715e-08
7.26074e-07
6.17661e-07
-7.71433e-10
3.6938e-07
8.52327e-07
-4.47064e-08
9.30204e-07
-7.97414e-08
1.17087e-06
-3.91537e-06
1.28959e-06
1.70168e-06
-3.85321e-06
1.58003e-06
1.91351e-06
-2.69364e-06
1.23728e-06
1.91887e-06
-1.69732e-06
9.02306e-07
1.76359e-06
-8.48243e-07
6.37465e-07
1.52736e-06
-1.37798e-07
4.58e-07
1.19543e-06
5.53182e-07
2.55802e-07
7.87932e-07
1.07592e-06
6.56406e-08
3.57308e-07
1.36897e-06
-6.04655e-08
1.4697e-06
-1.3308e-07
1.00593e-06
-5.35426e-06
1.51422e-06
1.42206e-06
-4.79771e-06
1.60059e-06
1.79893e-06
-3.38542e-06
1.29009e-06
2.15596e-06
-2.20859e-06
9.29226e-07
2.17741e-06
-8.77757e-07
5.01199e-07
1.94312e-06
1.9499e-07
1.21997e-07
1.4233e-06
1.22991e-06
-2.53727e-07
8.71368e-07
1.88513e-06
-6.69595e-07
3.96169e-07
2.18223e-06
-1.02021e-06
2.24207e-06
-1.18668e-06
-2.71734e-06
-3.12879e-06
6.93884e-07
-4.36487e-06
-2.77581e-06
-1.67463e-06
-2.14082e-06
-5.24937e-06
-1.56722e-06
-1.74507e-07
-3.37327e-06
-1.66034e-06
9.47318e-07
-1.30325e-06
-1.5784e-06
1.39446e-06
3.40285e-07
-2.16544e-06
1.1654e-06
1.98489e-06
-2.49307e-06
6.19231e-07
3.05562e-06
-2.90508e-06
2.57998e-07
3.30686e-06
-3.25959e-06
3.21044e-06
-3.39187e-06
-2.39081e-06
-3.72189e-06
3.17272e-06
-3.85762e-06
-1.41244e-06
-1.53444e-06
-5.20607e-06
-2.10002e-06
-4.73267e-06
-4.89827e-06
-9.24169e-07
-4.7015e-06
-3.97814e-06
1.26706e-06
-4.52272e-06
-3.30224e-06
2.57593e-06
-7.72456e-06
-2.59426e-06
2.77831e-06
-1.06448e-05
-1.67589e-06
3.12839e-06
-1.08109e-05
-8.33887e-07
3.90125e-06
-1.08142e-05
4.35813e-06
-1.0709e-05
-4.10109e-06
-1.83346e-06
1.7054e-06
-5.76425e-06
1.30354e-06
-3.82519e-06
-5.70744e-06
-6.86618e-07
-4.63589e-06
-5.48687e-06
2.73347e-07
-3.61099e-06
-4.22647e-06
1.85045e-06
-2.56633e-06
-2.74887e-06
3.09451e-06
-2.48112e-06
-2.20066e-06
4.15797e-06
-4.29265e-06
-1.80288e-06
4.65098e-06
-6.06109e-06
-1.24604e-06
5.36213e-06
-6.61239e-06
5.6573e-06
-6.32567e-06
-3.25807e-06
-2.37269e-07
1.26875e-06
-3.46294e-06
2.99088e-06
-3.75555e-06
-3.37853e-06
1.20615e-07
-2.97919e-06
-3.54343e-06
8.81966e-07
-2.582e-06
-3.06722e-06
2.35879e-06
-2.38599e-06
-2.49153e-06
3.5682e-06
-1.14097e-06
-2.14558e-06
4.77115e-06
-3.51953e-07
-1.99757e-06
5.2663e-06
-8.11588e-07
-1.54785e-06
5.33707e-06
-8.43134e-07
4.74238e-06
-2.97813e-07
-2.66783e-06
1.33182e-06
1.07103e-06
-1.88759e-06
4.01566e-06
-3.44718e-06
-1.79547e-06
3.17055e-07
-1.50056e-06
-2.45472e-06
1.64081e-06
-1.63365e-06
-3.02728e-06
3.15454e-06
-1.29689e-06
-3.4643e-06
4.19526e-06
-3.03928e-07
-3.58669e-06
5.60116e-06
6.1435e-07
-3.33365e-06
6.35303e-06
1.11218e-06
-2.55316e-06
5.87346e-06
1.572e-06
4.14639e-06
1.74358e-06
-2.31652e-06
2.94251e-06
7.50701e-07
-1.1337e-06
4.55656e-06
-2.89737e-06
-8.55534e-07
4.90806e-07
-1.38936e-06
-2.20831e-06
2.52196e-06
-3.7704e-07
-3.52377e-06
3.66594e-06
5.95371e-07
-4.10961e-06
4.11586e-06
1.20705e-06
-4.14965e-06
5.35281e-06
2.0003e-06
-3.68177e-06
5.95213e-06
3.01315e-06
-2.74765e-06
5.15256e-06
3.47578e-06
2.96646e-06
2.72926e-06
-2.01434e-06
4.72312e-06
2.80992e-07
-9.01382e-07
4.60894e-06
-2.15695e-06
-1.07112e-06
1.49292e-06
-1.5633e-06
-2.75685e-06
3.25189e-06
9.8133e-07
-3.35047e-06
3.22297e-06
2.04627e-06
-3.14582e-06
2.82748e-06
2.48161e-06
-2.56863e-06
3.60639e-06
3.03184e-06
-1.92592e-06
4.36192e-06
3.68729e-06
-1.26196e-06
3.97157e-06
3.59459e-06
1.96171e-06
2.48754e-06
-1.71076e-06
6.71389e-06
-2.46074e-07
-1.28458e-06
5.05779e-06
-2.02e-06
-2.05752e-06
3.34158e-06
-1.33258e-06
-3.27444e-06
3.41743e-06
2.22352e-06
-2.56999e-06
1.35896e-06
3.07946e-06
-1.45509e-06
6.29779e-07
3.07861e-06
-3.41165e-07
1.10894e-06
3.33794e-06
3.11951e-07
2.2113e-06
3.57928e-06
5.33779e-07
2.6263e-06
3.12451e-06
1.31538e-06
2.19893e-06
-1.34795e-06
8.80098e-06
-6.78964e-07
-1.80822e-06
6.47982e-06
-2.141e-06
-3.06045e-06
5.54506e-06
-4.26494e-07
-3.2375e-06
2.75536e-06
3.06511e-06
-2.04073e-06
-4.29737e-07
3.12134e-06
-9.17213e-07
-8.72418e-07
2.52955e-06
-1.13792e-07
-4.11558e-07
2.64229e-06
5.71993e-07
3.31285e-07
2.87136e-06
8.35903e-07
1.06183e-06
2.64591e-06
6.26802e-07
2.13934e-06
-9.7931e-07
1.08211e-05
-5.7234e-07
-1.83157e-06
8.20749e-06
-1.81639e-06
-2.57616e-06
7.31096e-06
7.88531e-08
-1.9572e-06
2.152e-06
2.58036e-06
-1.06771e-06
-1.25612e-06
1.93999e-06
-3.81731e-07
-1.64894e-06
1.40421e-06
-1.80471e-07
-9.51392e-07
1.50257e-06
-1.74333e-08
-4.81341e-07
1.88414e-06
2.46789e-07
-1.34e-07
2.17977e-06
-1.90106e-07
2.1238e-06
-3.85389e-07
1.18007e-05
8.55071e-07
-1.32075e-06
9.97599e-06
-1.10725e-06
-8.47644e-07
8.01041e-06
1.13278e-07
2.20315e-07
1.88843e-06
1.24984e-06
4.53431e-07
-1.39228e-06
1.24484e-06
5.0656e-07
-1.91772e-06
8.78046e-07
4.4546e-07
-1.20863e-06
9.0562e-07
2.69912e-07
-7.33182e-07
1.15041e-06
1.84156e-07
-5.42432e-07
1.40041e-06
-5.83484e-07
1.45133e-06
9.19886e-07
1.0286e-05
2.80622e-06
4.95934e-07
1.09942e-05
7.30862e-07
1.68661e-06
7.86076e-06
7.62811e-07
2.1351e-06
2.05826e-06
9.92168e-07
1.82402e-06
-1.19307e-06
8.29326e-07
1.25129e-06
-1.60351e-06
5.34668e-07
8.50353e-07
-1.08871e-06
6.06164e-07
5.82656e-07
-8.15927e-07
7.98642e-07
3.48555e-07
-7.05888e-07
9.15629e-07
-6.96909e-07
9.06402e-07
2.17659e-06
3.31792e-06
6.50076e-06
2.98717e-06
2.85738e-06
9.55267e-06
3.99989e-06
2.03935e-06
6.56794e-06
3.67815e-06
1.24989e-06
1.85443e-06
2.61252e-06
5.11417e-07
-6.33595e-07
1.63833e-06
3.30528e-07
-9.32546e-07
1.06067e-06
4.73592e-07
-7.87201e-07
6.80794e-07
6.10916e-07
-7.4058e-07
3.62627e-07
7.01697e-07
-7.30537e-07
6.94982e-07
-7.32406e-07
1.04355e-07
-2.11751e-07
3.82831e-07
2.55761e-07
-2.75799e-07
4.22632e-07
3.68658e-07
-2.26043e-07
3.70946e-07
4.38796e-07
-1.73268e-07
3.20702e-07
4.68372e-07
-1.26706e-07
2.76224e-07
4.55714e-07
-8.31022e-08
2.37679e-07
3.98704e-07
-4.28628e-08
2.07456e-07
2.96241e-07
-1.01419e-08
1.88219e-07
1.57618e-07
5.76491e-09
1.83725e-07
3.18063e-09
1.78323e-07
1.05555e-07
-4.28134e-07
4.12631e-07
2.61823e-07
-5.56688e-07
4.41901e-07
3.72445e-07
-4.47317e-07
3.74889e-07
4.33435e-07
-3.31168e-07
3.07376e-07
4.50377e-07
-2.29495e-07
2.43025e-07
4.25532e-07
-1.37494e-07
1.83972e-07
3.59749e-07
-5.72915e-08
1.36048e-07
2.57262e-07
1.17824e-09
1.03846e-07
1.32928e-07
2.35181e-08
9.09128e-08
3.93774e-09
8.85394e-08
1.39043e-07
-7.0827e-07
5.53324e-07
3.45681e-07
-9.22919e-07
5.90977e-07
4.88737e-07
-7.33794e-07
4.94358e-07
5.66459e-07
-5.3499e-07
3.98643e-07
5.87175e-07
-3.6053e-07
3.0848e-07
5.5407e-07
-2.01897e-07
2.24238e-07
4.66957e-07
-6.36075e-08
1.52871e-07
3.31471e-07
4.00522e-08
9.79799e-08
1.73688e-07
7.87677e-08
6.85802e-08
4.71889e-08
5.83629e-08
1.88984e-07
-1.06172e-06
7.92952e-07
4.79703e-07
-1.4157e-06
8.48919e-07
6.71209e-07
-1.11675e-06
6.83253e-07
7.64235e-07
-7.94768e-07
5.29035e-07
7.77248e-07
-5.12981e-07
3.89087e-07
7.15993e-07
-2.57601e-07
2.61728e-07
5.90595e-07
-3.90713e-08
1.62421e-07
4.21933e-07
1.13582e-07
8.78439e-08
2.18308e-07
1.87591e-07
4.16624e-08
1.62619e-07
5.21057e-09
3.60124e-07
-1.52624e-06
1.10396e-06
7.72189e-07
-2.04232e-06
1.27404e-06
1.02893e-06
-1.6213e-06
1.01207e-06
1.13796e-06
-1.11521e-06
7.55327e-07
1.14012e-06
-6.71673e-07
5.38468e-07
1.05649e-06
-2.85066e-07
3.36796e-07
8.57393e-07
8.89237e-08
1.54175e-07
5.98793e-07
3.37095e-07
3.43154e-08
3.05391e-07
4.64667e-07
-2.83808e-08
4.76557e-07
-1.02041e-07
8.59622e-07
-2.33622e-06
1.23995e-06
1.32183e-06
-2.66576e-06
1.74126e-06
1.60926e-06
-2.16364e-06
1.49219e-06
1.69423e-06
-1.40758e-06
1.1097e-06
1.63136e-06
-7.16485e-07
7.45143e-07
1.47996e-06
-1.58077e-07
4.82418e-07
1.21463e-06
3.5157e-07
2.5848e-07
8.41194e-07
7.331e-07
4.3072e-08
4.2089e-07
9.40667e-07
-1.16162e-07
1.00105e-06
-2.31962e-07
9.71149e-07
-3.55491e-06
1.76177e-06
1.20523e-06
-3.22141e-06
1.92216e-06
1.5325e-06
-2.808e-06
1.60719e-06
1.88223e-06
-2.03168e-06
1.20359e-06
1.99341e-06
-1.01588e-06
6.89418e-07
1.90212e-06
-1.24684e-07
1.79902e-07
1.54617e-06
7.37503e-07
-2.83716e-07
1.04262e-06
1.26665e-06
-6.99594e-07
5.11361e-07
1.49627e-06
-1.04456e-06
1.53525e-06
-1.22875e-06
-1.69585e-06
-4.32067e-06
3.15549e-06
-2.45999e-06
-3.79202e-06
-3.39878e-07
-2.12957e-06
-3.4921e-06
-1.21354e-06
-6.82904e-07
-3.80856e-06
-1.33012e-06
5.82545e-07
-2.83106e-06
-1.02867e-06
1.23569e-06
-1.64298e-06
-1.30028e-06
1.08634e-06
2.41734e-07
-1.84796e-06
6.27678e-07
1.32966e-06
-2.50942e-06
2.71577e-07
1.38705e-06
-2.79427e-06
1.11105e-06
-2.79635e-06
-3.07115e-06
-1.36064e-06
3.28383e-06
-5.10133e-06
-7.58857e-07
-2.53742e-06
-5.69917e-06
-2.90316e-06
-4.72377e-06
-5.59617e-06
-3.0173e-06
-5.59576e-06
-5.04683e-06
-1.55897e-06
-6.34415e-06
-4.56793e-06
-1.63942e-06
-8.20701e-06
-3.46478e-06
-1.53525e-06
-9.97098e-06
-1.66923e-06
-9.35627e-07
-1.03412e-05
-7.68393e-07
-4.60072e-07
-9.86787e-06
-8.08212e-07
-9.47605e-06
-2.7404e-06
9.65884e-07
2.11928e-06
-4.18843e-06
1.27681e-06
-4.41282e-06
-3.85673e-06
-2.92707e-06
-4.94368e-06
-3.71304e-06
-3.1722e-06
-3.59977e-06
-2.8317e-06
-2.30938e-06
-2.69727e-06
-2.08716e-06
-2.37012e-06
-2.49495e-06
-2.10936e-06
-1.93997e-06
-3.86573e-06
-1.80667e-06
-1.58663e-06
-5.71277e-06
-1.45836e-06
-9.36893e-07
-6.48389e-06
-1.32675e-06
-6.51826e-06
-1.62222e-06
2.62473e-06
1.23212e-06
-1.69224e-06
2.93174e-06
-5.34046e-06
-1.03304e-06
-2.80398e-06
-3.76148e-06
-8.294e-07
-3.66758e-06
-2.29026e-06
-2.94503e-08
-3.12813e-06
-2.3672e-06
3.19925e-07
-3.25719e-06
-6.0328e-07
-3.8062e-07
-2.17748e-06
5.86108e-07
-1.55992e-06
-9.45408e-07
-2.73512e-07
-1.64374e-06
-1.02772e-06
-6.68475e-07
-1.90565e-06
-5.92772e-07
-8.63437e-07
4.48017e-06
7.90358e-08
-1.46174e-07
4.44847e-06
-5.68117e-06
2.40196e-08
-2.36097e-06
-2.11377e-06
-5.58956e-07
-3.51803e-06
-1.20024e-06
-7.16755e-07
-3.21982e-06
-1.04741e-06
-8.05213e-07
-3.21903e-06
-2.53621e-07
-1.24832e-06
-1.88325e-06
7.6322e-07
-1.68924e-06
-4.96712e-07
1.10441e-06
-1.69009e-06
-6.26838e-07
1.17196e-06
-2.15848e-06
1.24885e-06
-5.00314e-07
6.38627e-06
-6.55082e-07
4.18428e-07
5.69667e-06
-5.06432e-06
1.59219e-07
-1.08721e-06
-2.4039e-06
-9.07221e-07
-2.3182e-06
-5.10428e-07
-1.65684e-06
-2.70873e-06
8.33895e-07
-1.94021e-06
-3.15016e-06
1.42155e-06
-1.90479e-06
-1.94707e-06
2.0287e-06
-1.76086e-06
-2.2709e-07
2.5996e-06
-1.27195e-06
-1.22292e-07
2.48231e-06
-1.88152e-06
1.82647e-06
-3.27761e-07
7.79279e-06
-7.97767e-07
6.05645e-07
6.46571e-06
-3.85939e-06
-6.31202e-08
5.62423e-07
-2.54417e-06
-1.36758e-06
-3.24119e-07
2.91709e-07
-1.78389e-06
-2.14857e-06
1.90241e-06
-1.64975e-06
-3.12151e-06
2.31882e-06
-1.17935e-06
-2.30386e-06
2.91821e-06
-4.9175e-07
-7.59695e-07
3.5323e-06
1.09803e-07
-3.33914e-07
3.20466e-06
-1.55295e-06
2.25306e-06
-6.67134e-08
8.68686e-06
-1.07344e-06
7.66702e-07
6.91421e-06
-3.30192e-06
-2.77317e-07
2.65911e-06
-2.38524e-06
-1.49913e-06
1.56532e-06
1.55589e-06
-1.30607e-06
-1.53594e-06
2.27379e-06
-8.49177e-07
-2.74068e-06
2.24089e-06
-2.54014e-07
-2.28479e-06
2.72371e-06
4.76729e-07
-1.23981e-06
3.32865e-06
8.39033e-07
-7.10268e-07
3.13856e-06
-1.20372e-06
2.32006e-06
5.76705e-07
9.11827e-06
-1.68708e-06
9.48479e-07
7.81998e-06
-3.41855e-06
-3.70845e-07
5.37392e-06
-1.82198e-06
-1.0915e-06
3.31936e-06
2.03173e-06
-5.19071e-07
-5.54904e-07
1.56788e-06
-2.26322e-07
-2.04524e-06
1.54136e-06
-3.05529e-08
-1.81643e-06
1.97818e-06
3.0389e-07
-1.2649e-06
2.56201e-06
5.05928e-07
-9.96557e-07
2.73016e-06
-1.0656e-06
2.24269e-06
1.09723e-06
9.08277e-06
-1.63406e-06
8.19939e-07
8.95042e-06
-2.66953e-06
-2.53162e-07
7.64309e-06
-1.11722e-06
-2.34796e-07
4.7505e-06
1.13086e-06
3.19006e-07
1.05196e-07
7.26092e-07
4.65443e-07
-1.81643e-06
1.02897e-06
3.44607e-07
-1.58372e-06
1.39069e-06
2.24117e-07
-1.07738e-06
1.8171e-06
1.75338e-07
-9.54828e-07
2.18682e-06
-1.01808e-06
2.15821e-06
1.42757e-06
8.25672e-06
2.53551e-07
5.8384e-07
9.62161e-06
-9.3471e-07
-9.30208e-08
8.98621e-06
-5.52974e-07
6.49804e-07
5.08687e-06
1.7065e-07
1.15543e-06
2.31947e-07
6.12464e-07
1.10354e-06
-1.75059e-06
8.64085e-07
7.99515e-07
-1.45181e-06
1.07773e-06
5.29167e-07
-9.89819e-07
1.3332e-06
2.7396e-07
-8.33992e-07
1.53478e-06
-8.5351e-07
1.48742e-06
2.0503e-06
6.1577e-06
2.85494e-06
1.22736e-06
9.5293e-06
1.6461e-06
1.1837e-06
9.02093e-06
7.71756e-07
2.07711e-06
4.42981e-06
7.55809e-07
2.24514e-06
1.33647e-08
8.79879e-07
1.66179e-06
-1.44279e-06
8.10219e-07
1.0749e-06
-1.14587e-06
8.87119e-07
6.95375e-07
-8.86657e-07
1.07501e-06
3.6759e-07
-7.94902e-07
1.20433e-06
-7.7357e-07
1.12571e-06
2.34194e-06
3.7821e-06
3.35159e-06
2.7401e-06
4.0254e-06
7.96311e-06
3.40002e-06
2.9442e-06
7.45615e-06
3.78411e-06
2.09969e-06
3.19591e-06
3.00387e-06
1.26312e-06
4.1906e-08
1.88229e-06
7.9897e-07
-7.89663e-07
1.19644e-06
7.69499e-07
-7.55922e-07
7.5441e-07
8.92549e-07
-7.26252e-07
3.74262e-07
1.00823e-06
-7.21284e-07
9.61177e-07
-7.18527e-07
8.08414e-08
-1.39688e-07
4.41677e-07
2.15612e-07
-2.10127e-07
4.97988e-07
3.18403e-07
-1.72521e-07
4.40677e-07
3.83218e-07
-1.29332e-07
3.85218e-07
4.12385e-07
-9.22828e-08
3.39339e-07
4.04577e-07
-5.64966e-08
3.01984e-07
3.56687e-07
-2.20303e-08
2.77376e-07
2.7147e-07
2.63789e-09
2.70799e-07
1.50771e-07
2.43611e-08
2.80063e-07
2.92378e-08
2.86678e-07
7.56595e-08
-2.70078e-07
4.67362e-07
2.08207e-07
-4.09917e-07
5.09143e-07
3.0492e-07
-3.29376e-07
4.3503e-07
3.58537e-07
-2.35914e-07
3.60341e-07
3.74445e-07
-1.56695e-07
2.91528e-07
3.55963e-07
-8.42427e-08
2.30201e-07
3.04968e-07
-2.18674e-08
1.8688e-07
2.29723e-07
1.60638e-08
1.65665e-07
1.39145e-07
3.15152e-08
1.74338e-07
3.9487e-08
1.93858e-07
9.83448e-08
-4.34102e-07
6.19004e-07
2.68262e-07
-6.61389e-07
6.72533e-07
3.93625e-07
-5.31101e-07
5.70719e-07
4.63935e-07
-3.75747e-07
4.68166e-07
4.83775e-07
-2.38987e-07
3.70933e-07
4.57088e-07
-1.14969e-07
2.81651e-07
3.88795e-07
-1.08941e-08
2.1019e-07
2.87025e-07
5.16454e-08
1.64168e-07
1.67529e-07
7.2002e-08
1.47589e-07
1.21789e-07
1.1545e-07
1.26851e-07
-6.26703e-07
8.58702e-07
3.52831e-07
-9.76384e-07
9.37933e-07
5.18209e-07
-7.87046e-07
7.73821e-07
6.03237e-07
-5.44806e-07
6.13066e-07
6.20625e-07
-3.3315e-07
4.65861e-07
5.77708e-07
-1.43947e-07
3.33623e-07
4.79158e-07
2.45617e-08
2.25515e-07
3.4107e-07
1.27947e-07
1.49631e-07
1.82825e-07
1.67011e-07
1.04899e-07
2.85148e-07
-1.56111e-09
2.40752e-07
-9.14603e-07
1.15111e-06
5.38055e-07
-1.36316e-06
1.36352e-06
7.52595e-07
-1.1161e-06
1.12659e-06
8.49503e-07
-7.42853e-07
8.56465e-07
8.49503e-07
-4.08196e-07
6.13515e-07
7.82092e-07
-1.38699e-07
3.98958e-07
6.39392e-07
9.12852e-08
2.30151e-07
4.33036e-07
2.54952e-07
1.13665e-07
2.00235e-07
3.35344e-07
3.60873e-08
5.02763e-07
-1.47545e-07
6.23241e-07
-1.484e-06
1.1861e-06
9.38774e-07
-1.72202e-06
1.78459e-06
1.16773e-06
-1.44861e-06
1.59574e-06
1.25176e-06
-9.19172e-07
1.20198e-06
1.21759e-06
-4.33051e-07
8.04174e-07
1.11369e-06
-5.55934e-08
5.03212e-07
9.09891e-07
3.11925e-07
2.41635e-07
6.16051e-07
5.60247e-07
3.16178e-08
2.62347e-07
6.89367e-07
-1.16482e-07
8.68443e-07
-3.58631e-07
7.85147e-07
-2.3488e-06
1.84142e-06
9.22201e-07
-2.12149e-06
2.18457e-06
1.19722e-06
-1.99858e-06
1.88214e-06
1.49379e-06
-1.46857e-06
1.45642e-06
1.59193e-06
-6.83805e-07
8.42032e-07
1.53621e-06
-6.92526e-08
2.4929e-07
1.26334e-06
4.93689e-07
-1.9261e-07
8.61885e-07
8.18171e-07
-5.56068e-07
3.8163e-07
9.7989e-07
-8.54824e-07
1.07632e-06
-1.11644e-06
-1.12361e-06
-2.13061e-06
4.06091e-06
-1.97324e-06
-2.47681e-06
8.65073e-07
-1.8351e-06
-3.33657e-06
-1.36952e-08
-4.8795e-07
-4.03278e-06
-1.13062e-07
7.08072e-07
-2.89717e-06
-1.13254e-08
1.15649e-06
-1.45733e-06
-3.60624e-07
8.55217e-07
-1.65277e-07
-8.87715e-07
4.21461e-07
1.41378e-07
-1.39887e-06
1.21497e-07
1.38415e-07
-1.65283e-06
4.72197e-08
-1.74484e-06
-1.96983e-06
1.40306e-06
1.71999e-06
-4.90758e-06
1.09977e-06
-3.17626e-06
-6.49691e-06
-1.99331e-06
-4.4777e-06
-6.75752e-06
-3.21685e-06
-6.15108e-06
-6.49532e-06
-2.6742e-06
-6.82932e-06
-5.60959e-06
-3.7877e-06
-6.76237e-06
-3.12306e-06
-5.75979e-06
-6.86299e-06
-1.52666e-06
-5.60565e-06
-6.19055e-06
-7.79198e-07
-4.68369e-06
-5.79323e-06
-4.55937e-06
-5.56547e-06
-1.17481e-06
3.70583e-06
9.91307e-07
-3.08489e-06
3.93273e-06
-5.33569e-06
-3.39232e-06
-1.50642e-06
-5.12314e-06
-3.09517e-06
-3.6579e-06
-3.45587e-06
-3.02123e-06
-2.65345e-06
-2.79196e-06
-2.79702e-06
-3.34369e-06
-3.16317e-06
-2.78983e-06
-5.05463e-06
-4.57808e-06
-2.37409e-06
-4.8339e-06
-6.90027e-06
-1.32662e-06
-4.73996e-06
-7.47508e-06
-4.58766e-06
-7.3907e-06
-2.87067e-07
5.56823e-06
-3.43213e-07
-1.17756e-06
5.93763e-06
-6.45488e-06
-7.65683e-07
-1.09941e-06
-4.58036e-06
-2.77153e-07
-4.46086e-06
-1.97584e-06
3.66379e-07
-4.1524e-06
-1.51178e-06
9.51134e-07
-4.93494e-06
4.03212e-07
2.85667e-07
-5.25208e-06
1.44903e-06
-7.47679e-07
-4.4632e-06
3.89136e-07
-9.38564e-07
-3.88164e-06
-1.33592e-06
-3.63381e-06
-1.73034e-06
5.46252e-07
7.11549e-06
-2.01448e-06
5.78145e-07
7.02663e-06
-6.80206e-06
9.44509e-07
-4.35407e-08
-3.53601e-06
5.91423e-07
-4.04547e-06
-1.26256e-06
7.668e-07
-4.68036e-06
-6.94828e-07
9.95425e-07
-5.3527e-06
-6.44904e-08
6.22619e-07
-5.55724e-06
1.44118e-06
4.69305e-08
-4.6846e-06
1.90151e-06
-2.74557e-07
-3.99559e-06
1.6074e-06
-3.93869e-06
1.55934e-06
1.08061e-06
8.04736e-06
-2.66756e-06
1.67302e-06
7.65247e-06
-6.28258e-06
1.9372e-06
1.04393e-06
-3.75556e-06
1.28058e-06
-2.71381e-06
-1.18547e-06
6.88064e-07
-3.9442e-06
6.90253e-07
4.27409e-07
-4.961e-06
1.2905e-06
3.70457e-08
-5.04175e-06
1.90357e-06
-2.00721e-07
-4.3028e-06
2.45557e-06
-1.50401e-07
-3.70521e-06
2.14161e-06
-3.7116e-06
1.62588e-06
1.29395e-06
8.12307e-06
-2.16743e-06
2.51249e-06
7.45643e-06
-4.88188e-06
2.67219e-06
1.82604e-06
-3.48597e-06
1.84657e-06
-8.43331e-07
-7.53163e-07
8.47457e-07
-2.27342e-06
1.23075e-06
2.60436e-07
-3.86024e-06
1.80508e-06
-4.99347e-08
-4.13503e-06
2.32185e-06
-6.99143e-09
-3.63107e-06
2.81762e-06
1.46918e-07
-3.20078e-06
2.54632e-06
-3.21028e-06
1.83698e-06
1.56857e-06
6.92355e-06
-1.44248e-06
3.1762e-06
6.09399e-06
-3.54711e-06
2.87908e-06
2.49618e-06
-2.75827e-06
1.91989e-06
1.48857e-06
1.83175e-07
1.03322e-06
-4.84081e-07
1.37112e-06
5.5075e-07
-2.585e-06
1.44812e-06
1.94392e-07
-2.95072e-06
1.89575e-06
1.08327e-07
-2.65836e-06
2.442e-06
8.35262e-08
-2.40972e-06
2.37229e-06
-2.28993e-06
1.39295e-06
2.13298e-06
4.77713e-06
-1.67364e-06
3.5027e-06
4.43619e-06
-3.13046e-06
2.43585e-06
3.53268e-06
-1.79163e-06
1.51383e-06
3.60017e-06
8.42155e-07
1.14763e-06
5.04187e-07
9.45808e-07
8.34142e-07
-1.82363e-06
1.09347e-06
4.33878e-07
-2.0803e-06
1.50802e-06
1.34918e-07
-1.76548e-06
1.96809e-06
-1.08453e-07
-1.59543e-06
2.15925e-06
-1.34073e-06
1.1813e-06
2.37533e-06
2.60885e-06
-1.8411e-06
2.69256e-06
3.43751e-06
-1.98809e-06
1.20599e-06
4.53249e-06
-6.30461e-07
9.01279e-07
4.37985e-06
6.55893e-07
1.13548e-06
2.96043e-07
7.00033e-07
1.01798e-06
-1.68599e-06
1.00883e-06
6.93501e-07
-1.72262e-06
1.35749e-06
3.8687e-07
-1.35458e-06
1.71283e-06
7.91359e-08
-1.18417e-06
2.08329e-06
-1.09234e-06
1.99729e-06
2.19418e-06
8.16922e-07
-1.48703e-07
1.57693e-06
2.98794e-06
1.32122e-07
3.86369e-07
4.74326e-06
4.26825e-07
9.23529e-07
3.31121e-06
7.02132e-07
1.38078e-06
-3.69262e-07
8.20513e-07
1.25973e-06
-1.65489e-06
9.54036e-07
9.32689e-07
-1.49449e-06
1.17665e-06
6.26239e-07
-1.19668e-06
1.48177e-06
2.43199e-07
-1.01599e-06
1.74964e-06
-9.14984e-07
1.55965e-06
2.21156e-06
-2.18214e-07
1.67851e-06
1.70244e-06
2.98634e-06
2.15683e-06
1.22762e-06
4.19034e-06
1.7995e-06
1.91699e-06
1.81157e-06
1.56607e-06
1.9919e-06
-7.74621e-07
1.21032e-06
1.55678e-06
-1.37051e-06
9.60964e-07
1.12651e-06
-1.19948e-06
1.02237e-06
7.47999e-07
-1.03716e-06
1.294e-06
3.13781e-07
-9.26479e-07
1.54904e-06
-8.33599e-07
1.37809e-06
1.44547e-06
2.49323e-06
-3.74807e-07
2.0845e-06
3.74523e-06
2.62748e-06
2.65388e-06
3.4398e-06
3.12536e-06
2.94919e-06
2.56831e-06
1.04764e-06
2.36664e-06
1.50275e-06
-4.3171e-07
1.67038e-06
9.37421e-07
-8.12712e-07
1.21487e-06
8.81164e-07
-8.55635e-07
8.03803e-07
1.11604e-06
-8.49575e-07
3.2961e-07
1.37139e-06
-8.15447e-07
1.22422e-06
-7.31626e-07
5.53791e-08
-6.80394e-08
4.54338e-07
1.77297e-07
-1.5051e-07
5.2658e-07
2.73977e-07
-1.25373e-07
4.6937e-07
3.37308e-07
-9.15423e-08
4.13429e-07
3.69973e-07
-6.41542e-08
3.70828e-07
3.7205e-07
-3.84269e-08
3.38333e-07
3.42109e-07
-1.35136e-08
3.2083e-07
2.76329e-07
1.69896e-08
3.19589e-07
1.68679e-07
4.67119e-08
3.41001e-07
8.30843e-08
3.51325e-07
4.33664e-08
-1.16575e-07
4.72531e-07
1.55194e-07
-2.79169e-07
5.25975e-07
2.40673e-07
-2.26213e-07
4.50391e-07
2.89687e-07
-1.54857e-07
3.74643e-07
3.08423e-07