/*--------------------------------*- C++ -*----------------------------------*\
| =========                 |                                                 |
| \\      /  F ield         | OpenFOAM: The Open Source CFD Toolbox           |
|  \\    /   O peration     | Version:  2312                                  |
|   \\  /    A nd           | Website:  www.openfoam.com                      |
|    \\/     M anipulation  |                                                 |
\*---------------------------------------------------------------------------*/
FoamFile
{
    version     2.0;
    format      ascii;
    arch        "LSB;label=32;scalar=64";
    class       surfaceScalarField;
    location    "0.865";
    object      phi;
}
// * * * * * * * * * * * * * * * * * * * * * * * * * * * * * * * * * * * * * //

dimensions      [0 3 -1 0 0 0 0];

oriented        oriented;

internalField   nonuniform List<scalar> 
22600
(
6.2215e-08
2.82619e-08
6.99736e-08
-5.79302e-08
4.68208e-08
7.33245e-08
-1.86557e-07
4.66096e-08
8.20175e-08
-3.07391e-07
3.28742e-08
8.79599e-08
-4.02644e-07
7.34628e-09
8.79064e-08
-4.54482e-07
-2.81295e-08
7.99679e-08
-4.33593e-07
-8.48291e-08
6.39392e-08
-3.02533e-07
-1.84243e-07
5.31837e-08
-9.20777e-08
-2.87897e-07
7.74411e-08
-2.19036e-07
1.26958e-07
9.35951e-08
2.87434e-08
8.52216e-08
-2.22483e-08
8.40225e-08
7.86416e-08
-1.42376e-07
8.87913e-08
7.79455e-08
-2.55057e-07
6.86433e-08
7.69118e-08
-3.54045e-07
3.71033e-08
6.92314e-08
-4.29807e-07
2.94278e-09
4.46898e-08
-4.48721e-07
-7.24336e-08
6.51803e-09
-3.41406e-07
-2.94542e-07
2.98422e-09
-8.74231e-08
-6.19352e-07
7.74723e-08
-4.49936e-07
1.43478e-07
1.26578e-07
-7.49317e-08
1.81847e-07
-1.81706e-08
8.51168e-08
1.43654e-07
-1.67917e-07
1.15819e-07
1.22719e-07
-3.03975e-07
9.84966e-08
1.06204e-07
-4.21066e-07
7.83895e-08
7.58044e-08
-5.44375e-07
1.0486e-07
2.13921e-08
-6.73627e-07
4.78343e-08
8.9837e-09
-6.28932e-07
-5.01221e-07
1.61985e-07
-2.45817e-07
-1.43696e-06
4.34493e-07
-1.07159e-06
3.7584e-07
2.33963e-07
-4.88555e-07
4.08066e-07
7.79057e-08
-5.65371e-08
2.97712e-07
-1.24708e-07
8.68829e-08
2.3155e-07
-2.91965e-07
7.60094e-08
1.89743e-07
-4.19629e-07
7.64822e-08
1.29572e-07
-6.15221e-07
2.0694e-07
9.35123e-08
-9.268e-07
1.02009e-07
2.57404e-07
-1.03352e-06
-1.0809e-06
6.86394e-07
-6.06829e-07
-2.94998e-06
1.08633e-06
-2.3953e-06
7.16876e-07
2.13975e-07
-1.10031e-06
6.31364e-07
1.19978e-07
-5.08019e-07
5.45479e-07
-6.36872e-08
-2.13883e-07
4.84431e-07
-1.3776e-07
-3.0814e-07
4.58223e-07
-1.37422e-07
-3.30662e-07
4.06805e-07
-3.1234e-07
-2.45293e-08
4.06387e-07
-6.63533e-07
-2.49862e-07
7.03065e-07
-1.09413e-06
-1.93005e-06
1.27975e-06
-1.2057e-06
-4.38912e-06
1.5507e-06
-4.33115e-06
7.3016e-07
1.35505e-07
-1.31881e-06
4.55139e-07
-3.05452e-08
-6.74355e-07
3.32386e-07
-1.52276e-07
-3.88148e-07
2.95995e-07
-6.45466e-08
-7.09165e-07
3.13296e-07
1.99938e-07
-1.08984e-06
4.9469e-07
3.82769e-07
-9.62579e-07
7.55219e-07
2.96227e-07
-1.29608e-06
1.13276e-06
-3.93694e-07
-2.64821e-06
1.40809e-06
-1.71892e-06
-3.75142e-06
6.87523e-07
-6.35456e-06
3.04488e-07
4.15241e-07
-1.47726e-06
2.46543e-07
2.96109e-07
-5.97836e-07
4.26129e-08
3.02425e-07
-2.47973e-07
-1.4649e-07
3.23247e-07
-4.94343e-07
-2.35645e-07
3.37037e-07
-1.21437e-06
1.10742e-07
5.72377e-07
-2.00643e-06
8.08511e-07
1.28816e-06
-2.98125e-06
9.69378e-07
2.00008e-06
-2.70179e-06
-6.58338e-07
4.20933e-07
1.25142e-06
-3.4237e-06
-5.03378e-06
-8.99846e-07
1.4431e-07
-1.47107e-06
-1.90539e-07
5.94676e-07
-7.55715e-07
-2.92487e-07
1.13444e-06
-4.10114e-07
-3.7762e-07
1.17167e-06
-1.40533e-07
-3.91044e-07
3.95786e-07
-2.11559e-07
-2.26925e-07
2.28446e-07
-1.51224e-06
-3.26844e-07
3.8592e-06
-4.68472e-06
-1.92728e-06
3.39029e-06
4.32984e-06
-6.56271e-06
3.38774e-06
8.84316e-06
-7.58919e-06
1.59909e-06
-3.24514e-06
-2.19339e-06
-2.46295e-06
8.30317e-07
-1.21666e-06
-2.60293e-06
8.70485e-07
-1.83138e-07
-2.56401e-06
1.12038e-06
1.1006e-06
-2.86507e-06
1.4408e-06
2.16244e-06
-1.99179e-06
7.18386e-07
-1.26267e-06
4.71772e-06
-2.80485e-06
-3.15288e-06
2.18226e-06
-4.97678e-06
-1.17867e-06
7.05972e-06
-4.7041e-06
1.02318e-06
8.96812e-06
-2.32679e-06
2.76953e-06
-1.47241e-07
-7.8964e-06
-4.11668e-06
2.45577e-06
-7.30489e-06
-5.0763e-06
1.88187e-06
-6.75923e-06
-4.79553e-06
1.68586e-06
-7.19978e-06
-4.0777e-06
1.65318e-06
-8.04462e-06
-1.64537e-06
4.98405e-07
-5.77182e-06
3.12065e-06
-6.75724e-07
-5.7628e-06
4.47079e-06
-2.29755e-06
-3.24248e-06
7.58551e-06
-3.04612e-06
1.62991e-07
7.76548e-06
-2.20284e-06
3.72681e-06
-7.94272e-07
-8.93297e-06
-4.82087e-06
1.2481e-06
-8.01129e-06
-5.35906e-06
-6.38921e-07
-6.9388e-06
-4.76388e-06
-1.10414e-06
-6.59266e-06
-3.58883e-06
-8.35031e-07
-6.38004e-06
-1.5865e-06
-2.71487e-07
-4.43785e-06
1.05814e-06
1.20317e-07
-3.69077e-06
4.06578e-06
-3.4206e-07
-1.99279e-06
7.81758e-06
-1.93005e-06
9.67342e-07
7.99842e-06
-3.19308e-06
5.18855e-06
-4.94407e-07
-7.21749e-06
-3.49315e-06
-2.00084e-06
-5.67921e-06
-3.66484e-06
-3.23249e-06
-4.45727e-06
-2.99195e-06
-2.99388e-06
-3.37904e-06
-2.50891e-06
-2.15815e-06
-2.11617e-06
-1.97958e-06
-8.69773e-07
-7.16839e-07
-2.97191e-07
-4.3998e-08
-4.24484e-07
3.07239e-06
7.01023e-07
2.49394e-07
7.07745e-06
6.62493e-08
1.64129e-06
8.42319e-06
-1.81665e-06
6.53172e-06
2.9812e-07
-6.50996e-06
-1.28599e-06
-3.63315e-06
-4.93809e-06
-1.89076e-06
-3.34595e-06
-3.91758e-06
-2.48189e-06
-1.53058e-06
-2.40927e-06
-3.79207e-06
-2.25154e-07
-9.87954e-08
-4.71416e-06
4.24117e-07
1.94376e-06
-3.47704e-06
1.1373e-06
2.07851e-06
7.24616e-07
2.21303e-06
1.81026e-06
5.41409e-06
1.93161e-06
2.07936e-06
8.46935e-06
-3.15244e-07
7.43666e-06
1.17442e-06
-6.63745e-06
3.20507e-07
-3.2651e-06
-5.42996e-06
-1.34566e-06
-1.75259e-06
-3.96247e-06
-4.07931e-06
1.29924e-07
-1.40628e-06
-6.93276e-06
5.84502e-07
1.53563e-06
-8.23971e-06
5.83636e-07
3.71045e-06
-7.48674e-06
1.83488e-06
3.67458e-06
-3.69413e-06
4.45462e-06
2.54343e-06
2.04886e-06
4.49636e-06
2.0982e-06
7.10422e-06
1.81035e-06
7.543e-06
1.99185e-06
-7.44418e-06
1.09699e-06
-2.39233e-06
-6.04718e-06
-2.28793e-06
-4.5476e-07
-3.87156e-06
-6.51522e-06
2.60295e-07
-1.15887e-06
-9.3837e-06
-2.61745e-07
1.87034e-06
-1.01422e-05
-1.12672e-06
4.00706e-06
-9.96353e-06
3.40066e-07
4.20586e-06
-8.21502e-06
4.32209e-06
2.67242e-06
-2.69368e-06
6.27598e-06
1.79602e-06
4.08586e-06
3.89476e-06
6.76026e-06
2.57877e-06
-8.2929e-06
1.39985e-06
-1.67172e-06
-7.01557e-06
-3.55151e-06
-1.37464e-08
-5.07353e-06
-7.90161e-06
-5.55649e-07
-2.79012e-06
-1.00287e-05
-1.63841e-06
3.67785e-07
-1.04653e-05
-2.83479e-06
2.72921e-06
-1.11387e-05
-1.18621e-06
3.45151e-06
-1.13008e-05
2.36349e-06
2.23957e-06
-7.28553e-06
5.80378e-06
1.17927e-06
-4.1195e-07
5.55811e-06
4.72116e-06
3.21837e-06
-9.52074e-06
1.6917e-06
-9.12265e-07
-8.65809e-06
-3.8823e-06
-5.31872e-07
-7.71485e-06
-8.03623e-06
-8.08617e-07
-5.37216e-06
-9.54565e-06
-2.82573e-06
-1.70447e-06
-1.00788e-05
-4.05419e-06
1.12014e-06
-1.14102e-05
-2.55312e-06
2.17801e-06
-1.23846e-05
2.59556e-08
1.31139e-06
-1.04535e-05
4.03456e-06
5.40414e-08
-5.10917e-06
5.95457e-06
1.06399e-06
3.71121e-06
-1.02444e-05
2.14475e-06
-5.78037e-07
-1.05317e-05
-3.78119e-06
1.86144e-07
-1.04288e-05
-7.67641e-06
-4.62721e-07
-8.11459e-06
-8.74928e-06
-3.11055e-06
-4.35945e-06
-9.22122e-06
-4.61275e-06
-8.85194e-07
-1.06724e-05
-4.21205e-06
1.14504e-06
-1.21493e-05
-2.26551e-06
1.35752e-06
-1.13331e-05
6.67107e-07
2.0462e-07
-7.65426e-06
3.69799e-06
-2.41362e-06
3.68223e-06
-9.17956e-06
1.882e-06
6.48302e-07
-1.13234e-05
-3.52862e-06
1.89124e-06
-1.2342e-05
-6.98643e-06
3.28606e-07
-1.05611e-05
-8.1035e-06
-2.42662e-06
-7.09577e-06
-8.28624e-06
-4.40034e-06
-3.13215e-06
-9.14871e-06
-5.48735e-06
-1.058e-07
-1.02281e-05
-4.94754e-06
1.58235e-06
-1.044e-05
-2.58119e-06
1.3173e-06
-8.13427e-06
7.45053e-07
-3.87542e-06
2.7791e-06
-7.41522e-06
2.61739e-06
1.13658e-06
-1.16422e-05
3.53911e-06
-2.84079e-06
-1.35965e-05
1.14386e-06
-6.17592e-06
-1.23114e-05
-1.71988e-06
-7.66878e-06
-9.18319e-06
-3.69086e-06
-7.72357e-06
-5.14557e-06
-5.23737e-06
-7.94896e-06
-1.10777e-06
-5.90314e-06
-8.36281e-06
1.89647e-06
-4.82265e-06
-8.62162e-06
2.30617e-06
-1.56926e-06
-6.97471e-06
2.16705e-06
-3.73628e-06
2.60132e-08
-7.49399e-09
2.34753e-07
-1.44471e-07
1.4309e-08
2.295e-07
-3.04957e-07
9.15908e-09
2.33344e-07
-4.41953e-07
-1.24016e-08
2.37358e-07
-5.4478e-07
-5.19513e-08
2.42685e-07
-5.91261e-07
-1.23877e-07
2.50325e-07
-5.31504e-07
-2.59141e-07
2.63323e-07
-3.1962e-07
-4.50903e-07
2.92204e-07
-5.07912e-08
-5.42687e-07
3.51299e-07
-2.73677e-07
3.49844e-07
6.10068e-08
-4.25429e-08
2.61384e-07
-1.04057e-07
1.86934e-08
2.39321e-07
-2.67542e-07
2.03531e-08
2.30236e-07
-4.17724e-07
-1.10981e-08
2.2579e-07
-5.53837e-07
-6.92642e-08
2.22658e-07
-6.6582e-07
-1.82471e-07
2.15267e-07
-6.69985e-07
-4.74688e-07
2.26229e-07
-4.33722e-07
-1.01148e-06
3.27295e-07
-3.49638e-08
-1.34382e-06
4.79851e-07
-5.56464e-07
3.91301e-07
6.71952e-08
-7.06038e-08
3.91557e-07
-1.58611e-07
6.30344e-08
3.2512e-07
-3.63627e-07
5.81045e-08
2.89983e-07
-5.53917e-07
1.88306e-08
2.66566e-07
-7.61895e-07
-2.13641e-08
2.35882e-07
-1.01729e-06
-1.22686e-07
2.17003e-07
-1.19916e-06
-6.51512e-07
3.6768e-07
-9.6742e-07
-1.90163e-06
8.20395e-07
-2.68944e-07
-2.79123e-06
1.18343e-06
-1.17469e-06
7.25123e-07
1.66865e-07
-2.21818e-07
6.9102e-07
-1.20666e-07
1.02878e-07
5.45399e-07
-4.0451e-07
1.29685e-07
4.43813e-07
-6.52763e-07
9.68024e-08
3.60024e-07
-9.09518e-07
8.25256e-08
2.82437e-07
-1.27261e-06
-7.00669e-09
3.40924e-07
-1.62225e-06
-8.60839e-07
8.16369e-07
-1.47449e-06
-2.97385e-06
1.61086e-06
-6.78197e-07
-4.48798e-06
1.98678e-06
-2.26076e-06
1.12475e-06
2.80304e-07
-5.65866e-07
1.05629e-06
-3.11211e-09
8.28834e-08
8.48889e-07
-3.21684e-07
1.97041e-07
7.35647e-07
-5.26977e-07
1.43632e-07
6.16687e-07
-6.68677e-07
1.03924e-07
5.27106e-07
-8.89319e-07
-6.32229e-08
6.83246e-07
-1.19395e-06
-1.14077e-06
1.28762e-06
-1.45593e-06
-3.40231e-06
1.9702e-06
-1.27131e-06
-4.90743e-06
1.78553e-06
-3.56492e-06
7.63007e-07
8.05763e-08
-7.54528e-07
1.10399e-06
-1.8079e-07
-2.37291e-07
9.13926e-07
-3.28559e-07
-1.72523e-07
8.13328e-07
-3.53877e-07
-2.12756e-07
6.95002e-07
-2.20455e-07
-2.72114e-07
7.37306e-07
1.14961e-07
-6.65709e-07
1.02229e-06
2.52139e-07
-1.56745e-06
1.42227e-06
-6.0866e-07
-2.33989e-06
1.20646e-06
-1.95274e-06
-2.72706e-06
-1.48774e-07
-5.05659e-06
-1.56575e-07
1.61882e-07
-7.28258e-07
8.28177e-07
-1.52039e-07
-4.87167e-07
6.0641e-07
-2.42102e-07
-6.74601e-07
4.45651e-07
-2.17732e-07
-8.19921e-07
3.4715e-07
1.05283e-08
-9.66847e-07
5.77215e-07
7.56479e-07
-1.55976e-06
9.5661e-07
1.97906e-06
-2.56184e-06
7.4119e-07
1.6721e-06
-1.05555e-06
-1.63572e-06
-1.03382e-06
1.44811e-06
-4.89294e-06
-5.19644e-06
-1.79381e-06
2.79054e-07
-1.10791e-06
3.01093e-07
3.33879e-07
-9.1271e-07
7.82311e-08
4.32526e-07
-1.05345e-06
-9.74147e-08
3.28714e-07
-1.29026e-06
1.83108e-07
1.16399e-07
-1.32506e-06
3.43598e-07
9.45168e-07
-2.28378e-06
-4.31587e-07
3.92394e-06
-4.612e-06
-2.85589e-06
3.93606e-06
-9.57016e-08
-7.53469e-06
1.1922e-06
3.75131e-06
-7.14853e-06
-2.14032e-06
-5.10909e-06
-2.5799e-06
-2.54108e-06
2.25166e-06
-2.14319e-06
-2.60953e-06
2.13059e-06
-1.74788e-06
-2.28155e-06
1.95317e-06
-1.75587e-06
-1.57606e-06
1.73459e-06
-2.10952e-06
2.71475e-07
-5.24494e-07
-1.26405e-06
-8.02331e-08
-5.85387e-06
-1.4928e-06
-2.89198e-06
-6.46806e-06
-2.23035e-06
1.47068e-06
-5.53294e-06
-1.93384e-06
4.97719e-06
-3.84919e-06
-1.47209e-06
-2.74932e-06
-8.63373e-06
-2.09303e-06
2.46653e-06
-8.45596e-06
-3.05487e-06
2.14945e-06
-8.11405e-06
-2.94605e-06
2.00845e-06
-7.94032e-06
-1.87145e-06
1.77482e-06
-6.79153e-06
-1.2767e-06
8.97803e-07
-4.09271e-06
-2.84418e-06
-6.10606e-07
-3.32791e-06
-4.49174e-06
-1.46257e-06
-4.00759e-06
1.20589e-06
-2.10165e-06
-2.42205e-06
4.12399e-06
-2.93518e-06
-2.99725e-06
-1.69115e-06
-7.6393e-06
-1.02778e-06
1.17378e-06
-7.53464e-06
-2.62847e-06
-1.16997e-06
-6.72708e-06
-3.0987e-06
-1.75906e-06
-5.40843e-06
-2.98722e-06
-1.03792e-06
-2.76249e-06
-4.47388e-06
2.7975e-07
5.44059e-07
-7.24122e-06
1.21082e-06
1.594e-06
-6.69234e-06
8.0861e-07
3.93121e-07
-2.05159e-07
6.8188e-07
1.04627e-07
3.80033e-06
-2.58093e-06
-2.52833e-06
-8.58687e-07
-5.57513e-06
1.30917e-06
-2.97697e-06
-4.60551e-06
-1.57378e-06
-5.2568e-06
-3.00028e-06
-2.76496e-06
-4.93285e-06
-1.13746e-06
-3.63769e-06
-3.37048e-06
1.31662e-06
-7.59497e-06
-2.02751e-07
3.83609e-06
-9.89486e-06
9.01942e-08
5.14172e-06
-8.11334e-06
8.16381e-07
4.15112e-06
-1.84673e-06
2.69843e-06
2.59146e-06
3.46565e-06
7.76892e-08
4.14406e-07
-5.31561e-08
-4.27671e-06
2.93566e-06
-5.69636e-06
-2.49896e-06
-6.24329e-07
-6.07316e-06
-1.54847e-06
-1.94107e-06
-3.30496e-06
3.73115e-07
-5.52767e-06
-2.5676e-07
3.15688e-06
-9.99112e-06
3.64832e-08
5.28226e-06
-9.95542e-06
-9.27512e-07
6.48795e-06
-7.89531e-06
7.89308e-07
5.09172e-06
-2.17713e-06
3.65824e-06
3.51129e-06
3.94582e-06
7.85006e-07
4.13353e-06
9.66585e-07
-2.97309e-06
3.73783e-06
-6.22708e-06
-1.62936e-06
3.51621e-07
-4.07226e-06
-1.20334e-06
-2.80288e-06
5.65708e-07
7.74093e-07
-8.34449e-06
1.42388e-06
3.20601e-06
-9.89138e-06
-1.94802e-06
5.12052e-06
-8.06087e-06
-1.97419e-06
6.46754e-06
-7.08971e-06
2.30199e-06
5.46558e-06
-2.61339e-06
5.93458e-06
3.81569e-06
4.06881e-06
3.33725e-06
7.12763e-06
2.81344e-06
-2.41021e-06
4.22958e-06
-5.18526e-06
-2.17706e-06
2.71606e-07
-6.07896e-07
-1.49978e-06
-5.71719e-06
2.49732e-06
1.40992e-07
-9.48485e-06
-7.62155e-07
2.13956e-06
-8.40673e-06
-4.60993e-06
3.77868e-06
-7.03079e-06
-2.32914e-06
4.88083e-06
-7.40601e-06
3.53625e-06
4.68485e-06
-4.62138e-06
8.47994e-06
3.27752e-06
2.76467e-06
6.60624e-06
8.36955e-06
4.61437e-06
-3.1825e-06
4.55242e-06
-2.88406e-06
-3.59536e-06
-1.59511e-06
2.26583e-06
-3.17623e-06
-7.91644e-06
1.22448e-06
-2.30048e-06
-8.50749e-06
-3.49151e-06
-2.09503e-07
-7.41396e-06
-5.91853e-06
1.68347e-06
-7.63754e-06
-2.47244e-06
2.27314e-06
-8.36287e-06
2.73068e-06
2.25381e-06
-7.23955e-06
8.44128e-06
1.87423e-06
3.38364e-07
8.364e-06
8.31087e-06
5.15127e-06
-5.20535e-06
4.16869e-06
4.0833e-07
-6.14852e-06
-4.03548e-06
2.85166e-06
-6.53471e-06
-8.09945e-06
-2.39418e-07
-5.73823e-06
-7.10533e-06
-5.02438e-06
-3.34171e-06
-6.80563e-06
-7.05904e-06
-1.47479e-06
-8.14914e-06
-3.90844e-06
-1.27722e-06
-9.56456e-06
1.03007e-06
-1.92528e-06
-8.25242e-06
5.69548e-06
-1.37122e-06
-1.77287e-06
7.51173e-06
5.85491e-06
4.79595e-06
-8.21482e-06
3.06786e-06
2.83149e-06
-9.56018e-06
-5.27234e-06
2.76837e-06
-1.03074e-05
-7.68473e-06
-1.30248e-07
-9.14435e-06
-6.27154e-06
-5.10736e-06
-6.77071e-06
-5.91646e-06
-7.87557e-06
-4.71445e-06
-7.24934e-06
-7.1681e-06
-4.16316e-06
-8.76378e-06
-3.6176e-06
-4.86208e-06
-8.17121e-06
1.28483e-06
-3.94661e-06
-3.38256e-06
4.39219e-06
1.92849e-06
3.66204e-06
-1.06257e-05
2.0775e-06
4.27609e-06
-1.26287e-05
-5.59371e-06
4.21565e-06
-1.31859e-05
-7.63204e-06
8.3308e-07
-1.17011e-05
-6.31842e-06
-3.86454e-06
-9.37993e-06
-5.40771e-06
-7.23026e-06
-7.0955e-06
-5.83633e-06
-9.18479e-06
-5.65558e-06
-6.51343e-06
-8.63781e-06
-4.92591e-06
-6.17734e-06
-5.30473e-06
-3.99243e-06
-3.79359e-06
2.22596e-07
-1.24269e-06
1.95786e-06
-1.10967e-05
6.25988e-06
1.28423e-06
-1.42617e-05
6.27297e-06
-5.16262e-06
-1.50042e-05
1.85518e-06
-7.60083e-06
-1.36359e-05
-2.54089e-06
-6.86569e-06
-1.13104e-05
-5.87573e-06
-5.5484e-06
-8.52164e-06
-8.65094e-06
-5.21151e-06
-6.00568e-06
-9.7295e-06
-5.20303e-06
-3.95066e-06
-8.32195e-06
-4.73306e-06
-1.77289e-06
-4.14174e-06
-3.39887e-06
9.0283e-07
-1.75137e-06
2.03272e-08
-3.3028e-08
4.18688e-07
-1.42669e-07
-5.89349e-09
3.9839e-07
-2.9538e-07
1.97893e-10
3.85857e-07
-4.23516e-07
-1.42155e-08
3.79709e-07
-5.17179e-07
-5.05408e-08
3.86888e-07
-5.51936e-07
-1.25832e-07
4.10915e-07
-4.76699e-07
-2.68154e-07
4.56239e-07
-2.59086e-07
-4.457e-07
5.20291e-07
-2.27834e-08
-4.68498e-07
5.83495e-07
-1.71532e-07
4.98593e-07
4.8942e-08
-8.60074e-08
4.55355e-07
-1.0598e-07
-2.40065e-08
4.12355e-07
-2.59767e-07
-3.43481e-10
3.84565e-07
-4.02567e-07
-1.55467e-08
3.69921e-07
-5.32533e-07
-6.93002e-08
3.71383e-07
-6.2656e-07
-2.10763e-07
3.94224e-07
-5.86126e-07
-5.48266e-07
4.65907e-07
-3.03543e-07
-1.01402e-06
6.13031e-07
4.5079e-08
-1.06713e-06
7.29864e-07
-2.50205e-07
5.15053e-07
3.54835e-08
-6.02103e-08
5.59542e-07
-1.75174e-07
2.4142e-08
4.87628e-07
-3.64265e-07
3.77636e-08
4.40967e-07
-5.49092e-07
2.13044e-08
4.14542e-07
-7.64853e-07
-2.43183e-08
4.0666e-07
-1.0097e-06
-2.05144e-07
4.5623e-07
-1.09761e-06
-7.93642e-07
7.00964e-07
-7.31239e-07
-1.74032e-06
1.18032e-06
-6.94339e-08
-1.93999e-06
1.39447e-06
-3.32611e-07
7.38095e-07
7.43226e-08
4.72684e-08
7.86198e-07
-2.06916e-07
1.73553e-07
6.77226e-07
-4.63767e-07
1.5135e-07
5.87078e-07
-7.08662e-07
1.12289e-07
5.13933e-07
-1.01126e-06
8.87301e-08
4.71984e-07
-1.38545e-06
-9.0197e-08
6.00167e-07
-1.56071e-06
-9.62212e-07
1.1602e-06
-1.16122e-06
-2.48308e-06
1.95414e-06
-3.98109e-07
-2.81659e-06
2.10027e-06
-6.51206e-07
1.04524e-06
1.70114e-07
1.80862e-07
1.07684e-06
-1.73381e-07
4.43787e-07
9.2215e-07
-5.02893e-07
4.10655e-07
8.05854e-07
-7.41472e-07
2.95875e-07
6.7168e-07
-9.57509e-07
2.31283e-07
6.0059e-07
-1.18134e-06
-1.42216e-08
8.311e-07
-1.25485e-06
-1.11168e-06
1.5106e-06
-1.11916e-06
-2.73267e-06
2.08409e-06
-8.03901e-07
-3.09029e-06
1.74397e-06
-1.42616e-06
7.34061e-07
1.48224e-07
2.84056e-07
1.3991e-06
-2.24427e-07
5.44687e-07
1.18568e-06
-4.89666e-07
3.66563e-07
1.12266e-06
-5.74593e-07
6.31945e-08
1.01261e-06
-5.17095e-07
-4.93974e-08
9.60488e-07
-3.47872e-07
-2.94381e-07
1.13323e-06
-2.62747e-07
-1.25288e-06
1.47835e-06
-9.04972e-07
-2.06842e-06
1.18444e-06
-1.33694e-06
-2.92805e-06
1.20949e-07
-2.72234e-06
-1.97334e-07
-3.91728e-08
4.36704e-07
1.40473e-06
-5.80028e-07
4.74777e-07
1.21718e-06
-9.00496e-07
7.09501e-08
1.06173e-06
-6.97005e-07
-6.70435e-07
8.77288e-07
-2.6279e-07
-9.14717e-07
1.00832e-06
3.5742e-07
-1.13587e-06
1.17789e-06
7.34752e-07
-1.78178e-06
8.92756e-07
-3.23394e-07
-2.08668e-06
-5.5932e-07
-1.54056e-06
-4.61952e-06
-1.98431e-06
-5.29315e-06
-7.63555e-07
3.1345e-07
3.71046e-07
4.99081e-07
9.87744e-08
5.29285e-07
2.38398e-07
-1.06492e-07
2.6728e-07
-8.84779e-08
-1.45163e-07
-5.82939e-07
1.34282e-07
8.48364e-08
-1.56407e-06
7.62952e-07
7.29954e-07
-2.65785e-06
4.45281e-07
1.85717e-06
-4.87741e-06
-8.87472e-07
2.5746e-06
-7.07928e-06
-3.25952e-06
1.75114e-08
-3.36267e-06
-5.84828e-06
-7.06957e-06
-3.31515e-06
-9.18087e-07
5.42733e-07
2.58588e-06
-9.35683e-07
3.92374e-07
2.28509e-06
-1.10294e-06
3.91701e-07
1.996e-06
-1.67324e-06
-1.41697e-07
1.86365e-06
-5.61003e-07
-2.82123e-06
-3.79573e-07
1.90863e-07
-5.0728e-06
-4.19078e-06
1.11185e-06
-7.63375e-06
-4.63271e-06
-2.20832e-07
-5.97518e-06
-5.30437e-06
-6.16938e-07
-2.42375e-06
-4.392e-06
-6.41421e-06
-4.02163e-06
-5.09171e-06
2.61732e-06
1.68284e-06
-6.7449e-06
1.93405e-06
2.26096e-06
-6.96834e-06
1.69613e-06
9.27467e-07
-6.117e-06
8.27136e-07
-4.53562e-08
-4.42354e-06
-3.09422e-06
-5.22652e-07
-9.81285e-07
-9.39854e-06
2.72867e-07
9.06702e-07
-1.08552e-05
-1.29068e-07
-3.78272e-07
-7.05646e-06
2.64608e-07
-2.28755e-06
-1.59436e-06
-1.85529e-06
-7.19709e-06
-3.19581e-06
-4.88023e-06
3.86951e-06
2.28336e-06
-6.10717e-06
2.94444e-06
-9.53401e-07
-5.50078e-06
2.0436e-06
-2.71292e-06
-3.10289e-06
3.9948e-07
-3.00814e-06
4.49554e-07
-5.18616e-06
-1.18076e-06
2.52174e-06
-1.09317e-05
6.71741e-07
3.74811e-06
-1.04937e-05
-7.79284e-07
3.47163e-06
-7.37243e-06
1.27435e-06
6.1678e-07
-1.515e-06
1.9455e-07
-7.18338e-06
-2.55614e-07
-3.84961e-06
6.09115e-06
-2.02382e-06
-4.00922e-06
3.17291e-06
-5.32566e-06
-2.01607e-06
7.04503e-07
-5.5869e-06
7.55944e-07
-1.21566e-06
-4.52735e-06
3.73478e-06
-7.5217e-06
-8.4605e-07
3.99534e-06
-9.96446e-06
-1.13755e-06
4.64536e-06
-7.85421e-06
-2.47313e-06
3.82039e-06
-5.29207e-06
1.44303e-06
1.09459e-06
1.396e-07
1.14889e-06
-5.40906e-06
-7.32891e-07
-3.48795e-06
6.74005e-06
-5.14501e-06
-2.18879e-06
2.22087e-06
-6.42028e-06
-7.70471e-07
2.05891e-07
-4.22466e-06
1.76466e-06
-2.79587e-06
-1.21168e-06
4.33065e-06
-8.90477e-06
-1.14644e-06
4.07939e-06
-7.32706e-06
-3.31366e-06
4.51045e-06
-4.26598e-06
-3.22998e-06
2.4462e-06
-2.63454e-06
3.06495e-06
9.74297e-07
2.89342e-06
-4.96914e-07
-1.98048e-06
-1.48769e-06
-2.24928e-06
5.64763e-06
-6.47838e-06
-1.09229e-06
2.12953e-06
-5.13791e-06
-6.14253e-07
2.63467e-07
3.01003e-08
1.79787e-06
-5.81804e-06
2.03392e-06
3.21771e-06
-8.16659e-06
-4.10605e-06
3.19812e-06
-3.79199e-06
-5.48967e-06
4.22296e-06
-1.80674e-06
-1.18208e-06
3.8985e-06
-1.80894e-06
5.43344e-06
3.34947e-06
4.36857e-06
2.41115e-06
2.96864e-06
1.21379e-06
-9.13503e-07
5.41826e-06
-6.60948e-06
-7.00094e-07
2.89212e-06
-1.58389e-06
4.53149e-08
-1.67052e-06
3.6859e-06
8.05518e-07
-6.87011e-06
-4.70291e-07
1.08577e-06
-6.17497e-06
-6.88179e-06
1.72245e-06
-3.06693e-06
-3.69087e-06
2.98972e-06
-2.31594e-06
2.77818e-06
3.72542e-06
-2.39778e-06
8.33308e-06
3.40162e-06
4.35783e-06
6.94078e-06
6.62533e-06
4.3593e-06
-3.02172e-07
6.58999e-06
-4.50707e-06
-1.13256e-06
2.81609e-06
3.17224e-06
-1.47963e-06
-4.0712e-06
3.97223e-06
-2.00232e-06
-6.04188e-06
-3.79705e-06
-2.01597e-06
-5.25064e-06
-6.82921e-06
-1.24863e-06
-4.75016e-06
-1.55656e-06
-2.08435e-07
-4.63067e-06
4.00522e-06
4.70082e-07
-3.42099e-06
8.78597e-06
8.98681e-07
3.70012e-06
8.5931e-06
6.95604e-06
5.71924e-06
-1.48078e-06
8.12475e-06
1.73673e-07
-2.97245e-06
6.69186e-07
6.49023e-06
-4.58407e-06
-4.93904e-06
2.24005e-06
-6.04644e-06
-4.47926e-06
-5.12463e-06
-5.95905e-06
-4.58035e-06
-7.81671e-06
-5.6445e-06
-5.40901e-06
-3.56414e-06
-5.65098e-06
-6.18948e-06
2.59536e-06
-5.39998e-06
-4.78244e-06
6.80593e-06
-2.81117e-06
6.9983e-07
7.92322e-06
3.79384e-06
5.14699e-06
-4.24738e-06
7.56797e-06
5.88215e-06
-5.94478e-06
-1.9129e-06
7.04785e-06
-7.9561e-06
-4.88074e-06
1.82278e-06
-9.15136e-06
-3.63628e-06
-4.75507e-06
-8.87897e-06
-3.76789e-06
-8.96042e-06
-8.46149e-06
-4.50174e-06
-8.49285e-06
-8.94374e-06
-5.41002e-06
-3.91481e-06
-8.39332e-06
-5.14864e-06
1.1006e-06
-4.53778e-06
-2.64992e-06
3.88642e-06
3.08875e-07
2.60922e-06
-7.2077e-06
5.97927e-06
8.58822e-06
-9.00806e-06
-3.28178e-06
7.38489e-06
-1.06246e-05
-5.11962e-06
2.68853e-06
-1.08516e-05
-4.06827e-06
-3.20564e-06
-1.0118e-05
-3.85583e-06
-7.87585e-06
-8.94101e-06
-4.13118e-06
-1.07324e-05
-8.1972e-06
-4.20111e-06
-1.05905e-05
-7.28446e-06
-3.90649e-06
-7.45963e-06
-3.72737e-06
-2.98874e-06
-2.99567e-06
-1.22206e-06
-2.38574e-07
-8.61449e-06
9.89836e-06
4.635e-06
-1.08022e-05
8.56639e-06
-3.3875e-06
-1.21786e-05
3.56466e-06
-5.4527e-06
-1.20167e-05
-1.8461e-06
-4.9249e-06
-1.10383e-05
-6.29343e-06
-4.41658e-06
-9.32126e-06
-1.00483e-05
-4.45081e-06
-7.2762e-06
-1.1711e-05
-4.26467e-06
-5.60647e-06
-1.04361e-05
-3.46204e-06
-3.27867e-06
-6.07927e-06
-3.37902e-06
-1.29753e-06
-2.30037e-06
7.56665e-09
2.64725e-08
5.43871e-07
-1.4339e-07
3.79529e-08
5.11393e-07
-2.81847e-07
4.02261e-08
4.84089e-07
-3.93512e-07
2.2771e-08
4.68602e-07
-4.68295e-07
-1.13286e-08
4.73e-07
-4.85095e-07
-7.27565e-08
5.00471e-07
-4.07126e-07
-1.75748e-07
5.54018e-07
-2.18913e-07
-2.92238e-07
6.24316e-07
-2.85412e-08
-2.82179e-07
6.75302e-07
-7.18876e-08
5.41939e-07
2.48129e-08
2.58347e-08
6.12792e-07
-1.19519e-07
4.62271e-08
5.48413e-07
-2.49227e-07
6.05082e-08
4.93991e-07
-3.65707e-07
4.81551e-08
4.61017e-07
-4.63505e-07
9.16745e-10
4.56935e-07
-5.10827e-07
-1.21194e-07
4.89983e-07
-4.34022e-07
-3.58776e-07
5.72131e-07
-1.82507e-07
-6.28054e-07
6.97332e-07
5.0692e-08
-5.45735e-07
7.60221e-07
-3.28584e-08
5.26716e-07
1.54517e-08
1.04354e-07
6.77378e-07
-1.73884e-07
1.09692e-07
6.13498e-07
-3.36356e-07
1.11768e-07
5.52179e-07
-4.84978e-07
9.631e-08
5.1501e-07
-6.35432e-07
4.33031e-08
5.14728e-07
-7.64227e-07
-1.18158e-07
5.8199e-07
-7.14444e-07
-5.0203e-07
7.94434e-07
-3.40695e-07
-9.45844e-07
1.12437e-06
7.39908e-08
-7.56735e-07
1.19079e-06
1.42694e-07
6.36534e-07
5.181e-08
2.96069e-07
7.9423e-07
-1.97306e-07
2.83776e-07
7.52258e-07
-4.22647e-07
2.4605e-07
6.78137e-07
-6.35736e-07
2.08486e-07
6.14847e-07
-8.75135e-07
1.48332e-07
6.06354e-07
-1.10774e-06
-3.07508e-08
7.45366e-07
-1.09979e-06
-5.31763e-07
1.18198e-06
-6.6507e-07
-1.15664e-06
1.73021e-06
-1.18214e-07
-8.79342e-07
1.67602e-06
3.06828e-07
7.62887e-07
9.52795e-08
6.00159e-07
9.57826e-07
-2.43459e-07
6.3648e-07
9.08184e-07
-5.59895e-07
5.43051e-07
8.25289e-07
-7.96899e-07
4.02423e-07
7.14747e-07
-1.00369e-06
2.69791e-07
6.85918e-07
-1.18417e-06
8.01081e-08
9.00729e-07
-1.10975e-06
-5.42863e-07
1.44728e-06
-7.79618e-07
-1.24801e-06
1.84532e-06
-4.70892e-07
-9.21397e-07
1.4773e-06
3.42537e-08
5.35744e-07
1.55902e-07
1.02091e-06
1.25739e-06
-2.59494e-07
1.06207e-06
1.17548e-06
-6.40287e-07
8.96675e-07
1.14983e-06
-8.54357e-07
5.7118e-07
1.05792e-06
-8.94925e-07
2.48721e-07
1.02212e-06
-8.35053e-07
-3.56984e-08
1.18916e-06
-7.0554e-07
-6.5686e-07
1.46283e-06
-7.46047e-07
-1.30437e-06
1.2813e-06
-8.19395e-07
-1.27853e-06
5.51433e-07
-9.70175e-07
-1.23001e-08
-2.98906e-08
1.58608e-06
1.4892e-06
-7.34386e-07
1.53541e-06
1.44833e-06
-1.23024e-06
1.12108e-06
1.33318e-06
-1.25215e-06
2.89032e-07
1.18135e-06
-8.64036e-07
-3.31022e-07
1.19995e-06
-4.40235e-07
-5.87675e-07
1.30606e-06
-3.00088e-07
-1.07146e-06
1.16721e-06
-8.81468e-07
-1.77525e-06
4.92948e-07
-1.16741e-06
-2.79327e-06
-1.83633e-07
-2.58913e-06
-3.12008e-07
2.11681e-07
1.45034e-06
8.51253e-07
-1.45772e-07
1.46052e-06
6.70741e-07
-5.32891e-07
1.05429e-06
3.65428e-07
-6.72572e-07
1.75633e-07
3.87361e-07
-4.80744e-07
-7.13879e-07
9.53981e-07
-6.98275e-08
-1.81241e-06
1.2591e-06
3.16425e-07
-2.99674e-06
6.51551e-07
-3.00469e-07
-3.8047e-06
-6.13179e-07
-6.6761e-07
-6.82689e-06
-1.44752e-06
-5.77476e-06
-7.97135e-07
-9.73165e-08
2.87795e-06
2.0628e-06
-6.04262e-07
2.6774e-06
1.57516e-06
-8.13742e-07
2.18004e-06
1.07973e-06
-8.6202e-07
1.30905e-06
7.78515e-07
-7.76002e-07
-6.45693e-07
-5.33777e-07
-3.25848e-07
-3.56177e-06
-2.89157e-06
7.10734e-07
-3.51968e-06
-5.14635e-06
9.04362e-07
-3.57856e-06
-5.72413e-06
9.16566e-07
-4.43268e-06
-6.79841e-06
-3.11658e-06
-5.76324e-06
-8.26699e-07
4.26586e-06
1.46932e-06
-1.68376e-06
5.40789e-06
3.87525e-07
-2.68248e-06
5.51446e-06
-1.40822e-06
-3.96098e-06
3.90814e-06
-1.36595e-06
-4.51748e-06
2.55228e-07
-8.67073e-07
-2.85196e-06
-5.37189e-06
4.17455e-07
-3.54819e-07
-6.81457e-06
6.6869e-07
1.99498e-06
-5.36837e-06
-2.95386e-07
1.35912e-06
-2.36068e-06
-3.29142e-06
1.10844e-06
-6.06172e-06
-2.3849e-06
8.4927e-06
2.72899e-09
-3.12193e-06
7.78121e-06
-2.58968e-06
-2.67187e-06
5.64886e-06
-3.29738e-06
-1.70745e-06
3.24986e-06
-3.31428e-06
8.738e-07
-1.64914e-06
-1.85764e-06
2.59186e-06
-7.53658e-06
1.11837e-06
2.32135e-06
-7.20426e-06
-1.1908e-07
3.47427e-06
-5.82512e-06
5.78178e-07
2.27514e-06
-1.59668e-06
6.29681e-07
4.24582e-06
-1.11785e-06
-2.81994e-06
9.83356e-06
-2.59218e-06
-2.02582e-06
6.49563e-06
-4.83419e-06
-4.28304e-08
3.23377e-06
-5.15481e-06
2.19656e-06
1.07945e-06
-4.59631e-06
5.46946e-06
-4.39494e-06
-1.37315e-06
4.62832e-06
-7.09825e-06
-7.34731e-07
2.61016e-06
-4.95804e-06
-2.70118e-06
2.1348e-06
-2.83704e-06
-1.06969e-06
6.01092e-07
2.1167e-06
-1.03077e-06
5.59686e-06
-1.48284e-06
-2.41301e-06
7.80992e-06
-4.86945e-06
-5.66164e-08
3.15672e-06
-5.43775e-06
1.19072e-06
1.61072e-06
-3.84894e-06
3.27277e-06
-1.15957e-06
-1.05471e-06
5.22599e-06
-7.11655e-06
-3.78051e-07
3.39136e-06
-5.56365e-06
-3.01363e-06
3.10286e-07
-4.79435e-07
-4.6275e-06
-2.23128e-06
1.53556e-06
1.23392e-06
-3.98705e-06
3.55764e-06
-1.82078e-07
1.5188e-06
-1.39668e-06
-1.99617e-07
4.5668e-06
-6.55688e-06
1.0622e-07
2.38027e-06
-4.66731e-06
-1.18561e-07
1.69946e-06
1.66138e-07
1.98303e-06
-4.56311e-06
3.33587e-06
2.30058e-06
-7.33441e-06
-4.20574e-06
2.88853e-07
-2.1134e-06
-6.92817e-06
-1.81871e-06
3.58023e-06
-3.13418e-06
-3.58078e-06
2.44544e-06
6.28563e-06
-3.73555e-06
2.11612e-06
4.00744e-06
-2.60375e-06
1.60079e-06
9.23626e-07
4.07743e-06
-7.13113e-06
-7.80866e-07
3.96945e-06
-1.46858e-06
-7.25574e-07
5.73461e-07
4.75661e-06
-2.62128e-07
-5.61081e-06
1.13971e-07
-1.41682e-06
-5.3771e-06
-7.6844e-06
-1.70743e-06
-1.19203e-06
-4.32164e-06
-1.07881e-06
1.60374e-06
4.12604e-06
-5.92891e-07
8.33288e-07
9.45931e-06
-1.03186e-06
2.04491e-06
7.45095e-06
-2.81317e-06
3.53686e-06
3.96684e-07
6.41266e-06
-4.70448e-06
-1.76885e-06
5.23079e-06
4.07645e-06
-2.22147e-06
-7.71433e-07
5.76975e-06
-3.6911e-06
-4.73304e-06
-3.20518e-06
-4.80158e-06
-4.38546e-06
-6.71038e-06
-4.53921e-06
-2.74242e-06
-2.68539e-07
-3.83089e-06
-1.83239e-06
6.73304e-06
-2.70998e-06
-1.64386e-06
1.01422e-05
-1.11113e-06
-2.95796e-07
9.33496e-06
-2.64942e-06
4.44436e-06
-1.17627e-06
8.52272e-06
1.11862e-06
-2.72143e-06
4.82949e-06
8.43671e-06
-4.61116e-06
-1.54302e-06
4.90136e-06
-7.3607e-06
-3.20759e-06
-3.90055e-06
-8.36278e-06
-3.56179e-06
-7.6383e-06
-8.36897e-06
-2.94485e-06
-3.35552e-06
-8.4248e-06
-3.42302e-06
4.24182e-06
-6.79812e-06
-4.30401e-06
7.8394e-06
-2.91002e-06
-3.92371e-06
7.66302e-06
-3.59546e-06
3.18301e-06
-3.03795e-06
9.78174e-06
7.17356e-06
-4.01984e-06
2.88961e-06
9.96963e-06
-6.32911e-06
-1.90452e-06
4.49355e-06
-9.00796e-06
-2.25405e-06
-3.02976e-06
-9.91216e-06
-3.0063e-06
-8.61171e-06
-9.20494e-06
-2.78084e-06
-9.36409e-06
-8.59683e-06
-2.92755e-06
-5.0184e-06
-7.24415e-06
-3.81691e-06
-7.39181e-07
-3.3669e-06
-4.12114e-06
2.06604e-07
-3.66508e-06
-6.8807e-07
-4.7306e-06
9.32996e-06
1.03868e-05
-5.15008e-06
1.08156e-06
9.61241e-06
-6.92436e-06
-2.16194e-06
4.72021e-06
-8.84791e-06
-2.24272e-06
-1.29342e-06
-9.79374e-06
-3.0484e-06
-6.88791e-06
-9.13714e-06
-3.53887e-06
-1.0631e-05
-7.74692e-06
-3.30799e-06
-1.16003e-05
-6.4434e-06
-2.74535e-06
-9.83471e-06
-3.60665e-06
-3.21993e-06
-6.73363e-06
-3.56336e-06
-3.94694e-06
-5.3813e-06
1.10997e-05
8.47768e-06
-5.39103e-06
9.14955e-06
5.08134e-07
-6.56357e-06
4.71433e-06
-2.13906e-06
-7.82807e-06
-2.51614e-07
-2.5727e-06
-8.98156e-06
-5.03437e-06
-3.15398e-06
-8.94799e-06
-9.49921e-06
-4.12157e-06
-7.00952e-06
-1.21394e-05
-4.81801e-06
-4.52873e-06
-1.21385e-05
-3.52378e-06
-3.07006e-06
-8.45061e-06
-2.30726e-06
-3.92891e-06
-4.00203e-06
-1.48936e-08
1.36038e-07
5.6603e-07
-1.59567e-07
1.13148e-07
5.42919e-07
-2.8316e-07
9.48916e-08