/*--------------------------------*- C++ -*----------------------------------*\
| =========                 |                                                 |
| \\      /  F ield         | OpenFOAM: The Open Source CFD Toolbox           |
|  \\    /   O peration     | Version:  2312                                  |
|   \\  /    A nd           | Website:  www.openfoam.com                      |
|    \\/     M anipulation  |                                                 |
\*---------------------------------------------------------------------------*/
FoamFile
{
    version     2.0;
    format      ascii;
    arch        "LSB;label=32;scalar=64";
    class       surfaceScalarField;
    location    "0.035";
    object      alphaPhi0.water;
}
// * * * * * * * * * * * * * * * * * * * * * * * * * * * * * * * * * * * * * //

dimensions      [0 3 -1 0 0 0 0];

oriented        oriented;

internalField   nonuniform List<scalar> 
22600
(
-2.634e-13
3.21307e-13
-5.79077e-14
-3.17658e-13
2.52167e-13
-4.99316e-14
-4.02223e-13
2.59819e-13
-5.22954e-14
-4.54098e-13
2.43244e-13
-6.99132e-14
-4.63749e-13
2.17374e-13
-8.61332e-14
-4.35578e-13
1.92672e-13
-9.86594e-14
-3.84856e-13
1.75799e-13
-1.02806e-13
-3.33445e-13
1.67452e-13
-9.20744e-14
-2.58432e-13
1.6745e-13
-1.10578e-13
1.74742e-13
-7.77586e-14
-1.57474e-13
6.37752e-13
-7.16217e-15
-1.84021e-13
5.19209e-13
-1.97438e-15
-2.35223e-13
5.31133e-13
-2.02262e-15
-2.78346e-13
5.24789e-13
-2.07688e-14
-3.05553e-13
5.12208e-13
-4.86933e-14
-3.11848e-13
4.88915e-13
-6.8147e-14
-3.00325e-13
4.70272e-13
-7.88202e-14
-2.97128e-13
4.59197e-13
-5.90703e-14
-2.61158e-13
4.57571e-13
-7.76234e-14
4.83121e-13
-5.65487e-14
-1.04645e-13
8.22849e-13
3.93211e-14
-1.55294e-13
7.21475e-13
4.40857e-14
-2.25894e-13
7.38391e-13
4.22615e-14
-2.77412e-13
7.38766e-13
1.6215e-14
-3.12391e-13
7.30237e-13
-3.19682e-15
-3.2571e-13
7.14976e-13
-3.04941e-14
-3.15496e-13
7.03287e-13
-5.68618e-14
-2.99467e-13
6.84169e-13
-4.84197e-14
-2.48157e-13
7.08526e-13
-1.01363e-13
8.3698e-13
-1.37533e-13
-7.14534e-14
9.25515e-13
7.45861e-14
-1.48622e-13
8.75366e-13
8.7616e-14
-2.27782e-13
8.88152e-13
8.03991e-14
-2.79514e-13
8.93915e-13
4.78375e-14
-3.10828e-13
8.98614e-13
1.57882e-14
-3.22281e-13
9.03338e-13
-2.16016e-14
-3.01489e-13
9.13205e-13
-7.20562e-14
-2.86438e-13
9.09246e-13
-7.73076e-14
-2.27077e-13
1.00828e-12
-1.91547e-13
1.29932e-12
-2.95323e-13
-5.58937e-14
9.91546e-13
7.7572e-14
-1.34599e-13
9.91238e-13
8.86521e-14
-2.13524e-13
1.00646e-12
7.73334e-14
-2.72335e-13
1.02406e-12
4.66085e-14
-3.09411e-13
1.04092e-12
1.51793e-14
-3.16416e-13
1.06285e-12
-2.91942e-14
-2.7109e-13
1.08584e-12
-9.1802e-14
-2.15412e-13
1.09887e-12
-1.16776e-13
-2.12868e-13
1.4403e-12
-3.04572e-13
1.98958e-12
-4.63084e-13
-8.13795e-14
1.11146e-12
2.67433e-14
-1.31924e-13
1.06902e-12
5.51006e-14
-1.77423e-13
1.08373e-12
4.63927e-14
-2.24319e-13
1.13253e-12
1.91585e-14
-2.56675e-13
1.16086e-12
-3.17306e-15
-2.67371e-13
1.19525e-12
-3.36627e-14
-2.15687e-13
1.20257e-12
-7.75945e-14
-4.23228e-14
1.12141e-12
-1.03747e-13
-2.75441e-13
2.11459e-12
-3.49399e-13
2.71069e-12
-4.38336e-13
-1.91763e-13
1.42987e-12
-8.62157e-14
-1.74024e-13
1.08097e-12
7.86677e-15
-2.01989e-13
1.14392e-12
6.25323e-15
-2.52405e-13
1.22503e-12
3.28407e-16
-2.70689e-13
1.23439e-12
-8.16815e-15
-2.17818e-13
1.21954e-12
-2.58708e-14
4.31944e-14
1.04755e-12
-5.18377e-14
6.51705e-13
7.07302e-13
-1.39076e-13
-3.29733e-13
3.6391e-12
-4.88109e-13
4.56217e-12
-4.24762e-13
1.35578e-13
9.11224e-13
9.46415e-14
2.04486e-13
7.31939e-13
3.45036e-14
2.90073e-13
7.30766e-13
8.44327e-14
3.3548e-13
8.35198e-13
7.32353e-14
3.38581e-13
8.48384e-13
1.15565e-13
5.47575e-14
9.95965e-13
1.98518e-13
6.91066e-14
5.4093e-13
3.4088e-13
-5.55372e-13
6.02956e-13
5.60523e-13
3.91527e-13
1.67501e-12
4.94126e-13
1.54344e-12
8.88975e-13
-2.31114e-19
3.44804e-26
-8.11757e-20
-3.73096e-19
-4.2101e-27
-1.13824e-19
-5.4239e-19
-2.43848e-26
-1.31957e-19
-6.43206e-19
-1.83806e-26
-1.48247e-19
-9.86136e-19
-7.02704e-26
-1.59632e-19
-4.33354e-19
1.05276e-25
-2.22941e-19
-6.74792e-18
1.46036e-25
-1.1219e-19
-7.51036e-19
-1.12257e-24
7.87566e-19
-3.12559e-18
9.15733e-25
6.53695e-19
1.92262e-25
1.58037e-18
-4.54575e-26
1.0403e-31
-2.86063e-26
-4.96676e-26
-2.66657e-33
-5.33747e-43
-7.40524e-26
-8.77931e-33
-2.50968e-46
-9.2433e-26
-1.1561e-32
-9.23646e-40
-1.69908e-25
-4.75531e-32
-3.33802e-33
-1.13746e-25
2.14456e-32
-2.1396e-26
-3.1826e-31
4.78123e-32
-3.92788e-26
-1.12257e-24
-1.23316e-32
-5.73477e-32
-4.23559e-25
6.53591e-31
-2.87132e-25
7.66837e-31
-3.45403e-25
-5.28429e-33
8.6799e-35
-3.48806e-33
-1.02298e-32
3.11275e-36
-1.15227e-41
-1.82771e-32
6.01469e-36
-1.41426e-41
-2.90159e-32
1.34754e-35
-1.11538e-41
-7.51582e-32
1.54373e-35
-2.97691e-42
-5.28674e-32
3.56454e-35
-9.74453e-49
-2.93123e-37
2.54571e-35
-6.34423e-46
-4.06344e-31
1.6605e-37
-8.72386e-39
-3.11665e-31
5.24677e-34
-1.76569e-32
1.04356e-33
-4.55549e-31
-1.45753e-39
1.21546e-40
-8.17553e-40
-1.66437e-39
2.17755e-41
-5.75134e-45
-3.12743e-39
2.50406e-41
-5.62239e-45
-5.68316e-39
3.56167e-41
-3.98874e-45
-1.85251e-38
4.81486e-41
-1.17774e-45
-1.64239e-38
8.97066e-41
-5.56958e-49
-1.91442e-43
8.36715e-41
-3.07644e-49
-1.40014e-37
3.28555e-46
-2.09545e-49
-3.24013e-37
3.86904e-40
-1.15404e-44
8.69634e-40
-4.98858e-38
-8.00461e-46
2.14594e-46
-5.30691e-46
-8.14061e-46
1.2504e-48
-7.45038e-52
-1.70987e-45
1.62602e-48
-7.24518e-52
-3.1368e-45
4.38093e-48
-5.98899e-52
-1.2556e-44
8.38411e-48
-1.59103e-52
-1.1324e-44
2.12576e-47
-4.89077e-56
-1.88782e-49
1.49733e-47
-1.72137e-56
-8.84576e-44
3.22015e-52
-7.45287e-57
-3.48948e-43
2.68615e-46
-6.02401e-52
6.12695e-46
-1.42839e-48
-4.64263e-52
4.55264e-52
-2.81559e-52
-4.53023e-52
1.15521e-54
-7.62505e-59
-9.75853e-52
1.48694e-54
-9.71878e-59
-2.04215e-51
4.06762e-54
-8.2987e-59
-9.04713e-51
7.91331e-54
-2.02995e-59
-9.16546e-51
1.94164e-53
-1.8515e-63
-2.13745e-55
1.31645e-53
-3.60051e-64
-6.61512e-50
3.39448e-58
-1.45304e-66
-3.48546e-49
2.03266e-52
-5.30781e-63
4.48592e-52
-1.53682e-57
-3.01815e-58
1.09397e-57
-1.5443e-58
-3.40594e-58
1.38909e-60
-1.16026e-65
-8.21958e-58
1.74248e-60
-1.64475e-65
-1.96777e-57
4.64048e-60
-1.25467e-65
-9.09267e-57
8.75354e-60
-3.22878e-66
-9.69383e-57
2.06917e-59
-2.80983e-70
-2.66981e-61
1.3512e-59
-5.4325e-71
-6.38813e-56
4.15367e-64
-3.92205e-74
-3.34342e-55
1.88571e-58
-5.46265e-69
4.10599e-58
-3.03557e-63
-4.32737e-64
3.01624e-63
-2.68184e-64
-4.69388e-64
2.09336e-66
-7.16055e-72
-1.13134e-63
2.50466e-66
-7.27413e-72
-2.6575e-63
6.32762e-66
-5.24876e-72
-1.15977e-62
1.14116e-65
-1.48514e-72
-1.20203e-62
2.58288e-65
-3.01074e-73
-3.67448e-67
1.62883e-65
-1.24595e-77
-6.82307e-62
5.79644e-70
-1.71274e-80
-3.39479e-61
2.13114e-64
-7.47535e-74
4.73387e-64
-2.41043e-69
-5.62996e-70
9.26329e-69
-3.43579e-70
-7.22066e-70
3.71667e-72
-4.41531e-78
-1.86898e-69
4.23345e-72
-3.30843e-77
-4.37643e-69
1.00135e-71
-5.06057e-77
-1.74205e-68
1.69924e-71
-4.51466e-77
-1.69414e-68
3.62436e-71
-5.61225e-77
-5.41198e-73
2.19987e-71
-1.6362e-76
-7.81586e-68
8.69316e-76
-1.37896e-81
-3.72292e-67
2.71033e-70
-9.32497e-77
6.24113e-70
-1.15671e-75
-6.28166e-76
3.02741e-74
-2.65208e-76
-1.46065e-75
7.51723e-78
-2.45941e-81
-4.00193e-75
8.10748e-78
-1.32037e-81
-8.5677e-75
1.76206e-77
-2.91443e-82
-2.94694e-74
2.77646e-77
-2.98238e-82
-2.67356e-74
5.49418e-77
-4.69975e-82
-8.38595e-79
3.18147e-77
-8.91707e-82
-9.38365e-74
1.3327e-81
-3.72367e-87
-4.40262e-73
3.63564e-76
-6.70612e-83
8.55817e-76
-3.14368e-82
-1.45417e-81
1.04587e-79
-7.94865e-82
-3.93008e-81
1.71621e-83
-2.11313e-86
-9.82378e-81
1.74891e-83
-7.55326e-87
-1.92883e-80
3.46142e-83
-3.72841e-87
-5.65394e-80
4.98557e-83
-7.22831e-88
-4.77386e-80
8.98391e-83
-1.27482e-87
-1.44316e-84
4.91386e-83
-2.41407e-87
-1.28909e-79
2.10816e-87
-9.53621e-93
-5.69123e-79
4.97757e-82
-1.60364e-88
1.16659e-81
-5.3858e-88
-5.70171e-87
-4.40847e-87
3.91068e-85
-1.2691e-86
-4.18185e-92
4.47503e-89
-2.81309e-86
-1.66063e-92
4.30958e-89
-4.93613e-86
-3.04698e-92
7.75621e-89
-1.20824e-85
-4.38211e-92
1.01067e-88
-9.52836e-86
-5.75009e-92
1.63085e-88
-2.71203e-90
-7.49657e-92
8.3497e-89
-1.9822e-85
-4.45444e-98
3.52119e-93
-7.94468e-85
-7.12318e-94
6.99591e-88
-9.68655e-94
1.60926e-87
-1.78783e-13
2.71447e-13
-1.66735e-15
-1.82802e-13
1.9074e-13
6.58432e-15
-2.14046e-13
1.98166e-13
2.47599e-15
-2.41721e-13
1.85305e-13
-6.39683e-15
-2.57332e-13
1.6756e-13
-1.57828e-14
-2.70576e-13
1.62732e-13
-2.31213e-14
-2.8004e-13
1.64622e-13
-2.76397e-14
-2.99564e-13
1.90323e-13
-2.3774e-14
-3.07786e-13
1.89688e-13
-4.00326e-14
1.68891e-13
-2.39539e-14
-6.66255e-14
5.31754e-13
3.61656e-14
-4.58633e-14
4.12211e-13
4.44413e-14
-4.29626e-14
4.25799e-13
3.99982e-14
-5.79063e-14
4.26392e-13
2.57578e-14
-8.61703e-14
4.17327e-13
4.29489e-15
-1.27993e-13
4.22405e-13
-7.43908e-15
-1.7976e-13
4.36668e-13
-1.31256e-14
-2.20045e-13
4.76679e-13
-7.59563e-15
-2.79526e-13
4.88346e-13
-3.29732e-15
4.39043e-13
3.45429e-15
-1.72329e-14
7.16497e-13
6.63725e-14
-1.09718e-14
6.17439e-13
7.38562e-14
-1.78939e-14
6.32563e-13
7.05886e-14
-3.62076e-14
6.35792e-13
5.37433e-14
-6.28922e-14
6.34173e-13
3.71103e-14
-9.3633e-14
6.38695e-13
1.78263e-14
-1.4281e-13
6.66803e-13
1.49864e-15
-1.62512e-13
6.95981e-13
-9.59842e-16
-2.34714e-13
7.24695e-13
-8.64912e-15
7.0267e-13
-4.31957e-14
2.19207e-14
8.54651e-13
7.77178e-14
4.04973e-15
8.34348e-13
8.72091e-14
-1.22398e-14
8.37557e-13
8.041e-14
-2.64499e-14
8.27671e-13
6.02353e-14
-4.11538e-14
8.17753e-13
3.95478e-14
-5.27073e-14
8.15087e-13
9.54118e-15
-7.8284e-14
8.39153e-13
-1.88994e-14
-6.44988e-14
8.40834e-13
-3.17404e-14
-1.68595e-13
9.05985e-13
-6.04088e-14
9.79256e-13
-1.41213e-13
2.96072e-14
9.51148e-13
7.6142e-14
8.07187e-15
1.00706e-12
8.47623e-14
-1.16772e-14
9.9816e-13
7.79602e-14
-2.73133e-14
9.77432e-13
5.68653e-14
-3.76117e-14
9.57371e-13
3.41421e-14
-4.21135e-14
9.39642e-13
2.88375e-15
-3.13156e-14
9.27012e-13
-3.53022e-14
3.55241e-14
8.66548e-13
-5.25711e-14
-9.90662e-14
1.03318e-12
-1.40689e-13
1.33295e-12
-2.38115e-13
5.73205e-15
1.01397e-12
3.93885e-14
-3.17396e-15
1.10479e-12
5.74852e-14
-4.98931e-15
1.08744e-12
4.90424e-14
-1.70321e-14
1.07423e-12
2.92803e-14
-2.12808e-14
1.04974e-12
9.03139e-15
-2.88348e-14
1.03105e-12
-1.25291e-14
-6.29099e-15
9.74186e-13
-3.94946e-14
1.96136e-13
7.19669e-13
-5.09855e-14
-1.03674e-13
1.28092e-12
-1.90884e-13
1.75047e-12
-2.47434e-13
-5.65377e-14
1.03084e-12
-1.00855e-14
-6.65832e-14
1.13002e-12
2.75744e-14
-8.31555e-14
1.12108e-12
2.75857e-14
-1.11431e-13
1.13018e-12
1.719e-14
-1.28083e-13
1.09999e-12
9.09256e-15
-1.30377e-13
1.064e-12
-6.41478e-16
3.40616e-14
8.39815e-13
-2.31117e-14
5.42667e-13
1.99523e-13
-6.79443e-14
-7.18159e-14
1.73395e-12
-2.67656e-13
3.04728e-12
-3.43294e-13
8.12132e-14
7.17183e-13
8.52988e-14
1.69354e-13
7.66792e-13
3.44538e-14
3.00695e-13
7.60393e-13
4.80369e-14
4.07351e-13
7.95086e-13
3.70807e-14
5.10852e-13
8.13833e-13
4.11697e-14
3.51697e-13
1.04205e-12
5.83103e-14
3.39612e-13
8.22135e-13
1.30944e-13
-3.9404e-13
9.15461e-13
3.12701e-13
3.34942e-13
9.22897e-13
3.12601e-13
1.26211e-12
7.36289e-13
-2.63536e-19
1.09088e-26
-7.98346e-20
-3.76169e-19
-2.59017e-36
-8.93874e-20
-4.72937e-19
-9.01062e-40
-8.68212e-20
-5.37763e-19
-3.84183e-33
-7.30649e-20
-9.32533e-19
-1.44097e-26
-4.928e-20
-7.32716e-19
1.46137e-26
-9.77672e-21
-3.1976e-18
4.20269e-26
5.87747e-20
-4.73939e-19
-1.30386e-25
8.26136e-19
-8.34027e-19
-8.49759e-26
2.46191e-19
7.66159e-25
7.63427e-19
-7.67323e-43
1.67045e-33
-1.76975e-26
-3.59935e-46
-2.10709e-41
-1.33426e-42
-1.12012e-39
-2.21389e-41
-6.91431e-47
-3.84341e-33
-1.46559e-40
-2.09757e-40
-1.44097e-26
-1.71237e-35
-7.25669e-34
-1.67278e-26
-4.20773e-49
-4.4642e-27
-4.34658e-33
-4.16485e-39
-1.39798e-26
-1.30386e-25
-8.46734e-33
-1.52873e-32
-4.78395e-25
-2.04091e-31
-6.70592e-26
7.88182e-31
-3.21254e-26
-1.75568e-41
2.64196e-36
-1.82078e-33
-2.24959e-41
-3.66147e-44
-1.1429e-41
-2.23275e-41
-3.76251e-44
-1.52717e-41
-2.72157e-42
-2.45588e-44
-1.28086e-41
-1.33695e-48
-4.40411e-45
-2.36896e-42
-4.79399e-46
-1.1975e-48
-2.4997e-48
-4.16318e-39
-1.10405e-48
-8.78779e-47
-8.46735e-33
-7.21001e-49
-1.61404e-39
-2.24418e-31
-1.46366e-39
-3.20992e-33
6.77462e-35
-1.14827e-31
-9.26133e-45
1.96998e-41
-4.14158e-40
-1.05223e-44
-4.99402e-51
-3.92379e-45
-9.04621e-45
-5.37942e-51
-4.26952e-45
-3.35041e-45
-3.66008e-51
-3.25202e-45
-1.1941e-48
-8.41327e-52
-1.37426e-45
-4.35434e-49
-2.37887e-55
-4.14626e-46
-1.32606e-49
-8.02788e-56
-2.04766e-46
-3.58477e-48
-2.877e-56
-2.28867e-49
-1.51507e-38
-1.96783e-51
-4.27207e-45
-1.85616e-48
-5.47169e-39
-1.12708e-51
1.12873e-48
-2.20228e-46
-1.1706e-51
-8.31558e-58
-4.65323e-52
-9.77397e-52
-9.9806e-58
-4.89859e-52
-3.51e-52
-7.14795e-58
-5.30683e-52
-1.0108e-55
-1.65743e-58
-2.15066e-52
-2.75902e-56
-1.46255e-62
-4.87961e-53
-6.76205e-57
-2.78719e-63
-1.84023e-53
-2.37965e-55
-9.68109e-66
-9.16102e-57
-6.14358e-49
-3.42384e-62
-3.9927e-52
-5.19992e-57
-9.7037e-49
-1.30557e-58
9.74696e-55
-9.33561e-53
-1.39426e-58
-1.63829e-64
-3.3964e-59
-1.32348e-58
-2.17136e-64
-5.12735e-59
-5.06164e-59
-1.67307e-64
-6.79544e-59
-5.04996e-63
-4.04495e-65
-2.79588e-59
-9.84352e-64
-2.87135e-69
-6.01673e-60
-2.04508e-66
-4.94075e-70
-1.34199e-60
-5.13738e-66
-3.17358e-73
-1.64661e-66
-1.0612e-57
-3.55714e-68
-1.26735e-62
-1.04287e-62
-9.09617e-58
-2.40525e-65
1.1665e-60
-4.70313e-59
-3.20041e-65
-3.11171e-71
-5.64202e-66
-3.48302e-65
-4.99821e-71
-1.12335e-65
-1.38696e-65
-4.45834e-71
-1.38969e-65
-1.17862e-69
-1.38508e-71
-5.9791e-66
-2.1722e-70
-2.7943e-72
-1.19978e-66
-8.01662e-74
-5.79022e-77
-2.46243e-67
-4.12793e-72
-1.18742e-79
-7.29273e-74
-2.57187e-63
-3.56092e-73
-4.29208e-69
-1.25285e-68
-2.60028e-65
-1.15599e-71
1.76126e-66
-1.12081e-64
-1.51307e-71
-3.64851e-78
-6.25571e-72
-1.66312e-71
-7.1263e-77
-7.55164e-72
-7.37488e-72
-1.46622e-76
-7.34934e-72
-1.74715e-72
-1.78314e-76
-2.43143e-72
-7.79082e-77
-2.76812e-76
-4.06485e-73
-4.39943e-80
-4.79793e-76
-6.35422e-74
-5.87407e-77
-8.47059e-81
-1.22657e-80
-4.158e-69
-6.51841e-76
-5.86987e-76
-9.96989e-75
-1.33338e-72
-8.19731e-78
3.13606e-72
-1.92012e-70
-4.30623e-77
1.96745e-80
-1.43794e-77
-1.1455e-76
2.14387e-80
-4.40736e-78
-1.21165e-76
7.9763e-81
-4.02423e-78
-1.48264e-76
-4.86854e-82
-1.32667e-78
-5.39233e-76
-1.72e-81
-1.85602e-79
-4.77678e-81
-4.8886e-81
-2.54253e-80
-1.91432e-77
-2.78639e-86
-3.32138e-87
-4.93358e-75
-5.60726e-82
-1.21311e-82
-3.13427e-81
-1.88442e-79
-7.79474e-81
6.36598e-78
-4.76284e-76
-6.71867e-81
2.5186e-83
-3.47014e-81
-1.34455e-81
3.96008e-84
-3.51902e-84
-1.3754e-81
4.64086e-85
-3.23087e-84
-1.81033e-81
1.50249e-85
-1.03314e-84
-4.74027e-81
-8.97554e-88
-1.34517e-85
-2.20236e-86
-5.74e-87
-1.59118e-86
-5.8789e-83
-3.88227e-92
-1.64953e-93
-2.17856e-81
-9.2885e-88
-4.98644e-89
-5.27941e-87
-4.84819e-86
-4.19922e-86
1.45647e-83
-1.58809e-81
-2.07311e-86
8.09102e-89
-1.49587e-86
-1.42704e-86
1.50891e-89
-5.16374e-90
-2.33023e-87
4.99522e-90
-4.28139e-90
-3.27474e-87
6.03106e-91
-1.24852e-90
-1.00308e-86
3.11829e-91
-1.6125e-91
-4.37693e-92
-5.8362e-92
-1.84063e-92
-1.3718e-88
-1.02055e-97
-1.81197e-99
-3.58545e-87
-3.07863e-93
-5.25529e-95
-2.23444e-92
-4.97484e-92
-5.28059e-92
-5.8813e-87
3.79624e-89
-2.32338e-92
-1.03784e-92
8.81047e-95
-4.66922e-92
-7.38992e-96
2.61222e-95
-9.05922e-92
-5.96863e-96
3.79807e-95
-1.38123e-91
-1.65163e-96
3.90213e-95
-2.49513e-91
-2.08424e-97
3.03427e-95
-1.69144e-97
-2.45455e-98
1.17572e-95
-4.88386e-94
-2.49468e-105
-2.43991e-103
-1.42867e-92
-6.78695e-101
-4.88339e-99
-9.28647e-98
-4.08671e-98
-1.76541e-13
2.86392e-13
1.06748e-14
-1.82225e-13
1.97951e-13
3.05787e-14
-2.18273e-13
2.07912e-13
2.6999e-14
-2.46873e-13
1.9596e-13
2.19151e-14
-2.65428e-13
1.85352e-13
1.38872e-14
-2.81535e-13
1.80615e-13
1.1128e-14
-2.87137e-13
1.8108e-13
3.65259e-16
-3.10381e-13
2.04259e-13
6.6637e-15
-3.11418e-13
2.12519e-13
-2.8417e-14
1.93112e-13
2.93739e-16
-6.15093e-14
5.47606e-13
4.79753e-14
-4.699e-14
4.23375e-13
6.9466e-14
-4.95823e-14
4.37739e-13
6.26961e-14
-6.53641e-14
4.35516e-13
5.17929e-14
-9.41458e-14
4.30293e-13
3.94768e-14
-1.32376e-13
4.35917e-13
3.06036e-14
-1.73759e-13
4.48024e-13
2.34839e-14
-2.23966e-13
4.92427e-13
2.77119e-14
-2.74516e-13
5.23857e-13
2.45428e-14
4.75932e-13
5.08486e-14
-1.24039e-14
7.31097e-13
6.86406e-14
-1.09786e-14
6.29157e-13
8.78036e-14
-2.24453e-14
6.45353e-13
8.33745e-14
-4.21183e-14
6.46455e-13
7.16913e-14
-6.96669e-14
6.45742e-13
6.00579e-14
-1.04466e-13
6.52638e-13
4.98739e-14
-1.4734e-13
6.70047e-13
4.13525e-14
-1.84208e-13
7.18334e-13
3.61448e-14
-2.34949e-13
7.70043e-13
3.10697e-14
7.08669e-13
2.2384e-14
2.70439e-14
8.56634e-13
7.06611e-14
4.93625e-16
8.38537e-13
8.62522e-14
-1.96891e-14
8.40503e-13
7.81979e-14
-3.51857e-14
8.31885e-13
6.43225e-14
-4.75057e-14
8.24117e-13
4.98739e-14
-6.50758e-14
8.24703e-13
3.44043e-14
-9.20679e-14
8.39873e-13
2.09612e-14
-1.02088e-13
8.6984e-13
1.285e-14
-1.60251e-13
9.49786e-13
7.11895e-15
9.37909e-13
-4.1259e-14
3.12753e-14
9.45686e-13
6.72092e-14
4.85826e-15
1.00467e-12
8.00927e-14
-1.94024e-14
9.99553e-13
7.30842e-14
-3.65552e-14
9.80159e-13
5.84951e-14
-4.76701e-14
9.60522e-13
4.52004e-14
-5.64499e-14
9.45308e-13
3.06666e-14
-6.27087e-14
9.40728e-13
1.18017e-14
-1.22639e-14
9.0546e-13
3.40481e-15
-9.6259e-14
1.06978e-12
-3.63591e-14
1.25061e-12
-9.81918e-14
5.25691e-15
1.00588e-12
4.7166e-14
-8.58165e-15
1.10136e-12
5.91624e-14
-1.44973e-14
1.08944e-12
4.89493e-14
-2.562e-14
1.07396e-12
3.50576e-14
-2.90021e-14
1.04318e-12
2.31094e-14
-3.7678e-14
1.02657e-12
1.19785e-14
-2.92068e-14
9.93436e-13
-2.04457e-15
1.25256e-13
7.98776e-13
-1.22974e-15
-9.82489e-14
1.24465e-12
-4.82727e-14
1.59737e-12
-1.16946e-13
-6.46013e-14
1.07303e-12
2.17208e-14
-6.9693e-14
1.13965e-12
2.87199e-14
-9.28522e-14
1.15804e-12
1.99853e-14
-1.21861e-13
1.15445e-12
9.2163e-15
-1.30453e-13
1.1097e-12
9.19668e-17
-1.3308e-13
1.09025e-12
-9.00658e-15
-3.4972e-14
9.46668e-13
-2.03974e-14
3.98015e-13
3.69849e-13
-1.88692e-14
-6.28069e-14
1.57706e-12
-8.84885e-14
2.62585e-12
-2.06201e-13
1.1697e-13
7.07336e-13
9.51713e-14
1.81706e-13
7.69618e-13
6.73653e-14
2.92725e-13
7.70226e-13
6.0668e-14
3.93257e-13
7.7998e-13
5.6239e-14
4.90515e-13
7.67147e-13
4.87119e-14
3.61315e-13
9.51334e-13
3.72252e-14
3.45738e-13
8.01941e-13
5.77432e-14
-3.2995e-13
9.1753e-13
1.71319e-13
4.20239e-13
7.91543e-13
1.22423e-13
1.03931e-12
5.82234e-13
-2.75565e-19
3.69582e-27
-2.62922e-20
-3.78666e-19
-9.48874e-36
-1.84728e-20
-4.48651e-19
-2.23198e-42
-6.5203e-21
-4.68903e-19
-1.51404e-33
1.42122e-20
-6.9131e-19
-5.73446e-27
4.51813e-20
-5.82356e-19
-6.18358e-27
1.22112e-19
-1.33082e-18
2.93799e-26
1.60577e-19
-3.75865e-19
-6.13095e-26
5.37252e-19
-5.71808e-19
-1.13897e-25
2.80277e-19
3.19121e-25
5.20048e-19
-2.9817e-42
3.87778e-34
-1.40017e-26
-1.54527e-46
-3.01112e-41
-5.75853e-43
-4.44675e-40
-3.51543e-41
-1.74319e-44
-1.51404e-33
-8.51283e-41
-7.58395e-42
-5.73446e-27
-4.23491e-35
-1.74413e-35
-1.62631e-26
-3.3307e-41
-1.19157e-28
-7.19162e-33
-7.77972e-40
-8.62967e-28
-6.13095e-26
-1.5237e-33
-3.69976e-33
-2.32629e-25
-1.34393e-31
-1.72155e-26
2.46016e-31
5.73382e-26
-2.7391e-41
2.29865e-36
-1.43273e-33
-3.84423e-41
-4.77722e-44
-5.25102e-42
-3.78055e-41
-5.26365e-44
-6.14275e-42
-7.71868e-42
-3.8159e-44
-4.0087e-42
-6.22465e-48
-9.9523e-45
-1.06192e-42
-8.89505e-47
-1.38915e-45
-1.55301e-43
-7.77977e-40
-4.84625e-46
5.54629e-45
-1.5237e-33
-7.53911e-49
-2.1494e-45
-1.39126e-31
-1.7308e-40
-4.47546e-39
7.39587e-36
-1.7437e-32
-1.19929e-44
1.53818e-41
-1.58389e-40
-1.52697e-44
-7.24718e-51
3.07976e-46
-1.37731e-44
-8.5352e-51
6.58026e-46
-6.90812e-45
-6.46402e-51
8.47362e-46
-1.53595e-45
-2.20264e-51
1.76857e-46
-5.5559e-46
-3.76318e-52
-9.50553e-47
-2.57216e-49
-1.05447e-52
-4.91697e-47
-2.09179e-48
-4.37748e-56
-1.83261e-49
-2.23598e-39
-1.44858e-51
-1.97369e-45
-1.8889e-48
-2.48003e-42
-1.54405e-51
9.93253e-49
-7.01053e-47
-1.86207e-51
-1.35934e-57
1.28855e-52
-1.70645e-51
-1.69601e-57
1.05669e-52
-8.51537e-52
-1.35156e-57
-3.69588e-53
-1.6866e-52
-4.53286e-58
-9.47357e-53
-4.64049e-53
-7.17631e-59
-3.61626e-53
-1.19463e-56
-1.10836e-59
-8.36601e-54
-1.78226e-55
-1.02272e-65
-1.18341e-56
-6.12681e-49
-2.84649e-61
-2.54792e-52
-3.90669e-57
-6.61634e-49
-2.23147e-58
8.52371e-55
3.84398e-54
-2.63155e-58
-2.99996e-64
3.96407e-59
-2.58121e-58
-4.07599e-64
3.02205e-59
-1.34244e-58
-3.41973e-64
-3.57747e-60
-2.64138e-59
-1.15708e-64
-1.52693e-59
-4.54628e-60
-1.76502e-65
-5.47339e-60
-2.50851e-66
-2.28896e-66
-7.50308e-61
-3.19407e-65
-6.09153e-73
-1.21126e-66
-9.26575e-58
-2.9366e-68
-2.63437e-61
-1.49343e-64
-1.69587e-57
-4.47461e-65
9.98666e-61
1.05789e-59
-6.28263e-65
-7.03649e-71
6.43307e-66
-7.15898e-65
-1.06946e-70
1.74246e-66
-3.94584e-65
-9.63214e-71
-5.00351e-66
-7.48554e-66
-3.44063e-71
-5.53301e-66
-1.11855e-66
-5.21867e-72
-1.40366e-66
-1.71678e-73
-6.19384e-73
-1.56322e-67
-3.97918e-72
-1.18396e-79
-8.81665e-74
-4.31412e-65
-4.76966e-75
-2.64006e-68
-9.80078e-72
-9.80166e-65
-1.79441e-71
1.4576e-66
-8.55053e-65
-2.64197e-71
-1.0346e-76
-3.62539e-72
-3.12662e-71
-2.46771e-77
-5.43672e-72
-1.73552e-71
-2.62823e-77
-5.2603e-72
-3.16509e-72
-1.10498e-77
-2.74963e-72
-4.2302e-73
-1.79818e-78
-5.05865e-73
-4.46094e-80
-2.11215e-79
-4.27462e-74
-9.18348e-79
-3.52446e-86
-1.67333e-80
-3.74615e-72
-1.24243e-81
-3.96139e-75
-2.03155e-78
-8.6569e-72
-9.59206e-77
2.52255e-72
-2.98993e-70
-1.36622e-77
3.18475e-80
-5.44002e-77
-1.6733e-77
9.54577e-82
-5.78556e-78
-9.81943e-78
-3.1788e-84
-4.80619e-78
-1.76048e-78
-3.14917e-84
-1.82882e-78
-2.17593e-79
-7.1175e-85
-2.47942e-79
-1.90223e-86
-9.55568e-86
-1.59623e-80
-3.54639e-85
-1.63149e-92
-4.80024e-87
-1.16177e-78
-5.67753e-88
-8.82016e-82
-7.9592e-85
-1.3846e-78
-5.03742e-81
4.96692e-78
-1.01551e-75
-8.72573e-84
6.01166e-84
-3.53681e-81
-1.20107e-83
5.11242e-87
-6.27069e-84
-7.28645e-84
2.30806e-87
-4.99503e-84
-1.29307e-84
-7.77846e-92
-1.8373e-84
-1.48125e-85
-3.35469e-91
-2.19637e-85
-1.16021e-92
-5.98854e-92
-1.25153e-86
-2.18872e-91
-1.09795e-98
-3.19564e-93
-5.58327e-85
-4.35061e-94
-4.60506e-88
-7.47135e-91
-4.85238e-85
-1.65708e-86
1.09888e-83
-3.08156e-81
-1.02858e-89
2.1302e-89
-1.05641e-86
-1.26182e-89
7.33222e-93
-8.0052e-90
-6.74248e-90
4.00642e-93
-6.05129e-90
-1.16306e-90
4.9154e-94
-2.18778e-90
-1.31419e-91
-1.08037e-97
-2.74875e-91
-9.37322e-99
-4.14733e-98
-1.58692e-92
-1.71401e-97
-9.14376e-105
-4.01689e-99
-4.01389e-91
-3.75747e-100
-5.5754e-94
-9.08312e-97
-6.76788e-91
-1.00584e-92
-9.93601e-87
2.75554e-89
-1.31507e-95
-5.43979e-93
1.17545e-95
-1.49169e-95
-1.067e-95
1.00804e-98
-7.58066e-96
-8.1037e-96
6.04618e-99
-1.2214e-96
-2.82617e-96
1.07854e-99
-1.36663e-97
-3.70014e-97
4.51731e-101
-9.246e-105
-2.28181e-98
-1.68325e-104
-1.33396e-103
-6.21364e-105
-6.73093e-111
-3.93199e-97
-8.00427e-100
-2.76964e-106
-1.44819e-96
-8.88047e-103
-1.85582e-13
2.85555e-13
2.83859e-14
-1.90635e-13
1.94066e-13
4.97297e-14
-2.2685e-13
2.04603e-13
4.75289e-14
-2.54194e-13
1.94939e-13
4.23612e-14
-2.73763e-13
1.84592e-13
3.75664e-14
-2.87208e-13
1.78162e-13
3.73645e-14
-2.94452e-13
1.76337e-13
2.70069e-14
-3.12073e-13
1.84689e-13
4.34466e-14
-3.24323e-13
1.85775e-13
1.38568e-14
1.78611e-13
2.58233e-14
-7.30827e-14
5.48839e-13
6.13059e-14
-5.68919e-14
4.16903e-13
8.50029e-14
-6.13322e-14
4.3228e-13
7.93635e-14
-7.76625e-14
4.3144e-13
7.12136e-14
-1.03735e-13
4.26287e-13
6.48633e-14
-1.38235e-13
4.28863e-13
5.91603e-14
-1.69183e-13
4.31415e-13
5.12044e-14
-2.14328e-13
4.5781e-13
6.27645e-14
-2.52113e-13
4.79335e-13
4.73551e-14
4.93884e-13
9.36665e-14
-1.91539e-14
7.27532e-13
7.55522e-14
-1.98752e-14
6.23183e-13
9.41431e-14
-3.38744e-14
6.39206e-13
9.05235e-14
-5.4238e-14
6.40684e-13
8.3079e-14
-8.05956e-14
6.38159e-13
7.63702e-14
-1.11122e-13
6.43027e-13
7.10743e-14
-1.48027e-13
6.53731e-13
6.55919e-14
-1.87785e-13
6.83094e-13
6.70155e-14
-2.37925e-13
7.27235e-13
5.82011e-14
7.15062e-13
8.64969e-14
1.72054e-14
8.44418e-13
7.58608e-14
-9.09655e-15
8.22389e-13
8.71871e-14
-3.3527e-14
8.25564e-13
8.14455e-14
-5.18383e-14
8.16185e-13
7.35734e-14
-6.79757e-14
8.0843e-13
6.44342e-14
-8.13101e-14
8.0728e-13
5.48364e-14
-9.8535e-14
8.15861e-13
5.00992e-14
-1.12158e-13
8.41463e-13
4.45045e-14
-1.68195e-13
9.23923e-13
4.45426e-14
9.16073e-13
4.30875e-14
2.57253e-14
9.24126e-13
6.82252e-14
-5.23271e-15
9.85195e-13
7.74562e-14
-3.28665e-14
9.79383e-13
7.14188e-14
-5.29936e-14
9.57395e-13
6.47651e-14
-6.83803e-14
9.42706e-13
5.69887e-14
-7.52476e-14
9.31025e-13
4.70611e-14
-8.13551e-14
9.29344e-13
3.86389e-14
-3.50568e-14
8.97389e-13
3.40743e-14
-1.16326e-13
1.07465e-12
2.33074e-14
1.20128e-12
-6.23313e-15
-7.94583e-15
1.00022e-12
4.93277e-14
-2.08543e-14
1.08403e-12
5.50549e-14
-2.88234e-14
1.06918e-12
4.85296e-14
-4.07849e-14
1.0493e-12
4.09089e-14
-4.39215e-14
1.02563e-12
3.34069e-14
-4.92828e-14
1.01505e-12
2.60297e-14
-3.86914e-14
9.93864e-13
1.54811e-14
1.03429e-13
8.25702e-13
1.77888e-14
-1.17418e-13
1.32328e-12
7.46131e-15
1.51897e-12
-4.38692e-14
-7.00403e-14
1.10836e-12
1.76198e-14
-7.90469e-14
1.13532e-12
2.15427e-14
-1.05263e-13
1.14018e-12
1.36348e-14
-1.35438e-13
1.12534e-12
6.86336e-15
-1.42293e-13
1.08111e-12
-6.41843e-16
-1.39243e-13
1.06077e-12
-7.60714e-15
-5.77211e-14
9.57179e-13
-1.55606e-14
3.56388e-13
4.42487e-13
-3.13212e-15
-7.6064e-14
1.74413e-12
-3.4842e-14
2.44196e-12
-1.03821e-13
7.64454e-14
7.73221e-13
9.60921e-14
1.67177e-13
7.66095e-13
8.19174e-14
2.86188e-13
7.49495e-13
8.22476e-14
3.88302e-13
7.54534e-13
8.42768e-14
4.87907e-13
7.26973e-13
8.20284e-14
4.10444e-13
8.49599e-13
7.05235e-14
4.28455e-13
7.1597e-13
7.24271e-14
-2.28314e-13
8.85814e-13
1.1845e-13
3.01586e-13
9.58206e-13
8.60677e-14
9.57284e-13
4.19231e-13
-2.75123e-19
1.33498e-26
4.87688e-20
-3.46384e-19
-1.00803e-35
6.93617e-20
-4.00587e-19
-3.28759e-37
8.12192e-20
-4.00127e-19
-2.0791e-34
1.07129e-19
-5.20824e-19
-8.51994e-28
1.30777e-19
-4.18405e-19
-7.25287e-27
2.01327e-19
-7.02173e-19
1.29554e-26
1.92197e-19
-5.02541e-19
-4.48518e-26
3.70328e-19
-6.33265e-19
-9.59093e-26
4.07384e-19
1.96403e-25
4.66014e-19
-3.33564e-42
1.7525e-33
-6.51917e-28
-1.0306e-43
-2.78992e-41
3.32982e-43
-5.77714e-41
-3.17809e-41
1.39659e-44
-2.0791e-34
-3.26893e-41
1.23443e-41
-8.51994e-28
-1.45526e-35
6.57691e-35
-8.55741e-27
-1.01131e-35
3.33389e-28
-6.15348e-33
9.64494e-45
3.535e-27
-4.48518e-26
-2.09567e-38
2.95044e-33
-1.6773e-25
-6.79604e-32
9.7539e-27
8.76175e-32
8.60101e-26
-2.7186e-41
3.77587e-36
8.68446e-35
-3.8051e-41
-4.23184e-44
3.36275e-42
-3.01401e-41
-2.42644e-44
5.41629e-42
-1.73876e-41
-3.38938e-44
4.98567e-42
-1.34925e-42
-1.40241e-44
2.4983e-42
3.78536e-44
-2.28849e-45
2.80591e-43
-4.4945e-45
-3.15791e-46
-6.2845e-45
-2.09567e-38
-9.5411e-49
3.33498e-46
-6.79604e-32
-8.82264e-45
-1.80837e-40
-4.14149e-39
2.76538e-33
-1.06825e-44
1.79071e-41
2.89695e-40
-1.42895e-44
-6.94327e-51
4.123e-45
-1.29716e-44
-8.50915e-51
5.2895e-45
-7.3854e-45
-6.05533e-51
4.05401e-45
-1.92394e-45
-2.45869e-51
1.79108e-45
-4.04631e-46
-4.45696e-52
2.97993e-46
-3.72723e-49
-6.595e-53
2.09082e-47
-2.72223e-48
-6.00348e-56
-5.97622e-50
-2.57474e-42
-1.04473e-51
-8.02915e-46
-1.63421e-48
-1.32626e-42
-1.61097e-51
1.64287e-48
2.25262e-46
-2.00289e-51
-1.40129e-57
5.90392e-52
-1.80685e-51
-1.81278e-57
6.12898e-52
-1.02987e-51
-1.33129e-57
3.28054e-52
-2.34223e-52
-5.33296e-58
5.8987e-53
-3.52576e-53
-8.82191e-59
-9.05474e-54
-1.9314e-56
-7.78618e-60
-6.98835e-54
-1.48515e-55
-7.48981e-66
-7.49861e-57
-5.70587e-49
-1.73084e-60
-1.09523e-52
-8.08168e-57
-3.08495e-49
-2.53461e-58
1.42673e-54
1.66733e-52
-3.12456e-58
-3.43618e-64
1.05518e-58
-3.00196e-58
-4.7297e-64
1.07557e-58
-1.74018e-58
-3.59648e-64
5.30881e-59
-3.8001e-59
-1.41155e-64
5.55098e-60
-3.82956e-60
-2.18997e-65
-2.24321e-60
-2.11669e-66
-1.5905e-66
-4.54892e-61
-2.1771e-64
-6.79721e-73
-5.5204e-67
-2.30111e-57
-1.82528e-67
-2.14262e-61
-5.40099e-64
-1.1763e-57
-4.84434e-65
1.61116e-60
8.73443e-59
-7.43855e-65
-8.88103e-71
1.54815e-65
-8.38453e-65
-1.34747e-70
1.36701e-65
-5.12422e-65
-1.08409e-70
4.03616e-66
-1.06718e-65
-4.36911e-71
-1.5842e-66
-8.96759e-67
-6.63824e-72
-8.51029e-67
-2.2282e-73
-4.29848e-73
-1.03694e-67
-2.79762e-71
-1.48471e-79
-5.7444e-74
-1.84371e-64
-2.99012e-74
-1.97096e-68
-5.56457e-71
-6.76345e-65
-1.94576e-71
2.23237e-66
-3.70344e-65
-3.06905e-71
-3.44181e-76
-4.05013e-73
-3.5377e-71
-3.61323e-77
-1.95993e-72
-2.16717e-71
-3.32323e-77
-2.39644e-72
-4.32234e-72
-1.50906e-77
-1.59451e-72
-3.23846e-73
-2.43737e-78
-3.51183e-73
-6.25613e-80
-1.54505e-79
-2.70192e-74
-6.33787e-78
-4.77229e-86
-1.067e-80
-2.71734e-71
-7.69369e-81
-2.90927e-75
-1.08477e-77
-6.0206e-72
-2.38566e-76
3.64276e-72
-3.1326e-70
-1.73361e-77
2.96641e-80
-8.89018e-77
-1.90852e-77
-3.53666e-84
-4.59571e-78
-1.22163e-77
-8.03787e-84
-3.56273e-78
-2.35996e-78
-5.58367e-84
-1.55094e-78
-1.6239e-79
-1.13271e-84
-2.42585e-79
-2.74185e-86
-7.75235e-86
-1.35661e-80
-2.47877e-84
-2.4392e-92
-4.02027e-87
-8.1002e-78
-3.83206e-87
-7.66285e-82
-4.94378e-84
-1.14677e-78
-3.27452e-81
6.67077e-78
-1.07829e-75
-1.08185e-83
2.72593e-84
-1.04572e-81
-1.36484e-83
3.63672e-87
-6.03282e-84
-9.17595e-84
7.89827e-88
-4.61058e-84
-1.72353e-84
-2.11535e-90
-1.89435e-84
-1.10715e-85
-7.03628e-91
-2.72474e-85
-1.67745e-92
-5.77719e-92
-1.35598e-86
-1.44189e-90
-2.0274e-98
-3.66271e-93
-3.75474e-84
-3.46947e-93
-5.88747e-88
-6.03218e-90
-7.96799e-85
-9.17658e-87
1.36422e-83
-3.35271e-81
-1.22032e-89
8.97311e-90
-7.12206e-87
-1.36978e-89
5.90616e-93
-7.47262e-90
-8.49664e-90
2.37427e-93
-5.65722e-90
-1.58955e-90
-1.26648e-97
-2.4418e-90
-9.94922e-92
-4.79308e-97
-3.66226e-91
-1.4229e-98
-5.11614e-98
-1.82357e-92
-1.07633e-96
-2.07536e-104
-4.98087e-99
-2.69654e-90
-3.43099e-99
-7.83707e-94
-8.48243e-96
-1.2262e-90
-4.21476e-93
-1.0657e-86
3.1553e-89
-1.47719e-95
-2.48571e-93
4.16749e-96
-1.55993e-95
-1.00987e-95
8.33988e-99
-9.15326e-96
-7.35939e-96
4.20393e-99
-1.70116e-96
-3.22407e-96
5.92582e-100
-1.06466e-97
-5.2217e-97
-1.91872e-103
-1.48098e-104
-2.72572e-98
-3.97237e-104
-8.5457e-103
-7.86056e-105
-1.96239e-110
-2.65758e-96
-1.08312e-99
-3.03036e-105