/*--------------------------------*- C++ -*----------------------------------*\
| =========                 |                                                 |
| \\      /  F ield         | OpenFOAM: The Open Source CFD Toolbox           |
|  \\    /   O peration     | Version:  2312                                  |
|   \\  /    A nd           | Website:  www.openfoam.com                      |
|    \\/     M anipulation  |                                                 |
\*---------------------------------------------------------------------------*/
FoamFile
{
    version     2.0;
    format      ascii;
    arch        "LSB;label=32;scalar=64";
    class       surfaceScalarField;
    location    "0.575";
    object      alphaPhi0.water;
}
// * * * * * * * * * * * * * * * * * * * * * * * * * * * * * * * * * * * * * //

dimensions      [0 3 -1 0 0 0 0];

oriented        oriented;

internalField   nonuniform List<scalar> 
22600
(
1.96863e-07
-3.94607e-07
1.97744e-07
4.05763e-07
-4.12813e-07
2.03912e-07
5.64587e-07
-3.46511e-07
1.87688e-07
6.56233e-07
-2.64894e-07
1.73248e-07
6.81286e-07
-1.8442e-07
1.59366e-07
6.41705e-07
-1.04548e-07
1.44129e-07
5.42956e-07
-2.95641e-08
1.28313e-07
3.97545e-07
3.39718e-08
1.1144e-07
2.19991e-07
7.93852e-08
9.81686e-08
1.04151e-07
8.63722e-08
1.85496e-07
-7.66212e-07
1.86109e-07
3.96418e-07
-8.15034e-07
1.91299e-07
5.53766e-07
-6.76911e-07
1.73051e-07
6.43504e-07
-5.11571e-07
1.56939e-07
6.68696e-07
-3.5098e-07
1.41367e-07
6.32733e-07
-1.92816e-07
1.24232e-07
5.41795e-07
-4.52081e-08
1.06582e-07
4.03488e-07
8.23858e-08
8.98932e-08
2.27912e-07
1.76323e-07
7.86379e-08
2.28393e-07
6.92369e-08
2.34866e-07
-1.23786e-06
2.36777e-07
5.20072e-07
-1.33311e-06
2.3287e-07
7.19123e-07
-1.07313e-06
1.97164e-07
8.23471e-07
-7.94012e-07
1.78093e-07
8.45981e-07
-5.35475e-07
1.61985e-07
7.94522e-07
-2.84781e-07
1.43424e-07
6.74592e-07
-4.9601e-08
1.24322e-07
4.97619e-07
1.52307e-07
1.07052e-07
2.78761e-07
3.0112e-07
9.40606e-08
3.82825e-07
8.65276e-08
3.83882e-07
-2.00259e-06
3.80849e-07
7.80599e-07
-2.12528e-06
3.95452e-07
9.91037e-07
-1.55989e-06
2.7633e-07
1.09129e-06
-1.10551e-06
2.11248e-07
1.10157e-06
-7.35968e-07
1.90218e-07
1.02671e-06
-3.87661e-07
1.77736e-07
8.72747e-07
-6.21116e-08
1.66473e-07
6.45364e-07
2.21394e-07
1.58298e-07
3.62244e-07
4.27478e-07
1.56762e-07
5.43123e-07
1.58985e-07
7.01664e-07
-3.37697e-06
6.72726e-07
1.23051e-06
-3.40542e-06
7.513e-07
1.38887e-06
-2.26774e-06
5.49492e-07
1.42408e-06
-1.52174e-06
3.81018e-07
1.3927e-06
-1.01543e-06
3.10841e-07
1.28184e-06
-5.76334e-07
2.99528e-07
1.08045e-06
-1.68475e-07
3.07754e-07
7.92045e-07
1.86659e-07
3.23143e-07
4.40804e-07
4.28739e-07
3.4998e-07
5.76817e-07
3.69382e-07
9.188e-07
-5.19407e-06
8.98442e-07
1.45512e-06
-4.94091e-06
9.99473e-07
1.59122e-06
-3.2714e-06
8.67659e-07
1.57027e-06
-2.19867e-06
6.97905e-07
1.46082e-06
-1.48183e-06
5.75862e-07
1.30837e-06
-9.51227e-07
5.27349e-07
1.11598e-06
-4.74289e-07
4.98201e-07
8.03182e-07
3.89127e-08
4.60543e-07
4.44249e-07
3.40978e-07
4.46694e-07
5.30612e-07
4.48237e-07
8.23145e-07
-6.9022e-06
8.88254e-07
1.28376e-06
-6.41178e-06
1.01699e-06
1.62658e-06
-4.57471e-06
9.64083e-07
1.8102e-06
-3.19714e-06
8.1623e-07
1.78247e-06
-2.08567e-06
6.3194e-07
1.6302e-06
-1.22529e-06
4.26392e-07
1.37972e-06
-4.1781e-07
1.93993e-07
1.06933e-06
3.63103e-07
-1.38043e-08
6.35617e-07
8.6138e-07
-8.66878e-08
1.11202e-06
-7.28183e-08
7.53521e-07
-7.64162e-06
8.64845e-07
1.44212e-06
-5.60035e-06
1.16635e-06
2.17704e-06
-3.40993e-06
9.67588e-07
2.70986e-06
-2.14495e-06
6.49317e-07
2.98422e-06
-1.39611e-06
3.68844e-07
2.91997e-06
-7.63494e-07
9.29978e-08
2.50947e-06
-8.04768e-08
-1.24526e-07
2.02357e-06
4.12726e-07
-2.4803e-07
1.1802e-06
7.29558e-07
-2.63051e-07
8.49305e-07
-2.34257e-07
4.6837e-07
-5.07389e-11
5.22168e-07
3.71175e-07
-1.70617e-11
4.09101e-07
4.56755e-07
-3.65719e-12
1.96024e-07
5.91316e-07
-2.33075e-12
9.8913e-08
9.06538e-07
-4.40369e-12
7.97086e-08
1.32236e-06
-1.18285e-11
9.99372e-08
1.49399e-06
-3.21835e-09
1.62417e-07
1.34708e-06
-2.37571e-08
1.52137e-07
6.99876e-07
-7.31301e-08
9.54516e-08
2.93641e-10
6.05908e-08
1.0386e-12
-1.97212e-11
1.07387e-12
5.81998e-13
-8.82895e-12
3.08832e-13
3.66937e-13
-3.2208e-12
5.71052e-14
4.3759e-13
-2.3836e-12
1.01454e-13
6.2258e-13
-3.34691e-12
2.2308e-13
7.55831e-13
-1.14322e-11
4.36423e-13
-3.25487e-09
-5.46186e-11
9.14615e-11
-3.79028e-08
-3.39831e-09
4.80637e-09
-1.09323e-07
-3.0207e-09
-2.152e-09
4.80634e-10
-1.59346e-08
-8.03211e-13
-1.73583e-11
-1.0368e-12
-1.02777e-12
-7.12057e-12
-1.5714e-12
-1.38307e-12
-2.0498e-12
-6.96442e-13
-1.93426e-12
-1.54642e-12
-4.65957e-13
-3.30418e-12
-1.80376e-12
-4.37872e-13
-1.04988e-11
-5.24775e-12
4.44986e-14
-1.64116e-10
-3.9681e-12
1.68797e-11
-3.8063e-09
-2.20866e-10
2.54081e-10
-7.57492e-09
-3.00453e-10
2.21396e-10
1.19182e-10
-1.25257e-09
-7.49742e-12
-8.10753e-11
-9.35821e-12
-1.79697e-12
-2.01598e-11
-1.18309e-11
-1.84608e-12
-1.35442e-12
-9.56646e-13
-2.42776e-12
-6.72796e-13
-6.38704e-13
-3.30932e-12
-5.28088e-13
-7.51466e-13
-6.86585e-12
-6.70558e-13
-1.92775e-12
-1.25596e-10
4.57075e-12
-7.43005e-12
-4.21748e-10
-3.83845e-11
-2.1474e-11
-7.80538e-10
-4.33153e-13
-6.78027e-11
2.9152e-11
-2.28622e-10
-1.70005e-10
-8.21083e-11
-1.92975e-10
-4.9746e-11
-3.54222e-11
-5.03273e-11
-1.35775e-12
-7.27499e-14
-5.29449e-13
-1.85024e-12
2.27483e-13
-7.36621e-13
-2.07139e-12
2.97244e-13
-9.40734e-13
-3.47758e-12
9.5587e-13
-5.74477e-13
-1.2591e-11
5.49213e-12
-2.32669e-12
-4.25296e-11
1.64693e-11
-1.04768e-11
-1.0568e-10
4.93148e-11
-1.23551e-11
9.81928e-12
-2.14316e-11
-1.9228e-10
4.76696e-11
-1.95768e-10
-1.44333e-10
9.79802e-11
-4.06876e-11
-7.84489e-12
1.47916e-10
-1.73638e-12
-6.30085e-12
1.16276e-12
-2.81157e-12
-2.37724e-12
3.66589e-12
-9.09745e-12
-4.4645e-12
1.16947e-11
-9.59722e-12
-2.30328e-11
3.81089e-11
-1.51565e-11
-4.8131e-11
7.10267e-11
-1.67783e-11
-3.8759e-11
1.81382e-10
-2.96181e-12
2.57951e-10
1.43912e-12
-1.18874e-10
8.15364e-11
-2.42089e-11
-1.16035e-10
2.28671e-10
-3.45211e-11
-7.99941e-12
2.31545e-10
-7.55956e-14
-8.71468e-12
1.6847e-12
-1.71173e-13
-2.46762e-11
8.24195e-12
-6.48362e-12
-8.20069e-11
1.09694e-10
-3.2652e-11
-5.8418e-11
1.37103e-10
-5.92434e-11
-8.44147e-11
9.18052e-11
-3.69641e-11
-5.87098e-11
1.88557e-10
-2.63215e-11
2.93767e-10
2.03961e-12
-1.46662e-10
6.30673e-11
8.32212e-11
-1.26728e-10
3.26982e-10
-1.92352e-11
-3.39435e-12
1.23502e-10
2.71816e-12
-4.39825e-12
1.70992e-12
2.19594e-13
-2.73003e-11
2.21054e-11
4.61661e-12
-9.54469e-11
4.88541e-11
1.0889e-11
-5.06413e-11
1.41562e-10
-2.86629e-12
-4.02919e-11
2.45522e-11
-1.07035e-11
-4.86624e-11
7.08375e-11
-1.57682e-11
1.95634e-10
4.26903e-12
-8.90052e-11
4.84813e-11
8.47574e-11
-7.10982e-11
2.23139e-11
-2.17106e-11
-2.85698e-11
6.18306e-12
-8.27959e-13
-4.51956e-11
2.7212e-11
3.0088e-12
-1.30169e-11
3.67191e-11
2.44471e-11
-2.19481e-11
7.87218e-12
6.99028e-12
-1.0257e-11
1.19641e-12
6.02286e-12
-5.5574e-12
-4.09816e-12
2.46965e-12
-5.43642e-12
-6.92845e-12
3.05162e-12
8.073e-12
1.08469e-11
-9.51332e-12
3.37227e-11
2.73068e-11
-3.45992e-12
2.02797e-11
-1.57846e-11
-1.52837e-12
6.75269e-12
-9.65233e-13
-8.27202e-11
1.09447e-10
-5.27949e-12
-8.15462e-12
1.81029e-11
2.73667e-11
-1.18569e-12
1.59804e-13
7.17582e-13
-4.49837e-13
1.358e-14
3.65344e-13
-1.7359e-13
-2.6275e-13
2.00567e-13
-1.75329e-13
-3.85513e-13
3.26853e-13
6.52034e-14
1.02881e-12
-1.15995e-11
7.69816e-10
1.40343e-10
-6.47846e-12
2.65043e-11
-7.05133e-12
-5.72674e-11
4.6817e-11
8.37666e-12
-5.34017e-11
5.25303e-10
-1.12199e-11
-1.53292e-13
1.09983e-11
1.37781e-11
-2.24426e-14
1.80024e-15
2.69497e-14
-1.41585e-14
9.64297e-17
3.59966e-15
-5.45127e-14
-1.03458e-15
6.1728e-15
-1.2719e-14
3.83706e-15
3.97051e-14
9.84988e-16
4.0289e-14
-3.9375e-11
2.27836e-10
7.00478e-10
-1.10682e-11
-3.07964e-11
3.57101e-11
-7.04017e-11
1.81559e-11
8.24548e-11
7.16269e-12
-4.01438e-11
6.09544e-10
-1.70682e-15
9.88218e-12
1.82413e-11
-2.89969e-16
3.57907e-16
1.94063e-17
-2.35056e-16
1.02672e-17
5.52879e-18
-1.21632e-15
3.45818e-17
-9.35912e-18
-3.05369e-16
1.74133e-16
9.39103e-18
2.23862e-16
1.98439e-17
2.03008e-07
-4.13583e-07
4.08319e-07
4.35072e-07
-4.65945e-07
4.37794e-07
6.14759e-07
-3.99878e-07
4.07879e-07
7.22205e-07
-3.15064e-07
3.80866e-07
7.59709e-07
-2.3736e-07
3.59223e-07
7.2833e-07
-1.64516e-07
3.40024e-07
6.30159e-07
-9.85304e-08
3.25015e-07
4.72254e-07
-4.32575e-08
3.12602e-07
2.65165e-07
-2.94985e-09
3.08207e-07
1.28155e-08
3.02104e-07
1.90085e-07
-8.16798e-07
3.9924e-07
4.28888e-07
-9.46879e-07
4.33429e-07
6.12939e-07
-8.06654e-07
3.95776e-07
7.19957e-07
-6.26144e-07
3.61001e-07
7.5548e-07
-4.65057e-07
3.3354e-07
7.22492e-07
-3.16751e-07
3.09455e-07
6.23962e-07
-1.83334e-07
2.89916e-07
4.66532e-07
-7.18853e-08
2.7595e-07
2.62071e-07
6.72331e-09
2.73425e-07
2.84806e-08
2.74686e-07
2.29291e-07
-1.33617e-06
5.26857e-07
5.56764e-07
-1.60894e-06
5.67455e-07
7.91902e-07
-1.33671e-06
4.92087e-07
9.16459e-07
-1.00614e-06
4.3353e-07
9.50945e-07
-7.28363e-07
3.90805e-07
9.03943e-07
-4.79836e-07
3.53511e-07
7.77338e-07
-2.5448e-07
3.22073e-07
5.77117e-07
-6.45005e-08
2.99889e-07
3.24307e-07
5.94856e-08
2.94108e-07
9.54843e-08
2.95911e-07
3.99513e-07
-2.14053e-06
7.85697e-07
9.11979e-07
-2.63219e-06
9.06236e-07
1.17054e-06
-2.03983e-06
7.20885e-07
1.26169e-06
-1.44633e-06
5.60295e-07
1.25956e-06
-1.01153e-06
4.75509e-07
1.1768e-06
-6.43086e-07
4.23743e-07
1.00734e-06
-3.05588e-07
3.87039e-07
7.49231e-07
-1.10928e-08
3.63004e-07
4.22742e-07
1.8905e-07
3.53687e-07
2.74162e-07
3.47431e-07
7.84996e-07
-3.46701e-06
1.21422e-06
1.53983e-06
-4.1198e-06
1.48412e-06
1.7997e-06
-2.96624e-06
1.21604e-06
1.79872e-06
-1.95169e-06
8.87362e-07
1.70098e-06
-1.28451e-06
6.81558e-07
1.54218e-06
-7.67144e-07
5.82392e-07
1.29489e-06
-2.80985e-07
5.30436e-07
9.53481e-07
1.42406e-07
5.11057e-07
5.30343e-07
4.52875e-07
5.09293e-07
6.30769e-07
4.98017e-07
1.04035e-06
-5.08084e-06
1.47226e-06
1.8632e-06
-5.74662e-06
1.80444e-06
2.16056e-06
-4.02604e-06
1.63043e-06
2.16549e-06
-2.58073e-06
1.32209e-06
2.01819e-06
-1.60997e-06
1.04863e-06
1.78006e-06
-8.84811e-07
8.83139e-07
1.48657e-06
-2.6537e-07
7.76078e-07
1.10179e-06
3.1343e-07
6.74302e-07
6.12248e-07
8.00075e-07
5.89035e-07
1.10235e-06
5.44991e-07
1.02189e-06
-6.61251e-06
1.4056e-06
1.90875e-06
-7.49882e-06
1.90096e-06
2.34071e-06
-5.24829e-06
1.76252e-06
2.46509e-06
-3.34593e-06
1.4594e-06
2.39189e-06
-2.02271e-06
1.1184e-06
2.14894e-06
-1.00743e-06
7.92027e-07
1.76673e-06
-1.6804e-07
4.78879e-07
1.39024e-06
4.90445e-07
1.85668e-07
8.57571e-07
1.24684e-06
-7.8075e-10
1.79894e-06
-3.82571e-08
1.14364e-06
-5.5803e-06
1.54459e-06
1.90286e-06
-3.7392e-06
1.92985e-06
2.54772e-06
-2.36085e-06
1.61543e-06
3.05945e-06
-1.75526e-06
1.2268e-06
3.18707e-06
-1.19511e-06
8.31425e-07
2.99178e-06
-5.74371e-07
4.37591e-07
2.60012e-06
8.31426e-09
2.65663e-08
1.87595e-06
5.10609e-07
-2.92805e-07
9.97114e-07
7.78679e-07
-3.76065e-07
9.34765e-07
-4.28567e-07
3.86717e-07
-3.17358e-11
3.72786e-07
1.40888e-07
-8.83763e-12
1.4582e-07
2.03432e-07
-3.7122e-12
1.13613e-07
4.64501e-07
-3.7932e-12
1.18044e-07
7.15034e-07
-7.17936e-12
1.17329e-07
9.2404e-07
-2.70001e-11
1.01559e-07
1.04844e-06
-9.77831e-11
9.43226e-08
1.06639e-06
1.82925e-09
6.37883e-08
7.11215e-07
-5.29655e-08
5.70125e-09
8.19028e-09
6.69097e-09
3.87298e-13
-1.32263e-11
9.29731e-13
-2.26805e-13
-6.75358e-12
-5.56015e-14
-3.43896e-13
-3.12575e-12
-1.3381e-13
-1.75787e-13
-3.05516e-12
-1.11229e-13
2.31416e-13
-6.52831e-12
-7.1975e-14
1.26254e-12
-2.65564e-11
-6.85508e-13
6.17008e-12
-6.96773e-12
-4.06708e-12
3.11379e-09
-4.86041e-09
8.35308e-09
-6.04336e-08
-3.24204e-09
5.35777e-09
4.68223e-09
-1.69401e-08
-1.85237e-12
-1.09272e-11
-1.23136e-12
-2.01026e-12
-6.09554e-12
-1.76935e-12
-2.20859e-12
-2.28428e-12
-1.15458e-12
-3.48093e-12
-1.39269e-12
-8.94456e-13
-4.20951e-12
-2.95188e-12
-3.27617e-12
1.39674e-11
-9.2883e-12
-1.89728e-11
-9.5175e-12
3.11761e-11
-7.10116e-11
-4.57827e-09
-2.58958e-10
1.77829e-11
-8.56872e-09
-2.53159e-10
6.87706e-11
1.03674e-09
-2.03961e-09
-1.57209e-11
-4.21236e-12
-2.64357e-12
-8.47932e-12
-2.96454e-11
-3.59543e-12
-2.76464e-12
-1.23065e-12
-5.88222e-13
-3.29174e-12
-7.35088e-13
-9.09801e-13
-3.11018e-12
-1.90394e-13
-4.21124e-12
-2.14644e-12
-1.38545e-12
-1.88612e-12
-6.31227e-12
-9.28425e-13
4.73028e-12
-6.29536e-10
3.52039e-11
8.76586e-12
-1.06693e-09
-2.61069e-10
-2.49381e-11
2.3416e-10
-2.26073e-10
-9.68712e-11
-2.86233e-10
-8.88707e-11
-1.44823e-11
-8.08915e-12
-8.4139e-12
-2.5656e-12
-5.74407e-13
-6.06367e-13
-1.43553e-12
-3.10445e-12
-1.39028e-12
-1.42782e-12
-5.95365e-13
-8.97843e-13
-3.23159e-12
-5.70945e-13
-5.27968e-13
-4.72257e-11
-1.86297e-13
5.0928e-13
-1.24608e-10
5.91132e-11
2.13367e-11
-1.79514e-10
3.52609e-11
2.58301e-11
7.35245e-12
4.66005e-12
-2.19509e-11
-7.17485e-11
-2.55545e-10
-2.99429e-12
4.8226e-12
-5.0626e-13
-4.31281e-12
-1.26011e-13
-1.10334e-12
-1.24887e-11
-2.2275e-13
-4.83924e-12
-1.57133e-11
-1.96082e-12
-9.93977e-12
-1.1911e-11
-1.31171e-11
-5.15865e-12
-5.11971e-11
-9.27563e-12
-5.27387e-12
-1.04484e-10
3.30009e-11
-6.74692e-12
-1.48221e-10
8.94837e-11
1.74758e-11
9.76406e-11
1.47084e-11
-1.68835e-11
1.17192e-10
-6.35087e-11
-8.52289e-13
5.93006e-11
-1.08208e-10
-1.07318e-12
1.66065e-13
-3.46321e-13
1.3686e-13
6.08605e-13
-2.44965e-12
-3.64721e-11
1.27402e-11
-1.56174e-11
-6.2389e-11
3.49606e-12
-4.99441e-11
-1.03335e-10
7.62873e-12
-6.4049e-11
-1.05566e-10
4.48549e-11
-3.87048e-11
-8.97264e-11
8.91552e-11
-1.18865e-11
1.14288e-10
9.04587e-12
-1.71939e-10
2.82207e-10
1.60005e-10
-6.06066e-12
4.2379e-11
-1.61447e-10
-2.44288e-12
6.11273e-13
-1.37559e-12
-1.35117e-11
1.01223e-11
-2.91724e-13
-4.51901e-11
1.54351e-11
1.68096e-11
-4.37959e-11
5.3097e-12
4.75179e-13
-2.35538e-11
1.92606e-13
-1.28783e-11
-6.15611e-11
3.44586e-12
-2.55168e-11
-6.18298e-11
8.08619e-11
-2.63999e-11
7.91628e-11
2.11908e-12
-1.81108e-10
4.77406e-10
1.39199e-10
-1.14604e-11
6.1837e-11
-1.21395e-10
-1.08341e-11
4.74362e-12
-6.2275e-12
-9.95575e-11
5.38628e-11
-1.45257e-12
-3.95641e-11
3.19128e-11
3.31513e-11
-6.40775e-12
2.56688e-12
8.6782e-12
-4.61052e-13
2.0955e-13
3.57253e-14
-6.84205e-12
-5.28712e-13
1.27121e-13
-2.99242e-11
-1.40162e-12
1.71392e-12
1.70552e-11
5.66137e-12
-1.13714e-10
5.25619e-10
1.42364e-10
-3.55705e-12
6.52623e-11
-3.43675e-11
-1.12794e-11
1.73634e-11
-7.34632e-12
-8.70548e-11
9.92291e-11
-9.89208e-13
-3.25633e-11
7.5146e-11
1.44712e-11
-1.29607e-12
1.15445e-11
1.11235e-11
-7.3752e-13
1.59229e-14
3.39516e-15
-2.09933e-13
-1.23323e-13
1.47233e-13
-1.67099e-12
-4.15016e-14
2.06407e-13
2.05497e-14
1.07884e-12
-1.08415e-11
6.06663e-10
1.3685e-10
-2.97108e-13
1.25393e-10
-4.17727e-12
-2.22372e-12
3.19583e-10
-2.51269e-10
-2.41574e-11
2.2901e-10
-1.34368e-10
-5.13059e-11
4.13199e-11
-9.4677e-12
-1.22076e-13
1.5671e-11
1.38243e-11
-1.0369e-13
1.17917e-15
-1.76953e-18
-9.97908e-15
8.96933e-16
9.40692e-15
-2.14024e-14
-7.87632e-17
1.97781e-15
6.58588e-16
3.03651e-14
8.33798e-11
1.93955e-10
5.71173e-10
1.63053e-11
-1.08563e-11
1.12989e-09
2.32338e-11
-4.55423e-10
4.99632e-10
9.51556e-13
-5.55102e-10
5.16179e-10
-1.14049e-11
-6.07004e-12
7.85092e-11
-2.39639e-15
1.80297e-11
4.96453e-12
-1.23374e-15
-4.33238e-20
2.7652e-17
-2.78056e-16
-1.02347e-18
1.22689e-17
-2.39171e-16
1.0512e-17
3.47608e-18
1.51841e-16
1.98118e-17
1.86987e-07
-3.46468e-07
5.67799e-07
4.05339e-07
-3.98761e-07
6.18204e-07
5.77095e-07
-3.4468e-07
5.80803e-07
6.82458e-07
-2.72334e-07
5.47836e-07
7.22462e-07
-2.05411e-07
5.24631e-07
6.96842e-07
-1.43242e-07
5.08885e-07
6.06843e-07
-8.86091e-08
5.03623e-07
4.56902e-07
-4.48262e-08
5.07369e-07
2.56976e-07
-1.86396e-08
5.26773e-07
-1.44503e-08
5.34712e-07
1.72422e-07
-6.76873e-07
5.57223e-07
3.92122e-07
-8.03182e-07
6.1815e-07
5.65215e-07
-6.92073e-07
5.70076e-07
6.68777e-07
-5.40607e-07
5.25711e-07
7.06341e-07
-4.03673e-07
4.94237e-07
6.79151e-07
-2.77504e-07
4.70907e-07
5.89204e-07
-1.67425e-07
4.5868e-07
4.4476e-07
-8.28118e-08
4.5838e-07
2.58262e-07
-3.86705e-08
4.79954e-07
-3.09141e-08
5.01213e-07
1.95416e-07
-1.0719e-06
7.26467e-07
4.83495e-07
-1.32733e-06
8.03522e-07
7.07666e-07
-1.14285e-06
7.18695e-07
8.34239e-07
-8.76376e-07
6.42725e-07
8.74521e-07
-6.40201e-07
5.87051e-07
8.37112e-07
-4.31069e-07
5.44485e-07
7.23935e-07
-2.48564e-07
5.16389e-07
5.45324e-07
-1.07656e-07
5.03344e-07
3.20088e-07
-2.42526e-08
5.04926e-07
2.62335e-08
4.98866e-07
2.76527e-07
-1.56367e-06
1.00094e-06
7.16042e-07
-2.02682e-06
1.16621e-06
9.9501e-07
-1.70333e-06
1.00239e-06
1.11387e-06
-1.26738e-06
8.32446e-07
1.13023e-06
-9.06208e-07
7.25149e-07
1.06487e-06
-5.9686e-07
6.54902e-07
9.13458e-07
-3.17026e-07
6.06909e-07
6.79074e-07
-8.96088e-08
5.7934e-07
3.86468e-07
7.78415e-08
5.442e-07
2.03806e-07
4.80709e-07
5.63007e-07
-2.29454e-06
1.38209e-06
1.24452e-06
-2.96086e-06
1.73666e-06
1.57034e-06
-2.34551e-06
1.5324e-06
1.62779e-06
-1.64093e-06
1.20346e-06
1.56157e-06
-1.11857e-06
9.60141e-07
1.43351e-06
-7.05909e-07
8.195e-07
1.21689e-06
-3.04126e-07
7.34149e-07
8.86068e-07
7.04561e-08
6.81818e-07
4.83795e-07
3.73542e-07
6.15866e-07
6.15275e-07
4.93636e-07
8.84879e-07
-3.31031e-06
1.60326e-06
1.68337e-06
-4.03735e-06
2.08278e-06
2.05834e-06
-3.06744e-06
1.97751e-06
2.15236e-06
-2.08457e-06
1.67174e-06
2.07062e-06
-1.34165e-06
1.35346e-06
1.87042e-06
-7.49794e-07
1.12723e-06
1.57527e-06
-2.10709e-07
9.77809e-07
1.15332e-06
3.18697e-07
8.48012e-07
6.18838e-07
8.07677e-07
6.8938e-07
1.17681e-06
5.30589e-07
9.58474e-07
-4.57027e-06
1.71073e-06
1.80695e-06
-5.28995e-06
2.3134e-06
2.22446e-06
-3.87137e-06
2.15265e-06
2.41225e-06
-2.64632e-06
1.83444e-06
2.43474e-06
-1.70161e-06
1.45614e-06
2.27582e-06
-8.87095e-07
1.08828e-06
1.92569e-06
-1.57609e-07
7.75906e-07
1.48563e-06
4.68817e-07
4.75604e-07
8.9095e-07
1.23775e-06
1.63827e-07
1.91709e-06
-2.4433e-08
1.00489e-06
-3.42185e-06
2.23826e-06
1.63931e-06
-2.35737e-06
2.57239e-06
2.27067e-06
-1.93238e-06
2.26658e-06
2.6003e-06
-1.58559e-06
1.7365e-06
2.70776e-06
-1.07618e-06
1.18872e-06
2.61237e-06
-4.96883e-07
6.43739e-07
2.31659e-06
2.83938e-08
1.02567e-07
1.70011e-06
4.73802e-07
-2.46058e-07
9.5291e-07
7.95538e-07
-4.21745e-07
1.04578e-06
-5.64427e-07
2.31543e-07
-8.66071e-12
4.89383e-07
1.09053e-07
-4.85611e-12
2.1937e-07
2.78504e-07
-3.23007e-12
2.93473e-07
4.49428e-07
-3.74846e-12
2.52659e-07
5.65791e-07
-1.05036e-11
1.85989e-07
7.08132e-07
-4.17378e-11
1.23945e-07
7.52497e-07
-2.2845e-09
4.00729e-08
7.72459e-07
-1.62292e-08
-4.6264e-08
4.72767e-07
-2.29456e-08
-1.41375e-07
1.20283e-08
-1.49122e-07
1.58732e-13
-5.75241e-12
5.23201e-13
-1.44392e-13
-4.07795e-12
-6.86875e-14
-2.3816e-13
-2.76652e-12
-2.85973e-13
-1.93427e-13
-3.16786e-12
-4.47375e-13
4.41684e-14
-9.79367e-12
-6.61234e-13
-1.10434e-11
-2.34146e-11
-7.55886e-12
-2.07011e-09
-8.90453e-11
-1.42418e-10
-9.59345e-09
-3.44514e-09
3.35563e-09
-3.31768e-08
2.06919e-10
2.11076e-09
2.85799e-09
-1.33993e-08
-9.63632e-13
-2.29117e-12
-9.68893e-13
-1.44028e-12
-1.68139e-12
-2.24414e-12
-1.50055e-12
-1.10228e-12
-2.68881e-12
-3.50012e-12
-8.98124e-13
-8.99788e-13
-1.27164e-11
-2.28232e-12
-1.20928e-12
-1.59634e-10
5.23982e-12
-1.45924e-11
-8.06497e-10
1.01499e-10
-1.52192e-12
-4.39681e-09
-9.62838e-11
1.49434e-10
-4.62692e-09
-4.47884e-13
1.39277e-10
-4.50216e-10
-1.39829e-09
-2.18195e-12
1.16178e-12
-2.46481e-12
-1.84679e-12
-3.70755e-12
2.60708e-12
-4.50443e-13
-8.00383e-13
-2.22695e-12
-1.22498e-12
-6.6036e-13
-3.03298e-13
-3.02254e-11
-1.12844e-12
8.82113e-13
-9.4788e-11
-4.3255e-12
1.18552e-11
-8.84107e-11
-8.76542e-12
3.71273e-11
-2.35152e-10
-1.4981e-14
3.62295e-11
-2.12294e-10
-3.74217e-11
-6.46505e-12
-6.12691e-11
-2.65629e-10
-5.57038e-12
-3.43583e-11
-6.95771e-12
-1.87244e-12
-1.05774e-13
-1.06891e-12
-1.63989e-12
-1.03486e-12
-4.24732e-13
-1.3582e-12
-2.13307e-12
-5.14786e-13
-5.28608e-12
1.54252e-13
-1.71029e-12
-4.22095e-12
-2.88501e-12
2.38122e-12
-2.71844e-11
-6.93658e-12
6.98295e-12
-4.05853e-11
-2.433e-11
1.31066e-11
-8.00599e-12
2.3676e-12
1.06488e-11
-6.65142e-13
9.13223e-12
-1.14252e-12
-3.93756e-12
-8.38693e-12
-1.45066e-12
4.0322e-14
-5.68386e-13
-3.11686e-12
-5.47061e-13
-3.73e-13
-4.91062e-12
-6.70769e-12
-1.53302e-12
-4.51618e-12
5.08048e-13
-2.07957e-12
-2.96172e-12
1.30788e-12
-1.47131e-11
-2.2484e-11
-1.99925e-11
1.58564e-12
-7.6827e-11
-3.14775e-11
1.24633e-12
-2.76831e-11
-1.1893e-11
2.73816e-12
1.06147e-12
4.03158e-12
2.21736e-10
-1.46937e-10
-1.80739e-12
-4.50916e-12
1.52333e-10
-1.3858e-11
-4.0969e-12
-2.82764e-13
-1.02341e-12
-1.95495e-11
-3.95281e-12
-1.09669e-12
-2.14191e-11
-2.80933e-11
-8.53275e-12
-1.79128e-11
-3.98384e-11
-1.56737e-11
-2.24217e-11
-2.29047e-11
-2.34375e-11
-4.36314e-11
-2.2089e-11
1.15392e-11
-2.01531e-11
-3.32503e-12
-4.4485e-12
1.4081e-12
2.49701e-13
2.05224e-10
-4.33015e-11
-1.3162e-12
2.61516e-12
1.30757e-10
-6.82866e-12
-7.2359e-13
2.0366e-12
-1.60961e-13
-1.2562e-11
1.77888e-13
-4.96523e-13
-4.91369e-11
-1.15124e-11
-1.05733e-11
-2.90394e-11
-2.872e-11
-2.44297e-12
-1.13102e-11
-2.02769e-13
-7.43432e-12
-2.32697e-11
1.90851e-14
-1.52035e-11
-1.54308e-11
8.95134e-12
-6.02931e-13
2.98082e-12
-1.9288e-13
4.84392e-11
2.59061e-12
-4.93782e-12
5.97951e-11
2.32228e-11
-3.69962e-13
-3.32175e-13
1.83632e-11
-1.11268e-13
-7.05039e-12
5.83745e-12
-2.20735e-13
-4.41062e-11
5.44135e-11
-4.81349e-12
-4.70449e-12
1.18518e-11
-8.82801e-12
-3.91197e-12
1.69261e-14
-9.73468e-13
-8.27176e-12
-1.97417e-13
-2.68421e-12
-5.67902e-12
-3.06932e-13
-2.7233e-12
2.36492e-12
-2.63698e-13
4.49113e-11
3.05118e-11
-7.83003e-14
2.2484e-12
8.42572e-12
-7.04188e-14
5.87019e-12
2.1711e-10
-1.71713e-11
6.86697e-12
3.0595e-10
-1.54157e-10
-3.12093e-11
1.63286e-10
-1.16285e-12
-8.33333e-14
5.97189e-11
-4.55937e-12
-5.23074e-14
9.99274e-16
-1.16246e-14
-7.92117e-14
-1.02022e-14
-1.12424e-14
-1.73069e-13
-2.23386e-15
-2.6005e-15
-2.89003e-14
-1.59557e-14
6.87935e-11
6.21669e-11
-5.26856e-15
7.06019e-11
2.50526e-12
-4.08908e-14
3.62993e-10
7.78633e-10
-5.22508e-10
6.76968e-11
1.04673e-09
-3.72049e-10
-4.18364e-11
2.27997e-10
-2.20871e-12
-2.0897e-15
7.71392e-11
1.39368e-12
-9.33242e-16
3.23433e-17
-1.89435e-16
-7.62321e-16
3.24947e-18
-9.47491e-18
-9.29546e-16
-8.44777e-18
-9.65692e-17
-7.30865e-17
-1.28856e-15
1.58645e-10
-4.64911e-16
1.77185e-10
1.34575e-10
-4.00139e-14
1.58035e-11
4.76986e-10
-7.41842e-10
6.91179e-10
7.85478e-11
-4.81666e-10
1.33274e-09
-3.99484e-11
-2.25159e-11
2.59173e-10
-5.55413e-17
1.78121e-11
5.20957e-11
-1.41813e-17
-9.98527e-18
9.55188e-19
-9.93955e-18
-3.14763e-18
5.48862e-19
-3.12814e-18
-4.56958e-18
6.21218e-19
6.08957e-17
2.39372e-17
1.72703e-07
-2.63788e-07
6.58884e-07
3.78514e-07
-3.1299e-07
7.25383e-07
5.44126e-07
-2.71098e-07
6.86289e-07
6.48579e-07
-2.09955e-07
6.53339e-07
6.92366e-07
-1.52569e-07
6.33412e-07
6.74269e-07
-9.7309e-08
6.24291e-07
5.94741e-07
-4.54221e-08
6.28573e-07
4.57993e-07
-2.48165e-10
6.44365e-07
2.65672e-07
3.29786e-08
6.86115e-07
5.43049e-08
7.01028e-07
1.56768e-07
-5.08842e-07
6.45509e-07
3.5822e-07
-6.19609e-07
7.23317e-07
5.21254e-07
-5.36975e-07
6.72919e-07
6.22883e-07
-4.13685e-07
6.27811e-07
6.64255e-07
-2.98047e-07
5.98344e-07
6.45892e-07
-1.87427e-07
5.79387e-07
5.731e-07
-8.88225e-08
5.74872e-07
4.52895e-07
-1.03428e-08
5.88679e-07
2.85015e-07
4.48377e-08
6.35975e-07
1.04965e-07
6.68523e-07
1.78104e-07
-7.87453e-07
8.26975e-07
4.27994e-07
-9.89511e-07
9.23533e-07
6.34069e-07
-8.66436e-07
8.42082e-07
7.59479e-07
-6.6375e-07
7.67381e-07
8.07228e-07
-4.72992e-07
7.14247e-07
7.82433e-07
-2.97637e-07
6.7949e-07
6.86971e-07
-1.42276e-07
6.65306e-07
5.2522e-07
-1.28731e-08
6.67624e-07
3.16117e-07
1.0674e-07
6.52127e-07
2.64783e-07
5.7111e-07
2.10393e-07
-1.09505e-06
1.09814e-06
5.50051e-07
-1.42192e-06
1.25897e-06
8.16866e-07
-1.25151e-06
1.12065e-06
9.63899e-07
-9.56872e-07
9.78534e-07
1.00914e-06
-6.76158e-07
8.83077e-07
9.66544e-07
-4.2019e-07
8.20048e-07
8.31422e-07
-1.85289e-07
7.85043e-07
6.04294e-07
3.23353e-08
7.6126e-07
3.44388e-07
2.64449e-07
6.46397e-07
5.38755e-07
4.26223e-07
3.79913e-07
-1.51016e-06
1.41728e-06
8.80945e-07
-1.93083e-06
1.74454e-06
1.19684e-06
-1.62783e-06
1.59283e-06
1.32269e-06
-1.20607e-06
1.32681e-06
1.33192e-06
-8.47975e-07
1.12273e-06
1.26024e-06
-5.33651e-07
1.00464e-06
1.07033e-06
-1.9589e-07
9.34659e-07
7.52757e-07
1.61034e-07
8.70692e-07
4.1172e-07
5.47612e-07
6.73739e-07
9.18135e-07
3.76838e-07
6.91106e-07
-2.16674e-06
1.56876e-06
1.33046e-06
-2.56952e-06
2.08218e-06
1.69516e-06
-2.07857e-06
2.06357e-06
1.83928e-06
-1.48365e-06
1.8052e-06
1.82343e-06
-9.70935e-07
1.49227e-06
1.6955e-06
-5.31518e-07
1.25303e-06
1.43828e-06
-5.04915e-08
1.08963e-06
1.00711e-06
4.96251e-07
9.43965e-07
5.12264e-07
1.01513e-06
7.1671e-07
1.46383e-06
3.71248e-07
7.92791e-07
-3.1017e-06
1.85418e-06
1.48281e-06
-3.36396e-06
2.42022e-06
1.87622e-06
-2.64673e-06
2.32851e-06
2.10301e-06
-1.92983e-06
2.0542e-06
2.18284e-06
-1.25654e-06
1.662e-06
2.14521e-06
-6.67424e-07
1.26183e-06
1.90449e-06
1.69944e-08
9.48744e-07
1.39883e-06
7.8039e-07
6.97122e-07
7.59666e-07
1.40318e-06
4.14936e-07
2.00557e-06
6.11674e-08
7.01507e-07
-2.16905e-06
2.72916e-06
1.27256e-06
-1.73249e-06
3.10237e-06
1.76122e-06
-1.55969e-06
2.62312e-06
2.04287e-06
-1.25044e-06
2.05424e-06
2.18465e-06
-8.34701e-07
1.48912e-06
2.15803e-06
-4.26351e-07
9.1632e-07
1.95546e-06
-5.03799e-08
4.36259e-07
1.5347e-06
4.40449e-07
1.32227e-07
9.0317e-07
7.95441e-07
-4.74591e-09
1.12249e-06
-2.39157e-07
1.46551e-07
-1.04604e-11
6.30358e-07
1.22425e-07
-1.09321e-11
4.91022e-07
2.59501e-07
-1.11138e-11
4.74527e-07
3.26243e-07
-8.35149e-12
3.13849e-07
4.0015e-07
-5.76753e-12
2.04047e-07
4.94217e-07
-2.31626e-10
1.43152e-07
5.73398e-07
-5.81237e-09
7.39384e-08
6.63543e-07
-9.67612e-09
2.52243e-09
4.51118e-07
-3.02909e-09
-1.12282e-07
1.3363e-09
-2.69579e-07
1.98794e-13
-6.35248e-12
6.73372e-13
-4.79071e-14
-8.23627e-12
1.4273e-13
-1.45189e-13
-9.70137e-12
-1.31195e-12
-1.5501e-13
-6.22042e-12
-2.21033e-12
-1.14457e-12
-2.44294e-12
-2.65296e-12
-2.35332e-10
-3.50511e-12
-1.10631e-12
-6.15724e-09
-4.67579e-11
-4.95459e-12
-1.25927e-08
-3.15713e-10
3.50825e-10
-2.02872e-08
-7.18282e-10
6.19873e-09
-5.7273e-09
-5.73854e-09
-1.06838e-12
-5.28853e-12
2.78685e-13
-2.60217e-12
-1.28972e-11
5.35174e-12
-2.65206e-12
-4.67774e-12
-7.43624e-12
-1.40535e-12
-8.89279e-13
-7.13455e-12
-9.10345e-12
1.96186e-12
2.47024e-12
-8.84636e-11
1.78746e-11
2.33415e-14
-1.18012e-10
-1.95561e-12
-1.11453e-12
-1.94821e-10
-3.04407e-11
2.86423e-11
-7.06907e-10
-1.02179e-10
-4.18491e-12
3.50071e-10
-3.38709e-10
-5.55172e-12
-1.26295e-12
-1.04177e-11
-3.39267e-12
-2.39768e-12
-5.16931e-11
-4.26937e-12
-1.43442e-12
-9.88067e-13
-4.70985e-13
-7.05339e-14
-4.11068e-12
-1.29494e-11
6.58053e-12
9.44605e-13
-2.22841e-11
2.51403e-11
1.09858e-12
-9.51446e-12
3.24557e-12
6.39069e-12
-2.86378e-11
-3.9615e-12
2.40015e-11
-1.03306e-10
-1.1127e-11
-3.43549e-11
8.95204e-10
-2.80709e-09
-6.5093e-13
-5.01345e-14
-6.85296e-12
-9.18264e-13
-9.03511e-13
-2.22261e-12
-6.39888e-13
-1.3038e-12
-2.7921e-13
-1.08916e-13
-4.22406e-13
-2.97501e-14
-1.47021e-11
3.1045e-12
2.5424e-12
-3.09857e-11
3.01744e-11
1.02848e-11
-1.22547e-11
1.24995e-11
1.18423e-11
-8.81124e-12
-9.40093e-12
1.29506e-11
-2.02311e-11
-2.81289e-12
1.34641e-11
-5.51365e-12
-4.65817e-14
-4.76857e-13
7.81541e-13
-9.11394e-12
-8.53487e-13
4.82612e-14
-1.64645e-12
-7.45408e-13
-1.481e-12
-1.50718e-14
-7.84394e-13
-1.20852e-12
-1.53194e-13
3.1126e-13
-3.54996e-13
-7.17551e-14
-4.89771e-11
7.03069e-12
1.68673e-12
-3.49253e-11
2.12444e-11
-1.94505e-11
-4.03545e-12
-6.90149e-12
-3.97321e-13
-1.43254e-13
-3.99848e-12
1.24135e-12
-1.04637e-13
1.24869e-13
2.73839e-13
8.75957e-13
-2.27954e-12
-3.54906e-13
1.12705e-12
-3.58015e-12
-1.07097e-12
-7.30143e-15
-5.11888e-13
-8.20419e-13
-1.01774e-12
-2.88644e-14
-2.4234e-14
-2.93092e-12
-2.47568e-13
-1.89586e-11
-1.60459e-13
-2.49005e-12
-1.14892e-11
6.72154e-15
-9.9592e-11
-3.75348e-12
-2.10106e-12
-2.95223e-11
-1.02391e-13
-3.3193e-14
-3.64878e-11
-1.54287e-14
1.02276e-14
5.69568e-12
4.94039e-12
-1.03755e-12
7.49802e-14
2.52092e-13
-3.12865e-13
5.62751e-14
1.99837e-13
-1.74139e-13
-2.78014e-12
1.07711e-13
2.36029e-12
-5.87722e-13
-5.65552e-13
-4.6726e-13
-3.49281e-12
-4.42597e-13
-1.121e-12
-2.36155e-12
-3.46694e-14
-1.21487e-11
-9.41848e-15
-3.69764e-13
-9.5158e-12
-2.30284e-15
-2.27848e-13
-3.62885e-13
-1.15984e-14
-1.81338e-13
1.14346e-13
5.38523e-14
-1.67039e-13
1.78156e-14
1.58631e-14
-3.42757e-14
7.37206e-14
2.43696e-12
-2.38417e-12
-2.71449e-13
1.41241e-11
-1.35544e-11
-3.16497e-12
5.22911e-13
-4.43028e-14
-1.74714e-12
1.24963e-12
-9.86732e-13
-1.80429e-12
9.10835e-14
-1.47396e-13
-2.26474e-13
3.41806e-13
-1.91234e-12
-4.0992e-15
1.53873e-13
7.12788e-13
-4.26018e-16
-2.95689e-13
2.44892e-15
1.51692e-15
-2.97439e-14
7.15228e-14
5.42785e-15
-1.30465e-13
7.10755e-11
2.4799e-10
-1.01743e-10
-6.75606e-13
8.39687e-10
-1.03092e-10
-1.40017e-12
8.48945e-14
-3.37986e-15
-4.50066e-14
3.5967e-13
-2.09961e-13
-2.61755e-14
-1.35352e-15
1.96154e-14
-5.90354e-15
3.15279e-15
2.31285e-13
-9.7626e-16
3.25286e-15
1.55555e-13
4.83438e-15
-8.41243e-14
1.00202e-15
1.05181e-15
-7.0466e-15
7.07943e-13
1.87198e-14
-7.62454e-13
1.87116e-10
4.48259e-10
-2.91689e-10
-2.31971e-11
1.04104e-09
-2.9902e-10
-5.65645e-13
1.58025e-11
-1.83336e-15
-7.44218e-16
1.17306e-13
-1.05708e-14
-3.00369e-15
9.34061e-16
-1.39327e-16
-1.00243e-15
6.67213e-16
1.2149e-16
-4.00658e-16
8.52694e-16
-3.90465e-16
1.17313e-14
2.45103e-14
1.0572e-15
-3.11384e-15
1.38744e-15
5.67472e-13
-6.09623e-13
2.06585e-14
4.3634e-11
-3.25679e-10
2.23959e-10
-9.1296e-11
-2.85232e-10
1.02492e-09
-1.72723e-11
-2.03708e-15
4.693e-10
-4.98868e-15
-1.06063e-14
6.72588e-13
-1.57348e-16
-4.01021e-15
1.0396e-16
-2.51737e-17
5.03826e-16
1.46226e-17
-1.1705e-17
-5.05292e-15
4.44535e-17
-9.64815e-15
1.8361e-14
1.59127e-07
-1.82443e-07
6.822e-07
3.57369e-07
-2.34459e-07
7.61599e-07
5.21247e-07
-2.03213e-07
7.25624e-07
6.28842e-07
-1.5138e-07
6.97124e-07
6.78953e-07
-1.02377e-07
6.85679e-07
6.71968e-07
-5.34773e-08
6.84753e-07
6.06664e-07
-3.89306e-09
6.9777e-07
4.82281e-07
4.77988e-08
7.20948e-07
2.88956e-07
1.00167e-07
7.79273e-07
1.74413e-07