/*--------------------------------*- C++ -*----------------------------------*\
| =========                 |                                                 |
| \\      /  F ield         | OpenFOAM: The Open Source CFD Toolbox           |
|  \\    /   O peration     | Version:  2312                                  |
|   \\  /    A nd           | Website:  www.openfoam.com                      |
|    \\/     M anipulation  |                                                 |
\*---------------------------------------------------------------------------*/
FoamFile
{
    version     2.0;
    format      ascii;
    arch        "LSB;label=32;scalar=64";
    class       volScalarField;
    location    "0.425";
    object      p_rgh;
}
// * * * * * * * * * * * * * * * * * * * * * * * * * * * * * * * * * * * * * //

dimensions      [1 -1 -2 0 0 0 0];

internalField   nonuniform List<scalar> 
8000
(
415.283
415.176
415.099
415.129
415.27
415.532
415.887
416.281
416.639
416.895
415.162
414.994
414.886
414.9
415.045
415.33
415.721
416.161
416.557
416.833
414.524
414.33
414.211
414.254
414.481
414.87
415.362
415.89
416.357
416.673
412.925
412.755
412.799
413.085
413.587
414.215
414.925
415.639
416.243
416.632
410.24
409.993
410.215
410.915
412.031
413.175
414.287
415.308
416.131
416.615
407.607
406.849
406.559
407.757
409.82
411.947
413.948
415.634
416.997
417.67
381.013
377.784
375.43
389.712
405.771
410.336
413.843
416.544
418.765
420.114
221.369
194.807
189.566
245.87
311.062
371.746
402.056
415.026
422.159
424.694
23.586
13.2172
10.3585
40.8784
120.089
211.668
295.352
350.05
378.054
391.08
3.94205
2.29878
1.0594
0.621558
0.240698
9.30493
36.4655
72.9223
106.257
125.061
1.43959
0.86699
0.19725
-0.0337764
-0.0655713
-0.0464295
-8.35409e-05
0.0407871
0.066724
0.0715388
0.633724
0.365817
0.0599926
-0.0567875
-0.0545399
-0.0288226
0.0205172
0.0627844
0.0726593
0.0685168
0.438163
0.234504
0.0811221
0.0219426
0.0190154
0.0332721
0.0568454
0.0802418
0.0851524
0.0792761
0.40021
0.165313
0.137941
0.114088
0.0977871
0.0930141
0.0942598
0.0967071
0.0976521
0.0935755
0.420661
0.144718
0.17613
0.164469
0.143578
0.13018
0.124889
0.123253
0.12169
0.118518
0.39622
0.156758
0.19231
0.177001
0.172347
0.162385
0.156128
0.144211
0.143386
0.143765
0.388545
0.164181
0.18655
0.187123
0.187706
0.178826
0.168989
0.152975
0.150786
0.151286
0.42027
0.163066
0.172177
0.175317
0.177162
0.162086
0.154658
0.151965
0.150546
0.150467
0.433493
0.256887
0.155647
0.152609
0.153144
0.152212
0.151314
0.150907
0.151001
0.151339
0.407998
0.388342
0.232153
0.137878
0.143841
0.147189
0.148708
0.149716
0.150591
0.151153
415.168
415.058
414.987
415.031
415.187
415.469
415.842
416.252
416.634
416.909
414.988
414.811
414.709
414.74
414.9
415.201
415.613
416.073
416.49
416.785
414.327
414.104
413.978
414.029
414.253
414.637
415.13
415.67
416.161
416.505
412.747
412.508
412.508
412.749
413.186
413.747
414.412
415.113
415.717
416.124
409.972
409.782
409.945
410.482
411.353
412.262
413.21
414.159
414.971
415.496
406.734
406.69
406.493
407.209
408.643
410.094
411.574
413.038
414.313
415.083
378.257
378.012
381.146
394.944
404.262
407.175
409.613
411.827
413.673
414.684
192.413
196.563
208.244
257.367
322.424
370.339
392.538
405.619
413.645
414.956
11.9901
11.4556
12.7078
28.624
52.1079
87.1136
130.596
167.042
194.565
210.759
1.9506
1.38668
0.597983
0.168479
0.0878698
0.137891
1.16365
9.55725
16.5002
19.6923
0.571343
0.437826
0.0252412
-0.163639
-0.10626
-0.019715
0.0314394
0.0336966
0.0378963
0.0416761
0.302232
0.215038
0.0204975
-0.126868
-0.107604
-0.0258532
0.0392646
0.0533904
0.0473562
0.0559243
0.350564
0.182573
0.101747
0.0242844
0.000787958
0.0289144
0.0716945
0.0667519
0.0582549
0.0518011
0.366807
0.163271
0.229405
0.200686
0.12562
0.101041
0.0974747
0.0913841
0.0726968
0.0778029
0.411602
0.176249
0.290991
0.265691
0.182683
0.137986
0.131586
0.116549
0.113642
0.123548
0.43284
0.180951
0.275291
0.245283
0.17547
0.154589
0.152861
0.140742
0.143993
0.145844
0.433435
0.170274
0.249145
0.23287
0.174462
0.169255
0.16591
0.154884
0.151324
0.149658
0.402845
0.161134
0.225895
0.169714
0.166462
0.160746
0.156955
0.15427
0.152339
0.152135
0.360128
0.207344
0.159829
0.148828
0.149926
0.152083
0.152433
0.152098
0.152322
0.152601
0.271863
0.370049
0.143236
0.133092
0.13951
0.145275
0.148505
0.150003
0.15115
0.151705
415.073
414.969
414.905
414.962
415.141
415.456
415.872
416.337
416.767
417.086
414.867
414.694
414.59
414.622
414.79
415.117
415.572
416.084
416.551
416.893
414.201
413.971
413.823
413.849
414.048
414.424
414.937
415.523
416.062
416.453
412.807
412.513
412.405
412.514
412.796
413.252
413.884
414.594
415.234
415.691
410.256
409.956
409.897
410.161
410.671
411.297
412.114
413.024
413.866
414.442
406.592
406.407
406.407
406.704
407.331
408.138
409.3
410.637
411.882
412.659
377.566
381.404
391.926
400.847
402.799
404.425
406.061
407.756
409.063
409.726
197.965
208.058
237.963
280.902
321.581
344.331
356.992
368.596
379.209
386.197
11.8234
11.9242
18.985
26.4672
33.8832
42.3576
50.2607
58.443
65.8948
68.1806
1.06396
0.528333
0.159659
0.00418248
0.0751945
0.13404
0.161515
0.178249
0.193334
0.248299
0.174859
0.0119164
-0.162649
-0.153305
-0.0458718
0.0541462
0.108951
0.126938
0.127958
0.131475
0.0893184
-0.0249871
-0.0560298
-0.0931783
-0.0418854
0.0434046
0.0846076
0.096559
0.100258
0.11268
0.279325
0.103884
0.115903
0.0675082
0.0631091
0.086204
0.100325
0.0838822
0.0840708
0.110648
0.360183
0.170085
0.206414
0.213231
0.146695
0.110062
0.107307
0.092946
0.0996682
0.110023
0.377782
0.188312
0.216401
0.238107
0.150561
0.127402
0.123402
0.117647
0.12309
0.120813
0.2602
0.182447
0.183185
0.225158
0.152099
0.144364
0.143644
0.141749
0.140827
0.139743
0.194764
0.158978
0.169635
0.198495
0.160232
0.156243
0.155498
0.153315
0.150483
0.149165
0.174933
0.151738
0.170232
0.164647
0.155635
0.155051
0.154767
0.153614
0.153024
0.152726
0.175809
0.142808
0.165473
0.150414
0.146141
0.149304
0.150934
0.151705
0.152521
0.152781
0.218331
0.133706
0.148715
0.138093
0.138227
0.143667
0.147422
0.149592
0.151206
0.151742
415.07
414.979
414.928
415.008
415.226
415.597
416.092
416.649
417.156
417.541
414.851
414.696
414.592
414.629
414.824
415.206
415.74
416.345
416.896
417.313
414.227
414.001
413.827
413.823
414.006
414.401
414.976
415.656
416.293
416.788
413.098
412.75
412.504
412.444
412.586
412.987
413.637
414.403
415.153
415.762
411.009
410.508
410.162
410.052
410.184
410.576
411.302
412.196
413.14
413.887
407.859
407.151
406.659
406.252
406.155
406.492
407.423
408.61
409.909
410.754
392.608
394.269
400.695
400.771
401.102
401.788
402.917
404.723
405.386
405.716
251.492
256.873
279.286
303.648
312.113
311.664
314.374
323.103
331.141
335.087
45.8938
30.2994
26.8237
23.6115
20.7328
18.8472
18.8047
21.4445
22.3293
20.4338
0.647306
0.211357
0.0539759
0.0225442
0.078569
0.113936
0.137474
0.163084
0.186681
0.200007
-0.000415034
-0.110857
-0.107804
-0.0634816
0.0239565
0.0823148
0.114628
0.134469
0.149267
0.156585
-0.0258157
-0.0945727
-0.0822772
-0.0344833
0.0246423
0.0739556
0.0975773
0.111964
0.122992
0.129902
0.141233
0.0350762
0.0501127
0.0645685
0.0792779
0.0887898
0.0905979
0.095167
0.104046
0.112686
0.320228
0.209
0.127635
0.128373
0.116757
0.104975
0.0997285
0.0979056
0.106243
0.108661
0.199682
0.229212
0.154047
0.139677
0.134082
0.125918
0.120661
0.119073
0.121616
0.12137
0.138048
0.153319
0.152778
0.155494
0.154028
0.146505
0.142316
0.141413
0.139557
0.138873
0.146644
0.152623
0.157657
0.166587
0.160388
0.154241
0.152089
0.150736
0.150143
0.149661
0.14596
0.148517
0.154199
0.160616
0.155119
0.1531
0.152476
0.152127
0.152929
0.153031
0.135862
0.134553
0.140882
0.148534
0.148202
0.149582
0.150132
0.150891
0.152543
0.152881
0.148128
0.123895
0.131205
0.139198
0.141685
0.144869
0.147122
0.148978
0.151207
0.151617
415.157
415.081
415.051
415.168
415.447
415.916
416.537
417.224
417.832
418.313
414.946
414.805
414.708
414.77
415.024
415.503
416.168
416.915
417.596
418.144
414.418
414.187
413.985
413.961
414.167
414.639
415.345
416.182
417.015
417.723
413.577
413.164
412.758
412.552
412.626
413.044
413.792
414.74
415.76
416.671
412.129
411.393
410.668
410.164
410.002
410.273
411.027
412.12
413.339
414.406
409.951
408.696
407.321
406.147
405.495
405.456
406.5
407.789
409.113
410.077
406.301
404.347
402.62
400.952
400.176
400.477
400.296
400.6
401.174
401.399
313.951
322.246
320.822
310.829
297.572
285.691
283.429
281.211
274.674
264.961
128.569
55.6755
34.8818
21.0141
11.4662
6.681
6.08309
6.43427
4.53365
2.74142
0.260568
0.130138
0.087981
0.0828775
0.110376
0.131727
0.152064
0.171121
0.179146
0.18134
-0.0230415
-0.0353879
-0.0078077
0.0288602
0.0756944
0.112787
0.139651
0.157729
0.167801
0.173437
-0.019819
-0.0491763
-0.020114
0.0198878
0.0649939
0.100171
0.12432
0.139109
0.146366
0.149743
0.0249975
0.0120626
0.0398764
0.0608477
0.0835468
0.103159
0.116406
0.12499
0.130169
0.133234
0.0899516
0.126711
0.102621
0.0946836
0.105339
0.115899
0.120337
0.12283
0.126223
0.12977
0.107267
0.162002
0.135288
0.121528
0.13019
0.134951
0.1337
0.132995
0.134688
0.135695
0.130017
0.146056
0.153391
0.150263
0.152349
0.149629
0.145753
0.144395
0.145479
0.145063
0.141179
0.151284
0.160368
0.160647
0.158437
0.154382
0.150785
0.149731
0.151533
0.151643
0.143761
0.150366
0.153071
0.153641
0.15556
0.15345
0.150984
0.150782
0.153567
0.154364
0.137694
0.138301
0.14058
0.146157
0.149907
0.149744
0.148914
0.149773
0.152783
0.153996
0.128195
0.127465
0.133645
0.140826
0.142415
0.144611
0.146052
0.147948
0.150998
0.152004
415.348
415.288
415.284
415.452
415.822
416.425
417.205
418.045
418.77
419.426
415.16
415.033
414.957
415.066
415.411
416.031
416.869
417.799
418.655
419.448
414.744
414.505
414.288
414.276
414.553
415.159
416.064
417.139
418.238
419.284
414.154
413.668
413.149
412.877
412.961
413.493
414.473
415.758
417.166
418.492
413.243
412.275
411.247
410.493
410.202
410.544
411.578
413.096
414.77
416.14
412.154
410.216
408.152
406.489
405.488
405.702
406.728
408.355
410.222
411.652
410.829
407.362
404.187
401.511
400.599
398.527
397.582
396.907
395.51
392.353
369.764
370.451
343.773
310.024
285.328
268.469
254.603
222.27
186.46
158.279
218.358
93.1014
43.8151
19.163
6.88149
1.68793
0.293117
0.303292
0.301242
0.48718
9.97796
0.110928
0.111342
0.12519
0.136998
0.159482
0.191057
0.210196
0.173129
0.177364
-0.00118806
0.00149811
0.0464099
0.0789307
0.112549
0.138701
0.163285
0.182506
0.189654
0.203207
-0.00678758
0.00488477
0.0122473
0.0532401
0.0941239
0.123263
0.144769
0.159898
0.164983
0.176404
0.0298567
0.0222741
0.0438307
0.0662907
0.0944584
0.118878
0.134458
0.145231
0.148343
0.152853
0.0695413
0.0705725
0.101203
0.104172
0.10931
0.125657
0.134765
0.140655
0.14285
0.140114
0.101748
0.115773
0.143275
0.136427
0.131719
0.138465
0.140566
0.142579
0.145093
0.13905
0.126162
0.141015
0.15732
0.153591
0.148469
0.148144
0.145775
0.146048
0.149737
0.146377
0.138668
0.151297
0.161243
0.157109
0.15342
0.151494
0.147927
0.148128
0.152617
0.153303
0.142228
0.150859
0.153199
0.151189
0.151878
0.1505
0.147803
0.148766
0.153247
0.155589
0.139483
0.141994
0.143382
0.14577
0.146899
0.147112
0.146227
0.147894
0.151647
0.153353
0.135523
0.135119
0.136831
0.141087
0.142225
0.143334
0.144056
0.146207
0.148991
0.14855
415.612
415.564
415.588
415.825
416.305
417.055
417.991
418.963
419.799
420.749
415.461
415.349
415.307
415.478
415.936
416.716
417.743
418.843
419.829
420.959
415.146
414.901
414.694
414.729
415.116
415.907
417.072
418.397
419.686
421.159
414.781
414.237
413.673
413.397
413.564
414.317
415.688
417.409
419.182
421.011
414.287
413.139
411.963
411.095
410.824
411.441
413.062
415.396
417.748
419.81
414.18
411.668
409.27
407.341
406.365
406.604
408.341
411.437
414.639
417.164
414.548
409.8
405.756
402.478
399.717
397.171
395.737
393.902
390.525
384.738
400.467
392.631
357.012
313.364
281.263
253.561
215.702
172.105
135.077
115.698
298.867
134.874
51.533
18.8353
5.81817
0.296333
0.290226
0.283617
0.449529
1.7542
35.7692
2.36433
0.155378
0.17466
0.172408
0.200069
0.210754
0.191737
0.13912
0.197558
0.0353669
0.0280492
0.139907
0.13845
0.154485
0.167865
0.186072
0.201982
0.210436
0.179806
0.0317768
0.0489488
0.0486638
0.0947092
0.135762
0.146693
0.163317
0.174692
0.176436
0.16511
0.0465497
0.0510535
0.0525014
0.0802285
0.115443
0.133931
0.147365
0.156605
0.15784
0.141162
0.0734002
0.0613739
0.0874704
0.100945
0.117722
0.1329
0.140465
0.14706
0.148286
0.129196
0.105824
0.109661
0.122493
0.126521
0.131951
0.139102
0.139323
0.143244
0.147206
0.128181
0.127863
0.13563
0.142834
0.143369
0.143752
0.145247
0.140756
0.142333
0.14961
0.143315
0.136903
0.144379
0.149787
0.14836
0.150368
0.185329
0.141488
0.142729
0.150628
0.150394
0.139144
0.144913
0.14656
0.146018
0.151135
0.250754
0.153947
0.143781
0.149938
0.156518
0.13857
0.140606
0.141775
0.142759
0.150032
0.283647
0.180174
0.143934
0.148582
0.164222
0.136948
0.137522
0.138446
0.139808
0.145187
0.266433
0.199436
0.143293
0.147125
0.193271
415.898
415.862
415.929
416.229
416.808
417.676
418.716
419.812
420.603
421.866
415.791
415.695
415.683
415.924
416.491
417.415
418.589
419.846
420.84
422.142
415.561
415.316
415.141
415.239
415.745
416.732
418.125
419.657
420.978
422.632
415.382
414.814
414.236
413.989
414.291
415.332
417.111
419.182
421.024
423.114
415.19
413.956
412.726
411.825
411.692
412.707
415.12
418.322
421.073
423.641
415.791
413.02
410.483
408.376
407.426
408.057
411.219
416.292
420.304
423.716
417.268
411.963
407.427
404.218
399.908
396.341
393.841
399.148
408.455
413.474
416.42
405.623
368.392
319.563
274.4
219.212
175.056
184.553
258.47
291.999
352.958
168.596
58.7045
19.5132
4.73463
0.312861
0.296437
0.415515
27.9005
103.069
72.1909
11.6619
0.21115
0.214955
0.210389
0.231579
0.19999
0.174439
0.141232
44.1215
0.0660397
0.0394008
0.239667
0.31248
0.350363
0.277456
0.210269
0.217663
0.22127
14.1729
0.0394977
0.0230718
0.0963368
0.293477
0.396522
0.393939
0.20494
0.190182
0.194503
0.196238
0.0488309
0.0303426
0.0669757
0.0975143
0.306954
0.2339
0.203269
0.175943
0.195514
0.189853
0.0726204
0.053063
0.0834862
0.107339
0.122554
0.167657
0.196854
0.156661
0.223579
0.115575
0.102042
0.098504
0.108876
0.12265
0.133239
0.377253
0.270991
0.140254
0.177869
0.0958129
0.125967
0.127597
0.129979
0.134909
0.138816
0.801666
0.356701
0.132198
0.147474
0.137098
0.136862
0.137819
0.139273
0.139927
0.142246
0.930732
0.367406
0.129748
0.147897
0.224449
0.136433
0.139016
0.140524
0.140115
0.201889
0.980854
0.361911
0.133114
0.145628
0.366621
0.137104
0.138145
0.139287
0.138853
0.310158
1.02443
0.291793
0.135122
0.150254
0.987889
0.136981
0.137348
0.13811
0.137555
0.309761
1.06951
0.232709
0.135055
0.152063
1.41927
416.144
416.12
416.218
416.564
417.201
418.129
419.228
420.31
421.411
422.479
416.073
415.985
416.005
416.297
416.94
417.964
419.165
420.319
421.375
422.31
415.909
415.682
415.528
415.684
416.321
417.463
418.855
420.192
421.224
422.271
415.86
415.281
414.716
414.538
415.034
416.311
418.158
419.915
420.917
422.024
415.862
414.607
413.398
412.552
412.615
413.95
416.683
419.582
420.087
420.488
416.96
414.123
411.54
409.411
408.477
409.607
413.725
418.448
416.965
415.75
419.215
413.629
408.631
404.869
400.197
393.614
390.703
407.686
407.474
405.81
423.965
413.568
377.906
322.01
253.138
173.493
142.243
292.219
401.371
401.332
379.93
195.683
64.2544
17.4604
1.20101
0.318744
0.466083
37.9012
347.278
423.137
108.121
17.938
0.220806
0.235663
0.236615
0.203197
0.164158
0.133933
93.3689
428.126
0.0722013
0.0470604
0.146244
0.324484
0.281296
0.222111
0.230035
0.241789
12.9024
280.898
0.0498434
0.034631
0.191475
0.38321
0.420361
0.236862
0.201973
0.204331
0.280328
187.827
0.0538931
0.0406727
0.0857763
0.129543
0.489957
0.882958
0.707969
0.237774
0.205794
99.8616
0.0695034
0.0547862
0.092849
0.115905
0.377988
1.52835
1.5323
0.473567
0.187764
22.0791
0.0992446
0.0902346
0.107618
0.122215
0.147974
1.5497
1.61039
0.58372
0.169081
1.62122
0.126761
0.124631
0.124188
0.129639
0.130054
0.44683
1.69778
0.415356
0.152279
1.39211
0.138338
0.133911
0.133139
0.133906
0.134141
0.399461
1.32294
0.109248
0.138122
1.76745
0.134221
0.135217
0.136366
0.135308
0.136386
0.648191
0.248018
0.123308
0.13863
0.759667
0.135692
0.136295
0.136927
0.135436
0.191488
0.847496
0.621045
0.132403
0.144992
0.170962
0.136308
0.136529
0.136947
0.135571
0.21881
0.729257
0.918654
0.140969
0.152189
0.123571
416.292
416.277
416.396
416.773
417.452
418.469
419.705
420.808
421.503
419.832
416.241
416.159
416.202
416.53
417.244
418.423
419.804
420.983
421.7
413.974
416.108
415.898
415.764
415.983
416.772
418.165
419.804
421.112
421.426
407.725
416.122
415.55
415.015
414.95
415.696
417.315
419.418
421.06
420.825
405.155
416.198
414.992
413.825
413.119
413.501
415.214
418.291
420.88
418.931
398.167
417.43
414.725
412.185
410.142
409.497
411.193
416.113
420.082
413.31
368.116
420.242
414.454
409.27
405.757
400.069
387.824
385.966
411.402
400.12
341.912
425.52
414.595
384.532
321.308
226.99
134.652
129.891
356.923
395.955
333.734
392.579
210.927
62.4939
13.3302
0.40029
0.64019
1.89221
166.996
418.372
385.909
129.784
20.1832
0.343045
0.223784
0.249479
0.251875
0.251292
77.6385
456.656
457.689
0.0621222
0.0458542
0.145413
0.172622
0.214897
0.233641
0.222908
37.9931
370.53
459.369
0.0590205
0.0561247
0.121244
0.142309
0.16508
0.184896
0.201189
1.74585
221.155
560.287
0.0607993
0.0509843
0.0980621
0.119417
0.152112
0.389421
0.319797
0.231276
74.4987
585.644
0.0683639
0.0642346
0.098478
0.114977
0.220643
1.05853
0.920265
0.303841
17.8822
269.676
0.0992703
0.0952628
0.10923
0.121494
0.150919
0.959361
1.16093
0.782087
8.37103
5.65809
0.125437
0.118939
0.1212
0.128406
0.131535
0.155932
0.199844
3.34134
9.92106
3.19378
0.133131
0.130127
0.130959
0.132341
0.133933
0.124513
0.163754
7.21968
12.4078
8.04832
0.133215
0.133971
0.134684
0.13386
0.13522
0.124291
0.34289
8.73099
11.1321
8.80597
0.135191
0.135586
0.135641
0.134426
0.136331
0.123984
0.559486
4.20809
3.39968
2.7964
0.135929
0.136041
0.136003
0.134883
0.133926
0.125795
0.523427
0.690347
0.171487
1.17114
416.302
416.291
416.418
416.806
417.496
418.519
419.736
420.823
421.841
419.971
416.249
416.172
416.223
416.566
417.292
418.471
419.827
420.939
421.803
414.297
416.114
415.91
415.786
416.024
416.828
418.227
419.824
421.019
421.534
408.241
416.122
415.559
415.042
415.009
415.792
417.428
419.453
420.908
420.904
405.151
416.192
415.002
413.869
413.225
413.689
415.489
418.498
420.644
418.867
398.099
417.416
414.754
412.261
410.312
409.816
411.798
416.836
419.79
409.564
369.714
420.272
414.532
409.439
405.924
399.916
388.589
390.749
411.643
393.22
339.813
425.554
414.661
386.593
320.025
220.817
134.562
144.048
371.663
392.544
332.889
392.549
212.453
63.318
13.258
0.420559
0.755259
2.23251
185.291
420.02
390.64
129.009
20.7428
0.290057
0.226228
0.252077
0.24859
0.219514
60.5458
429.003
427.447
0.0683717
0.0431246
0.141685
0.176498
0.21626
0.210336
0.129711
13.6699
286.07
496.079
0.0570898
0.0431217
0.115699
0.137988
0.166541
0.163851
0.100472
0.055675
164.744
556.938
0.0637198
0.0368282
0.0939881
0.117843
0.139098
0.135666
0.110236
0.0977424
140.138
591.811
0.0715606
0.057294
0.106709
0.117491
0.130855
0.120898
0.0956525
0.115019
156.685
635.383
0.0959336
0.096161
0.106073
0.12369
0.132416
0.117702
0.0866772
0.116437
170.535
569.8
0.122902
0.119452
0.121353
0.130676
0.134032
0.11896
0.0930111
0.117604
91.27
351.646
0.132472
0.130588
0.131817
0.134075
0.133028
0.118423
0.100122
0.0887129
16.9898
159.983
0.134071
0.134733
0.135128
0.133952
0.130789
0.113959
0.0926729
0.0734586
0.0761479
58.3381
0.135462
0.135932
0.135539
0.133497
0.129352
0.111294
0.0923114
0.0901167
0.104529
14.7149
0.135885
0.135944
0.135489
0.133399
0.129797
0.115533
0.105282
0.117403
0.554674
4.51379
416.173
416.162
416.285
416.669
417.357
418.362
419.575
420.867
422.167
423.882
416.097
416.023
416.07
416.405
417.106
418.211
419.548
420.919
422.326
423.537
415.923
415.715
415.594
415.8
416.501
417.73
419.269
420.86
422.521
423.909
415.858
415.305
414.785
414.672
415.242
416.588
418.526
420.593
422.581
424.319
415.829
414.618
413.483
412.729
412.874
414.237
416.933
420.062
422.127
423.675
416.843
414.154
411.687
409.657
408.755
409.849
413.695
418.581
419.607
419.87
419.319
413.72
408.792
404.996
400.243
394.87
393.988
407.962
409.998
411.111
423.701
413.657
382.149
324.924
258.061
186.709
159.02
284.689
399.02
407.672
378.303
198.193
64.9071
18.3796
2.02588
0.359919
0.498642
25.2891
261.252
424.487
108.081
17.9138
0.18991
0.205466
0.213407
0.203845
0.141414
0.0905936
40.9715
343.97
0.0659848
0.0372375
0.120135
0.15046
0.175189
0.186568
0.16647
0.154742
6.20678
219.104
0.0565466
0.0176215
0.0924658
0.117149
0.138253
0.146395
0.149579
0.137083
0.109161
128.076
0.0716639
0.0534353
0.0917963
0.104321
0.119076
0.126357
0.158567
0.135304
0.133207
53.7444
0.0812165
0.075578
0.108408
0.108571
0.116058
0.119452
0.134614
0.133361
0.151755
13.2587
0.101908
0.105387
0.113444
0.116803
0.120923
0.116765
0.112159
0.137731
0.106927
0.396613
0.125111
0.119859
0.123947
0.128213
0.127051
0.116546
0.108441
0.125494
0.0574776
0.044816
0.137283
0.135146
0.13442
0.133979
0.129303
0.117348
0.109886
0.0905555
0.047152
-0.0827001
0.137108
0.137272
0.136943
0.134239
0.129234
0.119414
0.109675
0.0957341
0.0783985
0.0200269
0.135861
0.136827
0.136105
0.133745
0.129493
0.12186
0.115137
0.112022
0.114307
0.102526
0.135799
0.136063
0.13553
0.133858
0.131205
0.126547
0.121906
0.126737
0.133093
0.143409
415.937
415.921
416.028
416.385
417.043
418.017
419.203
420.511
421.553
423.128
415.82
415.748
415.778
416.082
416.734
417.774
419.114
420.601
421.954
423.623
415.573
415.355
415.232
415.404
416.006
417.119
418.695
420.502
422.422
424.549
415.367
414.834
414.322
414.166
414.581
415.751
417.705
420.149
422.952
425.836
415.139
413.951
412.815
412.038
412.04
413.166
415.662
419.269
423.415
427.356
415.727
413.025
410.618
408.658
407.809
408.504
411.551
416.875
422.978
428.491
417.353
411.991
407.483
404.259
400.233
397.807
396.885
400.334
410.491
416.754
416.123
406.781
371.789
325.382
287.021
246.481
204.048
193.191
233.809
255.498
349.864
170.376
60.2037
21.9428
7.81473
0.351638
0.35813
0.440037
12.021
80.6388
72.0316
11.4028
0.156089
0.166733
0.171246
0.201021
0.205288
0.161487
0.148984
28.0727
0.0475083
0.0260318
0.0956824
0.11698
0.146181
0.167739
0.176568
0.170503
0.161546
4.30195
0.0553765
0.0220567
0.0698784
0.0941004
0.123092
0.141846
0.149222
0.150568
0.167653
0.147097
0.0756167
0.0510518
0.083971
0.104471
0.114612
0.129733
0.134269
0.141674
0.273651
0.163158
0.0871083
0.0866251
0.122815
0.12677
0.118911
0.127566
0.128401
0.135788
0.210768
0.140592
0.106243
0.124381
0.146244
0.134271
0.127356
0.129295
0.126528
0.131908
0.132317
2.99142
0.125473
0.134216
0.141953
0.137357
0.134248
0.13064
0.125419
0.126553
0.24103
6.54092
0.138284
0.136887
0.141174
0.140429
0.135878
0.130297
0.123455
0.118139
0.304565
3.03764
0.137837
0.140304
0.14128
0.138616
0.135125
0.129523
0.1226
0.11508
0.13974
0.045758
0.136699
0.138448
0.138072
0.136333
0.134164
0.129965
0.124969
0.120527
0.112123
0.172894
0.135756
0.136268
0.136035
0.135144
0.134138
0.131787
0.129308
0.128297
0.124931
0.24855
415.65
415.629
415.709
416.015
416.592
417.469
418.569
419.763
420.841
422.037
415.483
415.399
415.408
415.663
416.227
417.142
418.349
419.694
420.987
422.403
415.139
414.927
414.785
414.916
415.421
416.358
417.72
419.341
421.101
422.927
414.728
414.224
413.744
413.583
413.893
414.803
416.378
418.471
420.931
423.337
414.174
413.075
412.017
411.309
411.22
411.994
413.784
416.517
419.817
422.801
414.037
411.56
409.314
407.586
406.812
407.17
408.943
412.339
416.712
420.295
414.444
409.598
405.684
402.529
399.975
398.058
397.266
396.53
395.257
392.452
398.818
391.841
358.902
319.109
291.667
271.793
242.245
192.003
147.788
128.082
294.827
135.464
53.009
20.9256
8.39696
3.04774
0.349673
0.334175
0.577726
2.41001
34.9187
2.32123
0.117998
0.120411
0.136069
0.164427
0.203868
0.191857
0.139092
0.255574
0.0117888
0.0131497
0.0629683
0.0794549
0.112042
0.139309
0.163252
0.175131
0.170963
0.131094
0.0330047
0.0213061
0.0446427
0.0701118
0.0972101
0.120302
0.138924
0.14836
0.154457
0.11639
0.062951
0.0459421
0.0649434
0.0876222
0.101796
0.115819
0.128848
0.135578
0.15037
0.11734
0.0820611
0.0720037
0.100884
0.115438
0.115788
0.121392
0.128535
0.132877
0.144202
0.129426
0.10298
0.0994094
0.134957
0.140964
0.129529
0.129213
0.130274
0.132161
0.169978
0.380294
0.123001
0.130073
0.149402
0.146791
0.138483
0.133516
0.130437
0.129205
0.25011
1.31976
0.134885
0.140756
0.146442
0.145665
0.139686
0.133787
0.129006
0.124809
0.238707
1.81468
0.137036
0.141306
0.143953
0.141683
0.137398
0.132929
0.128386
0.123656
0.138943
0.592357
0.13611
0.138298
0.138557
0.137155
0.135334
0.132626
0.129539
0.126205
0.118901
0.110732
0.134343
0.134739
0.134902
0.134721
0.134191
0.133088
0.131749
0.13055
0.127613
0.125798
415.376
415.344
415.398
415.648
416.126
416.861
417.801
418.833
419.755
420.593
415.164
415.068
415.053
415.253
415.713
416.473
417.485
418.63
419.726
420.733
414.702
414.498
414.355
414.451
414.86
415.618
416.711
418.042
419.461
420.768
414.039
413.595
413.172
413.034
413.274
413.973
415.153
416.741
418.579
420.283
413.035
412.107
411.211
410.647
410.589
411.088
412.301
414.144
416.382
418.334
411.841
409.914
408.028
406.626
406.017
406.265
407.355
409.253
411.776
413.802
410.319
406.797
403.874
401.369
400.098
398.723
398.06
397.971
398.178
397.635
367.487
367.177
343.533
314.377
292.948
278.306
266.742
236.247
205.331
190.692
212.081
92.1619
45.0818
21.2767
9.13993
4.54804
2.37598
0.345881
0.389498
0.687518
9.11009
0.136433
0.0794428
0.0758467
0.103489
0.13009
0.163577
0.195069
0.181859
0.179822
-0.0144996
-0.0134811
0.00783459
0.0349846
0.0789925
0.112711
0.141264
0.162081
0.165377
0.169573
0.0137158
-0.00093456
0.0045597
0.037041
0.074671
0.102399
0.125245
0.139368
0.140743
0.137423
0.0487579
0.0568846
0.0558817
0.0700249
0.0868133
0.104605
0.119742
0.128518
0.12852
0.125835
0.0723731
0.107516
0.0996999
0.0942202
0.103867
0.115642
0.123896
0.127449
0.125926
0.123845
0.0966358
0.106783
0.115813
0.118629
0.125713
0.128911
0.130241
0.129971
0.128594
0.124865
0.119104
0.11808
0.13172
0.141616
0.141008
0.136846
0.13377
0.131635
0.130129
0.126567
0.132528
0.135534
0.145158
0.148042
0.143219
0.138181
0.134127
0.131202
0.128052
0.128287
0.137032
0.140153
0.143612
0.143348
0.140274
0.137052
0.133585
0.130573
0.126445
0.165057
0.134518
0.135192
0.136567
0.138036
0.137299
0.135537
0.13342
0.131145
0.12813
0.220678
0.13132
0.129975
0.131726
0.13342
0.134296
0.134359
0.133822
0.132786
0.131399
0.126732
415.167
415.121
415.15
415.352
415.743
416.342
417.112
417.966
418.736
419.355
414.925
414.816
414.784
414.939
415.31
415.926
416.752
417.682
418.547
419.255
414.337
414.142
414.014
414.101
414.442
415.067
415.944
416.989
418.046
418.947
413.398
413.023
412.709
412.643
412.882
413.463
414.397
415.583
416.879
418.039
411.831
411.111
410.502
410.195
410.263
410.752
411.663
412.997
414.563
415.973
409.462
408.177
406.951
406.072
405.777
406.134
407.107
408.562
410.291
411.711
405.417
403.38
401.942
400.63
399.996
400.167
400.328
400.892
401.962
402.817
310.671
315.782
317.321
312.958
303.143
291.911
288.929
286.558
285.971
290.375
123.03
54.2395
35.9142
23.6703
14.5475
9.87571
8.64148
8.06747
7.48179
8.31008
0.20273
0.0975306
0.0327093
0.0203273
0.0721064
0.111697
0.139459
0.161407
0.166705
0.164213
-0.0268318
-0.0623382
-0.0699345
-0.0380641
0.038309
0.0934508
0.123547
0.143848
0.151758
0.155734
0.0060002
-0.0384923
-0.0474157
-0.0111901
0.0456521
0.087584
0.110638
0.124774
0.130572
0.130909
0.242875
0.0904909
0.0351662
0.0591838
0.0769552
0.0944362
0.107404
0.114362
0.115802
0.116283
0.282637
0.207011
0.103078
0.0934771
0.0993551
0.109871
0.115266
0.114924
0.112184
0.113621
0.190828
0.199814
0.141722
0.114736
0.122044
0.126831
0.126378
0.122624
0.11895
0.121231
0.133399
0.13667
0.140872
0.138585
0.139301
0.137552
0.133838
0.129716
0.128344
0.130276
0.140386
0.141061
0.144655
0.145857
0.142678
0.139942
0.136073
0.133105
0.132683
0.134884
0.140562
0.139698
0.140315
0.140242
0.139583
0.138482
0.135814
0.133852
0.132844
0.133752
0.131426
0.130319
0.132256
0.134112
0.135779
0.136287
0.135144
0.13403
0.132963
0.133183
0.122223
0.12124
0.126952
0.129564
0.132029
0.134114
0.134673
0.134577
0.134398
0.132716
415.058
414.997
415.005
415.172
415.498
415.996
416.631
417.332
417.975
418.472
414.805
414.681
414.64
414.77
415.08
415.595
416.274
417.035
417.735
418.275
414.106
413.913
413.809
413.914
414.231
414.775
415.507
416.359
417.164
417.803
412.86
412.545
412.379
412.451
412.76
413.328
414.14
415.103
416.051
416.83
410.633
410.127
409.858
409.935
410.293
410.894
411.793
412.892
414.063
415.015
407.211
406.407
405.998
405.892
406.171
406.824
407.915
409.248
410.796
411.905
392.681
391.862
398.996
400.036
400.748
401.594
402.882
404.814
405.766
406.452
246.637
248.603
270.719
301.166
312.962
313.535
315.473
323.936
334.109
342.176
42.5825
29.1809
26.8439
25.8333
24.6854
23.2604
22.2916
23.4681
26.2031
29.1372
0.62995
0.162518
-0.00974496
-0.0511423
0.0274217
0.0914327
0.129698
0.159117
0.182141
0.196902
0.0611154
-0.129088
-0.156107
-0.127134
-0.0265212
0.0631828
0.102743
0.125128
0.138057
0.145389
0.095663
-0.051425
-0.0906188
-0.0687822
-0.00454489
0.0602185
0.0883109
0.102826
0.110079
0.120774
0.390452
0.0789078
0.0436472
0.0696093
0.075473
0.0845304
0.090157
0.0937568
0.0922924
0.113123
0.477283
0.153943
0.144085
0.1371
0.119282
0.109635
0.103507
0.0990491
0.0943983
0.107883
0.551908
0.279081
0.177819
0.146957
0.135104
0.126893
0.117923
0.11306
0.112104
0.119539
0.458516
0.286556
0.177131
0.151839
0.144322
0.138085
0.130976
0.124074
0.128993
0.129114
0.249357
0.182783
0.159857
0.152028
0.145509
0.142442
0.136852
0.13261
0.133838
0.135469
0.159468
0.141032
0.142395
0.143457
0.143538
0.142496
0.137751
0.135582
0.136057
0.136444
0.131397
0.125003
0.129414
0.134871
0.140103
0.138815
0.136713
0.135911
0.136056
0.13551
0.120803
0.115134
0.122305
0.12736
0.133305
0.134266
0.13547
0.135909
0.13647
0.13588
415.041
414.965
414.959
415.101
415.386
415.822