/*--------------------------------*- C++ -*----------------------------------*\
| =========                 |                                                 |
| \\      /  F ield         | OpenFOAM: The Open Source CFD Toolbox           |
|  \\    /   O peration     | Version:  2312                                  |
|   \\  /    A nd           | Website:  www.openfoam.com                      |
|    \\/     M anipulation  |                                                 |
\*---------------------------------------------------------------------------*/
FoamFile
{
    version     2.0;
    format      ascii;
    arch        "LSB;label=32;scalar=64";
    class       surfaceScalarField;
    location    "0.425";
    object      phi;
}
// * * * * * * * * * * * * * * * * * * * * * * * * * * * * * * * * * * * * * //

dimensions      [0 3 -1 0 0 0 0];

oriented        oriented;

internalField   nonuniform List<scalar> 
22600
(
-2.39687e-07
4.80647e-07
-2.4096e-07
-4.22731e-07
4.12884e-07
-2.2984e-07
-5.67566e-07
3.77503e-07
-2.32668e-07
-6.56834e-07
3.24147e-07
-2.34879e-07
-6.81609e-07
2.61844e-07
-2.37068e-07
-6.42407e-07
2.03404e-07
-2.42606e-07
-5.43485e-07
1.5304e-07
-2.51961e-07
-3.91074e-07
1.1384e-07
-2.6625e-07
-1.995e-07
8.78632e-08
-2.79437e-07
7.42977e-08
-2.92371e-07
-2.90389e-07
1.06316e-06
-2.92126e-07
-5.18745e-07
9.18888e-07
-2.77648e-07
-6.89557e-07
8.29319e-07
-2.81003e-07
-7.90924e-07
7.07764e-07
-2.8225e-07
-8.13884e-07
5.69571e-07
-2.84767e-07
-7.59571e-07
4.41455e-07
-2.92364e-07
-6.36035e-07
3.33245e-07
-3.03741e-07
-4.53633e-07
2.51013e-07
-3.19576e-07
-2.30061e-07
1.96336e-07
-3.32044e-07
1.67901e-07
-3.44389e-07
-3.42906e-07
1.75014e-06
-3.44075e-07
-6.10137e-07
1.51546e-06
-3.29346e-07
-7.99522e-07
1.34821e-06
-3.29502e-07
-9.08641e-07
1.14175e-06
-3.24868e-07
-9.27304e-07
9.0997e-07
-3.21736e-07
-8.59441e-07
6.98967e-07
-3.25375e-07
-7.17258e-07
5.2402e-07
-3.32959e-07
-5.11837e-07
3.92645e-07
-3.47053e-07
-2.61319e-07
3.0767e-07
-3.61852e-07
2.62947e-07
-3.75476e-07
-4.0599e-07
2.56232e-06
-4.06182e-07
-7.90228e-07
2.27821e-06
-3.78511e-07
-1.03124e-06
2.0023e-06
-4.13086e-07
-1.1459e-06
1.6625e-06
-4.0609e-07
-1.14614e-06
1.30635e-06
-3.96131e-07
-1.04352e-06
9.86461e-07
-3.90115e-07
-8.56129e-07
7.24713e-07
-3.88087e-07
-6.01922e-07
5.34389e-07
-3.95951e-07
-3.06271e-07
4.14028e-07
-4.02009e-07
3.4781e-07
-4.08392e-07
-3.17212e-07
3.20156e-06
-3.22027e-07
-8.61463e-07
3.06161e-06
-2.39149e-07
-1.28028e-06
2.81414e-06
-3.93024e-07
-1.46179e-06
2.29128e-06
-4.4727e-07
-1.44645e-06
1.71764e-06
-4.26632e-07
-1.29587e-06
1.24397e-06
-4.08085e-07
-1.05065e-06
8.72748e-07
-3.93258e-07
-7.35164e-07
5.95067e-07
-3.76166e-07
-3.73468e-07
4.09623e-07
-3.57291e-07
3.13357e-07
-3.53487e-07
-5.23742e-07
4.3171e-06
-5.91802e-07
-1.40988e-06
4.29887e-06
-3.51113e-07
-2.09425e-06
3.79931e-06
-3.00794e-07
-2.32849e-06
2.87354e-06
-3.48034e-07
-2.24234e-06
1.98372e-06
-3.52218e-07
-2e-06
1.29175e-06
-2.90116e-07
-1.64096e-06
7.42763e-07
-2.29056e-07
-1.16238e-06
3.28109e-07
-2.11621e-07
-6.07656e-07
6.24231e-08
-2.07525e-07
-6.13273e-08
-1.96591e-07
-1.32724e-06
6.96747e-06
-1.32313e-06
-2.58987e-06
6.84402e-06
-1.28252e-06
-3.35323e-06
5.43739e-06
-8.74724e-07
-3.39372e-06
3.39577e-06
-4.81738e-07
-3.17926e-06
2.00652e-06
-2.37254e-07
-2.80107e-06
1.0706e-06
-1.5705e-07
-2.2311e-06
3.57188e-07
-1.84394e-07
-1.52177e-06
-1.08156e-07
-2.73061e-07
-7.82375e-07
-3.07775e-07
-3.69198e-07
-3.93321e-07
-3.94028e-07
-3.10227e-06
1.31148e-05
-3.04504e-06
-5.67016e-06
1.25588e-05
-3.1469e-06
-6.99056e-06
9.53002e-06
-2.77223e-06
-6.2831e-06
4.82008e-06
-2.13175e-06
-4.7312e-06
1.83991e-06
-1.3853e-06
-3.40422e-06
7.43684e-07
-1.00006e-06
-2.37905e-06
2.98638e-07
-9.66618e-07
-1.52159e-06
4.56501e-08
-1.01127e-06
-7.04572e-07
-9.52112e-08
-1.02958e-06
-1.73152e-07
-9.86945e-07
-5.12416e-06
2.42745e-05
-6.03552e-06
-9.66899e-06
2.11965e-05
-4.09291e-06
-1.06559e-05
1.45427e-05
-4.02575e-06
-1.04704e-05
8.63028e-06
-3.99574e-06
-7.93399e-06
2.81906e-06
-3.51556e-06
-5.27386e-06
7.28525e-07
-2.64497e-06
-3.42645e-06
6.01299e-07
-2.15007e-06
-2.06522e-06
6.77116e-07
-1.9927e-06
-9.43379e-07
7.25525e-07
-1.94257e-06
7.69964e-07
-1.93665e-06
-1.67122e-06
3.06788e-05
-4.73311e-06
-7.40828e-06
2.87337e-05
-1.8001e-06
-9.14193e-06
1.74218e-05
-1.1454e-06
-8.11962e-06
9.51614e-06
-1.90816e-06
-8.45863e-06
3.96146e-06
-8.03398e-07
-7.54374e-06
-4.73304e-07
2.86945e-07
-4.73398e-06
-3.23849e-06
1.03003e-06
-2.68819e-06
-2.48455e-06
1.11587e-06
-1.18044e-06
-1.82611e-06
1.04389e-06
-1.41259e-06
9.28561e-07
3.52641e-06
2.79272e-05
-7.74806e-07
-7.00543e-07
3.1275e-05
1.68568e-06
-4.84983e-06
1.9012e-05
2.55904e-06
-6.22316e-06
1.01612e-05
7.28246e-07
-6.27394e-06
5.1649e-06
-1.15266e-06
-4.97691e-06
1.80297e-06
-3.5733e-06
-2.97684e-06
-1.14529e-06
-4.09327e-06
-1.77579e-06
-1.07987e-06
-2.60573e-06
-4.70902e-07
-6.87234e-07
-2.44376e-06
-2.24575e-07
-2.16689e-06
5.72537e-06
1.85641e-05
3.63766e-06
5.90099e-06
2.64545e-05
4.64484e-06
2.0371e-06
1.83799e-05
4.49599e-06
-6.19575e-07
9.06275e-06
3.75516e-06
-1.76762e-06
4.93701e-06
1.37595e-06
-1.80383e-06
3.47769e-06
-1.63849e-06
-1.57211e-06
3.19512e-06
-4.57214e-06
-6.33021e-07
3.41117e-06
-5.43012e-06
1.60943e-07
3.5315e-06
-5.01269e-06
3.74845e-06
-4.74127e-06
5.54961e-06
8.73363e-06
4.28092e-06
8.42236e-06
1.80788e-05
5.50299e-06
7.18283e-06
1.52264e-05
4.39308e-06
4.43681e-06
8.53406e-06
3.27471e-06
2.1332e-06
5.10185e-06
2.13877e-06
6.68815e-07
4.8351e-06
1.06986e-07
-5.81299e-08
5.42017e-06
-1.4981e-06
2.17251e-07
6.18396e-06
-3.04817e-06
7.43467e-07
6.39364e-06
-3.38836e-06
6.28322e-06
-2.85345e-06
3.17791e-06
3.15058e-06
2.40512e-06
6.10189e-06
1.14777e-05
3.67715e-06
7.40987e-06
1.19637e-05
1.95467e-06
6.13569e-06
8.69467e-06
1.11356e-06
3.76061e-06
5.89721e-06
1.57974e-06
1.71192e-06
5.35404e-06
1.52975e-06
5.60331e-07
5.90764e-06
6.64129e-07
5.1514e-07
6.65582e-06
-4.26661e-07
8.14721e-07
6.83037e-06
-7.36305e-07
6.67335e-06
-3.49426e-07
3.0555e-07
1.65245e-06
1.19259e-06
2.10978e-06
8.45063e-06
1.22281e-06
4.61788e-06
9.6304e-06
-1.74777e-07
4.83905e-06
8.32342e-06
1.50084e-07
3.16316e-06
5.7347e-06
1.83841e-06
1.35064e-06
4.69458e-06
2.47199e-06
4.39755e-07
4.69544e-06
2.12309e-06
4.71146e-07
4.93872e-06
1.68571e-06
6.88815e-07
4.95782e-06
1.65488e-06
5.1195e-06
1.84776e-06
-1.04747e-06
1.947e-06
7.5292e-07
-2.4941e-07
7.47941e-06
1.73167e-07
2.02771e-06
8.27594e-06
-9.22663e-07
2.6075e-06
7.10212e-06
6.41516e-07
1.67811e-06
4.57457e-06
2.08953e-06
5.37297e-07
3.52908e-06
2.30632e-06
9.09469e-08
2.96888e-06
2.17291e-06
2.21654e-07
2.60865e-06
2.19937e-06
2.93706e-07
2.54777e-06
2.33799e-06
2.99015e-06
2.32245e-06
-1.48232e-06
2.83054e-06
5.98778e-07
-9.46257e-07
7.28773e-06
-3.44393e-07
2.49914e-07
7.74315e-06
-6.63387e-07
7.06037e-07
5.5075e-06
1.1385e-06
5.65767e-07
3.13534e-06
1.57951e-06
3.16455e-07
2.39199e-06
1.38641e-06
3.05217e-07
1.70021e-06
1.27992e-06
2.88622e-07
1.28872e-06
1.33653e-06
2.97109e-08
1.35765e-06
1.44903e-06
1.58674e-06
1.45744e-06
-1.56402e-06
3.95297e-06
4.41591e-07
-1.06115e-06
7.25606e-06
-4.71194e-07
-7.63507e-07
7.57486e-06
-1.29349e-07
-5.52642e-07
3.90201e-06
1.39463e-06
-2.00532e-07
1.50166e-06
1.28158e-06
1.13536e-07
1.2649e-06
8.13019e-07
2.59735e-07
9.39842e-07
6.14173e-07
1.96221e-07
7.3845e-07
6.13795e-07
6.78317e-08
8.11597e-07
6.74448e-07
8.2089e-07
7.41371e-07
-1.48053e-06
5.01573e-06
4.17758e-07
-1.04621e-06
7.09892e-06
-2.77194e-07
-8.32361e-07
6.85142e-06
5.09595e-07
-9.51999e-07
2.46284e-06
1.55881e-06
-7.28337e-07
-1.18285e-08
1.28983e-06
-2.93207e-07
1.30059e-07
6.99715e-07
-4.07851e-08
2.83384e-07
4.04045e-07
5.82352e-09
2.88138e-07
4.03705e-07
4.81975e-08
3.32159e-07
4.37064e-07
2.99392e-07
4.66962e-07
-9.59531e-07
8.04912e-07
5.17035e-06
-5.70177e-07
4.35359e-08
6.66603e-06
1.57792e-07
6.87909e-07
5.43555e-06
9.68537e-08
1.43809e-06
1.08568e-06
-2.76338e-07
1.23979e-06
-8.78427e-07
-2.12066e-07
6.4527e-07
-5.79484e-07
-2.14865e-08
2.96808e-07
-2.04003e-07
2.3503e-08
2.97008e-07
-5.38644e-08
3.13223e-08
3.13229e-07
1.11019e-08
3.10767e-07
-1.22267e-09
-2.28555e-07
4.12779e-07
-4.25184e-07
-3.8712e-07
3.17981e-07
-3.89256e-07
-5.09859e-07
2.86623e-07
-3.96552e-07
-5.8344e-07
2.35753e-07
-3.97051e-07
-5.95006e-07
1.69355e-07
-3.94857e-07
-5.4507e-07
1.0228e-07
-3.94822e-07
-4.44595e-07
4.24928e-08
-3.94929e-07
-3.07338e-07
-4.37816e-09
-3.99129e-07
-1.49561e-07
-3.64288e-08
-4.00785e-07
-5.69778e-08
-4.06212e-07
-2.76172e-07
9.1856e-07
-5.21735e-07
-4.75382e-07
7.17457e-07
-4.77913e-07
-6.22735e-07
6.37951e-07
-4.84979e-07
-7.11188e-07
5.26636e-07
-4.84681e-07
-7.26324e-07
3.82425e-07
-4.82701e-07
-6.71096e-07
2.39291e-07
-4.84603e-07
-5.54326e-07
1.10609e-07
-4.88627e-07
-3.88126e-07
3.95364e-09
-4.94108e-07
-1.93993e-07
-6.70148e-08
-4.95591e-07
-1.20607e-07
-4.97419e-07
-3.30233e-07
1.51715e-06
-6.12434e-07
-5.58851e-07
1.17387e-06
-5.57139e-07
-7.17224e-07
1.0314e-06
-5.64577e-07
-8.10455e-07
8.54352e-07
-5.59352e-07
-8.20622e-07
6.25188e-07
-5.54332e-07
-7.49721e-07
3.97772e-07
-5.54757e-07
-6.13583e-07
2.01019e-07
-5.59507e-07
-4.33848e-07
4.81446e-08
-5.70979e-07
-2.20655e-07
-6.82307e-08
-5.7383e-07
-1.61198e-07
-5.77478e-07
-3.78141e-07
2.28029e-06
-7.91178e-07
-6.98943e-07
1.81838e-06
-7.02226e-07
-9.04946e-07
1.5489e-06
-7.24582e-07
-1.01027e-06
1.26259e-06
-7.09e-07
-1.00964e-06
9.09013e-07
-6.80588e-07
-9.12083e-07
5.72731e-07
-6.62629e-07
-7.38655e-07
2.95068e-07
-6.55565e-07
-5.11915e-07
8.17139e-08
-6.56261e-07
-2.57085e-07
-7.09386e-08
-6.54131e-07
-1.85408e-07
-6.61729e-07
-2.10118e-07
3.04936e-06
-8.80985e-07
-5.43793e-07
2.53106e-06
-6.18145e-07
-9.0574e-07
2.25499e-06
-7.37172e-07
-1.14264e-06
1.87757e-06
-8.25354e-07
-1.18663e-06
1.35456e-06
-8.2819e-07
-1.07267e-06
8.65883e-07
-8.1519e-07
-8.63944e-07
5.02426e-07
-8.09346e-07
-6.00216e-07
2.42556e-07
-8.00736e-07
-3.05447e-07
5.68065e-08
-7.79805e-07
-6.61148e-08
-7.87915e-07
-2.55916e-07
4.2349e-06
-1.52143e-06
-8.86617e-07
3.8484e-06
-1.03776e-06
-1.43297e-06
3.33624e-06
-8.35683e-07
-1.64087e-06
2.60857e-06
-8.71132e-07
-1.60743e-06
1.83652e-06
-8.67621e-07
-1.42101e-06
1.18631e-06
-7.96955e-07
-1.15074e-06
7.55952e-07
-7.52853e-07
-8.18353e-07
4.71913e-07
-7.73367e-07
-4.35512e-07
2.74604e-07
-8.08163e-07
1.71859e-07
-8.32868e-07
-1.33741e-06
6.78009e-06
-2.53091e-06
-2.47853e-06
6.14423e-06
-2.43723e-06
-2.93074e-06
4.82863e-06
-1.9149e-06
-2.7151e-06
3.35753e-06
-1.44634e-06
-2.30839e-06
2.31707e-06
-1.12452e-06
-1.90336e-06
1.62811e-06
-1.00387e-06
-1.46812e-06
1.18735e-06
-1.05104e-06
-9.90272e-07
9.29375e-07
-1.20837e-06
-5.01716e-07
7.69536e-07
-1.35269e-06
7.0131e-07
-1.40475e-06
-3.13878e-06
1.23036e-05
-5.42975e-06
-5.21581e-06
1.02944e-05
-5.22006e-06
-5.79229e-06
7.20248e-06
-4.5696e-06
-5.10893e-06
4.27547e-06
-3.73305e-06
-3.98472e-06
2.75193e-06
-2.94438e-06
-2.96697e-06
2.12223e-06
-2.51193e-06
-2.13213e-06
1.78375e-06
-2.39786e-06
-1.394e-06
1.55674e-06
-2.37677e-06
-6.9119e-07
1.3878e-06
-2.35066e-06
1.2771e-06
-2.27393e-06
-3.67103e-06
1.93779e-05
-9.43884e-06
-6.92096e-06
1.69365e-05
-7.48505e-06
-7.88986e-06
1.09412e-05
-6.79558e-06
-7.14599e-06
5.53171e-06
-5.99584e-06
-5.84502e-06
2.9398e-06
-5.00439e-06
-4.56499e-06
2.41726e-06
-4.22004e-06
-3.33273e-06
2.13269e-06
-3.73125e-06
-2.17774e-06
1.98963e-06
-3.58058e-06
-1.11854e-06
2.06906e-06
-3.68303e-06
2.16516e-06
-3.9191e-06
1.93668e-07
2.31701e-05
-8.71893e-06
-3.57462e-06
2.69804e-05
-8.0757e-06
-7.51283e-06
1.88589e-05
-5.12484e-06
-7.649e-06
8.17822e-06
-4.41851e-06
-7.45491e-06
4.70757e-06
-2.76526e-06
-6.89438e-06
3.54251e-06
-1.39883e-06
-5.62657e-06
3.40515e-06
-1.51024e-06
-3.60998e-06
9.49245e-07
1.39672e-07
-1.73441e-06
-8.95132e-08
1.32689e-06
6.55423e-07
6.77387e-07
4.07386e-06
2.23363e-05
-4.0149e-06
2.34925e-06
3.3683e-05
-3.29234e-06
-2.4447e-06
2.62428e-05
-3.0895e-08
-5.4198e-06
1.21244e-05
-2.42826e-07
-4.68215e-06
4.85632e-06
-2.03904e-06
-3.05847e-06
2.29536e-06
-3.94984e-06
-1.92838e-06
2.48325e-06
-4.30145e-06
-1.66658e-06
2.73548e-06
-4.65376e-06
-1.01586e-06
2.29479e-06
-5.47877e-06
3.13643e-06
-5.8658e-06
6.13004e-06
1.70448e-05
2.79911e-06
7.7754e-06
3.26447e-05
4.03776e-06
5.37954e-06
2.7783e-05
5.3516e-06
2.86504e-06
1.44043e-05
3.98978e-06
2.23808e-06
5.55666e-06
1.30258e-06
2.01898e-06
2.23784e-06
-1.36187e-06
1.20535e-06
2.3421e-06
-3.61734e-06
5.94197e-08
3.41151e-06
-4.9602e-06
-3.61729e-07
3.60132e-06
-5.89807e-06
3.45789e-06
-5.89817e-06
6.03458e-06
8.98499e-06
6.3062e-06
9.91955e-06
2.59089e-05
8.35383e-06
1.08218e-05
2.34135e-05
7.8604e-06
9.97081e-06
1.30664e-05
5.46358e-06
9.06094e-06
6.03261e-06
2.5727e-06
7.21806e-06
3.37634e-06
8.11373e-07
4.73489e-06
3.70314e-06
-3.75968e-07
2.61684e-06
4.79895e-06
-2.31755e-06
1.21586e-06
4.81709e-06
-3.20313e-06
3.94276e-06
-2.66834e-06
2.88335e-06
3.71624e-06
4.79053e-06
6.76198e-06
1.78534e-05
7.85404e-06
1.00509e-05
1.5133e-05
6.94625e-06
1.10463e-05
9.08908e-06
4.09545e-06
1.03267e-05
5.92581e-06
2.40613e-06
8.23886e-06
4.86294e-06
2.13099e-06
5.61153e-06
5.0478e-06
1.94681e-06
3.45114e-06
5.50617e-06
1.02651e-06
1.723e-06
5.23983e-06
5.69087e-07
4.19869e-06
9.3595e-07
-6.29979e-07
2.29008e-06
3.24871e-06
1.87064e-06
1.14281e-05
5.14753e-06
5.65448e-06
7.3393e-06
3.8351e-06
7.31976e-06
5.76352e-06
1.81036e-06
6.80745e-06
5.75143e-06
2.52511e-06
5.0881e-06
5.52433e-06
3.52995e-06
3.22283e-06
5.36671e-06
3.66946e-06
1.9028e-06
5.13129e-06
3.38062e-06
8.12012e-07
4.57654e-06
3.40895e-06
3.75256e-06
3.40368e-06
-1.8896e-06
2.5575e-06
2.3751e-06
8.02814e-09
7.39511e-06
2.30851e-06
2.1901e-06
4.06117e-06
1.73389e-07
2.56685e-06
5.09009e-06
9.38212e-07
2.15259e-06
5.36906e-06
2.88616e-06
1.35545e-06
4.88183e-06
3.74596e-06
6.71692e-07
4.28383e-06
3.93955e-06
3.26618e-07
3.59403e-06
4.08171e-06
-1.8402e-08
3.03809e-06
4.22146e-06
2.53373e-06
3.86574e-06
-1.74995e-06
3.48233e-06
1.4239e-06
-6.73961e-07
6.17523e-06
-2.00501e-07
-2.44014e-07
4.678e-06
-1.71017e-06
-7.2583e-07
5.26023e-06
1.45018e-06
-4.89938e-07
3.87108e-06
2.8416e-06
-1.41514e-07
3.07756e-06
2.84226e-06
2.30634e-07
2.4402e-06
2.75141e-06
3.93863e-07
1.94245e-06
2.82488e-06
2.21151e-07
1.77426e-06
2.88557e-06
1.4595e-06
2.662e-06
-1.69618e-06
4.90903e-06
7.11066e-07
-1.28391e-06
6.62144e-06
-1.32967e-06
-1.56809e-06
6.27348e-06
-1.44065e-06
-1.84282e-06
4.79066e-06
2.13894e-06
-1.10813e-06
1.93865e-06
2.47932e-06
-2.27988e-07
1.18351e-06
1.82692e-06
3.15128e-07
9.31565e-07
1.5797e-06
4.51944e-07
8.45132e-07
1.5743e-06
4.03159e-07
8.48446e-07
1.64906e-06
6.26927e-07
1.6679e-06
-1.648e-06
6.42868e-06
5.46109e-07
-1.41972e-06
7.15554e-06
-1.03958e-06
-1.58494e-06
7.45462e-06
-5.06322e-07
-1.5909e-06
4.15241e-06
2.20303e-06
-1.0037e-06
7.98475e-07
1.8428e-06
-2.53757e-07
-5.22024e-08
1.18549e-06
1.45372e-07
-3.76706e-08
9.74159e-07
2.43707e-07
1.46151e-07
1.00435e-06
2.57043e-07
2.06875e-07
1.06529e-06
9.36987e-08
1.06785e-06
-1.31045e-06
1.00017e-06
7.54387e-06
-1.10196e-06
-2.81861e-07
7.27246e-06
-5.48317e-07
-6.14475e-08
7.65034e-06
-7.69321e-08
1.48548e-06
3.63364e-06
6.17834e-09
1.341e-06
6.14164e-07
2.19417e-07
9.46346e-07
-5.6651e-07
3.24452e-07
6.76773e-07
-5.22668e-07
2.92096e-07
6.94205e-07
-2.1869e-07
2.05749e-07
7.25033e-07
-1.18574e-07
7.14107e-07
-1.60399e-07
-2.31347e-07
3.77199e-07
-5.71035e-07
-3.94378e-07
2.86874e-07
-5.13099e-07
-5.22255e-07
2.56544e-07
-5.25219e-07
-5.99478e-07
2.06754e-07
-5.26582e-07
-6.13781e-07
1.39525e-07
-5.20079e-07
-5.65387e-07
6.90402e-08
-5.12256e-07
-4.63314e-07
3.70682e-09
-5.00709e-07
-3.24366e-07
-5.21021e-08
-4.85975e-07
-1.63628e-07
-9.61982e-08
-4.65324e-07
-1.29912e-07
-4.6015e-07
-2.79341e-07
8.29144e-07
-6.9434e-07
-4.82384e-07
6.38892e-07
-6.26889e-07
-6.3761e-07
5.68146e-07
-6.41354e-07
-7.33116e-07
4.61277e-07
-6.437e-07
-7.54175e-07
3.1763e-07
-6.39747e-07
-7.0176e-07
1.68855e-07
-6.36832e-07
-5.84821e-07
2.97336e-08
-6.31593e-07
-4.17738e-07
-8.9304e-08
-6.2399e-07
-2.12891e-07
-1.90647e-07
-6.05989e-07
-2.70418e-07
-5.93043e-07
-3.28533e-07
1.34955e-06
-8.04309e-07
-5.63842e-07
1.0353e-06
-7.18241e-07
-7.33069e-07
9.07848e-07
-7.35052e-07
-8.36014e-07
7.4088e-07
-7.3601e-07
-8.53649e-07
5.13821e-07
-7.32887e-07
-7.87491e-07
2.80333e-07
-7.32393e-07
-6.54803e-07
7.07548e-08
-7.33215e-07
-4.65726e-07
-1.14836e-07
-7.34523e-07
-2.33391e-07
-2.70415e-07
-7.26398e-07
-3.79445e-07
-7.26804e-07
-4.12845e-07
2.00408e-06
-1.03286e-06
-7.24622e-07
1.55225e-06
-9.07393e-07
-9.24446e-07
1.30668e-06
-9.23589e-07
-1.04005e-06
1.05953e-06
-9.1205e-07
-1.0506e-06
7.33444e-07
-8.89663e-07
-9.63674e-07
4.1101e-07
-8.80231e-07
-7.96132e-07
1.27276e-07
-8.79629e-07
-5.63373e-07
-1.15569e-07
-8.88287e-07
-2.84873e-07
-3.08027e-07
-8.95018e-07
-4.07039e-07
-9.41311e-07
-3.82516e-07
2.80902e-06
-1.30341e-06
-7.0592e-07
2.2414e-06
-9.83897e-07
-9.93558e-07
1.8887e-06
-1.03155e-06
-1.22313e-06
1.58296e-06
-1.11921e-06
-1.27582e-06
1.0986e-06
-1.14065e-06
-1.16542e-06
6.27024e-07
-1.14161e-06
-9.53444e-07
2.53591e-07
-1.14763e-06
-6.7842e-07
-3.76629e-08
-1.15367e-06
-3.54984e-07
-2.42264e-07
-1.169e-06
-3.00639e-07
-1.26353e-06
-2.48009e-07
3.74516e-06
-2.20956e-06
-7.43132e-07
3.28557e-06
-1.58681e-06
-1.19371e-06
2.80801e-06
-1.30442e-06
-1.44215e-06
2.27066e-06
-1.3104e-06
-1.4732e-06
1.57709e-06
-1.31506e-06
-1.33509e-06
9.94202e-07
-1.30224e-06
-1.102e-06
5.98611e-07
-1.33096e-06
-7.93743e-07
2.86505e-07
-1.40579e-06
-4.34648e-07
9.44599e-08
-1.50398e-06
7.01147e-08
-1.63923e-06
-8.62578e-07
5.34755e-06
-3.27072e-06
-1.87506e-06
4.78621e-06
-2.92539e-06
-2.33378e-06
3.73957e-06
-2.38775e-06
-2.25943e-06
2.78736e-06
-2.03738e-06
-2.00353e-06
2.06596e-06
-1.8693e-06
-1.70265e-06
1.57638e-06
-1.88693e-06
-1.34364e-06
1.20242e-06
-2.01387e-06
-9.25474e-07
8.41415e-07
-2.18144e-06
-4.98772e-07
6.3111e-07
-2.31604e-06
5.84684e-07
-2.44348e-06
-2.70849e-06
9.31229e-06
-6.686e-06
-4.49023e-06
7.1207e-06
-5.77279e-06
-4.78519e-06
4.30635e-06
-4.84142e-06
-4.28404e-06
2.6952e-06
-4.14205e-06
-3.59637e-06
2.11859e-06
-3.68467e-06
-2.90051e-06
1.88539e-06
-3.51679e-06
-2.23711e-06
1.66868e-06
-3.52752e-06
-1.55991e-06
1.37597e-06
-3.58852e-06
-8.27234e-07
1.17795e-06
-3.63017e-06
1.07145e-06
-3.61462e-06
-4.10304e-06
1.44289e-05
-1.04525e-05
-6.47753e-06
9.80445e-06
-7.79431e-06
-7.05928e-06
5.24894e-06
-7.15643e-06
-6.23835e-06
1.89346e-06
-6.01503e-06
-5.08249e-06
9.90236e-07
-5.03189e-06
-3.92496e-06
1.01579e-06
-4.50798e-06
-2.92885e-06
1.42172e-06
-4.4804e-06
-1.98657e-06
1.70068e-06
-4.84758e-06
-9.64227e-07
2.09599e-06
-5.62342e-06
2.64615e-06
-6.52877e-06
-1.37532e-06
1.62912e-05
-9.20587e-06
-3.77756e-06
1.36932e-05
-9.56222e-06
-5.43882e-06
9.84013e-06
-8.05478e-06
-6.43864e-06
4.29574e-06
-5.82096e-06
-4.66221e-06
1.85091e-07
-3.73656e-06
-2.54977e-06
-5.20029e-07
-1.97544e-06
-2.32761e-06
8.75383e-07
-1.18606e-06
-2.50163e-06
3.04399e-06
-1.02961e-06
-2.04653e-06
4.69425e-06
-1.72646e-06
5.18283e-06
-3.9777e-06
2.83277e-06
1.50915e-05
-5.64792e-06
1.81517e-06
1.93075e-05
-7.88901e-06
-3.35363e-08
1.54181e-05
-3.76019e-06
-7.40359e-07
5.9513e-06
-1.19156e-06
2.4692e-07
-1.18318e-06
-1.65804e-06
9.27415e-07
-3.16122e-06
-1.98914e-06
7.65942e-07
-1.16138e-06
-2.1032e-06
-2.30653e-07
1.76079e-06
-2.37395e-06
-8.09935e-07
2.57554e-06
-2.78077e-06
1.70249e-06
-3.38192e-06
5.87046e-06
1.07947e-05
1.22538e-06
7.08339e-06
2.14322e-05
7.00156e-07
6.31613e-06
1.80411e-05
3.4959e-06
5.3182e-06
6.86297e-06
4.07606e-06
4.7943e-06
-1.10354e-06
1.74684e-06
3.6047e-06
-2.73496e-06
-5.98516e-07
1.54387e-06
-1.06792e-06
-1.64997e-06
-7.28128e-08
8.95012e-07
-2.47773e-06
-8.2846e-07
6.717e-07
-3.23857e-06
-1.48129e-06
-3.37271e-06
5.25137e-06
5.79434e-06
6.0552e-06
8.00807e-06
1.90999e-05
7.92936e-06
9.13023e-06
1.58729e-05
8.90646e-06
9.08413e-06
5.32896e-06
7.04371e-06
7.9145e-06
-5.26285e-07
3.16509e-06
5.92529e-06
-9.34005e-07
9.99624e-07
3.70737e-06
7.38637e-07
3.54023e-08
1.42907e-06
1.68332e-06
-8.27539e-07
-3.19755e-07
6.04502e-07
-1.3871e-06
-2.06245e-06
-1.43872e-06
1.88024e-06
2.92524e-06
5.77939e-06
4.687e-06
1.45941e-05
9.55315e-06
6.71784e-06
1.0914e-05
9.87423e-06
7.52728e-06
2.59954e-06
6.01543e-06
6.72522e-06
3.06345e-07
2.37556e-06
5.21092e-06
7.9078e-07
1.92051e-06
3.62998e-06
1.99426e-06
2.27212e-06
1.88017e-06
2.48054e-06
1.9791e-06
7.00797e-08
1.18088e-06
1.8028e-06
-1.3704e-06
1.50578e-06
-6.81066e-07
2.77201e-06
4.083e-06
1.35643e-06
1.04834e-05
7.22067e-06
2.95972e-06
6.70247e-06
6.44339e-06
3.56458e-06
1.2951e-06
2.50995e-06
3.02995e-06
1.46448e-06
1.90161e-06
2.40972e-06
1.7964e-06
3.14457e-06
1.70441e-06
2.40487e-06
3.96417e-06
8.59284e-07
2.39663e-06
4.30965e-06
-5.50479e-08
1.19626e-06
4.30791e-06
-6.85434e-07
3.55773e-06
-1.00677e-06
3.94669e-06
2.2072e-06
5.07243e-07
8.25027e-06
3.02766e-06
9.26066e-07
5.35121e-06
1.10582e-06
3.40582e-07
2.30518e-06
5.13621e-07
-6.45583e-08
2.3238e-06
2.43198e-06
-8.10323e-09
1.83588e-06
3.65003e-06
2.29927e-07
1.86734e-06
4.23906e-06
3.63035e-07
1.67128e-06
4.67397e-06
2.48457e-07
9.46577e-07
4.58571e-06
-2.00733e-07
3.79657e-06
-6.58514e-07
5.39404e-06
6.35058e-07
4.95516e-07
7.88723e-06
-9.91485e-07
2.25179e-07
5.91354e-06
-2.00216e-06
-9.00658e-07
4.06713e-06
8.14076e-07
-9.85376e-07
2.4179e-06
2.83222e-06
-3.82953e-07
1.15233e-06
2.9234e-06
3.46143e-07
8.28626e-07
3.06103e-06
7.84226e-07
7.65308e-07
3.29277e-06
7.91305e-07
5.46099e-07
3.27897e-06
-7.50693e-08
2.93787e-06
-4.36569e-07
6.73485e-06
-1.93173e-07
4.33927e-07
8.32308e-06
-2.63602e-06
-4.62675e-08
7.14649e-06
-2.19341e-06
-1.05272e-06
5.31919e-06
1.89333e-06
-7.818e-07
2.34022e-06
2.28607e-06
-1.43729e-07
6.46689e-07
1.69449e-06
3.67752e-07
6.43209e-08
1.83253e-06
5.17402e-07
1.47692e-07
2.04228e-06
4.97934e-07
1.09431e-07
2.1052e-06
-1.83517e-07
1.99784e-06
-1.71998e-07
7.59677e-06
-1.4381e-07
3.80291e-07
8.89189e-06
-2.16068e-06
-3.06979e-08
8.29128e-06
-1.24011e-06
-7.48088e-07
6.09931e-06
2.14031e-06
-3.7184e-07
2.6563e-06
1.15049e-06
1.16439e-07
4.35322e-07
9.08582e-07
3.63789e-07
-3.79716e-07
1.17085e-06
3.8443e-07
-2.35631e-07
1.36704e-06
3.15242e-07
-1.43493e-07
1.38741e-06
-2.47483e-07
1.31853e-06
-5.10102e-08
8.35522e-07
7.81243e-06
2.52708e-07
-8.03697e-07
9.11e-06
1.12123e-07
-4.82586e-07
8.853e-06
-1.96616e-07
1.27202e-06
6.62151e-06
2.33199e-07
4.63301e-07
3.10418e-06
5.55709e-07
7.13918e-07
3.45233e-07
5.47473e-07
9.14213e-07
-6.08921e-07
3.84663e-07
1.02279e-06
-4.01396e-07
2.19939e-07
9.97925e-07
-2.51659e-07
9.44576e-07
-2.81421e-07
-2.3341e-07
3.23451e-07
-6.61077e-07
-3.94901e-07
2.35652e-07
-5.8726e-07
-5.23557e-07
2.06457e-07
-6.03019e-07
-6.03686e-07
1.60444e-07
-6.06897e-07
-6.20388e-07
9.56349e-08
-5.99012e-07
-5.72348e-07
2.69186e-08
-5.87214e-07
-4.6902e-07
-3.58189e-08
-5.68218e-07
-3.23225e-07
-8.72637e-08
-5.44506e-07
-1.56545e-07
-1.22784e-07
-5.0922e-07
-1.43991e-07
-4.93178e-07
-2.80231e-07
7.0674e-07
-7.97398e-07
-4.81886e-07
5.27148e-07
-7.16729e-07
-6.39913e-07
4.61112e-07
-7.37981e-07
-7.39721e-07
3.60725e-07
-7.44173e-07
-7.65523e-07
2.23676e-07
-7.41987e-07
-7.14798e-07
8.00119e-08
-7.4065e-07
-5.93497e-07
-5.59018e-08
-7.32811e-07
-4.08833e-07
-1.78007e-07
-7.17911e-07
-1.87069e-07
-2.67495e-07
-6.83042e-07
-2.99644e-07
-6.57386e-07
-3.22521e-07
1.14162e-06
-9.16668e-07
-5.56961e-07
8.59465e-07
-8.16118e-07
-7.32855e-07
7.42677e-07
-8.40723e-07
-8.43455e-07
5.83589e-07
-8.48274e-07
-8.68405e-07
3.64863e-07
-8.49123e-07
-8.08204e-07
1.39339e-07
-8.51921e-07
-6.72121e-07
-7.23341e-08
-8.52866e-07
-4.72016e-07
-2.61192e-07
-8.51443e-07
-2.27614e-07
-3.85647e-07
-8.52647e-07
-3.72043e-07
-9.19256e-07
-4.04439e-07
1.66362e-06
-1.15042e-06
-7.07778e-07
1.26948e-06
-1.01406e-06
-9.12492e-07
1.06443e-06
-1.04063e-06
-1.03664e-06
8.33669e-07
-1.03798e-06
-1.06042e-06
5.29076e-07
-1.0301e-06
-9.88337e-07
2.23547e-07
-1.03652e-06
-8.26914e-07
-6.5516e-08
-1.04787e-06
-6.00102e-07
-3.16513e-07
-1.05978e-06
-3.19576e-07
-4.49955e-07
-1.11124e-06
-3.60515e-07
-1.30987e-06
-4.41728e-07
2.28966e-06
-1.48773e-06
-8.22339e-07
1.86931e-06
-1.20312e-06
-1.112e-06
1.57703e-06
-1.2545e-06
-1.31162e-06
1.23589e-06
-1.3218e-06
-1.34347e-06
7.54327e-07
-1.33404e-06
-1.23773e-06
3.15479e-07
-1.33929e-06
-1.03957e-06
-5.14045e-08
-1.3599e-06
-7.83668e-07
-3.39075e-07
-1.38701e-06
-4.54939e-07
-4.5547e-07
-1.49222e-06
-3.17312e-07
-1.79589e-06
-3.24875e-07
2.837e-06
-2.43202e-06
-8.3552e-07
2.57027e-06
-1.77712e-06
-1.25975e-06
2.23946e-06
-1.54262e-06
-1.52805e-06
1.76641e-06
-1.57262e-06
-1.59574e-06
1.12575e-06
-1.6188e-06
-1.50486e-06
6.0711e-07
-1.68476e-06
-1.28648e-06
1.87845e-07
-1.78858e-06
-9.86673e-07
-1.55194e-07
-1.88948e-06
-5.99814e-07
-2.76059e-07
-2.07025e-06
-1.65812e-07
-2.41368e-06
-4.75861e-07
3.40762e-06
-3.36548e-06
-1.40125e-06
3.34711e-06
-2.77685e-06
-1.97377e-06
2.76944e-06
-2.3452e-06
-2.14036e-06
2.10478e-06
-2.20915e-06
-2.12245e-06
1.52655e-06
-2.28801e-06
-1.93969e-06
9.99982e-07
-2.46256e-06
-1.59527e-06
4.23216e-07
-2.59366e-06
-1.16841e-06
-1.27065e-08
-2.75079e-06
-6.8179e-07
-1.13328e-07
-2.96539e-06
-9.29325e-08
-3.22238e-06
-2.06551e-06
4.8653e-06
-6.07817e-06
-3.62444e-06
4.2259e-06
-5.09264e-06
-4.02731e-06
2.65157e-06
-4.32068e-06
-3.85201e-06
1.73677e-06
-3.94934e-06
-3.49319e-06
1.29993e-06
-3.81687e-06
-3.03196e-06
8.60017e-07
-3.83806e-06
-2.43147e-06
2.6532e-07
-3.97012e-06
-1.71926e-06
-1.29707e-07
-4.18373e-06
-8.84925e-07
-1.53019e-07
-4.42482e-06
-6.07587e-09
-4.61207e-06
-4.05436e-06
8.74167e-06
-1.02745e-05
-6.03298e-06
5.50236e-06
-7.09215e-06
-6.01587e-06
1.66621e-06
-6.18817e-06
-5.43159e-06
4.46554e-07
-5.30909e-06
-4.64233e-06
-2.65986e-07
-4.25524e-06
-3.72057e-06
-1.18356e-06
-3.38616e-06
-2.74002e-06
-1.76846e-06
-3.42717e-06
-1.75448e-06
-1.7316e-06
-4.23121e-06
-7.03574e-07
-1.12094e-06
-5.70641e-06
1.38602e-07
-7.55603e-06
-7.57475e-07
8.77383e-06
-8.48055e-06
-2.56885e-06
6.7442e-06
-8.99269e-06
-3.97355e-06
3.78995e-06
-8.77381e-06
-3.776e-06
-3.12833e-07
-5.25913e-06
-1.76543e-06
-3.43008e-06
-2.58302e-06
-2.22945e-07
-4.118e-06
-5.83491e-07
-1.12472e-07
-3.32228e-06
2.57304e-07
-1.0086e-06
-1.61765e-06
-2.47422e-07
-1.22299e-06
-5.33786e-07
-2.09922e-06
-3.54134e-07
-4.71759e-06
9.50743e-07
9.29617e-06
-7.12101e-06
2.66296e-08
9.07153e-06
-9.29222e-06
-7.1823e-07
5.45154e-06
-4.67692e-06
-1.7816e-07
-9.50608e-07
-1.09385e-06
8.13686e-07
-5.29962e-06
-7.80325e-07
1.20626e-06
-5.78097e-06
-7.18727e-07
8.28921e-07
-4.36015e-06
-6.87982e-07
-6.28467e-08
-2.37245e-06
-7.27378e-07
-6.91111e-07
-2.12675e-06
-5.59534e-07
-3.25432e-06
-1.17441e-06
4.48873e-06
6.68663e-06
-6.538e-07
4.63423e-06
1.12597e-05
-1.63347e-06
3.83265e-06
7.7693e-06
1.97973e-06
3.27536e-06
2.60333e-07
3.42242e-06
3.07808e-06
-4.8617e-06
1.5062e-06
2.19302e-06
-5.65272e-06
1.58297e-07
8.25677e-07
-4.2961e-06
-3.46669e-07
-3.26865e-07
-2.66532e-06
-1.0323e-06
-9.2038e-07
-3.23095e-06
-1.54086e-06
-5.11238e-06
-2.00249e-06
4.42692e-06
3.69845e-06
4.61647e-06
5.69957e-06
1.15209e-05
6.39547e-06
5.46443e-06
8.77852e-06
8.13238e-06
4.94744e-06
1.25795e-06
6.5631e-06
4.01638e-06
-3.46894e-06
2.7034e-06
2.84644e-06
-4.50427e-06
1.02112e-06
1.49704e-06
-3.55668e-06
6.45376e-07
2.12521e-07
-2.51951e-06
3.11174e-07
-8.30808e-07
-3.53686e-06
-3.78551e-08
-5.61745e-06
-8.40751e-07
2.07654e-06
2.12105e-06
5.28025e-06
3.7822e-06
1.0102e-05
9.26636e-06
4.20196e-06
8.4512e-06
9.7818e-06
3.87533e-06
2.07205e-06
5.52796e-06
3.06646e-06
-2.32457e-06
2.04006e-06
2.04265e-06
-3.28332e-06
1.72338e-06
1.31549e-06
-2.57232e-06
2.01492e-06
5.33164e-07
-1.91588e-06
2.15781e-06
-3.4541e-07
-2.94011e-06
2.08462e-06
-4.78699e-06
1.25788e-06
8.41889e-07
2.28455e-06
3.07761e-06
2.48491e-06
8.52006e-06
7.15962e-06
2.96899e-06
7.79644e-06
6.61408e-06
2.7761e-06
2.51914e-06
2.25576e-06
1.73898e-06
-8.2243e-07
1.4366e-06
8.63464e-07
-1.85202e-06
2.58878e-06
6.76037e-07
-1.69843e-06
3.27771e-06
5.9558e-07
-1.33955e-06
3.81379e-06
2.7542e-07
-2.06528e-06
3.75325e-06
-3.40514e-06
2.82395e-06
8.93218e-07
3.03755e-06
5.60972e-07
2.37636e-06
7.51459e-06
2.54998e-06
2.64487e-06
7.15283e-06
1.48092e-06
2.32703e-06
3.54302e-06
-1.92418e-07
9.55617e-07
1.17608e-06
1.80489e-06
3.27894e-07
-4.999e-07
2.92563e-06
5.35575e-07
-1.03431e-06
3.36728e-06
9.18581e-07
-9.2532e-07
3.87673e-06
9.04992e-07
-1.27058e-06
3.80461e-06
-2.07517e-06
3.14789e-06
6.89431e-07
3.69236e-06
-7.09175e-07
1.92827e-06
6.56814e-06
-1.28386e-06
2.28328e-06
6.54168e-06
-1.74602e-06
1.87965e-06
4.91418e-06
-1.5345e-07
8.01339e-07
2.86155e-06
2.22507e-06
5.36531e-07
4.19514e-07
2.2688e-06
7.05479e-07
-6.51422e-07
2.50919e-06
8.71662e-07
-6.83042e-07
2.88431e-06
7.95748e-07
-8.2434e-07
2.90865e-06
-1.25913e-06
2.63026e-06
6.86063e-07
4.09727e-06
-1.28415e-06
1.50209e-06
5.61419e-06
-2.49809e-06
1.56594e-06
6.14944e-06
-1.86501e-06
1.21019e-06
6.15429e-06
1.00897e-06
7.29281e-07
3.89887e-06
1.72967e-06
6.89486e-07
8.11111e-07
1.34269e-06
6.75567e-07
-5.34623e-07
1.72964e-06
5.5253e-07
-5.75025e-07
2.0573e-06
3.91831e-07
-6.01681e-07
2.04324e-06
-8.11259e-07
1.84135e-06
9.52696e-07
4.10862e-06
-1.10786e-06
1.12443e-06
5.29726e-06
-2.01549e-06
7.03207e-07
6.33782e-06
-1.00726e-06
4.79645e-07
7.22089e-06
1.29728e-06
5.72349e-07
4.14274e-06
8.13925e-07
7.34702e-07
6.72677e-07
8.84662e-07
6.37587e-07
-5.95517e-07
1.32887e-06
4.30415e-07
-5.68007e-07
1.5672e-06
2.14961e-07
-4.97205e-07
1.49839e-06
-5.59678e-07
1.29736e-06
1.01546e-06
2.70701e-07
3.65798e-06
4.87879e-07
-3.46337e-07
5.36748e-06
-3.08593e-07
-2.43771e-08
6.67609e-06
-1.19873e-07
7.66673e-07
7.53753e-06
5.08516e-07
3.92095e-07
3.58555e-06
8.00202e-07
7.99656e-07
2.9525e-07
6.55398e-07
1.1246e-06
-6.61092e-07
3.69105e-07
1.26343e-06
-5.22362e-07
8.06788e-08
1.18764e-06
-3.98495e-07
9.95539e-07
-3.82787e-07
-2.35149e-07
2.60867e-07
-6.86795e-07
-3.91857e-07
1.68932e-07
-5.99484e-07
-5.16617e-07
1.39164e-07
-6.17424e-07
-5.95734e-07
9.55385e-08
-6.23318e-07
-6.11695e-07
3.11088e-08
-6.1416e-07
-5.60105e-07
-3.88229e-08
-5.99981e-07
-4.4855e-07
-1.01053e-07
-5.7872e-07
-2.94174e-07
-1.48146e-07
-5.50735e-07
-1.29908e-07
-1.71113e-07
-5.02373e-07
-1.47886e-07