/*--------------------------------*- C++ -*----------------------------------*\
| =========                 |                                                 |
| \\      /  F ield         | OpenFOAM: The Open Source CFD Toolbox           |
|  \\    /   O peration     | Version:  2312                                  |
|   \\  /    A nd           | Website:  www.openfoam.com                      |
|    \\/     M anipulation  |                                                 |
\*---------------------------------------------------------------------------*/
FoamFile
{
    version     2.0;
    format      ascii;
    arch        "LSB;label=32;scalar=64";
    class       volScalarField;
    location    "0.845";
    object      p_rgh;
}
// * * * * * * * * * * * * * * * * * * * * * * * * * * * * * * * * * * * * * //

dimensions      [1 -1 -2 0 0 0 0];

internalField   nonuniform List<scalar> 
8000
(
402.321
402.69
402.952
403.231
403.675
404.294
405
405.667
406.17
406.425
401.34
401.825
402.072
402.421
403.006
403.795
404.666
405.469
406.068
406.354
399.323
399.995
400.08
400.545
401.499
402.714
403.973
405.088
405.9
406.285
396.07
396.793
396.521
397.175
398.822
400.858
402.824
404.496
405.747
406.254
390.857
390.918
390.605
392.041
394.898
398.256
401.27
403.592
405.322
405.987
381.323
380.538
381.63
385.066
389.845
394.869
399.23
402.212
404.388
404.927
360.399
351.601
359.398
369.501
381.751
390.695
397.074
398.717
397.2
391.057
141.548
112.88
129.285
154.891
219.924
302.962
320.978
298.643
318.28
335.254
0.242784
0.261235
0.288819
0.327225
0.404215
34.1853
140.719
183.064
217.34
213.438
0.240281
0.247213
0.253044
0.25428
0.263054
0.331346
18.2404
33.4355
22.5894
12.6211
0.236104
0.239396
0.233312
0.216623
0.186785
0.0726247
0.0127042
0.0671537
0.0696079
0.046731
0.237538
0.235078
0.223214
0.210516
0.145062
0.0755191
0.0538948
0.0794353
0.0624617
0.0508062
0.223439
0.212136
0.200301
0.19247
0.133002
0.0760862
0.0812358
0.0908442
0.0653158
0.0739125
0.180921
0.143561
0.149619
0.173363
0.112232
0.0694351
0.0905089
0.0892452
0.0906325
0.114975
0.13458
0.102045
0.120771
0.14562
0.0926317
0.065346
0.0903488
0.0926106
0.108791
0.144611
0.0860486
0.0815207
0.0961281
0.101283
0.0789985
0.074447
0.0860552
0.0872564
0.119078
0.15009
0.0919873
0.0688073
0.0740803
0.0760674
0.0789652
0.0838695
0.0816391
0.0742721
0.10917
0.139354
0.119977
0.0615306
0.0616514
0.0657072
0.0838043
0.0880569
0.0712218
0.0698332
0.0913301
0.111739
0.131296
0.0631012
0.0639933
0.0690006
0.0804978
0.0817838
0.0687068
0.0666748
0.075344
0.0841923
0.133194
0.0685497
0.0705148
0.0739893
0.0792142
0.0833442
0.0775588
0.0645636
0.0591272
0.0602541
402.749
403.381
403.688
403.842
404.149
404.681
405.338
405.974
406.457
406.698
401.919
402.897
403.214
403.314
403.631
404.266
405.057
405.809
406.368
406.637
400.165
401.555
401.823
401.921
402.411
403.344
404.476
405.516
406.26
406.594
397.193
398.669
398.446
398.747
399.953
401.646
403.457
405.057
406.217
406.728
392.024
393.032
392.332
393.41
396.043
399.127
402.033
404.372
405.904
406.414
381.127
380.703
381.637
385.443
390.451
395.402
400.057
403.438
405.194
405.585
345.294
308.913
325.271
355.002
379.542
389.625
396.615
400.669
402.019
400.482
101.9
49.4672
64.2521
107.605
197.709
302.284
362.007
371.443
380.018
389.141
0.231451
0.248946
0.269572
0.286374
0.333728
12.4275
74.0943
128.463
162.173
143.74
0.221778
0.219848
0.232082
0.220208
0.207518
0.147026
3.61014
19.1492
5.85407
0.289874
0.208878
0.218384
0.219894
0.191274
0.12681
0.0557926
0.00977824
0.0264516
0.0814118
0.0588385
0.214263
0.198069
0.191253
0.167452
0.0839582
0.0239116
0.0195022
0.0302669
0.0356223
0.0296165
0.186926
0.156145
0.152168
0.13636
0.06568
0.0125638
0.0295957
0.0446433
0.0398562
0.0487606
0.136991
0.0999758
0.108621
0.098497
0.0520575
0.0124867
0.0403849
0.0490088
0.051647
0.0811683
0.0710801
0.0723333
0.087057
0.0744606
0.0418797
0.0217206
0.0537795
0.0549078
0.0738368
0.135801
0.0479635
0.0481471
0.0630981
0.0586597
0.0423779
0.0356357
0.0553344
0.0633301
0.101714
0.165394
0.0571278
0.0279325
0.0412429
0.0441931
0.0476608
0.046456
0.0505897
0.0702274
0.129379
0.177513
0.108916
0.0188693
0.0206845
0.0287214
0.0444204
0.0487838
0.0477335
0.068311
0.130582
0.17428
0.114364
0.026573
0.0213294
0.0292171
0.0422896
0.0436901
0.0462379
0.0594286
0.112873
0.149421
0.114043
0.0480531
0.0427761
0.0464791
0.0495792
0.0492429
0.0502351
0.053378
0.0752411
0.067706
403.08
403.757
404.156
404.377
404.699
405.22
405.854
406.466
406.927
407.151
402.257
403.314
403.799
403.996
404.313
404.905
405.645
406.346
406.859
407.099
400.382
402.002
402.742
402.986
403.386
404.197
405.22
406.148
406.777
407.046
397.079
398.865
399.738
400.38
401.36
402.799
404.431
405.872
406.801
407.13
391.851
393.339
393.83
395.345
397.799
400.55
403.122
405.047
406.199
406.704
382.191
382.258
383.599
387.513
392.437
397.466
401.863
404.886
406.433
406.614
353.394
320.094
338.76
367.795
384.739
392.901
398.143
400.57
401.571
403.31
119.445
61.1659
86.2574
153.706
260.227
348.142
370.64
364.343
364.54
373.483
0.200381
0.222416
0.245761
0.251835
1.18798
35.7421
103.37
161.07
146.332
133.256
0.187152
0.184467
0.193549
0.171603
0.127845
0.111834
0.103044
4.61944
6.41648
0.1934
0.169624
0.15862
0.16174
0.109429
0.0476711
0.016002
-0.00501741
-0.0200746
0.0338559
0.0498242
0.148811
0.136474
0.135218
0.0825765
0.0271135
-0.00570712
-0.0139007
-0.0196165
0.00908103
0.0399513
0.115422
0.103299
0.100003
0.0698692
0.024879
-0.00379199
0.00817227
0.00871925
0.0287445
0.0626692
0.0858348
0.0933212
0.0734198
0.0515158
0.0156948
0.000699033
0.025808
0.0307192
0.0400497
0.0681191
0.0590666
0.0521923
0.0465288
0.0326003
0.00730525
0.00577212
0.0344381
0.0448352
0.0499089
0.0723315
0.0181583
0.0131579
0.026149
0.0216908
0.00972995
0.0129559
0.0343402
0.0457005
0.0511765
0.0709971
0.027943
-0.0123482
0.00987414
0.0120414
0.0117005
0.0114925
0.0205913
0.0282066
0.02967
0.0550352
0.0502076
-0.0234561
-0.0128891
-0.00757303
-0.00643798
-0.00995207
-0.0127055
-0.0100938
1.36034e-05
0.0446109
0.0551136
-0.0216406
-0.0258745
-0.0223749
-0.0243692
-0.0358353
-0.0423443
-0.0376507
-0.00842539
0.0391018
0.0521083
0.00131022
-0.0113454
-0.0130665
-0.0195984
-0.0318509
-0.0365391
-0.0294889
0.0141356
0.0749291
403.416
403.98
404.451
404.825
405.27
405.851
406.502
407.11
407.553
407.76
402.658
403.49
404.084
404.495
404.973
405.627
406.359
407.028
407.507
407.723
400.882
402.183
403.097
403.678
404.281
405.14
406.101
406.94
407.516
407.739
397.667
399.26
400.589
401.68
402.784
404.173
405.675
406.893
407.566
407.781
392.864
394.497
395.839
397.75
400.033
402.393
404.445
406.057
407.098
407.476
385.387
386.328
387.985
391.387
395.863
400.266
403.717
405.927
406.938
407.057
366.491
351.224
366.217
381.63
389.808
395.547
398.142
400.536
403.442
404.566
153.501
105.499
147.726
238.144
328.017
360.246
347.436
350.68
360.871
360.185
0.181291
0.189871
0.20051
0.279374
17.0551
75.2773
154.29
166.03
143.389
117.892
0.161428
0.148713
0.150707
0.120176
0.0451095
0.0665758
0.0838886
0.350529
0.648252
0.57407
0.142822
0.113255
0.0996621
0.0440085
-0.0012324
0.003571
-0.00996634
-0.0231731
0.0321593
0.112126
0.114355
0.0940091
0.0792875
0.0356908
0.0210574
0.0159638
0.0185969
-0.0379441
0.0127237
0.064884
0.0869357
0.0777938
0.0649948
0.0408512
0.0273612
0.024473
0.0330596
0.00810624
0.0282835
0.0543293
0.076348
0.0747611
0.0474035
0.0298915
0.0104654
0.021633
0.0413699
0.042221
0.034643
0.0406616
0.0415558
0.0438769
0.0205438
0.0135031
0.000623599
0.0201571
0.0479028
0.0485377
0.0374965
0.0331977
0.0116891
-0.0126529
0.00227226
0.000925418
-0.000205147
0.0167527
0.0367863
0.0303254
0.0144014
0.0014317
0.00152131
-0.0266401
-0.00420302
-0.0119745
-0.0136353
-0.0107535
-0.0113982
-0.0306206
-0.0561784
-0.0610204
-0.000709894
-0.0337733
-0.0214875
-0.0325453
-0.0531298
-0.0739538
-0.0914999
-0.121031
-0.134162
-0.103942
-0.000277546
-0.0383741
-0.0463269
-0.061332
-0.0971347
-0.126245
-0.14953
-0.166797
-0.149984
-0.0794933
0.0114048
-0.0298712
-0.0471951
-0.0646734
-0.0910268
-0.12273
-0.137528
-0.13126
-0.0866533
0.0213787
403.915
404.363
404.865
405.37
405.941
406.602
407.285
407.889
408.317
408.51
403.282
403.88
404.498
405.082
405.724
406.456
407.201
407.858
408.316
408.508
401.83
402.723
403.605
404.406
405.235
406.176
407.122
407.931
408.442
408.59
399.179
400.394
401.659
402.939
404.252
405.689
407.036
408.03
408.59
408.693
395.258
396.783
398.319
400.267
402.353
404.386
406.155
407.635
408.443
408.596
389.928
391.453
393.234
396.269
399.966
403.431
406.034
407.692
408.292
407.584
379.041
377.182
384.277
390.174
395.366
399.213
401.413
404.629
406.254
405.862
195.852
173.254
237.716
317.834
356.574
370.389
365.566
384.276
378.079
359.167
0.166674
0.11996
0.147516
12.9936
57.5818
148.397
202.363
192.303
147.092
102.097
0.149393
0.112164
0.099811
0.037752
0.0363708
0.0587855
5.40075
1.73691
0.932487
1.07701
0.127565
0.0730571
0.0394272
-0.00868822
0.00288708
0.033696
-0.0300603
0.0346064
0.183924
0.273663
0.0919523
0.0626958
0.0351819
0.010026
0.00840827
0.0215335
0.0255837
0.0393153
0.0643155
0.0883418
0.0703199
0.0489918
0.0366764
0.0278904
0.0265071
0.0348439
0.0471896
0.0492504
0.032909
0.0364699
0.0493773
0.0496062
0.03342
0.0272422
0.0202594
0.0427361
0.0568282
0.0552676
0.0285826
0.0264202
0.0365255
0.0415198
0.0237005
0.0162013
0.014739
0.0358014
0.0578621
0.0633549
0.0514654
0.032501
0.00795175
-0.0110979
-0.000317807
-0.000490472
0.00956161
0.0292799
0.0493927
0.0506977
0.033082
-0.00640487
-0.0103583
-0.0135235
-0.0103333
-0.0212693
-0.0195963
-0.00647744
-0.000139788
-0.015124
-0.0551859
-0.092835
0.00448512
-0.00097034
-0.00603907
-0.0374696
-0.0646609
-0.0744572
-0.0799789
-0.114654
-0.149509
-0.128038
0.00499441
-0.011017
-0.0296741
-0.0660869
-0.101312
-0.121426
-0.141039
-0.160185
-0.137328
-0.0597772
0.0234083
-0.0166038
-0.0396341
-0.0675791
-0.087747
-0.10169
-0.113335
-0.0809791
-0.0298724
0.020163
404.606
404.986
405.499
406.082
406.742
407.459
408.156
408.755
409.172
409.35
404.124
404.596
405.206
405.877
406.611
407.394
408.158
408.814
409.25
409.424
403.064
403.717
404.54
405.422
406.351
407.331
408.27
409.041
409.481
409.549
401.132
402.049
403.214
404.531
405.896
407.243
408.432
409.352
409.797
409.758
398.289
399.549
401.074
402.876
404.739
406.552
408.194
409.474
409.986
409.837
394.426
395.969
398.198
401.065
403.985
406.395
408.185
409.743
410.031
409.026
389.212
390.715
393.912
397.884
401.971
404.431
406.161
408.552
408.678
407.432
243.138
252.307
319.57
366.125
388.221
392.289
395.174
404.103
385.689
365.696
0.256656
0.159181
16.4602
60.8897
140.431
219.046
231.976
217.73
148.979
97.6983
0.156506
0.0992834
0.0300878
0.00771229
0.232142
3.08002
7.72668
6.13007
1.29068
0.841799
0.101514
0.0414692
-0.00860678
-0.0298834
-0.00813989
0.0370985
0.0289198
0.172262
0.280145
0.205021
0.0786669
0.0381039
0.00238599
-0.010579
-0.0142862
0.0103956
0.0725506
0.102514
0.093399
0.0600016
0.0710748
0.0385944
0.0205372
0.0213733
0.0183393
0.0275182
0.0620527
0.0759955
0.0366139
0.0132784
0.0416979
0.0328083
0.0227329
0.0310863
0.0353981
0.0440669
0.0571153
0.080185
0.053787
0.0316081
0.0418956
0.050886
0.0349312
0.0282533
0.0362998
0.0447887
0.0641266
0.0949623
0.103133
0.0671001
0.0283519
0.0233428
0.0299658
0.015133
0.0275846
0.042542
0.0652882
0.0862168
0.0883441
0.0364082
0.00587504
-0.00657347
0.00433123
-0.00307703
4.1821e-06
0.01197
0.027054
0.0320075
0.000136586
-0.016944
0.0175311
0.00775785
-0.00216527
-0.0144948
-0.0286803
-0.0278227
-0.0241163
-0.0300944
-0.0447345
-0.0173197
0.0280971
0.0165947
-0.00305399
-0.0249416
-0.0459317
-0.0464357
-0.0405719
-0.0368888
-0.0195481
0.0204786
0.0624048
0.0129014
-0.0155613
-0.0296942
-0.0430817
-0.0356483
-0.0301576
-0.0057838
0.0420234
0.0826483
405.407
405.749
406.266
406.891
407.596
408.334
409.031
409.624
410.022
410.16
405.074
405.487
406.086
406.787
407.557
408.366
409.14
409.795
410.208
410.342
404.402
404.943
405.713
406.594
407.536
408.499
409.408
410.151
410.532
410.499
403.14
403.916
405.016
406.269
407.521
408.715
409.821
410.699
411.058
410.791
401.418
402.511
403.942
405.522
407.106
408.548
409.944
411.137
411.547
410.603
398.282
399.901
402.648
405.199
407.053
408.3
409.792
411.294
411.621
410.348
397.152
398.812
401.795
405.481
409.019
409.373
410.332
411.637
411.251
409.585
295.825
325.955
378.574
406.516
411.985
402.439
412.246
412.601
398.649
383.068
27.5195
40.2948
96.718
178.363
250.509
265.833
269.857
246.542
188.668
130.897
0.114427
0.0345208
0.0231967
2.19774
7.7756
11.694
14.8231
12.9705
3.52739
0.749767
0.0814656
0.0208589
-0.0213225
-0.0326435
-0.019739
0.0273999
0.0403807
0.205422
0.301673
0.155818
0.0810458
0.0276929
-0.0117451
-0.0287134
-0.0445662
-0.019599
0.0336581
0.0981039
0.102107
0.0456038
0.0854886
0.042698
0.0170321
0.0191049
0.0178682
0.0236226
0.0327421
0.0663852
0.0446567
0.0103097
0.0582744
0.0431797
0.0271916
0.0379788
0.0546701
0.0629133
0.0612113
0.0859713
0.0837351
0.0517542
0.0363982
0.0497962
0.0384678
0.0416705
0.0587468
0.0698349
0.0844409
0.113376
0.131565
0.0997424
0.0436257
0.0572453
0.0598681
0.0390686
0.0515037
0.0653946
0.0839738
0.107236
0.114534
0.0755189
0.055909
0.0401473
0.0332928
0.0211531
0.0287135
0.0399261
0.0540805
0.0650701
0.0510205
0.0288794
0.0617458
0.0251932
0.0236072
-0.00324131
0.00226467
0.0136987
0.0208754
0.0267831
0.0114982
0.00622904
0.0644379
0.0124513
-0.00799699
-0.0134735
-0.0094185
0.00152936
0.00769424
0.0130509
0.0113923
0.0198184
0.0406271
0.0165837
-0.00533427
-0.0159424
-0.00721422
0.00760365
0.0149451
0.0230741
0.0410462
0.0600318
406.179
406.497
407.014
407.658
408.379
409.122
409.816
410.394
410.761
410.847
405.992
406.357
406.942
407.647
408.432
409.25
410.03
410.672
411.064
411.144
405.64
406.121
406.841
407.699
408.619
409.531
410.407
411.12
411.449
411.357
405.005
405.693
406.678
407.823
408.947
409.973
410.987
411.829
412.106
411.654
404.281
405.248
406.515
407.835
409.056
409.831
411.079
412.341
412.718
411.263
402.547
404.147
406.598
408.557
409.267
409.196
410.837
412.409
412.645
410.966
402.587
404.695
407.913
410.687
410.862
406.437
413.52
414.188
413.261
410.99
339.482
373.712
411.29
414.523
417.442
402.506
415.767
418.376
409.663
393.528
92.7464
131.545
222.518
300.35
319.831
302.778
303.262
284.97
226.299
158.889
0.212291
0.0555676
1.17339
10.1399
15.7605
23.8834
35.1061
29.5763
8.22303
1.03581
0.111457
0.0260102
-0.0346936
-0.0514985
-0.0412182
0.0687911
0.0560446
0.18545
0.189877
0.16453
0.107798
0.0349547
-0.0240985
-0.0570376
-0.0673006
0.00453809
0.0491715
0.0883105
0.0512683
0.0419974
0.105202
0.0546058
0.0208741
0.0149512
0.0264742
0.0369603
0.0432477
0.055196
0.028464
0.0166906
0.079706
0.060162
0.0489979
0.0858655
0.0796392
0.0985824
0.0932656
0.0948165
0.0878519
0.0720458
0.0574239
0.0602947
0.0511804
0.126776
0.0827697
0.107625
0.118706
0.126853
0.13076
0.110051
0.0486832
0.0688272
0.0548755
0.0566797
0.0736986
0.106266
0.10201
0.114596
0.104567
0.0898077
0.0504306
0.0698729
0.0662614
0.0367137
0.0803348
0.109709
0.0714793
0.0760469
0.0579044
0.0597485
0.0421322
0.0588989
0.0495398
0.0205821
0.0735232
0.0953166
0.0445343
0.0443657
0.0335736
0.02994
0.032323
0.027882
0.0317029
0.00816418
0.0432303
0.0768555
0.0359844
0.033853
0.0341863
0.0297438
0.0344747
0.0240269
0.00940755
-0.00491562
0.0279916
0.0540916
0.0463619
0.0415097
0.0525681
0.0584272
406.758
407.067
407.586
408.235
408.962
409.71
410.397
410.95
411.287
411.363
406.679
407.023
407.589
408.295
409.084
409.907
410.687
411.317
411.705
411.765
406.547
406.986
407.676
408.513
409.406
410.284
411.126
411.785
412.117
412.049
406.319
406.949
407.837
408.878
409.901
410.857
411.823
412.52
412.732
412.357
406.13
407.009
408.149
409.205
410.067
410.86
412.119
412.7
412.808
412.115
405.439
406.864
408.869
409.921
409.701
409.788
412
412.77
412.499
411.023
406.459
408.305
410.635
411.662
411.754
412.395
415.021
414.891
412.962
410.136
369.953
401.908
414.552
415.75
417.996
418.737
422.595
417.893
407.158
389.271
138.812
197.368
261.185
276.819
276.679
303.896
331.396
288.057
200.675
134.271
0.499769
0.65778
1.00336
0.158323
8.86727
28.8315
50.6466
29.4613
3.4899
0.836635
0.145834
0.0576651
-0.0450812
-0.0468277
-0.0581841
0.0434836
0.310284
0.186271
0.132861
0.148971
0.135507
0.0410192
-0.0492828
-0.0881867
-0.0693242
0.00865379
0.0933865
0.0469779
-0.000949414
0.0474603
0.117848
0.0684722
0.0266317
0.00564688
0.0249703
0.0495274
0.0545407
0.0257871
-0.000959259
0.0369399
0.0950117
0.114153
0.192232
0.10947
0.107633
0.131306
0.117915
0.0829822
0.0704819
0.0852156
0.0753267
0.0705033
0.132631
0.314481
0.146298
0.138072
0.139027
0.122776
0.107908
0.117655
0.066157
0.0620832
0.0627957
0.0729359
0.0901087
0.147394
0.113836
0.103666
0.103696
0.0960138
0.0551672
0.0589543
0.0541663
0.0576955
0.0968012
0.141992
0.123071
0.0787268
0.0777886
0.0274688
0.0358618
0.0503156
0.0480859
0.0422152
0.114692
0.12323
0.12572
0.0532132
0.0389074
0.0244815
0.0338628
0.0373812
0.035765
0.04987
0.106878
0.114345
0.0635054
0.045268
0.0433087
0.0400659
0.0391812
0.0360321
0.0292086
0.0755399
0.107325
0.115855
0.0495835
0.0511544
0.0615184
0.0621067
407.027
407.33
407.848
408.499
409.232
409.988
410.657
411.162
411.495
411.476
406.998
407.328
407.882
408.588
409.388
410.238
411.01
411.585
411.948
411.576
406.959
407.374
408.046
408.877
409.754
410.649
411.427
411.985
412.301
411.676
406.881
407.468
408.295
409.3
410.336
411.311
412.148
412.567
412.685
411.201
406.833
407.598
408.643
409.714
410.783
411.913
412.742
412.68
412.524
409.623
406.319
407.457
409.105
409.914
410.368
411.665
412.746
412.446
411.429
409.061
407.219
408.584
409.99
409.824
410.427
412.892
414.294
413.048
410.428
407.927
372.349
407.346
412.231
411.122
414.604
417.92
418.83
407.201
388.037
370.97
120.961
175.493
203.856
202.845
235.475
271.481
274.141
213.476
134.141
93.4669
0.429915
0.21163
0.849087
0.924489
4.67887
14.0988
21.8893
5.43238
0.957675
0.5089
0.187402
0.083179
-0.00531904
-0.0311657
0.00931318
0.137939
0.274353
0.14378
0.113187
0.146449
0.141899
0.0512089
-0.0479467
-0.112359
-0.0634316
0.0325317
0.0634112
-0.0221603
-0.0122446
0.0772808
0.127314
0.153418
0.0299729
-0.00964829
0.0106372
0.0496056
0.0364288
-0.0218337
-0.0100428
0.0699336
0.101498
0.247108
0.27865
0.0813286
0.107632
0.126663
0.0991617
0.0479473
0.0402969
0.0741618
0.0780823
0.100637
0.336491
0.328898
0.350292
0.13848
0.126468
0.0858333
0.0767096
0.0921479
0.0611169
0.0597235
0.127359
0.272667
0.188401
0.102517
0.103498
0.0906267
0.0918259
0.0627578
0.0500785
0.052793
0.0618281
0.0658926
0.0674529
0.0730637
0.101939
0.0774861
0.0920783
0.0225468
0.0461189
0.0495135
0.0551085
0.0610603
0.0532484
0.0559149
0.128316
0.117544
0.0774472
0.0300513
0.044991
0.0472067
0.053343
0.0466102
0.0449485
0.0481967
0.122511
0.121069
0.0642037
0.0437333
0.0500475
0.0485343
0.0540083
0.0593296
0.0430521
0.0875367
0.1278
0.1306
0.0870399
0.0617142
406.942
407.239
407.747
408.384
409.102
409.841
410.489
410.988
411.322
411.327
406.9
407.22
407.755
408.447
409.231
410.056
410.804
411.361
411.722
411.626
406.832
407.238
407.886
408.702
409.555
410.373
411.12
411.677
412.027
411.809
406.632
407.219
407.997
408.985
410.012
410.93
411.635
412.067
412.284
410.422
406.207
406.96
407.982
409.163
410.345
411.319
411.897
411.896
411.778
408.512
404.987
406.263
407.814
409.17
410.355
411.233
411.461
410.989
410.089
406.642
403.572
405.027
407.426
408.324
409.838
411.167
411.505
410.388
407.968
405.557
335.007
382.869
399.25
399.242
410.87
411.629
406.908
393.788
369.607
350.735
74.8141
120.609
160.58
177.613
198.751
200.286
208.482
152.525
95.4357
67.5867
0.396595
0.263042
0.217876
0.505531
1.66262
2.98646
4.59082
0.879238
0.531853
0.428609
0.245934
0.146566
0.0583166
0.0138959
0.0673351
0.182414
0.195675
0.0892217
0.101939
0.18731
0.166967
0.147465
0.104589
-0.102804
-0.0549914
0.0334916
-0.000591799
-0.0502625
0.0167046
0.122387
0.152931
0.396902
0.108296
-0.0312871
-0.0113533
0.0280127
-0.0171387
-0.054021
-0.00918006
0.0835058
0.320419
0.450406
0.247909
0.0879374
0.0790373
0.0863398
0.0390893
-0.00156536
0.00521076
0.0592101
0.470062
0.478745
0.490114
0.250677
0.206226
0.149244
0.0645526
0.0334248
0.0394596
0.00509752
0.486938
0.496428
0.505926
0.510917
0.392906
0.152943
0.0594308
0.0381982
0.0506282
0.000160323
0.407998
0.250801
0.480636
0.0977494
0.0620885
0.0540935
0.0490287
0.0380889
0.0281875
0.00513757
0.104295
0.0710373
0.222012
0.165165
0.0487384
0.0422929
0.0471062
0.0842622
0.0264082
0.0108979
0.0508386
0.0618245
0.135452
0.151133
0.0525854
0.0384053
0.0464638
0.102235
0.0353397
0.0180251
0.0542549
0.0731112
0.196205
0.141559
0.0429697
0.0386179
0.0482575
0.0677519
0.0346158
0.0435955
406.522
406.812
407.299
407.908
408.59
409.291
409.926
410.446
410.803
410.942
406.424
406.732
407.254
407.907
408.647
409.415
410.123
410.701
411.097
411.231
406.244
406.661
407.282
408.06
408.888
409.69
410.392
410.925
411.284
411.361
405.833
406.384
407.158
408.118
409.122
410.036
410.758
411.216
411.486
411.305
405.145
405.85
406.777
407.938
409.091
410.16
410.784
410.84
410.716
410.275
403.462
404.562
406.055
407.485
408.727
409.758
410.063
409.507
408.485
407.541
399.937
400.704
403.463
405.464
407.306
408.762
409.152
408.114
405.793
403.462
300.303
354.605
374.219
380.6
389.799
396.912
394.944
382.531
356.679
333.995
60.9173
78.9398
131.033
164.211
170.771
175.375
172.398
125.985
78.9509
53.5211
0.356221
0.269073
0.256067
0.383932
0.827748
1.43949
0.917124
0.384928
0.392542
0.556525
0.312555
0.166802
0.177832
0.0779428
0.119947
0.233723
0.110404
0.0423812
0.113996
0.26954
0.156483
0.0981334
0.109474
-0.0159572
-0.0405119
0.0230458
-0.0399562
-0.0455389
0.0371097
0.157058
0.238544
0.291326
0.158948
-0.0573694
-0.0337018
-0.0163746
-0.063078
-0.0683332
-0.0190261
0.117686
0.452524
0.390954
0.0998626
0.0708879
0.0429051
0.0148463
-0.0368538
-0.057007
-0.0309605
0.00306074
0.472599
0.41349
0.116836
0.127957
0.0620829
0.0626134
-0.028794
-0.054462
-0.0241768
-0.0591588
0.496288
0.497885
0.156561
0.249266
0.365968
0.302035
0.0830404
-0.0265799
-0.0474074
-0.0555623
0.224789
0.520936
0.359815
0.112525
0.213721
0.193596
0.0241224
-0.0102646
-0.0379803
-0.0567751
0.130293
0.558959
0.546505
0.195432
0.0298548
0.0168374
0.00694654
-0.00290427
-0.0388408
-0.0685387
0.210269
0.609443
0.599781
0.316442
0.0448037
0.0192325
0.00819434
-0.00864353
-0.0459979
-0.0817612
0.601396
0.644182
0.645893
0.268059
0.0310034
0.0241853
0.0120502
-0.0125273
-0.0460874
-0.0686699
405.842
406.132
406.599
407.18
407.833
408.507
409.133
409.67
410.057
410.22
405.669
405.997
406.502
407.111
407.807
408.538
409.221
409.795
410.203
410.367
405.33
405.755
406.378
407.123
407.917
408.707
409.403
409.944
410.297
410.347
404.701
405.253
405.999
406.931
407.899
408.8
409.538
410.045
410.384
410.247
403.741
404.504
405.319
406.408
407.567
408.629
409.358
409.649
409.668
409.385
401.76
402.769
404.341
405.743
407.013
408.079
408.628
408.553
407.694
407.091
397.643
398.584
400.397
402.123
404.153
406.381
407.61
407.329
405.328
403.524
294.717
348.31
350.847
352.779
364.139
383.03
388.05
380.852
360.428
337.352
74.7971
62.2317
101.881
133.358
146.308
167.618
163.182
128.457
83.611
55.6186
0.225693
0.172156
0.154183
0.129536
0.281391
1.00534
0.51342
0.241274
0.35651
0.592059
0.264547
0.139512
0.184523
0.0257046
0.0635204
0.203592
0.0668369
0.0192095
0.115399
0.294968
0.118824
0.0766322
0.116088
-0.024826
-0.0460781
0.00469066
-0.0566295
-0.0476047
0.0288318
0.157538
0.145981
0.069613
-0.0152627
-0.0469108
-0.0501989
-0.0528516
-0.091174
-0.0803482
-0.046459
0.0584385
0.277406
0.0680279
0.0608506
0.0511832
0.015242
-0.0503733
-0.106624
-0.109489
-0.0719324
-0.0656067
0.228481
0.0577873
0.0791867
0.107164
0.0375591
-0.074671
-0.0710604
-0.130795
-0.124622
-0.117178
0.0632304
0.0419774
0.0529135
0.196755
0.195413
0.219225
0.17832
-0.0534314
-0.115185
-0.125547
0.0305292
0.0373778
0.0405802
0.0822313
0.334349
0.311706
0.20155
-0.0605953
-0.103483
-0.143788
0.0379318
0.0434138
0.0410928
0.0406341
0.197274
0.101912
-0.0285708
-0.0654483
-0.116507
-0.173233
0.0827195
0.0671729
0.0567766
0.128715
0.0996201
0.0652954
-0.0236455
-0.0774013
-0.140567
-0.18115
0.159902
0.106048
0.0690371
0.250729
0.132733
0.0568211
-0.0303816
-0.0871139
-0.152274
-0.0812619
404.99
405.294
405.754
406.311
406.945
407.612
408.241
408.802
409.219
409.422
404.73
405.081
405.594
406.189
406.85
407.56
408.239
408.836
409.275
409.491
404.186
404.64
405.279
406.023
406.809
407.602
408.323
408.919
409.329
409.461
403.285
403.859
404.625
405.551
406.525
407.466
408.261
408.874
409.314
409.385
402.044
402.806
403.695
404.751
405.885
407.002
407.891
408.507
408.826
408.875
400.052
400.821
402.249
403.758
405.271
406.348
407.202
407.784
407.567
407.359
396.638
397.232
399.045
400.032
401.02
403.403
405.473
406.862
406.1
405.129
316.906
355.636
368.66
371.006
365.02
365.708
372.705
379.3
372.004
363.632
93.9508
63.4582
78.4863
87.7334
97.5481
124.316
147.886
143.583
104.849
79.436
0.153502
0.14264
0.13512
0.0850296
0.129794
0.219683
0.105671
0.126107
0.312044
0.455807
0.135725
0.105017
0.0831023
0.014669
0.0430434
0.101367
0.00011334
-0.0271716
0.0839703
0.236089
0.0801824
0.087603
0.0231289
-0.0303519
-0.0185589
-0.0266678
-0.0860686
-0.0674345
0.00329946
0.114352
0.0581792
0.0821888
-0.0101847
-0.0136467
-0.0333397
-0.0830035
-0.116005
-0.100858
-0.0619469
-0.0216022
0.0507489
0.0994808
0.047635
0.05358
0.0187201
-0.0934694
-0.155953
-0.152799
-0.106569
-0.107276
0.0401451
0.0699479
0.058761
0.179428
0.0326946
-0.135145
-0.156054
-0.0833187
-0.157632
-0.152016
0.0284123
0.0360446
0.0477732
0.241378
0.0770696
-0.0109279
0.0905503
0.0923052
-0.138965
-0.169226
0.0195277
0.0211595
0.0360482
0.0983449
0.324909
0.291855
0.238176
0.0344579
-0.155489
-0.190957
0.0183368
0.0235699
0.0267383
0.020477
0.309905
0.31161
0.0905104
-0.11574
-0.175137
-0.225675
0.0243509
0.0674301
0.0501094
0.0429014
0.0408538
0.129688
-0.00387383
-0.13949
-0.209325
-0.253777
0.0263717
0.101147
0.108566
0.171267
0.144627
0.0713913
-0.0656011
-0.162612
-0.232266
-0.121963
404.061
404.399
404.873
405.417
406.032
406.702
407.351
407.936
408.38
408.614
403.679
404.086
404.634
405.238
405.891
406.594
407.286
407.913
408.386
408.639
402.863
403.401
404.104
404.872
405.679
406.511
407.292
407.969
408.463
408.685
401.534
402.212
403.091
404.098
405.13
406.172
407.112
407.886
408.435
408.707
399.778
400.606
401.62
402.881
404.202
405.492
406.628
407.553
408.159
408.523
397.432
398.075
399.48
401.153
403.003
404.777
406.08
407.157
407.574
406.778
394.55
394.318
396.354
397.94
399.525
401.303
403.408
405.83
406.859
407.069
344.136
353.75
365.255
369.367
372.665
368.349
359.129
375.19
381.994
388.388
96.9767
61.6446
68.0307
68.6344
67.3518
75.4635
106.948
148.913
136.42
113.773
0.101231
0.124018
0.129742
0.0853924
0.125005
0.97474
-0.089929
-0.0960665
0.248337
0.331417
0.0868111
0.0888838
0.0767851
0.0195707
0.0760954
0.0655383
-0.0276391
-0.0548181
0.0369066
0.167622
0.0580801
0.0593222
0.0566704
0.0596046
0.0216106
-0.0487784
-0.111391
-0.0869715
-0.0130446
0.0637595
0.0416307
0.0833797
0.0261461
0.0825385
0.00271155
-0.0888577
-0.128076
-0.106643
-0.0623304
-0.0413557
0.0377964
0.0706131
0.0463817
0.172933
0.0411381
-0.104246
-0.171752
-0.169855
-0.129878
-0.111925
0.0325475
0.0324544
0.0471485
0.235039
0.0416159
-0.140677
-0.227358
-0.132175
-0.136901
-0.147181
0.0380945
0.0209728
0.0411795
0.213527
0.0101015
-0.119372
-0.167828
0.00349433
0.0190231
-0.137717
0.0329415
0.000941194
0.0261643
0.0145677
0.262364
0.256654
0.197997
0.147676
0.0405497
-0.180644
0.0206307
0.137469
0.0789032
-0.0176232
0.228279
0.26026
0.214989
0.0272814
-0.205044
-0.231319
0.0219298
0.376002
0.337682
0.00861514
-0.0240483
-0.0334251
-0.113385
-0.21225
-0.25682
-0.266746
0.0250674
0.0979828
0.142665
0.00600231
-0.00762152
-0.0494282
-0.1479
-0.251423
-0.293228
-0.264108
403.146
403.556
404.062
404.592
405.181
405.844
406.519
407.132
407.594
407.834
402.608
403.136
403.748
404.353
404.998
405.705
406.419
407.08
407.579
407.847
401.424
402.179
403.018
403.814
404.614
405.487
406.353
407.119
407.689
407.967
399.437
400.406
401.541
402.701
403.809
404.957
406.084
407.053
407.72
408.133
396.747
397.856
399.209
400.855
402.486
404.062
405.524
406.798
407.693
406.989
393.334
394.138
395.764
398.088
400.568
402.94
405.16
406.717
407.677
406.643
389.407
388.399
390.895
394.066
397.171
399.924
402.287
404.918
407.149
408.365
326.359
300.6
331.404
354.798
364.973
374.775
375.51
374.24
389.517
396.297
46.7312
26.6803
42.0986
57.0714
65.1
64.9206
77.5739
132.383
169.285
150.795
0.0779804
0.118053
0.121548
0.102121
0.144872
0.116272
-0.0557755
-0.198446
0.144732
0.336143
0.0682043
0.0800196
0.108758
0.0749738
0.103772
0.105428
0.00724325
-0.0119273
0.0278991
0.113071
0.0431259
0.0632861
0.134298
0.138873
0.0522939
-0.0255911
-0.0995732
-0.073007
0.0189224
0.0451211
0.0367831
0.0579572
0.0633665
0.183855
0.0412655
-0.0630296
-0.106879
-0.0992876
-0.0754685
-0.0411883
0.0637659
0.0873774
0.109635
0.120692
0.0568105
-0.0860787
-0.146272
-0.154517
-0.157621
-0.116238
0.0348652
0.0311201
0.0999285
0.113504
0.0255459
-0.119344
-0.216056
-0.213787
-0.187131
-0.161664
0.0158929
-0.00355376
0.011853
0.0383443
-0.0262664
-0.116208
-0.201545
-0.208524
-0.123725
-0.121949
0.00991637
-0.016482
-0.0118943
-0.0357306
0.0689607
0.0156121
-0.00856287
0.0538312
0.0939247
-0.0648438
0.0118217
0.240618
0.128573
-0.0464197
0.068652
0.186811
0.16258
0.133548
0.113078
-0.0943701
0.0277333
0.434631
0.412068
0.219255
-0.126539
-0.138676
-0.0719418
-0.0837386
-0.10639
-0.142098
0.0352154
0.0669945
-0.000135509
-0.0567179
-0.0748351
-0.0723166
-0.166471
-0.254201
-0.249252
-0.167817
402.328
402.856
403.394
403.889
404.44
405.089
405.777
406.419
406.898
407.141
401.612
402.36
403.037
403.601
404.2
404.912
405.659
406.351
406.878
407.155
399.991
401.148
402.155
402.927
403.663
404.548
405.496
406.356
406.988
407.31
397.199
398.622
400.105
401.396
402.546
403.801
405.101
406.275
407.102
407.537
393.217
394.669
396.418
398.551
400.642
402.601
404.435
406.02
407.228
408.047
387.826