/*--------------------------------*- C++ -*----------------------------------*\
| =========                 |                                                 |
| \\      /  F ield         | OpenFOAM: The Open Source CFD Toolbox           |
|  \\    /   O peration     | Version:  2312                                  |
|   \\  /    A nd           | Website:  www.openfoam.com                      |
|    \\/     M anipulation  |                                                 |
\*---------------------------------------------------------------------------*/
FoamFile
{
    version     2.0;
    format      ascii;
    arch        "LSB;label=32;scalar=64";
    class       surfaceScalarField;
    location    "0.845";
    object      phi;
}
// * * * * * * * * * * * * * * * * * * * * * * * * * * * * * * * * * * * * * //

dimensions      [0 3 -1 0 0 0 0];

oriented        oriented;

internalField   nonuniform List<scalar> 
22600
(
1.76797e-07
-3.61577e-07
1.8478e-07
4.09404e-07
-3.96148e-07
1.63542e-07
6.00522e-07
-3.36964e-07
1.45846e-07
7.06395e-07
-2.58566e-07
1.52693e-07
7.30181e-07
-1.85584e-07
1.61798e-07
6.8528e-07
-1.18684e-07
1.63586e-07
5.87091e-07
-6.209e-08
1.60279e-07
4.55158e-07
-2.10019e-08
1.52935e-07
3.08207e-07
3.10024e-09
1.43851e-07
1.4899e-08
1.31961e-07
1.56916e-07
-6.81522e-07
1.6303e-07
4.03089e-07
-7.70545e-07
1.28224e-07
5.91927e-07
-6.16954e-07
9.11523e-08
6.9196e-07
-4.6227e-07
1.03671e-07
7.11391e-07
-3.38253e-07
1.33238e-07
6.6796e-07
-2.24028e-07
1.48775e-07
5.76886e-07
-1.22809e-07
1.51793e-07
4.53304e-07
-4.9286e-08
1.51867e-07
3.12669e-07
-1.05067e-08
1.54241e-07
-2.24545e-09
1.52098e-07
2.5212e-07
-1.18318e-06
2.4954e-07
5.86181e-07
-1.37642e-06
2.7181e-07
7.6724e-07
-9.57056e-07
1.59042e-07
8.48642e-07
-6.46385e-07
1.02714e-07
8.50615e-07
-4.66446e-07
1.2622e-07
7.79525e-07
-3.1875e-07
1.65811e-07
6.52036e-07
-1.85877e-07
1.90557e-07
4.91022e-07
-9.74868e-08
2.09214e-07
3.2616e-07
-7.95187e-08
2.33874e-07
-1.34844e-07
2.60467e-07
4.83817e-07
-2.11985e-06
4.52852e-07
9.28295e-07
-2.40101e-06
5.8012e-07
1.03415e-06
-1.47809e-06
4.15171e-07
1.02869e-06
-8.93516e-07
2.52595e-07
9.96485e-07
-6.31379e-07
1.97137e-07
8.91739e-07
-4.41549e-07
2.27546e-07
6.9314e-07
-2.66352e-07
2.79074e-07
4.45588e-07
-1.92166e-07
3.42231e-07
2.67163e-07
-3.37094e-07
4.36e-07
-6.19689e-07
5.32741e-07
7.17001e-07
-3.48377e-06
6.46917e-07
1.15805e-06
-3.69937e-06
8.57305e-07
1.19592e-06
-2.25159e-06
7.35635e-07
1.08182e-06
-1.34352e-06
5.64104e-07
9.70817e-07
-9.65882e-07
4.45507e-07
8.3409e-07
-7.30072e-07
4.2525e-07
5.82114e-07
-4.73919e-07
4.59542e-07
3.14558e-07
-4.9493e-07
5.70321e-07
2.41299e-07
-1.02168e-06
7.57844e-07
-1.43174e-06
8.6761e-07
7.58844e-07
-5.01189e-06
7.69273e-07
9.59177e-07
-5.0691e-06
1.1694e-06
1.02192e-06
-3.43257e-06
1.11823e-06
1.00159e-06
-2.25765e-06
9.34455e-07
9.252e-07
-1.6303e-06
7.40806e-07
8.73128e-07
-1.30788e-06
6.29876e-07
7.26823e-07
-8.72475e-07
5.44861e-07
5.51992e-07
-9.26912e-07
6.06813e-07
5.25916e-07
-1.74101e-06
7.45407e-07
-1.96268e-06
8.02773e-07
6.71857e-07
-6.65936e-06
9.75612e-07
8.78543e-07
-6.74706e-06
1.47128e-06
1.1551e-06
-5.21057e-06
1.50143e-06
1.26632e-06
-3.54572e-06
1.17686e-06
1.20272e-06
-2.30567e-06
7.38976e-07
1.25439e-06
-1.85981e-06
5.00269e-07
1.08973e-06
-1.22104e-06
5.13226e-07
7.28298e-07
-1.09692e-06
5.31443e-07
5.93515e-07
-2.14063e-06
5.34406e-07
-2.3827e-06
6.51287e-07
4.53868e-07
-7.93637e-06
8.23152e-07
1.51761e-06
-8.16689e-06
3.56087e-07
2.47473e-06
-6.73926e-06
5.71573e-07
2.92518e-06
-4.2496e-06
2.53428e-07
2.51783e-06
-1.84755e-06
-5.07658e-08
1.78754e-06
-1.02748e-06
-1.02042e-07
1.04882e-06
-5.7694e-07
9.46156e-08
4.80206e-07
-7.31727e-07
2.03422e-07
2.64079e-07
-2.09474e-06
1.70231e-07
-2.33332e-06
2.10202e-07
-4.57768e-07
-7.57134e-06
9.27274e-08
1.43855e-06
-7.45431e-06
-2.6089e-06
2.62685e-06
-5.77396e-06
-2.15361e-06
3.24689e-06
-2.69474e-06
-2.1749e-06
2.34189e-07
2.23424e-06
-1.0691e-06
1.58466e-06
-2.02162e-06
-3.56351e-07
5.34735e-07
-1.06762e-08
4.83662e-07
-3.28805e-08
-1.16813e-06
1.00402e-06
-5.39447e-07
-2.71266e-06
1.12449e-06
-2.85523e-06
1.1319e-06
-3.36901e-07
-5.64807e-06
-1.58636e-06
1.1353e-06
-5.56322e-06
-3.3633e-06
2.38995e-06
-4.28274e-06
-2.74587e-06
4.51511e-06
-2.94564e-06
-1.87425e-06
4.19515e-06
1.328e-06
1.22621e-06
-3.91202e-06
4.27737e-06
1.80818e-06
-2.60631e-06
-3.04026e-06
1.72388e-06
-2.38303e-06
-3.15473e-06
1.76331e-06
-3.74932e-06
-3.39175e-06
2.04539e-06
-3.80928e-06
2.4748e-06
3.72321e-07
-2.33003e-06
-3.69036e-06
1.65945e-06
-2.68646e-06
-4.16388e-06
2.58956e-06
-2.14415e-06
-3.06871e-06
5.14108e-06
-2.25537e-06
-3.24179e-06
8.12082e-06
-3.20156e-07
-1.33157e-06
8.30425e-06
3.26454e-06
8.29395e-07
3.73556e-06
-8.06925e-07
2.33536e-06
-2.26091e-06
-1.86768e-06
4.70943e-06
-6.85523e-06
-2.59787e-06
3.80043e-06
-4.10975e-06
2.43079e-06
8.29213e-07
1.26111e-06
-4.42036e-06
1.88357e-06
4.14563e-07
-4.15539e-06
2.58279e-06
1.75184e-07
-3.01854e-06
5.1156e-06
-6.989e-07
-4.08929e-06
8.21001e-06
5.02008e-08
-3.46478e-06
9.66798e-06
2.1184e-06
-3.1183e-07
4.04209e-06
1.65967e-06
3.15928e-06
-3.20452e-06
4.07605e-07
4.97133e-06
-7.97115e-06
-1.48208e-06
3.65086e-06
-2.80853e-06
-5.38199e-07
7.81124e-07
4.61763e-06
-4.13765e-06
1.30788e-06
3.56259e-06
-3.67478e-06
1.88701e-06
2.50151e-06
-2.90546e-06
4.38941e-06
1.37958e-06
-4.58088e-06
7.1155e-06
1.86118e-06
-4.53707e-06
6.97396e-06
2.84708e-06
-5.87149e-07
1.34733e-06
3.09951e-06
4.1868e-06
-4.84962e-06
2.27301e-06
4.33154e-06
-7.97617e-06
3.88034e-07
1.25644e-06
-1.00245e-07
-2.61443e-06
1.56476e-07
7.37986e-06
-2.9187e-06
1.02351e-07
6.0486e-06
-2.4319e-06
7.56938e-07
4.56587e-06
-2.71895e-06
3.27147e-06
3.63348e-06
-4.76843e-06
5.72242e-06
3.99976e-06
-4.58953e-06
4.25627e-06
4.36548e-06
-5.2246e-08
-1.40214e-06
4.33485e-06
4.42306e-06
-6.2783e-06
3.94833e-06
3.20084e-06
-8.21729e-06
2.56423e-06
-2.37215e-07
2.21458e-06
-2.69902e-06
-7.32016e-07
8.26252e-06
-1.5065e-07
-1.33787e-06
7.91711e-06
-1.26264e-06
-4.86223e-07
6.42117e-06
-2.70695e-06
2.00725e-06
5.93498e-06
-4.79498e-06
4.03803e-06
5.99902e-06
-4.03004e-06
1.73356e-06
5.80164e-06
8.68301e-07
-3.59729e-06
5.65816e-06
4.00754e-06
-7.17541e-06
5.55912e-06
1.96732e-06
-8.40556e-06
4.5607e-06
-7.66313e-07
4.23762e-06
-2.24787e-06
-1.38317e-06
6.87332e-06
2.77236e-06
-2.36089e-06
9.15449e-06
-2.59663e-07
-1.52576e-06
8.1465e-06
-2.56047e-06
6.20932e-07
8.19788e-06
-4.40958e-06
2.04504e-06
7.96785e-06
-3.39294e-06
-4.41928e-07
7.38444e-06
9.04174e-07
-5.06227e-06
7.25179e-06
3.02672e-06
-7.69273e-06
7.29629e-06
8.93266e-07
-8.71896e-06
6.66322e-06
-1.07629e-06
6.34296e-06
-1.87823e-06
-1.45189e-06
4.66758e-06
3.65764e-06
-2.83176e-06
9.37662e-06
1.15774e-06
-2.27654e-06
9.57601e-06
-1.98473e-06
-8.11641e-07
9.94873e-06
-3.21575e-06
-2.14226e-07
9.67732e-06
-2.30689e-06
-2.23285e-06
9.29684e-06
1.06212e-07
-5.68138e-06
9.31907e-06
1.38125e-06
-7.85859e-06
9.36462e-06
1.08886e-07
-9.08904e-06
8.88821e-06
-9.9454e-07
8.33735e-06
-1.25951e-06
-1.56832e-06
2.62683e-06
3.60907e-06
-3.15656e-06
8.50653e-06
2.45834e-06
-2.95055e-06
9.92303e-06
-5.53035e-07
-2.26311e-06
1.01817e-05
-9.20442e-07
-2.40996e-06
1.00789e-05
-2.54777e-07
-3.75296e-06
1.07993e-05
-1.59448e-07
-5.84115e-06
1.14292e-05
-2.1951e-08
-7.53486e-06
1.1209e-05
-1.50698e-07
-8.63728e-06
1.01147e-05
-1.24109e-07
9.00476e-06
1.3138e-07
-2.0543e-06
1.00149e-06
3.67962e-06
-3.35448e-06
6.2433e-06
3.56341e-06
-3.35506e-06
7.74113e-06
2.18248e-06
-3.27869e-06
7.81595e-06
2.28942e-06
-3.94715e-06
8.31641e-06
2.43098e-06
-4.79664e-06
1.04026e-05
1.24622e-06
-5.61199e-06
1.19839e-05
2.60681e-07
-6.32433e-06
1.13751e-05
5.46277e-07
-6.56696e-06
9.30583e-06
1.05154e-06
7.61951e-06
1.41274e-06
-1.89977e-06
2.65289e-06
2.48385e-07
-3.06116e-06
4.17731e-06
3.22737e-06
-3.13677e-06
3.98611e-06
3.83063e-06
-3.30558e-06
4.00573e-06
3.97904e-06
-3.9503e-06
3.99799e-06
4.96316e-06
-4.26469e-06
3.3031e-06
7.41387e-06
-3.96723e-06
2.1194e-06
9.56701e-06
-3.61366e-06
1.95787e-06
9.06364e-06
-3.26886e-06
2.22032e-06
6.74073e-06
2.35771e-06
4.94932e-06
1.55186e-07
-3.98877e-07
4.28472e-07
4.30211e-07
-5.63313e-07
4.5183e-07
6.81384e-07
-5.24166e-07
4.1884e-07
8.21775e-07
-3.89394e-07
4.01696e-07
8.58981e-07
-2.67387e-07
3.91979e-07
8.17636e-07
-1.78303e-07
3.83234e-07
7.1468e-07
-1.1276e-07
3.75995e-07
5.63518e-07
-6.41452e-08
3.68242e-07
3.77101e-07
-3.06454e-08
3.60914e-07
-2.02067e-08
3.49147e-07
1.21933e-07
-7.80553e-07
4.22773e-07
4.63966e-07
-1.2622e-06
4.85072e-07
7.49488e-07
-1.14062e-06
4.22087e-07
8.7579e-07
-7.88515e-07
3.76489e-07
8.84475e-07
-5.12518e-07
3.69685e-07
8.25391e-07
-3.41877e-07
3.71433e-07
7.15274e-07
-2.22695e-07
3.71845e-07
5.62618e-07
-1.32839e-07
3.73216e-07
3.80236e-07
-7.37045e-08
3.79683e-07
-6.59802e-08
3.81912e-07
2.79004e-07
-1.41186e-06
6.01841e-07
8.46805e-07
-2.40016e-06
8.41975e-07
1.14805e-06
-1.98581e-06
7.02987e-07
1.20668e-06
-1.24395e-06
4.99515e-07
1.13852e-06
-7.36129e-07
4.17994e-07
1.02088e-06
-4.77446e-07
4.19021e-07
8.67356e-07
-3.16939e-07
4.38327e-07
6.74843e-07
-1.93718e-07
4.62606e-07
4.49959e-07
-1.12726e-07
4.9778e-07
-1.1822e-07
5.27944e-07
6.22213e-07
-2.50458e-06
9.23363e-07
1.39363e-06
-3.93824e-06
1.34678e-06
1.63602e-06
-2.99725e-06
1.18422e-06
1.57637e-06
-1.76019e-06
8.28492e-07
1.42883e-06
-9.7702e-07
5.85567e-07
1.24932e-06
-6.03976e-07
5.33585e-07
1.02091e-06
-3.88766e-07
5.79316e-07
7.37403e-07
-2.2386e-07
6.55878e-07
4.55481e-07
-1.52243e-07
7.57439e-07
-2.61071e-07
8.54805e-07
8.96906e-07
-3.94665e-06
1.19208e-06
1.64223e-06
-5.49693e-06
1.67068e-06
1.83568e-06
-4.03454e-06
1.57947e-06
1.73056e-06
-2.36449e-06
1.27351e-06
1.53963e-06
-1.28249e-06
9.41908e-07
1.31445e-06
-7.51131e-07
7.97589e-07
1.02856e-06
-4.98192e-07
8.54858e-07
6.93206e-07
-3.4469e-07
1.0265e-06
4.40296e-07
-3.4794e-07
1.20645e-06
-6.10278e-07
1.33784e-06
9.77169e-07
-5.47675e-06
1.3222e-06
1.54125e-06
-6.84545e-06
1.95383e-06
1.75118e-06
-5.05585e-06
1.92961e-06
1.76686e-06
-3.15727e-06
1.71156e-06
1.60867e-06
-1.74471e-06
1.36121e-06
1.35831e-06
-9.34052e-07
1.06315e-06
1.14897e-06
-7.21376e-07
9.77392e-07
1.04221e-06
-7.79506e-07
1.14839e-06
9.05044e-07
-8.97671e-07
1.4323e-06
-9.68945e-07
1.63089e-06
1.2071e-06
-7.15345e-06
1.44521e-06
1.73139e-06
-7.90896e-06
2.01051e-06
2.00621e-06
-5.81453e-06
1.9853e-06
2.09329e-06
-3.78893e-06
1.72143e-06
1.88557e-06
-2.16189e-06
1.36389e-06
1.60766e-06
-1.19583e-06
1.03995e-06
1.60411e-06
-1.09694e-06
8.92338e-07
1.66668e-06
-1.42276e-06
1.11213e-06
1.41454e-06
-1.54697e-06
1.43584e-06
-1.0879e-06
1.55286e-06
1.74989e-06
-8.60062e-06
5.20442e-07
2.31229e-06
-8.10483e-06
-1.04435e-08
2.8043e-06
-5.95145e-06
2.1647e-07
3.10209e-06
-3.98269e-06
1.49403e-07
2.85685e-06
-2.16823e-06
2.00817e-07
2.26878e-06
-9.47083e-07
2.37271e-07
1.78088e-06
-7.30312e-07
2.15887e-07
1.19506e-06
-1.02477e-06
3.91257e-07
7.78094e-07
-1.67452e-06
7.14749e-07
-1.29357e-06
7.78104e-07
1.33034e-06
-7.6162e-06
-2.22204e-06
1.33282e-06
-6.79352e-06
-3.92269e-06
1.99112e-06
-5.2624e-06
-3.50096e-06
2.94451e-06
-3.51878e-06
-3.59218e-06
2.9079e-06
-3.13458e-07
-2.88725e-06
3.78897e-06
-9.04913e-07
-1.27959e-06
2.81542e-06
4.22317e-07
3.04588e-07
1.29324e-06
-5.09841e-07
2.01127e-06
-1.29698e-07
-2.69643e-06
3.56934e-06
-3.26879e-06
4.08962e-06
7.08746e-07
-6.115e-06
-3.79632e-06
3.26132e-07
-5.89785e-06
-3.87635e-06
1.77275e-06
-6.47953e-06
-2.97536e-06
4.54954e-06
-6.22762e-06
-1.94223e-06
6.04627e-06
-1.82808e-06
1.2441e-06
1.16039e-06
2.27823e-06
3.5109e-06
-1.74832e-06
1.79863e-06
3.25629e-06
-1.08426e-06
-5.41157e-06
6.00098e-06
-3.69262e-06
-3.75522e-06
5.71253e-06
-4.12159e-07
3.97555e-06
2.86785e-07
-3.99095e-06
-6.1012e-06
3.07904e-07
-5.10452e-06
-4.97834e-06
1.40344e-06
-6.17656e-06
-4.46722e-06
3.50182e-06
-6.66477e-06
-4.90302e-06
6.43058e-06
-2.89177e-06
-3.19664e-06
8.53521e-06
1.27964e-06
-2.76649e-07
7.74311e-06
2.75188e-06
2.17421e-06
2.85056e-06
-1.80025e-06
5.99065e-06
-2.01647e-06
-1.76616e-06
6.6784e-06
1.77192e-06
2.97757e-06
-7.48915e-08
-1.65765e-06
-6.67877e-06
3.20293e-07
-3.62052e-06
-6.03457e-06
1.25165e-06
-4.55529e-06
-5.57118e-06
2.57128e-06
-5.0043e-06
-7.06939e-06
4.18084e-06
-1.54451e-06
-6.42158e-06
6.73569e-06
1.04187e-06
-2.62891e-06
8.44852e-06
2.6677e-06
1.53062e-06
3.77417e-06
2.29146e-06
5.55396e-06
-6.4735e-07
1.63883e-06
4.6674e-06
3.95308e-06
-9.08911e-07
-3.83012e-07
1.12434e-06
-6.53663e-06
-2.90906e-07
-1.31823e-06
-6.06918e-06
4.9933e-07
-2.35974e-06
-5.89124e-06
1.16899e-06
-2.21659e-06
-8.03827e-06
2.12278e-06
1.07161e-06
-8.107e-06
4.0388e-06
2.19964e-06
-3.66094e-06
5.05485e-06
3.9046e-06
1.93383e-06
1.72516e-06
4.63016e-06
5.32253e-06
-2.0764e-06
4.75965e-06
1.93717e-06
6.77897e-06
-3.86221e-06
-1.25902e-06
4.22742e-06
-4.76276e-06
-2.0344e-06
9.97892e-07
-3.97265e-06
-1.10405e-06
-2.91615e-07
-5.71743e-06
-7.00439e-07
7.1659e-07
-8.10523e-06
2.27916e-07
3.72725e-06
-8.17351e-06
1.81239e-06
3.91678e-06
-3.35386e-06
1.62661e-06
5.62761e-06
2.88583e-06
-1.14614e-06
6.61909e-06
3.98466e-06
-3.88802e-06
7.77369e-06
-5.09374e-07
8.97774e-06
-5.20003e-06
-1.98584e-06
7.06442e-06
-1.00182e-06
-3.6444e-06
3.32729e-06
-1.93348e-06
-3.0792e-06
1.8638e-06
-5.42756e-06
-2.66701e-06
3.49642e-06
-7.98701e-06
-1.21907e-06
5.99148e-06
-7.74221e-06
8.10935e-08
6.34671e-06
-2.86181e-06
-8.87514e-07
7.45481e-06
3.14894e-06
-3.0571e-06
8.91936e-06
1.83664e-06
-4.50606e-06
1.0861e-05
-2.40466e-06
1.08828e-05
-5.84935e-06
-2.19034e-06
8.31752e-06
3.70961e-06
-4.49044e-06
5.90054e-06
-5.3282e-07
-4.67331e-06
4.18572e-06
-4.69953e-06
-4.45455e-06
6.21011e-06
-7.34205e-06
-2.83807e-06
8.40057e-06
-7.41848e-06
-1.41912e-06
9.38564e-06
-3.5537e-06
-2.29767e-06
9.91274e-06
1.44734e-06
-3.81718e-06
1.18851e-05
-5.52932e-07
-3.98376e-06
1.38304e-05
-3.87916e-06
1.24345e-05
-5.52973e-06
-1.4951e-06
6.90285e-06
6.5674e-06
-4.14339e-06
7.98853e-06
1.71804e-06
-5.08381e-06
6.45753e-06
-3.31611e-06
-5.39097e-06
8.86075e-06
-5.55923e-06
-3.94974e-06
1.10098e-05
-6.35739e-06
-2.23542e-06
1.24997e-05
-4.72217e-06
-2.87932e-06
1.32629e-05
-1.32501e-06
-3.69182e-06
1.51673e-05
-2.36085e-06
-3.00593e-06
1.6086e-05
-3.93602e-06
1.33946e-05
-3.4105e-06
-8.58769e-07
4.32806e-06
7.04265e-06
-3.70036e-06
8.82723e-06
4.46122e-06
-5.19255e-06
8.56471e-06
-1.16801e-06
-5.56204e-06
1.11652e-05
-2.85541e-06
-4.37763e-06
1.32276e-05
-3.65696e-06
-2.72651e-06
1.48677e-05
-4.17851e-06
-2.90819e-06
1.62371e-05
-2.81443e-06
-3.23066e-06
1.77619e-05
-2.42282e-06
-2.67627e-06
1.74759e-05
-2.06839e-06
1.42693e-05
2.5982e-07
-1.71748e-06
2.51971e-06
7.20545e-06
-4.19227e-06
8.77722e-06
6.08822e-06
-5.61316e-06
1.0042e-05
2.12606e-06
-5.61976e-06
1.22195e-05
1.2417e-06
-4.71758e-06
1.40553e-05
7.01169e-07
-3.37321e-06
1.59505e-05
-1.18096e-06
-3.05677e-06
1.78699e-05
-1.68862e-06
-3.19373e-06
1.90949e-05
-6.49792e-07
-3.49076e-06
1.76763e-05
1.14814e-06
1.42508e-05
3.79583e-06
-3.34337e-06
6.32776e-06
2.18821e-06
-5.13473e-06
7.36066e-06
7.38524e-06
-5.74538e-06
5.86241e-06
8.77641e-06
-5.58228e-06
5.61195e-06
1.04502e-05
-5.16483e-06
5.34392e-06
1.22919e-05
-4.30266e-06
3.49688e-06
1.48945e-05
-3.58019e-06
1.72895e-06
1.75379e-05
-3.36946e-06
2.38345e-06
1.84586e-05
-3.87527e-06
4.14478e-06
1.62577e-05
5.62813e-06
1.26803e-05
1.38565e-07
-3.37246e-07
6.27152e-07
3.98355e-07
-5.1753e-07
7.09571e-07
6.43319e-07
-4.96635e-07
6.70509e-07
7.8326e-07
-3.66938e-07
6.28693e-07
8.22744e-07
-2.44905e-07
5.974e-07
7.86332e-07
-1.58528e-07
5.78173e-07
6.90149e-07
-9.83653e-08
5.70543e-07
5.44319e-07
-5.49875e-08
5.69058e-07
3.60156e-07
-2.90457e-08
5.74123e-07
-3.10391e-08
5.71856e-07
8.59009e-08
-6.24009e-07
6.23636e-07
3.98494e-07
-1.12691e-06
7.81857e-07
6.95526e-07
-1.10241e-06
7.30827e-07
8.34026e-07
-7.75327e-07
6.46378e-07
8.49384e-07
-4.86214e-07
5.95637e-07
7.95857e-07
-3.08991e-07
5.75424e-07
6.92628e-07
-1.96356e-07
5.73064e-07
5.47111e-07
-1.16536e-07
5.80281e-07
3.69587e-07
-7.07907e-08
5.98953e-07
-7.60822e-08
6.11465e-07
1.58055e-07
-9.9132e-07
8.11096e-07
6.88239e-07
-1.97758e-06
1.16247e-06
1.06932e-06
-1.87804e-06
1.09754e-06
1.17256e-06
-1.25271e-06
8.73668e-07
1.1064e-06
-7.22484e-07
7.20421e-07
9.89579e-07
-4.42575e-07
6.69424e-07
8.48454e-07
-2.87989e-07
6.71086e-07
6.69652e-07
-1.64791e-07
6.89664e-07
4.45554e-07
-6.3623e-08
7.1471e-07
-4.62468e-08
7.2581e-07
4.26559e-07
-1.58289e-06
1.08837e-06
1.20479e-06
-3.03141e-06
1.62238e-06
1.60042e-06
-2.67701e-06
1.58755e-06
1.63187e-06
-1.71126e-06
1.25559e-06
1.47081e-06
-9.30036e-07
9.54181e-07
1.26597e-06
-5.37563e-07
8.33406e-07
1.04971e-06
-3.34028e-07
8.41621e-07
7.94046e-07
-1.51505e-07
8.98253e-07
5.00613e-07
2.79967e-08
9.59251e-07
9.51348e-08
9.63326e-07
7.36525e-07
-2.46133e-06
1.334e-06
1.57703e-06
-4.131e-06
1.92976e-06
1.92026e-06
-3.37716e-06
1.9364e-06
1.91066e-06
-2.08341e-06
1.65527e-06
1.72469e-06
-1.09956e-06
1.2974e-06
1.50478e-06
-6.52761e-07
1.1327e-06
1.27922e-06
-4.43548e-07
1.18994e-06
9.22662e-07
-3.30757e-08
1.26463e-06
5.30648e-07
3.15262e-07
1.3112e-06
3.35484e-07
1.32817e-06
9.39555e-07
-3.6169e-06
1.53822e-06
1.64736e-06
-5.15823e-06
2.27326e-06
1.91253e-06
-3.94688e-06
2.23416e-06
1.95023e-06
-2.42345e-06
2.0139e-06
1.81717e-06
-1.26653e-06
1.66123e-06
1.63605e-06
-8.09496e-07
1.40101e-06
1.48256e-06
-7.55016e-07
1.44234e-06
1.25579e-06
-3.48506e-07
1.69059e-06
8.87279e-07
2.58431e-07
1.85764e-06
5.06358e-07
1.88671e-06
1.29641e-06
-5.36914e-06
1.90103e-06
1.76044e-06
-6.15163e-06
2.5399e-06
1.86764e-06
-4.41639e-06
2.34761e-06
1.9121e-06
-2.83048e-06
2.084e-06
1.83728e-06
-1.62638e-06
1.79856e-06
1.81249e-06
-1.17915e-06
1.4344e-06
1.88312e-06
-1.34856e-06
1.41525e-06
1.83405e-06
-8.90332e-07
1.70303e-06
1.41442e-06
7.70033e-08
2.0369e-06
6.7948e-07
2.15862e-06
1.91738e-06
-7.84742e-06
1.08134e-06
2.15904e-06
-6.9404e-06
5.36665e-07
2.26546e-06
-4.98047e-06
6.74137e-07
2.3597e-06
-3.62164e-06
8.46325e-07
2.20998e-06
-2.2545e-06
9.78657e-07
1.96288e-06
-1.24167e-06
5.46897e-07
1.46787e-06
-8.29568e-07
1.91901e-07
7.41603e-07
-4.5502e-07
6.82211e-07
4.67689e-07
4.36621e-08
1.022e-06
5.34979e-07
1.09089e-06
1.26263e-06
-7.53989e-06
-3.7922e-06
1.92576e-06
-5.68624e-06
-5.84e-06
3.04399e-06
-4.7336e-06
-4.86607e-06
3.60198e-06
-3.84991e-06
-3.92191e-06
3.90979e-06
-3.56013e-06
-1.88943e-06
4.24454e-06
-2.47003e-06
-3.85991e-07
3.92835e-06
-3.15835e-07
1.07046e-07
2.97564e-06
9.30102e-07
1.57887e-06
1.87629e-06
6.2683e-07
4.08552e-06
1.65677e-06
4.70718e-06
5.4522e-07
-6.9057e-06
-4.97573e-06
9.13509e-07
-5.51798e-06
-4.4129e-06
3.166e-06
-6.74137e-06
-3.22007e-06
6.11373e-06
-6.37743e-06
-2.36245e-06
6.76746e-06
-2.35452e-06
-6.15234e-07
4.83764e-06
1.07572e-06
1.89498e-06
2.64621e-07
4.19223e-06
3.32124e-06
-6.30391e-07
9.65992e-07
6.8601e-06
-1.13345e-06
-1.34829e-06
8.19071e-06
2.132e-06
5.82457e-06
-4.39749e-07
-5.87889e-06
-6.68827e-06
-4.07025e-07
-6.01361e-06
-4.51544e-06
8.78798e-07
-7.94034e-06
-4.55407e-06
2.83576e-06
-7.8391e-06
-5.39832e-06
3.93305e-06
-1.74134e-06
-4.90711e-06
4.83898e-06
2.83249e-06
-2.93935e-06
6.37947e-06
4.3083e-06
5.17636e-07
5.05909e-06
2.12516e-06
6.15185e-06
3.22976e-06
3.49121e-08
7.12454e-06
4.61232e-06
4.18805e-06
-8.82228e-07
-3.92992e-06
-7.74551e-06
-5.20047e-07
-5.3953e-06
-7.01507e-06
2.89076e-08
-6.93017e-06
-7.13031e-06
2.31031e-07
-6.57745e-06
-8.53317e-06
5.5664e-07
-7.52314e-08
-8.41331e-06
1.67589e-06
4.62166e-06
-5.53733e-06
5.02839e-06
4.30277e-06
-1.81636e-06
6.30658e-06
3.23813e-06
3.1628e-06
4.05286e-06
2.91566e-06
4.04037e-06
7.95669e-06
2.25914e-07
-8.3256e-07
-1.60323e-06
-8.03076e-06
-2.53069e-07
-4.09208e-06
-7.95189e-06
-3.53954e-07
-4.85134e-06
-7.86919e-06
-1.48745e-06
-3.69495e-06
-9.78729e-06
-2.0197e-06
2.53972e-06
-1.01897e-05
-1.37006e-06
6.87381e-06
-6.56274e-06
2.21673e-06
5.39692e-06
-2.74712e-06
4.50783e-06
5.06846e-06
1.20112e-06
1.49007e-06
6.77449e-06
1.0961e-06
1.10286e-05
-3.26278e-06
-1.66814e-06
7.16118e-07
-5.41396e-06
-1.61438e-06
-2.41905e-06
-5.69944e-06
-1.72018e-06
-2.82981e-06
-7.63316e-06
-3.19176e-06
-6.1144e-07
-9.71716e-06
-3.97959e-06
5.36663e-06
-1.02126e-05
-3.09691e-06
9.42806e-06
-6.79078e-06
2.82606e-08
7.5721e-06
-2.41453e-06
1.47374e-06
8.28701e-06
-6.79371e-07
-1.24125e-06
1.08747e-05
-1.89463e-06
1.2473e-05
-6.04895e-06
-2.63456e-06
3.68721e-06
-1.33837e-06
-3.64191e-06
-3.8451e-07
-2.96068e-06
-4.09434e-06
-8.34767e-07
-6.97018e-06
-5.3465e-06
2.08524e-06
-9.43151e-06
-5.69008e-06
7.80851e-06
-9.84052e-06
-4.28121e-06
1.22016e-05
-7.04422e-06
-1.91408e-06
1.12831e-05
-2.92922e-06
-1.02334e-06
1.27256e-05
-3.49268e-06
-1.58473e-06
1.46478e-05
-5.61632e-06
1.35018e-05
-8.44297e-06
-2.43621e-06
6.04638e-06
3.78665e-06
-4.69658e-06
2.57885e-06
-1.23582e-06
-5.72926e-06
1.25207e-06
-5.75367e-06
-6.99348e-06
4.41282e-06
-8.40542e-06
-6.90422e-06
9.76826e-06
-9.46751e-06
-5.2129e-06
1.50147e-05
-8.05812e-06
-3.22664e-06
1.60311e-05
-5.28684e-06
-1.65969e-06
1.72002e-05
-6.59455e-06
-1.77423e-07
1.75951e-05
-8.3087e-06
1.48639e-05
-8.25394e-06
-8.08215e-07
5.79335e-06
7.62864e-06
-3.22877e-06
5.2589e-06
1.45854e-06
-4.94473e-06
3.54288e-06
-3.89096e-06
-6.88171e-06
6.79916e-06
-6.00859e-06
-7.11404e-06
1.15493e-05
-7.90612e-06
-5.37895e-06
1.6948e-05
-8.39056e-06
-3.19189e-06
1.97646e-05
-7.24557e-06
-9.54505e-07
2.03817e-05
-7.77967e-06
7.91662e-07
1.94522e-05
-7.53933e-06
1.61106e-05
-4.94554e-06
1.06949e-06
3.55783e-06
8.20868e-06
-7.28613e-07
6.35872e-06
5.15951e-06
-2.99116e-06
5.65904e-06
-1.02161e-06
-5.29297e-06
9.21549e-06
-2.96993e-06
-6.05397e-06
1.32111e-05
-4.55771e-06
-4.68033e-06
1.76458e-05
-6.24996e-06
-2.47912e-06
2.11065e-05
-6.35763e-06
-4.14709e-07
2.17379e-05
-5.84339e-06
4.86044e-07
2.03358e-05
-3.85275e-06
1.70108e-05
5.60707e-09
1.40459e-07
1.95903e-06
8.6638e-06
-1.54567e-06
6.99533e-06
7.13774e-06
-3.51017e-06
8.02608e-06
1.72351e-06
-4.69497e-06
1.13915e-05
2.50459e-07
-4.82221e-06
1.44271e-05
-3.87655e-07
-3.64945e-06
1.73748e-05
-2.08275e-06
-1.94247e-06
2.04824e-05
-2.77142e-06
-6.69695e-07
2.16038e-05
-1.78855e-06
-7.15107e-07
2.02055e-05
1.32387e-06
1.70872e-05
5.88303e-06
-2.28098e-06
8.3116e-06
2.25616e-06
-3.96784e-06
8.58649e-06
7.45639e-06
-4.99517e-06
5.44783e-06
9.46799e-06
-5.03985e-06
5.01054e-06
1.20376e-05
-4.44798e-06
5.13692e-06
1.40423e-05
-3.3034e-06
3.6344e-06
1.60927e-05
-2.16627e-06
2.29709e-06
1.87771e-05
-1.69425e-06
3.24142e-06
2.02739e-05
-2.38308e-06
6.03126e-06
1.90079e-05
8.67649e-06
1.62263e-05
1.45238e-07
-2.51199e-07
7.33113e-07
3.82202e-07
-3.74673e-07
8.4728e-07
6.02632e-07
-3.56519e-07
8.06599e-07
7.3638e-07
-2.63265e-07
7.5821e-07
7.82039e-07
-1.70087e-07
7.21828e-07
7.55496e-07
-9.61638e-08
7.00881e-07
6.68541e-07
-3.68448e-08
6.94343e-07
5.31015e-07
1.05693e-08
6.96015e-07
3.51032e-07
4.26587e-08
7.11448e-07
5.16051e-08
7.1492e-07
9.88105e-08
-4.53237e-07
7.26863e-07
3.5402e-07
-7.5667e-07
9.08645e-07
6.11824e-07
-7.49199e-07
8.65702e-07
7.54592e-07
-5.44378e-07
7.84723e-07
7.92352e-07
-3.40918e-07
7.28708e-07
7.59518e-07
-1.91813e-07
7.03907e-07
6.72745e-07
-8.01972e-08
7.03189e-07
5.42687e-07
5.15926e-09
7.15748e-07
3.74043e-07
5.99231e-08
7.50333e-07
8.53308e-08
7.7486e-07
9.95664e-08
-6.49754e-07
9.08046e-07
4.7113e-07
-1.20525e-06
1.23948e-06
8.24395e-07
-1.21031e-06
1.20539e-06
9.82712e-07
-8.58114e-07
1.02909e-06
9.89057e-07
-5.17353e-07
8.90511e-07
9.24988e-07
-2.95414e-07
8.37094e-07
8.09777e-07
-1.27799e-07
8.33898e-07
6.40826e-07
2.08136e-08
8.4296e-07
4.28423e-07
1.30956e-07
8.5608e-07
2.04277e-07
8.32556e-07
2.43275e-07
-9.27244e-07
1.12259e-06
8.07717e-07
-1.74899e-06
1.60167e-06
1.21824e-06
-1.66746e-06
1.63417e-06
1.35979e-06
-1.14383e-06
1.39975e-06
1.30756e-06
-6.5967e-07
1.14873e-06
1.18055e-06
-3.63546e-07
1.02855e-06
1.00832e-06
-1.46141e-07
1.03219e-06
7.63799e-07
9.54388e-08
1.06815e-06
4.64926e-07
3.24552e-07
1.06453e-06
4.45311e-07
9.54359e-07
5.22454e-07
-1.39294e-06
1.27725e-06
1.2457e-06
-2.40269e-06
1.86021e-06
1.63044e-06
-2.05482e-06
1.93903e-06
1.72665e-06
-1.33752e-06
1.75275e-06
1.66748e-06
-7.95237e-07
1.49214e-06
1.56661e-06
-5.0076e-07
1.37077e-06
1.32187e-06
-7.26499e-08
1.36119e-06
9.37616e-07
3.75978e-07
1.36835e-06
5.09909e-07
7.23768e-07
1.33969e-06
8.29531e-07
1.1898e-06
7.4142e-07
-2.16417e-06
1.56803e-06
1.46663e-06
-3.16591e-06
2.31128e-06
1.79247e-06
-2.40151e-06
2.25501e-06
1.87176e-06
-1.44669e-06
2.04379e-06
1.84966e-06
-8.93415e-07
1.7815e-06
1.87217e-06
-7.48312e-07
1.62606e-06
1.79149e-06
-2.92301e-07
1.74267e-06
1.3439e-06
6.15783e-07
1.89838e-06
7.47576e-07
1.26255e-06
1.91518e-06
1.42618e-06
1.66259e-06
9.46378e-07
-3.48708e-06
2.27755e-06
1.33366e-06
-4.01441e-06
3.00111e-06
1.50318e-06
-2.88155e-06
2.65812e-06
1.64697e-06
-1.82895e-06
2.32246e-06
1.76653e-06
-1.21063e-06
1.99621e-06
2.05921e-06
-1.19993e-06
1.59333e-06
2.1156e-06
-5.41123e-07
1.60768e-06
1.77977e-06
7.86096e-07
1.86855e-06
1.20546e-06
1.77067e-06
2.10309e-06
2.24847e-06
1.98498e-06
1.63108e-06
-5.84701e-06
1.81019e-06
1.8524e-06
-5.26585e-06
1.56678e-06
1.79682e-06
-3.99321e-06
1.84138e-06
1.76625e-06
-2.99257e-06
2.04052e-06
1.58847e-06
-1.66268e-06
1.60849e-06
1.1384e-06
-9.15511e-07
7.12551e-07
5.69947e-07
-1.75054e-07
3.94286e-07
4.31775e-07
7.33198e-07
8.73281e-07
4.06215e-07
1.62473e-06
1.19351e-06
2.26836e-06
1.21137e-06
2.4072e-06
-6.36455e-06
-5.68186e-06
4.508e-06
-4.79036e-06
-8.41629e-06
4.89393e-06
-3.43281e-06
-5.8124e-06
3.54251e-06
-2.83803e-06
-2.72503e-06
3.63155e-06
-3.71703e-06
7.5883e-08
3.54088e-06
-2.12421e-06
9.13378e-07
3.44313e-06
-6.72469e-07
7.02215e-07
3.03544e-06
2.03104e-06
6.8871e-07
2.21145e-06
4.05151e-06
2.48274e-06
5.26267e-06
3.25774e-06
1.56133e-06
-7.46294e-06
-5.43868e-06
3.08864e-06
-5.56984e-06
-5.16073e-06
6.07273e-06
-5.23216e-06
-4.40483e-06
8.30378e-06
-3.78294e-06
-3.64859e-06
7.14183e-06
-6.34557e-07
-2.53577e-06
6.05611e-06
1.39834e-06
-5.41847e-07
3.46583e-06
4.17127e-06
1.06777e-06
5.81866e-08
5.29015e-06
7.00863e-06
-1.52529e-06
4.92993e-06
8.89576e-06
7.23218e-06
5.62783e-06
-5.14543e-07
-7.08406e-06
-6.55262e-06
-1.10909e-06
-6.39733e-06
-3.09341e-06
2.50477e-07
-8.14337e-06
-3.00241e-06
2.66766e-06
-6.80032e-06
-4.79814e-06
2.35015e-06
2.5505e-07
-5.4792e-06
1.42505e-06
3.95867e-06
-4.57458e-06
1.23068e-06
5.96643e-06
-1.08316e-06
6.32433e-07
6.51847e-06
5.52178e-06
-1.8238e-06
7.57504e-06
6.93567e-06
1.12554e-05
2.25389e-06
-1.3476e-06
-5.11185e-06
-8.37011e-06
-2.01215e-06
-5.95098e-06
-6.79688e-06
-1.84602e-06
-8.30541e-06
-7.13441e-06
-1.12352e-06
-7.48575e-06
-8.57024e-06
-1.49882e-06
5.02772e-07
-8.28573e-06
-3.4293e-06
6.58426e-06
-6.23244e-06
-3.30101e-06
8.44643e-06
-4.42465e-06
-2.84327e-06
8.82462e-06
3.98911e-07
-4.86403e-06
1.09464e-05
2.68975e-06
1.31647e-05
-1.37717e-06
-5.97911e-07
-3.39193e-06
-9.15277e-06
-4.64459e-07
-5.27336e-06
-8.76297e-06
-1.65908e-06
-6.51635e-06
-8.46363e-06
-3.24524e-06
-5.67705e-06
-1.00098e-05
-4.27028e-06
1.8332e-06
-1.04951e-05
-6.30875e-06
9.44162e-06
-7.38162e-06
-6.71271e-06
1.12335e-05
-5.13025e-06
-5.93717e-06
1.19416e-05
-2.69144e-06
-6.24501e-06
1.32783e-05
-9.27922e-07
1.22773e-05
-4.49092e-06
-8.01461e-07
-1.51637e-06
-6.48806e-06
-2.77107e-07
-4.44556e-06
-7.0516e-06
-1.57475e-06
-4.57645e-06
-8.27542e-06
-4.16457e-06
-3.0756e-06
-9.72879e-06
-6.03464e-06
3.78952e-06
-1.02988e-05
-7.58584e-06
1.21871e-05
-7.98503e-06
-7.73121e-06
1.43347e-05
-5.37039e-06
-6.25765e-06
1.49241e-05
-5.13543e-06
-4.1543e-06
1.45442e-05
-5.26388e-06
1.07554e-05
-8.46048e-06
-1.83619e-06
8.10664e-07
-1.82922e-06
-2.1434e-06
-3.4178e-06
-3.68123e-06
-3.54406e-06
-2.8674e-06
-7.27856e-06
-5.83927e-06
-7.62579e-07
-9.44933e-06
-7.5142e-06
5.27713e-06
-9.65319e-06
-7.89e-06
1.3823e-05
-8.30437e-06
-6.80683e-06
1.72314e-05
-6.90904e-06
-4.16012e-06
1.72993e-05
-8.51462e-06
-3.5554e-08
1.51312e-05
-1.03279e-05
9.73793e-06
-1.09732e-05
-1.5806e-06
2.91316e-06
3.26475e-06
-3.23241e-06
-1.49465e-06
-1.50715e-06
-5.17399e-06
-1.13533e-06
-5.54416e-06
-7.06619e-06
1.04383e-06
-8.31964e-06
-8.16098e-06
5.88543e-06
-8.98101e-06
-7.29763e-06
1.36209e-05
-8.71934e-06
-4.8005e-06
1.82154e-05
-8.76805e-06
-1.02635e-06
1.77339e-05
-1.08032e-05
3.17436e-06
1.44056e-05
-1.17838e-05
1.01458e-05
-9.58403e-06
4.22947e-07
3.10889e-06
7.00997e-06
-1.4748e-06
1.2451e-06
6.16541e-07
-3.92605e-06
1.15355e-06
-3.72861e-06
-5.94234e-06
3.03671e-06
-5.98518e-06
-7.14357e-06
6.53627e-06
-7.35573e-06
-5.90225e-06
1.21615e-05
-8.17245e-06
-2.61349e-06
1.66598e-05
-8.97865e-06
1.14743e-06
1.62894e-05
-1.00962e-05
3.46354e-06
1.35137e-05
-8.96351e-06
1.14093e-05
-4.79109e-06
2.36455e-06
1.40613e-06
7.54687e-06
2.03967e-06
2.79421e-06
3.93528e-06
5.9031e-07
3.07362e-06
-1.49232e-06
-2.25352e-06
5.41758e-06
-2.50697e-06
-4.44087e-06
8.03449e-06
-3.86856e-06
-4.11381e-06
1.08563e-05
-5.27189e-06
-1.41789e-06
1.3751e-05
-6.14472e-06
1.2032e-06
1.39548e-05
-6.12983e-06
1.605e-06
1.28453e-05
-3.58619e-06
1.23561e-05
9.96606e-07
2.03246e-06
1.39929e-07
7.89755e-06
2.43955e-06
3.63513e-06
5.88973e-06
2.0576e-06
4.75567e-06
4.23407e-07
2.10919e-07
7.56174e-06
-4.70174e-08
-1.70208e-06
9.58325e-06
-2.34297e-08
-2.2215e-06
1.0126e-05
-8.33028e-07
-9.77753e-07
1.10448e-05
-1.30907e-06
-6.83725e-08
1.19705e-05
-7.1365e-07
-9.415e-07
1.28791e-05
2.16327e-06
1.37366e-05
6.52338e-06
-4.20137e-07
8.07026e-06
8.01415e-07
-4.74e-07
7.26335e-06
5.01213e-06
-6.19345e-07
3.2379e-06
7.11095e-06
-1.17631e-06
3.57728e-06
9.55197e-06
-1.56246e-06
4.51222e-06
1.05941e-05
-1.74482e-06
4.00188e-06
9.94091e-06
-1.76942e-06
3.37184e-06
9.99469e-06
-2.1072e-06
4.08025e-06
1.14694e-05
-3.09594e-06
6.6742e-06
1.32249e-05
9.42117e-06
1.4322e-05
1.51556e-07
-1.66742e-07
7.48299e-07
3.70529e-07
-2.45199e-07
8.73506e-07
5.70988e-07
-2.27109e-07
8.33248e-07
7.00639e-07
-1.61342e-07
7.89901e-07
7.54412e-07
-9.20508e-08
7.60106e-07
7.38563e-07
-2.59466e-08
7.42676e-07
6.59409e-07
3.68883e-08
7.36609e-07
5.27622e-07
9.314e-08
7.34662e-07
3.44902e-07
1.41633e-07
7.52535e-07
1.81881e-07
7.38961e-07
1.23706e-07
-3.03426e-07
7.39842e-07
3.4575e-07
-4.66856e-07
9.08258e-07
5.62548e-07
-4.45778e-07
8.67573e-07
7.00869e-07
-3.21216e-07