/*--------------------------------*- C++ -*----------------------------------*\
| =========                 |                                                 |
| \\      /  F ield         | OpenFOAM: The Open Source CFD Toolbox           |
|  \\    /   O peration     | Version:  2312                                  |
|   \\  /    A nd           | Website:  www.openfoam.com                      |
|    \\/     M anipulation  |                                                 |
\*---------------------------------------------------------------------------*/
FoamFile
{
    version     2.0;
    format      ascii;
    arch        "LSB;label=32;scalar=64";
    class       volScalarField;
    location    "0.995";
    object      alpha.water;
}
// * * * * * * * * * * * * * * * * * * * * * * * * * * * * * * * * * * * * * //

dimensions      [0 0 0 0 0 0 0];

internalField   nonuniform List<scalar> 
8000
(
1
1
1
1
1
1
1
1
1
1
1
1
1
1
1
1
1
1
1
1
1
1
1
1
1
1
1
1
1
1
1
1
1
1
1
1
1
0.999997
1
1
1
1
1
1
1
1
1
0.999648
0.993257
0.990267
1
1
1
1
1
1
1
1
0.979284
0.977918
0.996571
1
1
1
1
1
1
1
0.993509
0.978109
0.959391
0.976782
0.993025
1
1
1
1
1
0.998607
0.985246
0.385281
0.40456
0.454832
0.558024
0.704969
0.848542
0.943209
0.996793
0.99858
0.98914
8.07417e-05
8.2647e-05
0.0048468
0.0278624
0.10675
0.280794
0.489034
0.685162
0.876519
0.975177
0.00016968
8.00139e-05
3.15887e-05
5.07866e-05
8.58723e-05
0.00455453
0.0298479
0.0657273
0.124102
0.180108
0.000154189
4.98818e-05
3.04971e-05
3.05626e-05
3.71506e-05
3.94252e-05
3.73515e-05
4.3814e-05
4.83299e-05
5.02651e-05
2.79329e-05
2.84416e-05
2.9479e-05
3.02814e-05
2.87246e-05
2.43806e-05
3.58638e-05
5.70309e-05
4.77164e-05
9.2139e-05
2.84416e-05
2.9479e-05
3.04978e-05
2.93102e-05
3.3102e-05
1.65211e-05
1.80104e-05
5.70878e-05
5.21356e-05
0.000320509
5.77207e-05
7.46564e-05
0.000100535
3.86462e-05
1.67015e-05
1.5412e-05
1.48722e-05
2.42484e-05
6.29927e-05
0.000398103
0.000690379
0.000709523
0.000730987
0.000466042
7.59657e-05
1.48552e-05
1.46002e-05
1.43099e-05
8.01397e-05
0.00017941
0.000798197
0.000799263
0.000801105
0.000802955
0.000426399
0.000101809
1.43099e-05
1.42747e-05
5.62761e-05
1.35189e-05
0.000550196
0.000798197
0.000799263
0.000800301
0.000619422
0.000477044
0.000128367
1.42467e-05
1.64291e-05
1.21079e-05
0.000139606
0.000250195
0.000353949
0.000603278
0.000617554
0.000605677
0.000503623
1.4538e-05
1.20508e-05
1.20095e-05
2.58339e-05
5.66267e-05
0.000251906
0.000436931
0.000561137
0.000597592
0.000562642
6.65295e-05
1.20095e-05
1.20095e-05
1
1
1
1
1
1
1
1
1
1
1
1
1
1
1
1
1
1
1
1
1
1
1
1
1
1
0.999995
0.999912
1
0.999993
1
1
1
1
1
1
1
0.999311
0.995117
0.999999
1
1
1
1
1
1
1
0.999915
0.98969
0.999685
1
1
1
1
1
1
1
0.999816
0.99357
0.999364
1
1
1
1
1
1
1
0.999989
1
1
0.899955
0.922061
0.946555
0.972316
0.999498
1
1
1
0.999999
1
0.204289
0.216988
0.256467
0.339814
0.472674
0.649291
0.79727
0.912788
0.970889
0.99029
5.29841e-05
7.39051e-05
0.000242686
0.00106853
0.0242522
0.102604
0.23793
0.408593
0.574425
0.773676
0.000139451
4.20086e-05
3.56425e-05
9.2801e-05
0.000228764
0.000292111
0.000143364
0.00808146
0.014032
0.0154669
0.000153946
3.50445e-05
3.07712e-05
3.23367e-05
4.57088e-05
4.17138e-05
0.000102666
3.88195e-05
4.51945e-05
5.25256e-05
2.81664e-05
2.79016e-05
2.86418e-05
2.89031e-05
2.45852e-05
2.15689e-05
3.87618e-05
3.49835e-05
4.30781e-05
7.41906e-05
2.78956e-05
2.86418e-05
3.53675e-05
4.02282e-05
2.70744e-05
1.85026e-05
6.465e-05
2.89234e-05
4.04497e-05
0.000201151
3.00161e-05
0.000291624
0.000596973
0.000510118
6.42601e-05
1.94398e-05
6.53501e-05
2.58108e-05
5.09934e-05
0.000398416
0.000279884
0.000795389
0.000797739
0.000802948
0.000639097
2.19899e-05
1.99138e-05
7.31102e-05
0.0002224
0.000398728
0.00079323
0.00080004
0.000802948
0.000802948
0.000802948
0.000163727
1.562e-05
0.000129763
0.000237667
7.5288e-05
0.0007649
0.000788904
0.000800301
0.000802948
0.000800301
0.000328172
2.25577e-05
7.77235e-05
0.000239481
1.26169e-05
0.000694759
0.000284319
0.000220883
0.000800301
0.000270768
0.000472143
7.86932e-05
2.09442e-05
0.000145243
1.20378e-05
0.000228415
4.35307e-05
5.48364e-05
0.000429101
0.000178262
0.000177405
0.0003391
1.26261e-05
1.20378e-05
1.20095e-05
1
1
1
1
1
1
1
1
1
1
1
1
1
1
1
1
1
1
1
1
1
1
1
1
1
1
0.999999
0.999989
0.999917
1
1
1
1
1
1
0.999999
0.999993
0.999914
0.999303
0.999983
0.999999
1
1
1
1
1
1
0.999512
0.999968
0.999991
1
1
1
1
1
1
1
0.997251
0.999948
1
1
1
1
1
1
1
1
0.999929
1
1
0.662067
0.719125
0.798888
0.87363
0.939349
0.994633
1
1
0.999999
1
0.0480599
0.0556439
0.075477
0.115289
0.196162
0.338668
0.5309
0.705346
0.832649
0.873221
2.67484e-05
2.94048e-05
5.33663e-05
0.000118604
0.000535635
0.00334074
0.0426644
0.153701
0.323246
0.486303
8.58035e-05
0.000255503
0.000280739
4.34605e-05
1.66513e-05
0.000134881
0.000363778
0.000326251
0.000301306
6.23793e-05
0.000199916
0.000102083
3.23581e-05
4.10521e-05
5.01612e-05
2.28599e-05
3.28066e-05
5.22145e-05
7.91061e-05
5.10053e-05
0.000146637
2.86418e-05
2.82505e-05
2.48139e-05
2.56569e-05
2.4544e-05
2.57027e-05
3.28066e-05
4.53918e-05
5.06364e-05
4.12051e-05
3.18799e-05
8.56627e-05
0.000123954
2.59545e-05
2.0806e-05
2.77149e-05
3.29549e-05
0.000116329
5.06938e-05
4.02001e-05
0.000257493
0.000776195
0.000799309
0.00038684
4.24294e-05
3.79248e-05
3.00523e-05
0.000149998
0.000395977
0.000107993
0.00079046
0.000799309
0.000801634
0.000799309
0.000345451
3.45169e-05
3.6841e-05
0.00021524
0.000402342
0.000204423
0.000678959
0.000801634
0.000802948
0.000801634
0.000709268
1.81884e-05
6.96862e-05
0.000239932
0.00015894
1.43259e-05
0.000142318
0.000754791
0.000801634
0.000800105
0.000442328
2.00363e-05
0.000152167
0.000239005
1.33257e-05
2.42735e-06
4.86279e-06
0.000547054
0.000800044
0.000756879
2.53749e-05
2.03912e-05
0.000107968
0.000239442
1.23479e-05
2.06501e-06
2.42452e-06
0.00040312
0.000799188
0.000553003
2.23835e-05
5.58946e-05
2.23785e-05
9.88186e-05
1.20378e-05
1
1
1
1
1
1
1
1
1
1
1
1
1
1
1
1
1
1
1
1
1
1
1
1
1
1
0.999999
0.999994
0.999991
1
0.999998
1
1
1
1
1
0.999983
0.999984
1
1
0.99998
0.999998
1
1
1
0.999999
0.999987
0.99999
1
1
1
1
1
1
1
1
1
0.999986
1
1
0.993964
0.99833
0.999999
1
1
1
1
1
1
1
0.40543
0.474348
0.597635
0.733921
0.84092
0.91638
0.97241
0.983198
0.990654
0.986199
0.000727955
0.00158817
0.00583686
0.0197796
0.0598029
0.137614
0.245405
0.391431
0.585411
0.729575
1.84699e-06
2.67712e-06
2.16578e-06
3.71224e-06
2.16602e-06
0.000156796
0.00106574
0.0101625
0.0957781
0.209305
5.50427e-05
0.000157723
0.000164559
7.23675e-05
3.93966e-06
1.30635e-05
8.26563e-05
0.000552507
0.000581266
0.000233658
0.000155189
0.000114418
0.000103722
9.29849e-05
3.64776e-05
2.03235e-05
2.41747e-05
6.62338e-05
7.98646e-05
6.05969e-05
6.69012e-05
4.1499e-05
3.23886e-05
2.29168e-05
2.54339e-05
2.65102e-05
4.04449e-05
5.36808e-05
5.33335e-05
5.10059e-05
4.88699e-05
0.000144615
0.000229076
0.00010601
3.95847e-05
0.000139187
0.000264065
0.000218093
0.000134016
5.06311e-05
0.000135288
0.000620724
0.000728702
0.000772811
0.000451169
0.00033449
0.000354279
0.00032185
0.000422502
0.00028929
0.000142947
0.000511771
0.000667478
0.000799314
0.00078675
0.000318343
0.000121971
0.000293411
0.000434147
0.000419764
2.30863e-05
6.84692e-06
0.000189696
0.000801634
0.000745589
6.7779e-05
7.15233e-05
0.000285167
0.000191534
0.000248646
2.89935e-06
4.81459e-06
0.000442913
0.000800054
0.000493652
2.45729e-05
4.33266e-05
0.00018508
0.000120757
1.23545e-05
2.26033e-06
9.21157e-06
0.000813678
0.000802252
0.000300551
2.28625e-05
2.29693e-05
6.37991e-05
0.000128014
1.20998e-05
2.21522e-06
3.40987e-05
0.000821987
0.000811883
0.000239948
2.24357e-05
2.26854e-05
2.30799e-05
2.90181e-05
1.20862e-05
1
1
1
1
1
1
1
1
1
1
1
1
1
1
1
1
1
1
1
1
1
1
1
1
1
1
1
0.999999
1
1
1
1
1
1
1
1
0.999998
0.999993
0.999999
1
0.999976
0.999994
1
1
1
1
0.999997
0.999998
1
1
0.999997
0.999998
1
1
1
1
1
1
1
1
0.978485
0.987284
0.99722
0.999978
1
1
1
1
1
1
0.319192
0.37676
0.483278
0.639273
0.760765
0.83596
0.885981
0.905105
0.917824
0.924188
1.5786e-06
1.83588e-06
2.32708e-06
3.72035e-06
0.0203877
0.0667522
0.121959
0.17578
0.320863
0.515544
2.11048e-06
2.69074e-06
2.2095e-06
2.07211e-06
2.07274e-06
2.12821e-06
2.40952e-06
0.000844517
0.00377434
0.0387765
1.29706e-05
9.27548e-06
6.88086e-06
9.65422e-06
2.5223e-06
3.62103e-06
1.20088e-05
7.15795e-05
0.000359498
0.000513673
1.52731e-05
1.90059e-05
2.01155e-05
2.40754e-05
1.73362e-05
1.29521e-05
1.88135e-05
2.49294e-05
6.69953e-05
8.767e-05
1.79254e-05
2.48958e-05
2.15835e-05
1.8621e-05
3.21302e-05
0.000132617
0.000246243
0.000194333
7.75667e-05
5.51529e-05
0.00020575
0.000399573
0.000277265
2.2761e-05
9.26637e-05
0.000521273
0.000527847
0.000527847
0.000113439
5.19371e-05
0.000395761
0.000572369
0.000509541
0.000256213
0.000129393
0.000294386
0.000525776
0.000531849
0.000532869
5.92165e-05
9.79872e-05
2.48237e-05
9.95377e-06
0.000463114
0.000109763
2.23022e-05
0.000122514
0.000534181
0.000534181
0.000312788
3.54449e-06
5.8336e-06
2.38091e-05
0.000436157
3.24167e-05
2.68246e-05
3.17642e-05
0.000289461
0.000534181
0.000514571
3.54414e-06
8.97307e-06
0.00060192
0.000766136
3.12032e-05
2.75728e-05
3.12032e-05
0.000153974
0.000460198
0.000246053
2.76505e-06
0.000259936
0.000821987
0.00081496
0.000122975
2.45729e-05
2.77302e-05
0.000178988
0.000210748
1.2677e-05
3.06419e-06
0.000637624
0.000825922
0.000826132
0.000291255
2.28629e-05
2.50497e-05
0.000154174
0.000243139
0.000164898
1
1
1
1
1
1
1
1
1
1
1
1
1
1
1
1
1
1
1
1
1
1
1
1
1
1
1
1
1
1
1
1
1
1
1
1
1
1
1
1
0.999984
1
1
1
1
1
1
1
1
1
0.999986
0.999996
0.999998
0.999999
1
1
1
1
1
1
0.979751
0.987369
0.996817
0.999946
0.999987
0.999992
1
1
1
1
0.349099
0.397666
0.497349
0.635464
0.748838
0.795701
0.811984
0.820676
0.82009
0.832661
1.6516e-06
1.91602e-06
2.07084e-06
2.07274e-06
0.0168182
0.0464246
0.0675896
0.0847843
0.154612
0.282948
1.48477e-06
1.6516e-06
1.91602e-06
2.04423e-06
2.07141e-06
2.07274e-06
2.14308e-06
1.07286e-06
0.00126232
0.00314909
1.6516e-06
1.91602e-06
2.07081e-06
2.0727e-06
2.07269e-06
2.14337e-06
2.51612e-06
1.35799e-05
0.000192309
0.000365459
9.84803e-06
1.25107e-05
3.37896e-06
2.60011e-06
3.71376e-06
7.56958e-06
2.74719e-05
6.23179e-05
7.73129e-05
7.78298e-05
0.000232552
0.000265822
0.000130749
1.13417e-05
3.86088e-05
0.000279318
0.000381697
0.000297544
7.00324e-05
5.45316e-05
0.000334945
0.000371846
0.000335304
8.39527e-05
6.71256e-05
0.000465449
0.000534947
0.000552059
0.000192535
5.60839e-05
7.51361e-05
0.000170145
5.62153e-05
5.75708e-05
2.23923e-05
2.23022e-05
0.000178189
0.000500362
0.000521865
5.77441e-05
2.50177e-06
2.85107e-06
4.35407e-06
9.95377e-06
1.72238e-05
2.04045e-05
2.23022e-05
0.000105319
0.000532114
5.46217e-05
2.43396e-06
4.35407e-06
9.82572e-06
2.75128e-05
2.04045e-05
2.36381e-05
2.68246e-05
5.81286e-05
0.000363064
0.000177909
6.14493e-06
5.0082e-05
0.000391796
0.000631857
0.000106413
2.82653e-05
3.03277e-05
3.61635e-05
0.000127284
0.000311036
3.16185e-05
0.000672168
0.000825923
0.000823739
0.000532552
2.79992e-05
3.01752e-05
9.28477e-05
0.000266395
0.000311035
0.000137659
0.000825922
0.000827292
0.000829013
0.000788163
2.59778e-05
3.57346e-05
0.000272014
0.000308949
0.000311034
1
1
1
1
1
1
1
1
1
1
1
1
0.999999
0.999999
1
1
1
1
1
1
1
1
0.999995
1
1
1
1
1
1
1
0.999999
1
0.999999
1
1
1
1
1
1
1
0.999988
1
0.999999
1
1
1
1
1
1
1
0.99998
0.999992
0.999993
0.999997
0.999999
1
1
1
1
1
0.988828
0.993169
0.998773
0.999873
0.999954
0.99999
1
1
1
1
0.41812
0.460412
0.553142
0.691144
0.780426
0.800872
0.775154
0.74851
0.721255
0.733548
2.82392e-06
3.55657e-06
3.48922e-06
0.00152623
0.03392
0.047386
0.0449426
0.0402215
0.0759118
0.139464
1.49966e-06
1.86104e-06
2.07084e-06
2.07142e-06
2.07274e-06
2.14095e-06
2.43681e-06
3.45702e-06
0.000755034
0.00180091
1.49813e-05
5.39263e-06
2.8184e-06
2.2364e-06
2.14092e-06
2.4367e-06
1.18203e-05
0.000213562
0.000233628
0.000207869
8.44712e-05
0.000163165
8.71994e-05
2.95523e-06
5.53772e-06
1.79586e-05
4.3469e-05
0.000181139
6.73519e-05
5.45322e-05
9.27509e-05
0.000289508
0.00030162
6.58208e-05
5.04919e-05
0.000320995
0.000334701
0.000167356
5.53343e-05
4.4362e-05
3.62134e-06
0.000155612
0.000222928
0.000127228
6.33546e-05
0.000398749
0.000559905
0.000586834
0.000307571
5.45363e-05
2.12693e-06
2.37484e-06
5.84704e-06
1.19516e-05
4.41928e-05
2.79056e-05
0.000129781
0.00028679
0.000559728
9.91884e-05
2.10836e-06
4.12743e-06
9.93677e-06
1.85329e-05
2.04045e-05
2.26661e-05
2.79056e-05
3.60481e-05
0.000195949
5.84971e-05
2.66177e-05
8.31816e-06
1.828e-05
5.46579e-05
7.12285e-05
3.36314e-05
3.31712e-05
0.000123712
6.61641e-05
6.28995e-05
5.09016e-05
4.45087e-05
5.90072e-05
0.000507536
0.000442114
0.000104887
9.4548e-05
0.000302165
9.92977e-05
0.000184163
0.00016139
0.000506678
0.000432492
0.000638132
0.000584764
0.000219091
0.000284161
0.000302165
0.000306436
0.000311034
0.00023959
0.000816711
0.000808778
0.000165515
0.000197859
0.000178735
0.000299628
0.000305562
0.000308806
0.000117898
1
1
1
1
1
1
1
1
1
1
1
0.999993
0.999985
1
1
1
1
1
1
1
1
0.999995
0.999981
0.999997
0.999998
0.999992
0.999999
1
1
1
0.999994
0.999997
0.999992
0.999999
0.999986
0.999965
1
1
1
1
0.999971
0.999996
0.999992
0.999999
0.999998
1
1
1
1
1
0.999959
0.999984
0.999981
0.999995
0.999997
0.999999
1
1
1
1
0.996439
0.998355
0.999647
0.999828
0.99993
0.99997
0.999999
1
1
1
0.506967
0.546687
0.629611
0.741911
0.82046
0.823026
0.771256
0.703816
0.638835
0.667405
2.93416e-06
1.42399e-05
2.14356e-05
0.0259279
0.0614899
0.0620498
0.0397884
0.0156136
0.0308119
0.0768799
1.36609e-06
2.93376e-06
3.48834e-06
2.23638e-06
2.14095e-06
2.43688e-06
3.151e-06
1.5193e-05
0.000284771
0.00110061
3.95561e-06
0.000108893
0.00016433
2.14887e-05
2.48416e-06
3.151e-06
1.67559e-05
0.000279357
0.000244797
0.000149348
8.22887e-06
0.000312295
0.000400228
0.000161401
4.38855e-06
9.74444e-06
4.65931e-05
0.000149163
6.84187e-05
4.4357e-05
2.9137e-06
0.000158402
0.000315655
0.000173211
8.95467e-05
0.000303193
0.000332293
0.000130734
5.14912e-05
3.63753e-05
2.59968e-06
4.16038e-05
2.92735e-05
3.5616e-05
0.000170479
0.000559905
0.000586834
0.000599317
0.000480338
4.96782e-05
2.0684e-06
5.78518e-05
4.05288e-05
3.94623e-05
4.37116e-05
0.000131908
0.000445719
0.000581863
0.000590627
0.000145384
2.45296e-05
0.000140373
0.000110689
9.34504e-05
7.48701e-05
8.1832e-05
3.60481e-05
0.000123271
0.000222084
0.000110484
0.000107172
7.16684e-05
4.76533e-05
9.94809e-05
0.000338553
0.000310374
0.000107743
6.46005e-05
7.02326e-05
0.00016258
0.000109422
2.78051e-05
3.24108e-05
8.53314e-05
0.000412304
0.000366197
0.000273275
6.27688e-05
7.08043e-05
0.000582113
2.81364e-05
2.32041e-05
3.94144e-05
6.11031e-05
0.000102365
0.000233112
5.72679e-05
0.000259988
5.73385e-05
0.000155617
1.66551e-05
6.61457e-05
4.50331e-05
5.65269e-05
4.84965e-05
3.01492e-05
2.51346e-05
0.000299556
3.59932e-05
3.24352e-05
0.999961
1
1
1
1
1
1
1
1
1
0.999994
0.999994
0.999989
1
1
1
1
1
1
1
1
0.999985
0.999982
0.999993
0.99999
0.999974
0.99997
0.999998
1
1
0.999818
0.999994
0.999996
0.999999
0.999823
0.999706
0.999807
0.999992
1
1
0.999635
0.99995
0.999937
0.999995
0.999956
0.99945
0.999895
0.999997
0.999964
0.999999
0.999617
0.999938
0.999923
0.999988
0.999954
0.999145
0.999885
1
1
0.999918
0.999294
0.999575
0.999618
0.999826
0.999886
0.999507
0.999964
0.999999
1
0.996543
0.619699
0.658189
0.708588
0.790588
0.858785
0.858401
0.791867
0.684538
0.595055
0.647837
3.8048e-06
1.86366e-05
0.0182552
0.0546963
0.0966642
0.0895846
0.0448434
0.00245016
0.0110076
0.0551372
1.60156e-06
3.80476e-06
1.8254e-05
4.25516e-06
2.48416e-06
3.151e-06
4.20222e-06
1.2547e-05
5.90318e-05
0.0006719
4.57764e-06
0.000140694
0.000262667
0.000105849
4.38855e-06
4.20223e-06
5.50175e-06
7.38955e-05
8.46365e-05
0.000108601
3.50994e-05
0.000238753
0.000425298
0.000448032
8.73865e-05
1.705e-05
2.72639e-05
3.49843e-05
5.35217e-05
3.63732e-05
5.51923e-05
4.42661e-05
0.000242167
0.000334243
0.000405223
0.00035573
0.000384555
0.000218301
6.36691e-05
3.16976e-05
2.33628e-05
8.7554e-06
1.40252e-05
3.34037e-05
0.00012476
0.000481971
0.000599317
0.000599441
0.000575343
4.73492e-05
3.8425e-06
5.20954e-05
0.000221218
0.000302907
5.62437e-05
5.29449e-05
0.000402376
0.000599317
0.000596957
0.000112031
0.000122416
0.000317786
0.000400797
0.000403133
0.000170401
5.14127e-05
4.49349e-05
0.000579127
0.000590627
0.000129733
0.000360461
0.000281095
0.000240486
0.000401872
0.0003448
0.000154648
4.00192e-05
0.000126542
0.00039002
0.000178549
0.000287514
2.32041e-05
2.85527e-05
0.000165355
0.000364591
0.000323368
3.72662e-05
4.00186e-05
0.000152119
0.000585332
1.66551e-05
1.99227e-05
3.61948e-05
0.000209328
0.000324326
0.000275016
3.26857e-05
3.61458e-05
7.98992e-05
0.000591757
1.38831e-05
1.66551e-05
6.16481e-05
0.000173034
0.000234757
9.63377e-05
2.75392e-05
3.30446e-05
4.14248e-05
0.000399276
0.990063
1
1
1
1
1
1
1
1
1
0.994033
1
0.999999
1
1
1
1
1
1
1
0.996969
0.999982
0.999999
0.999998
0.999998
1
0.999929
0.999988
1
1
0.991756
0.999975
0.999999
0.999998
0.999997
0.999894
0.998939
0.999916
0.999997
1
0.990273
0.999742
0.999999
0.99986
0.999991
0.995971
0.99776
0.99998
0.999877
0.999811
0.991736
0.999737
0.999994
0.999818
0.997322
0.995874
0.99745
0.999963
0.999999
0.997003
0.993819
0.999537
0.999803
0.999647
0.998345
0.998048
0.999682
0.999991
0.999999
0.995713
0.718082
0.744072
0.77925
0.836685
0.891385
0.892562
0.828086
0.701305
0.58894
0.652782
0.0143882
0.0306058
0.0495899
0.0868887
0.132815
0.121586
0.0549158
7.28478e-06
0.00727233
0.0521438
2.00345e-06
3.99235e-06
1.58458e-05
1.6274e-05
4.43484e-06
4.20223e-06
5.50175e-06
4.77728e-06
7.21229e-06
0.000429168
3.53535e-06
0.000102004
0.000283022
0.000223396
6.90493e-05
7.46422e-06
6.74751e-06
7.28447e-06
2.14198e-05
7.97232e-05
1.15453e-05
0.000129359
0.000448029
0.000464191
0.000486809
0.00018085
8.08513e-05
2.19341e-05
2.91855e-05
3.16957e-05
1.23545e-05
8.55914e-06
0.000127236
0.000403254
0.000516972
0.000553046
0.000584183
0.000322575
3.48916e-05
2.63053e-05
3.64816e-06
3.86036e-06
1.10328e-05
0.000117393
0.000458161
0.000387782
0.000599551
0.000599317
0.00048632
2.8527e-05
8.8827e-06
4.98912e-05
0.000260831
0.00040291
8.98602e-05
3.60257e-05
0.000507495
0.000599565
0.000596193
8.31902e-05
0.000239611
0.000362529
0.000403703
0.000403524
0.000216657
4.94659e-05
7.3582e-05
0.000595427
0.00059484
7.7064e-05
0.000371743
0.000393839
0.00040432
0.000404476
0.000148631
4.82106e-05
4.92148e-05
0.000301627
0.000585562
5.11038e-05
0.000360461
0.000211255
0.000340739
0.000398402
4.1569e-05
4.1712e-05
0.00010925
9.6381e-05
0.000562896
0.000578956
5.54513e-05
2.22481e-05
0.000143892
0.000392814
3.02994e-05
3.45403e-05
0.000197287
0.000189867
0.000518808
0.000591967
1.66551e-05
1.89668e-05
0.0002222
0.000382173
9.71256e-05
3.10725e-05
0.000226547
0.000263108
9.25411e-05
0.000591605
0.989096
0.998647
1
1
1
1
1
1
1
1
0.9891
1
1
1
1
1
1
0.999999
1
1
0.989106
1
1
1
0.999999
1
1
0.999998
1
1
0.991091
0.999963
0.99988
0.999981
0.999984
0.999987
0.999677
0.999954
0.999991
1
0.990629
0.998521
0.998453
0.998698
0.999903
0.998151
0.996357
0.999669
0.999836
0.999455
0.991382
0.998509
0.998205
0.99775
0.999085
0.996248
0.996078
0.999445
0.999999
0.996536
0.993679
0.998739
0.998749
0.998534
0.999413
0.998638
0.999853
0.999909
0.999998
0.998106
0.742271
0.779343
0.817156
0.865565
0.904534
0.902961
0.845179
0.732103
0.618502
0.670311
0.0293558
0.0507761
0.0728034
0.109705
0.150044
0.136943
0.0688751
0.000669861
0.00955886
0.0589275
1.60204e-06
3.36059e-06
1.37956e-05
3.28501e-05
1.3545e-05
6.08893e-06
4.77738e-06
4.48973e-06
4.70987e-06
0.000491161
2.3541e-06
8.64713e-05
0.000312151
0.000340042
0.00017059
5.52738e-05
6.27715e-06
4.77733e-06
1.14666e-05
8.27709e-05
2.86337e-06
0.00012586
0.000462799
0.000474178
0.000488376
0.00050859
7.28366e-05
1.11381e-05
1.87688e-05
2.63029e-05
2.59351e-06
2.8646e-06
8.33221e-05
0.000362337
0.000516375
0.000535667
0.000567873
0.000245894
2.15525e-05
1.99605e-05
2.93522e-06
2.70539e-06
3.23911e-06
5.80485e-06
0.000171305
0.000436386
0.000597077
0.000599317
0.000144723
1.73155e-05
3.57236e-06
5.21407e-06
6.87007e-05
0.000221651
0.000143957
3.05682e-05
0.000335385
0.000597077
0.000594717
4.43178e-05
0.00014634
0.000190608
0.000403568
0.000404476
0.000401752
0.000345011
2.00911e-05
0.000427442
0.000592367
2.29567e-05
0.000316058
0.00040432
0.00040451
0.000404477
0.000404477
0.000377999
0.000301121
6.38147e-05
0.000581163
6.36667e-06
0.000183185
0.000393589
0.00040432
0.000404481
0.000132068
0.000282138
0.000427594
0.000109712
0.000352127
4.42855e-05
4.31281e-05
5.83853e-05
0.000401139
0.000401884
2.33969e-05
5.34337e-05
0.000454927
0.000444174
0.000461657
0.00059308
1.93134e-05
2.38849e-05
0.000346993
0.000367504
2.00367e-05
8.6165e-05
0.000472707
0.000592272
0.000594316
0.000594613
0.999802
1
1
1
1
1
1
1
1
1
1
0.999995
0.999997
1
1
1
1
1
1
1
1
1
1
1
0.999989
0.999997
0.999987
0.999999
1
1
0.999985
0.999177
0.998793
0.999534
0.999855
0.999647
0.999863
0.999999
0.999999
1
0.998952
0.992264
0.992269
0.997768
0.999997
0.999478
0.999413
0.99995
0.999979
0.999992
0.999087
0.993537
0.993094
0.998215
0.999984
0.99995
0.999669
0.99995
1
0.99999
0.998914
0.995594
0.995806
0.998914
0.999915
0.999924
0.999943
0.999998
0.999999
1
0.712255
0.764914
0.807303
0.851932
0.891299
0.890539
0.832236
0.732553
0.669894
0.708606
0.0203712
0.0442942
0.0657144
0.0989424
0.135905
0.127138
0.0708112
0.0130419
0.0246238
0.0819146
1.53323e-06
3.15486e-06
1.15446e-05
3.382e-05
1.1316e-05
5.14067e-06
4.40938e-06
4.48623e-06
4.45517e-06
0.00102693
2.20329e-06
4.95271e-05
0.00032903
0.000453614
0.000244055
3.12172e-05
5.14067e-06
4.48982e-06
2.43907e-05
0.000195066
2.38659e-06
0.000108949
0.000464367
0.000472117
0.000479315
0.000465805
9.42533e-06
1.02526e-05
1.60911e-05
3.63904e-05
2.21967e-06
2.48146e-06
6.91485e-05
0.000393939
0.000493513
0.000516375
0.000255666
2.75073e-05
1.87683e-05
1.73113e-05
2.50939e-06
2.64387e-06
2.70539e-06
3.23911e-06
0.000190418
0.000438643
0.000567873
0.000373809
1.73114e-05
1.32476e-05
3.01324e-05
2.70539e-06
2.75808e-06
3.03918e-06
5.54621e-06
1.3484e-05
0.000368249
0.000575839
0.000185731
1.00179e-05
7.47987e-05
9.61282e-06
0.000111782
0.000212251
0.000125412
1.2814e-05
1.47389e-05
0.000509201
0.000551882
6.36667e-06
9.53295e-06
0.000230846
0.000404321
0.000404477
0.000401999
0.0002452
1.32548e-05
3.79145e-05
0.000539337
5.49198e-06
1.15081e-05
0.000360851
0.000401138
0.000401994
0.000395132
0.000386673
0.000163506
3.84972e-05
8.84641e-05
5.06736e-06
6.34368e-05
9.84276e-05
0.000394107
0.000395133
0.000385254
0.000378032
0.000251562
3.81779e-05
7.83242e-05
0.000106071
0.000138826
3.0615e-05
0.000381565
0.000204209
9.11345e-05
0.000365321
0.000150532
7.11379e-06
0.000265095
0.000412987
1
1
1
1
1
1
1
1
1
1
1
0.999997
0.999999
1
1
1
1
1
1
1
1
1
0.999918
0.999996
0.999997
0.999995
0.999998
1
1
1
0.999883
0.999415
0.999532
0.999973
0.999992
0.999968
0.999997
1
1
1
0.999304
0.99346
0.999289
0.999956
0.999999
1
1
1
1
1
0.999401
0.993607
0.999301
0.99995
0.999997
0.999997
1
1
1
1
0.999079
0.995891
0.999209
0.999807
0.999934
0.99997
0.999995
1
1
1
0.664675
0.722019
0.758495
0.808659
0.860673
0.869383
0.826945
0.75356
0.747534
0.768942
0.00336078
0.0251076
0.0417319
0.0696094
0.105543
0.107137
0.0755215
0.0366806
0.0672966
0.136842
1.47326e-06
2.48151e-06
7.55744e-06
1.98282e-05
8.13487e-06
5.93977e-06
5.14067e-06
3.15253e-05
0.000321957
0.00158883
1.89621e-06
9.22337e-06
0.000230096
0.000352607
0.000199368
8.13433e-06
8.42707e-06
0.000121739
0.000248053
0.000275675
2.04193e-06
1.59707e-05
0.000314271
0.000464367
0.000472118
7.9769e-05
1.72694e-05
3.56973e-05
7.53058e-05
4.29983e-05
2.06428e-06
2.21971e-06
1.06557e-05
0.000267899
0.000462324
0.000184614
2.6447e-05
2.75612e-05
1.98333e-05
1.28562e-05
2.26342e-06
2.50176e-06
2.64847e-06
2.84826e-06
0.000112014
0.000245357
9.46841e-05
2.51745e-05
1.28584e-05
8.7068e-06
4.85217e-05
4.48792e-06
2.70772e-06
2.76041e-06
2.90096e-06
6.14634e-05
0.000231213
0.000257392
8.40449e-06
6.88162e-06
7.64543e-05
7.0137e-05
2.76041e-06
2.90096e-06
3.82426e-06
4.28642e-06
0.000111181
0.000352912
7.20101e-05
6.45531e-06
9.66937e-06
4.51234e-05
3.87279e-05
0.00012696
1.4587e-05
4.31659e-06
4.7593e-06
8.61513e-05
0.000185255
5.01903e-06
1.00178e-05
1.36689e-05
0.000249359
0.000395136
0.000297816
1.37617e-05
4.92583e-06
3.76765e-05
0.000124571
4.82209e-06
5.84787e-05
6.06327e-05
0.000381517
0.000387246
0.000377264
0.000208769
4.84591e-06
7.4874e-06
9.43015e-06
2.13855e-05
0.000173988
0.000174612
0.000359086
0.000376266
0.000373266
0.000328873
2.78232e-05
5.39505e-06
1.01217e-05
6.2053e-05
1
1
1
1
1
1
1
1
1
1
1
1
0.999999
1
1
1
1
1
1
1
1
1
0.999994
0.999999
1
1
1
1
1
1
0.999957
0.999851
0.999986
1
1
1
1
1
1
1
0.99963
0.999029
0.999971
1
1
1
1
1
1
1
0.999767
0.99929
0.999959
0.999997
0.999999
1
1
1
1
1
0.999493
0.999166
0.999744
0.999868
0.999945
0.999983
1
1
1
1
0.620754
0.670297
0.702812
0.755093
0.818223
0.849072
0.835629
0.805144
0.830919
0.846026
1.79501e-06
0.00241981
0.0158396
0.0387002
0.0704378
0.0872101
0.0795397
0.0768173
0.142794
0.236623
1.5e-06
1.77743e-06
3.22278e-06
6.6622e-06
5.93977e-06
5.20451e-06
5.19394e-06
6.28443e-06
0.00149296
0.00172236
1.59157e-06
5.92132e-06
6.31157e-05
0.000103548
5.22148e-05
5.93777e-06
3.41882e-05
0.000429103
0.000432754
0.000250567
1.78718e-06
2.54235e-06
0.000107565
0.000233387
0.000128873
1.12902e-05
0.000120407
0.000460303
6.15257e-05
3.25453e-05
1.9791e-06
2.06425e-06
1.23662e-05
4.51546e-05
7.38898e-05
1.50593e-05
3.1819e-05
4.21889e-05
1.74058e-05
1.01674e-05
2.20831e-06
2.39154e-06
2.64847e-06
4.12857e-06
4.1934e-05
6.32188e-05
2.54863e-05
1.67441e-05
9.28183e-06
6.66191e-06
5.21101e-05
1.73923e-05
3.8938e-06
2.90096e-06
8.6125e-06
2.93162e-05
2.43965e-05
1.15339e-05
6.66191e-06
5.66336e-06
1.16792e-05
6.70646e-05
4.57323e-05
3.33932e-06
3.39403e-06
4.66324e-06
3.56115e-05
2.06457e-05
5.6474e-06
5.01903e-06
1.03178e-05
1.30521e-05
3.16523e-05
3.02013e-05
3.76547e-06
4.17039e-06
7.84075e-06
2.72183e-05
5.01903e-06
4.83137e-06
3.92898e-05
1.43843e-05
1.31458e-05
6.84524e-05
1.6686e-05
4.31659e-06
4.50752e-06
1.59789e-05
3.6467e-05
4.82713e-06
3.31991e-05
1.70985e-05
2.32501e-05
1.83069e-05
5.33054e-05
1.2595e-05
4.58175e-06
1.27053e-05
5.04546e-05
2.44132e-05
0.000122064
0.000163574
0.000212904
0.000152292
5.57717e-05
4.5817e-06
4.34934e-06
4.72382e-06
3.89755e-05
7.83191e-05
1
1
1
1
1
1
1
1
1
1
1
1
1
1
1
1
1
1
1
1
1
0.999999
0.999999
1
1
1
1
1
1
1
0.999999
0.999999
0.999996
1
1
1
1
1
1
1
0.999979
0.999987
0.999998
1
1
1
1
1
1
1
0.999975
0.999961
0.999996
0.999999
1
1
1
1
1
1
0.999766
0.99981
0.99989
0.999942
0.999982
0.999998
1
1
1
1
0.595291
0.623618
0.658243
0.70996
0.779383
0.84134
0.861712
0.872372
0.905747
0.922082
1.59185e-06
1.8423e-06
3.22436e-06
0.0177447
0.0430882
0.0698247
0.0916325
0.127215
0.25994
0.416998
1.52841e-06
1.59138e-06
1.8417e-06
3.22401e-06
4.81195e-06
5.19453e-06
5.2035e-06
4.21707e-06
0.00205334
0.00654796
1.56171e-06
2.3758e-06
9.34915e-06
1.01516e-05
5.93718e-06
5.20407e-06
5.17882e-06
2.24352e-05
0.000348907
0.000257359
1.81835e-06
2.05104e-06
2.07962e-05
6.23207e-05
2.9591e-05
6.07482e-06
9.23118e-05
0.000381683
5.7753e-05
3.05707e-05
2.05629e-06
2.1709e-06
1.02698e-05
4.61204e-05
6.24073e-05
9.64128e-06
3.41027e-05
7.27137e-05
1.69684e-05
1.13243e-05
1.03156e-05
1.32935e-05
7.14486e-06
1.70213e-05
7.53178e-05
6.83892e-05
2.4528e-05
1.58249e-05
1.07174e-05
8.74247e-06
4.20032e-05
1.81241e-05
4.92429e-05
7.23004e-06
5.37911e-05
9.19356e-05
7.28942e-05
4.69829e-05
3.02377e-05
8.46249e-06
1.34683e-05
2.1884e-05
6.40184e-05
6.29629e-05
8.10058e-06
3.49792e-05
5.47459e-05
2.23448e-05
3.19747e-05
1.61959e-05
0.000126869
1.63906e-05
1.30064e-05
5.33998e-05
2.23241e-05
9.19366e-06
1.3629e-05
7.75818e-06
7.52017e-06
6.14239e-06
0.000207462
2.79804e-05
1.17522e-05
1.08471e-05
3.79699e-05
6.10669e-05
2.13326e-05
7.3566e-06
4.82713e-06
4.66965e-06
4.50472e-05
3.89675e-05
1.08718e-05
1.08786e-05
7.30737e-05
0.000138953
6.80117e-05
8.80686e-06
5.01652e-05
1.58144e-05
2.61794e-05
2.29098e-05
1.05122e-05
1.05529e-05
3.2533e-05
0.000132697
9.52477e-05
6.27225e-06
6.84961e-05
7.31171e-05
1
1
1
1
1
1
1
1
1
1
1
1
1
1
1
1
1
1
1
1
1
1
0.999999
1
1
1
1
0.999999
1
1
1
1
0.999993
0.999999
1
1
0.999998
0.999996
0.999999
1
0.999792
0.999754
0.999983
1
1
1
0.999998
0.999999
1
1
0.997143
0.998186
0.999998
1
0.999999
1
1
1
1
1
0.998766
0.999819
0.999952
0.999969
0.999999
1
1
1
1
1
0.580662
0.595661
0.632393
0.695923
0.78275
0.873591
0.925558
0.944748
0.968521
0.97842
3.52279e-06
4.35839e-06
3.10327e-06
0.016162
0.0493854
0.0941546
0.143802
0.233549
0.460841
0.632393
2.43085e-06
3.70593e-06
2.61899e-06
3.10273e-06
4.78149e-06
4.87439e-06
4.24192e-06
0.00142709
0.0255147
0.0917517
4.83203e-06
7.73851e-06
3.10327e-06
4.22324e-06
5.3994e-06
5.91602e-06
1.32153e-05
0.000187815
0.000518809
0.00028509
2.05628e-06
7.58656e-06
2.43091e-05
2.04174e-05
1.66261e-05
7.31461e-06
7.9146e-06
2.58642e-05
9.33262e-05
4.30142e-05
6.50289e-06
3.45584e-06
7.06691e-05
6.35226e-05
3.71891e-05
8.02993e-06
9.95505e-06
1.43528e-05
4.01557e-05
1.55143e-05
0.00014914
8.08996e-05
1.04681e-05
5.55508e-05
8.335e-05
2.69844e-05
4.10241e-05
2.31831e-05
4.81362e-05
1.07174e-05
0.000220899
0.000194052
9.06693e-05
7.93947e-06
2.96835e-05
0.000115648
0.000124412
0.000120406
0.000116777
1.65805e-05
0.000267059
0.000171562
0.000100052
3.10253e-05
1.01463e-05
8.04504e-05
0.000134799
0.000126795
9.07252e-05
1.28722e-05
0.000303657
0.000304413
0.000199325
3.33375e-05
1.30323e-05
7.34796e-05
0.000141823
0.000111205
1.9347e-05
4.66965e-06
0.000303276
0.000301519
0.000220435
5.69852e-05
6.10648e-05
0.000146571
0.000145301
7.98086e-05
4.66965e-06
4.36702e-06
0.000231163
5.69702e-05
7.10576e-05
9.51118e-05
0.00014931
0.000148345
0.000146585
3.44157e-05
7.98041e-06
4.08244e-06
3.10303e-05
1.2893e-05
9.5746e-06
2.80924e-05
5.15493e-05
9.82603e-05
6.44444e-05
4.83345e-06
1.53159e-05
2.02084e-05
1
1
1
1
1
1
1
1
1
1
1
1
1
1
1
1
1
1
1
1
1
1
1
1
1
1
0.999999
0.999996
0.999999
1
0.999988
0.999981
0.999998
1
1
0.999999
0.999989
0.999989
0.999999
1
0.99948
0.999856
0.999999
1
1
0.999998
0.999989
0.999998
1
1
0.998367
0.999446
1
1
1
1
0.999999
1
1
1
0.999408
0.999996
0.999999
1
1
1
1
1
1
1