/*--------------------------------*- C++ -*----------------------------------*\
| =========                 |                                                 |
| \\      /  F ield         | OpenFOAM: The Open Source CFD Toolbox           |
|  \\    /   O peration     | Version:  2312                                  |
|   \\  /    A nd           | Website:  www.openfoam.com                      |
|    \\/     M anipulation  |                                                 |
\*---------------------------------------------------------------------------*/
FoamFile
{
    version     2.0;
    format      ascii;
    arch        "LSB;label=32;scalar=64";
    class       surfaceScalarField;
    location    "0.995";
    object      phi;
}
// * * * * * * * * * * * * * * * * * * * * * * * * * * * * * * * * * * * * * //

dimensions      [0 3 -1 0 0 0 0];

oriented        oriented;

internalField   nonuniform List<scalar> 
22600
(
-1.63299e-08
7.87473e-08
-1.52602e-07
3.76834e-08
9.34795e-08
-1.47493e-07
6.79115e-08
1.03868e-07
-1.34096e-07
7.73785e-08
1.11884e-07
-1.21351e-07
7.29537e-08
1.1868e-07
-1.14255e-07
6.27409e-08
1.29729e-07
-1.19516e-07
5.27346e-08
1.56427e-07
-1.4642e-07
7.68655e-08
1.78515e-07
-2.02645e-07
7.62554e-08
1.57044e-07
-1.56434e-07
1.57366e-07
-8.11106e-08
8.5297e-09
1.37663e-07
-1.57852e-07
8.46023e-08
1.84631e-07
-1.67224e-07
1.37165e-07
2.14081e-07
-1.62776e-07
1.65186e-07
2.38418e-07
-1.54555e-07
1.6832e-07
2.67879e-07
-1.52333e-07
1.52128e-07
3.22268e-07
-1.76347e-07
1.25872e-07
4.23397e-07
-2.40715e-07
9.09217e-08
4.35715e-07
-2.2225e-07
7.79577e-08
2.10358e-07
-4.03502e-08
3.0845e-07
-7.31264e-08
4.49593e-08
6.96304e-08
-7.06909e-08
1.09428e-07
2.49379e-07
-1.29217e-07
1.51445e-07
3.24591e-07
-1.52528e-07
1.81968e-07
3.66348e-07
-1.58453e-07
2.01253e-07
4.23828e-07
-1.75233e-07
2.13044e-07
5.2631e-07
-2.15833e-07
1.14628e-07
6.61308e-07
-1.39495e-07
-7.00171e-08
4.35234e-07
1.85126e-07
-6.13352e-08
-2.99787e-07
5.01464e-07
8.01002e-08
1.67015e-07
8.62035e-08
-2.51368e-07
1.0827e-07
2.1294e-07
1.48607e-07
-2.59653e-08
2.51663e-07
3.93099e-07
-1.0723e-07
2.66137e-07
4.99891e-07
-1.48017e-07
2.92923e-07
5.76499e-07
-1.79458e-07
2.86399e-07
6.88108e-07
-1.55275e-07
-8.62514e-08
8.18035e-07
2.15924e-07
-5.56154e-07
2.99866e-07
6.05271e-07
-4.54263e-07
-1.19311e-06
7.91432e-07
-9.03202e-07
5.29039e-07
6.5758e-08
-4.91697e-07
5.19913e-08
2.52628e-07
-1.23384e-07
8.5122e-08
3.62185e-07
2.34063e-07
4.94792e-08
4.2791e-07
4.1446e-07
1.97053e-08
5.06735e-07
5.00323e-07
-2.64832e-09
5.059e-07
6.42168e-07
4.67753e-08
7.31833e-08
7.8609e-07
4.64661e-07
-4.868e-07
1.14218e-07
7.4563e-07
-5.40373e-07
-1.30132e-06
1.61782e-07
-1.7621e-06
3.18529e-07
-4.7468e-08
-3.65446e-07
-2.20889e-07
1.44301e-07
-1.96336e-07
-1.18818e-07
3.68756e-07
5.14984e-08
-4.18907e-08
5.6944e-07
2.26469e-07
-1.26922e-08
7.41734e-07
3.0017e-07
2.78589e-08
8.13019e-07
3.58622e-07
2.12261e-07
6.19924e-07
3.72831e-07
6.06354e-07
2.57552e-07
-3.5097e-07
8.2756e-07
3.80594e-08
-1.03649e-06
-4.5338e-08
-1.55387e-06
-1.70176e-07
-1.14904e-07
1.70014e-08
-6.16083e-07
2.05064e-07
2.25168e-08
-5.38821e-07
5.68692e-07
1.38147e-07
-4.50275e-07
8.91599e-07
2.73135e-07
-3.69574e-07
1.09244e-06
3.4396e-07
-2.44629e-07
1.13795e-06
3.05282e-07
7.83199e-09
8.93773e-07
5.54908e-08
5.61513e-07
3.93322e-07
-7.01928e-07
8.5141e-07
1.82202e-07
-8.22109e-07
-3.25906e-09
-9.59124e-07
-4.12542e-07
-1.59384e-07
3.61693e-07
-9.5754e-07
3.90984e-07
3.4683e-07
-8.74681e-07
8.94631e-07
4.85655e-07
-8.51155e-07
1.26083e-06
7.02001e-07
-7.95066e-07
1.44454e-06
7.89582e-07
-6.29326e-07
1.453e-06
6.30226e-07
-3.33404e-07
1.14928e-06
2.48542e-07
1.10666e-07
4.62054e-07
-3.25723e-07
3.11019e-07
1.76287e-07
-2.717e-07
-2.64641e-07
-4.51563e-07
-3.31275e-07
-2.7528e-07
-1.03563e-06
5.67098e-07
5.27275e-07
-8.61087e-07
4.05361e-07
1.13545e-06
-7.26049e-08
-4.99112e-08
1.36393e-06
8.50423e-07
-3.76906e-07
1.32659e-06
1.39103e-06
-5.64113e-07
1.23997e-06
1.23263e-06
-5.15779e-07
9.11954e-07
7.5466e-07
-1.78107e-07
3.6647e-07
2.58845e-07
-3.90839e-08
2.45747e-07
1.56307e-07
-3.07285e-07
-4.0473e-07
1.98914e-07
-1.40933e-06
-4.62286e-07
-6.69705e-07
-1.83474e-06
5.85802e-07
-1.0215e-06
-2.06003e-06
8.3189e-07
-6.79207e-07
-2.15904e-06
9.41638e-08
8.55276e-07
-1.80753e-06
-3.0235e-07
1.34187e-06
-1.33357e-06
-4.82493e-07
1.24117e-06
-1.20413e-06
-7.05164e-07
1.33038e-06
-8.60743e-07
-1.0976e-06
1.01306e-06
-1.3056e-07
-1.1446e-06
5.70726e-07
-1.30496e-06
7.69669e-07
-3.5784e-07
-2.16123e-06
1.16316e-06
2.40365e-07
-8.00085e-07
7.87658e-07
5.31867e-07
1.1621e-06
-6.21715e-07
-1.22826e-06
3.00356e-06
-1.14927e-06
-4.55679e-06
3.25989e-06
-2.33717e-07
-7.06628e-06
2.33147e-06
-3.04482e-07
-5.87286e-06
-2.85654e-06
9.57967e-07
-3.56133e-06
-5.03959e-06
1.63045e-06
-1.25556e-06
-5.57822e-06
2.12786e-06
-4.89435e-06
2.33383e-06
-2.57721e-06
-5.26465e-06
2.82315e-06
-1.11329e-06
-5.04965e-06
2.78564e-06
6.68342e-07
-2.76555e-06
2.14602e-06
1.93939e-06
1.26638e-06
4.66136e-07
1.84663e-06
4.26315e-06
-9.10495e-07
1.48974e-06
4.97838e-06
-2.29e-06
5.64329e-07
1.56868e-06
-3.49981e-06
-2.85968e-07
-2.22902e-06
-1.96027e-06
-9.67905e-07
-4.07048e-06
-8.25807e-07
-4.13236e-06
-1.72991e-06
-7.73398e-06
-7.23814e-06
2.38973e-06
-6.1243e-06
-8.34621e-06
1.68687e-06
-2.77184e-06
-7.79138e-06
1.67337e-06
8.87273e-07
-4.22937e-06
1.83662e-06
2.77583e-06
1.8386e-06
5.36004e-07
2.46017e-06
6.43019e-06
-1.13616e-06
1.47369e-06
5.83842e-06
-3.28327e-06
4.86321e-07
3.02379e-06
-4.26544e-06
-4.4053e-07
1.00489e-06
-4.14852e-06
-7.60644e-09
-4.56528e-06
-1.17128e-05
-6.78759e-06
-4.01494e-07
-9.77877e-06
-8.52721e-06
-1.75305e-06
-6.17482e-06
-9.46686e-06
-1.92847e-06
-1.84477e-06
-7.90921e-06
-6.5021e-07
1.47593e-06
-2.99777e-06
1.51568e-06
2.58479e-06
4.45184e-06
8.6948e-07
1.10552e-06
8.2695e-06
-9.51798e-07
-2.54089e-07
7.45591e-06
-3.07251e-06
-5.24026e-07
5.38674e-06
-4.11191e-06
3.83457e-06
-4.3662e-06
-1.30877e-05
-5.1779e-06
-2.46892e-06
-1.04215e-05
-6.96754e-06
-4.22581e-06
-6.3276e-06
-8.29185e-06
-5.26894e-06
-2.21573e-06
-7.60433e-06
-4.41674e-06
6.35974e-07
-4.51628e-06
-1.33321e-06
2.31384e-06
4.44479e-07
2.32952e-06
1.42232e-06
7.5357e-06
1.62531e-06
-2.88001e-07
1.03777e-05
-1.21143e-06
-3.09415e-07
8.76019e-06
-3.35204e-06
6.89766e-06
-3.37251e-06
-1.31056e-05
-3.31446e-06
-3.44932e-06
-9.83729e-06
-4.97677e-06
-5.25903e-06
-5.35483e-06
-6.29449e-06
-6.47981e-06
-1.30252e-06
-6.08361e-06
-5.57304e-06
1.03713e-06
-3.76222e-06
-3.0937e-06
1.79019e-06
-1.33712e-06
1.02854e-06
1.80462e-06
3.98782e-06
3.53344e-06
4.28389e-07
1.04794e-05
1.27446e-06
4.90669e-08
1.10223e-05
-1.88279e-06
7.90242e-06
-9.55699e-07
-1.23927e-05
-1.23914e-06
-3.79939e-06
-9.10922e-06
-2.76946e-06
-5.49075e-06
-4.75063e-06
-4.1707e-06
-6.48237e-06
-1.1816e-06
-4.81946e-06
-4.83318e-06
1.04973e-06
-3.73828e-06
-2.25526e-06
1.61197e-06
-2.15346e-06
2.54076e-07
1.30404e-06
2.49065e-07
4.04669e-06
9.234e-07
7.295e-06
3.56508e-06
5.42198e-07
1.12909e-05
1.12607e-07
6.39358e-06
2.05104e-06
-1.14683e-05
6.63869e-07
-3.36108e-06
-8.54061e-06
-5.36165e-07
-5.16101e-06
-4.58776e-06
-1.91216e-06
-6.2114e-06
-1.27677e-06
-3.67044e-06
-4.46001e-06
2.4071e-07
-4.15486e-06
-1.10091e-06
9.5623e-07
-3.89154e-06
1.02256e-06
8.77966e-08
-2.33862e-06
3.45613e-06
-1.37355e-07
3.21608e-06
4.30406e-06
6.79468e-07
8.10468e-06
2.36939e-06
3.8249e-06
3.24816e-06
-1.0837e-05
1.97753e-06
-2.40677e-06
-8.7053e-06
9.52494e-07
-3.62039e-06
-5.21652e-06
-6.30373e-07
-4.77057e-06
-1.54115e-06
-2.86484e-06
-4.48097e-06
-1.18275e-07
-4.50684e-06
-1.07091e-06
-1.69885e-07
-5.01465e-06
1.17472e-06
-1.2518e-06
-3.64709e-06
2.39037e-06
-1.79746e-06
4.51157e-07
3.31058e-06
-3.46453e-07
3.5566e-06
3.09709e-06
1.21331e-06
2.26512e-06
-1.02729e-05
-1.68911e-06
2.88058e-06
-8.66742e-06
-2.52615e-06
1.87311e-06
-5.7143e-06
-3.78336e-06
1.99863e-07
-2.06101e-06
-4.52649e-06
-1.99164e-06
-4.35899e-07
-2.20967e-06
-3.92227e-06
-8.62083e-07
2.0082e-07
-4.78929e-06
-2.16735e-06
1.20762e-06
-3.54945e-06
-2.86578e-06
1.84351e-06
-6.93908e-07
-1.39295e-06
1.40484e-06
6.78925e-07
1.93024e-07
-3.7268e-07
-4.26899e-08
2.31609e-08
-2.05185e-07
-3.08662e-08
4.44034e-08
-2.0372e-07
-3.04195e-08
5.58724e-08
-1.90415e-07
-3.8721e-08
6.44053e-08
-1.77454e-07
-5.45069e-08
6.88045e-08
-1.67273e-07
-6.67688e-08
6.15749e-08
-1.68829e-07
-4.20161e-08
2.67262e-08
-1.97899e-07
9.71108e-08
-1.00563e-07
-2.41209e-07
1.47084e-07
-4.19588e-08
-1.64449e-07
2.00766e-07
-1.34792e-07
-1.35557e-08
2.60391e-08
-2.18147e-07
2.31522e-08
7.56809e-08
-2.35209e-07
3.84342e-08
1.13151e-07
-2.35337e-07
2.87575e-08
1.48395e-07
-2.28868e-07
-1.54713e-08
1.88853e-07
-2.28152e-07
-1.08236e-07
2.30511e-07
-2.52519e-07
-1.86291e-07
1.35928e-07
-2.71862e-07
-6.69288e-08
-3.9654e-07
-4.56352e-08
1.11575e-07
-3.81885e-07
1.21072e-07
4.14063e-07
-1.74848e-07
-3.04063e-09
5.22529e-08
-1.565e-07
-1.42713e-09
1.78485e-07
-2.33634e-07
1.67757e-09
2.16394e-07
-2.58876e-07
-1.07144e-08
2.66377e-07
-2.64043e-07
-8.93578e-08
3.77725e-07
-2.85463e-07
-2.75147e-07
4.94202e-07
-2.93735e-07
-5.38458e-07
2.59943e-07
-1.98648e-10
-5.9581e-07
-7.67159e-07
6.13097e-07
-2.51654e-07
-1.02754e-06
8.02967e-07
3.43446e-07
-1.40221e-08
6.88813e-08
-1.80907e-08
1.58342e-08
8.73494e-08
2.78855e-07
-1.44804e-07
6.25099e-08
3.80145e-07
-2.46142e-07
3.85878e-08
4.46692e-07
-3.04409e-07
1.84804e-09
5.85246e-07
-3.50239e-07
-1.63303e-07
7.37281e-07
-2.33202e-07
-4.99399e-07
4.75812e-07
3.36151e-07
-8.0716e-07
-6.38998e-07
7.84872e-07
-5.22966e-07
-1.28375e-06
7.63442e-07
-4.42182e-08
3.93738e-07
7.69885e-08
-1.10886e-07
4.85279e-09
1.99129e-07
3.36965e-07
-9.51282e-08
2.19151e-07
5.68664e-07
-1.59062e-07
2.37782e-07
6.66592e-07
-2.18826e-07
3.1164e-07
7.8997e-07
-2.8123e-07
3.57004e-07
8.96429e-07
-1.57738e-07
2.32762e-07
7.20452e-07
3.44263e-07
-1.02204e-07
-2.06974e-07
6.48572e-07
-2.60397e-07
-8.79531e-07
-8.42407e-08
-2.38909e-07
2.52822e-07
-9.49193e-08
1.1489e-07
-3.32233e-07
5.13866e-08
3.36746e-07
-2.64904e-07
2.64328e-07
5.10356e-07
-1.96523e-07
4.57363e-07
6.3431e-07
-1.73446e-07
6.28506e-07
8.08379e-07
-1.61693e-07
7.79119e-07
9.74536e-07
-1.64582e-08
8.3013e-07
8.00047e-07
4.75747e-07
6.42822e-07
5.29014e-08
7.54993e-07
2.08831e-07
-2.76875e-07
-2.14002e-07
-3.27196e-08
-1.67535e-07
-1.23536e-07
5.44881e-07
-1.05331e-06
5.72437e-08
5.61331e-07
-9.44186e-07
3.30258e-07
6.20796e-07
-8.3373e-07
6.05965e-07
6.84344e-07
-6.95315e-07
8.12244e-07
7.77745e-07
-4.20275e-07
9.25277e-07
8.94834e-07
-2.54988e-08
9.84092e-07
7.93795e-07
5.0895e-07
8.11983e-07
4.01767e-07
6.74652e-07
2.91812e-07
3.69374e-07
-1.29338e-07
3.00916e-07
-4.54365e-07
-3.13483e-08
1.18788e-06
-2.00986e-06
4.13145e-07
1.17885e-06
-1.9367e-06
7.74994e-07
1.29993e-06
-1.89213e-06
9.68973e-07
1.45346e-06
-1.75816e-06
1.02132e-06
1.52851e-06
-1.43245e-06
9.90599e-07
1.45406e-06
-8.61908e-07
9.35287e-07
1.15495e-06
-1.95177e-07
6.93053e-07
9.34561e-07
2.0459e-08
1.875e-07
1.0395e-06
-4.29218e-07
6.51194e-07
-4.94052e-07
-5.07931e-07
5.56947e-08
1.34591e-06
-7.04985e-08
7.69055e-07
3.77728e-07
3.09838e-07
1.25679e-06
-3.87111e-07
5.55154e-07
2.07001e-06
-1.23877e-06
7.20079e-07
2.4798e-06
-1.68033e-06
7.74023e-07
2.35995e-06
-1.47562e-06
9.00617e-07
1.65628e-06
-8.0603e-07
7.81463e-07
1.23074e-06
-2.16104e-07
3.11745e-07
1.18413e-06
1.78031e-08
4.27641e-07
7.34212e-07
-1.74492e-06
-6.48417e-07
-7.06705e-07
-1.59736e-06
1.14883e-06
-1.54884e-06
-2.10096e-06
3.19946e-06
-2.11827e-06
-2.74657e-06
4.99764e-06
-1.42675e-06
-2.24847e-06
3.19489e-06
1.28686e-07
-1.70223e-06
-1.57057e-06
4.62545e-06
-1.11071e-06
-1.67292e-06
4.06806e-06
-9.04045e-07
-1.43278e-06
3.46991e-06
-5.06464e-07
-2.12123e-06
3.47851e-06
-2.64386e-06
3.3347e-06
-1.50733e-06
-3.37678e-06
2.93305e-06
-3.43591e-07
-1.61808e-06
2.39083e-06
4.68101e-08
1.41442e-06
7.72919e-07
-1.236e-08
4.26915e-06
-3.6163e-07
2.89007e-08
5.39635e-06
-2.47644e-06
-2.73935e-06
2.76767e-06
-1.87448e-06
-4.59649e-06
-1.84166e-07
1.32635e-06
-3.8672e-06
-2.47469e-06
1.94308e-06
-1.53623e-06
-6.98685e-06
4.66249e-06
-5.23769e-06
3.39144e-06
-5.27651e-06
-4.62072e-06
4.01237e-06
-3.19096e-06
-4.38343e-06
3.46542e-06
9.23196e-08
-2.59048e-06
2.86764e-06
2.1712e-06
1.26045e-06
1.39599e-06
2.3332e-06
5.01916e-06
-6.95312e-07
3.27903e-06
4.12215e-06
-4.59032e-06
3.94784e-06
1.5669e-06
-5.91966e-06
2.89952e-06
7.6118e-07
-4.14782e-06
5.97211e-07
-2.72937e-06
-2.78096e-06
-3.64611e-06
-2.72429e-06
-1.00775e-05
-3.13929e-06
1.7256e-06
-8.55159e-06
-4.67952e-06
4.57038e-07
-4.80853e-06
-5.37938e-06
7.19215e-07
3.29285e-07
-3.36889e-06
1.32815e-06
3.54138e-06
1.71746e-06
6.2561e-07
2.77577e-06
5.28776e-06
-1.53614e-06
2.50384e-06
4.28606e-06
-5.73051e-06
2.28907e-06
3.22088e-06
-6.51038e-06
7.96872e-07
9.87896e-07
-6.37359e-06
-6.45322e-07
-6.76921e-06
-1.13516e-05
-9.53528e-07
-2.12562e-06
-1.05369e-05
-3.51228e-06
-3.735e-06
-7.91932e-06
-5.99606e-06
-3.92934e-06
-3.39316e-06
-5.72153e-06
-2.82374e-06
2.00583e-06
-1.52139e-06
-6.44443e-07
4.06875e-06
4.40324e-06
-3.08917e-07
2.44562e-06
7.06213e-06
-2.10475e-06
9.7233e-07
6.31065e-06
-4.68898e-06
-2.86543e-07
4.1618e-06
-6.02693e-06
1.47532e-06
-6.77339e-06
-1.16294e-05
5.78843e-07
-3.74675e-06
-1.05296e-05
-3.26898e-06
-5.56895e-06
-7.73982e-06
-6.89082e-06
-7.16392e-06
-4.29662e-06
-7.00279e-06
-6.57867e-06
1.72257e-07
-2.96905e-06
-4.35442e-06
4.13443e-06
3.62735e-06
-8.56784e-07
3.3845e-06
9.17734e-06
2.60034e-07
9.57662e-07
9.62394e-06
-2.09787e-06
-2.74325e-07
6.6511e-06
-4.60936e-06
3.45679e-06
-5.62831e-06
-1.12868e-05
7.78333e-07
-3.997e-06
-9.28983e-06
-3.54707e-06
-6.9779e-06
-6.24135e-06
-7.50343e-06
-8.91568e-06
-3.91439e-06
-7.89775e-06
-7.00503e-06
-9.06865e-07
-4.29467e-06
-4.77561e-06
2.63341e-06
2.75451e-06
-1.6389e-06
3.84143e-06
8.63446e-06
2.86831e-06
1.39753e-06
1.19208e-05
1.42146e-06
-2.44746e-07
8.68491e-06
-2.27433e-06
5.49838e-06
-3.24203e-06
-9.1912e-06
9.2392e-07
-4.87216e-06
-6.99974e-06
-2.80132e-06
-8.42794e-06
-4.4919e-06
-6.61496e-06
-9.87868e-06
-3.25686e-06
-7.78703e-06
-6.17895e-06
-1.58179e-06
-5.49283e-06
-2.73217e-06
1.28184e-06
3.73405e-07
-2.28439e-07
2.8378e-06
6.19039e-06
4.9348e-06
1.60149e-06
1.18944e-05
4.82785e-06
-3.71426e-07
1.04616e-05
3.08872e-07
6.67969e-06
4.98295e-07
-6.77947e-06
1.56823e-06
-5.16469e-06
-4.82572e-06
-1.11282e-06
-8.80327e-06
-3.11915e-06
-4.58829e-06
-9.94463e-06
-2.35668e-06
-6.95318e-06
-6.05632e-06
-1.77242e-06
-6.19455e-06
-9.83447e-07
-1.25067e-07
-2.57267e-06
2.32126e-06
6.6637e-07
3.44051e-06
5.41456e-06
2.71402e-07
9.86986e-06
6.72353e-06
-2.92149e-07
1.08075e-05
2.587e-06
5.89845e-06
3.73724e-06
-4.88678e-06
2.96107e-06
-4.55873e-06
-3.53846e-06
1.19352e-06
-7.27505e-06
-2.15175e-06
-1.99329e-06
-8.75228e-06
-1.40485e-06
-5.64887e-06
-6.53218e-06
-1.38336e-06
-6.3106e-06
-9.76354e-07
-1.7099e-06
-4.28745e-06
3.21603e-06
-2.17933e-06
1.35524e-06
4.94507e-06
-2.29383e-06
7.01707e-06
6.27788e-06
-9.71075e-07
8.32737e-06
4.25446e-06
3.46298e-06
3.7295e-06
-2.82685e-06
-4.04503e-06
4.96187e-06
-2.14257e-06
-5.77192e-06
3.75503e-06
-1.32683e-06
-7.24222e-06
6.49829e-07
-1.12976e-06
-6.71182e-06
-3.66061e-06
-1.8231e-06
-2.35094e-06
-5.47599e-06
-3.82148e-06
1.91547e-06
-4.00372e-06
-5.11027e-06
3.45809e-06
3.93554e-07
-5.11139e-06
4.343e-06
4.5187e-06
-2.64146e-06
2.99197e-06
4.2703e-06
5.47969e-07
4.66583e-07
-4.14327e-08
-4.30899e-08
-2.02539e-07
-1.77346e-08
-1.44087e-08
-2.13009e-07
-9.03274e-09
1.39021e-08
-2.13019e-07
-1.37234e-08
3.19809e-08
-2.04745e-07
-3.49426e-08
3.95746e-08
-1.85628e-07
-6.37352e-08
2.22857e-08
-1.62322e-07
-3.70277e-08
-9.21818e-08
-1.32425e-07
1.54616e-07
-3.54714e-07
-7.81388e-08
1.87094e-07
-1.48913e-07
-4.80137e-08
1.83528e-07
-1.31226e-07
-1.9636e-08
-9.05302e-08
-2.28421e-07
2.94282e-08
-4.16097e-08
-2.57073e-07
5.96701e-08
1.53968e-08
-2.67073e-07
5.2216e-08
7.76443e-08
-2.67078e-07
-1.09271e-08
1.26973e-07
-2.52408e-07
-1.50966e-07
1.37327e-07
-2.27521e-07
-2.62921e-07
-1.32267e-07
-1.19822e-07
7.67511e-09
-8.47755e-07
1.7681e-07
2.4889e-07
-4.27526e-07
1.5847e-07
4.79623e-07
-2.22053e-07
-2.38544e-08
-4.84129e-08
-2.48738e-07
-1.23189e-10
1.29291e-08
-3.11904e-07
2.15844e-08
7.34252e-08
-3.38612e-07
-8.68724e-11
1.69548e-07
-3.34275e-07
-1.4483e-07
3.00715e-07
-3.14461e-07
-4.16488e-07
3.67663e-07
-2.52414e-07
-5.63756e-07
-1.02231e-07
1.17033e-07
-3.60163e-07
-1.19292e-06
7.54664e-07
-9.00585e-09
-6.91158e-07
7.15442e-07
6.79553e-07
-2.22958e-07
1.09731e-08
9.30232e-08
-2.29174e-07
4.30249e-08
1.4898e-07
-3.12907e-07
5.75033e-08
1.91263e-07
-3.78458e-07
4.00025e-08
3.00321e-07
-4.17682e-07
-7.67593e-08
4.83335e-07
-4.16097e-07
-2.63067e-07
5.91357e-07
-2.70589e-07
-2.36824e-07
3.27853e-08
1.74893e-07
-2.99104e-07
-1.07475e-06
7.28988e-07
-3.06609e-07
-5.41732e-07
6.21521e-07
8.62951e-07
-9.62682e-08
5.38793e-08
2.59273e-07
-3.52903e-07
1.49547e-07
3.96217e-07
-4.38033e-07
1.58417e-07
5.03903e-07
-4.80573e-07
1.6748e-07
5.93907e-07
-5.21476e-07
1.79393e-07
7.15927e-07
-5.25734e-07
2.06062e-07
7.71842e-07
-3.64891e-07
3.75555e-07
2.54527e-07
-4.69721e-08
2.25201e-07
-5.61215e-07
2.85388e-07
-2.46938e-07
-1.40415e-07
-1.34182e-08
1.07292e-06
-2.04085e-07
-1.50099e-08
5.72518e-07
-7.36706e-07
1.32871e-07
6.56989e-07
-6.73557e-07
2.64661e-07
7.57164e-07
-5.81574e-07
3.87466e-07
8.30192e-07
-5.32536e-07
5.03284e-07
9.14717e-07
-4.763e-07
6.05529e-07
9.6527e-07
-3.12131e-07
6.76246e-07
6.32503e-07
2.70538e-08
4.54972e-07
2.09808e-07
2.05244e-07
-1.3942e-07
5.54151e-07
-3.14177e-07
1.20551e-06
-4.39544e-07
-1.0037e-08
8.74397e-07
-1.51421e-06
1.40278e-07
9.19916e-07
-1.35743e-06
2.95625e-07
9.80902e-07
-1.21281e-06
4.50024e-07
1.06176e-06
-1.08129e-06
5.8547e-07
1.13387e-06
-7.7487e-07
7.17313e-07
1.14425e-06
-3.36322e-07
7.62819e-07
1.03224e-06
6.37048e-08
5.65967e-07
9.69267e-07
1.12047e-07
-2.86785e-08
1.3099e-06
-2.90441e-07
1.45508e-06
-7.32619e-07
-2.14406e-07
1.56369e-06
-3.18739e-06
2.8839e-07
1.52311e-06
-3.04269e-06
6.82381e-07
1.6104e-06
-2.91563e-06
8.93503e-07
1.79623e-06
-2.70375e-06
9.52584e-07
1.94527e-06
-2.30293e-06
9.00566e-07
1.97356e-06
-1.6392e-06
7.76259e-07
1.76772e-06
-8.06352e-07
5.37325e-07
1.60142e-06
-3.72763e-07
1.32301e-07
1.79195e-06
-5.06243e-07
1.79702e-06
-7.03686e-07
-7.35361e-07
-1.29895e-06
3.77788e-06
-5.11208e-07
-1.27211e-06
2.9488e-06
-1.18383e-07
6.75187e-07
1.5528e-07
5.14335e-07
2.29883e-06
-2.37409e-06
1.14926e-06
3.19596e-06
-3.56594e-06
1.40553e-06
3.54279e-06
-3.30111e-06
1.39071e-06
3.05647e-06
-2.07996e-06
9.39452e-07
2.52656e-06
-6.89985e-07
2.2268e-07
2.2993e-06
2.27223e-07
1.51612e-06
1.23779e-06
-2.57084e-06
-1.48221e-06
-1.71852e-06
-1.84266e-06
-1.64209e-06
-1.90704e-06
-1.17862e-06
-1.8251e-07
-1.92461e-06
-1.0667e-06
1.64215e-06
-8.81981e-07
-1.42472e-06
4.89863e-06
-1.21595e-06
-1.48072e-06
7.55385e-06
6.7039e-07
-8.45748e-07
4.1071e-06
2.38246e-06
-8.85208e-07
4.77848e-07
5.55809e-06
-7.8181e-07
-1.63054e-07
5.83747e-06
-1.8938e-06
5.96281e-06
-2.76922e-06
-3.51203e-06
4.03217e-06
-1.81243e-06
-3.50084e-06
3.2928e-06
-1.15393e-06
-2.54695e-06
2.47887e-06
-1.21116e-06
-7.6547e-07
2.10322e-06
-1.00868e-06
1.76866e-06
4.51058e-07
5.85131e-07
3.36041e-06
7.25148e-07
8.84736e-07
4.41288e-06
7.20963e-07
-1.17275e-06
3.18262e-06
1.29578e-06
-6.25822e-07
2.08049e-07
3.74447e-06
-2.20885e-06
3.08067e-06
-5.88104e-06
-3.00347e-06
3.99577e-06
-4.99098e-06
-3.498e-06
2.57253e-06
-2.95615e-06
-3.62936e-06
1.91519e-06
-1.27755e-06
-2.69007e-06
1.642e-06
3.86857e-07
-8.93033e-07
3.01992e-07
2.0458e-06
-2.12951e-07
-2.67591e-06
3.53285e-06
6.98974e-07
-3.69281e-06
3.78595e-06
2.1293e-06
-3.34759e-06
2.42256e-06
1.48957e-06
-2.69908e-06
4.04482e-07
-2.91507e-06
-7.87485e-06
-3.34655e-07
1.59392e-07
-7.64693e-06
-1.81528e-06
-1.45361e-06
-5.69244e-06
-3.54659e-06
-1.31803e-06
-2.44525e-06
-4.09575e-06
-5.13341e-07
7.90287e-07
-2.88149e-06
-6.21471e-07
2.22373e-06
-7.93437e-07
-2.3891e-06
2.84144e-06
1.82431e-07
-5.83168e-06
2.87119e-06
2.16157e-06
-6.5724e-06
1.9744e-06
1.76872e-06
-5.75596e-06
1.22059e-06
-5.61093e-06
-7.86081e-06
2.05849e-06
-3.13604e-06
-8.48648e-06
-7.90415e-07
-4.13422e-06
-7.09211e-06
-4.34701e-06
-4.52329e-06
-4.40321e-06
-5.50056e-06
-4.10782e-06
-6.00162e-07
-3.79629e-06
-3.5327e-06
3.04343e-06
-9.83294e-07
-3.76265e-06
4.11429e-06
1.94197e-06
-4.93514e-06
3.0882e-06
3.78966e-06
-5.29098e-06
9.32755e-07
3.41529e-06
-5.51806e-06
2.04122e-06
-6.66126e-06
-9.41703e-06
3.70415e-06
-3.43593e-06
-9.12108e-06
-1.49124e-06
-5.16405e-06
-6.68651e-06
-6.74267e-06
-7.20284e-06
-4.50169e-06
-7.80163e-06
-6.46241e-06
-2.02187e-06
-5.05883e-06
-5.57169e-06
2.05197e-06
-5.19497e-07
-5.3944e-06
4.35545e-06
4.49937e-06
-4.60084e-06
3.68128e-06
6.57741e-06
-4.21145e-06
9.03059e-07
5.46271e-06
-3.87857e-06
2.31177e-06
-4.99579e-06
-8.53374e-06
4.37835e-06
-3.78973e-06
-7.1919e-06
-2.12554e-06
-7.68544e-06
-4.84661e-06
-7.99146e-06
-1.00122e-05
-3.81279e-06
-8.99003e-06
-6.85046e-06
-2.43524e-06
-6.24351e-06
-4.96847e-06
1.09792e-06
-7.94648e-07
-4.89691e-06
4.12677e-06
6.61582e-06
-2.277e-06
3.6723e-06
9.30873e-06
-8.55398e-07
1.43511e-06
7.13462e-06
-1.70905e-06
3.37144e-06
-2.86658e-06
-5.96973e-06
4.72238e-06
-5.38348e-06
-4.55382e-06
-1.27963e-06
-1.06898e-05
-3.46661e-06
-7.526e-06
-1.14313e-05
-3.68479e-06
-8.92324e-06
-6.02756e-06
-3.06959e-06
-6.79413e-06
-2.79675e-06
-3.65159e-07
-1.12676e-06
-2.60078e-06
2.95257e-06
7.4308e-06
8.02098e-07
2.76369e-06
1.12048e-05
3.12066e-06
7.51068e-07
8.63158e-06
8.24534e-07
4.76411e-06
-1.43312e-07
-2.82374e-06
5.29086e-06
-6.38001e-06
-1.96243e-06
6.2312e-07
-1.15673e-05
-2.30344e-06
-5.95225e-06
-1.11774e-05
-3.50477e-06
-8.4101e-06
-5.36813e-06
-3.33411e-06
-7.21632e-06
-7.31927e-07
-1.71882e-06
-1.10321e-06
6.82416e-07
6.99907e-07
6.76183e-06
3.66481e-06
1.00247e-06
1.14195e-05
6.20627e-06
-3.60799e-07
9.5682e-06
3.01365e-06
5.10187e-06
3.03869e-06
1.4335e-07
6.42268e-06
-6.22534e-06
5.40265e-07
3.1886e-06
-1.02374e-05
-5.97345e-07
-3.30586e-06
-1.02611e-05
-2.69226e-06
-7.47826e-06
-5.36911e-06
-3.37495e-06
-7.54235e-06
3.23551e-08
-3.19009e-06
-1.42018e-06
3.34815e-06
-2.25837e-06
5.58668e-06
5.18849e-06
-1.66923e-06
1.01413e-05
6.96697e-06
-1.47358e-06
9.11996e-06
4.50705e-06
4.09451e-06
3.26327e-06
3.03637e-06
-5.82157e-06
7.62841e-06
2.71634e-06
-8.04186e-06
5.77855e-06
8.66606e-07
-8.58724e-06
-1.11117e-07
-1.98869e-06
-5.6407e-06
-5.69409e-06
-4.35848e-06
-5.30822e-07
-6.99265e-06
-5.52512e-06
2.97291e-06
-1.311e-06
-5.68395e-06
4.40465e-06
4.79895e-06
-4.70717e-06
5.22586e-06
8.28164e-06
-2.4806e-06
3.21578e-06
6.66958e-06
4.94839e-07
1.66704e-06
-4.57307e-08
-4.83498e-08
-1.97663e-07
-7.51111e-09
-3.5324e-08
-2.15905e-07
1.79667e-08
-8.77097e-09
-2.29726e-07
2.66237e-08
1.50392e-08
-2.28441e-07
1.81779e-08
2.91662e-08
-2.06349e-07
3.6528e-09
2.2241e-08
-1.70038e-07
2.32078e-08
-3.49127e-08
-1.17067e-07
1.55143e-07
-1.78613e-07
-3.14608e-08
1.45811e-07
-1.91101e-08
-1.95719e-08
1.61773e-07
-1.47188e-07
-3.0705e-08
-1.20246e-07
-2.06418e-07
2.92772e-08
-1.01991e-07
-2.50387e-07
8.21599e-08
-4.42397e-08
-2.84487e-07
1.01163e-07
2.41454e-08
-2.95187e-07
7.49754e-08
8.24919e-08
-2.79546e-07
5.13477e-09
1.00352e-07
-2.35791e-07
-2.07715e-08
7.33377e-09
-1.36162e-07
2.10226e-07
-3.31606e-07
9.8805e-08
2.58068e-07
4.97108e-08
4.18076e-08
4.41179e-07
-2.43391e-07
-2.61984e-08
-1.25464e-07
-3.01059e-07
2.735e-08
-1.27473e-07
-3.3997e-07
7.93758e-08
-5.82437e-08
-3.76634e-07
8.47102e-08
6.61264e-08
-3.81591e-07
4.97222e-09
1.91575e-07
-3.43807e-07
-1.71542e-07
2.76482e-07
-2.52029e-07
-2.4726e-07
1.80622e-07
1.94641e-08
5.62032e-08
-4.21216e-07
5.4081e-07
2.35994e-07
2.08448e-07
3.76914e-07
7.46095e-07
-2.9188e-07
2.00688e-08
-1.0014e-08
-4.68033e-07
8.90239e-08
-4.67145e-08
-4.62621e-07
1.34066e-07
3.51317e-09
-4.85257e-07
1.38955e-07
1.37975e-07
-4.94419e-07
4.27268e-08
3.29014e-07
-4.57307e-07
-1.14566e-07
4.78682e-07
-3.15496e-07
-5.8672e-08
2.816e-07
1.80208e-08
1.82307e-08
-3.05251e-07
5.3612e-07
1.22339e-08
4.60718e-07
3.75248e-07
1.03488e-06
-3.72823e-07
7.53145e-08
1.52615e-07
-7.52233e-07
1.97177e-07
9.06385e-08
-6.97249e-07
2.414e-07
1.56459e-07
-6.77742e-07
2.40659e-07
3.20706e-07
-7.03465e-07
2.13404e-07
4.97233e-07
-6.66699e-07
2.0889e-07
6.21873e-07
-5.03568e-07
2.90032e-07
3.79451e-07
-2.25966e-07
1.64353e-07
1.72324e-08
8.85841e-08
-1.32296e-07
8.5907e-07
-1.15121e-07
1.29716e-06
-5.9866e-07
1.18954e-07
3.56594e-07
-1.18986e-06
2.60375e-07
3.17043e-07
-1.04138e-06
3.35589e-07
4.09097e-07
-9.09426e-07
4.09939e-07
5.47298e-07
-8.33478e-07
4.67333e-07
6.90786e-07
-7.27247e-07
5.17738e-07
8.14174e-07
-5.54838e-07
4.85625e-07
7.29458e-07
-2.90839e-07
2.39806e-07
6.74441e-07
-2.06147e-07
-2.14062e-07
1.50288e-06
-5.04118e-07
1.46942e-06
-8.25866e-07
9.99242e-08
3.0064e-07
-1.77865e-06
2.81257e-07
3.26776e-07
-1.54849e-06
4.1134e-07
4.64728e-07
-1.39853e-06
5.06475e-07
6.98442e-07
-1.32757e-06
5.83535e-07
9.27663e-07
-1.08881e-06
6.43326e-07
1.09448e-06
-6.76418e-07
5.87286e-07
1.1324e-06
-2.83202e-07
3.74934e-07
1.25631e-06
-2.57475e-07
4.25391e-08
2.02213e-06
-4.77297e-07
1.90016e-06
-1.12081e-06
-3.94636e-07
6.45286e-07
-4.27913e-06
2.21592e-07
7.46469e-07
-4.0786e-06
6.8138e-07
9.39251e-07
-3.84994e-06
1.00403e-06
1.17149e-06
-3.49945e-06
1.16359e-06
1.47688e-06
-3.0117e-06
1.18454e-06
1.77621e-06
-2.34189e-06
1.02228e-06
1.95869e-06
-1.47038e-06
7.02797e-07
2.07751e-06
-8.74482e-07
4.6145e-07
2.43509e-06
-6.77852e-07
2.71845e-06
-1.06053e-06
-1.97168e-06
5.37196e-06
-1.64427e-06
-1.27253e-06
5.18599e-06
-2.18986e-06
-7.80076e-07
3.99624e-06
-3.39416e-06
4.93094e-07
4.38128e-07
-2.9139e-06
1.8741e-06
1.94308e-06
-5.41315e-06
2.74237e-06
2.52192e-06
-4.91509e-06
2.86451e-06
3.4204e-06
-3.6638e-06
1.96908e-06
4.25054e-06
-1.96758e-06
9.45303e-07
3.70374e-06
-1.76568e-08
3.58833e-06
1.31322e-06
-3.0692e-06
1.86844e-06
3.70946e-07
-1.59112e-06
1.45524e-06
3.45642e-07
-4.7486e-07
8.71743e-07
8.36261e-08
2.37497e-07
-1.53629e-06
3.80075e-07
8.55707e-07
7.62255e-08
3.26941e-08
1.3063e-06
2.93549e-06
-1.93773e-07
-5.74743e-08
7.30525e-06
-1.38611e-07
-4.94204e-07
8.82195e-06
1.42341e-06
-5.23479e-07
3.09744e-06
6.47304e-06
1.85301e-06
7.17465e-06
-3.75429e-06
-1.36585e-06
6.13357e-06
-2.65226e-06
-2.08504e-06
5.73105e-06
-1.46159e-06
-2.93336e-06
5.09333e-06
-1.36258e-06
-3.7878e-06
4.2557e-06
-1.04364e-06
-3.4767e-06
3.68505e-06
8.33199e-07
-1.4702e-06
3.254e-06
2.47853e-06
3.70459e-06
2.6763e-06
2.0742e-06
7.62541e-06
2.89667e-06
6.31079e-07
4.71902e-06
3.56601e-06
1.14281e-06
4.42195e-06
-5.09169e-06
-4.70296e-07
3.24385e-06
-4.68428e-06
-1.86043e-06
1.94052e-06
-3.46221e-06
-3.41049e-06
1.17024e-06
-2.56728e-06
-3.99948e-06
9.58763e-07
-1.92117e-06
-4.07358e-06
2.52779e-07
-1.06181e-06
-3.8827e-06
-1.12278e-06
1.54487e-06
-1.21796e-06
-1.37691e-06
3.69566e-06
3.02517e-06
-8.9815e-07
3.17987e-06
2.57972e-06
-4.39843e-08
2.08578e-06
-6.78147e-07
-5.96505e-06
1.29106e-06
-8.05335e-07
-5.98492e-06
-1.47224e-06
-1.82193e-06
-4.89226e-06
-3.72427e-06
-2.09691e-06
-3.8886e-06
-3.88093e-06
-1.63555e-06
-2.78779e-06
-3.66279e-06
-2.13307e-06
-9.51631e-07
-4.13007e-06
-3.97787e-06
1.14724e-06
-3.66222e-06
-5.4863e-06
3.20095e-06
-3.14135e-07
-5.28681e-06
2.40454e-06
1.87357e-06
-4.2534e-06
3.19007e-06
-4.31067e-06
-7.8608e-06
2.14426e-06
-2.13697e-06
-8.07018e-06
-2.05795e-06
-3.33912e-06
-6.38489e-06
-5.46476e-06
-4.46809e-06
-4.7393e-06
-5.66175e-06
-3.9726e-06
-3.42854e-06
-4.45776e-06
-4.04847e-06
-1.19829e-06
-4.60944e-06
-5.51353e-06
1.717e-06
-4.6143e-06
-6.89836e-06
2.99049e-06
-8.70493e-07
-6.00811e-06
1.53865e-06
2.69585e-06
-4.8885e-06
3.48421e-06
-5.41675e-06
-8.91713e-06
2.98019e-06
-2.65181e-06
-7.90234e-06
-2.61692e-06
-5.61988e-06
-5.37897e-06
-7.51895e-06
-7.67203e-06
-3.71754e-06
-8.11045e-06
-5.67512e-06
-2.86304e-06
-6.15284e-06
-4.73111e-06
-1.90487e-06
-4.8677e-06
-6.09432e-06
-3.81477e-07
-3.56225e-06
-7.17627e-06
1.1507e-06
-4.79388e-07
-6.13473e-06
2.42682e-07
3.23229e-06
-3.50699e-06
2.69157e-06
-3.96048e-06
-6.4447e-06
3.75204e-06
-4.5577e-06
-5.07883e-06
-2.33854e-06
-9.32969e-06
-3.53606e-06
-8.33536e-06
-1.07385e-05
-3.03345e-06
-9.21858e-06
-6.24496e-06
-2.77891e-06
-7.14607e-06
-4.22978e-06
-2.73666e-06
-4.21415e-06
-5.59271e-06
-1.57635e-06
-1.20734e-06
-5.79221e-06
-3.91491e-07
1.71053e-06
-4.23018e-06
-8.35728e-08
3.85833e-06
-2.64302e-06
2.07184e-06
-2.33041e-06
-2.68806e-06
4.19551e-06
-6.81126e-06
-2.41873e-06
-1.20228e-06
-1.20953e-05
-2.85706e-06
-8.20628e-06
-1.11221e-05
-3.91096e-06
-9.23548e-06
-4.95676e-06
-4.1318e-06
-7.17858e-06
-2.54339e-06
-4.17764e-06
-2.76739e-06
-4.0017e-06
-2.56679e-06
1.23938e-06
-3.25547e-06
-1.12379e-06
4.33949e-06
-9.51306e-07
-4.40254e-07
4.49795e-06
-4.98608e-07
1.89155e-06
-4.03277e-07
4.47396e-07
5.01045e-06
-7.92763e-06
-2.33924e-07
2.85462e-07
-1.23737e-05
-2.49575e-06
-7.323e-06
-9.79885e-06
-4.78637e-06
-8.83502e-06
-3.47797e-06
-5.56352e-06
-6.92462e-06
-2.08734e-07
-5.4607e-06
-1.33731e-06
-8.50496e-07
-4.0761e-06
3.34651e-06
1.73074e-07
-2.15133e-06
6.47872e-06
2.14226e-06
-1.68951e-06
5.43464e-06
1.61515e-06
1.975e-06
1.26573e-06
3.12411e-06
6.38761e-06
-8.05259e-06
1.76005e-06
2.11304e-06
-1.0701e-05
-1.5695e-06
-5.63236e-06
-8.62214e-06
-4.76692e-06
-8.45494e-06
-2.55177e-06
-6.29615e-06
-7.10181e-06
1.73878e-06
-6.58743e-06
-3.44995e-07
2.6471e-06
-6.02716e-06
4.93491e-06
3.03982e-06
-3.82643e-06
7.4814e-06
3.76359e-06
-2.27758e-06
5.89241e-06
2.50044e-06
1.63836e-06
1.32232e-06
4.50111e-06
-7.18716e-06
7.79247e-06
3.2065e-06
-8.66273e-06
4.02851e-06
-3.98927e-07
-7.27966e-06
-3.3345e-06
-4.6294e-06
-2.3781e-06
-7.48707e-06
-7.73026e-06
2.63819e-06
-7.16996e-06
-9.17244e-06
4.50973e-06
-4.39649e-07
-8.79642e-06
4.36938e-06
4.59416e-06
-5.8206e-06
3.99129e-06
5.74016e-06
-1.98194e-06
2.06694e-06
3.20259e-06
4.74791e-07
-3.23532e-07
-5.83836e-08
-1.18944e-08
-2.2642e-07
-1.02835e-08
-3.44924e-08
-2.29513e-07
3.32123e-08
-2.89146e-08
-2.44308e-07
5.99601e-08
-1.225e-08
-2.42939e-07
6.71099e-08
9.58246e-09
-2.23081e-07
6.45563e-08
2.24543e-08
-1.89939e-07
7.10906e-08
1.54006e-08
-1.39002e-07
1.31631e-07