/*--------------------------------*- C++ -*----------------------------------*\
| =========                 |                                                 |
| \\      /  F ield         | OpenFOAM: The Open Source CFD Toolbox           |
|  \\    /   O peration     | Version:  2312                                  |
|   \\  /    A nd           | Website:  www.openfoam.com                      |
|    \\/     M anipulation  |                                                 |
\*---------------------------------------------------------------------------*/
FoamFile
{
    version     2.0;
    format      ascii;
    arch        "LSB;label=32;scalar=64";
    class       volVectorField;
    location    "0.995";
    object      U;
}
// * * * * * * * * * * * * * * * * * * * * * * * * * * * * * * * * * * * * * //

dimensions      [0 1 -1 0 0 0 0];

internalField   nonuniform List<vector> 
8000
(
(-0.00189747 0.00156969 -0.00453463)
(0.000658896 0.00174733 -0.00432683)
(0.00232849 0.00197303 -0.00388469)
(0.00304696 0.00214099 -0.00346846)
(0.00311615 0.00219967 -0.00327485)
(0.0027854 0.00221069 -0.00347538)
(0.00211654 0.00231367 -0.00428887)
(0.00194006 0.00287452 -0.00603473)
(0.00382351 0.00256765 -0.00542991)
(0.00295373 0.00246433 -0.00259761)
(-0.00131918 0.00465 -0.00482844)
(0.00209871 0.00587236 -0.00497813)
(0.00461166 0.0065347 -0.00477852)
(0.00625345 0.00700476 -0.00449373)
(0.00696295 0.00753341 -0.00440253)
(0.00673575 0.00856296 -0.0049888)
(0.00562968 0.0109622 -0.00741457)
(0.00350777 0.0111477 -0.0108589)
(0.00356572 0.00882399 -0.00730953)
(0.00361909 0.0097083 -0.00220966)
(5.2178e-05 0.00643023 -0.00212218)
(0.00349512 0.00847333 -0.00353777)
(0.0052722 0.010141 -0.00418962)
(0.00681059 0.0118144 -0.00433901)
(0.00797047 0.0137639 -0.00463646)
(0.00908122 0.0168061 -0.0059351)
(0.00707463 0.0210808 -0.008045)
(0.000963229 0.0213745 -0.0103765)
(-0.00576814 0.00684908 0.00239937)
(0.000993717 0.0135268 0.00584758)
(-0.000305141 -0.000729865 0.00317895)
(0.00734764 0.0123282 0.000152359)
(0.00961854 0.0166968 -0.00227353)
(0.0103824 0.0181373 -0.00325934)
(0.0111974 0.0203018 -0.00388707)
(0.0133718 0.0243471 -0.00470859)
(0.00796756 0.0304622 -0.00166839)
(-0.0148312 0.0157359 0.00504909)
(-0.0269925 -0.0297637 0.0277453)
(-0.0103672 -0.0058709 0.0151104)
(-0.00310018 -0.0208031 -0.00137953)
(0.00786441 -0.00191301 0.00242886)
(0.0131742 0.0126871 0.00307745)
(0.0155552 0.0200118 0.00360391)
(0.0184802 0.0248181 0.00454407)
(0.0237461 0.0305682 0.00473705)
(0.0167379 0.0338889 0.00923981)
(-0.0127525 0.00418954 0.0143252)
(-0.0229531 -0.0709132 0.0195442)
(-0.021223 -0.0709904 0.0049484)
(-0.00566479 -0.020832 -0.0132489)
(0.001748 -0.00929952 -0.00819114)
(0.0102588 0.0042832 -0.00329485)
(0.0185297 0.0117049 -0.00099392)
(0.0261232 0.0137273 0.00190128)
(0.0346684 0.0188465 0.00873634)
(0.0314615 0.0262932 0.0164823)
(0.0138068 0.00241203 0.0204854)
(0.00996057 -0.0387216 0.00331635)
(-0.00589185 -0.0733891 -0.0133975)
(-0.0103603 -0.00756019 -0.0239892)
(0.00143718 -0.00634741 -0.0208926)
(0.0149332 0.00053463 -0.0169291)
(0.0294275 0.00750464 -0.0153581)
(0.0403192 0.0112037 -0.0149716)
(0.0477957 0.0108159 -0.00757607)
(0.0443651 0.0044444 0.00959342)
(0.0239516 -0.0295296 0.0227365)
(0.0117995 -0.042086 0.000580522)
(0.00386307 -0.0495338 -0.0187342)
(-0.0185087 0.0101921 -0.0240555)
(0.00497941 0.0100055 -0.0210449)
(0.0256168 0.0134749 -0.0206375)
(0.0436073 0.0180327 -0.019788)
(0.0555494 0.0192476 -0.0176034)
(0.0608273 0.013135 -0.0130051)
(0.058329 -0.00283859 0.00216563)
(0.0329776 -0.0290195 0.0106169)
(0.00886456 -0.0220133 -0.00917772)
(0.00772911 -0.0225061 -0.00993665)
(-0.0272512 0.0298885 -0.00342612)
(0.00544197 0.0286974 -0.000571515)
(0.0333728 0.0356708 -0.000920911)
(0.0501248 0.0452613 -0.00531898)
(0.0559977 0.0522902 -0.0107054)
(0.0563618 0.0473977 -0.0139298)
(0.0480309 0.0287468 -0.00366279)
(0.0228275 -2.00683e-05 -0.00184555)
(0.00658771 -0.00505721 -0.0187832)
(0.0168366 -0.0230657 -0.00100163)
(-0.0552545 -0.0817783 -0.0272399)
(-0.0725231 -0.0626052 -0.0359205)
(-0.0918714 -0.0319157 -0.0327167)
(-0.085652 0.0447631 -0.0177673)
(-0.0685595 0.0712695 -0.0101493)
(-0.0497289 0.0723798 -0.0047771)
(-0.0462102 0.0588922 0.00283157)
(-0.0458248 0.0411037 -0.0140582)
(-0.0281614 0.0359214 -0.0369416)
(0.0195314 0.00162128 -0.0130619)
(-0.0254741 0.0139753 0.00440689)
(0.00125367 0.0693441 -0.00690465)
(0.0164929 0.0687378 -0.0326108)
(0.0112605 0.012946 -0.0618713)
(-0.107709 -0.0501089 -0.036399)
(-0.291951 -0.101303 -0.0282277)
(-0.256009 -0.113429 -0.0310797)
(-0.177024 -0.119988 -0.0221888)
(-0.0871041 -0.111564 -0.00648344)
(-0.00355934 -0.0877005 0.0190159)
(-0.121244 -0.152382 0.0583628)
(-0.0853093 -0.109352 0.0526704)
(-0.00651861 0.0119459 0.0306394)
(0.0717813 0.129199 -0.0180801)
(0.0845624 0.178738 -0.0459013)
(0.0450374 0.198036 -0.0829398)
(0.0431557 -0.0708121 -0.128503)
(0.0297394 -0.247066 -0.0690632)
(-0.0537909 -0.344969 -0.000392685)
(-0.0317453 -0.31852 -0.0187216)
(-0.323608 -0.272031 0.0368296)
(-0.295915 -0.299833 0.0199393)
(-0.187979 -0.235847 0.0243431)
(-0.0277254 -0.0379333 0.0282098)
(0.0947153 0.188186 -0.00926757)
(0.11443 0.264428 -0.050664)
(0.0731231 0.141122 -0.113424)
(0.0549854 0.0379269 -0.146149)
(-0.0132941 -0.0207275 -0.150135)
(-0.0149458 -0.0545552 -0.148064)
(-0.491536 -0.312536 -0.0471515)
(-0.445667 -0.377311 -0.0805991)
(-0.326697 -0.398539 -0.0759695)
(-0.160204 -0.301029 -0.0282017)
(0.00730052 -0.0308463 0.023511)
(0.108142 0.25558 -0.00135892)
(0.0781427 0.301953 -0.052876)
(0.0196742 0.204822 -0.11712)
(-0.0339698 0.124518 -0.150579)
(-0.0128246 0.0621362 -0.143314)
(-0.558458 -0.240143 -0.127265)
(-0.480191 -0.307536 -0.171554)
(-0.33463 -0.358191 -0.189301)
(-0.170086 -0.331419 -0.147815)
(-0.0267818 -0.206747 -0.0445283)
(0.0798387 0.105064 0.0349892)
(0.0907158 0.354196 0.0125246)
(0.0191024 0.365708 -0.062124)
(-0.032967 0.272263 -0.12602)
(0.000990133 0.207725 -0.100561)
(-0.573104 -0.169533 -0.161964)
(-0.463091 -0.238092 -0.204841)
(-0.296132 -0.287082 -0.230153)
(-0.133192 -0.264606 -0.202438)
(0.000825327 -0.16008 -0.118737)
(0.0772709 -0.0777686 -0.0051473)
(0.0824467 0.25003 0.0648781)
(0.0557791 0.455585 0.0118916)
(-0.0132879 0.401931 -0.0802096)
(0.0137477 0.323502 -0.0142472)
(-0.546943 -0.0930361 -0.157121)
(-0.430948 -0.160014 -0.193683)
(-0.265866 -0.214691 -0.213102)
(-0.117267 -0.222363 -0.180092)
(-0.00482144 -0.148909 -0.109992)
(0.0826762 -0.0490115 -0.0419858)
(0.0565136 0.0521928 0.0434884)
(0.0575525 0.387926 0.0786921)
(0.0156726 0.48661 -0.00679722)
(0.0289351 0.315949 0.0561312)
(-0.503744 -0.00854317 -0.123913)
(-0.399205 -0.0650045 -0.162764)
(-0.249015 -0.125068 -0.18405)
(-0.114087 -0.172552 -0.14909)
(-0.0152736 -0.162026 -0.073829)
(0.0337576 -0.125775 -0.035091)
(0.0318501 -0.0394456 0.00179228)
(-0.0198565 0.189836 0.0862734)
(0.0136507 0.430687 0.0630524)
(0.0361696 0.214445 0.0751138)
(-0.468788 0.0592679 -0.0700579)
(-0.397457 0.0181879 -0.0941744)
(-0.268074 -0.042711 -0.124369)
(-0.124972 -0.128584 -0.128399)
(-0.0251508 -0.174822 -0.0596039)
(0.00797698 -0.187558 -0.0194559)
(-0.0211116 -0.131836 -0.0174607)
(-0.0768067 0.0542311 0.0270811)
(-0.0398495 0.217243 0.0710427)
(0.00311384 0.0832972 0.0392291)
(-0.438711 0.100279 -0.0369804)
(-0.38957 0.0595733 -0.0607167)
(-0.282351 -0.00658952 -0.100491)
(-0.141311 -0.0994255 -0.12908)
(-0.0390642 -0.174104 -0.0900411)
(-0.0105031 -0.204983 -0.0411068)
(-0.0652051 -0.151873 -0.0270401)
(-0.103545 -0.0183158 -0.0173262)
(-0.0932495 0.0539815 0.00189236)
(-0.0327142 0.00466791 0.00329941)
(-0.00200522 0.000786664 -0.00801206)
(-0.00129696 0.000921409 -0.00775901)
(-0.00110955 0.00106001 -0.00709816)
(-0.0012643 0.00115287 -0.0065336)
(-0.00174281 0.00105144 -0.00625864)
(-0.0024425 0.000551732 -0.00664598)
(-0.00300323 -0.000828489 -0.00837205)
(-0.000135098 -0.0023445 -0.011549)
(0.00709561 0.000225618 -0.00843775)
(0.00558286 0.00340615 -0.00491697)
(-0.00140223 0.00117882 -0.00831022)
(0.000380198 0.00284138 -0.00880386)
(0.00145128 0.00359689 -0.00866138)
(0.00160698 0.00415952 -0.00834464)
(0.000743637 0.00463653 -0.00841923)
(-0.00187686 0.00472632 -0.00999329)
(-0.00656787 0.00345423 -0.0133735)
(-0.00787331 -0.00543831 -0.00904654)
(0.00175898 -0.00417015 0.00276174)
(0.00885825 0.0118947 -0.00496146)
(-0.000176606 0.000695405 -0.00447539)
(5.06785e-05 0.00285527 -0.00771879)
(-5.18623e-05 0.00508235 -0.0087634)
(0.000218908 0.00762485 -0.00909561)
(-0.000845981 0.0107269 -0.0103412)
(-0.00589888 0.0138453 -0.0126411)
(-0.017102 0.0069784 -0.00487617)
(-0.0256572 -0.0281085 0.0228631)
(-0.0240691 -0.0285305 0.0331465)
(0.00634099 0.0186685 0.00565552)
(0.00139735 0.00407774 0.00456457)
(0.004169 0.0123954 -0.00306735)
(0.00291242 0.0131501 -0.00752792)
(0.00224414 0.0145291 -0.00984218)
(0.00117481 0.0197764 -0.0120482)
(-0.000318792 0.024999 -0.00932686)
(-0.0142363 0.0114551 0.0165357)
(-0.0249021 -0.0354116 0.0384605)
(-0.0371001 -0.0514722 0.0320278)
(-0.00334025 0.0113869 0.0250751)
(-0.00259222 -0.00578156 0.00477432)
(0.00816859 0.00915765 0.00325654)
(0.00873849 0.016514 0.000145733)
(0.00871774 0.0204768 -0.00237232)
(0.0107184 0.0264546 -0.00529025)
(0.0162701 0.032298 -0.00176385)
(0.00929445 0.0245497 0.0239375)
(0.00998544 -0.0184067 0.0410252)
(-0.0166259 -0.0523118 -0.00533452)
(-0.0062851 -0.0157563 0.0184186)
(-0.00572327 -0.00571718 -0.00890888)
(-0.00180935 0.0142759 -0.00465383)
(0.00622703 0.0262022 -0.00215535)
(0.0146488 0.0312127 -0.00138036)
(0.021365 0.0359589 -0.000249302)
(0.029831 0.0397369 0.00604875)
(0.0298214 0.0345151 0.0282551)
(0.0393893 0.00200239 0.045866)
(0.0168431 -0.0223543 -0.00588766)
(-0.00288669 -0.00516395 -0.00361057)
(-0.00684051 0.017212 -0.0326245)
(-0.00252659 0.0168337 -0.0291831)
(0.00676775 0.0194713 -0.0255464)
(0.019047 0.0241323 -0.019973)
(0.0286779 0.0322653 -0.00930972)
(0.0360098 0.0399088 0.0071403)
(0.0374248 0.0317116 0.0308841)
(0.0450157 0.00421302 0.0429931)
(0.0238383 0.00102036 -0.00151673)
(-0.00216507 0.00438202 -0.0176405)
(-0.0102228 0.0235289 -0.0617112)
(0.00769599 0.0252003 -0.0581704)
(0.0242629 0.0282153 -0.0568589)
(0.0365251 0.0310015 -0.0529592)
(0.0412763 0.0344603 -0.0409029)
(0.0419055 0.0379084 -0.0197338)
(0.0371249 0.0340245 0.00539225)
(0.0405109 0.0249133 0.0123605)
(0.0172806 0.0262106 -0.0158302)
(0.00103325 0.0189875 -0.0194922)
(-0.0286679 0.0608823 0.0380113)
(-0.0111796 0.0590317 0.024922)
(0.00482181 0.06472 -0.0078282)
(0.0167211 0.0740328 -0.0354412)
(0.0264889 0.0799273 -0.0468422)
(0.0339115 0.0761781 -0.037868)
(0.0342039 0.0640928 -0.0148515)
(0.0405605 0.0566647 -0.00256932)
(0.0231529 0.0585903 -0.00672646)
(0.00568418 0.0207373 0.0183872)
(-0.0814683 -0.0338579 -0.0286383)
(-0.0582673 0.0313788 -0.058026)
(-0.0773441 0.0723601 -0.0480653)
(-0.122466 0.133623 0.0477821)
(-0.0954163 0.130967 0.0695268)
(-0.0610099 0.109437 0.0696092)
(-0.0505063 0.0861672 0.0818079)
(-0.0319331 0.0697218 0.0826135)
(-0.0410967 0.0661456 0.0778263)
(0.00716413 0.0364494 0.0750891)
(-0.0857219 -0.0542123 0.0853342)
(-0.0320857 0.0241108 0.0609469)
(0.00967772 0.132373 -0.0198877)
(-6.17576e-05 0.205491 -0.0501708)
(-0.0125355 0.154701 -0.0295619)
(0.0052936 -0.106573 -0.0512452)
(-0.185847 -0.185675 0.0527312)
(-0.201934 -0.197843 0.0987197)
(-0.105136 -0.258366 0.116993)
(-0.00797979 -0.2417 0.107008)
(-0.234908 -0.189798 0.155868)
(-0.18645 -0.135578 0.150673)
(-0.0621639 -0.00701508 0.117927)
(0.0739162 0.161051 0.0357994)
(0.0904743 0.230299 -0.0544901)
(0.0986972 0.118597 -0.147381)
(0.137672 0.122979 -0.221189)
(0.162575 0.0328432 -0.156829)
(0.0784664 -0.220401 -0.102834)
(-0.00690296 -0.212681 -0.141055)
(-0.4105 -0.189459 0.117372)
(-0.389661 -0.226877 0.0828326)
(-0.282799 -0.20421 0.0830157)
(-0.0909545 -0.0568805 0.0950938)
(0.116135 0.18771 0.0324499)
(0.134257 0.214269 -0.0704771)
(0.0911164 0.075823 -0.189851)
(0.119245 0.0456 -0.23878)
(0.0551644 -0.0348533 -0.234103)
(0.0211192 -0.0635394 -0.265099)
(-0.446977 -0.0804771 -0.00868244)
(-0.447592 -0.156625 -0.0912603)
(-0.385063 -0.235572 -0.102225)
(-0.238561 -0.216882 -0.0316119)
(-0.0241192 -0.0352771 0.0783234)
(0.169657 0.230804 0.0444621)
(0.127527 0.228188 -0.0474598)
(0.083253 0.167674 -0.171441)
(-0.000657745 0.0939659 -0.230787)
(-0.0167298 0.016391 -0.249909)
(-0.463216 0.0160766 -0.112619)
(-0.462864 -0.114287 -0.209212)
(-0.367243 -0.239836 -0.26814)
(-0.243544 -0.244334 -0.229917)
(-0.104846 -0.0989498 -0.0798002)
(0.123274 0.140467 0.123824)
(0.177643 0.346704 0.0893035)
(0.0869315 0.312649 -0.0630908)
(0.00389843 0.210796 -0.183494)
(-0.024145 0.0816967 -0.201552)
(-0.481739 0.0247955 -0.152785)
(-0.426121 -0.14922 -0.260241)
(-0.293123 -0.3044 -0.326951)
(-0.200739 -0.307948 -0.272652)
(-0.124331 -0.147141 -0.156074)
(0.0367517 0.119148 0.0669116)
(0.180399 0.387883 0.187963)
(0.114187 0.448979 0.0632999)
(0.00970061 0.302354 -0.0998526)
(-0.0249586 0.174583 -0.0800826)
(-0.414837 0.0254888 -0.186531)
(-0.329985 -0.142622 -0.293342)
(-0.197676 -0.297529 -0.346995)
(-0.156654 -0.326292 -0.239809)
(-0.1229 -0.201804 -0.101068)
(-0.0217493 0.0791831 0.0530041)
(0.122138 0.284144 0.241705)
(0.120156 0.511966 0.17875)
(-0.0014964 0.391233 -0.000964891)
(-0.0172643 0.273359 0.074455)
(-0.320487 0.0508574 -0.185128)
(-0.23467 -0.0792058 -0.298391)
(-0.122436 -0.233001 -0.355544)
(-0.114154 -0.301443 -0.241448)
(-0.0968017 -0.236758 -0.0401832)
(-0.0549051 -0.0443972 0.103528)
(0.0315753 0.192176 0.231546)
(0.0417205 0.444354 0.229798)
(-0.0241049 0.464992 0.0969832)
(0.00915067 0.279609 0.164833)
(-0.228134 0.090536 -0.153644)
(-0.178762 -0.00428397 -0.236784)
(-0.0863279 -0.138314 -0.304208)
(-0.0637873 -0.256574 -0.265523)
(-0.0611341 -0.258965 -0.0485023)
(-0.0722244 -0.158311 0.0932905)
(-0.08141 0.0900276 0.17356)
(-0.0825206 0.332688 0.200743)
(-0.0764819 0.409992 0.157382)
(-0.00544763 0.194906 0.137886)
(-0.126275 0.157602 -0.122919)
(-0.113072 0.101623 -0.175198)
(-0.0540911 -0.0247233 -0.246485)
(-0.0254405 -0.190914 -0.268481)
(-0.0602222 -0.246217 -0.112155)
(-0.119992 -0.181104 0.0471191)
(-0.197154 0.0194537 0.0990794)
(-0.206266 0.228784 0.131647)
(-0.162548 0.248932 0.0973393)
(-0.0621896 0.0715348 0.0129064)
(-0.00221373 -0.000278187 -0.00843902)
(-0.000993987 6.52695e-05 -0.0086016)
(-0.000385517 0.000296107 -0.00827763)
(-0.000300117 0.000480518 -0.00778073)
(-0.000754985 0.000447361 -0.00714181)
(-0.00191565 -0.000249722 -0.00666212)
(-0.00337056 -0.0026453 -0.00663358)
(0.000869492 -0.00584672 -0.00596068)
(0.0098832 -0.00308177 -0.00364158)
(0.00607778 0.00301145 -0.00508246)
(-0.00174153 -0.00298244 -0.00931557)
(0.00028383 -0.00103249 -0.0102272)
(0.00206474 0.000917523 -0.0103244)
(0.00260651 0.00221937 -0.0101237)
(0.0015454 0.00288395 -0.00976226)
(-0.00241422 0.0023451 -0.00966808)
(-0.00974706 -0.00380039 -0.00662083)
(-0.00963563 -0.0209932 0.00673549)
(0.00951628 -0.00801315 0.00831123)
(0.0115927 0.0122775 -0.00780887)
(-0.00125669 -0.00464663 -0.00829956)
(-0.000528312 -0.00262606 -0.0114037)
(0.000595378 0.00027355 -0.0124478)
(0.00108891 0.00392647 -0.012357)
(-0.000751073 0.00768046 -0.0123644)
(-0.0103984 0.00897338 -0.0104811)
(-0.0245249 -0.00658615 0.00534008)
(-0.0174284 -0.0461727 0.0297922)
(-0.0142533 -0.0275616 0.0344788)
(0.0138463 0.0234766 -0.00645316)
(-9.52149e-05 0.00149204 -0.00347921)
(0.00139569 0.00376156 -0.00904324)
(0.00197025 0.00603146 -0.0127557)
(0.00277126 0.0103796 -0.0151433)
(0.000970214 0.016864 -0.0161457)
(-0.00661388 0.0195999 -0.00975562)
(-0.0168873 -0.00286767 0.0102584)
(0.000509083 -0.0535694 0.02815)
(-0.0273804 -0.0309564 0.0262274)
(0.00621681 0.0317528 0.00477699)
(-0.00109795 0.00707076 -0.00447402)
(0.00570088 0.00957192 -0.0107026)
(0.00619411 0.0107314 -0.0135214)
(0.0065013 0.0146201 -0.0160589)
(0.00768391 0.0219751 -0.0179438)
(0.00804024 0.0266088 -0.0114423)
(0.00537082 0.00543951 0.00385664)
(0.0290383 -0.0338495 0.0142716)
(-0.0140486 -0.0136948 -0.00342576)
(-0.00283483 0.0373562 0.00209198)
(-0.00366853 0.0104629 -0.0197902)
(0.00265842 0.0179146 -0.0181702)
(0.00792432 0.0254611 -0.0152662)
(0.0129385 0.0300173 -0.0142278)
(0.0182773 0.0340287 -0.0140938)
(0.0220314 0.0350275 -0.00817303)
(0.023013 0.016084 0.00924519)
(0.0364742 -0.0100726 0.0161325)
(-0.00247202 0.00317791 -0.0133917)
(-0.00923392 0.0458278 -0.00889191)
(-0.00327111 0.0440467 -0.0539962)
(0.00282331 0.0443132 -0.0480435)
(0.00828674 0.0449783 -0.0431365)
(0.0145028 0.0454037 -0.0383226)
(0.020819 0.046336 -0.0265956)
(0.0265897 0.0474074 -0.00967763)
(0.029595 0.0384293 0.00997178)
(0.0370413 0.0297473 0.0119297)
(0.00525651 0.044127 -0.0112597)
(-0.00725259 0.0549969 -0.0217125)
(-0.018437 0.0111052 -0.113928)
(0.00211629 0.0147943 -0.108533)
(0.0205541 0.020927 -0.103099)
(0.033669 0.0304158 -0.095088)
(0.0391771 0.0415342 -0.0802915)
(0.0388339 0.0489777 -0.0545697)
(0.0327925 0.0492674 -0.0239995)
(0.0328246 0.0492019 -0.0121528)
(0.00832884 0.0599947 -0.0222132)
(0.00572755 0.061316 -0.0240276)
(-0.0396684 0.0792889 0.0303833)
(-0.0262898 0.0735251 -0.00928871)
(-0.0175817 0.0760391 -0.0431807)
(0.00707506 0.0835804 -0.0904404)
(0.0363222 0.0882964 -0.109855)
(0.0568713 0.0899946 -0.0983152)
(0.0606752 0.0839712 -0.0616139)
(0.0552648 0.0787443 -0.0191474)
(0.0178474 0.0849699 0.00762573)
(0.00579686 0.0788353 0.0375969)
(-0.123191 -0.0934463 -0.0600798)
(-0.0899565 -0.104883 -0.0912489)
(-0.0666998 0.0193047 -0.107795)
(-0.0429142 0.117626 -0.0966299)
(-0.0450355 0.179229 -0.0404769)
(-0.0807346 0.196917 0.190937)
(-0.0366663 0.134842 0.14847)
(-0.0117651 0.109329 0.142226)
(-0.0462547 0.107651 0.167605)
(-0.00593061 0.0680917 0.169218)
(-0.131966 -0.104343 0.13777)
(-0.0945973 -0.102232 0.119649)
(-0.0529483 -0.0617587 0.0816745)
(-0.0404227 0.00533378 0.0370261)
(-0.0489593 0.173547 -0.0806037)
(-0.0114726 0.331576 0.00686045)
(0.0374435 0.204801 0.0899255)
(0.00571139 -0.0159479 0.065508)
(-0.0739052 -0.152673 0.215332)
(0.023213 -0.254973 0.127979)
(-0.241058 -0.177012 0.159026)
(-0.230156 -0.173133 0.125146)
(-0.164484 -0.136532 0.119973)
(-0.0743208 -0.0602431 0.108094)
(-0.0133274 -0.00235172 0.0275769)
(0.0493152 -0.00428305 -0.135789)
(0.100881 0.126282 -0.177053)
(0.148337 0.192437 -0.140689)
(0.142765 0.165861 -0.120459)
(0.0892794 0.0748167 -0.123951)
(-0.30408 -0.0748208 0.0311001)
(-0.318422 -0.114343 -0.0317292)
(-0.280312 -0.155254 -0.00729722)
(-0.170667 -0.144471 0.0390218)
(-0.0243427 -0.0661314 0.0500026)
(0.0819401 -0.00811011 -0.0173383)
(0.0933618 -0.0427849 -0.220271)
(0.122943 0.0349133 -0.266305)
(0.103586 0.0182659 -0.251949)
(0.0640379 -0.0113411 -0.254817)
(-0.281733 0.0530012 -0.133251)
(-0.338346 -0.0241502 -0.179581)
(-0.326361 -0.126945 -0.187703)
(-0.23525 -0.17922 -0.17315)
(-0.110284 -0.140099 -0.117508)
(0.0620596 -0.0393107 -0.0578281)
(0.150402 0.0417339 -0.0986266)
(0.182935 0.10092 -0.182504)
(0.06763 0.0840515 -0.23088)
(0.0183661 0.0801791 -0.280995)
(-0.350877 0.123027 -0.152392)
(-0.401698 -0.0359708 -0.205471)
(-0.312486 -0.219229 -0.285797)
(-0.217076 -0.264872 -0.28414)
(-0.139784 -0.172462 -0.246015)
(-0.0114889 -0.0281674 -0.17686)
(0.143395 0.121661 -0.0574714)
(0.202392 0.193436 -0.0843047)
(0.103835 0.16897 -0.160329)
(-0.0172731 0.068761 -0.226649)
(-0.361948 0.156568 -0.14614)
(-0.338016 -0.0954492 -0.280262)
(-0.208032 -0.322677 -0.379152)
(-0.171042 -0.357775 -0.28559)
(-0.141779 -0.240469 -0.218949)
(-0.0582207 -0.0335334 -0.181674)
(0.129244 0.219212 0.0405538)
(0.19143 0.310741 0.0660701)
(0.129489 0.253582 -0.059503)
(-0.00506613 0.105042 -0.151803)
(-0.280958 0.176547 -0.192132)
(-0.221554 -0.077837 -0.381109)
(-0.107376 -0.322878 -0.447004)
(-0.15597 -0.366155 -0.256474)
(-0.152769 -0.265809 -0.11883)
(-0.115739 -0.0446862 -0.0791631)
(0.0779267 0.288232 0.150423)
(0.154661 0.428426 0.207216)
(0.0954411 0.319389 0.0411164)
(-0.0311695 0.167133 -0.0139677)
(-0.14852 0.200542 -0.223693)
(-0.100049 -0.0210005 -0.424556)
(-0.0288018 -0.282111 -0.455033)
(-0.135877 -0.350683 -0.24882)
(-0.158557 -0.278549 -0.0400018)
(-0.138146 -0.0345139 0.0702124)
(-0.017884 0.299279 0.211204)
(0.0864034 0.475821 0.305209)
(0.0106368 0.375945 0.122461)
(-0.036032 0.220042 0.138977)
(-0.00201713 0.238617 -0.206743)
(0.0104001 0.0785607 -0.371827)
(0.043013 -0.190957 -0.413429)
(-0.0760942 -0.324782 -0.264665)
(-0.148216 -0.301133 -0.0321986)
(-0.153972 -0.0521998 0.159998)
(-0.119309 0.252775 0.237526)
(-0.0364995 0.443399 0.313148)
(-0.078572 0.402414 0.184801)
(-0.0406916 0.201307 0.157533)
(0.121942 0.285131 -0.189277)
(0.109126 0.185871 -0.285766)
(0.102676 -0.0676846 -0.340161)
(-0.0118991 -0.269754 -0.275128)
(-0.146221 -0.300895 -0.0781437)
(-0.233874 -0.0677308 0.115232)
(-0.232928 0.195844 0.192521)
(-0.189884 0.368877 0.235669)
(-0.160077 0.330534 0.148212)
(-0.059643 0.123926 0.0362974)
(-0.00257568 -0.000168236 -0.00770541)
(-0.000962534 -4.03975e-05 -0.00837799)
(0.000396989 0.000216406 -0.00872918)
(0.00104049 0.000414816 -0.00860909)
(0.00107734 0.000503258 -0.00777768)
(0.000445066 0.00010483 -0.00646631)
(-0.000481474 -0.0011287 -0.00450205)
(0.00309703 -0.00404048 -0.00125888)
(0.00800366 -0.00150588 -0.000663461)
(0.00444694 0.00266041 -0.00539114)
(-0.00217039 -0.00357439 -0.00884889)
(-0.00016533 -0.00264079 -0.0102545)
(0.00248899 -0.000785717 -0.0110686)
(0.0040155 0.000892885 -0.0112453)
(0.00395285 0.00195926 -0.0105703)
(0.00209841 0.00185675 -0.00889845)
(-0.00221144 -0.00151725 -0.00425429)
(0.00095024 -0.00881272 0.00698708)
(0.01368 0.000225438 0.00401602)
(0.00806793 0.0111313 -0.00936187)
(-0.00173666 -0.00610831 -0.0113859)
(-0.000233025 -0.00552996 -0.013324)
(0.00241761 -0.00272904 -0.0145809)
(0.00384756 0.00111621 -0.0145349)
(0.00299113 0.00495331 -0.0130812)
(-0.0024077 0.00671821 -0.0095693)
(-0.0118027 0.00257707 0.00429525)
(-0.00621814 -0.0164846 0.0289898)
(0.00940597 0.0041549 0.0231076)
(0.0109883 0.0229533 -0.0102435)
(-0.000440577 -0.00300532 -0.0149576)
(0.00247392 -0.00382184 -0.0162981)
(0.00463942 -0.00135327 -0.0178438)
(0.00626378 0.00464935 -0.0184621)
(0.00497749 0.0110976 -0.0174056)
(-0.000685823 0.0156297 -0.0114777)
(-0.00933051 0.00978419 0.00449602)
(0.00519792 -0.0201977 0.0275081)
(-0.00470496 0.00995313 0.0246796)
(0.00656332 0.0359137 -0.011971)
(-7.16398e-05 0.00355694 -0.0239782)
(0.00660994 0.00177671 -0.0247611)
(0.00919452 0.00234178 -0.0253068)
(0.00996893 0.00749043 -0.0263604)
(0.00974072 0.015716 -0.0249301)
(0.00804319 0.0223209 -0.018081)
(0.00708909 0.0133528 -0.00701135)
(0.0174773 -0.00502563 0.00626018)
(-0.00609641 0.0273892 0.00167669)
(-0.00256051 0.0486592 -0.0194416)
(0.00136826 0.0073298 -0.0398857)
(0.00883043 0.00428451 -0.0372566)
(0.0122399 0.007889 -0.0326351)
(0.0148963 0.015375 -0.0293228)
(0.0178745 0.0224235 -0.0256213)
(0.0191297 0.0265575 -0.0187623)
(0.0206414 0.0173222 -0.00745354)
(0.021042 0.00748726 -0.001374)
(-0.00351855 0.0441582 -0.0152852)
(-0.0120731 0.0556704 -0.0280777)
(0.000284642 0.0289059 -0.0676767)
(0.00897633 0.0288827 -0.0600183)
(0.0142511 0.0338118 -0.0531502)
(0.0182037 0.0381359 -0.0485172)
(0.0216452 0.0413368 -0.0374198)
(0.0256205 0.045021 -0.0204566)
(0.0255258 0.0455622 -0.00563388)
(0.0242922 0.0508812 -0.00416372)
(0.00428952 0.0812966 -0.0157465)
(0.000601187 0.0668531 -0.0398626)
(-0.0294194 -0.0183993 -0.154138)
(-0.00267581 -0.0162023 -0.147673)
(0.0197045 -0.0114689 -0.141352)
(0.0368947 0.00296414 -0.127688)
(0.0460262 0.0226767 -0.107435)
(0.0495129 0.0401505 -0.0793591)
(0.0439582 0.0481108 -0.0449207)
(0.0376007 0.0529297 -0.0238721)
(0.0184907 0.0797707 -0.023248)
(0.0222463 0.081916 -0.0374949)
(-0.0975477 0.0959196 0.176999)
(-0.0766377 0.0878192 0.140187)
(-0.0500623 0.0627137 0.0149396)
(-0.00112654 0.0549948 -0.137992)
(0.056394 0.0629983 -0.179798)
(0.101274 0.0739208 -0.165271)
(0.115809 0.0852392 -0.115911)
(0.106632 0.0936669 -0.0518073)
(0.0591649 0.10473 0.00795729)
(0.0296436 0.129457 0.0492243)
(-0.151449 0.228932 -0.0174598)
(-0.0895539 0.239166 -0.00867492)
(-0.0418215 0.213882 -0.014527)
(-0.00803147 0.022935 0.0249909)
(0.0189211 0.0964784 -0.0439609)
(0.0597641 0.134971 -0.066572)
(0.00593146 0.192416 0.057785)
(0.00340343 0.210172 0.197803)
(-0.0243381 0.156201 0.222866)
(-0.00144221 0.132219 0.241861)
(-0.173411 -0.0301667 0.219611)
(-0.125819 -0.0752327 0.188998)
(-0.0780379 -0.109375 0.157554)
(-0.0550444 -0.133343 0.132912)
(-0.0537028 -0.0814495 0.0854836)
(-0.00983767 0.0713659 0.0521512)
(0.0829596 0.316395 0.0334202)
(0.103895 0.406864 0.0897944)
(0.04303 0.132579 0.15805)
(0.0203974 -0.031887 0.181224)
(-0.207776 -0.084868 0.16674)
(-0.200224 -0.107861 0.0889724)
(-0.165042 -0.145541 0.0437892)
(-0.11956 -0.17001 0.0217294)
(-0.0855003 -0.17452 -0.0288338)
(-0.0598857 -0.146583 -0.107903)
(-0.00869856 0.0475321 -0.106904)
(0.123034 0.305317 -0.0709777)
(0.144092 0.203277 -0.0426275)
(0.0973499 0.13862 -0.0749284)
(-0.229445 0.0441365 -0.0142601)
(-0.241458 -0.0358753 -0.0843252)
(-0.221966 -0.118359 -0.0999915)
(-0.177802 -0.142006 -0.0871474)
(-0.136155 -0.14079 -0.108876)
(-0.0759329 -0.145658 -0.186178)
(-0.00106382 -0.123463 -0.246449)
(0.103324 -0.0208625 -0.230489)
(0.121134 0.0446787 -0.200266)
(0.0740396 0.0849966 -0.199827)
(-0.286643 0.0793627 -0.102293)
(-0.336417 -0.0640584 -0.137401)
(-0.295369 -0.167004 -0.175188)
(-0.218293 -0.165481 -0.169517)
(-0.163297 -0.141698 -0.181006)
(-0.0954383 -0.16881 -0.240375)
(-0.0126573 -0.175815 -0.287799)
(0.13702 -0.0209713 -0.22961)
(0.0921026 0.0810333 -0.198688)
(0.0505315 0.144318 -0.237944)
(-0.359129 0.087196 -0.106898)
(-0.362993 -0.11117 -0.199843)
(-0.246241 -0.274719 -0.288041)
(-0.177718 -0.287353 -0.235626)
(-0.125136 -0.222634 -0.211522)
(-0.10001 -0.208816 -0.268183)
(-0.0640254 -0.19235 -0.304364)
(0.0265596 -0.0537992 -0.2502)
(0.0615256 0.110129 -0.148843)
(-0.0256998 0.118388 -0.166544)
(-0.301299 0.124732 -0.153076)
(-0.241605 -0.117146 -0.341747)
(-0.128063 -0.334739 -0.422773)
(-0.142351 -0.366053 -0.263337)
(-0.112273 -0.280095 -0.188325)
(-0.117634 -0.197509 -0.236612)
(-0.107454 -0.113596 -0.231613)
(-0.0469734 0.00266424 -0.151956)
(0.030464 0.134528 -0.0927139)
(-0.0306695 0.0781396 -0.0943752)
(-0.148242 0.160944 -0.246872)
(-0.0940882 -0.0718081 -0.486386)
(-0.0603842 -0.336974 -0.471002)
(-0.157166 -0.37589 -0.226699)
(-0.167069 -0.2937 -0.114844)
(-0.185547 -0.151515 -0.153227)
(-0.166783 -0.00320017 -0.0976868)
(-0.0538088 0.125383 0.0249746)
(-0.00608688 0.161236 0.00791621)
(-0.0304653 0.078883 -0.00588086)
(0.0175879 0.186461 -0.296337)
(0.0130944 -0.0204893 -0.509722)
(-0.0190672 -0.321844 -0.436694)
(-0.168022 -0.362286 -0.181445)
(-0.224191 -0.280651 -0.0315918)
(-0.253081 -0.0791249 -0.0245953)
(-0.217242 0.101512 0.0580621)
(-0.0757319 0.23904 0.180909)
(-0.0628604 0.206689 0.116442)
(-0.0690805 0.0926108 0.0972962)
(0.131547 0.231438 -0.303614)
(0.108991 0.055344 -0.439959)
(0.0366242 -0.260755 -0.396768)
(-0.145776 -0.347821 -0.163699)
(-0.242584 -0.279986 0.0262498)
(-0.291582 -0.0211218 0.0995449)
(-0.273917 0.1821 0.16452)
(-0.158693 0.296003 0.2462)
(-0.121325 0.248819 0.184967)
(-0.0771946 0.0850012 0.113627)
(0.191771 0.287463 -0.285571)
(0.162899 0.118619 -0.354027)
(0.0812235 -0.181843 -0.333748)
(-0.102848 -0.324904 -0.165736)
(-0.26232 -0.292445 0.0395505)
(-0.391494 -0.00963683 0.132427)
(-0.375682 0.216121 0.174926)
(-0.274727 0.308404 0.207448)
(-0.158382 0.239478 0.13194)
(-0.0428799 0.048415 0.0113372)
(-0.00311639 0.00086654 -0.00801818)
(-0.00139013 0.000252613 -0.00877105)
(0.000636519 0.000179538 -0.00952533)
(0.00200648 0.000289197 -0.00955689)
(0.00270293 0.000512505 -0.00870632)
(0.00259841 0.000489591 -0.00720074)
(0.00227623 0.000105372 -0.00499117)
(0.00394496 -0.000854165 -0.00172446)
(0.00588266 0.00061869 -0.00107864)
(0.00321192 0.00277833 -0.00659309)
(-0.00283081 -0.00168494 -0.00765652)
(-0.00135811 -0.00287926 -0.00964606)
(0.00209681 -0.00237329 -0.0115277)
(0.00469983 -0.00116435 -0.0122668)
(0.00591187 0.000324909 -0.0117458)
(0.00551165 0.00140235 -0.0100764)
(0.00407764 0.00123443 -0.00665499)
(0.00649902 -0.00070553 0.000116243)
(0.00974981 0.00350424 -0.000987035)
(0.00480018 0.0089537 -0.0107372)
(-0.00227341 -0.00410404 -0.0127004)
(-0.000600314 -0.00666326 -0.013758)
(0.00325015 -0.0059924 -0.01528)
(0.00590919 -0.00265712 -0.0157327)
(0.00675953 0.00142802 -0.0144228)
(0.00547697 0.00470263 -0.0110864)
(0.0022935 0.00599137 -0.00294288)
(0.00552094 0.00527435 0.0125246)
(0.0142674 0.0141803 0.00661965)
(0.00667377 0.0195434 -0.0128861)
(-0.00037557 -0.00399812 -0.0223924)
(0.00311374 -0.00797272 -0.0205573)
(0.00694129 -0.00830305 -0.0207073)
(0.00960441 -0.00332494 -0.02083)
(0.0101946 0.0032308 -0.018964)
(0.00826014 0.00934299 -0.0139754)
(0.00460601 0.0145616 -0.00310358)
(0.00719583 0.0144386 0.0163485)
(0.0120001 0.028595 0.00686865)
(0.00566427 0.0305912 -0.0172018)
(0.00144481 -0.00280803 -0.0366004)
(0.007925 -0.00855216 -0.0314901)
(0.0115547 -0.0102931 -0.0292006)
(0.0140366 -0.00398376 -0.0298)
(0.0151861 0.00555412 -0.0281221)
(0.0149151 0.0147686 -0.0218114)
(0.0124797 0.0220183 -0.01071)
(0.0128529 0.0263926 0.00119689)
(0.0086713 0.0459295 -0.00917747)
(-0.00252852 0.0434459 -0.0287509)
(0.00432582 -0.00300219 -0.0529115)
(0.012459 -0.0109594 -0.0436058)
(0.0146921 -0.0118656 -0.0382835)
(0.0167903 -0.00575275 -0.0365712)
(0.0200371 0.00333554 -0.0323643)
(0.0226972 0.0134354 -0.0251808)
(0.020807 0.0238327 -0.015719)
(0.0216286 0.0350349 -0.013993)
(0.00599562 0.0606901 -0.0241705)
(-0.00624127 0.0450801 -0.0391996)
(0.00196437 -0.00879214 -0.0771008)
(0.0137742 -0.0106685 -0.0665896)
(0.0193952 -0.00414783 -0.06006)
(0.0229743 0.00415086 -0.0565024)
(0.0259171 0.0130296 -0.0480467)
(0.0312786 0.026666 -0.0333804)
(0.0263885 0.044728 -0.0175265)
(0.0310944 0.0628024 -0.0157002)
(0.0159688 0.0914456 -0.0232123)
(0.0188105 0.0603664 -0.0520129)
(-0.0332648 -0.065382 -0.17476)
(-0.000154467 -0.0575003 -0.166676)
(0.0263103 -0.0462245 -0.157616)