/*--------------------------------*- C++ -*----------------------------------*\
| =========                 |                                                 |
| \\      /  F ield         | OpenFOAM: The Open Source CFD Toolbox           |
|  \\    /   O peration     | Version:  2312                                  |
|   \\  /    A nd           | Website:  www.openfoam.com                      |
|    \\/     M anipulation  |                                                 |
\*---------------------------------------------------------------------------*/
FoamFile
{
    version     2.0;
    format      ascii;
    arch        "LSB;label=32;scalar=64";
    class       volScalarField;
    location    "0.22";
    object      alpha.water;
}
// * * * * * * * * * * * * * * * * * * * * * * * * * * * * * * * * * * * * * //

dimensions      [0 0 0 0 0 0 0];

internalField   nonuniform List<scalar> 
8000
(
1
1
1
1
1
1
1
1
1
1
1
1
1
1
1
1
1
1
1
1
1
1
1
1
1
1
1
1
1
1
1
1
1
1
1
1
1
1
1
1
1
1
1
1
1
1
1
1
1
1
1
1
1
1
1
1
1
1
1
1
1
1
1
1
0.999999
0.999999
0.999999
1
1
1
0.999984
0.999983
0.999981
0.999977
0.999974
0.999975
0.99998
0.999985
0.999988
0.99999
0.825906
0.836991
0.856105
0.881335
0.912037
0.944553
0.971314
0.987904
0.995774
0.998646
0.161468
0.194576
0.269813
0.364529
0.45941
0.538801
0.598356
0.639793
0.671202
0.693948
0.000153512
0.00233173
0.0210883
0.0579969
0.109849
0.166386
0.203662
0.226858
0.267053
0.308272
1.82041e-05
5.75781e-05
9.24562e-06
8.81228e-07
6.79758e-07
3.66165e-07
2.04413e-07
1.19502e-07
9.92388e-08
9.29417e-08
1.75195e-06
4.87055e-06
1.5527e-05
1.88924e-05
9.42107e-06
8.2667e-06
8.80943e-06
1.0659e-07
1.04594e-07
9.87358e-08
1.15492e-07
2.9746e-07
1.22006e-06
1.97918e-06
1.36315e-06
3.25025e-06
9.07001e-06
9.64745e-06
5.37535e-06
4.33617e-06
4.72753e-09
1.26048e-08
1.30412e-08
7.79681e-09
3.36408e-09
7.51367e-08
2.00531e-06
6.83604e-06
4.23617e-06
4.10028e-06
1.21121e-10
3.72752e-10
2.99359e-10
1.27777e-10
3.97704e-11
1.62736e-11
4.54275e-10
4.71402e-07
7.86729e-07
5.15452e-07
3.81819e-12
1.16467e-11
8.77128e-12
3.76996e-12
1.4152e-12
6.26278e-13
3.55522e-12
9.57828e-11
3.06826e-10
1.29593e-09
8.63834e-13
5.59166e-13
4.06011e-13
2.66145e-13
3.01668e-13
4.4601e-13
1.07042e-13
7.7921e-13
2.39852e-12
2.77724e-12
1.4067e-13
3.03698e-13
2.43898e-13
2.08584e-13
2.83717e-13
3.87421e-13
6.49364e-14
1.09445e-13
4.89693e-14
9.23642e-14
3.86463e-15
1.97448e-14
2.005e-14
2.80176e-14
4.09957e-14
5.40748e-14
4.80443e-14
1.11628e-13
2.14446e-14
6.19139e-14
1
1
1
1
1
1
1
1
1
1
1
1
1
1
1
1
1
1
1
1
1
1
1
1
1
1
1
1
1
1
1
1
1
1
1
1
1
1
1
1
1
1
1
1
1
1
1
1
1
1
1
1
1
1
1
1
1
1
1
1
1
1
1
0.999999
0.999999
0.999999
0.999999
0.999999
0.999999
0.999999
0.999983
0.999982
0.999979
0.999976
0.999976
0.99998
0.999983
0.99998
0.999978
0.999981
0.837026
0.850564
0.871541
0.901463
0.938616
0.96888
0.983886
0.985543
0.987655
0.992888
0.194418
0.240474
0.310469
0.388226
0.449166
0.459944
0.437359
0.424678
0.43804
0.475476
0.00226817
0.015313
0.0209941
0.0148056
0.00350024
8.28844e-07
9.92325e-07
4.20461e-07
1.9348e-07
1.31075e-07
5.72622e-05
9.24631e-06
7.78309e-07
6.88069e-07
7.49052e-07
6.80707e-07
3.55232e-07
1.9348e-07
1.18522e-07
9.82593e-08
4.8424e-06
4.10309e-06
2.41225e-05
7.41724e-05
9.17921e-05
6.62411e-05
1.90197e-05
2.22189e-07
1.0659e-07
1.0076e-07
2.9628e-07
4.13504e-07
5.09838e-06
1.48766e-05
2.5085e-05
3.56333e-05
3.90724e-05
3.90724e-05
3.38931e-05
1.81076e-05
1.25755e-08
1.44931e-08
6.09522e-09
5.21256e-09
2.80489e-09
4.6773e-07
7.96345e-06
2.48885e-05
4.73049e-05
4.73502e-05
3.72134e-10
5.80132e-10
2.05102e-10
1.33419e-10
5.69891e-11
6.02063e-11
3.74578e-10
9.22826e-07
1.14732e-05
2.20334e-05
1.16387e-11
2.8169e-11
8.83675e-12
5.28257e-12
2.6315e-12
2.05417e-12
6.61912e-12
9.73297e-11
1.4865e-09
3.61528e-09
5.6093e-13
1.60845e-12
8.98679e-13
6.4874e-13
7.24066e-13
9.09117e-13
1.34214e-12
1.73002e-12
2.13587e-11
5.13862e-11
3.05554e-13
7.5598e-13
5.77343e-13
5.3423e-13
6.67835e-13
9.62512e-13
1.15836e-12
3.54243e-13
7.35244e-13
1.54651e-12
1.99032e-14
8.35922e-14
9.90854e-14
1.18348e-13
1.66622e-13
2.35029e-13
2.50352e-13
3.0266e-13
7.49427e-14
9.63263e-14
1
1
1
1
1
1
1
1
1
1
1
1
1
1
1
1
1
1
1
1
1
1
1
1
1
1
1
1
1
1
1
1
1
1
1
1
1
1
1
1
1
1
1
1
1
1
1
1
1
1
1
1
1
1
1
1
1
1
1
1
1
1
0.999999
0.999999
0.999999
0.999999
0.999998
0.999996
0.999996
0.999997
0.999981
0.999979
0.999975
0.999975
0.999973
0.999959
0.999925
0.999893
0.999886
0.999911
0.856372
0.871702
0.899327
0.936621
0.95815
0.94841
0.909349
0.87805
0.877545
0.904282
0.269752
0.310458
0.391794
0.416883
0.35843
0.252011
0.168071
0.126863
0.125017
0.158285
0.0209696
0.0211128
0.00719482
4.467e-07
4.48853e-07
5.15768e-07
6.46529e-07
4.5748e-07
3.44736e-07
2.38842e-07
9.80388e-06
7.78309e-07
6.73626e-07
5.81875e-07
5.15768e-07
8.28837e-07
9.92241e-07
4.20447e-07
1.93479e-07
1.2207e-07
1.51826e-05
2.37681e-05
7.13705e-06
4.61538e-06
1.89708e-06
1.52526e-06
1.83837e-06
3.60621e-07
1.81329e-07
7.03273e-08
1.09881e-06
4.94499e-06
2.34918e-06
2.69764e-06
3.97795e-06
4.17435e-06
2.6714e-06
2.5182e-06
1.45412e-06
1.18837e-06
1.24185e-08
5.89885e-09
1.27616e-09
2.62515e-08
8.44329e-09
7.53145e-08
1.60584e-06
5.78166e-06
1.15437e-05
1.23509e-05
2.82784e-10
1.97629e-10
3.94547e-11
1.30454e-11
6.74773e-12
8.16258e-12
5.13259e-10
2.14837e-07
3.47116e-06
8.34068e-06
8.39581e-12
8.49661e-12
3.27954e-12
2.22705e-12
4.07062e-12
3.50037e-12
5.24727e-12
8.03052e-12
2.48899e-08
1.40754e-07
3.99716e-13
8.98307e-13
2.54395e-12
2.00091e-12
2.63358e-12
3.64387e-12
6.29625e-12
2.81278e-12
3.71564e-12
9.1779e-12
2.46556e-13
5.7313e-13
6.21485e-13
6.3579e-13
7.22483e-13
1.25126e-12
2.48748e-12
2.73665e-12
1.77707e-12
1.42315e-12
2.01227e-14
9.82008e-14
7.43402e-14
8.27401e-14
9.27095e-14
1.45831e-13
3.27635e-13
7.96864e-13
1.78804e-12
1.45662e-12
1
1
1
1
1
1
1
1
1
1
1
1
1
1
1
1
1
1
1
1
1
1
1
1
1
1
1
1
1
1
1
1
1
1
1
1
1
1
1
1
1
1
1
1
1
1
1
1
1
1
1
1
1
1
1
1
1
0.999999
0.999999
1
1
0.999999
0.999999
0.999999
0.999998
0.999995
0.99999
0.999985
0.999984
0.999987
0.999977
0.999976
0.999975
0.999969
0.999938
0.999859
0.999747
0.999516
0.998492
0.998369
0.882004
0.901904
0.936815
0.953326
0.920767
0.834556
0.729296
0.632173
0.583325
0.587891
0.365242
0.388353
0.416838
0.328968
0.185878
0.0794137
0.0234739
3.49481e-06
2.37147e-06
3.46063e-06
0.0589908
0.0151535
4.36226e-07
4.29099e-07
5.05891e-07
8.28844e-07
1.17088e-06
6.46527e-07
4.5748e-07
3.83192e-07
8.71494e-07
6.73626e-07
5.66272e-07
3.21261e-07
2.84159e-06
5.26796e-05
7.82855e-05
2.91417e-06
1.22513e-06
1.88256e-07
1.80618e-05
7.42628e-05
4.86354e-06
1.19156e-07
2.76211e-08
1.55545e-05
5.48716e-05
3.97601e-05
1.19799e-06
6.93945e-09
1.84016e-06
1.43835e-05
2.65292e-06
1.31275e-09
1.38591e-10
2.01968e-08
4.0832e-07
2.0684e-06
8.03141e-08
3.07717e-09
6.75825e-09
4.74629e-09
2.29951e-08
1.40653e-09
8.01477e-11
1.38591e-10
1.09618e-08
4.24841e-09
5.50357e-09
4.27962e-09
1.07608e-10
1.19541e-10
1.1856e-11
7.24812e-12
5.04179e-12
7.32056e-12
2.91442e-11
3.05956e-09
4.5436e-10
1.02621e-09
3.33016e-12
4.77582e-12
2.14872e-12
4.34134e-12
4.99399e-12
4.235e-12
4.36843e-12
3.26979e-11
1.74044e-09
2.07185e-08
2.52557e-13
6.24563e-13
1.94653e-12
1.92958e-12
2.52775e-12
3.16489e-12
3.99819e-12
7.86465e-12
2.65689e-11
3.17034e-10
2.0384e-13
5.22673e-13
6.29891e-13
5.09173e-13
6.27181e-13
9.68815e-13
2.22738e-12
5.6689e-12
5.25457e-12
5.46931e-13
2.80908e-14
1.17055e-13
8.3106e-14
6.46513e-14
7.0442e-14
2.01594e-13
1.06025e-12
4.67442e-12
3.00932e-12
5.25641e-13
1
1
1
1
1
1
1
1
1
1
1
1
1
1
1
1
1
1
1
1
1
1
1
1
1
1
1
1
1
1
1
1
1
1
1
1
1
1
1
1
1
1
1
1
1
1
1
1
1
1
1
1
1
1
1
1
0.999999
0.999996
0.999993
0.999987
0.999999
0.999999
0.999999
0.999998
0.999994
0.999985
0.999965
0.99991
0.999805
0.99963
0.999974
0.999976
0.999973
0.999938
0.999828
0.999574
0.986001
0.939361
0.85908
0.669076
0.913211
0.939523
0.958619
0.920599
0.805184
0.637711
0.432973
0.27998
0.158592
0.0975254
0.461203
0.450342
0.35824
0.185137
0.0575286
1.64835e-05
2.14359e-05
5.04526e-05
6.83828e-05
6.37998e-05
0.114061
0.00381756
4.29099e-07
4.73124e-07
1.34694e-06
4.19529e-06
6.0747e-06
5.67099e-06
6.2388e-05
0.000136585
1.09498e-06
7.51738e-07
4.73124e-07
9.94593e-07
0.000198647
0.000600214
0.000630796
0.000385468
0.000235248
0.000112281
7.60038e-06
9.344e-05
1.88858e-06
3.08895e-08
6.52236e-05
0.000462182
0.000569385
0.000108422
4.58317e-07
2.11983e-06
1.12507e-06
2.32739e-05
3.85569e-06
8.98049e-11
2.30168e-07
5.23662e-05
0.000157154
1.64965e-05
1.97797e-08
2.15252e-09
2.37867e-09
2.03371e-09
3.47385e-09
1.19776e-11
8.98026e-11
1.80167e-08
1.23351e-07
2.17388e-07
9.16177e-09
1.66141e-09
2.63902e-11
4.00368e-11
6.62755e-12
5.04814e-12
5.52499e-12
2.88337e-10
1.93666e-09
6.13805e-10
1.85333e-11
1.77504e-10
1.15672e-12
1.97922e-12
6.49677e-12
5.01925e-12
3.25273e-12
7.0534e-12
2.78943e-11
1.06972e-11
4.32088e-12
1.51245e-11
2.908e-13
7.41163e-13
2.74582e-12
2.55523e-12
2.74939e-12
7.20791e-13
1.16972e-12
9.03677e-12
4.56555e-12
2.20614e-11
2.77396e-13
6.51603e-13
6.95719e-13
6.42879e-13
1.09677e-12
3.938e-13
1.12624e-13
8.36303e-12
4.52874e-12
2.30026e-11
4.16874e-14
1.65949e-13
9.13007e-14
7.81751e-14
4.3562e-13
9.29305e-14
9.63022e-14
5.88732e-12
2.0952e-11
5.96366e-11
1
1
1
1
1
1
1
1
1
1
1
1
1
1
1
1
1
1
1
1
1
1
1
1
1
1
1
1
1
1
1
1
1
1
1
1
1
1
1
0.999999
1
1
1
1
1
1
1
0.999997
0.999993
0.968787
1
1
1
1
1
0.999998
0.999992
0.999912
0.956604
0.739373
0.999999
0.999999
0.999999
0.999995
0.999985
0.99995
0.999807
0.971741
0.643145
0.412693
0.999975
0.999981
0.999959
0.999858
0.999526
0.975007
0.872024
0.499096
0.199971
0.168343
0.946193
0.97038
0.948642
0.832916
0.633331
0.374533
0.173966
0.016583
0.000335057
0.000989226
0.542354
0.462599
0.251341
0.0777708
1.31724e-05
3.87251e-05
9.1992e-05
0.000146638
0.000136402
0.000239944
0.173217
6.35405e-07
4.73124e-07
6.35406e-07
2.69808e-06
1.61096e-05
0.000147365
0.00141457
0.00236484
0.0023789
1.44902e-06
9.79739e-07
6.35406e-07
9.61654e-06
0.000466008
0.000647675
0.000719041
0.00072883
0.000586735
0.00126489
6.3661e-06
6.84236e-05
1.46084e-06
3.06494e-06
0.000347262
0.000627777
0.000647675
4.76762e-05
6.06453e-07
3.56926e-05
3.14773e-06
3.38053e-05
4.44851e-06
1.27588e-08
2.64376e-05
0.000333571
0.000397974
6.06453e-07
1.41072e-07
6.32179e-09
1.12379e-07
3.03804e-07
3.66853e-08
8.98124e-11
1.27588e-08
1.66276e-06
8.05014e-06
1.14158e-06
2.53559e-08
1.96474e-09
1.4961e-11
3.17329e-11
5.26189e-12
6.99121e-12
1.72172e-10
1.9457e-08
4.62566e-08
1.00037e-07
1.72853e-09
4.64557e-09
6.13717e-13
1.70505e-12
3.38975e-12
4.35742e-12
6.09057e-12
4.41488e-10
1.01152e-09
6.59676e-11
2.02083e-12
7.05198e-11
4.43286e-13
9.53633e-13
3.49912e-12
2.9701e-12
4.57293e-12
3.62156e-11
1.88929e-11
1.35896e-12
3.52324e-13
8.14526e-10
3.93284e-13
9.48608e-13
1.25258e-12
9.28091e-13
9.85941e-12
3.71703e-10
1.16972e-12
1.875e-13
2.76417e-13
1.2566e-09
5.64695e-14
2.42589e-13
1.48613e-13
1.78422e-13
8.12023e-12
3.72429e-10
1.12624e-13
1.42513e-13
1.875e-13
9.10668e-10
1
1
1
1
1
1
1
1
1
1
1
1
1
1
1
1
1
1
1
1
1
1
1
1
1
1
1
1
0.999999
0.999989
1
1
1
1
1
1
1
0.996054
0.956114
0.868142
1
1
1
1
1
1
0.999997
0.948025
0.71582
0.476035
1
1
1
1
0.999999
0.999992
0.999901
0.790477
0.303015
0.111881
0.999999
0.999999
0.999997
0.99999
0.999964
0.999807
0.960099
0.473919
0.0626727
0.0099093
0.999981
0.999983
0.999924
0.999743
0.98542
0.871231
0.438516
0.122976
0.0123257
0.000989377
0.973412
0.985097
0.908036
0.726283
0.429325
0.169614
0.00761687
0.00356895
0.0184502
0.000819122
0.606281
0.440098
0.16617
0.0211255
1.9794e-05
9.36455e-05
0.00157358
0.0110381
0.0157363
0.000514227
0.208343
0.000359734
5.27812e-07
6.39055e-07
2.38524e-06
6.82018e-05
0.00131503
0.00232819
0.00238563
0.00219184
8.39349e-07
1.51426e-06
6.39049e-07
2.38522e-06
0.000294136
0.000625941
0.000207773
6.5176e-05
5.69374e-05
0.00144358
8.4668e-06
1.90345e-05
7.87818e-07
1.61792e-06
0.00028116
0.000620187
0.000240388
3.91147e-05
3.16967e-05
5.5161e-05
1.03729e-05
3.90073e-05
3.71633e-06
2.90919e-08
6.87663e-05
0.000248921
0.000157282
1.66406e-06
8.37092e-06
4.65722e-05
2.62299e-06
7.8177e-06
1.64248e-06
2.16291e-10
1.64024e-07
5.74822e-07
5.58169e-06
3.90164e-07
1.50683e-07
4.40576e-06
6.46516e-10
2.94863e-10
1.26088e-11
9.12914e-12
2.16291e-10
1.77309e-08
3.83441e-08
5.80893e-09
8.67002e-08
4.49774e-07
5.02616e-12
5.3717e-12
5.37488e-12
3.20032e-12
4.37644e-12
3.76573e-10
1.07557e-08
3.00334e-09
7.28896e-06
1.22924e-06
1.37272e-13
1.3461e-12
7.37087e-12
3.17149e-12
7.58531e-13
7.75163e-12
1.62472e-07
8.4393e-09
2.2392e-06
1.38539e-10
6.80086e-14
1.19823e-12
2.74041e-12
1.34566e-12
2.32692e-12
5.58908e-13
1.74708e-07
2.02538e-08
3.51967e-13
1.10151e-11
5.26277e-14
2.64998e-13
3.48421e-13
2.86683e-13
1.8182e-12
1.68346e-13
1.30424e-07
3.15001e-08
2.76416e-13
9.34708e-12
1
1
1
1
1
1
1
1
0.947304
0.742476
1
1
1
1
1
1
1
0.996655
0.923028
0.825392
1
1
1
1
1
1
1
0.945488
0.824007
0.77154
1
1
1
1
1
1
0.99355
0.817636
0.549337
0.468254
1
1
1
1
1
0.999997
0.941975
0.555124
0.185991
0.100287
1
1
1
0.999999
0.999996
0.999907
0.789029
0.20165
0.0112155
0.00871596
1
0.999999
0.999996
0.999985
0.999907
0.964953
0.496645
0.029002
0.00250075
0.00314595
0.999986
0.999979
0.999889
0.999445
0.937079
0.49222
0.138846
0.00384058
0.00106191
0.00129084
0.990381
0.984493
0.875475
0.62731
0.274
0.0141709
0.00271343
0.000264215
0.000396646
0.000497922
0.650943
0.417414
0.124197
3.52207e-06
7.03895e-05
0.000171647
0.00964012
0.000133408
0.00014504
0.000140704
0.227992
0.00451901
5.34022e-07
5.36248e-07
2.6198e-05
0.00131748
0.00171815
9.17568e-05
6.58677e-05
3.52901e-05
1.14568e-07
3.21069e-07
3.69341e-07
1.29267e-06
0.00014122
0.000195177
6.1884e-05
7.90356e-05
6.09041e-05
1.70721e-05
9.66865e-08
1.4091e-07
6.43491e-07
2.27399e-06
1.61308e-06
2.11113e-06
2.93183e-05
0.000310335
0.000268189
4.14241e-05
8.6829e-06
3.90312e-05
3.02368e-06
3.08196e-07
6.16417e-06
4.42855e-07
2.87223e-05
0.000219013
4.28226e-05
8.3512e-05
6.26753e-06
2.92708e-05
6.6139e-06
4.88088e-09
1.54226e-07
1.35501e-06
2.75993e-06
1.31899e-05
1.62113e-07
5.61568e-05
6.61258e-07
1.64207e-06
3.97638e-07
4.14377e-09
5.79347e-10
6.70314e-08
3.12298e-09
4.45636e-06
6.29944e-05
1.08561e-06
1.45603e-10
1.73531e-10
4.32212e-10
2.59834e-11
2.50636e-12
2.28006e-11
1.16139e-09
3.26907e-06
0.000288627
4.63309e-05
1.26487e-12
3.01074e-12
3.56119e-12
4.20877e-12
3.71689e-13
5.58908e-13
1.98718e-07
5.20457e-08
0.000289135
5.33359e-05
1.348e-13
4.57217e-13
3.4397e-12
2.32249e-12
3.3222e-13
1.77637e-13
2.85374e-07
9.50056e-10
0.000280954
2.41413e-05
1.2281e-13
3.64761e-13
9.41066e-13
7.77147e-13
2.41152e-13
1.57002e-13
2.84883e-07
9.74987e-10
6.26663e-05
6.73904e-06
1
1
1
1
1
1
1
0.939323
0.467745
0.11793
1
1
1
1
1
1
1
0.913096
0.464783
0.145379
1
1
1
1
1
1
1
0.805824
0.358213
0.131061
1
1
1
1
1
1
0.945941
0.533085
0.168591
0.0827197
1
1
1
1
1
0.999992
0.715003
0.182522
0.0441247
0.0761779
1
1
1
0.999999
0.999992
0.960224
0.322647
0.0136014
0.0101887
0.0334503
1
0.999999
0.999995
0.999983
0.999785
0.638794
0.0734353
0.00408823
0.00480435
0.0067928
0.99999
0.999976
0.99988
0.997983
0.843831
0.186435
0.0164506
0.0020544
0.0021885
0.00296606
0.998737
0.98588
0.871786
0.571285
0.144733
0.00087252
0.0226672
0.00062094
0.000825942
0.00109566
0.684049
0.428964
0.119036
4.75936e-06
8.09616e-05
0.000680089
0.0142298
0.000222553
0.000274439
0.00027222
0.262138
0.00218684
3.69346e-07
4.01801e-07
8.96048e-05
0.0017799
0.000722347
0.000120394
9.19401e-05
2.34855e-05
9.66865e-08
1.04907e-07
1.56672e-07
1.48372e-07
0.000225536
0.000562581
9.60687e-05
8.86131e-05
0.000125346
6.20335e-06
9.66865e-08
9.66865e-08
1.02672e-07
1.83486e-08
1.12781e-07
2.41148e-06
7.67536e-05
0.000316755
0.000193716
6.13191e-06
5.65343e-06
3.24352e-05
1.46441e-06
7.66826e-09
2.87449e-09
2.40392e-08
4.88924e-05
0.000320323
4.88814e-05
1.91944e-05
4.72116e-06
4.23514e-05
1.26572e-05
3.28254e-09
1.72241e-09
1.02647e-09
6.04709e-05
0.000320433
1.28085e-05
6.55951e-06
8.84286e-07
1.59958e-05
5.1427e-06
3.86712e-10
6.2161e-11
2.85772e-11
5.87501e-05
0.000320424
4.78551e-05
4.49559e-06
1.02326e-09
2.69677e-09
6.40048e-08
5.71119e-09
2.53592e-11
2.41711e-12
7.84081e-06
0.000320426
8.65497e-05
1.24202e-05
4.34368e-12
4.25003e-11
7.26471e-12
9.81263e-11
1.26717e-10
1.12261e-12
2.41711e-12
8.42075e-05
8.06411e-05
2.95939e-05
8.39619e-14
1.42821e-12
1.99599e-12
1.71182e-11
1.11527e-10
4.6353e-13
1.79018e-08
5.70089e-10
2.91281e-05
4.27484e-05
2.67945e-14
8.65799e-14
2.00318e-12
1.51067e-11
6.49767e-11
1.68346e-13
2.51444e-08
5.55384e-10
9.76886e-06
4.28559e-05
1
1
1
1
1
1
1
0.693956
0.101372
0.069595
1
1
1
1
1
1
1
0.768568
0.114354
0.0571208
1
1
1
1
1
1
0.999991
0.719458
0.0996127
0.0440281
1
1
1
1
1
0.999999
0.85937
0.442726
0.0624254
0.0353664
1
1
1
1
1
0.969681
0.476376
0.108611
0.0683591
0.0315703
1
1
1
1
0.999986
0.751871
0.122427
0.0122305
0.0420026
0.0280152
1
0.999999
0.999996
0.999986
0.999613
0.425813
0.00955103
0.00552292
0.00781565
0.00876931
0.99999
0.999979
0.999904
0.99798
0.659049
0.167138
0.00162392
0.00221134
0.00364856
0.00394577
0.999633
0.991128
0.896279
0.575438
0.0880188
0.00736845
0.00111936
0.000892332
0.00147986
0.00165488
0.708307
0.464643
0.147787
8.1575e-06
7.58796e-05
0.000183544
0.000277974
0.000300424
0.000428189
0.000447828
0.286843
0.00596211
3.60826e-07
6.34802e-07
0.000181229
0.00156037
0.000809606
9.81114e-05
8.24642e-05
4.34485e-05
1.00414e-07
1.61048e-07
1.85999e-07
4.8594e-07
0.000237921
0.00138739
0.00100562
4.81168e-05
2.57693e-05
2.78746e-06
9.63004e-08
1.00414e-07
1.23672e-07
7.8258e-09
2.7272e-06
0.000118862
0.000248146
8.67216e-05
5.41204e-05
2.13419e-06
4.29666e-06
1.24311e-05
1.08149e-06
4.84662e-09
2.68079e-09
1.29711e-07
2.60423e-05
6.60205e-05
5.73587e-05
6.72727e-06
4.47151e-06
4.23647e-05
1.04016e-05
2.71058e-09
1.28446e-09
8.37226e-08
1.43521e-05
4.62363e-05
1.77196e-05
2.03386e-05
5.76084e-07
2.55471e-05
9.8966e-06
1.37402e-09
5.7996e-10
3.11357e-11
8.55269e-06
9.94751e-05
3.12775e-05
3.52314e-05
3.1414e-09
1.43734e-07
3.23283e-07
5.43592e-08
3.11357e-11
4.37258e-12
3.11357e-11
0.000116281
3.84581e-05
3.6932e-05
5.18982e-12
1.09683e-10
2.5733e-11
1.30537e-09
1.97059e-10
2.41711e-12
4.37258e-12
3.89154e-05
2.33019e-05
3.43685e-05
1.47011e-13
2.05103e-12
1.82334e-12
2.26987e-12
1.49626e-10
3.73777e-11
2.18649e-11
8.92464e-11
1.63367e-05
2.79805e-05
8.38483e-14
1.54323e-13
1.48938e-12
3.50064e-12
1.51871e-10
7.2106e-11
5.53216e-11
1.59483e-10
3.33601e-05
1.59278e-05
1
1
1
1
1
1
1
0.670441
0.0916264
0.0715835
1
1
1
1
1
1
1
0.764983
0.109506
0.0603589
1
1
1
1
1
1
1
0.716908
0.0970868
0.0470567
1
1
1
1
1
0.999999
0.85547
0.438964
0.0661747
0.0398111
1
1
1
1
1
0.971203
0.472294
0.0935762
0.070797
0.0388245
1
1
1
1
0.999987
0.751715
0.113476
0.00903707
0.0345292
0.027625
1
0.999999
0.999996
0.999987
0.999626
0.413278
0.00750646
0.00385573
0.00630861
0.00716842
0.99999
0.999979
0.999905
0.998296
0.670191
0.156303
0.00174425
0.00137077
0.00273156
0.0033949
0.999653
0.991385
0.89859
0.582834
0.0898233
0.0079681
0.00142769
0.000559339
0.00101799
0.00124517
0.710302
0.466711
0.151235
7.85023e-06
5.34412e-05
0.000195237
0.000332282
0.000167087
0.00023307
0.00025675
0.287987
0.00808071
2.99205e-07
5.70312e-07
0.000185986
0.0014793
0.000662814
4.80968e-05
3.07655e-05
8.41179e-06
1.00641e-07
1.70256e-07
1.84372e-07
4.19643e-07
0.000192753
0.00124404
0.000978935
2.21149e-05
8.30397e-06
1.23889e-06
9.59143e-08
1.00641e-07
1.28844e-07
6.75537e-09
8.39581e-07
0.00010096
0.000256056
4.72805e-05
8.75543e-05
2.34841e-06
4.46634e-06
1.40301e-05
1.09976e-06
3.23598e-09
2.54945e-09
2.60134e-08
7.98272e-08
3.94163e-06
9.01418e-05
1.02569e-05
4.61156e-06
4.23647e-05
1.1081e-05
1.33546e-09
1.00762e-09
8.85153e-10
2.60153e-08
3.2072e-05
9.01902e-05
1.1508e-05
5.7976e-07
2.60543e-05
1.01625e-05
1.21025e-09
4.66559e-10
5.66123e-10
8.69147e-10
9.21895e-05
9.14797e-05
1.02328e-05
2.80905e-09
1.73377e-07
3.11654e-07
5.18803e-08
1.77678e-11
1.53621e-10
1.34113e-10
0.00011272
4.77504e-05
9.36798e-06
4.92138e-12
1.07853e-10
2.35896e-11
1.15075e-09
6.93982e-11
3.99556e-10
1.11088e-10
7.6625e-05
3.36205e-05
1.22581e-05
1.43163e-13
2.23602e-12
1.76881e-12
7.71139e-13
5.10695e-11
5.29641e-10
7.29139e-11
1.35074e-05
2.73547e-05
1.30417e-05
8.47619e-14
1.50038e-13
1.75101e-12
6.87488e-13
2.55928e-11
1.01516e-09
5.98386e-11
1.63137e-06
2.23833e-05
9.55389e-06
1
1
1
1
1
1
1
0.936533
0.470164
0.131716
1
1
1
1
1
1
1
0.913758
0.475011
0.173902
1
1
1
1
1
1
1
0.806673
0.37227
0.151171
1
1
1
1
1
1
0.942991
0.531124
0.17435
0.0950841
1
1
1
1
1
0.999992
0.707113
0.173737
0.0370281
0.0746116
1
1
1
0.999999
0.999992
0.961189
0.308813
0.00958649
0.00721754
0.0206831
1
0.999999
0.999996
0.999984
0.999784
0.635041
0.0698411
0.00205589
0.00279639
0.00483978
0.999989
0.999977
0.999885
0.998484
0.843823
0.180747
0.013665
0.000553591
0.00109244
0.00192856
0.997948
0.987153
0.879599
0.584045
0.140843
0.000716142
0.0226584
0.00026204
0.000372717
0.000571278
0.685726
0.437349
0.129045
3.05531e-06
5.54313e-05
0.000532622
0.0131639
7.29685e-05
8.28195e-05
9.40312e-05
0.266193
0.00438277
3.04485e-07
2.6394e-07
4.86418e-05
0.00114374
0.00032455
2.2101e-05
1.33939e-05
1.24704e-05
9.59143e-08
1.02324e-07
1.75127e-07
5.91955e-08
9.96701e-05
0.000349694
6.09648e-05
1.09953e-05
1.20079e-05
1.03936e-05
9.59147e-08
9.59147e-08
1.26921e-07
4.53601e-09
1.25624e-07
1.05164e-05
1.46894e-05
8.27238e-06
2.96307e-05
1.07427e-05
5.61456e-06
3.72935e-05
2.10534e-06
2.66009e-09
6.07537e-10
1.4767e-08
1.2878e-07
7.30895e-06
7.67551e-05
3.43379e-06
4.55188e-06
4.23647e-05
1.46989e-05
6.07536e-10
4.2253e-10
3.70418e-09
1.72409e-06
7.60177e-05
8.9826e-05
3.0826e-06
7.21007e-07
1.69319e-05
5.44886e-06
2.47594e-10
2.98446e-11
6.41522e-12
4.85464e-06
8.5595e-05
7.60557e-05
2.64707e-06
7.21458e-10
2.32527e-09
5.19897e-08
4.92874e-09
8.51251e-13
1.85686e-12
3.27868e-07
7.8407e-05
5.39865e-05
2.60296e-06
2.92542e-12
3.40885e-11
6.08495e-12
6.72541e-11
1.55689e-11
1.56851e-12
2.07798e-12
6.3111e-05
6.1838e-05
2.57117e-06
5.92596e-14
1.10199e-12
2.35628e-12
3.32074e-12
1.20115e-11
3.56172e-13
3.04349e-12
6.73491e-05
7.5839e-05
3.28868e-06
2.30827e-14
6.26403e-14
2.38631e-12
2.04837e-12
1.19124e-11
1.76421e-13
1.86853e-12
6.91266e-05
7.5839e-05
3.37944e-06
1
1
1
1
1
1
1
1
0.951199
0.781111
1
1
1
1
1
1
1
0.995787
0.93328
0.867922
1
1
1
1
1
1
1
0.946693
0.83477
0.785541
1
1
1
1
1
1
0.992872
0.819749
0.547125
0.43712
1
1
1
1
1
0.999996
0.939835
0.545592
0.16477
0.0729668
1
1
1
0.999999
0.999996
0.999909
0.783208
0.185121
0.00823975
0.0068741
1
0.999999
0.999996
0.999986
0.999909
0.957759
0.486438
0.0251544
0.001805
0.00202676
0.999985
0.99998
0.999894
0.999588
0.937659
0.473643
0.113632
0.000203134
0.000454371
0.000683002
0.9892
0.986091
0.881645
0.639972
0.273096
0.00717358
0.000204336
8.5875e-05
0.000163804
0.000227695
0.649244
0.429692
0.131223
2.1035e-06
3.70042e-05
0.000107037
0.00635356
3.70829e-05
4.5635e-05
5.77376e-05
0.233952
1.37343e-07
2.71071e-07
3.72764e-07
2.10349e-06
0.000876477
0.00189305
1.67239e-05
1.71853e-05
1.62044e-05
1.03327e-07
1.09678e-07
1.37342e-07
3.1491e-07
2.74416e-05
6.79909e-05
1.38645e-05
1.20284e-05
1.34449e-05
1.09086e-05
9.59143e-08
2.94611e-07
7.14841e-07
4.26629e-07
2.86207e-06
3.01203e-06
3.67769e-06
9.16892e-06
2.09763e-05
5.38724e-05
5.04904e-06
4.05377e-05
4.0273e-06
4.5661e-09
7.11687e-07
2.67708e-06
7.17345e-07
1.08407e-05
3.4713e-05
6.97177e-05
3.3005e-06
2.92768e-05
6.9947e-06
3.50173e-09
1.48153e-09
3.0243e-07
8.25842e-07
4.05071e-06
3.06282e-06
6.96587e-05
5.40336e-07
1.34116e-06
2.84637e-07
3.44929e-09
1.05939e-11
3.27258e-10
1.77189e-07
4.36894e-07
1.19824e-09
4.73944e-05
7.52791e-11
4.27931e-11
8.4942e-10
2.84689e-11
2.18428e-13
3.11641e-10
2.88482e-07
1.19824e-09
3.27417e-10
4.00581e-06
5.39117e-13
1.05349e-12
2.35605e-12
2.74193e-12
2.5373e-14
3.9742e-14
1.4474e-06
5.05961e-10
2.43755e-11
5.65458e-06
6.56453e-14
3.35706e-13
2.8001e-12
1.40154e-12
2.22687e-14
1.21827e-10
1.54391e-06
1.78079e-09
6.16189e-06
1.49666e-05
1.08385e-13
3.00694e-13
5.99218e-13
3.30513e-13
2.13745e-14
2.22687e-14
1.54296e-06
1.27947e-07
7.18958e-05
2.38083e-05
1
1
1
1
1
1
1
1
1
1
1
1
1
1
1
1
1
1
1
1
1
1
1
1
1
1
1
1
0.999999
0.999968
1
1
1
1
1
1
1
0.997247
0.952788
0.844691
1
1
1
1
1
1
0.999996
0.948372
0.68889
0.440815
1
1
1
1
0.999999
0.999992
0.999882
0.779234
0.270826
0.0876849
0.999999
0.999999
0.999998
0.99999
0.999964
0.999801
0.949826
0.450879
0.0590547
0.00814659
0.99998
0.999984
0.999927
0.99975
0.985041
0.86333
0.414418
0.112444
0.0163146
0.000587622
0.972072
0.985453
0.911993
0.731678
0.427508
0.157159
0.000899953
0.0024755
0.018559
0.000476516
0.602177
0.443838
0.172585
0.0230346
9.80663e-06
7.09425e-05
0.00013171
0.00857884
0.0170312
0.00190487
0.210988
1.78395e-07
2.84599e-07
5.52481e-07
1.30306e-06
3.1077e-05
0.000953607
0.00235577
0.00286364
0.00379517
1.10622e-07
1.32835e-07
1.78396e-07
5.88685e-07
3.78649e-05
0.000289355
0.000291962
1.67242e-05
1.35421e-05
0.00143005
1.86392e-05
2.73044e-05
5.4942e-07
1.78913e-07
6.87322e-05
0.000256429
0.000120994
9.61228e-06
4.16316e-06
1.15703e-05
1.39326e-05
4.05156e-05
4.93046e-06
4.12608e-09
8.48275e-06
5.56313e-05
2.81596e-05
8.82144e-06
8.63031e-07
1.22546e-05
1.07513e-06
5.12962e-06
1.09629e-06
1.03122e-11
4.89051e-08
7.15165e-08
3.09758e-07
1.52998e-06
1.43053e-08
4.56204e-06
2.33203e-10
4.27918e-11
3.4863e-12
2.26477e-12
1.057e-11
1.58249e-09
7.17325e-08
6.57768e-09
3.27417e-10
6.29527e-08
1.28305e-12
1.29214e-12
3.04537e-12
2.21167e-12
3.96735e-13
1.42503e-10
7.87413e-08
3.37253e-10
2.43755e-11
2.6726e-11
5.8151e-14
8.12507e-13
6.36861e-12
2.21896e-12
3.9742e-14
3.53073e-09
3.83335e-08
4.96042e-10
1.07112e-11
2.28947e-11
5.12622e-14
1.13431e-12
2.44247e-12
9.74849e-13
2.5373e-14
6.1606e-09
9.06952e-08
2.39929e-09
3.32699e-12
1.07112e-11
4.10367e-14
2.58797e-13
2.62229e-13
1.23961e-13
2.22687e-14
6.42922e-09
4.28793e-08
1.20456e-13
1.80084e-12
3.33127e-12
1
1
1
1
1
1
1
1
1
1
1
1
1
1
1
1
1
1
1
1
1
1
1
1
1
1
1
1
1
1
1
1
1
1
1
1
1
1
1
0.999999
1
1
1
1
1
1
1
0.999997
0.999993
0.957347
1
1
1
1
1
0.999998
0.999992
0.999913
0.947258
0.701761
0.999999
0.999999
0.999999
0.999995
0.999985
0.999948
0.999804
0.971653
0.626971
0.377119
0.999975
0.999981
0.999961
0.999861
0.999481
0.973114
0.868366
0.495177
0.199891
0.15796
0.944936
0.969616
0.950162
0.835396
0.630017
0.366744
0.168962
0.0164337
0.000153514
0.000225393
0.536951
0.463279
0.256221
0.0799705
6.11207e-06
2.08632e-05
7.99769e-05
8.79976e-05
0.000109649
0.000185571
0.173154
9.34971e-06
3.62969e-07
5.26768e-07
1.11971e-06
6.11207e-06
2.58409e-05
0.000925618
0.00170973
0.00253465
1.3283e-07
1.78398e-07
4.40309e-07
8.19246e-07
0.000116716
0.000620593
0.000742409
0.000820213
0.000636978
0.000970169
6.76376e-06
8.21006e-05
4.42537e-07
7.11633e-08
3.30735e-05
0.000485404
0.000642422
0.000250181
2.32482e-06
3.17494e-05
3.15591e-06
2.86313e-05
4.80572e-06
8.98679e-10
2.11011e-07
6.99456e-05
0.000202422
2.27032e-05
3.60776e-07
3.35677e-08
7.15409e-08
6.79409e-08
4.42133e-12
8.41537e-12
2.11351e-09
7.40861e-08
7.22577e-07
2.57534e-07
3.2249e-07
4.5317e-09
4.1475e-12
1.97047e-12
3.08166e-12
3.25588e-12
1.11852e-11
1.72477e-09
2.58603e-08
1.02582e-08
1.43163e-08
7.22912e-10
3.86567e-13
7.70952e-13
3.06071e-12
4.18228e-12
2.91133e-12
3.08089e-11
5.76597e-10
2.4673e-10
1.75266e-11
1.69365e-09
3.67301e-13
7.76745e-13
2.90695e-12
2.49904e-12
6.50078e-12
2.4513e-10
1.0314e-11
6.51923e-12
5.10886e-12
2.07311e-09
3.42402e-13
7.4489e-13
1.05736e-12
6.31712e-13
7.60874e-12
2.97618e-10
5.51928e-13
1.20456e-13
3.29064e-11
2.24274e-09
4.9403e-14
2.03713e-13
1.17456e-13
3.685e-14
7.27508e-12
2.79704e-10
3.4474e-14
4.64909e-14
4.94858e-11
2.31408e-09
1
1
1
1
1
1
1
1
1
1
1
1
1
1
1
1
1
1
1
1
1
1
1
1
1
1
1
1
1
1
1
1
1
1
1
1
1
1
1
1
1
1
1
1
1
1
1
1
1
1
1
1
1
1
1
1
0.999999
0.999997
0.999993
0.999988
0.999999
0.999999
0.999999
0.999998
0.999994
0.999985
0.999965
0.999913
0.999804
0.993218
0.999974
0.999976
0.999974
0.99994
0.99983
0.99959
0.986467
0.941142
0.861669
0.685255
0.912019
0.93794
0.958196
0.92202
0.806853
0.639856
0.436366
0.284153
0.16245
0.105318
0.455178
0.445888
0.35989
0.188225
0.0586174
1.5432e-05
1.67535e-05
2.3724e-05
2.54108e-05
2.96955e-05
0.11139
0.00459499
2.81202e-07
2.98854e-07
5.26768e-07
3.03167e-06
7.89056e-06
4.62699e-06
7.9584e-06
4.58194e-06
6.43915e-07
4.40309e-07
3.62969e-07
4.70847e-07
4.29935e-05
0.000423563
0.000606719
0.000448424
0.000304011
0.00010768
7.65619e-06
9.83147e-05
2.80311e-06
3.71196e-07
3.75998e-07
0.000167695
0.000480658
0.000385199
8.99813e-06
4.88871e-06
9.08885e-07
1.91958e-05
3.50244e-06
2.28414e-11
1.95675e-09
8.76978e-06
7.72825e-05
4.79456e-05
4.49226e-06
5.56934e-09
1.09134e-09
5.72798e-10
1.83544e-11
3.45003e-12
2.52398e-10
3.50739e-08
6.62181e-08
5.76604e-08
1.74069e-07
4.43728e-09
8.42725e-12
9.61108e-12
3.29495e-12
3.39486e-12
3.00567e-12
2.22994e-11
1.269e-09
1.3584e-09
1.19987e-09
5.94752e-11
3.00884e-13
6.16511e-13
6.12794e-12
4.17973e-12
2.69962e-12
8.97314e-13
2.18023e-11
2.54955e-11
3.61729e-12
1.7249e-12
2.37178e-13
5.81133e-13
2.44122e-12
2.23758e-12
1.96942e-12
3.30344e-14
5.51927e-13
2.53573e-12
3.86348e-12
1.39909e-12
2.1115e-13
5.09459e-13
5.58881e-13
5.4598e-13
7.49779e-13
1.91669e-14
3.15058e-14
2.0579e-12
2.50742e-12
8.91747e-13
3.22423e-14
1.31529e-13
7.00146e-14
5.51197e-14
2.08496e-13
1.85907e-14
2.92e-14
1.12125e-12
1.62279e-12
8.05036e-12
1
1
1
1
1
1
1
1
1
1
1
1
1
1
1
1
1
1
1
1
1
1
1
1
1
1
1
1
1
1
1
1
1
1
1
1
1
1
1
1
1
1
1
1
1
1
1
1
1
1
1
1
1
1
1
1
1
1
0.999999
1
1
0.999999
0.999999
0.999999
0.999998
0.999995
0.999991
0.999986
0.999985
0.999988
0.999977
0.999976
0.999975
0.99997
0.99994
0.999863
0.999753
0.999644
0.99888
0.998857
0.880853
0.900382
0.935317
0.95309
0.92301
0.840049
0.737676
0.643573
0.594103
0.598983
0.358576
0.382526
0.414104
0.331384
0.190608
0.0838871
0.0275475
4.62699e-06
1.9648e-06
1.02713e-06
0.0555136
0.0156596
2.83878e-07
2.72011e-07
2.98854e-07
7.07557e-07
3.21246e-06
1.84438e-06
3.90038e-07
2.11817e-07
8.75097e-07
6.65736e-07
6.01393e-07
2.37118e-07
3.1615e-06
1.96106e-05
7.95127e-05
1.57686e-05
1.52283e-06
5.09276e-07
1.63322e-05
6.9651e-05
5.22111e-06
7.03153e-08
6.41517e-07