/*--------------------------------*- C++ -*----------------------------------*\
| =========                 |                                                 |
| \\      /  F ield         | OpenFOAM: The Open Source CFD Toolbox           |
|  \\    /   O peration     | Version:  2312                                  |
|   \\  /    A nd           | Website:  www.openfoam.com                      |
|    \\/     M anipulation  |                                                 |
\*---------------------------------------------------------------------------*/
FoamFile
{
    version     2.0;
    format      ascii;
    arch        "LSB;label=32;scalar=64";
    class       surfaceScalarField;
    location    "0.32";
    object      phi;
}
// * * * * * * * * * * * * * * * * * * * * * * * * * * * * * * * * * * * * * //

dimensions      [0 3 -1 0 0 0 0];

oriented        oriented;

internalField   nonuniform List<scalar> 
22600
(
-1.39445e-07
9.21452e-08
5.73701e-08
-2.78649e-07
6.91344e-08
7.00695e-08
-3.93834e-07
2.73743e-08
8.78105e-08
-4.71267e-07
-2.79806e-08
1.05414e-07
-5.02495e-07
-8.88442e-08
1.20072e-07
-4.84016e-07
-1.49873e-07
1.31394e-07
-4.16114e-07
-2.07754e-07
1.39852e-07
-3.01612e-07
-2.61776e-07
1.47274e-07
-1.45723e-07
-3.12814e-07
1.56924e-07
-2.91609e-07
1.45886e-07
-1.34718e-07
2.01841e-07
3.70651e-08
-2.72276e-07
1.55964e-07
5.0728e-08
-3.88959e-07
7.3117e-08
7.09405e-08
-4.68964e-07
-4.0068e-08
9.20925e-08
-5.0507e-07
-1.6319e-07
1.10452e-07
-4.91645e-07
-2.8898e-07
1.25682e-07
-4.26928e-07
-4.10123e-07
1.37652e-07
-3.12397e-07
-5.24154e-07
1.47846e-07
-1.52689e-07
-6.3252e-07
1.59998e-07
-5.97044e-07
1.52746e-07
-1.75766e-07
3.21817e-07
6.84667e-08
-3.48729e-07
2.48184e-07
8.07432e-08
-4.91919e-07
1.13241e-07
1.03066e-07
-5.90828e-07
-6.59411e-08
1.24782e-07
-6.3419e-07
-2.63657e-07
1.43828e-07
-6.16364e-07
-4.66917e-07
1.60112e-07
-5.3637e-07
-6.64206e-07
1.74089e-07
-3.95561e-07
-8.52436e-07
1.87473e-07
-1.97109e-07
-1.03511e-06
2.04138e-07
-9.90655e-07
1.96502e-07
-2.28181e-07
4.05492e-07
1.59476e-07
-4.51366e-07
3.09317e-07
1.62051e-07
-6.33946e-07
1.24455e-07
1.71365e-07
-7.55397e-07
-1.27961e-07
1.83471e-07
-8.10863e-07
-4.01876e-07
1.93685e-07
-7.91799e-07
-6.91414e-07
2.05432e-07
-6.94835e-07
-9.80513e-07
2.19344e-07
-5.19656e-07
-1.26441e-06
2.36796e-07
-2.60273e-07
-1.55739e-06
2.62892e-07
-1.50964e-06
2.58711e-07
-2.8884e-07
2.32799e-07
4.74627e-07
-5.67443e-07
1.37785e-07
4.50135e-07
-7.90724e-07
-6.13843e-08
4.09121e-07
-9.60531e-07
-3.28254e-07
3.701e-07
-1.06118e-06
-6.38025e-07
3.368e-07
-1.06872e-06
-9.98043e-07
3.14164e-07
-9.70884e-07
-1.38681e-06
3.08466e-07
-7.63998e-07
-1.7977e-06
3.26402e-07
-4.04112e-07
-2.29897e-06
3.81699e-07
-2.3144e-06
4.00648e-07
-2.57353e-07
-1.87982e-07
6.35078e-07
-4.42532e-07
-2.96145e-07
6.19109e-07
-6.50553e-07
-4.79084e-07
6.25721e-07
-9.02213e-07
-7.15442e-07
6.38848e-07
-1.14046e-06
-1.0286e-06
6.28822e-07
-1.27447e-06
-1.42866e-06
5.64626e-07
-1.2605e-06
-1.90559e-06
5.04815e-07
-1.11514e-06
-2.44969e-06
5.06621e-07
-7.26977e-07
-3.31593e-06
6.28805e-07
-3.76204e-06
7.20666e-07
-2.16111e-07
1.23131e-07
5.8682e-08
-4.94095e-07
-1.45001e-07
1.2684e-07
-6.52856e-07
-6.36528e-07
3.16205e-07
-7.97062e-07
-1.12597e-06
5.54738e-07
-9.94841e-07
-1.58628e-06
7.55459e-07
-1.18121e-06
-2.02341e-06
7.81116e-07
-1.24585e-06
-2.54544e-06
7.04485e-07
-1.21296e-06
-3.17781e-06
6.95227e-07
-9.48447e-07
-4.45211e-06
8.7166e-07
-5.66008e-06
9.49595e-07
3.35462e-07
2.62909e-06
-1.33204e-06
-7.77105e-07
1.90167e-06
-9.34107e-07
-1.7308e-06
8.50222e-07
-5.33055e-07
-2.21418e-06
-2.61267e-07
-3.81323e-07
-2.21373e-06
-1.27547e-06
-3.11265e-07
-2.16167e-06
-2.15952e-06
8.40527e-08
-1.92462e-06
-3.1719e-06
3.8941e-07
-1.45884e-06
-4.21261e-06
5.69016e-07
-6.92641e-07
-6.0271e-06
8.08792e-07
-7.06888e-06
7.16158e-07
2.47093e-06
5.55636e-06
-3.77185e-06
1.88393e-06
4.98288e-06
-2.49421e-06
-7.6052e-08
4.20419e-06
-1.39398e-06
-2.36585e-06
3.0844e-06
-1.05587e-06
-4.12481e-06
2.25117e-06
-1.76766e-06
-5.70513e-06
6.21004e-07
-1.2002e-06
-6.16328e-06
-2.27958e-06
-4.34175e-07
-3.95733e-06
-6.26556e-06
-1.52998e-07
-7.20064e-07
-9.85697e-06
5.92611e-07
-8.49111e-06
7.0216e-07
2.06357e-06
6.35797e-06
-2.15588e-06
2.91685e-06
6.11784e-06
-1.98825e-06
2.89603e-06
6.06297e-06
-1.83796e-06
2.13544e-06
5.75743e-06
-1.91242e-06
1.83163e-06
5.21806e-06
-2.66308e-06
4.54882e-07
4.06352e-06
-2.06576e-06
-2.07363e-06
8.41549e-07
-5.9262e-07
-2.20783e-06
-4.73035e-06
-1.40101e-06
-1.44554e-06
-9.95515e-06
-6.64099e-07
-1.12201e-05
1.28349e-06
1.46653e-06
5.60527e-06
-8.27123e-07
2.75739e-06
5.82569e-06
-9.98699e-07
3.53484e-06
6.27078e-06
-9.85259e-07
3.87865e-06
6.64085e-06
-1.22722e-06
4.17244e-06
6.67574e-06
-1.75148e-06
4.42315e-06
5.92022e-06
-2.10742e-06
3.17404e-06
3.73498e-06
-1.64431e-06
-3.77727e-07
5.21946e-08
-1.23077e-06
1.26967e-07
-5.66455e-06
-4.79529e-06
-9.75746e-06
-1.33571e-06
8.37642e-07
4.42374e-06
-3.18898e-07
1.78953e-06
4.9324e-06
-5.85979e-08
2.15817e-06
5.27832e-06
6.23815e-07
2.69167e-06
5.65971e-06
4.4764e-07
3.31832e-06
6.27519e-06
-2.26098e-07
3.94018e-06
6.55219e-06
-1.25383e-06
3.79486e-06
5.97727e-06
-2.09697e-06
2.13971e-06
3.87256e-06
-2.16522e-06
1.57943e-06
-6.58602e-08
-5.03841e-06
-4.00535e-06
-4.17266e-06
4.38869e-07
3.5729e-06
-3.49433e-07
9.52304e-07
4.09127e-06
3.27699e-07
6.49704e-07
4.24634e-06
1.33459e-06
4.78505e-07
4.17775e-06
1.65316e-06
1.03035e-06
4.5436e-06
1.17974e-06
2.13257e-06
5.60303e-06
-1.53071e-07
2.75056e-06
7.05285e-06
-1.69357e-06
2.03677e-06
7.05813e-06
-2.47178e-06
1.47872e-06
4.62198e-06
-4.12979e-06
2.02119e-06
-4.54783e-06
4.06532e-07
2.81484e-06
-6.7844e-08
8.17511e-07
3.24856e-06
4.31729e-07
4.53511e-07
3.53268e-06
1.07766e-06
-2.50671e-08
3.07923e-06
1.57711e-06
1.51496e-07
2.45153e-06
1.91551e-06
9.77725e-07
2.93327e-06
1.84353e-06
1.9055e-06
6.08194e-06
4.31425e-08
1.65757e-06
8.90154e-06
-1.59548e-06
8.77854e-07
8.03769e-06
-2.636e-06
6.38047e-06
-3.48142e-06
3.1376e-07
2.09392e-06
2.99507e-07
5.60136e-07
2.36524e-06
6.36955e-07
5.21797e-07
2.43491e-06
1.13612e-06
6.55833e-07
1.29029e-06
1.65491e-06
1.08601e-06
-5.73054e-08
2.07866e-06
1.58655e-06
-1.83824e-07
2.61656e-06
1.86819e-06
3.36961e-06
2.43068e-06
1.41293e-06
9.50003e-06
-1.43225e-07
3.85166e-07
1.04568e-05
-1.3913e-06
9.57525e-06
-2.80961e-06
-7.99819e-08
1.33451e-06
8.72381e-07
-1.36275e-07
1.26211e-06
1.15943e-06
1.82471e-07
6.24074e-07
1.4921e-06
6.30579e-07
-5.93032e-07
1.43522e-06
9.46001e-07
-1.59631e-06
1.22358e-06
9.68201e-07
-2.08224e-06
1.87622e-06
8.47792e-07
8.92679e-07
2.59735e-06
6.06353e-07
8.79069e-06
9.50787e-07
-3.06796e-07
1.21751e-05
-8.05164e-07
1.1351e-05
-2.08255e-06
-1.49036e-07
2.29187e-07
1.26207e-06
-1.0379e-07
-5.86029e-08
1.27547e-06
5.78855e-08
-6.43679e-07
1.10609e-06
-3.31728e-08
-1.1961e-06
6.94124e-07
-4.2558e-07
-1.8597e-06
6.55799e-07
-1.09319e-06
-2.63786e-06
1.22323e-06
-1.73395e-06
-4.69881e-07
2.00333e-06
-1.3928e-06
7.00922e-06
1.44032e-06
-1.37031e-06
1.24257e-05
-2.73156e-07
1.04902e-05
-5.09514e-07
-4.79583e-08
-6.29962e-07
8.81981e-07
-1.13679e-07
-7.58293e-07
7.65416e-07
-3.44727e-07
-9.65384e-07
5.52759e-07
-7.35192e-07
-1.20348e-06
3.97849e-07
-1.37982e-06
-1.54922e-06
3.34151e-07
-2.63739e-06
-2.03787e-06
6.57577e-07
-3.84227e-06
-8.87852e-07
1.62285e-06
-3.23337e-06
4.40463e-06
1.9957e-06
-1.84418e-06
9.75118e-06
1.28538e-06
7.00751e-06
1.63851e-06
-1.22075e-07
-9.24871e-07
4.42391e-07
-3.14771e-07
-9.6739e-07
4.01802e-07
-5.87892e-07
-1.03974e-06
3.47479e-07
-9.82762e-07
-1.09532e-06
2.86713e-07
-1.60655e-06
-1.12314e-06
1.97705e-07
-2.7291e-06
-1.09972e-06
1.84399e-07
-3.93568e-06
-4.01105e-07
7.19827e-07
-3.46682e-06
2.22515e-06
1.71062e-06
-1.42791e-06
5.44889e-06
2.26337e-06
3.51511e-06
2.0645e-06
-1.53762e-07
3.06977e-07
-1.04423e-06
-3.64946e-07
2.93055e-07
-1.04926e-06
-6.28538e-07
2.67533e-07
-1.04367e-06
-9.65273e-07
2.37489e-07
-9.9607e-07
-1.41022e-06
1.97519e-07
-8.7571e-07
-2.03161e-06
1.33229e-07
-6.11562e-07
-2.58799e-06
1.75108e-07
-1.98384e-08
-2.2456e-06
6.65602e-07
1.21715e-06
-6.83639e-07
1.45232e-06
2.43461e-06
1.17907e-06
1.6524e-06
-1.86958e-07
-3.42129e-08
2.90627e-07
-3.60998e-07
-4.95463e-08
2.93656e-07
-4.91223e-07
-8.29678e-08
3.01004e-07
-5.67942e-07
-1.2361e-07
3.05742e-07
-5.87707e-07
-1.68273e-07
3.0811e-07
-5.52101e-07
-2.13922e-07
3.09709e-07
-4.65489e-07
-2.58701e-07
3.11941e-07
-3.32189e-07
-3.04182e-07
3.18156e-07
-1.56747e-07
-3.51321e-07
3.32803e-07
-3.13086e-07
3.02226e-07
-1.69714e-07
-7.09623e-08
2.57997e-07
-3.35342e-07
-9.23792e-08
2.59189e-07
-4.62203e-07
-1.52802e-07
2.67636e-07
-5.4195e-07
-2.30502e-07
2.78731e-07
-5.69595e-07
-3.18237e-07
2.88062e-07
-5.43128e-07
-4.11818e-07
2.9711e-07
-4.63998e-07
-5.0608e-07
3.05902e-07
-3.34776e-07
-6.02307e-07
3.1675e-07
-1.5992e-07
-7.01474e-07
3.35296e-07
-6.33149e-07
3.12889e-07
-2.10824e-07
-9.39794e-08
3.17432e-07
-4.19271e-07
-1.24603e-07
3.21414e-07
-5.77611e-07
-2.21982e-07
3.30586e-07
-6.75373e-07
-3.53183e-07
3.45226e-07
-7.08264e-07
-4.99687e-07
3.58168e-07
-6.74959e-07
-6.54391e-07
3.6938e-07
-5.77668e-07
-8.09587e-07
3.80304e-07
-4.19721e-07
-9.67384e-07
3.94603e-07
-2.04756e-07
-1.13124e-06
4.18943e-07
-1.03615e-06
3.94746e-07
-2.68352e-07
-8.28005e-08
4.33604e-07
-5.30589e-07
-1.35454e-07
4.35139e-07
-7.28158e-07
-2.90965e-07
4.37917e-07
-8.48776e-07
-4.96492e-07
4.47397e-07
-8.91536e-07
-7.21857e-07
4.58616e-07
-8.5503e-07
-9.56248e-07
4.70783e-07
-7.37767e-07
-1.19158e-06
4.84076e-07
-5.41892e-07
-1.42957e-06
5.03105e-07
-2.64539e-07
-1.68454e-06
5.38834e-07
-1.55896e-06
5.1698e-07
-3.88619e-07
9.00489e-08
7.01635e-07
-7.40938e-07
-3.65781e-08
7.03578e-07
-9.94898e-07
-3.18058e-07
6.90174e-07
-1.15581e-06
-6.39074e-07
6.73593e-07
-1.21722e-06
-9.83056e-07
6.59407e-07
-1.17437e-06
-1.33474e-06
6.49803e-07
-1.02738e-06
-1.68242e-06
6.52313e-07
-7.74603e-07
-2.04078e-06
6.8484e-07
-3.85958e-07
-2.45891e-06
7.6743e-07
-2.30252e-06
7.58249e-07
-4.53228e-07
2.2492e-07
9.27059e-07
-8.32639e-07
5.50013e-08
9.0694e-07
-1.17666e-06
-2.52367e-07
9.04051e-07
-1.45656e-06
-6.52686e-07
9.3236e-07
-1.60528e-06
-1.14541e-06
9.39901e-07
-1.5694e-06
-1.70275e-06
8.96756e-07
-1.38974e-06
-2.22465e-06
8.67388e-07
-1.10336e-06
-2.75292e-06
9.32384e-07
-6.30858e-07
-3.41897e-06
1.11636e-06
-3.32578e-06
1.11307e-06
-4.78482e-07
6.80468e-07
1.76003e-07
-9.64334e-07
3.86842e-07
2.80852e-07
-1.3113e-06
-1.2057e-07
5.31375e-07
-1.59388e-06
-6.16692e-07
8.0132e-07
-1.80431e-06
-1.2151e-06
1.03558e-06
-1.83819e-06
-2.00377e-06
1.11602e-06
-1.64876e-06
-2.83124e-06
1.12163e-06
-1.31017e-06
-3.62946e-06
1.23318e-06
-8.42612e-07
-4.43869e-06
1.42383e-06
-4.4564e-06
1.2376e-06
1.01285e-07
1.48152e-06
-1.67351e-06
-5.41342e-07
1.1859e-06
-1.09054e-06
-1.09505e-06
5.07554e-07
-6.07472e-07
-1.60031e-06
-2.27618e-07
-2.65138e-07
-2.13956e-06
-9.80406e-07
-6.70355e-09
-2.45458e-06
-2.17747e-06
5.72766e-07
-2.2974e-06
-3.69677e-06
1.09777e-06
-1.68431e-06
-5.12793e-06
1.45439e-06
-7.8701e-07
-6.15411e-06
1.62691e-06
-5.9493e-06
1.42205e-06
1.2094e-06
3.53381e-06
-7.38816e-06
2.31924e-06
3.86083e-06
-6.27897e-06
2.68069e-06
3.96449e-06
-5.21237e-06
1.07942e-06
3.9397e-06
-3.62191e-06
-1.22883e-06
2.98518e-06
-3.42499e-06
-2.47669e-06
1.00934e-06
-3.13914e-06
-3.2184e-06
-2.03977e-06
-1.34948e-06
-2.9416e-06
-5.27369e-06
-2.84036e-07
-9.40331e-07
-8.00801e-06
4.45246e-07
-9.46647e-06
3.279e-06
1.22681e-06
3.58352e-06
-4.38137e-06
3.1321e-06
4.39549e-06
-4.4282e-06
4.23442e-06
5.37993e-06
-4.35571e-06
4.27497e-06
6.30382e-06
-4.3171e-06
3.74834e-06
5.88138e-06
-5.03265e-06
3.06232e-06
4.85246e-06
-5.22286e-06
1.5367e-06
2.40393e-06
-3.5107e-06
-5.97808e-07
-1.31646e-06
-3.22373e-06
-3.66758e-07
-4.58063e-06
-4.32252e-06
-9.00061e-06
4.5087e-07
1.09359e-06
1.79407e-06
-1.24542e-06
3.1976e-06
2.95206e-06
-1.65928e-06
4.91629e-06
4.49182e-06
-1.81585e-06
6.23109e-06
5.97299e-06
-2.21119e-06
6.71817e-06
6.48918e-06
-2.84636e-06
6.26654e-06
6.52047e-06
-3.32379e-06
4.79929e-06
5.88155e-06
-3.65469e-06
3.09148e-06
3.25772e-06
-4.09714e-06
1.59731e-06
1.00538e-06
-8.88713e-06
-4.12812e-06
-4.61088e-06
3.7823e-08
3.04476e-07
-5.08766e-07
1.64298e-06
1.36296e-06
-7.46561e-08
3.60479e-06
2.64226e-06
5.11566e-07
5.61062e-06
3.7003e-06
7.14505e-07
6.59345e-06
4.89905e-06
3.81189e-07
6.25797e-06
6.42429e-06
-8.22175e-07
5.13831e-06
7.43712e-06
-2.53288e-06
3.73248e-06
6.33959e-06
-3.84127e-06
2.59669e-06
4.72932e-06
-7.62655e-06
1.51564e-06
-7.21973e-06
-6.97254e-07
-1.36559e-07
-5.55594e-08
-6.19126e-07
7.43078e-07
8.69461e-07
2.34663e-07
1.21018e-06
1.91287e-06
1.78491e-06
1.21793e-06
2.58528e-06
3.34215e-06
1.79014e-06
2.73142e-06
4.01753e-06
3.9732e-06
1.62264e-06
3.96082e-06
6.68521e-06
-8.8495e-07
3.41322e-06
7.22093e-06
-2.80553e-06
2.6969e-06
6.81234e-06
-5.49648e-06
6.06556e-06
-6.40086e-06
-4.96838e-07
-3.18093e-07
7.01941e-07
-7.52501e-07
8.94537e-08
1.34102e-06
-4.76051e-07
2.00291e-08
1.99137e-06
2.23961e-07
-5.99661e-07
2.69469e-06
1.27784e-06
-9.05768e-07
3.55754e-06
2.39403e-06
6.17154e-07
4.08339e-06
2.74792e-06
4.70176e-06
1.67271e-06
2.73124e-06
7.0638e-06
-1.42166e-06
2.19712e-06
7.9246e-06
-3.21414e-06
9.56555e-06
-4.78429e-06
-4.82078e-07
-4.35617e-07
1.28998e-06
-7.84123e-07
-5.54115e-07
1.58258e-06
-4.35964e-07
-1.097e-06
1.905e-06
3.08041e-07
-1.85557e-06
2.16682e-06
1.27626e-06
-2.3334e-06
2.53808e-06
2.28558e-06
-1.3752e-06
3.59959e-06
2.47334e-06
3.50064e-06
3.44405e-06
1.92049e-06
8.04744e-06
-5.74004e-07
1.16776e-06
9.52101e-06
-2.23496e-06
1.16181e-05
-3.69441e-06
-3.19862e-07
-6.47382e-07
1.66298e-06
-5.3971e-07
-1e-06
1.82518e-06
-3.00406e-07
-1.63461e-06
1.79042e-06
-1.11806e-07
-2.11442e-06
1.50547e-06
4.25391e-08
-2.70333e-06
1.43917e-06
3.80473e-07
-1.90067e-06
2.06376e-06
1.28207e-06
2.80635e-06
2.39005e-06
1.07873e-06
9.49271e-06
-2.91142e-07
1.50902e-07
1.15067e-05
-1.863e-06
1.21737e-05
-2.48726e-06
-7.82313e-08
-1.03929e-06
1.78369e-06
-1.57441e-07
-1.27987e-06
1.63456e-06
-4.01848e-07
-1.54017e-06
1.25606e-06
-9.60658e-07
-1.77256e-06
9.11077e-07
-1.53979e-06
-2.40904e-06
9.40642e-07
-1.58725e-06
-1.95779e-06
1.32781e-06
-5.09599e-07
2.41483e-06
1.3172e-06
2.10848e-07
9.95386e-06
2.58724e-07
-7.02563e-07
1.27013e-05
-5.54321e-07
1.07863e-05
1.75302e-07
-6.3929e-08
-1.16751e-06
1.13148e-06
-3.35505e-07
-1.21323e-06
9.70363e-07
-8.26039e-07
-1.25903e-06
7.62156e-07
-1.51424e-06
-1.37212e-06
6.85617e-07
-2.59476e-06
-1.68166e-06
6.87288e-07
-3.52133e-06
-1.47873e-06
1.10508e-06
-3.15258e-06
1.8669e-06
1.80204e-06
-1.76664e-06
8.61962e-06
1.944e-06
-1.75442e-06
1.18624e-05
2.11199e-06
7.39622e-06
3.27421e-06
-1.79307e-07
-1.0931e-06
6.52014e-07
-5.12362e-07
-1.09742e-06
6.19058e-07
-9.16664e-07
-1.09927e-06
5.92024e-07
-1.52603e-06
-1.06388e-06
5.87838e-07
-2.62409e-06
-9.87956e-07
6.02054e-07
-4.14807e-06
-6.2708e-07
8.56738e-07
-4.8215e-06
1.32527e-06
1.93489e-06
-3.51728e-06
5.65141e-06
3.37461e-06
-1.79718e-06
8.20045e-06
4.20525e-06
3.75575e-06
3.90779e-06
-1.78277e-07
5.42776e-07
-1.05043e-06
-4.82364e-07
5.31238e-07
-1.03151e-06
-8.3845e-07
5.11638e-07
-9.87285e-07
-1.29909e-06
5.19561e-07
-8.85317e-07
-1.98388e-06
5.65392e-07
-6.71033e-07
-2.9959e-06
7.13934e-07
-1.95773e-07
-3.71841e-06
1.26871e-06
9.54173e-07
-2.84275e-06
2.50866e-06
2.9327e-06
-7.47446e-07
3.44058e-06
4.11689e-06
2.44079e-06
1.7466e-06
-1.72128e-07
-4.62187e-08
5.20856e-07
-3.43434e-07
-4.52975e-08
5.10259e-07
-4.72343e-07
-6.20493e-08
4.91962e-07
-5.4618e-07
-9.39874e-08
4.73566e-07
-5.64702e-07
-1.31965e-07
4.58598e-07
-5.30287e-07
-1.72821e-07
4.48115e-07
-4.4694e-07
-2.14904e-07
4.43499e-07
-3.17589e-07
-2.59662e-07
4.48467e-07
-1.47128e-07
-3.04708e-07
4.6705e-07
-2.62551e-07
4.17649e-07
-1.44307e-07
-1.03831e-07
4.74535e-07
-3.01393e-07
-8.68677e-08
4.57845e-07
-4.28976e-07
-1.11039e-07
4.44208e-07
-5.08691e-07
-1.67404e-07
4.31862e-07
-5.37563e-07
-2.40994e-07
4.25963e-07
-5.14497e-07
-3.24585e-07
4.25808e-07
-4.40317e-07
-4.13792e-07
4.30611e-07
-3.16258e-07
-5.08816e-07
4.41843e-07
-1.47767e-07
-6.03411e-07
4.65508e-07
-5.25791e-07
4.28362e-07
-1.87239e-07
-1.31718e-07
5.48398e-07
-3.79542e-07
-1.04783e-07
5.31633e-07
-5.36154e-07
-1.51183e-07
5.27343e-07
-6.35697e-07
-2.47053e-07
5.24418e-07
-6.70981e-07
-3.70822e-07
5.2328e-07
-6.41359e-07
-5.11945e-07
5.27118e-07
-5.48548e-07
-6.60311e-07
5.34011e-07
-3.95363e-07
-8.15535e-07
5.48137e-07
-1.88044e-07
-9.69046e-07
5.77259e-07
-8.55012e-07
5.35923e-07
-2.37941e-07
-9.61439e-08
6.52997e-07
-4.75098e-07
-8.3378e-08
6.50891e-07
-6.65319e-07
-1.71508e-07
6.48462e-07
-7.90164e-07
-3.24048e-07
6.49238e-07
-8.39306e-07
-5.14908e-07
6.51845e-07
-8.10627e-07
-7.31902e-07
6.6206e-07
-6.99009e-07
-9.63726e-07
6.75874e-07
-5.06101e-07
-1.20057e-06
6.95236e-07
-2.38368e-07
-1.43159e-06
7.33644e-07
-1.26777e-06
6.91371e-07
-3.42718e-07
1.40098e-07
8.24692e-07
-6.74732e-07
9.36485e-08
8.58566e-07
-9.16688e-07
-1.06653e-07
8.67274e-07
-1.07149e-06
-3.63698e-07
8.68043e-07
-1.13585e-06
-6.62138e-07
8.71e-07
-1.10221e-06
-9.99944e-07
8.84208e-07
-9.51155e-07
-1.36697e-06
9.04495e-07
-6.91624e-07
-1.71855e-06
9.43285e-07
-3.30961e-07
-2.04323e-06
1.01841e-06
-1.80355e-06
9.63072e-07
-5.12506e-07
6.09773e-07
9.75737e-07
-9.7074e-07
4.25774e-07
1.03305e-06
-1.29291e-06
2.1386e-08
1.09818e-06
-1.52241e-06
-3.32981e-07
1.13114e-06
-1.59199e-06
-7.92515e-07
1.13986e-06
-1.49832e-06
-1.33384e-06
1.13698e-06
-1.24949e-06
-1.91733e-06
1.16893e-06
-9.18735e-07
-2.39462e-06
1.2777e-06
-5.09167e-07
-2.7575e-06
1.42106e-06
-2.46925e-06
1.2696e-06
-6.31501e-07
1.10251e-06
3.64895e-07
-1.23672e-06
7.67664e-07
5.44181e-07
-1.64102e-06
8.60781e-08
8.70988e-07
-1.89552e-06
-3.89073e-07
1.11191e-06
-2.00113e-06
-9.21903e-07
1.27057e-06
-1.90744e-06
-1.6955e-06
1.38399e-06
-1.55938e-06
-2.68774e-06
1.54399e-06
-1.1245e-06
-3.32354e-06
1.72721e-06
-6.70506e-07
-3.59351e-06
1.80585e-06
-3.21169e-06
1.30953e-06
-2.94351e-07
5.26151e-07
-5.81824e-07
-9.13051e-07
5.27747e-07
-2.31924e-07
-1.32285e-06
-1.50699e-07
3.91011e-08
-1.71079e-06
-5.07147e-07
2.40881e-07
-2.2801e-06
-9.71316e-07
6.12014e-07
-2.52985e-06
-2.06651e-06
1.19353e-06
-2.17616e-06
-3.66991e-06
1.72626e-06
-1.53048e-06
-4.375e-06
1.86017e-06
-5.9111e-07
-4.82454e-06
1.91857e-06
-4.09057e-06
1.70982e-06
4.60367e-07
8.93437e-07
-8.45918e-06
1.11279e-06
1.35602e-06
-7.75967e-06
1.49619e-06
1.22435e-06
-6.97082e-06
8.74588e-07
1.69689e-06
-5.20434e-06
-8.36468e-07
6.79292e-07
-3.36454e-06
-1.56823e-06
-8.8138e-07
-3.5925e-06
-1.50408e-06
-1.912e-06
-3.17154e-06
-1.51494e-06
-2.2739e-06
-2.37427e-06
-2.70272e-07
-4.76703e-06
-8.56935e-07
-5.50911e-06
4.42728e-06
1.39121e-07
-3.57839e-08
-5.06791e-06
2.32225e-06
3.45099e-07
-5.6004e-06
4.53242e-06
2.81079e-07
-5.62261e-06
6.11086e-06
1.06544e-06
-5.26409e-06
5.42785e-06
1.16694e-06
-4.83729e-06
3.18329e-06
1.22845e-06
-5.08813e-06
1.86995e-06
1.47864e-06
-5.588e-06
1.29458e-06
1.60058e-06
-6.52284e-06
8.66858e-07
1.61904e-07
-8.82373e-06
-2.16686e-06
-2.02452e-06
3.41807e-07
-1.54666e-06
-1.17198e-06
2.22444e-06
-1.75876e-06
-1.43806e-06
4.20722e-06
-2.1188e-06
-1.39875e-06
6.35098e-06
-1.79047e-06
-1.49904e-06
7.19374e-06
-7.71635e-07
-1.75054e-06
6.30537e-06
1.17286e-06
-2.37984e-06
4.97015e-06
3.12112e-06
-3.96195e-06
4.38455e-06
4.10373e-06
-6.01468e-06
1.31751e-06
4.02269e-06
-9.68087e-06
2.83026e-06
-8.29049e-06
-5.67932e-07
-2.07772e-06
-3.00318e-07
1.7077e-07
-2.51648e-06
-5.56352e-08
1.28636e-06
-3.24186e-06
5.19036e-07
2.81696e-06
-3.65873e-06
1.05216e-06
4.09278e-06
-2.84829e-06
1.18203e-06
4.49699e-06
-3.28208e-08
-2.07068e-08
4.43105e-06
2.81549e-06
-2.16131e-06
4.19973e-06
4.59719e-06
-4.10341e-06
2.48529e-06
5.69807e-06
-7.58749e-06
5.97869e-06
-7.88286e-06
-6.14482e-07
-2.01595e-06
3.28053e-07
-6.55339e-07
-2.31586e-06
7.09698e-07
-9.93408e-08
-3.2185e-06
1.33352e-06
8.42798e-07
-3.98105e-06
1.96547e-06
1.86986e-06
-3.82916e-06
2.68523e-06
2.43864e-06
-1.29571e-06
2.31674e-06
2.91325e-06
1.72235e-06
-2.66414e-07
3.24433e-06
3.55421e-06
-2.09364e-06
2.53625e-06
6.02132e-06
-5.11165e-06
8.13171e-06
-6.01763e-06
-4.55177e-07
-1.83951e-06
1.12489e-06
-5.99942e-07
-2.23123e-06
1.40116e-06
-2.46755e-07
-3.13462e-06
1.55432e-06
3.13197e-07
-3.71195e-06
1.86564e-06
1.12087e-06
-3.75863e-06
2.67933e-06
1.97832e-06
-1.86484e-06
3.79507e-06
2.16651e-06
1.75031e-06
1.45655e-06
2.05096e-06
3.34317e-06
-1.09506e-06
1.64356e-06
5.95538e-06
-2.74079e-06
9.24966e-06
-4.25867e-06
-3.42391e-07
-1.69736e-06
1.70812e-06
-5.30413e-07
-2.23838e-06
1.77775e-06
-4.09132e-07
-2.92116e-06
1.57027e-06
-2.35094e-07
-3.15303e-06
1.43387e-06
1.42565e-07
-3.16295e-06
1.56474e-06
1.12506e-06
-1.37935e-06
2.13161e-06
1.28436e-06
3.20371e-06
1.83136e-06
-2.82609e-08
5.38523e-06
-1.30344e-06
-1.41988e-07
6.65033e-06
-2.81619e-06
8.64119e-06
-3.22794e-06
-6.28621e-08
-1.68056e-06
1.83244e-06
-2.09374e-07
-2.03026e-06
1.76358e-06
-4.01259e-07
-2.30524e-06
1.36639e-06
-7.40812e-07
-2.42322e-06
1.11522e-06
-8.44998e-07
-2.71578e-06
1.09618e-06
-2.39428e-07
-1.11402e-06
1.19286e-06
2.43193e-07
3.95619e-06
1.15496e-06
-1.26571e-06
7.38836e-06
-7.85363e-07
-1.93104e-06
7.53195e-06
-2.07928e-06
6.43225e-06
-2.20936e-06
1.32063e-08
-1.47682e-06
1.58476e-06
-1.799e-07
-1.57329e-06
1.37071e-06
-6.29787e-07
-1.6176e-06
1.01831e-06
-1.28092e-06
-1.78862e-06
9.27601e-07
-1.83901e-06
-2.22096e-06
1.00392e-06
-1.56035e-06
-1.29485e-06
1.22999e-06
-6.8931e-07
3.20471e-06
1.19766e-06
-1.39033e-06
7.85604e-06
4.92069e-07
-2.35264e-06
7.31009e-06
6.29844e-07
3.51865e-06
7.36276e-07
-1.11787e-07
-1.1748e-06
9.93496e-07
-4.35693e-07
-1.18234e-06
9.03326e-07
-8.92721e-07
-1.21712e-06
8.18715e-07
-1.55742e-06
-1.30758e-06
8.69276e-07
-2.60317e-06
-1.4821e-06
9.94183e-07
-3.26532e-06
-1.07753e-06
1.54992e-06
-2.51006e-06
1.76852e-06
2.48298e-06
-1.86445e-06
6.23635e-06
2.91808e-06
-2.1566e-06
6.27154e-06
3.4427e-06
1.4709e-06
3.16536e-06
-1.92709e-07
-1.02117e-06
7.7277e-07
-5.21777e-07
-1.01439e-06
7.80177e-07
-9.04381e-07
-1.01261e-06
7.70116e-07
-1.46757e-06
-9.78672e-07
8.22118e-07
-2.44186e-06
-8.70372e-07
9.64612e-07
-3.698e-06
-4.43252e-07
1.47861e-06
-3.90296e-06
1.07787e-06
2.8305e-06
-2.53738e-06
3.82098e-06
4.42441e-06
-1.21781e-06
4.27776e-06
4.87947e-06
6.92211e-07
3.46868e-06
-1.80311e-07
7.42191e-07
-9.57418e-07
-4.84083e-07
7.52682e-07
-9.32052e-07
-8.17635e-07
7.22026e-07
-8.89438e-07
-1.22848e-06
7.53895e-07
-8.02161e-07
-1.79191e-06
8.66948e-07
-6.08491e-07
-2.52822e-06
1.17372e-06
-1.66727e-07
-2.88171e-06
1.92952e-06
7.7056e-07
-1.79872e-06
3.17852e-06
2.06812e-06
-1.89148e-07
3.70407e-06
2.40471e-06
2.33259e-06
6.11264e-07
-1.80271e-07
3.35453e-08
6.80135e-07
-3.45308e-07
2.21923e-08
6.53104e-07
-4.68252e-07
-4.03893e-09
6.18944e-07
-5.41198e-07
-3.67205e-08
5.83233e-07
-5.59212e-07
-8.03549e-08
5.56967e-07
-5.25115e-07
-1.24497e-07
5.38515e-07
-4.41921e-07
-1.68454e-07
5.28759e-07
-3.11439e-07
-2.15608e-07
5.33593e-07
-1.39759e-07
-2.59974e-07
5.55344e-07
-2.09269e-07
4.87159e-07
-1.60399e-07
5.44907e-08
6.37941e-07
-3.06238e-07
3.1931e-08
5.93945e-07
-4.205e-07
1.69335e-09
5.52739e-07
-4.9495e-07
-5.45725e-08
5.24164e-07
-5.23022e-07
-1.33786e-07
5.07466e-07
-5.01353e-07
-2.23106e-07
5.02749e-07
-4.29062e-07
-3.15311e-07
5.05176e-07
-3.05486e-07
-4.15309e-07
5.17968e-07
-1.3763e-07
-5.08854e-07
5.46532e-07
-4.13333e-07
4.94796e-07
-1.93616e-07
1.55867e-07
6.68946e-07
-3.77439e-07
7.72464e-08
6.7014e-07
-5.20822e-07
2.87835e-08
6.43635e-07
-6.15205e-07
-6.18798e-08
6.26109e-07
-6.5168e-07
-1.92359e-07
6.18328e-07
-6.25048e-07
-3.42665e-07
6.20045e-07
-5.34292e-07
-4.98914e-07
6.26859e-07
-3.81155e-07
-6.62699e-07
6.4239e-07
-1.7461e-07
-8.14018e-07
6.75878e-07
-6.69126e-07
6.17106e-07
-2.22849e-07
3.41353e-07
7.16746e-07
-4.53823e-07
1.77662e-07
7.81449e-07
-6.37414e-07
8.77467e-08
7.7309e-07
-7.59675e-07
-5.24707e-08
7.62089e-07
-8.11704e-07
-2.49848e-07
7.61363e-07
-7.86792e-07
-4.75176e-07
7.6966e-07
-6.79387e-07
-7.15577e-07
7.85133e-07
-4.87343e-07
-9.66971e-07
8.07465e-07
-2.2096e-07
-1.19802e-06
8.51266e-07
-9.87177e-07
7.88461e-07
-2.54142e-07
6.17616e-07
8.314e-07
-5.74062e-07
3.8265e-07
9.73498e-07
-8.25673e-07
2.14253e-07
9.92379e-07
-9.90469e-07
-5.30615e-09
9.85674e-07
-1.07018e-06
-2.81243e-07
9.82106e-07
-1.05257e-06
-6.15922e-07
1.00734e-06
-9.12205e-07
-9.962e-07
1.04475e-06
-6.59569e-07
-1.36939e-06
1.09307e-06
-3.13255e-07
-1.69192e-06
1.166e-06
-1.39854e-06
1.06118e-06
-3.5895e-07
1.07619e-06
9.04437e-07
-8.28502e-07
7.83875e-07
1.10137e-06
-1.17064e-06
4.64331e-07
1.19024e-06
-1.3772e-06
8.91766e-08
1.24322e-06
-1.4533e-06
-3.44169e-07
1.27888e-06
-1.38553e-06
-8.57657e-07
1.31095e-06
-1.15941e-06
-1.43966e-06
1.38626e-06
-8.64493e-07
-1.90797e-06
1.52136e-06
-5.07772e-07
-2.23213e-06
1.60455e-06
-1.93403e-06
1.29732e-06
-5.01462e-07
1.4509e-06
5.68963e-07
-1.19631e-06
1.16328e-06
8.59623e-07
-1.69247e-06
6.77349e-07
1.15414e-06
-1.85714e-06
-7.9136e-09
1.37366e-06
-1.87969e-06
-5.03988e-07
1.45294e-06
-1.77183e-06
-1.15255e-06
1.57102e-06
-1.4799e-06
-2.02472e-06
1.83712e-06
-1.09605e-06
-2.61698e-06
2.05237e-06
-6.98991e-07
-2.77884e-06
1.9555e-06
-2.57873e-06
1.25523e-06
-2.88077e-07
1.04241e-06
2.33603e-07
-9.33173e-07
1.08923e-06
4.87217e-07
-1.67506e-06
6.94208e-07
7.6413e-07
-2.17155e-06
-5.01408e-07
1.23086e-06
-2.45155e-06
-1.3195e-06
1.70753e-06
-2.34622e-06
-2.11308e-06
2.04873e-06
-1.79957e-06
-3.03873e-06
2.19362e-06
-1.06894e-06
-3.54568e-06
2.05824e-06
-3.72394e-07
-3.42967e-06
1.87285e-06
-2.97756e-06
1.73626e-06
1.38875e-07
-3.11698e-06
-4.52855e-06
2.07224e-09
-1.61695e-06
-4.91669e-06
8.63296e-08
-8.74074e-07
-5.48679e-06
2.40457e-07
-9.53412e-07
-4.90646e-06
8.44385e-07
-2.79442e-06
-2.49354e-06
2.1242e-06
-5.50192e-06
-1.48347e-06
2.98704e-06
-4.0412e-06
-3.03192e-06
2.39626e-06
-2.59071e-06
-2.73846e-06
4.14098e-07
-1.01891e-06
-1.28553e-06
-8.63362e-07
2.72718e-06
-5.35482e-07
-2.54912e-06
-6.45717e-06
1.03618e-06
-1.86206e-06
-6.92696e-06
3.90503e-06
-2.28994e-06
-7.07559e-06
6.83195e-06
-3.29013e-06
-5.85429e-06
7.87816e-06
-4.29432e-06
-4.3836e-06
6.97179e-06
-4.73968e-06
-4.944e-06
6.62799e-06
-2.4688e-06
-6.8166e-06
5.86817e-06
-1.18365e-07
-8.23537e-06
1.93476e-06
2.38123e-06
-8.29045e-06
2.68804e-06
-3.64116e-06
-3.81085e-07
-1.91821e-06
-2.72036e-06
9.1133e-07
-2.2858e-06
-2.30674e-06
2.66546e-06
-3.82807e-06
-1.61475e-06
4.42492e-06
-5.28159e-06
-1.26705e-06
5.79223e-06
-5.88815e-06
-1.52402e-06
6.24876e-06
-4.92252e-06
-2.65353e-06
6.62401e-06
-2.27173e-06
-4.53428e-06
6.31597e-06
7.021e-07
-6.5271e-06
3.91224e-06
3.67198e-06
-8.56791e-06
4.9974e-06
-6.6876e-06
-1.84534e-07
-2.48847e-06
1.23789e-07
1.55415e-07
-2.92892e-06
2.47534e-07
7.05411e-07
-4.31861e-06
4.59578e-07
1.48727e-06
-5.62702e-06
6.15733e-07
2.24343e-06
-6.08439e-06
6.22117e-07
2.73369e-06
-4.8588e-06
-5.74691e-07
3.66405e-06
-2.86485e-06
-2.49856e-06
4.39742e-06
-1.64183e-07
-3.97049e-06
3.43098e-06
4.28171e-06
-7.23078e-06
6.76809e-06
-6.22258e-06
-2.59989e-07
-2.75421e-06
6.90396e-07
-5.47396e-08
-3.14059e-06
7.16115e-07
2.89307e-07
-3.99527e-06
6.66142e-07
5.49847e-07
-4.82584e-06
9.03749e-07
9.42992e-07
-5.23954e-06
1.44723e-06
1.28693e-06
-4.04684e-06
1.16084e-06
1.59818e-06
-2.5744e-06
-8.6811e-07
2.06841e-06
-6.61593e-07
-2.06646e-06
1.99053e-06
4.25982e-06
-5.01188e-06
7.65453e-06
-4.91354e-06
-1.51651e-07
-2.77148e-06
1.25318e-06
-4.60362e-08
-3.05994e-06
1.21491e-06
1.14273e-07
-3.52983e-06
9.2857e-07
5.47052e-08
-3.81851e-06
9.17889e-07
8.3274e-08
-3.97864e-06
1.38986e-06
2.32279e-07
-2.52307e-06
2.1223e-06
-7.13354e-07
-6.63166e-07
4.90951e-07
-1.14626e-06
-1.18102e-07
-1.20564e-06
1.28808e-07
3.08432e-06
-2.84036e-06
6.85235e-06
-3.32768e-06
-3.12501e-08
-2.33826e-06
1.25665e-06
-5.95586e-08
-2.63666e-06
1.38278e-06
-2.12067e-07
-2.851e-06
1.04395e-06
-5.37893e-07
-2.94666e-06
8.87836e-07
-8.79413e-07
-2.99746e-06
9.25083e-07
-1.16869e-06
-1.41963e-06
1.31744e-06
-2.34092e-06
1.32559e-06
1.01484e-06
-3.66062e-06
9.75588e-07
-1.07742e-06
-2.25896e-06
1.44978e-06
-2.5833e-06
3.57083e-06
-2.20537e-06
1.46303e-07
-1.74986e-06
1.06331e-06
3.61336e-08
-1.98942e-06
1.22652e-06
-3.12447e-07
-2.08627e-06
9.50227e-07
-7.83351e-07
-2.2667e-06
9.06165e-07
-1.13912e-06
-2.50348e-06
9.57969e-07
-1.04833e-06
-1.50185e-06
1.18429e-06
-1.39477e-06
1.55874e-06
1.26826e-06
-3.45874e-06
2.10547e-06
1.48738e-07
-3.2317e-06
4.12094e-07
-1.26863e-06
-1.22319e-07
-1.7479e-06
-2.15027e-09
-1.32195e-06
1.11504e-06
-1.99722e-07
-1.45072e-06
1.02958e-06
-5.71989e-07
-1.55826e-06
8.6257e-07
-1.06796e-06
-1.75276e-06
9.0962e-07
-1.58905e-06
-2.0051e-06
1.02663e-06
-1.56756e-06
-1.69728e-06
1.40394e-06
-9.61702e-07
3.60589e-07
1.78995e-06
-1.8045e-06
1.88373e-06
1.5566e-06
-2.34914e-06
4.43855e-07
1.14273e-06
-1.9419e-06
2.06724e-07
-1.56694e-07
-1.08241e-06
9.0025e-07
-4.35776e-07
-1.18702e-06
9.18712e-07
-7.66476e-07
-1.27303e-06
8.6419e-07
-1.23544e-06
-1.35308e-06
9.38575e-07
-1.92673e-06
-1.42019e-06
1.10056e-06
-2.4596e-06
-1.25899e-06
1.64451e-06
-1.98419e-06
-3.02059e-07
2.67022e-06
-1.58481e-06
1.08603e-06
3.31641e-06
-1.34292e-06
4.00942e-07
3.24373e-06
-1.93162e-06
1.81218e-06
-2.0973e-07
-9.76004e-07
8.76477e-07
-4.94858e-07
-1.05835e-06
9.36644e-07
-7.98451e-07
-1.08154e-06
8.82224e-07
-1.19972e-06
-1.06213e-06
9.32442e-07
-1.76508e-06
-9.74095e-07
1.08387e-06
-2.4019e-06
-6.78479e-07
1.53493e-06
-2.35202e-06
-5.95759e-08
2.53813e-06
-1.31666e-06
7.86782e-07
3.68831e-06
-3.1659e-07
5.13519e-07
3.76683e-06
-9.08852e-07
2.12932e-06
-2.06372e-07
8.53605e-07
-8.79478e-07
-4.82452e-07
9.32053e-07
-9.61638e-07
-7.49921e-07
8.65604e-07
-9.57646e-07
-1.05483e-06
8.88663e-07
-8.9199e-07
-1.39749e-06
9.86793e-07
-7.51275e-07
-1.70895e-06
1.2591e-06
-4.52385e-07
-1.67118e-06
1.78645e-06
4.57175e-08
-8.7013e-07
2.51095e-06
6.53312e-07
1.87594e-09
2.73385e-06
6.11743e-07
1.72854e-06
-3.02921e-07
-2.06011e-07
1.4247e-07
7.63881e-07
-3.78084e-07
9.80347e-08
7.27143e-07
-4.95091e-07
5.39374e-08
6.82013e-07
-5.59891e-07
7.97398e-09
6.40059e-07
-5.73063e-07
-3.48694e-08
6.05007e-07
-5.34898e-07
-8.02104e-08
5.80561e-07
-4.46828e-07