/*--------------------------------*- C++ -*----------------------------------*\
| =========                 |                                                 |
| \\      /  F ield         | OpenFOAM: The Open Source CFD Toolbox           |
|  \\    /   O peration     | Version:  2312                                  |
|   \\  /    A nd           | Website:  www.openfoam.com                      |
|    \\/     M anipulation  |                                                 |
\*---------------------------------------------------------------------------*/
FoamFile
{
    version     2.0;
    format      ascii;
    arch        "LSB;label=32;scalar=64";
    class       volVectorField;
    location    "0.32";
    object      U;
}
// * * * * * * * * * * * * * * * * * * * * * * * * * * * * * * * * * * * * * //

dimensions      [0 1 -1 0 0 0 0];

internalField   nonuniform List<vector> 
8000
(
(-0.00263664 0.00150726 -0.000277579)
(-0.00861181 0.00101815 9.18799e-05)
(-0.0138058 0.000139988 0.0007408)
(-0.0176932 -0.000997429 0.00142607)
(-0.019833 -0.00223163 0.00199364)
(-0.0200345 -0.00346973 0.00241162)
(-0.0182645 -0.00463855 0.00268904)
(-0.0145759 -0.00572323 0.00288394)
(-0.0090338 -0.00676224 0.00309115)
(-0.00290689 -0.00621134 0.00291054)
(-0.00248041 0.0059492 -0.000628734)
(-0.00835942 0.00458819 -0.000271589)
(-0.0135238 0.0021011 0.000354016)
(-0.0175048 -0.00114412 0.00110891)
(-0.0198171 -0.00482249 0.00175822)
(-0.0202416 -0.00857554 0.00227305)
(-0.0186491 -0.0121597 0.00263477)
(-0.015025 -0.0155167 0.00289713)
(-0.00942899 -0.0186756 0.00315945)
(-0.00304717 -0.0175716 0.00304809)
(-0.00328295 0.0110199 -0.000111519)
(-0.0107301 0.00859869 0.000371814)
(-0.0171494 0.00416363 0.000998281)
(-0.0220538 -0.00157306 0.00173377)
(-0.0248845 -0.00800093 0.00240529)
(-0.025366 -0.0146184 0.00295611)
(-0.0233901 -0.0210115 0.00337945)
(-0.0189212 -0.0270518 0.00372645)
(-0.0120417 -0.0328109 0.00409825)
(-0.00398831 -0.0311767 0.00397376)
(-0.00429345 0.0149626 0.00132112)
(-0.0138405 0.0114554 0.00184544)
(-0.0220335 0.00497588 0.00225311)
(-0.0282162 -0.00328937 0.00276832)
(-0.0317647 -0.0126122 0.00322828)
(-0.0324774 -0.0224415 0.00366699)
(-0.0301424 -0.0321651 0.00413845)
(-0.0246714 -0.0415998 0.004632)
(-0.0159163 -0.0509615 0.00526431)
(-0.00527223 -0.0494043 0.00523947)
(-0.00562362 0.0148805 0.0108636)
(-0.017314 0.0110093 0.0108382)
(-0.0273609 0.00423058 0.00982096)
(-0.0353874 -0.00564572 0.00857662)
(-0.0409225 -0.0179776 0.00747982)
(-0.0431538 -0.0318031 0.00670126)
(-0.041362 -0.0458125 0.00640188)
(-0.0353166 -0.0594911 0.00673427)
(-0.0241917 -0.0740638 0.00794223)
(-0.00851867 -0.0731225 0.00844764)
(-0.00614283 0.0106169 0.01456)
(-0.0140345 0.00474826 0.0143913)
(-0.0213429 -0.00358683 0.0154011)
(-0.0303632 -0.0146377 0.0170697)
(-0.0409728 -0.0291774 0.0173283)
(-0.0490024 -0.04691 0.015914)
(-0.0514904 -0.0665891 0.0138809)
(-0.0484158 -0.0869777 0.0131132)
(-0.0389632 -0.112176 0.0155537)
(-0.0175902 -0.114871 0.0173648)
(-0.00159297 -0.0390497 -0.0142319)
(-0.0147091 -0.0438758 -0.0129573)
(-0.0233384 -0.0515203 -0.00671477)
(-0.0284598 -0.0571881 0.0025647)
(-0.0352597 -0.0635439 0.0114937)
(-0.043473 -0.0730536 0.0166331)
(-0.0482137 -0.0888955 0.0177264)
(-0.0499699 -0.113618 0.01781)
(-0.0474689 -0.159204 0.0226386)
(-0.023641 -0.191044 0.0235334)
(0.0346293 0.041926 -0.0546991)
(-0.0065897 0.0203446 -0.0460114)
(-0.0530389 -0.0178749 -0.0372646)
(-0.0868066 -0.0543851 -0.0403249)
(-0.089918 -0.0834387 -0.0322011)
(-0.087909 -0.103323 -0.0195682)
(-0.0820531 -0.116261 -0.0104958)
(-0.0667966 -0.130415 -0.00404494)
(-0.0495401 -0.186822 0.00367944)
(-0.0010942 -0.265407 0.00283716)
(0.0776514 0.200106 -0.0221493)
(0.105581 0.164402 0.00108197)
(0.0478255 0.107971 0.00362318)
(-0.0616666 0.0541234 -0.0333435)
(-0.13265 0.00593858 -0.0485002)
(-0.227918 -0.064701 -0.0547107)
(-0.263082 -0.155736 -0.0727012)
(-0.204129 -0.223157 -0.0754707)
(-0.0923136 -0.291466 -0.0655631)
(0.0430046 -0.297008 -0.0391542)
(0.0544943 0.245108 -0.0312641)
(0.107433 0.225439 -0.0237157)
(0.123247 0.210505 -0.0161332)
(0.100325 0.185444 -0.0257704)
(0.0671145 0.159557 -0.0451928)
(0.0818624 0.110099 -0.0286316)
(-0.0360561 -0.032736 -0.0187608)
(-0.182959 -0.301812 -0.0964603)
(-0.0859544 -0.509548 -0.125441)
(0.0657202 -0.349073 -0.0683215)
(0.0266387 0.249712 -0.0309735)
(0.0872395 0.246824 -0.0255778)
(0.128769 0.257972 -0.000792095)
(0.150314 0.261754 0.00245388)
(0.157051 0.25367 -0.016282)
(0.180758 0.221933 -0.0407977)
(0.188181 0.117345 -0.0380857)
(0.0323411 -0.0646423 -0.0224503)
(-0.0586984 -0.287475 -0.119389)
(0.0729659 -0.527387 -0.0950252)
(0.00335154 0.208387 -0.0319718)
(0.0590722 0.22292 -0.0168704)
(0.0798245 0.241791 0.0280762)
(0.0904837 0.262828 0.0397986)
(0.117648 0.277303 0.0106564)
(0.152925 0.262895 -0.0465125)
(0.170322 0.205665 -0.0797953)
(0.13125 0.0794472 -0.0634034)
(0.0442195 -0.100507 -0.119755)
(0.0726897 -0.295852 -0.12797)
(-0.00464965 0.156666 -0.0476548)
(0.0361908 0.182147 -0.0317513)
(0.0377535 0.192019 0.0116883)
(0.0146411 0.200084 0.0281319)
(0.0202127 0.227399 0.00444341)
(0.0650524 0.25665 -0.0407347)
(0.103348 0.264135 -0.0946283)
(0.115047 0.221665 -0.0923336)
(0.0646443 0.0856656 -0.118564)
(0.0577517 -0.0219703 -0.14302)
(0.00206341 0.130576 -0.050438)
(0.0301299 0.151052 -0.0431291)
(0.0341085 0.157399 -0.0166476)
(0.00501895 0.148632 0.00249658)
(-0.00778367 0.155823 0.00938193)
(0.0201243 0.202051 0.0019468)
(0.0504891 0.300337 -0.0433837)
(0.093817 0.330271 -0.0728255)
(0.0554325 0.249152 -0.0805255)
(0.0309462 0.164871 -0.112417)
(0.00572735 0.101281 -0.0380792)
(0.0204402 0.114952 -0.0289981)
(0.026479 0.130489 -0.00970995)
(0.01861 0.104277 0.0219532)
(0.0308424 0.0428228 0.0474508)
(0.0620091 0.0397618 0.0531972)
(0.0506913 0.191895 0.0357405)
(0.0884761 0.376353 -0.0176076)
(0.037158 0.3722 -0.0349245)
(0.0057731 0.318821 -0.0953685)
(-0.000127281 0.0735815 -0.0063414)
(-0.005974 0.0803306 0.00583825)
(-0.00253406 0.0677879 0.0278011)
(0.0187478 -0.00560747 0.0414246)
(0.031997 -0.0524782 0.0316385)
(0.0487732 -0.0638838 0.0389735)
(0.0135896 0.0538662 0.0558023)
(0.0540158 0.362406 0.0256758)
(0.0031632 0.449 -0.0117126)
(-0.0184186 0.429909 -0.0738734)
(-0.00339186 0.0364268 0.0229578)
(-0.00875119 0.0221071 0.0282751)
(0.00244511 -0.0177782 0.0299715)
(0.00227429 -0.0454024 0.0175141)
(-0.00260325 -0.0737604 0.0127607)
(-0.0258885 -0.102376 0.0218743)
(-0.0859976 0.00733095 0.0478893)
(-0.0478506 0.333361 0.0454879)
(-0.0498213 0.521217 0.00515558)
(-0.0454883 0.475826 -0.0197963)
(-0.00167891 -0.0189903 0.0218413)
(-0.00163889 -0.0276929 0.0192828)
(-0.0072561 -0.0368278 0.0131185)
(-0.0201871 -0.0485669 0.00813902)
(-0.0345571 -0.06927 0.00459124)
(-0.0790362 -0.0965308 0.00508267)
(-0.152758 -0.0296531 0.0305573)
(-0.148742 0.25452 0.0601484)
(-0.0933914 0.49474 0.0449419)
(-0.0518494 0.381022 0.0346966)
(-0.00175473 -0.0341995 0.0101894)
(-0.00816863 -0.0359843 0.00886654)
(-0.0174118 -0.0407041 0.00707768)
(-0.0301233 -0.0459217 0.0052112)
(-0.0483693 -0.05172 0.0022464)
(-0.085489 -0.0591992 -0.00420803)
(-0.143039 -0.0308732 -0.00202586)
(-0.162156 0.114941 0.0321294)
(-0.0984699 0.300276 0.0583521)
(-0.0267 0.190077 0.0426827)
(-0.00237789 -0.0399829 0.0062567)
(-0.0101888 -0.0408617 0.00576646)
(-0.0195107 -0.0417716 0.00501953)
(-0.0314481 -0.0414175 0.00412275)
(-0.0469109 -0.038706 0.00274206)
(-0.0692228 -0.030948 -0.00105111)
(-0.0956623 -0.00429468 -0.00784188)
(-0.104054 0.053377 -0.00534126)
(-0.0621084 0.122832 0.019335)
(-0.00305606 0.0808521 0.0208996)
(-0.00365452 -0.00104702 0.00565402)
(-0.0114704 -0.00149146 0.00633362)
(-0.0176498 -0.00226146 0.00712301)
(-0.0217979 -0.00312649 0.00782339)
(-0.023616 -0.00404451 0.00836653)
(-0.023167 -0.00495976 0.00876266)
(-0.0206385 -0.00585278 0.00905628)
(-0.0161765 -0.00676204 0.00936349)
(-0.00984753 -0.00772178 0.00986138)
(-0.00308763 -0.00676644 0.0090477)
(-0.00316829 -0.00182927 0.00422726)
(-0.0105284 -0.00255517 0.00504311)
(-0.0164599 -0.00438683 0.00612022)
(-0.0206164 -0.00673672 0.00706512)
(-0.0226989 -0.00942113 0.00784044)
(-0.0226275 -0.0122406 0.00846364)
(-0.0204513 -0.015039 0.00895264)
(-0.0162217 -0.0178719 0.00939937)
(-0.0100137 -0.0207824 0.0100229)
(-0.00315897 -0.0186939 0.00943791)
(-0.00389375 -0.00277194 0.00643808)
(-0.0130613 -0.00377258 0.00697913)
(-0.0205453 -0.00685907 0.0081908)
(-0.0256573 -0.0109988 0.00920483)
(-0.0282041 -0.0157231 0.0100267)
(-0.0281031 -0.0207611 0.0106959)
(-0.0254313 -0.0258076 0.0112535)
(-0.0202408 -0.03092 0.0118271)
(-0.0126844 -0.0361501 0.0126533)
(-0.00411228 -0.0328438 0.0120125)
(-0.00502934 -0.00365384 0.0121982)
(-0.0164054 -0.00517399 0.0120166)
(-0.0258312 -0.0100476 0.0125187)
(-0.0321729 -0.0164962 0.0129984)
(-0.0353873 -0.0236581 0.0133738)
(-0.0354313 -0.0312937 0.0138446)
(-0.032348 -0.0390289 0.0143745)
(-0.0259981 -0.0469279 0.0151104)
(-0.016472 -0.0551789 0.0163764)
(-0.00529526 -0.0510205 0.0158302)
(-0.00782721 -0.00515843 0.0257129)
(-0.0230659 -0.00695119 0.0246984)
(-0.0353816 -0.0125774 0.023488)
(-0.0438202 -0.0214432 0.0221487)
(-0.048208 -0.032193 0.0208708)
(-0.0485114 -0.0438548 0.0199407)
(-0.0446177 -0.0555231 0.0197098)
(-0.0366994 -0.0670447 0.0206772)
(-0.0238686 -0.0794875 0.0236357)
(-0.00803969 -0.0741389 0.0240054)
(-0.0101322 0.0164172 0.0356073)
(-0.0262001 0.0101442 0.0342072)
(-0.0403407 -0.0033463 0.0334149)
(-0.0534421 -0.0209858 0.0335951)
(-0.0622189 -0.0401325 0.0337109)
(-0.0648981 -0.0595195 0.030728)
(-0.0594963 -0.0789917 0.0280959)
(-0.0507146 -0.0978551 0.0290316)
(-0.0357406 -0.118799 0.0358423)
(-0.0157615 -0.112269 0.0387636)
(-0.00794105 -0.00639237 0.0141628)
(-0.0298983 -0.0135753 0.0171562)
(-0.0458541 -0.0295718 0.0241076)
(-0.0580126 -0.0458392 0.0329468)
(-0.0680317 -0.0620608 0.0413302)
(-0.0744029 -0.0806332 0.0415907)
(-0.0704034 -0.101867 0.037457)
(-0.0599612 -0.127521 0.0386613)
(-0.044635 -0.160495 0.0470787)
(-0.0225222 -0.160005 0.0477276)
(0.014822 0.0538931 -0.0738066)
(-0.0089827 0.0391116 -0.0472434)
(-0.0344851 0.0100952 -0.0189183)
(-0.0520391 -0.0215323 -0.000247843)
(-0.0769413 -0.0557596 -3.94864e-05)
(-0.0933723 -0.0969381 0.0217007)
(-0.0981808 -0.129088 0.0371523)
(-0.0798258 -0.156362 0.0492922)
(-0.0572094 -0.188153 0.0585359)
(-0.00308507 -0.187227 0.0494634)
(0.016637 0.083225 -0.292875)
(0.0754377 0.0778273 -0.198677)
(0.1154 0.0494354 -0.102399)
(0.0967075 0.0296568 -0.038033)
(-0.0185257 0.0112782 -0.0963246)
(-0.106114 -0.0621724 -0.0649614)
(-0.125304 -0.182111 0.0250745)
(-0.108436 -0.269085 0.0593649)
(-0.124519 -0.309107 0.100844)
(0.063207 -0.281986 0.0876262)
(0.00579579 0.173435 -0.170205)
(0.0891833 0.195676 -0.163489)
(0.158457 0.215834 -0.156619)
(0.180528 0.232455 -0.14612)
(0.151169 0.193673 -0.189392)
(0.153463 0.137343 -0.162148)
(0.100391 0.0145314 -0.0444455)
(0.0348877 -0.170629 -0.011393)
(-0.116972 -0.350876 0.0479856)
(0.112248 -0.491812 0.0672868)
(-0.000777148 0.113205 -0.0505389)
(0.0833253 0.150846 -0.0737222)
(0.163808 0.203616 -0.0997863)
(0.227931 0.257506 -0.12413)
(0.259385 0.261843 -0.149577)
(0.288171 0.246203 -0.147951)
(0.218358 0.200908 -0.109267)
(0.1739 0.0789022 -0.0771133)
(0.0542764 -0.0225231 -0.288617)
(0.0822295 -0.232078 -0.0219111)
(-0.0285077 0.0370204 -0.00374641)
(0.0291869 0.0838251 0.00588192)
(0.0999144 0.153339 0.00591311)
(0.184031 0.215067 -0.017683)
(0.249722 0.254096 -0.0413833)
(0.28295 0.278777 -0.074401)
(0.228784 0.29033 -0.104886)
(0.181752 0.215815 -0.119199)
(0.125016 0.124278 -0.282403)
(0.073924 -0.038696 -0.199956)
(-0.0295195 -0.010499 0.00969937)
(-0.0352762 0.0374816 0.0501794)
(-0.0135621 0.0764979 0.0791189)
(0.0342611 0.102682 0.086578)
(0.0986299 0.15092 0.071611)
(0.160334 0.227474 0.0180989)
(0.167107 0.292489 -0.0618985)
(0.154585 0.279696 -0.11975)
(0.126692 0.237635 -0.220629)
(0.0965814 0.152822 -0.230647)
(-0.0123628 -0.00266828 0.039746)
(-0.0326936 0.0227177 0.0679683)
(-0.0262168 0.0231261 0.089571)
(-0.00679696 0.00233496 0.11053)
(0.0238151 0.0084586 0.129112)
(0.071832 0.112903 0.124276)
(0.104488 0.242961 0.0402178)
(0.124252 0.285293 -0.0721758)
(0.104054 0.290198 -0.144815)
(0.0867832 0.312453 -0.19221)
(-0.00709496 -0.0186525 0.0540867)
(-0.0354028 -0.0155047 0.067914)
(-0.0265142 -0.0233075 0.0862067)
(-0.00261851 -0.0533531 0.0976663)
(0.0254957 -0.0883137 0.106582)
(0.0787444 -0.057669 0.140746)
(0.0885162 0.15362 0.137191)
(0.108335 0.289704 0.000569995)
(0.0556759 0.343685 -0.088789)
(0.0493556 0.433643 -0.155615)
(-0.0027656 -0.0123555 0.0646021)
(-0.0233516 -0.0237608 0.0747219)
(-0.0162265 -0.0569999 0.0800552)
(-0.003635 -0.0946788 0.064979)
(-0.00338602 -0.110937 0.057179)
(0.00423923 -0.0729444 0.093798)
(0.0207331 0.103557 0.129374)
(0.0895865 0.34039 0.0404033)
(0.00504449 0.411825 -0.0625262)
(0.0099274 0.480205 -0.117589)
(-0.00115448 -0.0338807 0.070662)
(-0.00472944 -0.0510348 0.0671765)
(-0.00592149 -0.0735269 0.0526962)
(-0.0235225 -0.078804 0.0334772)
(-0.0463917 -0.104917 0.0333254)
(-0.0805484 -0.0797328 0.0615692)
(-0.0715169 0.104605 0.089715)
(0.044011 0.399285 0.0583926)
(-0.0268531 0.485825 -0.0350493)
(-0.0203433 0.482341 -0.033254)
(0.000189916 -0.0537219 0.0452355)
(-0.0051083 -0.0560922 0.0386432)
(-0.0218806 -0.0544878 0.0283271)
(-0.0417344 -0.0617519 0.021913)
(-0.0736632 -0.0816391 0.0190471)
(-0.139351 -0.0666097 0.0382217)
(-0.165399 0.103583 0.0793401)
(-0.0716213 0.411526 0.084365)
(-0.0725253 0.544197 0.0410414)
(-0.0543769 0.4071 0.0810735)
(-0.00131091 -0.0436494 0.0231829)
(-0.0135128 -0.0442983 0.0215272)
(-0.0277776 -0.0466924 0.019488)
(-0.0459005 -0.0474733 0.0175076)
(-0.0765318 -0.0500545 0.0144386)
(-0.138282 -0.0402955 0.0183723)
(-0.201764 0.0651033 0.0558253)
(-0.171957 0.303902 0.103921)
(-0.106624 0.43177 0.120907)
(-0.0391557 0.203505 0.127351)
(-0.00160968 -0.0429594 0.0171284)
(-0.0131138 -0.0426936 0.0167388)
(-0.0260216 -0.0413683 0.0158032)
(-0.0419317 -0.0381568 0.0151702)
(-0.0640454 -0.0309332 0.0146568)
(-0.0986199 -0.0125101 0.0144252)
(-0.140449 0.0385276 0.0260033)
(-0.145342 0.145275 0.0673911)
(-0.0751787 0.218379 0.106757)
(0.0055663 0.0828696 0.080964)
(-0.00323345 -0.00121105 0.0167549)
(-0.0107934 -0.00136998 0.0163478)
(-0.0169988 -0.00186127 0.0162153)
(-0.0210599 -0.00256738 0.0159745)
(-0.0227741 -0.00333847 0.0156932)
(-0.022303 -0.00414163 0.015479)
(-0.0198592 -0.00497356 0.015391)
(-0.0155398 -0.00586902 0.0155791)
(-0.00935162 -0.00677238 0.0162168)
(-0.00288121 -0.005739 0.0146161)
(-0.00252472 -0.00274756 0.0158083)
(-0.00923317 -0.00244541 0.0150747)
(-0.0151482 -0.00319206 0.0147064)
(-0.0193681 -0.00491299 0.0146943)
(-0.0214386 -0.00715403 0.0147072)
(-0.0214393 -0.00968853 0.0148317)
(-0.0194344 -0.0123335 0.0150507)
(-0.0154119 -0.0151188 0.0154483)
(-0.00939216 -0.0179037 0.0162593)
(-0.00289791 -0.0155642 0.0150611)
(-0.00347259 -0.00463031 0.0186225)
(-0.0117304 -0.00368434 0.01834)
(-0.0188754 -0.00492505 0.0178553)
(-0.0241336 -0.00782424 0.0180059)
(-0.0267167 -0.0117108 0.0181844)
(-0.0267063 -0.0162216 0.0183923)
(-0.0242005 -0.0210164 0.0186793)
(-0.0192128 -0.0260415 0.0191874)
(-0.0118552 -0.0309771 0.0202137)
(-0.00373665 -0.027136 0.018893)
(-0.00454101 -0.00475908 0.0233655)
(-0.0147352 -0.00364853 0.0233764)
(-0.0233524 -0.0061918 0.0227537)
(-0.0298172 -0.0110251 0.0227833)
(-0.0332287 -0.0171797 0.0230437)
(-0.033547 -0.0242713 0.0233655)
(-0.0307407 -0.0318063 0.0237933)
(-0.0245875 -0.0395078 0.0244452)
(-0.0152062 -0.0470156 0.025849)
(-0.00465827 -0.0417398 0.0245494)
(-0.00681737 -0.00342274 0.0325928)
(-0.0209921 -0.003467 0.0330797)
(-0.0324963 -0.00725861 0.0325043)
(-0.040535 -0.0137875 0.0320127)
(-0.044867 -0.0228485 0.0317314)
(-0.0454872 -0.0334276 0.031632)
(-0.0418338 -0.0447573 0.031932)
(-0.0335272 -0.0560862 0.0332297)
(-0.0209132 -0.0670868 0.0363609)
(-0.00686817 -0.0595935 0.0350456)
(-0.0105805 0.0174421 0.0395381)
(-0.030594 0.0132038 0.0401425)
(-0.0461885 0.0028538 0.0417031)
(-0.0575711 -0.0112178 0.0431196)
(-0.0633046 -0.0272016 0.0430201)
(-0.0630766 -0.0450423 0.0416786)
(-0.0555006 -0.0647804 0.0413183)
(-0.0437503 -0.082523 0.0447113)
(-0.0289444 -0.0976924 0.0516046)
(-0.0134039 -0.0870761 0.0484077)
(-0.0118689 0.0231532 0.00818221)
(-0.0390957 0.0141449 0.0146193)
(-0.0588939 -0.00324428 0.0292739)
(-0.0716722 -0.02098 0.0420421)
(-0.0785534 -0.0383325 0.0501461)
(-0.0801954 -0.0622439 0.0528021)
(-0.0701619 -0.092494 0.0546764)
(-0.0540068 -0.115021 0.0600297)
(-0.0366819 -0.128404 0.066103)
(-0.0174141 -0.115467 0.0514547)
(-0.000976797 0.0489854 -0.0410775)
(-0.0267989 0.0331103 -0.0267801)
(-0.0448537 0.00544554 -0.020115)
(-0.0577804 -0.0212995 -0.0149781)
(-0.0821598 -0.047876 0.00249913)
(-0.0988468 -0.0828784 0.0326127)
(-0.0973585 -0.1223 0.0578767)
(-0.0759552 -0.146431 0.0688907)
(-0.049745 -0.153649 0.0722782)
(0.00402967 -0.132165 0.0635602)
(0.00408325 0.0221359 -0.403823)
(0.0288981 0.0339543 -0.394882)
(0.0535596 0.00641331 -0.375913)
(0.0812886 0.00638907 -0.278957)
(-0.0270936 -0.0120937 -0.195953)
(-0.051584 -0.0828585 -0.161031)
(-0.0586873 -0.152785 -0.116268)
(-0.0537627 -0.183533 -0.0799364)
(-0.0726236 -0.233602 -0.067768)
(0.0584898 -0.2037 0.154814)
(-0.0296485 0.0125714 -0.151128)
(0.0441353 0.0422905 -0.174465)
(0.138536 0.0560406 -0.196217)
(0.215412 0.0949112 -0.215823)
(0.250728 0.0607882 -0.222026)
(0.194091 0.0104571 -0.231881)
(0.0853113 -0.0244603 -0.195399)
(0.0739635 -0.0273074 -0.220196)
(0.0166898 -0.134183 -0.317379)
(0.0553561 -0.245794 0.0531035)
(-0.017676 -0.0201536 -0.0452842)
(0.0493829 -0.0238853 -0.0511249)
(0.121872 -0.0424344 -0.0477261)
(0.206666 -0.0218974 -0.0642958)
(0.282938 0.0154328 -0.0915928)
(0.295095 0.0805252 -0.128294)
(0.225651 0.144739 -0.174023)
(0.184756 0.167554 -0.234673)
(0.13643 0.149081 -0.395815)
(-0.0181217 0.0701076 -0.327189)
(-0.0315601 -0.0773759 -0.0282041)
(-0.0117764 -0.0951654 -0.00607789)
(0.0236655 -0.114128 0.0393946)
(0.0742271 -0.118153 0.0691368)
(0.132073 -0.0781571 0.0653182)
(0.192494 0.0232878 -0.00561019)
(0.185772 0.12984 -0.105515)
(0.174977 0.192316 -0.184918)
(0.1531 0.209803 -0.325426)
(0.0625605 0.188295 -0.361499)
(-0.0184518 -0.0863204 -0.00970042)
(-0.0315837 -0.0973316 0.028806)
(-0.0208998 -0.12781 0.0809936)
(0.0129778 -0.151942 0.116953)
(0.0477637 -0.129233 0.141041)
(0.0905421 -0.0237053 0.107357)
(0.112384 0.0854508 -0.0133959)
(0.129132 0.159019 -0.107767)
(0.125208 0.229268 -0.225376)
(0.0987475 0.276716 -0.280223)
(-0.0100596 -0.0718243 0.0272579)
(-0.0290479 -0.0847546 0.0531737)
(-0.0179091 -0.127035 0.0806231)
(0.000681613 -0.160032 0.10638)
(0.0219264 -0.16235 0.143801)
(0.0607058 -0.0659979 0.191427)
(0.0944742 0.0627535 0.0994606)
(0.0863626 0.126329 -0.0430977)
(0.0625885 0.238174 -0.126313)
(0.0912269 0.359947 -0.201056)
(-0.00641332 -0.069896 0.0629724)
(-0.0235543 -0.0924952 0.0733377)
(-0.0172151 -0.125787 0.0777641)
(-0.0119796 -0.142066 0.0770626)
(-0.00878566 -0.145605 0.086128)
(0.0182231 -0.0841799 0.129009)
(0.0745379 0.0906517 0.138495)
(0.0331664 0.161127 -0.0402426)
(-0.0405137 0.252571 -0.108027)
(0.0392063 0.388702 -0.151254)
(0.000408493 -0.0651796 0.0792637)
(-0.00627976 -0.0841585 0.0808626)
(-0.0087412 -0.105293 0.0680243)
(-0.0196799 -0.112079 0.0528432)
(-0.0371257 -0.116359 0.0523904)
(-0.0420615 -0.0418126 0.0663897)
(0.0230684 0.146156 0.0739309)
(-0.0012871 0.249403 -0.0587237)
(-0.111097 0.274225 -0.101083)
(-0.0264363 0.29114 -0.0929004)
(0.000733983 -0.0659655 0.0739559)
(2.54894e-05 -0.0744927 0.0646238)
(-0.0130458 -0.0773891 0.0466643)
(-0.0339867 -0.0818981 0.0379223)
(-0.0639142 -0.0998027 0.0410356)
(-0.0917472 -0.0464285 0.0501329)
(-0.0419378 0.156031 0.0311645)
(-0.00551375 0.319912 -0.032999)
(-0.118082 0.298015 -0.0160049)
(-0.0528779 0.193934 0.0360917)
(-0.000696009 -0.0535257 0.0429678)
(-0.00885822 -0.0532343 0.0374947)
(-0.0256131 -0.0535707 0.0319094)
(-0.0440982 -0.0602421 0.0319004)
(-0.0784395 -0.0731772 0.0357555)
(-0.133931 -0.0483746 0.0568734)
(-0.13288 0.111539 0.0802234)
(-0.0601213 0.320728 0.0752815)
(-0.103133 0.301723 0.116698)
(-0.0508443 0.110887 0.156192)
(-0.00228969 -0.0417625 0.0280898)
(-0.0140429 -0.0423898 0.0277642)
(-0.0278102 -0.0439854 0.0275101)
(-0.0451047 -0.0443003 0.0288026)
(-0.0738898 -0.0438855 0.0328466)
(-0.125287 -0.0298618 0.0516563)
(-0.168446 0.0482778 0.105494)
(-0.132551 0.206296 0.16674)
(-0.0828139 0.228568 0.201301)
(-0.00820721 0.0262953 0.163116)
(-0.00215881 -0.0397033 0.0258262)
(-0.0132092 -0.0388147 0.0256431)
(-0.0258474 -0.0375204 0.0248586)
(-0.0404141 -0.0347884 0.0258976)
(-0.0596155 -0.0278936 0.0295462)
(-0.0864852 -0.00914079 0.0402761)
(-0.11381 0.0326449 0.0708388)
(-0.105346 0.0944756 0.126372)
(-0.0369917 0.11321 0.156944)
(0.0171751 0.0226484 0.100203)
(-0.00361488 0.000829807 0.0247976)
(-0.0111348 0.000394986 0.0243618)
(-0.0169432 -0.000447366 0.0229494)
(-0.0209552 -0.00134062 0.0216897)
(-0.0226376 -0.00227508 0.0208102)
(-0.0221405 -0.00315377 0.0201448)
(-0.0197011 -0.00403171 0.0198036)
(-0.0153537 -0.00498766 0.0199557)
(-0.00904775 -0.00587667 0.0207316)
(-0.00268786 -0.0046674 0.0183565)
(-0.0031687 0.00163323 0.0221628)
(-0.00995687 0.00122055 0.0213993)
(-0.015026 -6.02719e-06 0.0205518)
(-0.0189291 -0.00169773 0.0196333)
(-0.0209564 -0.00409554 0.0191783)
(-0.0209322 -0.00673818 0.0189952)
(-0.0189883 -0.0094658 0.0190913)
(-0.0150159 -0.0123773 0.0195312)
(-0.00894781 -0.0151187 0.0205433)
(-0.00263692 -0.0122537 0.0187372)
(-0.00363239 0.00307212 0.0254293)
(-0.0120877 0.0015794 0.0243326)
(-0.0186266 0.000219704 0.0242056)
(-0.0234037 -0.00231536 0.0237087)
(-0.0260151 -0.00625785 0.0234387)
(-0.0260711 -0.0109009 0.0234837)
(-0.0236505 -0.0158159 0.0236719)
(-0.018708 -0.0210952 0.0242107)
(-0.0112855 -0.0259517 0.0254338)
(-0.00339098 -0.021178 0.0233913)
(-0.00412156 0.00996219 0.0291656)
(-0.0141067 0.00489076 0.0289431)
(-0.0226041 0.00218119 0.0291239)
(-0.028682 -0.0022599 0.0290304)
(-0.0321361 -0.0085795 0.0289786)
(-0.0326069 -0.0159703 0.0293357)
(-0.0299508 -0.0238113 0.0298295)
(-0.0239362 -0.0319195 0.0305913)
(-0.0144838 -0.039259 0.0321838)
(-0.00416679 -0.0324203 0.0299964)
(-0.00403103 0.0183112 0.0350928)
(-0.0169981 0.00982202 0.0370815)
(-0.0289554 0.00518264 0.0378448)
(-0.0371032 -0.00135338 0.0379684)
(-0.0420005 -0.0105953 0.0380263)
(-0.0433432 -0.0215299 0.0388488)
(-0.0402127 -0.0331563 0.0398939)
(-0.0322295 -0.0449179 0.0414998)
(-0.0199647 -0.0557812 0.0442647)
(-0.00656033 -0.04603 0.0410332)
(-0.00532106 0.0328925 0.0403803)
(-0.0243598 0.0225042 0.0436475)
(-0.0414767 0.0133024 0.0466405)
(-0.0520948 0.00101693 0.0483907)
(-0.0576602 -0.0127821 0.0490323)
(-0.0579082 -0.0286767 0.0497776)
(-0.0516798 -0.046937 0.0521293)
(-0.0409876 -0.0647097 0.0567811)
(-0.0282063 -0.0790236 0.0611223)
(-0.0140798 -0.0669183 0.0522503)
(-0.00660522 0.0540296 0.0204082)
(-0.0355663 0.0418819 0.0282171)
(-0.0604969 0.0259864 0.0407616)
(-0.0722488 0.00736769 0.0503466)
(-0.0752485 -0.0126585 0.0554406)
(-0.0743874 -0.0373261 0.0607549)
(-0.0658352 -0.068466 0.0694707)
(-0.0530684 -0.0918642 0.077577)
(-0.0376938 -0.103239 0.0768469)
(-0.0167353 -0.091567 0.0517287)
(-0.00123744 0.0505815 -0.000528732)
(-0.0258266 0.0384151 0.00977544)
(-0.0528169 0.0168513 0.0191749)
(-0.0765468 -0.0105674 0.0318601)
(-0.0945668 -0.0334647 0.0509833)
(-0.09944 -0.0593124 0.0672019)
(-0.0857105 -0.0955109 0.0796914)
(-0.0580723 -0.117164 0.0793057)
(-0.0350125 -0.123428 0.0766868)
(0.00965309 -0.116474 0.0684761)
(0.00306693 0.0442917 -0.223137)
(0.00598508 0.0577519 -0.236502)
(-0.00794318 0.0467095 -0.256398)
(0.0125689 -0.00902359 -0.243893)
(0.000279522 -0.066855 -0.156047)
(0.083535 -0.136551 -0.142802)
(0.0950219 -0.145404 -0.142904)
(0.142561 -0.145915 -0.132213)
(0.0151908 -0.139413 -0.0231301)
(0.0447576 -0.124305 0.161251)
(-0.0397745 -0.233168 -0.27514)
(0.00471743 -0.151354 -0.248014)
(0.0892063 -0.101997 -0.203463)
(0.210931 -0.0894948 -0.171054)
(0.306551 -0.149462 -0.154543)
(0.32236 -0.258275 -0.186295)
(0.268307 -0.175425 -0.259671)
(0.255351 -0.0745303 -0.310621)
(0.184304 0.054411 -0.361485)
(7.65816e-05 0.0507145 -0.169886)
(-0.0385168 -0.032794 -0.0561472)
(0.00997953 -0.0441725 -0.0590772)
(0.0720695 -0.113579 -0.0472164)
(0.138475 -0.185331 -0.034618)
(0.19913 -0.217646 -0.0348679)
(0.244224 -0.164724 -0.069627)
(0.272628 -0.0443553 -0.159989)
(0.26553 0.0585672 -0.258521)
(0.230575 0.137902 -0.364244)
(0.107117 0.17698 -0.311947)
(-0.0125366 -0.0996822 0.00639658)
(0.00111478 -0.113302 0.00484888)
(0.0140415 -0.172833 0.0128526)
(0.0415142 -0.227497 0.0341125)
(0.067141 -0.244529 0.0489504)
(0.0979182 -0.205269 0.0109538)
(0.13148 -0.116512 -0.0765048)
(0.166527 0.0128422 -0.159162)
(0.176856 0.168709 -0.28966)
(0.126221 0.244858 -0.281442)
(-0.0101433 -0.109397 0.0344383)
(-0.0088313 -0.126397 0.0294613)
(0.00564557 -0.168498 0.0348794)
(0.0187647 -0.21245 0.0555089)
(0.0216059 -0.229683 0.0907386)
(0.0472109 -0.177792 0.088653)
(0.0553763 -0.124098 -0.0136098)
(0.0688054 -0.0297186 -0.0784995)
(0.0836145 0.161617 -0.197498)
(0.104225 0.282695 -0.210334)
(-0.00419687 -0.112107 0.0561679)
(-0.00718978 -0.123303 0.0541805)
(0.00402787 -0.149182 0.0454755)
(0.00689091 -0.171033 0.0501979)
(-0.00405825 -0.185209 0.0798737)
(0.00983268 -0.132617 0.124921)
(0.0118861 -0.0629203 0.024898)
(-0.0691468 -0.0120402 -0.0490299)
(-0.0463937 0.166871 -0.10637)
(0.0676069 0.323719 -0.139723)
(-0.00167422 -0.10086 0.0679783)
(-0.00155379 -0.11542 0.0651447)
(-0.00222401 -0.12956 0.0492256)
(-0.0130958 -0.134783 0.0427947)
(-0.0344915 -0.134673 0.0467766)
(-0.0399307 -0.0691748 0.0582869)
(-0.040693 0.0190007 0.0249762)
(-0.164982 0.00621311 -0.0668236)
(-0.146165 0.10899 -0.108315)
(-0.00402085 0.24658 -0.0933936)
(0.00277362 -0.0813841 0.0645168)
(0.00675325 -0.0917797 0.0609388)
(-0.003084 -0.0965192 0.0445024)
(-0.0204206 -0.102279 0.0401789)
(-0.0433357 -0.11025 0.0416073)
(-0.0523624 -0.0556065 0.0428852)
(-0.0187935 0.07479 0.0299169)
(-0.112582 0.0595528 -0.0129436)
(-0.165095 -0.000274252 -0.0575304)
(-0.0642925 0.031197 -0.0652606)
(-4.57666e-05 -0.0613643 0.0562253)
(-0.000336161 -0.0671912 0.047461)
(-0.0142875 -0.0699974 0.0372842)
(-0.0302929 -0.0784893 0.0380321)
(-0.0536216 -0.0899748 0.0430306)
(-0.0742342 -0.0667272 0.0569621)
(-0.0454034 0.0363403 0.0656417)
(-0.0457285 0.091799 0.0606213)
(-0.11192 0.0199655 0.0649421)
(-0.0471326 -0.0519095 0.0384332)
(-0.00357204 -0.0454242 0.0393046)
(-0.0104082 -0.0501521 0.0366583)
(-0.0234531 -0.0551383 0.0344093)
(-0.0378777 -0.06092 0.0375238)
(-0.0609065 -0.0671706 0.0444297)
(-0.0932724 -0.0607863 0.0694668)
(-0.099882 -0.00515341 0.117401)
(-0.0657014 0.0712726 0.152035)
(-0.0731185 0.023184 0.167553)
(-0.0165443 -0.0832197 0.116644)
(-0.00517484 -0.0406996 0.0354805)
(-0.0134706 -0.0445433 0.0355904)
(-0.0255436 -0.0464982 0.0338745)
(-0.0391259 -0.0471772 0.0361652)
(-0.058217 -0.0459014 0.0430131)
(-0.0846359 -0.0364937 0.0639352)
(-0.102973 -0.00967885 0.114706)
(-0.0808465 0.0313525 0.178681)
(-0.032176 0.0190795 0.191964)
(0.0105997 -0.0567863 0.117186)
(-0.00516389 -0.0371826 0.0343498)
(-0.0132979 -0.0401811 0.0349844)
(-0.024747 -0.0402703 0.0324186)
(-0.0361332 -0.0383517 0.0335794)
(-0.0493416 -0.0334471 0.0383523)
(-0.0633886 -0.0210577 0.0508759)
(-0.0712608 0.00304652 0.0774912)
(-0.0567688 0.0265469 0.117596)
(-0.010948 0.0210288 0.131816)
(0.00984723 -0.019747 0.0833217)
(-0.0042765 0.0031546 0.0292195)
(-0.0125277 0.00230438 0.0277952)
(-0.0182548 0.00120015 0.0267684)
(-0.0219965 -0.000139086 0.0252208)
(-0.0233731 -0.00129111 0.0238286)
(-0.0226972 -0.00226674 0.0229117)
(-0.0200504 -0.00317153 0.022348)
(-0.0154549 -0.00417326 0.0224879)
(-0.00876658 -0.00500153 0.0233411)
(-0.00241546 -0.0035176 0.0202047)
(-0.00290136 0.00747553 0.0276814)
(-0.0112373 0.00501516 0.0256111)
(-0.0161919 0.00275223 0.0235438)
(-0.019473 0.000640236 0.0223443)
(-0.0211287 -0.00162387 0.021471)
(-0.020957 -0.00411607 0.0211953)
(-0.0189016 -0.00678752 0.0211552)
(-0.0148122 -0.00978576 0.0216392)
(-0.00847055 -0.012377 0.0228121)
(-0.00227928 -0.00872556 0.0204164)
(-0.00140078 0.013249 0.0272588)
(-0.0115267 0.00742966 0.0287801)
(-0.0188226 0.00441839 0.0271241)
(-0.0234001 0.00156729 0.0264889)
(-0.0258652 -0.0018705 0.0260597)
(-0.025837 -0.0062047 0.0260094)
(-0.0234704 -0.0109946 0.0262131)
(-0.0184401 -0.0164014 0.0268041)
(-0.0107362 -0.0210104 0.0281826)
(-0.002966 -0.0148852 0.0254387)
(0.000566271 0.0282551 0.0276258)
(-0.0121898 0.0156227 0.033173)
(-0.0222648 0.00961552 0.0325577)
(-0.0281663 0.00446181 0.0319867)
(-0.0316632 -0.00148858 0.0318618)
(-0.0320133 -0.0085073 0.0321058)
(-0.0294603 -0.0161196 0.0326346)
(-0.0235191 -0.0245627 0.0334744)
(-0.0139441 -0.0317183 0.0353219)
(-0.00368153 -0.0228419 0.032373)
(0.00228904 0.0429713 0.0310114)
(-0.0125424 0.0249488 0.0406062)
(-0.026859 0.015662 0.0415705)
(-0.0357113 0.00851627 0.0411047)
(-0.0406857 0.000478624 0.0410099)
(-0.0417968 -0.0102658 0.0416328)
(-0.0392198 -0.0218326 0.0431089)
(-0.0319827 -0.0340166 0.0451459)
(-0.0202038 -0.044522 0.0482306)
(-0.00682251 -0.0322521 0.0429175)
(0.00250003 0.0588765 0.0335186)
(-0.0143649 0.0387836 0.0455126)
(-0.0340429 0.0255013 0.0490378)
(-0.0462887 0.0130571 0.0508535)
(-0.0535579 4.22469e-06 0.0524643)
(-0.0550418 -0.0139763 0.0541765)
(-0.0501819 -0.0291637 0.057708)
(-0.0424374 -0.0454789 0.0638181)
(-0.0318248 -0.0599035 0.0661844)
(-0.0162655 -0.0476154 0.0501177)
(0.00336136 0.0837396 0.0260114)
(-0.0209508 0.0668996 0.0405864)
(-0.050686 0.0521565 0.0508182)
(-0.0645969 0.0351582 0.0569345)
(-0.0671178 0.0139198 0.0589743)
(-0.0641779 -0.0106538 0.0638898)
(-0.0600604 -0.036574 0.0765994)
(-0.0542571 -0.0604781 0.0849001)
(-0.0441037 -0.0805612 0.0775069)
(-0.0164245 -0.0753416 0.045967)
(0.00373329 0.0780907 0.0266222)
(-0.0171082 0.0647524 0.0372997)
(-0.0486168 0.0443348 0.0478332)
(-0.0747316 0.0149384 0.0652271)
(-0.0916334 -0.00984749 0.0828702)