/*--------------------------------*- C++ -*----------------------------------*\
| =========                 |                                                 |
| \\      /  F ield         | OpenFOAM: The Open Source CFD Toolbox           |
|  \\    /   O peration     | Version:  2312                                  |
|   \\  /    A nd           | Website:  www.openfoam.com                      |
|    \\/     M anipulation  |                                                 |
\*---------------------------------------------------------------------------*/
FoamFile
{
    version     2.0;
    format      ascii;
    arch        "LSB;label=32;scalar=64";
    class       volScalarField;
    location    "1.19";
    object      alpha.water;
}
// * * * * * * * * * * * * * * * * * * * * * * * * * * * * * * * * * * * * * //

dimensions      [0 0 0 0 0 0 0];

internalField   nonuniform List<scalar> 
8000
(
1
1
1
1
1
1
1
1
1
1
1
1
1
1
1
1
1
1
1
1
1
1
1
1
1
1
1
1
1
1
1
1
1
1
1
1
1
1
1
1
1
1
1
1
1
1
1
1
1
1
1
1
1
1
1
1
1
1
1
1
0.970707
0.986073
1
1
1
1
1
1
0.999995
0.999983
0.535249
0.577089
0.642657
0.697862
0.735711
0.744587
0.729615
0.691997
0.662072
0.665894
0.0208906
0.027581
0.0426381
0.0618332
0.0702754
0.0569503
0.0306836
0.0108051
0.00416086
0.0103025
0.000652307
0.000606283
0.000680637
0.000456937
0.000295735
0.000356318
0.00029267
7.14695e-05
2.52144e-05
2.3446e-05
0.000334691
0.000423734
0.000626652
0.000415013
0.000256964
0.000451658
0.000467953
0.000286275
0.000168377
8.43768e-05
0.000303303
0.000426017
0.000111871
0.000145529
0.000461617
0.000461669
0.000466469
0.000314484
9.18503e-05
1.0073e-05
0.000302056
0.00054191
0.00010704
0.000250715
0.00046165
0.000461617
0.00029291
1.18818e-05
1.09538e-05
1.00248e-05
0.000302056
0.000555759
7.52812e-05
0.000217597
0.000461617
0.000415326
1.40656e-05
1.27823e-05
1.29565e-05
1.6375e-05
0.000306576
0.000579532
0.000198991
4.39869e-05
0.000148074
3.7291e-05
1.11261e-05
2.0464e-05
5.85468e-05
5.60791e-05
0.000577554
0.000577752
0.000445914
9.3148e-06
8.84623e-06
9.70358e-06
9.51558e-06
2.05633e-05
0.000189329
0.000218244
0.000392315
0.000578946
0.000107946
8.84623e-06
8.10149e-06
1.85686e-05
7.62231e-06
1.76568e-05
0.000174538
0.000223292
0.000119566
0.000122221
1.90761e-05
2.90547e-05
0.000125861
0.000134638
6.79541e-05
4.49937e-06
2.13926e-05
0.000165053
1.02916e-05
5.61403e-06
2.71823e-05
0.000134644
0.000134644
0.000134834
0.000135174
8.13305e-05
4.05513e-06
6.57941e-06
5.61403e-06
5.04775e-06
7.13045e-06
4.64401e-05
0.000134384
0.000135174
0.000135445
0.000135727
8.87937e-05
9.51232e-06
1
1
1
1
1
1
1
1
1
1
1
1
0.999998
0.999999
1
1
1
1
1
1
1
0.99997
0.999968
0.999992
1
1
1
1
1
1
1
0.999964
0.999986
1
1
1
1
1
1
1
1
0.999995
1
1
1
1
1
1
1
1
1
1
1
1
1
1
1
1
1
1
0.988749
0.990997
1
1
1
1
1
1
0.999998
0.99999
0.54726
0.587332
0.642678
0.673881
0.699521
0.719872
0.724791
0.71134
0.698292
0.700887
0.0234112
0.0317748
0.0493643
0.0623842
0.0639281
0.0531227
0.040119
0.0293695
0.0239387
0.0274454
0.000692025
0.00064126
0.000364457
0.000231452
0.000209046
0.000207184
0.000113987
2.52885e-05
2.34451e-05
2.32447e-05
0.000343934
0.000445548
0.000193701
6.7262e-05
0.000132539
0.000304936
0.000338722
0.000178163
5.89157e-05
3.54923e-05
0.000298103
0.000474945
4.23585e-05
4.66304e-05
0.000145866
0.000423094
0.000282411
1.35543e-05
1.31829e-05
1.28808e-05
0.000447081
0.00022469
3.74735e-05
7.83806e-05
0.000435611
0.000454132
0.000102946
1.30979e-05
3.47868e-05
2.31972e-05
0.000495961
0.000229797
5.83791e-05
0.000447156
0.00045996
0.00029438
2.37827e-05
0.000112463
0.000227566
0.00022379
0.000516529
0.000267609
6.52099e-05
0.000432031
0.000420836
3.96052e-05
1.58641e-05
0.000208193
0.000227541
0.000227579
0.000549891
0.000423372
1.34295e-05
9.74434e-05
3.2195e-05
9.51558e-06
9.33033e-06
0.000147674
0.000227542
0.000227316
0.000516835
0.000324755
9.10073e-06
8.10149e-06
7.15418e-06
1.07909e-05
5.30051e-06
2.2457e-05
0.000185558
0.000227053
0.000407085
5.91397e-05
9.20165e-06
9.10073e-06
6.42636e-05
0.000116593
2.29256e-05
3.45242e-06
5.78956e-06
0.000142096
3.41734e-05
5.07979e-06
8.2991e-06
8.87308e-05
0.000134644
0.000134638
5.33319e-05
3.25039e-06
3.62223e-06
4.05513e-06
5.07979e-06
4.62684e-06
5.04326e-06
6.53545e-05
0.000133681
0.000131681
3.33229e-05
8.76285e-06
5.45209e-06
1.06975e-05
1
1
1
1
1
1
1
1
1
1
1
1
1
0.999998
1
1
1
1
1
1
1
0.999962
0.999895
0.999966
0.999999
1
1
1
1
1
1
0.99962
0.999622
0.999963
1
1
1
1
1
1
1
0.999594
0.999707
1
1
1
1
1
1
1
1
1
1
1
1
1
1
1
1
1
1
0.999999
1
1
1
1
1
1
1
0.999999
0.554069
0.587239
0.637893
0.650139
0.666921
0.712026
0.75133
0.773557
0.778937
0.781539
0.0232565
0.0292279
0.0451274
0.0508979
0.0480592
0.0470177
0.0468944
0.0516626
0.0570833
0.0620832
0.000666365
0.000700305
0.000272577
0.000274469
0.000137891
7.40089e-05
5.03221e-05
2.42655e-05
2.11248e-05
1.98844e-05
0.000298068
0.000675726
5.22709e-05
4.64372e-05
2.57745e-05
1.78018e-05
1.74831e-05
1.5132e-05
1.40901e-05
1.41894e-05
0.000258633
0.000865926
3.42538e-05
2.59839e-05
1.96161e-05
1.76119e-05
1.52603e-05
1.33493e-05
1.23825e-05
1.19775e-05
0.000499519
0.000290048
3.49131e-05
2.99156e-05
7.32174e-05
0.000180338
0.000136637
3.42965e-05
1.19775e-05
1.12509e-05
0.000505328
0.000303728
3.7595e-05
0.000249653
0.000450202
0.000447014
0.00043757
0.000228079
2.01571e-05
3.7663e-05
0.000509608
0.000422283
4.15463e-05
0.000435528
0.000443172
8.02886e-05
9.46516e-06
0.00012271
0.000227543
0.000227269
0.000516835
0.000509608
8.11281e-05
0.000140059
0.000131857
1.23592e-05
5.30051e-06
4.7863e-05
0.000219528
0.000227053
0.000509608
0.000507825
0.000219359
7.80583e-06
5.72726e-06
5.30051e-06
4.4363e-06
7.48903e-06
4.34615e-05
0.000187903
0.000364179
0.000400646
0.000133189
9.76713e-06
6.8712e-06
1.05309e-05
3.40778e-06
3.25039e-06
3.45242e-06
2.22153e-05
1.90599e-05
4.19953e-05
4.09615e-05
1.15107e-05
2.12864e-05
2.56706e-05
3.06357e-06
3.17617e-06
3.43379e-06
1.38961e-05
4.78342e-06
4.23569e-06
3.66762e-06
1.36305e-05
8.18815e-05
4.26993e-05
2.43546e-06
2.98935e-06
3.18799e-06
2.12634e-05
1
1
1
1
1
1
1
1
1
1
1
1
1
1
1
1
1
1
1
1
1
0.999976
0.999936
0.999968
0.999998
1
1
1
1
1
1
0.999868
0.99963
0.9999
1
1
1
1
1
1
1
0.999882
0.999667
0.99994
1
1
1
1
1
0.999996
1
0.999999
1
1
1
1
1
1
1
1
1
0.999999
0.999999
1
1
1
1
1
1
1
0.560379
0.585934
0.618471
0.646202
0.718489
0.789903
0.842446
0.864832
0.865497
0.865648
0.0277007
0.0269822
0.0342845
0.0341058
0.036938
0.0511372
0.0790058
0.102838
0.116443
0.122202
0.000591528
0.000737772
0.000300795
0.000216828
8.76553e-05
3.00413e-05
1.97425e-05
1.97129e-05
1.44576e-05
1.66974e-05
0.000232068
0.000935304
0.000103414
4.28966e-05
1.91047e-05
1.53928e-05
1.59961e-05
2.00063e-05
1.33922e-05
1.44615e-05
0.000172822
0.000911924
7.33111e-05
2.40349e-05
2.0076e-05
1.77835e-05
1.85698e-05
1.33991e-05
1.31394e-05
1.26815e-05
0.000227537
0.000384671
4.83777e-05
2.80569e-05
2.45785e-05
4.82997e-05
2.46667e-05
1.47018e-05
3.06479e-05
1.37301e-05
0.000379709
0.000180475
3.2293e-05
0.000207014
0.00044021
0.000220732
6.35047e-05
0.000201659
0.00021796
9.87859e-05
0.000369465
0.000219942
2.24486e-05
0.000215376
0.000425375
0.000107548
7.68695e-06
0.000171493
0.000227269
0.000224771
0.000283636
0.000317837
0.000324909
0.000342066
0.00026701
3.62059e-05
5.27679e-06
6.16215e-06
3.28177e-05
0.000169596
0.000170788
0.000325956
0.000343225
0.000343225
8.93554e-05
4.60062e-06
5.17058e-06
6.74275e-06
3.98296e-06
4.52298e-06
4.73297e-05
0.00020748
0.000343225
0.000276448
0.000164568
3.43284e-06
3.27544e-06
3.21927e-06
3.93646e-06
7.79457e-06
5.16127e-06
2.04781e-05
0.000130036
6.48755e-05
0.00010013
1.95974e-05
3.22013e-06
3.22013e-06
3.22013e-06
7.07965e-06
4.85792e-06
3.68943e-06
2.44137e-06
5.50724e-05
1.7734e-05
5.56413e-05
4.52846e-06
3.50061e-05
2.25036e-05
9.04058e-06
1
1
1
1
1
1
1
1
1
1
1
1
1
1
1
1
1
1
1
1
1
0.999999
0.999994
0.999997
1
1
1
1
1
1
1
1
0.999982
0.99998
0.999996
1
1
1
1
0.999999
1
1
1
0.99998
0.999993
1
1
1
1
0.999995
1
1
1
1
1
1
1
1
1
1
1
1
0.999075
1
1
1
1
1
1
0.999998
0.590895
0.616746
0.656391
0.726598
0.810223
0.877434
0.92197
0.937734
0.93918
0.94336
0.0462375
0.0312032
0.0215639
0.0173037
0.0356702
0.0807166
0.137825
0.183843
0.208413
0.225375
0.000461444
0.000460776
0.00024291
9.37524e-05
1.72829e-05
1.54234e-05
1.60026e-05
2.45516e-05
1.92822e-05
2.06734e-05
0.000152136
0.000548754
0.000124978
2.1048e-05
8.57418e-06
1.28625e-05
1.54277e-05
3.19903e-05
1.39307e-05
1.67112e-05
7.44989e-05
0.000397381
0.000128807
3.25984e-05
3.74301e-05
0.000184509
1.70629e-05
3.78909e-05
0.000135845
7.77941e-05
2.714e-05
0.000177
3.60164e-05
9.54778e-05
0.000308782
8.38227e-05
2.09686e-05
0.000158518
0.000199738
0.000194278
2.46342e-05
1.53967e-05
2.45799e-05
0.000265006
0.000413293
1.33623e-05
1.97843e-05
0.000178645
0.0002078
0.000198404
1.50816e-05
7.34834e-06
1.92933e-05
0.000214145
0.000395315
4.57699e-05
7.75718e-06
7.00051e-06
3.81059e-06
6.94859e-05
8.21987e-06
9.08153e-06
4.2256e-05
8.00958e-05
0.000208299
0.000100414
2.39487e-05
1.32445e-05
4.04011e-06
2.48062e-06
9.55208e-06
9.70633e-06
8.80233e-05
0.000161347
0.000279045
0.000217266
2.12551e-05
3.95992e-06
4.41575e-06
5.52219e-06
8.14613e-06
6.60906e-06
8.62559e-05
0.000279045
0.000279045
0.000273964
0.000103485
3.27544e-06
3.72714e-06
7.77773e-06
8.32555e-06
4.55464e-06
2.72192e-05
0.000186373
0.000279709
0.000281306
0.000258722
0.000193135
4.42734e-05
3.47015e-06
1.0029e-05
4.36108e-06
1.75826e-06
8.16969e-05
8.10783e-05
0.000107414
0.000251752
0.000249846
0.000229169
1.87038e-05
1
1
1
1
1
1
1
1
1
1
1
1
1
1
1
1
1
1
1
1
1
1
1
1
1
1
1
1
1
1
1
1
1
1
1
1
1
0.999999
0.999986
0.999999
1
1
1
1
0.999999
1
1
1
0.999982
0.999885
1
1
1
1
1
1
1
1
0.999996
0.99994
0.999306
0.999995
0.999998
0.999998
0.999998
0.999999
0.999999
0.999999
0.999996
0.999967
0.671716
0.705644
0.757053
0.805181
0.869724
0.929755
0.961305
0.975716
0.983283
0.988569
0.0710668
0.030921
0.0114824
0.0246535
0.0683132
0.147702
0.238111
0.316027
0.377046
0.424044
0.000321235
0.000179964
7.89956e-05
1.73011e-05
8.58265e-06
1.73141e-05
2.36597e-05
1.45639e-05
2.03414e-05
2.68576e-05
7.99201e-05
6.53808e-05
3.36937e-05
8.35237e-06
6.46265e-06
2.68235e-05
4.31519e-05
1.0557e-05
1.15509e-05
1.78993e-05
2.36857e-05
2.33892e-05
4.57804e-05
2.86412e-05
0.00014245
0.000232283
0.000221501
3.75335e-05
0.000120732
0.000101285
1.19021e-05
9.69856e-06
2.77012e-05
0.000151846
0.000354587
4.29514e-05
1.82492e-05
0.000183095
0.000194278
0.000190732
6.69404e-06
5.87193e-06
3.54783e-05
0.000354587
0.00036957
3.18911e-06
1.59164e-05
6.05381e-05
4.86803e-05
5.08487e-05
5.82841e-06
5.78287e-06
8.42426e-06
0.000219952
0.000378711
3.01107e-05
1.90083e-05
4.48064e-05
2.24379e-06
1.74116e-06
7.03098e-06
6.9054e-06
8.10797e-06
1.12298e-05
0.000162444
7.4842e-05
5.85994e-05
6.24857e-05
1.90855e-05
2.16189e-06
2.47125e-05
8.10797e-06
7.14942e-06
1.02247e-05
3.77148e-05
0.000179585
0.000154731
4.63408e-05
2.92006e-06
2.48062e-06
4.91507e-05
1.73592e-05
3.53994e-06
4.37637e-05
0.000195644
0.000282491
0.00028461
0.000216691
2.25333e-05
2.88555e-06
4.91605e-05
2.28525e-05
1.75824e-06
3.96569e-05
0.000234137
0.00028461
0.00028461
0.00028461
0.000118108
3.97005e-06
3.57736e-05
5.88081e-06
1.41787e-06
2.88595e-05
8.23636e-05
0.000106718
0.000192788
0.000196412
8.8928e-05
6.41792e-06
1
1
1
1
1
1
1
1
1
1
1
1
1
1
1
1
0.999999
1
1
1
1
1
1
1
1
1
1
0.999998
1
1
1
1
1
1
1
1
1
1
0.999987
0.999979
1
1
1
1
1
1
1
1
0.99997
0.999885
1
1
1
1
1
1
1
1
0.999987
0.999888
0.999986
0.999991
0.999993
0.999995
0.999996
0.999998
0.999999
0.999999
0.999991
0.999925
0.738215
0.770263
0.806436
0.851628
0.91165
0.957419
0.983805
0.996122
0.999817
0.999845
0.0920618
0.0469755
0.0297923
0.0587646
0.133262
0.244952
0.378989
0.507645
0.61279
0.682885
0.000148578
5.48346e-05
1.60798e-05
9.23582e-06
6.46291e-06
8.77385e-06
7.89642e-06
1.0557e-05
1.15506e-05
0.00484658
0.000147739
2.42922e-05
8.60535e-06
5.8591e-06
6.03614e-06
6.06246e-06
4.4269e-06
8.14696e-06
7.57482e-06
9.08968e-06
3.3843e-05
8.7224e-06
1.10095e-05
1.96991e-05
0.000241547
0.000229817
1.1899e-05
1.98983e-05
1.83745e-05
1.5693e-05
6.69404e-06
5.84303e-06
3.708e-05
0.000301946
0.000316544
1.9351e-06
2.25529e-05
5.13506e-05
3.38965e-05
6.10748e-05
5.23817e-06
5.30147e-06
4.03475e-05
0.000339971
0.000279618
2.20803e-06
2.51343e-05
4.64717e-05
1.19303e-05
1.74116e-06
5.66675e-06
5.59759e-06
5.80909e-06
0.00029033
0.000295225
1.59346e-05
1.16192e-05
3.09559e-05
2.9506e-05
1.6428e-06
0.00010157
4.04236e-05
8.45517e-06
3.76566e-05
9.48857e-05
3.52469e-05
6.77771e-05
7.45212e-05
1.51149e-05
1.74116e-06
0.000168806
0.000167658
5.38439e-05
9.57e-06
6.26259e-06
1.27996e-05
9.51413e-05
0.000128786
2.6297e-05
2.27163e-06
4.41506e-05
6.76888e-05
3.82303e-05
5.33908e-06
8.34925e-06
6.14617e-05
0.000208503
0.000173606
2.72116e-05
3.85242e-06
3.33568e-05
1.85011e-06
3.07617e-06
3.00018e-06
1.16002e-05
9.43242e-05
0.000157701
0.000105214
1.7271e-05
6.15768e-06
1.55331e-05
1.62779e-06
1.527e-06
1.72977e-06
1.36676e-05
4.24943e-05
3.09375e-05
9.87085e-06
5.92907e-06
7.78541e-06
1
1
1
1
1
1
1
0.999999
1
1
1
1
1
1
1
1
1
0.999991
0.999994
1
1
1
1
1
1
1
0.999999
0.999991
0.999994
1
1
1
1
1
1
1
1
0.999995
0.999986
0.999999
1
1
1
1
1
1
1
0.999999
0.999986
0.999893
0.999999
1
1
1
1
1
1
0.999999
0.999994
0.999934
0.999965
0.999981
0.999988
0.999993
0.999996
0.999998
0.999999
0.999998
0.999994
0.99995
0.76687
0.807468
0.840569
0.888088
0.944754
0.983868
0.999043
0.999913
0.999941
0.999914
0.124488
0.084384
0.0680001
0.113204
0.220316
0.379553
0.566421
0.740252
0.854902
0.920497
7.81811e-05
8.81952e-06
8.60556e-06
5.85911e-06
6.03617e-06
5.99459e-06
4.42691e-06
0.0198612
0.11143
0.201051
0.000127382
2.15977e-05
5.33865e-06
5.14567e-06
5.65954e-06
4.53091e-06
2.43951e-06
2.33478e-06
2.4369e-06
4.45213e-06
5.66446e-05
6.68135e-06
8.81756e-06
4.04507e-05
0.000240022
3.50833e-05
1.41036e-06
1.44002e-06
1.66626e-06
2.43376e-06
5.23817e-06
5.30155e-06
4.66228e-05
0.000317194
0.000154739
1.34251e-06
9.24994e-06
6.62747e-06
1.52579e-06
2.45942e-06
4.7413e-06
5.10056e-06
3.30317e-05
0.000331892
4.27403e-05
2.0544e-06
1.27736e-05
7.27289e-06
1.40434e-06
4.01197e-06
7.06055e-05
2.26256e-05
7.88917e-06
0.000275063
4.49634e-05
1.39466e-06
1.1495e-05
1.05989e-05
3.3945e-06
1.55313e-06
0.000194099
0.000190925
8.55766e-05
3.86449e-05
1.71579e-05
3.13234e-06
4.3902e-05
4.32602e-05
7.47501e-06
1.64272e-06
0.000105434
0.000188276
0.000184416
3.43932e-05
2.55793e-06
4.679e-06
3.83493e-05
4.41952e-05
1.22032e-05
1.89635e-06
2.76652e-05
5.37891e-05
8.64177e-05
2.18365e-05
3.135e-06
3.15638e-06
8.85474e-06
8.83161e-06
5.44981e-06
8.42374e-06
5.00636e-06
2.31789e-06
2.31915e-06
2.5798e-06
2.12642e-06
1.767e-06
2.10343e-06
2.73478e-06
3.28251e-06
3.99764e-05
3.16625e-05
1.80781e-06
1.72981e-06
2.08711e-06
2.28231e-06
2.40167e-06
2.47341e-06
2.99017e-06
1.31053e-05
6.17414e-05
1
1
1
1
1
1
1
1
0.999997
0.999999
1
1
1
1
1
1
1
0.999994
0.999987
1
1
1
1
1
1
1
1
0.999995
0.999989
0.999993
1
1
1
1
1
1
1
0.999999
0.999994
0.999978
1
1
1
1
1
1
1
0.999952
0.99978
0.999851
0.999999
1
1
1
1
1
1
0.999958
0.999781
0.999798
0.999939
0.99997
0.999983
0.999991
0.999996
0.999998
0.999999
0.999965
0.99993
0.999943
0.772922
0.809485
0.856468
0.916212
0.971806
0.997824
0.999898
0.999919
0.99991
0.999941
0.15462
0.122234
0.10252
0.168315
0.320862
0.533353
0.763065
0.897898
0.960649
0.991338
4.86348e-06
6.25009e-06
5.33865e-06
5.14567e-06
5.77648e-06
6.97687e-06
0.00917755
0.144866
0.300761
0.478697
8.59197e-06
5.4718e-06
4.68731e-06
4.75787e-06
5.14552e-06
3.24037e-06
1.39873e-06
1.4362e-06
1.66631e-06
2.6552e-06
2.37403e-05
5.37004e-06
1.05984e-05
9.90517e-05
0.000144251
1.33996e-06
1.33641e-06
1.35502e-06
1.43956e-06
1.66524e-06
5.10282e-06
5.30063e-06
4.23126e-05
0.000216638
2.10237e-05
1.32966e-06
1.33226e-06
1.33639e-06
1.35487e-06
1.52091e-06
4.63563e-06
4.7413e-06
2.3575e-05
0.000181657
1.34102e-06
1.32848e-06
1.32973e-06
1.33353e-06
1.35887e-06
1.65676e-06
0.00017623
0.00017337
2.48352e-05
7.74223e-05
2.7374e-06
1.32779e-06
1.56857e-06
1.63385e-06
1.388e-06
1.44771e-06
0.000194099
0.000194099
0.000101513
1.89462e-05
1.40852e-06
1.33466e-06
3.0674e-06
2.64881e-06
1.42384e-06
1.55289e-06
3.38809e-05
0.000122216
0.000173358
2.51256e-05
1.5442e-06
6.11102e-06
3.78004e-06
2.22039e-06
1.6377e-06
2.00367e-06
4.90127e-05
5.79875e-06
6.5712e-05
1.59439e-05
4.17399e-06
3.01861e-06
1.40742e-06
1.8218e-06
1.1044e-05
2.77115e-05
6.63821e-05
1.90657e-06
2.48177e-06
1.90887e-06
2.05437e-06
1.55149e-06
1.6332e-06
1.91179e-06
5.59676e-05
0.000117811
0.000116733
9.72168e-06
6.51733e-06
2.05606e-06
1.90968e-06
1.767e-06
1.91179e-06
1.91288e-05
0.000145022
0.000155379
1
1
1
1
1
1
1
1
1
0.99394
1
1
1
1
1
1
1
1
1
0.993951
1
1
1
1
1
1
1
1
1
0.993974
1
1
1
1
1
1
1
1
1
0.996212
1
1
1
1
1
1
0.999998
1
0.999964
0.99557
0.999998
0.999999
1
1
1
1
0.999999
1
0.999872
0.996653
0.999918
0.999951
0.999974
0.999988
0.999995
0.999997
0.999998
0.999999
0.999918
0.999706
0.788485
0.812877
0.875087
0.938199
0.984196
0.999789
0.999902
0.99996
0.999933
0.999792
0.180509
0.145831
0.141015
0.225799
0.393998
0.629088
0.829564
0.938003
0.994014
0.999607
4.50348e-06
4.84212e-06
4.68731e-06
4.75787e-06
6.95666e-06
2.10082e-05
0.0671368
0.241508
0.509751
0.805798
4.55737e-06
4.55037e-06
4.53517e-06
4.53517e-06
3.32299e-06
1.48229e-06
1.26981e-06
1.30858e-06
1.44899e-06
0.0811044
4.64391e-06
4.97878e-06
5.06367e-06
6.82253e-05
2.76132e-06
1.32952e-06
1.33225e-06
1.34166e-06
1.36813e-06
1.48572e-06
4.57099e-06
2.31967e-05
1.12194e-05
2.26704e-05
1.32946e-06
1.32848e-06
1.32966e-06
1.33223e-06
1.34861e-06
1.50046e-06
4.67167e-06
0.000106863
2.02981e-05
2.10261e-06
1.32847e-06
1.32779e-06
1.32848e-06
1.32973e-06
1.33354e-06
1.38993e-06
0.000202533
0.000198698
3.53074e-05
1.33782e-06
1.32779e-06
1.32716e-06
1.32729e-06
1.33116e-06
1.33594e-06
1.48822e-06
0.000140362
0.000115573
7.10214e-05
4.78213e-06
1.33023e-06
1.32665e-06
1.3263e-06
1.33203e-06
1.35896e-06
2.09257e-06
3.15895e-05
5.95471e-06
4.86799e-05
8.44827e-06
1.38591e-06
1.33042e-06
1.32632e-06
1.35245e-06
1.25135e-05
2.62361e-05
7.61259e-05
1.6398e-06
7.24107e-06
4.03765e-06
1.41966e-06
1.33389e-06
1.3731e-06
2.43906e-06
8.65128e-05
6.69902e-05
0.000123688
1.77058e-06
1.68343e-06
1.55525e-06
1.48425e-06
1.38678e-06
1.4074e-06
7.60422e-05
0.000154121
3.89614e-05
0.00013218
0.000130453
8.79709e-05
1.68343e-06
1.55651e-06
1.6479e-05
6.43119e-05
0.000162165
0.000158407
5.80105e-05
1
1
1
1
1
1
1
1
1
0.993904
1
1
1
1
1
1
1
1
1
0.995062
1
1
1
1
1
1
1
0.999998
1
0.997952
1
1
1
1
1
1
1
0.999998
1
0.998404
1
1
1
1
0.999984
0.999987
0.999998
1
1
0.996651
0.999998
0.999999
1
1
0.999991
0.999994
0.999999
1
1
0.997267
0.999934
0.999959
0.999977
0.999988
0.999986
0.99999
0.999997
0.999999
1
0.999602
0.813793
0.837295
0.893898
0.948352
0.987694
0.999765
0.999884
0.999958
0.999989
0.999803
0.210276
0.172546
0.177278
0.259987
0.423872
0.658928
0.849122
0.962389
0.999605
0.999683
4.4521e-06
4.50207e-06
4.53517e-06
4.53517e-06
9.548e-06
6.24261e-05
0.110898
0.33288
0.70191
0.926401
4.45038e-06
4.5004e-06
4.52889e-06
4.06861e-06
2.22971e-06
1.33832e-06
1.19549e-06
9.77573e-07
0.0207883
0.212042
4.45606e-06
3.5803e-05
3.83362e-06
2.22983e-06
1.34065e-06
1.32963e-06
1.33469e-06
1.33859e-06
1.34591e-06
1.39361e-06
4.53075e-06
0.000120183
3.44311e-06
1.44735e-06
1.32962e-06
1.32831e-06
1.32963e-06
1.33468e-06
1.3577e-06
1.43577e-06
4.51828e-05
0.000134031
2.71526e-05
1.34057e-06
1.32831e-06
1.32716e-06
1.32782e-06
1.33281e-06
1.34062e-06
1.43276e-06
0.000206238
8.46013e-05
6.13672e-05
2.51035e-06
1.32716e-06
1.32666e-06
1.32634e-06
1.3284e-06
1.33875e-06
1.80738e-06
0.000118608
3.6022e-06
2.44413e-05
9.38808e-06
1.32666e-06
1.32634e-06
1.32611e-06
1.32545e-06
3.23834e-06
1.52106e-05
5.52736e-05
1.41357e-06
1.73879e-06
4.88531e-06
1.3606e-06
1.32634e-06
1.32546e-06
1.32533e-06
6.2143e-05
5.90597e-05
0.000104836
1.55327e-06
1.44717e-06
1.3485e-06
1.33335e-06
1.33046e-06
1.32633e-06
5.44076e-05
8.76546e-05
4.07061e-05
0.000125363
8.90867e-05
4.00968e-06
1.48299e-06
1.34846e-06
1.33382e-06
6.04142e-05
0.000138701
8.66291e-05
5.7663e-06
1.36875e-05
3.72641e-05
8.93148e-05
7.03339e-05
7.94617e-05
0.000131837
0.000159683
0.000139018
4.61514e-05
5.2801e-06
1
1
1
1
1
1
1
1
1
1
1
1
1
1
1
1
1
0.999995
0.999992
1
1
1
1
1
1
1
1
0.999986
0.999985
1
1
1
1
1
0.999997
0.999998
1
0.999987
0.999985
0.999999
1
1
1
0.999999
0.99998
0.99998
0.999989
0.999999
0.999998
1
0.999999
1
1
0.999999
0.999992
0.999988
0.999996
0.999999
1
0.999999
0.999954
0.999976
0.999989
0.999992
0.999988
0.999985
0.999993
0.999998
0.999999
0.999999
0.837449
0.864006
0.900256
0.945126
0.983556
0.999649
0.999844
0.999935
0.99998
0.999993
0.199476
0.167007
0.177995
0.251123
0.396838
0.613439
0.810998
0.955012
0.999438
0.999805
4.45032e-06
4.4521e-06
4.71535e-06
4.80556e-06
5.45566e-06
2.96616e-05
0.101216
0.317435
0.674981
0.905273
4.4521e-06
4.4521e-06
8.41393e-06
4.53517e-06
3.67929e-06
1.47908e-06
1.33079e-06
1.3557e-06
0.0153881
0.170991
4.45161e-06
3.26172e-05
0.00016052
5.4295e-05
1.4782e-06
1.33857e-06
1.33808e-06
1.34259e-06
1.38759e-06
1.44343e-06
2.02656e-05
0.000188517
0.000205735
3.65616e-05
1.37678e-06
1.32961e-06
1.33467e-06
1.34728e-06
1.40517e-06
1.50464e-06
0.000250391
0.000119853
0.000155588
2.78052e-05
1.33721e-06
1.32831e-06
1.33369e-06
1.34049e-06
1.34984e-06
1.42813e-06
0.000207033
2.34111e-06
3.89447e-05
2.6286e-05
1.37534e-06
1.32715e-06
1.34451e-06
1.33949e-06
1.35041e-06
1.74896e-06
7.31121e-05
1.41357e-06
1.50004e-06
6.94557e-06
1.3615e-06
1.32666e-06
1.32634e-06
1.33033e-06
4.01904e-06
2.79765e-05
9.44348e-05
1.39488e-06
1.40371e-06
1.35505e-06
1.32817e-06
1.32656e-06
1.32616e-06
1.32513e-06
6.09659e-05
5.57118e-05
0.000105067
4.51965e-06
1.35845e-06
1.33845e-06
1.33224e-06
1.32817e-06
2.18456e-06
6.82425e-05
8.58959e-05
1.4184e-05
8.8063e-05
9.05354e-05
2.0474e-05
1.40462e-06
8.39606e-06
5.63289e-05
0.000113189
0.000115216
9.87094e-06
5.27988e-06
8.88258e-06
3.64204e-05
0.000120588
0.000152291
0.000132579
5.15539e-05
2.36639e-05
4.18558e-06
4.52566e-06
4.87803e-06
1
1
1
1
1
1
1
1
1
1
1
1
1
1
1
1
1
0.99999
0.99999
0.999999
1
1
1
1
1
1
0.999999
0.999985
0.999985
0.999996
1
1
1
1
1
1
0.999999
0.999994
0.999991
0.999997
1
1
1
1
0.999997
0.999998
1
1
1
1
0.999999
1
1
1
0.999997
0.999998
1
1
1
1
0.999967
0.999982
0.999994
0.999997
0.999994
0.999995
0.999996
0.999996
0.999998
0.999999
0.832432
0.859566
0.891453
0.933481
0.971322
0.994953
0.999808
0.999844
0.999934
0.999977
0.149578
0.128174
0.145602
0.211546
0.334453
0.502776
0.678611
0.840775
0.96734
0.999303
4.4521e-06
4.46039e-06
5.37511e-06
6.94319e-06
7.57897e-06
6.99773e-06
0.0619926
0.20516
0.428582
0.635578
4.27624e-05
0.000114331
0.000127653
3.45403e-05
5.45568e-06
4.22963e-06
1.57076e-06
1.9297e-06
1.42982e-06
0.0108461
7.66746e-05
0.000235438
0.000237612
0.000237061
4.12966e-05
1.47941e-06
1.34264e-06
1.38898e-06
1.44343e-06
1.47371e-06
0.000252485
0.000125883
0.000237128
0.000188532
9.21744e-06
1.37694e-06
3.1245e-06
2.4478e-05
1.43059e-06
1.54363e-06
0.000253145
1.27101e-05
0.000153949
8.16702e-05
2.65805e-06
1.3372e-06
5.21889e-06
1.35012e-06
1.36798e-06
1.42953e-06
0.000188239
1.42068e-06
6.43749e-06
9.22264e-06
1.37204e-06
1.33e-06
2.21475e-06
1.35319e-06
1.36301e-06
1.87723e-06
5.18919e-05
1.3949e-06
1.4108e-06
1.50439e-06
1.5667e-06
1.32757e-06
1.33049e-06
1.35415e-06
4.02778e-06
7.45722e-06
5.1795e-05
1.39324e-06
1.37429e-06
1.35618e-06
1.33414e-06
1.32816e-06
1.32652e-06
1.32233e-05
2.47223e-05
9.55704e-06
0.000104941
1.20811e-05
1.35834e-06
1.3425e-06
1.33842e-06
1.35427e-06
1.94891e-05
6.68442e-05
3.15577e-05
3.22769e-06
0.000104941
8.07299e-05
1.37429e-06
2.10261e-05
8.10836e-05
8.11894e-05
6.97387e-05
4.56553e-06
4.57359e-06
4.40243e-06
3.68766e-05
3.14037e-05
3.95545e-05
6.80191e-05
4.93225e-06
4.61221e-06
4.09991e-06
4.15236e-06
4.1788e-06
2.1323e-05
1
1
1
1
1
1
1
1
1
1
1
1
1
1
1
1
1
1
1
1
1
1
1
1
1
1
1
0.999999
0.999999
0.999999
1
1
1
1
1
1
1
0.999999
0.999995
0.999999
1
1
1
1
1
1
1
1
0.999997
1
1
1
1
1
1
1
1
1
0.999996
1
0.999985
0.999991
0.999997
0.999998
0.999998
0.999998
0.999996
0.999995
0.999991
0.999998
0.788568
0.806179
0.842808
0.902045
0.951925
0.979748
0.988617
0.999222
0.99981
0.999885
0.0815495
0.0716329
0.0884066
0.1432
0.246248
0.378872
0.493046
0.6194
0.76206
0.859933
4.46038e-06
5.37509e-06
7.53295e-06
8.98648e-06
7.91363e-06
7.26719e-06
0.00592286
0.0550658
0.129793
0.22609
0.000149424
0.000184696
0.000120011
1.36966e-05
6.53732e-06
6.99409e-06
4.53072e-06
1.99794e-06
1.4386e-06
-1.86542e-07
0.000305787
0.000297849
0.000205498
5.48796e-05
8.13065e-06
1.29192e-05
0.000153197
1.48642e-06
1.47373e-06
1.51646e-06
0.000297849
0.000199587
0.000213686
7.30341e-05
7.22226e-06
0.000180546
0.00029022
3.63312e-05
1.47378e-06
1.57147e-06
0.000193367
2.57544e-05
0.000137702
4.03002e-05
5.24057e-06
0.000180456
9.11004e-05
1.36826e-06
1.39296e-06
1.46524e-06
0.000131208
1.68709e-06
5.42818e-06
1.8782e-06
8.48636e-06
4.10116e-05
1.38015e-06
1.36602e-06
1.38022e-06
1.39596e-06
0.000120961
1.41957e-06
1.50361e-06
1.50455e-06
1.4515e-05
1.34707e-06
1.36534e-06
1.38023e-06
1.39588e-06
1.42639e-06
5.29073e-05
1.39319e-06
1.38334e-06
1.38339e-06
3.87906e-06
1.33413e-06
1.33095e-06
8.58415e-06
4.03388e-06
1.47752e-06
6.59236e-05
3.07661e-05
1.37429e-06
1.35834e-06
4.72479e-06
9.11124e-06
4.00944e-05
6.19808e-05
1.66644e-05
1.76634e-06
7.91431e-05
4.04623e-05
7.77392e-06
7.58082e-05
8.07964e-05
7.1701e-05
4.09991e-06
4.25395e-06
1.25172e-05
1.31823e-05
5.30134e-05
2.42588e-05
8.62317e-06
5.49797e-06
4.12128e-06
4.09991e-06
4.09891e-06
4.09991e-06
3.85464e-05
5.05947e-05
1
1
1
1
1
1
1
1
1
1
1
1
1
1
1
1
1
1
1
1
1
1
1
1
1
1
1
1
1
1
1
1
1
1
1
1
1
0.999994
0.999987
1
1
1
1
1
1
1
1
1
0.999847
0.999802
1
1
1
1
1
1
1
1
0.999919
0.999534
0.999387
1
1
1
0.999999
0.999998
0.999997
0.999995
0.999948
0.999856
0.680502
0.712666
0.760592
0.822536
0.893442
0.942139
0.965952
0.979328
0.987206
0.995407
0.0326983
0.035587
0.0464996
0.0789685
0.149332
0.246643
0.334746
0.4019
0.463474
0.530008
8.40321e-06
1.02646e-05
9.03029e-06
8.10173e-06
7.4324e-06
6.83557e-06
6.9362e-06
5.70012e-06
3.29712e-05
0.000149092
0.000320636
5.05273e-05
8.10212e-06
7.4324e-06
7.11713e-06
6.42082e-06
3.15148e-06
1.61695e-06
1.65199e-06
2.45554e-06
0.000319902
0.000168716
1.19448e-05
8.10212e-06
1.41914e-05
0.000265231
0.000285756
1.58271e-06
1.51653e-06
1.64298e-06
0.000212771
0.000222615
1.70968e-05
0.000113168
0.000139785
0.000294858
0.000294858
7.53229e-06
1.50252e-06
1.79289e-06
0.000154904
0.000171561
6.41848e-05
0.000235167
0.000265757
0.000294858
0.000125579
1.45534e-06
1.4211e-06
2.08037e-06
0.000153462
6.41826e-05
0.000110652
8.92486e-05
0.000104798
0.000125091
1.45784e-06
1.41803e-06
1.39572e-06
1.42039e-06
0.000186193
2.23146e-06
4.26314e-05
1.84505e-06
2.8842e-06
1.84379e-06
1.42313e-06
1.41847e-06
1.42111e-06
1.44595e-06
0.000123804
1.41957e-06
1.50361e-06
1.43968e-06
2.01085e-06
1.40959e-06
1.36559e-06
2.16667e-06
1.46803e-06
1.48578e-06
9.52115e-05
1.94791e-05
1.32567e-05
5.01209e-06
1.19822e-05
2.23156e-05
3.43573e-05
2.79417e-05
1.33628e-05
1.60305e-06
7.82702e-05
7.79947e-05
7.66161e-05
7.78488e-05
7.96611e-05
4.73129e-05
4.16513e-06
5.18072e-06
1.83376e-05
1.55862e-05
3.0022e-05
5.82358e-05
2.74434e-05
2.11491e-05
2.09569e-05
4.11799e-06
4.09991e-06
4.15871e-06
1.59991e-05
3.68559e-05
1
1
1
1
1
1
1
1
1
1
1
1
1
1
1
1
1
1
1
1
1
0.999998
0.999997
0.999999
1
1
1
0.999999
1
0.999998
1
1
0.999998
0.999999
1
1
1
0.999994
0.999979
0.999999
1
1
1
1
1
1
1
1
0.999756
0.999211
1
1
1
1
1
1
1
1
0.999871
0.999197
1
1
1
1
1
0.999999
0.999996
0.999994
0.999921
0.999751
0.523489
0.572561
0.642203
0.705007
0.777848
0.850577
0.902328
0.916749
0.92119
0.945377
0.00817665
0.0157572
0.0300593
0.0486027
0.0838101
0.13646
0.184645
0.213515
0.227491
0.265213
0.000160877
0.000115985
2.50968e-05
9.41315e-06
1.27137e-05
5.52309e-06
4.35511e-06
4.02291e-06
5.36572e-06
1.87168e-05
0.000263177
7.05185e-05
1.17855e-05
8.1e-06
3.61481e-05
4.84674e-06
3.79524e-06
3.22649e-06
1.95477e-06
5.2799e-06
0.000278432
7.44462e-05
1.8958e-05
2.35687e-05
6.63408e-05
5.63794e-05
2.70873e-05
4.46252e-06
1.65571e-06
1.94817e-06
0.000271419
0.000150826
2.19163e-05
0.000117265
0.000172692
9.40426e-05
4.35611e-05
2.15367e-06
1.6269e-06
1.99669e-06
0.000269859
0.000268255
8.60945e-05
0.000215959
0.000178244
7.10892e-05
3.3546e-05
3.36535e-06
1.48056e-06
4.00788e-06
0.000246399
0.000259809
0.000253338
0.000201424
5.82817e-05
2.0437e-05
1.15093e-05
3.64697e-06
1.42102e-06
2.27292e-06
0.000215884
0.000128745
0.000208959
6.74104e-05
2.45432e-06
1.79245e-06
1.53442e-06
1.50436e-06
1.44593e-06
1.48577e-06
0.00021703
1.85632e-06
2.09075e-05
2.01373e-06
1.79245e-06
1.54954e-06
1.43825e-06
1.49476e-06
1.48219e-06
1.52397e-06
0.000238552
4.98093e-06
6.76682e-06
5.75819e-06
5.8099e-06
1.66664e-06
1.58288e-06
3.29058e-06
8.20423e-06
5.5413e-06
0.000195685
7.06455e-05
2.91681e-05
2.11891e-05
4.10183e-05
5.51521e-05
5.344e-05
5.25288e-05
4.72435e-05
9.00202e-06
4.00579e-05
7.44655e-05
4.99233e-05
2.32375e-05
5.89875e-05
5.89875e-05
3.28832e-05
4.24362e-06
5.04016e-06
4.51322e-06
1
1
1
1
1
1
1
1
1
1
1
1
1
1
1
1
1
1
1
1
1
0.999985
0.999953
0.999978
0.999999
1
1
1
0.999999
0.999993
1
0.999954
0.999904
0.999964
1
1
1
1
0.999979
0.999983
1
0.999998
1
1
1
1
1
1
0.999957
0.999793
1
1
1
1
1
1
1
1
0.999985
0.99966
1
0.999556
1
1
1
1
0.999996
0.999993
0.999979
0.999854
0.42292
0.457372
0.543559
0.602591
0.653944
0.724445
0.781843
0.802927
0.808715
0.850089
0.00266624
0.00615231
0.0230036
0.0402013
0.0575184
0.0723705
0.0835835
0.0925648
0.100255
0.118263
0.00039864
0.000370602
0.000210003
3.15751e-05
1.22838e-05
5.41922e-06
4.01744e-06
1.59938e-05
1.44715e-05
1.26166e-05
0.000276625
0.000179199
6.57024e-05
1.26398e-05
1.92726e-05
4.57044e-06
2.74902e-06
2.75442e-05
1.55003e-05
1.09645e-05
0.000293172
0.000212538
6.70737e-05
7.67707e-06
1.54122e-05
1.05228e-05
1.9342e-06
1.0798e-05
3.59389e-06
7.19145e-06
0.000275227
0.00026549
5.73214e-05
4.04223e-06
4.09264e-06
6.77241e-06
1.84747e-06
1.77777e-06
1.77814e-06
2.19833e-06
0.000269987
0.000237711
9.72049e-06
3.01531e-06
2.2802e-06
1.84745e-06