/*--------------------------------*- C++ -*----------------------------------*\
| =========                 |                                                 |
| \\      /  F ield         | OpenFOAM: The Open Source CFD Toolbox           |
|  \\    /   O peration     | Version:  2312                                  |
|   \\  /    A nd           | Website:  www.openfoam.com                      |
|    \\/     M anipulation  |                                                 |
\*---------------------------------------------------------------------------*/
FoamFile
{
    version     2.0;
    format      ascii;
    arch        "LSB;label=32;scalar=64";
    class       surfaceScalarField;
    location    "0.775";
    object      phi;
}
// * * * * * * * * * * * * * * * * * * * * * * * * * * * * * * * * * * * * * //

dimensions      [0 3 -1 0 0 0 0];

oriented        oriented;

internalField   nonuniform List<scalar> 
22600
(
8.1434e-08
1.09166e-08
1.11231e-08
5.23932e-08
8.63473e-09
2.04062e-08
1.74973e-08
-6.52786e-10
3.55486e-08
-1.78694e-08
-1.48931e-08
5.02596e-08
-4.9815e-08
-3.0944e-08
6.28896e-08
-7.06165e-08
-5.13594e-08
7.21609e-08
-7.56728e-08
-7.29791e-08
7.80354e-08
-5.15757e-08
-1.03845e-07
7.97476e-08
-1.90436e-08
-1.20391e-07
8.78588e-08
-1.12442e-07
9.3398e-08
9.55507e-08
1.66943e-08
6.44791e-09
7.83729e-08
1.62992e-08
9.51323e-09
6.11772e-08
-2.06818e-09
1.86109e-08
4.4684e-08
-2.84588e-08
3.00589e-08
2.6415e-08
-5.51155e-08
4.24404e-08
1.23321e-08
-8.72843e-08
5.00078e-08
2.7158e-09
-1.12951e-07
4.95884e-08
1.47544e-08
-1.55238e-07
3.93544e-08
1.59835e-08
-1.72728e-07
5.11081e-08
-1.54454e-07
5.79961e-08
8.52316e-08
-2.97653e-08
6.7077e-08
5.29457e-08
-5.18736e-09
5.37724e-08
2.88839e-08
-3.05313e-08
5.25248e-08
9.32949e-09
-6.67127e-08
5.78083e-08
-9.60392e-09
-9.78741e-08
6.16921e-08
-3.38228e-08
-1.23398e-07
6.03326e-08
-5.0389e-08
-1.44976e-07
4.85908e-08
-4.40925e-08
-2.13861e-07
5.23268e-08
-2.48262e-08
-3.11135e-07
1.19141e-07
-2.96569e-07
1.17288e-07
1.22231e-07
-2.94825e-07
2.51753e-07
5.98492e-08
-1.40391e-07
1.97586e-07
1.20404e-08
-1.38321e-07
1.55598e-07
-3.29669e-08
-1.5093e-07
1.29225e-07
-8.54419e-08
-1.50217e-07
1.04818e-07
-1.2046e-07
-1.70982e-07
8.26026e-08
-1.24743e-07
-2.32538e-07
9.1845e-08
-1.48146e-07
-3.97314e-07
2.06857e-07
-1.45832e-07
-7.29692e-07
4.16242e-07
-7.07456e-07
2.65055e-07
1.63299e-07
-9.28437e-07
5.21423e-07
1.47573e-07
-5.83122e-07
4.58458e-07
1.00692e-07
-5.08578e-07
4.17138e-07
4.86725e-08
-4.54226e-07
3.55315e-07
-3.64815e-09
-3.62508e-07
2.64611e-07
-6.23042e-08
-3.09865e-07
1.97538e-07
-2.02251e-07
-3.5495e-07
2.62359e-07
-4.64937e-07
-6.89279e-07
5.5465e-07
-4.73217e-07
-1.60369e-06
8.82277e-07
-1.87088e-06
6.9021e-07
-2.4891e-07
-1.29856e-06
4.47598e-07
-1.1086e-07
-1.11045e-06
3.89282e-07
3.19599e-08
-1.12714e-06
4.75742e-07
2.2064e-07
-1.1761e-06
5.33191e-07
2.57307e-07
-8.98254e-07
4.9908e-07
7.1179e-08
-5.72725e-07
4.48988e-07
-3.00074e-07
-5.77424e-07
5.93727e-07
-5.99209e-07
-1.30936e-06
9.19219e-07
-6.14171e-07
-2.80544e-06
1.21672e-06
-3.5756e-06
1.09055e-06
-5.26973e-07
-7.0823e-07
-2.06635e-07
-5.32964e-07
-9.15442e-07
-1.89021e-07
-3.99303e-07
-1.34549e-06
8.46883e-08
-1.44055e-07
-1.85064e-06
4.19294e-07
-2.86846e-09
-1.69432e-06
6.54878e-07
-1.79535e-07
-1.14144e-06
7.45382e-07
-4.96626e-07
-1.22795e-06
9.67615e-07
-5.87644e-07
-2.49763e-06
1.27928e-06
-6.82488e-07
-3.93901e-06
1.22841e-06
-4.77679e-06
5.18697e-07
-6.64553e-07
1.96246e-06
-2.17805e-06
-6.71322e-07
1.22452e-06
-2.1332e-06
-2.88985e-07
1.66788e-07
-1.89462e-06
1.02487e-07
-1.05747e-06
-1.18464e-06
3.8995e-07
-1.71906e-06
-2.62724e-07
2.32763e-07
-1.57673e-06
5.92478e-07
3.89689e-08
-2.03062e-06
9.96464e-07
-2.10951e-07
-3.48559e-06
1.23788e-06
-7.61576e-07
-4.65095e-06
1.26257e-06
-5.04778e-06
-4.90581e-07
-1.76608e-06
6.71309e-06
-4.31393e-06
-1.48156e-06
5.5884e-06
-4.6484e-06
-9.2564e-07
3.9833e-06
-4.37243e-06
-3.95035e-07
2.53423e-06
-4.1223e-06
7.1035e-08
1.4421e-06
-3.62723e-06
4.93509e-07
4.31227e-07
-2.43043e-06
7.65005e-07
-7.94636e-07
-1.50748e-06
4.35979e-07
-2.71011e-06
-4.46452e-07
-5.94414e-07
-4.4768e-06
8.56242e-07
-4.3616e-06
-1.28059e-06
-3.24259e-06
5.48464e-06
1.57832e-06
-3.07164e-06
3.19879e-06
2.21866e-06
-2.46659e-06
1.41064e-06
1.96761e-06
-2.30271e-06
5.97497e-07
1.77286e-06
-1.98233e-06
3.4373e-07
7.77989e-07
-1.3607e-06
5.43853e-07
-7.34256e-07
-1.11387e-07
-1.21894e-06
-8.25005e-07
4.05727e-07
-2.71227e-06
-5.14954e-07
-5.14459e-07
-4.1886e-06
6.31987e-07
-4.0732e-06
-8.02859e-07
-5.33002e-06
8.0167e-06
-2.53411e-06
-5.42363e-06
5.62519e-06
-2.33279e-06
-5.68931e-06
4.62023e-06
-2.94391e-06
-6.25419e-06
4.22543e-06
-3.06306e-06
-6.82436e-06
2.14045e-06
-1.22655e-06
-5.66439e-06
-1.52985e-06
9.13732e-07
-1.96041e-06
-6.11365e-06
1.19072e-06
2.87518e-07
-5.79538e-06
8.35189e-07
-1.63232e-07
-4.20313e-06
4.65276e-07
-3.7885e-06
-4.47934e-07
-7.36356e-06
1.45673e-05
-3.98178e-06
-8.35221e-06
1.12818e-05
-4.66795e-06
-8.53963e-06
9.96879e-06
-5.16114e-06
-8.39056e-06
8.78591e-06
-4.70954e-06
-8.15258e-06
5.42823e-06
-3.52576e-06
-7.59598e-06
-4.27289e-07
-1.65916e-06
-6.57699e-06
-5.43235e-06
-1.70029e-06
-2.46677e-06
-9.00761e-06
-8.97984e-07
-4.28336e-08
-6.05335e-06
-5.7372e-07
-3.50437e-06
-3.26962e-07
-7.19468e-06
1.93253e-05
-1.23788e-06
-9.29398e-06
1.62488e-05
-2.86772e-06
-9.40676e-06
1.46376e-05
-4.55608e-06
-8.54795e-06
1.26847e-05
-4.75759e-06
-7.90446e-06
8.67255e-06
-3.88781e-06
-8.55708e-06
3.36809e-06
-3.14276e-06
-8.60305e-06
-1.35361e-06
-4.03277e-06
-6.41927e-06
-4.87686e-06
-6.31453e-06
-7.71203e-07
-7.29065e-06
-4.41077e-06
-4.93309e-06
6.57513e-07
-6.02599e-06
1.95792e-05
2.59205e-06
-8.6202e-06
1.81794e-05
6.63581e-07
-9.55693e-06
1.74763e-05
-1.90197e-06
-9.64764e-06
1.54478e-05
-2.67238e-06
-1.02551e-05
1.13868e-05
-2.10676e-06
-1.03346e-05
6.07334e-06
-2.62571e-06
-8.38778e-06
2.02778e-06
-5.32822e-06
-7.17163e-06
-6.25322e-07
-5.4677e-06
-1.21227e-06
-1.31281e-05
-1.21886e-07
-7.71483e-06
1.56947e-06
-4.68527e-06
1.58503e-05
4.95624e-06
-6.33367e-06
1.59145e-05
3.91329e-06
-7.9613e-06
1.75432e-05
1.56073e-06
-9.09176e-06
1.64667e-05
1.11556e-07
-9.56964e-06
1.21844e-05
-3.19724e-07
-8.1403e-06
6.84581e-06
-2.20181e-06
-3.91177e-06
3.41133e-06
-5.61208e-06
3.07664e-06
4.50326e-07
-8.06405e-06
2.43241e-06
-5.34976e-06
-7.13412e-06
-4.77836e-06
-5.04045e-07
-3.7575e-06
1.03883e-05
5.59065e-06
-3.48445e-06
1.03447e-05
5.29676e-06
-4.93475e-06
1.48549e-05
4.13861e-06
-7.22983e-06
1.58904e-05
2.87138e-06
-8.08016e-06
1.17964e-05
1.23831e-06
-4.69851e-06
5.74451e-06
-2.28036e-06
1.39006e-06
2.57037e-06
-5.24762e-06
6.63046e-06
1.58622e-06
-6.37629e-06
4.62788e-06
2.19929e-06
-5.54647e-06
2.71074e-07
-4.21514e-07
-2.17827e-06
6.20215e-06
4.39758e-06
-1.31637e-06
5.03999e-06
4.44285e-06
-2.52311e-06
1.13753e-05
4.68638e-06
-5.76103e-06
1.47028e-05
4.42551e-06
-6.96804e-06
1.0815e-05
2.18838e-06
-2.17393e-06
4.20689e-06
-3.25648e-06
3.77313e-06
1.89281e-06
-5.2695e-06
6.88994e-06
3.22802e-06
-4.75861e-06
5.99869e-06
5.76067e-06
-2.67016e-06
4.0629e-06
2.20688e-06
6.00462e-07
4.4047e-06
2.41476e-06
1.28082e-09
3.20091e-06
2.43825e-06
-2.05572e-06
1.00039e-05
3.42836e-06
-5.68011e-06
1.36855e-05
4.64166e-06
-6.24801e-06
9.29793e-06
2.08498e-06
-8.2769e-07
2.77538e-06
-3.98881e-06
4.50651e-06
2.4304e-06
-5.87178e-06
7.51473e-06
5.28699e-06
-5.06718e-06
6.21717e-06
8.3977e-06
-1.33947e-06
7.0444e-06
3.23567e-06
2.42679e-06
3.87382e-06
1.31303e-06
-6.16689e-08
4.28557e-06
1.40381e-06
-3.47494e-06
1.13021e-05
2.11508e-06
-6.98096e-06
1.32006e-05
3.9909e-06
-5.50538e-06
7.87185e-06
-4.95063e-08
9.60869e-08
2.81181e-06
-5.6379e-06
4.68197e-06
4.46839e-06
-6.62388e-06
7.79207e-06
8.08408e-06
-5.90718e-06
6.17857e-06
1.12174e-05
-1.2062e-06
9.55134e-06
3.67164e-06
2.8007e-06
1.50737e-06
3.31598e-06
-1.31105e-06
1.85545e-06
6.54187e-06
-5.56488e-06
1.83261e-06
1.37234e-05
-8.05752e-06
2.47814e-06
1.32151e-05
-4.5884e-06
-2.70089e-06
7.10363e-06
5.04454e-07
-6.83448e-06
4.55345e-06
4.60487e-06
-7.24691e-06
7.61488e-06
7.66246e-06
-6.57121e-06
1.15977e-05
6.03604e-06
-1.45648e-06
1.43003e-05
3.89082e-06
1.16966e-05
4.96056e-08
-5.31849e-08
1.27448e-07
-1.27643e-08
-4.67419e-08
1.29518e-07
-6.77765e-08
-5.01381e-08
1.40699e-07
-1.0931e-07
-6.11391e-08
1.52932e-07
-1.37856e-07
-7.36721e-08
1.65107e-07
-1.48444e-07
-9.36027e-08
1.76352e-07
-1.35529e-07
-1.21556e-07
1.86677e-07
-7.52346e-08
-1.76447e-07
1.959e-07
-1.37573e-08
-1.86779e-07
2.1316e-07
-1.11432e-07
1.91072e-07
7.02162e-08
-1.19096e-07
1.17787e-07
2.19531e-08
-9.67444e-08
1.07779e-07
-1.8836e-08
-1.00436e-07
1.09697e-07
-5.49311e-08
-1.15458e-07
1.20473e-07
-8.26868e-08
-1.35986e-07
1.3251e-07
-9.95683e-08
-1.68603e-07
1.4189e-07
-9.52099e-08
-2.20821e-07
1.44495e-07
-3.23096e-08
-3.47524e-07
1.47532e-07
2.21666e-08
-3.62212e-07
1.72065e-07
-1.62595e-07
1.31326e-07
4.13342e-08
-1.44461e-07
1.70193e-07
-3.38401e-08
-1.09425e-07
1.41627e-07
-9.07951e-08
-1.24308e-07
1.33352e-07
-1.31676e-07
-1.56575e-07
1.39806e-07
-1.69206e-07
-1.86968e-07
1.50204e-07
-2.14248e-07
-2.19312e-07
1.56084e-07
-2.42839e-07
-3.11028e-07
1.6739e-07
-1.51832e-07
-6.16762e-07
2.30558e-07
-1.95641e-08
-7.01811e-07
3.26471e-07
-2.73315e-07
2.08444e-07
4.28218e-08
-1.27504e-07
3.0909e-07
-6.6046e-08
-6.02852e-08
2.57314e-07
-1.59058e-07
-9.23564e-08
2.16659e-07
-2.40526e-07
-1.43847e-07
1.97965e-07
-3.1922e-07
-2.01479e-07
1.98024e-07
-4.10192e-07
-2.52169e-07
2.06431e-07
-4.72059e-07
-4.34234e-07
2.76918e-07
-4.45931e-07
-9.66919e-07
5.30886e-07
-2.515e-07
-1.20964e-06
7.29637e-07
-6.1736e-07
3.576e-07
1.19072e-07
-9.45801e-08
4.82319e-07
7.69205e-09
8.05116e-08
4.29042e-07
-1.25257e-07
6.15647e-08
3.96165e-07
-2.46937e-07
-3.07902e-08
3.63938e-07
-3.23946e-07
-1.81509e-07
3.2165e-07
-4.31164e-07
-2.55686e-07
3.08273e-07
-6.24107e-07
-4.63132e-07
4.842e-07
-8.47946e-07
-1.17144e-06
9.83009e-07
-6.27641e-07
-1.80312e-06
1.25546e-06
-1.26007e-06
7.05281e-07
4.0344e-08
-6.15493e-08
4.63271e-07
9.72778e-09
1.06483e-07
3.93926e-07
2.79295e-08
2.68615e-08
4.92244e-07
1.52145e-08
-4.5648e-08
5.60764e-07
-8.34218e-08
-1.79118e-07
5.95325e-07
-2.81246e-07
-2.41842e-07
6.32968e-07
-5.96804e-07
-4.57046e-07
9.03199e-07
-9.14277e-07
-1.36221e-06
1.42747e-06
-7.55849e-07
-2.32441e-06
1.57958e-06
-2.13987e-06
1.2145e-06
-1.70979e-07
3.57577e-07
-1.94639e-07
-4.33161e-07
3.04795e-07
-1.25151e-07
-6.76845e-07
1.52837e-07
2.02397e-07
-6.65595e-07
-1.06658e-07
4.69054e-07
-4.97443e-07
-4.91521e-07
7.99128e-07
-4.87577e-07
-5.9543e-07
1.0891e-06
-6.09054e-07
-8.26673e-07
1.45872e-06
-7.09706e-07
-1.77416e-06
1.79187e-06
-5.95218e-07
-2.66429e-06
1.45379e-06
-3.05569e-06
8.393e-07
-3.22402e-07
1.345e-06
-3.33419e-06
-3.6742e-09
9.43924e-07
-3.09105e-06
6.29689e-08
8.86758e-07
-2.69518e-06
-6.84775e-08
4.91101e-07
-1.65095e-06
-1.57449e-07
-4.35274e-07
-2.29999e-07
-1.24605e-07
-9.99666e-07
9.6387e-07
-2.05495e-07
-1.31497e-06
1.56565e-06
-4.63765e-07
-2.07294e-06
1.79494e-06
-2.91836e-07
-2.88876e-06
1.31511e-06
-3.40801e-06
-4.30098e-07
-1.59425e-06
4.72677e-06
-8.50784e-06
-1.85436e-07
3.4721e-06
-8.58539e-06
7.8875e-07
3.04779e-06
-7.50765e-06
6.04488e-07
2.24109e-06
-5.68803e-06
2.85388e-07
6.66398e-08
-3.81005e-06
6.46305e-07
-1.1117e-06
-2.67932e-06
8.78839e-07
-9.85058e-07
-2.06993e-06
4.48325e-07
-8.6775e-07
-1.22113e-06
6.65766e-07
-2.22228e-06
-2.76769e-08
-2.17705e-06
-1.84579e-06
-4.98568e-06
1.09912e-05
-3.02161e-06
-6.1062e-06
1.06169e-05
-3.80566e-06
-5.45893e-06
9.81174e-06
-5.44362e-06
-3.80781e-06
6.87072e-06
-4.5079e-06
-2.47949e-06
6.6727e-07
-1.15096e-06
-1.86983e-06
-4.42018e-06
1.96458e-06
-6.27177e-07
-4.79064e-06
1.73791e-06
3.07762e-08
-3.2244e-06
1.18375e-06
7.46357e-07
-3.86202e-06
1.55614e-06
-1.12469e-06
-1.10886e-06
-3.13895e-06
1.12984e-05
-1.98697e-06
-4.29816e-06
1.07441e-05
-1.30075e-06
-4.34234e-06
9.81604e-06
-2.90402e-06
-3.90905e-06
8.14506e-06
-4.77069e-06
-4.399e-06
5.66229e-06
-5.73162e-06
-5.45659e-06
2.0079e-06
-4.45677e-06
-3.50329e-06
-7.25689e-07
-4.82752e-06
-1.49162e-06
-9.73877e-06
5.33788e-06
4.1975e-07
-9.95671e-06
4.64859e-06
-1.63142e-06
4.78548e-07
1.32582e-07
1.33043e-05
-4.45836e-06
-1.0554e-06
1.15267e-05
-4.26256e-06
-1.68891e-06
1.03204e-05
-5.03203e-06
-1.77156e-06
9.36394e-06
-5.84576e-06
-6.27049e-07
7.94258e-06
-6.95055e-06
1.11245e-06
6.13576e-06
-7.52652e-06
3.8796e-06
3.08735e-06
-8.28049e-06
2.89411e-06
-2.87784e-06
-6.77342e-06
-5.87878e-07
-2.27809e-06
-4.77034e-06
-6.02618e-06
3.47992e-06
1.13853e-06
1.65915e-05
-2.06557e-06
-7.12753e-07
1.37341e-05
-3.22381e-06
-2.15818e-06
1.17553e-05
-4.54548e-06
-3.09243e-06
1.06984e-05
-5.15786e-06
-2.19512e-06
9.21685e-06
-6.0594e-06
2.7903e-07
7.4015e-06
-6.88264e-06
4.09641e-06
3.38481e-06
-8.14762e-06
3.47472e-06
2.89214e-06
-1.14628e-05
3.89358e-06
1.41784e-06
-8.52556e-06
-4.97252e-06
3.49744e-06
-2.65445e-08
1.97049e-05
2.60073e-06
-3.50271e-06
1.68337e-05
1.04014e-06
-5.85251e-06
1.37772e-05
-1.57414e-06
-6.46759e-06
1.17334e-05
-3.0922e-06
-5.12124e-06
9.14815e-06
-3.38442e-06
-1.73282e-06
5.62139e-06
-4.23403e-06
2.21215e-06
6.9352e-07
-6.5819e-06
3.18872e-06
4.03758e-06
-7.58971e-06
3.28386e-06
6.14402e-06
-4.94321e-06
-2.38317e-06
2.26399e-06
-1.44561e-06
2.01659e-05
7.26727e-06
-5.36018e-06
1.85557e-05
6.10585e-06
-8.52723e-06
1.62947e-05
2.21031e-06
-9.45114e-06
1.26561e-05
1.12726e-07
-7.35831e-06
7.31907e-06
-5.83483e-07
-1.72735e-06
7.33547e-07
-2.94494e-06
4.31881e-06
-3.86454e-06
-7.10019e-06
7.3702e-06
4.14815e-07
-7.49267e-06
3.27309e-06
8.81424e-06
-5.70725e-06
-2.11565e-06
2.5015e-06
-2.55031e-06
1.77083e-05
9.83429e-06
-4.65746e-06
1.65799e-05
9.37967e-06
-7.8543e-06
1.74336e-05
6.19652e-06
-9.66335e-06
1.38217e-05
3.51489e-06
-7.08049e-06
5.22571e-06
7.48806e-07
-6.70993e-08
-3.41811e-06
-5.14209e-06
5.22662e-06
-6.00112e-06
-8.40476e-06
7.13254e-06
-4.26955e-07
-7.44043e-06
5.09889e-06
9.81087e-06
-4.50945e-06
4.97158e-07
2.06456e-06
-2.46974e-06
1.39752e-05
9.00857e-06
-2.68255e-06
1.18752e-05
9.3604e-06
-5.03602e-06
1.61773e-05
8.29618e-06
-7.53089e-06
1.48157e-05
5.92629e-06
-4.92642e-06
3.80864e-06
1.00099e-06
1.09334e-06
-4.59844e-06
-8.09592e-06
4.36374e-06
-5.15061e-06
-9.39042e-06
5.45432e-06
1.7478e-06
-8.02393e-06
5.0624e-06
1.03492e-05
-2.81657e-06
5.09906e-06
2.66737e-06
-3.72727e-07
1.05048e-05
6.11685e-06
-4.38298e-07
7.90373e-06
6.47529e-06
-2.61204e-06
1.41901e-05
7.58935e-06
-5.52629e-06
1.59612e-05
6.41044e-06
-3.16719e-06
3.14642e-06
3.88096e-07
1.22884e-06
-4.0983e-06
-8.88499e-06
2.62659e-06
-2.50978e-06
-9.91036e-06
3.67331e-06
5.1994e-06
-9.5655e-06
3.76296e-06
1.19572e-05
-3.03717e-06
9.12395e-06
2.97374e-06
3.35125e-06
7.44532e-06
4.35736e-06
1.52919e-06
6.65951e-06
4.4701e-06
-1.42666e-06
1.36168e-05
5.64416e-06
-3.8693e-06
1.71966e-05
5.19812e-06
-1.73237e-06
3.48036e-06
-2.52037e-06
6.60953e-07
-2.41966e-06
-9.70986e-06
8.44025e-07
1.21744e-06
-1.05342e-05
1.90297e-06
9.12007e-06
-1.08868e-05
2.60196e-06
1.4887e-05
-4.835e-06
1.29269e-05
2.47061e-06
6.11551e-06
4.03612e-06
4.49586e-06
3.18686e-06
4.54557e-06
6.89804e-06
-1.19545e-06
4.66814e-06
1.51636e-05
-3.25848e-06
3.37465e-06
1.83632e-05
-1.20674e-06
-6.39084e-06
5.11857e-06
-4.69327e-07
-1.02914e-05
2.99799e-07
-6.24599e-07
-1.12146e-05
5.3404e-06
2.9609e-07
-1.15356e-05
1.31638e-05
1.6217e-06
-6.29709e-06
1.84021e-05
1.94024e-06
1.64992e-05
5.80196e-08
-1.09121e-07
2.88811e-07
4.51253e-09
-9.10421e-08
2.74067e-07
-4.2482e-08
-7.65275e-08
2.64221e-07
-7.83796e-08
-7.10679e-08
2.59898e-07
-1.03886e-07
-7.24213e-08
2.63035e-07
-1.15343e-07
-8.32253e-08
2.71034e-07
-1.07358e-07
-1.05217e-07
2.83908e-07
-5.69665e-08
-1.58106e-07
3.03614e-07
-5.4669e-09
-1.68302e-07
3.29963e-07
-8.54147e-08
2.7102e-07
7.57744e-08
-2.33656e-07
2.82023e-07
4.2099e-08
-1.98321e-07
2.48733e-07
1.22286e-08
-1.6396e-07
2.27e-07
-1.45529e-08
-1.43727e-07
2.19914e-07
-4.10051e-08
-1.37175e-07
2.23716e-07
-6.05468e-08
-1.53814e-07
2.3202e-07
-6.13896e-08
-2.03391e-07
2.43511e-07
-7.90264e-09
-3.32121e-07
2.6806e-07
3.35299e-08
-3.36295e-07
2.98625e-07
-1.21875e-07
2.01317e-07
5.38968e-08
-3.0025e-07
3.0139e-07
-1.68967e-09
-2.68049e-07
2.66941e-07
-4.13883e-08
-2.33773e-07
2.42863e-07
-7.49798e-08
-2.11097e-07
2.40767e-07
-1.08646e-07
-2.0488e-07
2.51575e-07
-1.50386e-07
-2.22683e-07
2.66693e-07
-1.75442e-07
-3.13071e-07
3.02126e-07
-7.33272e-08
-6.06363e-07
4.02685e-07
3.31888e-08
-5.95083e-07
4.78744e-07
-1.58452e-07
2.7821e-07
4.92261e-08
-2.51111e-07
3.18927e-07
-2.84675e-08
-2.45504e-07
3.12462e-07
-8.68891e-08
-2.48046e-07
2.89354e-07
-1.47961e-07
-2.34579e-07
2.82519e-07
-2.33745e-07
-2.28987e-07
3.07916e-07
-3.56274e-07
-2.52246e-07
3.58524e-07
-4.28656e-07
-4.40752e-07
4.7698e-07
-3.02205e-07
-9.44189e-07
7.4226e-07
-7.43008e-08
-9.11321e-07
8.17971e-07
-2.84644e-07
4.09491e-07
5.72415e-08
-7.09605e-08
3.3402e-07
-5.26822e-08
-6.87329e-08
3.62194e-07
-1.55746e-07
-1.27645e-07
3.78828e-07
-2.4862e-07
-1.49575e-07
3.71809e-07
-3.32134e-07
-2.06816e-07
3.82992e-07
-4.76115e-07
-2.41803e-07
4.41811e-07
-6.37461e-07
-4.5497e-07
6.59764e-07
-6.57499e-07
-1.01879e-06
1.07765e-06
-3.89577e-07
-9.97473e-07
1.07369e-06
-4.25203e-07
4.56263e-07
9.61399e-08
1.01324e-07
3.04487e-07
6.47027e-09
6.16234e-08
3.5324e-07
-8.33374e-08
-1.99143e-08
4.74321e-07
-2.04045e-07
-1.14245e-08
5.43322e-07
-3.56971e-07
-6.91952e-08
6.1063e-07
-5.58671e-07
-1.44665e-07
7.3753e-07
-7.90337e-07
-3.59265e-07
1.03916e-06
-9.18827e-07
-8.77036e-07
1.4142e-06
-6.48184e-07
-8.64312e-07
1.17578e-06
-5.98377e-07
7.39492e-07
-2.11625e-08
4.46533e-07
-2.46917e-07
-3.40412e-07
2.97126e-07
-4.14053e-08
-5.46744e-07
1.75242e-07
2.13573e-07
-6.68606e-07
1.02795e-07
4.76696e-07
-6.94046e-07
1.12927e-08
7.44079e-07
-7.70491e-07
-5.48016e-08
1.07569e-06
-8.89911e-07
-2.42682e-07
1.46155e-06
-9.57702e-07
-7.41425e-07
1.72405e-06
-7.00521e-07
-9.69924e-07
1.30223e-06
-1.35529e-06
8.95686e-07
9.18185e-08
3.93432e-08
-3.5333e-06
5.87613e-07
-8.71201e-08
-3.2026e-06
6.16253e-07
2.19552e-07
-2.76813e-06
1.76329e-07
7.48801e-07
-1.85703e-06
-2.71645e-07
6.67745e-07
-4.38478e-07
-4.85244e-07
2.2648e-07
8.96188e-07
-6.73834e-07
-2.20644e-07
1.73221e-06
-7.77681e-07
-8.31147e-07
1.98851e-06
-4.78051e-07
-1.26331e-06
1.30887e-06
-1.84223e-06
-4.21207e-07
-4.29429e-06
-5.63612e-08
-8.53887e-06
-2.09818e-06
-2.35554e-06
-8.51307e-06
2.01339e-07
-2.02811e-06
-7.55951e-06
9.03728e-07
-7.01557e-07
-4.94006e-06
6.40599e-07
-8.52049e-08
-2.79397e-06
8.40485e-07
-1.26629e-06
-1.38643e-06
1.4917e-06
-2.06743e-06
-8.74362e-07
1.76255e-06
-1.38651e-06
-9.36617e-07
2.00132e-06
-1.33085e-06
-1.98909e-07
-1.848e-07
-1.5019e-06
-6.56904e-06
3.14719e-06
-5.49125e-06
-7.27965e-06
1.0431e-06
-6.49368e-06
-7.13643e-06
3.51476e-07
-7.96644e-06
-5.11843e-06
1.77009e-06
-8.99755e-06
-2.17991e-06
4.70459e-06
-8.87926e-06
-1.134e-06
4.94645e-06
-5.29409e-06
-6.33317e-07
-5.56898e-07
-2.73296e-07
5.26183e-07
-4.8605e-06
3.49824e-06
1.30214e-06
-5.82621e-06
5.27555e-06
5.56979e-07
-5.48506e-07
7.67687e-07
4.57029e-06
-3.89258e-06
8.0849e-08
3.49481e-06
-3.06564e-06
-8.8623e-07
2.34346e-06
-3.92894e-06
-6.52563e-07
2.02938e-06
-5.26364e-06
4.39935e-07
4.37883e-06
-6.49835e-06
1.06391e-06
7.27187e-06
-7.40616e-06
-2.65191e-07
3.47424e-06
-7.52956e-06
-1.32176e-06
2.13206e-06
-5.98118e-07
1.17958e-07
-1.80638e-06
-8.10956e-07
-5.94274e-06
7.09623e-06
6.47229e-06
4.87011e-06
-5.15612e-06
5.56529e-06
4.14165e-06
-4.00241e-06
3.23997e-06
3.3989e-06
-3.76215e-06
6.07654e-07
2.97087e-06
-4.15495e-06
-1.18678e-07
3.73861e-06
-5.584e-06
7.63078e-07
5.76892e-06
-6.90533e-06
2.57584e-06
2.60135e-06
-9.22036e-06
2.05177e-06
5.03435e-06
-9.15164e-06
7.93042e-07
3.56729e-06
-8.88528e-06
-4.43366e-06
2.76389e-06
9.46279e-06
6.17026e-06
-3.61698e-06
7.59111e-06
6.02272e-06
-3.2332e-06
3.11501e-06
6.06988e-06
-2.74036e-06
-1.83407e-06
5.55782e-06
-2.79574e-06
-4.02623e-06
4.54854e-06
-4.67716e-06
-2.10701e-06
3.38198e-06
-6.41493e-06
1.73949e-06
-1.00116e-06
-8.3916e-06
2.90174e-06
2.13234e-06
-9.72304e-06
3.73215e-07
7.28234e-06
-9.71208e-06
-1.25517e-06
6.92164e-07
9.23666e-06
8.91569e-06
6.7228e-07
5.5565e-06
9.69602e-06
1.04701e-06
-3.22889e-07
9.63456e-06
7.40545e-07
-5.07196e-06
7.8786e-06
-6.63904e-07
-5.58894e-06
4.84323e-06
-3.16214e-06
-1.74762e-06
1.15805e-06
-5.85143e-06
2.04558e-06
-3.9079e-06
-7.46837e-06
3.02747e-06
1.10461e-07
-6.54971e-06
2.85448e-07
1.15717e-05
-6.49056e-06
2.02064e-06
-7.2637e-07
5.63491e-06
1.21803e-05
6.22079e-06
1.18147e-06
1.3384e-05
6.87132e-06
-4.264e-06
1.26134e-05
4.67697e-06
-7.09792e-06
9.14226e-06
1.68299e-06
-5.55364e-06
4.28332e-06
-1.56787e-06
5.9241e-07
-1.57881e-06
-6.35413e-06
4.70666e-06
-6.36546e-06
-8.75688e-06
4.39541e-06
-6.90761e-07
-6.38018e-06
1.43921e-06
1.28555e-05
-4.03482e-06
5.2829e-06
6.78459e-07
1.41723e-06
1.36783e-05
1.00881e-05
-1.16646e-06
1.43408e-05
1.10066e-05
-4.88931e-06
1.42716e-05
8.26108e-06
-6.54466e-06
1.02529e-05
4.05961e-06
-3.99639e-06
3.51276e-06
-1.02891e-06
2.1934e-06
-4.16243e-06
-8.74827e-06
5.11827e-06
-7.51437e-06
-1.01807e-05
3.98394e-06
4.62462e-07
-7.45933e-06
1.55718e-06
1.34675e-05
-2.69467e-06
7.82161e-06
1.08304e-06
-1.20414e-06
1.25471e-05
1.0408e-05
-9.14337e-07
1.19727e-05
1.14386e-05
-2.3092e-06
1.35846e-05
1.03781e-05
-3.89268e-06
1.16471e-05
6.11554e-06
-1.71834e-06
3.19511e-06
-8.5571e-07
2.01926e-06
-6.0435e-06
-9.95244e-06
2.30799e-06
-6.5173e-06
-1.06762e-05
1.01972e-06
3.20392e-06
-9.47712e-06
7.38282e-07
1.43358e-05
-3.40344e-06
1.04077e-05
8.19568e-07
2.48733e-07
9.76257e-06
8.50703e-06
9.4344e-07
8.818e-06
8.93531e-06
1.08374e-06
1.13788e-05
9.65487e-06
-6.73658e-07
1.30909e-05
6.72403e-06
3.59369e-07
4.33687e-06
-1.7867e-06
8.11536e-07
-5.55697e-06
-9.82368e-06
-1.02972e-06
-3.82056e-06
-1.07658e-05
-1.87224e-06
5.97171e-06
-1.14908e-05
-8.30407e-07
1.62025e-05
-5.94576e-06
1.28149e-05
-2.63918e-07
4.80541e-06
6.68233e-06
6.763e-06
4.15001e-06
6.91415e-06
7.02933e-06
3.24681e-06
1.00978e-05
7.82839e-06
1.31807e-06
1.42702e-05
5.94764e-06
9.37932e-07
6.34485e-06
-4.14822e-06
-7.8754e-07
-3.86396e-06
-9.6774e-06
-3.08691e-06
-9.72877e-07
-1.10825e-05
-4.05236e-06
8.1468e-06
-1.20964e-05
-2.51633e-06
1.81154e-05
-8.28389e-06
1.44826e-05
-1.71335e-06
7.83931e-06
5.3796e-06
4.14636e-06
6.79592e-06
6.45755e-06
6.04556e-06
3.97126e-06
6.8874e-06
1.07032e-05
1.13868e-06
4.86706e-06
1.56103e-05
4.26833e-08
-6.3147e-06
7.36469e-06
-2.68153e-06
-9.69719e-06
-1.73391e-06
-4.59057e-06
-1.17438e-05
1.46537e-06
-5.28452e-06
-1.25392e-05
9.84429e-06
-3.32529e-06
-9.50759e-06
1.93667e-05
-2.79466e-06
1.58922e-05
4.91323e-08
-5.13616e-08
4.01704e-07
3.24226e-09
-5.47936e-08
3.74751e-07
-3.22908e-08
-4.93694e-08
3.49123e-07
-5.98139e-08
-4.59121e-08
3.33333e-07
-8.06693e-08
-4.5244e-08
3.29134e-07
-9.07477e-08
-5.07633e-08
3.31876e-07
-8.57213e-08
-6.25661e-08
3.41448e-07
-4.66694e-08
-9.73423e-08
3.61905e-07
-3.67115e-09
-1.03919e-07
3.90884e-07
-4.26525e-08
3.10002e-07
5.77121e-08
-1.1902e-07
4.13467e-07
2.98216e-08
-1.41283e-07
3.63113e-07
1.94493e-08
-1.27566e-07
3.15569e-07
7.95588e-09
-1.03864e-07
2.8936e-07
-9.90769e-09
-8.53648e-08
2.817e-07
-2.84381e-08
-8.72964e-08
2.87084e-07
-3.24722e-08
-1.14155e-07
2.99135e-07
2.54045e-09
-1.90478e-07
3.26183e-07
2.70644e-08
-1.88319e-07
3.58501e-07
-5.54884e-08
2.41217e-07
5.66286e-08
-1.3692e-07
3.86918e-07
9.34911e-09
-2.02575e-07
3.75513e-07
-1.05522e-08
-2.0561e-07
3.40809e-07
-2.89905e-08
-1.66762e-07
3.22103e-07
-5.06959e-08
-1.35852e-07
3.23767e-07
-7.06038e-08
-1.36116e-07
3.35421e-07
-7.60669e-08
-1.71572e-07
3.65007e-07
-1.10636e-08
-2.96836e-07
4.4404e-07
3.50393e-08
-2.57077e-07
5.01398e-07
-5.19129e-08
3.09674e-07
1.00792e-07
-1.10017e-07
3.19831e-07
3.68924e-08
-2.05712e-07
3.79499e-07
-4.09687e-09
-2.55041e-07
3.79774e-07
-4.32668e-08
-2.10261e-07
3.65188e-07
-1.05665e-07
-1.49902e-07
3.84364e-07
-1.79293e-07
-1.40947e-07
4.36982e-07
-2.07091e-07
-2.09782e-07
5.42988e-07
-8.69977e-08
-4.20589e-07
7.4592e-07
2.23564e-08
-3.40416e-07
7.91956e-07
-5.82439e-08
4.38178e-07
1.40464e-07
-6.71529e-08
2.69971e-07
5.45565e-08
-1.2296e-07
3.6535e-07
-3.79857e-08
-2.04195e-07
4.20524e-07
-1.20311e-07
-1.75273e-07
4.19145e-07
-1.87016e-07
-1.44143e-07
4.43938e-07
-2.70046e-07
-1.42883e-07
5.26778e-07
-3.31434e-07
-1.94547e-07
7.05917e-07
-2.58854e-07
-3.98537e-07
9.83016e-07
-1.50425e-07
-2.51888e-07
8.76731e-07
-1.32625e-07
3.80219e-07
1.97651e-07
-1.31133e-08
1.65573e-07
1.08373e-07
-4.60108e-08
3.65568e-07
-1.30927e-08
-1.06623e-07
4.98215e-07
-1.41692e-07
-7.24614e-08
5.6911e-07
-2.97112e-07
1.09737e-08
6.10933e-07
-4.49776e-07
-1.95431e-08
7.66854e-07
-5.61317e-07
-7.88246e-08
1.03498e-06
-5.28375e-07
-2.246e-07
1.20733e-06
-3.75337e-07
5.70243e-08
7.13824e-07
-9.86635e-08
3.30194e-07
1.10374e-07
2.63548e-07
-4.22473e-07
-1.83968e-07
1.92631e-07
1.42957e-08
-3.90855e-07
7.66794e-08
2.37157e-07
-4.84337e-07
-3.49025e-08
5.3262e-07
-5.29889e-07
3.16453e-08
7.6896e-07
-6.36078e-07
1.92888e-07
9.69443e-07
-8.04654e-07
2.76426e-07
1.27488e-06
-8.62717e-07
1.21677e-07
1.43584e-06
-7.22104e-07
2.10077e-07
1.00856e-06
-6.25595e-07
7.00514e-07
5.18228e-07
-1.18724e-06
-3.02647e-06
1.12559e-06
-7.85011e-07
-2.83232e-06
1.17471e-06
-1.92325e-07
-2.54824e-06
5.78786e-07
5.18385e-07
-1.8144e-06
-5.16869e-09
7.26381e-07
-5.49259e-07
-4.70249e-07
8.61619e-07
6.92538e-07
-8.02923e-07
8.18536e-07
1.52277e-06
-8.45795e-07
2.36246e-07
1.91681e-06
-4.50571e-07
-1.0292e-07
1.22664e-06
-7.73564e-07
-7.23809e-07
-7.3844e-06
-1.13905e-06
-8.72726e-06
-5.22804e-06
-2.99369e-06
-8.46075e-06
-2.22582e-06
-3.6147e-06
-7.13935e-06
-6.35098e-07
-2.49886e-06
-3.51354e-06
-1.42463e-07
-1.37296e-06
-1.18726e-06
1.61571e-07
-1.23279e-06
4.03945e-07
9.51291e-07
-1.57535e-06
7.298e-07
1.78211e-06
-2.0124e-06
4.81202e-07
2.17066e-06
-1.71642e-06
1.02605e-06
9.02919e-07
-1.00773e-06
-5.09754e-06
-6.14833e-07
-7.34842e-06
-4.20071e-06
-2.98642e-06
-7.39778e-06
-3.57538e-06
-3.85046e-06
-8.356e-06
-2.46496e-06
-2.60801e-06
-9.99882e-06
-6.76504e-07
-2.33437e-07
-1.18072e-05
-1.35293e-07
2.90971e-06
-9.9778e-06
-4.87583e-07
3.93468e-06
-5.43102e-06
-7.49619e-07
4.21121e-06
-2.46334e-06
-7.67483e-07
-1.33166e-07
3.71016e-06
-5.02714e-07
8.96436e-08
3.51044e-06
-7.51609e-08
-5.35741e-06
3.18196e-06
-2.05299e-06
-3.6706e-06
2.46018e-06
-3.05481e-06
-4.00281e-06
2.48143e-06
-3.3039e-06
-4.58901e-06
2.32613e-06
-1.58639e-06
-4.9901e-06
1.18291e-06
3.52417e-06
-6.8774e-06
3.67535e-07
5.22832e-06
-8.00783e-06
1.57636e-06
8.20539e-06
-5.80111e-06
-6.01241e-07
4.58369e-06
-3.3502e-06
3.75401e-06
2.23827e-06
6.60246e-06
1.22172e-08
-5.01702e-06
5.37463e-06
-1.18841e-06
-3.63914e-06
3.63231e-06
-1.10422e-06
-3.97042e-06
1.49225e-06
-8.45649e-07
-4.47314e-06
1.14377e-08
-1.01973e-06
-4.66984e-06
-4.63088e-07
2.27828e-06
-5.18491e-06
1.17321e-06
1.75807e-06
-7.38641e-06
2.69488e-06
5.01131e-06
-7.47923e-06
-3.02591e-07
7.4359e-06
-8.74001e-06
7.62357e-06
-1.40829e-06
7.66966e-06
-9.55067e-08
-2.76665e-06
5.66933e-06
-1.76807e-07
-2.24447e-06
3.25522e-06
1.18016e-06
-2.61063e-06
4.8561e-07
2.13227e-06
-3.00405e-06
-2.22984e-06
1.11354e-06
-4.09498e-06
-1.17015e-06
1.29343e-06
-6.48978e-06
2.30878e-06
-2.82563e-06
-7.28682e-06
4.15445e-06
-2.73221e-07
-6.28418e-06
9.82392e-07
8.71841e-06
-7.82253e-06
1.31686e-05
-3.87051e-06
7.7842e-06
4.176e-07
8.7772e-07
5.28086e-06
2.41449e-06
9.59038e-07
2.14863e-06
4.25689e-06
7.96043e-07
-4.3034e-07
4.15181e-06
-1.04473e-07
-1.59611e-06
1.95244e-06
-2.83528e-06
1.66996e-06
-1.12936e-06
-6.6947e-06
5.26082e-06
-6.52724e-06
-7.35763e-06
5.81671e-06
-2.99047e-06
-4.38835e-06
1.54742e-06
1.02101e-05
-3.71296e-06
1.72763e-05
-3.28657e-06
5.33205e-06
2.78016e-06
4.93316e-06
3.30834e-06
5.62914e-06
5.68038e-06
4.42707e-07
6.93598e-06
4.86351e-06
-1.26624e-06
5.23205e-06
2.31168e-06
-8.73978e-07
1.47168e-06
-1.47936e-06
3.65154e-06
-5.0833e-06
-6.92569e-06
6.54458e-06
-9.59244e-06
-8.58472e-06
5.62389e-06
-3.26392e-06
-5.18604e-06
4.49373e-07
1.21536e-05
-8.03853e-07
1.97707e-05
-1.3666e-06
1.669e-06
4.61308e-06
8.42063e-06
1.64749e-06
7.0605e-06
9.59674e-06
5.7741e-07
7.87465e-06
8.39249e-06
-2.41563e-07
5.56309e-06
4.54754e-06
5.72135e-07
4.6602e-07
-8.36939e-07
3.4198e-06
-8.50165e-06
-8.17759e-06
3.8791e-06
-1.04804e-05
-9.75207e-06
1.702e-06
-1.18465e-06
-7.3615e-06
-1.89502e-06
1.43909e-05
-1.33495e-06
1.93392e-05
-3.80485e-07
5.70488e-07
5.00229e-06
9.39881e-06
1.97206e-06
6.65228e-06
1.04453e-05
2.77727e-06
7.28598e-06
1.01615e-05
2.11852e-06
5.94094e-06
6.39642e-06
2.06071e-06
3.96576e-07
-7.28461e-07
1.31906e-06
-9.56021e-06
-8.15223e-06
-9.65059e-07
-9.05671e-06
-9.81579e-06
-3.05073e-06
1.17353e-06
-9.74963e-06
-3.68403e-06
1.59687e-05
-4.34794e-06
1.76167e-05
-1.14197e-06
3.63884e-06
4.32735e-06
8.23604e-06
4.31253e-06
5.78861e-06
9.12529e-06
4.87317e-06
6.57208e-06
9.80814e-06
3.21727e-06
7.15121e-06
7.16965e-06
2.32064e-06
1.88697e-06
-2.38046e-06
-1.05916e-06
-8.42602e-06
-7.57808e-06
-3.90854e-06
-7.26384e-06
-9.70934e-06
-5.95996e-06
1.88335e-06
-1.01492e-05
-4.56843e-06
1.5535e-05
-6.9036e-06
1.53581e-05
-2.57374e-06
7.12746e-06
3.35231e-06
6.53423e-06
6.82933e-06
5.14111e-06
7.97498e-06
5.61178e-06
6.60849e-06
9.00952e-06
2.55625e-06
8.91409e-06
7.24029e-06
2.10568e-07
3.6594e-06
-3.57496e-06
-3.23772e-06
-7.01881e-06
-7.63632e-06
-5.48637e-06
-6.10658e-06
-9.99109e-06
-6.7909e-06
1.12215e-06
-1.00307e-05
-4.48701e-06
1.24513e-05
-7.50399e-06
1.27766e-05
-3.61887e-06
9.07517e-06
5.00858e-06
2.48735e-06
8.39853e-06
7.44004e-06
4.83527e-06
5.58579e-06
8.77445e-06
7.53415e-06
1.44385e-06
6.90905e-06
1.10141e-05
-1.63539e-06
-3.83386e-06
4.25781e-06
-5.10469e-06
-7.79431e-06
-5.45239e-06
-6.80224e-06
-1.09424e-05
-5.21042e-06
-6.72402e-06
-1.13791e-05
-1.16117e-07
-3.76518e-06
-8.28485e-06
8.26969e-06
-3.99714e-06
1.02139e-05
3.32148e-08
4.75472e-08
4.32833e-07
-1.3522e-08
3.07895e-09
4.18408e-07
-3.92812e-08
-1.76986e-08
3.92581e-07
-5.79635e-08
-2.39018e-08
3.75917e-07
-7.29488e-08
-2.50016e-08
3.69121e-07
-8.04323e-08
-2.66436e-08
3.66003e-07
-7.521e-08
-3.31596e-08
3.69385e-07
-4.04834e-08