/*--------------------------------*- C++ -*----------------------------------*\
| =========                 |                                                 |
| \\      /  F ield         | OpenFOAM: The Open Source CFD Toolbox           |
|  \\    /   O peration     | Version:  2312                                  |
|   \\  /    A nd           | Website:  www.openfoam.com                      |
|    \\/     M anipulation  |                                                 |
\*---------------------------------------------------------------------------*/
FoamFile
{
    version     2.0;
    format      ascii;
    arch        "LSB;label=32;scalar=64";
    class       volVectorField;
    location    "0.34";
    object      U;
}
// * * * * * * * * * * * * * * * * * * * * * * * * * * * * * * * * * * * * * //

dimensions      [0 1 -1 0 0 0 0];

internalField   nonuniform List<vector> 
8000
(
(0.00278808 -0.00599808 0.00281583)
(0.00900868 -0.00668408 0.00287381)
(0.0148307 -0.0053856 0.00243345)
(0.0185957 -0.00398438 0.0019493)
(0.0203456 -0.0025419 0.00135805)
(0.0201255 -0.00105453 0.000625786)
(0.0179604 0.000401684 -0.000228231)
(0.01409 0.00167042 -0.00116057)
(0.00894553 0.00260964 -0.00197282)
(0.00327277 0.00312148 -0.00244383)
(0.00302964 -0.0172031 0.00306138)
(0.0098249 -0.0187403 0.00303118)
(0.0159614 -0.014608 0.00246495)
(0.0197293 -0.0101868 0.00184564)
(0.021277 -0.00569535 0.0011048)
(0.0207528 -0.00116009 0.000216816)
(0.018282 0.00312636 -0.000767837)
(0.0142463 0.00680374 -0.00174484)
(0.00904004 0.00951573 -0.00246944)
(0.00336126 0.0109685 -0.00292658)
(0.00403998 -0.0313486 0.00408895)
(0.0131112 -0.0337911 0.00400328)
(0.0210264 -0.025846 0.00318634)
(0.0256764 -0.0176045 0.00234282)
(0.027489 -0.00940891 0.0014273)
(0.0266884 -0.00124685 0.000433373)
(0.0234466 0.0062956 -0.000607582)
(0.0182014 0.012803 -0.00161954)
(0.0115171 0.0177084 -0.00246163)
(0.00421434 0.0203393 -0.00310543)
(0.00620945 -0.0503417 0.0063307)
(0.0195004 -0.0533042 0.00570004)
(0.0298742 -0.0396906 0.00405985)
(0.0352195 -0.0266399 0.00278653)
(0.0369622 -0.0140714 0.00163485)
(0.0353888 -0.00134978 0.000568993)
(0.030806 0.0106875 -0.000442392)
(0.0239037 0.020627 -0.00170557)
(0.0151567 0.0278588 -0.00249202)
(0.00548778 0.0317641 -0.00326147)
(0.0142317 -0.0811807 0.0145081)
(0.033857 -0.0827268 0.0125727)
(0.044498 -0.0580163 0.00795647)
(0.0490121 -0.0375157 0.00591732)
(0.0498878 -0.0192568 0.00499655)
(0.0469625 -0.00295356 0.004194)
(0.0399288 0.0111052 0.00405936)
(0.0296836 0.0237638 0.00421595)
(0.0184455 0.0330546 0.00428823)
(0.00672849 0.0382541 0.00376013)
(0.025169 -0.150825 0.0246999)
(0.0536607 -0.131413 0.0266718)
(0.0583314 -0.0859639 0.0191912)
(0.0580957 -0.0557025 0.015088)
(0.0541692 -0.0280804 0.0144179)
(0.0439503 -0.00123404 0.0141028)
(0.031898 0.022455 0.0123343)
(0.0207118 0.0392215 0.00915816)
(0.0110215 0.0488999 0.00561561)
(0.00327029 0.0556594 0.00510038)
(0.0149191 -0.245663 0.0127484)
(0.0714592 -0.19194 0.0196104)
(0.074555 -0.118123 0.0195484)
(0.0724736 -0.0857837 0.014038)
(0.0700326 -0.0575236 0.00899917)
(0.0621046 -0.0299082 0.0034689)
(0.0511795 -0.00804984 -0.0032177)
(0.0397207 0.00543714 -0.0121632)
(0.0264007 0.0141852 -0.019889)
(0.011036 0.0209889 -0.0237531)
(-0.0265973 -0.333681 -0.025564)
(0.0850579 -0.301445 -0.0478645)
(0.108579 -0.174528 -0.0387597)
(0.123471 -0.113166 -0.029661)
(0.127622 -0.0640033 -0.0353562)
(0.128291 -0.0133584 -0.056755)
(0.130894 0.034223 -0.0771511)
(0.114443 0.0725643 -0.0845136)
(0.0893681 0.0996661 -0.0790699)
(0.0542146 0.113501 -0.0737287)
(-0.0650035 -0.417899 -0.0586928)
(0.0515176 -0.369685 -0.109461)
(0.0444475 -0.183332 -0.118142)
(0.0929213 -0.0655798 -0.08187)
(0.041673 0.0368511 -0.036312)
(-0.109165 0.127812 -0.0233707)
(-0.208875 0.22504 -0.123383)
(-0.157641 0.295246 -0.301099)
(-0.0895784 0.325882 -0.364191)
(-0.0288142 0.331635 -0.362848)
(-0.0762507 -0.360519 -0.0593953)
(-0.0619527 -0.143814 -0.101139)
(-0.158923 0.0168037 -0.109854)
(-0.107487 0.114696 -0.0805858)
(-0.093641 0.183876 -0.0745844)
(-0.11786 0.263782 -0.0386001)
(-0.162806 0.375397 -0.0179114)
(-0.156728 0.503047 -0.077242)
(-0.0993253 0.582873 -0.141261)
(-0.0327521 0.612846 -0.168453)
(-0.114868 -0.238926 -0.0657767)
(-0.113444 -0.0198469 -0.0828216)
(-0.171023 0.127971 -0.081905)
(-0.151121 0.193015 -0.0968804)
(-0.130288 0.257621 -0.0924533)
(-0.112918 0.327486 -0.063002)
(-0.113613 0.411181 -0.0186126)
(-0.100264 0.505258 0.0114981)
(-0.064122 0.571319 0.0174735)
(-0.0209622 0.597698 0.00523716)
(-0.124184 -0.095092 -0.0496677)
(-0.126601 0.117262 -0.0618756)
(-0.162609 0.243041 -0.0678328)
(-0.139842 0.271625 -0.0998461)
(-0.125007 0.318632 -0.0835443)
(-0.106856 0.363747 -0.0591011)
(-0.10036 0.411176 -0.0173026)
(-0.0795249 0.440219 0.0333495)
(-0.0601824 0.439145 0.0685134)
(-0.0350552 0.431378 0.055985)
(-0.122721 0.034779 -0.0412115)
(-0.119545 0.199837 -0.0606377)
(-0.131285 0.310278 -0.0610322)
(-0.109487 0.324343 -0.0847369)
(-0.105471 0.361515 -0.0585943)
(-0.0897975 0.382543 -0.0392169)
(-0.0813226 0.386914 -0.00272533)
(-0.059235 0.354256 0.0530975)
(-0.0614349 0.305114 0.0798387)
(-0.0555897 0.292816 0.0418737)
(-0.109779 0.151076 -0.0282817)
(-0.112059 0.253321 -0.0685615)
(-0.101737 0.340619 -0.0566388)
(-0.0852139 0.348025 -0.0606073)
(-0.0795101 0.347972 -0.0316389)
(-0.0591831 0.343634 -0.0189062)
(-0.0408066 0.317767 0.00422834)
(-0.0104573 0.247955 0.0505618)
(-0.0366805 0.198777 0.0615537)
(-0.0504747 0.205459 0.0127156)
(-0.0943759 0.255217 -0.0139937)
(-0.108348 0.306681 -0.072097)
(-0.103178 0.366718 -0.0543903)
(-0.0825314 0.31679 -0.0253008)
(-0.0662384 0.266331 0.00349826)
(-0.0304923 0.239068 0.0136915)
(0.00448709 0.20337 0.0207977)
(0.0312829 0.156273 0.0350996)
(-0.0123728 0.145538 0.0271915)
(-0.0248032 0.150632 -0.00827613)
(-0.0817314 0.352446 -0.00196518)
(-0.107631 0.3751 -0.0647453)
(-0.120246 0.35196 -0.0317455)
(-0.0960914 0.192874 0.0341701)
(-0.0755483 0.100719 0.0565776)
(-0.0339135 0.0741085 0.0552906)
(-0.00352992 0.066047 0.0471692)
(0.0171982 0.092145 0.0335097)
(-0.00288876 0.120528 0.0120217)
(-0.000141507 0.109475 -0.00318036)
(-0.0596649 0.422637 0.0181843)
(-0.0872994 0.441035 -0.0453775)
(-0.098995 0.29311 0.00203167)
(-0.0647836 0.0394241 0.0594777)
(-0.0685249 -0.0330597 0.0427826)
(-0.0331567 -0.013654 0.030885)
(-0.0196233 -0.00329072 0.0286615)
(-0.014957 0.0159083 0.0308493)
(-0.00313197 0.0570085 0.0246985)
(0.00603082 0.0600018 0.0200087)
(-0.0177025 0.430985 0.0508912)
(-0.0277103 0.48239 -0.00515097)
(0.00794489 0.235097 0.0302826)
(0.0387027 -0.0395332 0.0373045)
(-0.0110854 -0.0918816 0.0198407)
(-0.00397294 -0.0559726 0.0119235)
(0.00220908 -0.0295398 0.0124045)
(-0.00276784 -0.0155077 0.0158118)
(-0.00414657 -0.0038204 0.0215461)
(0.000753881 0.00139525 0.0228229)
(0.027634 0.321103 0.0603392)
(0.0536006 0.413348 0.0524611)
(0.128364 0.146091 0.0502274)
(0.112499 -0.0757888 0.0140294)
(0.0454303 -0.0938361 4.89938e-06)
(0.0246277 -0.0604335 0.00264527)
(0.0199818 -0.0401051 0.00606286)
(0.0129365 -0.0283207 0.00863478)
(0.00691202 -0.0191052 0.0105702)
(0.00255486 -0.017947 0.011357)
(0.0343083 0.152411 0.0250787)
(0.100188 0.20769 0.0465652)
(0.14902 0.0341462 0.00844947)
(0.114931 -0.0618495 -0.0188996)
(0.0660275 -0.061909 -0.0113271)
(0.0427737 -0.0468496 -0.00112348)
(0.0307031 -0.0382787 0.00332768)
(0.020175 -0.0327888 0.00551232)
(0.0112085 -0.0286165 0.00677082)
(0.00369637 -0.0269969 0.00697969)
(0.00284628 -0.00668029 0.00908667)
(0.00959049 -0.0078912 0.00966769)
(0.0161611 -0.00668765 0.00852591)
(0.0206385 -0.00545648 0.00739143)
(0.0231032 -0.00429161 0.00621378)
(0.0235459 -0.00312812 0.00494917)
(0.0217917 -0.00198355 0.00362296)
(0.0178565 -0.000913473 0.0022858)
(0.0118632 3.63886e-05 0.00109327)
(0.00447567 0.000556849 0.000135578)
(0.00299948 -0.0187226 0.00990909)
(0.0101618 -0.0216175 0.0102455)
(0.0168923 -0.0177746 0.00876198)
(0.0212221 -0.0138607 0.00727143)
(0.0233246 -0.0101599 0.00570018)
(0.0233221 -0.0065518 0.00402245)
(0.021195 -0.00321036 0.00230877)
(0.0171406 -0.000314354 0.000652887)
(0.0112444 0.00184911 -0.000806794)
(0.00422678 0.00269568 -0.00190244)
(0.00395357 -0.0337392 0.0132357)
(0.0134566 -0.0387194 0.0135982)
(0.022063 -0.0313894 0.0113949)
(0.0274349 -0.0239911 0.00927657)
(0.0299561 -0.0170766 0.00719846)
(0.0298521 -0.0104047 0.00510494)
(0.0271039 -0.00439422 0.00309134)
(0.021829 0.000324486 0.00113262)
(0.0140697 0.00394731 -0.000667339)
(0.00508849 0.00517273 -0.00162898)
(0.0055751 -0.0531719 0.0197278)
(0.019285 -0.0608214 0.0195941)
(0.0308058 -0.0484085 0.0153596)
(0.0373332 -0.0365788 0.0120092)
(0.0400879 -0.0257113 0.00918289)
(0.0394704 -0.0150511 0.00660761)
(0.035131 -0.0046213 0.00447463)
(0.0280081 0.00400983 0.00234943)
(0.0181931 0.00987514 0.0007746)
(0.00651123 0.0116861 0.000158165)
(0.0123247 -0.0825406 0.0342189)
(0.0320288 -0.0925299 0.0321399)
(0.0474157 -0.0704175 0.0228695)
(0.0546473 -0.0516338 0.0176149)
(0.0576645 -0.0351242 0.0146777)
(0.0563395 -0.0202351 0.0121113)
(0.0501815 -0.00753337 0.00971157)
(0.0391081 0.00464287 0.00813709)
(0.0247187 0.0134705 0.00726724)
(0.00873489 0.0168414 0.00690708)
(0.0271718 -0.130696 0.053382)
(0.0538145 -0.139465 0.0524127)
(0.0733442 -0.102869 0.0379579)
(0.077916 -0.071242 0.0301248)
(0.0775759 -0.0430048 0.026652)
(0.0691928 -0.0153295 0.0245002)
(0.057419 0.0118551 0.019867)
(0.0432692 0.0339685 0.0150162)
(0.0263957 0.0473151 0.0112467)
(0.00830456 0.0529099 0.00988932)
(0.0207651 -0.19093 0.0702706)
(0.0762478 -0.195647 0.0750235)
(0.0877877 -0.143558 0.055488)
(0.0944861 -0.0997333 0.0398015)
(0.0961984 -0.0621616 0.0266413)
(0.088983 -0.0289854 0.0161675)
(0.0731614 -0.00221037 0.00480466)
(0.0519467 0.0182746 -0.00796402)
(0.0308128 0.0330353 -0.0191736)
(0.0112889 0.0403008 -0.0248817)
(-0.0561769 -0.304827 0.0886078)
(0.076081 -0.257818 0.0854007)
(-0.00834886 -0.157849 0.0290451)
(0.0359124 -0.10888 -0.0141364)
(0.059519 -0.0504004 -0.040688)
(0.0712022 0.00519838 -0.0717101)
(0.0653706 0.0467054 -0.084678)
(0.0463328 0.0762098 -0.100188)
(0.0241573 0.091036 -0.116664)
(0.0129853 0.0958322 -0.12577)
(-0.13493 -0.368656 0.073713)
(-0.0409651 -0.264469 0.0114086)
(-0.265781 -0.117085 -0.119406)
(-0.170362 -0.11075 -0.159254)
(-0.184464 -0.0256329 -0.0920997)
(-0.194721 0.0230873 -0.115626)
(-0.14219 0.0760996 -0.320485)
(-0.0690361 0.0997189 -0.48642)
(-0.0504873 0.100746 -0.503013)
(-0.0174795 0.0869206 -0.473549)
(-0.165958 -0.18066 0.0282762)
(-0.283661 -0.0304465 -0.175471)
(-0.320998 -0.0348221 -0.219551)
(-0.272446 -0.000238036 -0.188947)
(-0.263487 0.0855103 -0.132233)
(-0.234486 0.149619 -0.0957889)
(-0.191944 0.195772 -0.111049)
(-0.130751 0.222164 -0.161027)
(-0.0834241 0.240638 -0.176805)
(-0.0448707 0.247858 -0.161658)
(-0.165555 -0.116436 0.00488566)
(-0.208955 0.0709167 -0.174565)
(-0.190425 -0.00985329 -0.164834)
(-0.182991 0.000733467 -0.150857)
(-0.186892 0.059231 -0.126749)
(-0.177828 0.122733 -0.0850079)
(-0.177184 0.188815 -0.0492197)
(-0.158209 0.221461 -0.0173571)
(-0.118917 0.237449 0.00580079)
(-0.0643333 0.240017 0.0238296)
(-0.154693 -0.00265647 0.00260374)
(-0.147572 0.153364 -0.129087)
(-0.0979061 0.026605 -0.0904251)
(-0.124066 0.0462403 -0.0922888)
(-0.14533 0.102247 -0.0744674)
(-0.158837 0.145865 -0.0413045)
(-0.188084 0.194429 -0.00487472)
(-0.188668 0.222865 0.0440651)
(-0.151828 0.215668 0.0810259)
(-0.0926823 0.153957 0.0833498)
(-0.140721 0.0892518 0.00290538)
(-0.09879 0.184145 -0.076154)
(-0.0495307 0.0236357 -0.0477258)
(-0.0970087 0.0806413 -0.0259071)
(-0.140367 0.132376 0.0109238)
(-0.15912 0.155341 0.0361074)
(-0.164785 0.206945 0.0592622)
(-0.150826 0.236752 0.0991947)
(-0.123878 0.201486 0.122635)
(-0.0719866 0.0973462 0.08852)
(-0.119336 0.179834 0.00278564)
(-0.065751 0.188843 -0.0516363)
(-0.0393483 0.0458778 -0.0179998)
(-0.106547 0.111411 0.0537483)
(-0.13765 0.137611 0.0905431)
(-0.117964 0.122357 0.105299)
(-0.0889582 0.152671 0.109484)
(-0.0499024 0.182082 0.122941)
(-0.042721 0.16163 0.123183)
(-0.00438887 0.0711129 0.0824859)
(-0.0933901 0.267989 0.00365259)
(-0.0425004 0.200185 -0.0517888)
(-0.0801341 0.11462 0.0252773)
(-0.140958 0.146513 0.108216)
(-0.127972 0.0659133 0.13992)
(-0.0716099 0.0188329 0.135747)
(-0.0279237 0.0373497 0.129432)
(0.0197722 0.0880536 0.121512)
(0.0224037 0.106619 0.101513)
(0.0386206 0.043472 0.0738832)
(-0.0675047 0.35341 0.00431892)
(-0.0289162 0.249836 -0.0419688)
(-0.129252 0.196528 0.0760615)
(-0.14437 0.0971626 0.142816)
(-0.0995293 -0.0403544 0.138648)
(-0.0508986 -0.0622963 0.105573)
(-0.0237193 -0.0412157 0.100867)
(0.00290289 0.00925058 0.10071)
(0.0237342 0.0488607 0.0876917)
(0.0302408 0.0252778 0.0731281)
(-0.0450645 0.434801 0.0302062)
(-0.0193321 0.31771 -0.0163464)
(-0.126348 0.271375 0.0936078)
(-0.060571 0.058256 0.131675)
(-0.0355499 -0.0694062 0.089916)
(-0.0109533 -0.0794587 0.0507988)
(-0.00240565 -0.0514454 0.0499707)
(-0.00609799 -0.0359602 0.0648968)
(0.00229794 -0.0126095 0.0762489)
(0.00913658 -0.00810161 0.0748267)
(-0.00940773 0.509301 0.0845599)
(0.00223306 0.405376 0.0257826)
(-0.0622391 0.322212 0.0955688)
(0.0467219 0.0604193 0.0994441)
(0.0486714 -0.0758741 0.0590955)
(0.0328619 -0.0894175 0.0255093)
(0.025276 -0.0564416 0.0261862)
(0.0185978 -0.0351435 0.0359457)
(0.00867511 -0.0313322 0.0461779)
(0.00448526 -0.034412 0.0496944)
(0.044852 0.476138 0.11873)
(0.0618498 0.495722 0.0903922)
(0.0704615 0.336433 0.106607)
(0.143831 0.0798617 0.0784407)
(0.118426 -0.0584275 0.0269855)
(0.0664721 -0.0721638 0.00845991)
(0.0426051 -0.0490768 0.0158417)
(0.0307586 -0.0372252 0.0234318)
(0.0196512 -0.0312349 0.0272724)
(0.00854795 -0.0307804 0.0276531)
(0.0639712 0.29355 0.0991889)
(0.121988 0.43102 0.120812)
(0.175925 0.290154 0.0962988)
(0.195088 0.0742896 0.0363457)
(0.136316 -0.035985 -0.00168434)
(0.0789604 -0.044375 0.00266145)
(0.0514428 -0.0366978 0.0124036)
(0.0351789 -0.0341425 0.0172914)
(0.0212617 -0.0332608 0.0199766)
(0.00844036 -0.0331944 0.019994)
(0.00240548 -0.00537294 0.0149419)
(0.00844779 -0.00667884 0.0162728)
(0.0145699 -0.00568243 0.0146831)
(0.0187415 -0.00463229 0.0132373)
(0.0211003 -0.00368225 0.0119707)
(0.0216483 -0.00276982 0.0108436)
(0.0201624 -0.00188927 0.0099077)
(0.0165655 -0.00107125 0.00912961)
(0.0107571 -0.000448332 0.00868686)
(0.00391418 -0.000242576 0.00860886)
(0.00243406 -0.0145619 0.0160745)
(0.00867897 -0.0177446 0.0170056)
(0.0148222 -0.0145973 0.0149377)
(0.0187693 -0.0112901 0.0129662)
(0.0206995 -0.00823299 0.0110964)
(0.0207452 -0.00535163 0.00935539)
(0.0188409 -0.00279558 0.00787533)
(0.0150318 -0.000794408 0.00669033)
(0.0093835 0.000157167 0.0063257)
(0.00343439 -0.00010062 0.00644048)
(0.00314043 -0.0257372 0.0211944)
(0.0112609 -0.0313176 0.0222619)
(0.0190644 -0.025567 0.0192596)
(0.024054 -0.0194398 0.016443)
(0.0264665 -0.013787 0.0138209)
(0.0264836 -0.0085377 0.0113997)
(0.0240172 -0.00402717 0.00923912)
(0.0190555 -0.000892574 0.00750476)
(0.0120116 0.000618001 0.0069323)
(0.00451514 -0.00031509 0.00637925)
(0.00395726 -0.0394709 0.0301678)
(0.0150585 -0.0482613 0.0312591)
(0.0255685 -0.0392494 0.0259813)
(0.0319022 -0.029697 0.0214647)
(0.0346122 -0.0207903 0.017455)
(0.034185 -0.0123368 0.0138078)
(0.0304302 -0.00461222 0.0107388)
(0.02391 0.00139188 0.00872866)
(0.0152085 0.00429924 0.00772477)
(0.00561793 0.00329458 0.00652362)
(0.00779892 -0.0579128 0.0446553)
(0.0228107 -0.0702907 0.0469638)
(0.0372826 -0.0563894 0.0370648)
(0.0457467 -0.0421075 0.0295227)
(0.0492445 -0.0288031 0.0239654)
(0.048405 -0.0166653 0.0188889)
(0.0434319 -0.00632265 0.0137457)
(0.0341375 0.00220807 0.0101057)
(0.0215178 0.00696375 0.00856926)
(0.00774706 0.00730991 0.0067099)
(0.0197678 -0.0852564 0.0564362)
(0.0402431 -0.10225 0.0668281)
(0.0589729 -0.0834837 0.0544789)
(0.068345 -0.0596151 0.0426223)
(0.0713951 -0.0363294 0.0333067)
(0.0678964 -0.0154156 0.0273622)
(0.0600078 0.0038976 0.0220314)
(0.0475664 0.0200968 0.01525)
(0.0302862 0.0296045 0.00945394)
(0.0104202 0.0325252 0.00593107)
(0.0206307 -0.116496 0.0719317)
(0.0574747 -0.14328 0.084706)
(0.0717928 -0.124482 0.0699651)
(0.086011 -0.0896364 0.0523587)
(0.0928139 -0.0529101 0.0324164)
(0.0892695 -0.020997 0.0161875)
(0.0781246 0.00435792 0.000679903)
(0.0609135 0.02389 -0.0155006)
(0.0380413 0.037408 -0.0301937)
(0.0132548 0.0431144 -0.0374474)
(-0.0471477 -0.180878 0.128064)
(0.0186884 -0.161798 0.0580082)
(-0.0328108 -0.141492 0.00186532)
(0.00703227 -0.115074 -0.0273078)
(0.0459381 -0.067096 -0.0367973)
(0.0651119 -0.0212522 -0.059142)
(0.0627618 0.0178677 -0.0805658)
(0.0474298 0.0466263 -0.0955055)
(0.0260352 0.0613175 -0.105579)
(0.0109124 0.065756 -0.108224)
(-0.144711 -0.193951 0.142904)
(-0.136507 -0.106702 -0.106174)
(-0.259625 -0.116406 -0.204295)
(-0.214778 -0.165678 -0.213687)
(-0.188222 -0.117699 -0.169893)
(-0.173024 -0.0836911 -0.252058)
(-0.140543 -0.0379161 -0.399147)
(-0.0656531 0.0213359 -0.455509)
(-0.045726 0.0270029 -0.451183)
(-0.0164107 0.0126902 -0.422317)
(-0.142417 -0.0348043 0.0475258)
(-0.211592 0.00082196 -0.215482)
(-0.225179 -0.139347 -0.237849)
(-0.211587 -0.163396 -0.192908)
(-0.223237 -0.0870555 -0.137553)
(-0.182937 -0.0483963 -0.105795)
(-0.144106 -0.0677065 -0.122691)
(-0.11401 -0.075642 -0.155606)
(-0.0854817 -0.0185927 -0.16883)
(-0.0569651 -0.0078929 -0.157731)
(-0.093027 0.0299434 0.0463678)
(-0.113822 0.0695925 -0.220381)
(-0.0886331 -0.116983 -0.171652)
(-0.0837301 -0.15706 -0.141503)
(-0.0799625 -0.135717 -0.131818)
(-0.0429392 -0.126468 -0.0578257)
(-0.0408065 -0.0567602 -0.014087)
(-0.0765322 0.00804278 -0.0167015)
(-0.0885344 0.0192661 -0.00928)
(-0.0598867 0.012029 0.0104977)
(-0.0562554 0.152254 0.0257913)
(-0.0568783 0.145573 -0.188275)
(0.000921424 -0.12462 -0.0779926)
(-0.0563457 -0.165833 -0.0789055)
(-0.0598887 -0.148727 -0.0659177)
(-0.0474147 -0.150513 -0.0198671)
(-0.0472808 -0.103943 0.0204705)
(-0.064574 -0.0491622 0.0278467)
(-0.0714658 -0.0423828 0.0352509)
(-0.0472197 -0.076717 0.0355274)
(-0.0429965 0.244647 0.00845664)
(-0.0271113 0.19897 -0.144019)
(0.0284857 -0.0909828 -0.0740876)
(-0.0609438 -0.127182 -0.0163797)
(-0.0693447 -0.130764 0.0361896)
(-0.0777599 -0.142784 0.0601706)
(-0.0715344 -0.0978331 0.087292)
(-0.0606045 -0.0254527 0.109003)
(-0.0452865 -0.00773721 0.10593)
(-0.012379 -0.0659702 0.0627401)
(-0.0424307 0.310405 -0.0151157)
(-0.00211926 0.235839 -0.112934)
(0.0378035 -0.0227881 -0.091809)
(-0.0797226 -0.0595937 0.0556623)
(-0.0714522 -0.105959 0.10803)
(-0.0673141 -0.144049 0.113462)
(-0.0508923 -0.111529 0.134063)
(-0.0213034 -0.046763 0.149565)
(0.00240176 -0.0224682 0.128057)
(0.0219061 -0.0630579 0.0808104)
(-0.041332 0.363335 -0.0464211)
(0.0385918 0.254711 -0.126877)
(0.0362101 0.0573109 -0.0991341)
(-0.091939 0.0269406 0.124336)
(-0.0511403 -0.0990174 0.12963)
(-0.0364496 -0.146488 0.111142)
(-0.0221253 -0.12617 0.123697)
(0.00296281 -0.0760024 0.139301)
(0.0259793 -0.045795 0.1241)
(0.0322713 -0.0611977 0.0909414)
(-0.0214856 0.373225 -0.0746507)
(0.0774051 0.280964 -0.145176)
(0.0165468 0.165882 -0.081424)
(-0.0717194 0.0859315 0.137194)
(-0.00960847 -0.0628178 0.0918885)
(-0.00368508 -0.113163 0.0701099)
(-0.000774387 -0.101431 0.0800551)
(0.00145671 -0.0771801 0.101871)
(0.0131354 -0.0572788 0.108105)
(0.0151615 -0.0546377 0.0929798)
(0.0058307 0.359417 -0.062887)
(0.0922723 0.329487 -0.127912)
(-0.012699 0.273473 -0.0684702)
(-0.0199659 0.154888 0.0678342)
(0.029979 -0.0203113 0.0455321)
(0.0304267 -0.0909824 0.0406056)
(0.0210582 -0.0773627 0.0479002)
(0.0123429 -0.0592214 0.0643097)
(0.00507862 -0.0556729 0.0815971)
(0.00310821 -0.0529411 0.0842351)
(0.0333113 0.346508 0.029529)
(0.100642 0.385588 -0.0671936)
(-0.0151722 0.349323 -0.0482428)
(0.0340608 0.186303 0.00875856)
(0.0799651 -0.0127623 0.0297775)
(0.0629516 -0.0833321 0.0307568)
(0.0392086 -0.0667789 0.034507)
(0.0286754 -0.0461029 0.0426382)
(0.0160723 -0.0404842 0.0513325)
(0.00474249 -0.043012 0.0536857)
(0.0641852 0.276866 0.132358)
(0.119181 0.408315 0.0586584)
(0.0543332 0.380165 0.0246841)
(0.118807 0.176256 0.0330064)
(0.136301 -0.015456 0.0337863)
(0.0874276 -0.0660603 0.0256079)
(0.0519445 -0.0513308 0.0275153)
(0.0360671 -0.0404405 0.0334523)
(0.0220194 -0.035765 0.03823)
(0.00793859 -0.0340311 0.0373273)
(0.0395857 0.126774 0.148651)
(0.120637 0.344384 0.159576)
(0.145803 0.318308 0.114427)
(0.186448 0.119438 0.0735416)
(0.149434 -0.0128906 0.037555)
(0.089179 -0.0381742 0.0232814)
(0.0563505 -0.0353046 0.0240197)
(0.0387448 -0.0336121 0.028063)
(0.0229797 -0.0328225 0.0324963)
(0.00784577 -0.0325315 0.0319715)
(0.00192193 -0.00396095 0.0187211)
(0.00731379 -0.00543601 0.0207652)
(0.0131249 -0.00462048 0.0188733)
(0.0170666 -0.00368734 0.0171957)
(0.0193304 -0.00286359 0.0158746)
(0.0199663 -0.00204226 0.0148679)
(0.0186813 -0.00115754 0.0142081)
(0.0155059 -0.000279568 0.014227)
(0.0103812 0.000536934 0.0148713)
(0.00407864 0.000877822 0.0147489)
(0.00181645 -0.0101085 0.0198484)
(0.00719049 -0.0137948 0.0213436)
(0.0128513 -0.0112518 0.0188961)
(0.0164585 -0.00838651 0.0165837)
(0.0182455 -0.00579026 0.0144988)
(0.0183967 -0.00329891 0.0126834)
(0.016758 -0.0010643 0.0113668)
(0.0136429 0.000553946 0.0107861)
(0.0092952 0.00171411 0.0107747)
(0.0044603 0.00195647 0.0108593)
(0.00230493 -0.0174445 0.0258612)
(0.00915902 -0.0238541 0.0276502)
(0.0162626 -0.0193696 0.0242764)
(0.0208673 -0.0141363 0.0210797)
(0.0231619 -0.00941126 0.0181421)
(0.0232457 -0.00498083 0.0154201)
(0.0210664 -0.00120585 0.0133235)
(0.0170826 0.00118166 0.0118162)
(0.0112639 0.00217759 0.010799)
(0.00521656 0.00315237 0.0108523)
(0.00270896 -0.0263357 0.0355338)
(0.0117864 -0.0362798 0.0377598)
(0.0211249 -0.0295555 0.0323629)
(0.0269489 -0.0214755 0.0273629)
(0.0295673 -0.0139244 0.0227775)
(0.0293381 -0.00687737 0.0185669)
(0.0262614 -0.000703683 0.0152933)
(0.0208445 0.00372342 0.0128868)
(0.013081 0.00580393 0.0112435)
(0.00547542 0.0100294 0.00986685)
(0.00579651 -0.0373213 0.0489528)
(0.0174142 -0.0512266 0.0542434)
(0.029357 -0.0419108 0.0456185)
(0.0370836 -0.0303517 0.0373605)
(0.0401784 -0.0191677 0.0302321)
(0.0392367 -0.00850966 0.0236162)
(0.0348627 0.000868169 0.0180134)
(0.027316 0.00744341 0.0138204)
(0.0159944 0.0107239 0.0111843)
(0.00544464 0.0180128 0.00737789)
(0.0158849 -0.0551682 0.0549151)
(0.0309313 -0.0710511 0.0729683)
(0.044528 -0.0601195 0.0642025)
(0.053295 -0.0421483 0.0510412)
(0.0565299 -0.0247906 0.0387561)
(0.0550274 -0.0097187 0.0299771)
(0.0490937 0.00403049 0.022961)
(0.0386693 0.0155907 0.015519)
(0.0226061 0.022274 0.00934221)
(0.00627941 0.0308822 0.00405168)
(0.0156088 -0.0842195 0.0702045)
(0.040645 -0.101543 0.0924032)
(0.0536705 -0.0925625 0.0841009)
(0.0698808 -0.0645387 0.0676323)
(0.077718 -0.0333391 0.0448088)
(0.0757009 -0.00679495 0.0251498)
(0.0684114 0.0170724 0.00851471)
(0.0556166 0.0337167 -0.00619772)
(0.0330309 0.0437111 -0.0194581)
(0.00932526 0.0513882 -0.0273355)
(-0.0403758 -0.120364 0.157781)
(-0.015913 -0.11261 0.074204)
(-0.0428624 -0.118627 0.0340257)
(0.00347116 -0.0974971 0.0182068)
(0.0499404 -0.0576619 0.0129516)
(0.0738963 -0.022826 -0.00394905)
(0.069154 0.00701778 -0.0280677)
(0.0426238 0.0302846 -0.0487444)
(0.0175008 0.044161 -0.0602882)
(0.00483594 0.0501379 -0.0637264)
(-0.118699 -0.0749428 0.19971)
(-0.153435 -0.0719728 -0.0766587)
(-0.255966 -0.145275 -0.166239)
(-0.222774 -0.19271 -0.196978)
(-0.208076 -0.150601 -0.207127)
(-0.225022 -0.101169 -0.28837)
(-0.0963055 -0.0168729 -0.296998)
(-0.043327 0.00273033 -0.282866)
(-0.0351338 -0.00549582 -0.270355)
(-0.016683 -0.0202403 -0.25824)
(-0.0828194 0.08363 0.0834147)
(-0.129111 0.0796311 -0.208666)
(-0.182643 -0.115955 -0.25793)
(-0.167321 -0.205052 -0.197119)
(-0.206133 -0.141375 -0.130773)
(-0.182112 -0.149418 -0.0926868)
(-0.141067 -0.241688 -0.156767)
(-0.123637 -0.35162 -0.269487)
(-0.0857207 -0.340447 -0.317134)
(-0.0415841 -0.336433 -0.33352)
(-0.0244825 0.169548 -0.00475371)
(-0.0680681 0.164775 -0.270126)
(-0.0632194 -0.0921781 -0.220054)
(-0.0443659 -0.187082 -0.138387)
(-0.0577897 -0.135153 -0.126712)
(-0.0407709 -0.126123 -0.0380003)
(-0.0133914 -0.102539 0.0302733)
(-0.0424019 -0.0839295 0.00951336)
(-0.0603679 -0.0916406 -0.0133414)
(-0.0452483 -0.0941538 -0.0182333)
(0.00792585 0.265905 -0.0792913)
(-0.0229445 0.237516 -0.286152)
(0.044229 -0.0642734 -0.144461)
(0.00657575 -0.203792 -0.0782721)
(-0.00884674 -0.200885 -0.0726478)
(0.0141489 -0.214334 -0.0413757)
(0.0249544 -0.230426 0.0344592)
(0.00336959 -0.201533 0.0578354)
(-0.00919011 -0.163867 0.0582757)
(-0.00887787 -0.139172 0.0660485)
(0.0126933 0.331492 -0.0938021)
(0.0203607 0.27101 -0.246316)
(0.0958121 -0.0184683 -0.147273)
(0.046536 -0.152925 -0.0638278)
(0.00775709 -0.180257 0.0100335)
(0.0186499 -0.204883 0.0333197)
(0.0118956 -0.206503 0.0605317)
(-0.00397805 -0.175519 0.0884275)
(-0.0042522 -0.137953 0.0847094)
(-0.000903837 -0.127595 0.0694287)
(0.00418346 0.356825 -0.0732517)
(0.0655461 0.290278 -0.182479)
(0.141123 0.0401641 -0.14535)
(0.0788063 -0.0799071 -0.0491701)
(0.0326766 -0.135521 0.0441813)
(0.0205765 -0.182227 0.063935)
(0.00205381 -0.184759 0.0847365)
(-0.00591556 -0.162852 0.112334)
(0.00116249 -0.138017 0.107675)
(0.00601626 -0.128457 0.0828335)
(0.00830795 0.327903 -0.0607641)
(0.114192 0.25633 -0.153721)
(0.170674 0.0594499 -0.127771)
(0.0755313 0.00397357 -0.00787927)
(0.048427 -0.0642807 0.0462849)
(0.0360049 -0.13397 0.0522975)
(0.0127002 -0.144783 0.0733148)
(0.000345832 -0.13396 0.10161)
(-0.000200952 -0.119576 0.105984)
(0.0010854 -0.109504 0.0823729)
(0.0410479 0.207108 -0.0780227)
(0.144119 0.161076 -0.140291)
(0.153374 0.0998237 -0.0843991)
(0.0403848 0.107789 0.0130602)
(0.0528778 -0.00262323 0.0201796)
(0.0465153 -0.0935496 0.036762)
(0.0251698 -0.102427 0.0564499)
(0.00892457 -0.0934403 0.0792631)
(-0.00388745 -0.0871157 0.0902575)
(-0.00735704 -0.0763557 0.0692175)
(0.0554202 0.0847676 -0.0459099)
(0.130731 0.106792 -0.0639427)
(0.0788453 0.152823 -0.028456)
(0.0079317 0.150346 -0.00141308)
(0.0543224 -0.00872872 0.0163359)
(0.0518455 -0.0835627 0.0359313)
(0.0339897 -0.0806447 0.0502868)
(0.0217947 -0.0647445 0.0649487)
(0.00635839 -0.0573469 0.0766742)
(-0.00367071 -0.0497643 0.0738235)
(0.0510848 0.0243895 0.0531955)
(0.112987 0.100746 0.0445136)
(0.0331342 0.172612 0.027426)
(0.0316902 0.110588 0.0221909)
(0.0747574 -0.0307463 0.035565)
(0.0627186 -0.0757146 0.0374662)
(0.0438311 -0.0670105 0.0440385)
(0.0326743 -0.0536035 0.0549764)
(0.0180823 -0.0439441 0.0615649)
(0.00130186 -0.0382064 0.0548135)
(0.0363796 -0.0184469 0.131979)
(0.10516 0.117554 0.142768)
(0.0670483 0.167646 0.106691)
(0.0994786 0.0604793 0.0845718)
(0.104817 -0.0413159 0.0570953)
(0.074938 -0.0610503 0.0382779)
(0.0529057 -0.0532507 0.0386909)
(0.039479 -0.0459865 0.0476561)
(0.0229459 -0.0402253 0.0532663)
(0.00328568 -0.035293 0.046554)
(-0.00373784 -0.0311822 0.131897)
(0.0660645 0.103877 0.194417)
(0.101445 0.117166 0.170063)
(0.128103 0.0274172 0.113877)
(0.106405 -0.0257471 0.0595648)
(0.0748899 -0.0382387 0.0357201)
(0.0554233 -0.0393365 0.0334452)
(0.0420698 -0.0382848 0.0405758)
(0.0245344 -0.0359743 0.04618)
(0.00329933 -0.0323612 0.0414107)
(0.00133063 -0.00250833 0.0204627)
(0.00613808 -0.00425959 0.0232228)
(0.011858 -0.00365881 0.0212246)
(0.0157444 -0.00285087 0.0194512)
(0.0180928 -0.00215474 0.0182069)
(0.0189374 -0.00139838 0.0172724)
(0.0181974 -0.000404699 0.0169936)
(0.0156693 0.000769582 0.0171333)
(0.0110859 0.00176576 0.0175488)
(0.00506725 0.00266479 0.0181709)
(0.00107744 -0.00558453 0.0213763)
(0.00562272 -0.0100558 0.0234267)
(0.0109814 -0.00815138 0.0208078)
(0.0143713 -0.00574148 0.0183502)
(0.0161428 -0.00372114 0.0162378)
(0.0165452 -0.00188066 0.0143684)
(0.0154961 -0.000176311 0.0131976)
(0.0135389 0.0015349 0.0127348)
(0.0102039 0.00321389 0.0136058)
(0.00556872 0.00538337 0.0147128)
(0.00140098 -0.00920975 0.0276531)
(0.0071076 -0.0168795 0.0301508)
(0.0136598 -0.013633 0.0266676)
(0.0179397 -0.00931607 0.0233514)
(0.0200695 -0.00566039 0.0202421)
(0.0204114 -0.00238795 0.017498)
(0.0187147 0.000160608 0.0153206)
(0.0155585 0.00209118 0.0139075)
(0.00999801 0.00408894 0.0138871)
(0.0043096 0.00969621 0.0110697)
(0.00161535 -0.0137299 0.0372255)
(0.00908535 -0.0252874 0.0404503)
(0.0172213 -0.0204542 0.0350343)
(0.0224414 -0.0137268 0.0299494)
(0.0249278 -0.00798657 0.0252407)
(0.0250854 -0.00288741 0.021052)
(0.0225258 0.00165379 0.0175324)
(0.0181869 0.00516529 0.0153572)
(0.0102342 0.00980202 0.0140265)
(0.00350034 0.0219215 0.00691424)
(0.00491168 -0.0188739 0.0497029)
(0.0143761 -0.0344902 0.0573942)
(0.0235868 -0.0282318 0.0494359)
(0.029705 -0.0187627 0.0406915)
(0.0322521 -0.00968611 0.0328621)
(0.032016 -0.00100161 0.0262364)
(0.0286549 0.00542473 0.0211709)
(0.0221679 0.00984305 0.0177488)
(0.0103935 0.0158775 0.0147924)
(0.00204738 0.0324699 0.00362329)
(0.0144942 -0.027987 0.0511415)
(0.0255843 -0.0432905 0.0742409)
(0.0331783 -0.0367439 0.068759)
(0.039063 -0.0245516 0.0553021)
(0.0422007 -0.0143402 0.0426579)
(0.0415785 -0.00479556 0.03294)
(0.0360154 0.00530042 0.0240364)
(0.0267154 0.0134764 0.0168974)
(0.0103841 0.0220679 0.0109772)
(-0.000760437 0.0408248 -0.00213741)
(0.00994087 -0.0569542 0.0693135)
(0.0261063 -0.0645263 0.0959542)
(0.033374 -0.0558457 0.0908028)
(0.0469796 -0.032766 0.0746917)
(0.0515374 -0.0117638 0.0493901)
(0.05035 0.00549564 0.0279791)
(0.0484458 0.0227896 0.013472)
(0.0395288 0.034921 0.00122907)
(0.0183322 0.0427169 -0.00949775)
(0.00116021 0.0551987 -0.0219356)
(-0.0387209 -0.0701576 0.173908)
(-0.0287605 -0.0564643 0.0903806)
(-0.0425089 -0.0735929 0.06725)
(0.00507569 -0.0595235 0.0608542)
(0.0485351 -0.0338076 0.053827)
(0.0694906 -0.0138364 0.0383851)
(0.0599309 0.00655761 0.0140462)
(0.0355801 0.0261675 -0.00974421)
(0.0108359 0.0388702 -0.022061)
(-0.000914855 0.0481338 -0.0281899)
(-0.0548243 0.0286822 0.171765)
(-0.0274308 -0.00375378 -0.122059)
(-0.20947 -0.100871 -0.116898)
(-0.227612 -0.153098 -0.175699)
(-0.255167 -0.130373 -0.22231)
(-0.186428 -0.0767452 -0.208702)