/*--------------------------------*- C++ -*----------------------------------*\
| =========                 |                                                 |
| \\      /  F ield         | OpenFOAM: The Open Source CFD Toolbox           |
|  \\    /   O peration     | Version:  2312                                  |
|   \\  /    A nd           | Website:  www.openfoam.com                      |
|    \\/     M anipulation  |                                                 |
\*---------------------------------------------------------------------------*/
FoamFile
{
    version     2.0;
    format      ascii;
    arch        "LSB;label=32;scalar=64";
    class       surfaceScalarField;
    location    "0.11";
    object      alphaPhi0.water;
}
// * * * * * * * * * * * * * * * * * * * * * * * * * * * * * * * * * * * * * //

dimensions      [0 3 -1 0 0 0 0];

oriented        oriented;

internalField   nonuniform List<scalar> 
22600
(
1.02639e-10
6.53685e-11
-1.57812e-10
1.84395e-10
7.17257e-11
-1.53488e-10
2.47492e-10
8.27339e-11
-1.45848e-10
2.85746e-10
9.75719e-11
-1.35851e-10
2.9597e-10
1.14429e-10
-1.24665e-10
2.77883e-10
1.31514e-10
-1.13429e-10
2.33887e-10
1.47194e-10
-1.03197e-10
1.68588e-10
1.6011e-10
-9.48069e-11
8.82238e-11
1.69255e-10
-8.88862e-11
1.7398e-10
-8.57518e-11
1.08486e-10
1.40557e-10
-1.73514e-10
1.95401e-10
1.53311e-10
-1.68529e-10
2.622e-10
1.75465e-10
-1.59573e-10
3.02475e-10
2.05188e-10
-1.47922e-10
3.12936e-10
2.38917e-10
-1.34962e-10
2.93453e-10
2.7301e-10
-1.22024e-10
2.46724e-10
3.04225e-10
-1.10305e-10
1.77682e-10
3.29893e-10
-1.0074e-10
9.28939e-11
3.48053e-10
-9.40154e-11
3.57353e-10
-9.04896e-11
1.20421e-10
2.36302e-10
-2.06065e-10
2.17627e-10
2.55588e-10
-1.99526e-10
2.91887e-10
2.88944e-10
-1.87784e-10
3.36122e-10
3.33533e-10
-1.72619e-10
3.46949e-10
3.83963e-10
-1.55911e-10
3.24593e-10
4.34729e-10
-1.39394e-10
2.7233e-10
4.81042e-10
-1.24578e-10
1.95782e-10
5.19e-10
-1.12588e-10
1.02216e-10
5.45806e-10
-1.04213e-10
5.59429e-10
-9.98702e-11
1.38383e-10
3.65341e-10
-2.57355e-10
2.51091e-10
3.90952e-10
-2.48112e-10
3.36398e-10
4.35408e-10
-2.31809e-10
3.86407e-10
4.94375e-10
-2.10897e-10
3.97603e-10
5.60852e-10
-1.88131e-10
3.70802e-10
6.27381e-10
-1.65886e-10
3.10216e-10
6.87755e-10
-1.4616e-10
2.22518e-10
7.37026e-10
-1.30363e-10
1.1601e-10
7.7172e-10
-1.19413e-10
7.89214e-10
-1.1376e-10
1.62184e-10
5.42605e-10
-3.29638e-10
2.95519e-10
5.73847e-10
-3.1627e-10
3.9541e-10
6.28632e-10
-2.9315e-10
4.52764e-10
7.00759e-10
-2.6378e-10
4.64071e-10
7.81684e-10
-2.32173e-10
4.31108e-10
8.62021e-10
-2.01698e-10
3.59435e-10
9.34409e-10
-1.75003e-10
2.57185e-10
9.93125e-10
-1.5385e-10
1.33918e-10
1.03432e-09
-1.39299e-10
1.05502e-09
-1.31848e-10
1.91361e-10
7.85258e-10
-4.24954e-10
3.50367e-10
8.20504e-10
-4.05728e-10
4.67519e-10
8.84427e-10
-3.72991e-10
5.33353e-10
9.66808e-10
-3.31918e-10
5.44194e-10
1.05906e-09
-2.88231e-10
5.03296e-10
1.14959e-09
-2.46683e-10
4.18016e-10
1.23043e-09
-2.10739e-10
2.98316e-10
1.29543e-09
-1.8257e-10
1.55297e-10
1.34074e-09
-1.63356e-10
1.36393e-09
-1.53563e-10
2.24243e-10
1.11132e-09
-5.43724e-10
4.12365e-10
1.1493e-09
-5.16987e-10
5.48693e-10
1.21935e-09
-4.71302e-10
6.23317e-10
1.30699e-09
-4.1484e-10
6.32824e-10
1.4051e-09
-3.55566e-10
5.82363e-10
1.50004e-09
-2.99978e-10
4.81608e-10
1.58375e-09
-2.52525e-10
3.42798e-10
1.65005e-09
-2.15756e-10
1.79461e-10
1.69504e-09
-1.90894e-10
1.72165e-09
-1.78226e-10
3.03254e-10
1.59539e-09
-7.77265e-10
5.56887e-10
1.63127e-09
-7.35654e-10
7.42051e-10
1.69977e-09
-6.65638e-10
8.38844e-10
1.78957e-09
-5.79425e-10
8.47161e-10
1.88699e-09
-4.90217e-10
7.75198e-10
1.97982e-09
-4.07793e-10
6.3767e-10
2.05975e-09
-3.38443e-10
4.51102e-10
2.12199e-09
-2.85376e-10
2.3233e-10
2.16369e-09
-2.49877e-10
2.18592e-09
-2.3195e-10
1.50188e-11
-4.06881e-14
-3.85389e-11
3.00047e-11
-4.07241e-14
-3.85474e-11
4.4066e-11
-4.37923e-14
-3.82367e-11
5.55496e-11
-5.16196e-14
-3.71331e-11
6.21017e-11
-6.73687e-14
-3.49681e-11
6.1954e-11
-8.82049e-14
-3.19e-11
5.45816e-11
-1.09341e-13
-2.84911e-11
4.05489e-11
-1.27456e-13
-2.53315e-11
2.1503e-11
-1.40498e-13
-2.29301e-11
-1.44472e-13
-2.14783e-11
9.21393e-14
1.03609e-15
-2.24034e-13
1.81706e-13
9.82921e-16
-2.24778e-13
2.64041e-13
9.87786e-16
-2.23978e-13
3.29123e-13
9.74738e-16
-2.17978e-13
3.63038e-13
9.03813e-16
-2.04485e-13
3.56669e-13
7.88307e-16
-1.84838e-13
3.09298e-13
6.65061e-16
-1.63099e-13
2.26656e-13
5.58017e-16
-1.43278e-13
1.18655e-13
4.81162e-16
-1.28481e-13
4.22177e-16
-1.18572e-13
5.96648e-16
7.62424e-17
-1.50419e-15
1.1623e-15
4.75884e-17
-1.48735e-15
1.65559e-15
4.21798e-17
-1.45422e-15
2.01167e-15
4.09837e-17
-1.38211e-15
2.15506e-15
4.03416e-17
-1.25871e-15
2.05416e-15
3.86141e-17
-1.1015e-15
1.73196e-15
3.63735e-17
-9.41262e-16
1.24055e-15
3.42276e-17
-8.04993e-16
6.40519e-16
3.26787e-17
-7.09126e-16
3.04727e-17
-6.41242e-16
8.88654e-18
1.44098e-17
-4.36517e-17
1.70238e-17
4.50266e-18
-2.37937e-17
2.42131e-17
1.63078e-18
-2.0791e-17
2.9256e-17
1.44721e-18
-2.05282e-17
3.10558e-17
1.40731e-18
-1.84915e-17
2.92816e-17
1.34544e-18
-1.59689e-17
2.44178e-17
1.27371e-18
-1.35203e-17
1.73125e-17
1.20065e-18
-1.14876e-17
8.90412e-18
1.14875e-18
-1.00418e-17
1.06468e-18
-8.95378e-18
3.99734e-19
1.63512e-18
-7.17991e-18
4.03678e-19
5.99112e-19
-1.11362e-18
5.25077e-19
1.15909e-19
-6.8729e-19
6.28057e-19
9.7622e-20
-4.6139e-19
6.5191e-19
9.63136e-20
-3.98093e-19
5.99459e-19
9.37657e-20
-3.36224e-19
4.91622e-19
9.00425e-20
-2.80226e-19
3.4226e-19
8.61404e-20
-2.33801e-19
1.73064e-19
8.29732e-20
-2.01719e-19
7.6741e-20
-1.76063e-19
1.01269e-19
6.03973e-19
-4.05915e-18
2.0491e-20
1.00067e-19
-8.40971e-19
1.51904e-20
1.57089e-20
-2.46948e-20
1.6706e-20
4.51216e-21
-1.36621e-20
1.69255e-20
4.03815e-21
-1.05567e-20
1.53709e-20
3.83741e-21
-8.69938e-21
1.22888e-20
3.61663e-21
-7.22759e-21
8.44258e-21
3.40652e-21
-5.93094e-21
4.21387e-21
3.24546e-21
-5.03787e-21
2.95016e-21
-4.32579e-21
2.99882e-20
2.93233e-19
-1.06072e-19
3.0117e-21
4.01209e-20
-3.25139e-20
5.88429e-22
2.2406e-21
-9.68161e-21
5.02906e-22
2.7126e-22
-4.91204e-22
4.9074e-22
1.72879e-22
-3.1421e-22
4.38811e-22
1.56973e-22
-2.48682e-22
3.46025e-22
1.44682e-22
-2.0587e-22
2.34589e-22
1.3394e-22
-1.67867e-22
1.15605e-22
1.26044e-22
-1.42014e-22
1.12522e-22
-1.20085e-22
1.16513e-20
1.9994e-19
-5.53127e-20
5.27449e-22
2.10578e-20
-1.06934e-20
3.72623e-23
9.7665e-22
-1.60397e-21
1.72167e-23
4.10356e-23
-3.32224e-23
1.56939e-23
8.40674e-24
-1.06386e-23
1.38059e-23
6.98886e-24
-7.83477e-24
1.07805e-23
6.31552e-24
-6.33435e-24
7.22399e-24
5.76597e-24
-5.26428e-24
3.51826e-24
5.37295e-24
-4.45082e-24
4.71319e-24
-3.7095e-24
6.5262e-21
1.73636e-19
-2.5845e-20
2.01902e-22
1.66444e-20
-3.20072e-21
1.08297e-23
7.50286e-22
-6.16097e-22
6.96684e-25
1.30974e-23
-1.90943e-23
5.39571e-25
9.28418e-25
-4.20039e-25
4.67267e-25
3.29515e-25
-2.67546e-25
3.637e-25
2.90686e-25
-2.11166e-25
2.41495e-25
2.62456e-25
-1.78506e-25
1.16372e-25
2.42716e-25
-1.52037e-25
2.09269e-25
-1.24961e-25
4.22087e-21
1.61759e-19
-1.61022e-20
1.25138e-22
1.53283e-20
-1.82475e-21
3.61949e-24
6.47979e-22
-4.6051e-22
1.41099e-25
9.89749e-24
-2.90494e-24
2.01903e-26
1.10876e-25
-1.38445e-25
1.67229e-26
1.69249e-26
-1.04013e-26
1.3084e-26
1.39664e-26
-7.56351e-27
8.64502e-27
1.24881e-26
-6.44475e-27
4.12625e-27
1.14857e-26
-5.5859e-27
9.73541e-27
-4.52685e-27
2.80986e-21
1.5182e-19
-1.16054e-20
9.03591e-23
1.4521e-20
-1.32462e-21
2.4298e-24
6.03752e-22
-3.59995e-22
5.34473e-26
8.56309e-24
-1.94761e-24
8.85825e-28
4.66011e-26
-4.39893e-26
6.40719e-28
3.25729e-27
-4.52061e-28
4.96433e-28
6.99458e-28
-2.94319e-28
3.29225e-28
6.16857e-28
-2.41904e-28
1.55846e-28
5.65184e-28
-2.19065e-28
4.70974e-28
-1.75037e-28
1.94789e-21
-9.28764e-21
1.43046e-19
6.9825e-23
-1.05325e-21
1.38505e-20
1.82177e-24
-2.88974e-22
5.75162e-22
1.10452e-26
-1.49697e-24
7.5719e-24
7.76132e-28
-4.71839e-27
3.78408e-26
2.75954e-29
-7.91031e-28
3.75465e-28
1.97628e-29
-1.28689e-29
3.87002e-29
1.33e-29
-9.82049e-30
3.15137e-29
6.25303e-30
-9.0277e-30
2.87716e-29
-7.19205e-30
2.35645e-29
1.06872e-10
4.97898e-11
-3.03773e-10
1.91942e-10
5.65586e-11
-2.95151e-10
2.57356e-10
6.89275e-11
-2.8023e-10
2.96819e-10
8.54293e-11
-2.60773e-10
3.07101e-10
1.04069e-10
-2.39028e-10
2.88035e-10
1.22868e-10
-2.17236e-10
2.42219e-10
1.40036e-10
-1.97414e-10
1.74486e-10
1.54117e-10
-1.81182e-10
9.12772e-11
1.6406e-10
-1.69735e-10
1.69244e-10
-1.63728e-10
1.13474e-10
1.0861e-10
-3.35059e-10
2.04232e-10
1.22173e-10
-3.24964e-10
2.737e-10
1.47203e-10
-3.07375e-10
3.15311e-10
1.80461e-10
-2.84606e-10
3.25758e-10
2.17926e-10
-2.59301e-10
3.0509e-10
2.55596e-10
-2.34106e-10
2.56226e-10
2.89911e-10
-2.11328e-10
1.84367e-10
3.17989e-10
-1.92781e-10
9.63359e-11
3.37795e-10
-1.79756e-10
3.48013e-10
-1.72964e-10
1.27048e-10
1.86125e-10
-3.99758e-10
2.29249e-10
2.06894e-10
-3.86509e-10
3.06869e-10
2.44968e-10
-3.63225e-10
3.52687e-10
2.95313e-10
-3.33344e-10
3.63329e-10
3.51805e-10
-3.00486e-10
3.39308e-10
4.08308e-10
-2.68128e-10
2.84239e-10
4.59539e-10
-2.39188e-10
2.04103e-10
5.01317e-10
-2.15841e-10
1.06482e-10
5.30724e-10
-1.99553e-10
5.4573e-10
-1.91116e-10
1.47711e-10
2.9439e-10
-5.02346e-10
2.67312e-10
3.22696e-10
-4.8354e-10
3.57069e-10
3.74163e-10
-4.50804e-10
4.09004e-10
4.4163e-10
-4.09203e-10
4.19687e-10
5.16974e-10
-3.64033e-10
3.90418e-10
5.91782e-10
-3.20137e-10
3.25936e-10
6.59172e-10
-2.8137e-10
2.33428e-10
7.13856e-10
-2.50427e-10
1.21578e-10
7.52188e-10
-2.29018e-10
7.71551e-10
-2.17986e-10
1.75554e-10
4.4835e-10
-6.48198e-10
3.18587e-10
4.84147e-10
-6.20766e-10
4.24529e-10
5.48802e-10
-5.73776e-10
4.84206e-10
6.32766e-10
-5.14637e-10
4.94413e-10
7.25886e-10
-4.51325e-10
4.57728e-10
8.17408e-10
-3.90678e-10
3.80554e-10
8.99145e-10
-3.37832e-10
2.71737e-10
9.64977e-10
-2.96137e-10
1.41319e-10
1.01089e-09
-2.6755e-10
1.034e-09
-2.52941e-10
2.10424e-10
6.66073e-10
-8.42418e-10
3.83057e-10
7.0834e-10
-8.02595e-10
5.08442e-10
7.8559e-10
-7.35215e-10
5.76944e-10
8.83646e-10
-6.51338e-10
5.85713e-10
9.91762e-10
-5.62906e-10
5.39254e-10
1.09663e-09
-4.79467e-10
4.46235e-10
1.18923e-09
-4.07786e-10
3.17589e-10
1.26302e-09
-3.51927e-10
1.65055e-10
1.3141e-09
-3.13981e-10
1.3402e-09
-2.94672e-10
2.50964e-10
9.63958e-10
-1.08345e-09
4.58009e-10
1.01172e-09
-1.02746e-09
6.05177e-10
1.09928e-09
-9.32204e-10
6.82656e-10
1.20698e-09
-8.15682e-10
6.88548e-10
1.32499e-09
-6.94704e-10
6.2999e-10
1.43764e-09
-5.82406e-10
5.18544e-10
1.53557e-09
-4.87383e-10
3.67805e-10
1.61232e-09
-4.14269e-10
1.92101e-10
1.66403e-09
-3.6506e-10
1.69418e-09
-3.40062e-10
3.44465e-10
1.4412e-09
-1.58602e-09
6.27361e-10
1.48843e-09
-1.49537e-09
8.28743e-10
1.57652e-09
-1.34431e-09
9.28948e-10
1.68917e-09
-1.16187e-09
9.30585e-10
1.80899e-09
-9.75869e-10
8.45582e-10
1.921e-09
-8.06138e-10
6.91648e-10
2.01584e-09
-6.6475e-10
4.87271e-10
2.08878e-09
-5.57462e-10
2.50241e-10
2.1373e-09
-4.86113e-10
2.16254e-09
-4.50032e-10
1.44979e-11
9.64438e-14
-5.72061e-11
2.96397e-11
7.78478e-14
-6.02094e-11
4.46562e-11
5.289e-14
-6.31928e-11
5.7466e-11
2.2195e-14
-6.44625e-11
6.51668e-11
-1.46562e-14
-6.2826e-11
6.55775e-11
-5.32475e-14
-5.85993e-11
5.80552e-11
-8.76916e-14
-5.30391e-11
4.32346e-11
-1.14825e-13
-4.74945e-11
2.29505e-11
-1.33236e-13
-4.3127e-11
-1.39911e-13
-4.0445e-11
8.8049e-14
5.54452e-15
-3.00727e-13
1.77953e-13
2.7378e-15
-3.23551e-13
2.66743e-13
1.66198e-15
-3.51764e-13
3.41608e-13
1.41737e-15
-3.69078e-13
3.84086e-13
1.21454e-15
-3.64682e-13
3.81773e-13
1.00013e-15
-3.40441e-13
3.33201e-13
8.04781e-16
-3.0597e-13
2.44946e-13
6.52708e-16
-2.71306e-13
1.28434e-13
5.52148e-16
-2.44256e-13
4.81069e-16
-2.25806e-13
6.13768e-16
1.45609e-15
-2.6158e-15
1.15565e-15
5.14826e-16
-2.12743e-15
1.69727e-15
1.01532e-16
-2.28077e-15
2.12592e-15
5.42596e-17
-2.35345e-15
2.32706e-15
4.50458e-17
-2.27681e-15
2.24644e-15
4.21658e-17
-2.06555e-15
1.9064e-15
3.9301e-17
-1.80052e-15
1.36941e-15
3.68051e-17
-1.55262e-15
7.07053e-16
3.49871e-17
-1.36854e-15
3.25784e-17
-1.23774e-15
2.18167e-17
1.1864e-16
-8.39833e-16
1.92572e-17
2.64924e-17
-1.21401e-16
2.48279e-17
2.20028e-17
-7.30874e-17
3.12028e-17
3.1801e-18
-3.24409e-17
3.39377e-17
1.55698e-18
-3.36627e-17
3.24481e-17
1.4617e-18
-3.02552e-17
2.72445e-17
1.36686e-18
-2.6081e-17
1.93831e-17
1.29744e-18
-2.22479e-17
9.96419e-18
1.23854e-18
-1.94514e-17
1.14557e-18
-1.73458e-17
1.28954e-17
1.02971e-16
-1.24948e-16
2.77078e-18
1.7459e-17
-4.50336e-17
9.76639e-19
2.10457e-18
-1.82602e-17
6.97654e-19
3.85368e-19
-1.38494e-18
7.24261e-19
1.02109e-19
-7.76659e-19
6.79618e-19
9.82674e-20
-6.42693e-19
5.57008e-19
9.56107e-20
-5.4883e-19
3.90934e-19
9.21657e-20
-4.57677e-19
1.97732e-19
8.90923e-20
-3.9373e-19
8.25397e-20
-3.45324e-19
9.54739e-18
8.91103e-17
-1.64693e-17
9.59266e-19
1.78655e-17
1.72432e-18
1.11252e-19
1.08216e-18
-1.16684e-18
2.3518e-20
5.64851e-20
-3.07557e-19
1.95341e-20
5.66671e-21
-2.88762e-20
1.75764e-20
4.13907e-21
-1.76944e-20
1.42682e-20
3.91266e-21
-1.41227e-20
9.79875e-21
3.70953e-21
-1.17106e-20
4.89283e-21
3.54408e-21
-1.00058e-20
3.22603e-21
-8.59374e-21
2.4865e-18
1.46783e-17
7.5495e-17
3.74367e-19
3.93828e-18
1.5044e-17
2.92719e-20
3.47284e-19
-3.87593e-19
1.20976e-21
1.27403e-20
-6.69112e-20
5.97387e-22
1.07449e-21
-1.3323e-21
5.09065e-22
1.81255e-22
-5.39254e-22
4.06865e-22
1.60207e-22
-4.14361e-22
2.76707e-22
1.48725e-22
-3.36716e-22
1.36372e-22
1.40174e-22
-2.85532e-22
1.25231e-22
-2.41519e-22
4.11139e-19
3.15664e-18
6.14768e-18
7.59547e-20
8.88714e-19
-6.93827e-20
4.90253e-21
1.17832e-19
-1.01498e-19
3.4472e-22
4.38076e-21
-8.73441e-21
2.17353e-23
1.29173e-22
-6.96006e-22
1.62782e-23
9.83746e-24
-2.06705e-23
1.27855e-23
7.17482e-24
-1.32405e-23
8.65327e-24
6.52237e-24
-1.06489e-23
4.21315e-24
6.08061e-24
-9.05794e-24
5.33605e-24
-7.54921e-24
8.48833e-20
1.43045e-18
-5.30759e-19
1.57828e-20
3.17235e-19
-2.67231e-19
2.11318e-21
6.63292e-20
-2.70874e-20
5.63338e-23
2.44213e-21
-3.55094e-21
1.05486e-24
2.61295e-23
-7.68049e-23
5.71509e-25
1.88446e-24
-9.78345e-25
4.33438e-25
3.44794e-25
-4.64387e-25
2.93225e-25
3.02443e-25
-3.65527e-25
1.41422e-25
2.79432e-25
-3.12357e-25
2.40972e-25
-2.57049e-25
3.51904e-20
1.15837e-18
-4.6705e-19
6.42419e-21
2.47714e-19
-9.161e-20
1.42004e-21
5.69024e-20
-1.6152e-20
1.17049e-23
1.98962e-21
-2.6863e-21
5.58532e-25
1.44131e-23
-6.88512e-24
2.32276e-26
2.08793e-25
-7.7605e-25
1.57346e-26
1.92938e-26
-1.86101e-26
1.06251e-26
1.4687e-26
-1.34825e-26
5.0913e-27
1.34499e-26
-1.15398e-26
1.14007e-26
-9.4029e-27
2.17024e-20
1.09516e-18
-3.83326e-19
4.48005e-21
2.41994e-19
-6.7574e-20
1.03198e-21
5.42863e-20
-1.9763e-20
7.12806e-24
1.81822e-21
-2.22694e-21
5.23336e-26
1.08104e-23
-3.51924e-24
1.17156e-27
9.87795e-26
-6.32668e-26
6.17402e-28
3.96442e-27
-9.97317e-28
4.06996e-28
7.51868e-28
-5.40414e-28
1.95464e-28
6.73364e-28
-4.52478e-28
5.60939e-28
-3.66617e-28
1.55689e-20
-3.37645e-19
1.07204e-18
3.65552e-21
-6.35343e-20
2.45456e-19
8.03799e-22
-2.12823e-20
5.32544e-20
5.16289e-24
-1.83766e-21
1.73141e-21
1.34737e-26
-2.40721e-24
9.43873e-24
1.49504e-27
-1.45657e-26
8.01412e-26
2.85151e-29
-2.16402e-27
9.71587e-28
1.66718e-29
-2.42675e-29
7.25365e-29
7.92038e-30
-1.90405e-29
3.49606e-29
-1.51265e-29
2.85547e-29
1.1544e-10
1.84158e-11
-4.25871e-10
2.06872e-10
2.68435e-11
-4.13484e-10
2.76785e-10
4.18238e-11
-3.92013e-10
3.18551e-10
6.16444e-11
-3.64211e-10
3.28883e-10
8.38575e-11
-3.33235e-10
3.07852e-10
1.06072e-10
-3.02285e-10
2.58449e-10
1.26204e-10
-2.74209e-10
1.85934e-10
1.42605e-10
-2.51279e-10
9.71773e-11
1.54128e-10
-2.35134e-10
1.60101e-10
-2.26697e-10
1.23555e-10
4.3616e-11
-4.71884e-10
2.21794e-10
6.06843e-11
-4.57123e-10
2.9644e-10
9.13057e-11
-4.31555e-10
3.40591e-10
1.31658e-10
-3.98809e-10
3.50935e-10
1.76679e-10
-3.62498e-10
3.27857e-10
2.21515e-10
-3.26486e-10
2.74766e-10
2.61997e-10
-2.9406e-10
1.97391e-10
2.94879e-10
-2.67742e-10
1.0304e-10
3.1795e-10
-2.49297e-10
3.2982e-10
-2.39704e-10
1.40379e-10
8.36667e-11
-5.67677e-10
2.52452e-10
1.09914e-10
-5.47847e-10
3.36706e-10
1.57369e-10
-5.13576e-10
3.85503e-10
2.19388e-10
-4.69916e-10
3.95656e-10
2.88184e-10
-4.2219e-10
3.68229e-10
3.56233e-10
-3.75472e-10
3.07574e-10
4.17298e-10
-3.33911e-10
2.2039e-10
4.6668e-10
-3.00523e-10
1.1483e-10
5.01221e-10
-2.77301e-10
5.18812e-10
-2.6529e-10
1.66616e-10
1.49261e-10
-7.21158e-10
2.99925e-10
1.85587e-10
-6.92513e-10
3.98585e-10
2.51174e-10
-6.43298e-10
4.541e-10
3.36151e-10
-5.81529e-10
4.63528e-10
4.29618e-10
-5.14948e-10
4.29154e-10
5.2117e-10
-4.50774e-10
3.56862e-10
6.02646e-10
-3.94503e-10
2.54837e-10
6.68082e-10
-3.49841e-10
1.32486e-10
7.13621e-10
-3.19073e-10
7.36575e-10
-3.03255e-10
2.0302e-10
2.54923e-10
-9.42807e-10
3.65431e-10
3.02523e-10
-9.00116e-10
4.83533e-10
3.8745e-10
-8.28195e-10
5.47414e-10
4.96076e-10
-7.38489e-10
5.54985e-10
6.14304e-10
-6.43641e-10
5.10534e-10
7.28602e-10
-5.53733e-10
4.22233e-10
8.29183e-10
-4.76117e-10
3.00323e-10
9.09183e-10
-4.15341e-10
1.55824e-10
9.64466e-10
-3.73883e-10
9.92253e-10
-3.52766e-10
2.50166e-10
4.22174e-10
-1.24508e-09
4.50263e-10
4.80226e-10
-1.18043e-09
5.92113e-10
5.85527e-10
-1.07519e-09
6.65244e-10
7.16719e-10
-9.45165e-10
6.69058e-10
8.57815e-10
-8.1029e-10
6.10887e-10
9.91965e-10
-6.84696e-10
5.02077e-10
1.10827e-09
-5.78073e-10
3.55538e-10
1.19958e-09
-4.95765e-10
1.84199e-10
1.2621e-09
-4.4023e-10
1.29392e-09
-4.12089e-10
3.06886e-10
6.74871e-10
-1.62851e-09
5.52989e-10
7.44273e-10
-1.53762e-09
7.21425e-10
8.67703e-10
-1.38285e-09
8.03468e-10
1.01748e-09
-1.19852e-09
8.00728e-10
1.17607e-09
-1.01024e-09
7.24968e-10
1.32378e-09
-8.38461e-10
5.91648e-10
1.44947e-09
-6.95236e-10
4.17021e-10
1.54631e-09
-5.86304e-10
2.16887e-10
1.61082e-09
-5.13601e-10
1.64762e-09
-4.76852e-10
4.33829e-10
1.12022e-09
-2.44487e-09
7.77687e-10
1.19398e-09
-2.28899e-09
1.01019e-09
1.32458e-09
-2.03374e-09
1.11438e-09
1.48621e-09
-1.73482e-09
1.09995e-09
1.65289e-09
-1.43828e-09
9.86833e-10
1.80464e-09
-1.17387e-09
7.98917e-10
1.93008e-09
-9.57405e-10
5.58659e-10
2.02448e-09
-7.95359e-10
2.85657e-10
2.0863e-09
-6.887e-10
2.11832e-09
-6.35131e-10
1.13095e-11
4.02667e-13
-2.81483e-11
2.55176e-11
3.16001e-13
-3.54647e-11
4.20492e-11
2.7077e-13
-5.31203e-11
5.80368e-11
1.8696e-13
-6.93166e-11
6.86387e-11
1.02629e-13
-7.52489e-11
7.07617e-11
2.4881e-14
-7.43709e-11
6.34682e-11
-3.83809e-14
-6.94259e-11
4.75747e-11
-8.45245e-14
-6.31572e-11
2.53274e-11
-1.13869e-13
-5.77515e-11
-1.25889e-13
-5.4306e-11
6.46055e-14
5.02477e-14
-1.15891e-13
1.44488e-13
1.15209e-14
-1.64542e-13
2.41285e-13
6.32556e-15
-2.54427e-13
3.37915e-13
2.59848e-15
-3.64546e-13
4.01946e-13
1.89512e-15
-4.22709e-13
4.12606e-13
1.42935e-15
-4.28949e-13
3.66224e-13
1.07043e-15
-4.02291e-13
2.7137e-13
8.14575e-16
-3.64073e-13
1.42827e-13
6.54066e-16
-3.30548e-13
5.59322e-16
-3.06622e-13
6.20295e-16
1.13141e-15
-6.7362e-15
1.03832e-15
4.00177e-16
-2.54576e-15
1.55126e-15
1.41244e-15
-1.86208e-15
2.12164e-15
1.86778e-16
-2.29777e-15
2.47585e-15
6.73621e-17
-2.6479e-15
2.4767e-15
4.76527e-17
-2.64559e-15
2.13864e-15
4.27471e-17
-2.41744e-15
1.54721e-15
3.90862e-17
-2.12913e-15
7.99167e-16
3.66362e-17
-1.89111e-15
3.39763e-17
-1.71569e-15
2.93002e-16
1.66965e-15
-6.4327e-15
1.0661e-16
2.78715e-16
-2.3177e-15
5.30308e-17
1.0612e-16
-6.98868e-16
2.99412e-17
2.15965e-17
-8.42118e-17
3.62398e-17
6.12558e-18
-3.58848e-17
3.59973e-17
1.59022e-18
-3.88966e-17
3.0789e-17
1.46816e-18
-3.52567e-17
2.20559e-17
1.3481e-18
-3.07547e-17
1.13399e-17
1.28602e-18
-2.7092e-17
1.18854e-18
-2.42385e-17
9.21802e-16
5.79354e-15
-7.99512e-15
1.15558e-16
1.00242e-15
-5.43045e-16
1.58012e-17
1.11049e-16
-7.22893e-17
1.60091e-18
7.34922e-18
-4.59216e-17
8.42383e-19
8.20253e-19
-1.94218e-18
7.55659e-19
1.01717e-19
-9.20276e-19
6.41802e-19
9.60724e-20
-7.46348e-19
4.49819e-19
9.3799e-20
-6.45722e-19
2.29069e-19
9.11735e-20
-5.58139e-19
8.47721e-20
-4.89087e-19
6.88785e-16
5.4423e-15
-8.9094e-16
1.24296e-16
1.21991e-15
1.41434e-16
7.12286e-18
1.25773e-16
2.07708e-17
6.72405e-19
5.88042e-18
-7.02586e-18
3.6548e-20
1.56591e-19
-1.39406e-18
2.06064e-20
1.03145e-20
-3.48112e-20
1.6497e-20
4.03917e-21
-2.06114e-20
1.14592e-20
3.82251e-21
-1.66118e-20
5.71912e-21
3.66409e-21
-1.43176e-20
3.34494e-21
-1.23983e-20
1.83739e-16
9.99113e-16
4.81657e-15
3.96348e-17
3.00784e-16
1.05125e-15
1.73768e-18
3.06108e-17
1.08063e-16
1.19653e-19
1.24841e-18
-1.43756e-18
3.11192e-21
3.84761e-20
-2.04145e-19
6.34225e-22
1.86967e-21
-4.01903e-21
4.73995e-22
1.81223e-22
-6.41336e-22
3.24386e-22
1.56034e-22
-4.89096e-22
1.60113e-22
1.4676e-22
-4.15035e-22
1.31323e-22
-3.52498e-22
2.84546e-17
1.55491e-16
1.42318e-15
7.98184e-18
4.80696e-17
3.47593e-16
3.09472e-19
4.81801e-18
2.286e-17
2.2928e-20
3.74471e-19
-4.10934e-19
1.17653e-21
8.83804e-21
-1.81765e-20
2.5342e-23
2.62899e-22
-1.77515e-21
1.50328e-23
1.07935e-23
-2.54388e-23
1.01028e-23
6.98328e-24
-1.57545e-23
4.95344e-24
6.43095e-24
-1.32335e-23
5.64647e-24
-1.11437e-23
4.55968e-18
5.13159e-17
3.05752e-16
8.90812e-19
1.23981e-17
3.53715e-17
7.19134e-20
1.26435e-18
6.82882e-19
7.08011e-21
1.81984e-19
-1.01319e-19
1.00811e-22
3.22917e-21
-3.54097e-21
1.38302e-24
5.53589e-23
-1.33752e-22
5.25988e-25
2.19906e-24
-1.44662e-24
3.40327e-25
3.38677e-25
-5.62478e-25
1.65278e-25
2.98079e-25
-4.58163e-25
2.56785e-25
-3.83032e-25
1.24778e-18
3.26258e-17
4.85823e-17
2.02014e-19
7.90615e-18
-6.7459e-18
2.32585e-20
5.8947e-19
-1.45841e-19
4.63432e-21
1.40047e-19
-3.82429e-20
1.32161e-23
2.05309e-21
-1.30164e-21
9.0756e-25
2.21909e-23
-1.50095e-23
2.24133e-26
3.30609e-25
-1.28305e-24
1.22879e-26
2.5715e-26
-2.28944e-26
5.85709e-27
1.44839e-26
-1.70664e-26
1.22114e-26
-1.40661e-26
5.81959e-19
2.77188e-17
1.02892e-17
1.24402e-19
7.61592e-18
-1.21817e-17
1.28156e-20
5.17813e-19
-8.98786e-20
3.30139e-21
1.25084e-19
-2.29324e-20
5.09854e-24
1.70117e-21
-6.80049e-22
4.91171e-26
1.59254e-23
-5.74111e-24
1.92776e-27
1.79362e-25
-5.78202e-26
4.87342e-28
4.16948e-27
-2.45315e-27
2.15397e-28
7.46816e-28
-6.91841e-28
6.03076e-28
-5.44186e-28
3.81558e-19
2.60688e-18
2.61831e-17
1.19692e-19
-1.35746e-17
8.13038e-18
9.61815e-21
-6.9953e-20
5.28414e-19
2.39332e-21
-1.7463e-20
1.17599e-19
3.34167e-24
-4.47085e-22
1.60093e-21
2.73139e-26
-3.74503e-24
1.40503e-23
1.69839e-27
-3.3357e-26
1.47734e-25
2.20897e-29
-2.7156e-27
1.35114e-27
8.56242e-30
-3.15853e-29
9.8088e-29
-2.2487e-29
3.08445e-29
1.27867e-10
-2.81036e-11
-5.12306e-10
2.28376e-10
-1.69606e-11
-4.97101e-10
3.04565e-10
2.39066e-12
-4.70642e-10
3.49526e-10
2.71037e-11
-4.36301e-10
3.5983e-10
5.46546e-11
-3.98207e-10
3.35929e-10
8.19493e-11
-3.6033e-10
2.81382e-10
1.06446e-10
-3.26106e-10
2.02083e-10
1.26243e-10
-2.98248e-10
1.05503e-10
1.40074e-10
-2.78675e-10
1.47209e-10
-2.68461e-10
1.38226e-10
-5.32404e-11
-5.71277e-10
2.47355e-10
-3.05193e-11
-5.52767e-10
3.29158e-10
1.00138e-11
-5.21021e-10
3.76895e-10
6.04283e-11
-4.79899e-10
3.86942e-10
1.16866e-10
-4.34772e-10
3.60286e-10
1.72427e-10
-3.90321e-10
3.01087e-10
2.22056e-10
-3.50513e-10
2.15847e-10
2.62022e-10
-3.18338e-10
1.12531e-10
2.89884e-10
-2.95854e-10
3.04168e-10
-2.84173e-10
1.60223e-10
-7.11269e-11
-6.95081e-10
2.86677e-10
-3.5357e-11
-6.69481e-10
3.80337e-10
2.84671e-11
-6.25718e-10
4.33209e-10
1.07652e-10
-5.70055e-10
4.42365e-10
1.95266e-10
-5.09789e-10
4.09791e-10
2.80797e-10
-4.5133e-10
3.40967e-10
3.56605e-10
-3.99705e-10
2.43624e-10
4.17274e-10
-3.58467e-10
1.26717e-10
4.59379e-10
-3.29911e-10
4.80765e-10
-3.15177e-10
1.95334e-10
-7.39532e-11
-8.96825e-10
3.4904e-10
-2.27545e-11
-8.58823e-10
4.60304e-10
6.8127e-11
-7.94261e-10
5.2064e-10
1.79097e-10
-7.13361e-10
5.27681e-10
3.00766e-10
-6.27554e-10
4.85425e-10
4.18055e-10
-5.45864e-10
4.01529e-10
5.2089e-10
-4.74962e-10
2.85618e-10
6.02455e-10
-4.19144e-10
1.48139e-10
6.58682e-10
-3.80913e-10
6.86985e-10
-3.61331e-10
2.45759e-10
-4.78359e-11
-1.19567e-09
4.37192e-10
2.29393e-11
-1.13726e-09
5.73123e-10
1.42541e-10
-1.03859e-09
6.42185e-10
2.89512e-10
-9.18021e-10
6.44849e-10
4.47574e-10
-7.93192e-10
5.88141e-10
5.97543e-10
-6.76597e-10
4.83021e-10
7.27104e-10
-5.77271e-10
3.41794e-10
8.28637e-10
-5.00321e-10
1.76789e-10
8.98014e-10
-4.48218e-10
9.32826e-10
-4.2178e-10
3.14724e-10
2.87639e-11
-1.61479e-09
5.55264e-10
1.26684e-10
-1.52474e-09
7.21891e-10
2.73909e-10
-1.37324e-09
7.9999e-10
4.59107e-10
-1.19292e-09
7.94572e-10
6.54286e-10
-1.01164e-09
7.17495e-10
8.35293e-10
-8.45405e-10
5.84393e-10
9.88766e-10
-7.06657e-10
4.11097e-10
1.10714e-09
-6.00953e-10
2.12116e-10
1.18709e-09
-5.30294e-10
1.22762e-09
-4.94695e-10
3.97766e-10
1.86982e-10
-2.16044e-09
7.07402e-10
2.99806e-10
-2.02039e-09
9.0529e-10
4.90403e-10
-1.79728e-09
9.91537e-10
7.15296e-10
-1.54099e-09
9.72365e-10
9.43068e-10
-1.27985e-09
8.68155e-10
1.14851e-09
-1.04746e-09
7.0059e-10
1.31883e-09
-8.57709e-10
4.89752e-10
1.44744e-09
-7.15718e-10
2.53366e-10
1.53197e-09
-6.22017e-10
1.57918e-09
-5.75011e-10
5.88095e-10
4.16034e-10
-3.36655e-09
1.03134e-09
5.15574e-10
-3.11974e-09
1.30736e-09
9.06989e-10
-2.72637e-09
1.41001e-09
1.15737e-09
-2.27957e-09
1.3639e-09
1.40349e-09
-1.8526e-09
1.20319e-09
1.62098e-09
-1.4856e-09
9.61003e-10
1.79711e-09
-1.19346e-09
6.65411e-10
1.92662e-09
-9.78863e-10
3.38307e-10
2.00985e-09
-8.39475e-10
2.05248e-09
-7.70152e-10
3.84831e-12
3.17401e-13
-4.20715e-16
1.12042e-11
2.57867e-13
-6.53292e-17
2.87948e-11
3.90311e-13
-1.24587e-11
5.10739e-11
4.06242e-13
-3.30773e-11
6.85479e-11
2.92019e-13
-6.35961e-11
7.52716e-11
1.54208e-13
-7.44415e-11
6.96568e-11
4.15196e-14
-7.4588e-11
5.30172e-11
-3.74701e-14
-7.00621e-11
2.84197e-11
-8.56352e-14
-6.49551e-11
-1.06601e-13
-6.14081e-11
1.98214e-14
5.26717e-15
-2.13448e-14
5.77283e-14
1.93539e-14
-4.0941e-15
1.42809e-13
2.88571e-14
-4.60003e-14
2.75943e-13
6.77366e-15
-1.53289e-13
3.88769e-13
3.31276e-15
-3.23062e-13
4.35121e-13
2.18302e-15
-4.15664e-13
4.02895e-13
1.50914e-15
-4.30464e-13
3.04565e-13
1.06667e-15
-4.06744e-13
1.61777e-13
8.02893e-16
-3.75875e-13
6.65732e-16
-3.51109e-13
1.98399e-15
6.20102e-15
-9.0911e-14
1.06632e-15
1.25388e-15
-2.93895e-14
1.07956e-15
5.83434e-16
-2.99037e-15
1.73204e-15
9.90902e-16
-1.21282e-15
2.41285e-15
2.66821e-16
-1.99271e-15
2.66482e-15
7.47613e-17
-2.57458e-15
2.41146e-15
4.83049e-17
-2.63752e-15
1.78114e-15
4.23702e-17
-2.4368e-15
9.26479e-16
3.87884e-17
-2.20458e-15
3.57869e-17
-2.01442e-15
1.41699e-14
7.8511e-14
-1.45157e-13
2.20511e-15
1.32606e-14
-1.36538e-14
4.54208e-16
9.81964e-16
-3.51767e-15
6.35669e-17
1.13181e-16
-1.0448e-15
3.33694e-17
2.52798e-17
-8.38723e-17
3.89235e-17
8.46079e-18
-3.48696e-17
3.49868e-17
1.59132e-18
-3.861e-17
2.56232e-17
1.44918e-18
-3.5449e-17
1.32244e-17
1.34087e-18
-3.18416e-17
1.24039e-18
-2.87074e-17
4.97838e-14
2.08698e-13
-3.25192e-13
6.54058e-15
4.15358e-14
-1.13101e-14
7.40043e-16
4.63176e-15
-1.08193e-15
4.86023e-17
2.92691e-16
-6.48473e-16
2.06553e-18
1.42601e-17
-7.53332e-17
9.23656e-19
9.79378e-19
-2.27386e-18
7.29796e-19
1.00057e-19
-9.09857e-19
5.34181e-19
9.44405e-20
-7.53655e-19
2.71728e-19
9.30132e-20
-6.70327e-19
8.71571e-20
-5.91211e-19
3.74817e-14
2.06381e-13
-6.07731e-14
6.91597e-15
4.78235e-14
1.4808e-14
5.16575e-16
5.70659e-15
1.90671e-15
2.72672e-17
3.1405e-16
-8.58137e-17
1.53534e-18
1.43031e-17
-3.31152e-17
3.60431e-20
2.46077e-19
-1.90712e-18
1.99783e-20
1.37983e-20
-3.67458e-20
1.36825e-20
3.96214e-21
-2.07207e-20
6.9391e-21
3.79206e-21
-1.73217e-20
3.4849e-21
-1.51298e-20
9.27226e-15
3.61738e-14
2.05798e-13
2.612e-15
1.36728e-14
4.67319e-14
1.0189e-16
1.85694e-15
6.19706e-15
4.19497e-18
7.4099e-17
1.74455e-16
2.89371e-19
2.32513e-18
-3.33503e-18
5.75287e-21
8.24863e-20
-3.59001e-19
6.14648e-22
2.0209e-21
-5.91491e-21
3.93248e-22
1.78223e-22
-6.47847e-22
1.94294e-22
1.54907e-22
-5.14699e-22
1.39021e-22
-4.40776e-22
1.41375e-15
5.14158e-15
6.94426e-14
6.71387e-16
2.1309e-15
1.84675e-14
2.14868e-17
5.01529e-16
2.15985e-15
6.91526e-19
1.81444e-17
5.06126e-17
3.13278e-20
6.06551e-19
-8.19978e-19
1.63456e-21
1.26333e-20
-3.38143e-20
2.49476e-23
3.06104e-22
-1.73567e-21
1.23962e-23
1.2377e-23
-2.55998e-23
5.90583e-24
6.93292e-24
-1.6746e-23
6.05342e-24
-1.40426e-23
2.17276e-16
1.81064e-15
2.48534e-14
9.05235e-17
3.60674e-16
5.76555e-15
6.07853e-18
1.15794e-16
5.06265e-16
1.60957e-19
4.45048e-18
1.32466e-17
6.26391e-21
2.32304e-19
-1.94681e-19
1.04255e-22
4.33919e-21
-5.1647e-21
1.73114e-24
6.48921e-23
-1.17967e-22
4.30956e-25
2.09832e-24
-1.88665e-24
1.93597e-25
3.36238e-25
-6.01387e-25
2.78216e-25
-4.84854e-25
4.37335e-17
8.56302e-16
9.39802e-15
1.23995e-17
1.79372e-16
5.22256e-16
1.28574e-18
2.43902e-17
1.18924e-16
6.41737e-20
2.06981e-18
4.69046e-18
3.23645e-21
1.55929e-19
-6.40948e-20
1.61953e-23
2.60124e-21
-2.00998e-21
9.69369e-25
3.4277e-23
-1.98542e-23
1.74183e-26
4.35129e-25
-1.25962e-24
6.81245e-27
3.02194e-26
-2.46481e-26
1.33748e-26
-1.79232e-26
1.22333e-17
5.16148e-16
4.35922e-15
6.20007e-18
1.52513e-16
-1.54759e-17
2.93115e-19
9.02645e-18
2.48536e-17
4.34127e-20
1.46414e-18
2.58305e-18
2.34987e-21
1.32972e-19
-3.67318e-20
8.11821e-24
2.21884e-21
-1.45981e-21
7.33012e-26
2.56702e-23
-1.06572e-23
2.43684e-27
2.68463e-25
-8.90473e-26
2.63684e-28
4.01223e-27
-3.60852e-27
6.78815e-28
-7.14819e-28
6.09065e-18
2.40301e-15
4.39441e-16
5.12777e-18
-2.35008e-17
1.4407e-16
1.36928e-19
3.99585e-18
6.97458e-18
3.7063e-20
2.32267e-18
1.38459e-18
1.84247e-21
-2.92616e-20
1.27459e-19
5.76013e-24
-1.42811e-21
2.19286e-21
4.21317e-26
-7.8178e-24
2.28778e-23
1.38062e-27
-5.31247e-26
2.19734e-25
1.15051e-29
-2.19491e-27
1.59115e-27
-3.1881e-29
7.08432e-29
1.43127e-10
-8.69451e-11
-5.53152e-10
2.54819e-10
-7.26879e-11
-5.36152e-10
3.38881e-10
-4.81287e-11
-5.06609e-10
3.87616e-10
-1.65243e-11
-4.68526e-10
3.97703e-10
1.8186e-11
-4.26476e-10
3.70156e-10
5.20346e-11
-3.84801e-10
3.09246e-10
8.21287e-11
-3.47326e-10
2.21662e-10
1.06251e-10
-3.16934e-10
1.15584e-10
1.23004e-10
-2.95635e-10
1.31613e-10
-2.84529e-10
1.56691e-10
-1.77422e-10
-6.21421e-10
2.79117e-10
-1.47546e-10
-6.00362e-10
3.7024e-10
-9.60424e-11
-5.64253e-10
4.22012e-10
-3.01277e-11
-5.18084e-10
4.31387e-10
4.17184e-11
-4.67678e-10
4.00097e-10
1.11279e-10
-4.18283e-10
3.33267e-10
1.72742e-10
-3.7432e-10
2.38343e-10
2.21786e-10
-3.38963e-10