/*--------------------------------*- C++ -*----------------------------------*\
| =========                 |                                                 |
| \\      /  F ield         | OpenFOAM: The Open Source CFD Toolbox           |
|  \\    /   O peration     | Version:  2312                                  |
|   \\  /    A nd           | Website:  www.openfoam.com                      |
|    \\/     M anipulation  |                                                 |
\*---------------------------------------------------------------------------*/
FoamFile
{
    version     2.0;
    format      ascii;
    arch        "LSB;label=32;scalar=64";
    class       volScalarField;
    location    "0.11";
    object      p;
}
// * * * * * * * * * * * * * * * * * * * * * * * * * * * * * * * * * * * * * //

dimensions      [1 -1 -2 0 0 0 0];

internalField   nonuniform List<scalar> 
8000
(
367.822
367.818
367.811
367.801
367.79
367.778
367.767
367.758
367.752
367.748
318.768
318.764
318.756
318.746
318.734
318.722
318.711
318.702
318.695
318.691
269.709
269.704
269.696
269.685
269.673
269.66
269.648
269.638
269.631
269.628
220.643
220.638
220.63
220.618
220.604
220.591
220.578
220.568
220.561
220.557
171.57
171.565
171.556
171.543
171.529
171.514
171.501
171.49
171.483
171.479
122.488
122.483
122.472
122.459
122.444
122.429
122.415
122.404
122.397
122.393
73.3948
73.3892
73.3787
73.3649
73.3497
73.3347
73.3213
73.3105
73.303
73.2991
24.2761
24.2706
24.2603
24.2467
24.232
24.2177
24.2052
24.1952
24.1884
24.1849
-0.265135
-0.270904
-0.281864
-0.296173
-0.311829
-0.32705
-0.34047
-0.351153
-0.358517
-0.362248
-0.331198
-0.336455
-0.346533
-0.359717
-0.374148
-0.388183
-0.400568
-0.410437
-0.417239
-0.420695
-0.409973
-0.41403
-0.422065
-0.432678
-0.444358
-0.455774
-0.465897
-0.473999
-0.479604
-0.482464
-0.500928
-0.503357
-0.508617
-0.515762
-0.52376
-0.53169
-0.538811
-0.544569
-0.548585
-0.550643
-0.598984
-0.599624
-0.601807
-0.605118
-0.609067
-0.613175
-0.617008
-0.620201
-0.622474
-0.623652
-0.69819
-0.697228
-0.696595
-0.696373
-0.696576
-0.697131
-0.697895
-0.698687
-0.699319
-0.699671
-0.793286
-0.791199
-0.788503
-0.785633
-0.782975
-0.780774
-0.779124
-0.777997
-0.777309
-0.776994
-0.881017
-0.878394
-0.874613
-0.87027
-0.865945
-0.862073
-0.858905
-0.856536
-0.854977
-0.854213
-0.96052
-0.957891
-0.953943
-0.949259
-0.944443
-0.939985
-0.936211
-0.933301
-0.931336
-0.930356
-1.03282
-1.03058
-1.02715
-1.02298
-1.01859
-1.0144
-1.01077
-1.00789
-1.00591
-1.00491
-1.10007
-1.09844
-1.09591
-1.09275
-1.08931
-1.08592
-1.08287
-1.08038
-1.07864
-1.07775
-1.16483
-1.16385
-1.1623
-1.16027
-1.15791
-1.15546
-1.15313
-1.15117
-1.14975
-1.14901
367.83
367.826
367.818
367.808
367.796
367.783
367.772
367.762
367.755
367.751
318.777
318.772
318.764
318.753
318.74
318.727
318.716
318.706
318.699
318.695
269.719
269.714
269.705
269.693
269.68
269.666
269.653
269.643
269.635
269.631
220.655
220.65
220.64
220.627
220.612
220.597
220.584
220.573
220.565
220.561
171.585
171.579
171.568
171.554
171.538
171.522
171.507
171.495
171.487
171.483
122.505
122.499
122.487
122.471
122.454
122.437
122.422
122.41
122.401
122.397
73.4144
73.4075
73.3948
73.3784
73.3606
73.3433
73.328
73.3159
73.3074
73.3031
24.2972
24.2901
24.2771
24.2606
24.2429
24.2261
24.2116
24.2002
24.1925
24.1886
-0.242951
-0.250332
-0.264
-0.281463
-0.300189
-0.318068
-0.333591
-0.345794
-0.354136
-0.358334
-0.311491
-0.318178
-0.330664
-0.346635
-0.36376
-0.380117
-0.394336
-0.405533
-0.41319
-0.417051
-0.394981
-0.400092
-0.409934
-0.422627
-0.436301
-0.449431
-0.46091
-0.470002
-0.476243
-0.479406
-0.492468
-0.495377
-0.501549
-0.509759
-0.518785
-0.527613
-0.535463
-0.541769
-0.546143
-0.548373
-0.597891
-0.598317
-0.600346
-0.603549
-0.60744
-0.61155
-0.615436
-0.618703
-0.621043
-0.622253
-0.703543
-0.701788
-0.700075
-0.698724
-0.697928
-0.697712
-0.697941
-0.698394
-0.698837
-0.699097
-0.802608
-0.799454
-0.795183
-0.790605
-0.786391
-0.782939
-0.780377
-0.778643
-0.777591
-0.777098
-0.89145
-0.887777
-0.882388
-0.876258
-0.870269
-0.865025
-0.86083
-0.857754
-0.85576
-0.854785
-0.969767
-0.966298
-0.961037
-0.954864
-0.948629
-0.942978
-0.938285
-0.934724
-0.932352
-0.931171
-1.0395
-1.03673
-1.03244
-1.02728
-1.02192
-1.0169
-1.01259
-1.00923
-1.00693
-1.00578
-1.10368
-1.10184
-1.09895
-1.09536
-1.09146
-1.08764
-1.08423
-1.08147
-1.07954
-1.07854
-1.16553
-1.16464
-1.16321
-1.16124
-1.1589
-1.1564
-1.15401
-1.15196
-1.15047
-1.14968
367.847
367.842
367.833
367.821
367.807
367.793
367.78
367.769
367.762
367.758
318.794
318.789
318.779
318.767
318.752
318.738
318.725
318.713
318.706
318.701
269.739
269.733
269.723
269.709
269.693
269.677
269.663
269.651
269.643
269.638
220.68
220.673
220.661
220.645
220.628
220.61
220.595
220.582
220.573
220.568
171.615
171.607
171.593
171.575
171.556
171.536
171.519
171.505
171.495
171.49
122.541
122.532
122.516
122.496
122.474
122.453
122.435
122.42
122.41
122.404
73.4557
73.4457
73.4281
73.4059
73.3825
73.3604
73.3413
73.3263
73.3161
73.3108
24.3432
24.3324
24.3132
24.2898
24.2656
24.2433
24.2246
24.2102
24.2006
24.1958
-0.195025
-0.206175
-0.226061
-0.250595
-0.276078
-0.299697
-0.319686
-0.335078
-0.345439
-0.350613
-0.268581
-0.278707
-0.296822
-0.319135
-0.342233
-0.363625
-0.381747
-0.395733
-0.40516
-0.409875
-0.362229
-0.369936
-0.384085
-0.401557
-0.419668
-0.436513
-0.450872
-0.462035
-0.469601
-0.473401
-0.474425
-0.478493
-0.486823
-0.497435
-0.508691
-0.519418
-0.528785
-0.536221
-0.541338
-0.543928
-0.597008
-0.596737
-0.598196
-0.600934
-0.60451
-0.60849
-0.612407
-0.615791
-0.618249
-0.619528
-0.717555
-0.71359
-0.708954
-0.704654
-0.701346
-0.699255
-0.698228
-0.697915
-0.697933
-0.698007
-0.825111
-0.819162
-0.81085
-0.802026
-0.794076
-0.787722
-0.783108
-0.780035
-0.778198
-0.777344
-0.915527
-0.909229
-0.899899
-0.889503
-0.879654
-0.871318
-0.864861
-0.860264
-0.85735
-0.85594
-0.990292
-0.984806
-0.976467
-0.966882
-0.957472
-0.949199
-0.942533
-0.937603
-0.934376
-0.932786
-1.05371
-1.04971
-1.04353
-1.0362
-1.02876
-1.02195
-1.01626
-1.01189
-1.00895
-1.00747
-1.11076
-1.10851
-1.10494
-1.10048
-1.09566
-1.09101
-1.08688
-1.08357
-1.08126
-1.08007
-1.16602
-1.16549
-1.16445
-1.16277
-1.16057
-1.15808
-1.1556
-1.15343
-1.15182
-1.15096
367.87
367.864
367.853
367.839
367.823
367.807
367.792
367.78
367.771
367.767
318.82
318.813
318.802
318.787
318.77
318.753
318.737
318.724
318.715
318.711
269.769
269.762
269.749
269.732
269.713
269.694
269.677
269.663
269.653
269.648
220.717
220.708
220.693
220.673
220.651
220.629
220.61
220.595
220.584
220.578
171.661
171.65
171.632
171.608
171.582
171.558
171.536
171.519
171.507
171.501
122.598
122.585
122.562
122.534
122.505
122.477
122.453
122.435
122.422
122.416
73.5236
73.5077
73.4813
73.4491
73.4162
73.3861
73.3609
73.3416
73.3285
73.322
24.4223
24.4039
24.3732
24.3371
24.3015
24.27
24.2443
24.2251
24.2125
24.2063
-0.114342
-0.132775
-0.164013
-0.201079
-0.238201
-0.271429
-0.298701
-0.319191
-0.332734
-0.33942
-0.195018
-0.212044
-0.240925
-0.274814
-0.30837
-0.338256
-0.362768
-0.381215
-0.393426
-0.399466
-0.305324
-0.318529
-0.341265
-0.367667
-0.393617
-0.41674
-0.435811
-0.450276
-0.459914
-0.464707
-0.443995
-0.450604
-0.463276
-0.478279
-0.493331
-0.507148
-0.51892
-0.52811
-0.534369
-0.537519
-0.599743
-0.597581
-0.597373
-0.598608
-0.60108
-0.604475
-0.608222
-0.611671
-0.614266
-0.615637
-0.748727
-0.73937
-0.727905
-0.717025
-0.708416
-0.70259
-0.699179
-0.69747
-0.696748
-0.696502
-0.870058
-0.857903
-0.840833
-0.823178
-0.807847
-0.796048
-0.787753
-0.782375
-0.779224
-0.777777
-0.960388
-0.948676
-0.9314
-0.912672
-0.895593
-0.881709
-0.871345
-0.864197
-0.859776
-0.857673
-1.02624
-1.01685
-1.00274
-0.986903
-0.971865
-0.959099
-0.949135
-0.941969
-0.93738
-0.935149
-1.07692
-1.07077
-1.06132
-1.05029
-1.03938
-1.02968
-1.02176
-1.01581
-1.01187
-1.00991
-1.12083
-1.11815
-1.11362
-1.10786
-1.10172
-1.09585
-1.09068
-1.08656
-1.08369
-1.08222
-1.16431
-1.16495
-1.1649
-1.16402
-1.16236
-1.16013
-1.15768
-1.1554
-1.15365
-1.15271
367.898
367.891
367.878
367.862
367.843
367.824
367.807
367.793
367.783
367.778
318.851
318.844
318.83
318.811
318.791
318.771
318.753
318.738
318.727
318.722
269.808
269.798
269.782
269.76
269.737
269.714
269.694
269.677
269.666
269.66
220.766
220.754
220.733
220.707
220.679
220.653
220.629
220.61
220.597
220.591
171.725
171.709
171.683
171.65
171.616
171.585
171.557
171.536
171.522
171.514
122.68
122.66
122.627
122.586
122.545
122.508
122.477
122.453
122.437
122.429
73.6248
73.5991
73.5582
73.5096
73.4623
73.4205
73.3864
73.361
73.3442
73.3357
24.5493
24.516
24.464
24.4064
24.3523
24.3065
24.2706
24.2445
24.2276
24.2195
0.0124239
-0.0201703
-0.071879
-0.129949
-0.18524
-0.232972
-0.270889
-0.298624
-0.316596
-0.325368
-0.0767236
-0.10753
-0.156391
-0.210258
-0.260736
-0.30368
-0.337616
-0.36243
-0.378529
-0.386394
-0.211076
-0.235966
-0.275661
-0.31809
-0.357012
-0.389887
-0.415934
-0.435117
-0.447651
-0.453808
-0.394669
-0.407142
-0.428665
-0.451433
-0.472517
-0.490937
-0.50615
-0.517788
-0.525613
-0.529519
-0.613732
-0.606525
-0.601968
-0.599035
-0.598464
-0.600213
-0.603321
-0.606673
-0.609371
-0.610839
-0.816129
-0.793301
-0.766198
-0.74103
-0.721699
-0.708917
-0.701368
-0.697358
-0.695464
-0.694736
-0.956668
-0.930429
-0.894971
-0.85968
-0.83051
-0.809208
-0.794873
-0.785887
-0.780762
-0.778454
-1.03864
-1.01608
-0.983865
-0.949925
-0.920231
-0.897184
-0.880673
-0.86967
-0.863049
-0.859955
-1.083
-1.06677
-1.04325
-1.01708
-0.992946
-0.973182
-0.958258
-0.947826
-0.941297
-0.938165
-1.10924
-1.10044
-1.08653
-1.07005
-1.05403
-1.04015
-1.02905
-1.02089
-1.01556
-1.01294
-1.13098
-1.1292
-1.12409
-1.11695
-1.10925
-1.10189
-1.09542
-1.09025
-1.08666
-1.08483
-1.15555
-1.16022
-1.1626
-1.16368
-1.16343
-1.16203
-1.15989
-1.15762
-1.15578
-1.15475
367.93
367.921
367.906
367.886
367.864
367.842
367.823
367.806
367.795
367.789
318.888
318.878
318.861
318.839
318.815
318.791
318.769
318.752
318.74
318.734
269.853
269.84
269.819
269.793
269.764
269.737
269.712
269.693
269.679
269.672
220.826
220.809
220.782
220.748
220.712
220.679
220.65
220.628
220.612
220.604
171.806
171.784
171.747
171.702
171.657
171.616
171.582
171.555
171.538
171.529
122.792
122.76
122.709
122.651
122.595
122.545
122.505
122.475
122.455
122.445
73.7735
73.7294
73.662
73.5881
73.5202
73.4623
73.4166
73.3834
73.3618
73.3511
24.7492
24.6864
24.5959
24.5018
24.4192
24.3528
24.3026
24.2674
24.2452
24.2345
0.207942
0.147606
0.0593753
-0.033855
-0.116902
-0.18493
-0.237208
-0.27442
-0.298042
-0.309429
0.112633
0.0533976
-0.033136
-0.121355
-0.198293
-0.260183
-0.307082
-0.340309
-0.361391
-0.371556
-0.0535758
-0.103316
-0.177516
-0.248694
-0.308619
-0.356026
-0.391823
-0.417296
-0.433563
-0.44145
-0.317733
-0.340109
-0.378857
-0.415345
-0.445894
-0.470994
-0.490936
-0.505794
-0.51562
-0.520481
-0.671316
-0.640915
-0.62057
-0.606248
-0.598358
-0.596481
-0.598182
-0.601182
-0.603926
-0.605488
-0.977001
-0.911997
-0.842476
-0.785213
-0.744644
-0.71953
-0.705302
-0.697835
-0.694268
-0.692872
-1.13142
-1.07008
-0.991124
-0.920041
-0.8656
-0.828486
-0.804878
-0.790687
-0.78284
-0.779376
-1.17628
-1.13025
-1.06813
-1.00672
-0.955924
-0.918575
-0.893042
-0.876649
-0.867064
-0.862668
-1.17034
-1.14103
-1.10202
-1.05963
-1.02168
-0.991723
-0.969858
-0.955008
-0.945931
-0.941646
-1.14923
-1.13937
-1.11903
-1.09555
-1.07267
-1.05319
-1.03792
-1.02688
-1.0198
-1.01636
-1.13458
-1.13975
-1.13466
-1.12686
-1.11766
-1.10872
-1.10076
-1.09436
-1.08994
-1.08768
-1.13096
-1.1475
-1.15469
-1.16026
-1.16284
-1.16319
-1.16185
-1.15981
-1.15796
-1.15688
367.962
367.952
367.934
367.911
367.886
367.861
367.838
367.82
367.807
367.8
318.925
318.913
318.893
318.866
318.838
318.81
318.786
318.766
318.752
318.745
269.901
269.885
269.859
269.827
269.792
269.759
269.731
269.708
269.692
269.685
220.893
220.871
220.835
220.792
220.747
220.706
220.672
220.645
220.627
220.618
171.903
171.871
171.819
171.76
171.701
171.649
171.607
171.575
171.554
171.543
122.936
122.886
122.81
122.727
122.65
122.585
122.534
122.496
122.472
122.46
73.9843
73.9075
73.7975
73.6851
73.587
73.509
73.4493
73.4069
73.38
73.3668
25.0684
24.9455
24.7808
24.6261
24.5012
24.4067
24.3386
24.2922
24.2636
24.2501
0.509133
0.395482
0.239529
0.0892345
-0.0346771
-0.129948
-0.199915
-0.248438
-0.278633
-0.29301
0.422366
0.301256
0.141725
-0.00431963
-0.121602
-0.209545
-0.273017
-0.316486
-0.343432
-0.356246
0.226957
0.112157
-0.0321581
-0.154457
-0.247761
-0.316044
-0.364754
-0.398063
-0.41879
-0.428688
-0.194412
-0.232586
-0.305582
-0.366956
-0.412736
-0.447658
-0.474001
-0.492937
-0.505179
-0.51116
-0.867007
-0.74497
-0.669954
-0.6252
-0.601999
-0.593719
-0.593169
-0.595601
-0.598356
-0.600016
-1.38457
-1.18003
-0.992452
-0.861061
-0.780305
-0.735102
-0.711101
-0.698959
-0.693263
-0.691052
-1.4844
-1.34108
-1.16062
-1.01454
-0.915826
-0.854304
-0.8176
-0.796551
-0.785307
-0.780454
-1.40822
-1.31882
-1.20064
-1.08828
-1.0038
-0.945772
-0.908018
-0.88472
-0.871508
-0.865569
-1.29459
-1.25601
-1.18478
-1.11562
-1.05784
-1.01422
-0.983376
-0.963036
-0.950906
-0.945273
-1.19469
-1.19912
-1.15894
-1.1257
-1.09436
-1.06817
-1.04782
-1.03334
-1.02422
-1.01983
-1.13108
-1.15997
-1.14599
-1.13664
-1.12594
-1.11576
-1.10627
-1.09854
-1.09319
-1.09047
-1.08962
-1.1383
-1.14202
-1.153
-1.15972
-1.16315
-1.16323
-1.16169
-1.15993
-1.15884
367.992
367.98
367.96
367.934
367.905
367.877
367.852
367.831
367.817
367.81
318.959
318.945
318.922
318.892
318.859
318.828
318.8
318.778
318.763
318.755
269.947
269.928
269.896
269.858
269.818
269.78
269.747
269.722
269.704
269.695
220.96
220.932
220.886
220.833
220.78
220.731
220.691
220.66
220.64
220.629
172.008
171.963
171.894
171.817
171.744
171.681
171.63
171.593
171.568
171.556
123.105
123.029
122.92
122.806
122.706
122.624
122.561
122.516
122.488
122.473
74.2645
74.132
73.958
73.7931
73.6581
73.5561
73.4808
73.429
73.3966
73.381
25.5599
25.315
25.0233
24.7756
24.5923
24.4631
24.3745
24.3161
24.2809
24.2645
0.949393
0.734846
0.468793
0.23427
0.055416
-0.0732668
-0.163135
-0.223571
-0.260521
-0.277921
0.936395
0.67541
0.377524
0.13756
-0.0355268
-0.156313
-0.238917
-0.293525
-0.32661
-0.342136
0.814617
0.504815
0.183998
-0.033479
-0.176366
-0.272699
-0.337188
-0.379369
-0.404891
-0.41689
0.188881
-0.000695628
-0.195534
-0.302245
-0.372312
-0.421786
-0.456595
-0.480396
-0.495333
-0.502521
-1.26539
-0.937001
-0.77305
-0.660641
-0.608409
-0.591483
-0.588433
-0.590324
-0.593155
-0.59495
-2.37588
-1.71548
-1.26318
-0.980386
-0.828216
-0.754342
-0.718043
-0.700452
-0.692446
-0.689392
-2.1141
-1.82444
-1.4361
-1.15179
-0.979644
-0.884584
-0.831701
-0.80273
-0.787793
-0.781486
-1.677
-1.60122
-1.38816
-1.19656
-1.06114
-0.976378
-0.924038
-0.892921
-0.875808
-0.868263
-1.42887
-1.38422
-1.28107
-1.18367
-1.09861
-1.0386
-0.997414
-0.970977
-0.955609
-0.948588
-1.21333
-1.23751
-1.19953
-1.15702
-1.11669
-1.08374
-1.05776
-1.03954
-1.02829
-1.02295
-1.12803
-1.15713
-1.158
-1.14359
-1.13207
-1.12233
-1.11141
-1.1023
-1.09605
-1.09289
-1.10955
-1.1197
-1.12789
-1.13954
-1.1527
-1.16177
-1.16385
-1.16301
-1.16147
-1.16042
368.014
368.001
367.979
367.95
367.919
367.889
367.862
367.84
367.825
367.817
318.986
318.97
318.944
318.911
318.875
318.841
318.811
318.787
318.771
318.762
269.983
269.962
269.926
269.882
269.837
269.795
269.759
269.732
269.713
269.703
221.017
220.982
220.928
220.866
220.805
220.751
220.706
220.672
220.649
220.638
172.103
172.044
171.957
171.864
171.778
171.705
171.648
171.606
171.579
171.565
123.276
123.166
123.02
122.876
122.752
122.655
122.583
122.532
122.499
122.484
74.5865
74.3718
74.1172
73.8933
73.7201
73.5943
73.5062
73.4464
73.4095
73.3918
26.232
25.7685
25.291
24.9264
24.6765
24.5127
24.4047
24.3356
24.2947
24.2757
1.50961
1.13067
0.712775
0.376957
0.137229
-0.0242264
-0.13264
-0.2035
-0.24624
-0.266183
1.71945
1.18017
0.652111
0.285017
0.0460322
-0.109069
-0.210128
-0.274836
-0.313276
-0.331115
1.91533
1.18139
0.479816
0.103016
-0.103304
-0.232313
-0.313247
-0.363923
-0.39378
-0.40762
1.17016
0.523037
-0.0329404
-0.227948
-0.327889
-0.396185
-0.44098
-0.469852
-0.487379
-0.495676
-1.50381
-1.26056
-0.951586
-0.718442
-0.61501
-0.588584
-0.584097
-0.585843
-0.588904
-0.590881
-3.82917
-2.74756
-1.67673
-1.13935
-0.881079
-0.772753
-0.724351
-0.701724
-0.691732
-0.687994
-3.38675
-2.60965
-1.78758
-1.31624
-1.04726
-0.913043
-0.844235
-0.807906
-0.789727
-0.782199
-2.22266
-2.04797
-1.57702
-1.31698
-1.11889
-1.00429
-0.937964
-0.899685
-0.879164
-0.870268
-1.45194
-1.5574
-1.38259
-1.27002
-1.13922
-1.06036
-1.0094
-0.977417
-0.959241
-0.95106
-1.07511
-1.23261
-1.24625
-1.21725
-1.14018
-1.09763
-1.06611
-1.04444
-1.03136
-1.02524
-0.940502
-1.1297
-1.18639
-1.17217
-1.1372
-1.12808
-1.11554
-1.10511
-1.09811
-1.0946
-0.886398
-1.10678
-1.13313
-1.1428
-1.14409
-1.16009
-1.16386
-1.16368
-1.16242
-1.16144
368.026
368.012
367.989
367.959
367.927
367.895
367.867
367.844
367.829
367.821
319
318.984
318.956
318.921
318.884
318.848
318.817
318.792
318.775
318.766
270.004
269.98
269.942
269.895
269.848
269.804
269.766
269.737
269.717
269.707
221.049
221.011
220.952
220.885
220.819
220.761
220.714
220.678
220.654
220.643
172.161
172.092
171.994
171.891
171.797
171.719
171.658
171.613
171.585
171.57
123.39
123.254
123.081
122.916
122.779
122.673
122.595
122.54
122.506
122.489
74.8399
74.5406
74.2213
73.9556
73.7573
73.617
73.5208
73.4562
73.4167
73.3979
26.8955
26.1305
25.4827
25.0268
24.7304
24.5429
24.4224
24.3468
24.3024
24.2821
1.97474
1.42678
0.881173
0.469649
0.188868
0.00515234
-0.115031
-0.19214
-0.238221
-0.259621
2.41114
1.59741
0.858913
0.386721
0.0986662
-0.0801763
-0.193191
-0.264097
-0.305723
-0.324915
2.99107
1.76333
0.734706
0.208895
-0.0537949
-0.206273
-0.298605
-0.354832
-0.387388
-0.402341
2.76424
1.14258
0.163082
-0.165451
-0.292878
-0.377668
-0.430775
-0.463389
-0.482672
-0.491688
-0.316389
-1.15963
-1.10283
-0.775759
-0.618887
-0.584642
-0.580645
-0.582823
-0.586233
-0.588397
-4.1553
-3.41732
-2.08325
-1.27436
-0.918303
-0.783121
-0.727496
-0.702071
-0.691048
-0.686979
-1.04688
-3.14993
-1.98393
-1.42253
-1.08952
-0.929352
-0.851045
-0.810524
-0.790543
-0.782359
3.05679
-2.1087
-1.62114
-1.37488
-1.15068
-1.01962
-0.945512
-0.903219
-0.880793
-0.871157
3.57452
-1.3367
-1.37941
-1.28225
-1.15592
-1.07111
-1.01568
-0.980756
-0.961039
-0.952225
3.28263
-1.06982
-1.21853
-1.19825
-1.14444
-1.10295
-1.07012
-1.04688
-1.03286
-1.02632
3.15037
-0.984685
-1.17844
-1.1445
-1.13514
-1.12842
-1.11697
-1.10632
-1.09904
-1.09538
3.12378
-0.952203
-1.13307
-1.1007
-1.1326
-1.15532
-1.16269
-1.16361
-1.16271
-1.16184
368.026
368.012
367.989
367.959
367.927
367.895
367.867
367.844
367.829
367.821
319
318.983
318.955
318.921
318.883
318.848
318.817
318.792
318.775
318.766
270.003
269.98
269.941
269.895
269.847
269.803
269.766
269.737
269.717
269.707
221.048
221.01
220.951
220.884
220.819
220.761
220.714
220.678
220.654
220.643
172.158
172.09
171.993
171.89
171.797
171.718
171.657
171.613
171.585
171.571
123.381
123.247
123.077
122.915
122.778
122.673
122.595
122.54
122.506
122.49
74.8096
74.5244
74.2139
73.9525
73.7561
73.6167
73.5207
73.4563
73.4169
73.3981
26.7767
26.0843
25.4664
25.0215
24.7288
24.5425
24.4225
24.347
24.3027
24.2824
1.90906
1.39315
0.867913
0.464888
0.187295
0.00476689
-0.114973
-0.191918
-0.237936
-0.259318
2.30158
1.54086
0.842148
0.382218
0.0975081
-0.080289
-0.19298
-0.263792
-0.305393
-0.324582
2.88461
1.72303
0.727057
0.208693
-0.0532732
-0.205663
-0.298061
-0.35437
-0.38698
-0.40196
2.79748
1.23154
0.204666
-0.150925
-0.288201
-0.375703
-0.429727
-0.462717
-0.48217
-0.491249
-0.0530753
-0.913531
-1.02752
-0.74941
-0.609481
-0.5812
-0.579099
-0.581968
-0.585651
-0.587913
-4.02729
-3.35802
-2.04831
-1.25988
-0.910752
-0.779832
-0.725929
-0.701183
-0.690445
-0.68648
-2.21625
-3.24061
-2.00412
-1.42535
-1.08689
-0.927289
-0.849842
-0.809749
-0.789981
-0.781881
2.41283
-2.19796
-1.6438
-1.38239
-1.15086
-1.01863
-0.944716
-0.902612
-0.88031
-0.87073
3.41737
-1.40065
-1.39672
-1.2925
-1.15746
-1.0709
-1.01524
-0.980321
-0.96065
-0.951864
3.21043
-1.0757
-1.23959
-1.21043
-1.14673
-1.10327
-1.06995
-1.04659
-1.03256
-1.02603
3.10423
-0.974835
-1.18446
-1.149
-1.13642
-1.1288
-1.11693
-1.10613
-1.09882
-1.09515
3.10857
-0.939669
-1.14493
-1.10163
-1.13323
-1.15551
-1.16265
-1.16348
-1.16255
-1.16167
368.013
368
367.978
367.95
367.919
367.888
367.862
367.84
367.825
367.817
318.985
318.969
318.943
318.91
318.875
318.841
318.811
318.787
318.771
318.763
269.981
269.96
269.924
269.881
269.837
269.795
269.759
269.732
269.713
269.703
221.013
220.979
220.926
220.865
220.804
220.75
220.705
220.672
220.649
220.638
172.096
172.038
171.953
171.862
171.777
171.705
171.648
171.606
171.579
171.566
123.259
123.154
123.012
122.872
122.75
122.655
122.583
122.532
122.5
122.484
74.5493
74.3468
74.1039
73.8872
73.7176
73.5936
73.5063
73.4469
73.4101
73.3925
26.1391
25.7145
25.2674
24.9176
24.6737
24.5122
24.4052
24.3364
24.2956
24.2767
1.4381
1.08598
0.691897
0.368611
0.134392
-0.0248045
-0.132288
-0.20278
-0.245381
-0.265282
1.60734
1.11874
0.630937
0.278678
0.0445121
-0.108889
-0.209365
-0.273897
-0.312298
-0.330134
1.80091
1.11851
0.471445
0.10506
-0.101228
-0.230436
-0.311665
-0.362587
-0.3926
-0.406509
1.2068
0.584786
0.0157871
-0.206772
-0.319278
-0.391705
-0.438278
-0.468017
-0.485956
-0.494413
-1.18707
-1.02072
-0.862383
-0.681125
-0.600106
-0.58175
-0.580433
-0.583597
-0.587283
-0.589496
-3.66152
-2.63356
-1.60948
-1.10845
-0.866723
-0.765806
-0.720541
-0.699378
-0.690053
-0.686569
-3.38884
-2.63612
-1.78307
-1.30286
-1.0385
-0.907909
-0.841056
-0.805792
-0.788146
-0.78083
-2.20119
-2.04483
-1.58809
-1.31047
-1.11445
-1.00109
-0.935636
-0.897965
-0.877787
-0.869037
-1.4223
-1.62622
-1.39703
-1.2622
-1.13738
-1.05868
-1.00787
-0.976125
-0.958115
-0.950014
-1.07368
-1.283
-1.26212
-1.2209
-1.14211
-1.09723
-1.06525
-1.04353
-1.03049
-1.02439
-0.97188
-1.14808
-1.19008
-1.17439
-1.14214
-1.12845
-1.11512
-1.10449
-1.09745
-1.09394
-0.901786
-1.10066
-1.13065
-1.14346
-1.14757
-1.16027
-1.1636
-1.16325
-1.16193
-1.16094
367.99
367.979
367.959
367.933
367.904
367.876
367.851
367.831
367.817
367.81
318.957
318.944
318.92
318.891
318.859
318.828
318.8
318.778
318.763
318.755
269.944
269.926
269.895
269.857
269.817
269.779
269.747
269.722
269.704
269.695
220.956
220.928
220.883
220.831
220.778
220.731
220.691
220.66
220.64
220.63
172
171.956
171.889
171.814
171.742
171.68
171.63
171.593
171.568
171.556
123.091
123.017
122.912
122.802
122.704
122.623
122.561
122.517
122.488
122.474
74.2374
74.1119
73.9462
73.7872
73.6557
73.5556
73.4812
73.4298
73.3976
73.382
25.5077
25.2799
25.0058
24.7686
24.5903
24.4633
24.3756
24.3175
24.2824
24.266
0.90452
0.703428
0.452268
0.227173
0.0530939
-0.0733818
-0.162274
-0.222302
-0.259097
-0.276451
0.88278
0.64257
0.363673
0.133033
-0.0362257
-0.155479
-0.237528
-0.291969
-0.325024
-0.340555
0.766039
0.482432
0.182214
-0.0307455
-0.173294
-0.269931
-0.334816
-0.377316
-0.403041
-0.415133
0.203367
0.0279292
-0.168485
-0.286464
-0.363582
-0.416407
-0.452985
-0.477745
-0.493172
-0.500561
-1.16147
-0.856157
-0.720772
-0.633484
-0.594878
-0.583943
-0.583819
-0.587196
-0.590747
-0.592827
-2.2573
-1.6437
-1.21572
-0.954453
-0.814571
-0.74652
-0.713213
-0.697195
-0.689962
-0.687216
-2.0713
-1.78899
-1.4103
-1.13563
-0.969864
-0.878244
-0.827464
-0.799727
-0.785432
-0.779392
-1.65411
-1.58584
-1.37751
-1.18839
-1.0554
-0.971993
-0.920758
-0.890401
-0.87372
-0.866365
-1.39646
-1.38231
-1.2793
-1.18085
-1.09609
-1.03599
-0.995116
-0.969013
-0.953869
-0.946958
-1.22347
-1.24328
-1.19678
-1.15943
-1.11693
-1.08255
-1.05629
-1.03809
-1.0269
-1.02161
-1.16127
-1.16532
-1.15607
-1.14427
-1.133
-1.12185
-1.1105
-1.10126
-1.09499
-1.09184
-1.12364
-1.12031
-1.12655
-1.14035
-1.15319
-1.16136
-1.1632
-1.16225
-1.16068
-1.15962
367.961
367.951
367.933
367.911
367.885
367.86
367.838
367.82
367.807
367.8
318.923
318.911
318.891
318.866
318.837
318.81
318.786
318.766
318.752
318.745
269.898
269.883
269.857
269.825
269.791
269.759
269.731
269.708
269.693
269.685
220.889
220.867
220.832
220.79
220.746
220.706
220.672
220.645
220.627
220.618
171.897
171.865
171.815
171.757
171.7
171.649
171.607
171.575
171.554
171.544
122.925
122.877
122.804
122.724
122.649
122.585
122.534
122.497
122.473
122.461
73.968
73.8947
73.7895
73.6811
73.5855
73.509
73.4501
73.4081
73.3813
73.3682
25.0434
24.9272
24.771
24.6223
24.5006
24.4077
24.3403
24.2941
24.2657
24.2522
0.485809
0.378068
0.229742
0.085115
-0.0356304
-0.12925
-0.198435
-0.246618
-0.276684
-0.291024
0.400326
0.286411
0.134854
-0.00630489
-0.121084
-0.20795
-0.271021
-0.314374
-0.341312
-0.354139
0.215585
0.107824
-0.0307178
-0.151065
-0.244154
-0.312751
-0.361848
-0.39547
-0.416401
-0.426395
-0.173058
-0.212951
-0.2894
-0.355488
-0.404966
-0.442233
-0.470002
-0.489778
-0.502476
-0.508653
-0.816884
-0.700723
-0.639812
-0.606854
-0.590849
-0.586593
-0.588305
-0.591998
-0.59541
-0.597342
-1.33287
-1.13517
-0.961681
-0.842333
-0.76873
-0.727621
-0.706009
-0.695224
-0.690242
-0.688328
-1.45617
-1.31126
-1.13896
-1.00058
-0.906469
-0.84781
-0.812962
-0.793044
-0.782417
-0.777827
-1.39425
-1.30269
-1.1882
-1.07965
-0.997375
-0.940856
-0.904231
-0.881688
-0.868912
-0.863168
-1.28913
-1.24979
-1.1798
-1.11139
-1.05409
-1.0109
-0.980533
-0.960578
-0.948698
-0.943186
-1.19304
-1.20008
-1.15891
-1.12456
-1.09265
-1.06615
-1.04581
-1.03144
-1.02243
-1.0181
-1.13552
-1.16701
-1.14522
-1.13587
-1.12508
-1.1145
-1.10486
-1.09711
-1.09178
-1.08909
-1.09268
-1.14233
-1.14111
-1.15236
-1.15909
-1.16223
-1.1622
-1.16062
-1.15886
-1.15778
367.929
367.92
367.905
367.886
367.864
367.842
367.823
367.807
367.795
367.789
318.886
318.876
318.86
318.838
318.814
318.79
318.769
318.752
318.74
318.734
269.85
269.839
269.818
269.792
269.764
269.736
269.712
269.693
269.68
269.673
220.823
220.807
220.78
220.747
220.712
220.679
220.65
220.628
220.613
220.605
171.802
171.78
171.744
171.7
171.656
171.616
171.582
171.556
171.539
171.53
122.785
122.755
122.706
122.649
122.594
122.545
122.505
122.476
122.456
122.446
73.7648
73.7225
73.6577
73.586
73.5198
73.4629
73.4179
73.385
73.3636
73.353
24.7383
24.6785
24.5918
24.5008
24.4201
24.3546
24.3049
24.2699
24.2477
24.237
0.197162
0.139477
0.0548872
-0.0353347
-0.116446
-0.183387
-0.235125
-0.272099
-0.295637
-0.307003
0.104192
0.0476609
-0.0354371
-0.121147
-0.196678
-0.25791
-0.304562
-0.337733
-0.35883
-0.369014
-0.0547354
-0.102626
-0.174672
-0.244928
-0.304786
-0.352455
-0.388575
-0.414317
-0.430766
-0.438739
-0.30519
-0.328158
-0.368166
-0.406709
-0.439255
-0.465861
-0.486832
-0.502346
-0.512547
-0.517575
-0.644621
-0.617221
-0.602616
-0.593472
-0.589443
-0.590108
-0.593405
-0.597369
-0.600642
-0.602433
-0.947593
-0.885662
-0.822922
-0.771547
-0.735169
-0.712802
-0.700319
-0.693906
-0.690922
-0.689781
-1.10949
-1.04972
-0.975438
-0.908588
-0.857282
-0.822351
-0.800209
-0.786943
-0.779621
-0.776391
-1.16183
-1.11735
-1.0577
-0.998549
-0.94956
-0.913583
-0.889047
-0.873322
-0.864133
-0.85992
-1.16038
-1.13466
-1.09627
-1.05454
-1.01732
-0.988004
-0.966671
-0.952214
-0.943391
-0.939231
-1.14343
-1.13632
-1.1163
-1.09272
-1.06992
-1.05058
-1.03549
-1.02464
-1.0177
-1.01433
-1.13205
-1.13958
-1.13312
-1.1251
-1.11587
-1.10689
-1.09895
-1.09261
-1.08825
-1.08604
-1.12891
-1.14711
-1.15337
-1.15897
-1.16158
-1.16186
-1.16051
-1.15849
-1.15666
-1.15561
367.897
367.89
367.877
367.861
367.842
367.824
367.807
367.793
367.783
367.778
318.85
318.842
318.829
318.811
318.791
318.771
318.753
318.738
318.728
318.722
269.806
269.797
269.78
269.76
269.737
269.714
269.694
269.678
269.666
269.66
220.764
220.752
220.732
220.706
220.679
220.653
220.629
220.611
220.598
220.592
171.722
171.707
171.681
171.649
171.616
171.585
171.558
171.537
171.523
171.516
122.677
122.657
122.625
122.585
122.545
122.509
122.478
122.455
122.439
122.431
73.6208
73.596
73.5566
73.5092
73.4629
73.4218
73.3882
73.3629
73.3462
73.3378
24.5455
24.5135
24.4633
24.4073
24.3543
24.309
24.2733
24.2473
24.2305
24.2223
0.00832844
-0.0230594
-0.0729851
-0.129464
-0.183642
-0.230715
-0.268299
-0.295895
-0.313822
-0.322587
-0.0789981
-0.108677
-0.155978
-0.208595
-0.25831
-0.300885
-0.334692
-0.359495
-0.375622
-0.383511
-0.209313
-0.233376
-0.272173
-0.314188
-0.353108
-0.386182
-0.412476
-0.431871
-0.444556
-0.450788
-0.38687
-0.399087
-0.420957
-0.444661
-0.466816
-0.48616
-0.502071
-0.514183
-0.522297
-0.526339
-0.599911
-0.593241
-0.590492
-0.589838
-0.591298
-0.59458
-0.598749
-0.602789
-0.60589
-0.607542
-0.800263
-0.778275
-0.753487
-0.731041
-0.714041
-0.702983
-0.696628
-0.693389
-0.691945
-0.691422
-0.942968
-0.917343
-0.88372
-0.850638
-0.823418
-0.803611
-0.790346
-0.78207
-0.777367
-0.775252
-1.02825
-1.0063
-0.975257
-0.942733
-0.914354
-0.892372
-0.876659
-0.866206
-0.859923
-0.856989
-1.07543
-1.0602
-1.03731
-1.01188
-0.988469
-0.969328
-0.954901
-0.944833
-0.938543
-0.935533
-1.10404
-1.09627
-1.08264
-1.0665
-1.0508
-1.0372
-1.02636
-1.01841
-1.01324
-1.0107
-1.12756
-1.1268
-1.12153
-1.1145
-1.10694
-1.09969
-1.09333
-1.08827
-1.08478
-1.083
-1.15315
-1.15841
-1.16069
-1.16192
-1.16176
-1.1604
-1.15831
-1.1561
-1.15431
-1.15331
367.869
367.863
367.852
367.839
367.823
367.807
367.793
367.78
367.772
367.768
318.819
318.812
318.801
318.786
318.77
318.753
318.738
318.725
318.716
318.711
269.768
269.761
269.748
269.731
269.713
269.694
269.677
269.663
269.654
269.649
220.716
220.707
220.692
220.672
220.651
220.63
220.611
220.596
220.585
220.58
171.66
171.649
171.631
171.607
171.582
171.558
171.537
171.52
171.509
171.503
122.597
122.584
122.562
122.534
122.505
122.478
122.455
122.436
122.424
122.418
73.5222
73.5069
73.4813
73.4499
73.4176
73.388
73.363
73.3438
73.3309
73.3243
24.4221
24.4044
24.3745
24.3392
24.3042
24.273
24.2474
24.2282
24.2156
24.2094
-0.11488
-0.132716
-0.163064
-0.199286
-0.235789
-0.268644
-0.295729
-0.31615
-0.329679
-0.336372
-0.194344
-0.210848
-0.238988
-0.272244
-0.305397
-0.335092
-0.359552
-0.378015
-0.390265
-0.396331