/*--------------------------------*- C++ -*----------------------------------*\
| =========                 |                                                 |
| \\      /  F ield         | OpenFOAM: The Open Source CFD Toolbox           |
|  \\    /   O peration     | Version:  2312                                  |
|   \\  /    A nd           | Website:  www.openfoam.com                      |
|    \\/     M anipulation  |                                                 |
\*---------------------------------------------------------------------------*/
FoamFile
{
    version     2.0;
    format      ascii;
    arch        "LSB;label=32;scalar=64";
    class       surfaceScalarField;
    location    "0.08";
    object      alphaPhi0.water;
}
// * * * * * * * * * * * * * * * * * * * * * * * * * * * * * * * * * * * * * //

dimensions      [0 3 -1 0 0 0 0];

oriented        oriented;

internalField   nonuniform List<scalar> 
22600
(
6.40137e-13
-3.56423e-13
-4.00188e-13
9.91683e-13
-1.91134e-14
-4.26565e-13
1.31911e-12
8.43425e-15
-4.2539e-13
1.50142e-12
1.30657e-13
-3.97574e-13
1.53906e-12
2.6468e-13
-3.81252e-13
1.43978e-12
3.93619e-13
-3.63815e-13
1.21397e-12
5.24215e-13
-3.54807e-13
8.87028e-13
6.32249e-13
-3.48502e-13
5.06089e-13
6.97045e-13
-3.50146e-13
7.96412e-13
-3.21048e-13
5.35717e-13
-8.13062e-13
-3.25179e-13
9.08247e-13
-1.07223e-13
-4.24406e-13
1.21053e-12
-9.71452e-15
-4.24125e-13
1.39032e-12
2.05334e-13
-3.89293e-13
1.4366e-12
4.7729e-13
-3.8151e-13
1.34428e-12
7.51479e-13
-3.69734e-13
1.13798e-12
1.00588e-12
-3.59848e-13
8.29037e-13
1.22274e-12
-3.51257e-13
4.42058e-13
1.36777e-12
-3.46725e-13
1.51131e-12
-3.2737e-13
6.1984e-13
-1.25645e-12
-3.57715e-13
1.06936e-12
-1.41271e-13
-5.0418e-13
1.43371e-12
1.82923e-14
-4.96157e-13
1.64354e-12
3.46312e-13
-4.57873e-13
1.69017e-12
7.68085e-13
-4.39412e-13
1.58128e-12
1.18036e-12
-4.12101e-13
1.32381e-12
1.57695e-12
-3.95226e-13
9.43024e-13
1.9004e-12
-3.7119e-13
4.71593e-13
2.12496e-12
-3.5754e-13
2.27981e-12
-3.60237e-13
7.47399e-13
-1.61616e-12
-5.20911e-13
1.34559e-12
-1.49305e-13
-6.73208e-13
1.741e-12
2.14101e-13
-6.88122e-13
2.01567e-12
5.72422e-13
-6.00015e-13
2.08262e-12
1.17356e-12
-5.69452e-13
1.94913e-12
1.74465e-12
-5.23715e-13
1.63083e-12
2.29723e-12
-4.90642e-13
1.14136e-12
2.76186e-12
-4.5802e-13
5.48871e-13
3.08045e-12
-4.48841e-13
3.20256e-12
-4.47973e-13
8.39273e-13
-1.90946e-12
-8.56781e-13
1.64038e-12
-1.30734e-13
-9.2102e-13
2.23542e-12
4.47182e-13
-9.2642e-13
2.61162e-12
9.2311e-13
-8.19773e-13
2.68972e-12
1.76803e-12
-7.6239e-13
2.51147e-12
2.54498e-12
-7.10681e-13
2.10284e-12
3.28332e-12
-6.66132e-13
1.48764e-12
3.92152e-12
-6.34653e-13
7.14098e-13
4.38334e-12
-6.21627e-13
4.47549e-12
-6.35968e-13
1.01621e-12
-2.25236e-12
-1.26829e-12
2.37987e-12
-4.07838e-13
-1.18819e-12
2.7314e-12
1.16927e-12
-1.15799e-12
3.26056e-12
1.40883e-12
-1.08919e-12
3.33229e-12
2.66797e-12
-1.04311e-12
3.13881e-12
3.66772e-12
-1.00284e-12
2.67244e-12
4.63324e-12
-9.62482e-13
1.93273e-12
5.52237e-12
-9.45873e-13
9.99523e-13
6.17127e-12
-9.41651e-13
6.36493e-12
-9.57387e-13
1.19678e-12
-3.12249e-12
-1.68795e-12
3.17449e-12
-8.28581e-13
-1.61581e-12
3.64405e-12
2.12616e-12
-1.47222e-12
4.41371e-12
2.0205e-12
-1.42177e-12
4.4868e-12
3.94613e-12
-1.39366e-12
4.28229e-12
5.19912e-12
-1.37765e-12
3.63588e-12
6.58871e-12
-1.37063e-12
2.63948e-12
7.81295e-12
-1.36227e-12
1.41852e-12
8.69717e-12
-1.3707e-12
9.12278e-12
-1.3833e-12
2.26978e-12
-5.62733e-14
-2.32825e-12
3.10438e-12
1.69951e-13
-1.88889e-12
5.6168e-12
1.27626e-12
-2.08736e-12
6.24729e-12
2.57188e-12
-2.0418e-12
6.27126e-12
4.5107e-12
-2.10622e-12
5.95956e-12
5.67989e-12
-2.09763e-12
5.13486e-12
7.08428e-12
-2.09053e-12
3.79541e-12
8.3612e-12
-2.06569e-12
2.03689e-12
9.31832e-12
-2.03288e-12
9.83882e-12
-1.99994e-12
1.84404e-16
2.61008e-22
-1.05813e-16
2.43087e-16
1.39124e-21
-1.07927e-16
1.54656e-15
1.12079e-20
-7.08602e-16
1.44421e-15
5.62897e-21
-5.41519e-16
1.75375e-15
1.3753e-20
-5.46666e-16
2.09262e-15
1.49947e-20
-6.49254e-16
2.10889e-15
9.22661e-21
-7.51128e-16
1.74315e-15
-7.38928e-21
-8.49552e-16
9.90394e-16
-2.96211e-20
-9.17311e-16
-4.70803e-20
-9.81195e-16
5.01403e-22
2.09789e-27
-2.65528e-22
2.50955e-21
2.08654e-26
-7.46804e-22
1.77729e-20
2.41325e-25
-5.26702e-21
2.92614e-20
4.22726e-25
-8.61357e-21
4.99245e-20
1.11628e-24
-1.34331e-20
7.23825e-20
2.09751e-24
-2.0606e-20
8.7593e-20
3.28075e-24
-2.93764e-20
8.27938e-20
4.14149e-24
-3.87375e-20
5.1495e-20
4.35246e-24
-4.63474e-20
4.24444e-24
-5.15708e-20
2.10399e-27
4.9324e-31
-5.5143e-28
2.3641e-26
2.89427e-30
-4.26693e-27
2.68479e-25
4.03197e-29
-5.59416e-26
6.70998e-25
1.38343e-28
-1.60202e-25
1.56946e-24
4.24421e-28
-3.66614e-25
2.89009e-24
1.03853e-27
-7.40124e-25
4.19636e-24
2.03821e-27
-1.29514e-24
4.50657e-24
3.20069e-27
-1.975e-24
3.01291e-24
4.12251e-27
-2.59445e-24
4.51983e-27
-3.00836e-24
3.64012e-32
1.2235e-35
-3.7803e-33
7.06963e-31
1.04354e-34
-7.4463e-32
1.30792e-29
2.40985e-33
-2.01198e-30
4.80907e-29
1.28517e-32
-9.42707e-30
1.52716e-28
5.87095e-32
-3.05752e-29
3.54893e-28
2.05625e-31
-7.99452e-29
6.09561e-28
5.6126e-31
-1.69498e-28
7.29318e-28
1.18853e-30
-2.96171e-28
5.13971e-28
1.93995e-30
-4.24571e-28
2.49852e-30
-5.12235e-28
1.12031e-36
4.77211e-40
-4.71239e-38
3.23376e-35
5.63469e-39
-2.03177e-36
9.47856e-34
1.98426e-37
-1.09858e-34
5.24742e-33
1.5701e-36
-8.73152e-34
2.28705e-32
9.9745e-36
-4.08849e-33
6.80586e-32
4.54451e-35
-1.40327e-32
1.40445e-31
1.51716e-34
-3.6309e-32
1.90724e-31
3.71619e-34
-7.2983e-32
1.44379e-31
6.66729e-34
-1.14397e-31
8.95101e-34
-1.43637e-31
5.5079e-41
2.88312e-44
-1.05351e-42
2.23999e-39
4.55258e-43
-8.66451e-41
1.00463e-37
2.38093e-41
-8.90627e-39
8.24785e-37
2.75003e-40
-1.17821e-37
4.91738e-36
2.40659e-39
-7.93425e-37
1.872e-35
1.4176e-38
-3.56482e-36
4.64158e-35
5.76393e-38
-1.12292e-35
7.15875e-35
1.62827e-37
-2.59156e-35
5.82636e-35
3.20475e-37
-4.43681e-35
4.47747e-37
-5.79227e-35
4.18471e-45
2.6996e-48
-4.03902e-47
2.29991e-43
5.49183e-47
-5.69829e-45
1.52717e-41
4.45549e-45
-1.053e-42
1.82285e-40
7.50881e-44
-2.25956e-41
1.47537e-39
8.75586e-43
-2.17098e-40
7.15871e-39
6.18182e-42
-1.27029e-39
2.12988e-38
3.04455e-41
-4.85322e-39
3.72969e-38
9.88178e-41
-1.28277e-38
3.26405e-38
2.12844e-40
-2.39492e-38
3.08936e-40
-3.24543e-38
4.83889e-49
4.24923e-50
-2.59728e-51
3.46852e-47
2.4629e-50
-5.72642e-49
3.30003e-45
1.4261e-48
-1.79893e-46
5.60003e-44
3.3384e-47
-6.08068e-45
6.08581e-43
5.13298e-46
-8.24168e-44
3.74108e-42
4.41642e-45
-6.23747e-43
1.3318e-41
2.23067e-44
-2.87668e-42
2.64505e-41
8.40582e-44
-8.6796e-42
2.48905e-41
2.04418e-43
-1.76284e-41
3.12029e-43
-2.47476e-41
1.31066e-52
4.56004e-53
-1.59716e-53
7.65796e-51
7.29361e-51
-7.16047e-53
1.01066e-48
1.05957e-50
-4.42124e-50
2.38023e-47
3.37634e-50
-2.28134e-48
3.42577e-46
4.05693e-49
-4.29878e-47
2.64616e-45
4.32762e-48
-4.17324e-46
1.12205e-44
2.59392e-47
-2.31058e-45
2.5226e-44
1.07183e-46
-7.9253e-45
2.55147e-44
2.81559e-46
-1.74639e-44
4.43414e-46
-2.53592e-44
1.37134e-53
1.33428e-53
-1.00272e-50
3.48766e-54
3.62075e-54
-2.74573e-51
5.17332e-52
8.8397e-53
-4.07002e-53
1.39626e-50
8.76993e-51
-1.37671e-51
2.62054e-49
1.96955e-51
-3.06543e-50
2.51789e-48
6.92923e-51
-3.7807e-49
1.26434e-47
3.98971e-50
-2.4958e-48
3.20778e-47
1.81382e-49
-9.68486e-48
3.4825e-47
5.12786e-49
-2.30849e-47
8.31422e-49
-3.4611e-47
2.64916e-50
1.14014e-49
-1.82439e-49
7.03198e-52
5.50933e-51
-6.90174e-51
4.34062e-53
5.7128e-53
-1.2584e-50
1.18719e-53
1.40248e-53
-1.06074e-52
2.9728e-52
4.09055e-52
-3.57331e-53
3.2084e-51
7.33017e-52
-5.05368e-52
1.89399e-50
2.09203e-52
-3.60322e-51
5.39942e-50
4.16971e-52
-1.57315e-50
6.2783e-50
1.22879e-51
-4.04165e-50
2.04667e-51
-6.2417e-50
7.13198e-47
-6.12958e-46
4.17639e-46
6.4741e-49
-2.13429e-47
2.15328e-47
6.05347e-50
-3.59748e-49
4.63233e-49
8.0394e-52
-1.51782e-49
1.81595e-51
1.29326e-54
-7.57424e-52
1.93184e-54
7.26736e-54
-1.64783e-54
9.15706e-54
3.85086e-53
-9.83873e-54
7.19273e-53
1.195e-52
-3.46564e-53
1.92445e-53
1.48453e-52
-9.30437e-53
8.14339e-54
-1.47633e-52
6.60855e-54
4.78305e-13
-2.47302e-13
-8.65322e-13
8.19943e-13
-1.37063e-13
-7.86949e-13
1.10122e-12
-8.03682e-14
-7.76725e-13
1.26271e-12
3.83744e-14
-7.39367e-13
1.30432e-12
1.63827e-13
-7.14452e-13
1.22747e-12
2.94819e-13
-6.89383e-13
1.04287e-12
4.13404e-13
-6.69765e-13
7.76983e-13
5.01513e-13
-6.54019e-13
4.49152e-13
5.62234e-13
-6.46748e-13
7.01399e-13
-6.27047e-13
3.72628e-13
-4.10366e-13
-7.94097e-13
7.13945e-13
-2.72663e-13
-7.9582e-13
9.66815e-13
-1.41442e-13
-7.87773e-13
1.12797e-12
9.2575e-14
-7.71785e-13
1.17925e-12
3.35555e-13
-7.566e-13
1.12455e-12
5.91166e-13
-7.42232e-13
9.59241e-13
8.36965e-13
-7.289e-13
7.04041e-13
1.02274e-12
-7.15365e-13
3.76271e-13
1.15728e-12
-7.08286e-13
1.3721e-12
-7.01196e-13
4.56142e-13
-6.2776e-13
-8.29499e-13
8.76604e-13
-3.74618e-13
-9.4752e-13
1.14951e-12
-1.2323e-13
-9.28369e-13
1.3566e-12
1.90227e-13
-9.05995e-13
1.40965e-12
5.96059e-13
-8.90125e-13
1.33101e-12
9.98965e-13
-8.67874e-13
1.12502e-12
1.3787e-12
-8.47184e-13
8.02191e-13
1.69102e-12
-8.26293e-13
3.87425e-13
1.91846e-12
-8.12181e-13
2.12252e-12
-8.11586e-13
5.72294e-13
-1.0144e-12
-1.0665e-12
1.1433e-12
-5.27829e-13
-1.22193e-12
1.43339e-12
-2.6992e-14
-1.21163e-12
1.69474e-12
3.59762e-13
-1.16712e-12
1.76975e-12
9.49943e-13
-1.13129e-12
1.67806e-12
1.53808e-12
-1.09934e-12
1.42019e-12
2.0921e-12
-1.06977e-12
9.9155e-13
2.58461e-12
-1.04437e-12
4.6058e-13
2.90442e-12
-1.026e-12
3.05579e-12
-1.01639e-12
6.74764e-13
-1.66324e-12
-1.53872e-12
1.45703e-12
-7.47912e-13
-1.62915e-12
1.91341e-12
3.86526e-14
-1.5804e-12
2.28638e-12
5.78015e-13
-1.534e-12
2.37974e-12
1.46731e-12
-1.49217e-12
2.25247e-12
2.28265e-12
-1.44585e-12
1.90079e-12
3.06053e-12
-1.40188e-12
1.35528e-12
3.74124e-12
-1.36761e-12
6.48084e-13
4.21902e-12
-1.35274e-12
4.34836e-12
-1.37097e-12
8.83137e-13
-2.58602e-12
-2.12215e-12
2.21141e-12
-1.25498e-12
-2.13387e-12
2.46948e-12
6.46131e-13
-2.12536e-12
2.95404e-12
9.56014e-13
-2.0428e-12
3.07928e-12
2.21662e-12
-2.00734e-12
2.91937e-12
3.3064e-12
-1.96165e-12
2.50094e-12
4.31772e-12
-1.90447e-12
1.82159e-12
5.2393e-12
-1.87308e-12
9.45006e-13
5.90646e-12
-1.85847e-12
6.12767e-12
-1.85981e-12
1.20932e-12
-4.08037e-12
-2.85917e-12
3.12806e-12
-1.97771e-12
-2.8692e-12
3.50281e-12
1.53687e-12
-2.78335e-12
4.2143e-12
1.46786e-12
-2.68803e-12
4.31558e-12
3.32671e-12
-2.65503e-12
4.12738e-12
4.65374e-12
-2.60057e-12
3.5156e-12
6.06578e-12
-2.58245e-12
2.56063e-12
7.30234e-12
-2.5467e-12
1.37406e-12
8.18091e-12
-2.52504e-12
8.60959e-12
-2.52523e-12
2.22583e-12
-4.69271e-13
-4.50209e-12
3.02957e-12
-1.5292e-13
-4.03643e-12
5.47784e-12
8.76087e-13
-4.14779e-12
6.15911e-12
2.12888e-12
-4.08317e-12
6.20292e-12
3.99492e-12
-4.16576e-12
5.92233e-12
5.15411e-12
-4.09231e-12
5.12604e-12
6.53697e-12
-4.03493e-12
3.79812e-12
7.84393e-12
-3.98895e-12
2.04462e-12
8.83326e-12
-3.94883e-12
9.37703e-12
-3.89078e-12
7.40374e-17
4.18105e-22
-1.13481e-16
1.88967e-16
1.89855e-21
-1.73888e-16
1.69629e-15
1.54116e-20
-1.22233e-15
1.51529e-15
1.30435e-20
-9.47492e-16
1.56856e-15
1.74817e-20
-9.11974e-16
1.97066e-15
2.21862e-20
-1.10786e-15
1.95336e-15
1.73542e-20
-1.30545e-15
1.60563e-15
4.24372e-21
-1.49359e-15
9.11228e-16
-1.48023e-20
-1.62649e-15
-2.95248e-20
-1.73319e-15
1.5763e-22
8.02739e-28
-2.41285e-39
1.30937e-21
1.12999e-26
7.85863e-42
1.27798e-20
1.9629e-25
-1.92915e-21
2.52822e-20
4.89984e-25
-9.94013e-21
4.2123e-20
1.06667e-24
-1.7538e-20
6.30254e-20
2.06186e-24
-2.95967e-20
7.68254e-20
3.16699e-24
-4.4806e-20
7.32345e-20
4.04716e-24
-6.10197e-20
4.57865e-20
4.3188e-24
-7.43668e-20
4.30229e-24
-8.31175e-20
2.69088e-28
2.11986e-32
-5.16574e-34
7.38796e-27
4.54264e-31
-5.56946e-37
1.35746e-25
1.3718e-29
-5.75321e-27
4.84023e-25
7.80949e-29
-1.18559e-25
1.18632e-24
2.78433e-28
-3.77433e-25
2.32806e-24
7.65061e-28
-9.08449e-25
3.47508e-24
1.61621e-27
-1.76223e-24
3.807e-24
2.69429e-27
-2.84394e-24
2.57467e-24
3.63305e-27
-3.85806e-24
4.12839e-27
-4.52462e-24
1.62045e-33
2.02807e-37
-1.64939e-40
1.2382e-31
1.63899e-35
-3.80467e-39
4.86017e-30
5.85475e-34
-6.74272e-32
2.93485e-29
5.89803e-33
-4.58715e-30
1.03787e-28
3.30425e-32
-2.56419e-29
2.65452e-28
1.33399e-31
-8.67169e-29
4.77399e-28
3.92997e-31
-2.11283e-28
5.88807e-28
8.73697e-31
-3.9793e-28
4.22305e-28
1.46818e-30
-5.94652e-28
1.92464e-30
-7.29486e-28
1.94487e-38
3.40201e-42
-5.36134e-47
3.2359e-36
2.98876e-40
-1.74547e-45
2.56056e-34
3.5537e-38
-1.21594e-36
2.66067e-33
5.97384e-37
-2.59417e-34
1.38611e-32
4.95831e-36
-2.62849e-33
4.70438e-32
2.70018e-35
-1.28868e-32
1.03775e-31
9.94231e-35
-4.02475e-32
1.46997e-31
2.59045e-34
-8.94923e-32
1.13988e-31
4.82107e-34
-1.48294e-31
6.61475e-34
-1.90655e-31
4.18751e-43
9.79067e-47
-2.18593e-58
1.32585e-40
1.47824e-44
-3.21446e-52
1.99721e-38
3.94127e-42
-3.47504e-41
3.47793e-37
1.06528e-40
-2.14626e-38
2.65505e-36
1.16544e-39
-3.87925e-37
1.19559e-35
7.72355e-39
-2.75641e-36
3.23783e-35
3.53996e-38
-1.10354e-35
5.27336e-35
1.07791e-37
-2.89547e-35
4.42569e-35
2.21755e-37
-5.31727e-35
3.17912e-37
-7.15585e-35
1.54324e-47
3.38979e-50
-1.33218e-57
8.38348e-45
1.41936e-48
-8.46995e-59
2.26747e-42
6.66098e-46
-1.54448e-45
6.41756e-41
2.86203e-44
-2.54502e-42
7.1007e-40
4.53427e-43
-8.03336e-41
4.2263e-39
3.75568e-42
-8.23284e-40
1.40361e-38
1.75523e-41
-4.21744e-39
2.62844e-38
6.22322e-41
-1.30415e-38
2.3886e-38
1.41201e-40
-2.65115e-38
2.11139e-40
-3.72928e-38
9.47664e-52
1.13222e-51
-8.52369e-54
8.09756e-49
4.06065e-50
-2.40922e-55
3.71465e-46
2.44452e-49
-1.05495e-49
1.65486e-44
1.06832e-47
-4.28216e-46
2.61548e-43
2.3724e-46
-2.30381e-44
2.04395e-42
2.56017e-45
-3.37705e-43
8.30053e-42
1.45736e-44
-2.20619e-42
1.78598e-41
4.94765e-44
-8.0213e-42
1.7583e-41
1.28234e-43
-1.80215e-41
2.02791e-43
-2.64602e-41
1.15465e-53
1.0026e-53
-6.79758e-50
1.29146e-52
5.15632e-53
-3.1537e-52
8.74894e-50
3.21322e-50
-3.07988e-53
5.93901e-48
9.1024e-50
-1.01803e-49
1.31772e-46
2.78572e-49
-9.09333e-48
1.33993e-45
2.34072e-48
-1.88512e-46
6.62448e-45
1.60932e-47
-1.56242e-45
1.63481e-44
6.06173e-47
-6.6586e-45
1.74283e-44
1.70612e-46
-1.64993e-44
2.79313e-46
-2.52495e-44
2.33151e-50
5.11488e-50
-1.88399e-49
1.89152e-51
2.47506e-51
-7.95675e-51
7.61904e-53
6.80696e-53
-4.75166e-50
3.62514e-51
8.3941e-52
-1.52912e-52
9.04354e-50
5.6902e-50
-6.05347e-51
1.18404e-48
7.7584e-51
-1.42456e-49
7.08311e-48
2.74537e-50
-1.48801e-48
1.99891e-47
1.01093e-49
-7.40244e-48
2.30414e-47
3.00751e-49
-2.01788e-47
5.08632e-49
-3.21221e-47
5.97527e-47
1.97399e-46
-5.78495e-46
4.39959e-49
1.04975e-47
-2.39316e-47
4.50658e-50
2.00966e-49
-3.30064e-49
2.19376e-52
4.10009e-52
-1.10647e-49
8.8343e-53
1.08844e-52
-2.16537e-52
1.49939e-51
1.83704e-51
-1.58443e-52
1.00883e-50
2.23217e-51
-2.02433e-51
3.24182e-50
5.52122e-52
-1.09529e-50
4.03264e-50
7.12748e-52
-3.27366e-50
1.2187e-51
-5.40846e-50
1.39418e-43
-1.42142e-42
5.48724e-43
1.19036e-45
-6.39949e-44
3.06772e-44
1.23011e-46
-9.98758e-46
6.54181e-46
6.99849e-49
-2.97079e-46
3.08089e-48
1.34343e-51
-6.19825e-49
3.60852e-51
4.08011e-54
-9.77333e-52
6.89562e-54
2.55916e-53
-4.9978e-54
3.06885e-53
7.05437e-53
-2.94191e-53
1.77346e-52
9.28006e-53
-7.12629e-53
2.6899e-53
-1.19745e-52
8.06079e-54
5.07722e-13
-4.7378e-13
-1.12415e-12
8.47906e-13
-1.86551e-13
-1.07284e-12
1.12572e-12
-1.3296e-13
-1.05478e-12
1.28386e-12
-1.76494e-14
-1.00827e-12
1.32564e-12
1.09034e-13
-9.82503e-13
1.24531e-12
2.43418e-13
-9.53608e-13
1.05684e-12
3.63862e-13
-9.30106e-13
7.83816e-13
4.55431e-13
-9.10031e-13
4.45642e-13
5.20018e-13
-8.9753e-13
6.47866e-13
-8.89964e-13
3.74839e-13
-7.42694e-13
-1.13722e-12
7.12462e-13
-3.97482e-13
-1.07963e-12
9.71653e-13
-2.59993e-13
-1.08537e-12
1.13269e-12
-4.53211e-14
-1.0675e-12
1.18594e-12
2.02046e-13
-1.05322e-12
1.131e-12
4.58429e-13
-1.03621e-12
9.66359e-13
7.02988e-13
-1.02219e-12
7.10053e-13
8.95065e-13
-1.00798e-12
3.82543e-13
1.03236e-12
-9.99607e-13
1.2441e-12
-1.00331e-12
4.27963e-13
-9.61427e-13
-1.22851e-12
8.54973e-13
-6.20316e-13
-1.28439e-12
1.1541e-12
-3.54161e-13
-1.27702e-12
1.35592e-12
-3.54977e-14
-1.26165e-12
1.41831e-12
3.61422e-13
-1.24996e-12
1.34047e-12
7.70186e-13
-1.23031e-12
1.13575e-12
1.14801e-12
-1.20637e-12
8.1432e-13
1.46565e-12
-1.18818e-12
3.94999e-13
1.70372e-12
-1.1762e-12
1.90986e-12
-1.17342e-12
5.28957e-13
-1.33775e-12
-1.51491e-12
1.09702e-12
-9.04967e-13
-1.6483e-12
1.44272e-12
-4.23503e-13
-1.63005e-12
1.69959e-12
2.20843e-14
-1.61947e-12
1.77332e-12
6.11044e-13
-1.58685e-12
1.69094e-12
1.18538e-12
-1.55715e-12
1.43082e-12
1.75352e-12
-1.53398e-12
1.00873e-12
2.23352e-12
-1.50693e-12
4.59783e-13
2.60226e-12
-1.49447e-12
2.73335e-12
-1.47296e-12
6.66733e-13
-2.06146e-12
-2.07094e-12
1.46029e-12
-1.29645e-12
-2.18176e-12
1.91082e-12
-4.49792e-13
-2.13832e-12
2.29719e-12
6.6441e-14
-2.08705e-12
2.39552e-12
9.80871e-13
-2.07517e-12
2.27687e-12
1.78021e-12
-2.03234e-12
1.92479e-12
2.59111e-12
-1.99722e-12
1.36681e-12
3.27059e-12
-1.95925e-12
6.66399e-13
3.76135e-12
-1.92579e-12
3.8876e-12
-1.9407e-12
9.137e-13
-3.07246e-12
-2.82403e-12
2.19798e-12
-1.95411e-12
-2.88367e-12
2.50515e-12
-9.2644e-14
-2.8913e-12
2.97321e-12
2.80205e-13
-2.81369e-12
3.10436e-12
1.52987e-12
-2.7721e-12
2.96255e-12
2.59164e-12
-2.71835e-12
2.52283e-12
3.69862e-12
-2.66497e-12
1.83551e-12
4.59423e-12
-2.60446e-12
9.48196e-13
5.27646e-12
-2.57658e-12
5.4817e-12
-2.56158e-12
1.30573e-12
-4.80088e-12
-3.82532e-12
3.17839e-12
-2.86446e-12
-3.89069e-12
3.57678e-12
5.11432e-13
-3.83292e-12
4.26439e-12
5.782e-13
-3.71586e-12
4.3645e-12
2.41612e-12
-3.68824e-12
4.14977e-12
3.75953e-12
-3.61057e-12
3.55457e-12
5.20023e-12
-3.55168e-12
2.58418e-12
6.4716e-12
-3.51228e-12
1.37086e-12
7.38086e-12
-3.46432e-12
7.75022e-12
-3.44629e-12
2.25818e-12
-8.71823e-13
-6.19923e-12
3.18553e-12
-4.94761e-13
-5.83029e-12
5.45173e-12
1.62033e-14
-5.9059e-12
6.17451e-12
1.18085e-12
-5.7909e-12
6.2722e-12
2.95029e-12
-5.79645e-12
5.99881e-12
4.16241e-12
-5.66105e-12
5.19268e-12
5.5837e-12
-5.54545e-12
3.85503e-12
6.90874e-12
-5.45323e-12
2.10763e-12
7.90683e-12
-5.39961e-12
8.4825e-12
-5.36009e-12
4.00624e-17
-4.94933e-35
-3.01741e-17
1.8681e-16
8.15752e-44
-7.95097e-17
1.40214e-15
4.27722e-21
-1.3184e-15
1.24652e-15
2.07745e-20
-9.3241e-16
1.28911e-15
2.20558e-20
-9.25059e-16
1.73482e-15
3.02532e-20
-1.2233e-15
1.7802e-15
2.98665e-20
-1.53205e-15
1.48734e-15
1.98845e-20
-1.8134e-15
8.52498e-16
3.57975e-21
-2.01839e-15
-9.56672e-21
-2.17222e-15
1.13607e-39
-4.95239e-35
-3.15785e-39
-7.04738e-42
-2.78574e-40
-3.28998e-43
2.34806e-21
1.25578e-26
-2.50697e-47
1.44181e-20
3.00453e-25
-1.8088e-21
2.77216e-20
8.03003e-25
-1.09818e-20
4.65196e-20
1.72509e-24
-2.41104e-20
6.11568e-20
2.84061e-24
-4.22188e-20
6.06585e-20
3.72796e-24
-6.2273e-20
3.87054e-20
4.05913e-24
-7.93053e-20
4.05181e-24
-9.04067e-20
1.65031e-34
-2.90479e-41
-2.45132e-34
1.18223e-36
-2.63332e-40
-1.60032e-38
6.9461e-27
2.02206e-31
-4.60717e-39
1.74194e-25
1.55895e-29
-3.40172e-27
6.0585e-25
1.02199e-28
-1.36057e-25
1.44637e-24
3.87452e-28
-5.47154e-25
2.43136e-24
9.9541e-28
-1.35001e-24
2.83676e-24
1.86898e-27
-2.4719e-24
1.98346e-24
2.71159e-27
-3.58724e-24
3.21499e-27
-4.34086e-24
4.47491e-41
-9.14932e-48
-7.02921e-41
4.92335e-39
-1.17743e-46
-3.58346e-39
8.02487e-32
3.67897e-36
-1.25709e-38
6.69602e-30
6.99229e-34
-2.205e-32
4.14254e-29
8.66132e-33
-5.28627e-30
1.40336e-28
5.21203e-32
-3.92972e-29
2.96583e-28
1.93469e-31
-1.34678e-28
3.98385e-28
4.89534e-31
-3.01131e-28
2.98396e-28
8.84718e-31
-4.92296e-28
1.19582e-30
-6.29331e-28
1.30175e-47
-3.85969e-59
-1.36995e-47
1.65536e-45
-1.55756e-53
-6.45414e-46
1.4165e-36
7.41118e-41
-3.02892e-45
3.71534e-34
5.75265e-38
-2.17502e-37
4.20033e-33
1.15429e-36
-2.96485e-34
2.07808e-32
8.67508e-36
-4.1868e-33
5.66222e-32
4.22906e-35
-2.06038e-32
8.97438e-32
1.29027e-34
-5.74326e-32
7.36546e-32
2.62364e-34
-1.06997e-31
3.73951e-34
-1.45127e-31
8.32302e-59
-1.7642e-58
-9.65903e-58
1.9564e-52
-2.73064e-60
-4.16063e-59
3.95467e-41
3.25856e-45
-2.6329e-52
3.00381e-38
6.16048e-42
-3.3805e-42
6.09137e-37
2.44984e-40
-2.40989e-38
4.40227e-36
2.66066e-39
-6.37995e-37
1.55025e-35
1.33184e-38
-4.51495e-36
2.90574e-35
4.77844e-38
-1.57149e-35
2.61802e-35
1.0916e-37
-3.33767e-35
1.63826e-37
-4.79912e-35
1.063e-57
-6.14066e-56
-3.50768e-55
6.67949e-59
-5.44907e-57
-3.11844e-55
1.71385e-45
2.35284e-49
-1.13461e-57
3.47401e-42
1.00177e-45
-8.12536e-47
1.23474e-40
7.04369e-44
-2.77404e-42
1.29646e-39
1.11554e-42
-1.35519e-40
5.89647e-39
7.32562e-42
-1.3755e-39
1.30834e-38
2.49106e-41
-5.97629e-39
1.29624e-38
6.30172e-41
-1.44669e-38
9.94161e-41
-2.20314e-38
2.60011e-54
-2.65351e-54
-3.53869e-53
1.84445e-55
8.83799e-57
-1.05096e-54
1.13896e-49
1.50456e-50
-5.48321e-54
5.69351e-46
3.65283e-49
-2.99752e-51
3.45863e-44
2.78196e-47
-4.4701e-46
5.22795e-43
6.2927e-46
-3.96045e-44
3.06239e-42
5.32405e-45
-5.73217e-43
8.04342e-42
2.15778e-44
-3.10378e-42
8.77236e-42
5.00997e-44
-8.55505e-42
8.45613e-44
-1.37838e-41
1.119e-50
-8.05733e-51
-1.89723e-49
9.71769e-52
1.47066e-52
-5.18777e-51
3.22833e-53
1.28793e-53
-2.58877e-50
1.31725e-49
4.93893e-50
-4.96508e-53
1.33188e-47
1.83579e-49
-1.00343e-49
2.86369e-46
6.78687e-49
-1.58226e-47
2.1499e-45
5.16398e-48
-3.23929e-46
6.67577e-45
2.46734e-47
-2.17883e-45
8.01167e-45
6.12577e-47
-6.828e-45
1.07811e-46
-1.16197e-44
3.61943e-47
-8.20458e-48
-5.40014e-46
2.31546e-49
9.89336e-49
-1.92635e-47
6.30854e-50
3.74747e-50
-2.10511e-49
1.91574e-52
1.10259e-52
-1.50191e-49
7.62864e-51
3.57741e-51
-1.38983e-52
2.12042e-49
1.43574e-49
-9.42215e-51
2.02727e-48
1.58896e-50
-2.46981e-49
7.41979e-48
4.37421e-50
-2.05442e-48
9.79021e-48
1.02165e-49
-7.30072e-48
1.8241e-49
-1.30985e-47
8.52199e-44
1.76695e-44
-1.28982e-42
5.98278e-46
3.99744e-45
-5.09626e-44
6.1896e-47
1.33279e-46
-5.77408e-46
3.37452e-49
6.73515e-49
-1.40748e-46
2.96467e-52
4.44773e-52
-2.54877e-49
2.22007e-52
2.87854e-52
-2.69451e-52
2.73746e-51
4.43278e-51
-2.69003e-52
1.09742e-50
3.70926e-51
-2.7741e-51
1.58993e-50
5.51268e-52
-1.03979e-50
4.15329e-52
-1.96262e-50
1.45686e-40
-2.20485e-39
9.83091e-41
1.21491e-42
-9.55609e-41
1.05298e-41
1.36491e-43
-1.26982e-42
3.35145e-43
7.79273e-46
-3.06942e-43
2.11509e-45
8.77097e-49
-6.17106e-46
2.86448e-48
1.48719e-51
-5.77863e-49
3.55731e-51
6.3718e-54
-1.06638e-51
1.24699e-53
2.90457e-53
-5.99966e-54
4.30613e-53
3.46854e-53
-2.67931e-53
1.74565e-52
-3.9539e-53
1.4783e-53
5.74739e-13
-6.80802e-13
-1.21899e-12
9.04539e-13
-2.92716e-13
-1.23921e-12
1.16214e-12
-2.34122e-13
-1.21266e-12
1.31732e-12
-1.20506e-13
-1.17495e-12
1.35604e-12
1.0054e-14
-1.15487e-12
1.27103e-12
1.51313e-13
-1.1314e-12
1.07751e-12
2.73411e-13
-1.10968e-12
7.97479e-13
3.70523e-13
-1.09187e-12
4.52433e-13
4.39371e-13
-1.07942e-12
5.56202e-13
-1.0698e-12
3.67616e-13
-1.14342e-12
-1.31491e-12
7.1551e-13
-6.19112e-13
-1.2684e-12
9.83529e-13
-4.79444e-13
-1.28382e-12
1.15387e-12
-2.71809e-13
-1.26054e-12
1.20637e-12
-8.3235e-15
-1.25258e-12
1.14887e-12
2.52491e-13
-1.23269e-12
9.82048e-13
4.97329e-13
-1.21994e-12
7.25309e-13
6.94527e-13
-1.20739e-12
3.94856e-13
8.42745e-13
-1.20188e-12
1.04071e-12
-1.19819e-12
4.19335e-13
-1.49813e-12
-1.52407e-12
8.55399e-13
-9.90889e-13
-1.4994e-12
1.17554e-12
-7.20062e-13
-1.51389e-12
1.37438e-12
-3.91185e-13
-1.49765e-12
1.44275e-12
2.82911e-15
-1.48005e-12
1.36749e-12
4.2494e-13
-1.46822e-12
1.15658e-12
8.19737e-13
-1.4484e-12
8.32051e-13
1.13284e-12
-1.42656e-12
4.0772e-13
1.38157e-12
-1.41585e-12
1.58566e-12
-1.41124e-12
5.03291e-13
-1.93407e-12
-1.89037e-12
1.09039e-12
-1.44476e-12
-1.93835e-12
1.46498e-12
-9.56847e-13
-1.92062e-12
1.74473e-12
-5.29815e-13
-1.90727e-12
1.80886e-12
1.08739e-13
-1.895e-12
1.72053e-12
6.82968e-13
-1.85474e-12
1.45732e-12
1.25781e-12
-1.82931e-12
1.02639e-12
1.74075e-12
-1.80355e-12
4.72609e-13
2.10621e-12
-1.78898e-12
2.25852e-12
-1.76824e-12
6.79028e-13
-2.72495e-12
-2.513e-12
1.48936e-12
-2.02844e-12
-2.5626e-12
1.96674e-12
-1.1784e-12
-2.53254e-12
2.32375e-12
-6.12069e-13
-2.48704e-12
2.44332e-12
2.38691e-13
-2.43869e-12
2.31696e-12
1.08423e-12
-2.41377e-12
1.96841e-12
1.87352e-12
-2.36962e-12
1.39962e-12
2.58102e-12
-2.33918e-12
6.91573e-13
3.08275e-12
-2.30458e-12
3.2317e-12
-2.29923e-12
9.42962e-13
-3.84784e-12
-3.37855e-12
2.2061e-12
-2.88884e-12
-3.40992e-12
2.55995e-12
-1.12973e-12
-3.39733e-12
3.04196e-12
-6.78833e-13
-3.31752e-12
3.15718e-12
5.57677e-13
-3.28719e-12
3.02445e-12
1.62562e-12
-3.20763e-12
2.58358e-12
2.72132e-12
-3.15566e-12
1.86985e-12
3.69984e-12
-3.09348e-12
9.66643e-13
4.37221e-12
-3.04151e-12
4.60451e-12
-3.01551e-12
1.3714e-12
-5.79352e-12
-4.55926e-12
3.23651e-12
-4.10732e-12
-4.60092e-12
3.65697e-12
-8.68141e-13
-4.56416e-12
4.31777e-12
-6.4485e-13
-4.45192e-12
4.43417e-12
1.07093e-12
-4.36067e-12
4.20906e-12
2.46789e-12
-4.27602e-12
3.59492e-12
3.92144e-12
-4.18683e-12
2.63281e-12
5.22651e-12
-4.11961e-12
1.40008e-12
6.18604e-12
-4.08036e-12
6.59499e-12
-4.05342e-12
2.26543e-12
-6.91138e-13
-7.35865e-12
3.30534e-12
-9.76906e-13
-7.06837e-12
5.43789e-12
-4.35063e-13
-7.15624e-12
6.23348e-12
-6.79118e-14
-6.95029e-12
6.38693e-12
1.47156e-12
-6.85166e-12
6.11422e-12
2.78806e-12
-6.67172e-12
5.27808e-12
4.26388e-12
-6.51097e-12
3.90389e-12
5.63159e-12
-6.38213e-12
2.1281e-12
6.64442e-12
-6.29935e-12
7.21604e-12
-6.25255e-12
8.04626e-18
-4.26512e-35
-1.59486e-21
4.70743e-17
-4.53572e-39
-3.77239e-26
1.10144e-15
-3.17359e-43
-1.22093e-15
8.69584e-16
3.74708e-21
-8.31268e-16
8.98663e-16
2.09517e-20
-6.31646e-16
1.39395e-15
2.95791e-20
-1.00169e-15
1.52198e-15
3.5744e-20
-1.38968e-15
1.31876e-15
3.13451e-20
-1.75513e-15
7.73052e-16
1.91169e-20
-2.02898e-15
8.10393e-21
-2.22491e-15
1.10833e-39
-4.26532e-35
-2.30077e-39
2.19394e-43
-3.42761e-39
-3.26931e-43
2.28139e-47
-1.11607e-43
1.35945e-44
1.93827e-21
6.99657e-27
2.8871e-45
1.26998e-20
3.03859e-25
-1.25529e-21
2.74675e-20
1.01497e-24
-1.15903e-20
4.1898e-20
2.0283e-24
-2.73494e-20
4.50903e-20
2.91486e-24
-4.69277e-20
3.00589e-20
3.30971e-24
-6.46807e-20
3.35063e-24
-7.64686e-20
5.66089e-35
-2.85987e-41
-9.20796e-35
5.19932e-39
-1.30681e-39
-1.78094e-38
1.49138e-39
-9.09924e-40
1.14297e-40
3.66185e-27
4.87065e-32
-2.8613e-39
1.58573e-25
1.30729e-29
-1.46316e-27
6.26723e-25
1.12832e-28
-1.4228e-25
1.34372e-24
4.30364e-28
-6.21806e-25
1.78063e-24
1.00525e-27
-1.45742e-24
1.32973e-24
1.64889e-27
-2.39023e-24
2.08482e-27
-3.05689e-24
1.55125e-41
-5.2745e-48
-2.26969e-41
2.88809e-39
-2.07734e-46
-1.71288e-39
9.87545e-39
-4.37462e-46
-2.83593e-39
2.3547e-32
4.68861e-37
-4.59427e-39
6.14241e-30
6.77231e-34
-4.84344e-33
4.50882e-29
1.00377e-32
-5.4984e-30
1.34335e-28
6.02196e-32
-4.46522e-29
2.14478e-28
1.96084e-31
-1.41495e-28
1.74968e-28
4.05382e-31
-2.73143e-28
5.84099e-31
-3.76014e-28
2.49808e-48
-3.51089e-58
-7.11774e-51
4.07506e-46
-1.20679e-59
-6.06037e-55
1.82644e-45
-5.19302e-53
-1.20236e-54
2.29423e-37
6.88983e-42
-8.99987e-46
3.41564e-34
5.18143e-38
-2.36228e-38
4.79002e-33
1.5879e-36
-3.05308e-34
2.05855e-32
1.05943e-35
-4.72965e-33
4.09298e-32
4.28759e-35
-2.09017e-32
3.75242e-32
1.02596e-34
-4.83387e-32
1.57937e-34
-7.21297e-32
5.57894e-58
-1.42856e-57
-3.0443e-57
2.54802e-59
-9.04769e-56
-1.07612e-55
2.25988e-52
-2.46641e-58
-6.47447e-58
3.51492e-42
1.6443e-46
-1.79094e-52
2.7461e-38
5.90107e-42
-1.77032e-43
7.26062e-37
3.4375e-40
-2.44679e-38
4.51507e-36
3.44722e-39
-7.15588e-37
1.12298e-35
1.35536e-38
-4.41868e-36
1.16152e-35
3.65242e-38
-1.22629e-35
5.9996e-38
-1.98293e-35
1.40134e-54
-7.27004e-54
-1.943e-53
9.91015e-56
-2.07102e-55
-6.61998e-55
1.4359e-57
-7.8767e-55
-2.32976e-54
8.31578e-47
2.07287e-50
-3.15901e-57
3.12337e-42
9.4427e-46
-2.03103e-48
1.53184e-40
1.01269e-43
-2.76326e-42
1.37574e-39
1.47925e-42
-1.50803e-40
4.29001e-39
7.44678e-42
-1.29889e-39
5.02197e-39
1.81064e-41
-4.32664e-39
3.16842e-41
-7.57723e-39
5.87305e-51
-2.90753e-50
-9.31371e-50
2.4883e-53
-7.55294e-52
-3.07912e-51
4.53247e-54
-3.19889e-54
-2.53451e-53
3.01694e-51
2.51514e-52
-9.91415e-54
4.96916e-46
2.99802e-49
-3.59132e-53
4.44264e-44
4.06663e-47
-4.34382e-46
5.73251e-43
8.523e-46
-4.37034e-44
2.24289e-42
5.40879e-45
-5.22955e-43
2.9765e-42
1.50725e-44
-2.08911e-42
2.31197e-44
-3.95719e-42
2.03495e-47
-9.77654e-47
-3.26952e-46
1.00952e-49
-2.74571e-48
-1.18331e-47
2.95974e-50
-1.13587e-50
-1.11852e-49
4.18142e-53
6.51018e-54
-6.41322e-50
1.10037e-49
3.90706e-50
-2.7669e-53
1.76059e-47
1.49196e-49
-9.45433e-50
3.23937e-46
8.19977e-49
-1.73109e-47
1.58769e-45
5.2431e-48
-2.86136e-46
2.39017e-45
1.6636e-47
-1.36778e-45
2.69005e-47
-2.79719e-45
5.03955e-44
-2.31229e-43
-8.21265e-43
2.91438e-46
-7.01397e-45
-3.25075e-44
3.03648e-47
-3.04798e-47
-3.50605e-46
1.63388e-49
5.77761e-50
-6.3276e-47
1.50171e-52
7.14096e-53
-9.68086e-50
9.91431e-51
6.11845e-51
-8.58433e-53
2.46983e-49
1.26739e-49
-9.78794e-51
1.5114e-48
1.51989e-50
-2.11796e-49
2.58084e-48
2.72141e-50
-1.20737e-48
4.13822e-50
-2.65996e-48
8.88922e-41
-3.824e-40
-1.47153e-39
6.12902e-43
-1.2435e-41
-6.36299e-41
6.95045e-44
-5.47881e-44
-7.99199e-43
3.07086e-46
2.0736e-46
-1.42736e-43
3.56094e-49
3.72019e-49
-1.9133e-46
2.89643e-52
3.06431e-52
-1.82047e-49
2.37577e-52
3.87062e-52
-2.09171e-52
2.01808e-51
4.13866e-51
-2.46402e-52
3.72443e-51
1.69275e-51
-1.50011e-51
2.08533e-52
-3.38808e-51
1.11222e-37
-1.87293e-36
-4.37602e-37
9.14392e-40
-8.83847e-38
-1.5079e-38
1.12224e-40
-1.28957e-39
-5.82975e-41
6.40243e-43
-2.27293e-40
5.29404e-43
6.67421e-46
-4.21457e-43
1.19296e-45
5.28908e-49
-3.58769e-46
1.95101e-48
9.82437e-52
-3.25583e-49
2.78568e-51
4.69979e-54
-6.20162e-52
1.17335e-53
9.99756e-54
-3.04615e-54
2.5294e-53
-8.11982e-54
6.9498e-53
5.98394e-13
-7.60334e-13
-1.21202e-12
9.32461e-13
-4.37028e-13
-1.27242e-12
1.1856e-12
-3.57707e-13
-1.25151e-12
1.34277e-12
-2.46768e-13
-1.22834e-12
1.37786e-12
-1.10472e-13
-1.2172e-12
1.29321e-12
2.37534e-14
-1.19991e-12
1.09588e-12
1.53139e-13
-1.18597e-12
8.10771e-13
2.50054e-13
-1.16985e-12
4.59691e-13
3.22257e-13
-1.15936e-12
4.34502e-13
-1.13718e-12
3.83374e-13
-1.42971e-12
-1.34683e-12
7.30553e-13
-8.92889e-13
-1.34551e-12
9.90288e-13
-7.37584e-13
-1.35727e-12
1.16521e-12
-5.38022e-13
-1.33745e-12
1.22482e-12