/*--------------------------------*- C++ -*----------------------------------*\
| =========                 |                                                 |
| \\      /  F ield         | OpenFOAM: The Open Source CFD Toolbox           |
|  \\    /   O peration     | Version:  2312                                  |
|   \\  /    A nd           | Website:  www.openfoam.com                      |
|    \\/     M anipulation  |                                                 |
\*---------------------------------------------------------------------------*/
FoamFile
{
    version     2.0;
    format      ascii;
    arch        "LSB;label=32;scalar=64";
    class       volScalarField;
    location    "0.605";
    object      alpha.water;
}
// * * * * * * * * * * * * * * * * * * * * * * * * * * * * * * * * * * * * * //

dimensions      [0 0 0 0 0 0 0];

internalField   nonuniform List<scalar> 
8000
(
1
1
1
1
1
1
1
1
1
1
1
1
1
1
1
1
1
1
1
1
1
1
1
1
1
1
1
1
1
1
1
1
1
1
1
1
1
1
1
1
0.999989
0.999981
0.999998
1
1
1
1
1
1
1
0.997069
0.987621
0.999858
0.999983
0.999998
1
1
1
1
1
0.5209
0.417984
0.659256
0.867534
0.971744
0.999463
0.999999
1
1
1
2.1901e-07
2.17811e-07
0.00549078
0.116352
0.30687
0.571615
0.76198
0.876701
0.940177
0.956179
2.175e-07
2.15452e-07
2.13514e-07
2.18398e-07
8.90062e-07
2.40366e-05
0.0425619
0.165335
0.451703
0.749005
2.15452e-07
2.13514e-07
2.11571e-07
2.13514e-07
2.56224e-07
1.91977e-06
2.97426e-05
0.00467088
0.0578588
0.171605
2.21337e-07
2.13107e-07
2.09179e-07
2.11571e-07
2.19459e-07
3.89479e-07
3.09125e-05
0.000329214
0.000633349
0.00103674
1.64219e-05
1.87582e-06
2.07929e-07
2.09179e-07
2.16912e-07
3.22683e-07
2.47005e-05
5.98364e-05
6.83097e-05
0.000230202
9.83334e-05
1.51374e-05
2.09179e-07
2.11839e-07
2.19642e-07
1.8279e-06
7.08969e-06
3.68625e-06
1.20598e-05
3.26191e-05
0.000143146
2.77062e-05
2.11839e-07
4.75566e-07
8.87223e-07
9.32524e-07
1.02012e-06
1.49798e-06
3.03804e-06
1.96552e-06
0.000116044
6.11726e-05
6.43465e-06
5.06881e-07
4.46403e-06
5.24732e-06
4.29851e-06
3.57578e-06
4.91503e-06
6.43779e-06
5.47593e-05
6.60382e-05
4.02243e-05
5.7259e-07
7.09293e-06
3.89143e-05
3.7596e-05
3.94773e-05
3.89392e-05
3.35569e-05
2.22542e-05
6.60668e-05
3.1972e-05
7.12939e-07
3.81472e-06
2.62803e-05
3.32996e-05
2.19321e-05
4.04452e-05
4.03714e-05
2.17101e-06
4.5781e-05
5.23406e-06
5.26474e-06
3.0048e-05
6.7182e-08
3.86353e-06
3.26675e-07
1.05018e-05
2.69933e-05
7.74637e-07
1.71771e-06
1.02596e-06
6.84838e-06
2.93306e-05
9.27456e-10
3.48748e-09
2.18638e-09
1.34403e-08
6.20522e-07
6.45135e-07
5.29737e-07
1.49203e-06
2.1055e-06
2.53606e-05
7.60239e-11
1.26673e-10
7.48917e-11
4.67981e-10
1.43289e-09
1
1
1
1
1
1
1
1
1
1
1
1
1
1
1
1
1
1
1
1
1
1
1
1
1
1
1
1
1
1
1
0.999998
1
1
1
1
1
1
1
1
0.999978
0.999895
0.999981
0.999998
1
1
1
1
1
1
0.984267
0.932801
0.988629
0.99992
0.999993
1
1
1
1
1
0.398074
0.255469
0.485208
0.791537
0.957438
0.998955
0.999999
1
1
1
2.18714e-07
6.54367e-07
2.22333e-07
0.0825714
0.266914
0.556334
0.82134
0.941006
0.970242
0.973361
2.17363e-07
2.17371e-07
2.12325e-07
2.14424e-07
2.59071e-07
2.5565e-06
0.0329142
0.160013
0.457727
0.774628
2.14772e-07
2.12325e-07
2.11457e-07
2.12325e-07
2.14424e-07
2.59071e-07
2.55602e-06
0.000110439
0.0307203
0.155045
2.17494e-07
5.89623e-07
2.0807e-07
2.09684e-07
2.22014e-07
5.72725e-06
4.626e-05
3.31742e-05
0.000278687
0.000349313
2.20486e-06
1.39021e-06
2.01548e-07
2.07538e-07
2.30657e-07
1.02961e-05
3.92595e-05
1.3508e-05
6.5801e-06
2.58609e-05
8.88972e-05
2.33141e-07
2.72251e-07
7.69697e-07
2.97148e-07
2.04313e-06
1.0789e-05
9.60288e-06
2.45245e-06
1.94692e-06
0.000197954
2.33349e-07
2.35825e-07
3.97653e-06
5.90869e-06
6.74314e-06
2.59386e-05
3.56416e-05
2.89255e-06
2.10672e-07
0.000200036
1.77359e-05
2.53093e-07
7.19888e-07
2.39565e-05
3.94031e-05
3.97831e-05
4.01782e-05
3.448e-05
1.194e-05
0.000180088
1.29151e-05
2.86594e-07
6.23667e-07
2.45229e-05
3.93069e-05
2.02684e-05
4.03209e-05
4.04485e-05
4.03714e-05
0.000176306
1.00599e-06
1.18721e-06
2.0489e-05
3.57998e-05
5.9391e-06
1.23702e-06
1.60894e-05
4.03847e-05
4.04432e-05
0.000158571
5.7223e-07
8.17343e-07
1.95709e-05
3.5843e-05
3.10169e-06
8.39122e-09
2.70992e-07
1.18887e-05
1.94567e-05
9.97887e-05
5.20761e-07
5.7223e-07
1.00482e-05
3.58292e-05
3.66616e-06
1.08431e-10
8.67469e-10
1.05964e-08
3.59766e-08
0.00011463
4.51797e-07
3.22634e-05
1.41936e-05
2.21023e-05
3.34643e-06
3.98723e-12
2.98479e-11
3.62362e-10
6.75123e-10
1
1
1
1
1
1
1
1
1
1
1
1
1
1
1
1
1
1
1
1
1
1
1
1
1
1
1
1
1
1
1
1
1
1
1
1
1
1
1
1
0.999997
0.999981
0.999995
0.999999
1
1
1
1
1
1
0.999844
0.98792
0.999402
0.999968
0.999997
1
1
1
1
1
0.649355
0.478033
0.652218
0.876453
0.981042
0.999965
1
1
1
1
0.00404389
2.18612e-07
0.0509323
0.169019
0.371712
0.651848
0.861757
0.952214
0.978852
0.994722
2.16013e-07
2.14676e-07
2.13435e-07
2.17292e-07
4.25642e-07
1.33132e-05
0.0655654
0.221449
0.502606
0.752621
2.14676e-07
2.13725e-07
2.12325e-07
2.13435e-07
2.17292e-07
4.2563e-07
1.33736e-05
0.000165186
0.0323807
0.108572
2.16013e-07
2.13566e-07
2.09969e-07
2.16182e-07
2.996e-07
4.51019e-05
0.000114846
1.30335e-05
7.194e-05
0.000205047
2.30674e-07
2.26138e-07
1.85252e-07
2.11918e-07
1.34881e-05
3.80459e-05
2.82183e-05
7.15458e-06
9.37126e-06
5.2559e-05
9.1859e-07
3.01647e-07
1.72262e-07
7.30435e-07
1.10956e-06
2.75893e-06
9.80537e-06
8.35175e-06
5.59066e-07
2.0464e-07
5.99671e-05
2.33136e-07
5.35523e-07
1.99828e-06
1.27956e-06
1.49175e-06
1.22358e-05
3.11213e-05
1.44932e-05
1.98722e-07
0.000200371
3.40548e-05
3.63882e-07
4.06736e-06
1.77098e-05
1.38133e-05
8.00513e-06
1.7675e-05
2.16885e-05
6.58633e-06
0.000201329
0.000108242
1.56117e-07
3.40943e-06
2.84881e-05
2.78526e-05
9.22157e-07
8.13992e-06
2.07125e-05
7.8132e-06
8.5296e-05
7.55744e-05
7.73772e-06
1.72304e-08
2.83437e-05
2.73966e-05
2.17706e-09
4.58265e-06
1.33828e-05
6.54794e-06
5.27382e-05
1.89519e-05
1.57023e-07
5.59614e-08
1.86297e-05
2.71729e-05
1.08724e-10
1.7732e-07
1.67501e-06
1.97966e-06
3.32084e-05
1.24136e-06
9.01897e-06
3.63533e-05
3.29048e-05
3.20448e-05
4.31332e-12
1.0792e-10
5.87878e-10
3.61957e-08
3.60831e-05
1.44815e-09
0.000135082
0.00019286
6.77973e-05
3.83373e-05
1.85441e-13
3.5111e-12
3.08801e-11
1.00692e-10
1
1
1
1
1
1
1
1
1
1
1
1
1
1
1
1
1
1
1
1
1
1
1
1
1
1
1
1
1
1
1
1
1
1
1
1
1
1
1
1
1
0.999998
1
1
1
1
1
1
1
1
0.999983
0.999919
0.999969
0.999995
1
1
1
1
1
1
0.871006
0.788498
0.875814
0.964621
0.997432
0.999997
1
1
1
1
0.118878
0.0790472
0.16822
0.314051
0.521009
0.736767
0.887825
0.976881
1
1
2.17363e-07
2.18613e-07
2.34145e-07
2.39543e-07
7.20489e-07
0.0188966
0.0913135
0.240064
0.489691
0.722405
2.16013e-07
2.14676e-07
2.13435e-07
2.17292e-07
2.39543e-07
7.20473e-07
2.39592e-05
0.000312063
0.0230401
0.0782617
1.02737e-06
5.20924e-07
1.841e-06
4.22101e-06
8.92699e-07
9.05967e-06
4.60237e-05
6.99993e-06
0.000125671
0.000266777
3.76532e-06
2.86353e-06
1.63196e-07
1.52837e-06
7.56075e-06
1.03677e-05
3.75331e-06
1.20848e-06
0.000230884
0.000468059
1.81272e-07
1.63278e-07
1.50655e-07
4.38898e-07
5.40435e-06
7.02021e-06
1.71205e-06
1.08041e-06
1.34165e-07
4.04214e-08
7.9022e-08
7.29588e-07
1.36208e-07
7.73717e-08
1.98534e-06
1.67647e-05
1.90035e-05
1.63329e-06
3.56182e-06
3.71973e-08
5.46838e-08
3.28603e-08
3.73402e-07
6.25147e-08
2.05604e-08
4.16963e-06
2.30208e-05
4.65717e-06
5.03591e-06
4.53303e-08
1.26127e-06
4.73235e-09
7.0303e-08
2.43221e-08
2.4569e-07
4.89662e-08
9.69219e-06
9.02569e-06
5.24158e-08
3.17944e-08
3.24646e-09
2.84542e-09
4.73235e-09
8.66745e-09
4.88937e-07
1.9644e-07
8.67021e-07
1.10702e-06
1.42231e-08
9.33712e-09
1.15456e-09
2.06187e-09
2.84542e-09
1.32953e-08
2.2284e-07
6.28658e-07
3.23358e-10
2.12403e-10
7.59998e-10
6.45621e-10
1.03716e-09
1.15456e-09
3.75454e-05
6.32771e-05
1.53886e-07
1.44721e-06
1.05912e-11
1.13959e-11
2.08306e-10
2.23434e-10
1.03716e-09
1.03312e-09
2.7467e-05
0.00017465
2.45885e-09
2.7782e-06
1.38492e-12
5.36807e-12
3.25207e-10
1.84884e-10
1
1
1
1
1
1
1
1
1
1
1
1
1
1
1
1
1
1
1
1
1
1
1
1
1
1
1
1
1
1
1
1
1
1
1
1
1
1
0.999998
0.999995
1
1
1
1
1
1
1
1
1
1
0.999999
0.999993
0.999997
1
1
1
1
1
1
1
0.975528
0.958963
0.981586
0.997495
0.999995
1
1
1
1
1
0.321488
0.272304
0.373615
0.521514
0.684543
0.809124
0.919097
1
1
1
2.95838e-07
3.70373e-07
4.03563e-07
5.66758e-07
0.00732284
0.0445844
0.117825
0.279432
0.537506
0.711558
2.34698e-07
2.29758e-07
2.34145e-07
2.39543e-07
5.66758e-07
2.05768e-06
4.22121e-05
0.00162947
0.0462671
0.122612
7.27561e-06
7.37656e-06
5.60401e-06
9.42838e-06
2.50747e-05
4.25011e-06
0.000357765
0.00269329
0.000110281
1.86295e-05
8.18089e-06
4.90499e-06
1.84448e-07
1.63785e-07
2.43368e-06
2.75093e-06
2.85042e-05
8.617e-05
3.94096e-05
2.62285e-06
2.96357e-06
4.99645e-07
3.11647e-07
1.48906e-07
1.35742e-06
2.02428e-06
1.78153e-06
8.1695e-07
1.72101e-07
6.86369e-08
1.91701e-06
2.6772e-06
9.59091e-07
1.16162e-07
3.98954e-07
4.65928e-06
3.43617e-05
4.63874e-05
1.55635e-05
3.70648e-08
1.21502e-06
1.03733e-06
5.05366e-07
1.37065e-06
6.16624e-09
6.82363e-07
5.11734e-05
0.000137235
3.31855e-05
4.7902e-08
1.22979e-07
4.36921e-08
6.56536e-08
4.47964e-06
4.50929e-09
5.4101e-09
2.82572e-05
8.78019e-05
3.05838e-06
5.49947e-08
2.08415e-07
2.12652e-08
8.66745e-09
2.49815e-06
3.99994e-09
9.92067e-09
1.05823e-06
1.67552e-06
1.11975e-06
5.68519e-07
1.14972e-07
2.84542e-09
1.64917e-05
1.83164e-05
3.06349e-09
3.9999e-09
7.23573e-09
2.296e-08
5.26633e-07
4.05061e-06
4.96281e-09
1.10344e-07
6.1123e-06
2.36856e-05
2.45885e-09
2.10307e-09
3.23336e-10
2.12341e-10
4.75164e-07
4.55024e-06
1.03627e-09
1.45068e-08
1.61626e-08
1.39535e-05
1.98404e-09
8.0897e-10
1.05901e-11
1.13635e-11
1.40083e-07
1.91933e-06
1
1
1
1
1
1
1
1
1
1
1
1
1
1
1
1
1
1
1
1
1
1
1
1
1
1
1
1
1
1
1
1
1
1
1
1
1
1
1
1
1
1
1
1
1
1
1
1
0.997969
0.984271
1
1
1
1
1
1
1
1
1
0.913893
0.999793
0.999314
0.999975
0.999997
1
1
1
1
1
0.957683
0.594942
0.571559
0.654942
0.738968
0.8107
0.874629
0.949315
1
1
0.999997
5.4598e-07
1.16397e-06
1.52529e-06
0.0184402
0.0441611
0.0803244
0.159684
0.358985
0.603388
0.649472
3.13173e-07
3.81519e-07
4.03563e-07
5.66757e-07
2.05771e-06
2.85425e-05
0.000224112
0.00519947
0.123359
0.349684
2.70309e-05
4.08828e-05
4.00551e-07
9.31864e-07
3.7082e-05
6.74238e-05
5.69193e-05
0.0121798
0.0392232
0.0175436
5.18794e-06
2.19624e-07
1.98503e-07
1.26859e-06
3.35364e-06
3.14028e-06
0.000108264
0.00092695
0.000110769
1.68861e-05
2.68612e-06
7.46018e-07
8.74609e-07
2.08816e-06
1.73995e-08
5.52625e-08
1.2635e-05
0.00118586
0.00215146
7.73584e-07
2.63591e-06
2.47971e-06
2.4565e-06
2.23358e-06
1.16016e-08
1.73995e-08
9.10884e-06
0.000150455
2.30659e-06
8.89218e-07
1.84071e-06
8.37383e-07
8.08984e-07
1.37939e-05
8.91244e-09
1.16016e-08
4.56278e-06
0.000363137
5.75413e-06
1.47573e-06
2.68142e-06
1.59782e-06
7.90928e-08
2.21776e-05
6.06449e-09
3.03978e-08
4.62411e-06
0.000115589
8.61143e-06
0.000116996
4.8994e-06
6.45159e-07
7.29097e-06
2.21286e-05
2.76631e-08
2.79122e-08
6.40263e-07
4.14807e-07
7.42881e-06
0.000262416
1.36188e-06
4.69215e-07
2.44064e-07
1.06585e-05
3.96318e-09
7.37861e-09
7.35237e-07
9.15767e-08
7.70547e-06
0.000147265
3.60577e-09
1.93457e-07
6.98497e-08
1.76196e-08
3.51704e-09
1.91304e-08
1.59892e-08
1.90747e-06
4.35885e-07
3.51742e-05
4.16651e-09
2.2301e-09
9.99687e-09
1.77003e-08
2.05623e-08
2.86488e-07
8.0897e-10
1.19841e-09
1.41126e-07
1.43429e-05
1
1
1
1
1
1
1
1
1
1
1
1
1
1
1
1
0.999998
1
1
1
1
1
1
1
1
1
0.999995
0.99997
0.999997
1
1
1
1
1
1
1
0.999988
0.99999
1
1
1
1
1
1
1
1
0.999998
1
0.990005
0.949262
1
1
1
1
1
1
1
1
0.870287
0.7578
0.999999
0.999999
1
1
1
1
1
1
0.935909
0.757521
0.76997
0.824957
0.862825
0.89188
0.922926
0.953093
0.992034
1
0.999996
0.809125
0.0467783
0.0341029
0.0637673
0.0894899
0.11489
0.158033
0.260484
0.528223
0.721592
0.880991
5.4598e-07
1.13793e-06
1.52526e-06
2.28342e-06
8.10131e-06
1.7056e-05
0.000454598
0.0146936
0.213882
0.809448
3.25572e-05
6.63501e-05
4.48505e-07
8.09716e-07
4.48798e-06
1.20493e-05
1.70496e-05
0.00735898
0.12064
0.156099
1.60338e-06
2.66506e-07
2.19596e-07
4.8342e-07
3.01403e-05
2.82575e-05
2.56728e-05
0.025118
0.113826
0.0010056
6.5669e-07
3.82213e-07
4.35515e-07
1.02104e-05
1.49338e-07
1.45059e-06
0.00529368
0.0212317
0.0171399
0.000116279
6.77261e-07
5.59665e-07
4.7634e-07
2.18682e-05
1.73995e-08
0.000302867
0.00461389
0.00799851
9.56922e-06
4.64807e-05
7.62275e-07
7.6672e-07
3.69561e-06
1.71322e-05
1.16016e-08
0.000256247
0.00170969
0.000351083
1.58054e-05
0.000161824
4.12492e-06
2.61855e-06
1.71509e-05
5.02031e-06
9.05354e-09
1.48408e-05
0.00015373
1.2086e-05
1.1555e-05
0.000214984
5.77901e-06
1.69735e-06
2.52393e-05
7.83211e-07
2.30068e-08
2.04503e-07
1.5986e-06
6.44795e-06
1.37247e-05
5.74901e-05
1.81314e-06
4.8004e-07
5.92546e-06
1.10874e-07
7.38073e-09
9.06841e-06
6.47006e-05
2.00676e-05
2.04913e-05
5.57476e-07
1.5463e-09
7.27686e-07
1.35383e-07
3.16975e-08
3.96311e-09
1.02453e-05
6.00334e-05
2.75355e-05
8.62637e-06
5.38284e-07
7.45443e-10
2.163e-07
7.0444e-08
2.36988e-08
1.63086e-08
1.25618e-05
3.89019e-05
1.32206e-05
2.18628e-07
4.07672e-07
1
1
1
1
1
1
1
1
1
1
1
1
1
1
1
1
1
0.999928
0.999966
1
1
1
1
1
1
1
0.999961
0.9999
0.999966
1
1
1
1
1
1
0.999999
0.999988
1
1
0.99999
1
1
1
1
1
1
1
0.997523
0.965997
0.995662
1
1
1
1
1
1
1
0.968959
0.878216
0.994009
1
1
1
1
1
1
1
0.987735
0.830974
0.985318
0.871419
0.936426
0.952845
0.982094
1
1
1
0.985294
0.713232
0.931409
0.167299
0.152138
0.208073
0.234425
0.271865
0.3552
0.509418
0.667813
0.658538
0.879428
1.23759e-06
4.1752e-06
3.84591e-05
3.42494e-05
2.13607e-05
2.47538e-05
0.0109363
0.190531
0.661201
0.720965
1.90906e-06
2.54066e-06
4.14565e-06
1.52581e-06
7.49763e-06
1.89555e-05
2.47613e-05
0.0561718
0.658778
0.186285
1.01983e-06
5.65038e-07
4.22567e-07
8.09428e-07
0.000248535
0.000213056
0.000123592
0.164192
0.438401
0.00128363
7.10577e-07
6.4069e-06
4.7598e-07
9.88342e-07
0.00047767
0.00011754
0.0323119
0.152461
0.0330395
4.22262e-05
2.61523e-06
2.68158e-06
5.54958e-07
3.28048e-05
0.000208141
0.000625309
0.0337666
0.0732313
0.000194567
6.12025e-05
8.27185e-07
1.06017e-06
2.38984e-06
0.000310376
3.33063e-05
0.000997644
0.0158295
0.000706891
2.15824e-05
6.13358e-05
1.33706e-06
1.56194e-06
5.06931e-05
0.000519874
1.01976e-07
4.32724e-05
0.0102156
4.00567e-05
6.04042e-06
7.11694e-05
1.72282e-06
1.2478e-06
0.000117159
0.000484815
2.04508e-07
0.000361582
0.00277686
6.04154e-06
2.24286e-06
7.10992e-07
4.4061e-07
9.75572e-07
0.000140018
0.000413047
1.10874e-07
0.000228234
2.6908e-05
1.93533e-06
7.11082e-07
6.31446e-07
8.76068e-09
4.91046e-06
0.000239107
4.82951e-05
3.16981e-08
8.56865e-05
0.000175021
1.84012e-05
1.04886e-05
5.51901e-07
1.57588e-09
2.05266e-06
7.54715e-05
1.66727e-07
9.80482e-08
4.56479e-06
0.000104845
0.000102734
2.76479e-05
6.59731e-07
1
1
1
1
1
1
1
1
1
1
1
1
1
1
1
1
0.999999
0.999972
0.999987
1
1
1
1
1
1
1
0.999998
0.9999
0.999974
1
1
1
1
1
1
1
1
1
1
1
1
1
1
1
1
0.999427
0.991957
0.970861
0.992332
1
1
1
1
1
1
1
0.894518
0.858522
0.928443
0.999852
1
1
1
1
1
1
0.9585
0.858471
0.950668
0.999614
0.943555
0.971612
0.983669
1
1
1
0.999993
0.895814
0.968491
0.982795
0.400724
0.427824
0.49256
0.491307
0.528403
0.627354
0.707007
0.869568
0.943884
0.762635
0.00288896
0.00901866
0.0206105
0.012019
0.0116006
0.0321855
0.158961
0.792357
0.692379
0.206336
3.33449e-06
4.38272e-05
8.31527e-05
2.76552e-05
1.77516e-05
2.47614e-05
0.0626373
0.592483
0.126234
0.00429576
1.84047e-06
5.32603e-06
4.14289e-06
1.51238e-06
1.18637e-05
1.7826e-05
0.0634072
0.458096
0.00429696
0.00058379
8.91212e-07
1.61719e-05
1.25708e-06
2.7089e-06
3.64678e-06
8.14998e-06
0.0783028
0.307861
0.000587142
7.61403e-05
7.35625e-06
9.58326e-06
1.57622e-06
3.0778e-06
8.15006e-06
0.0110633
0.117492
0.0601375
0.000101091
8.52614e-05
1.62361e-06
3.79165e-06
4.07336e-06
2.32876e-05
1.60095e-05
0.0478178
0.180649
0.000406682
7.00369e-05
0.000100771
4.78284e-06
3.56067e-06
4.00492e-05
3.09324e-05
0.0102945
0.104013
0.118223
6.75242e-05
2.1798e-05
0.000181353
4.89264e-06
1.66298e-06
8.97594e-06
0.00131421
0.0256008
0.0516663
0.00677265
2.17994e-05
8.05093e-06
0.00017935
1.19782e-06
1.2478e-06
0.000208076
0.00798685
0.013051
0.000554968
0.000261847
0.000511972
0.000527768
5.67271e-06
1.37084e-07
1.2022e-06
0.0012382
0.00603424
0.0014342
4.84301e-05
5.28612e-05
0.000640965
0.000883641
6.91618e-07
9.11434e-09
3.72274e-07
0.00125303
0.0027247
1.75273e-07
3.32939e-06
1.12829e-05
0.000125007
0.000125473
8.8174e-07
1
1
1
1
1
1
1
1
1
0.973282
1
1
1
1
1
1
1
1
1
0.973854
1
1
1
1
1
1
1
0.99999
1
0.970577
1
1
1
1
1
1
1
1
1
0.970709
1
1
1
1
0.999824
1
0.961031
0.99455
1
0.983005
1
1
1
1
1
0.904271
0.827447
0.976784
0.999728
0.999763
1
1
1
1
0.999971
0.912085
0.827447
0.95356
0.999366
0.999522
0.967163
0.97825
0.996428
1
0.999999
0.994165
0.927841
0.897848
0.999029
0.978703
0.70931
0.759295
0.757177
0.717981
0.720658
0.785545
0.883223
0.791205
0.974747
0.602001
0.0934527
0.143969
0.128375
0.0778594
0.068455
0.134442
0.474013
0.693232
0.660154
0.0557243
0.000183461
0.000446909
0.000450544
0.000291597
0.000673259
0.000678015
0.25069
0.491985
0.0647161
0.001711
2.78939e-05
7.32115e-05
4.99737e-05
2.76022e-05
1.78264e-05
0.0344281
0.178431
0.358548
0.00147092
0.00100833
4.10083e-06
1.81371e-05
5.75249e-06
0.000243011
0.00353949
0.0175426
0.191307
0.276495
0.00049522
0.0007582
7.23005e-06
8.95984e-06
0.00152683
0.00250794
0.00190244
0.0189408
0.190814
0.100072
0.000256002
0.0011495
7.88202e-05
0.00185758
0.00350637
0.00181521
3.62595e-05
0.0654895
0.184853
0.00022062
0.000363066
0.00119385
0.000797376
0.00162809
0.00169679
0.000124519
0.0121576
0.0868858
0.0553397
2.31797e-05
0.000412933
0.000821147
0.00100823
0.000342326
0.000126308
4.57364e-05
0.0337007
0.068011
2.17797e-05
0.000465855
0.0012077
1.59984e-05
0.000255329
7.4675e-06
1.71187e-05
0.00515067
0.0319226
0.0160477
1.14678e-05
0.000999079
0.00121287
1.8737e-05
1.05781e-05
7.03095e-06
7.24784e-06
0.00846897
0.0282816
1.83387e-05
1.98837e-05
0.00058812
0.000344868
4.76699e-06
1.56014e-07
1.05126e-06
0.00175113
0.0144897
0.0142932
1.95477e-05
4.54867e-06
3.0575e-05
9.20285e-06
2.3676e-05
1
1
1
1
1
1
1
1
1
0.978479
1
1
1
1
1
1
1
1
1
0.98186
1
1
1
1
1
1
1
0.999993
1
0.970114
1
1
1
1
1
1
1
1
1
0.975228
1
1
1
1
1
1
1
0.99754
0.999585
0.997095
1
1
1
1
0.985226
0.903788
0.896309
0.986715
0.999668
0.999735
1
1
1
1
0.997127
0.913087
0.827447
0.988164
0.99953
0.998798
0.953422
0.972703
0.993316
0.999999
0.999996
0.998894
0.838928
0.906125
0.959902
0.889209
0.768561
0.785556
0.776189
0.737723
0.756266
0.740249
0.878802
0.813722
0.848731
0.658382
0.173686
0.185189
0.137497
0.0872606
0.084262
0.157053
0.87193
0.761005
0.506599
0.107279
0.000723381
0.000688024
0.00159295
0.00434621
0.0899568
0.441186
0.832458
0.355317
0.0302186
0.0138086
9.39381e-05
0.000256815
0.00091431
0.000291997
0.114523
0.303778
0.266614
0.0161156
0.00262986
0.0179632
1.65798e-05
8.70965e-05
5.15015e-05
0.0265582
0.0727372
0.0225094
0.00848093
0.0147016
0.00426547
0.0145632
8.95984e-06
1.86452e-05
0.0090376
0.0232096
0.00312965
8.18257e-05
0.00562362
0.0119459
0.00425938
0.00755975
0.000478153
0.00685964
0.00976646
0.00376801
1.05139e-06
1.22457e-06
0.00217845
0.000770403
0.000772758
1.88198e-05
0.00466846
0.00679027
0.00532912
4.51208e-06
3.90961e-06
6.56445e-06
4.50185e-05
1.41491e-05
4.28954e-05
1.53911e-05
0.00466125
0.00314229
2.78549e-05
5.06825e-06
4.21148e-06
5.12171e-06
6.67761e-06
0.000267616
0.000171285
1.32504e-05
0.00286979
1.46334e-05
4.37594e-06
2.81984e-05
2.88515e-06
3.40976e-06
5.65084e-06
0.000414955
0.000218884
1.22869e-05
9.53623e-05
4.35241e-06
5.95268e-06
0.000146034
1.50453e-06
3.78305e-06
0.000173844
0.000201693
5.89824e-06
9.04478e-06
4.70993e-07
2.66099e-06
0.000142189
0.0011307
0.00139671
1.39067e-05
7.82241e-05
4.52229e-06
4.9768e-06
9.20285e-06
1
1
1
1
1
1
1
1
1
1
1
1
1
1
1
1
0.999999
0.999984
0.999994
1
1
1
1
1
1
1
0.999999
0.999914
0.999962
1
1
1
1
1
1
1
0.999995
0.99999
1
1
1
1
1
1
0.999994
0.999999
1
1
0.999098
0.999801
1
1
1
1
1
1
0.983908
0.937049
0.992047
0.999793
1
1
1
1
0.999997
1
0.991449
0.916563
0.947999
0.975395
0.941338
0.97212
0.979948
1
0.999999
1
0.968136
0.941728
0.943252
0.944271
0.494886
0.448662
0.507504
0.538913
0.511024
0.489738
0.6582
0.936515
0.929948
0.937334
0.0420058
0.0150347
0.020191
0.0171385
0.114666
0.616258
0.780057
0.480748
0.432837
0.347495
0.000112231
0.000585434
0.0133178
0.131307
0.146242
0.144605
0.101972
0.0140931
0.00768202
0.00119269
0.000100503
0.00711781
0.0206452
0.00485508
7.68496e-06
2.32945e-05
0.00799962
0.000230731
0.000567895
0.00112524
7.33123e-05
0.00753655
0.0182224
1.45998e-06
1.16776e-06
6.03619e-07
0.00034151
1.50589e-05
0.000123835
1.08172e-06
2.81195e-05
0.00483344
0.005796
1.16578e-06
6.88651e-07
3.60469e-06
4.7881e-05
6.99327e-07
2.27929e-05
5.32989e-07
0.00234712
0.0036522
2.34725e-05
1.05139e-06
9.79655e-07
7.8929e-07
1.22456e-06
1.46001e-06
1.26357e-06
1.77868e-05
0.00466125
0.00442875
4.51208e-06
1.67009e-06
1.05139e-06
4.54363e-06
1.81464e-06
1.7562e-06
1.82598e-06
5.29798e-05
0.00471194
0.00307969
4.37594e-06
3.91158e-06
3.51579e-06
2.13666e-05
5.34362e-06
7.22159e-05
3.38456e-06
4.05276e-05
0.00466125
0.000418914
3.34884e-06
3.59359e-06
5.12083e-06
7.93576e-06
6.68546e-06
0.000159879
4.91817e-06
4.04835e-05
0.000912993
2.78311e-06
3.04375e-06
1.2594e-06
8.56736e-07
1.52513e-06
0.000254848
5.67141e-05
5.59711e-06
6.33868e-05
2.032e-06
1.55688e-06
8.92179e-08
1.6984e-07
0.000152076
0.000880914
0.000993623
3.67286e-06
5.65651e-06
6.99257e-06
1
1
1
1
1
1
1
1
1
1
1
1
1
1
1
1
1
0.999936
0.999981
1
1
1
1
1
1
1
0.999954
0.999914
0.999957
0.999998
1
1
1
1
1
1
0.999974
0.999957
0.999988
1
1
1
1
1
1
1
0.999999
1
1
1
1
1
1
1
1
1
1
1
0.96549
0.905101
1
1
1
1
1
1
1
1
0.885713
0.816751
0.882508
0.938042
0.949811
0.972055
1
1
1
1
0.937686
0.95361
0.180742
0.148469
0.200383
0.240716
0.312925
0.432512
0.589185
0.640612
0.742458
0.93527
0.0017803
6.2007e-05
0.000261375
0.00110698
0.0217626
0.0739696
0.143291
0.159484
0.209916
0.351674
1.05903e-05
7.10364e-05
0.0076776
0.04753
0.0587863
0.0194792
0.000120495
0.000230826
0.000143865
0.000108917
6.21554e-05
0.00120837
0.00227205
1.29264e-05
2.89392e-06
5.80763e-07
1.55727e-06
1.51346e-05
2.93468e-06
1.05893e-06
9.88246e-05
0.00213703
0.00222624
2.34392e-06
1.08205e-06
3.43998e-07
4.46427e-07
7.7546e-07
1.2958e-06
5.32124e-07
2.14984e-05
0.00141936
0.00199786
6.27804e-07
4.57975e-07
4.85314e-07
5.01905e-07
6.57233e-07
5.63505e-07
2.795e-07
0.00158616
0.000848132
0.000556267
1.89236e-06
6.8865e-07
5.36601e-07
1.00808e-05
1.9335e-06
1.00225e-06
3.97121e-07
0.00470624
0.003054
0.000523939
4.25672e-05
9.27637e-05
0.000183318
7.83368e-06
4.42585e-06
1.69296e-06
8.04341e-07
0.00470624
0.00455496
0.000517708
4.56022e-05
0.000139935
0.000176421
1.25331e-05
0.000138258
1.07982e-05
5.02045e-05
0.00391057
0.00105274
0.000319804
0.000102944
4.97495e-05
1.90691e-05
5.85006e-05
0.000295234
2.56295e-05
0.000171247
0.000320122
1.34085e-06
3.75201e-06
1.66977e-05
2.1116e-07
1.09515e-05
0.00081217
0.000185944
1.33465e-05
0.000197198
9.83651e-07
3.47065e-07
1.10234e-08
1.0354e-08
1.31857e-07
0.000356963
0.000997646
0.000113295
8.12854e-06
0.000174068
1
1
1
1
1
1
1
1
1
1
1
1
1
1
1
1
0.999998
1
1
1
1
1
1
1
1
1
0.999997
0.99997
0.999997
1
1
1
1
1
1
1
0.999992
0.99999
1
0.99921
1
1
1
1
1
1
0.999998
1
1
0.948863
1
1
1
1
1
1
1
1
1
0.798107
0.999999
0.999999
1
1
1
1
1
1
1
0.888973
0.766795
0.806645
0.850683
0.880558
0.918339
0.957398
1
1
1
1
0.044532
0.0285463
0.0527103
0.0843173
0.131364
0.215227
0.349438
0.544274
0.708803
0.816935
2.87963e-06
1.10761e-06
1.75485e-05
0.000128519
0.00058743
0.000735246
0.0237834
0.0920769
0.133022
0.131966
9.2331e-07
3.93745e-05
0.000463843
0.00010448
0.000200568
4.39462e-06
1.38419e-06
1.88178e-05
1.59342e-05
7.40864e-06
4.69805e-06
1.0819e-05
0.000151732
0.000478139
0.000423379
3.21084e-07
3.81136e-07
5.45118e-07
1.24423e-06
2.00328e-06
2.45437e-05
3.93874e-06
1.13764e-06
2.57266e-05
1.28524e-05
2.68824e-07
3.43983e-07
1.62159e-06
2.17312e-05
7.56516e-06
1.75746e-05
2.41947e-06
3.14671e-07
3.97128e-07
3.85956e-07
4.23022e-07
1.94151e-06
3.71668e-06
1.04653e-05
6.94031e-06
0.00036527
4.57265e-05
7.69658e-07
7.25974e-07
7.3868e-07
2.8813e-05
2.42658e-05
1.54433e-06
1.26357e-06
8.04904e-07
0.00245658
0.000710299
4.47654e-05
9.6022e-05
0.000206212
0.000215634
4.84091e-05
2.85089e-05
1.34019e-06
3.63554e-06
0.00288088
0.000834317
0.000383489
0.000386226
0.000369302
0.000133176
1.54339e-05
0.000114437
2.70171e-05
0.000193024
0.000899752
0.000290357
8.78003e-05
6.6619e-05
8.41115e-06
2.9401e-08
1.02458e-05
0.000154587
7.08124e-05
0.000330029
1.38176e-05
6.73705e-06
2.87034e-07
8.09427e-09
1.27365e-08
1.96875e-06
0.00016088
6.04268e-05
0.000104761
0.000332412
1.1145e-07
3.4162e-08
5.72978e-09
3.97985e-09
4.91335e-08
2.68077e-06
0.000130073
1.42569e-05
0.000134577
0.000332353
1
1
1
1
1
1
1
1
1
1
1
1
1
1
1
1
1
1
1
1
1
1
1
1
1
1
1
1
1
1
1
1
1
1
1
1
1
1
0.999995
1
1
1
1
1
1
1
1
1
1
0.902079
1
1
1
1
1
1
1
1
1
0.968438
0.999481
0.998291
0.999867
0.999997
1
1
1
1
1
0.999972
0.573578
0.534805
0.623046
0.711285
0.790329
0.87092
0.958891
1
1
0.999999
2.87963e-06
1.10761e-06
1.35083e-05
0.0109529
0.0395073
0.0917981
0.219232
0.431853
0.699274
0.807188
1.79697e-07
1.60607e-07
8.76917e-07
1.33026e-05
8.98298e-05
0.000134355
0.00487918
0.0481501
0.0844465
0.0754963
1.87604e-07
6.72668e-07
2.54126e-07
6.17619e-07
7.32603e-06
2.17966e-07
3.73033e-07
5.32739e-07
1.17797e-06
2.14341e-06
1.07676e-06
9.9227e-07
7.29237e-07
5.81033e-06
2.17889e-06
2.68162e-07
3.21141e-07
3.83171e-07
5.47831e-07
1.30186e-06
7.88592e-06
4.94158e-07
4.39201e-07
7.3416e-07
3.04106e-07
2.25043e-07
2.68702e-07
3.27184e-06
1.12726e-05
2.05027e-05
2.43538e-05
3.14226e-07
2.23661e-07
3.03184e-07
3.19541e-07
2.13143e-07
3.90866e-07
4.78653e-06
1.9718e-05
2.00625e-05
8.36586e-07
8.43953e-07
4.72948e-07
4.20829e-07
8.48284e-06
4.06936e-05
4.47529e-07
4.64004e-07
1.1698e-05
1.25749e-05
1.37375e-05
3.15699e-06
4.76162e-07
1.63879e-05
2.82386e-05
7.51471e-05
3.80376e-06
1.11852e-07
3.49124e-07
2.12064e-06
2.59831e-05
4.76162e-07
1.06569e-07
5.93649e-05
5.92339e-05
2.33584e-05
2.1165e-07
7.4979e-08
1.82047e-06
2.29826e-05
2.16871e-06
1.12122e-06
2.89336e-08
9.24142e-06
1.27365e-08
1.88029e-08
1.00546e-07
4.2592e-08
5.52248e-06
8.92903e-05
2.51091e-07
1.59748e-06
1.92358e-07
3.97985e-09
9.22302e-09
1.4129e-08
3.89457e-09
4.24487e-09
1.13922e-05
0.000109067
1.10638e-08
9.95276e-08
4.96033e-09
3.97985e-09
3.97985e-09
2.58824e-09
1.61205e-08
1.73726e-09
2.01672e-05
4.81905e-05
1
1
1
1
1
1
1
1
1
1
1
1
1
1
1
1
1
1
1
1
1
1
1
1
1
1
1
1
1
1
1
1
1
1
1
1
1
1
0.999991
0.999886
1
1
1
1
1
1
1
1
0.999999
0.999636
0.999998
0.999991
0.999997
0.999999
1
1
1
1
1
1
0.971549
0.949493
0.97545
0.995216
0.999969
1
1
1
1
1
0.305674
0.247271
0.341213
0.47763
0.638579
0.782225
0.91219
1
1
0.999999
1.79697e-07
1.60607e-07
8.76919e-07
1.32289e-05
8.98505e-05
0.0408357
0.137987
0.347466
0.636182
0.78621
1.42875e-07
1.43895e-07
1.60606e-07
5.97529e-07
7.43011e-06
1.24022e-06
0.000285013
0.00901996
0.0522821
0.0794886
1.47145e-07
5.31527e-07
1.7763e-07
1.97714e-07
3.83324e-07
5.62504e-07
1.08514e-06
7.84433e-07
8.91484e-07
2.11385e-06
1.87459e-06
1.04127e-06
1.90072e-07
2.53481e-07
3.91219e-07
2.7569e-07
1.86831e-06
6.14907e-07
8.61137e-07
1.14851e-06
2.98651e-06
1.96824e-07
2.19512e-07
2.27058e-07
3.36681e-07
1.52406e-07
2.89907e-06
1.28705e-05
9.27605e-07
1.26015e-06
2.78244e-06
2.00245e-07
2.14536e-07
2.0088e-07
1.52745e-07
1.24188e-07
2.04873e-06
3.09724e-05
1.78921e-05
1.30859e-05
2.24683e-07
1.39445e-06
2.83217e-05
1.43948e-05
1.92267e-07
1.13095e-07
1.60129e-07
3.54726e-05
4.87045e-05
1.96808e-05
7.14019e-07
9.87469e-07
1.96423e-05
5.8477e-05
2.42099e-06
6.96413e-08
5.55037e-08
5.15128e-06
2.77317e-05
2.69478e-05
7.34739e-07
1.06567e-07
2.89336e-08
4.75729e-05
5.74225e-06
2.25347e-08
4.18067e-08
3.8648e-08
6.6167e-06
6.62556e-06
1.90402e-07
2.89336e-08
6.24711e-09
2.71942e-05
4.89085e-06
6.40925e-09
1.66439e-08
5.14829e-09
4.75054e-07
4.055e-10
1.14937e-08
6.24711e-09
2.32459e-09
6.78595e-06
1.88411e-06
4.05179e-09
7.73548e-10
3.67682e-09
5.85337e-08
4.52276e-11
6.32304e-10
6.64497e-09
2.33544e-09
7.34025e-05
4.40463e-06
1.529e-10
1.21844e-10
2.58288e-09
1.06438e-12
3.30936e-12
1
1
1
1
1
1
1
1
1
1
1
1
1
1
1
1
1
1
1
1
1
1
1
1
1
1
1
1
1
1
1
1
1
1
1
1
1
1
1
1
1
0.999998
0.999999
1
1
1
1
1
1
1
0.99998
0.999908
0.999963
0.999993
0.999999
1
1
1
1
1
0.867116
0.77448
0.861699
0.954845
0.994266
0.999997
1
1
1
1
0.116614
0.0699254
0.14889
0.278617
0.461632
0.68808
0.871454
0.97085
1
1
1.42875e-07
1.43895e-07
1.92568e-07
1.26178e-06
1.17224e-05
0.00766126
0.0922197
0.274288
0.56695
0.759577
1.4231e-07
1.42422e-07
1.43895e-07
1.80702e-07
3.83813e-07
6.51692e-07
2.19018e-06
0.000300543
0.0329937
0.0893682
1.43003e-07
1.50972e-07
1.77954e-07
1.80795e-07
4.80695e-07
5.18514e-07
6.51003e-07
2.14149e-06
1.44624e-05
2.50363e-05
3.31759e-07
1.56488e-07
1.87904e-07
7.73085e-06
1.66203e-05
1.27484e-05
9.37666e-06
3.9697e-06
9.23436e-07
2.10142e-06
1.49542e-07
1.87761e-07
4.67869e-07
2.59315e-05
3.93935e-05
4.63422e-06
3.37616e-05
1.59097e-05
1.37021e-06
1.81706e-06
1.75809e-07
1.99324e-07
2.0034e-07
2.38764e-05
1.71708e-05
1.96143e-07
5.09248e-05
9.07039e-05
1.22881e-05
2.02077e-06
2.02576e-07
2.0034e-07
3.36634e-05
2.41118e-05
1.41766e-06
1.24189e-07
1.90991e-05
9.15814e-05
5.35966e-05
1.33134e-06
2.69454e-05
2.02576e-07
0.000103096
0.000107719
1.49753e-05
9.22527e-08
3.76638e-06
7.09419e-05
7.47157e-05
1.07851e-06
7.97337e-05
1.28967e-05
4.11553e-05
0.000107811
2.1539e-05
3.29621e-08
6.99669e-07
2.44025e-05
4.19844e-05
9.15858e-07
0.000148849
1.47918e-05
1.56596e-05
0.00010554
1.0521e-05
2.87693e-09
1.14166e-07
3.83817e-06
6.93693e-06
9.03301e-07
4.44154e-05
2.10093e-08
2.67359e-05
6.74766e-05
3.22882e-06
1.529e-10
1.21844e-10
2.4034e-10
1.82018e-09
3.23935e-08
5.15018e-09
9.52107e-09
9.14724e-05
6.9216e-05
1.85308e-06
1.05238e-10
1.04535e-10
3.81201e-11
2.72882e-11
7.06925e-10
1
1
1
1
1
1
1
1
1
1
1
1
1
1
1
1
1
1
1
1
1
1
1
1
1
1
1
1
1
1
1
1
1
1
1
1
1
1
1
1
0.999997
0.99998
0.999995
0.999999
1
1
1
1
1
1
0.999843
0.988568
0.99933
0.999962
0.999996
1
1
1
1
1
0.66008
0.476176
0.641651
0.861624
0.972559
0.999541
0.999999
1
1
1
0.00723414
1.48718e-07
0.0435351