/*--------------------------------*- C++ -*----------------------------------*\
| =========                 |                                                 |
| \\      /  F ield         | OpenFOAM: The Open Source CFD Toolbox           |
|  \\    /   O peration     | Version:  2312                                  |
|   \\  /    A nd           | Website:  www.openfoam.com                      |
|    \\/     M anipulation  |                                                 |
\*---------------------------------------------------------------------------*/
FoamFile
{
    version     2.0;
    format      ascii;
    arch        "LSB;label=32;scalar=64";
    class       volScalarField;
    location    "1.4";
    object      p_rgh;
}
// * * * * * * * * * * * * * * * * * * * * * * * * * * * * * * * * * * * * * //

dimensions      [1 -1 -2 0 0 0 0];

internalField   nonuniform List<scalar> 
8000
(
389.779
389.851
389.605
389.056
388.271
387.392
386.558
385.955
385.596
385.018
389.67
389.748
389.466
388.851
387.982
386.969
386.015
385.376
384.721
384.376
389.407
389.505
389.177
388.45
387.417
386.225
385.036
383.692
383.093
382.63
388.899
389.054
388.709
387.859
386.614
385.168
383.547
382.341
381.708
380.765
388.056
388.339
388.004
387.021
385.532
383.7
381.956
380.313
379.158
378.736
386.714
387.225
386.942
385.68
383.72
381.387
379.148
377.036
375.403
375.011
386.057
386.646
385.732
383.758
380.996
377.748
373.961
369.515
364.876
364.943
286.705
290.107
288.829
281.673
265.983
241.358
209.045
181.348
164.762
167.16
29.6576
31.3538
27.5203
18.504
8.05117
0.240405
0.19797
0.187381
0.186185
0.188247
0.1425
0.140945
0.135312
0.133237
0.138738
0.164461
0.166441
0.166269
0.166274
0.16636
0.142989
0.140158
0.133657
0.133977
0.134474
0.145752
0.164388
0.212347
0.220993
0.159419
0.150879
0.140171
0.118077
0.117054
0.120148
0.141168
0.196199
0.271016
0.273717
0.172915
0.211469
0.209723
0.117886
0.104126
0.119168
0.125711
0.111963
0.108585
0.150064
0.162121
0.203195
0.202486
0.168857
0.109509
0.110359
0.0962201
0.0982788
0.104559
0.139855
0.162467
0.133958
0.162684
0.174824
0.179098
0.168661
0.124333
0.0999519
0.123488
0.140128
0.153292
0.0724979
0.0744983
0.133651
0.174265
0.172671
0.172976
0.178929
0.193437
0.198929
0.161134
0.0691406
0.0726703
0.0750823
0.0978109
0.110167
0.113752
0.207356
0.275534
0.278178
0.195657
0.0696668
0.0740006
0.0788051
0.0782968
0.0790521
0.0796812
0.0788285
0.252719
0.279517
0.238029
0.0981011
0.0919136
0.0912047
0.0776841
0.0783175
0.0785263
0.0764661
0.0852151
0.228629
0.247692
0.0952453
0.110216
0.111488
0.109834
0.118661
0.123253
0.127444
0.0804804
0.0781271
0.17059
390.33
390.374
390.04
389.39
388.612
387.662
386.825
386.31
385.822
385.275
390.239
390.287
389.943
389.268
388.315
387.141
386.054
385.33
384.862
384.851
390.097
390.127
389.735
388.932
387.803
386.427
384.861
383.782
383.313
383.207
389.721
389.805
389.411
388.474
387.118
385.509
383.76
382.651
381.88
381.043
389.165
389.365
388.88
387.791
386.198
384.288
382.438
380.631
379.392
378.752
388.264
388.464
387.978
386.585
384.533
382.083
379.817
377.461
376.083
375.51
387.83
388.129
387.042
384.876
381.952
378.525
374.947
371.287
367.785
367.866
308.848
312.335
309.515
297.531
278.435
249.258
217.132
191.502
174.674
179.155
27.3445
26.4498
20.5314
12.0769
3.36676
0.243201
0.205163
0.189022
0.184688
0.187439
0.169922
0.151544
0.141819
0.140151
0.148351
0.170694
0.17139
0.173229
0.172492
0.164677
0.145745
0.152104
0.146501
0.169997
0.206129
0.232093
0.25708
0.286
0.286148
0.166563
0.148996
0.15079
0.150949
0.15922
0.236417
0.271436
0.274327
0.277496
0.276112
0.287678
0.0986368
0.0978648
0.0982852
0.097564
0.0945037
0.162919
0.219705
0.220865
0.250256
0.236632
0.0826439
0.0873112
0.0893718
0.0896032
0.0877082
0.0838572
0.0858484
0.0984963
0.11013
0.124497
0.0757479
0.0783336
0.0815545
0.0849218
0.0921473
0.0965645
0.0977187
0.104492
0.114133
0.118411
0.0736787
0.0712268
0.0745765
0.0781235
0.0888751
0.11843
0.15878
0.176862
0.210033
0.189174
0.0730367
0.0673099
0.0715354
0.0768425
0.078061
0.0842389
0.148016
0.271782
0.276977
0.281279
0.0754161
0.0644775
0.0826202
0.0815132
0.0779882
0.0753451
0.0729306
0.0819026
0.20212
0.279916
0.121749
0.114491
0.16656
0.0792789
0.0808349
0.0723643
0.0696291
0.0681479
0.0702999
0.156737
0.143353
0.194448
0.209597
0.134117
0.0689821
0.0685203
0.065801
0.0689697
0.075522
0.0796679
391.254
391.25
390.9
390.275
389.359
388.367
387.532
386.978
386.188
385.699
391.266
391.262
390.869
390.123
389.036
387.767
386.536
385.998
385.281
385.239
391.338
391.297
390.812
389.903
388.597
387.118
385.551
384.85
384.189
384.158
391.347
391.341
390.77
389.667
388.124
386.41
384.629
383.719
382.691
382.15
391.387
391.409
390.7
389.374
387.552
385.437
383.529
381.833
380.508
379.883
391.588
391.575
390.644
388.897
386.567
383.86
381.428
379.124
377.613
377.09
391.922
391.772
390.331
387.964
385.059
381.597
377.915
374.759
372.12
371.902
347.863
350.936
344.791
327.925
305.025
277.953
244.263
218.702
199.469
202.875
44.6866
39.2019
28.1971
18.2957
8.59567
0.275648
0.212166
0.189324
0.180642
0.180631
0.169998
0.154895
0.13993
0.136712
0.137939
0.154726
0.155523
0.153221
0.156309
0.158944
0.128766
0.128412
0.122756
0.133826
0.164811
0.230201
0.23065
0.202755
0.229312
0.174744
0.110128
0.126387
0.11518
0.122554
0.165359
0.258985
0.259989
0.254029
0.266364
0.252485
0.131064
0.166321
0.107362
0.0964929
0.0945031
0.19863
0.250256
0.25838
0.193888
0.200422
0.153168
0.148886
0.0900959
0.0873004
0.0911489
0.0952425
0.182146
0.144404
0.113472
0.119114
0.167385
0.0862063
0.0762198
0.0797077
0.0968417
0.10497
0.108992
0.104566
0.118351
0.122449
0.171802
0.0636762
0.0693987
0.0731173
0.0869588
0.104422
0.136413
0.173216
0.217315
0.241937
0.168367
0.0588717
0.0650636
0.0720119
0.0729815
0.073669
0.107422
0.248195
0.276497
0.282051
0.0985487
0.0554859
0.0623038
0.0700301
0.0694919
0.0683067
0.066763
0.0676061
0.103717
0.279453
0.0422875
0.0584181
0.0903817
0.0674627
0.0650655
0.0641117
0.0610136
0.0609002
0.0678538
0.113633
0.0361602
0.0468982
0.161679
0.143838
0.0614725
0.0603574
0.0561515
0.0545072
0.0672924
0.0757346
392.516
392.441
392.013
391.291
390.36
389.438
388.669
387.855
386.7
386.308
392.668
392.584
392.097
391.254
390.116
388.856
387.678
386.918
386.016
385.743
393.021
392.887
392.279
391.244
389.847
388.297
386.928
386.113
385.012
384.873
393.555
393.402
392.645
391.37
389.693
387.849
386.152
384.898
383.647
383.394
394.341
394.151
393.165
391.552
389.465
387.151
385.074
383.263
381.89
381.373
395.582
395.322
394.061
391.94
389.199
386.15
383.379
380.923
379.307
378.759
397.389
396.819
394.817
391.947
388.51
384.635
380.78
377.446
374.952
374.452
386.794
386.177
379.277
362.737
336.933
304.255
272.056
243.29
221.043
219.894
95.9712
85.5729
59.2795
36.804
21.1322
10.1195
1.18545
0.18883
0.166087
0.167571
0.173733
0.154833
0.132644
0.121667
0.118155
0.114086
0.123949
0.134336
0.139906
0.148567
0.105131
0.106472
0.101497
0.103458
0.108263
0.150199
0.129757
0.111284
0.123289
0.145316
0.112022
0.139677
0.11507
0.0943344
0.0969971
0.151116
0.155089
0.100265
0.104756
0.128624
0.181116
0.187169
0.153177
0.0897302
0.0884392
0.0845875
0.247383
0.153748
0.101838
0.120432
0.180066
0.186896
0.0970142
0.0823985
0.0835681
0.103769
0.223056
0.157595
0.104715
0.112164
0.182195
0.125565
0.0677578
0.0730205
0.0822161
0.091533
0.0809081
0.10951
0.113021
0.117246
0.184422
0.0618849
0.0632175
0.067659
0.0795924
0.0771214
0.0937372
0.168758
0.207267
0.221898
0.187257
0.0574807
0.0591039
0.0633931
0.0739702
0.0684882
0.0823272
0.16606
0.25483
0.276663
0.140346
0.0492296
0.05606
0.0600806
0.0670368
0.0626603
0.0884879
0.0633648
0.0711311
0.115112
0.0396354
0.0470028
0.0528624
0.0567413
0.0579576
0.0570421
0.0643355
0.0561459
0.0662882
0.082918
0.0420796
0.0451593
0.0488367
0.0655852
0.0539296
0.0529452
0.0481337
0.132019
0.139266
0.0781715
393.991
393.824
393.29
392.463
391.446
390.416
389.503
388.536
387.453
387.057
394.314
394.12
393.513
392.56
391.341
390.013
388.809
387.784
386.848
386.501
394.99
394.737
393.982
392.807
391.305
389.643
388.141
386.938
385.956
385.67
396.101
395.775
394.81
393.335
391.496
389.505
387.638
386.015
384.861
384.49
397.745
397.309
396.028
394.11
391.741
389.243
386.845
384.725
383.289
382.714
400.16
399.549
397.859
395.466
392.27
388.784
385.58
382.872
380.933
380.298
403.69
402.612
399.973
396.423
392.464
388.01
383.691
380.157
377.259
376.565
409.128
407.279
400.697
390.836
369.322
331.942
294.133
265.27
241.935
233.611
192.645
168.416
123.184
77.6003
44.5164
24.3658
11.8578
3.96459
0.204907
2.12274
2.14608
0.510865
0.141929
0.127497
0.121371
0.116654
0.121525
0.130842
0.149637
0.152075
0.0645868
0.0761135
0.0847213
0.0933156
0.109836
0.120568
0.109673
0.115666
0.122789
0.127792
0.054445
0.0847588
0.0881109
0.0821197
0.0926974
0.100614
0.101925
0.104095
0.112096
0.112011
0.0681078
0.128994
0.114876
0.0744068
0.0829593
0.0896137
0.139527
0.139224
0.10728
0.10458
0.126497
0.101506
0.0694876
0.0709419
0.0763709
0.0903618
0.155279
0.126497
0.0935546
0.102605
0.165421
0.0644887
0.05983
0.0677646
0.0749199
0.0812002
0.0788348
0.103616
0.108967
0.118766
0.178617
0.0766735
0.0572606
0.062309
0.073283
0.0728714
0.0791043
0.137563
0.19809
0.186085
0.181066
0.0627394
0.0543891
0.0586995
0.0675443
0.0685286
0.108949
0.103754
0.166497
0.113851
0.137262
0.0519263
0.0519584
0.0566744
0.0601092
0.0640643
0.147496
0.0946558
0.0710521
0.0767517
0.111471
0.0621002
0.0491634
0.0626606
0.0548408
0.0540606
0.0772877
0.18491
0.091047
0.0918352
0.118683
0.0564022
0.0515692
0.0523242
0.05051
0.0501508
0.074148
0.19972
0.204906
0.13209
395.53
395.265
394.613
393.658
392.518
391.323
390.182
389.164
388.208
387.784
396.032
395.722
394.982
393.899
392.581
391.157
389.796
388.635
387.764
387.355
397.052
396.664
395.753
394.42
392.796
391.024
389.332
387.929
387.01
386.519
398.733
398.23
397.056
395.355
393.309
391.128
389.048
387.199
386.044
385.573
401.249
400.568
398.997
396.747
394.065
391.279
388.574
386.176
384.542
383.883
404.859
403.902
401.781
398.839
395.279
391.404
387.762
384.722
382.348
381.589
410.093
408.69
405.563
401.256
396.523
391.381
386.586
382.74
379.272
378.172
417.859
415.793
411.278
405.914
392.2
355.62
314.572
281.259
252.983
239.21
303.9
274.151
217.28
147.091
82.2678
41.6712
20.1145
9.00166
4.05918
6.14479
28.4364
14.8703
3.76495
0.133242
0.130578
0.121858
0.120967
0.131896
0.153612
0.158408
0.0251057
0.0265793
0.0454223
0.0716164
0.0958616
0.107817
0.108454
0.121166
0.136617
0.133092
0.00611224
0.0227714
0.0496621
0.0705863
0.0881099
0.103901
0.10055
0.141188
0.198856
0.117584
0.0263502
0.0363534
0.0555182
0.0641383
0.0760672
0.0861961
0.14551
0.163829
0.127392
0.0994358
0.03115
0.0405259
0.0509278
0.0612024
0.0699421
0.0787273
0.156392
0.112224
0.0867603
0.115425
0.0325245
0.0421574
0.0516162
0.0592008
0.0682925
0.0793892
0.0794394
0.0866356
0.146987
0.15274
0.0512269
0.0485177
0.050994
0.0573987
0.0647798
0.0894959
0.0786425
0.0945031
0.162727
0.102351
0.0947071
0.0437812
0.0506502
0.0564116
0.0609979
0.0764489
0.16381
0.176003
0.0811045
0.0829827
0.122471
0.0447622
0.0501488
0.071079
0.0633215
0.066025
0.184619
0.194006
0.136344
0.145676
0.185476
0.0897505
0.0659356
0.14612
0.0857354
0.0554
0.0905881
0.195833
0.19704
0.199437
0.196845
0.162713
0.150338
0.156583
0.0861459
0.0511009
0.0766208
0.199455
0.138006
0.19834
396.977
396.618
395.856
394.778
393.505
392.172
390.892
389.797
388.858
388.419
397.653
397.233
396.368
395.15
393.709
392.189
390.734
389.502
388.56
388.078
399.006
398.483
397.419
395.927
394.157
392.286
390.499
389.001
387.968
387.415
401.218
400.542
399.168
397.244
394.971
392.584
390.316
388.393
387.09
386.437
404.511
403.588
401.763
399.203
396.173
393.022
390.033
387.448
385.552
384.799
409.208
407.877
405.396
401.995
397.962
393.643
389.548
386.119
383.319
382.526
416.137
414.169
410.685
405.866
400.19
394.332
388.991
384.835
380.626
379.222
425.748
422.973
418.145
411.812
404.48
373.57
329.545
290.682
256.241
238.564
393.439
366.008
310.659
224.796
130.523
60.7011
23.5209
7.16957
0.396569
2.53344
100.112
60.7985
25.2043
4.90892
0.144088
0.130034
0.120341
0.12935
0.15978
0.161922
0.0611424
0.045849
0.0306233
0.0395736
0.0823768
0.102279
0.102938
0.170741
0.205335
0.214275
-0.005045
0.00846724
0.0264453
0.0496307
0.0783344
0.093471
0.0955261
0.194879
0.196307
0.198522
0.0114206
0.0231518
0.0378054
0.0533969
0.0701618
0.084071
0.152525
0.149316
0.121403
0.168357
0.0183156
0.0302402
0.0415799
0.052997
0.0644026
0.0759517
0.147019
0.0844117
0.087418
0.0809046
0.0202749
0.0330551
0.0452601
0.0531205
0.0619505
0.080394
0.0778226
0.0864593
0.132159
0.086841
0.0205807
0.0332472
0.0509896
0.0549335
0.0605618
0.0888155
0.128655
0.167317
0.110237
0.0782097
0.0259839
0.036243
0.0532301
0.0679433
0.0623935
0.0816264
0.179987
0.184605
0.147413
0.0727843
0.098974
0.0507722
0.0900744
0.163896
0.122564
0.0676199
0.0960663
0.188628
0.185886
0.13512
0.181422
0.135569
0.189793
0.205933
0.199373
0.0680689
0.0591273
0.145712
0.113144
0.191099
0.197992
0.201418
0.205859
0.2105
0.202499
0.0676555
0.0493449
0.0642831
0.0489747
0.093123
398.19
397.757
396.902
395.719
394.333
392.884
391.508
390.324
389.382
388.913
399.027
398.512
397.537
396.201
394.638
393.007
391.465
390.146
389.115
388.622
400.674
400.02
398.824
397.195
395.282
393.282
391.394
389.806
388.647
388.071
403.336
402.496
400.959
398.848
396.363
393.774
391.338
389.298
387.868
387.118
407.237
406.085
404.056
401.283
397.957
394.482
391.192
388.376
386.207
385.459
412.757
411.108
408.357
404.634
400.203
395.452
390.87
387.029
383.935
383.158
420.844
418.563
414.838
409.601
403.3
396.726
390.462
385.713
381.769
379.648
432.07
428.891
423.751
416.698
408.084
386.279
338.914
292.924
249.064
228.719
446.555
424.509
374.976
286.177
173.967
77.8202
27.1948
5.59127
0.295322
0.324322
218.573
140.568
66.4879
18.9082
1.19067
0.14622
0.131892
0.13666
0.197872
0.188341
2.36168
0.0548013
0.0502535
0.0199931
0.0623871
0.0986447
0.0979921
0.164413
0.226904
0.240057
-0.0364313
-0.000769069
0.0154431
0.0295246
0.0671457
0.0867073
0.0925973
0.171011
0.203988
0.180499
-0.00795284
0.0125566
0.0285347
0.0440935
0.0642242
0.0813807
0.121524
0.104238
0.134965
0.0918949
0.00740289
0.0227944
0.0346715
0.0481796
0.0588937
0.0748759
0.100885
0.0846238
0.0772448
0.0823711
0.0181562
0.0259279
0.0447131
0.060199
0.0571852
0.0759723
0.1262
0.140776
0.0904698
0.0778338
0.059382
0.0325077
0.0530174
0.0864812
0.0584745
0.0771752
0.169237
0.176287
0.105387
0.0725532
0.0816059
0.0694874
0.102281
0.152681
0.116144
0.0692645
0.0834538
0.176158
0.111153
0.0657321
0.0893787
0.150741
0.179982
0.182181
0.184958
0.0798682
0.0550102
0.067879
0.0880276
0.0588088
0.0661054
0.187579
0.187674
0.184565
0.181751
0.114133
0.0477771
0.050909
0.0509456
0.0526871
0.074057
0.196367
0.198268
0.161097
0.179415
0.09139
0.0419752
0.0466853
0.0478444
0.0485526
399.088
398.574
397.643
396.383
394.91
393.369
391.911
390.66
389.718
389.223
400.031
399.432
398.37
396.945
395.283
393.554
391.926
390.53
389.481
388.962
401.888
401.128
399.825
398.09
396.062
393.953
391.967
390.3
389.106
388.484
404.898
403.916
402.243
399.984
397.333
394.595
392.036
389.857
388.277
387.52
409.253
407.911
405.701
402.738
399.171
395.452
392.002
389.034
386.665
385.858
415.329
413.431
410.477
406.561
401.798
396.719
391.822
387.756
384.449
383.541
424.185
421.648
417.658
412.212
405.449
398.461
391.612
386.358
382.564
379.986
436.434
432.945
427.474
420.136
410.705
396.76
348.061
296.246
246.977
222.925
454.256
450.114
412.724
325.762
203.91
91.3983
30.7113
5.31636
0.330341
0.300844
342.561
228.004
112.068
36.0776
4.45665
0.158734
0.149563
0.150234
0.231863
0.211185
28.0453
2.46297
0.0705466
0.0281568
0.0402906
0.0920759
0.100074
0.139526
0.236886
0.213679
-0.0833736
-0.0335227
0.0113648
0.0216956
0.0556155
0.0814207
0.0931851
0.110408
0.207651
0.139246
-0.041491
-0.00515601
0.0200726
0.0364077
0.0595638
0.0755379
0.0853326
0.0950073
0.114546
0.0988866
-0.00212472
0.0156701
0.0326205
0.059702
0.0565382
0.0763425
0.101903
0.109584
0.0806449
0.0853435
0.0937627
0.0454299
0.0397276
0.0823656
0.0616336
0.0705807
0.135934
0.142893
0.0745757
0.0771607
0.149909
0.128007
0.0537914
0.111004
0.075718
0.0641334
0.0844918
0.137171
0.0739077
0.0697965
0.161637
0.163674
0.128055
0.156863
0.147446
0.0596778
0.0555223
0.0592623
0.0702763
0.062635
0.0841254
0.10683
0.1521
0.150361
0.157108
0.108478
0.0473366
0.0514799
0.0633458
0.0556813
0.0197369
0.0356008
0.0689774
0.0843973
0.147027
0.12842
0.0398063
0.0464852
0.0534137
0.0498333
0.0218512
0.0393535
0.0784682
0.0200935
0.0253998
0.0594226
0.0365545
0.0434588
0.0480797
0.0460601
399.446
398.953
397.98
396.676
395.151
393.555
392.049
390.759
389.81
389.297
400.291
399.884
398.775
397.29
395.562
393.769
392.094
390.656
389.586
389.059
402.144
401.705
400.328
398.518
396.416
394.243
392.205
390.482
389.257
388.623
405.222
404.69
402.92
400.575
397.837
395.03
392.388
390.111
388.412
387.686
409.773
408.964
406.635
403.552
399.899
395.978
392.353
389.366
386.906
386.125
416.432
414.815
411.728
407.69
402.781
397.469
392.388
388.145
384.819
383.96
425.96
423.322
419.223
413.803
406.744
399.91
392.715
387.066
383.306
381.01
438.611
435.002
429.626
422.232
412.614
402.887
361.863
309.648
258.007
230.606
456.38
452.195
433.517
349.13
227.108
109.777
37.2498
6.75672
0.32933
0.322318
407.692
289.403
145.617
50.7748
8.34217
0.186472
0.162995
0.150147
0.199882
0.206761
60.7057
12.1287
0.0937777
0.0453347
0.0245711
0.0807437
0.0999042
0.125377
0.231162
0.18579
-0.0709419
-0.0611037
-0.00152255
0.0184852
0.0456044
0.0773468
0.092832
0.102911
0.183635
0.129436
-0.0435479
-0.0222317
0.0123774
0.0426933
0.0617305
0.0711965
0.0825045
0.0937275
0.0949882
0.100317
0.0053086
0.0131033
0.0235441
0.113574
0.0876225
0.0674535
0.0891283
0.10908
0.0822941
0.0854738
0.132434
0.119212
0.0382115
0.117178
0.0831484
0.0628746
0.0968553
0.125885
0.0745089
0.0766659
0.147999
0.157292
0.0910847
0.0641669
0.0763683
0.0577208
0.0642336
0.0959484
0.091587
0.101339
0.0269651
0.0270735
0.15094
0.135631
0.125439
0.0834507
0.0569288
0.118841
0.206441
0.138203
-0.0128618
-0.0152142
0.00828856
0.102298
0.140594
0.123782
0.047037
0.124229
0.278685
0.132573
-0.0110417
-0.00741658
-0.00123698
-0.00233618
0.0465729
0.0716036
0.0393906
0.134486
0.226879
0.0862845
-0.00322816
0.00782116
0.0154599
0.013541
0.0134021
0.0318251
0.0496632
0.173748
0.115019
0.0494586
399.382
398.873
397.897
396.574
395.031
393.422
391.889
390.58
389.623
389.105
400.239
399.84
398.701
397.196
395.451
393.653
391.952
390.493
389.42
388.89
402.029
401.663
400.268
398.439
396.321
394.141
392.09
390.347
389.114
388.469
405.02
404.603
402.864
400.533
397.81
394.981
392.32
390.058
388.304
387.582
409.471
408.908
406.635
403.611
400.061
396.135
392.462
389.461
386.974
386.183
416.132
414.871
411.833
407.872
403.194
397.94
392.766
388.592
385.129
384.273
425.981
423.399
419.322
413.956
407.518
400.496
393.403
387.943
384.17
381.955
438.419
435.034
429.648
422.503
413.696
404.093
370.742
321.614
274.677
246.649
455.875
452.045
439.54
360.78
245.354
128.812
48.0823
12.5038
0.40224
1.11552
421.678
306.076
157.754
59.0894
11.6558
0.202287
0.16118
0.135811
0.170767
0.180321
67.0612
15.8397
0.224623
0.0574986
0.0189587
0.0663479
0.0941803
0.11144
0.153974
0.161736
-0.0686405
-0.0716171
-0.0114805
0.0185307
0.0371538
0.0766451
0.0912134
0.100545
0.121832
0.118719
-0.0446065
-0.0279125
0.0154679
0.0911139
0.102296
0.0789097
0.0841257
0.0944225
0.0938845
0.0986183
0.0076758
0.0106318
0.0227105
0.107451
0.126586
0.0751908
0.0822292
0.109144
0.081749
0.0853027
0.136658
0.132714
0.0518457
0.0856539
0.126913
0.0796898
0.0872318
0.156012
0.138018
0.0808397
0.150451
0.153299
0.14171
0.061572
0.0430723
0.0573202
0.104446
0.271128
0.285693
0.152366
0.0125761
0.0562076
0.156413
0.160034
0.0786966
0.0501781
0.121144
0.287438
0.28797
0.256548
-0.0386178
-0.0293116
0.0327652
0.0474408
0.0968641
0.0494816
0.124601
0.291986
0.291172
0.278782
-0.0474897
-0.0318558
-0.013119
0.00445399
0.0159605
0.0504207
0.176292
0.30087
0.297969
0.173611
-0.0344939
-0.0142306
0.00155411
0.0148542
0.0278621
0.0518912
0.21658
0.313192
0.141734
0.0810071
398.864
398.321
397.346
396.036
394.51
392.917
391.4
390.096
389.134
388.619
399.834
399.209
398.103
396.628
394.917
393.143
391.46
390.009
388.955
388.397
401.731
400.952
399.608
397.829
395.771
393.631
391.605
389.881
388.638
387.997
404.803
403.791
402.079
399.824
397.188
394.444
391.862
389.612
387.931
387.187
409.263
407.874
405.667
402.779
399.352
395.632
392.159
389.245
386.769
385.941
415.504
413.587
410.657
406.878
402.357
397.475
392.793
388.863
385.272
384.298
424.287
421.871
417.92
412.759
406.575
399.993
393.595
388.444
384.579
382.41
435.877
432.819
427.659
421.002
413.097
404.453
372.615
328.759
286.642
260.453
452.967
449.768
433.876
358.01
248.345
136.439
58.4378
21.5214
6.34274
7.96268
382.118
271.561
141.952
54.5641
11.8494
0.207092
0.151854
0.129875
0.128074
0.134263
36.7243
6.68066
0.0520412
0.0413343
0.0138226
0.0544605
0.087926
0.102624
0.123023
0.159905
-0.0668174
-0.0534318
-0.00533236
0.0288056
0.0346117
0.0763753
0.0976206
0.0950033
0.102733
0.11078
-0.040778
-0.0233032
0.0368607
0.0955848
0.112498
0.102454
0.102982
0.0879772
0.0896457
0.0935657
6.61264e-05
0.00093456
0.0241588
0.105498
0.124762
0.071286
0.0812678
0.117232
0.0883251
0.0833176
0.132044
0.117078
0.0903155
0.0482964
0.0964607
0.0687557
0.106616
0.265469
0.227551
0.0893722
0.151488
0.161064
0.168037
0.0961497
0.0435164
0.0555479
0.240522
0.279406
0.280425
0.147261
0.129977
0.155259
0.164701
0.170778
0.0489392
0.0534003
0.281789
0.285454
0.285035
0.20074
0.0308126
0.11257
0.15562
0.0569989
0.0364729
0.0953241
0.287006
0.289867
0.289394
0.289237
-0.00798592
0.0558677
0.0409177
0.0193445
0.0341478
0.11586
0.294849
0.296218
0.284985
0.209551
0.0141016
0.00669435
0.00162457
0.0194659
0.0387406
0.0801163
0.277723
0.307255
0.0788897
0.0747088
397.81
397.311
396.377
395.107
393.627
392.08
390.599
389.314
388.343
387.839
398.678
398.106
397.053
395.628
393.975
392.255
390.618
389.205
388.141
387.595
400.382
399.679
398.403
396.691
394.705
392.632
390.657
388.967
387.745
387.112
403.161
402.28
400.67
398.492
395.954
393.308
390.797
388.646
387.08
386.3
407.226
406.011
403.947
401.153
397.86
394.398
391.105
388.271
386.051
385.148
412.947
411.268
408.505
404.868
400.541
396.023
391.673
387.947
384.787
383.774
420.894
418.852
415.102
410.322
404.328
398.202
392.536
387.865
383.853
382.157
431.095
428.462
423.957
417.923
410.86
403.136
368.262
330.301
293.179
270.79
448.58
445.572
407.417
330.797
226.061
124.05
58.9041
26.7627
12.8744
15.7952
277.677
183.509
95.0135
33.3277
6.48517
0.116612
0.132903
0.113633
0.11098
0.115224
4.265
0.0221376
0.0300614
0.0236241
0.0165074
0.0511597
0.0852112
0.0941599
0.106916
0.161368
-0.0461673
-0.0289986
0.00177549
0.0225519
0.0367063
0.106368
0.127692
0.0899721
0.0957964
0.148736
-0.0170735
-0.00728964
0.0595511
0.0996203
0.0692067
0.0838964
0.127847
0.0849302
0.0859739
0.0883918
0.0106849
-6.99796e-05
0.0228648
0.087968
0.0880253
0.0881153
0.137046
0.10495
0.0772442
0.0781757
0.142935
0.105214
0.0989214
0.0438539
0.0556313
0.132177
0.261154
0.223041
0.0883162
0.0704911
0.16311
0.157772
0.167106
0.140562
0.0501623
0.0664715
0.270272
0.273111
0.108258
0.0688875
0.0566148
0.110112
0.175046
0.190629
0.0706707
0.0488114
0.26083
0.279326
0.222815
0.0823554
0.0379982
0.113426
0.183355
0.142179
0.056699
0.0526543
0.144273
0.287906
0.289233
0.151851
0.101968
0.117573
0.0856078
0.0322152
0.0462258
0.0644387
0.135778
0.293158
0.293813
0.178755
0.0491235
0.0294111
0.00621715
0.0280725
0.0502486
0.061403
0.0473391
0.301857
0.26883
0.0720548
396.408
395.957
395.081
393.87
392.455
390.968
389.531
388.272
387.277
386.791
397.125
396.616
395.634
394.281
392.7
391.05
389.466
388.075
386.991
386.481
398.55
397.941
396.759
395.131
393.22
391.203
389.26
387.597
386.442
385.86
400.911
400.155
398.664
396.59
394.163
391.616
389.164
387.073
385.647
384.899
404.411
403.395
401.471
398.801
395.658
392.387
389.234
386.559
384.625
383.691
409.323
407.949
405.427
401.951
397.836
393.644
389.435
385.996
383.379
382.234
416.284
414.379
411.099
406.451
400.621
394.735
389.726
385.372
381.717
380.435
425.03
422.958
418.926
413.424
406.584
388.279
351.295
314.283
281.645
267.683
424.569
403.775
351.758
265.955
170.356
89.242
42.6901
20.874
12.0685
15.887
146.164
92.5707
42.0043
11.5525
0.0834864
0.0998556
0.113074
0.105786
0.108214
0.11393
0.0281969
0.0198596
0.0211884
0.0201502
0.0385671
0.0749669
0.101004
0.0928932
0.124525
0.154697
-0.0189715
-0.00801071
0.00622757
0.0240582
0.0516141
0.110792
0.127568
0.131048
0.123886
0.154357
0.0161005
0.0805125
0.0789635
0.0498887
0.0545095
0.0935918
0.0959467
0.109851
0.085448
0.10917
0.0132122
0.0137055
0.0913979
0.128947
0.0902643
0.207306
0.151039
0.0698259
0.0732391
0.0766324
0.0418393
0.00449849
0.0267379
0.120787
0.135776
0.210479
0.208364
0.075651
0.0633978
0.0680376
0.0288083
0.0487138
0.162921
0.110442
0.0552284
0.157208
0.172818
0.0559549
0.0585299
0.0618154
0.0579447
0.0401402
0.161507
0.193701
0.0852978
0.0482705
0.118423
0.0519202
0.0562643
0.0578193
0.0763141
0.0105178
0.0845565
0.173408
0.0816265
0.061012
0.0465867
0.0759678
0.0754349
0.0548173
0.0483693
0.00622788
0.0275657
0.0416411
0.0551375
0.0659247
0.050895
0.299905
0.273429
0.0672978
0.0128959
-0.00293606
0.00222049
0.148114
0.181114
0.0644072
0.0481261
0.292237
0.289511
0.0710965
394.754
394.366
393.56
392.423
391.083
389.68
388.314
387.032
386.021
385.541
395.298
394.865
393.966
392.693
391.194
389.62
388.067
386.624
385.578
385.099
396.395
395.891
394.808
393.263
391.402
389.397
387.442
385.794
384.719
384.194
398.227
397.621
396.254
394.295
391.956
389.467
387.041
384.952
383.619
382.966
400.998
400.231
398.462
395.904
392.896
389.731
386.677
384.113
382.357
381.45
405.058
404.012
401.659
398.257
394.289
390.027
386.094
382.933
380.665
379.516
410.774
409.452
406.22
401.395
395.606
390.28
385.19
381.045
377.942
376.813
418.528
416.879
412.982
407.52
395.053
357.846
313.506
275.295
247.646
244.28
357.527
331.9
269.826
184.484
98.856
44.96
19.0728
7.01976
2.85799
4.44717
54.0753
31.4786
10.3942
0.108883
0.104536
0.111847
0.113652
0.127417
0.137575
0.144242
0.0319152
0.0176002
0.0234045
0.0440603
0.0612065
0.0815001
0.122499
0.130374
0.153055
0.135895
0.00587988
0.0152725
0.0258879
0.0502609
0.0710327
0.0966024
0.13467
0.145361
0.148778
0.150583
0.0792701
0.099769
0.114862
0.0618489
0.076019
0.147272
0.0795697
0.115159
0.0921964
0.103607
0.0176244
0.068891
0.155564
0.182749
0.188067
0.212541
0.111839
0.0721429
0.0780221
0.1052
-0.00757545
-0.003843
0.00961746
0.182401
0.202451
0.212675
0.113601
0.0641637
0.0764583
0.202326
-8.91299e-05
-0.00140985
0.0414792
0.171713
0.0903804
0.0694761
0.0621874
0.0607758
0.0761113
0.127658
0.00732781
0.00295985
0.0705405
0.169823
0.0984532
0.0521356
0.0546729
0.0574009
0.0666818
0.060043
0.0145633
0.0100854
0.0285453
0.081088
0.0959013
0.066135
0.0520272
0.054662
0.12045
0.0544919
0.088734
0.00308271
0.0452679
0.153175
0.1154
0.0575264
0.0529892
0.172845
0.257078
0.0480757
0.146037
0.024994
0.0324198
0.219183
0.246639
0.0890736
0.0470547
0.227292
0.291216
0.0426714
392.998
392.679
391.948
390.882
389.612
388.319
387.049
385.729
384.69
384.186
393.362
393.012
392.197
390.997
389.553
388.016
386.457
384.962
383.988
383.554
394.118
393.71
392.723
391.243
389.379
387.392
385.46
383.609
382.484
382.459
395.386
394.902
393.662
391.809
389.517
387.07
384.747
382.616
380.988
380.602
397.32
396.743
395.129
392.709
389.772
386.683
383.766
381.281
379.52
378.583
400.225
399.488
397.333
394.08
390.118
385.955
382.159
379.177
376.942
375.78
404.64
403.63
400.514
395.829
390.414
384.845
379.642
375.252
371.403
370.493
411.285
409.935
406.163
394.537
360.453
311.123
263.093
222.372
196.481
197.464
259.097
233.152
174.335
100.879
43.9242
13.7998
0.266904
0.223232
0.207257
0.196962
7.40813
0.984046
0.107182
0.121986
0.126783
0.132748
0.156166
0.162095
0.163722
0.166661
0.0223507
0.0315643
0.0443065
0.0657096
0.0838766
0.0991883
0.134319
0.172502
0.164156
0.140626
0.0311736
0.0451056
0.0571009
0.0738484
0.0878526
0.0988132
0.131206
0.159915
0.133132
0.127229
0.109341
0.117963
0.130687
0.111914
0.149343
0.144941
0.0903991
0.10115
0.105668
0.143118
0.0302875
0.0790886
0.164516
0.191695
0.205724
0.220175
0.0957477
0.0915453
0.257096
0.307216
0.00816142
0.0121352
0.0211119
0.13262
0.177744
0.0934637
0.071334
0.0692482
0.228783
0.297598
0.0127909
0.0123486
0.0390231
0.098136
0.0717307
0.0565864
0.0639303
0.0636304
0.0876082
0.0757577
0.0170679
0.014656
0.0657089
0.145303
0.0897125
0.0561411
0.0620589
0.0632425
0.170822
0.0637346
0.0198501
0.0172175
0.0477279
0.0677271
0.0568223
0.0562286
0.0657536
0.141821
0.219838
0.120335
0.17841
0.0441066
0.166828
0.232722
0.146058
0.0553604
0.0546077
0.177297
0.221589
0.232204
0.199114
0.187906
0.117082
0.175997
0.248922
0.100675
0.0469073
0.104021
0.220566
0.234717
391.31
391.055
390.39
389.376
388.118
386.834
385.644
384.477
383.513
382.918
391.502
391.228
390.484
389.323
387.863
386.29
384.784
383.372
382.31
382.278
391.911
391.591
390.692
389.24
387.352
385.399
383.657
381.816
380.243
380.175
392.615
392.245
391.124
389.343
387.034
384.633
382.461
380.516
378.259
377.083
393.692
393.277
391.843
389.553
386.665
383.61
380.86
378.333
376.381
375.168
395.351
394.877
393.021
389.975
386.087
381.958
378.16
374.809
372.632
371.549
398.209
397.309
394.8
390.513
385.149
379.422
373.453
366.634
359.94
359.785
397.928
394.947
384.238
359.707
314.443
261.254
209.222
172.009
147.445
146.924
137.833
125.144
88.6857
43.437
13.316
0.259489
0.224601
0.211901
0.205787
0.196417
0.114996
0.112414
0.120978
0.132413
0.139817
0.164489
0.173414
0.177492
0.177445
0.174964
0.046911
0.0571738
0.072516
0.089352
0.109741
0.130421
0.142839
0.160682
0.150633
0.157318
0.0561794
0.0628721
0.073031
0.0955536
0.169278
0.118304
0.121001
0.143505
0.133955
0.14108
0.0673491
0.0921802
0.0758413
0.133646
0.19708
0.200759
0.102607
0.109866
0.238768
0.313586
0.0385834