/*--------------------------------*- C++ -*----------------------------------*\
| =========                 |                                                 |
| \\      /  F ield         | OpenFOAM: The Open Source CFD Toolbox           |
|  \\    /   O peration     | Version:  2312                                  |
|   \\  /    A nd           | Website:  www.openfoam.com                      |
|    \\/     M anipulation  |                                                 |
\*---------------------------------------------------------------------------*/
FoamFile
{
    version     2.0;
    format      ascii;
    arch        "LSB;label=32;scalar=64";
    class       volScalarField;
    location    "0.15";
    object      p_rgh;
}
// * * * * * * * * * * * * * * * * * * * * * * * * * * * * * * * * * * * * * //

dimensions      [1 -1 -2 0 0 0 0];

internalField   nonuniform List<scalar> 
8000
(
499.986
501.349
504.025
507.888
512.731
518.234
523.937
529.227
533.379
535.689
496.957
498.286
500.89
504.645
509.345
514.679
520.205
525.336
529.373
531.626
490.631
491.885
494.336
497.863
502.266
507.252
512.416
517.218
521.011
523.144
481.354
482.506
484.754
487.976
491.98
496.497
501.161
505.5
508.941
510.893
469.414
470.452
472.47
475.351
478.911
482.903
487.005
490.812
493.837
495.567
454.963
455.872
457.637
460.15
463.242
466.691
470.218
473.488
476.09
477.586
439.29
440.094
441.646
443.848
446.555
449.567
452.642
455.5
457.778
459.076
418.323
418.985
420.275
422.132
424.471
427.116
429.846
432.456
434.571
435.736
119.747
122.507
127.791
135.431
145.098
156.005
166.925
177.265
185.981
190.755
-0.0774022
-0.0750128
-0.0685691
-0.0542644
0.0174033
0.0978621
0.143372
0.405875
0.882117
1.20587
-0.189304
-0.196368
-0.207096
-0.224294
-0.239824
-0.254367
-0.268183
-0.249422
-0.203358
-0.154096
-0.230612
-0.238542
-0.252088
-0.270358
-0.290751
-0.316432
-0.351992
-0.380855
-0.391611
-0.382604
-0.254867
-0.261417
-0.2724
-0.286981
-0.30292
-0.319319
-0.339292
-0.363681
-0.387706
-0.40166
-0.266515
-0.271273
-0.279354
-0.29
-0.301812
-0.313241
-0.323363
-0.33146
-0.339204
-0.346304
-0.26967
-0.273083
-0.27907
-0.286984
-0.295848
-0.30473
-0.312714
-0.318432
-0.321825
-0.324057
-0.267209
-0.269706
-0.274254
-0.280352
-0.287323
-0.294541
-0.301492
-0.307566
-0.312301
-0.315628
-0.260666
-0.262551
-0.266086
-0.270892
-0.276501
-0.282434
-0.288254
-0.293517
-0.29796
-0.301282
-0.251077
-0.252536
-0.255316
-0.25915
-0.263702
-0.268594
-0.273456
-0.277871
-0.281595
-0.284373
-0.239167
-0.240296
-0.242483
-0.245549
-0.249246
-0.253279
-0.257345
-0.261089
-0.26427
-0.266613
-0.225457
-0.22631
-0.227999
-0.230403
-0.233335
-0.236567
-0.239863
-0.242929
-0.245557
-0.247482
501.345
502.796
505.649
509.785
515.001
520.978
527.241
533.13
537.819
540.458
498.282
499.692
502.46
506.465
511.502
517.262
523.292
528.966
533.497
536.06
491.881
493.203
495.794
499.529
504.207
509.537
515.106
520.353
524.568
526.98
482.503
483.711
486.069
489.449
493.653
498.406
503.339
507.977
511.716
513.884
470.45
471.534
473.641
476.64
480.335
484.465
488.706
492.661
495.847
497.713
455.872
456.823
458.669
461.283
464.477
468.01
471.6
474.921
477.586
479.154
440.097
440.957
442.617
444.964
447.83
451.002
454.242
457.274
459.727
461.152
418.992
419.727
421.168
423.251
425.859
428.829
432.055
435.295
438.007
439.554
122.545
125.652
131.673
140.487
151.556
164.045
178.382
195.03
210.946
220.202
-0.0736121
-0.0886521
-0.087339
-0.0960352
-0.167949
-0.308729
-0.243171
0.521011
2.12923
3.71183
-0.195645
-0.21
-0.229668
-0.26211
-0.310904
-0.367274
-0.400406
-0.406537
-0.357039
-0.292987
-0.237817
-0.248973
-0.266399
-0.291324
-0.323459
-0.366651
-0.423547
-0.481144
-0.494019
-0.484583
-0.260642
-0.268381
-0.281035
-0.298113
-0.318764
-0.343634
-0.375211
-0.414632
-0.451057
-0.470219
-0.270526
-0.275677
-0.284385
-0.295798
-0.308644
-0.321674
-0.334311
-0.347652
-0.362863
-0.375846
-0.272397
-0.275899
-0.282085
-0.290175
-0.299181
-0.308125
-0.316214
-0.322854
-0.328201
-0.332727
-0.269098
-0.271608
-0.276243
-0.282428
-0.289486
-0.296775
-0.303816
-0.310005
-0.314952
-0.318628
-0.262025
-0.263918
-0.267523
-0.272431
-0.278155
-0.2842
-0.290161
-0.295565
-0.300137
-0.303594
-0.252091
-0.253563
-0.256425
-0.260386
-0.265094
-0.270158
-0.275222
-0.279841
-0.283763
-0.286713
-0.239924
-0.24108
-0.243364
-0.246579
-0.25047
-0.254735
-0.259082
-0.26311
-0.266553
-0.269098
-0.226
-0.22689
-0.228677
-0.231229
-0.23436
-0.23784
-0.241441
-0.24482
-0.247733
-0.249866
504.013
505.641
508.858
513.556
519.548
526.522
533.985
541.186
547.086
550.483
500.878
502.452
505.553
510.067
515.799
522.446
529.541
536.39
542.024
545.299
494.324
495.786
498.654
502.805
508.039
514.064
520.467
526.653
531.787
534.828
484.744
486.062
488.633
492.315
496.893
502.079
507.507
512.703
517.019
519.621
472.464
473.636
475.905
479.111
483.02
487.336
491.725
495.821
499.161
501.204
457.637
458.668
460.655
463.432
466.757
470.333
473.847
477.001
479.464
480.979
441.655
442.622
444.48
447.077
450.198
453.584
456.946
459.987
462.33
463.714
420.296
421.182
422.928
425.447
428.628
432.448
436.706
440.88
444.208
445.981
127.907
131.751
139.343
150.472
164.629
183.259
208.816
239.594
269.685
290.105
-0.067088
-0.0875432
-0.076821
-0.163943
-0.364937
-0.24893
1.44455
7.27128
24.1785
47.3914
-0.205687
-0.228536
-0.253318
-0.298327
-0.342482
-0.35869
-0.3651
-0.348566
-0.31561
-0.273188
-0.249995
-0.264914
-0.286241
-0.315424
-0.348632
-0.385343
-0.418674
-0.443239
-0.460142
-0.462739
-0.270084
-0.279463
-0.294197
-0.314093
-0.338112
-0.364241
-0.389619
-0.415467
-0.442383
-0.464181
-0.277103
-0.282864
-0.292659
-0.30528
-0.319376
-0.333665
-0.347767
-0.36264
-0.378952
-0.393327
-0.276998
-0.280688
-0.287468
-0.296242
-0.306023
-0.315971
-0.325715
-0.334746
-0.342745
-0.349091
-0.272415
-0.275007
-0.280044
-0.286767
-0.294507
-0.302632
-0.310674
-0.317873
-0.323794
-0.32817
-0.264501
-0.266461
-0.270384
-0.275743
-0.282028
-0.288723
-0.295426
-0.301514
-0.306646
-0.310426
-0.253978
-0.25553
-0.258675
-0.26305
-0.268283
-0.273969
-0.27977
-0.285135
-0.289725
-0.293067
-0.241366
-0.24262
-0.245168
-0.248781
-0.253202
-0.258122
-0.263273
-0.268135
-0.272354
-0.275389
-0.227068
-0.228057
-0.230076
-0.232986
-0.236613
-0.240729
-0.245128
-0.249348
-0.253043
-0.255694
507.865
509.766
513.545
519.121
526.344
534.938
544.408
553.891
561.986
566.817
504.622
506.445
510.054
515.353
522.172
530.234
539.08
547.943
555.575
560.223
497.839
499.508
502.791
507.565
513.635
520.724
528.437
536.165
542.911
547.153
487.954
489.429
492.301
496.399
501.473
507.209
513.247
519.16
524.331
527.801
475.336
476.625
479.099
482.538
486.623
490.969
495.203
499.025
502.267
504.835
460.146
461.278
463.426
466.342
469.658
472.924
475.72
477.783
479.356
481.115
443.863
444.975
447.082
449.961
453.282
456.591
459.393
461.327
462.709
464.295
422.172
423.285
425.468
428.649
432.871
437.854
442.764
446.583
448.647
450.113
135.666
140.687
150.604
165.369
187.377
221.006
265.599
315.801
368.553
404.726
-0.0564029
-0.0954801
-0.158131
-0.370402
-0.0905714
2.98557
15.5661
53.7137
118.101
182.971
-0.221225
-0.258809
-0.294711
-0.33402
-0.330733
-0.307567
-0.277618
-0.293617
-0.369359
-0.241851
-0.265765
-0.28712
-0.312425
-0.341302
-0.367364
-0.382008
-0.413025
-0.467714
-0.489818
-0.52628
-0.282169
-0.293947
-0.311344
-0.333194
-0.355966
-0.375441
-0.398244
-0.428276
-0.457439
-0.487896
-0.285391
-0.291878
-0.302804
-0.315941
-0.329851
-0.344068
-0.359895
-0.37724
-0.394766
-0.410271
-0.282779
-0.28662
-0.294046
-0.303323
-0.313576
-0.324417
-0.335816
-0.34671
-0.355969
-0.363125
-0.27665
-0.279311
-0.284864
-0.2922
-0.300627
-0.3095
-0.318366
-0.326286
-0.332668
-0.337466
-0.267723
-0.269773
-0.274134
-0.280072
-0.287036
-0.294459
-0.301959
-0.308776
-0.314479
-0.318781
-0.25649
-0.258164
-0.261716
-0.266677
-0.272662
-0.279234
-0.28612
-0.292634
-0.298315
-0.302631
-0.243338
-0.24474
-0.247687
-0.251906
-0.257163
-0.263141
-0.269638
-0.275993
-0.281686
-0.286074
-0.228565
-0.229704
-0.232083
-0.235565
-0.240016
-0.245218
-0.251038
-0.256866
-0.262122
-0.266244
512.696
514.969
519.522
526.329
535.318
546.306
558.86
572.017
583.838
591.217
509.308
511.467
515.77
522.154
530.506
540.621
552.118
564.227
575.346
582.594
502.227
504.169
508.003
513.611
520.813
529.366
538.938
549.003
558.462
564.971
491.942
493.613
496.854
501.443
507.064
513.336
519.878
526.447
532.869
537.707
478.882
480.302
482.983
486.59
490.628
494.485
497.587
499.915
502.359
504.618
463.232
464.461
466.732
469.631
472.511
474.53
474.876
473.783
473.174
473.476
446.577
447.845
450.201
453.274
456.404
458.592
458.758
457.164
455.762
453.492
424.538
425.92
428.676
432.895
438.311
443.646
446.972
447.401
447.305
447.137
145.502
151.934
164.96
187.592
226.081
281.397
346.383
410.508
442.7
445.348
0.0151522
-0.162491
-0.352684
-0.075244
3.91961
24.0507
82.8314
152.73
195.418
245.29
-0.233094
-0.303405
-0.334937
-0.326393
-0.282184
-0.22003
-0.222376
-0.383317
-0.609663
0.119095
-0.281926
-0.314977
-0.341146
-0.362764
-0.365609
-0.393602
-0.474788
-0.553118
-0.596034
-0.631071
-0.294449
-0.310832
-0.331328
-0.351812
-0.368428
-0.392117
-0.429727
-0.464256
-0.490937
-0.518799
-0.293946
-0.301375
-0.31339
-0.326222
-0.339747
-0.356075
-0.375602
-0.394424
-0.409076
-0.418762
-0.288746
-0.292669
-0.300779
-0.310446
-0.321227
-0.333111
-0.345697
-0.356745
-0.364308
-0.368254
-0.281134
-0.283837
-0.290013
-0.297985
-0.307009
-0.316361
-0.325568
-0.333344
-0.338815
-0.341236
-0.271247
-0.273385
-0.278275
-0.284868
-0.292561
-0.300681
-0.308915
-0.316363
-0.322467
-0.325934
-0.259321
-0.26114
-0.265209
-0.270919
-0.277895
-0.285656
-0.294052
-0.302236
-0.30968
-0.315001
-0.245624
-0.247222
-0.250705
-0.255772
-0.262254
-0.269841
-0.278502
-0.28737
-0.295826
-0.30273
-0.230337
-0.231682
-0.23457
-0.238891
-0.244614
-0.251576
-0.259847
-0.268612
-0.276979
-0.284171
518.188
520.934
526.483
534.909
546.292
560.642
577.703
596.499
614.347
625.807
514.628
517.212
522.398
530.193
540.597
553.566
568.936
586.114
603.072
615.205
507.195
509.477
513.999
520.663
529.322
539.79
551.851
565.215
578.784
587.687
496.437
498.338
502
507.124
513.268
519.862
526.416
533.043
539.207
539.669
482.853
484.403
487.254
490.87
494.399
496.638
496.595
494.536
489.134
477.758
466.668
467.973
470.269
472.832
474.442
473.259
467.936
458.634
442.369
420.442
449.596
451.017
453.571
456.543
458.529
457.224
451.05
439.523
416.301
376.955
427.22
428.926
432.528
437.895
443.643
446.695
444.253
438.238
427.221
403.69
156.644
164.665
183.889
221.606
281.733
357.485
427.813
445.393
414.218
322.933
0.104047
-0.298639
-0.207376
3.06774
24.0891
99.6658
182.835
192.925
126.479
62.4431
-0.241301
-0.357766
-0.345989
-0.295262
-0.213683
-0.18617
-0.362623
-0.69578
-0.58959
-0.787098
-0.302002
-0.35316
-0.371962
-0.371453
-0.388392
-0.467967
-0.573376
-0.666321
-0.711864
-0.723689
-0.305836
-0.330706
-0.352195
-0.365806
-0.386343
-0.42886
-0.476393
-0.503307
-0.523516
-0.524647
-0.301206
-0.310086
-0.323122
-0.335544
-0.35085
-0.371189
-0.393419
-0.409125
-0.414735
-0.409762
-0.293997
-0.297888
-0.306823
-0.317137
-0.328735
-0.341243
-0.353266
-0.361699
-0.363872
-0.358363
-0.285285
-0.287991
-0.294881
-0.303449
-0.312811
-0.322021
-0.330293
-0.336648
-0.340336
-0.335171
-0.274651
-0.276858
-0.282333
-0.289587
-0.297914
-0.306465
-0.314916
-0.322838
-0.330371
-0.331147
-0.262148
-0.264126
-0.268803
-0.275401
-0.283565
-0.292749
-0.302918
-0.31354
-0.325057
-0.333005
-0.247982
-0.249819
-0.253977
-0.260141
-0.26827
-0.278138
-0.28999
-0.303131
-0.317217
-0.331213
-0.232206
-0.233815
-0.23737
-0.242827
-0.250356
-0.259996
-0.272246
-0.286652
-0.300747
-0.317381
523.886
527.191
533.941
544.376
558.846
577.71
601.088
628.279
656.338
676.655
520.145
523.229
529.477
539.019
552.071
568.915
589.837
614.725
640.52
659.471
512.34
515.022
520.368
528.326
538.829
551.775
567.073
584.586
601.65
607.215
501.076
503.236
507.371
513.075
519.689
526.269
531.997
535.519
530.106
502.179
486.927
488.602
491.571
494.986
497.328
496.386
490.309
474.893
417.56
341.118
470.178
471.527
473.711
475.499
474.587
467.681
451.798
414.543
278.99
181.136
452.677
454.251
456.896
459.25
458.525
450.828
432.367
378.99
193.386
96.7938
429.998
432.202
436.823
442.79
446.886
444.152
433.462
409.903
271.571
146.059
167.884
179.406
210.093
266.832
347.04
427.981
443.073
355.79
107.975
-0.881141
0.16571
-0.207553
1.59512
15.9137
82.7572
182.358
203.103
56.7864
-0.469134
-0.400896
-0.252203
-0.385026
-0.34237
-0.255457
-0.211453
-0.364784
-0.564579
-0.816544
-0.764101
-0.616435
-0.33292
-0.406125
-0.398748
-0.395969
-0.459298
-0.567076
-0.655654
-0.722373
-0.679403
-0.629029
-0.320107
-0.357082
-0.371521
-0.381735
-0.415496
-0.467483
-0.514113
-0.532843
-0.511356
-0.479487
-0.306076
-0.317594
-0.331718
-0.345135
-0.363216
-0.385641
-0.404545
-0.411746
-0.396583
-0.370176
-0.297702
-0.301597
-0.311889
-0.323374
-0.335577
-0.347087
-0.354005
-0.355301
-0.340529
-0.318488
-0.288698
-0.291397
-0.299094
-0.308208
-0.317578
-0.32558
-0.32973
-0.332483
-0.328245
-0.312101
-0.277588
-0.279881
-0.286008
-0.293959
-0.30291
-0.311594
-0.318463
-0.3261
-0.332955
-0.331012
-0.264687
-0.266855
-0.272269
-0.279988
-0.289729
-0.300757
-0.312303
-0.325724
-0.344308
-0.357335
-0.250185
-0.252323
-0.257337
-0.264959
-0.275409
-0.288591
-0.304763
-0.324723
-0.351416
-0.374428
-0.233999
-0.235945
-0.240366
-0.247372
-0.257523
-0.271264
-0.289743
-0.315272
-0.347549
-0.371268
529.181
533.086
541.152
553.879
572.043
596.575
628.383
668.931
717.354
758.047
525.274
528.899
536.32
547.878
564.185
586.12
614.8
651.135
692.341
721.768
517.127
520.247
526.519
536.001
548.821
565.056
584.509
603.44
607.444
595.662
505.387
507.832
512.495
518.867
526.071
532.652
535.219
518.165
435.495
388.106
490.702
492.503
495.564
498.621
499.353
493.922
474.242
386.888
226.993
212.244
473.423
474.799
476.755
477.337
473.108
457.788
413.046
232.888
77.7117
84.3573
455.541
457.272
459.871
461.006
456.582
438.746
377.6
143.55
26.3851
18.6365
432.677
435.517
441.023
446.516
447.093
437.893
409.96
229.363
7.19377
1.65851
178.711
196.918
242.077
317.936
411.327
445.48
354.886
55.0062
-0.802011
0.0501274
0.47638
0.678321
7.92659
55.255
153.125
192.041
56.0365
-0.285786
-0.403734
-0.140161
-0.224336
-0.381914
-0.314222
-0.261057
-0.363324
-0.658549
-0.797147
-0.803306
-0.74478
-0.608512
-0.356181
-0.461593
-0.416019
-0.442766
-0.529746
-0.63409
-0.702541
-0.679006
-0.701999
-0.581989
-0.33916
-0.392629
-0.391339
-0.403692
-0.439717
-0.480243
-0.518273
-0.483111
-0.498833
-0.457561
-0.308495
-0.325638
-0.340555
-0.355047
-0.372765
-0.390142
-0.39977
-0.356142
-0.384569
-0.357415
-0.298566
-0.303346
-0.315639
-0.328158
-0.339335
-0.346989
-0.346517
-0.295232
-0.330198
-0.315176
-0.290945
-0.293627
-0.302044
-0.311415
-0.319988
-0.325812
-0.32614
-0.283336
-0.324464
-0.309324
-0.279784
-0.282137
-0.288818
-0.297339
-0.30675
-0.315874
-0.32259
-0.289862
-0.327455
-0.287121
-0.266642
-0.269003
-0.275172
-0.284127
-0.295778
-0.309884
-0.324989
-0.301148
-0.308332
-0.0733304
-0.251966
-0.254423
-0.260364
-0.269706
-0.283137
-0.301469
-0.325115
-0.317296
-0.156505
0.140378
-0.235487
-0.237794
-0.243174
-0.252051
-0.265652
-0.285798
-0.313691
-0.328593
0.135051
0.155184
533.347
537.794
547.082
562.03
583.963
614.597
656.77
717.832
805.026
889.822
529.316
533.437
541.965
555.533
575.356
603.193
640.814
692.681
751.869
802.424
520.912
524.447
531.624
542.7
558.215
578.547
601.455
607.011
566.142
581.354
508.803
511.527
516.727
523.884
532.23
538.414
528.984
433.504
374.249
412.554
493.693
495.624
498.771
501.595
501.321
487.913
414.564
222.504
213.219
267.047
475.997
477.4
479.062
478.565
471.861
440.516
271.422
71.4599
82.3229
141.077
457.826
459.707
462.114
462.109
454.515
413.437
184.769
25.4859
27.3024
69.8415
434.866
438.311
444.345
448.369
446.502
425.6
264.043
6.19863
6.91388
25.6062
188.107
214.088
273.948
372.408
443.037
411.352
102.266
-0.769935
2.25684
-0.31958
1.04758
2.58078
26.882
122.394
196.664
121.506
-0.327913
-0.382414
0.472389
-0.467168
-0.15942
-0.315471
-0.271845
-0.326662
-0.547615
-0.501283
-0.720212
-0.661717
-0.714954
-0.573183
-0.356552
-0.465423
-0.426549
-0.453028
-0.550891
-0.659304
-0.649973
-0.62275
-0.588132
-0.528799
-0.358211
-0.426022
-0.412619
-0.423659
-0.452404
-0.483044
-0.480117
-0.46813
0.195439
-0.0646942
-0.311008
-0.336477
-0.351035
-0.36435
-0.375925
-0.381405
-0.368316
-0.360303
6.63679
3.07056
-0.296801
-0.303694
-0.318136
-0.330698
-0.338321
-0.33786
-0.317626
-0.296941
9.87329
4.83012
-0.29178
-0.294527
-0.303567
-0.312768
-0.319445
-0.321026
-0.309408
-0.271701
10.6522
0.963876
-0.281183
-0.283562
-0.290636
-0.29951
-0.309011
-0.318063
-0.323412
-0.19566
11.3363
0.168481
-0.267905
-0.270456
-0.277313
-0.287473
-0.301208
-0.319448
-0.345708
0.0253281
11.6599
0.216523
-0.253176
-0.25594
-0.262779
-0.273895
-0.290787
-0.315495
-0.359931
0.309393
8.6428
0.0442528
-0.236523
-0.239176
-0.24549
-0.25629
-0.273968
-0.302483
-0.355996
0.47939
0.0186027
-0.204814
535.677
540.461
550.527
566.944
591.478
626.244
677.482
759.38
891.62
1031.41
531.582
536.016
545.265
560.227
582.689
615.471
659.896
722.65
803.134
880.378
523.042
526.85
534.641
546.893
564.632
587.266
606.734
593.582
578.806
618.532
510.734
513.654
519.238
527.161
536.698
538.359
499.158
382.051
409.257
433.962
495.389
497.423
500.656
503.81
502.985
475.867
336.06
208.86
263.571
305.774
477.462
478.894
480.38
479.863
471.235
416.076
173.145
80.9667
139.887
167.621
459.12
461.093
463.343
463.296
451.124
369.567
90.3359
17.783
67.9259
39.5945
436.078
439.904
446.034
449.566
445.748
397.861
129.153
0.21085
24.3417
3.55977
193.373
224.258
296.266
409.325
443.759
316.797
-2.02026
-0.629566
-0.548145
0.917776
1.42513
4.56937
53.2475
188.062
241.391
53.62
-0.381767
-0.331898
-0.550963
0.0604201
-0.0920188
-0.235247
-0.223111
-0.214124
0.108479
-0.614686
-0.528549
-0.606818
-0.58811
-0.291642
-0.337102
-0.444499
-0.421134
-0.473969
-0.558095
-0.632049
-0.557684
-0.541037
-0.509946
-0.203574
-0.366785
-0.439995
-0.427634
-0.443686
-0.466207
-0.462208
-0.426434
-0.418805
-0.260894
0.0932151
-0.313908
-0.345732
-0.359855
-0.37107
-0.371234
-0.362588
-0.32591
-0.319433
2.95146
0.243107
-0.294798
-0.30382
-0.319376
-0.331232
-0.332928
-0.319593
-0.282754
-0.277527
5.8001
0.0728033
-0.291535
-0.294444
-0.303843
-0.312829
-0.316044
-0.31007
-0.290724
-0.213231
1.46225
-0.176725
-0.281696
-0.284092
-0.291345
-0.300606
-0.309413
-0.317993
-0.326078
-0.0755433
0.229572
-0.296357
-0.268382
-0.271087
-0.278362
-0.28968
-0.30532
-0.3296
-0.36425
0.280523
0.280148
-0.345561
-0.253642
-0.256634
-0.264072
-0.276861
-0.29741
-0.333027
-0.387725
0.399397
0.108854
-0.382102
-0.236902
-0.239799
-0.246748
-0.259331
-0.280931
-0.320716
-0.383118
0.434185
-0.182474
-0.393825
535.723
540.511
550.582
567
591.517
626.234
677.317
758.763
889.566
1026.78
531.628
536.067
545.323
560.29
582.745
615.481
659.914
723.228
804.843
878.967
523.089
526.902
534.705
546.975
564.743
587.442
607.36
596.797
581.959
619.707
510.779
513.706
519.309
527.272
536.904
538.796
501.162
386.337
412.624
438.33
495.429
497.471
500.728
503.943
503.234
476.397
338.272
211.609
267.408
309.603
477.492
478.933
480.444
479.992
471.473
416.769
176.076
83.6032
143.374
170.69
459.136
461.115
463.379
463.367
451.296
369.976
91.4494
18.1677
68.871
43.011
436.076
439.906
446.033
449.578
445.862
396.284
122.777
-0.0169763
23.8843
3.6556
193.354
224.332
296.446
409.899
444.533
316.428
-2.08566
-0.663052
-0.580939
0.914299
1.43278
4.65441
54.5582
190.196
241.435
50.3704
-0.352051
-0.328457
-0.569192
0.0531086
-0.0927523
-0.234583
-0.216951
-0.194547
0.169295
-0.591025
-0.50385
-0.58401
-0.591094
-0.306471
-0.337569
-0.444299
-0.421024
-0.474512
-0.556576
-0.623307
-0.546023
-0.524664
-0.510619
-0.229221
-0.366107
-0.439164
-0.427419
-0.443249
-0.464354
-0.458159
-0.423927
-0.412908
-0.305065
0.0904469
-0.313407
-0.345153
-0.359314
-0.3704
-0.370201
-0.360316
-0.325448
-0.314932
2.30202
0.245812
-0.2946
-0.30354
-0.319023
-0.330881
-0.332352
-0.317836
-0.284063
-0.27318
6.05042
0.115576
-0.291265
-0.294197
-0.303635
-0.312739
-0.315957
-0.309566
-0.292516
-0.21902
4.8793
-0.104239
-0.281408
-0.283851
-0.291189
-0.300661
-0.309851
-0.319288
-0.327857
-0.163779
0.824028
-0.26198
-0.268086
-0.270832
-0.278192
-0.28975
-0.305961
-0.331661
-0.365582
-0.15586
0.435028
-0.332937
-0.253315
-0.25633
-0.263829
-0.276812
-0.297861
-0.335158
-0.389056
-0.166909
0.212653
-0.378727
-0.236534
-0.23943
-0.246383
-0.259009
-0.280618
-0.320738
-0.381803
-0.178668
-0.176271
-0.397857
533.486
537.946
547.26
562.243
584.22
614.903
657.14
718.222
804.982
888.585
529.455
533.591
542.151
555.771
575.669
603.612
641.438
693.859
754.955
808.094
521.049
524.604
531.826
542.982
558.641
579.212
602.543
610.434
575.645
594.036
508.934
511.683
516.943
524.221
532.805
539.354
530.856
439.373
380.055
422.824
493.808
495.769
498.986
501.965
501.983
488.924
417.65
227.43
216.95
273.129
476.085
477.516
479.249
478.916
472.502
441.437
276.85
78.4679
87.3304
145.372
457.874
459.772
462.222
462.321
454.948
414.348
188.958
26.9923
28.6122
72.9892
434.859
438.307
444.346
448.422
446.682
425.429
263.619
5.72701
7.02716
27.7277
187.917
213.791
273.243
371.422
442.927
410.41
100.282
-0.72348
2.14866
-0.457586
1.04867
2.59113
27.0261
122.441
196.045
118.084
-0.275888
-0.363066
-0.142773
-0.567076
-0.163381
-0.316898
-0.26777
-0.308239
-0.523938
-0.444789
-0.714103
-0.600348
-0.858748
-0.61702
-0.357852
-0.462829
-0.422669
-0.449709
-0.552796
-0.650559
-0.663791
-0.579849
-0.696381
-0.548254
-0.356134
-0.422828
-0.410644
-0.421594
-0.448657
-0.47865
-0.484566
-0.471745
1.03644
0.0522478
-0.309711
-0.334745
-0.349369
-0.362552
-0.37391
-0.379212
-0.367024
-0.349439
7.90576
3.1473
-0.296054
-0.302806
-0.317143
-0.329797
-0.337604
-0.336908
-0.316225
-0.272923
9.17822
4.89179
-0.290957
-0.293758
-0.302906
-0.312454
-0.319626
-0.321584
-0.312723
-0.223589
9.85833
0.815912
-0.280302
-0.282786
-0.290064
-0.299419
-0.309783
-0.320558
-0.332182
-0.128061
10.5299
0.0868757
-0.266992
-0.269625
-0.276657
-0.287283
-0.302001
-0.322755
-0.352289
-0.0384994
10.9375
0.194689
-0.25217
-0.254965
-0.261885
-0.273304
-0.290991
-0.318855
-0.362262
-0.0154564
9.88142
0.0405058
-0.235404
-0.238021
-0.244269
-0.255037
-0.272676
-0.302227
-0.351955
0.0321954
0.960791
-0.198971
529.405
533.331
541.439
554.232
572.486
597.136
629.1
669.835
718.341
758.832
525.496
529.145
536.616
548.257
564.685
586.795
615.736
652.484
694.353
724.515
517.345
520.494
526.831
536.425
549.429
565.961
585.898
605.783
612.264
604.687
505.592
508.071
512.816
519.339
526.808
533.841
537.154
521.811
443.32
399.863
490.88
492.719
495.871
499.105
500.165
495.284
476.284
392.348
235.05
217.316
473.556
474.967
477.01
477.773
473.904
459.185
415.876
242.806
88.5487
88.9209
455.611
457.362
460.015
461.269
457.099
439.697
380.576
151.874
27.7553
18.648
432.659
435.494
441.003
446.551
447.298
438.289
410.627
233.704
7.06272
1.50734
178.36
196.273
240.96
316.153
409.695
445.78
354.554
53.9838
-0.920194
-0.152214
0.469725
0.64414
7.65297
53.4619
149.708
188.418
55.4925
-0.266995
-0.465827
-0.300638
-0.227397
-0.38147
-0.313177
-0.254989
-0.350117
-0.649718
-0.80908
-0.828489
-0.780338
-0.666465
-0.353834
-0.451937
-0.415481
-0.437427
-0.53048
-0.639493
-0.72972
-0.722261
-0.740287
-0.614195
-0.335727
-0.386956
-0.388456
-0.401008
-0.43754
-0.481671
-0.527447
-0.508281
-0.540828
-0.485368
-0.306583
-0.322882
-0.338408
-0.353224
-0.371614
-0.391076
-0.403157
-0.367628
-0.411951
-0.388956
-0.297143
-0.301814
-0.314247
-0.327179
-0.339245
-0.348729
-0.348759
-0.306606
-0.358184
-0.354048
-0.289468
-0.292258
-0.300936
-0.310904
-0.320568
-0.328694
-0.329687
-0.297983
-0.353252
-0.347493
-0.278302
-0.280791
-0.287767
-0.296925
-0.307538
-0.319239
-0.326506
-0.306002
-0.365779
-0.332039
-0.265107
-0.267569
-0.273959
-0.283431
-0.296121
-0.312536
-0.327075
-0.316884
-0.375269
-0.260347
-0.250298
-0.25278
-0.258799
-0.268385
-0.282348
-0.301983
-0.322088
-0.318883
-0.36712
-0.179564
-0.233663
-0.235907
-0.241179
-0.249902
-0.263214
-0.282885
-0.304717
-0.310462
-0.307619
-0.117094
524.18
527.511
534.313
544.829
559.41
578.413
601.957
629.311
657.467
677.744
520.435
523.548
529.855
539.492
552.679
569.705
590.863
616.024
642.09
661.131
512.62
515.335
520.753
528.83
539.514
552.726
568.399
586.383
603.812
609.81
501.335
503.533
507.753
513.605
520.458
527.408
533.689
537.86
533.18
506.957
487.149
488.863
491.923
495.504
498.127
497.648
492.242
477.508
423.006
347.4
470.341
471.726
473.993
475.942
475.321
468.936
453.862
418.463
290.332
191.06
452.762
454.356
457.051
459.511
458.99
451.651
433.759
382.853
203.447
102.015
429.976
432.175
436.789
442.787
447.016
444.522
434.058
410.612
276.322
150.389
167.473
178.792
208.973
265.021
344.716
426.412
443.57
356.901
109.72
-1.21404
0.15669
-0.213207
1.48259
14.9656
79.1032
178.906
202.086
57.5597
-0.579325
-0.612996
-0.252394
-0.381675
-0.340382
-0.256748
-0.214051
-0.366854
-0.58622
-0.858442
-0.816155
-0.664534
-0.32842
-0.398433
-0.395041
-0.393076
-0.458354
-0.572296
-0.670768
-0.748508
-0.708185
-0.640673
-0.316502
-0.352161
-0.368068
-0.379414
-0.414237
-0.469455
-0.523391
-0.55016
-0.533535
-0.492018
-0.303684
-0.314875
-0.329316
-0.343304
-0.362402
-0.386958
-0.409517
-0.421992
-0.415074
-0.390426
-0.295537
-0.299504
-0.310001
-0.322009
-0.335196
-0.348511
-0.358205
-0.364011
-0.360725
-0.346384
-0.286586
-0.289411
-0.297371
-0.30706
-0.317406
-0.327165
-0.334149
-0.341317
-0.345891
-0.339655
-0.275489
-0.277903
-0.284283
-0.292744
-0.302561
-0.312826
-0.322206
-0.333815
-0.347643
-0.348571
-0.262518
-0.264762
-0.270328
-0.278375
-0.288683
-0.300798
-0.31399
-0.330585
-0.349752
-0.359175
-0.24787
-0.25
-0.255009
-0.262675
-0.273192
-0.286573
-0.3026
-0.323005
-0.345227
-0.361125
-0.231517
-0.233366
-0.237605
-0.244311
-0.253905
-0.26674
-0.283074
-0.305247
-0.329952
-0.345184
518.536
521.308
526.912
535.422
546.917
561.402
578.611
597.535
615.448
626.901
514.969
517.581
522.827
530.717
541.25
554.383
569.944
587.309
604.385
616.523
507.52
509.834
514.426
521.2
530.021
540.705
553.042
566.71
580.513
589.565
496.733
498.669
502.409
507.664
514.005
520.881
527.816
534.892
541.434
542.016
483.101
484.687
487.618
491.374
495.125
497.698
498.131
496.634
491.547
480.076
466.849
468.185
470.552
473.244
475.071
474.239
469.468
460.897
445.32
424.368
449.688
451.129
453.726
456.78
458.914
457.856
452.066
441.08
418.978
381.816
427.194
428.904
432.5
437.872
443.682
446.902
444.701
438.896
428.096
405.453
156.167
164.148
183.07
220.154
279.575
354.877
426.131
445.729
416.462
325.585
0.097125
-0.283312
-0.226372
2.83783
22.5973
96.2399
180.858
193.013
129.964
66.808
-0.2406
-0.349623
-0.341997
-0.295566
-0.219574
-0.191394
-0.360032
-0.71096
-0.629053
-0.797285
-0.297708
-0.346171
-0.366586
-0.369203
-0.387237
-0.468363
-0.576633
-0.673633
-0.730229
-0.717645
-0.302356
-0.326099
-0.348096
-0.363132
-0.384944
-0.429785
-0.482301
-0.517115
-0.535034
-0.523893
-0.298235
-0.306917
-0.32015
-0.333201
-0.349491
-0.371532
-0.396467
-0.415758
-0.422825
-0.415208
-0.291177
-0.295149
-0.304283
-0.315066
-0.327473
-0.34133
-0.355333
-0.366578
-0.372007
-0.367744
-0.282559
-0.285368
-0.292459
-0.301444
-0.31152
-0.321938
-0.33197
-0.340756
-0.34739
-0.345645
-0.271935
-0.274231
-0.279867
-0.287439
-0.29631
-0.305821
-0.315643
-0.325369
-0.334766
-0.336999
-0.259366
-0.261379
-0.266118
-0.272861
-0.281286
-0.290978
-0.301823
-0.313271
-0.324773
-0.33121
-0.24507
-0.246864
-0.250946
-0.25702
-0.265017
-0.274746
-0.286237
-0.298788
-0.311309
-0.320588
-0.229144
-0.230637
-0.233973
-0.239081
-0.246044
-0.254833
-0.265636
-0.277829
-0.289597
-0.299106
513.08
515.379
519.984
526.869
535.962
547.07
559.748
573.012
584.896
592.283
509.682
511.868
516.227
522.696
531.162
541.416
553.064
565.314
576.527
583.806
502.579
504.551
508.447
514.151
521.487
530.211
539.984
550.26
559.892
566.506
492.259
493.962
497.268
501.964
507.741
514.222
521.031
527.903
534.625
539.693
479.144
480.594
483.341
487.059
491.263
495.356
498.774
501.496
504.354
506.851
463.419
464.674
467.003
469.999
473.033
475.285
475.964
475.326
475.202
475.846
446.669
447.955
450.347
453.481
456.712
459.062
459.467
458.2
457.177
455.362
424.505
425.893
428.655
432.871
438.3
443.708
447.194
447.84
447.962
447.885
144.986
151.396
164.331
186.613
224.444
279.068
343.61
408.107
441.678
445.706
0.00446908
-0.15192
-0.331049
-0.107739
3.60306
22.6734
80.0104
150.159
193.32
247.178
-0.230816
-0.295679
-0.327691
-0.32286
-0.282402
-0.224207
-0.22421
-0.377106
-0.605072
0.251806
-0.27783
-0.309088
-0.33529
-0.358266
-0.363391
-0.390834
-0.473025
-0.551828
-0.58932
-0.60866
-0.290575
-0.306369
-0.326715
-0.347883
-0.365793
-0.390645
-0.430164
-0.46635
-0.489356
-0.50595
-0.290286
-0.297642
-0.309703
-0.322927
-0.337122
-0.354368
-0.375029
-0.394558
-0.407412
-0.412211
-0.285297
-0.289261
-0.297482
-0.307431
-0.318665
-0.331209
-0.344593
-0.356403
-0.363892
-0.366263
-0.277795
-0.280553
-0.286833
-0.295011
-0.304376
-0.314283
-0.324178
-0.332725
-0.338642
-0.341005
-0.267931
-0.270109
-0.275054
-0.281758
-0.289653
-0.298135
-0.306798
-0.314711
-0.321025
-0.324358
-0.255965
-0.257778
-0.261813
-0.267496
-0.274466
-0.282273
-0.290654
-0.298743
-0.305721
-0.310037
-0.242178
-0.243704
-0.247046
-0.251917
-0.258122
-0.265343
-0.273409
-0.281466
-0.288643
-0.293507
-0.226782
-0.227999
-0.230647
-0.234595
-0.239757
-0.245922
-0.253015
-0.260255
-0.266712
-0.271195
508.271
510.195
514.021
519.668
526.98
535.677
545.251
554.822
562.976
567.826
505.015
506.862
510.521
515.894
522.81
530.985
539.949
548.921
556.631
561.316
498.207
499.901
503.237
508.091
514.269
521.49
529.35
537.224
544.09
548.407
488.28
489.782
492.708
496.891
502.084
507.973
514.192
520.299
525.652
529.262
475.602
476.916
479.443
482.965
487.171
491.679
496.118
500.175
503.662
506.435
460.333
461.485
463.678
466.666
470.089
473.505
476.5
478.81
480.659
482.655
443.953
445.078
447.213
450.137
453.526
456.933