/*--------------------------------*- C++ -*----------------------------------*\
| =========                 |                                                 |
| \\      /  F ield         | OpenFOAM: The Open Source CFD Toolbox           |
|  \\    /   O peration     | Version:  2312                                  |
|   \\  /    A nd           | Website:  www.openfoam.com                      |
|    \\/     M anipulation  |                                                 |
\*---------------------------------------------------------------------------*/
FoamFile
{
    version     2.0;
    format      ascii;
    arch        "LSB;label=32;scalar=64";
    class       volVectorField;
    location    "0.135";
    object      U;
}
// * * * * * * * * * * * * * * * * * * * * * * * * * * * * * * * * * * * * * //

dimensions      [0 1 -1 0 0 0 0];

internalField   nonuniform List<vector> 
8000
(
(0.00282201 0.00411498 -0.00646465)
(0.00719492 0.00411543 -0.0061245)
(0.0106437 0.004107 -0.00553864)
(0.0128118 0.00407673 -0.00481316)
(0.0135761 0.00401914 -0.00405365)
(0.013005 0.00393862 -0.00334405)
(0.0112906 0.00384704 -0.0027404)
(0.00868459 0.0037599 -0.00227423)
(0.0054538 0.00369216 -0.00196)
(0.00185769 0.00365364 -0.00180103)
(0.00283836 0.0125825 -0.00671663)
(0.00723357 0.0125637 -0.00634351)
(0.0106737 0.0125025 -0.00570673)
(0.0128062 0.0123664 -0.00492673)
(0.0135241 0.0121456 -0.00411904)
(0.0129139 0.0118589 -0.00337231)
(0.0111807 0.0115465 -0.00274301)
(0.00858156 0.0112566 -0.00226093)
(0.00538124 0.0110347 -0.00193794)
(0.00183076 0.0109084 -0.00177521)
(0.00280491 0.0216509 -0.00704037)
(0.0071414 0.0215515 -0.00661068)
(0.0104852 0.0213302 -0.00588944)
(0.012501 0.0209547 -0.00502331)
(0.0131168 0.0204323 -0.00414437)
(0.012451 0.0198135 -0.00334681)
(0.0107264 0.0191765 -0.00268601)
(0.00820136 0.0186068 -0.00218694)
(0.00512956 0.0181804 -0.00185609)
(0.00174286 0.0179421 -0.00169059)
(0.00271291 0.0314576 -0.00732568)
(0.00689325 0.0311796 -0.00682534)
(0.0100475 0.0306302 -0.00600298)
(0.0118726 0.0298132 -0.00503956)
(0.0123449 0.0287874 -0.00408623)
(0.0116217 0.0276584 -0.00324181)
(0.00994263 0.0265544 -0.00255673)
(0.00756152 0.0256013 -0.00204832)
(0.00471228 0.0249042 -0.00171577)
(0.00159814 0.0245223 -0.00155091)
(0.0024943 0.041827 -0.00727595)
(0.00631553 0.0412497 -0.00671567)
(0.00912019 0.040174 -0.00581814)
(0.0106587 0.0386874 -0.00479653)
(0.0109616 0.0369401 -0.00381409)
(0.0102168 0.0351171 -0.00296639)
(0.00866763 0.0334059 -0.00229447)
(0.00654953 0.0319718 -0.00180528)
(0.00406398 0.030944 -0.00148999)
(0.00137526 0.0303906 -0.00133525)
(0.00208164 0.0517285 -0.0065231)
(0.00524209 0.0507547 -0.00596027)
(0.00748651 0.049006 -0.0050816)
(0.00863865 0.0466984 -0.00410999)
(0.00877337 0.0441023 -0.00320189)
(0.00808555 0.0414941 -0.00243923)
(0.00679523 0.0391198 -0.00184929)
(0.00509779 0.0371761 -0.00142853)
(0.00314791 0.0358057 -0.00116152)
(0.00106227 0.0350783 -0.00103183)
(0.00143918 0.06618 -0.004855)
(0.00359253 0.0645768 -0.00437787)
(0.00506114 0.0617934 -0.00365872)
(0.0057501 0.0582611 -0.00289279)
(0.00575124 0.054428 -0.00220115)
(0.00522825 0.0506958 -0.0016388)
(0.00434432 0.0473846 -0.00121642)
(0.00323143 0.0447271 -0.000922528)
(0.00198465 0.0428788 -0.000739389)
(0.000670291 0.0419085 -0.000651446)
(0.000297456 0.0425946 -0.000835669)
(0.000729331 0.0413367 -0.00078423)
(0.00101654 0.0392101 -0.000681316)
(0.00112322 0.0365856 -0.000551941)
(0.00107736 0.0338063 -0.000414305)
(0.000935927 0.0311621 -0.000297726)
(0.000745605 0.0288641 -0.000213)
(0.000535634 0.02705 -0.000157017)
(0.000321423 0.0258031 -0.000123698)
(0.000111576 0.0251559 -0.000108335)
(0.00218042 0.063334 0.00191087)
(0.00496128 0.0624548 0.000767507)
(0.00623719 0.060304 -0.00101948)
(0.00643151 0.0570293 -0.00158975)
(0.00603529 0.0532503 -0.00140937)
(0.0053859 0.0495171 -0.00119627)
(0.00450542 0.0462003 -0.00103254)
(0.00339951 0.0435432 -0.00090962)
(0.00210325 0.0416964 -0.000828145)
(0.000772235 0.0407434 -0.000780798)
(0.0825088 0.156333 -0.234633)
(0.222975 0.138154 -0.123307)
(0.277375 0.121463 -0.0475254)
(0.226255 0.107024 -0.0251926)
(0.156849 0.093797 -0.015951)
(0.109128 0.0835505 -0.0128713)
(0.0757696 0.0759377 -0.011492)
(0.0498023 0.0706234 -0.0106359)
(0.0281649 0.0673435 -0.0101851)
(0.00894351 0.0653983 -0.00965938)
(0.0883226 0.453046 -0.078443)
(0.192165 0.384716 -0.0395819)
(0.204579 0.291555 -0.0177734)
(0.167474 0.218347 -0.0102479)
(0.127781 0.172232 -0.00903269)
(0.0957303 0.142726 -0.00929676)
(0.0692448 0.123434 -0.00943515)
(0.0466642 0.111158 -0.0094882)
(0.0268556 0.103912 -0.00950638)
(0.00844144 0.0987905 -0.00914173)
(0.0476198 0.460973 -9.46806e-05)
(0.0980353 0.393232 0.00367729)
(0.108274 0.314275 0.00388919)
(0.0987451 0.253346 0.00115725)
(0.0829516 0.210744 -0.00186401)
(0.0659991 0.180854 -0.00405594)
(0.0496258 0.160117 -0.00551151)
(0.0343047 0.146267 -0.00643018)
(0.0200627 0.137787 -0.00695681)
(0.00629373 0.131023 -0.00686844)
(0.0211602 0.360665 0.0180039)
(0.0462654 0.327241 0.0143042)
(0.0567409 0.286957 0.00942315)
(0.0567535 0.250923 0.00506284)
(0.0507892 0.22148 0.00170767)
(0.04221 0.198487 -0.00082555)
(0.0327241 0.181327 -0.00265065)
(0.0230861 0.169224 -0.00388374)
(0.0136706 0.161525 -0.00463452)
(0.00425048 0.154258 -0.00470624)
(0.0105909 0.295741 0.0133556)
(0.0240999 0.281557 0.0112618)
(0.0309399 0.261505 0.00834035)
(0.0321429 0.240532 0.00549887)
(0.0296865 0.22143 0.0029411)
(0.0252777 0.205267 0.000804705)
(0.0199332 0.192422 -0.000848897)
(0.0142122 0.182959 -0.00203592)
(0.00846374 0.176747 -0.00279332)
(0.00256557 0.169447 -0.00291876)
(0.00547024 0.262091 0.0095825)
(0.0123458 0.254561 0.00871913)
(0.0159365 0.242991 0.00707961)
(0.016732 0.230063 0.00521436)
(0.0155995 0.217568 0.00333952)
(0.0133674 0.206458 0.00166918)
(0.0105659 0.197248 0.000299953)
(0.00751158 0.190234 -0.000725363)
(0.00444917 0.185518 -0.00140004)
(0.00125786 0.1783 -0.00152752)
(0.00242039 0.240095 0.00819779)
(0.0051928 0.235627 0.00763414)
(0.00652108 0.228515 0.00638487)
(0.00671037 0.220316 0.004985)
(0.00607855 0.212065 0.00353061)
(0.00503876 0.204482 0.00219675)
(0.00383937 0.198021 0.00106976)
(0.00260554 0.192972 0.000204987)
(0.00146809 0.189496 -0.000372494)
(0.000283591 0.182327 -0.000487047)
(0.000600338 0.223492 0.00743354)
(0.000809737 0.220807 0.00702516)
(0.000555265 0.2164 0.00594619)
(0.000162317 0.21117 0.00484753)
(-0.000348214 0.205728 0.00364916)
(-0.000735339 0.200595 0.00254556)
(-0.000925747 0.196108 0.00159443)
(-0.0009263 0.192548 0.000867439)
(-0.000703607 0.190038 0.000385014)
(-0.000428646 0.182843 0.000282383)
(-0.000511276 0.210296 0.00690094)
(-0.00191167 0.20864 0.00657917)
(-0.00324447 0.205909 0.00567069)
(-0.00412556 0.202554 0.00474168)
(-0.00467068 0.19896 0.00372166)
(-0.00471537 0.19549 0.00277949)
(-0.00427729 0.19239 0.00197373)
(-0.00343933 0.1899 0.00134895)
(-0.00226672 0.188142 0.00093074)
(-0.000943576 0.180782 0.000836272)
(-0.00121536 0.19935 0.00649113)
(-0.00362581 0.198261 0.0062301)
(-0.00570232 0.196563 0.00545174)
(-0.00698388 0.194384 0.00466069)
(-0.0076217 0.191981 0.00377581)
(-0.00748066 0.189598 0.00295369)
(-0.00663851 0.187445 0.00225047)
(-0.00523389 0.185676 0.00169078)
(-0.00340234 0.184475 0.0013188)
(-0.0013231 0.176826 0.00123421)
(-0.00170589 0.189922 0.00617231)
(-0.00477685 0.189161 0.00597443)
(-0.00734606 0.188059 0.00529534)
(-0.00894463 0.186564 0.00461749)
(-0.00969744 0.184886 0.00383192)
(-0.00946437 0.18318 0.00309122)
(-0.00836122 0.181611 0.00245287)
(-0.00655692 0.180321 0.00194565)
(-0.00424605 0.179512 0.00160618)
(-0.00160829 0.171506 0.00152201)
(0.00318698 0.00390466 -0.0195003)
(0.00812546 0.00393594 -0.0184406)
(0.0119617 0.00397472 -0.0166261)
(0.0143047 0.00399426 -0.0143949)
(0.0150536 0.00397981 -0.0120752)
(0.0143263 0.00393167 -0.0099215)
(0.0123674 0.00386172 -0.00809924)
(0.00947033 0.00378743 -0.00669807)
(0.00592879 0.00372643 -0.0057565)
(0.00201668 0.00369071 -0.00528231)
(0.00323757 0.0120358 -0.0203686)
(0.00824586 0.0121052 -0.0191941)
(0.0120947 0.0121773 -0.0172047)
(0.0143996 0.0121792 -0.0147886)
(0.0150853 0.0120749 -0.0123076)
(0.014297 0.0118735 -0.0100306)
(0.0122986 0.0116158 -0.00812375)
(0.0093918 0.011357 -0.00667004)
(0.00586873 0.0111505 -0.00569955)
(0.00199351 0.0110301 -0.00521288)
(0.00326527 0.0210341 -0.0215742)
(0.00829624 0.0210629 -0.0201944)
(0.0120784 0.0210289 -0.0179035)
(0.0142532 0.020839 -0.0151835)
(0.014801 0.0204647 -0.0124527)
(0.0139168 0.0199457 -0.0099985)
(0.0118928 0.0193661 -0.00798112)
(0.00903635 0.018824 -0.00646705)
(0.00562762 0.0184079 -0.00546799)
(0.00190838 0.0181722 -0.00497081)
(0.00324936 0.0312388 -0.0227602)
(0.00822048 0.031091 -0.021115)
(0.0118397 0.0307177 -0.0184501)
(0.0137968 0.030056 -0.0153742)
(0.0141504 0.0291335 -0.0123716)
(0.0131585 0.0280544 -0.00974266)
(0.0111423 0.0269611 -0.00763121)
(0.00840723 0.0259977 -0.00607703)
(0.00521129 0.0252847 -0.00506645)
(0.00176301 0.024892 -0.00456837)
(0.00309582 0.0426535 -0.0230029)
(0.00777858 0.0421377 -0.021105)
(0.0110464 0.0411174 -0.0181248)
(0.0126705 0.0396381 -0.0147972)
(0.0127993 0.0378449 -0.0116519)
(0.0117432 0.0359393 -0.00897829)
(0.00983437 0.0341322 -0.00688537)
(0.00735821 0.0326098 -0.00537705)
(0.00453543 0.031516 -0.00441212)
(0.00153 0.0309273 -0.0039416)
(0.00268764 0.0541828 -0.0210399)
(0.00668955 0.053124 -0.0190722)
(0.00934439 0.0511951 -0.0160756)
(0.0105261 0.0486302 -0.0128419)
(0.0104512 0.0457421 -0.00988347)
(0.00944409 0.0428473 -0.00744358)
(0.00781064 0.0402223 -0.00558464)
(0.00578898 0.0380823 -0.00427493)
(0.00354577 0.0365791 -0.0034514)
(0.00119196 0.0357846 -0.00305439)
(0.00195722 0.0719137 -0.0162769)
(0.00479587 0.0697831 -0.0144739)
(0.00655406 0.0662097 -0.011865)
(0.00721455 0.0618339 -0.00920158)
(0.00701067 0.0572327 -0.00688035)
(0.00621706 0.0528557 -0.00504328)
(0.00506356 0.0490398 -0.00369206)
(0.00371049 0.0460176 -0.00276706)
(0.00225635 0.0439356 -0.00219748)
(0.000758232 0.0428513 -0.00192642)
(0.00035749 0.0477571 -0.00307347)
(0.000877381 0.0458685 -0.0028905)
(0.00124768 0.0428558 -0.00235084)
(0.00139034 0.0393976 -0.00179152)
(0.00133092 0.0359323 -0.00131216)
(0.00113622 0.0327436 -0.000924125)
(0.000885319 0.0300376 -0.000645424)
(0.000624165 0.0279399 -0.000464758)
(0.000369725 0.0265163 -0.000359248)
(0.000126941 0.0257846 -0.00031112)
(0.00078404 0.0694981 -0.0127665)
(0.0020759 0.0676583 -0.00418352)
(0.00398911 0.0648813 -0.00126855)
(0.00590129 0.0608947 -0.00347964)
(0.0063191 0.056272 -0.00390763)
(0.00571232 0.0518009 -0.00335865)
(0.00477944 0.0479127 -0.00286138)
(0.003612 0.0448485 -0.00250238)
(0.00223746 0.0427455 -0.00226354)
(0.000820158 0.041669 -0.00213045)
(0.0278711 0.225151 -0.762427)
(0.0941112 0.186932 -0.584365)
(0.177566 0.131457 -0.257441)
(0.219845 0.108528 -0.0847475)
(0.172653 0.0987571 -0.0497525)
(0.117023 0.0880817 -0.0404463)
(0.0800232 0.0793351 -0.0360321)
(0.0524494 0.0732409 -0.0334217)
(0.0295751 0.0695313 -0.0318895)
(0.00946375 0.0673505 -0.030413)
(0.0537366 0.393261 -0.333211)
(0.158344 0.384314 -0.17937)
(0.203463 0.320763 -0.0628182)
(0.177469 0.243908 -0.0295184)
(0.132645 0.188779 -0.0269936)
(0.0981363 0.154595 -0.0287352)
(0.0711583 0.132335 -0.0297049)
(0.048099 0.118125 -0.0299464)
(0.0277137 0.10979 -0.029942)
(0.00879851 0.104091 -0.0290254)
(0.0449859 0.488623 0.00158258)
(0.100172 0.427948 0.0220682)
(0.109526 0.343072 0.0183191)
(0.0964585 0.272433 0.00622256)
(0.080458 0.224965 -0.00484731)
(0.0646007 0.192477 -0.0125506)
(0.0490552 0.169808 -0.0173593)
(0.0341837 0.154619 -0.0202586)
(0.020077 0.14531 -0.0218735)
(0.0063742 0.138016 -0.0218159)
(0.0200706 0.381236 0.0654329)
(0.0421794 0.343296 0.050976)
(0.050645 0.298634 0.0316688)
(0.0514012 0.260937 0.0164095)
(0.0469723 0.231016 0.00519278)
(0.0396779 0.207645 -0.00289534)
(0.0311774 0.189992 -0.00857254)
(0.0222326 0.177419 -0.0123562)
(0.0132343 0.169364 -0.0146396)
(0.00417167 0.161741 -0.0150435)
(0.0092964 0.29819 0.0430549)
(0.0208178 0.285148 0.0354422)
(0.0269564 0.266803 0.0252314)
(0.0285168 0.247111 0.0161392)
(0.0266727 0.228629 0.00824784)
(0.0230035 0.212841 0.00178865)
(0.0183716 0.200182 -0.00317655)
(0.0132363 0.190731 -0.00673014)
(0.00791256 0.184466 -0.0089958)
(0.00243424 0.176932 -0.00952242)
(0.00483937 0.265904 0.0284747)
(0.0107396 0.259346 0.025749)
(0.0136802 0.248689 0.0203764)
(0.0143862 0.236416 0.0147794)
(0.0134418 0.224335 0.00918014)
(0.0116064 0.213537 0.00425856)
(0.00926196 0.204577 0.000239809)
(0.00664395 0.197721 -0.0027731)
(0.00393298 0.193073 -0.00476258)
(0.00112551 0.185665 -0.0052594)
(0.00201 0.246527 0.0237274)
(0.00404169 0.242305 0.0221206)
(0.00484649 0.235268 0.0181379)
(0.00498927 0.227245 0.0140281)
(0.00445383 0.219112 0.00971424)
(0.00367011 0.211629 0.00580816)
(0.00278737 0.205273 0.00253574)
(0.00188324 0.200356 2.65158e-05)
(0.00102404 0.196981 -0.00165824)
(0.00016468 0.189616 -0.00208813)
(0.000310199 0.231 0.021397)
(-0.000147876 0.228442 0.0201934)
(-0.000827006 0.223964 0.0168771)
(-0.0011877 0.218718 0.0136165)
(-0.00165871 0.213217 0.0100816)
(-0.00184654 0.208029 0.0068563)
(-0.00178527 0.203537 0.00412574)
(-0.00150675 0.200003 0.00201829)
(-0.00107155 0.197549 0.000596326)
(-0.000535577 0.190123 0.000234599)
(-0.000746178 0.218623 0.0197923)
(-0.00270786 0.217028 0.0188486)
(-0.00441648 0.214196 0.0160449)
(-0.00526877 0.210703 0.013338)
(-0.00577791 0.206956 0.0103275)
(-0.00564125 0.20334 0.00757657)
(-0.0049897 0.200155 0.00524689)
(-0.00392901 0.197592 0.00343429)
(-0.00258772 0.195808 0.00220926)
(-0.00104234 0.188167 0.00189895)
(-0.00140779 0.208467 0.0184708)
(-0.00430584 0.207441 0.0177243)
(-0.00670959 0.20555 0.0153413)
(-0.00796862 0.203176 0.0130926)
(-0.008587 0.200546 0.0104842)
(-0.00828655 0.197944 0.00809087)
(-0.00726889 0.195605 0.0060492)
(-0.00567728 0.193707 0.00445017)
(-0.00368926 0.19243 0.00337369)
(-0.00141201 0.184452 0.00309877)
(-0.00184264 0.199957 0.0173832)
(-0.00535836 0.19921 0.0168157)
(-0.00822707 0.197837 0.0148149)
(-0.00981396 0.196084 0.0129194)
(-0.0105799 0.194086 0.0106234)
(-0.0102137 0.192079 0.00848984)
(-0.00894969 0.190255 0.00664941)
(-0.00697297 0.188766 0.0052026)
(-0.00451985 0.18785 0.0042266)
(-0.00169689 0.17946 0.00397269)
(0.00395652 0.00336689 -0.0327925)
(0.0100755 0.00347664 -0.0308943)
(0.0146985 0.00363322 -0.0276818)
(0.017373 0.0037747 -0.023787)
(0.0180597 0.0038639 -0.019794)
(0.0169901 0.00389259 -0.0161339)
(0.0145215 0.00387356 -0.0130707)
(0.0110328 0.00382969 -0.0107358)
(0.00686968 0.00378468 -0.0091767)
(0.00233024 0.00375566 -0.00839449)
(0.00409277 0.0105802 -0.0346214)
(0.0103974 0.0108786 -0.0324706)
(0.0150808 0.0112885 -0.0288844)
(0.0177069 0.0116341 -0.0246073)
(0.0182875 0.0118165 -0.0202887)
(0.0171041 0.0118226 -0.0163842)
(0.0145475 0.0116985 -0.0131552)
(0.0110108 0.0115164 -0.010718)
(0.00683848 0.0113484 -0.00910256)
(0.00231578 0.0112433 -0.00829606)
(0.00428199 0.0192133 -0.0374642)
(0.0108173 0.0195873 -0.0348336)
(0.0155035 0.0200465 -0.0305669)
(0.0179603 0.0203375 -0.0256188)
(0.0183104 0.020344 -0.0207591)
(0.0169305 0.0200839 -0.0164752)
(0.0142645 0.019657 -0.0130096)
(0.0107195 0.019192 -0.0104411)
(0.00662587 0.0188083 -0.00876193)
(0.00223844 0.0185828 -0.00793103)
(0.00447732 0.0300431 -0.0406292)
(0.0112112 0.0302825 -0.0373483)
(0.0157984 0.0304222 -0.0321939)
(0.0179615 0.0302131 -0.0264213)
(0.0179861 0.0296022 -0.0209364)
(0.0163703 0.0286928 -0.0162451)
(0.0136148 0.0276642 -0.0125513)
(0.010131 0.0267051 -0.00987563)
(0.00622098 0.0259737 -0.00815627)
(0.0020947 0.025565 -0.007315)
(0.0045344 0.0435764 -0.0424968)
(0.0112048 0.0433177 -0.0385011)
(0.0154414 0.0425707 -0.0324774)
(0.0171443 0.0412404 -0.0259992)
(0.0167909 0.039448 -0.0200758)
(0.0149914 0.0374351 -0.0151833)
(0.0122749 0.0354706 -0.0114462)
(0.00902694 0.0337914 -0.00880653)
(0.00549944 0.0325762 -0.00714244)
(0.00184441 0.0319215 -0.00633837)
(0.00420371 0.0584926 -0.0403574)
(0.0102211 0.0574146 -0.0360042)
(0.0137339 0.0552894 -0.0296669)
(0.0148454 0.0523154 -0.0231242)
(0.0141824 0.0488943 -0.0173721)
(0.0123919 0.0454491 -0.0127883)
(0.00996896 0.0423326 -0.00939618)
(0.00723435 0.0398051 -0.00706289)
(0.00436846 0.0380391 -0.00562198)
(0.00145815 0.037112 -0.00493508)
(0.0034007 0.0840667 -0.0336663)
(0.00802892 0.0807655 -0.0292019)
(0.0103582 0.0755131 -0.0231017)
(0.0107526 0.0692786 -0.0172511)
(0.00992062 0.062967 -0.0124532)
(0.00842302 0.0571904 -0.00884876)
(0.00662432 0.0523053 -0.00630522)
(0.00472821 0.0485233 -0.004619)
(0.00282528 0.0459601 -0.00360482)
(0.000940736 0.0446427 -0.00312906)
(0.000576067 0.0590922 -0.00775607)
(0.00149436 0.0560532 -0.00701487)
(0.00213499 0.0511348 -0.00542737)
(0.00216884 0.0455967 -0.00372525)
(0.00194778 0.0404397 -0.0025106)
(0.00160332 0.036003 -0.00169692)
(0.00120481 0.0324016 -0.00114686)
(0.000821555 0.0296962 -0.000800541)
(0.000475106 0.0279006 -0.000604254)
(0.000160109 0.0269929 -0.000516642)
(0.00455154 0.0916135 -0.070362)
(0.00747816 0.0843315 -0.0435174)
(0.0030505 0.0759238 -0.0124303)
(0.003219 0.0691338 -0.0036246)
(0.00584834 0.0625932 -0.00517727)
(0.00624826 0.0564846 -0.00534963)
(0.00529337 0.0513549 -0.00462246)
(0.00399527 0.0474292 -0.00403697)
(0.00248091 0.0447899 -0.00366011)
(0.000903507 0.0434581 -0.00344877)
(0.048978 0.287927 -0.864449)
(0.106658 0.267571 -0.840668)
(0.118839 0.212947 -0.622057)
(0.135777 0.13546 -0.250831)
(0.162112 0.106809 -0.0982233)
(0.128099 0.0964012 -0.0758119)
(0.0856631 0.0858219 -0.065428)
(0.0553166 0.0779813 -0.0596927)
(0.0311363 0.0732785 -0.0566952)
(0.00994714 0.0706533 -0.0538324)
(0.00764902 0.0903217 -0.634121)
(0.0666807 0.243134 -0.417334)
(0.122817 0.316597 -0.166843)
(0.149554 0.283065 -0.053832)
(0.129062 0.221163 -0.0434153)
(0.0965014 0.175532 -0.0480844)
(0.0701618 0.147165 -0.0507408)
(0.0478564 0.129195 -0.0518546)
(0.0277348 0.11859 -0.0520261)
(0.00879962 0.111768 -0.0504333)
(0.00799548 0.399121 -0.0315835)
(0.0495338 0.401701 0.0335389)
(0.0766789 0.362804 0.0493844)
(0.0777786 0.299678 0.023024)
(0.0670949 0.24597 -0.00199947)
(0.0556747 0.209086 -0.0183365)
(0.0436191 0.183446 -0.0283084)
(0.0310384 0.165976 -0.0341034)
(0.0184683 0.155168 -0.0372265)
(0.00585455 0.147018 -0.0372544)
(0.00813926 0.352128 0.118242)
(0.0215135 0.330113 0.1025)
(0.0295693 0.298414 0.0650405)
(0.0336752 0.266368 0.0339346)
(0.0335857 0.23923 0.0121283)
(0.03019 0.216941 -0.00305042)
(0.024698 0.199312 -0.0135034)
(0.0180943 0.186367 -0.0204067)
(0.0109509 0.177906 -0.0245442)
(0.00342097 0.169909 -0.0253381)
(0.00551543 0.273425 0.0772518)
(0.0111394 0.267581 0.0638658)
(0.0146307 0.258157 0.0441391)
(0.0171379 0.24536 0.0282546)
(0.0170095 0.23108 0.0146016)
(0.0153245 0.217587 0.0035862)
(0.0126433 0.20609 -0.00494027)
(0.00932256 0.19718 -0.0110721)
(0.00564314 0.19112 -0.0149915)
(0.00167307 0.183524 -0.015924)
(0.00299084 0.253717 0.0481113)
(0.0054278 0.250088 0.0436159)
(0.00628979 0.24347 0.0336127)
(0.00692602 0.234738 0.0245245)
(0.00643388 0.225224 0.0151929)
(0.00566594 0.21623 0.00706206)
(0.00458697 0.208433 0.000386801)
(0.00331124 0.202279 -0.00464446)
(0.00193708 0.198019 -0.00798129)
(0.000444776 0.190672 -0.00881503)
(0.000790831 0.241428 0.0394648)
(0.000223646 0.238062 0.0371024)
(-0.000629634 0.23261 0.029764)
(-0.000616806 0.226255 0.023101)
(-0.00102052 0.219609 0.0158408)
(-0.0010874 0.213342 0.00938407)
(-0.00103547 0.207901 0.00399903)
(-0.000894791 0.203593 -0.000132417)
(-0.000671378 0.200585 -0.00291167)
(-0.000422586 0.193309 -0.00360544)
(-0.000594047 0.227897 0.0361315)
(-0.00319019 0.225704 0.0341025)
(-0.00524861 0.222208 0.0279252)
(-0.00571952 0.21799 0.0224548)
(-0.00615685 0.213456 0.0164157)
(-0.00578478 0.209133 0.0110266)
(-0.00497556 0.205333 0.00653786)
(-0.0038512 0.202296 0.00306632)
(-0.00251224 0.200175 0.000723021)
(-0.0010355 0.19278 0.000155651)
(-0.00144908 0.216093 0.0338103)
(-0.00521662 0.21475 0.0319644)
(-0.00809845 0.212695 0.0266348)
(-0.00905958 0.209993 0.0220512)
(-0.00960786 0.20696 0.0168042)
(-0.00900462 0.204 0.012172)
(-0.0077276 0.201342 0.00830363)
(-0.00594599 0.199183 0.00531737)
(-0.00382719 0.197711 0.0033056)
(-0.00147378 0.190041 0.00282812)
(-0.00195177 0.206111 0.0314388)
(-0.00637535 0.205284 0.0298917)
(-0.00976636 0.20412 0.0253496)
(-0.0111579 0.202401 0.0215535)
(-0.0118999 0.200358 0.0169976)
(-0.0112179 0.198284 0.0129489)
(-0.00966684 0.19637 0.00954063)
(-0.00744053 0.194795 0.00691897)
(-0.00477912 0.193792 0.00515374)
(-0.00179619 0.185741 0.00473617)
(-0.00222119 0.197895 0.0291186)
(-0.00701999 0.197377 0.0280352)
(-0.0107456 0.196648 0.0242515)
(-0.0125337 0.195382 0.0211233)
(-0.0134872 0.193846 0.0171227)
(-0.0128196 0.192237 0.0135288)
(-0.0111036 0.19074 0.0104694)
(-0.00856488 0.189504 0.00809695)
(-0.00550153 0.188815 0.00650394)
(-0.00204086 0.180309 0.00611984)
(0.00521775 0.00224823 -0.046239)
(0.0132381 0.00252755 -0.0433038)
(0.0190718 0.00292948 -0.0384268)
(0.0221955 0.00331484 -0.032644)
(0.0227091 0.0036055 -0.0268402)
(0.0210511 0.00378047 -0.0216201)
(0.017766 0.00385717 -0.017321)
(0.0133643 0.00387018 -0.0140859)
(0.00826479 0.00385536 -0.0119457)
(0.00279373 0.00383902 -0.0108784)
(0.00553489 0.00745604 -0.0496473)
(0.0139734 0.00825575 -0.0462012)
(0.0199479 0.00937689 -0.0406042)
(0.0229876 0.0104237 -0.034124)
(0.0233036 0.0111755 -0.0277433)
(0.0214282 0.0115867 -0.0221015)
(0.017964 0.011721 -0.0175216)
(0.0134443 0.0116876 -0.0141153)
(0.00828566 0.0115955 -0.0118815)
(0.00279499 0.0115211 -0.0107737)
(0.00608616 0.0149374 -0.0555445)
(0.0151948 0.0160994 -0.0510669)
(0.0212947 0.0176403 -0.0440886)
(0.0240623 0.0189558 -0.0362822)
(0.0239455 0.0197593 -0.0288687)
(0.0216667 0.0200382 -0.0225175)
(0.0179269 0.0199327 -0.0174994)
(0.0132839 0.0196362 -0.0138488)
(0.00813274 0.0193288 -0.0114939)
(0.00273435 0.0191303 -0.0103387)
(0.00678099 0.0261911 -0.0627807)
(0.0166643 0.0274091 -0.0568513)
(0.0227756 0.0287955 -0.0479648)
(0.0250609 0.0296673 -0.0384513)
(0.0243304 0.0298115 -0.0297697)
(0.0215451 0.0293428 -0.0225973)
(0.0175121 0.0285221 -0.0171108)
(0.0128021 0.0276304 -0.0132269)
(0.00776719 0.0269026 -0.0107735)
(0.00259964 0.0264831 -0.00958614)
(0.00741715 0.0429311 -0.0692021)
(0.0178197 0.0434797 -0.0613642)
(0.023569 0.0436386 -0.0503146)
(0.0250862 0.0429301 -0.0390959)
(0.0236225 0.0414055 -0.0293209)
(0.0203758 0.0393934 -0.0215703)
(0.0162119 0.0372851 -0.0158549)
(0.0116618 0.0354205 -0.0119329)
(0.00699937 0.0340484 -0.00951284)
(0.00232995 0.0333054 -0.00835914)
(0.00741203 0.0630136 -0.06929)
(0.0174121 0.0624191 -0.0601518)
(0.0222578 0.060555 -0.0478918)
(0.0228436 0.0573644 -0.0360204)
(0.0207984 0.0533545 -0.0261243)
(0.0174243 0.0491742 -0.0185964)
(0.0135371 0.0453573 -0.0132494)
(0.00956302 0.0422649 -0.00969635)
(0.00567018 0.0401125 -0.00755775)
(0.00187549 0.0389901 -0.00655467)
(0.00685787 0.103713 -0.0641469)
(0.0154399 0.0983186 -0.0533946)
(0.0185718 0.0903902 -0.0402984)
(0.0179031 0.0811847 -0.028612)
(0.0154307 0.0720057 -0.0196243)
(0.012371 0.0638571 -0.013304)
(0.00929465 0.0572094 -0.00910216)
(0.00641073 0.0522101 -0.00644472)
(0.00374398 0.0488907 -0.00490013)
(0.00123197 0.0472115 -0.00419067)
(0.00163405 0.0780774 -0.0179772)
(0.00377096 0.0732773 -0.01619)
(0.00479563 0.0655633 -0.011852)
(0.00436398 0.0564733 -0.00752072)
(0.00337132 0.0480358 -0.00444028)
(0.00250324 0.0412306 -0.00271239)
(0.0017823 0.0360554 -0.00173842)
(0.00116686 0.0323337 -0.00116629)
(0.000654011 0.0299339 -0.000852232)
(0.000215365 0.0287451 -0.000715435)
(0.010599 0.1439 -0.191751)
(0.025092 0.121303 -0.12754)
(0.0219151 0.101298 -0.0564549)
(0.00746245 0.0845673 -0.0152236)
(0.00400125 0.0728274 -0.00465522)
(0.00604673 0.0638069 -0.00592138)
(0.00601432 0.0565909 -0.00605185)
(0.00459214 0.0512531 -0.00535808)
(0.00284789 0.0477578 -0.00485183)
(0.00102958 0.0460231 -0.00457959)
(0.0646856 0.314943 -0.715256)
(0.161264 0.290575 -0.748898)
(0.234186 0.286181 -0.739611)
(0.215149 0.237202 -0.543944)
(0.150172 0.145097 -0.220959)
(0.133107 0.108745 -0.119792)
(0.0975086 0.0961009 -0.10582)
(0.0608675 0.0859016 -0.093203)
(0.0339379 0.0794561 -0.0868171)
(0.010917 0.0760315 -0.081989)
(0.00319602 -0.262215 -0.797444)
(0.0355438 -0.0661124 -0.608558)
(0.0526725 0.193518 -0.345407)
(0.0807363 0.301358 -0.12426)
(0.101021 0.275202 -0.0614686)
(0.0910304 0.21589 -0.0689749)
(0.0677775 0.1731 -0.0741559)
(0.0467508 0.148178 -0.0762585)
(0.0276137 0.13373 -0.0770062)
(0.00881211 0.124871 -0.0747609)
(-0.0435504 0.258355 -0.0893749)
(-0.0463321 0.289075 0.0030776)
(-0.0142255 0.328968 0.0627716)
(0.0245736 0.323194 0.051357)
(0.0393173 0.279922 0.00905995)
(0.0386892 0.236197 -0.0200452)
(0.0333063 0.205322 -0.0375898)
(0.025251 0.184498 -0.0479282)
(0.0156072 0.171345 -0.0533187)
(0.00495833 0.161783 -0.0537311)
(-0.0107673 0.258773 0.124854)
(-0.0174868 0.268203 0.133084)
(-0.0102044 0.274425 0.099922)
(0.00380811 0.266169 0.0571946)
(0.0109919 0.248148 0.0231983)
(0.0141089 0.229537 -0.000313587)
(0.0138088 0.213103 -0.0168543)
(0.0111836 0.200134 -0.0277879)
(0.00716864 0.191273 -0.0342836)
(0.00219229 0.182773 -0.0357446)
(0.0015663 0.236821 0.0980271)
(-0.000963107 0.23724 0.0877463)
(-0.00246123 0.240396 0.0607747)
(0.000642649 0.238944 0.0403887)
(0.00227172 0.232343 0.0215847)
(0.00350163 0.223424 0.00627397)
(0.00370933 0.214371 -0.00598554)
(0.00317877 0.20669 -0.0149252)
(0.00207927 0.201167 -0.0206874)
(0.000484414 0.193566 -0.0221828)
(0.0013935 0.245315 0.0628713)
(-0.00164596 0.240043 0.059171)
(-0.00458549 0.236219 0.0446034)
(-0.00378794 0.231829 0.0335681)
(-0.00394856 0.225997 0.0209695)
(-0.00318152 0.219692 0.00996166)
(-0.00244594 0.213791 0.000721804)
(-0.00172995 0.208863 -0.00631434)
(-0.00108756 0.205309 -0.0110138)
(-0.000585003 0.198115 -0.0122609)
(-0.000580419 0.243053 0.0523301)
(-0.00547268 0.235419 0.0509803)
(-0.00903283 0.230176 0.0401121)
(-0.00885018 0.225405 0.0317879)
(-0.00923389 0.220533 0.0216338)
(-0.00816594 0.21579 0.0127975)
(-0.00673023 0.211611 0.00539283)
(-0.00503391 0.208223 -0.000299562)
(-0.00318933 0.205838 -0.00413351)
(-0.00129103 0.198667 -0.00512563)
(-0.00183717 0.232525 0.0496641)
(-0.00812074 0.225201 0.0480408)
(-0.0123098 0.221181 0.0385359)
(-0.012611 0.217745 0.0313382)
(-0.0130595 0.214239 0.022489)
(-0.0117192 0.210898 0.014943)
(-0.00974596 0.207946 0.00871007)
(-0.0073284 0.205574 0.00393487)
(-0.00463354 0.203964 0.000735532)
(-0.00177312 0.196567 -6.7644e-05)
(-0.00263678 0.220898 0.0472172)
(-0.0095923 0.214504 0.045571)
(-0.0141348 0.211845 0.0372248)
(-0.014999 0.209769 0.0309823)
(-0.0156188 0.207486 0.0230744)
(-0.0141292 0.205238 0.0164513)
(-0.0118405 0.203174 0.0110306)
(-0.00893352 0.201504 0.00691262)
(-0.0056545 0.200439 0.00416786)
(-0.00211423 0.192692 0.00349065)
(-0.00297647 0.210337 0.0431703)
(-0.0100975 0.204923 0.0423425)
(-0.0148381 0.203238 0.0354289)
(-0.0162051 0.202093 0.0302673)
(-0.0171393 0.200695 0.0232665)
(-0.0157211 0.199165 0.0174285)
(-0.0132891 0.197695 0.012635)
(-0.0100705 0.196468 0.00900851)
(-0.00638766 0.195789 0.00659608)
(-0.00235923 0.187603 0.00600431)
(-0.00280658 0.202337 0.038328)
(-0.00993812 0.197419 0.0385851)
(-0.014917 0.19616 0.0333917)
(-0.0168105 0.19532 0.0294153)
(-0.0181067 0.194226 0.0232602)
(-0.0168336 0.192996 0.018099)
(-0.014364 0.191794 0.0138086)
(-0.0109446 0.190783 0.0105331)
(-0.00695866 0.190342 0.00836128)
(-0.00255318 0.181642 0.00780844)
(0.00710042 0.000121643 -0.0593773)
(0.017885 0.000749936 -0.0550999)
(0.0253577 0.0016313 -0.0482029)
(0.0289613 0.00246385 -0.0403017)
(0.0290855 0.00311258 -0.0326111)
(0.0265103 0.00353982 -0.0258676)
(0.0220556 0.00377825 -0.0204292)
(0.0164075 0.00388619 -0.0164043)
(0.0100699 0.0039215 -0.0137736)
(0.00339085 0.00392633 -0.0124717)
(0.00778717 0.00136302 -0.0652257)
(0.019425 0.0032073 -0.0599848)
(0.027141 0.00572107 -0.051787)
(0.030556 0.00808765 -0.0427227)
(0.0303038 0.0098712 -0.0340881)
(0.0273234 0.0109963 -0.0266754)
(0.0225333 0.0115786 -0.0208032)
(0.0166514 0.0118012 -0.0165185)
(0.010174 0.0118405 -0.0137473)
(0.00341723 0.0118195 -0.0123851)
(0.00911095 0.00598702 -0.0763933)
(0.0222732 0.00884263 -0.0690368)
(0.0302889 0.0125924 -0.0582456)
(0.0331813 0.0159251 -0.046725)
(0.0320759 0.0182448 -0.0362774)
(0.0283 0.0195283 -0.027655)
(0.022933 0.0200195 -0.0210493)
(0.0167247 0.0200412 -0.0163589)
(0.0101293 0.0198833 -0.013386)
(0.00338728 0.0197405 -0.0119436)
(0.0109181 0.0163313 -0.0913104)
(0.026043 0.0199395 -0.0808341)
(0.0342153 0.024166 -0.066093)
(0.0361685 0.0273825 -0.0513104)
(0.0338456 0.0291417 -0.0385093)
(0.0290306 0.029636 -0.028399)
(0.0229848 0.0293065 -0.0209469)
(0.0164676 0.0286192 -0.0158259)
(0.00985523 0.0279531 -0.0126609)
(0.00327594 0.0275431 -0.0111504)
(0.0131074 0.0369979 -0.107801)
(0.0301492 0.0399721 -0.0926243)
(0.037763 0.0426151 -0.0729762)
(0.0381681 0.0436567 -0.0544336)
(0.0343289 0.0430872 -0.0392724)
(0.0284605 0.0414334 -0.0278671)
(0.0219118 0.0393302 -0.0198226)
(0.0153679 0.0373201 -0.0144992)
(0.00906718 0.0357899 -0.011302)
(0.0029926 0.034951 -0.00980373)
(0.0142393 0.0635067 -0.115397)
(0.0317252 0.0653138 -0.0962815)
(0.0379569 0.0652538 -0.0729633)
(0.0366639 0.0627645 -0.0523721)
(0.0316264 0.0585729 -0.0363185)
(0.0252716 0.0537052 -0.0247619)
(0.0188686 0.0490781 -0.0169577)
(0.0129245 0.0452872 -0.0119874)
(0.00750496 0.0426465 -0.00909001)
(0.0024566 0.0412756 -0.00775861)
(0.01538 0.131711 -0.116354)
(0.0321808 0.122729 -0.0936831)
(0.0353519 0.110921 -0.0668767)
(0.031527 0.0977268 -0.0449839)
(0.0252632 0.0845971 -0.0291009)
(0.0189527 0.0729667 -0.0185772)
(0.0134831 0.0637044 -0.0120364)
(0.00892838 0.0569526 -0.00814456)
(0.0050754 0.0525754 -0.00598187)
(0.00164725 0.0503984 -0.00501543)
(0.00513614 0.106489 -0.0448834)
(0.0112724 0.0997549 -0.0346913)
(0.0124412 0.0877725 -0.0248674)
(0.00993005 0.0733631 -0.0149923)
(0.00680355 0.0597663 -0.00799963)
(0.00431096 0.0489047 -0.00420198)