/*--------------------------------*- C++ -*----------------------------------*\
| =========                 |                                                 |
| \\      /  F ield         | OpenFOAM: The Open Source CFD Toolbox           |
|  \\    /   O peration     | Version:  2312                                  |
|   \\  /    A nd           | Website:  www.openfoam.com                      |
|    \\/     M anipulation  |                                                 |
\*---------------------------------------------------------------------------*/
FoamFile
{
    version     2.0;
    format      ascii;
    arch        "LSB;label=32;scalar=64";
    class       volVectorField;
    location    "1.19";
    object      U;
}
// * * * * * * * * * * * * * * * * * * * * * * * * * * * * * * * * * * * * * //

dimensions      [0 1 -1 0 0 0 0];

internalField   nonuniform List<vector> 
8000
(
(0.00699547 0.000665781 -0.00339186)
(0.00973356 0.000973278 -0.00318128)
(0.0108907 0.00147273 -0.00282609)
(0.0106208 0.0020678 -0.00250402)
(0.00922235 0.00263183 -0.00243109)
(0.00717872 0.00362454 -0.00315146)
(0.00466416 0.00561738 -0.00564878)
(0.00269463 0.00516374 -0.00701242)
(0.00464553 0.0027184 -0.00326023)
(0.00430268 0.0027282 -0.000477855)
(0.00786101 0.00114414 -0.00334437)
(0.0115209 0.00365255 -0.00361679)
(0.0137923 0.00552385 -0.00345563)
(0.0145077 0.00734085 -0.00319736)
(0.0137461 0.00994814 -0.00326959)
(0.0121833 0.0143252 -0.00465207)
(0.00654701 0.0185255 -0.00763193)
(-0.000832084 0.0132263 -0.00614166)
(-0.00215447 3.63171e-05 0.00566199)
(0.00379666 0.00915822 0.00315139)
(0.010525 -0.000257412 0.000158676)
(0.0153634 0.00451965 -0.00189241)
(0.0166894 0.00767453 -0.00280437)
(0.017901 0.011484 -0.00296217)
(0.0191156 0.0169109 -0.00322922)
(0.0191615 0.0245288 -0.00315095)
(0.00673207 0.0296028 -0.00229926)
(-0.00945328 0.00740896 0.00759095)
(-0.00801776 -0.0279579 0.0104353)
(-0.00335151 -0.000661608 0.00342342)
(0.00919085 -0.0150598 0.00123325)
(0.0187237 0.00285798 0.00176472)
(0.0228631 0.0111944 3.16394e-05)
(0.0247032 0.0153903 -0.000681128)
(0.0267568 0.0210876 -0.000356928)
(0.0281289 0.028726 0.00155064)
(0.0133666 0.0295092 0.00745372)
(-0.000970133 -0.00809026 0.0112728)
(-0.00495392 -0.0440431 0.00203522)
(-0.00357852 -0.0205198 0.00132238)
(0.00638302 -0.0265925 -0.0049103)
(0.0163282 -0.0118783 -0.000169904)
(0.0259185 0.00440389 0.00239446)
(0.0322874 0.0147863 0.00319616)
(0.0362107 0.0201953 0.0045448)
(0.0393668 0.0250745 0.00713312)
(0.033194 0.024096 0.0102121)
(0.0201304 -0.00788095 0.0108243)
(0.00132738 -0.0331154 -0.00561491)
(0.00402014 -0.0204637 0.00103139)
(0.00407316 -0.0286048 -0.0120519)
(0.0159659 -0.0244053 -0.00888367)
(0.0298578 -0.0135905 -0.00500099)
(0.0420789 -0.00214663 -0.00263096)
(0.04915 0.00556382 -0.000594092)
(0.0506432 0.0116331 0.00412891)
(0.0468266 0.0154881 0.0105298)
(0.0282053 -0.00479108 0.0100428)
(0.00441075 -0.0117731 -0.0131772)
(0.00738391 -0.00231873 -0.00476643)
(0.00289803 -0.024084 -0.0195828)
(0.0176028 -0.0252221 -0.0168523)
(0.0324866 -0.0173895 -0.0142681)
(0.0487527 -0.001215 -0.0116826)
(0.0585398 0.00979342 -0.00800386)
(0.0594669 0.0106712 -0.00189046)
(0.0488939 0.00660006 0.00661623)
(0.0287732 -0.000400985 -0.000597192)
(0.0107108 0.00425361 -0.0152063)
(0.00989283 0.00718915 -0.0028884)
(-0.00522485 -0.0137115 -0.0202608)
(0.0204977 -0.0112675 -0.0178033)
(0.035858 -0.00628881 -0.0158115)
(0.0486109 0.00425356 -0.012981)
(0.05835 0.0134225 -0.0123656)
(0.0572315 0.0208748 -0.0189104)
(0.0458849 0.0253435 -0.026524)
(0.0354003 0.0316614 -0.0322831)
(0.0349828 0.0324623 -0.0233437)
(0.0243258 0.0289927 0.00124141)
(-0.0539278 -0.0217938 0.00682275)
(0.0140704 -0.0128794 0.00714584)
(0.0806209 0.0095969 0.00354207)
(0.120941 0.0248773 -0.00151644)
(0.14251 0.0442125 -0.00588804)
(0.14522 0.0681207 -0.0102817)
(0.123035 0.0785718 -0.0140027)
(0.0805424 0.0666137 -0.0210456)
(0.0574334 0.0548942 -0.0181879)
(0.031979 0.0618237 0.00897297)
(0.0245297 -0.0980985 0.0157817)
(0.0225249 -0.104295 0.0126321)
(0.0252853 -0.0753059 0.0128904)
(0.00449155 -0.0164504 0.0028587)
(0.0494611 0.052723 -0.0161735)
(0.108117 0.0818775 -0.00278334)
(0.162077 0.126381 -0.00114235)
(0.178891 0.139185 -0.0131352)
(0.0663554 0.113877 -0.043614)
(0.00942545 0.150297 -0.0743731)
(-0.014552 -0.166056 -0.00709558)
(0.0184594 -0.162623 0.0109252)
(0.0271165 -0.158101 0.032989)
(0.00890504 -0.10391 0.0425264)
(0.0271878 -0.0839894 0.0434488)
(0.0828323 -0.172422 0.0451833)
(0.15194 -0.00245308 0.0194235)
(0.133526 0.155126 -0.0206995)
(0.000694919 0.196551 -0.0647173)
(-0.0117603 0.212382 -0.0751996)
(-0.0466278 -0.182483 -0.0501705)
(0.0136305 -0.196595 -0.0190396)
(0.0250691 -0.203951 0.0195208)
(-0.0192739 -0.162112 0.0393874)
(0.0351582 -0.135889 0.026291)
(0.087482 -0.211142 0.0213215)
(0.0916604 -0.0296091 0.0372269)
(0.0687544 0.224944 -0.0169878)
(-0.0349606 0.29849 -0.0674528)
(-0.0157873 0.282691 -0.0571024)
(-0.086748 -0.181928 -0.0659869)
(-0.0179435 -0.183324 -0.0440352)
(-0.0102131 -0.198198 -0.0196332)
(-0.0542178 -0.189778 -0.0227723)
(0.0181211 -0.17118 -0.0724322)
(0.0832849 -0.182524 -0.0485482)
(0.0767279 -0.0561785 0.0339461)
(0.0253616 0.265524 0.000956993)
(-0.0537497 0.368065 -0.0490795)
(-0.0186573 0.311457 -0.0219373)
(-0.177029 -0.200525 -0.0432004)
(-0.108652 -0.173845 -0.0485702)
(-0.0779886 -0.158783 -0.0591921)
(-0.0688312 -0.151892 -0.0918622)
(0.0228472 -0.146052 -0.131384)
(0.0890763 -0.129701 -0.0594052)
(0.0561532 -0.0369621 0.0378498)
(-0.0330886 0.281197 0.0189174)
(-0.0753618 0.383913 -0.0115128)
(-0.02885 0.276206 0.0231895)
(-0.258555 -0.207647 -0.033646)
(-0.207501 -0.158102 -0.0508792)
(-0.144436 -0.116693 -0.0858567)
(-0.0699443 -0.0998316 -0.132022)
(0.0052979 -0.107341 -0.128403)
(0.0574129 -0.0786786 -0.0172083)
(-0.0262362 0.0243945 0.0598819)
(-0.123403 0.282406 0.0367772)
(-0.112652 0.323598 0.0318628)
(-0.0464293 0.163316 0.0438733)
(-0.313441 -0.228047 -0.0260328)
(-0.27251 -0.151373 -0.0374058)
(-0.198579 -0.0831779 -0.0732337)
(-0.104012 -0.0498846 -0.107707)
(-0.0617903 -0.046136 -0.0596757)
(-0.0888687 -0.00465401 0.0457381)
(-0.186402 0.0830023 0.0595523)
(-0.207863 0.201343 0.0344719)
(-0.138439 0.14703 0.0189981)
(-0.0425876 -0.000616367 -0.00791194)
(-0.333004 -0.25427 -0.0252752)
(-0.304194 -0.161943 -0.0189806)
(-0.256878 -0.0582874 0.000920826)
(-0.213334 0.00515579 0.0155684)
(-0.222792 0.0122409 0.0418592)
(-0.267845 0.0167888 0.0464513)
(-0.287076 0.0533643 0.00577937)
(-0.225787 0.0685284 -0.0393186)
(-0.113375 0.0045311 -0.0634086)
(-0.0163571 -0.0429098 -0.05154)
(-0.317314 -0.256416 -0.0277158)
(-0.297592 -0.198108 -0.0359905)
(-0.26465 -0.0994319 -0.00788697)
(-0.25365 -0.0257078 0.0439911)
(-0.28333 0.00270637 0.0472835)
(-0.30326 0.0220821 0.00708992)
(-0.269313 0.0419515 -0.0460402)
(-0.180068 0.0330952 -0.0839557)
(-0.0775098 -0.00538352 -0.0865001)
(-0.0109113 -0.0183256 -0.0546023)
(-0.277999 -0.218271 -0.020512)
(-0.261027 -0.207168 -0.0391767)
(-0.229413 -0.145192 -0.0602575)
(-0.189593 -0.0860968 -0.0317349)
(-0.183725 -0.0443419 0.019426)
(-0.201985 -0.0104926 0.0153243)
(-0.184437 0.0100144 -0.0217366)
(-0.1274 0.0143571 -0.0502642)
(-0.0744852 0.00308441 -0.0607985)
(-0.026158 0.0088166 -0.0611219)
(-0.237555 -0.171671 -0.0110379)
(-0.211422 -0.180753 -0.0157552)
(-0.189092 -0.153947 -0.0442361)
(-0.145308 -0.106096 -0.0748659)
(-0.0989207 -0.0669093 -0.0652373)
(-0.0819527 -0.0449202 -0.0336293)
(-0.0786965 -0.0139471 -0.0200644)
(-0.0651242 0.0181538 -0.0269567)
(-0.0480026 0.0199045 -0.0390279)
(-0.0210988 0.0108846 -0.0492864)
(0.00668867 0.000357258 -0.00555742)
(0.00721295 0.000597222 -0.00536432)
(0.00657842 0.00105639 -0.00505748)
(0.00535725 0.00153249 -0.00527755)
(0.00336938 0.00178607 -0.006608)
(0.00054119 0.00199596 -0.0110211)
(-0.00145566 0.0015486 -0.0163536)
(-3.50735e-05 -0.000237391 -0.0124668)
(0.00669376 0.00242027 -0.00191365)
(0.00690896 0.00475934 -0.00237616)
(0.007653 -0.000996076 -0.0050636)
(0.00940442 0.00199766 -0.00571069)
(0.00992386 0.00382904 -0.00586535)
(0.00897807 0.00581057 -0.00662809)
(0.00608279 0.00892755 -0.00957613)
(-0.000616658 0.0113874 -0.0123848)
(-0.0122935 0.00550608 -0.00269286)
(-0.0189709 -0.0118815 0.0144069)
(-0.00988179 -0.0140032 0.0198139)
(0.00709807 0.0127289 0.00352718)
(0.010932 -0.00205547 0.00100544)
(0.0116143 0.00144885 -0.00377801)
(0.0105704 0.00521248 -0.00564432)
(0.0109417 0.0109872 -0.0077087)
(0.00992803 0.0185342 -0.00924266)
(0.0022376 0.0200582 0.000331133)
(-0.0149408 0.00461129 0.0186281)
(-0.0173286 -0.0304516 0.0231189)
(-0.00970291 -0.0382671 0.0193472)
(-0.00449777 0.0109396 0.0138282)
(0.0100117 -0.0105296 0.00731886)
(0.0169794 0.00684747 0.00171972)
(0.0162272 0.0100351 -0.00293328)
(0.0171402 0.0145856 -0.00628083)
(0.0201908 0.023738 -0.00569305)
(0.022013 0.0273986 0.00863861)
(0.00931773 0.012145 0.025515)
(0.00934617 -0.0341453 0.022464)
(0.00553286 -0.0372071 0.00349477)
(-0.00791228 -0.00646375 0.0085635)
(0.00718112 -0.0216671 0.00208683)
(0.0157955 -0.0010211 0.00499675)
(0.0219053 0.0130506 0.00375473)
(0.0265839 0.0204184 0.00170035)
(0.032961 0.0272625 0.00182374)
(0.040916 0.0307369 0.0104682)
(0.041864 0.0179612 0.0225759)
(0.0336088 -0.0226805 0.0239867)
(0.0135556 -0.0158511 -0.00478852)
(-0.000922709 0.0031626 -0.00612291)
(0.00801609 -0.0181074 -0.0109543)
(0.0102397 -0.00685661 -0.0052648)
(0.0229716 0.00442573 -0.00137497)
(0.0353753 0.0135435 -8.03255e-05)
(0.0448784 0.0219163 0.0027574)
(0.0512874 0.0265938 0.0104398)
(0.0545619 0.0179892 0.0226246)
(0.0358347 -0.00255942 0.0181087)
(0.00310354 0.016703 -0.0155843)
(-0.00214321 0.0305411 -0.0191819)
(0.00755611 -0.015847 -0.0338079)
(0.0148224 -0.0181327 -0.0302961)
(0.0271365 -0.0109489 -0.0277967)
(0.0436298 0.00679748 -0.0229487)
(0.0548264 0.0214893 -0.0140919)
(0.0580386 0.0277607 0.000845595)
(0.0550315 0.0246005 0.0138824)
(0.0316128 0.0286902 0.000914303)
(-0.00185929 0.0304044 -0.0153371)
(-0.00186104 0.027354 -0.0112787)
(-0.00619179 -0.0157746 -0.0483497)
(0.0177348 -0.01335 -0.0477741)
(0.0324774 -0.00982142 -0.046773)
(0.0447357 0.000660043 -0.0440349)
(0.0596972 0.0157582 -0.0411585)
(0.0680202 0.0319397 -0.039253)
(0.0651487 0.0480095 -0.0338503)
(0.0491081 0.059257 -0.0304623)
(0.029372 0.0574662 -0.0293527)
(0.016659 0.0430303 -0.00168766)
(-0.0881586 -0.0241072 -0.00354737)
(-0.00763674 -0.0205835 -0.00940925)
(0.0670636 0.000160152 -0.0145725)
(0.122749 0.0208627 -0.0272242)
(0.162784 0.0389311 -0.0326276)
(0.187115 0.0522175 -0.0305835)
(0.189489 0.0684101 -0.023636)
(0.166688 0.0831166 -0.00765839)
(0.121448 0.0943839 0.00475338)
(0.0604831 0.118115 0.0203811)
(-0.116244 0.00568035 0.0598743)
(-0.0799147 -0.00827303 0.0708892)
(-0.0419684 0.000451836 0.12753)
(0.00440024 0.0492316 0.124415)
(0.055693 0.0794068 0.0951404)
(0.14847 0.0982249 0.093101)
(0.231645 0.133815 0.0893371)
(0.263473 0.161157 0.0698559)
(0.176906 0.201827 0.0128977)
(0.0711333 0.296416 -0.0788055)
(-0.140145 0.0954219 0.0516913)
(-0.106602 0.0687503 0.0803212)
(-0.0732547 0.000990157 0.122346)
(-0.0446558 -0.0705347 0.116638)
(-0.0186762 -0.128456 0.0746005)
(0.0569686 -0.17611 0.0696953)
(0.205612 0.0412542 0.101666)
(0.241715 0.21244 0.0635182)
(0.097458 0.296157 -0.00191876)
(0.0280898 0.380053 -0.0822456)
(-0.112685 0.119699 -0.0570853)
(-0.0578931 0.120707 -0.00520792)
(-0.0174451 0.0312283 0.058893)
(-0.014238 -0.0793337 0.048551)
(0.00518015 -0.160525 -0.0559616)
(0.0146768 -0.232502 -0.0887732)
(0.0993589 -0.00635928 0.044654)
(0.172057 0.271108 0.0477814)
(0.0260093 0.369672 -0.00918772)
(-0.00528689 0.424254 -0.0708132)
(-0.044346 0.0905758 -0.121584)
(0.0151511 0.105126 -0.0946902)
(0.0704746 0.0389651 -0.0258329)
(0.0140024 -0.0710825 -0.0222015)
(0.0188717 -0.17587 -0.124181)
(0.0179154 -0.195188 -0.138334)
(0.0509452 -0.0731978 0.0178232)
(0.104087 0.284741 0.0500503)
(-0.0223758 0.414263 -0.00060939)
(-0.0297324 0.426692 -0.0483849)
(-0.118364 -0.0784837 -0.0631998)
(0.0293112 0.0595808 -0.091961)
(0.0758144 0.0521037 -0.0673098)
(0.00951379 -0.0427514 -0.0849535)
(-0.00713596 -0.182622 -0.166063)
(-0.0350023 -0.171002 -0.125762)
(0.0132556 -0.0523641 0.0256624)
(0.03416 0.300142 0.0745039)
(-0.064707 0.438398 0.0314798)
(-0.0487099 0.404255 -0.0010532)
(-0.260863 -0.228343 -0.0350289)
(-0.11982 -0.0550432 -0.0934952)
(-0.00485454 0.057483 -0.116525)
(-0.000150353 -0.0250971 -0.153445)
(-0.0921489 -0.174972 -0.160786)
(-0.107621 -0.124757 -0.0721223)
(-0.0827404 0.0317368 0.0414356)
(-0.0799844 0.327984 0.104333)
(-0.115572 0.438036 0.079324)
(-0.0644918 0.333575 0.0541589)
(-0.322968 -0.297735 -0.000495705)
(-0.259384 -0.166768 -0.067602)
(-0.122611 -0.0149966 -0.157508)
(-0.0736567 -0.0326804 -0.176087)
(-0.183389 -0.11458 -0.114178)
(-0.217257 -0.0318746 -0.0271153)
(-0.227304 0.125388 0.0515908)
(-0.198659 0.310329 0.0980635)
(-0.153073 0.350925 0.0873628)
(-0.0622619 0.202959 0.0526959)
(-0.311194 -0.298859 0.00427458)
(-0.317327 -0.222704 0.00169943)
(-0.245274 -0.0658482 -0.0685089)
(-0.193525 -0.028677 -0.0883765)
(-0.27317 -0.0169864 -0.0291495)
(-0.338107 0.0640647 -0.000166433)
(-0.327765 0.165622 0.00073266)
(-0.244865 0.237575 0.00620939)
(-0.130481 0.212358 -0.00730361)
(-0.0222923 0.0693269 -0.0310881)
(-0.256603 -0.233327 -0.0511866)
(-0.295455 -0.234233 0.0231838)
(-0.32073 -0.0807972 0.0485434)
(-0.320463 0.0274747 0.060136)
(-0.368734 0.0533189 0.0502675)
(-0.388385 0.0766587 0.00939585)
(-0.330927 0.0609709 -0.0376375)
(-0.211788 0.0191624 -0.0699724)
(-0.0863895 0.0105992 -0.0874919)
(-1.3809e-05 0.017429 -0.0854641)
(-0.194333 -0.122382 -0.122825)
(-0.207089 -0.197165 -0.0317587)
(-0.253758 -0.155464 0.0257971)
(-0.282617 -0.00933359 0.0567681)
(-0.291204 0.021538 0.0742587)
(-0.275219 -0.0124043 0.0443202)
(-0.196395 -0.0782662 0.00901776)
(-0.122712 -0.129149 -0.0209423)
(-0.0684406 -0.102093 -0.0534798)
(-0.00312837 -0.0409534 -0.0623718)
(-0.15409 -0.0392608 -0.140438)
(-0.124805 -0.0949253 -0.0866489)
(-0.120632 -0.170294 -0.00996574)
(-0.149933 -0.171191 0.0123981)
(-0.11683 -0.0985889 0.0351263)
(-0.0885487 -0.0896438 0.0560537)
(-0.0755362 -0.13612 0.0538633)
(-0.0787319 -0.156403 0.0232438)
(-0.0596806 -0.133894 -0.0204143)
(-0.0010847 -0.0925836 -0.0244513)
(0.00651722 -0.00035656 -0.00556548)
(0.00704465 0.000199495 -0.0056143)
(0.00618312 0.00070907 -0.00558899)
(0.00425202 0.00114069 -0.00606563)
(-0.000305076 0.00103596 -0.0075448)
(-0.00655424 -0.000861407 -0.0101366)
(-0.00736613 -0.00737171 -0.00851099)
(0.000694938 -0.0129485 -0.0016743)
(0.0153911 -0.000227191 0.000785742)
(0.00898032 0.00704734 -0.00446344)
(0.00743453 -0.00334873 -0.00549629)
(0.00906573 -0.000305012 -0.00628068)
(0.00941512 0.00238359 -0.0067635)
(0.00743514 0.00525767 -0.00820124)
(0.000276696 0.00781368 -0.0103926)
(-0.0114177 0.00062011 -0.00548458)
(-0.0192434 -0.0193398 0.0114898)
(-0.0172459 -0.0309105 0.0233029)
(-0.00620403 -0.00968833 0.0220065)
(0.0122463 0.0184288 -0.00431619)
(0.00936048 -0.004863 -0.00115684)
(0.00946301 -0.00165193 -0.00604697)
(0.0095789 0.00324254 -0.00814962)
(0.00903735 0.0106584 -0.0105174)
(0.00320145 0.0160295 -0.00978755)
(-0.00564921 0.00538856 0.00436045)
(-0.0126915 -0.0191311 0.0217915)
(-0.0081921 -0.0433457 0.0232434)
(-0.0119439 -0.0208091 0.0188781)
(0.00608031 0.0299106 0.00431684)
(0.0105509 -0.0032469 0.00619796)
(0.0137032 0.00353198 -0.00178248)
(0.0132949 0.00637199 -0.00739605)
(0.0148997 0.0145242 -0.0118655)
(0.0149615 0.0222846 -0.0108502)
(0.0158851 0.0159844 0.00357548)
(0.0123867 -0.00602223 0.0197578)
(0.0184623 -0.0369561 0.0167712)
(-0.00367857 -0.0123796 -0.00228114)
(-0.00192814 0.0342743 0.0077362)
(0.00824519 -0.00861714 0.00261941)
(0.0162888 0.00431791 -0.000166304)
(0.018697 0.010808 -0.00419906)
(0.022469 0.0175647 -0.00906564)
(0.0275017 0.0255201 -0.0102454)
(0.0330814 0.0247852 -0.000205065)
(0.0358875 0.0066033 0.0184992)
(0.031695 -0.0180325 0.0153539)
(0.0013354 0.00764418 -0.0202073)
(-0.00236167 0.0439287 -0.0127621)
(0.00862267 -0.00496867 -0.0108634)
(0.012645 0.0080961 -0.007138)
(0.0214099 0.0175693 -0.00590133)
(0.0309519 0.0243708 -0.00795064)
(0.0396594 0.0313389 -0.00786887)
(0.044696 0.0323003 0.00136456)
(0.0455495 0.0190401 0.0182348)
(0.0268081 0.0145536 0.00415512)
(-0.00425589 0.0443777 -0.0300304)
(-0.00305332 0.0621342 -0.0318257)
(0.0101092 -0.00275049 -0.0330827)
(0.0152293 -0.00157825 -0.0271375)
(0.0269577 0.00326034 -0.0266935)
(0.0413451 0.0166276 -0.0265218)
(0.0521391 0.0332483 -0.0193822)
(0.0552674 0.0422879 -0.00753735)
(0.0497437 0.0428196 0.00108669)
(0.0250418 0.0473059 -0.0125607)
(-0.00608576 0.0486281 -0.0247948)
(-0.00455396 0.0471958 -0.0227011)
(0.00169585 -0.0153057 -0.0601013)
(0.0217989 -0.00846528 -0.0590374)
(0.0353597 -0.00620939 -0.0595701)
(0.0444014 0.00164797 -0.0587828)
(0.0544214 0.0199544 -0.0556139)
(0.0617071 0.041922 -0.0466863)
(0.0627652 0.0601578 -0.0406451)
(0.0543251 0.0721303 -0.0410679)
(0.0362 0.073513 -0.0461485)
(0.0136663 0.0590552 -0.0395874)
(-0.0620347 -0.0358053 -0.106961)
(0.00841746 -0.0336574 -0.119905)
(0.0724004 -0.0164466 -0.122474)
(0.126471 0.00886145 -0.134854)
(0.152839 0.0316376 -0.132977)
(0.160965 0.0509918 -0.110903)
(0.160384 0.0733051 -0.0816582)
(0.14822 0.0950054 -0.0540519)
(0.126954 0.122578 -0.0457686)
(0.0870881 0.168217 -0.0571506)
(-0.131085 0.0507694 -0.227239)
(-0.101018 0.0298276 -0.233529)
(-0.0458857 0.0494451 -0.145441)
(0.0110986 0.0967899 -0.0579266)
(0.0714855 0.1371 -0.046864)
(0.116935 0.156776 -0.0232969)
(0.144582 0.180397 -0.0312176)
(0.113608 0.205705 -0.0469812)
(0.0793248 0.259303 -0.0695001)
(0.0833106 0.353415 -0.120182)
(-0.180931 0.236402 -0.133198)
(-0.15293 0.221594 -0.129031)
(-0.109455 0.200397 -0.0270502)
(-0.0476 0.173819 0.0925944)
(0.0162534 0.17537 0.0943374)
(0.0887214 0.182154 0.0718146)
(0.140073 0.24682 0.011474)
(0.0775467 0.262724 -0.0160997)
(-0.0293074 0.301305 -0.0352642)
(0.0418825 0.405008 -0.114373)
(-0.213569 0.266351 -0.116189)
(-0.176348 0.263322 -0.0840923)
(-0.13572 0.24984 0.0223542)
(-0.0959531 0.17812 0.110463)
(-0.042448 0.0981814 0.0845024)
(0.0374032 0.0801635 0.0496333)
(0.113968 0.218181 0.0535877)
(0.0940765 0.299179 0.0363477)
(-0.0628605 0.293658 0.00388831)
(0.0116029 0.383039 -0.0912749)
(-0.146497 0.226095 -0.114927)
(-0.157499 0.202878 -0.0839492)
(-0.146324 0.21125 0.0157658)
(-0.12034 0.0926487 0.0395887)
(-0.0396459 -0.135423 -0.0604916)
(-0.0264899 -0.139313 -0.0998995)
(0.0806848 0.0565086 0.029648)
(0.117592 0.279862 0.0811609)
(-0.0155353 0.298739 0.0484728)
(-0.0140918 0.358623 -0.0529752)
(-0.0424893 0.175296 -0.0402639)
(-0.0135884 0.220116 -0.0822721)
(-0.0793535 0.174522 -0.0347237)
(-0.066105 0.0270186 -0.0137314)
(-0.123853 -0.225946 -0.101839)
(-0.165236 -0.201818 -0.134726)
(-0.065573 -0.0106531 -0.0809338)
(0.0675302 0.216879 0.0825137)
(0.00410362 0.293798 0.0887966)
(-0.0394825 0.348067 0.00969426)
(-0.188941 -0.128284 -0.00611149)
(-0.013248 0.0952479 -0.0426996)
(0.0168146 0.192062 -0.0576023)
(-0.0240956 0.0148067 -0.03213)
(-0.228005 -0.246142 -0.0839392)
(-0.279424 -0.223844 -0.0992926)
(-0.199421 -0.0599162 -0.0430088)
(-0.0641662 0.166428 0.0859097)
(-0.0662484 0.300718 0.120958)
(-0.0621788 0.307529 0.0693101)
(-0.306125 -0.265295 -0.0252612)
(-0.213838 -0.144874 -0.0389936)
(-0.0548402 0.0809749 -0.0796775)
(-0.086347 0.00694982 -0.0596418)
(-0.317433 -0.205632 -0.0493904)
(-0.379252 -0.205577 -0.0372003)
(-0.319387 -0.0715164 0.00151331)
(-0.202664 0.136978 0.0780005)
(-0.117583 0.25537 0.116743)
(-0.0546961 0.207803 0.0763251)
(-0.303634 -0.240011 -0.0590662)
(-0.29152 -0.229747 0.00511681)
(-0.220403 -0.0896658 -0.0385403)
(-0.200913 -0.0557678 -0.0411439)
(-0.331156 -0.184074 0.0190759)
(-0.359998 -0.26657 0.0272664)
(-0.312018 -0.249597 0.0136172)
(-0.20914 -0.102448 0.012551)
(-0.078072 0.0914327 0.0232508)
(-0.00212293 0.115879 0.0131152)
(-0.24734 -0.135801 -0.14935)
(-0.275795 -0.199049 0.012989)
(-0.268628 -0.126057 0.0767364)
(-0.232951 -0.0573275 0.0678227)
(-0.256016 -0.131563 0.0929599)
(-0.279598 -0.248568 0.0783433)
(-0.270875 -0.321289 0.0395939)
(-0.219035 -0.273197 0.00582307)
(-0.105501 -0.130325 -0.0153177)
(0.00266634 0.0422942 -0.0330403)
(-0.171516 -0.0242821 -0.229649)
(-0.208907 -0.109465 -0.0891052)
(-0.209977 -0.149646 0.0699125)
(-0.206713 -0.120339 0.121978)
(-0.178546 -0.142073 0.128644)
(-0.185274 -0.246074 0.101119)
(-0.216838 -0.327003 0.0414111)
(-0.214301 -0.331736 -0.0201109)
(-0.136019 -0.247128 -0.0416006)
(-0.017666 -0.0713484 -0.0195287)
(-0.108665 0.0340142 -0.226814)
(-0.132839 -0.0239414 -0.176159)
(-0.0888397 -0.0838841 -0.0628851)
(-0.0694051 -0.172773 0.0525559)
(-0.0640974 -0.219536 0.103182)
(-0.0874268 -0.25824 0.105722)
(-0.15037 -0.308176 0.0530425)
(-0.17446 -0.3439 -0.0251344)
(-0.129781 -0.302577 -0.0670443)
(-0.0419312 -0.132215 -0.0426921)
(0.00645048 -0.000237222 -0.00454035)
(0.00732288 0.000241007 -0.00492343)
(0.00689861 0.000755221 -0.00520932)
(0.00509877 0.00112676 -0.00520217)
(0.000652257 0.000781234 -0.00490207)
(-0.00586362 -0.00195451 -0.00282028)
(-0.00602934 -0.00757478 0.00272888)
(0.00665579 -0.0122034 0.0074396)
(0.020574 -0.000352036 0.00179212)
(0.00767669 0.00598715 -0.0051851)
(0.00718519 -0.00372829 -0.00477846)
(0.00871062 -0.00143325 -0.00567053)
(0.00943189 0.00137591 -0.00643506)
(0.00786957 0.00405532 -0.00727093)
(0.000652858 0.00598786 -0.00725302)
(-0.0101123 0.000163305 -0.000335335)
(-0.0120884 -0.0206215 0.0154798)
(-0.00378003 -0.0324619 0.0252943)
(0.00903021 0.00202542 0.0151011)
(0.0104795 0.0194482 -0.00928999)
(0.00835781 -0.00648449 -0.00431532)
(0.00928149 -0.0036401 -0.0072935)
(0.0104919 0.00126604 -0.00910448)
(0.00940523 0.00800605 -0.0105285)
(0.00264094 0.0131516 -0.00941669)
(-0.00489564 0.00381451 0.00073387)
(-0.00277607 -0.0229118 0.0141776)
(0.00282988 -0.0366965 0.0207285)
(-0.00894665 0.00260327 0.0142032)
(0.00842226 0.0317065 -0.0114459)
(0.0106834 -0.00440111 -0.00153925)
(0.0129442 -0.00273806 -0.00665169)
(0.0140694 0.001948 -0.0107525)
(0.0146444 0.011234 -0.0137679)
(0.0122892 0.0187596 -0.014015)
(0.0113261 0.0111629 -0.00809401)
(0.014999 -0.0136352 0.00294773)
(0.0177409 -0.0251787 0.00812619)
(-0.010113 0.0149933 -0.00451318)
(0.00125155 0.042462 -0.0144169)
(0.0107176 -0.00274591 -0.00418306)
(0.0173608 0.000814989 -0.00876442)
(0.0195229 0.00448316 -0.0131453)
(0.0212113 0.0124734 -0.0177264)
(0.0219207 0.0206116 -0.0191869)
(0.0235416 0.0159619 -0.0136756)
(0.0268651 -0.00251497 0.00238544)
(0.0203007 -0.00376096 0.00032058)
(-0.00667661 0.0327211 -0.0258816)
(-0.00469908 0.0503965 -0.0296157)
(0.0114142 -0.00217018 -0.0163067)
(0.0188371 0.00376264 -0.0154521)
(0.0238534 0.0121208 -0.0156169)
(0.0289268 0.0209164 -0.0179311)
(0.0342326 0.0270992 -0.0184731)
(0.0366882 0.0247316 -0.0103015)
(0.0334314 0.0185782 0.00351407)
(0.0141447 0.0319388 -0.00893338)
(-0.0057583 0.0586009 -0.0356373)
(-0.00376053 0.0598514 -0.0416657)
(0.015423 -0.00493538 -0.0342908)
(0.0230133 -0.00188906 -0.0292868)
(0.0299434 0.00469204 -0.0267446)
(0.0395065 0.0148169 -0.0276507)
(0.0489755 0.0296957 -0.0242635)
(0.0511797 0.0426977 -0.0158879)
(0.0410739 0.0499883 -0.0101133)
(0.0202764 0.0565392 -0.0173468)
(0.000172757 0.0550742 -0.0276929)
(0.000898003 0.0446881 -0.0319463)
(0.00904784 -0.0151131 -0.0543349)
(0.0259594 -0.00488663 -0.0524865)
(0.0382513 0.000749476 -0.0560759)
(0.0465447 0.00632403 -0.0599459)
(0.0537212 0.0202726 -0.0616132)
(0.0599627 0.0425513 -0.0558092)
(0.06224 0.0620714 -0.0501981)
(0.0612147 0.0740568 -0.0506748)
(0.0503201 0.0773806 -0.0579478)
(0.029801 0.0693207 -0.0646653)
(-0.0291468 -0.0525927 -0.177317)
(0.0207159 -0.0430866 -0.165284)
(0.0736817 -0.0249997 -0.171148)
(0.122009 -1.7046e-05 -0.187001)
(0.150203 0.0280656 -0.185923)
(0.160555 0.0568849 -0.160731)
(0.169625 0.0790462 -0.12859)
(0.174686 0.0968321 -0.0976715)
(0.17783 0.128229 -0.0887116)
(0.146424 0.191873 -0.0920634)
(-0.161548 -0.0605496 -0.389488)
(-0.177528 -0.0683691 -0.384221)
(-0.163348 -0.0398501 -0.314572)
(-0.0761317 0.0187505 -0.233883)
(0.0478295 0.0637629 -0.19616)
(0.0818721 0.110516 -0.140442)
(0.0833674 0.145293 -0.0757578)
(0.0711515 0.178381 -0.0232276)
(0.100888 0.249067 -0.0815302)
(0.108139 0.366089 -0.115465)
(-0.236066 0.089552 -0.214911)
(-0.2754 0.090947 -0.197241)
(-0.258653 0.0524834 -0.135997)
(-0.1845 0.0189658 -0.0641916)
(-0.0813627 0.0558642 -0.0113609)
(0.00946477 0.114723 0.0396276)
(0.0419854 0.150081 0.0606806)
(-0.0295545 0.135378 0.0850257)
(-0.0447204 0.235887 -0.011685)
(0.0490139 0.406899 -0.10687)
(-0.250258 0.0666941 -0.149537)
(-0.26562 0.013726 -0.11498)
(-0.240322 0.00108794 -0.0384149)
(-0.189601 0.0309361 0.0602732)
(-0.0962077 -0.00721958 0.101682)
(0.0158962 -0.0149449 0.0999717)
(0.107155 0.136621 0.148052)
(0.0596152 0.163454 0.143225)
(-0.0895243 0.162626 0.0723099)
(0.0246095 0.352577 -0.0960742)
(-0.137784 0.0444739 -0.0814333)
(-0.202896 -0.00504309 -0.0765205)
(-0.239374 -0.025567 0.0123019)
(-0.214489 -0.0737179 0.0524589)
(-0.177215 -0.232506 0.0186687)
(-0.132685 -0.223178 -0.00873682)
(0.0270948 0.0119425 0.0746926)
(0.109732 0.157201 0.145842)
(-0.0167566 0.153973 0.121125)
(-0.000128333 0.316862 -0.0510067)
(-0.036305 0.0559269 0.0731049)
(-0.0628545 0.0659964 -0.0310119)
(-0.193952 -0.02534 -0.00114546)
(-0.243509 -0.168202 0.0377547)
(-0.280765 -0.36981 -0.00212291)
(-0.276953 -0.359789 -0.0471413)
(-0.184785 -0.147407 -0.0161367)
(-0.0158528 0.0864084 0.0968327)
(-0.0240569 0.171233 0.131828)
(-0.0405295 0.300731 0.0239212)
(-0.190719 -0.137978 0.0625992)
(-0.0330011 0.053165 0.0371269)
(-0.0603644 0.0768607 -0.00879065)
(-0.167987 -0.133334 0.0509041)
(-0.275532 -0.391016 0.0214264)
(-0.339283 -0.42844 -0.0185404)
(-0.304443 -0.268482 0.000122991)
(-0.179237 -0.00507221 0.0698652)
(-0.0891084 0.181401 0.136788)
(-0.0663955 0.240573 0.0816523)
(-0.297376 -0.240992 -0.0353925)
(-0.198313 -0.15663 0.0217822)
(-0.0633349 0.0309732 0.00635008)
(-0.0968031 -0.0606825 0.0459935)
(-0.258158 -0.33608 0.0430171)
(-0.348722 -0.406966 0.0197085)
(-0.345352 -0.31676 0.0381809)
(-0.24824 -0.112629 0.0777105)
(-0.117833 0.0942762 0.10982)
(-0.04684 0.140369 0.0865588)
(-0.263156 -0.186259 -0.139081)
(-0.25441 -0.247638 0.0111221)
(-0.176086 -0.184974 0.0615576)
(-0.131138 -0.149123 0.0549329)
(-0.22634 -0.281329 0.0665647)
(-0.305093 -0.360007 0.0423959)
(-0.330998 -0.328782 0.0361423)
(-0.270677 -0.218631 0.056936)
(-0.137906 -0.0626003 0.0600981)
(-0.0216262 0.0648594 0.0312826)
(-0.161688 -0.0676164 -0.23398)
(-0.2112 -0.173175 -0.0699132)
(-0.172458 -0.212237 0.0788051)
(-0.13669 -0.203011 0.122957)
(-0.144525 -0.250016 0.122749)
(-0.206211 -0.320249 0.0812825)
(-0.270031 -0.310436 0.0183107)
(-0.265986 -0.263681 -0.00517957)
(-0.176773 -0.192847 -0.00252496)
(-0.0393577 -0.0412314 0.0120759)
(-0.0555784 0.022747 -0.253343)
(-0.14515 -0.0757262 -0.177368)
(-0.105746 -0.154861 -0.0310991)
(-0.0554116 -0.196767 0.107696)
(-0.036857 -0.237108 0.161741)
(-0.0797314 -0.298695 0.140233)
(-0.167123 -0.296937 0.0502297)
(-0.201864 -0.280689 -0.0325092)
(-0.171514 -0.288066 -0.0675892)
(-0.0730489 -0.168915 -0.0438739)
(0.0174071 0.0896931 -0.234796)
(-0.0716614 -0.0172087 -0.203085)
(-0.0602635 -0.136567 -0.146182)
(0.0383586 -0.165026 -0.0527558)
(0.0890193 -0.200306 0.0953769)
(0.0549673 -0.258664 0.161757)
(-0.0420633 -0.284566 0.104128)
(-0.102956 -0.283665 -0.0182418)
(-0.111109 -0.331774 -0.101405)
(-0.0602402 -0.274131 -0.101008)
(0.00641388 0.000627394 -0.00464157)
(0.00750292 0.000575631 -0.0050029)
(0.00764132 0.00086541 -0.0054116)
(0.00647652 0.00119176 -0.00508353)
(0.00375088 0.00117186 -0.00376121)
(-7.07214e-05 -0.000432477 -0.000220991)
(-0.00058102 -0.00335637 0.00653878)
(0.00960702 -0.00453214 0.010838)
(0.0156287 0.000847688 0.00241659)
(0.00448257 0.00417401 -0.00494547)
(0.00664969 -0.00185175 -0.00323161)
(0.00773605 -0.00124096 -0.00466403)
(0.00905436 0.000482957 -0.00615499)
(0.00873937 0.0024661 -0.00681714)
(0.00516104 0.00419476 -0.0059215)
(-0.00144818 0.00350745 0.00035148)
(-0.00280374 -0.00432699 0.0135334)
(0.00711554 -0.0125712 0.0223844)
(0.0181074 0.00787808 0.00647176)
(0.00671853 0.0150914 -0.0104365)
(0.00758667 -0.00473227 -0.00529265)
(0.00887629 -0.00399908 -0.00710778)
(0.011007 -0.000791647 -0.00910682)
(0.0109005 0.00424433 -0.0101487)
(0.0070207 0.00956164 -0.00899522)
(0.0014139 0.00969865 -0.00171069)
(0.00271768 -0.00414457 0.0113593)
(0.00864093 -0.0141215 0.0203215)
(0.00667994 0.0171536 0.00688641)
(0.00558978 0.02647 -0.0171168)
(0.0102485 -0.00540191 -0.00890203)
(0.0129018 -0.00578873 -0.0100937)
(0.0152542 -0.00234553 -0.0124849)
(0.0158602 0.00502834 -0.0143289)
(0.0140704 0.012688 -0.0143105)
(0.012256 0.0133626 -0.0109851)
(0.0148635 0.000134898 -0.00351623)
(0.0138017 -0.00336474 0.00403096)
(-0.00139673 0.0283653 -0.00921909)
(-4.34393e-06 0.0343708 -0.0255327)
(0.0123126 -0.00384563 -0.0142623)
(0.017726 -0.00455583 -0.0144619)
(0.0203848 -0.00210434 -0.0170103)
(0.0212845 0.00586795 -0.0204999)
(0.0202916 0.0135909 -0.0212223)
(0.0199175 0.0135433 -0.0178432)
(0.0219637 0.00500467 -0.0102914)
(0.0156335 0.0141577 -0.0113672)
(-0.00169667 0.0414518 -0.0295991)
(-0.00587543 0.0359813 -0.0388157)
(0.0149555 -0.00390454 -0.0245382)
(0.0224644 -0.00556683 -0.0210468)
(0.0245287 -0.00103021 -0.0211101)
(0.0258604 0.00895462 -0.023136)
(0.0280545 0.016086 -0.0225869)
(0.0297433 0.0156783 -0.0181754)
(0.0262764 0.0203505 -0.0131717)
(0.0164459 0.0393681 -0.0222489)
(0.000494964 0.0570492 -0.038512)
(0.000417003 0.0413687 -0.0473858)
(0.0199236 -0.01466 -0.0391461)
(0.0299359 -0.0126827 -0.0314628)
(0.0319146 -0.0049969 -0.0283793)
(0.0355002 0.00300776 -0.0292211)
(0.0418871 0.0136563 -0.0297873)
(0.0427446 0.0306345 -0.0274478)
(0.0341246 0.0476864 -0.0250384)
(0.024831 0.0575619 -0.0290022)
(0.0102833 0.0540621 -0.0344524)
(0.0109032 0.0350481 -0.0433817)
(0.0142209 -0.0186292 -0.0498644)
(0.029547 -0.00946527 -0.0486099)