/*--------------------------------*- C++ -*----------------------------------*\
| =========                 |                                                 |
| \\      /  F ield         | OpenFOAM: The Open Source CFD Toolbox           |
|  \\    /   O peration     | Version:  2312                                  |
|   \\  /    A nd           | Website:  www.openfoam.com                      |
|    \\/     M anipulation  |                                                 |
\*---------------------------------------------------------------------------*/
FoamFile
{
    version     2.0;
    format      ascii;
    arch        "LSB;label=32;scalar=64";
    class       surfaceScalarField;
    location    "1.435";
    object      phi;
}
// * * * * * * * * * * * * * * * * * * * * * * * * * * * * * * * * * * * * * //

dimensions      [0 3 -1 0 0 0 0];

oriented        oriented;

internalField   nonuniform List<scalar> 
22600
(
-4.42093e-08
1.1995e-07
-7.57404e-08
-5.8138e-08
1.64254e-07
-1.50325e-07
-7.44638e-08
2.77849e-07
-2.61524e-07
-8.7055e-08
3.17057e-07
-3.04466e-07
-1.15046e-07
2.6157e-07
-2.33579e-07
-1.61535e-07
1.87079e-07
-1.4059e-07
-2.06585e-07
1.42055e-07
-9.7005e-08
-2.29439e-07
1.10475e-07
-8.76221e-08
-2.14871e-07
7.12342e-08
-8.58018e-08
3.02328e-08
-8.93727e-08
3.19998e-08
1.25585e-07
-3.76357e-08
2.69674e-08
1.02085e-07
6.72012e-08
-8.07654e-08
3.77772e-07
7.80956e-09
-1.75572e-07
4.88809e-07
-7.69459e-08
-2.25306e-07
4.69771e-07
-1.58466e-07
-2.57223e-07
3.83627e-07
-1.64631e-07
-2.86017e-07
2.97959e-07
-1.2711e-07
-3.0227e-07
2.31169e-07
-1.0444e-07
-2.69404e-07
1.21677e-07
-8.33083e-08
-3.54076e-08
-4.6875e-08
7.23253e-08
-5.81535e-08
1.11413e-07
1.37907e-07
-2.15362e-07
2.51865e-07
-2.95429e-08
3.45769e-07
1.99452e-07
-2.5226e-07
5.72659e-07
1.38867e-07
-3.60296e-07
5.57768e-07
2.00397e-08
-3.83107e-07
5.09961e-07
-1.03524e-07
-4.05014e-07
4.48354e-07
-1.28488e-07
-4.18708e-07
3.32117e-07
-8.72528e-08
-3.27358e-07
3.41419e-08
-3.81529e-09
-2.42327e-07
5.01008e-08
-7.40729e-09
-2.49825e-07
1.99079e-07
6.30405e-08
-4.41108e-07
1.55298e-07
-5.33162e-08
2.45724e-07
2.16402e-07
-2.91261e-07
6.12966e-07
1.97638e-07
-4.4422e-07
6.02149e-07
1.08577e-07
-5.08315e-07
5.80679e-07
-6.62216e-09
-5.2009e-07
5.23117e-07
-6.29884e-08
-4.40683e-07
2.75745e-07
-2.3035e-08
-3.15616e-07
-1.38144e-07
4.72183e-08
-3.52275e-07
3.4561e-08
-6.7989e-08
-9.11716e-08
-9.06643e-08
-9.40396e-08
-1.7153e-07
-2.43528e-07
-1.94879e-07
3.18681e-07
2.78825e-08
-3.56679e-07
6.32311e-07
1.42455e-07
-4.78019e-07
6.28492e-07
9.49967e-08
-5.1655e-07
5.87699e-07
3.15105e-08
-4.51904e-07
4.60091e-07
-1.61955e-09
-3.39981e-07
1.67266e-07
-3.44414e-09
-3.17913e-07
-1.19939e-07
-4.02737e-08
-2.32788e-07
-1.14659e-07
-1.29025e-07
4.52767e-07
-4.14914e-07
-2.63139e-07
4.84186e-07
-5.21602e-07
-3.37865e-07
6.60405e-07
-2.66998e-07
-4.38199e-07
8.0404e-07
-7.13942e-08
-5.34397e-07
7.59994e-07
-3.53034e-08
-5.50928e-07
6.51625e-07
-4.7396e-08
-4.84692e-07
4.62413e-07
-6.85578e-08
-4.53359e-07
2.59341e-07
-1.2341e-07
-4.56178e-07
1.19106e-07
-2.36226e-07
4.94518e-08
-3.55844e-07
-1.81312e-07
1.16e-06
-5.25924e-07
-3.78255e-07
1.23908e-06
-5.5795e-07
-5.78183e-07
1.25583e-06
-3.95498e-07
-7.773e-07
1.2318e-06
-2.2864e-07
-9.54443e-07
1.14099e-06
-2.03855e-07
-1.02164e-06
9.71525e-07
-2.52702e-07
-9.92866e-07
7.51649e-07
-3.18011e-07
-9.00582e-07
5.75791e-07
-4.08734e-07
-7.28353e-07
4.7406e-07
-5.27183e-07
3.9964e-07
-5.93105e-07
1.6165e-07
1.60073e-06
-6.02373e-07
1.3975e-07
1.66212e-06
-4.01137e-07
-3.05476e-07
1.88343e-06
-1.82374e-07
-9.22401e-07
1.95215e-06
-1.03432e-07
-1.394e-06
1.86783e-06
-2.55244e-07
-1.61115e-06
1.6236e-06
-4.34926e-07
-1.5631e-06
1.22168e-06
-5.18082e-07
-1.37565e-06
9.29643e-07
-5.41297e-07
-1.15559e-06
8.53837e-07
-5.99842e-07
8.09149e-07
-6.41771e-07
-9.83734e-07
3.38686e-06
-8.02405e-07
-2.00706e-06
3.63256e-06
-9.47088e-07
-4.1297e-06
6.05557e-06
-2.04951e-06
-6.43926e-06
6.98445e-06
-2.72274e-06
-7.53469e-06
6.2969e-06
-3.33364e-06
-6.88204e-06
4.34393e-06
-3.37298e-06
-5.62502e-06
2.83378e-06
-2.86912e-06
-4.19784e-06
1.54316e-06
-2.0407e-06
-3.10866e-06
1.26405e-06
-1.49939e-06
1.19669e-06
-1.26656e-06
6.32343e-07
2.38887e-06
3.6563e-07
1.78826e-06
1.1594e-06
1.31722e-06
1.72917e-06
5.04064e-06
1.07404e-06
3.53501e-07
7.30099e-06
1.05914e-06
-1.50736e-06
7.15894e-06
9.98827e-07
-3.418e-06
5.39385e-06
8.60727e-07
-4.0141e-06
3.13487e-06
2.95026e-07
-3.68976e-06
2.19495e-06
-9.76135e-07
-2.73227e-06
2.85096e-06
-2.54439e-06
2.60955e-06
-2.55862e-06
1.24191e-06
4.58273e-07
6.8871e-07
2.33309e-06
-1.73478e-06
1.80299e-06
2.7237e-06
2.87836e-06
1.77168e-06
2.75673e-06
5.45437e-06
1.81358e-06
1.79105e-06
6.28777e-06
1.83685e-06
-2.22882e-07
5.47339e-06
1.93441e-06
-2.45971e-06
3.35876e-06
2.01293e-06
-3.88949e-06
2.03113e-06
1.59361e-06
-3.58704e-06
1.56854e-06
9.7997e-07
6.12215e-07
6.87631e-07
5.51082e-07
4.97153e-09
-9.77851e-08
8.73795e-07
-2.70285e-06
6.45343e-07
9.25597e-07
1.94886e-06
8.77693e-07
1.40615e-06
3.82793e-06
1.1459e-06
1.43723e-06
4.82414e-06
1.43254e-06
3.03451e-07
4.6845e-06
1.92268e-06
-1.48139e-06
2.75494e-06
2.38866e-06
-2.72132e-06
9.99503e-07
2.27156e-06
-2.7256e-06
-5.54342e-07
2.12718e-06
-1.8211e-06
2.00697e-06
-1.92239e-08
6.49892e-07
-6.25674e-07
-2.28048e-09
-2.8927e-06
1.72907e-07
3.48149e-07
9.26957e-07
6.7149e-07
7.82905e-07
2.75596e-06
6.37199e-07
8.93549e-07
3.51111e-06
1.20241e-06
2.07003e-07
3.46199e-06
1.90904e-06
-1.0641e-06
1.56258e-06
2.46347e-06
-2.12861e-06
-4.49605e-07
2.51361e-06
-3.01695e-06
-1.91699e-06
2.25099e-06
-2.66367e-06
1.52552e-06
1.95045e-07
1.08564e-06
-6.30814e-07
1.50633e-07
-3.23845e-06
3.90168e-07
7.75101e-07
-1.11396e-06
1.41643e-06
6.01934e-07
2.02821e-06
9.00914e-07
9.67045e-09
2.83391e-06
1.26945e-06
-1.08808e-06
2.6927e-06
1.86703e-06
-2.30533e-06
5.88567e-07
2.19128e-06
-3.46576e-06
-1.25615e-06
1.96697e-06
-4.34763e-06
-1.99224e-06
9.57126e-07
-2.34412e-06
-1.18426e-07
8.87491e-07
3.26215e-07
-1.28069e-07
9.04847e-07
-4.03776e-06
7.81955e-07
1.02558e-06
-2.85275e-06
1.61806e-06
-3.34121e-07
1.90588e-06
1.48203e-06
-1.58228e-06
2.78532e-06
1.29673e-06
-2.56539e-06
2.02902e-06
1.6468e-06
-3.57484e-06
-2.55168e-07
1.85319e-06
-4.56357e-06
-1.29998e-06
1.03256e-06
-4.51951e-06
-1.56632e-06
-4.69985e-07
-1.86644e-06
-1.01682e-06
1.49742e-06
-2.16784e-06
9.96637e-07
1.47772e-06
-4.69497e-06
6.76902e-07
6.38974e-07
-3.21083e-06
1.19682e-06
-1.07994e-06
1.99656e-06
1.62822e-06
-2.41183e-06
2.89349e-06
1.22373e-06
-3.34671e-06
1.53491e-06
1.42901e-06
-4.70554e-06
-4.26375e-07
1.53004e-06
-5.27864e-06
-8.85895e-07
1.59018e-07
-4.7389e-06
-1.1684e-06
-9.37658e-07
-1.49961e-06
-1.1854e-06
1.28887e-06
-3.7767e-06
3.19991e-07
1.33362e-06
-4.42045e-06
-3.19264e-07
2.21147e-07
-2.47954e-06
3.81182e-07
-7.37074e-07
1.5883e-06
1.36649e-06
-1.54583e-06
2.28122e-06
1.42104e-06
-3.30149e-06
1.59465e-06
1.69591e-06
-5.3666e-06
6.83877e-08
1.57036e-06
-5.80894e-06
-3.69731e-07
-7.38139e-08
-5.19135e-06
-7.88614e-07
-9.97381e-07
-1.06383e-06
-1.31043e-06
8.96933e-07
-3.74837e-06
-9.25272e-07
4.66955e-07
-3.08819e-06
-9.02278e-07
-4.27301e-07
-1.2341e-06
-3.5119e-07
-1.48365e-07
4.9752e-07
8.11845e-07
-2.69441e-07
8.90399e-07
1.5119e-06
-2.50668e-06
1.69838e-06
2.1335e-06
-5.18704e-06
8.03962e-07
1.9448e-06
-6.06818e-06
3.05415e-07
2.05991e-07
-5.67746e-06
-2.03108e-07
-9.76216e-07
-4.65366e-07
-1.53678e-06
5.47174e-07
-2.73398e-06
-1.56155e-06
-4.62165e-07
-1.25569e-06
-8.23155e-07
-1.4066e-06
-3.34509e-07
4.48595e-08
-8.20402e-07
-8.635e-07
7.74817e-07
-7.14323e-07
-4.78032e-07
1.26237e-06
-2.41983e-06
1.32984e-06
2.07405e-06
-4.98658e-06
1.31285e-06
2.05787e-06
-6.12326e-06
9.14308e-07
5.27785e-07
-5.9734e-06
5.48914e-07
-9.01881e-07
2.94095e-07
-1.71648e-06
1.85032e-07
-1.47388e-06
-1.44514e-06
-1.29411e-06
-3.64282e-07
5.87727e-07
-2.44632e-06
4.57296e-07
3.60408e-07
-2.31403e-06
7.03552e-07
-1.69934e-06
-2.0084e-06
9.66672e-07
-1.75034e-06
-2.69599e-06
1.75381e-06
2.63623e-07
-4.58622e-06
2.10708e-06
1.09599e-06
-5.96641e-06
1.19981e-06
1.0947e-06
-6.07226e-06
-4.94312e-07
1.14909e-06
-1.59152e-06
1.015e-06
-8.40167e-08
1.3201e-07
-1.23734e-07
-1.87341e-08
-6.9636e-08
-1.45972e-07
5.1976e-08
-6.94141e-08
-2.6282e-07
6.37242e-08
7.14224e-08
-3.87636e-07
3.66196e-08
1.78828e-07
-3.85303e-07
-1.10141e-08
1.74765e-07
-2.67722e-07
-6.5035e-08
1.25874e-07
-1.68859e-07
-1.11847e-07
8.69041e-08
-1.27715e-07
-1.43033e-07
5.80931e-08
-1.12709e-07
1.42711e-08
-1.10089e-07
1.2022e-07
6.65579e-08
-9.24041e-08
3.56089e-07
-5.0891e-07
2.70607e-07
3.39892e-07
-3.21457e-07
2.76049e-07
1.4485e-07
6.91843e-08
1.20334e-07
2.87415e-09
2.92205e-07
-1.29868e-07
-7.34962e-08
3.42844e-07
-2.5634e-07
-1.27474e-07
2.68562e-07
-2.15821e-07
-1.68938e-07
1.76104e-07
-1.52177e-07
-1.91086e-07
1.15406e-07
-1.18473e-07
-1.31301e-08
-7.06528e-08
2.14905e-07
-1.386e-07
1.01666e-07
3.258e-07
-7.77214e-07
4.09274e-07
2.38863e-07
-4.6766e-07
4.32593e-07
-1.56695e-08
6.37842e-08
3.98799e-07
-1.79681e-07
3.08546e-07
1.6771e-07
-2.00986e-07
4.01632e-07
-1.41008e-07
-2.06289e-07
3.68784e-07
-2.23408e-07
-2.58615e-07
2.99818e-07
-1.5864e-07
-2.66331e-07
1.73149e-07
-5.38425e-08
-1.50472e-07
7.57097e-08
1.2473e-07
-1.60952e-07
9.67006e-08
5.32952e-08
-6.02871e-07
5.23911e-08
-9.31571e-08
-3.43293e-07
2.38488e-07
-2.93276e-07
6.31764e-08
3.98364e-07
-3.96403e-07
2.34595e-07
2.85656e-07
-3.74204e-07
3.56843e-07
1.59676e-08
-3.41189e-07
4.08757e-07
-1.35976e-07
-3.12838e-07
3.44923e-07
-9.64907e-08
-2.11714e-07
9.60018e-08
2.32413e-08
-2.61306e-07
9.50717e-08
6.80443e-08
1.07113e-07
-4.26773e-07
-1.05743e-07
-1.26543e-07
-5.46069e-07
-2.60921e-07
4.02347e-08
-2.00468e-07
-3.35026e-07
1.66501e-07
1.13234e-07
-3.82164e-07
2.12623e-07
1.64105e-07
-3.66887e-07
2.79971e-07
9.31063e-08
-2.64684e-07
3.09028e-07
-4.09381e-09
-9.48252e-08
2.11017e-07
-3.93968e-08
1.99314e-08
-8.83717e-10
-5.8145e-08
-1.47547e-07
-1.05106e-07
-9.22307e-09
5.16486e-07
-8.15064e-07
-2.64243e-07
4.97839e-07
-8.90964e-07
-4.01842e-07
5.84431e-07
-6.73595e-07
-4.17217e-07
5.24098e-07
-4.13617e-07
-4.10095e-07
4.44709e-07
-2.74511e-07
-3.37705e-07
3.82167e-07
-2.21983e-07
-1.75343e-07
3.06539e-07
-2.28431e-07
-1.86947e-08
2.29366e-07
-2.98408e-07
1.62069e-09
1.58878e-07
-4.16303e-07
1.30783e-07
-4.95556e-07
-2.93339e-07
1.12533e-06
-8.41428e-07
-6.08383e-07
1.19526e-06
-9.40331e-07
-7.36118e-07
1.23092e-06
-9.1425e-07
-8.09264e-07
1.15461e-06
-7.8601e-07
-8.36417e-07
9.94053e-07
-7.26047e-07
-7.65403e-07
7.95403e-07
-7.36951e-07
-6.27437e-07
6.1963e-07
-7.69068e-07
-4.74521e-07
5.00869e-07
-8.33153e-07
-3.54709e-07
4.13195e-07
-9.01312e-07
3.61825e-07
-8.99643e-07
-3.75859e-07
1.53205e-06
-6.33231e-07
-6.97105e-07
1.6178e-06
-5.02426e-07
-1.04412e-06
1.93335e-06
-5.37787e-07
-1.3809e-06
2.04309e-06
-6.55126e-07
-1.69662e-06
1.9094e-06
-8.54873e-07
-1.78154e-06
1.47791e-06
-1.03252e-06
-1.56386e-06
9.89493e-07
-1.10563e-06
-1.24039e-06
7.24761e-07
-1.08866e-06
-9.49022e-07
6.20466e-07
-1.09848e-06
5.57804e-07
-1.07837e-06
-2.27076e-06
2.9391e-06
6.12984e-08
-5.11099e-06
5.19289e-06
-1.68191e-06
-6.88272e-06
6.11519e-06
-4.45963e-06
-7.58859e-06
5.61592e-06
-5.58971e-06
-7.60885e-06
4.21288e-06
-5.61686e-06
-6.66595e-06
2.3406e-06
-5.17857e-06
-5.41835e-06
1.47648e-06
-4.60371e-06
-4.00364e-06
1.13138e-06
-3.86202e-06
-2.83565e-06
1.24898e-06
-3.29589e-06
1.31383e-06
-2.94366e-06
4.55262e-07
9.21816e-07
1.92765e-06
2.29014e-07
4.43126e-06
2.3051e-06
-8.18696e-07
7.26376e-06
9.73176e-07
-2.13885e-06
7.8725e-06
1.2273e-07
-3.68578e-06
6.77525e-06
-1.65994e-08
-5.0117e-06
4.37621e-06
1.51032e-07
-4.93297e-06
2.02306e-06
-3.30284e-07
-4.05597e-06
1.36065e-06
-2.0824e-06
-3.03054e-06
1.81959e-06
-4.14043e-06
1.71696e-06
-4.141e-06
-1.17122e-07
-3.24987e-07
2.05265e-06
9.1567e-07
2.45958e-06
2.74188e-06
1.55257e-06
6.11982e-06
2.27873e-06
1.11624e-06
7.86465e-06
2.25776e-06
-6.55981e-07
7.74217e-06
2.64215e-06
-3.05706e-06
5.60537e-06
3.10632e-06
-4.71863e-06
2.49677e-06
3.2008e-06
-5.23869e-06
3.01903e-07
3.17242e-06
-4.7891e-06
-5.88069e-07
2.93803e-06
-1.06015e-06
2.54032e-06
-1.42789e-06
-1.23471e-07
1.12857e-06
-1.17634e-06
1.4368e-06
1.41656e-06
-2.73945e-07
4.70213e-06
1.393e-06
-1.49724e-08
6.6755e-06
2.07606e-06
-9.10946e-07
7.15877e-06
2.91192e-06
-2.55338e-06
5.47594e-06
3.69455e-06
-3.99139e-06
2.17792e-06
4.14554e-06
-4.85081e-06
-5.56288e-07
3.98916e-06
-4.84815e-06
-1.85148e-06
3.38793e-06
-2.07072e-06
2.44468e-06
-1.9145e-06
3.8889e-07
7.7645e-07
-1.92723e-06
1.74234e-07
1.44821e-06
-1.28056e-06
3.35402e-06
1.37292e-06
-1.2565e-06
5.33463e-06
1.95403e-06
-1.58342e-06
5.62998e-06
3.05811e-06
-2.3922e-06
4.00668e-06
4.18707e-06
-3.45257e-06
8.62674e-07
4.83909e-06
-4.32622e-06
-1.41256e-06
4.24355e-06
-4.72699e-06
-1.87573e-06
2.67602e-06
-1.6397e-06
9.20368e-07
-1.4035e-06
6.80845e-07
4.80724e-07
-1.30384e-06
-1.66641e-06
2.13115e-06
-7.1976e-07
1.80649e-06
2.37987e-06
-9.87175e-07
4.33328e-06
2.16967e-06
-1.89651e-06
4.65627e-06
3.15248e-06
-3.27625e-06
2.92961e-06
4.32387e-06
-4.32884e-06
-2.75198e-07
4.38173e-06
-4.7029e-06
-1.87563e-06
2.8041e-06
-4.37565e-06
-1.88573e-06
6.39865e-07
-1.56822e-06
-7.37314e-07
-3.14509e-07
7.18105e-07
1.49189e-07
-1.32443e-07
-3.04539e-06
1.97885e-06
-3.81709e-07
7.41549e-07
2.93228e-06
-1.206e-06
4.06716e-06
2.57244e-06
-2.60882e-06
4.24339e-06
3.11244e-06
-3.93801e-06
1.97171e-06
3.93391e-06
-4.59595e-06
-1.0257e-06
3.26162e-06
-4.48069e-06
-2.0739e-06
1.11558e-06
-3.91112e-06
-2.15864e-06
-7.66654e-07
-1.72266e-06
-1.3177e-06
4.84458e-07
1.03686e-06
1.93405e-07
1.44646e-07
-3.13347e-06
1.1048e-06
-1.1974e-06
8.19067e-07
2.46136e-06
-2.32115e-06
4.08905e-06
2.73008e-06
-3.42014e-06
3.72464e-06
2.8415e-06
-4.18122e-06
1.05361e-06
3.10817e-06
-4.61413e-06
-1.21826e-06
2.15551e-06
-4.49871e-06
-1.99277e-06
-3.7515e-08
-4.19241e-06
-2.29708e-06
-1.10552e-06
-1.68257e-06
-1.53896e-06
7.37841e-07
4.10793e-07
2.08227e-07
-5.22036e-07
-2.49893e-06
3.06088e-07
-2.22992e-06
1.12845e-06
1.77967e-06
-2.77533e-06
3.42536e-06
2.5756e-06
-3.24239e-06
2.95608e-06
2.65666e-06
-4.12658e-06
1.02231e-06
2.61139e-06
-4.66576e-06
-7.84642e-07
1.67594e-06
-4.7218e-06
-1.67449e-06
-3.3606e-07
-4.71597e-06
-1.98828e-06
-1.31202e-06
-1.41191e-06
-1.8462e-06
1.0359e-06
-1.19016e-06
-3.60218e-07
-5.49454e-07
-1.45905e-06
-3.56818e-07
-1.77031e-06
9.38558e-07
1.05957e-06
-1.52202e-06
1.6365e-06
2.35242e-06
-1.78041e-06
1.85531e-06
2.87105e-06
-3.35852e-06
1.5609e-06
3.17304e-06
-4.41475e-06
8.63471e-08
2.13005e-06
-4.59555e-06
-9.66764e-07
-3.20944e-07
-4.80643e-06
-1.23604e-06
-1.51756e-06
-9.34781e-07
-2.21705e-06
1.05148e-07
-1.81226e-06
-1.04459e-06
-1.57448e-06
-2.82812e-07
-3.19769e-07
-2.10229e-06
3.39987e-07
1.17123e-06
-1.42662e-06
-5.2555e-07
2.2612e-06
-1.54859e-06
2.82719e-07
2.95694e-06
-2.8847e-06
1.38691e-06
3.58417e-06
-3.94045e-06
6.3336e-07
2.56659e-06
-4.16196e-06
-2.87291e-07
6.98341e-08
-4.35832e-06
-5.19997e-07
-1.42156e-06
-3.89478e-07
-2.39306e-06
-1.26467e-06
-1.03954e-06
-9.81942e-07
-3.25132e-06
2.79957e-07
1.05962e-06
-3.80973e-06
1.28466e-06
7.10208e-08
-3.54403e-06
1.88682e-06
-1.97451e-06
-2.96509e-06
2.49199e-06
-1.82152e-06
-2.99422e-06
3.20685e-06
-3.70112e-08
-3.49141e-06
2.83461e-06
4.03021e-07
-3.67796e-06
1.15954e-06
-6.0471e-08
-3.76906e-06
-7.74978e-07
-1.48244e-07
-2.10612e-06
-9.65441e-08
-2.09201e-07
2.41498e-07
-1.56031e-07
-7.63975e-08
-2.13887e-07
-6.48889e-08
1.76681e-07
-4.92556e-07
-2.33416e-08
3.02276e-07
-3.63712e-07
-1.4952e-07
2.69904e-07
-9.80227e-08
-2.54908e-07
1.29343e-07
1.11385e-07
-2.38546e-07
-9.87998e-10
1.38501e-07
-1.77029e-07
-8.0589e-08
8.87429e-08
-1.36857e-07
-1.28338e-07
5.1067e-08
-1.16027e-07
2.15076e-11
-1.02311e-07
3.51226e-08
3.21782e-07
-2.07811e-07
3.50167e-07
-5.14941e-07
2.56616e-07
4.66399e-07
-7.67976e-07
4.35237e-07
3.69534e-07
-4.56278e-07
3.09765e-07
2.20404e-07
-7.85536e-08
-2.06749e-10
8.21819e-08
2.25477e-07
-2.3221e-07
-5.24453e-08
2.89048e-07
-2.3174e-07
-1.28654e-07
1.8231e-07
-1.69537e-07
-1.57192e-07
9.18817e-08
-1.3075e-07
3.72021e-09
-9.36334e-08
1.86628e-07
3.72487e-07
-1.35667e-07
2.86307e-07
-4.99722e-07
2.94376e-07
2.07476e-07
-7.23803e-07
4.67251e-07
3.20532e-08
-3.66083e-07
4.84027e-07
-7.09174e-08
1.40233e-08
1.78104e-07
-9.22334e-08
2.84208e-07
-1.78423e-07
-1.19167e-07
3.70144e-07
-2.7757e-07
-1.58428e-07
2.78085e-07
-2.15155e-07
-1.98785e-07
2.04269e-07
-1.25873e-07
1.64685e-08
3.60507e-09
2.35376e-07
4.43352e-07
-2.0954e-07
1.01042e-07
-1.77134e-07
-1.35862e-07
-1.50887e-07
-3.55582e-07
1.22195e-07
-3.28662e-07
-1.73693e-07
3.83749e-07
-3.74254e-07
6.6826e-08
2.78444e-07
-3.02884e-07
3.06197e-07
-7.73913e-08
-2.3751e-07
4.36132e-07
-2.67338e-07
-2.41443e-07
4.0976e-07
-2.24233e-07
-2.29453e-07
3.18038e-07
-1.02516e-07
1.12231e-08
4.16807e-08
2.21925e-07
4.59642e-07
-6.64988e-07
7.50487e-08
1.26061e-07
-7.02387e-07
-1.96715e-07
1.06833e-07
-3.9112e-07
-3.70061e-07
1.31662e-07
-1.87745e-08
-4.35562e-07
1.86565e-07
1.09867e-07
-3.93858e-07
3.23802e-07
3.37968e-08
-2.74598e-07
4.32019e-07
-1.19242e-07
-1.65812e-07
4.32658e-07
-1.7108e-07
-7.92235e-08
3.36962e-07
-1.63658e-07
9.49634e-08
-1.3935e-07
7.36222e-08
5.48202e-07
-9.77247e-07
-9.17309e-08
4.2565e-07
-1.0252e-06
-2.98991e-07
5.34717e-07
-8.94218e-07
-4.29494e-07
5.30002e-07
-6.81453e-07
-4.92673e-07
4.6612e-07
-4.90888e-07
-4.46686e-07
4.20544e-07
-3.64712e-07
-2.97992e-07
4.00016e-07
-3.45121e-07
-1.35408e-07
3.67833e-07
-3.96167e-07
-6.42143e-08
3.22612e-07
-4.73148e-07
2.11192e-07
-5.07432e-07
-3.01757e-07
9.90897e-07
-9.82365e-07
-6.15912e-07
1.01667e-06
-1.2172e-06
-7.62957e-07
1.06919e-06
-1.30168e-06
-8.28243e-07
1.02482e-06
-1.21555e-06
-8.41095e-07
8.7819e-07
-1.12526e-06
-7.88996e-07
6.81335e-07
-1.04984e-06
-6.68078e-07
5.14756e-07
-1.00472e-06
-5.00204e-07
3.63943e-07
-9.97137e-07
-3.52911e-07
2.59845e-07
-9.85837e-07
1.75188e-07
-9.53702e-07
-5.55529e-07
1.43167e-06
-5.18475e-07
-1.01475e-06
1.61615e-06
-6.42686e-07
-1.40323e-06
1.91778e-06
-9.979e-07
-1.70215e-06
1.89119e-06
-1.22257e-06
-1.85582e-06
1.56453e-06
-1.38754e-06
-1.70313e-06
9.95139e-07
-1.49901e-06
-1.35593e-06
5.76509e-07
-1.51458e-06
-9.9708e-07
3.7099e-07
-1.45455e-06
-6.87421e-07
2.5401e-07
-1.40231e-06
1.88239e-07
-1.3591e-06
-1.29053e-06
3.26395e-06
-4.80459e-07
-3.72336e-06
5.28462e-06
-2.91755e-06
-5.55892e-06
4.94622e-06
-5.65252e-06
-6.57071e-06
3.66623e-06
-6.35294e-06
-6.60189e-06
2.11947e-06
-6.14062e-06
-5.97826e-06
1.03379e-06
-5.84085e-06
-4.74791e-06
3.27763e-07
-5.58531e-06
-3.41608e-06
1.09396e-07
-4.93226e-06
-2.358e-06
2.33522e-07
-4.33349e-06
3.69615e-07
-3.90922e-06
5.7588e-07
1.37279e-06
3.24293e-06
-2.64115e-07
5.94704e-06
2.48266e-06
-1.84496e-06
7.20826e-06
2.91997e-07
-3.75526e-06
6.05592e-06
-3.56684e-07
-5.47966e-06
3.71457e-06
1.1272e-07
-6.14942e-06
1.24978e-06
6.0479e-07
-5.26305e-06
-3.07139e-07
-5.81741e-07
-3.97401e-06
-3.16251e-07
-2.94579e-06
-3.26732e-06
2.36273e-07
-4.84987e-06
7.183e-07
-5.23387e-06
-3.95774e-07
4.05923e-07
3.41528e-06
-2.4318e-07
4.83026e-06
3.70607e-06
-4.94647e-07
7.02694e-06
2.7115e-06
-1.61314e-06
6.34049e-06
3.0917e-06
-3.20899e-06
3.97334e-06
3.97923e-06
-4.43678e-06
1.22029e-06
4.3636e-06
-5.15179e-06
-8.86547e-07
4.49523e-06
-5.14766e-06
-1.76359e-06
4.61562e-06
-4.68525e-06
-1.5479e-06
4.25979e-06
-1.00771e-06
3.54806e-06
-1.88145e-06
6.79519e-07
2.73643e-06
-2.33564e-06
3.9262e-06
2.77482e-06
-2.19413e-06
5.57572e-06
2.70269e-06
-2.54696e-06
5.30841e-06
3.46099e-06
-3.42012e-06
3.80563e-06
3.95278e-06
-4.4803e-06
1.6757e-06
4.29933e-06
-5.11997e-06
-7.02102e-07
4.60077e-06
-5.08274e-06
-2.17659e-06
4.36495e-06
-4.51614e-06
-2.34935e-06
3.62278e-06
-2.13906e-06
2.51949e-06
-2.1602e-06
1.14656e-06
2.46961e-06
-2.70541e-06
3.19269e-06
2.72692e-06
-2.7045e-06
4.35052e-06
2.59721e-06
-2.96356e-06
4.46046e-06
3.06103e-06
-3.46532e-06
3.53485e-06
3.83066e-06
-4.19989e-06
1.67292e-06
4.92442e-06
-4.57349e-06
-7.66987e-07
5.27756e-06
-4.40477e-06
-2.1383e-06
4.03656e-06
-3.64483e-06
-2.53927e-06
2.10601e-06
-2.74093e-06
5.27655e-07
-1.77299e-06
1.32158e-06
2.07867e-06
-1.81103e-06
2.14509e-06
3.21677e-06
-1.65299e-06
3.64768e-06
2.92469e-06
-2.21338e-06
4.31432e-06
2.8762e-06
-3.1684e-06
3.80127e-06
3.8411e-06
-4.03308e-06
1.83669e-06
5.02477e-06
-4.15661e-06
-8.81283e-07
4.61956e-06
-3.65514e-06
-2.25095e-06
2.41528e-06
-2.78305e-06
-2.97878e-06
2.07278e-07
-3.4866e-06
-7.28053e-07
-1.20202e-06
1.21519e-06
1.45759e-06
-1.22313e-06
1.00544e-06
3.13963e-06
-1.14027e-06
3.36563e-06
3.13146e-06
-1.59733e-06
4.48056e-06
2.86325e-06
-2.68388e-06
4.17446e-06
3.82579e-06
-3.39197e-06
1.8048e-06
4.67387e-06
-3.35548e-06
-1.05507e-06
3.39892e-06
-2.92137e-06
-2.31516e-06
7.45695e-07
-2.36708e-06
-3.30789e-06
-9.91844e-07
-3.75323e-06
-1.2889e-06
-6.7919e-07
1.28776e-06
8.00033e-07
-1.3389e-06
4.44352e-07
2.32561e-06
-1.77846e-06
3.32327e-06
2.94329e-06
-2.03654e-06
4.50769e-06
2.96105e-06
-2.54008e-06
3.80016e-06
3.71935e-06
-2.77963e-06
1.1841e-06
3.96843e-06
-2.60222e-06
-1.24132e-06
2.16436e-06
-2.46525e-06
-2.1412e-06
-3.48457e-07
-2.33464e-06
-3.30865e-06
-1.23539e-06
-3.64811e-06
-1.37538e-06
-7.77106e-07
1.87105e-06
4.02046e-07
-2.14857e-06
4.58535e-07
1.66335e-06
-2.90344e-06
3.04608e-06
2.81174e-06
-2.90303e-06
3.951e-06
3.13188e-06
-2.6328e-06
2.79671e-06
3.38987e-06
-2.29162e-06
5.03949e-07
2.95038e-06
-1.84021e-06
-1.11345e-06
1.09666e-06
-1.78513e-06
-1.56681e-06
-9.6554e-07
-2.2208e-06
-2.83466e-06
-1.35033e-06
-3.33201e-06
-1.49366e-06
-1.03153e-07
1.52541e-06
8.85707e-08
-1.72322e-06
6.41255e-07
1.08055e-06
-2.6796e-06
2.36985e-06
2.69218e-06
-2.40849e-06
2.66918e-06
3.36313e-06
-2.05676e-06
1.92786e-06
3.38817e-06
-1.79558e-06
6.76517e-07
2.73929e-06
-1.08907e-06
-4.48399e-07
7.58472e-07
-7.97095e-07
-7.69501e-07
-1.41022e-06
-1.67865e-06
-1.89376e-06
-1.57689e-06
-3.02519e-06
-1.61155e-06
6.54646e-07
8.93845e-08
-2.63207e-07
-1.29635e-06
1.40731e-06
8.65164e-07
-2.21075e-06
1.75015e-06
2.70534e-06
-1.8105e-06
9.56088e-07
3.57405e-06
-1.51208e-06
8.39757e-07
3.74661e-06
-1.2964e-06
7.5171e-07
3.29328e-06
-4.68651e-07
3.13524e-08
1.2591e-06
1.83816e-07
-4.96849e-07
-8.55262e-07
-6.26939e-07
-1.20378e-06
-1.30078e-06
-2.76114e-06
-1.60977e-06
-5.52757e-07
-6.74793e-08
-3.2992e-07
-2.50371e-06
1.19092e-06
2.44728e-06
-3.42674e-06
2.5261e-06
1.43175e-06
-3.16009e-06
3.15102e-06
-5.74761e-07
-2.32149e-06
3.44277e-06
-9.49643e-07
-1.29095e-06
3.42305e-06
-4.95035e-07
-3.0747e-07
2.43606e-06
-5.53563e-07
6.06633e-07
9.71331e-07
-1.22274e-06
5.07739e-07
-2.83622e-07
-1.59625e-06
-1.36095e-06
-2.65565e-06
-3.02815e-07
2.83354e-07
-1.3657e-07
-2.69816e-07
-1.28078e-07
3.01895e-08
7.38681e-08
-5.76837e-07
2.09812e-07
3.38062e-07
-5.69377e-07
1.55663e-07
3.53809e-07
-2.77727e-07
7.07269e-09
1.80054e-07
3.33093e-08
-9.81006e-08
1.12086e-08
1.22041e-07
-1.30225e-07
-8.15604e-08
8.35731e-08
-1.27661e-07
-1.29044e-07
4.52561e-08
-1.138e-07
-1.79716e-09
-9.37253e-08
-6.18808e-08
4.10022e-07
-2.72599e-07
1.72821e-07
-2.2768e-07
1.21517e-07
3.43414e-07
-7.5922e-07
4.47027e-07
3.99217e-07
-7.02354e-07
3.86938e-07
3.53385e-07
-3.24735e-07
9.2633e-08
1.76453e-07
1.0189e-07
-1.2386e-07
-1.46699e-08
2.54496e-07
-1.73072e-07
-1.17512e-07
1.64131e-07
-1.47253e-07
-1.46389e-07
5.67711e-08
-1.13388e-07
-2.55707e-08
-7.933e-08
1.22684e-07
5.06262e-07
-3.5459e-07
2.66502e-07
-1.02402e-07
2.5279e-08
1.98943e-07
-5.71804e-07
3.47394e-07
1.11017e-07
-5.40092e-07
4.09691e-07
8.09499e-08
-2.27096e-07
1.10532e-07
3.01033e-08
1.59681e-07
-1.85368e-07
-7.16194e-08
3.33503e-07
-2.54854e-07
-1.36561e-07
2.29077e-07
-2.15159e-07
-1.63639e-07
1.17182e-07
-1.59205e-07
2.40353e-08
-7.40189e-08
2.35347e-07
5.5287e-07
-4.91496e-07
2.39119e-07
1.36472e-07
-3.78509e-07
7.87774e-10
-1.64995e-07
-4.62829e-08
-1.86502e-07
-2.0771e-07
2.38657e-07
-2.18166e-07
-3.52812e-08
1.18294e-07
-1.80255e-07
2.4916e-07
-2.04783e-07
-1.85634e-07
4.07383e-07
-3.35839e-07
-2.27682e-07
3.39512e-07
-2.9262e-07
-2.44712e-07
2.42153e-07
-2.10457e-07
9.15009e-08
-9.59041e-08
2.4562e-07
3.84251e-07
-7.41988e-07
2.25945e-07
1.53175e-07
-6.99415e-07
-3.72288e-08
1.61161e-07
-4.54102e-07
-2.96393e-07
1.7308e-07
-1.404e-07
-4.09012e-07
1.9762e-07
-1.04154e-08
-3.6932e-07
3.57599e-07
-1.14333e-07
-2.82377e-07
4.7714e-07
-2.75943e-07
-2.59021e-07
4.50379e-07
-3.05302e-07
-2.40762e-07
3.49449e-07
-2.89213e-07
1.55998e-07
-2.55178e-07
-1.23657e-08
3.70153e-07
-9.50783e-07
-1.31847e-07
2.82419e-07
-1.03496e-06
-3.29457e-07
4.10618e-07
-9.46065e-07
-5.10947e-07
4.37353e-07
-7.64238e-07
-6.14696e-07
3.80234e-07
-5.69753e-07
-5.65497e-07
3.61457e-07
-4.1777e-07
-4.03012e-07
3.71653e-07
-4.02119e-07
-2.76982e-07
3.68623e-07
-4.40441e-07
-2.34444e-07
3.25258e-07
-4.91494e-07
1.80028e-07
-5.35907e-07
-4.13495e-07
8.79944e-07
-1.07866e-06
-7.67815e-07
8.57665e-07
-1.43813e-06
-9.40981e-07
8.45776e-07
-1.56367e-06
-1.01007e-06
7.61808e-07
-1.47091e-06
-1.02686e-06
5.78922e-07
-1.30716e-06
-9.76631e-07
3.88099e-07
-1.12671e-06
-8.44054e-07
2.32506e-07
-9.98154e-07
-6.4126e-07
9.53425e-08
-9.26651e-07
-4.47462e-07
6.63935e-08
-9.20772e-07
1.32333e-08
-9.61941e-07
-4.91775e-07
1.41853e-06
-5.6528e-07
-1.05622e-06
1.60983e-06
-8.30403e-07
-1.53161e-06
1.70696e-06
-1.3837e-06
-1.81561e-06
1.46002e-06
-1.63678e-06
-1.79372e-06
9.43309e-07
-1.77382e-06
-1.55878e-06
4.74734e-07
-1.82059e-06
-1.25561e-06
1.49968e-07
-1.73521e-06
-9.34902e-07
-7.49793e-08
-1.60494e-06
-6.10946e-07
-1.44891e-07
-1.51498e-06
-1.71187e-07
-1.49389e-06
-6.01049e-07
3.82602e-06
-2.2869e-06
-2.8539e-06
4.71458e-06
-3.76944e-06
-4.81849e-06
3.64458e-06
-5.62555e-06
-5.83645e-06
2.18466e-06
-6.05962e-06
-5.99861e-06
1.0705e-06
-6.10565e-06
-5.3891e-06
-1.00036e-07
-5.87559e-06
-4.15326e-06
-1.30693e-06
-5.36425e-06
-2.90851e-06
-1.58491e-06
-4.66708e-06
-1.93607e-06
-1.38765e-06
-4.06316e-06
-1.10664e-06
-3.63133e-06
1.08034e-06
2.25704e-06
3.73158e-06
-5.29669e-07
6.12464e-06
2.68261e-06
-2.76687e-06
6.21811e-06
-4.43475e-08
-4.6474e-06
4.0637e-06
-3.55182e-07
-5.94041e-06
1.30958e-06
1.16664e-06
-5.28217e-06
-8.33546e-07
6.80067e-07
-4.12419e-06
-1.38791e-06
-1.65873e-06
-3.72441e-06
-1.10534e-06
-3.82515e-06
-3.27283e-06
-1.12704e-06
-5.56206e-06
-9.916e-07
-6.00448e-06
-2.0401e-07
1.00884e-06
4.8675e-06
-7.28349e-07
5.47033e-06
4.88471e-06
-1.57371e-06
6.26297e-06
3.512e-06
-2.5791e-06
3.79909e-06
4.3617e-06
-3.43051e-06
6.68304e-07
5.47191e-06
-3.96359e-06
-1.42785e-06
5.491e-06
-4.27428e-06
-2.04799e-06
5.466e-06
-4.20363e-06
-1.59466e-06
5.03429e-06
-4.09388e-06
-9.15224e-07
3.93822e-06
-8.47202e-07
3.15584e-06
-1.81317e-06
1.23713e-06
4.32131e-06
-2.42229e-06
4.48776e-06
4.3665e-06
-2.38993e-06
4.74065e-06
4.19266e-06
-2.69711e-06
2.8939e-06
4.67335e-06
-3.3269e-06
9.1156e-07
4.33931e-06
-3.92579e-06
-6.40898e-07
4.11128e-06
-4.04769e-06
-1.68755e-06
4.36223e-06
-3.775e-06
-1.82623e-06
4.32384e-06
-3.3765e-06
-1.55281e-06
3.86187e-06
-2.04109e-06
2.99009e-06
-1.99433e-06
1.69199e-06
4.00907e-06
-2.60829e-06
4.04594e-06
3.7827e-06
-2.49358e-06
3.83831e-06
3.38482e-06
-2.72162e-06
2.71943e-06
3.46353e-06
-3.21648e-06
1.60904e-06
3.62803e-06
-3.63286e-06
4.23854e-07
4.27604e-06
-3.43033e-06
-7.59291e-07
4.14676e-06
-2.8462e-06
-1.09576e-06
2.72197e-06
-2.2525e-06
-1.26991e-06
1.22941e-06
-2.52097e-06
3.67736e-07
-1.51204e-06
1.71896e-06
3.56373e-06
-1.79249e-06
3.70037e-06
3.8428e-06
-1.92907e-06
3.89024e-06
3.00935e-06
-2.52234e-06
3.39634e-06
2.79258e-06
-2.91574e-06
2.62494e-06
3.21859e-06
-2.87803e-06
1.4894e-06
3.92151e-06
-2.41999e-06
2.06982e-07
3.19525e-06
-1.93756e-06
-2.6292e-07
1.1e-06
-1.65185e-06
-1.00993e-06
-3.38427e-07
-2.98973e-06
-8.62539e-07
-1.32431e-06
1.6664e-06
2.83447e-06
-1.39655e-06
3.10749e-06
3.80475e-06
-1.50593e-06
4.0456e-06
3.08547e-06
-2.09705e-06
4.17624e-06
2.67447e-06
-2.37218e-06
3.62195e-06
3.10391e-06
-2.03205e-06
2.32209e-06
3.50106e-06
-1.57117e-06
1.06017e-06
2.08486e-06
-1.51525e-06
8.67559e-07
-4.40708e-07
-1.26843e-06
-4.40817e-07
-1.80778e-06
-3.40313e-06
-1.36244e-06
-1.38641e-06
1.6921e-06
2.16074e-06
-1.63906e-06
2.41864e-06
3.26709e-06
-1.73443e-06
4.05666e-06
3.02762e-06
-2.01762e-06
4.59412e-06
2.82636e-06
-2.00966e-06
4.01033e-06
3.323e-06
-1.50053e-06
2.47313e-06
3.30827e-06
-1.15037e-06
1.51754e-06
1.35683e-06
-1.24436e-06
1.7589e-06
-1.14581e-06
-9.60172e-07
-5.39883e-07
-1.42052e-06
-4.12031e-06
-7.68351e-07
-1.59663e-06
2.00032e-06
1.69045e-06
-2.4335e-06
1.99254e-06
2.92631e-06
-2.60598e-06
3.81857e-06
3.22232e-06
-2.48989e-06
4.36417e-06
3.24574e-06
-2.01623e-06
3.36889e-06
3.55765e-06
-1.28157e-06
1.73698e-06
2.95187e-06
-7.6558e-07
1.31778e-06
7.80443e-07
-5.87803e-07
1.78351e-06
-1.16792e-06
-3.91257e-07
-1.3279e-06
-7.58848e-07
-4.54159e-06
-6.08933e-07
-8.87749e-07
1.75989e-06
1.21675e-06
-2.48836e-06
2.01933e-06
2.6544e-06
-3.02133e-06
3.38287e-06
3.66084e-06
-2.70579e-06
3.5914e-06
3.82037e-06
-1.9637e-06
2.40237e-06
3.61259e-06
-1.03273e-06
1.09146e-06
2.45383e-06
-1.47785e-07
8.94351e-07
2.96947e-07
5.5794e-07
8.34901e-07
-1.16733e-06
5.41507e-07
-1.97805e-06
-9.10303e-07
-4.63168e-06
-5.8304e-07
3.53708e-07
5.22934e-07
6.20042e-07
-1.74845e-06
2.74106e-06
2.24559e-06
-2.6503e-06
3.1252e-06
3.86485e-06
-2.33213e-06
2.64398e-06
4.2033e-06
-1.57407e-06
1.7248e-06
3.66613e-06
-4.26957e-07
8.84207e-07
2.35342e-06
1.00933e-06
3.77594e-07
3.39578e-07
2.04672e-06
-4.02497e-07
-6.55246e-07
1.67552e-06
-2.2488e-06
-6.58844e-07
-4.37194e-06
-7.17728e-07
-1.94537e-07
8.1514e-07
-1.65153e-07
-2.01784e-06
2.19363e-06
3.56165e-06
-2.95349e-06
3.5699e-06
3.01705e-06
-2.64568e-06
3.86366e-06
1.62352e-06
-1.60262e-06
3.49499e-06
6.29537e-07
-6.89838e-08
2.77284e-06
7.90765e-10
1.54117e-06
1.79279e-06
-5.89275e-07
2.64728e-06
1.08696e-06
-1.62425e-06
2.73331e-06
1.01967e-07
-2.72043e-06
-7.81714e-07
-3.95595e-06
-2.53919e-07
2.32216e-07
-1.14867e-07
-3.41652e-07
4.61483e-08
7.17738e-08
-7.90309e-08
-3.57609e-07
3.04799e-07
1.8753e-07
-4.22333e-07
3.11434e-07
2.25405e-07
-1.74537e-07
1.43733e-07
9.93903e-08
4.71031e-08
-1.91888e-08
-2.56351e-08
9.62413e-08
-1.01441e-07
-9.99189e-08
6.99329e-08