/*--------------------------------*- C++ -*----------------------------------*\
| =========                 |                                                 |
| \\      /  F ield         | OpenFOAM: The Open Source CFD Toolbox           |
|  \\    /   O peration     | Version:  2312                                  |
|   \\  /    A nd           | Website:  www.openfoam.com                      |
|    \\/     M anipulation  |                                                 |
\*---------------------------------------------------------------------------*/
FoamFile
{
    version     2.0;
    format      ascii;
    arch        "LSB;label=32;scalar=64";
    class       surfaceScalarField;
    location    "0.83";
    object      phi;
}
// * * * * * * * * * * * * * * * * * * * * * * * * * * * * * * * * * * * * * //

dimensions      [0 3 -1 0 0 0 0];

oriented        oriented;

internalField   nonuniform List<scalar> 
22600
(
1.91141e-07
-3.92833e-07
2.01692e-07
4.13567e-07
-4.10545e-07
1.88118e-07
5.97969e-07
-3.58623e-07
1.74221e-07
7.03491e-07
-2.83976e-07
1.78454e-07
7.30973e-07
-2.09976e-07
1.82494e-07
6.89505e-07
-1.39038e-07
1.80506e-07
5.92356e-07
-7.77843e-08
1.74934e-07
4.58789e-07
-3.2274e-08
1.65841e-07
3.07674e-07
-4.32753e-09
1.55443e-07
7.58397e-09
1.42895e-07
1.67916e-07
-7.39131e-07
1.78381e-07
3.9449e-07
-7.90117e-07
1.52998e-07
5.78157e-07
-6.68686e-07
1.26396e-07
6.83108e-07
-5.29543e-07
1.40617e-07
7.11713e-07
-4.00652e-07
1.62071e-07
6.75454e-07
-2.72437e-07
1.69658e-07
5.86513e-07
-1.57305e-07
1.68461e-07
4.60426e-07
-7.22076e-08
1.66021e-07
3.13308e-07
-2.3516e-08
1.66307e-07
-1.18889e-08
1.62547e-07
2.49444e-07
-1.24534e-06
2.56765e-07
5.471e-07
-1.36273e-06
2.74953e-07
7.37975e-07
-1.03975e-06
1.80193e-07
8.43355e-07
-7.78631e-07
1.43708e-07
8.62065e-07
-5.89055e-07
1.69692e-07
8.00125e-07
-4.09015e-07
1.98518e-07
6.74678e-07
-2.47024e-07
2.15166e-07
5.09043e-07
-1.36173e-07
2.29601e-07
3.32311e-07
-9.69412e-08
2.50157e-07
-1.37256e-07
2.72083e-07
4.60049e-07
-2.15934e-06
4.53951e-07
8.57783e-07
-2.34374e-06
5.83277e-07
9.90179e-07
-1.59118e-06
4.19027e-07
1.05121e-06
-1.10954e-06
2.69871e-07
1.05484e-06
-8.2606e-07
2.33375e-07
9.54335e-07
-5.74597e-07
2.66091e-07
7.5008e-07
-3.55939e-07
3.13171e-07
4.95511e-07
-2.55772e-07
3.74168e-07
2.87495e-07
-3.50433e-07
4.61507e-07
-6.04234e-07
5.51553e-07
7.17703e-07
-3.57487e-06
6.97823e-07
1.18117e-06
-3.67837e-06
8.71172e-07
1.23482e-06
-2.37727e-06
7.3244e-07
1.17994e-06
-1.61382e-06
5.59162e-07
1.11463e-06
-1.22131e-06
4.60561e-07
9.65285e-07
-8.86946e-07
4.61695e-07
6.78009e-07
-5.81692e-07
5.13029e-07
3.76894e-07
-5.87262e-07
6.32605e-07
2.43025e-07
-1.03209e-06
8.15529e-07
-1.43508e-06
9.29817e-07
8.01851e-07
-5.15896e-06
7.82238e-07
1.16497e-06
-5.05266e-06
1.01117e-06
1.28264e-06
-3.49211e-06
9.97176e-07
1.27278e-06
-2.50213e-06
8.98164e-07
1.19375e-06
-1.9072e-06
7.64918e-07
1.07216e-06
-1.43938e-06
6.74024e-07
8.37515e-07
-9.47245e-07
6.00195e-07
6.25446e-07
-1.08073e-06
7.05542e-07
5.21991e-07
-1.80239e-06
8.73757e-07
-1.98966e-06
9.33338e-07
7.03482e-07
-6.67398e-06
8.11545e-07
8.69679e-07
-6.41338e-06
1.19452e-06
1.14974e-06
-5.00716e-06
1.23499e-06
1.40975e-06
-3.84654e-06
1.08441e-06
1.49362e-06
-2.80672e-06
8.15652e-07
1.5293e-06
-2.09697e-06
6.21908e-07
1.26066e-06
-1.26262e-06
5.84013e-07
8.82124e-07
-1.34835e-06
6.4615e-07
6.53291e-07
-2.23717e-06
6.63613e-07
-2.35205e-06
7.69124e-07
5.74269e-07
-8.15439e-06
9.06139e-07
1.10652e-06
-8.18649e-06
1.24086e-06
1.95845e-06
-7.03062e-06
1.17153e-06
2.64058e-06
-5.3106e-06
7.81927e-07
2.6022e-06
-3.08767e-06
3.19325e-07
2.09779e-06
-1.56297e-06
-2.95851e-08
1.31179e-06
-5.40899e-07
6.4283e-08
7.22902e-07
-7.59857e-07
3.96216e-10
3.55946e-07
-1.76431e-06
-1.0591e-07
-1.90634e-06
-4.36062e-08
3.99596e-07
-9.06522e-06
5.1123e-07
2.23438e-06
-9.67176e-06
-3.49514e-07
4.23007e-06
-8.33859e-06
-6.87724e-07
5.91577e-06
-5.91672e-06
-1.07958e-06
5.68934e-06
-1.97686e-06
-8.84378e-07
3.41095e-06
1.02037e-06
-3.04953e-07
1.5195e-06
1.17646e-06
1.74088e-07
7.60314e-07
-8.98748e-07
8.98078e-07
-8.18782e-08
-2.05964e-06
1.13753e-06
-2.3232e-06
1.12654e-06
-3.05168e-07
-8.0884e-06
-6.71655e-07
2.22806e-06
-8.6964e-06
-3.50859e-06
4.03286e-06
-6.78834e-06
-3.35506e-06
6.10329e-06
-5.2025e-06
-2.78464e-06
5.98446e-06
-1.16463e-06
-6.93402e-07
-3.98636e-07
4.72835e-06
2.67512e-06
-1.39047e-06
2.91111e-07
1.87719e-06
-1.62015e-06
-2.31387e-06
1.6448e-06
-2.01491e-06
-2.9705e-06
1.30561e-06
-2.61209e-06
1.06724e-06
-1.58503e-07
-4.98312e-06
-2.94677e-06
1.70169e-06
-5.17841e-06
-5.3782e-06
3.09559e-06
-3.95005e-06
-4.23219e-06
5.60946e-06
-3.25135e-06
-4.46502e-06
8.05213e-06
-9.13183e-07
-2.69411e-06
8.69396e-06
3.42578e-06
6.60723e-07
3.98296e-06
2.13832e-06
2.86379e-06
-1.89416e-06
-4.31268e-07
3.99451e-06
-6.05182e-06
-1.90351e-06
3.09067e-06
-2.74087e-06
2.06133e-06
3.63967e-07
-3.96398e-08
-5.30744e-06
1.71499e-06
-6.67921e-07
-5.8615e-06
2.3321e-06
-5.58953e-07
-4.00821e-06
4.99699e-06
-8.31483e-07
-5.08476e-06
7.9668e-06
1.02985e-07
-3.98598e-06
8.49224e-06
2.73956e-06
1.60784e-07
3.3011e-06
3.46474e-06
3.86472e-06
-3.26554e-06
2.23714e-06
3.89822e-06
-7.24314e-06
1.1323e-07
1.96085e-06
-1.189e-06
-5.64188e-07
4.64122e-07
4.48067e-06
-4.98444e-06
1.36649e-06
3.29743e-06
-4.86772e-06
1.70594e-06
2.4904e-06
-3.3888e-06
4.35178e-06
1.80605e-06
-5.28338e-06
6.7499e-06
2.49553e-06
-4.79067e-06
5.85898e-06
3.80941e-06
-1.78925e-07
2.63493e-07
4.93956e-06
4.12068e-06
-5.05485e-06
4.6143e-06
2.94118e-06
-7.25353e-06
2.53473e-06
-2.22825e-07
1.36742e-06
-2.33121e-06
-1.22955e-07
7.54472e-06
-2.94109e-06
2.07605e-07
6.50507e-06
-3.5382e-06
6.30629e-07
5.1289e-06
-3.06152e-06
3.0997e-06
4.63932e-06
-5.30234e-06
4.99848e-06
5.14672e-06
-4.54997e-06
3.08403e-06
5.67549e-06
4.83681e-08
-2.18381e-06
6.43572e-06
3.77167e-06
-5.77032e-06
6.40432e-06
1.79649e-06
-6.86209e-06
4.76867e-06
-1.14219e-06
3.61832e-06
-2.32633e-06
-1.09432e-06
7.7373e-06
9.01739e-07
-1.26453e-06
8.52123e-06
-1.84596e-06
-5.87108e-07
7.34585e-06
-2.89438e-06
1.59772e-06
7.3957e-06
-4.94122e-06
2.7533e-06
7.75077e-06
-3.75962e-06
5.75193e-07
7.73867e-06
1.14929e-07
-3.78246e-06
7.93076e-06
2.86261e-06
-5.92535e-06
7.9566e-06
5.90602e-07
-6.53013e-06
6.77409e-06
-1.40063e-06
5.59833e-06
-1.8298e-06
-1.65871e-06
5.94172e-06
3.45429e-06
-2.42203e-06
9.60792e-06
-3.23367e-07
-1.66101e-06
9.13173e-06
-2.54691e-06
-3.05308e-08
9.77128e-06
-4.00606e-06
2.60293e-07
1.00695e-05
-2.60962e-06
-1.60537e-06
9.95515e-06
-3.50816e-07
-4.3798e-06
9.98332e-06
7.2186e-07
-5.71998e-06
1.00207e-05
-7.23951e-07
-6.41169e-06
9.11135e-06
-1.64555e-06
7.78691e-06
-1.34959e-06
-1.78583e-06
3.80346e-06
3.9241e-06
-3.1653e-06
9.551e-06
1.43639e-06
-2.63462e-06
1.03682e-05
-1.76718e-06
-1.79906e-06
1.11976e-05
-2.26188e-06
-2.24794e-06
1.13494e-05
-8.30951e-07
-3.52903e-06
1.17954e-05
-5.59155e-07
-4.72036e-06
1.25138e-05
-1.33916e-06
-5.50867e-06
1.26194e-05
-1.81036e-06
-6.32105e-06
1.12679e-05
-1.34415e-06
9.25335e-06
7.17532e-08
-2.19085e-06
1.91875e-06
4.07556e-06
-3.84336e-06
8.35704e-06
2.84647e-06
-3.62746e-06
1.01684e-05
-1.61084e-08
-3.31386e-06
1.05852e-05
2.9878e-07
-4.06159e-06
1.04961e-05
1.60099e-06
-5.04414e-06
1.18788e-05
8.99124e-07
-5.32003e-06
1.38246e-05
-1.03488e-06
-5.36989e-06
1.3771e-05
-1.1018e-06
-5.74936e-06
1.12617e-05
3.85698e-07
8.69748e-06
1.76517e-06
-2.6114e-06
3.81841e-07
4.14832e-06
-4.07641e-06
5.71846e-06
4.10359e-06
-4.03344e-06
7.0747e-06
3.05075e-06
-3.84253e-06
7.18292e-06
3.21137e-06
-4.42823e-06
7.45121e-06
3.6306e-06
-5.09089e-06
9.33772e-06
3.20375e-06
-4.86347e-06
1.1855e-05
1.74218e-06
-4.23686e-06
1.17612e-05
1.38329e-06
-4.06925e-06
8.73953e-06
2.35451e-06
6.26627e-06
2.71324e-06
-1.86225e-06
2.40964e-06
-1.65553e-07
-3.36243e-06
4.48599e-06
2.73266e-06
-3.57391e-06
4.28749e-06
2.99868e-06
-3.43858e-06
4.03642e-06
3.01118e-06
-3.55431e-06
4.0011e-06
3.56585e-06
-3.48871e-06
4.12845e-06
5.14367e-06
-2.62929e-06
3.75408e-06
7.24149e-06
-1.49993e-06
3.20133e-06
7.43048e-06
-1.06748e-06
2.92392e-06
5.38314e-06
2.51904e-06
3.85539e-06
1.77199e-07
-4.10509e-07
4.35003e-07
4.3552e-07
-5.29848e-07
4.59645e-07
6.68655e-07
-4.93407e-07
4.34492e-07
8.0264e-07
-3.77222e-07
4.21692e-07
8.42975e-07
-2.7112e-07
4.13278e-07
8.06474e-07
-1.8803e-07
4.05036e-07
7.06361e-07
-1.22893e-07
3.97939e-07
5.55589e-07
-7.29589e-08
3.89572e-07
3.68205e-07
-3.85871e-08
3.81415e-07
-2.89926e-08
3.68671e-07
1.42015e-07
-7.91865e-07
4.17721e-07
4.43688e-07
-1.14983e-06
4.71309e-07
7.07486e-07
-1.05639e-06
4.25583e-07
8.35143e-07
-7.63326e-07
3.99064e-07
8.58704e-07
-5.29683e-07
3.97073e-07
8.12253e-07
-3.69162e-07
3.97241e-07
7.07505e-07
-2.45453e-07
3.9577e-07
5.55028e-07
-1.49578e-07
3.95117e-07
3.70433e-07
-8.72942e-08
3.99609e-07
-7.99363e-08
3.99771e-07
2.70314e-07
-1.37755e-06
5.72133e-07
7.55813e-07
-2.12971e-06
7.69335e-07
1.04705e-06
-1.823e-06
6.55566e-07
1.13306e-06
-1.21093e-06
5.05303e-07
1.09836e-06
-7.80946e-07
4.55657e-07
1.00577e-06
-5.37221e-07
4.59172e-07
8.62433e-07
-3.59607e-07
4.72653e-07
6.69402e-07
-2.17693e-07
4.90748e-07
4.37957e-07
-1.24711e-07
5.19019e-07
-1.2481e-07
5.42032e-07
5.90692e-07
-2.38858e-06
8.74296e-07
1.28171e-06
-3.50682e-06
1.26936e-06
1.51441e-06
-2.75155e-06
1.11488e-06
1.51054e-06
-1.73117e-06
7.93977e-07
1.41262e-06
-1.05972e-06
6.1007e-07
1.25861e-06
-7.02276e-07
5.85162e-07
1.03822e-06
-4.55291e-07
6.29244e-07
7.5339e-07
-2.56777e-07
6.98078e-07
4.55278e-07
-1.48364e-07
7.83274e-07
-2.22036e-07
8.58455e-07
9.02907e-07
-3.79303e-06
1.19936e-06
1.6527e-06
-5.01703e-06
1.63159e-06
1.82396e-06
-3.73389e-06
1.54351e-06
1.74539e-06
-2.32123e-06
1.2278e-06
1.59405e-06
-1.38891e-06
9.41082e-07
1.38378e-06
-8.84776e-07
8.54464e-07
1.09268e-06
-5.81554e-07
9.30398e-07
7.37637e-07
-3.5199e-07
1.08286e-06
4.28873e-07
-2.46886e-07
1.22281e-06
-4.63942e-07
1.32777e-06
1.01514e-06
-5.33395e-06
1.30803e-06
1.65972e-06
-6.4054e-06
1.75496e-06
1.89976e-06
-4.79656e-06
1.8198e-06
1.92469e-06
-3.12357e-06
1.67558e-06
1.77384e-06
-1.84285e-06
1.36971e-06
1.50948e-06
-1.08139e-06
1.135e-06
1.23887e-06
-8.09415e-07
1.09866e-06
1.04587e-06
-7.40935e-07
1.28749e-06
8.24096e-07
-6.99136e-07
1.54778e-06
-7.39607e-07
1.69359e-06
9.48544e-07
-6.87738e-06
1.40643e-06
1.53388e-06
-7.79555e-06
1.99934e-06
1.98322e-06
-6.0729e-06
2.06199e-06
2.21582e-06
-4.18151e-06
1.90974e-06
2.11694e-06
-2.50082e-06
1.57249e-06
1.87801e-06
-1.40742e-06
1.18688e-06
1.84297e-06
-1.22001e-06
1.02964e-06
1.83963e-06
-1.38609e-06
1.29465e-06
1.43925e-06
-1.19311e-06
1.55797e-06
-6.83298e-07
1.62245e-06
1.0292e-06
-8.58383e-06
1.58339e-06
2.00798e-06
-9.60498e-06
2.0715e-06
2.94818e-06
-7.73979e-06
1.89823e-06
3.37381e-06
-5.27902e-06
1.45381e-06
3.04923e-06
-2.91162e-06
1.05471e-06
2.38275e-06
-1.38819e-06
6.17661e-07
1.82937e-06
-8.55742e-07
2.53406e-07
1.24437e-06
-9.55011e-07
1.54311e-07
7.07398e-07
-9.48128e-07
1.86081e-07
-4.59354e-07
1.71193e-07
1.57941e-06
-1.00951e-05
4.43044e-07
2.94824e-06
-1.09363e-05
-3.87056e-07
4.54133e-06
-9.23411e-06
-7.865e-07
5.8035e-06
-6.52363e-06
-1.09714e-06
6.27257e-06
-3.47934e-06
-7.85728e-07
5.72865e-06
-1.16029e-06
1.10609e-08
3.94229e-06
4.04504e-07
7.00202e-07
2.01883e-06
-2.57253e-07
2.12379e-06
4.29045e-07
-1.95154e-06
3.73072e-06
-2.9437e-06
4.40305e-06
1.50538e-06
-9.20679e-06
-3.0653e-06
1.61673e-06
-9.85806e-06
-4.69812e-06
2.73495e-06
-9.39642e-06
-4.31098e-06
5.20543e-06
-8.22079e-06
-3.55796e-06
7.0281e-06
-4.48841e-06
-1.50703e-06
5.35841e-06
1.26596e-06
1.91856e-06
1.34483e-06
3.70297e-06
2.59229e-06
-1.69423e-07
-3.70753e-06
6.60933e-06
-2.36696e-06
-6.28643e-06
7.83803e-06
-7.42062e-06
7.88595e-06
8.87874e-07
-5.70852e-06
-7.33292e-06
2.82261e-07
-7.05918e-06
-7.57147e-06
1.04473e-06
-7.88647e-06
-6.5046e-06
3.16195e-06
-7.79045e-06
-7.0126e-06
5.88664e-06
-4.36565e-06
-5.54156e-06
8.82026e-06
5.24722e-07
-1.53167e-06
9.9369e-06
4.07516e-06
1.37497e-06
5.69752e-06
5.21189e-07
4.00517e-06
8.79942e-07
-2.88079e-06
4.5026e-06
-2.69535e-06
1.28699e-06
2.37621e-07
-2.41191e-06
-8.84166e-06
7.07611e-08
-4.8254e-06
-7.92843e-06
5.88318e-07
-5.72902e-06
-6.68323e-06
1.79185e-06
-5.72368e-06
-8.35506e-06
3.9234e-06
-2.73374e-06
-7.74944e-06
6.76042e-06
4.28761e-07
-2.58028e-06
8.63076e-06
4.43871e-06
1.63083e-06
5.28171e-06
4.29156e-06
3.4769e-06
1.65404e-07
2.81925e-06
1.37712e-06
4.08127e-06
-4.25315e-06
-2.08638e-08
8.84454e-07
-8.25994e-06
-9.31704e-08
-1.92789e-06
-7.69292e-06
3.29038e-07
-2.94439e-06
-6.59565e-06
9.18096e-07
-2.70669e-06
-8.88943e-06
2.32951e-06
3.03057e-08
-8.96613e-06
4.10671e-06
2.00554e-06
-3.53291e-06
4.71099e-06
5.679e-06
2.27611e-06
1.69674e-06
7.02088e-06
3.2261e-06
-2.44247e-06
7.61072e-06
-8.75102e-07
8.38876e-06
-5.79343e-06
-4.84259e-07
4.81625e-06
-6.38863e-06
-1.46869e-06
1.22824e-06
-5.7099e-06
-9.0179e-07
-3.28592e-07
-6.24422e-06
-6.98302e-07
4.98077e-07
-8.7106e-06
4.46696e-07
3.06286e-06
-8.72752e-06
1.98101e-06
4.49971e-06
-3.98012e-06
1.50136e-06
7.18434e-06
2.74598e-06
-1.00815e-06
9.23735e-06
2.08954e-06
-3.57255e-06
1.12384e-05
-2.20545e-06
1.07876e-05
-5.86818e-06
-9.40754e-07
7.65359e-06
-9.94838e-07
-2.72706e-06
4.1163e-06
-2.94772e-06
-2.45343e-06
2.09021e-06
-5.5868e-06
-2.5542e-06
3.79433e-06
-8.13671e-06
-1.47234e-06
6.23613e-06
-8.01475e-06
3.13627e-07
7.59381e-06
-4.76514e-06
-5.71372e-08
9.18837e-06
1.22934e-06
-2.14879e-06
1.19275e-05
-7.90156e-09
-3.23182e-06
1.42794e-05
-3.35863e-06
1.2493e-05
-5.75208e-06
-1.19857e-06
7.58019e-06
4.72625e-06
-3.15468e-06
6.47378e-06
-7.24727e-07
-3.56795e-06
4.50433e-06
-4.54777e-06
-3.95411e-06
7.03855e-06
-6.86411e-06
-3.08565e-06
9.60817e-06
-6.85012e-06
-9.89577e-07
1.10189e-05
-5.87201e-06
-1.04756e-06
1.24411e-05
-2.47284e-06
-2.35542e-06
1.53033e-05
-2.79187e-06
-1.94612e-06
1.66711e-05
-4.44658e-06
1.35355e-05
-4.87554e-06
-7.00618e-07
5.23622e-06
6.96869e-06
-2.68605e-06
7.863e-06
2.0326e-06
-3.74779e-06
7.01737e-06
-3.2185e-06
-4.4358e-06
1.01248e-05
-4.66006e-06
-3.9937e-06
1.27682e-05
-4.43305e-06
-2.27041e-06
1.40812e-05
-5.34473e-06
-1.68828e-06
1.57408e-05
-5.22108e-06
-1.88591e-06
1.81481e-05
-4.45757e-06
-6.50727e-07
1.81022e-05
-4.01036e-06
1.46377e-05
-1.86069e-06
-7.10174e-07
2.73032e-06
7.29164e-06
-3.0672e-06
8.46447e-06
4.60202e-06
-4.49963e-06
9.2939e-06
-8.60216e-07
-4.89406e-06
1.24382e-05
-1.62023e-06
-4.5679e-06
1.46769e-05
-6.33883e-07
-3.31214e-06
1.5847e-05
-2.12242e-06
-2.27342e-06
1.76391e-05
-3.97181e-06
-1.75153e-06
1.96423e-05
-3.11791e-06
-1.04976e-06
1.87914e-05
-1.00536e-06
1.53076e-05
2.91375e-06
-2.38337e-06
1.69103e-06
7.57098e-06
-4.62163e-06
8.39586e-06
6.41045e-06
-5.67572e-06
1.03512e-05
3.04754e-06
-5.5233e-06
1.26298e-05
2.86739e-06
-5.193e-06
1.40578e-05
3.91938e-06
-4.45498e-06
1.53563e-05
2.95637e-06
-3.47322e-06
1.76639e-05
7.35608e-07
-2.64348e-06
1.92301e-05
9.65775e-07
-2.79874e-06
1.76467e-05
3.65452e-06
1.43408e-05
6.02294e-06
-3.94436e-06
6.17284e-06
1.87219e-06
-5.90048e-06
7.70524e-06
7.13273e-06
-6.18486e-06
6.60529e-06
8.31778e-06
-5.67776e-06
6.53737e-06
9.6217e-06
-5.24123e-06
6.99576e-06
1.06266e-05
-4.68545e-06
6.74365e-06
1.21854e-05
-3.75608e-06
5.44829e-06
1.50403e-05
-2.81284e-06
4.96675e-06
1.65214e-05
-3.1128e-06
5.99241e-06
1.48782e-05
6.20261e-06
1.19863e-05
1.64527e-07
-3.54423e-07
6.24898e-07
4.11395e-07
-4.84925e-07
6.97702e-07
6.36756e-07
-4.5632e-07
6.65451e-07
7.67927e-07
-3.43657e-07
6.34178e-07
8.09084e-07
-2.40055e-07
6.12176e-07
7.76506e-07
-1.62082e-07
5.99697e-07
6.8206e-07
-1.03924e-07
5.96309e-07
5.35641e-07
-6.11292e-08
5.97121e-07
3.5038e-07
-3.72828e-08
6.03958e-07
-4.18743e-08
6.01378e-07
1.17542e-07
-6.63702e-07
6.09459e-07
3.96909e-07
-1.03599e-06
7.43009e-07
6.62981e-07
-9.98044e-07
7.01235e-07
7.96085e-07
-7.19695e-07
6.41998e-07
8.23874e-07
-4.80899e-07
6.10128e-07
7.81841e-07
-3.21686e-07
5.98877e-07
6.83091e-07
-2.09445e-07
6.00041e-07
5.3743e-07
-1.28627e-07
6.08276e-07
3.58474e-07
-8.56128e-08
6.26894e-07
-9.46164e-08
6.38082e-07
1.7135e-07
-1.04497e-06
7.82055e-07
6.23835e-07
-1.79249e-06
1.07334e-06
9.73029e-07
-1.70779e-06
1.01612e-06
1.08657e-06
-1.17014e-06
8.42208e-07
1.05463e-06
-7.28828e-07
7.35519e-07
9.67368e-07
-4.801e-07
7.04852e-07
8.35816e-07
-3.1421e-07
7.0897e-07
6.53921e-07
-1.80348e-07
7.24365e-07
4.26405e-07
-8.49065e-08
7.45829e-07
-7.16424e-08
7.49235e-07
4.0638e-07
-1.62147e-06
1.04442e-06
1.09481e-06
-2.72319e-06
1.51164e-06
1.46955e-06
-2.45341e-06
1.48576e-06
1.53069e-06
-1.63421e-06
1.19691e-06
1.41432e-06
-9.6595e-07
9.63558e-07
1.24664e-06
-6.11525e-07
8.84277e-07
1.04356e-06
-3.83235e-07
9.01347e-07
7.79072e-07
-1.64541e-07
9.46756e-07
4.74968e-07
1.55364e-08
9.86935e-07
8.09501e-08
9.63953e-07
7.2549e-07
-2.46799e-06
1.32038e-06
1.54099e-06
-3.74215e-06
1.83505e-06
1.8801e-06
-3.12648e-06
1.87748e-06
1.89149e-06
-2.02897e-06
1.61115e-06
1.73366e-06
-1.17508e-06
1.30804e-06
1.53365e-06
-7.60679e-07
1.20362e-06
1.29863e-06
-4.89653e-07
1.27184e-06
9.21469e-07
-2.13176e-08
1.3168e-06
5.0758e-07
3.24937e-07
1.3273e-06
3.61e-07
1.30209e-06
9.62062e-07
-3.67228e-06
1.55025e-06
1.74732e-06
-4.86037e-06
2.08791e-06
2.06431e-06
-3.79868e-06
2.17501e-06
2.11676e-06
-2.4353e-06
2.02947e-06
1.98032e-06
-1.379e-06
1.71008e-06
1.78358e-06
-9.42548e-07
1.51361e-06
1.56979e-06
-7.72565e-07
1.59536e-06
1.25495e-06
-2.50134e-07
1.83115e-06
7.98317e-07
4.19501e-07
1.90984e-06
6.46577e-07
1.84394e-06
9.84468e-07
-5.14377e-06
1.89346e-06
1.70563e-06
-6.16527e-06
2.58308e-06
2.07149e-06
-4.63121e-06
2.52866e-06
2.21347e-06
-3.01203e-06
2.34449e-06
2.15427e-06
-1.74697e-06
1.99966e-06
2.10142e-06
-1.30846e-06
1.60565e-06
2.09898e-06
-1.37986e-06
1.63937e-06
1.85137e-06
-6.00772e-07
1.89289e-06
1.31086e-06
3.97368e-07
2.12062e-06
9.78667e-07
2.06626e-06
1.1582e-06
-7.07763e-06
2.35906e-06
2.06642e-06
-7.99006e-06
2.98807e-06
2.6304e-06
-5.9555e-06
2.65854e-06
2.73394e-06
-3.88214e-06
2.22038e-06
2.41542e-06
-2.10331e-06
1.72958e-06
1.96573e-06
-1.03655e-06
7.95435e-07
1.27388e-06
-6.75752e-07
2.41154e-07
4.79233e-07
-1.2057e-07
4.68755e-07
2.17026e-07
2.97193e-07
5.48463e-07
7.90638e-07
4.41149e-07
1.87206e-06
-9.55753e-06
1.05087e-06
2.89232e-06
-9.75469e-06
3.57313e-07
3.97096e-06
-8.14928e-06
3.28641e-07
4.88304e-06
-6.32221e-06
4.30859e-07
5.14671e-06
-3.8952e-06
7.42484e-07
4.74145e-06
-1.62002e-06
9.99796e-07
4.22899e-06
-1.99419e-07
7.36325e-07
3.1915e-06
1.17263e-06
1.86807e-06
1.87832e-06
9.4156e-07
4.39953e-06
1.80597e-06
4.98346e-06
1.38225e-06
-8.94087e-06
-5.06421e-06
1.47508e-06
-8.52674e-06
-6.0189e-06
3.16238e-06
-9.40445e-06
-4.74311e-06
5.80877e-06
-8.82386e-06
-3.70269e-06
6.94699e-06
-4.50208e-06
-2.03837e-06
6.88394e-06
7.10265e-08
2.90554e-07
3.89839e-06
3.15811e-06
2.22031e-06
1.09555e-06
4.11748e-06
6.46732e-06
-1.72081e-06
1.4476e-06
1.01484e-05
3.45574e-06
8.88469e-06
-1.42725e-08
-7.1686e-06
-9.09093e-06
-4.92762e-07
-7.53921e-06
-8.08051e-06
2.40022e-07
-9.40803e-06
-7.23381e-06
1.89771e-06
-9.62227e-06
-7.87189e-06
3.2475e-06
-4.27389e-06
-7.11954e-06
4.31988e-06
1.52592e-06
-4.05896e-06
6.70094e-06
3.69546e-06
-1.54344e-06
7.8669e-06
4.6651e-06
2.29158e-06
4.92201e-06
3.63709e-06
5.258e-06
7.68612e-06
2.36042e-06
-1.10314e-06
-5.42486e-06
-9.48228e-06
-1.16429e-06
-6.88041e-06
-8.52607e-06
-5.80434e-07
-8.1791e-06
-8.49601e-06
-5.5081e-07
-8.09589e-06
-9.91107e-06
7.98909e-09
-2.65544e-06
-9.92669e-06
1.45992e-06
3.45188e-06
-5.95817e-06
4.91047e-06
4.76051e-06
-2.88478e-06
7.38275e-06
6.03238e-06
-3.62641e-07
3.85438e-06
7.5985e-06
9.44097e-07
1.19498e-05
-3.13713e-06
-1.17724e-06
-2.78133e-06
-9.72622e-06
-6.64744e-07
-5.24082e-06
-9.84502e-06
-3.36474e-07
-5.94865e-06
-9.15437e-06
-1.47915e-06
-5.16895e-06
-1.06737e-05
-1.76002e-06
-5.40649e-08
-1.12866e-05
-6.27597e-07
5.89455e-06
-7.108e-06
2.37005e-06
6.71116e-06
-2.67219e-06
4.19755e-06
8.64763e-06
-1.21666e-06
5.64231e-07
1.20264e-05
-1.66969e-06
1.41734e-05
-5.61762e-06
-1.70012e-06
6.79423e-08
-7.53778e-06
-1.70069e-06
-3.20973e-06
-7.74043e-06
-1.4021e-06
-3.72376e-06
-8.76769e-06
-2.95826e-06
-2.04019e-06
-1.02832e-05
-3.52246e-06
2.92877e-06
-1.11462e-05
-2.16216e-06
8.77229e-06
-8.21818e-06
2.00084e-07
9.7751e-06
-2.68021e-06
9.57261e-07
1.25615e-05
-2.58155e-06
-1.12849e-06
1.58831e-05
-3.97644e-06
1.51126e-05
-7.5391e-06
-1.73642e-06
3.40567e-06
-2.59615e-06
-2.982e-06
-7.30815e-07
-4.18106e-06
-3.20768e-06
-1.51428e-06
-7.57062e-06
-5.00656e-06
1.14637e-06
-9.52438e-06
-5.43067e-06
5.84373e-06
-1.05056e-05
-3.49048e-06
1.16354e-05
-9.56844e-06
-1.79691e-06
1.441e-05
-5.09917e-06
-9.36724e-07
1.71068e-05
-5.41331e-06
-3.53208e-07
1.88328e-05
-6.89188e-06
1.59936e-05
-8.59691e-06
-1.2828e-06
5.09371e-06
4.321e-06
-3.28954e-06
2.24241e-06
-1.6912e-06
-4.14623e-06
6.69008e-07
-5.87436e-06
-6.13553e-06
4.1804e-06
-7.90884e-06
-6.60493e-06
8.64075e-06
-9.17775e-06
-4.57795e-06
1.40224e-05
-1.0286e-05
-2.58556e-06
1.85428e-05
-8.59803e-06
-8.46419e-07
2.08557e-05
-8.27994e-06
1.21085e-06
2.05588e-05
-8.2298e-06
1.67866e-05
-7.09909e-06
1.61999e-07
3.98748e-06
7.91292e-06
-1.03978e-06
4.05655e-06
1.42024e-06
-2.82257e-06
3.17188e-06
-3.93858e-06
-5.25386e-06
7.08134e-06
-5.12971e-06
-6.27234e-06
1.13164e-05
-6.09028e-06
-4.72736e-06
1.54097e-05
-8.27703e-06
-2.32843e-06
1.98808e-05
-8.95794e-06
1.71298e-08
2.21683e-05
-8.11572e-06
1.90014e-06
2.08143e-05
-6.14889e-06
1.70631e-05
-2.85215e-06
1.4392e-06
1.64743e-06
8.1925e-06
4.27084e-07
4.94944e-06
4.72124e-06
-1.77242e-06
5.6815e-06
-1.17033e-06
-4.09921e-06
9.94065e-06
-2.15277e-06
-4.9841e-06
1.35826e-05
-2.01513e-06
-3.88385e-06
1.58699e-05
-3.68285e-06
-1.77797e-06
1.88438e-05
-5.04075e-06
3.1845e-07
2.11365e-05
-4.18254e-06
1.35414e-06
1.99637e-05
-1.19049e-06
1.7036e-05
3.83921e-06
-4.31102e-07
9.26068e-07
8.72344e-06
-1.91259e-06
6.20274e-06
6.63863e-06
-3.58197e-06
8.47281e-06
1.92562e-06
-4.49676e-06
1.20523e-05
1.67053e-06
-4.3939e-06
1.43872e-05
3.01187e-06
-3.29974e-06
1.51689e-05
2.56319e-06
-1.86329e-06
1.69062e-05
1.23672e-06
-6.69646e-07
1.89555e-05
1.95313e-06
-8.06796e-07
1.84277e-05
5.32772e-06
1.65795e-05
8.70117e-06
-3.09e-06
8.04225e-06
2.14666e-06
-4.94398e-06
8.43533e-06
7.32663e-06
-5.70743e-06
6.26751e-06
9.57403e-06
-5.48206e-06
6.472e-06
1.18923e-05
-4.68612e-06
7.6381e-06
1.2949e-05
-3.68061e-06
7.78609e-06
1.31209e-05
-2.82192e-06
6.85097e-06
1.46449e-05
-2.23238e-06
6.89113e-06
1.64415e-05
-2.73102e-06
8.51997e-06
1.63988e-05
9.3495e-06
1.51235e-05
1.69039e-07
-2.72758e-07
7.28617e-07
3.99932e-07
-3.60904e-07
8.27713e-07
6.06341e-07
-3.33329e-07
7.9237e-07
7.32255e-07
-2.47926e-07
7.5619e-07
7.77432e-07
-1.6543e-07
7.32429e-07
7.52055e-07
-9.62359e-08
7.2131e-07
6.64712e-07
-3.80053e-08
7.21658e-07
5.25402e-07
8.99514e-09
7.27435e-07
3.43202e-07
3.95027e-08
7.46655e-07
4.73943e-08
7.50111e-07
1.32933e-07
-5.10624e-07
7.14392e-07
3.73294e-07
-7.25666e-07
8.67411e-07
6.05748e-07
-6.93269e-07
8.2872e-07
7.39231e-07
-5.10383e-07
7.70972e-07
7.81249e-07
-3.33892e-07
7.36573e-07
7.53327e-07
-1.94266e-07
7.2483e-07
6.6771e-07
-8.26519e-08
7.30304e-07
5.35422e-07
4.57172e-09
7.44987e-07
3.6374e-07
5.74382e-08
7.80641e-07
8.19771e-08
8.03111e-07
1.36876e-07
-7.60736e-07
8.95291e-07
4.68022e-07
-1.1518e-06
1.16833e-06
7.85293e-07
-1.12166e-06
1.12724e-06
9.38287e-07
-8.10293e-07
9.89125e-07
9.63409e-07
-5.19198e-07
8.95704e-07
9.14396e-07
-3.08179e-07
8.67778e-07
8.00129e-07
-1.32993e-07
8.73578e-07
6.26222e-07
1.82253e-08
8.84618e-07
4.08446e-07
1.27888e-07
8.93156e-07
2.00825e-07
8.56128e-07
2.53892e-07
-1.09753e-06
1.12732e-06
7.47103e-07
-1.66283e-06
1.52946e-06
1.1323e-06
-1.56891e-06
1.54781e-06
1.2853e-06
-1.10965e-06
1.34327e-06
1.26641e-06
-6.88392e-07
1.15164e-06
1.16803e-06
-4.01175e-07
1.07565e-06
9.94384e-07
-1.52051e-07
1.09405e-06
7.32538e-07
1.03965e-07
1.12286e-06
4.26473e-07
3.19528e-07
1.10136e-06
4.27574e-07
9.62284e-07
5.21146e-07
-1.60648e-06
1.30818e-06
1.17901e-06
-2.27786e-06
1.79221e-06
1.55896e-06
-1.96564e-06
1.89426e-06
1.68299e-06
-1.35189e-06
1.72937e-06
1.65761e-06
-8.70729e-07
1.51576e-06
1.56666e-06
-5.48228e-07
1.44163e-06
1.29837e-06
-5.42274e-08
1.4423e-06
8.95579e-07
3.79529e-07
1.44403e-06
4.62445e-07
6.85969e-07
1.394e-06
7.76883e-07
1.19477e-06
8.04371e-07
-2.45895e-06
1.59836e-06
1.56067e-06
-3.11864e-06
2.17239e-06
1.90734e-06
-2.3875e-06
2.25019e-06
1.99938e-06
-1.52445e-06
2.10999e-06
1.98804e-06
-1.02166e-06
1.87236e-06
1.99119e-06
-7.90265e-07
1.75249e-06
1.83385e-06
-2.0523e-07
1.9037e-06
1.26908e-06
7.50697e-07
2.02475e-06
6.28993e-07
1.26694e-06
1.96897e-06
1.35363e-06
1.61535e-06
8.14587e-07
-3.61425e-06
2.23417e-06
1.51883e-06
-4.15587e-06
2.91607e-06
1.87937e-06
-2.98219e-06
2.7628e-06
2.00728e-06
-1.83438e-06
2.52651e-06
2.08986e-06
-1.29525e-06
2.19066e-06
2.32766e-06
-1.24666e-06
1.82425e-06
2.2073e-06
-2.88921e-07
1.84341e-06
1.6663e-06
1.16445e-06
2.02015e-06
1.01123e-06
1.99318e-06
2.04943e-06
2.22867e-06
1.77356e-06
9.17634e-07
-5.15476e-06
2.98194e-06
1.56751e-06
-5.40335e-06
3.58567e-06
1.93342e-06
-3.95246e-06
3.2629e-06
1.93606e-06
-2.4311e-06
2.81446e-06
1.65113e-06
-1.24854e-06
1.9678e-06
9.64634e-07
-5.93012e-07
8.2828e-07
1.99538e-07
2.6817e-07
4.49159e-07
1.21236e-08
1.10328e-06
7.17332e-07
-5.74466e-08
1.83333e-06
7.77891e-07
2.01705e-06
6.1579e-07
2.03734e-06
-7.13526e-06
9.94023e-07
3.0377e-06
-6.73696e-06
6.90563e-07
3.81489e-06
-6.12302e-06
1.72202e-06
4.42819e-06
-4.93848e-06
2.32494e-06
4.29279e-06
-2.78554e-06
2.41489e-06
3.70472e-06
-8.58598e-07
1.85345e-06
3.34819e-06
4.94027e-07
8.66998e-07
3.10351e-06
2.39345e-06
8.22585e-07
1.93634e-06
5.04159e-06
2.35842e-06
5.66335e-06
2.92912e-06
2.48031e-06
-7.32395e-06
-7.35584e-06
4.13507e-06
-6.06142e-06
-8.34919e-06
6.29694e-06
-6.79192e-06
-6.23609e-06
7.99339e-06
-6.05581e-06
-4.28182e-06
7.0314e-06
-1.99362e-06
-1.8683e-06
5.08035e-06
1.31843e-06
6.456e-08
3.79369e-06
4.05153e-06
-5.05313e-08
1.11268e-06
6.80438e-06
4.7374e-06
-1.34241e-06
7.89377e-06
9.75128e-06
1.03583e-05
6.61965e-06
4.35113e-07
-8.35193e-06
-8.49805e-06
-1.8342e-07
-7.01311e-06
-6.5103e-06
2.96985e-07
-8.77441e-06
-5.73174e-06
2.0021e-06
-8.58091e-06
-7.05192e-06
1.63829e-06
-1.8127e-06
-6.93664e-06
-4.33573e-07
4.11385e-06
-4.78251e-06
-1.95947e-06
7.66617e-06
-3.6322e-06
-1.48127e-06
9.8833e-06
-1.26554e-06
-3.65719e-06
1.18797e-05
3.44801e-06
1.39413e-05
8.54434e-07
-1.57175e-06
-6.99287e-06
-9.26958e-06
-2.52546e-06
-6.85647e-06
-7.729e-06
-2.33402e-06
-9.08579e-06
-8.37607e-06
-1.75648e-06
-9.05861e-06
-1.00109e-05
-1.70422e-06
-1.4573e-06
-1.03344e-05
-3.90377e-06
7.23153e-06
-6.8763e-06
-5.19127e-06
1.09126e-05
-4.84374e-06
-4.9705e-06
1.31017e-05
-3.80182e-06
-5.80803e-06
1.46595e-05
-9.98147e-07
1.38439e-05
-3.52089e-06
-1.21233e-06
-5.02134e-06
-1.04854e-05
-8.99061e-07
-6.46223e-06
-1.05525e-05
-1.63681e-06
-7.63254e-06
-9.86987e-06
-3.16137e-06
-7.133e-06
-1.10747e-05
-3.82683e-06
-1.47939e-07
-1.19305e-05
-5.63919e-06
1.01277e-05
-8.19179e-06
-6.71428e-06
1.40992e-05
-4.78368e-06
-6.07469e-06
1.60515e-05
-4.80607e-06
-4.77255e-06
1.59757e-05
-4.28809e-06
1.25187e-05
-7.39672e-06
-1.31327e-06
-2.89574e-06
-8.35011e-06
-5.95869e-07
-5.79072e-06
-9.12933e-06
-1.4348e-06
-5.83079e-06
-9.73051e-06
-3.94688e-06
-4.40017e-06
-1.05039e-05
-5.55248e-06
1.8542e-06
-1.15427e-05
-6.55163e-06
1.2361e-05
-9.45232e-06
-6.88671e-06
1.73654e-05
-5.61133e-06
-5.05931e-06
1.86064e-05
-6.96378e-06
-1.32493e-06
1.68715e-05
-8.60657e-06
1.158e-05
-1.05431e-05
-1.69101e-06
-3.73919e-07
-3.42696e-06
-1.72835e-06
-4.78277e-06
-5.15166e-06
-3.00123e-06
-3.7334e-06
-8.39514e-06
-5.66087e-06
-1.45809e-06
-9.80683e-06
-7.37627e-06
3.62887e-06
-1.05649e-05
-7.04556e-06
1.28382e-05
-1.03764e-05
-5.77076e-06
1.94711e-05
-8.47964e-06
-2.45919e-06
2.01179e-05
-1.02364e-05
2.50152e-06
1.66709e-05
-1.1652e-05
1.11643e-05
-1.06908e-05
-8.34399e-07
1.58887e-06
3.19261e-06
-2.18215e-06
-3.21515e-06
-1.91108e-06
-4.14698e-06
-1.66113e-06
-5.9818e-06
-6.47029e-06
1.20483e-06
-8.24844e-06
-7.89305e-06
5.01985e-06
-9.14597e-06
-6.82345e-06
1.16729e-05
-1.01903e-05
-3.84505e-06
1.83109e-05
-1.04163e-05
3.73127e-07
1.90519e-05
-1.14321e-05
4.34531e-06
1.51646e-05
-1.06957e-05
1.13071e-05
-7.42234e-06
8.97242e-07
1.41061e-06
7.19394e-06
-1.42009e-07
-8.37536e-07
8.1872e-08
-2.72693e-06
6.59859e-07
-3.67465e-06
-4.82935e-06
3.64039e-06
-5.46285e-06
-6.34421e-06
6.74199e-06
-6.29756e-06
-5.66333e-06
1.0335e-05
-7.61993e-06
-2.36038e-06
1.46014e-05
-8.55135e-06
1.49681e-06
1.56587e-05
-8.57969e-06
3.50072e-06
1.30111e-05
-5.99927e-06
1.13851e-05
-1.89019e-06
2.26613e-06
-3.33511e-07
7.6705e-06
2.70801e-06
7.03719e-07
2.7381e-06
1.12096e-06
2.57202e-06
-1.49545e-06
-1.63344e-06
6.06403e-06
-1.82201e-06
-3.5729e-06
8.6889e-06
-2.02258e-06
-3.77148e-06
9.54068e-06
-2.68999e-06
-1.65531e-06
1.05109e-05
-3.06643e-06
7.76318e-07
1.14663e-05
-2.42179e-06
1.1725e-06
1.10704e-05
3.54001e-07
1.18955e-05
4.51004e-06
1.47781e-06
-1.00618e-06
7.9183e-06
1.81219e-06
2.4182e-06
4.58977e-06
6.14261e-07
5.02359e-06
6.71989e-07
-1.3981e-06
8.44861e-06
1.2983e-06
-2.47723e-06
1.0211e-05
2.56892e-06
-2.47776e-06
9.2083e-06
2.89611e-06
-1.82776e-06
8.32742e-06
2.77017e-06
-1.22316e-06
9.30378e-06
3.51107e-06
-1.69141e-06
1.08048e-05
6.0616e-06
1.28561e-05
9.1075e-06
-1.04781e-06
7.51609e-06
5.67788e-07
-1.81447e-06
6.75313e-06
4.86707e-06
-2.86306e-06
4.6553e-06
7.68437e-06
-3.71694e-06
5.71465e-06
1.00599e-05
-3.65364e-06
7.3815e-06
1.04043e-05
-3.25556e-06
7.93996e-06
8.65634e-06
-3.35313e-06
7.49317e-06
7.78281e-06
-3.53687e-06
7.56669e-06
8.81197e-06
-3.74096e-06
8.72207e-06
1.08068e-05
9.715e-06
1.29459e-05
1.7126e-07
-1.89644e-07
7.47002e-07
3.90723e-07
-2.48855e-07
8.57104e-07
5.84748e-07
-2.23126e-07
8.21472e-07
7.09004e-07
-1.57155e-07
7.89089e-07
7.60588e-07
-9.02443e-08
7.71089e-07
7.4316e-07
-2.47504e-08
7.63488e-07
6.6169e-07
3.84365e-08
7.64691e-07
5.26669e-07
9.46386e-08
7.67818e-07
3.39239e-07
1.43464e-07
7.90622e-07
1.84971e-07
7.75292e-07
1.50972e-07
-3.62103e-07
7.35879e-07
3.7163e-07
-4.83027e-07
8.80925e-07
5.76206e-07
-4.42594e-07
8.43612e-07
7.0681e-07
-3.15909e-07
7.99121e-07
7.60669e-07