/*--------------------------------*- C++ -*----------------------------------*\
| =========                 |                                                 |
| \\      /  F ield         | OpenFOAM: The Open Source CFD Toolbox           |
|  \\    /   O peration     | Version:  2312                                  |
|   \\  /    A nd           | Website:  www.openfoam.com                      |
|    \\/     M anipulation  |                                                 |
\*---------------------------------------------------------------------------*/
FoamFile
{
    version     2.0;
    format      ascii;
    arch        "LSB;label=32;scalar=64";
    class       volScalarField;
    location    "0.95";
    object      p_rgh;
}
// * * * * * * * * * * * * * * * * * * * * * * * * * * * * * * * * * * * * * //

dimensions      [1 -1 -2 0 0 0 0];

internalField   nonuniform List<scalar> 
8000
(
403.084
402.784
402.43
402.045
401.669
401.369
401.194
401.153
401.212
401.326
403.421
402.89
402.464
402.027
401.554
401.16
400.932
400.884
400.965
401.118
404.003
403.012
402.362
401.783
401.171
400.634
400.327
400.274
400.424
400.687
405.217
403.737
402.51
401.365
400.357
399.577
399.205
399.219
399.495
399.973
407.759
406.027
403.423
400.917
398.85
397.529
397.061
397.209
397.687
398.699
413.305
410.731
405.452
400.628
396.736
394.548
394.007
394.618
395.927
397.488
422.407
417.307
407.291
398.675
391.878
388.409
388.057
389.071
387.534
388.628
435.853
412.916
350.517
288.089
235.431
210.112
214.805
237.934
274.584
308.836
414.688
296.019
133.081
48.2265
14.9998
8.14032
16.511
42.6783
72.2646
91.587
180.339
66.9597
5.05775
2.0747
0.953231
0.419494
0.159024
0.0869677
0.198265
0.410474
4.90744
2.17646
1.20459
0.566541
0.241167
0.100334
0.0714468
0.10983
0.129037
0.135951
0.839409
0.496062
0.29623
0.163054
0.0963254
0.080475
0.0913256
0.112814
0.128115
0.136084
0.191172
0.300397
0.252364
0.101139
0.0666837
0.102887
0.128041
0.120543
0.145276
0.230748
0.059141
0.157063
0.214797
0.108007
0.073339
0.116255
0.140083
0.143092
0.237695
0.227823
0.0652758
0.0986229
0.102035
0.0891959
0.0906003
0.134238
0.139895
0.241114
0.229964
0.155137
0.0826931
0.0964106
0.0943831
0.0886482
0.10171
0.134888
0.195013
0.229056
0.144432
0.10576
0.112235
0.0980985
0.0870277
0.0778735
0.105302
0.141284
0.222112
0.176173
0.0667389
0.159818
0.121523
0.0912666
0.0707076
0.0663928
0.0933154
0.147647
0.205633
0.0643282
0.0443734
0.229663
0.117565
0.0733854
0.0565675
0.0602265
0.0882911
0.186156
0.162011
0.0299628
0.0245609
0.178242
0.0880332
0.0589384
0.0493049
0.0589994
0.109237
0.174487
0.14852
0.0237942
0.0285397
0.0233857
402.759
402.455
402.145
401.83
401.553
401.343
401.238
401.248
401.338
401.464
402.886
402.417
402.059
401.717
401.387
401.112
400.969
400.978
401.095
401.26
403.167
402.308
401.902
401.35
400.965
400.596
400.386
400.386
400.551
400.807
404.101
402.56
401.437
400.631
400.072
399.566
399.306
399.364
399.656
400.122
406.456
404.995
402.042
399.872
398.564
397.648
397.31
397.422
397.727
398.5
411.212
408.169
404.325
399.427
396.343
394.618
394.183
394.586
395.336
396.741
416.744
414.219
405.749
396.936
390.892
386.285
385.451
387.646
389.582
393.611
414.572
393.146
338.841
266.189
221.357
209.307
222.247
238.535
261.447
287.763
217.078
151.224
71.5943
23.3789
8.86936
7.00795
14.4043
22.6149
27.7625
25.5607
14.257
2.68024
1.26836
0.734609
0.376221
0.154151
0.048699
0.0584046
0.0903914
0.0808826
0.778114
0.444446
0.243818
0.152048
0.093827
0.0579828
0.0665093
0.105689
0.115684
0.0977821
0.0945089
0.0832427
0.0383078
0.028513
0.0458639
0.0582522
0.0882841
0.112055
0.120961
0.116763
0.0180479
0.110398
0.118431
0.0576104
0.0412757
0.0638966
0.105869
0.118166
0.116933
0.163821
0.0237078
0.241651
0.242928
0.0907799
0.0584289
0.0769136
0.120159
0.115624
0.152422
0.195952
0.0586371
0.14521
0.143322
0.08726
0.0669171
0.0993269
0.11248
0.156283
0.163855
0.133474
0.0869916
0.102756
0.106105
0.074588
0.0661906
0.105203
0.148923
0.191019
0.104866
0.056574
0.119417
0.0998921
0.0790223
0.0503934
0.0688682
0.116767
0.194951
0.115233
0.0204609
0.00626204
0.124944
0.0808468
0.0547356
0.0319151
0.0635874
0.153632
0.152169
0.0188221
-0.00900295
-0.0189898
0.105384
0.0637065
0.0367665
0.0303854
0.068251
0.135913
0.037602
0.00272294
-0.0157909
-0.021972
0.0720429
0.0503055
0.0276472
0.034927
0.079726
0.0784605
0.0192079
0.0502812
0.0572732
0.022366
402.35
402.101
401.878
401.644
401.474
401.388
401.397
401.496
401.647
401.799
402.4
402.058
401.847
401.543
401.3
401.162
401.145
401.257
401.446
401.641
402.442
401.991
401.68
401.213
400.894
400.671
400.607
400.719
400.988
401.284
402.886
402.06
401.464
400.451
400.068
399.734
399.648
399.885
400.302
400.736
404.023
403.044
401.621
399.596
398.627
397.986
397.791
398.107
398.668
399.416
405.69
404.553
402.131
398.873
396.45
394.954
394.552
395.295
396.291
397.477
406.953
406.686
402.717
395.993
391.045
387.416
389.488
391.647
392.841
393.725
342.218
348.444
325.782
269.234
229.015
224.515
242.529
257.237
278.105
292.808
60.5598
68.1076
49.9011
19.002
5.19861
1.69537
3.46564
6.81462
8.40645
7.8271
0.989354
0.879663
0.541435
0.274314
0.138247
0.0786129
0.0453066
0.047831
0.0472627
0.0534654
0.170448
0.13684
0.0946853
0.0798505
0.0753053
0.0642068
0.0596282
0.0891065
0.115645
0.0705579
0.0379046
0.0207997
0.0282154
0.0507818
0.0623158
0.0615257
0.0731082
0.102835
0.109733
0.089352
0.0168531
0.00434871
0.0229174
0.0423841
0.0447017
0.0497151
0.0706792
0.0998671
0.0940157
0.073121
0.0292178
0.0477693
0.0790788
0.0618305
0.0426509
0.0451093
0.0704503
0.0853527
0.0728378
0.0650096
0.0616217
0.0857467
0.100462
0.0668266
0.0374963
0.0476598
0.068114
0.062834
0.0453426
0.040314
0.0929445
0.1013
0.0909616
0.0506013
0.0284635
0.0586206
0.0624508
0.0531436
0.0186465
0.0171802
0.104554
0.0946853
0.0659282
0.0309345
0.0458883
0.0822971
0.0683595
0.0135461
-0.00703503
-0.00306135
0.0948204
0.0769794
0.0426779
0.0219763
0.0599231
0.0839859
0.0268927
-0.0126106
-0.0202117
-0.0168438
0.0793171
0.0587667
0.0282232
0.0249713
0.059384
0.049145
-0.0011612
-0.0136582
-0.0229492
-0.0304122
0.0676138
0.0432853
0.0214748
0.0280379
0.0413952
0.0182238
0.00130744
-0.000449881
-0.0200446
-0.046725
401.893
401.707
401.565
401.476
401.468
401.542
401.694
401.913
402.139
402.319
401.881
401.62
401.475
401.334
401.284
401.336
401.493
401.753
402.028
402.254
401.769
401.388
401.232
401.014
400.888
400.891
401.029
401.386
401.773
402.106
401.615
401.045
400.75
400.392
400.173
400.101
400.334
400.782
401.362
401.864
401.488
400.831
400.302
399.472
398.895
398.577
398.76
399.447
400.415
401.257
400.35
400.245
399.832
398.244
396.807
395.992
396.188
397.638
398.996
400.2
397.715
398.858
398.491
395.395
392.454
391.804
392.98
394.171
396.168
397.783
266.593
300.512
304.769
275.712
255.795
252.171
260.733
279.901
304.491
324.462
15.4552
29.0452
34.0904
17.6272
4.38155
0.127658
0.120839
0.711899
15.7587
31.1452
0.258377
0.246834
0.261962
0.15498
0.071008
0.0493764
0.0438304
0.0586415
0.0417897
0.0422909
0.103215
0.0802825
0.0711767
0.0645881
0.0550335
0.0507384
0.0569907
0.0743139
0.0529222
0.0427934
0.0621265
0.0466455
0.0484936
0.0504654
0.0402241
0.0428227
0.060191
0.0865676
0.0831781
0.0560785
0.0433489
0.0276569
0.0465869
0.0410114
0.0204415
0.0282258
0.0541627
0.0792236
0.0770094
0.0486434
0.0475556
0.0480788
0.0867533
0.044426
0.016328
0.0236611
0.0491918
0.0652849
0.0551346
0.0449646
0.0780423
0.086392
0.101684
0.0413434
0.0140586
0.0279656
0.04998
0.0475747
0.0345588
0.0376175
0.0987357
0.107407
0.0958163
0.029767
0.0172223
0.045622
0.0374035
0.0252571
0.0128098
0.0236648
0.0931013
0.0943369
0.0605579
0.021673
0.0307631
0.0535781
0.0256805
0.00787195
-0.00620145
0.00523728
0.0808759
0.0676633
0.0378229
0.0232579
0.0412585
0.0470659
0.0215234
0.000742057
-0.0183893
-0.0166411
0.0669301
0.0466387
0.0269814
0.0321802
0.051457
0.0444329
0.0189987
0.00234793
-0.0165063
-0.0294548
0.049833
0.0258281
0.0167539
0.0412031
0.0505802
0.0329554
0.0130696
0.00683937
-0.0072276
-0.0326721
401.436
401.351
401.33
401.395
401.557
401.803
402.116
402.461
402.762
402.967
401.321
401.195
401.169
401.221
401.382
401.644
401.998
402.405
402.766
403.017
401.04
400.85
400.824
400.859
401.012
401.292
401.729
402.269
402.764
403.124
400.441
400.214
400.223
400.262
400.394
400.688
401.241
402
402.739
403.317
399.274
399.214
399.325
399.287
399.31
399.515
400.303
401.472
402.605
403.517
395.897
396.829
397.727
397.714
397.556
397.879
399.024
400.86
402.54
403.693
390.542
393.463
395.38
395.028
394.488
394.52
395.579
398.277
401.239
403.173
219.879
274.835
291.902
286.371
280.27
273.315
284.552
322.495
357.478
376.432
3.03481
12.8819
24.2644
21.4501
11.045
4.24848
7.08804
28.3876
64.169
96.2355
0.137127
0.115112
0.14173
0.106035
0.00933985
0.00574748
0.0304701
0.0573853
0.0486978
0.0497835
0.0980071
0.0761876
0.0634176
0.0481989
0.0315515
0.0368718
0.0358391
0.0408332
0.0304149
0.0225723
0.0701799
0.0574258
0.0540654
0.0416057
0.0199158
0.0302429
0.042436
0.0513724
0.0387326
0.018068
0.0549228
0.0444693
0.0512868
0.033418
-0.000567522
0.0135736
0.0372952
0.0520381
0.0405582
0.0213555
0.0556336
0.0705765
0.0948912
0.0224529
-0.00557482
0.0101306
0.0324826
0.0479812
0.0393834
0.0311971
0.0726511
0.111244
0.102066
0.0287231
0.000672517
0.0137341
0.0389795
0.0444113
0.0366893
0.038239
0.119186
0.118477
0.099536
0.0406803
0.00648373
0.0285574
0.0483795
0.0435401
0.030599
0.0334354
0.0941521
0.0841038
0.0551704
0.0225352
0.0205147
0.0417088
0.0519031
0.0444557
0.0174467
0.0215261
0.0589748
0.0467869
0.0306534
0.024983
0.0412551
0.0581295
0.0554147
0.0406531
0.00915841
0.000188925
0.0364073
0.01938
0.0124726
0.0356452
0.073598
0.0625915
0.0433036
0.0260309
0.00626397
-0.00936886
0.0124917
-0.012669
-0.0109622
0.0297148
0.0649358
0.0583698
0.0135646
0.00540193
0.00105372
-0.0118398
401.047
401.056
401.166
401.39
401.721
402.14
402.609
403.076
403.452
403.684
400.828
400.821
400.949
401.195
401.567
402.036
402.575
403.127
403.577
403.864
400.358
400.344
400.516
400.805
401.242
401.802
402.487
403.216
403.837
404.242
399.437
399.461
399.788
400.201
400.699
401.371
402.294
403.329
404.247
404.895
397.562
397.906
398.594
399.173
399.824
400.668
401.962
403.483
404.828
405.82
393.341
394.644
396.384
397.371
398.457
399.511
401.306
403.669
405.764
407.121
387.226
390.532
393.385
394.981
395.428
396.319
398.878
402.634
406.082
408.479
205.991
271.465
297.01
298.138
296.425
306.037
336.61
372.592
395.906
407.409
0.238837
4.36455
20.082
28.7955
25.1041
24.6549
44.317
90.2998
148.385
196.734
0.123815
0.0828004
0.0529955
0.0450224
0.0195309
0.00669002
0.0216394
0.051268
0.0540266
0.065137
0.0914579
0.0772143
0.0564606
0.0349132
0.0392748
0.00345549
-0.00848128
0.00816115
0.0195688
0.00445022
0.0695658
0.0609127
0.0500294
0.0266381
0.0324115
0.0156468
0.00775294
0.00575851
0.00426089
-0.0159399
0.0542516
0.0458254
0.0512526
0.0255948
-0.00221849
0.00982658
0.0118879
0.0123464
0.0138444
-0.00579162
0.0514141
0.0739822
0.0746839
0.00909366
-0.00765007
0.0074303
0.0109999
0.0218887
0.0309993
0.0194379
0.0589621
0.0980707
0.0879846
0.0396925
0.00743572
0.0101613
0.0278693
0.0485579
0.0524145
0.0366321
0.100108
0.086997
0.0846251
0.0581181
0.0182818
0.0183904
0.0523855
0.0767451
0.0668809
0.050804
0.0926871
0.048935
0.0438633
0.0276383
0.0232117
0.0449896
0.074992
0.0924107
0.072839
0.0457155
0.0372299
0.0198442
0.0174478
0.0195923
0.0367296
0.063192
0.0795088
0.0798444
0.0563469
0.0250312
0.00553223
-0.0125608
-0.0037398
0.00899474
0.0365969
0.0641652
0.0540148
0.0420538
0.0319793
0.0262025
-0.0090798
-0.0426462
-0.0225112
-0.00241227
0.0341176
0.0873488
0.0471708
0.020361
0.0289478
0.0276995
400.777
400.858
401.085
401.451
401.933
402.501
403.109
403.685
404.125
404.386
400.481
400.56
400.83
401.252
401.8
402.446
403.152
403.833
404.369
404.701
399.85
399.948
400.313
400.842
401.513
402.31
403.226
404.131
404.879
405.344
398.748
398.867
399.459
400.182
401.01
402.036
403.323
404.612
405.704
406.417
396.433
396.972
398.104
399.182
400.179
401.504
403.403
405.331
406.952
407.884
392.328
393.512
395.815
397.49
398.71
400.381
403.12
406.163
408.754
410.371
385.439
389.702
392.441
394.319
395.71
398.143
402.21
406.725
410.755
413.591
204.698
272.667
299.883
305.202
316.628
344.259
376.556
400.301
413.32
419.04
0.188431
0.651484
17.5566
33.9641
39.0568
54.833
99.3032
164.368
234.267
290.037
0.113663
0.0835401
0.0637693
0.0687625
0.0392776
0.0124479
0.012283
0.0367602
0.0647161
0.12229
0.0910284
0.0950181
0.0766331
0.0367678
0.0118501
-0.00809478
-0.0157751
-0.0116371
-0.00868039
-0.0041737
0.0681688
0.0889253
0.101156
0.0469582
0.00330538
0.00412128
-0.00236793
-0.0224704
-0.0241824
-0.0354724
0.0504694
0.0625693
0.0539927
0.019097
-0.00143728
0.0110263
0.0147149
-0.0042693
0.000782874
-0.0207989
0.0421142
0.0624615
0.0421873
0.0129368
0.00325316
0.0222047
0.0187376
0.0227434
0.0406238
0.0161043
0.0393729
0.0811778
0.057503
0.0462299
0.0241335
0.0135896
0.0343698
0.0718672
0.0848622
0.0495734
0.0642589
0.0397367
0.0672341
0.0606626
0.0491807
0.0251637
0.0578785
0.107862
0.116384
0.0689648
0.066704
0.021588
0.0285721
0.0410364
0.03357
0.0540184
0.0941391
0.128699
0.127066
0.075033
0.0487695
-0.00132743
0.00672329
0.0149674
0.0302345
0.0621005
0.12523
0.196893
0.155027
0.0701382
0.00113233
-0.0290002
-0.0119326
0.00364245
0.0216329
0.128387
0.249877
0.236053
0.0932796
0.0606833
-0.0161223
-0.0437651
-0.0258965
-0.00836079
0.00402569
0.193866
0.379485
0.174908
0.0902136
0.0923888
400.648
400.778
401.092
401.566
402.165
402.849
403.563
404.228
404.729
405.013
400.317
400.45
400.814
401.363
402.049
402.834
403.673
404.456
405.049
405.432
399.608
399.745
400.228
400.926
401.782
402.781
403.891
404.938
405.774
406.296
398.388
398.531
399.271
400.193
401.258
402.617
404.232
405.739
406.968
407.735
395.93
396.355
397.804
399.05
400.225
402.158
404.679
406.952
408.797
409.787
391.997
393.083
395.477
397.121
398.604
401.412
405.128
408.616
411.477
413.144
384.625
388.046
391.528
393.691
396.217
400.525
405.755
410.769
415.085
417.835
222.637
271.804
301.18
313.203
335.337
369.048
397.695
413.324
421.15
424.722
0.190345
4.26359
22.7312
36.5642
48.191
84.2603
152.23
230.786
306.773
342.736
0.112003
0.0928289
0.0853507
0.0731193
0.0391243
0.000688617
-0.00229752
0.0362486
1.1188
22.8997
0.0975522
0.131038
0.114133
0.0515446
0.00369591
-0.011032
-0.0181853
-0.0335028
-0.0294179
-0.0109733
0.0806089
0.13803
0.124801
0.0247325
0.00202648
0.00421809
0.00516344
-0.0295896
-0.0440165
-0.0288825
0.0491244
0.0545989
0.0403422
0.0496381
0.00541035
0.0182275
0.0305366
0.0119092
0.00347204
-0.0070468
0.0316469
0.029344
0.039025
0.078482
0.0079338
0.0240726
0.0430005
0.0529387
0.0701885
0.0454624
0.0375319
0.0433636
0.0392505
0.0547402
0.0355438
0.0283468
0.0498548
0.100669
0.135498
0.0956447
0.0388545
0.0364668
0.0393605
0.0630696
0.064002
0.0484552
0.0876275
0.147027
0.189396
0.10378
0.0484726
0.0087897
0.0427459
0.0811522
0.0654773
0.0487839
0.139004
0.401227
0.43843
0.091813
0.0436814
-0.00266455
0.00691047
0.016043
0.0256421
0.0927056
0.470684
0.539235
0.531189
0.332689
0.0323059
-0.0167697
-0.0127305
-0.00477421
0.00325485
0.208299
0.498263
0.52149
0.530544
0.510215
-0.000342381
-0.0231887
-0.0244121
-0.0178516
-0.0182044
0.181031
0.476385
0.513353
0.393522
0.34466
400.654
400.808
401.169
401.707
402.379
403.139
403.917
404.636
405.187
405.492
400.319
400.467
400.879
401.502
402.278
403.164
404.089
404.93
405.635
405.99
399.612
399.727
400.254
401.048
402.044
403.21
404.446
405.57
406.486
406.993
398.294
398.409
399.219
400.248
401.576
403.239
405.048
406.667
408.011
408.731
395.817
395.997
397.638
398.908
400.633
403.164
405.966
408.258
410.127
411.382
391.907
392.833
395.135
396.745
399.152
403.087
407.309
410.674
413.434
415.129
385.455
388.212
391.387
393.52
397.543
403.356
409.167
414.115
418.325
420.851
253.271
289.378
312.726
322.752
352.072
386.614
408.692
419.328
425.589
428.856
0.249741
10.2233
28.008
37.5763
58.7984
114.963
197.211
287.192
355.707
388.067
0.115841
0.0977353
0.090785
0.0720656
0.0268838
-0.0164559
-0.0145814
0.0819142
31.7681
60.4653
0.0944373
0.134175
0.131062
0.0485474
-0.00695693
-0.0152024
-0.0269508
-0.0372449
-0.0242402
0.0362691
0.0788312
0.130935
0.134772
0.0185128
-0.000330003
0.00527892
0.00589833
-0.0296043
-0.0257788
0.0222132
0.0377043
0.0282924
0.0350904
0.12458
0.00750323
0.0288003
0.0440623
0.0264086
0.0306613
0.0443577
0.0200717
0.0183596
0.062487
0.215044
0.0154472
0.0348025
0.0525868
0.0697847
0.0925615
0.0735282
0.0133855
0.0169633
0.0525838
0.130147
0.03514
0.0461926
0.0639535
0.113469
0.302821
0.184149
0.00938822
0.0183104
0.0439304
0.138821
0.0541893
0.0516658
0.113031
0.400368
0.491847
0.393275
0.010393
0.00278181
0.0502411
0.15818
0.0427168
0.117417
0.442946
0.491158
0.473062
0.319758
0.0136148
-0.00296776
0.0108881
-0.000709077
0.0181917
0.274261
0.458118
0.463384
0.323213
0.0515866
0.0171864
-0.00417404
-0.0154146
-0.0134732
-0.0120744
0.206687
0.42715
0.299536
0.00819829
0.0251172
-0.00216509
-0.00325055
-0.0262506
-0.0265981
-0.030435
-0.00720583
0.0699069
-0.0367319
-0.00703905
-0.00516324
400.765
400.921
401.296
401.86
402.564
403.358
404.157
404.882
405.444
405.548
400.457
400.596
401.015
401.669
402.487
403.425
404.386
405.25
405.917
405.894
399.821
399.903
400.408
401.248
402.319
403.561
404.846
406.002
406.889
406.899
398.552
398.608
399.354
400.508
402.019
403.808
405.658
407.304
408.572
408.771
396.21
396.202
397.615
399.206
401.44
404.19
406.955
409.292
411.156
410.548
392.439
392.935
394.995
397.112
400.482
404.791
408.98
412.363
414.894
413.877
386.96
388.843
391.414
394.113
399.36
405.578
411.522
416.562
420.473
420.913
277.35
299.672
316.677
329.124
364.202
396.293
414.142
423.071
428.454
431.129
7.45592
13.9412
29.1243
37.986
72.689
141.823
229.195
328.905
391.559
422.733
0.105408
0.104966
0.101423
0.0717579
0.0199956
-0.0225459
0.00790092
7.3458
65.2406
112.803
0.0835692
0.134186
0.152551
0.0413165
-0.0207928
-0.0253084
-0.0389986
-0.0327729
0.00793175
0.0512177
0.0577073
0.116549
0.212665
0.0294125
-0.00782043
0.00413981
-0.008314
-0.0259436
0.0144045
0.0482365
0.0266088
0.0209919
0.137353
0.179834
0.0118937
0.0328241
0.0478567
0.0307506
0.0492591
0.0660442
0.0113031
0.00862725
0.138446
0.214047
0.0865831
0.0407563
0.0542431
0.0612025
0.0789727
0.0772105
0.00102755
0.000690041
0.132637
0.231181
0.127662
0.0451722
0.0568989
0.0686997
0.152855
0.0736027
-0.0037034
-0.00346101
0.0754354
0.244492
0.0612657
0.102936
0.255887
0.229475
0.147415
0.057211
-0.00507544
-0.0058795
0.0379856
0.144921
0.0233611
0.216985
0.439009
0.417696
0.0156118
0.0655614
-0.00735228
-0.00898868
0.000409598
-0.00816697
0.00221809
0.170366
0.412002
0.197864
-0.0123532
0.11257
-0.0102441
-0.0106837
-0.0207506
-0.0209749
-0.0134085
-0.00852947
0.0671511
-0.0761459
-0.0176903
0.0634902
-0.0144882
-0.0165051
-0.028199
-0.0307897
-0.0301494
-0.0600789
-0.0931023
-0.072721
-0.0250214
-0.000928392
400.932
401.076
401.434
401.983
402.675
403.457
404.236
404.943
405.476
405.558
400.671
400.795
401.182
401.819
402.627
403.551
404.49
405.328
405.983
406.045
400.142
400.208
400.639
401.452
402.513
403.735
404.999
406.128
406.998
407.261
399.014
399.033
399.649
400.792
402.313
404.081
405.898
407.501
408.789
409.042
396.861
396.754
397.903
399.618
401.935
404.624
407.297
409.58
411.443
410.826
393.306
393.46
395.275
397.798
401.351
405.395
409.396
412.799
415.272
414.005
388.583
389.392
391.574
394.779
400.271
406.299
412.124
417.25
420.994
420.733
291.844
299.792
312.393
329.031
367.154
398.159
415.583
424.272
429.229
431.686
12.5454
14.7827
25.2694
35.8338
77.5652
149.238
241.935
347.671
406.23
432.648
0.107313
0.123915
0.115298
0.0712441
0.0159414
-0.0267768
0.0136357
18.7409
86.5384
144.652
0.093101
0.15365
0.182918
0.0281079
-0.0312934
-0.0365051
-0.0464461
-0.0238306
0.0260994
0.0395058
0.0604594
0.194715
0.190201
0.00236853
-0.0113265
-0.00656121
-0.0212178
-0.0184716
0.0312929
0.0403497
0.0178669
0.0493707
0.195785
0.106646
0.0156381
0.028466
0.0337891
0.0303175
0.0469532
0.0500871
0.00140724
0.0577322
0.204799
0.204528
0.123317
0.0451422
0.0513611
0.0498939
0.0644489
0.0479557
-0.0087114
0.0252313
0.208661
0.221685
0.243079
0.0545118
0.0531122
0.105509
0.105813
0.0426358
-0.0118384
-0.0147031
0.215767
0.228642
0.193082
0.0646546
0.215706
0.204338
0.0631324
0.0580539
-0.0106953
-0.0143698
0.126979
0.237828
0.0232067
0.0522266
0.388234
0.168593
-0.00857666
0.160587
-0.00907655
-0.0133928
-0.0164936
0.225136
0.019534
0.00840168
0.189845
-0.0347795
-0.0398213
0.161659
-0.00910547
-0.0156458
-0.0254683
-0.00247255
-0.00145928
-0.0144996
-0.0421423
-0.0597346
-0.0250903
0.174875
-0.00721442
-0.0187056
-0.02895
-0.0320031
0.00336111
-0.0115255
-0.0500139
-0.0368236
0.0101018
0.03248
401.115
401.236
401.548
402.047
402.689
403.417
404.142
404.792
405.288
405.508
400.895
400.999
401.335
401.914
402.668
403.529
404.395
405.138
405.814
406.033
400.476
400.51
400.874
401.614
402.603
403.741
404.911
405.933
406.738
407.103
399.582
399.589
400.023
401.054
402.462
404.108
405.792
407.253
408.456
408.983
397.653
397.513
398.361
400.026
402.14
404.617
407.085
409.128
410.883
411.83
394.518
394.368
395.836
398.296
401.627
405.278
408.865
411.936
414.279
415.785
390.359
390.213
392.072
395.291
400.358
405.848
411.166
415.964
419.441
421.72
295.789
294.719
305.69
324.034
361.016
393.556
413.331
422.697
427.476
430.327
14.1363
12.4159
20.9694
31.6432
70.2331
135.299
225.785
336.322
398.815
425.449
0.121376
0.127766
0.0974164
0.0602256
0.0125791
-0.0315792
0.00669214
12.3506
77.614
130.22
0.143629
0.127171
0.0942433
0.017652
-0.0409398
-0.0493047
-0.0556519
-0.0167933
0.0232809
0.0153611
0.215056
0.193371
0.0284659
0.0251386
-0.00106384
-0.0211186
-0.0300978
-0.0184625
0.0262248
0.0200305
0.177724
0.179747
0.0305159
0.0115662
0.030935
0.0245888
0.0233776
0.0247495
0.0673884
0.0282514
0.17503
0.179274
0.17877
0.0143268
0.0375579
0.0421202
0.0443515
0.0992968
0.160002
0.0882369
0.098556
0.187676
0.197591
0.135981
0.117416
0.0886161
0.0409825
0.163249
0.148231
0.153269
-0.0119841
0.0610701
0.203163
0.213747
0.161132
0.0480892
0.0407531
0.133632
0.115161
0.138725
-0.0130385
-0.0180027
0.220659
0.217282
0.086529
0.0223527
0.0223485
-0.0225421
0.00796491
0.127311
-0.00537653
-0.00950348
0.0773988
0.169399
0.0358103
-0.00081343
-0.0166053
-0.0403245
-0.0477471
0.130912
-0.000688525
-0.00645833
-0.0249264
0.0173382
0.0388098
-0.00194589
-0.0157678
-0.0220879
-0.0104162
0.0811607
0.00240026
-0.00552531
-0.0236918
-0.0149886
0.0393844
0.044096
-0.00862478
-0.000952161
0.0600062
0.0164884
401.301
401.389
401.633
402.047
402.599
403.236
403.875
404.435
404.819
404.983
401.125
401.198
401.46
401.939
402.589
403.341
404.102
404.757
405.203
405.445
400.772
400.808
401.101
401.701
402.547
403.538
404.557
405.444
406.097
406.394
400.186
400.157
400.433
401.245
402.432
403.844
405.309
406.6
407.577
408.031
398.548
398.476
399.05
400.324
402.144
404.242
406.358
408.248
409.657
410.468
395.952
395.707
396.686
398.726
401.633
404.71
407.762
410.505
412.48
413.875
392.411
391.826
393.351
396.245
400.329
404.901
409.392
413.46
416.494
418.745
295.631
293.401
299.624
318.146
351.573
384.227
406.951
418.912
423.671
426.673
12.3536
10.1532
16.902
27.3105
59.0383
110.679
186.016
286.486
364.783
398.891
0.126859
0.106641
0.0728117
0.0411663
0.00359301
-0.0364882
0.00639451
0.205472
40.3689
81.1076
0.181076
0.058694
0.0284132
0.00173677
-0.0396314
-0.0606378
-0.0693268
-0.0183249
0.0202279
0.00297893
0.201358
0.0174744
-0.00808759
0.0176661
-0.0113314
-0.0406392
-0.0513311
-0.0322745
0.0273258
0.00858927
0.184477
-0.00294452
-0.0129137
0.000352673
0.0099515
0.0293471
-0.00102696
0.00559479
0.134465
0.0658756
0.179966
0.110204
0.00935147
-0.00242187
0.0307597
0.0442206
0.0234278
0.0741185
0.133371
0.130432
0.191642
0.181364
0.157408
0.0555601
0.0480561
0.0547704
0.0208711
0.103611
0.114719
0.124248
0.190111
0.205863
0.197127
0.0995883
0.0523468
0.134466
0.0558919
-0.00933303
0.0794909
0.104295
0.00830967
0.113808
0.127721
-0.0294226
0.0734356
0.169964
0.0523343
-0.0238548
-0.0518527
-0.0170004
0.0044507
0.005241
0.0845019
-0.000813168
-0.029148
-0.0188306
-0.0149295
-0.0221214
-0.0303272
-0.0234788
0.0136299
0.0139872
0.0651658
0.0367126
-0.0277991
-0.0224725
-0.0181002
-0.0136287
0.0151321
0.0355738
0.0174119
0.0151585
0.0145683
-0.00234664
-0.0127719
0.00393697
0.000554334
-0.000522239
0.0998897
0.0478378
401.49
401.53
401.683
401.98
402.401
402.904
403.415
403.86
404.145
404.254
401.372
401.392
401.541
401.883
402.38
402.973
403.579
404.106
404.46
404.622
401.147
401.137
401.304
401.699
402.329
403.103
403.906
404.616
405.123
405.324
400.747
400.688
400.831
401.35
402.21
403.286
404.424
405.466
406.199
406.537
399.531
399.473
399.788
400.565
401.877
403.465
405.111
406.668
407.7
408.276
397.109
397.04
397.688
398.943
401.255
403.588
405.949
408.213
409.732
410.752
393.271
392.979
394.912
397.501
400.049
403.333
406.809
410.008
412.268
414.175
292.596
294.087
300.248
314.092
341.953
372.975
396.01
410.019
417.424
420.785
7.74803
10.4731
16.8105
24.0394
49.5225
88.6138
142.149
204.082
279.587
339.813
0.123765
0.103934
0.0576519
0.0197723
-0.00355814
-0.0357053
-0.0110072
0.0976516
0.239514
13.3361
0.0713826
0.0327881
0.00909389
-0.0136751
-0.0394991
-0.0680066
-0.0788354
-0.0379235
0.0368522
0.0276696
0.145081
-0.0139754
-0.0205427
-0.0244256
-0.0372097
-0.0648479
-0.0834264
-0.0596134
0.0417585
0.0240532
0.151614
-0.00861386
-0.0365451
-0.0458974
-0.0157289
-0.0051776
-0.0382203
-0.0347294
0.108685
0.118721
0.13937
0.0344431
-0.0527366
-0.032062
-0.00717001
0.00875372
-0.00955539
-0.00395919
0.106507
0.116049
0.15709
0.0559132
-0.0580233
-0.00397111
0.0164584
0.00966667
0.0018854
-0.0143837
0.092703
0.10847
0.126217
0.0588356
-0.0448671
-0.076608
0.0750762
0.163389
0.179447
0.125403
-0.0344713
0.00181343
-0.0101844
0.0601603
-0.0086731
-0.0693547
-0.00707242
0.16189
0.188222
-9.24232e-05
-0.0448887
-0.0397765
0.0149254
0.0334328
0.0203738
-0.043253
-0.0653319
0.0126089
-0.0207411
-0.0393298
-0.0371872
-0.0263684
0.028292
0.0394117
0.0251173
-0.0229028
-0.0502469
-0.0537808
-0.035959
-0.0260962
0.00888322
0.0769933
0.0335337
0.0422189
0.0215803
-0.0175718
-0.0438408
-0.0405256
-0.00970706
-0.00205526
0.107326
0.0115689
401.671
401.647
401.692
401.851
402.119
402.46
402.817
403.134
403.335
403.403
401.622
401.57
401.601
401.766
402.068
402.467
402.887
403.259
403.498
403.588
401.528
401.44
401.443
401.609
401.973
402.481
403.028
403.519
403.847
403.97
401.325
401.187
401.142
401.326
401.8
402.475
403.224
403.924
404.359
404.59
400.49
400.39
400.408
400.687
401.362
402.325
403.405
404.446
405.06
405.432
398.576
398.528
398.799
399.407
400.536
401.965
403.433
404.957
405.965
405.937
393.37
396.05
396.566
397.434
399.188
400.964
403.135
405.348
406.991
408.485
274.289
284.472
297.65
305.799
327.551
353.364
375.429
390.026
403.285
411.685
10.9796
15.3343
22.8852
28.8437
43.9502
67.1166
95.2461
128.147
178.977
238.08
0.111315
0.120887
0.0758049
0.00511375
0.00435664
-0.0228972
-0.0186033
0.0532598
0.118677
0.0948649
0.0237693
-0.00480385
-0.0282339
-0.0331188
-0.0414217
-0.0686862
-0.0827449
-0.0407929
0.0286581
0.0386038
-0.0281758
-0.0455954
-0.0467421
-0.0274026
-0.0501909
-0.0901206
-0.119405
-0.0923767
0.0241455
0.0357466
-0.0415603
-0.0749789
-0.0657847
-0.0576283
-0.0397176
-0.0669363
-0.105775
-0.102764
0.0748476
0.117362
-0.0535176
-0.0784785
-0.0860007
-0.0683392
-0.0511893
-0.028217
-0.0576273
-0.0784014
0.0629127
0.101183
-0.0357251
-0.0466179
-0.0850256
-0.0834669
-0.0237037
-0.0180524
-0.0454945
-0.065543
-0.0158655
0.0920408
0.0258796
-0.00852024
-0.0686097
-0.0941284
0.0110551
0.0495872
0.0796228
0.116749
-0.0420179
-0.0339568
0.0041954
0.0251786
-0.000104705
-0.110797
-0.129824
0.0842353
0.126106
0.15801
0.0077719
-0.0492041
0.0469477
0.0795464
0.0343469
-0.075435
-0.131145
0.067615
0.142795
0.160226
-0.0174316
-0.0413395
0.049471
0.0738462
0.0387281
-0.0297515
-0.0808601
-0.0532981
0.182968
0.173736
0.0380247
0.0457025
0.0532045
0.0650842
0.0439949
-0.00394339
-0.0342827
0.0553899
0.164646
0.155942
0.124514
-0.0144775
401.821
401.719
401.65
401.666
401.778
401.957
402.159
402.348
402.466
402.495
401.841
401.69
401.589
401.578
401.687
401.887
402.121
402.341
402.475
402.508
401.843
401.627
401.467
401.404
401.51
401.749
402.039
402.317
402.482
402.53
401.819
401.507
401.23
401.101
401.208
401.498
401.875
402.237
402.434
402.568
401.398
401.056
400.691
400.466
400.589
400.942
401.462
402.001
402.274
401.918
400.41
400.058
399.721
399.377
399.536
399.967
400.591
401.354
401.917
401.688
398.858
398.63
398.23
397.31
397.308
397.973
398.893
400.111
401.28
402.323
260.954
282.369
297.082
297.091
301.168
321.953
340.996
356.079
371.83
388.807
15.53
23.7298
33.485
38.8038
44.3151
48.5237
54.5383
66.4347
91.9967
127.633
0.287738
0.312534
0.236855
0.117837
0.0159552
-0.000228627
0.00951255
0.0614744
0.101133
0.0808453
-0.0171041
-0.0314234
-0.0419578
-0.0248815
-0.0257013
-0.0567441
-0.0618284
-0.0130831
0.0443733
0.051807
-0.0586382
-0.074742
-0.0745643
-0.0512743
-0.0361166
-0.101932
-0.134692
-0.0966921
0.00282871
0.0340842
-0.0914601
-0.0953064
-0.087044
-0.0477014
-0.0716728
-0.129625
-0.169344
-0.155416
-0.0358411
0.050192
-0.105886
-0.103038
-0.0941754
-0.0600976
-0.0736809
-0.108149
-0.134225
-0.140549
-0.0696451
0.0835389
-0.0865535
-0.0104507
-0.00451565
-0.0829242
-0.0552491
-0.0498699
-0.0897866
-0.106751
-0.0779655
0.0721608
0.0135527
0.0399939
0.0164359
-0.0790366
-0.0539296
-0.0746617
-0.097236
-0.0851804
0.0537898
0.0940095
0.144138
0.114751
0.0596891
-0.0465167
-0.136529
-0.0736982
0.102497
0.130446
0.147247
0.120057
0.212048
0.181924
0.0997468
-0.0668364
-0.152982
-0.0783077
0.0985185
0.124987
0.157608
0.179479
0.209394
0.208327
0.063455
-0.0435876
-0.105736
-0.00747313
0.15047
0.170865
0.195614
0.201031
0.0834126
0.152206
0.0713544
-0.00344734
0.00577954
0.227673
0.233817
0.239913
0.179251
-0.00390532
401.922
401.738
401.571
401.46
401.432
401.466
401.528
401.606
401.655
401.659
401.977
401.712
401.518
401.353
401.295