/*--------------------------------*- C++ -*----------------------------------*\
| =========                 |                                                 |
| \\      /  F ield         | OpenFOAM: The Open Source CFD Toolbox           |
|  \\    /   O peration     | Version:  2312                                  |
|   \\  /    A nd           | Website:  www.openfoam.com                      |
|    \\/     M anipulation  |                                                 |
\*---------------------------------------------------------------------------*/
FoamFile
{
    version     2.0;
    format      ascii;
    arch        "LSB;label=32;scalar=64";
    class       surfaceScalarField;
    location    "0.665";
    object      alphaPhi0.water;
}
// * * * * * * * * * * * * * * * * * * * * * * * * * * * * * * * * * * * * * //

dimensions      [0 3 -1 0 0 0 0];

oriented        oriented;

internalField   nonuniform List<scalar> 
22600
(
1.21689e-07
-5.6489e-08
-1.02304e-07
2.60128e-07
-4.0181e-08
-9.82579e-08
3.64e-07
-7.88428e-09
-9.59872e-08
4.28174e-07
3.89676e-08
-1.03142e-07
4.52921e-07
9.33863e-08
-1.18133e-07
4.35511e-07
1.56133e-07
-1.38724e-07
3.8129e-07
2.1956e-07
-1.65338e-07
3.00186e-07
2.68167e-07
-1.87063e-07
1.93753e-07
3.05397e-07
-1.98963e-07
4.00135e-07
-2.06382e-07
1.54643e-07
-1.28981e-07
-1.17685e-07
3.26823e-07
-9.31469e-08
-1.19214e-07
4.65579e-07
-2.17586e-08
-1.24882e-07
5.61232e-07
7.99497e-08
-1.36636e-07
6.01695e-07
2.08506e-07
-1.55582e-07
5.82405e-07
3.59356e-07
-1.83933e-07
5.10322e-07
5.13361e-07
-2.21718e-07
4.05424e-07
6.32185e-07
-2.59121e-07
2.56823e-07
7.27347e-07
-2.73349e-07
9.28929e-07
-2.71972e-07
1.91211e-07
-2.54907e-07
-1.0499e-07
3.98378e-07
-1.87181e-07
-1.13132e-07
5.65041e-07
-6.44836e-08
-1.23938e-07
6.75251e-07
1.14924e-07
-1.45184e-07
7.22367e-07
3.41304e-07
-1.79912e-07
6.9941e-07
6.08874e-07
-2.26561e-07
6.13291e-07
8.8886e-07
-2.8938e-07
4.85736e-07
1.08645e-06
-3.26709e-07
2.88655e-07
1.21002e-06
-2.85594e-07
1.5204e-06
-3.02819e-07
2.59177e-07
-5.22288e-07
-3.67606e-08
5.28306e-07
-3.92895e-07
-6.34157e-08
7.35852e-07
-1.70531e-07
-1.01498e-07
8.78387e-07
1.16013e-07
-1.43623e-07
9.57868e-07
4.61253e-07
-1.99431e-07
9.47353e-07
8.92987e-07
-2.73598e-07
8.21334e-07
1.32563e-06
-3.10753e-07
5.77144e-07
1.56565e-06
-2.35007e-07
2.53225e-07
1.59987e-06
-6.59305e-08
2.03309e-06
-2.59461e-07
4.07286e-07
-1.1426e-06
1.47172e-07
7.97969e-07
-8.83955e-07
1.00377e-07
1.11365e-06
-5.11059e-07
2.48506e-08
1.36804e-06
-8.50961e-08
-5.32875e-08
1.5248e-06
4.46872e-07
-1.42373e-07
1.50459e-06
1.11688e-06
-2.03688e-07
1.21101e-06
1.77549e-06
-1.5628e-07
6.33174e-07
2.07743e-06
6.60465e-08
1.03722e-07
1.85791e-06
2.71415e-07
2.16882e-06
-3.20059e-08
8.20918e-07
-2.1247e-06
1.05439e-07
1.42728e-06
-1.55794e-06
6.7623e-08
1.91519e-06
-1.00764e-06
8.6685e-09
2.22708e-06
-3.84733e-07
-1.22547e-08
2.37406e-06
3.06721e-07
-6.83264e-09
2.39798e-06
1.05052e-06
4.24481e-08
2.27219e-06
1.69724e-06
2.04039e-07
1.76108e-06
2.30414e-06
2.84411e-07
6.8225e-07
2.55861e-06
-2.49175e-07
2.65151e-06
-5.4008e-07
1.05438e-06
-2.93767e-06
-2.46371e-07
1.73721e-06
-1.94389e-06
-2.96792e-07
2.23311e-06
-1.24368e-06
-2.598e-07
2.61607e-06
-6.12633e-07
-1.55036e-07
2.83541e-06
-5.49871e-08
7.34899e-08
2.96735e-06
2.37928e-07
1.28799e-07
2.86002e-06
6.81908e-07
-2.2516e-07
2.33638e-06
9.28301e-07
-6.57917e-07
1.43003e-06
1.99967e-06
-1.45011e-06
2.74612e-06
-2.38103e-06
4.68257e-07
-3.48414e-06
-1.09039e-07
1.2595e-06
-2.20794e-06
-3.80567e-07
1.94324e-06
-1.55587e-06
-2.76062e-07
2.36639e-06
-1.06201e-06
-5.07315e-07
2.16106e-06
-2.33669e-07
-8.02927e-07
1.67713e-06
-7.87508e-09
-9.79153e-07
1.35004e-06
-1.16707e-07
-8.03957e-07
1.05781e-06
-1.56351e-07
-8.62469e-07
6.60075e-07
-1.45218e-07
-1.02421e-06
-4.52848e-08
-9.65735e-07
1.07829e-07
-1.20218e-06
-5.48753e-07
1.04783e-06
-8.2932e-07
-1.02069e-06
1.49556e-06
-4.2281e-07
-1.04948e-06
1.05867e-06
-6.25277e-08
-8.35251e-07
2.63528e-07
-4.46059e-09
-2.18352e-07
1.39123e-07
-1.35497e-08
-4.89672e-08
7.79673e-08
-1.85187e-08
-6.38699e-08
-4.29053e-09
-2.64901e-08
-9.25557e-08
-1.59251e-08
-2.98549e-08
-1.81927e-07
4.45393e-08
-2.36773e-07
1.16801e-07
3.48116e-09
-1.87941e-08
2.00031e-07
-2.11358e-09
-1.40348e-09
7.74704e-08
1.25649e-09
-2.49125e-10
1.33832e-08
-1.20624e-09
-5.0727e-11
1.43053e-08
3.60067e-10
-6.38277e-09
6.2693e-09
-1.93287e-09
-3.50734e-09
-1.39567e-08
-4.95914e-09
-3.90377e-09
-2.90801e-08
-8.00774e-09
-1.49004e-08
-3.27598e-08
-4.81321e-09
-3.86953e-08
2.71893e-08
-5.9658e-08
3.13343e-09
2.88393e-10
-9.79208e-10
7.10996e-10
-9.60899e-11
-1.89107e-10
2.01644e-09
3.02586e-10
-1.16393e-10
7.09624e-10
1.60109e-10
-2.8807e-11
9.4112e-10
1.44437e-10
-2.61169e-10
-1.60816e-09
-7.59561e-11
-1.20649e-10
-7.65622e-09
-1.01141e-09
4.15809e-10
-1.2229e-08
-2.16967e-09
-3.48454e-09
-1.15093e-08
-4.11641e-10
-9.51949e-09
1.20683e-08
-1.39383e-08
1.89086e-10
3.57535e-11
-3.31157e-11
6.06613e-11
-1.76942e-11
-1.01059e-11
1.91643e-10
2.14551e-10
-4.96865e-12
6.76374e-11
2.82583e-10
-7.97964e-13
-6.62369e-11
2.06768e-10
1.02598e-11
-1.15244e-09
3.53204e-10
4.70675e-10
-3.1582e-09
4.02192e-10
4.52738e-10
-4.72059e-09
-2.98806e-11
-1.2079e-09
-4.27842e-09
2.42688e-10
-3.29804e-09
4.031e-09
-3.07645e-09
2.0876e-11
1.21226e-11
-1.80254e-12
1.33723e-11
7.89604e-12
-7.43617e-14
2.4072e-11
1.00858e-10
4.13696e-11
-8.26178e-12
2.2313e-10
3.45719e-11
-8.51842e-11
3.28217e-10
8.68967e-11
-6.09266e-10
5.37693e-10
2.91199e-10
-1.43467e-09
1.10021e-09
1.594e-10
-1.78438e-09
5.92764e-10
-4.64263e-10
-1.95775e-09
1.58312e-09
-1.32758e-09
4.80635e-09
-1.14847e-09
7.46435e-12
7.13644e-12
-4.68973e-13
5.45708e-12
9.31928e-12
6.06096e-13
6.87648e-12
5.93431e-10
1.05558e-10
-4.70218e-11
2.70983e-10
1.96448e-10
-1.24526e-10
3.03203e-10
1.9393e-10
-4.59158e-10
5.24043e-10
2.90883e-10
-7.10021e-10
1.27016e-09
7.2153e-11
-7.33866e-10
7.85631e-10
-1.97067e-10
-1.02828e-09
3.49721e-09
-8.00131e-10
5.5431e-09
-1.25818e-09
3.57711e-12
5.15979e-12
-4.07311e-13
6.12223e-12
5.82878e-12
7.99275e-13
-1.49107e-11
1.46615e-09
3.9933e-10
-1.01228e-10
1.44761e-09
6.8105e-10
-2.30054e-10
2.39695e-10
1.56774e-10
-3.8603e-10
3.61142e-10
1.84114e-10
-4.27399e-10
1.11651e-09
5.0778e-11
-7.20341e-10
1.32394e-09
-1.18262e-10
-6.35026e-10
4.38297e-09
-6.61525e-10
4.43757e-09
-1.09617e-09
1.96102e-12
4.89833e-12
-1.14536e-13
2.04985e-12
4.80862e-12
8.87147e-13
-3.56318e-11
6.77032e-10
4.43631e-10
-3.94727e-10
1.1359e-09
1.00064e-09
-1.99554e-10
4.56334e-10
1.57301e-10
-2.71713e-10
2.5114e-10
1.0612e-10
-3.49577e-10
1.06928e-09
1.01043e-10
-8.95822e-10
1.80375e-09
-2.05915e-10
-6.08824e-10
4.09608e-09
-1.52134e-09
3.13366e-09
-1.46246e-10
8.40291e-13
4.34187e-12
4.53898e-13
7.97809e-13
3.76885e-12
1.03807e-12
-6.26631e-11
8.76297e-11
1.90431e-10
-4.61876e-10
9.50795e-10
8.54674e-10
-2.38831e-10
8.00961e-10
5.46218e-10
-2.72942e-10
1.63741e-10
8.88241e-11
-3.12694e-10
8.89956e-10
1.35215e-10
-3.54289e-10
1.56228e-09
1.26689e-10
-3.01421e-10
2.53902e-09
1.99793e-11
2.02261e-09
7.13014e-10
-2.0772e-13
3.45633e-12
1.00779e-12
-3.58279e-13
4.64496e-11
1.85972e-12
-1.89545e-10
7.31004e-11
4.64453e-11
-3.3554e-10
9.02959e-10
4.6969e-10
-4.92456e-10
2.58691e-10
2.70518e-10
-6.39714e-10
6.97951e-10
1.18591e-10
-2.77428e-10
2.75745e-09
5.03281e-10
-1.86493e-10
1.28035e-09
3.76427e-10
4.69811e-11
1.60656e-09
8.3169e-10
7.64146e-10
1.7965e-09
-4.06716e-11
1.09415e-10
2.99628e-11
-3.16356e-11
1.11097e-10
2.41674e-11
-1.24848e-10
5.44554e-11
1.37028e-11
-4.49538e-11
1.9379e-11
2.76304e-11
-6.47729e-11
3.76258e-11
2.09588e-11
-1.04103e-09
1.5595e-09
2.48251e-10
-9.64155e-10
2.0287e-09
8.80539e-10
-1.57345e-10
2.86935e-09
2.71345e-09
8.58527e-11
1.95365e-09
1.96838e-09
1.84989e-10
2.2235e-10
-7.88766e-11
4.4979e-11
1.18429e-10
-6.71037e-11
2.46589e-11
9.79416e-11
-2.25417e-11
3.4099e-12
8.02251e-12
-3.63055e-12
-7.86006e-13
7.06417e-13
-1.46561e-10
-4.24115e-12
5.19748e-11
-9.30882e-10
-9.08787e-12
9.73632e-10
-6.39426e-10
3.06229e-10
1.78808e-09
-7.08026e-11
7.38397e-10
1.91606e-09
5.43592e-11
4.44377e-10
9.90917e-10
4.93691e-11
1.64632e-10
6.95889e-08
-1.3557e-07
-6.68909e-08
1.5891e-07
-1.13622e-07
-7.39565e-08
2.34251e-07
-8.22603e-08
-8.90684e-08
2.87915e-07
-4.0913e-08
-1.15893e-07
3.12924e-07
8.04278e-09
-1.51185e-07
3.05455e-07
5.93776e-08
-1.90633e-07
2.74731e-07
9.49461e-08
-2.2956e-07
2.43494e-07
1.02224e-07
-2.5805e-07
1.86101e-07
1.27534e-07
-2.69105e-07
3.06059e-07
-3.2634e-07
1.1293e-07
-3.05188e-07
-8.99421e-08
2.37367e-07
-2.48618e-07
-1.08655e-07
3.38254e-07
-1.73754e-07
-1.34275e-07
4.07588e-07
-7.71669e-08
-1.69717e-07
4.33001e-07
4.12656e-08
-2.14218e-07
4.11961e-07
1.60718e-07
-2.64233e-07
3.61422e-07
2.4099e-07
-3.17222e-07
3.29173e-07
2.29738e-07
-3.54386e-07
2.57531e-07
2.87592e-07
-3.61765e-07
7.28855e-07
-4.37237e-07
1.28266e-07
-4.88851e-07
-7.87388e-08
2.70156e-07
-3.90776e-07
-1.12864e-07
3.8446e-07
-2.62283e-07
-1.49713e-07
4.59899e-07
-1.00326e-07
-1.97464e-07
4.76616e-07
1.02149e-07
-2.57512e-07
4.20472e-07
3.21395e-07
-3.31095e-07
3.2314e-07
4.41472e-07
-3.92531e-07
3.01447e-07
3.03444e-07
-3.78721e-07
2.79059e-07
3.46543e-07
-3.22157e-07
1.22833e-06
-5.23234e-07
1.58074e-07
-7.02433e-07
-1.43457e-08
3.34256e-07
-5.61346e-07
-6.9027e-08
4.79817e-07
-3.69303e-07
-1.40039e-07
5.7242e-07
-1.13461e-07
-2.23091e-07
5.85684e-07
2.09178e-07
-3.19724e-07
4.81753e-07
5.72653e-07
-4.20925e-07
3.01023e-07
7.40867e-07
-4.29418e-07
1.61588e-07
4.43615e-07
-2.35743e-07
1.0607e-07
4.41483e-07
-1.05352e-07
1.70041e-06
-6.2547e-07
2.47652e-07
-9.94836e-07
1.30079e-07
5.18958e-07
-7.95267e-07
6.29915e-08
7.47272e-07
-5.1965e-07
-5.31159e-08
9.2753e-07
-1.49008e-07
-1.97999e-07
1.01206e-06
3.39826e-07
-3.57552e-07
9.11533e-07
9.17459e-07
-4.47966e-07
6.36199e-07
1.19028e-06
-3.30356e-07
1.47421e-07
1.02317e-06
-2.47278e-08
-1.81911e-07
1.09009e-06
-4.78643e-08
2.17628e-06
-6.89784e-07
5.4658e-07
-1.59694e-06
9.68055e-08
1.01289e-06
-1.22365e-06
2.96978e-08
1.41577e-06
-8.37978e-07
-7.58882e-08
1.65917e-06
-2.17703e-07
-1.86957e-07
1.7789e-06
4.6625e-07
-2.52984e-07
1.91642e-06
1.08056e-06
-2.58178e-07
2.01061e-06
1.49009e-06
-1.89958e-07
1.2713e-06
2.01652e-06
-4.06181e-07
6.72043e-08
2.56445e-06
-1.39587e-06
2.62496e-06
-1.71492e-06
8.51004e-07
-2.4618e-06
-2.57667e-07
1.37231e-06
-1.71093e-06
-3.30776e-07
1.81325e-06
-1.19636e-06
-3.42324e-07
2.14912e-06
-3.74624e-07
-3.33991e-07
2.50598e-06
3.56527e-07
-2.85796e-07
2.79127e-06
7.3814e-07
-4.604e-07
2.60028e-06
9.80786e-07
-1.07018e-06
2.056e-06
1.21185e-06
-1.55475e-06
1.30219e-06
1.59314e-06
-2.51238e-06
1.24739e-06
-3.19123e-06
7.06042e-07
-3.2797e-06
-6.39188e-08
1.28766e-06
-2.06136e-06
-4.67572e-07
1.83724e-06
-1.35598e-06
-4.69175e-07
2.18002e-06
-7.87784e-07
-8.64551e-07
1.92804e-06
-6.64508e-08
-1.37873e-06
1.27939e-06
-1.70511e-08
-1.44784e-06
9.11567e-07
3.2796e-09
-1.10401e-06
7.79366e-07
1.27227e-08
-9.8608e-07
5.92258e-07
5.40705e-08
-1.09316e-06
1.31535e-08
-1.13954e-06
5.43528e-07
-1.4883e-07
-1.34454e-06
1.13356e-06
-1.13198e-08
-2.07375e-06
1.13942e-06
-2.13286e-09
-1.79272e-06
4.85455e-07
-6.47587e-10
-1.15181e-06
8.54731e-08
1.05493e-08
-2.9472e-07
8.48191e-08
1.92316e-09
-7.20501e-08
7.48185e-08
3.68465e-09
-6.27749e-08
7.69056e-08
1.18287e-08
-1.05222e-07
7.47251e-08
2.38796e-08
-1.66879e-07
3.94312e-08
-2.28348e-07
9.86938e-09
-9.85907e-10
-3.73771e-09
1.39341e-09
-2.16349e-10
-2.25928e-09
3.37886e-10
-2.64132e-12
-1.05092e-09
8.56973e-11
2.24814e-11
-4.37583e-10
3.90313e-09
4.89776e-10
-1.57263e-10
2.52406e-09
-2.05161e-10
-1.25886e-10
2.97618e-09
-3.95039e-10
-2.39985e-09
4.2043e-09
3.92328e-09
-1.04225e-08
6.21185e-09
8.10822e-09
-2.92492e-08
2.17783e-08
-5.00173e-08
1.92051e-10
-6.13751e-12
-8.50212e-10
6.68822e-11
9.12914e-13
-1.11466e-10
3.17009e-11
4.98049e-11
-9.41677e-11
1.80563e-11
2.47487e-11
-1.98466e-11
1.65451e-10
8.85475e-11
-2.75267e-11
-1.4929e-10
-1.63445e-11
-3.21207e-11
-4.84803e-10
2.48405e-10
-2.72024e-10
-4.92032e-10
1.62329e-09
-1.80811e-09
-9.82879e-10
3.48295e-09
-6.20865e-09
8.92996e-09
-1.03751e-08
3.06461e-11
-2.37883e-12
2.49627e-12
2.19751e-11
9.75012e-12
5.67935e-13
1.39552e-11
5.78795e-11
2.63191e-13
5.46588e-12
1.92593e-11
1.42782e-12
-8.36018e-12
9.30324e-11
6.2756e-12
-3.36643e-10
8.36174e-10
8.14896e-12
-3.3231e-10
7.77823e-10
-6.05923e-11
-4.3877e-10
7.93799e-10
-4.94684e-10
-1.25275e-09
1.5277e-09
-1.70026e-09
4.64816e-09
-1.94219e-09
1.93528e-11
-2.15434e-13
1.79686e-12
2.73047e-11
2.799e-13
2.48659e-12
3.3254e-10
4.4547e-10
1.87481e-10
2.47618e-11
9.06405e-10
8.35531e-11
-1.06175e-10
4.91811e-10
6.85223e-12
-4.04693e-10
1.5314e-09
1.1777e-10
-2.44902e-10
1.15478e-09
-1.67515e-11
-2.7326e-10
4.94704e-10
-1.89249e-10
-7.7568e-10
1.39022e-09
-5.38116e-10
8.95706e-09
-5.51862e-10
7.39904e-12
-3.54845e-13
-2.29584e-13
7.94377e-12
-4.91351e-13
8.35643e-13
5.19603e-10
3.59588e-10
3.77103e-10
6.22053e-12
2.2164e-09
1.31765e-09
-5.45168e-10
7.94252e-10
3.2318e-10
-5.2529e-10
1.24543e-09
3.16076e-10
-2.16222e-10
9.56215e-10
4.03388e-12
-2.30304e-10
4.11379e-10
-9.52185e-11
-1.57029e-09
2.53639e-09
-4.68714e-10
1.32841e-08
-1.86723e-09
4.2262e-12
-1.50857e-13
-1.93775e-13
4.0206e-12
-4.29237e-13
7.939e-13
2.42266e-10
3.60424e-10
5.21449e-10
-3.33164e-10
1.9067e-09
1.83631e-09
-5.62347e-10
5.16858e-10
3.85557e-10
-3.62501e-10
4.49434e-10
2.42832e-10
-1.24277e-10
5.56179e-10
1.2327e-11
-2.6781e-10
5.74202e-10
-7.50858e-11
-3.11213e-09
7.15078e-09
-5.39978e-10
1.23022e-08
-2.50685e-09
2.57747e-12
4.79229e-13
5.69595e-13
1.81022e-12
1.66608e-13
9.12442e-13
-2.18679e-10
2.66488e-10
3.68629e-10
-3.26627e-10
1.59697e-09
1.65397e-09
-2.58999e-10
4.05025e-10
2.7125e-10
-1.36846e-10
2.98102e-10
7.89371e-11
-1.85069e-10
7.68794e-10
3.12859e-11
-2.19641e-09
3.60197e-09
-3.30679e-10
-3.67743e-09
1.54437e-08
-4.15874e-09
1.09979e-08
-1.79971e-09
1.01171e-14
4.74551e-12
1.4803e-12
-5.2714e-12
3.42627e-12
3.01576e-12
-5.87657e-10
1.18329e-10
3.18223e-10
-4.60375e-10
1.32159e-09
1.30604e-09
-1.97872e-10
4.40992e-10
1.06656e-10
-1.95013e-10
3.10724e-10
7.9879e-11
-4.76311e-10
1.014e-09
1.39409e-10
-4.79393e-09
7.00636e-09
-2.75158e-10
-3.13408e-09
1.62541e-08
-1.85282e-09
8.51595e-09
7.80521e-10
-7.29797e-12
7.41239e-11
1.86252e-11
-1.55454e-11
2.13972e-11
3.14253e-12
-5.14702e-10
1.54625e-11
8.27129e-11
-5.3164e-10
1.81414e-10
1.16121e-10
-2.12363e-10
3.21226e-10
2.25448e-11
-2.1201e-10
3.26143e-10
7.56622e-11
-4.16993e-10
1.56234e-09
2.17881e-10
-3.05843e-09
7.69817e-09
2.26251e-09
-1.00397e-09
1.26595e-08
2.53945e-09
1.10577e-09
2.3857e-09
-9.7717e-11
1.17894e-10
9.20993e-11
-4.43764e-11
1.03596e-10
-4.51861e-13
-6.24173e-11
8.6856e-12
-3.58034e-14
-1.3124e-10
3.2449e-11
4.23528e-12
-3.38573e-11
1.28756e-10
3.14126e-11
-1.35044e-11
6.18988e-10
6.63985e-11
-1.11048e-09
4.8329e-09
6.69593e-10
-1.30765e-09
5.42964e-09
4.29613e-09
5.19125e-11
2.04089e-09
4.11151e-09
1.92688e-10
3.88164e-10
-1.56662e-10
6.56223e-11
5.55644e-11
-9.38731e-11
1.47971e-11
1.06145e-10
-3.07738e-11
7.66907e-13
2.5192e-11
-1.94449e-11
1.65831e-12
1.10454e-11
1.14673e-11
6.13264e-12
6.79641e-11
-7.63698e-10
2.25667e-11
8.32892e-10
-1.10957e-09
6.30304e-10
1.79139e-09
-1.81188e-10
1.75178e-09
2.85257e-10
4.83494e-11
5.53166e-10
1.57686e-10
7.80792e-11
1.67576e-10
6.67392e-08
-1.84703e-07
2.26341e-08
1.49592e-07
-1.53112e-07
-3.69789e-09
2.20052e-07
-1.13623e-07
-4.59052e-08
2.72033e-07
-6.74269e-08
-1.00447e-07
2.97815e-07
-1.67189e-08
-1.60248e-07
2.93038e-07
3.33752e-08
-2.19232e-07
2.64549e-07
6.69545e-08
-2.68026e-07
2.3248e-07
7.28092e-08
-2.98789e-07
1.75167e-07
9.74612e-08
-3.09253e-07
2.63752e-07
-4.14926e-07
1.08943e-07
-4.10865e-07
3.97509e-09
2.29272e-07
-3.38598e-07
-4.3498e-08
3.24821e-07
-2.42576e-07
-1.00872e-07
3.90431e-07
-1.35344e-07
-1.67409e-07
4.16435e-07
-1.70637e-08
-2.39877e-07
4.00062e-07
9.55134e-08
-3.09998e-07
3.5591e-07
1.61688e-07
-3.67804e-07
3.23341e-07
1.48979e-07
-3.97987e-07
2.44075e-07
2.19176e-07
-4.04214e-07
6.20321e-07
-5.49732e-07
1.20596e-07
-6.41285e-07
1.09072e-08
2.57893e-07
-5.40974e-07
-4.77851e-08
3.69944e-07
-3.87204e-07
-1.17136e-07
4.43735e-07
-2.08946e-07
-1.97654e-07
4.64545e-07
-1.09015e-08
-2.84485e-07
4.17456e-07
1.8087e-07
-3.69362e-07
3.38934e-07
2.67901e-07
-4.20222e-07
3.42745e-07
1.55014e-07
-3.88567e-07
3.10052e-07
2.914e-07
-3.61688e-07
1.06729e-06
-6.60148e-07
1.64504e-07
-8.57144e-07
1.78942e-08
3.28004e-07
-7.46996e-07
-2.65042e-08
4.66218e-07
-5.50371e-07
-1.15086e-07
5.55104e-07
-2.90427e-07
-2.30496e-07
5.39711e-07
4.04624e-08
-3.55695e-07
4.16516e-07
3.38156e-07
-4.55017e-07
2.56304e-07
4.43918e-07
-4.45223e-07
2.34166e-07
2.1375e-07
-2.72341e-07
2.32453e-07
4.79133e-07
-2.91372e-07
1.55197e-06
-8.77704e-07
2.29231e-07
-1.0413e-06
5.25371e-08
4.40414e-07
-9.26633e-07
3.14464e-08
6.27054e-07
-7.00305e-07
-8.98223e-08
7.48274e-07
-3.40401e-07
-2.69245e-07
7.83612e-07
9.29062e-08
-4.45333e-07
6.29094e-07
6.03014e-07
-5.58305e-07
3.69101e-07
8.52767e-07
-4.79216e-07
6.83403e-08
8.10003e-07
-3.2022e-07
-7.41261e-08
1.16805e-06
-5.94318e-07
2.09464e-06
-1.30657e-06
4.18498e-07
-1.37507e-06
-1.79014e-08
7.37628e-07
-1.19556e-06
-2.05034e-08
1.02158e-06
-9.42645e-07
-1.17498e-07
1.2165e-06
-4.21782e-07
-3.00494e-07
1.26121e-06
2.52723e-07
-4.57516e-07
1.31118e-06
8.35089e-07
-5.40222e-07
1.17327e-06
1.47145e-06
-6.70729e-07
4.00836e-07
1.96454e-06
-1.08472e-06
-4.04742e-07
2.08156e-06
-1.94252e-06
2.16832e-06
-2.19335e-06
6.86616e-07
-2.01117e-06
-3.1014e-07
1.05737e-06
-1.61881e-06
-2.7824e-07
1.3761e-06
-1.28883e-06
-3.14821e-07
1.65609e-06
-6.10975e-07
-4.2479e-07
2.06927e-06
1.16758e-07
-6.04957e-07
2.3741e-06
5.54155e-07
-9.47277e-07
2.19442e-06
9.37491e-07
-1.61452e-06
1.66619e-06
1.16624e-06
-2.24753e-06
8.66823e-07
1.12271e-06
-3.09098e-06
7.35828e-07
-3.39892e-06
7.42392e-07
-2.50594e-06
-2.75896e-07
1.20329e-06
-1.84896e-06
-5.54798e-07
1.71483e-06
-1.3438e-06
-6.50481e-07
2.1225e-06
-9.54294e-07
-9.49331e-07
2.07239e-06
-3.84168e-07
-1.59885e-06
1.56348e-06
-1.15911e-07
-1.76253e-06
1.07084e-06
-7.98532e-09
-1.50835e-06
8.14147e-07
6.30121e-08
-1.25466e-06
5.93469e-07
3.58866e-08
-1.14998e-06
-1.70818e-08
-1.62813e-06
9.24323e-07
-1.15907e-08
-2.23745e-06
1.39773e-06
-6.81929e-09
-2.96311e-06
1.16459e-06
-3.68783e-09
-2.31337e-06
5.38087e-07
-1.82743e-09
-1.40698e-06
1.28031e-07
-9.20877e-10
-6.48096e-07
6.18519e-08
-1.86285e-10
-1.23159e-07
5.72258e-08
4.11463e-09
-7.23542e-08
8.5477e-08
1.38291e-08
-9.15492e-08
7.9446e-08
2.3475e-08
-1.6091e-07
2.89498e-08
-2.1684e-07
1.84175e-09
-6.48007e-10
-1.64317e-08
1.69419e-09
-6.88803e-11
-8.94817e-09
9.61869e-10
-2.63757e-12
-4.02291e-09
3.9299e-10
8.22369e-12
-1.72022e-09
1.03237e-10
3.09137e-11
-8.38696e-10
5.88968e-11
2.58629e-11
-3.30974e-10
1.62938e-09
3.08496e-10
-2.90192e-10
5.21805e-09
2.16597e-09
-3.37904e-09
7.82462e-09
5.86556e-09
-1.69776e-08
1.03777e-08
-3.03571e-08
4.62932e-10
-2.68233e-10
-1.55169e-09
7.06965e-11
-4.42191e-11
2.4509e-10
2.50882e-11
1.30061e-13
-6.25761e-11
9.58015e-12
1.10955e-11
-1.89623e-11
1.64677e-12
1.4567e-11
-1.68992e-11
-1.22423e-11
2.26564e-11
-3.58707e-11
3.15663e-11
7.56353e-11
-1.22212e-10
2.5797e-10
4.98823e-10
-5.75705e-10
4.6559e-10
1.5624e-09
-2.87391e-09
3.68555e-09
-5.57715e-09
1.55031e-10
-1.56612e-10
-1.21977e-10
2.17617e-11
-3.30322e-11
2.00819e-10
1.46968e-11
-5.63458e-12
1.34407e-11
4.2694e-12
6.43131e-12
3.25296e-12
-2.09825e-12
1.57168e-11
5.15169e-13
-1.354e-11
3.74774e-11
-8.63642e-12
-1.80313e-11
5.35228e-11
-4.32453e-11
-4.78412e-11
2.04983e-10
-2.20542e-10
-2.03157e-10
5.2872e-10
-7.35002e-10
1.81558e-09
-1.0332e-09
7.07735e-11
-8.94429e-11
-6.30278e-11
3.17904e-11
-8.17501e-12
1.36455e-10
1.14597e-10
-2.26237e-11
4.00276e-11
2.09469e-11
4.04368e-10
5.39608e-11
-5.67462e-12
1.26907e-10
1.41412e-11
-1.39041e-11
1.66294e-10
9.02227e-12
-1.4083e-11
6.90731e-11
-2.03118e-11
-4.1714e-11
1.28066e-10
-9.98315e-11
-1.48657e-10
4.0872e-10
-2.65197e-10
2.34542e-09
-3.07624e-10
3.8782e-11
-7.94547e-12
-6.6501e-11
6.63351e-11
-5.12569e-12
1.26381e-11
3.55152e-10
-5.86106e-11
2.37276e-11
2.06887e-10
1.19978e-09
1.00403e-09
-1.20034e-10
5.80409e-10
1.70689e-10
-2.68621e-11
4.05635e-10
4.35386e-11
-2.33825e-11
6.50323e-11
-5.97416e-12
-5.7806e-11
1.13637e-10
-4.3825e-11
-5.06097e-10
7.4899e-10
-1.42966e-10
8.86246e-09
-2.7483e-10
1.11281e-12
-5.30956e-12
2.45712e-11
2.06185e-11
-1.03168e-11
1.47133e-13
6.57015e-11
-2.1258e-11
1.32223e-10
-6.9676e-11
1.56184e-09
1.95861e-09
-2.52532e-10
5.72687e-10
3.24227e-10
-3.59093e-11
3.43112e-10
6.91229e-11
-4.42043e-11
7.82831e-11
3.55775e-14
-1.41322e-10
1.71158e-10
-2.59254e-11
-1.96328e-09
2.71741e-09
-2.67691e-10
1.04105e-08
-1.30545e-09
-5.9738e-12
-4.18089e-12
6.98262e-12
-6.44368e-12
-1.3051e-11
3.50107e-14
-4.67045e-10
7.08771e-11
1.321e-10
-3.90507e-10
1.23681e-09
1.31845e-09
-1.41865e-10
1.91348e-10
1.29072e-10
-2.47519e-11
1.65639e-10
4.96514e-11
-1.55785e-10
2.42864e-10
9.81695e-12
-6.67732e-10
1.47091e-09
-6.2131e-11
-3.2321e-09
9.67286e-09
-4.81173e-10
6.98571e-09
-8.87372e-10
-2.45801e-11
-1.32351e-12
2.04529e-11
-3.14539e-11
-1.51737e-13
2.50605e-12
-6.00854e-10
3.65513e-11
3.25504e-11
-2.26184e-10
2.09019e-10
9.60033e-11
-1.01189e-10
1.13019e-10
3.54342e-11
-6.66216e-11
1.76466e-10
4.0696e-11
-2.42084e-10
5.22372e-10
5.13319e-11
-3.6583e-09
7.24261e-09
-1.43762e-10
-4.04343e-09
9.49742e-09
-7.15063e-10
4.34017e-09
-3.19606e-11
-1.30658e-11
1.71779e-12
1.49865e-11
-4.98439e-11
2.80449e-12
2.79865e-12
-1.23608e-10
-5.36362e-12
-1.58792e-12
-6.4931e-11
7.12021e-12
2.96558e-12
-4.21585e-11
7.57976e-11
2.30789e-11
-1.20467e-10
2.23527e-10
8.30184e-11
-1.10461e-09
1.21747e-09
2.8253e-10
-3.63354e-09
1.0457e-08
1.67411e-09
-1.64767e-09
8.45507e-09
1.63284e-09
3.13801e-10
5.96294e-10
-7.15122e-12
6.20368e-12
9.53358e-11
-7.68081e-12
5.42153e-12
2.65178e-12
-3.95913e-11
4.56588e-12
6.45474e-13
-3.60316e-11
5.76649e-12
3.19416e-13
1.23392e-11
5.40795e-11
7.63788e-12
-1.14671e-11
2.13837e-10
7.84825e-11
-2.07174e-09
2.62301e-09
6.95024e-10
-1.42086e-09
7.11916e-09
4.38461e-09
-1.10642e-10
5.05274e-09
3.32169e-09
-1.99839e-11
5.71454e-10
-1.36238e-11
7.86662e-11
2.15581e-12
-1.23854e-11
7.3365e-12
1.52747e-11
-1.32795e-11
7.64624e-13
1.63475e-11
-3.45292e-12
3.06547e-12
3.428e-12
1.97321e-11
4.32883e-12
3.85765e-11
3.73914e-11
3.49955e-11
1.71368e-10
-6.60958e-10
8.31276e-10
1.70087e-09
-6.26059e-11
3.16053e-09
4.58004e-10
4.4982e-11
1.76547e-09
1.58411e-11
4.76196e-11
3.89256e-12
4.60744e-08
-1.46466e-07
9.85783e-08
1.21236e-07
-1.31546e-07
5.26866e-08
1.84728e-07
-1.02321e-07
-7.07722e-09
2.32413e-07
-6.71289e-08
-8.10033e-08
2.57899e-07
-2.56927e-08
-1.60041e-07
2.55943e-07
1.66317e-08
-2.33907e-07
2.33986e-07
4.84683e-08
-2.94538e-07
2.05067e-07
6.08783e-08
-3.30749e-07
1.53191e-07
8.60902e-08
-3.43468e-07
2.11122e-07
-4.72856e-07
7.52672e-08
-3.35692e-07
1.07829e-07
1.84767e-07
-3.14368e-07
2.98244e-08
2.78904e-07
-2.37649e-07
-5.96804e-08
3.44611e-07
-1.45952e-07
-1.54294e-07
3.73499e-07
-4.37447e-08
-2.50712e-07
3.63311e-07
5.41762e-08
-3.37355e-07
3.28144e-07
1.21592e-07
-4.05761e-07
2.88443e-07
1.45981e-07
-4.43389e-07
2.0832e-07
2.17807e-07
-4.55807e-07
4.92884e-07
-6.23175e-07
9.87423e-08
-5.02433e-07
7.37408e-08
2.16779e-07
-5.08533e-07
2.83433e-08
3.23991e-07
-3.9823e-07
-6.37688e-08
3.97899e-07
-2.41684e-07
-1.7583e-07
4.27515e-07
-6.67013e-08
-2.91144e-07
4.09768e-07
9.6184e-08
-3.93624e-07
3.66746e-07
2.08355e-07
-4.63963e-07
3.53555e-07
2.39183e-07
-4.68578e-07
2.73198e-07
4.04473e-07
-4.67998e-07
8.54709e-07
-7.48776e-07
1.81576e-07
-6.69126e-07
2.06669e-08
3.1243e-07
-7.08145e-07
4.22546e-08
4.27737e-07
-5.84339e-07
-4.42839e-08
5.1256e-07
-3.62276e-07
-1.94728e-07
5.23945e-07
-7.96933e-08
-3.54087e-07
4.63452e-07
1.83242e-07
-4.81581e-07
3.80728e-07
3.68578e-07
-5.22722e-07
3.7982e-07
4.10984e-07
-4.43234e-07
2.88788e-07
7.02945e-07
-4.98812e-07
1.26896e-06
-1.00317e-06
2.82819e-07
-8.45441e-07
-1.92656e-08
4.34222e-07
-8.71407e-07
4.33059e-08
5.58433e-07
-7.57304e-07
-4.10687e-08
6.56404e-07
-4.70708e-07
-2.58784e-07
6.9533e-07
-9.16015e-08
-4.7235e-07
6.02779e-07
3.48205e-07
-6.30717e-07
4.35758e-07
6.94605e-07
-6.38222e-07
2.88652e-07
8.36427e-07
-5.98558e-07
1.25911e-07
1.18678e-06
-9.15411e-07
1.68097e-06
-1.59268e-06
4.48457e-07
-1.09139e-06
-1.7694e-07
6.31456e-07
-1.02954e-06
-4.53727e-08
7.8182e-07
-9.28391e-07
-9.67741e-08
9.36145e-07
-5.90671e-07
-3.34856e-07
9.4631e-07
2.69586e-08
-5.86246e-07
9.12459e-07
5.37371e-07
-6.95538e-07
6.80081e-07
1.12365e-06
-8.67401e-07
1.25696e-07
1.53013e-06
-1.22404e-06
-3.05064e-07
1.56688e-06
-1.89187e-06
1.60221e-06
-2.41965e-06
6.3918e-07
-1.56177e-06
-4.35504e-07
8.38889e-07
-1.32949e-06
-1.77948e-07
9.90923e-07
-1.20774e-06
-1.87456e-07
1.25212e-06
-8.75919e-07
-4.00719e-07
1.59139e-06
-1.97119e-07
-7.2015e-07
1.768e-06
3.56965e-07
-1.10162e-06
1.60787e-06
6.89415e-07
-1.70606e-06
1.13592e-06
8.54801e-07
-2.38998e-06
3.07505e-07
8.40924e-07
-3.0456e-06
4.4003e-07
-3.2358e-06
6.26628e-07
-1.29092e-06
-8.91921e-07
9.94368e-07
-1.11764e-06
-8.12936e-07
1.36474e-06
-1.23157e-06
-5.92019e-07
1.77302e-06
-1.17693e-06
-7.19335e-07
2.08454e-06
-9.91278e-07
-1.29684e-06
1.93801e-06
-4.3985e-07
-1.83447e-06
1.52489e-06
-1.64024e-07
-1.93748e-06
1.17068e-06
-1.18803e-08
-1.90563e-06
8.56867e-07
1.05779e-08
-1.90351e-06
-2.37611e-08
-2.66586e-06
8.42025e-07
-5.05256e-08
-1.88291e-06
1.22942e-06
-1.97462e-08
-2.47074e-06
1.35565e-06
-9.81075e-09
-2.40824e-06
9.97992e-07
-5.52327e-09
-1.68667e-06
5.21218e-07
-3.65892e-09
-1.16626e-06
1.28643e-07
-2.75595e-09
-6.73899e-07
8.04233e-08
-1.05138e-09
-1.92403e-07
7.75338e-08
5.2124e-09
-1.0805e-07
8.47995e-08
1.28694e-08
-1.78745e-07
6.55762e-09
-1.79571e-07
7.57688e-09
-3.34329e-08
-4.39816e-08
6.43165e-09
-6.27838e-09
-2.15721e-08
3.4615e-09
-6.24986e-10
-1.04621e-08
1.59366e-09
-5.9111e-11
-5.34244e-09
8.2364e-10
-2.40658e-11
-3.72733e-09
4.18149e-10
-1.41189e-12
-2.74293e-09
3.54997e-10
1.83689e-11
-1.36468e-09
2.7888e-09
3.56469e-10
-1.37576e-09
7.07112e-09
2.0431e-09
-1.20705e-08
4.57376e-09
-2.62165e-08
4.06991e-09
-3.51557e-08
-1.44273e-08
3.30582e-10
-5.01964e-09
-3.31403e-11
4.96513e-11
-1.56094e-10
-2.7687e-10
6.12435e-12
-1.41083e-12
-4.55246e-11
8.00618e-13
9.24815e-12
-5.44042e-11
2.00113e-11
1.10364e-11
-8.75607e-11
9.19284e-11
2.76628e-11
-2.36174e-10
3.27038e-10
1.33373e-10
-6.72296e-10
6.1362e-10
4.99301e-10
-1.9878e-09
1.58099e-09
-3.44374e-09
7.03869e-09
-4.98793e-08
-1.61505e-08
1.69051e-10
-4.77392e-09
5.45081e-11
1.79288e-11
-6.34246e-11
5.96713e-11
3.89039e-12
7.06628e-12
3.52571e-12
-9.42816e-13
1.27295e-11
-4.98621e-12
-1.31026e-12
1.471e-11
-2.17963e-11
8.68197e-12
1.9638e-11
-6.60302e-11
3.68412e-11
8.28462e-11
-2.32454e-10
2.47297e-11
2.44951e-10
-5.6737e-10
7.72047e-10
-6.31563e-10
6.17855e-09
-5.46975e-08
-1.05386e-08
2.38287e-11
-1.79602e-09
2.77659e-11
8.43931e-12
-1.0758e-11
1.35426e-11
4.85246e-12
5.8214e-11
5.17926e-12
-1.50156e-13
2.60298e-11
3.20949e-12
-2.86658e-12
2.67439e-11
-2.99204e-12
-7.25662e-12
2.7755e-11
-2.76352e-11
-8.60972e-12
6.28808e-11
-9.05447e-11
-3.82213e-11
7.45101e-11
-1.19916e-10
4.57241e-10
-1.70245e-10
2.71468e-09
-4.27422e-08
-5.01676e-09
-1.46357e-11
-1.55336e-11
1.07951e-11
-3.3345e-12
-1.80823e-11
1.26869e-11
7.16038e-11
6.43669e-10
3.57626e-11
-6.86151e-12
2.26368e-10
2.31467e-11
-7.83702e-12
5.73418e-11
8.83277e-12
-1.54369e-11
3.2402e-11
-9.6389e-12
-1.93689e-11
4.11259e-11
-2.89355e-11
-3.31072e-11
1.361e-10
-5.42337e-11
1.70555e-10
-6.76072e-11
-2.24993e-11
-3.57229e-08
-8.06324e-10
-2.35213e-11
-1.06501e-11
-4.00866e-12
-9.58265e-11
-1.43635e-11
5.20266e-11
-9.48502e-11
7.52714e-10
2.02762e-10
-3.46523e-11
2.64433e-10
6.29798e-11
-1.06717e-11
7.44949e-11
2.36306e-11
-2.01263e-11
3.49125e-11
9.66345e-13
-6.0531e-11
4.701e-11
-4.32311e-12
-6.21015e-11
2.12777e-10
-5.98477e-11
2.0279e-10
-3.4046e-11
-4.49265e-11
-2.57693e-08
8.7784e-10
-7.64537e-11
-4.2826e-12
6.87931e-13
-3.12178e-10
7.64766e-12
7.40642e-11
-1.5605e-10
2.20629e-10
1.04276e-10
-4.07824e-11
8.95999e-11
7.2618e-11
-1.90514e-11
7.12706e-11
2.81231e-11
-4.08101e-11
8.88253e-11
9.23735e-12
-3.53632e-11
1.44765e-10
-1.06443e-11
-3.60753e-10
7.27346e-11
-1.83152e-11
5.48225e-10
-1.78195e-11
-3.00253e-11
-1.7739e-08
1.15083e-09
-5.14402e-11
-2.61287e-13
1.94642e-11
-1.06056e-10
4.82984e-12
3.18598e-11
-5.33195e-11
2.5788e-11
3.27204e-11
-2.34546e-11
4.61351e-11
2.1948e-11
-3.86109e-11
7.84922e-11
4.80518e-11
-1.33109e-10
3.63629e-10
7.0691e-11
-1.86632e-10
1.22778e-09
-5.19445e-13
-4.84439e-10
8.21679e-10
-1.94153e-11
3.08254e-10
-9.24945e-11
-1.39524e-11
-1.37501e-08
9.03085e-10
-1.54738e-11
9.33459e-13
1.76323e-12
-3.06849e-11
1.22793e-12
7.51536e-12
-2.49038e-11
2.70361e-12
1.0941e-11
-1.51393e-11
3.76238e-11
1.02635e-11
-4.09604e-11
9.76611e-11
7.74504e-11
-5.01093e-10
7.48166e-10
2.02391e-10
-1.44702e-09
5.07153e-09
1.21962e-10
-8.3479e-10
3.23693e-09
5.63508e-11
7.12976e-11
-2.63285e-11
-6.26337e-12
-1.08316e-08
1.50176e-09
-4.02559e-12
7.0267e-13
7.37439e-13
-6.47534e-12
8.76511e-13
2.29814e-12
-6.12432e-12
5.80451e-12
3.0236e-12
-7.922e-12
2.38332e-11
1.2946e-11
-7.441e-12
9.41011e-11
6.50762e-11
-6.86461e-10
1.46954e-09
7.44123e-10
-7.50941e-10
3.8815e-09
1.73607e-09
-3.83858e-10
1.97357e-09
7.74177e-10
8.28105e-11
3.443e-10
-9.62033e-12
1.09111e-09
-4.29086e-09
-2.19422e-12
9.5634e-13
8.58281e-13
-3.08182e-12
1.11202e-12
7.75869e-13
-9.27041e-13
1.55675e-12
6.199e-12
1.44254e-11
6.40762e-12
1.99887e-11
2.70801e-11
4.2444e-11
8.05314e-11
-1.73595e-10
8.48919e-10
1.2187e-09
1.44772e-10
1.5751e-09
8.1296e-10
3.59312e-11
1.32602e-09
2.38353e-10
9.51189e-11
8.95295e-13
1.30556e-08
-6.2912e-08
1.31518e-07
6.50523e-08
-8.89414e-08
8.96312e-08
1.20209e-07
-8.45777e-08
2.23434e-08
1.63188e-07
-6.84418e-08
-5.55403e-08
1.90231e-07
-4.26737e-08
-1.44411e-07
1.95677e-07
-1.17957e-08
-2.27557e-07
1.84683e-07
1.16132e-08
-2.95157e-07
1.66049e-07
2.35823e-08
-3.35697e-07
1.26787e-07
4.68756e-08
-3.51082e-07
1.44292e-07
-4.90361e-07
3.29095e-08
-1.86802e-07
2.01649e-07
1.07335e-07
-2.49889e-07
1.16346e-07
1.95804e-07