/*--------------------------------*- C++ -*----------------------------------*\
| =========                 |                                                 |
| \\      /  F ield         | OpenFOAM: The Open Source CFD Toolbox           |
|  \\    /   O peration     | Version:  2312                                  |
|   \\  /    A nd           | Website:  www.openfoam.com                      |
|    \\/     M anipulation  |                                                 |
\*---------------------------------------------------------------------------*/
FoamFile
{
    version     2.0;
    format      ascii;
    arch        "LSB;label=32;scalar=64";
    class       volScalarField;
    location    "0.375";
    object      p;
}
// * * * * * * * * * * * * * * * * * * * * * * * * * * * * * * * * * * * * * //

dimensions      [1 -1 -2 0 0 0 0];

internalField   nonuniform List<scalar> 
8000
(
355.679
354.262
351.755
348.381
344.45
340.326
336.3
332.747
330.258
328.495
307.053
305.567
302.763
299.049
294.707
290.121
285.667
281.676
278.73
276.772
258.865
257.116
253.855
249.427
244.223
238.687
233.219
228.113
224.328
222.063
211.337
209.23
205.191
199.595
192.987
185.931
178.876
172.166
166.86
164.321
164.317
161.678
156.511
149.143
140.51
131.366
122.349
113.59
105.381
101.606
118.702
115.422
108.879
98.796
87.5784
76.451
62.8434
48.4769
32.9188
28.4102
75.1388
71.054
62.5374
49.8957
35.277
21.097
12.0546
6.58176
2.57442
1.76481
35.3765
31.7394
24.1667
13.412
4.60483
0.479044
-0.00717108
-0.0193086
0.0309456
0.0342993
6.16572
4.98191
2.51
0.244696
-0.164898
-0.104275
-0.124363
-0.145951
-0.123801
-0.112623
-0.274964
-0.322749
-0.397261
-0.452405
-0.405647
-0.348918
-0.312814
-0.296022
-0.269625
-0.256481
-0.551407
-0.553352
-0.546459
-0.54334
-0.523603
-0.48099
-0.437925
-0.415901
-0.388163
-0.374028
-0.6239
-0.620313
-0.608713
-0.593739
-0.56613
-0.539106
-0.516403
-0.503292
-0.478152
-0.461529
-0.630846
-0.629712
-0.623163
-0.610697
-0.593896
-0.584722
-0.574247
-0.566597
-0.55023
-0.532991
-0.641076
-0.641745
-0.639559
-0.634739
-0.630188
-0.629127
-0.625105
-0.618557
-0.60967
-0.5948
-0.677521
-0.678408
-0.677591
-0.675874
-0.675126
-0.675216
-0.675662
-0.671505
-0.666628
-0.654273
-0.727584
-0.727789
-0.727492
-0.727139
-0.727556
-0.72916
-0.730484
-0.727314
-0.723823
-0.714791
-0.779259
-0.779632
-0.7801
-0.781405
-0.784109
-0.788744
-0.793669
-0.787296
-0.782904
-0.77632
-0.830748
-0.831494
-0.832479
-0.835108
-0.84018
-0.851511
-0.862227
-0.849295
-0.841937
-0.832747
-0.88234
-0.883205
-0.884775
-0.887487
-0.892368
-0.905594
-0.916443
-0.904031
-0.892423
-0.88209
-0.933423
-0.934088
-0.935221
-0.937083
-0.940988
-0.949955
-0.95414
-0.942393
-0.934513
-0.92965
356.368
355.036
352.584
349.258
345.385
341.428
337.553
334.331
331.944
330.232
307.782
306.34
303.65
299.999
295.724
291.25
286.996
283.302
280.636
278.714
259.698
258.011
254.843
250.495
245.375
239.962
234.79
230.217
226.619
224.33
212.335
210.289
206.36
200.889
194.43
187.54
180.69
174.501
169.575
166.859
165.485
162.916
157.879
150.685
142.058
132.521
124.263
115.968
108.684
105.487
119.995
116.81
110.325
100.765
89.6066
79.4169
65.7666
51.2985
36.161
32.7803
75.9691
72.1
63.7109
50.8962
35.7515
21.6333
11.5572
6.21272
2.83754
2.58353
33.3907
30.412
23.1357
12.6985
4.66826
0.796306
-0.0774087
-0.0664736
0.014131
0.0400258
4.02882
3.40721
1.75655
0.108094
-0.336081
-0.266849
-0.188758
-0.197134
-0.163193
-0.134808
-0.455514
-0.481819
-0.506696
-0.524578
-0.499852
-0.454833
-0.37873
-0.349102
-0.313792
-0.283948
-0.654939
-0.656245
-0.646757
-0.634598
-0.606455
-0.545787
-0.474252
-0.447457
-0.417792
-0.39332
-0.722125
-0.72132
-0.707173
-0.682776
-0.639465
-0.578508
-0.535893
-0.517566
-0.495159
-0.477677
-0.711603
-0.709606
-0.694769
-0.666688
-0.629931
-0.602028
-0.585929
-0.573684
-0.558923
-0.545435
-0.682526
-0.680366
-0.669955
-0.65195
-0.636036
-0.631001
-0.628731
-0.6223
-0.615366
-0.602585
-0.694213
-0.692822
-0.686155
-0.678418
-0.67328
-0.673733
-0.677558
-0.673142
-0.669242
-0.659949
-0.736272
-0.734681
-0.731161
-0.727613
-0.725756
-0.729411
-0.73469
-0.728923
-0.725243
-0.719093
-0.783089
-0.782821
-0.781937
-0.782177
-0.785726
-0.792499
-0.797796
-0.789475
-0.784071
-0.781792
-0.832282
-0.833049
-0.83407
-0.836468
-0.84217
-0.855078
-0.862633
-0.854434
-0.847955
-0.844735
-0.88327
-0.884284
-0.885721
-0.888399
-0.895321
-0.909646
-0.919475
-0.912618
-0.906717
-0.899371
-0.933821
-0.934614
-0.935684
-0.9376
-0.943137
-0.954812
-0.96241
-0.954272
-0.95042
-0.939195
357.773
356.495
354.124
350.882
347.026
343.145
339.556
336.478
334.303
332.727
309.286
307.926
305.333
301.785
297.594
293.268
289.21
285.769
283.291
281.664
261.409
259.79
256.734
252.531
247.495
242.291
237.526
233.316
230.217
228.091
214.239
212.358
208.581
203.333
197.28
190.677
184.273
178.727
174.528
172.116
167.771
165.33
160.577
153.765
145.56
136.391
128.628
121.917
116.133
113.706
122.541
119.565
113.414
104.497
94.0881
83.8311
73.0894
61.633
51.1585
48.2419
78.2786
74.8154
66.9336
54.7459
39.859
25.6224
15.1585
9.75724
6.28834
6.63937
34.9749
32.2505
25.3637
15.2668
5.90069
1.62302
0.112867
-0.102731
-0.0689729
0.00460604
4.03827
3.70913
2.40366
0.701083
-0.337497
-0.364308
-0.250145
-0.221782
-0.201219
-0.152566
-0.481455
-0.493011
-0.50507
-0.519599
-0.520688
-0.487379
-0.430846
-0.388773
-0.350252
-0.303748
-0.599128
-0.605087
-0.605559
-0.606332
-0.584756
-0.54182
-0.489432
-0.461708
-0.438743
-0.412204
-0.650863
-0.654784
-0.651947
-0.643928
-0.623392
-0.586818
-0.548595
-0.525728
-0.507132
-0.4907
-0.680953
-0.683772
-0.679404
-0.666053
-0.641358
-0.617118
-0.595324
-0.576218
-0.564574
-0.554755
-0.68625
-0.685186
-0.677115
-0.662027
-0.649615
-0.641675
-0.631541
-0.616567
-0.613472
-0.608673
-0.707448
-0.705621
-0.699208
-0.691096
-0.685612
-0.681781
-0.676421
-0.662449
-0.665361
-0.664368
-0.745671
-0.744449
-0.740759
-0.736739
-0.734743
-0.73531
-0.731472
-0.717357
-0.724714
-0.725
-0.789368
-0.789305
-0.788234
-0.7879
-0.789311
-0.794999
-0.792511
-0.781664
-0.792067
-0.793534
-0.836267
-0.837329
-0.838143
-0.839794
-0.843998
-0.852876
-0.853401
-0.848857
-0.861629
-0.86395
-0.885377
-0.886678
-0.887897
-0.890273
-0.896289
-0.907469
-0.912006
-0.910316
-0.918966
-0.918165
-0.934659
-0.935854
-0.936816
-0.938723
-0.943935
-0.954262
-0.960935
-0.959617
-0.959527
-0.953342
359.791
358.561
356.281
353.225
349.786
346
342.495
339.523
337.499
336.203
311.432
310.19
307.776
304.38
300.334
296.252
292.439
289.168
286.972
285.633
263.834
262.407
259.464
255.48
250.813
245.85
241.38
237.499
234.746
233.124
217.038
215.353
211.754
206.749
201.101
195.232
189.319
184.221
180.638
178.689
171.21
169.029
164.591
158.142
150.611
142.165
134.408
128.563
124.357
122.445
126.629
123.991
118.08
109.855
100.093
89.8025
81.0368
72.6675
65.2676
62.8257
82.4836
79.7314
72.5079
61.4685
47.8752
32.9842
21.1646
14.253
11.3362
12.1792
40.5258
37.7957
30.8587
20.8258
9.77428
3.34986
0.873734
0.0481347
-0.0826568
0.0110862
7.97658
7.31588
4.93341
1.88353
-0.136029
-0.379373
-0.318475
-0.252802
-0.220374
-0.145315
-0.457626
-0.470435
-0.482684
-0.488351
-0.493863
-0.478677
-0.456232
-0.433471
-0.402062
-0.336142
-0.568033
-0.573053
-0.572521
-0.573046
-0.560229
-0.537875
-0.506186
-0.479195
-0.480016
-0.445377
-0.612049
-0.615686
-0.61627
-0.61372
-0.603295
-0.584719
-0.561558
-0.543767
-0.534381
-0.511931
-0.647812
-0.65048
-0.649519
-0.644416
-0.634124
-0.619237
-0.60165
-0.588367
-0.582169
-0.568701
-0.675469
-0.677553
-0.673776
-0.666562
-0.659036
-0.648368
-0.635523
-0.628202
-0.627209
-0.620711
-0.710208
-0.712207
-0.707626
-0.701493
-0.696164
-0.688268
-0.677869
-0.67334
-0.676196
-0.669099
-0.752103
-0.752575
-0.749198
-0.745357
-0.742105
-0.737966
-0.72993
-0.727446
-0.731475
-0.728312
-0.795308
-0.795834
-0.794644
-0.793449
-0.792318
-0.790955
-0.787342
-0.789234
-0.792994
-0.791624
-0.839928
-0.841682
-0.842047
-0.842832
-0.844385
-0.847269
-0.846796
-0.85393
-0.861383
-0.858867
-0.886999
-0.889119
-0.890032
-0.891895
-0.895643
-0.902764
-0.906243
-0.914726
-0.921669
-0.916177
-0.934952
-0.937215
-0.937989
-0.939748
-0.943281
-0.950522
-0.957516
-0.963708
-0.965055
-0.956465
362.17
361.134
359.087
356.25
352.836
349.277
345.954
343.098
341.318
340.202
313.897
312.87
310.485
307.428
303.75
299.869
296.255
293.22
291.16
290.008
266.693
265.338
262.685
259.054
254.796
250.222
245.877
242.262
239.866
238.554
220.485
218.813
215.587
211.095
205.871
200.446
195.236
190.537
187.401
185.795
175.632
173.45
169.381
163.632
156.868
149.725
141.959
136.193
132.54
131.345
132.402
129.451
124.197
116.764
107.878
98.0208
89.5261
82.7808
78.7829
76.5743
89.0435
86.416
79.941
70.1757
58.3463
45.059
32.7159
24.6808
20.6161
21.2978
48.9677
46.0576
39.0677
29.026
17.3093
7.55083
3.15449
1.37333
0.902738
0.866061
14.5948
13.4849
9.78554
4.74322
0.718992
-0.24681
-0.377843
-0.336211
-0.290573
-0.148269
-0.375834
-0.437722
-0.481383
-0.471327
-0.475297
-0.45577
-0.458144
-0.460914
-0.468095
-0.383028
-0.541773
-0.548634
-0.549337
-0.54727
-0.542154
-0.526343
-0.51959
-0.515098
-0.543877
-0.490658
-0.580226
-0.585351
-0.586764
-0.586237
-0.582605
-0.575947
-0.570871
-0.571292
-0.587653
-0.541123
-0.629419
-0.632229
-0.630926
-0.62755
-0.623221
-0.616086
-0.611884
-0.612487
-0.616452
-0.587319
-0.671117
-0.673931
-0.670195
-0.664941
-0.659678
-0.65151
-0.646373
-0.646243
-0.643
-0.631058
-0.716287
-0.717582
-0.712074
-0.706672
-0.701249
-0.693782
-0.688831
-0.68657
-0.682719
-0.672019
-0.759243
-0.759839
-0.755353
-0.751446
-0.747228
-0.742012
-0.738574
-0.736081
-0.73176
-0.726895
-0.798259
-0.801097
-0.799688
-0.798063
-0.79596
-0.793691
-0.791874
-0.792454
-0.788685
-0.784803
-0.840395
-0.844792
-0.845054
-0.845575
-0.845776
-0.84658
-0.846795
-0.849835
-0.849697
-0.844897
-0.886436
-0.890947
-0.891712
-0.893329
-0.895093
-0.898268
-0.901441
-0.904733
-0.904658
-0.898372
-0.933608
-0.938285
-0.938878
-0.94069
-0.942527
-0.94569
-0.949878
-0.953429
-0.952133
-0.94658
364.918
363.859
361.957
359.268
356.116
352.737
349.573
346.98
345.237
344.271
317.009
315.708
313.55
310.662
307.258
303.634
300.302
297.482
295.559
294.52
269.748
268.504
266.125
262.788
258.878
254.76
250.737
247.31
245.17
244.002
224.198
222.597
219.692
215.619
210.862
205.951
201.057
197.133
194.212
192.746
180.224
178.14
174.508
169.348
163.242
156.808
150.363
145.181
141.737
140.199
137.997
135.327
130.687
124.094
116.16
107.847
99.7768
93.4259
89.2323
87.3398
96.9847
94.0655
88.2027
79.5378
69.0777
57.976
47.1466
38.7004
34.5992
34.6764
59.0467
55.9857
49.1354
39.1162
27.6308
16.7122
8.81057
5.05994
4.33979
4.74734
24.7973
22.5082
16.6701
10.5232
4.19329
0.534658
-0.211886
-0.328286
-0.336883
-0.191011
0.767643
0.364522
-0.303561
-0.446503
-0.462828
-0.473011
-0.468813
-0.476912
-0.488958
-0.417715
-0.499864
-0.51712
-0.514262
-0.537291
-0.538776
-0.537692
-0.5373
-0.547204
-0.592503
-0.527659
-0.586535
-0.58499
-0.574842
-0.577616
-0.57882
-0.578725
-0.58635
-0.600272
-0.648286
-0.570798
-0.627226
-0.633048
-0.627689
-0.625263
-0.623118
-0.620737
-0.625702
-0.639351
-0.652679
-0.604766
-0.681879
-0.683954
-0.675158
-0.6685
-0.663644
-0.658163
-0.658338
-0.661543
-0.657196
-0.638652
-0.739439
-0.731101
-0.720431
-0.71293
-0.706943
-0.700449
-0.697083
-0.693165
-0.683221
-0.6753
-0.780587
-0.77146
-0.76394
-0.75782
-0.752422
-0.746797
-0.742298
-0.736821
-0.728179
-0.724521
-0.80365
-0.807342
-0.805267
-0.80277
-0.799469
-0.795918
-0.792414
-0.788757
-0.783923
-0.780907
-0.839918
-0.847367
-0.848108
-0.848415
-0.847357
-0.845992
-0.844344
-0.842962
-0.839961
-0.837111
-0.88404
-0.892589
-0.893568
-0.894934
-0.895233
-0.895377
-0.89533
-0.894976
-0.892818
-0.890309
-0.928635
-0.939502
-0.939877
-0.941803
-0.94249
-0.942983
-0.94337
-0.943373
-0.941751
-0.940017
367.337
366.441
364.614
362.111
359.175
355.972
353.068
350.681
349.005
348.112
319.757
318.535
316.56
313.687
310.514
307.286
304.156
301.552
299.724
298.766
272.731
271.612
269.443
266.318
262.718
258.977
255.3
252.248
250.169
249.089
227.675
226.174
223.614
219.875
215.537
211
206.626
203.035
200.521
199.198
184.49
182.494
179.419
174.733
169.221
163.399
157.801
153.272
150.135
148.576
143.417
140.88
136.884
130.958
123.922
116.434
109.419
103.855
100.032
98.0466
104.433
101.461
96.3532
88.6011
79.2463
69.5591
60.7626
53.6478
49.3989
48.4428
68.5749
65.3735
59.2922
50.2378
38.7479
28.2446
19.8156
13.8689
11.0371
12.1891
36.1148
32.6319
26.9315
18.6383
10.1139
4.25677
1.45947
0.387833
-0.0598767
0.0563264
8.5682
6.96704
4.09647
0.172578
-0.449548
-0.471093
-0.477829
-0.496507
-0.50267
-0.443937
-0.277894
-0.52185
-0.536668
-0.525363
-0.536995
-0.543157
-0.557835
-0.576875
-0.618093
-0.543441
-0.556199
-0.590135
-0.590628
-0.581589
-0.577414
-0.583456
-0.600522
-0.625027
-0.688829
-0.595074
-0.629582
-0.632707
-0.632174
-0.628128
-0.626023
-0.626661
-0.638699
-0.662796
-0.689753
-0.62097
-0.700736
-0.688059
-0.684131
-0.67498
-0.668975
-0.664545
-0.667468
-0.67377
-0.671791
-0.643302
-0.767426
-0.738437
-0.7315
-0.72045
-0.712517
-0.705642
-0.702604
-0.69751
-0.684524
-0.676827
-0.790065
-0.780606
-0.774006
-0.764827
-0.757305
-0.750289
-0.744993
-0.73803
-0.72777
-0.72353
-0.79413
-0.81383
-0.811062
-0.807982
-0.803146
-0.797834
-0.792927
-0.786987
-0.780567
-0.778632
-0.832664
-0.851036
-0.851492
-0.852106
-0.849675
-0.846475
-0.843048
-0.839089
-0.834875
-0.833241
-0.883417
-0.897709
-0.896842
-0.897336
-0.896376
-0.89475
-0.892668
-0.890227
-0.887655
-0.886482
-0.931576
-0.945396
-0.943003
-0.943654
-0.943266
-0.942404
-0.941064
-0.93949
-0.937944
-0.937252
369.296
368.537
366.903
364.611
361.837
358.809
356.051
353.8
352.216
351.383
321.673
320.789
319.066
316.63
313.558
310.458
307.448
304.974
303.256
302.376
275.21
274.183
272.363
269.388
266.05
262.64
259.19
256.33
254.392
253.396
230.538
229.262
227.332
223.422
219.525
215.394
211.454
208.134
205.842
204.646
187.872
186.177
183.82
179.321
174.267
168.973
163.926
159.931
157.17
155.767
147.719
145.637
142.253
136.789
130.39
123.695
117.51
112.603
109.366
107.815
110.357
107.635
103.251
96.1896
87.7873
79.2723
71.7515
65.8275
62.2075
60.9353
75.5355
72.7714
67.4261
59.1007
48.6683
38.2893
29.8981
24.0292
21.0663
21.6684
45.34
41.6341
34.8645
26.7647
16.182
9.27416
4.49103
2.06352
1.24141
1.74332
21.7726
16.678
10.175
4.08946
-0.310555
-0.477156
-0.470276
-0.483376
-0.489461
-0.396135
2.39953
0.609476
-0.496633
-0.540425
-0.512582
-0.545609
-0.559895
-0.585199
-0.627839
-0.542878
-0.935846
-0.580693
-0.58794
-0.594919
-0.575552
-0.58618
-0.610253
-0.642502
-0.705844
-0.613081
-0.364869
-0.637073
-0.63227
-0.633171
-0.627816
-0.631362
-0.64946
-0.68102
-0.71748
-0.634141
-0.503544
-0.697579
-0.694284
-0.682298
-0.673837
-0.669712
-0.675834
-0.685409
-0.687522
-0.647048
-0.735091
-0.771838
-0.748407
-0.729682
-0.718423
-0.709905
-0.707676
-0.702068
-0.689223
-0.678174
-0.826574
-0.816451
-0.791872
-0.776056
-0.763278
-0.753481
-0.747881
-0.739804
-0.729008
-0.724654
-0.817596
-0.839979
-0.82229
-0.816875
-0.807823
-0.80001
-0.794116
-0.787204
-0.780362
-0.778332
-0.848174
-0.864132
-0.856333
-0.857471
-0.853118
-0.847984
-0.843296
-0.837997
-0.832836
-0.831769
-0.906606
-0.908637
-0.902042
-0.900458
-0.898506
-0.895486
-0.892313
-0.88889
-0.885795
-0.884499
-0.960558
-0.957108
-0.946851
-0.945961
-0.944691
-0.942912
-0.940837
-0.938629
-0.936748
-0.935941
371.236
370.237
368.387
366.296
363.592
360.84
358.118
356.018
354.529
353.752
323.412
322.525
320.687
318.319
315.433
312.503
309.721
307.396
305.798
304.993
276.846
276.109
274.198
271.476
268.353
264.999
261.863
259.167
257.415
256.511
232.017
231.491
229.49
225.996
222.374
218.411
214.735
211.791
209.643
208.548
189.053
188.894
186.437
182.508
177.847
172.906
168.284
164.6
162.127
160.844
148.838
148.89
145.879
140.886
134.973
128.774
123.063
118.65
115.825
114.385
111.804
111.842
107.985
101.414
93.6486
85.7805
78.816
73.774
70.8469
69.6809
76.7231
77.5443
73.3261
65.2423
55.4171
45.317
36.9379
31.3056
29.0574
30.3005
44.7706
46.8845
42.7607
32.4962
21.9959
13.2403
7.12405
3.51715
2.97136
4.2004
21.6417
21.9407
17.4385
6.80268
0.301894
-0.441033
-0.461588
-0.475366
-0.461392
-0.300935
11.9177
3.88331
0.65227
-0.531316
-0.52113
-0.548438
-0.56571
-0.591898
-0.636965
-0.54266
12.563
-0.510414
-0.581892
-0.6041
-0.592506
-0.589837
-0.617158
-0.654316
-0.713123
-0.624508
12.0023
-0.239413
-0.671512
-0.645939
-0.639646
-0.636938
-0.656325
-0.690763
-0.729033
-0.639333
7.93217
-0.295777
-0.737411
-0.70315
-0.687973
-0.674201
-0.681242
-0.692106
-0.69468
-0.648238
0.327656
-0.581826
-0.774697
-0.751823
-0.731128
-0.711982
-0.709754
-0.705804
-0.694627
-0.680222
-0.873542
-0.802566
-0.813015
-0.793313
-0.77432
-0.754854
-0.747947
-0.740711
-0.732263
-0.727845
-0.782204
-0.901435
-0.85285
-0.835936
-0.820465
-0.802973
-0.794847
-0.788103
-0.781282
-0.779152
-0.673734
-0.900811
-0.88347
-0.872791
-0.862296
-0.851109
-0.844427
-0.838127
-0.83268
-0.831555
-0.681995
-0.924655
-0.921647
-0.908132
-0.903718
-0.897427
-0.893039
-0.888779
-0.885037
-0.883803
-0.713346
-0.964871
-0.96376
-0.949859
-0.9478
-0.944139
-0.941329
-0.938596
-0.936371
-0.935522
372.832
371.387
369.085
367.506
364.503
361.858
359.303
357.201
355.743
354.997
326.867
323.559
321.714
319.514
316.539
313.536
310.927
308.692
307.134
306.369
280.256
277.058
275.437
272.803
269.644
266.333
263.276
260.744
259.006
258.139
235.379
232.48
230.874
227.735
224.01
220.034
216.459
213.571
211.595
210.565
193.211
190.034
188.402
184.598
179.883
174.994
170.48
166.985
164.659
163.451
153.934
150.457
148.383
143.515
137.562
131.438
125.751
121.63
119.05
117.7
118.295
114.472
111.164
104.481
96.6166
88.6898
81.7031
77.254
74.8365
73.9495
81.3873
81.4784
76.9612
68.4384
58.4919
48.3292
39.7572
34.2136
32.4524
34.3074
47.475
50.8487
47.9841
35.6759
24.178
14.4938
7.97287
4.01799
3.79034
5.65393
28.9855
25.1504
23.8435
8.30958
0.678363
-0.392409
-0.449405
-0.466496
-0.4326
-0.246977
21.2839
10.138
2.31887
-0.303283
-0.505773
-0.545217
-0.56602
-0.596471
-0.645482
-0.540306
18.9335
8.90025
-1.06489
-0.595135
-0.590628
-0.589895
-0.61575
-0.659231
-0.722761
-0.626098
21.2721
10.4268
-0.558514
-0.64697
-0.629367
-0.63273
-0.652559
-0.69052
-0.726943
-0.637527
16.2592
8.27302
-0.586532
-0.693878
-0.672379
-0.664133
-0.674922
-0.688007
-0.689788
-0.645753
11.4976
3.82671
-0.564465
-0.746406
-0.720771
-0.702524
-0.703159
-0.702499
-0.69288
-0.679731
8.64282
-0.546208
-0.774801
-0.796283
-0.769876
-0.748563
-0.743742
-0.740878
-0.733831
-0.728914
8.88461
-0.751838
-0.857526
-0.842965
-0.828253
-0.802022
-0.793043
-0.788422
-0.782956
-0.780128
10.5424
-0.603096
-0.875659
-0.867391
-0.870855
-0.855156
-0.845736
-0.839418
-0.833919
-0.831906
10.3819
-0.870887
-0.907138
-0.904058
-0.905072
-0.898326
-0.893957
-0.889449
-0.885555
-0.884084
5.99886
-0.95936
-0.952757
-0.948852
-0.948049
-0.944739
-0.941968
-0.939017
-0.936573
-0.935699
372.525
370.856
369.059
367.142
364.481
361.823
359.273
357.161
355.698
354.962
327.03
323.502
321.477
319.485
316.466
313.429
310.911
308.672
307.096
306.355
280.512
277.066
275.212
272.642
269.511
266.235
263.241
260.711
258.968
258.106
235.596
232.48
230.703
227.63
223.911
219.974
216.473
213.536
211.557
210.527
193.098
189.973
188.283
184.549
179.882
174.972
170.443
166.968
164.632
163.427
153.547
150.298
148.372
143.559
137.61
131.435
125.72
121.62
119.041
117.699
117.35
114.252
111.196
104.689
96.7838
88.6999
81.6289
77.1957
74.8258
73.9785
80.5002
81.3542
77.3032
69.018
58.9305
48.5042
39.7715
34.1384
32.4137
34.3034
49.2725
51.3038
48.8229
37.0556
25.1133
14.5974
7.93273
4.01308
3.82345
5.74406
33.9606
26.9819
25.8136
9.95476
1.03063
-0.361847
-0.445444
-0.468784
-0.435568
-0.254394
26.673
13.8739
3.62985
-0.14875
-0.497521
-0.541298
-0.567163
-0.600819
-0.65238
-0.541996
25.5716
12.0001
-0.794224
-0.557836
-0.589859
-0.588223
-0.615059
-0.658258
-0.728951
-0.622481
17.9401
10.4563
-0.535753
-0.641145
-0.62876
-0.634712
-0.651672
-0.688213
-0.718896
-0.633299
11.9922
5.4917
-0.62046
-0.683788
-0.672146
-0.670793
-0.676409
-0.684632
-0.68247
-0.643159
6.99253
3.18343
-0.661359
-0.720824
-0.708505
-0.703661
-0.705322
-0.701812
-0.690838
-0.678875
5.14487
-0.00661857
-0.473735
-0.769686
-0.748031
-0.741275
-0.74189
-0.740601
-0.734235
-0.728784
4.95065
-1.23305
-0.844461
-0.622098
-0.81822
-0.797853
-0.78963
-0.787475
-0.783645
-0.780516
5.92515
-0.963347
-0.900598
-0.929332
-0.854343
-0.856352
-0.845249
-0.839429
-0.834641
-0.832533
5.71927
-0.920573
-0.916971
-0.922725
-0.919498
-0.904662
-0.895612
-0.890447
-0.886547
-0.88481
9.18046
-0.946813
-0.946304
-0.94888
-0.95085
-0.945947
-0.942678
-0.939554
-0.937151
-0.936262
371.165
370.28
368.281
366.184
363.46
360.701
358.006
355.868
354.372
353.584
323.467
322.396
320.588
318.259
315.275
312.372
309.582
307.233
305.641
304.811
276.906
275.957
274.044
271.449
268.086
264.917
261.738
259.038
257.279
256.368
232.179
231.353
229.162
225.944
222.231
218.286
214.594
211.643
209.512
208.422
189.544
188.901
186.221
182.358
177.772
172.838
168.296
164.539
162.061
160.776
149.686
149.019
145.863
140.842
134.958
128.703
122.994
118.606
115.829
114.387
113.268
112.248
108.223
101.522
93.6693
85.6052
78.4944
73.5993
70.8833
69.8036
79.2774
78.4765
73.6887
65.5399
55.6105
45.2735
36.7256
31.1453
29.2177
30.4881
47.6434
48.6451
43.351
33.0495
22.3903
13.1072
6.98374
3.50708
3.1029
4.48478
24.1401
23.6599
18.2068
7.58253
0.484622
-0.433388
-0.462197
-0.485958
-0.474303
-0.318286
13.6882
4.19143
0.600288
-0.502466
-0.520703
-0.547403
-0.570874
-0.604924
-0.654214
-0.54659
11.1946
-0.323969
-0.600904
-0.587746
-0.587823
-0.586935
-0.616667
-0.656879
-0.724285
-0.614734
9.29886
0.0826986
-0.643009
-0.630353
-0.63009
-0.632551
-0.650496
-0.684378
-0.709216
-0.626852
3.90424
0.179631
-0.707515
-0.685404
-0.675213
-0.670281
-0.67404
-0.678593
-0.67522
-0.641189
0.510637
-0.72135
-0.78943
-0.737261
-0.718337
-0.709074
-0.70586
-0.699925
-0.688888
-0.679382
0.60311
-0.795516
-0.790288
-0.778337
-0.752446
-0.749369
-0.745611
-0.740718
-0.7338
-0.729458
1.6175
-0.724855
-0.838746
-0.832207
-0.796064
-0.796891
-0.7929
-0.788431
-0.78367
-0.781006
-0.386872
-0.895095
-0.906983
-0.885135
-0.863963
-0.853295
-0.845613
-0.839761
-0.835033
-0.833229
-0.85401
-0.961852
-0.932701
-0.920433
-0.911835
-0.901442
-0.89552
-0.890801
-0.887113
-0.885516
-0.653609
-0.994872
-0.966339
-0.953883
-0.951006
-0.94641
-0.943055
-0.940036
-0.937722
-0.936794
369.13
368.296
366.71
364.39
361.595
358.672
355.729
353.515
351.94
351.1
321.516
320.601
318.889
316.435
313.195
310.178
307.157
304.707
302.986
302.092
275.143
274.077
272.209
269.245
265.779
262.316
258.901
256.064
254.143
253.14
230.568
229.262
227.189
223.359
219.318
215.092
211.107
207.866
205.607
204.41
188.088
186.494
183.82
179.2
174.096
168.777
163.75
159.785
157.043
155.632
148.005
145.873
142.325
136.716
130.262
123.518
117.322
112.512
109.377
107.842
110.621
108.078
103.302
96.0483
87.5467
78.9526
71.4045
65.7275
62.5058
61.2747
76.0894
73.4869
67.5246
58.9661
48.4943
38.018
29.5524
24.0025
21.7032
22.6167
46.5243
43.0006
34.9969
26.5057
15.9068
9.05387
4.43406
2.09684
1.41234
2.00055
22.9821
18.1053
9.99114
4.16914
-0.305247
-0.472769
-0.472755
-0.498627
-0.505795
-0.409169
2.46574
0.71588
-0.483367
-0.521659
-0.510825
-0.540646
-0.566263
-0.602173
-0.646342
-0.542391
-0.899919
-0.537692
-0.584124
-0.584043
-0.572525
-0.584032
-0.611881
-0.647066
-0.708574
-0.59948
-0.596755
-0.620285
-0.624804
-0.625702
-0.624414
-0.628758
-0.644966
-0.672684
-0.687747
-0.617871
-0.703238
-0.71552
-0.694435
-0.677906
-0.670433
-0.667373
-0.669024
-0.668551
-0.663566
-0.639078
-0.797333
-0.768326
-0.747788
-0.726186
-0.714991
-0.708417
-0.703729
-0.696467
-0.685935
-0.680173
-0.770908
-0.797439
-0.78314
-0.772743
-0.759598
-0.752407
-0.746242
-0.739476
-0.732322
-0.729975
-0.735336
-0.824559
-0.829235
-0.824297
-0.809334
-0.800562
-0.794279
-0.788287
-0.783035
-0.781431
-0.574648
-0.872719
-0.883945
-0.872616
-0.860608
-0.851267
-0.845189
-0.839971
-0.835256
-0.833911
-0.771387
-0.929009
-0.920526
-0.911879
-0.905788
-0.899582
-0.895037
-0.891064
-0.887955
-0.886476
-0.990083
-0.96012
-0.960679
-0.952083
-0.949588
-0.946064
-0.943145
-0.940461
-0.938336
-0.937372
367.22
366.247
364.381
361.85
358.894
355.788
352.68
350.287
348.626
347.731
319.568
318.306
316.333
313.41
310.291
306.902
303.776
301.174
299.349
298.386
272.621
271.401
269.205
266.063
262.439
258.622
254.948
251.903
249.817
248.721
227.505
225.92
223.324
219.624
215.255
210.656
206.234
202.678
200.167
198.827
184.327
182.162
179.163
174.483
168.947
163.097
157.517
153.032
149.883
148.284
143.297
140.754
136.699
130.721
123.649
116.109
109.132
103.695
99.9397
97.8763
104.281
101.411
96.0609
88.1587
78.7779
69.1245
60.4254
53.6701
49.8489
48.7567
68.2188
65.4496
59.0382
49.9177
38.4646
27.7983
19.4788
14.1002
11.6567
12.4114
35.6604
32.8965
26.3119
17.8859
9.66539
4.08305
1.44164
0.43952
-0.0260565
0.0758374
8.94148
7.34313
4.12797
0.194241
-0.436874
-0.468135
-0.486383
-0.516452
-0.523511
-0.454544
-0.288276
-0.493611
-0.544772
-0.522142
-0.534042
-0.542574
-0.566837
-0.597903
-0.634992
-0.539832
-0.580469
-0.593601
-0.596508
-0.581098
-0.574715
-0.582284
-0.602675
-0.63087
-0.674986
-0.583913
-0.649518
-0.639885
-0.629581
-0.625786
-0.622669
-0.624207
-0.634592
-0.651597
-0.654485
-0.605026
-0.707711
-0.692005
-0.681884
-0.672534
-0.666504
-0.662757
-0.661551
-0.656673
-0.64839
-0.635753
-0.742267
-0.738915
-0.727725
-0.717913
-0.710807
-0.705103
-0.699676
-0.691654
-0.681909
-0.679341
-0.760891
-0.778082
-0.770437
-0.763614
-0.755996
-0.750453
-0.744673
-0.737655
-0.730666
-0.729725
-0.795937
-0.817055
-0.811489
-0.810018
-0.804001
-0.799001
-0.794125
-0.788381
-0.782802
-0.782235
-0.84248
-0.867946
-0.859859
-0.858701
-0.854147
-0.849231
-0.845205
-0.841118
-0.837622
-0.835619
-0.742268
-0.91498
-0.90926
-0.905263
-0.902094
-0.89823
-0.895102
-0.892076
-0.889438
-0.888208
-0.959626
-0.934999
-0.949026
-0.949609
-0.947793
-0.945575
-0.94333
-0.941086
-0.939227
-0.938439
364.537
363.531
361.626
358.933
355.763
352.407
349.278
346.451
344.758
343.796
316.477
315.352
313.231
310.333
306.942
303.32
299.886
297.014
295.082
294.035
269.531
268.2
265.817
262.479
258.556
254.377
250.312
246.867
244.7
243.505
223.904
222.272
219.359
215.292
210.524
205.549
200.575
196.658
193.707
192.202
179.86
177.789
174.157
169.002
162.886
156.42
150.033
144.847
141.245
139.617
137.577
135.009
130.351
123.735
115.751
107.295
99.449
93.2767
88.8084
86.6559
96.6285
93.7257
87.6711
78.8943
68.4368
57.4945
46.9908
38.9283
34.8237
34.2569
58.5907
55.742
48.7705
38.7636
27.0207
16.1987
8.86328
5.40797
4.42897
4.19372
24.4558
22.3112
15.8162
9.7336
3.83096
0.459631
-0.237797
-0.35708
-0.332929
-0.192068
0.815271
0.461388
-0.288508
-0.453669
-0.474505
-0.483617
-0.488561
-0.505728
-0.504458
-0.414499
-0.517157
-0.519354
-0.509288
-0.539243
-0.544205
-0.542082
-0.546358
-0.562768
-0.605581
-0.514382
-0.590914
-0.584993
-0.5771
-0.576607
-0.578654
-0.577451
-0.586579
-0.604252
-0.621246
-0.553943
-0.630581
-0.628275
-0.625555
-0.623236
-0.620841
-0.618565
-0.620504
-0.622553
-0.617622
-0.590183
-0.683432
-0.67808
-0.673441
-0.667897
-0.662592
-0.657477
-0.653123
-0.645941
-0.637329
-0.632902
-0.729267
-0.723466
-0.718443
-0.712251
-0.706673
-0.700978
-0.694729
-0.687061
-0.679056
-0.678479
-0.763402
-0.765093
-0.76229
-0.757784
-0.752832
-0.747959
-0.742481
-0.736379
-0.729876
-0.729839
-0.803164
-0.808691
-0.807768
-0.804917
-0.801187
-0.797665
-0.794166
-0.790342
-0.786089
-0.784515
-0.856154
-0.86132
-0.857064
-0.853679
-0.850745
-0.848209
-0.846204
-0.843996
-0.84103
-0.839095
-0.902796
-0.910078
-0.904166
-0.901372
-0.899353
-0.897652
-0.896478
-0.895151
-0.893139
-0.890937
-0.93985
-0.95303
-0.949307
-0.94785
-0.946544
-0.945301
-0.944177
-0.943002
-0.941525
-0.940241
361.91
360.792
358.723
355.862
352.44
348.861
345.496
342.56
340.793
339.652
313.474
312.474
310.146
307.025
303.372
299.45
295.761
292.675
290.593
289.426
266.324
264.975
262.343
258.73
254.473
249.7
245.299
241.656
239.26
237.934
220.068
218.42
215.183
210.73
205.552
199.801
194.583
190.01
186.752
185.09
175.128
173.015
168.931
163.227
156.504
149.328
141.705
135.728
131.652
130.398
131.65
128.931
123.749
116.313
107.407
97.8466
89.3099
82.6659
78.1834
75.4402
88.7306
85.8598
79.2625
69.4268
57.6154
44.7673
32.8983
24.8587
20.3523
20.2731
48.5709
45.6827
38.6142
28.3221
16.705
7.35227
3.22528
1.50922
0.815362
0.483763
14.5292
13.2272
9.24972
4.40488
0.627358
-0.266788
-0.38486
-0.32713
-0.264917
-0.133123
-0.402239
-0.439087
-0.4874
-0.486341
-0.49365
-0.470945
-0.469475
-0.466063
-0.463906
-0.36304
-0.548821
-0.548957
-0.551347
-0.545646
-0.547636
-0.529963
-0.519611
-0.511435
-0.532732
-0.470298
-0.591437
-0.590326
-0.588494
-0.582957
-0.578252
-0.570069
-0.566754
-0.571696
-0.563876
-0.526103
-0.637526
-0.634619
-0.631624
-0.625538
-0.619302
-0.61177
-0.606536
-0.602533
-0.595662
-0.578438
-0.67803
-0.67367
-0.670571
-0.66478
-0.658465
-0.651286
-0.644388
-0.638136
-0.632858
-0.627897
-0.718635
-0.715343
-0.712118
-0.707285
-0.701939
-0.695981
-0.689788
-0.684807
-0.679614
-0.67742
-0.755995
-0.757129
-0.755322
-0.752379
-0.748686
-0.744541
-0.740312
-0.737628
-0.733151
-0.732295
-0.79687
-0.80175
-0.801112
-0.799867
-0.797994
-0.79607
-0.794903
-0.794927
-0.792887
-0.790201
-0.845852
-0.84938
-0.849563
-0.848678
-0.848126
-0.848125
-0.849505
-0.850586
-0.849981
-0.847499
-0.893654
-0.895812
-0.897554
-0.897125
-0.897356
-0.898509
-0.901389
-0.903549
-0.903629
-0.899272
-0.942653
-0.944304
-0.945319
-0.945092
-0.945115
-0.945706
-0.947519
-0.94918
-0.94878
-0.945067
359.427
358.172
355.84
352.778
349.347
345.526
341.972
338.954
336.896
335.588
311.064
309.789
307.263
303.872
299.944
295.789
291.903
288.591
286.316
284.947
263.414
261.96
259.022
255.074
250.405
245.337
240.791
236.857
234.05
232.413
216.605
214.939
211.226
206.367
200.653
194.625
188.666
183.553
179.862
177.928
170.738
168.66
163.98
157.712
150.2
141.832
133.935
127.895
123.338