/*--------------------------------*- C++ -*----------------------------------*\
| =========                 |                                                 |
| \\      /  F ield         | OpenFOAM: The Open Source CFD Toolbox           |
|  \\    /   O peration     | Version:  2312                                  |
|   \\  /    A nd           | Website:  www.openfoam.com                      |
|    \\/     M anipulation  |                                                 |
\*---------------------------------------------------------------------------*/
FoamFile
{
    version     2.0;
    format      ascii;
    arch        "LSB;label=32;scalar=64";
    class       volScalarField;
    location    "1.125";
    object      p_rgh;
}
// * * * * * * * * * * * * * * * * * * * * * * * * * * * * * * * * * * * * * //

dimensions      [1 -1 -2 0 0 0 0];

internalField   nonuniform List<scalar> 
8000
(
386.307
386.716
387.455
388.475
389.714
391.105
392.458
393.615
394.424
394.781
385.22
385.571
386.291
387.485
388.963
390.531
392.051
393.361
394.283
394.741
383.209
383.539
384.118
385.404
387.225
389.22
391.161
392.865
394.143
394.731
380.128
380.424
381.04
382.465
384.618
387.143
389.739
392.057
393.768
394.636
375.473
375.729
376.683
378.598
381.205
384.484
387.913
391.001
393.36
394.615
368.5
368.746
370.244
372.481
375.849
380.287
385.029
389.509
392.959
394.868
334.969
332.757
338.634
344.291
355.062
369.783
380.687
387.829
393.207
396.16
98.354
93.1545
95.1169
102.855
123.344
166.989
242.866
320.63
360.034
373.091
0.32784
0.329053
0.335853
0.345683
0.35631
0.351892
0.36866
26.3915
83.9179
140.991
0.307636
0.312214
0.36156
0.473369
0.433425
0.273758
0.224994
0.157251
0.134678
0.162909
0.278699
0.324818
0.64348
0.623152
0.596343
0.561433
0.277312
0.223752
0.236399
0.273757
0.246121
0.479925
0.631471
0.604681
0.565569
0.432266
0.477905
0.477284
0.483795
0.497382
0.219588
0.522195
0.62873
0.607135
0.250173
0.123921
0.249581
0.504246
0.508134
0.513294
0.189066
0.500451
0.629521
0.597371
0.151497
0.0974782
0.0781819
0.266441
0.494852
0.473381
0.145683
0.437483
0.626511
0.620457
0.198761
0.0611748
0.0406278
0.057685
0.0580631
0.0393349
0.107107
0.246403
0.622368
0.60362
0.196513
0.0364963
0.013473
0.00994607
0.0179907
0.0290766
0.0787907
0.0887238
0.346144
0.400877
0.0575803
0.0258818
0.00783019
-0.00146202
0.00460698
0.023387
0.0969781
0.0539789
0.0593135
0.0380397
0.0574622
0.0435626
0.0503355
0.0375435
0.00328256
0.017285
0.0995538
0.0456683
0.0275162
0.0311453
0.0732818
0.128294
0.114402
0.104928
0.0870513
0.0262598
0.0957541
0.0898999
0.0250293
0.0208281
0.0727848
0.124637
0.113264
0.108533
0.11628
0.133629
386.995
387.427
388.28
389.252
390.388
391.754
393.082
394.21
394.998
395.333
385.933
386.318
387.092
388.218
389.604
391.196
392.706
393.996
394.898
395.302
384.021
384.224
384.745
386.042
387.932
389.997
391.925
393.583
394.788
395.378
381.009
381.077
381.478
383.039
385.401
388.052
390.639
392.917
394.53
395.292
375.795
376.19
377.324
379.386
382.244
385.621
389.031
392.03
394.179
395.273
368.009
368.426
370.716
373.31
377.031
381.555
386.153
390.439
393.741
395.594
338.244
333.073
337.965
345.164
357.388
371.868
381.598
388.302
393.564
396.433
98.8843
90.6806
95.0414
107.6
134.147
181.297
247.047
317.243
357.247
371.481
0.334049
0.340447
0.351757
0.360889
0.361335
0.320038
1.00194
33.2542
86.0562
143.72
0.307485
0.313959
0.400432
0.439853
0.322756
0.219699
0.179641
0.106102
0.0885509
0.104002
0.273264
0.380856
0.621167
0.587227
0.437106
0.127431
0.0919889
0.0536209
0.0501743
0.0756476
0.235478
0.469449
0.600334
0.446279
0.110171
0.0938871
0.0754745
0.070852
0.186244
0.332234
0.203375
0.469631
0.59312
0.168032
0.113967
0.103411
0.0982591
0.214908
0.479547
0.491162
0.173775
0.466662
0.602028
0.133589
0.097331
0.0762796
0.16627
0.457501
0.468902
0.480496
0.136758
0.430008
0.615287
0.185201
0.0709326
0.0354656
0.147575
0.437953
0.455837
0.278294
0.0996566
0.359575
0.613782
0.285719
0.0499816
0.0202318
0.0450881
0.0473506
0.01076
0.012128
0.0705243
0.191526
0.566987
0.295747
0.0376144
0.0141993
-0.00944888
-0.020125
-0.0195765
0.00434232
0.0578533
0.0617825
0.171033
0.122863
0.0328489
0.0119737
-0.00942288
-0.0270673
-0.0290069
-0.00400831
0.0640259
0.0245503
0.0417687
0.0433307
0.0243691
0.0193494
0.0111048
-0.00652414
-0.028336
-0.00787928
0.0527192
0.0348269
0.0574941
0.0294262
0.0114754
0.0562943
0.0933549
0.0549596
-0.0261411
-0.00332102
388.296
388.904
389.99
390.94
391.922
393.056
394.263
395.323
396.06
396.355
387.139
387.796
388.896
390.112
391.359
392.633
393.979
395.183
396.033
396.394
385.207
385.678
386.682
387.936
389.627
391.56
393.399
394.953
396.046
396.554
382.428
382.586
383.48
384.96
387.179
389.781
392.238
394.474
396
396.703
377.778
378.109
379.441
381.504
384.395
387.831
391.209
393.951
395.967
396.973
371.46
371.941
373.595
376.221
380.065
384.471
388.847
392.87
396.011
397.822
353.304
349.22
353.269
360.561
370.972
379.621
385.738
391.27
395.818
398.355
125.028
116.93
124.858
144.912
186.524
243.501
299.307
345.275
369.029
381.663
0.326542
0.337316
0.350208
0.352528
0.308812
0.318737
16.7796
52.3234
103.521
154.674
0.286367
0.288103
0.317246
0.298699
0.222931
0.171918
0.126828
0.0946665
0.0825762
0.0826035
0.245322
0.284791
0.475758
0.456948
0.195997
0.114728
0.079524
0.0974561
0.0384039
0.0357405
0.202507
0.25151
0.431555
0.347255
0.123704
0.100159
0.0750537
0.0582973
0.0551975
0.064032
0.170616
0.214496
0.339976
0.280098
0.114899
0.0988132
0.0899826
0.102766
0.144609
0.171208
0.143373
0.20327
0.3629
0.277334
0.0872154
0.0723976
0.174186
0.442334
0.462659
0.489354
0.115712
0.17457
0.399263
0.397264
0.0518816
0.0202982
0.198924
0.379489
0.418976
0.44339
0.0910728
0.133462
0.444628
0.459595
0.100238
-0.00572781
0.0617506
0.0430225
-0.0273254
0.131356
0.070903
0.0850475
0.401619
0.472678
0.319023
-0.0164354
-0.0432462
-0.0295721
-0.0302602
-0.0177919
0.0564226
0.0479285
0.185566
0.458169
0.31732
-0.0130749
-0.035791
-0.0523242
-0.0490945
-0.0239285
0.0472779
0.034577
0.0478733
0.123892
0.0838635
-0.0157216
-0.0359133
-0.0482559
-0.044541
-0.022991
0.0367801
0.0280746
0.0317516
0.130307
-0.00287892
-0.022615
-0.0356502
-0.0426629
-0.0370643
-0.0162571
389.916
390.489
391.656
392.556
393.527
394.664
395.837
396.843
397.529
397.781
389.058
389.684
390.916
392.098
393.177
394.391
395.682
396.82
397.612
397.923
387.172
387.853
389.145
390.565
392.076
393.763
395.413
396.861
397.861
398.274
384.743
385.167
386.467
388.121
390.172
392.485
394.811
396.787
398.175
398.788
381.124
381.55
382.989
385.124
387.918
391.114
394.173
396.811
398.718
399.593
376.349
376.507
378.132
380.815
384.472
388.617
392.83
396.618
399.496
400.887
365.99
364.378
368.004
373.387
379.271
385.082
390.616
395.71
400.24
402.53
165.514
161.066
177.137
205.963
252.298
300.058
343.184
370.69
389.401
398.294
0.31278
0.318393
0.309032
0.305569
0.389079
14.9096
43.3452
80.9362
135.594
176.609
0.255835
0.249678
0.234575
0.205038
0.185081
0.131127
0.113267
0.100351
0.0998323
0.108957
0.214671
0.209729
0.201455
0.185589
0.147514
0.106527
0.0980509
0.144002
0.122695
0.0925031
0.177562
0.176776
0.165581
0.159589
0.151964
0.111704
0.0845575
0.0713195
0.0690754
0.0756009
0.149769
0.143169
0.145064
0.136506
0.156385
0.179026
0.168514
0.174052
0.115306
0.0941769
0.125899
0.115933
0.122839
0.125615
0.0993239
0.245675
0.377367
0.397214
0.442041
0.207874
0.103172
0.0950045
0.106896
0.135637
0.0529664
0.126849
0.154077
-0.0657546
0.0372847
0.413622
0.0912719
0.0824496
0.0933921
0.274557
0.140741
-0.0194495
-0.0504446
-0.0592783
-0.0694366
0.0159336
0.0796065
0.06312
0.0743224
0.390762
0.364894
0.0401797
-0.0620973
-0.0743952
-0.0670209
-0.0245927
0.0523397
0.0397323
0.0528331
0.307547
0.380162
0.350595
0.0200955
-0.0629361
-0.0579366
-0.027156
0.0353969
0.0260253
0.02501
0.13131
0.274937
0.245392
0.200732
0.0161176
-0.0459838
-0.0256295
0.0260532
0.0149792
0.013171
0.0730628
0.130515
-0.00957169
0.0664878
0.0545006
-0.0357655
-0.0105683
391.801
392.305
393.285
394.254
395.328
396.507
397.667
398.64
399.285
399.494
391.225
391.744
392.851
393.98
395.132
396.399
397.679
398.784
399.528
399.785
389.893
390.46
391.647
393.105
394.615
396.216
397.795
399.149
400.065
400.399
388.095
388.575
389.819
391.564
393.549
395.692
397.813
399.633
400.883
401.367
385.692
386.074
387.477
389.588
392.208
395.097
397.934
400.399
402.099
402.787
381.99
382.333
384.05
386.525
389.846
393.78
397.735
401.215
403.682
404.729
376.533
376.977
379.785
382.77
386.801
391.612
396.728
401.728
405.535
407.302
224.441
227.428
253.891
287.94
319.502
349.683
373.811
393.704
407.623
412.09
0.310505
0.324336
0.39405
7.40336
28.9487
54.6035
87.4353
134.256
183.791
210.137
0.219648
0.21756
0.216356
0.175156
0.130306
0.134229
0.128146
0.116835
2.11403
3.14624
0.186441
0.184451
0.173537
0.14932
0.126095
0.113187
0.134332
0.200878
0.138567
0.0955676
0.157887
0.156439
0.147352
0.14446
0.143957
0.137829
0.22829
0.232309
0.100849
0.0814245
0.134956
0.129715
0.14308
0.127961
0.156537
0.302256
0.269418
0.264024
0.245165
0.102608
0.113289
0.104322
0.124062
0.0978109
0.0917243
0.252835
0.197894
0.0556778
0.0933757
0.264489
0.0920617
0.082226
0.0763818
0.0756963
0.0413017
0.0912857
0.08849
-0.0850219
-0.0565129
0.0935752
0.0881802
0.0656867
0.0505751
0.0477231
0.0275873
-0.034458
-0.0573248
-0.103194
-0.0841508
-0.0184008
0.0542284
0.0441583
0.0300064
0.0358119
0.107333
0.0183288
-0.0717941
-0.088391
-0.0763407
0.0212274
0.0361435
0.0207676
0.0169423
0.0244513
0.136974
0.114997
-0.00351881
-0.0571985
-0.0508578
0.026216
0.0261301
0.00903024
0.00983625
0.0284054
0.0711444
0.0975836
0.137839
0.024695
-0.0382642
0.0102117
0.0407829
0.00448624
0.0065659
0.00835743
0.0490705
0.117321
0.13754
0.0829653
-0.0338271
0.025396
393.791
394.235
395.079
396.093
397.244
398.458
399.612
400.565
401.181
401.354
393.428
393.901
394.842
395.956
397.192
398.528
399.824
400.905
401.61
401.829
392.663
393.172
394.217
395.604
397.153
398.768
400.326
401.63
402.482
402.751
391.57
392.086
393.227
394.89
396.855
398.98
401.021
402.735
403.861
404.233
389.962
390.53
391.991
394.024
396.551
399.324
402.036
404.32
405.816
406.319
387.516
388.008
389.919
392.295
395.605
399.415
403.059
406.204
408.3
409.084
384.257
384.948
387.871
390.49
394.52
398.92
403.863
408.344
411.448
412.754
284.996
296.646
324.309
346.006
370.261
387.68
401.829
413.653
416.808
418.203
12.1068
13.2489
26.2429
57.5967
92.0489
125.337
165.482
216.051
248.58
262.481
0.172429
0.173165
0.148459
0.168527
0.159266
0.147973
0.164174
1.4552
8.34318
11.2863
0.143153
0.144823
0.143715
0.130178
0.11463
0.114863
0.176065
0.191557
0.187931
0.131433
0.132018
0.133177
0.132345
0.128045
0.104646
0.203335
0.400824
0.395223
0.393221
0.189255
0.11745
0.114304
0.131192
0.104073
0.0945704
0.214798
0.198109
0.0761434
0.065777
0.203713
0.0966101
0.0881764
0.108002
0.0710024
0.0625174
0.0566164
-0.0627608
-0.0566386
-0.0163463
0.193143
0.073043
0.0622947
0.0604846
0.0519929
0.0150423
0.0175412
-0.051155
-0.0902103
-0.0576875
-0.00420763
0.0681417
0.0456835
0.0188456
0.0191598
-0.00941144
-0.0472159
-0.0406161
-0.081794
-0.0303687
0.0214079
0.0635785
0.0193532
0.00354977
-0.000905513
-0.0114607
-0.0294787
-0.0540524
-0.0740477
-0.0489397
0.042783
0.0573789
0.00549939
0.00374895
0.00141333
-0.00601417
-0.0193123
-0.0339109
-0.044196
-0.0424735
0.0600151
0.0580792
0.0105289
0.00811192
0.00694315
-0.00105502
-0.0138485
-0.0230372
-0.028408
-0.0279786
0.0305195
0.084719
0.0140515
0.0124612
0.0128416
0.00229932
0.000958707
-0.0100801
-0.0264659
-0.0206999
0.0183668
395.681
396.105
396.893
397.923
399.107
400.342
401.502
402.444
403.037
403.177
395.515
395.97
396.83
397.949
399.238
400.617
401.922
402.989
403.671
403.859
395.206
395.712
396.697
398.05
399.604
401.251
402.81
404.087
404.9
405.131
394.77
395.335
396.436
398.023
400.027
402.153
404.164
405.813
406.863
407.161
393.981
394.597
396.059
398.093
400.645
403.413
406.061
408.22
409.596
409.988
392.717
393.299
395.247
397.817
401.233
404.822
408.327
411.218
413.081
413.666
391.395
392.315
394.8
397.879
402.355
406.823
411.346
415.16
417.683
418.634
335.151
348.786
363.781
385.791
404.056
414.069
418.517
422.086
424.411
425.304
47.4357
49.7597
85.9266
141.07
193.565
236.167
275.143
304.592
317.748
322.108
0.168896
0.166652
0.163655
0.172434
0.176489
2.48381
7.5557
16.0487
26.7773
30.2515
0.126822
0.126442
0.128201
0.11677
0.106712
0.082193
0.0707914
0.174991
0.22117
0.230218
0.111335
0.114481
0.118479
0.107888
0.0743905
0.0784692
0.264571
0.308007
0.22223
0.291012
0.100214
0.130091
0.102933
0.0803689
0.0413656
-0.0120743
-0.0529062
-0.0555655
-0.0392523
0.0454314
0.0809008
0.139559
0.0909706
0.0464335
0.00433772
-0.0545913
-0.0793334
-0.0766826
-0.0562931
-0.0173003
0.0776251
0.110037
0.054478
0.0181536
-0.00320463
-0.0372901
-0.0792798
-0.071412
-0.00582711
0.00507902
0.162947
0.0785389
0.00938765
-0.00250914
-0.00787587
-0.00432779
-0.0312482
-0.076043
-0.000606128
0.0219077
0.165343
0.0153688
-0.00753623
-0.00671115
-0.00839289
-0.00670213
-0.0330726
-0.061585
-0.00738168
0.0354892
0.0966061
0.00730346
0.00206937
0.00303455
-0.00086671
-0.0101694
-0.0232052
-0.0357808
-0.0254192
-0.00590304
0.0928523
0.0195593
0.0145274
0.0130878
0.00777803
-0.00244575
-0.0133451
-0.0219324
-0.0141134
-0.0242253
0.107022
0.026017
0.0216175
0.0178871
0.00999264
-0.00234406
-0.0106192
-0.0183689
-0.0236332
-0.0257809
397.292
397.712
398.483
399.523
400.726
401.984
403.152
404.091
404.67
404.779
397.281
397.734
398.575
399.697
401.037
402.447
403.767
404.833
405.505
405.667
397.346
397.848
398.819
400.173
401.757
403.43
405.003
406.28
407.084
407.301
397.423
398.02
399.141
400.782
402.795
404.932
406.939
408.575
409.607
409.9
397.379
397.979
399.47
401.602
404.201
407.01
409.636
411.754
413.107
413.468
397.132
397.746
399.835
402.556
405.953
409.677
413.13
415.86
417.614
418.142
397.388
398.169
400.951
404.651
409.274
413.931
418.153
421.489
423.701
424.517
368.364
373.543
388.202
408.818
417.022
422.262
426.611
429.845
432.054
432.981
101.141
108.899
173.491
237.975
296.648
335.835
359.405
372.545
380.198
380.624
0.162242
0.158463
0.171403
2.89261
9.95193
22.6275
38.1459
53.5123
66.46
70.2614
0.108266
0.102369
0.108176
0.0911161
0.0591876
0.0344439
0.0106104
0.0369199
0.133861
0.296017
0.093743
0.0975753
0.106523
0.0776029
0.0418862
0.00940003
-0.0262154
0.038508
0.186441
0.33318
0.0863875
0.164379
0.0872077
0.0613472
0.0184439
-0.0486239
-0.0811542
-0.0875392
-0.0716119
-0.0209472
0.0702998
0.191004
0.062366
0.0428049
-0.0176537
-0.0738968
-0.0965646
-0.0844875
-0.0690733
-0.04153
0.161399
0.161544
0.0175765
0.00853266
-0.0275714
-0.0740795
-0.100024
-0.0697599
-0.0175854
0.0038307
0.183848
0.0856628
0.00131073
-0.00425532
-0.0119197
-0.0373222
-0.0739959
-0.0772548
-0.0217584
0.0105038
0.184575
0.0209791
0.00541425
0.00170197
0.0017198
-0.0125862
-0.0418251
-0.0503836
-0.0530671
-0.0192223
0.115545
0.0219604
0.01621
0.0125547
0.00537278
-0.0073889
-0.0180194
-0.025945
-0.0361167
-0.0347308
0.0984137
0.0310742
0.023475
0.0190897
0.0112811
0.000283009
-0.00770849
-0.0187429
-0.0237274
-0.022206
0.110911
0.0338433
0.0229788
0.0155696
0.00774375
-0.0012679
-0.0106034
-0.0160074
-0.0205949
-0.025428
398.457
398.893
399.65
400.697
401.923
403.202
404.384
405.326
405.904
406.006
398.54
398.993
399.858
401.005
402.377
403.814
405.152
406.231
406.914
407.07
398.889
399.4
400.368
401.746
403.366
405.062
406.651
407.95
408.793
409.024
399.287
399.913
401.094
402.812
404.878
407.03
409.037
410.693
411.799
412.129
399.786
400.404
402.025
404.281
406.982
409.791
412.382
414.496
415.905
416.378
400.317
400.991
403.199
406.083
409.696
413.471
416.839
419.522
421.329
421.919
401.571
402.251
405.235
409.432
414.32
419.086
423.204
426.458
428.724
429.576
381.322
380.052
397.645
416.41
422.407
427.878
432.472
436.022
438.529
439.679
162.48
190.577
250.697
305.061
358.419
389.213
406.513
415.505
421.504
421.862
0.15951
1.21205
6.56278
17.5321
38.4374
65.4427
93.3199
115.083
130.266
133.973
0.0884763
0.0704137
0.0704231
0.0665056
0.0453139
0.00797046
0.0538535
0.125337
0.296193
0.553639
0.0823303
0.100171
0.0894016
0.044348
0.0209534
-0.0126798
-0.0572698
-0.0864003
-0.0760004
0.00945739
0.0787205
0.195589
0.0600483
0.045571
0.0164323
-0.0502974
-0.0946133
-0.108291
-0.0944983
-0.0389648
0.0897545
0.189006
0.0373292
0.0234721
-0.0218013
-0.0880401
-0.120315
-0.113164
-0.0972607
-0.0618829
0.186454
0.107479
0.0164539
0.000801229
-0.0405083
-0.0959306
-0.124216
-0.10889
-0.08667
-0.0361826
0.19645
0.0490619
0.0157388
0.000784716
-0.0299734
-0.0718622
-0.0995736
-0.0934437
-0.0927884
-0.0205145
0.182224
0.0298329
0.0239359
0.0121784
-0.00886489
-0.0382528
-0.0594975
-0.069365
-0.0692539
-0.0559958
0.15383
0.0354324
0.0334513
0.0257213
0.010006
-0.010151
-0.0289204
-0.0413224
-0.0419203
-0.031452
0.161102
0.0377016
0.0338792
0.0302153
0.0183558
0.00209732
-0.0134384
-0.0195693
-0.0111279
-0.0112232
0.211529
0.0395185
0.0285473
0.0220465
0.0149239
0.0042214
-0.00675739
0.00596259
0.0170699
-0.0144013
399.043
399.48
400.246
401.308
402.558
403.859
405.051
405.994
406.578
406.588
399.192
399.616
400.516
401.689
403.09
404.556
405.912
406.996
407.698
407.51
399.666
400.242
401.187
402.578
404.221
405.94
407.55
408.878
409.768
409.42
400.228
400.862
402.097
403.882
405.986
408.152
410.171
411.867
413.043
412.8
400.981
401.662
403.374
405.757
408.523
411.323
413.896
416.061
417.524
417.312
401.917
402.745
405.051
408.185
411.876
415.572
418.876
421.612
423.49
423.855
403.532
404.451
407.61
411.989
416.973
421.753
425.91
429.297
431.719
432.837
381.09
381.211
400.336
418.884
425.156
430.736
435.61
439.574
442.404
443.776
187.4
222.688
271.762
327.579
377.923
406.435
424.303
434.484
438.822
438.003
1.43113
6.16966
17.8022
38.5533
72.0704
111.531
151.395
177.546
189.07
186.648
0.075332
0.0490788
0.0529299
0.0531701
0.0266176
0.156386
0.34067
0.628841
1.53927
2.1926
0.0777573
0.104649
0.0676407
0.0303741
0.0185109
0.0111972
-0.0395467
-0.0883875
-0.0620279
0.0659697
0.0730313
0.186635
0.0531952
0.0197113
0.0128782
-0.0306756
-0.0950163
-0.128009
-0.124103
-0.0703378
0.0938927
0.179874
0.0333016
0.00565278
-0.0220386
-0.0837732
-0.139091
-0.146198
-0.121703
-0.0773182
0.190561
0.0640736
0.0157228
0.000554401
-0.0369675
-0.10067
-0.148619
-0.145734
-0.117536
-0.0808583
0.208867
0.0408916
0.0224975
0.00819319
-0.0243992
-0.0757503
-0.118009
-0.121202
-0.100359
-0.0773835
0.216408
0.0639319
0.0351526
0.0259817
0.00315607
-0.0346238
-0.0669368
-0.0798293
-0.0729213
-0.0536123
0.221916
0.0859229
0.0465584
0.0423839
0.0254674
-0.000866708
-0.0275476
-0.0415386
-0.0376619
-0.0218447
0.223915
0.142907
0.0564279
0.0433473
0.0303322
0.0122189
-0.00328299
-0.00835047
0.0329363
0.0080149
0.236828
0.219335
0.145478
0.0458601
0.0295899
0.0152149
0.0218635
0.145741
0.0765051
-0.0144146
398.966
399.403
400.194
401.272
402.536
403.85
405.055
406.009
406.596
406.618
399.159
399.623
400.483
401.655
403.071
404.552
405.922
407.022
407.737
407.616
399.598
400.19
401.166
402.554
404.202
405.936
407.569
408.928
409.843
409.884
400.16
400.814
402.053
403.856
405.971
408.153
410.21
411.957
413.196
413.283
400.863
401.619
403.33
405.732
408.508
411.332
413.965
416.208
417.87
417.68
401.728
402.776
405.186
408.373
411.981
415.607
418.945
421.786
423.923
424.366
403.066
404.238
407.712
412.089
416.923
421.627
425.889
429.517
432.203
433.531
379.795
383.03
401.162
418.499
424.716
430.307
435.331
439.675
442.678
444.251
164.819
196.788
253.373
315.275
367.146
396.797
418.252
432.878
438.676
437.513
1.83326
6.46328
16.6253
37.2464
70.1334
107.979
150.508
187.441
204.76
201.055
0.0775141
0.046738
0.0407326
0.0324532
0.0321534
0.192054
0.475731
1.18533
3.23168
4.47679
0.0803615
0.0966096
0.0458405
0.0148099
0.0139334
0.0226637
-0.021454
-0.0511606
0.00253983
0.212071
0.0713649
0.174432
0.0810647
0.00636525
0.0130331
-0.00702687
-0.0786689
-0.133302
-0.13701
-0.0837907
0.120739
0.172559
0.0305279
0.00063741
-0.0118951
-0.0638918
-0.136723
-0.161327
-0.135341
-0.0880746
0.217644
0.0595998
0.0112472
0.00347366
-0.0218734
-0.0818259
-0.148388
-0.160755
-0.126014
-0.0823178
0.22848
0.0579486
0.0254065
0.0184797
-0.0048378
-0.0544087
-0.111392
-0.126329
-0.103883
-0.0759638
0.232599
0.0862079
0.0447916
0.0419739
0.0252646
-0.0111384
-0.053557
-0.0761662
-0.0711125
-0.0484783
0.164194
0.147797
0.0563958
0.0570928
0.0448837
0.0191178
-0.0146275
-0.0340755
-0.0205301
-0.0100498
0.13037
0.152686
0.139756
0.0946052
0.0520028
0.0426397
0.0261252
0.045423
0.0382072
0.00398684
0.136892
0.143747
0.138367
0.0607812
0.0470835
0.0985343
0.169958
0.154939
0.0221613
-0.00852296
398.24
398.681
399.486
400.578
401.849
403.17
404.388
405.361
405.958
406.066
398.365
398.837
399.71
400.895
402.311
403.791
405.17
406.288
407.004
407.176
398.687
399.252
400.229
401.637
403.305
405.051
406.696
408.057
408.961
409.241
399.039
399.682
400.925
402.72
404.846
407.056
409.147
410.905
412.128
412.556
399.391
400.053
401.798
404.239
407.046
409.912
412.603
414.89
416.561
417.24
399.766
400.534
403.232
406.474
410.096
413.745
417.149
420.062
422.236
423.278
400.527
401.654
405.044
409.317
414.12
418.882
423.304
427.175
430.053
431.562
375.522
381.997
396.092
413.229
420.797
426.453
431.655
436.446
440.089
442.122
122.484
146.571
197.915
260.726
321.404
358.753
387.023
414.937
430.52
433.958
0.780154
4.19934
9.87361
21.4733
40.6738
68.7019
107.349
157.52
191.784
199.187
0.0889889
0.0484179
0.0271615
0.0207605
0.0607174
0.115252
0.259633
0.596057
2.41023
4.17597
0.0827528
0.114172
0.0371998
0.00184252
0.0241873
0.0210587
-0.0211133
-0.0755556
-0.0236004
0.149918
0.0879504
0.16427
0.0517356
0.00293522
0.0205022
0.00478215
-0.0644771
-0.127451
-0.14688
-0.103201
0.198271
0.150611
0.00566357
0.00014347
-0.00147355
-0.0423068
-0.1147
-0.159486
-0.144188
-0.0939576
0.228379
0.0869084
0.00938613
0.00751617
-0.0050026
-0.0521159
-0.121281
-0.153393
-0.129494
-0.0819339
0.235081
0.105307
0.0314547
0.029083
0.0164428
-0.0218144
-0.0801591
-0.109788
-0.0981044
-0.0697841
0.127575
0.129151
0.0517647
0.054564
0.0452631
0.017079
-0.0260611
-0.0580092
-0.060572
-0.0413674
0.0839834
0.110166
0.0670075
0.0579693
0.0562486
0.0372224
0.00602219
-0.0165356
-0.00765109
0.00431014
0.0814138
0.114574
0.124174
0.13619
0.0772945
0.0825541
0.120581
0.119853
0.0271215
0.00951607
0.0754113
0.0283776
0.0313586
0.0679966
0.188926
0.192856
0.169972
0.154683
-0.00180052
-0.006089
396.924
397.374
398.205
399.318
400.6
401.929
403.158
404.143
404.747
404.856
396.908
397.398
398.299
399.505
400.927
402.412
403.798
404.921
405.633
405.809
396.949
397.503
398.54
399.983
401.665
403.425
405.083
406.446
407.328
407.589
396.921
397.586
398.84
400.631
402.763
405.001
407.12
408.89
410.088
410.477
396.728
397.382
399.094
401.501
404.312
407.228
409.976
412.304
413.95
414.588
396.339
397.048
399.725
402.872
406.503
410.238
413.75
416.763
418.929
419.92
396.257
397.086
399.771
403.934
408.89
413.897
418.612
422.739
425.778
427.282
362.284
372.023
384.451
399.152
413.939
419.771
425.373
430.571
434.724
437.007
78.8762
89.9826
125.221
175.086
235.86
288.881
327.769
372.01
405.479
418.886
0.170285
0.164967
1.65198
6.30288
12.2343
27.1228
61.4942
109.258
147.235
164.908
0.107207
0.105761
0.0345236
0.0324775
0.0216456
0.204041
0.152211
0.267684
0.923821
1.07377
0.106995
0.17004
0.0867375
0.0167207
0.0574699
0.187708
0.0301799
-0.00913235
-0.0690982
-0.0521862
0.209393
0.162169
0.0646151
0.0131699
0.0432889
0.0479217
-0.0203822
-0.0797049
-0.117847
-0.13177
0.229103
0.104023
-0.000450576
0.00769457
0.0141594
-0.0228547
-0.0835583
-0.136471
-0.143483
-0.111466
0.243597
0.0944755
0.0184149
0.018127
0.0125596
-0.0216172
-0.0808218
-0.122086
-0.120604
-0.0884915
0.224399
0.184802
0.0611787
0.0427137
0.0364968
0.0100244
-0.0400797
-0.0757356
-0.0798289
-0.065406
0.0618462
0.144897
0.0533245
0.0631067
0.0605127
0.0415646
0.00473065
-0.0264755
-0.0347886
-0.0296374
0.0396633
0.0756892
0.104727
0.12484
0.102969
0.0693829
0.0459
0.0109839
0.0123922
0.0238291
0.056724
0.0458792
0.055657
0.0552095
0.0904717
0.192608
0.194496
0.133481
0.00965944
0.0123254
0.0200276
0.00869279
0.0220834
0.0871833
0.196973
0.18797
0.170995
0.0108511
-0.00705902
-0.00926371
395.139
395.611
396.485
397.628
398.926
400.264
401.505
402.503
403.116
403.232
394.95
395.459
396.415
397.653
399.08
400.571
401.965
403.099
403.813
403.984
394.58
395.159
396.285
397.776
399.479
401.255
402.93
404.305
405.184
405.415
394.023
394.678
395.96
397.804
399.981
402.258
404.413
406.208
407.396
407.751
393.117
393.82
395.486
397.826
400.638
403.63
406.474
408.872
410.495
411.077
391.805
392.464
395.031
398.151
401.738
405.59
409.279
412.425
414.576
415.443
390.43
391.147
393.761
397.082
401.885
407.244
412.437
416.903
420.051
421.417
332.983
347.357
364.389
376.494
394.316
407.491
415.683
423.038
427.408
429.535
40.1718
40.8713
58.5761
93.0195
139.09
194.246
251.007
305.424
350.811
370.657
0.152403
0.147814
0.127726
0.157144
2.26547
12.2835
41.05
54.1428
69.8483
79.121
0.146696
0.163985
0.0861034
0.0720386
0.143584
0.516763
0.258131
0.388439
0.289741
0.220982
0.228161
0.184801
0.0929453
0.0409404
0.0414614
0.177307
0.05618
0.0597034
-0.0279023
-0.0949556
0.232561
0.154381
0.0248658
0.0235306
0.0396969
0.0614584
-0.00422335
-0.0566433
-0.0951675
-0.116616
0.250389
0.0934803
0.0174133
0.0210681
0.0389361
-0.000828097
-0.0486909
-0.0956668
-0.119371
-0.112068
0.262063
0.115538
0.0376462
0.0348273
0.0328941
0.00648354
-0.0393828
-0.0796221
-0.0941483
-0.0842738
0.154241
0.201144
0.132582
0.0548741
0.0515099
0.0335574
-0.00410357
-0.0384034
-0.0541485
-0.05472
0.0518226
0.0868634
0.0992787
0.0644254
0.0653384
0.0566278
0.0308948
0.000272808
-0.0162447
-0.0197691
0.0579519
0.0594093
0.0913868
0.127258
0.146049
0.0921586
0.0538456
0.036848
0.0345544
0.0379309
0.0314745
-0.0145558
0.0228001
0.0533117
0.119055
0.206333
0.190866
0.0947992
0.0300481
0.0131983
0.00515728
0.00115865
0.0163889
0.0691364
0.195061
0.185688
0.111965
-0.000859244
-0.00364041
-0.0100928
393.056
393.567
394.527
395.699
397.006
398.353
399.608
400.62
401.243
401.36
392.655
393.204
394.289
395.571
396.986
398.471
399.876
401.023
401.742
401.901
391.791
392.403
393.677
395.28
397.007
398.788
400.485
401.886
402.774
402.981
390.472
391.104
392.494
394.542
396.823
399.156
401.37
403.214
404.41
404.735
388.723
389.46
391.124
393.569
396.492
399.577
402.548
405.074
406.697
407.208
386.34
386.948
389.347
392.574
396.391
400.447
404.357
407.694
409.873
410.548
383.492
383.747
386.744
390.139
394.551
399.786
405.401
410.495
414.021
415.263
285.832
290.766
317.569
341.013
361.407
382.287
396.663
412.354
420.291
422.155
11.036
9.46226
17.1974
33.5806
64.3259
110.035
169.52
238.469
296.515
310.702
0.158707
0.157605
0.146055
0.17014
0.152174
11.8027
20.4219
15.2024
25.0106
27.3098
0.189805
0.158174
0.0927861
0.134885
0.34344
0.114568
0.307357
0.281137
0.0965131
0.0614208
0.245901
0.206241
0.0636291
0.179212
0.297042
0.0608194
0.0569203
0.0520115
-0.0211813
-0.0572095
0.255401
0.160339
0.0463205
0.139064
0.118036
0.0395128
0.00332876
-0.0296412
-0.0627361
-0.0826738
0.275052
0.147522
0.0439029
0.048878
0.0395256
0.0255789
-0.0129701
-0.0489216
-0.0770847
-0.0872979
0.279694
0.203943
0.058114
0.052304
0.0481782
0.0292576
-0.00390123
-0.0373561
-0.059352
-0.064741
0.141261
0.20726
0.103324
0.06318
0.0607415
0.0474628
0.0213492
-0.00717635
-0.0278885
-0.0392508
0.0558375
0.0668118
0.115154
0.0633331
0.0626746
0.0597013
0.0406725
0.0176037
-0.00220182
-0.0155324
0.0630368
0.00584608
0.0777751
0.116764
0.0999207
0.0670634
0.0497964
0.0402183
0.0412902
0.0276752
0.0177975
-0.020005
0.0155953
0.0471885
0.0779892
0.111897
0.0857865
0.0816775
0.0577071
0.0135923
0.00533307
0.00289981
0.0203552
0.0323921
0.0860607
0.18547
0.118667
0.0432499
0.00577384
-0.00710348
390.868
391.448
392.569
393.756
395.034
396.377
397.65
398.68
399.312
399.434
390.226
390.85
392.166
393.506
394.876
396.329
397.736
398.899
399.625
399.783
388.783
389.441
390.947
392.747
394.487
396.266
397.99
399.426
400.335
400.543
386.54
387.189
388.777
391.119
393.537
395.972
398.286
400.203
401.429
401.755
383.83
384.485
386.191
388.974
392.184
395.479
398.609
401.277
402.962
403.362
380.17
380.666
382.837
386.255
390.542
395.127
399.541
403.093
405.353
405.839
375.347
374.769
378.023
382.236
387.453
393.12
398.536
404.128
408.234
409.462
221.974
213.185
240.567
278.679
317.396
350.037
375.748
396.005
411.273
414.957
0.26887
0.268726
0.307647
2.9779
19.4385
52.5456
101.976
177.284
249.713
260.132
0.201912
0.19161
0.203903
0.205853
0.359875
5.08411
3.38232
3.89262
8.6374
9.24395
0.251562
0.181818
0.128107
0.151395
0.289685
0.107659
0.17717
0.202886
0.129376
0.0372869
0.269801
0.228322
0.0900098
0.266854
0.308876
0.0719387
0.0627059
0.0512023
0.0153465
-0.00745722
0.279777
0.213885
0.0872487
0.264583
0.280386
0.0497943
0.0360335
0.0133893
-0.016313
-0.0404058
0.296298
0.238391
0.0819559
0.114408
0.101194
0.0407886
0.01905
-0.00589926
-0.0310103
-0.0493271
0.285171
0.259439
0.150783
0.0726649
0.0636155
0.0460443
0.0216962
-0.00316595
-0.0235508
-0.0361763
0.119705
0.216542
0.164773
0.09821
0.0682298
0.0555345
0.036119
0.0138464
-0.00535972
-0.0212161
0.0772126
0.0643272
0.119389
0.109986
0.0629522
0.0591096
0.0477956
0.0310833
0.0119956
-0.00839626
0.0797414
0.00303287
0.0221497
0.0583032
0.0460715
0.0509017
0.0502128
0.0409596
0.0261715
0.00538448
0.0407313
-0.0130119
0.0151381
0.0319804
0.0359482
0.0531851
0.0763254
0.070802
0.0624909
0.0307108
0.0156964
0.00862942
0.0244677
0.032241
0.0400705
0.133964
0.132542
0.123612
0.0219728
-0.0212226
388.782
389.457
390.773
391.957
393.177
394.505
395.799
396.86
397.512
397.652
387.857
388.601
390.087
391.548
392.879
394.309
395.736
396.923
397.66
397.832
385.737
386.544
388.253
390.191
391.989
393.843
395.644
397.132
398.079
398.307
382.72
383.301
385.126
387.601
390.188
392.86
395.399
397.419
398.683
399.027
378.766
379.31
381.22
384.261
387.833
391.558
394.989
397.796
399.602
400.077
373.37
373.861
376.217
379.987
384.826
390.034
394.924
398.929
401.272
401.689
361.832
357.647
364.513
372.814
380.229