/*--------------------------------*- C++ -*----------------------------------*\
| =========                 |                                                 |
| \\      /  F ield         | OpenFOAM: The Open Source CFD Toolbox           |
|  \\    /   O peration     | Version:  2312                                  |
|   \\  /    A nd           | Website:  www.openfoam.com                      |
|    \\/     M anipulation  |                                                 |
\*---------------------------------------------------------------------------*/
FoamFile
{
    version     2.0;
    format      ascii;
    arch        "LSB;label=32;scalar=64";
    class       volScalarField;
    location    "0.24";
    object      p;
}
// * * * * * * * * * * * * * * * * * * * * * * * * * * * * * * * * * * * * * //

dimensions      [1 -1 -2 0 0 0 0];

internalField   nonuniform List<scalar> 
8000
(
440.433
440.844
441.622
442.788
444.3
446.071
447.952
449.726
451.142
451.966
390.428
390.772
391.439
392.452
393.79
395.383
397.1
398.745
400.073
400.853
339.615
339.823
340.262
340.963
341.944
343.175
344.569
345.956
347.104
347.789
288.306
288.308
288.402
288.628
289.053
289.707
290.561
291.497
292.325
292.846
236.859
236.602
236.249
235.842
235.517
235.373
235.459
235.736
236.092
236.374
185.854
185.332
184.445
183.263
182.018
180.904
180.07
179.584
179.401
179.418
135.825
135.011
133.547
131.612
129.463
127.423
125.649
124.299
123.444
123.109
87.2142
86.3165
84.7535
82.7907
80.3568
77.8449
75.4312
73.273
71.8223
71.2061
45.8677
45.9134
44.9727
42.3954
38.9436
36.1423
33.8361
31.5773
30.029
29.6039
13.7872
15.0331
14.9761
13.1924
10.3956
8.44142
7.12117
5.26148
3.45852
3.13367
0.953172
0.546164
0.816496
1.65522
1.93028
1.3262
0.0874062
-0.0946565
-0.0298649
-0.0196611
-0.508766
-0.742232
-0.774753
-0.78453
-0.750563
-0.746605
-0.880781
-0.923582
-0.932147
-0.938782
-0.815969
-0.94396
-0.926052
-0.914074
-0.900244
-0.919894
-0.959829
-0.992501
-1.00038
-0.992971
-0.85144
-0.938454
-0.945656
-0.932347
-0.936862
-0.965309
-0.997171
-1.0173
-1.02429
-1.02328
-0.857818
-0.906361
-0.942793
-0.95331
-0.964114
-0.984261
-1.00761
-1.02562
-1.03747
-1.04149
-0.899334
-0.923239
-0.955089
-0.973092
-0.986215
-0.999536
-1.01334
-1.02466
-1.03274
-1.03681
-0.950462
-0.960328
-0.976774
-0.990383
-1.00162
-1.01116
-1.01905
-1.02492
-1.02792
-1.03188
-0.991333
-0.995001
-1.00264
-1.01075
-1.01767
-1.02355
-1.02769
-1.03085
-1.0344
-1.03583
-1.02539
-1.0268
-1.03009
-1.03388
-1.03706
-1.03917
-1.04061
-1.04167
-1.04293
-1.044
-1.05757
-1.05782
-1.05856
-1.05925
-1.0595
-1.05905
-1.05846
-1.05807
-1.05847
-1.06012
440.843
441.312
442.198
443.539
445.302
447.402
449.667
451.834
453.583
454.607
390.772
391.166
391.928
393.101
394.674
396.581
398.672
400.704
402.36
403.344
339.822
340.063
340.569
341.391
342.566
344.077
345.823
347.589
349.073
349.983
288.309
288.305
288.403
288.669
289.196
290.039
291.162
292.418
293.554
294.296
236.606
236.271
235.802
235.28
234.873
234.723
234.884
235.309
235.841
236.29
185.341
184.597
183.363
181.788
180.138
178.674
177.554
176.835
176.498
176.512
135.024
133.732
131.621
128.907
125.866
122.907
120.275
118.111
116.62
115.966
86.3405
84.3827
81.7808
78.3255
74.0356
69.6207
65.6044
62.0716
59.6805
58.6739
45.9582
42.8278
38.8074
33.3304
27.8022
23.999
21.2504
18.2517
16.8782
16.8044
15.1241
9.14639
6.29273
4.37863
1.58386
0.795249
0.119976
-0.473292
-0.678689
-0.706102
0.539401
-0.267854
-0.523054
-0.655805
-0.786068
-0.841182
-0.880435
-0.892382
-0.899455
-0.894805
-0.761803
-0.821604
-0.778164
-0.784783
-0.784662
-0.832097
-0.925525
-0.966992
-0.961697
-0.94373
-0.953174
-0.979255
-0.930543
-0.895164
-0.884897
-0.935717
-1.01927
-1.04631
-1.02827
-1.00477
-0.94067
-0.961514
-0.95611
-0.950093
-0.967054
-1.00314
-1.05911
-1.0736
-1.06336
-1.04856
-0.906065
-0.917536
-0.943881
-0.961102
-0.97916
-1.00959
-1.04456
-1.06717
-1.07154
-1.06585
-0.922366
-0.926897
-0.950957
-0.973555
-0.993073
-1.01081
-1.02892
-1.04462
-1.05499
-1.05809
-0.959548
-0.96092
-0.973922
-0.98969
-1.00364
-1.01514
-1.0243
-1.03112
-1.03637
-1.04019
-0.994356
-0.994801
-1.00118
-1.00959
-1.0172
-1.02308
-1.02741
-1.03015
-1.03202
-1.03427
-1.0262
-1.02632
-1.02877
-1.03193
-1.0346
-1.03609
-1.03671
-1.03667
-1.03735
-1.03991
-1.05724
-1.05685
-1.05691
-1.05688
-1.05624
-1.05481
-1.05304
-1.0515
-1.05112
-1.05289
441.619
442.196
443.29
444.953
447.165
449.829
452.738
455.558
457.866
459.247
391.437
391.927
392.876
394.347
396.345
398.804
401.541
404.238
406.475
407.823
340.261
340.568
341.204
342.255
343.784
345.792
348.148
350.575
352.662
353.935
288.404
288.404
288.521
288.865
289.573
290.736
292.312
294.115
295.79
296.857
236.257
235.807
235.147
234.415
233.844
233.633
233.858
234.498
235.344
236
184.459
183.374
181.589
179.336
176.968
174.848
173.148
171.971
171.318
171.205
133.576
131.643
128.493
124.446
119.839
115.423
111.477
108.172
105.767
104.707
84.7981
81.8069
77.2813
71.0015
63.3468
55.815
50.4075
46.1865
43.0676
41.6726
45.0291
38.852
30.1921
22.0546
14.8561
10.9264
8.58911
6.91384
5.55967
4.87687
15.061
6.37584
2.07093
0.153271
-0.202693
-0.527138
-0.670999
-0.664486
-0.635917
-0.625347
0.841175
-0.521331
-0.543469
-0.585771
-0.622498
-0.739692
-0.771136
-0.783079
-0.760231
-0.731448
-0.800512
-0.790248
-0.745912
-0.720502
-0.740965
-0.846378
-0.949461
-0.980566
-0.941055
-0.901799
-0.943842
-0.943783
-0.869606
-0.817872
-0.834114
-0.978857
-1.12058
-1.11798
-1.05635
-1.01358
-0.955822
-0.960786
-0.939681
-0.931402
-0.938176
-1.00487
-1.07982
-1.09984
-1.07489
-1.05382
-0.94676
-0.945667
-0.949058
-0.96161
-0.983281
-1.02035
-1.05813
-1.07442
-1.07234
-1.06737
-0.955297
-0.950677
-0.959429
-0.977992
-0.999269
-1.02201
-1.0396
-1.05016
-1.05448
-1.05596
-0.97548
-0.972873
-0.980078
-0.992959
-1.00609
-1.01726
-1.02615
-1.03073
-1.03283
-1.03581
-1.00101
-1.00004
-1.0039
-1.00994
-1.01549
-1.01939
-1.02115
-1.02151
-1.021
-1.02282
-1.02835
-1.02761
-1.0284
-1.02949
-1.02977
-1.02871
-1.02671
-1.02324
-1.02113
-1.02236
-1.05683
-1.05574
-1.05447
-1.05254
-1.04951
-1.04535
-1.04059
-1.0361
-1.03378
-1.03541
442.781
443.533
444.949
447.124
450.055
453.638
457.608
461.507
464.73
466.669
392.447
393.097
394.344
396.296
398.993
402.37
406.184
409.987
413.152
415.052
340.961
341.389
342.253
343.703
345.859
348.739
352.181
355.786
358.883
360.696
288.63
288.671
288.865
289.414
290.537
292.374
294.884
297.764
300.361
301.949
235.853
235.288
234.417
233.513
232.912
232.888
233.561
234.84
236.312
237.481
183.288
181.811
179.343
176.317
173.226
170.44
168.164
166.523
165.644
165.805
131.656
128.973
124.464
118.729
112.445
106.2
100.448
95.3784
91.952
90.6181
82.8506
78.3768
71.009
60.9966
50.9632
42.1517
35.1256
30.1236
26.5386
25.0293
42.4659
33.4171
22.0238
12.4999
7.92854
4.98539
2.97467
1.53331
0.646573
0.220072
13.23
4.45838
0.144837
-0.457098
-0.589254
-0.674539
-0.686188
-0.632248
-0.605403
-0.60967
1.66971
-0.677135
-0.598756
-0.614448
-0.721968
-0.768002
-0.775742
-0.79386
-0.79712
-0.802789
-0.821917
-0.814093
-0.743548
-0.717595
-0.815105
-0.942809
-1.02628
-1.03291
-0.98419
-0.954151
-0.946839
-0.924838
-0.850722
-0.804618
-0.902444
-1.13119
-1.24306
-1.21339
-1.12662
-1.08126
-0.945815
-0.960736
-0.945762
-0.933372
-0.968425
-1.12461
-1.23663
-1.20774
-1.14839
-1.1263
-0.961076
-0.966122
-0.965688
-0.980885
-1.0194
-1.08375
-1.12686
-1.13001
-1.12173
-1.1219
-0.97455
-0.973437
-0.977848
-0.994486
-1.02087
-1.05074
-1.06949
-1.07528
-1.07736
-1.08205
-0.988392
-0.987469
-0.9915
-1.00101
-1.01234
-1.02404
-1.03177
-1.03312
-1.03292
-1.03569
-1.00769
-1.00676
-1.00806
-1.01072
-1.01281
-1.01319
-1.01141
-1.00698
-1.00229
-1.00302
-1.03035
-1.02892
-1.02747
-1.0253
-1.02161
-1.01585
-1.00818
-0.999314
-0.992613
-0.992705
-1.05577
-1.05378
-1.0505
-1.04549
-1.03846
-1.02944
-1.01915
-1.00917
-1.00272
-1.00316
444.286
445.29
447.155
450.049
454.02
458.976
464.589
470.198
474.839
477.698
393.778
394.664
396.337
398.988
402.723
407.504
413.011
418.515
422.975
425.887
341.937
342.559
343.777
345.854
349.005
353.334
358.636
364.229
369.006
372.006
289.053
289.195
289.569
290.533
292.442
295.581
299.867
304.671
308.988
312.404
235.529
234.879
233.842
232.908
232.583
233.315
235.219
237.959
241.203
244.744
182.046
180.151
176.971
173.221
169.478
166.083
163.198
161.41
161.906
163.928
129.51
125.858
119.846
112.449
104.259
95.5841
86.3689
77.064
71.2439
67.2902
80.449
74.0616
63.3339
50.9526
39.7105
29.2307
19.6461
12.8316
10.0712
7.35061
39.0396
27.8719
14.8608
7.89979
4.24673
1.5005
-0.171573
-0.366456
-0.39521
-0.418306
10.5064
1.65351
-0.224524
-0.595729
-0.6841
-0.718132
-0.708858
-0.73444
-0.774835
-0.778383
1.81983
-0.842789
-0.646231
-0.722389
-0.78782
-0.788335
-0.795789
-0.840499
-0.906776
-0.941299
-0.817265
-0.844328
-0.788527
-0.833721
-0.958921
-1.01907
-1.03962
-1.0618
-1.06582
-1.0574
-0.949769
-0.943418
-0.912788
-0.971838
-1.1231
-1.2213
-1.26256
-1.24724
-1.18954
-1.16418
-0.955967
-0.984277
-0.977208
-1.01799
-1.1406
-1.29186
-1.31815
-1.2799
-1.23836
-1.22715
-0.975066
-0.987741
-0.993641
-1.02638
-1.10013
-1.18966
-1.22288
-1.19885
-1.18476
-1.1991
-0.986736
-0.991163
-0.997795
-1.0192
-1.05438
-1.09454
-1.11335
-1.11323
-1.11733
-1.1356
-0.998106
-0.999408
-1.00217
-1.00951
-1.01991
-1.0322
-1.03652
-1.03381
-1.03211
-1.04021
-1.01254
-1.01182
-1.0106
-1.00943
-1.00727
-1.0021
-0.991869
-0.978776
-0.965738
-0.964293
-1.03097
-1.02878
-1.02452
-1.01794
-1.00842
-0.995196
-0.977735
-0.958301
-0.942139
-0.941516
-1.05343
-1.05039
-1.04438
-1.03497
-1.02188
-1.00508
-0.985508
-0.965069
-0.950968
-0.948722
446.047
447.38
449.81
453.626
458.971
465.824
473.835
482.066
488.977
493.444
395.361
396.561
398.787
402.358
407.5
414.276
422.278
430.531
437.801
443.162
343.159
344.062
345.778
348.728
353.329
359.88
368.154
377.082
384.847
390.998
289.702
290.032
290.726
292.364
295.577
300.889
308.195
316.919
325.201
332.553
235.384
234.726
233.625
232.877
233.307
235.674
240.313
246.904
255.028
264.136
180.941
178.691
174.843
170.418
166.055
161.968
158.415
156.501
159.115
165.794
127.498
122.935
115.432
106.206
95.5317
82.2289
66.3945
48.5727
31.7895
21.489
77.9612
69.6375
55.8179
42.2239
29.1691
15.6483
9.26361
3.49323
1.5816
1.08337
36.2683
23.9704
10.8928
4.91835
1.3353
-0.304474
-0.319462
-0.387742
-0.26873
-0.276615
8.602
0.851529
-0.536954
-0.70496
-0.774522
-0.782448
-0.786852
-0.835929
-0.827614
-0.807927
1.03493
-0.876482
-0.738744
-0.794518
-0.838527
-0.820707
-0.823673
-0.905384
-1.05813
-1.23564
-0.82853
-0.893977
-0.894036
-0.983678
-1.04944
-1.02358
-1.01885
-1.09999
-1.16014
-1.19334
-0.973917
-0.991881
-1.03485
-1.18212
-1.26647
-1.25206
-1.25606
-1.282
-1.26012
-1.25232
-0.983538
-1.02273
-1.03892
-1.14994
-1.30642
-1.34551
-1.3321
-1.33827
-1.36042
-1.39799
-0.99114
-1.01361
-1.02632
-1.07867
-1.16958
-1.25087
-1.27653
-1.30141
-1.36946
-1.44565
-0.998207
-1.00697
-1.01577
-1.04035
-1.07959
-1.12276
-1.14757
-1.17836
-1.24878
-1.32377
-1.00521
-1.00769
-1.00916
-1.01485
-1.02179
-1.03047
-1.03002
-1.0334
-1.06699
-1.10481
-1.01524
-1.01404
-1.00972
-1.00346
-0.992923
-0.975588
-0.950974
-0.924913
-0.916886
-0.914235
-1.02991
-1.02652
-1.01885
-1.00621
-0.987748
-0.962253
-0.927345
-0.888025
-0.862253
-0.85392
-1.04972
-1.04532
-1.0358
-1.02044
-0.998517
-0.969405
-0.933689
-0.896245
-0.869706
-0.863132
447.91
449.63
452.707
457.588
464.585
473.844
485.131
496.998
506.98
512.901
397.062
398.638
401.511
406.164
413.006
422.291
433.944
446.659
458.098
466.103
344.538
345.795
348.122
352.161
358.629
368.148
380.478
394.637
407.686
418.028
290.544
291.144
292.292
294.868
299.859
308.184
320.162
335.193
350.441
363.574
235.463
234.877
233.841
233.548
235.218
240.312
250.592
263.838
277.82
295.17
180.116
177.567
173.126
168.132
163.184
158.426
153.47
149.564
150.168
163.302
125.764
120.291
111.482
100.472
86.283
66.1017
39.8114
16.541
11.3959
11.2115
75.5459
65.5223
50.4611
35.3107
19.3785
9.25612
2.51393
1.37801
2.15587
1.7587
33.9358
21.1464
8.48711
2.79738
-0.336729
-0.306049
-0.00677722
0.101295
0.0751248
-0.0908771
7.10315
0.0489349
-0.672001
-0.770277
-0.831272
-0.850602
-0.671898
-0.652893
-0.829448
-0.82458
0.120515
-0.908409
-0.772286
-0.844398
-0.904669
-0.880162
-0.943347
-1.24618
-1.37966
-1.38832
-0.899064
-0.953135
-0.962425
-1.04181
-1.07565
-1.09098
-1.18389
-1.29643
-1.33591
-1.40149
-0.994214
-1.03149
-1.08903
-1.20506
-1.27396
-1.29874
-1.3787
-1.49079
-1.48328
-1.48546
-1.00669
-1.05353
-1.07041
-1.1762
-1.28776
-1.33748
-1.41414
-1.56771
-1.72612
-1.8052
-1.00773
-1.03981
-1.0466
-1.0958
-1.17659
-1.25928
-1.35832
-1.54681
-1.79375
-1.98941
-1.00845
-1.0212
-1.02583
-1.04731
-1.08298
-1.12856
-1.1946
-1.348
-1.58121
-1.81005
-1.00999
-1.0128
-1.0107
-1.01143
-1.01274
-1.01142
-1.01316
-1.0607
-1.19262
-1.3164
-1.0156
-1.01352
-1.00439
-0.990869
-0.967832
-0.932126
-0.882625
-0.837386
-0.825261
-0.819519
-1.02755
-1.02269
-1.0111
-0.98962
-0.957662
-0.909944
-0.842457
-0.768957
-0.718808
-0.69567
-1.04536
-1.03916
-1.02531
-1.00228
-0.968064
-0.92016
-0.8581
-0.789985
-0.741427
-0.718682
449.661
451.777
455.508
461.474
470.198
482.103
497.032
513.22
527.051
538.437
398.683
400.649
404.189
409.953
418.515
430.626
446.693
465.154
482.138
496.177
345.902
347.54
350.529
355.75
364.215
377.018
394.629
415.891
436.876
455.848
291.458
292.379
294.076
297.734
304.655
316.871
335.006
359.323
386.249
411.502
235.722
235.281
234.462
234.821
237.97
246.78
262.745
285.163
315.629
350.025
179.624
176.828
171.921
166.479
161.458
156.712
150.776
140.662
161.506
209.13
124.393
118.103
108.156
95.3906
76.8628
47.6063
16.3884
9.39056
19.0384
32.9033
73.3817
61.9704
46.2673
30.3241
12.6775
3.37696
1.50034
1.69702
3.17667
4.10662
31.7234
18.1854
6.78138
1.28621
-0.480474
-0.317286
0.219763
0.219429
0.149448
0.0423892
5.31836
-0.465768
-0.653299
-0.749102
-0.864653
-0.841097
-0.560552
-0.638514
-0.835804
-0.779551
-0.220433
-0.916368
-0.771836
-0.886915
-1.03523
-1.13179
-1.30109
-1.33008
-1.34173
-1.46723
-0.93747
-0.969772
-0.953919
-1.02459
-1.12538
-1.23949
-1.43288
-1.52289
-1.49096
-1.65654
-0.998795
-1.03024
-1.05425
-1.12645
-1.23476
-1.36871
-1.58045
-1.68381
-1.69882
-1.74751
-1.01799
-1.05951
-1.06091
-1.12421
-1.22137
-1.36277
-1.61885
-1.85296
-2.03656
-2.09758
-1.02286
-1.05765
-1.05038
-1.08806
-1.15566
-1.29106
-1.54796
-1.95418
-2.23048
-2.53419
-1.01728
-1.03501
-1.02944
-1.04393
-1.07407
-1.14607
-1.307
-1.62527
-2.08747
-2.57878
-1.01289
-1.0163
-1.00812
-1.00075
-0.991273
-0.985323
-1.00485
-1.05634
-1.29083
-1.5649
-1.01478
-1.01146
-0.996513
-0.973087
-0.933235
-0.871495
-0.780822
-0.641899
-0.490012
-0.467461
-1.0247
-1.01765
-0.99952
-0.969249
-0.920064
-0.839554
-0.720921
-0.560477
-0.363256
-0.241526
-1.04082
-1.03272
-1.01408
-0.982434
-0.933111
-0.8599
-0.758216
-0.634528
-0.503545
-0.424403
451.047
453.497
457.791
464.676
474.846
489.038
507.045
527.194
548.2
562.634
399.98
402.276
406.4
413.093
422.979
437.878
458.163
482.199
509.869
535.363
347.019
348.994
352.591
358.823
369
384.869
407.675
436.878
471.869
506.322
292.256
293.484
295.721
300.301
308.973
325.132
350.189
386.014
430.742
475.344
236.054
235.787
235.279
236.278
241.223
254.811
277.273
315.535
368.94
426.138
179.427
176.465
171.24
165.625
162.124
159.678
150.445
164.945
223.181
299.002
123.534
116.588
105.698
91.903
70.9699
31.5574
12.4887
14.3117
49.9632
107.171
71.9693
59.7635
43.1223
26.472
9.71558
1.58224
2.25105
2.31759
3.85196
14.0318
30.339
17.1273
5.43201
0.401697
-0.423251
-0.170227
0.239585
0.193054
-0.0162642
1.42434
3.80983
-0.651739
-0.640604
-0.741815
-0.876919
-0.739138
-0.657044
-0.653988
-0.676195
-0.0352156
-0.265458
-0.916677
-0.757701
-0.944834
-1.19281
-1.2667
-1.40906
-1.22569
-1.15527
-1.46942
-0.945082
-0.95549
-0.913353
-1.02173
-1.21269
-1.36298
-1.61842
-1.50726
-1.33853
-2.22928
-0.993322
-1.00892
-1.00636
-1.09138
-1.23702
-1.44116
-1.76178
-1.78801
-1.52582
-2.29196
-1.02183
-1.05031
-1.04999
-1.10754
-1.22954
-1.45187
-1.81602
-2.09184
-2.02639
-2.57179
-1.03405
-1.0632
-1.05172
-1.0925
-1.1863
-1.39928
-1.75297
-2.2204
-2.64913
-3.4749
-1.02499
-1.04562
-1.03231
-1.04491
-1.08495
-1.21549
-1.45952
-1.96397
-2.62365
-3.65919
-1.01534
-1.02018
-1.00642
-0.991825
-0.974334
-0.982849
-1.03538
-0.947465
-0.838823
-1.70547
-1.01417
-1.00939
-0.989634
-0.956494
-0.901555
-0.815553
-0.657297
-0.257221
0.315187
0.441581
-1.0218
-1.01454
-0.992203
-0.952635
-0.88298
-0.769068
-0.577648
-0.214633
0.358568
0.738279
-1.03756
-1.02822
-1.00582
-0.96625
-0.901895
-0.802734
-0.655225
-0.434282
-0.139805
0.10749
451.833
454.483
459.132
466.569
477.681
493.5
512.977
539.43
563.182
572.435
400.721
403.219
407.702
414.929
425.841
443.196
466.163
497.059
536.588
559.554
347.662
349.859
353.81
360.561
371.93
391.057
418.126
456.832
507.553
542.975
292.731
294.176
296.718
301.785
312.273
332.531
363.548
412.367
476.256
520.379
236.29
236.186
235.867
237.359
244.657
263.768
294.75
350.934
427.29
480.415
179.397
176.424
171.087
165.886
164.61
168.242
168.265
217.894
304.173
375.34
123.158
115.893
104.608
90.6158
67.519
23.6348
13.1341
39.2668
113.668
200.752
71.342
58.9394
41.7189
24.7625
7.63288
1.18976
2.05628
4.01168
17.985
65.1522
29.8504
17.2802
4.72659
0.0537532
-0.286712
-0.0769744
0.141986
0.235989
2.61837
12.7246
3.19304
-0.692365
-0.655297
-0.748877
-0.823954
-0.669289
-0.529832
-0.429689
0.455438
2.92726
-0.316948
-0.925008
-0.771608
-1.01881
-1.28667
-1.31714
-1.20333
-1.01421
-1.07119
4.34339
-0.945271
-0.946271
-0.935567
-1.13612
-1.47957
-1.68763
-1.70606
-1.45337
-1.80696
6.35269
-0.97894
-0.992373
-1.00564
-1.13261
-1.34271
-1.61359
-1.87898
-1.73891
-2.04261
3.96736
-1.01625
-1.04219
-1.05385
-1.1295
-1.27003
-1.54968
-1.93675
-1.98855
-2.30744
-1.35172
-1.03743
-1.05756
-1.06101
-1.11555
-1.22788
-1.4882
-1.88641
-2.23357
-2.43222
-3.59845
-1.0291
-1.04931
-1.0359
-1.05081
-1.10833
-1.2966
-1.61395
-2.12203
-2.35134
-3.04869
-1.01762
-1.02274
-1.00674
-0.988307
-0.969023
-1.00355
-1.06985
-0.882153
-0.497897
-0.480695
-1.01506
-1.00895
-0.987182
-0.949519
-0.885478
-0.783984
-0.576023
-0.0234685
0.802935
1.67029
-1.02154
-1.01627
-0.990082
-0.944358
-0.864426
-0.73192
-0.483537
0.0360483
0.859772
1.6105
-1.03729
-1.02768
-1.00294
-0.959143
-0.887002
-0.774977
-0.594735
-0.287966
0.181661
0.662156
451.872
454.526
459.183
466.631
477.783
493.665
513.131
539.819
563.542
571.83
400.759
403.262
407.753
414.99
425.948
443.327
466.331
497.631
537.407
558.58
347.701
349.903
353.865
360.626
372.052
391.253
418.438
457.494
508.548
541.943
292.77
294.221
296.773
301.85
312.355
332.755
364.082
413.291
477.597
520.226
236.33
236.235
235.923
237.418
244.663
263.889
295.253
351.611
428.155
481.191
179.443
176.481
171.145
165.894
164.516
167.94
167.188
215.241
303.244
373.47
123.203
115.955
104.652
90.6499
67.709
23.3609
12.3093
35.8078
109.214
196.438
71.3715
58.9756
41.7886
25.0951
7.5951
1.06693
2.04347
3.71472
15.1896
63.2601
29.9033
17.3435
4.77094
0.0913601
-0.341595
-0.125625
0.138774
0.0506066
2.02232
12.5914
3.24233
-0.680486
-0.640587
-0.720619
-0.837392
-0.703706
-0.582802
-0.687004
-0.473582
6.81619
-0.321408
-0.913045
-0.741467
-0.962243
-1.2137
-1.27354
-1.35411
-1.22836
-1.72492
2.977
-0.94288
-0.941365
-0.91077
-1.07699
-1.3961
-1.64473
-1.8574
-1.65081
-2.04018
0.426558
-0.978519
-0.991671
-0.99545
-1.1088
-1.33515
-1.67485
-2.09422
-2.06434
-2.30344
-0.626044
-1.0169
-1.04233
-1.05675
-1.13643
-1.28343
-1.57527
-2.0567
-2.43245
-3.14155
-1.91138
-1.03889
-1.05876
-1.06405
-1.12336
-1.23959
-1.48323
-1.91918
-2.57929
-4.24873
-3.60419
-1.03118
-1.05175
-1.04132
-1.06229
-1.11789
-1.27974
-1.59471
-2.28178
-3.94281
-3.79708
-1.02063
-1.02697
-1.01355
-1.0017
-0.991201
-1.01359
-1.07552
-1.08531
-1.08044
-0.595715
-1.01849
-1.01401
-0.994604
-0.961628
-0.908853
-0.826556
-0.65272
-0.207409
0.475623
1.51288
-1.02464
-1.01923
-0.995406
-0.955198
-0.884438
-0.771005
-0.564913
-0.151481
0.539761
1.35529
-1.04039
-1.03117
-1.00795
-0.967262
-0.901055
-0.800184
-0.638935
-0.373729
0.0155877
0.484193
451.159
453.62
457.933
464.849
475.073
489.308
507.296
527.345
548.55
562.706
400.091
402.399
406.543
413.266
423.187
438.171
458.482
482.484
510.393
535.4
347.13
349.119
352.739
359.008
369.243
385.224
408.241
437.589
473.046
507.34
292.365
293.607
295.867
300.478
309.219
325.582
350.949
387.064
432.616
477.455
236.163
235.908
235.416
236.411
241.328
254.908
277.438
315.084
369.037
427.425
179.541
176.597
171.381
165.677
161.879
158.822
148.002
158.04
217.362
295.349
123.647
116.719
105.825
91.9302
70.7086
30.1725
11.5227
13.0219
45.5762
102.533
72.0619
59.852
43.1841
26.5326
9.44814
1.31859
1.92134
2.22631
4.07483
13.6366
30.5105
17.257
5.52139
0.442212
-0.48097
-0.276454
0.103457
0.0690858
0.156341
1.64607
4.02992
-0.62105
-0.619994
-0.665243
-0.801361
-0.752992
-0.627366
-0.643805
-0.694023
0.212772
-0.304962
-0.905611
-0.72764
-0.856131
-0.994852
-1.06234
-1.22883
-1.14278
-1.26673
-0.984749
-0.944739
-0.947699
-0.894211
-0.994212
-1.19965
-1.43098
-1.61666
-1.64057
-1.69548
-1.78915
-0.991474
-1.00363
-0.991054
-1.0664
-1.26665
-1.554
-1.88853
-2.12526
-2.21563
-2.47636
-1.02352
-1.04926
-1.04758
-1.11061
-1.24579
-1.49094
-1.89078
-2.43109
-2.85562
-3.33857
-1.03769
-1.06566
-1.05733
-1.10646
-1.20319
-1.39241
-1.76092
-2.46378
-3.34064
-4.13102
-1.03076
-1.05231
-1.04298
-1.06448
-1.11233
-1.22454
-1.48061
-2.04456
-3.04315
-3.72883
-1.02322
-1.0299
-1.02083
-1.01657
-1.01572
-1.02863
-1.08149
-1.25325
-1.53179
-1.3632
-1.02331
-1.02054
-1.00605
-0.983591
-0.9462
-0.888822
-0.790672
-0.597435
-0.286878
0.292945
-1.03104
-1.02483
-1.00618
-0.974676
-0.923024
-0.840756
-0.710357
-0.487375
-0.132548
0.392132
-1.04641
-1.0382
-1.01882
-0.985606
-0.933138
-0.855077
-0.742333
-0.574163
-0.340634
-0.0344171
449.834
451.965
455.724
461.73
470.518
482.5
497.443
513.619
527.465
538.262
398.854
400.836
404.403
410.21
418.836
431.107
447.173
465.707
482.876
496.565
346.069
347.723
350.74
356.005
364.531
377.333
395.259
416.777
438.268
456.936
291.617
292.553
294.273
297.968
304.957
317.349
335.85
360.648
388.573
413.969
235.872
235.443
234.632
234.976
238.06
246.809
263.077
285.456
316.499
351.208
179.77
176.996
172.087
166.533
161.191
155.62
148.075
135.415
155.565
200.952
124.533
118.28
108.321
95.4376
76.649
46.3058
15.0809
8.681
16.9346
30.5849
73.4737
62.1382
46.3985
30.2776
12.6193
2.93064
1.1267
1.51319
3.08596
4.04686
31.8385
18.3536
6.97224
1.3375
-0.458746
-0.435505
0.0493085
0.152939
0.227792
0.227297
5.39129
-0.436437
-0.619209
-0.664368
-0.74374
-0.759271
-0.443171
-0.502972
-0.761418
-0.624887
-0.129361
-0.8977
-0.743281
-0.806931
-0.856684
-0.895748
-0.923722
-0.994832
-1.23911
-1.23097
-0.933073
-0.954791
-0.911651
-0.956248
-1.0411
-1.16251
-1.27234
-1.40212
-1.52519
-1.56724
-1.00055
-1.01675
-1.00761
-1.05449
-1.19406
-1.37649
-1.55218
-1.74412
-1.81257
-1.74147
-1.01991
-1.05483
-1.04421
-1.0965
-1.21052
-1.38581
-1.58963
-1.8836
-2.10684
-2.08093
-1.02837
-1.0609
-1.05196
-1.09231
-1.17217
-1.30659
-1.51761
-1.87504
-2.33318
-2.55162
-1.02609
-1.04408
-1.04167
-1.06311
-1.10741
-1.18236
-1.32782
-1.63088
-2.12805
-2.52547
-1.02443
-1.0297
-1.02655
-1.02938
-1.0374
-1.05064
-1.08284
-1.19202
-1.43737
-1.64835
-1.02787
-1.02677
-1.01794
-1.00525
-0.984826
-0.950007
-0.902128
-0.84167
-0.777082
-0.690727
-1.03774
-1.03273
-1.01978
-0.998202
-0.964369
-0.914208
-0.837315
-0.738664
-0.624253
-0.461475
-1.05394
-1.04757
-1.0329
-1.00844
-0.971216
-0.917808
-0.844847
-0.757194
-0.654684
-0.547408
448.132
449.869
452.978
457.907
464.971
474.31
485.667
497.616
507.709
513.731
397.279
398.873
401.779
406.481
413.395
422.766
434.532
447.386
458.97
467.143
344.746
346.022
348.38
352.47
359.02
368.659
381.185
395.541
409.033
419.581
290.739
291.355
292.529
295.146
300.213
308.694
321.097
336.535
352.433
366.062
235.641
235.069
234.042
233.741
235.376
240.423
250.791
265.304
279.547
296.968
180.282
177.757
173.317
168.23
163.032
157.808
151.877
146.357
149.814
158.116
125.915
120.493
111.686
100.526
86.0045
65.3556
38.3887
16.3725
11.0148
10.8622
75.6466
65.7207
50.7022
35.228
18.6014
8.58941
2.115
1.34768
2.2187
1.93191
33.995
21.1675
8.76818
2.82931
-0.322209
-0.41347
-0.103225
0.104774
0.144387
0.0855868
7.29444
0.136622
-0.630377
-0.719939
-0.751711
-0.726782
-0.520484
-0.268699
-0.562227
-0.631907
0.0914122
-0.877393
-0.744779
-0.79391
-0.84299
-0.843157
-0.761582
-0.813209
-0.968933
-1.02686
-0.933249
-0.953864
-0.91148
-0.951988
-1.00521
-1.0676
-1.0493
-1.08795
-1.20903
-1.17979
-1.0001
-1.01894
-1.00885
-1.08399
-1.21598
-1.31944
-1.34671
-1.40861
-1.50913
-1.47807
-1.00544
-1.04645
-1.03737
-1.10154
-1.2477
-1.37584
-1.4356
-1.52702
-1.65374
-1.71951
-1.01362
-1.04166
-1.04209
-1.08496
-1.17229
-1.29133
-1.39746
-1.51358
-1.667
-1.77787
-1.01927
-1.03091
-1.03631
-1.06116
-1.1064
-1.17117
-1.24994
-1.35184
-1.50544
-1.65331
-1.02406
-1.028
-1.02942
-1.0378
-1.0526
-1.07062
-1.09226
-1.12523
-1.2025
-1.31034
-1.03158
-1.0313
-1.02718
-1.02227
-1.01451
-1.00072
-0.977411
-0.949684
-0.937913
-0.949851
-1.04392
-1.04055
-1.0325
-1.0194
-0.999512
-0.970447
-0.930042
-0.880446
-0.839525
-0.812085
-1.06163
-1.05712
-1.04694
-1.03047
-1.00618
-0.972707
-0.929309
-0.880492
-0.839667
-0.811284
446.303
447.655
450.12
453.987
459.404
466.344
474.456
482.81
489.798
494.347
395.61
396.829
399.09
402.714
407.932
414.802
422.926
431.452
438.707
444.157
343.394
344.317
346.066
349.069
353.75
360.414
368.822
377.706
385.965
392.297
289.916
290.264
290.987
292.668
295.951
301.385
308.906
317.942
326.634
334.267
235.575
234.932
233.847
233.105
233.538
235.924
240.655
247.605
256.235
265.805
181.111
178.887
175.05
170.574
166.087
161.805
157.914
155.589
158.184
163.868
127.645
123.138
115.667
106.323
95.4449
81.7136
65.6195
48.0154
31.2838
20.7408
78.0708
69.8616
56.1601
42.2862
29.1037
15.1403
8.8959
3.55003
1.64285
1.23536
36.3584
24.2169
11.203
4.99712
1.30385
-0.298132
-0.273452
-0.217558
-0.165345
-0.1592
8.81453
1.01532
-0.486905
-0.666337
-0.757642
-0.72382
-0.59707
-0.528077
-0.576988
-0.632804
0.932038
-0.868222
-0.722736
-0.765161
-0.849712
-0.829167
-0.680992
-0.650165
-0.74802
-0.853321
-0.904381
-0.937274
-0.877585
-0.906165
-0.978762
-1.04508
-1.00767
-1.01293
-1.07835
-1.08181
-0.996287
-1.00262
-0.980359
-1.0463
-1.17756
-1.25508
-1.25678
-1.28235
-1.32151
-1.27331
-0.984487
-1.02035
-1.01522
-1.06283
-1.2241
-1.34879
-1.36608
-1.38805
-1.39637
-1.36925
-1.00559
-1.01877
-1.0238
-1.06062
-1.14444
-1.26608
-1.3389
-1.36526
-1.36291
-1.35035
-1.01265
-1.01885
-1.02616
-1.05007
-1.09133
-1.15396
-1.21092
-1.23948
-1.25629
-1.27414
-1.02159
-1.02432
-1.02775
-1.03809
-1.05404
-1.07607
-1.09739
-1.10688
-1.10994
-1.12649
-1.03331
-1.03319
-1.0323
-1.0324
-1.03214
-1.03021
-1.0235
-1.00951
-0.993024
-0.992508
-1.04874
-1.04679
-1.04237
-1.03549
-1.02536
-1.01086
-0.990759
-0.965811
-0.9435
-0.934558
-1.06842
-1.06543
-1.05892
-1.04864
-1.03399
-1.01451
-0.990361
-0.963891
-0.941063
-0.931752
444.565
445.587
447.488
450.435
454.477
459.519
465.232
470.944
475.651
478.616
394.047
394.952
396.66
399.365
403.173
408.047
413.665
419.3
423.827
426.89
342.187
342.828
344.081
346.21
349.435
353.863
359.287
365.001
370.012
373.194
289.275
289.435
289.84
290.849
292.824
296.059
300.486
305.464
310.011
313.689
235.716
235.084
234.072
233.16
232.863
233.641
235.635
238.495
241.979
245.785
182.2
180.335
177.179
173.418
169.633
166.197
163.256
161.409
161.981
163.854
129.629
126.063
120.085
112.61
104.284
95.4092
86.089
76.9259
71.223
67.4543
80.5171
74.2521
63.6797
51.0368
39.5642
28.7127
19.4296
12.975
10.0588
7.36594
39.1291
28.2352
15.6329
7.94968
4.17224
1.41765
-0.048049
-0.205511
-0.310468
-0.371383
10.6944
2.20629
-0.254065
-0.598658
-0.698559
-0.733047
-0.651817
-0.593503
-0.621212
-0.66189
1.70909
-0.875824
-0.694386
-0.727826
-0.830175
-0.87185
-0.800167
-0.744496
-0.762957
-0.792085
-0.914142
-0.928727
-0.849614
-0.828111
-0.917188
-1.02085
-1.03012
-1.04957
-1.05698
-1.03607
-0.992782
-0.984818
-0.93809
-0.916928
-0.980985
-1.13083
-1.21221
-1.26441
-1.27112
-1.21016
-0.975384
-0.995079
-0.979453
-0.981421
-1.04392
-1.18632
-1.29591
-1.33696
-1.3213
-1.23966
-0.993841
-0.999165
-0.998652
-1.01494
-1.0658
-1.15051
-1.24509
-1.27804
-1.26906
-1.23004
-1.00356
-1.00592
-1.0107
-1.02806
-1.05867
-1.10599
-1.1577
-1.17692
-1.17618
-1.16572
-1.01649
-1.0177
-1.02151
-1.03106
-1.04376
-1.0647
-1.08474
-1.09376
-1.09267
-1.08953
-1.03251
-1.03267
-1.03341
-1.0357
-1.03875
-1.04229
-1.04381
-1.04005
-1.03158
-1.02706
-1.0516
-1.05049
-1.04856
-1.0458
-1.04161
-1.03574
-1.02729
-1.01603
-1.00249
-0.998079
-1.07374
-1.07186
-1.0681
-1.0623
-1.05417
-1.04365
-1.03104
-1.01802
-1.00464
-0.999932
443.072
443.842
445.294
447.521
450.521
454.189
458.255
462.255
465.575
467.622
392.725
393.394
394.676
396.682
399.449
402.913
406.83
410.745
414.018
416.033
341.216
341.663
342.561
344.064
346.29
349.26
352.811
356.541
359.786
361.747
288.849
288.908
289.135
289.732
290.92
292.842
295.463
298.479
301.233
303.022
236.023
235.477
234.638
233.774
233.22
233.256
234.011
235.394
236.99
238.344
183.4
181.943
179.516
176.524
173.45
170.683
168.437
166.828
165.997
166.19
131.694
129.014
124.592
118.897
112.583
106.288
100.483
95.447
92.1067
90.876
82.7984
78.3713
71.0733
61.0753
51.0211
42.0235
34.871
29.9219
26.4608
25.245
42.3822
33.4136
21.9087
12.5639
7.98092
4.98766
3.00302
1.58639
0.69298
0.313809
13.1243
4.32299
0.0428508
-0.503813
-0.591013
-0.696986
-0.715777
-0.653214
-0.606932
-0.58564
1.57193
-0.780766
-0.690452
-0.668747
-0.736773
-0.86262
-0.846836
-0.814396
-0.79047
-0.774184
-0.927375
-0.918241
-0.861448
-0.787708
-0.805719
-0.953621
-1.01159
-1.02033
-0.997081
-0.954696
-1.00466
-0.986168
-0.92759
-0.851346
-0.816088
-0.944918
-1.14158
-1.21747
-1.1838
-1.10178
-0.9744
-0.981918
-0.960853
-0.934919
-0.918116
-0.981841
-1.14931
-1.23733
-1.21014
-1.13705
-0.9868
-0.984416
-0.978163
-0.981275
-0.998873
-1.04108
-1.11796
-1.16524
-1.16372
-1.13583
-0.993943
-0.991287
-0.993715
-1.00577
-1.02607
-1.05547
-1.08462
-1.10873
-1.11574