/*--------------------------------*- C++ -*----------------------------------*\
| =========                 |                                                 |
| \\      /  F ield         | OpenFOAM: The Open Source CFD Toolbox           |
|  \\    /   O peration     | Version:  2312                                  |
|   \\  /    A nd           | Website:  www.openfoam.com                      |
|    \\/     M anipulation  |                                                 |
\*---------------------------------------------------------------------------*/
FoamFile
{
    version     2.0;
    format      ascii;
    arch        "LSB;label=32;scalar=64";
    class       volScalarField;
    location    "1.48";
    object      alpha.water;
}
// * * * * * * * * * * * * * * * * * * * * * * * * * * * * * * * * * * * * * //

dimensions      [0 0 0 0 0 0 0];

internalField   nonuniform List<scalar> 
8000
(
1
1
1
1
1
1
1
1
1
1
1
1
1
1
1
1
1
1
1
1
1
1
1
1
1
1
1
1
1
1
1
1
1
1
1
1
1
1
1
1
1
1
1
1
1
1
1
1
1
1
1
1
1
1
1
1
1
1
1
1
1
1
1
1
1
1
1
1
1
1
0.915738
0.9256
0.933898
0.940891
0.936541
0.923145
0.91633
0.924226
0.934715
0.940104
0.301816
0.351784
0.43017
0.477475
0.482641
0.466608
0.452832
0.437194
0.412298
0.371268
0.00248691
0.00319629
0.00843312
0.013555
0.0133669
0.00999156
0.00684156
0.0038823
0.00144717
0.000253269
0.000471695
0.000656243
0.000524788
0.000503319
0.000393946
0.000221354
0.000100905
6.03413e-05
6.75745e-05
4.63061e-05
0.000230266
0.000460973
0.000144198
7.90418e-05
5.50296e-05
3.23574e-05
2.24871e-05
3.19531e-05
0.000103022
0.000258611
0.000204098
0.00049871
0.000121653
2.97495e-05
1.89821e-05
1.7942e-05
1.92955e-05
6.66039e-05
0.000156761
0.000158949
0.000183137
0.000480108
0.000396386
2.35198e-05
1.5243e-05
1.72093e-05
2.02044e-05
0.000112123
3.92626e-05
3.46613e-06
0.000184665
0.000494053
0.000498358
0.000162989
1.56272e-05
2.48234e-05
0.000119974
1.94815e-06
1.87329e-06
1.77857e-06
0.000385061
0.000499554
0.000498817
0.000139506
1.90608e-05
5.32614e-05
2.39655e-05
1.87329e-06
1.77857e-06
1.73865e-06
0.000500071
0.000500412
0.000455318
8.1674e-05
1.12677e-05
1.04921e-05
1.02731e-05
1.02291e-05
4.22688e-06
1.71125e-06
0.000501491
0.000500071
0.000117037
6.13487e-05
1.55818e-05
1.16598e-05
4.68179e-05
5.94565e-05
2.09035e-06
1.74843e-06
0.000501491
0.000499791
0.000105068
7.14881e-05
6.52329e-05
2.09217e-05
9.89098e-05
9.92231e-05
3.7759e-05
2.34024e-06
0.000501491
0.00035542
0.000110236
6.04127e-05
1.37002e-05
1.64862e-05
9.80799e-05
9.68714e-05
4.78703e-05
2.74384e-05
1
1
1
1
1
1
1
1
1
1
1
1
1
1
1
1
1
1
1
1
1
1
1
1
1
1
1
1
1
1
1
0.999999
1
1
1
1
1
1
1
1
1
0.999998
1
1
1
1
1
1
1
1
1
1
1
1
1
1
1
1
1
1
1
1
1
1
1
1
1
1
1
1
0.920421
0.926126
0.938012
0.942744
0.935099
0.924279
0.921925
0.929158
0.939826
0.946232
0.332746
0.370214
0.412041
0.426543
0.403812
0.373221
0.352829
0.33693
0.321055
0.296286
0.003181
0.0040415
0.00533614
0.00533201
0.00324888
0.00148576
0.000543306
0.000238941
3.48345e-06
5.475e-06
0.000513091
0.000487512
0.000516094
0.000491868
0.000292149
0.00010954
3.98681e-05
2.54212e-05
2.26397e-05
1.0327e-05
0.00014126
0.000151408
0.000133133
9.31559e-05
5.96955e-05
2.50397e-05
2.02908e-05
3.45368e-05
6.63138e-05
7.57472e-05
0.000108731
0.00013141
8.42274e-05
2.2078e-05
1.76058e-05
1.75654e-05
1.89373e-05
3.65719e-05
3.88398e-05
1.5013e-05
0.000183877
0.000460692
0.000113195
1.15777e-05
1.34124e-05
1.57111e-05
6.95322e-05
0.000149877
2.20108e-05
2.16643e-05
0.000345467
0.000492669
0.000441932
4.568e-05
1.46044e-05
3.47339e-05
0.000170998
8.5403e-05
2.24217e-05
2.63283e-05
0.000225704
0.000497806
0.000430995
3.87826e-05
3.44945e-05
0.000170576
0.000166547
4.24525e-05
2.02137e-05
5.40431e-06
0.000153941
0.000175655
0.000161272
3.3457e-05
3.41313e-05
0.000124612
9.84277e-05
5.23472e-05
1.54346e-06
1.62369e-06
0.000194552
8.43571e-05
6.67251e-05
1.74236e-05
1.54901e-05
1.39202e-05
7.24556e-05
8.1088e-05
1.11303e-05
1.71125e-06
0.000501491
0.000144084
3.26042e-05
6.67615e-05
2.57722e-05
4.2739e-05
9.91535e-05
8.14971e-05
1.60769e-06
1.72052e-06
0.000498672
0.000163971
5.49954e-05
6.39065e-05
8.73525e-06
1.4371e-05
8.82127e-05
9.25731e-05
1.68743e-05
3.65295e-06
1
1
0.999992
0.999983
0.999995
1
1
1
1
1
1
0.999986
0.999925
0.999955
0.999986
1
1
1
1
1
1
0.999967
0.999907
0.99999
1
1
1
1
1
1
1
0.999956
1
1
1
1
1
1
1
1
1
0.999992
0.999992
1
1
1
1
1
1
1
1
1
0.999999
1
1
1
1
1
1
1
1
1
1
1
1
1
1
1
1
1
0.925756
0.924558
0.931529
0.935863
0.935166
0.940187
0.945061
0.948008
0.95145
0.952965
0.368191
0.375688
0.371279
0.352648
0.315132
0.279925
0.255333
0.240808
0.229678
0.215449
0.00397767
0.00377614
0.00242095
0.00121565
0.000589264
0.000198084
2.85124e-06
2.24728e-06
2.9442e-06
3.55096e-06
0.000422878
0.000442706
0.000412705
0.000250639
5.78438e-05
2.96156e-05
1.4488e-05
9.17197e-06
1.40439e-05
6.25326e-06
8.62934e-05
9.36854e-05
8.60313e-05
5.81447e-05
2.42258e-05
2.14716e-05
2.76382e-05
7.1908e-05
0.000146014
0.000102567
5.50335e-05
4.45368e-05
2.26223e-05
1.21985e-05
1.34124e-05
1.75188e-05
8.1632e-05
0.000170443
0.000170385
0.000169281
0.000100962
4.63843e-05
8.03554e-06
5.44518e-06
1.13101e-05
2.2979e-05
0.000170823
0.000170511
0.00017014
0.000169643
0.000288826
0.000312112
8.82442e-05
1.40619e-05
1.35617e-05
0.000131795
0.000170823
0.000171062
0.00017032
0.000147535
0.000338234
0.000377913
0.000147568
1.00945e-05
4.05726e-05
0.000170853
0.000171062
0.000170823
8.44904e-05
2.31941e-05
0.000153772
0.000133476
6.46025e-05
3.49018e-05
0.000168764
0.000170576
0.000170823
6.55338e-05
1.49636e-06
1.76344e-06
7.06452e-06
7.74868e-05
1.40538e-05
3.28764e-05
0.000104601
7.50996e-05
0.00012293
3.95305e-06
1.4503e-06
4.2237e-06
5.79293e-05
9.53017e-05
5.27864e-06
1.52188e-05
8.98974e-06
1.95028e-05
4.07484e-05
1.38176e-05
1.50928e-06
1.24084e-05
0.000491952
7.69532e-05
8.33825e-06
3.5274e-05
8.23044e-06
4.16135e-06
2.298e-05
2.35431e-05
1.93472e-06
1.47392e-05
1
0.999995
0.999944
0.999946
0.99999
1
1
1
1
1
1
0.999979
0.999817
0.999818
0.999933
1
1
1
1
1
1
0.999908
0.999817
0.999826
0.999955
1
1
1
1
1
1
0.99997
0.999818
0.999979
1
1
1
1
1
1
1
1
0.999959
0.999998
1
1
1
1
1
0.999999
1
1
1
1
1
1
1
1
1
1
1
1
1
1
1
1
1
1
1
0.999999
0.92663
0.914925
0.915878
0.928333
0.944852
0.952526
0.949884
0.947281
0.945101
0.940811
0.390333
0.366215
0.317439
0.277518
0.245409
0.223623
0.208969
0.201474
0.19541
0.184414
0.00411859
0.0028115
0.00107449
0.000352462
4.10286e-05
2.86198e-06
2.27332e-06
1.76174e-06
2.05523e-06
2.69078e-06
0.0003135
0.000390488
0.000220177
5.89238e-05
2.31378e-05
1.17144e-05
9.22792e-06
6.45207e-06
1.62008e-05
5.81865e-05
4.75564e-05
6.2133e-05
4.3696e-05
1.6849e-05
0.000108665
9.83838e-05
0.000127924
0.000145061
0.000159351
0.000169281
2.46358e-05
1.44562e-05
7.45237e-06
5.6209e-06
2.4912e-05
8.41055e-05
0.000170505
0.000170505
0.000170443
0.000170385
4.26887e-05
7.31491e-06
3.01703e-06
4.11182e-06
8.9461e-06
0.000126638
0.000170603
0.000170505
0.00017007
0.000169281
0.000139686
8.7393e-06
1.9331e-06
5.23542e-06
1.63767e-05
0.000170853
0.000170929
0.000108533
9.33186e-05
0.000165555
0.000248185
3.31135e-05
2.44138e-05
2.45431e-06
2.26245e-05
0.000170594
0.000148213
5.82033e-05
5.21443e-05
7.64162e-05
0.000111349
3.03066e-05
2.77384e-05
3.92158e-05
0.000144593
0.000170629
0.000104184
9.12703e-06
1.4503e-06
4.49682e-06
5.31928e-06
1.69206e-05
6.91161e-06
9.91688e-05
0.000165527
0.000169929
8.02544e-05
1.4503e-06
1.44428e-06
2.04981e-05
6.21992e-05
3.41569e-05
4.53722e-06
3.06078e-05
5.22268e-05
2.47944e-05
3.10218e-05
3.08981e-06
1.44778e-06
2.22465e-05
0.000486701
2.79228e-05
4.29261e-06
3.48185e-06
2.94612e-06
2.4724e-06
1.62988e-06
1.49004e-06
1.47009e-06
3.00814e-06
1
0.999998
0.999983
0.999984
0.999999
1
1
1
1
1
1
0.999992
0.999827
0.999821
0.999963
1
1
1
1
1
1
0.99999
0.999817
0.999817
0.99994
1
1
1
1
1
1
1
0.999921
0.999883
0.99998
1
1
1
0.999999
0.999999
1
1
0.999989
0.999991
0.999995
1
1
1
0.999995
0.99998
1
1
1
1
1
1
1
1
1
0.999998
1
1
1
1
1
1
1
0.999998
0.999994
0.99999
0.925396
0.904019
0.914718
0.948267
0.957907
0.953133
0.946416
0.937861
0.930293
0.923302
0.396342
0.344578
0.263323
0.22092
0.2068
0.204894
0.208778
0.204401
0.194412
0.181383
0.00336902
0.00151604
0.0003988
1.74415e-06
2.85174e-06
2.55405e-06
1.76175e-06
1.58472e-06
1.63208e-06
1.79351e-06
0.000191664
0.00026729
5.5808e-05
6.84678e-06
1.90454e-05
5.95169e-05
2.10647e-05
2.21275e-06
9.2173e-06
4.37323e-05
1.90594e-05
4.17466e-05
1.66828e-05
2.33517e-05
0.000127888
0.000157682
0.000162784
5.08767e-05
2.2728e-05
6.03837e-05
5.36723e-06
6.74837e-06
3.49031e-06
1.6759e-05
1.94896e-05
0.000133853
0.000166795
8.38441e-05
1.17313e-05
8.57503e-06
2.66306e-06
2.96955e-06
1.89674e-06
3.41514e-06
1.12451e-05
0.000109109
0.000134087
2.89228e-05
1.66517e-06
5.59987e-06
1.4566e-05
1.81184e-06
1.55285e-06
1.93311e-06
9.27719e-06
6.90166e-05
7.28462e-05
1.54562e-06
1.04943e-05
8.26042e-05
4.80082e-05
1.63533e-06
1.58328e-06
2.02061e-06
4.93038e-06
4.90849e-05
1.60668e-05
1.57564e-06
2.0128e-05
0.000134156
2.86418e-05
1.02062e-05
3.65079e-05
1.73005e-05
1.59193e-05
7.19327e-05
8.40695e-06
1.4947e-06
2.05236e-06
1.20315e-05
3.99334e-06
9.27165e-06
4.40821e-05
0.000101475
0.000107761
9.30898e-05
7.8194e-06
1.44277e-06
1.44325e-06
1.44428e-06
4.76756e-05
3.86351e-06
2.27366e-05
8.56799e-05
0.000100513
5.52272e-05
4.94506e-06
1.44778e-06
1.44428e-06
1.44778e-06
0.000431327
2.95524e-06
4.42872e-06
1.85824e-05
2.20829e-05
7.64038e-06
2.22263e-06
1.47882e-06
1.44778e-06
2.30762e-06
1
1
1
1
1
1
1
1
1
1
1
0.999999
0.999987
0.999984
0.999998
1
1
1
1
1
1
1
0.999963
0.999949
0.999993
1
1
1
1
1
1
1
1
0.999978
0.999989
1
1
1
0.999996
0.999995
1
1
1
0.999995
0.999993
0.999999
1
1
0.999986
0.99997
1
1
1
1
1
1
1
1
0.999991
0.999984
1
1
1
1
1
1
0.999996
0.999986
0.999966
0.999955
0.932081
0.91334
0.943883
0.959957
0.955938
0.947988
0.938464
0.927103
0.91748
0.910729
0.398818
0.324638
0.226438
0.191479
0.199888
0.212611
0.21255
0.199583
0.18618
0.175176
0.00241529
0.000771641
1.72028e-06
1.5242e-06
1.63353e-06
1.71818e-06
1.57216e-06
1.56571e-06
1.58165e-06
1.6238e-06
9.49501e-05
0.000150245
8.48047e-06
5.83523e-06
1.82187e-05
4.54997e-05
1.23036e-05
1.58472e-06
1.63336e-06
3.28751e-06
7.79207e-06
2.22043e-05
8.42065e-06
1.83721e-05
4.75453e-05
9.74934e-05
4.62728e-05
1.7662e-06
1.92873e-06
1.9592e-06
2.39693e-06
3.4417e-06
4.04447e-06
1.88759e-05
1.00532e-05
3.6898e-05
3.79723e-05
1.57867e-06
1.66517e-06
1.86767e-06
1.95627e-06
1.81184e-06
1.56693e-06
1.1354e-05
5.85739e-06
1.26008e-05
7.21394e-06
1.57985e-06
1.57867e-06
1.66517e-06
1.81184e-06
1.55285e-06
1.49395e-06
1.92439e-06
7.42399e-06
1.62833e-06
1.49496e-06
1.53168e-06
2.2391e-06
2.88253e-06
1.63533e-06
1.51483e-06
1.50085e-06
1.97119e-06
6.80751e-06
1.55993e-06
1.46604e-06
1.50807e-06
2.86999e-05
9.60459e-05
2.09934e-06
1.63533e-06
2.75033e-05
6.68793e-06
2.98073e-06
1.55103e-06
1.45577e-06
1.52024e-06
3.18491e-05
0.000137855
3.19821e-06
1.5151e-05
6.53089e-05
4.38669e-05
3.9342e-06
1.79871e-06
1.49631e-06
1.44008e-06
1.44277e-06
1.44428e-06
6.64361e-05
1.08448e-05
5.40603e-05
8.24593e-05
2.24468e-05
1.22181e-05
1.59025e-06
1.44577e-06
1.44311e-06
1.47018e-06
0.000428501
2.26407e-06
1.02707e-05
3.21456e-05
2.63427e-05
6.81308e-06
1.64597e-06
1.45549e-06
1.47197e-06
1.51103e-06
1
1
1
1
1
1
1
1
1
1
1
1
1
1
1
1
1
0.999999
1
1
1
1
1
1
1
1
1
0.999998
1
1
1
1
1
1
1
1
1
0.999998
0.999995
0.999999
1
1
1
1
1
1
1
1
0.999989
0.999985
1
1
1
1
1
1
1
0.999999
0.999988
0.999983
1
1
1
1
1
0.999995
0.999981
0.999957
0.999924
0.999914
0.94528
0.936825
0.952969
0.952166
0.940708
0.932456
0.921702
0.907967
0.898596
0.895423
0.397353
0.30597
0.207871
0.181737
0.196896
0.201904
0.192398
0.176102
0.165006
0.160459
0.000935044
0.000443565
1.49851e-06
1.50038e-06
1.50799e-06
1.52174e-06
1.54e-06
1.56317e-06
1.56796e-06
1.58165e-06
4.08432e-05
3.81344e-05
1.9239e-06
1.52391e-06
3.09155e-06
3.68947e-06
1.6676e-06
1.56529e-06
1.58163e-06
1.62379e-06
6.396e-06
7.06237e-06
2.45334e-06
2.68636e-06
1.6837e-06
2.46527e-06
1.78446e-06
1.63067e-06
4.82322e-06
8.7787e-06
1.95635e-06
2.12099e-06
2.08287e-06
5.16332e-06
1.6725e-06
1.56506e-06
1.64096e-06
2.33242e-06
1.74781e-05
4.06182e-05
1.80981e-06
1.56253e-06
1.49395e-06
8.17661e-06
1.4721e-06
1.48759e-06
1.49496e-06
2.30909e-06
1.7963e-05
3.73413e-05
7.00467e-05
1.49395e-06
1.48421e-06
2.54257e-06
3.12045e-06
1.45491e-06
1.46604e-06
1.86256e-06
1.28371e-05
5.1875e-05
8.80553e-05
1.49833e-06
1.48693e-06
1.46256e-06
3.9046e-06
1.45037e-06
1.45554e-06
3.14558e-06
3.37132e-05
0.000126151
1.27781e-05
1.55688e-05
9.01945e-06
6.38959e-06
2.62424e-06
1.4498e-06
1.44563e-06
1.75008e-06
1.89525e-05
0.000100946
4.09812e-06
1.86908e-05
6.8654e-05
3.51193e-05
1.52945e-06
1.44562e-06
1.44008e-06
1.44008e-06
1.44008e-06
1.46104e-06
0.000111874
1.14218e-05
3.80891e-05
2.97089e-05
1.5557e-06
1.45252e-06
1.44563e-06
1.44008e-06
1.45019e-06
1.47633e-06
0.00042307
2.21796e-06
3.21318e-06
1.01451e-05
3.43755e-06
1.46011e-06
1.45252e-06
1.45014e-06
2.33821e-05
5.2632e-06
1
1
1
1
1
1
1
0.999999
1
1
1
1
1
1
1
1
1
0.999995
0.999997
1
1
1
1
1
1
1
0.999999
0.999995
0.999997
1
1
1
1
1
1
1
1
0.999996
0.999983
1
1
1
1
1
1
1
1
0.999999
0.999992
0.999998
1
1
1
1
1
1
0.999999
0.999997
0.99999
0.999993
1
1
1
1
0.999997
0.999981
0.99995
0.999909
0.999873
0.999881
0.9464
0.940351
0.94208
0.928791
0.916221
0.906673
0.89465
0.886971
0.883335
0.885193
0.387732
0.28847
0.196014
0.169896
0.171676
0.167066
0.156826
0.151334
0.149248
0.150938
0.000229258
1.49729e-06
1.49729e-06
1.49767e-06
1.49512e-06
1.4962e-06
1.52171e-06
1.53997e-06
1.56908e-06
1.6238e-06
0.000115218
2.0931e-05
4.94926e-05
1.50066e-06
1.50097e-06
1.511e-06
1.53799e-06
1.58578e-06
1.74326e-06
2.45639e-06
0.0001269
3.58145e-06
1.2428e-05
1.58643e-06
1.48955e-06
1.5004e-06
1.60093e-06
2.59314e-06
5.26726e-05
0.000119152
0.000103158
1.629e-06
1.52128e-06
1.50529e-06
1.46262e-06
1.47356e-06
1.56077e-06
7.73528e-06
0.000157168
0.000203401
4.99053e-05
1.4974e-06
1.4842e-06
1.47209e-06
1.45573e-06
1.45449e-06
1.46915e-06
1.6527e-05
0.000179077
0.000201386
8.00353e-05
1.48421e-06
1.47719e-06
1.51236e-06
1.45114e-06
1.44676e-06
1.4549e-06
1.60533e-05
7.17859e-05
0.000199142
0.00013123
1.32165e-05
1.46256e-06
1.45327e-06
1.44887e-06
1.44614e-06
5.31496e-06
7.31201e-06
7.32904e-06
9.0187e-05
4.51833e-05
4.5001e-05
1.54369e-06
1.45959e-06
1.44756e-06
1.44614e-06
2.43553e-06
1.44545e-06
1.49731e-06
1.53473e-06
6.23961e-06
8.32323e-06
7.083e-05
4.43996e-05
7.66729e-06
1.4498e-06
1.44546e-06
1.44008e-06
1.44546e-06
1.4716e-06
0.000332352
2.40443e-06
2.73918e-05
4.24442e-05
2.32062e-05
1.74821e-06
1.45235e-06
1.48166e-06
6.88548e-06
2.06888e-06
0.000297622
2.21102e-06
2.30002e-06
4.92958e-06
5.09741e-06
1.81936e-06
1.53907e-06
3.30907e-06
6.46357e-05
7.6913e-06
1
1
1
1
1
1
1
1
0.999996
0.999972
1
1
1
1
1
1
1
0.999996
0.999992
0.999972
1
1
1
1
1
1
1
0.999998
0.999988
0.999843
1
1
1
1
1
1
1
1
0.999964
0.999633
1
1
1
1
1
1
1
1
0.999949
0.999548
1
1
1
1
1
0.999999
0.999998
0.999997
0.999946
0.999795
1
1
1
0.999999
0.999988
0.999956
0.999904
0.999851
0.999778
0.999646
0.933181
0.919816
0.913877
0.897061
0.885037
0.874897
0.86654
0.863751
0.866395
0.873822
0.364765
0.266558
0.175818
0.141825
0.135934
0.131298
0.127319
0.127624
0.131646
0.13906
6.71689e-05
1.48463e-06
1.49769e-06
1.49512e-06
1.49241e-06
1.4887e-06
1.4962e-06
1.52428e-06
1.7322e-06
2.18681e-06
0.000134408
4.26432e-05
4.29249e-05
2.12399e-06
1.48274e-06
1.48005e-06
1.51101e-06
1.59529e-06
8.20016e-06
5.05731e-05
0.000163275
8.55081e-05
1.77603e-05
1.4894e-06
1.46263e-06
1.4678e-06
1.50044e-06
4.22329e-06
0.000138738
0.000203401
0.000164183
6.51238e-05
1.55617e-06
1.46262e-06
1.45573e-06
1.45449e-06
1.47353e-06
3.09996e-05
0.000204597
0.000204795
0.000163275
2.14105e-05
1.49314e-06
1.45572e-06
1.45114e-06
1.44676e-06
1.45444e-06
4.9981e-05
0.000204782
0.000203401
5.45931e-06
1.49741e-06
1.46959e-06
1.50037e-06
1.44676e-06
1.44614e-06
1.44674e-06
2.82033e-05
0.000160048
7.22545e-05
0.00013123
1.67875e-06
1.45327e-06
1.44887e-06
1.44614e-06
1.44611e-06
4.12206e-06
9.52925e-06
2.08331e-06
1.79402e-06
5.39171e-05
3.45628e-05
2.91206e-06
1.44756e-06
1.44613e-06
1.44614e-06
1.7681e-06
2.27056e-06
1.75321e-06
1.58554e-06
1.30818e-05
1.29835e-05
7.27343e-05
3.28078e-05
1.9398e-06
1.44613e-06
1.46903e-06
1.62978e-05
5.50044e-06
1.61079e-06
0.000349123
0.000173744
5.00949e-05
5.29845e-05
2.43531e-05
1.48942e-06
4.98641e-06
1.73969e-05
6.32501e-06
1.88542e-06
8.53663e-05
2.40442e-06
6.11463e-06
2.10728e-05
1.75397e-05
8.50753e-06
1.55805e-05
1.46861e-05
2.67619e-06
2.65233e-06
1
1
1
1
1
1
1
1
0.999958
0.995668
1
1
1
1
1
1
1
1
0.999965
0.995755
1
1
1
1
1
1
1
1
0.999919
0.995756
1
1
1
1
1
1
1
1
0.999827
0.995758
1
1
1
1
1
1
1
0.999999
0.999749
0.995811
1
1
1
1
1
0.999999
0.999997
0.999994
0.999766
0.997668
0.999999
0.999999
1
0.999996
0.999976
0.999926
0.999849
0.999779
0.999545
0.998383
0.903283
0.878573
0.87937
0.864537
0.85112
0.838839
0.830601
0.83267
0.844119
0.858297
0.331281
0.243083
0.154466
0.114939
0.104061
0.0988029
0.0960592
0.0999092
0.109283
0.121624
0.000133435
6.71768e-05
1.41416e-06
1.49241e-06
1.48871e-06
1.48005e-06
1.4887e-06
1.54361e-06
2.03069e-06
3.57427e-06
0.000117728
3.29074e-05
2.52704e-06
1.72575e-06
1.48005e-06
1.4701e-06
1.48005e-06
1.66992e-06
9.42342e-06
3.68729e-05
0.000161029
0.000159481
4.99388e-05
1.56562e-06
1.47009e-06
1.46309e-06
1.4701e-06
4.3868e-05
0.000161013
0.000203
0.000154069
0.000146612
3.85563e-05
1.53114e-06
1.46137e-06
1.45819e-06
3.2977e-06
0.00014649
0.000206017
0.000204561
0.000155852
0.000190829
5.75661e-05
1.49284e-06
1.45573e-06
1.45189e-06
2.04602e-05
0.000177872
0.000204561
0.000102164
0.000212582
0.000207315
8.00744e-05
1.47726e-06
1.45114e-06
1.44676e-06
1.9319e-05
6.84992e-05
5.80922e-05
2.09771e-06
7.92269e-05
5.84069e-05
5.67098e-05
4.38586e-06
1.44887e-06
1.44614e-06
7.34218e-06
2.25639e-06
2.09771e-06
2.02787e-06
1.79278e-05
9.76157e-06
6.04482e-06
1.85977e-06
1.44795e-06
1.44611e-06
1.44704e-06
3.19198e-06
2.05598e-06
1.94911e-06
1.42119e-05
0.000289961
4.3859e-05
1.87302e-06
2.4239e-06
1.51523e-06
1.4707e-06
1.93252e-05
5.10373e-06
1.90022e-06
0.000352492
0.000366062
0.00019817
3.00032e-05
2.24877e-06
1.51529e-06
3.64591e-06
1.77352e-05
3.37497e-06
2.09161e-06
0.000165647
0.00020966
4.28306e-05
3.58863e-05
7.65736e-06
2.86371e-06
8.28743e-06
3.28069e-06
2.71483e-06
2.43504e-06
1
1
1
1
1
1
1
1
0.999926
0.995636
1
1
1
1
1
1
1
1
0.999969
0.996187
1
1
1
1
1
1
1
0.999999
0.99999
0.997837
1
1
1
1
1
1
1
0.999999
0.999995
0.998149
1
1
1
1
0.999997
1
1
0.999999
0.999994
0.998318
1
1
1
1
0.999998
0.999998
0.999996
0.999992
0.999985
0.999561
0.999999
0.999999
0.999999
0.999992
0.999964
0.999901
0.999794
0.999713
0.999714
0.999352
0.870584
0.846687
0.850603
0.840354
0.823597
0.803544
0.788827
0.7952
0.813159
0.832628
0.298228
0.223741
0.141323
0.100654
0.0838686
0.0732402
0.0666921
0.0719864
0.0840138
0.0982443
9.46201e-05
0.000109883
1.23705e-06
1.50156e-06
1.49241e-06
1.48871e-06
1.51146e-06
1.90945e-06
3.64703e-06
5.07318e-06
1.97788e-05
4.24892e-05
3.98357e-06
2.93261e-06
1.49786e-06
1.48005e-06
4.21786e-06
3.75167e-05
3.1477e-05
1.65114e-05
1.72285e-05
4.95792e-05
4.09733e-05
8.6267e-06
1.87596e-06
1.47009e-06
3.93617e-05
0.000208269
0.000208492
0.000176581
1.50495e-05
2.56316e-05
3.47281e-05
1.18757e-05
1.48906e-06
1.46304e-06
0.000112303
0.000208081
0.000208241
0.000202197
6.60581e-05
3.91786e-05
2.65676e-05
6.07497e-06
1.53433e-06
1.45816e-06
0.00015648
0.000206951
0.000113659
3.20894e-05
0.000258072
0.000258072
6.28124e-05
1.58104e-06
1.51272e-06
1.45188e-06
7.58112e-05
3.06145e-05
2.21482e-06
2.27835e-06
0.00017762
0.000248589
7.20991e-05
1.53972e-06
1.48026e-06
1.4518e-06
3.5161e-06
2.21482e-06
2.17152e-06
2.09771e-06
1.66513e-05
4.77356e-05
4.31721e-05
2.63287e-06
1.46302e-06
1.4588e-06
1.48962e-06
3.20955e-06
2.20523e-06
3.19347e-06
1.51129e-05
0.000256572
2.6545e-05
1.51865e-06
1.49194e-06
1.49479e-06
7.03439e-06
2.14384e-05
4.01042e-06
2.78715e-06
0.000353312
0.000366062
0.000174927
1.927e-06
1.51529e-06
1.5042e-06
2.70175e-05
1.4403e-05
2.77474e-06
2.4196e-06
0.000357771
0.000366062
7.21967e-05
1.83233e-05
1.59272e-06
1.51529e-06
1.59272e-06
2.35193e-06
2.77012e-06
2.75509e-06
1
1
1
1
1
1
1
1
0.999998
0.999991
1
1
1
1
1
1
1
0.999997
0.999991
0.999995
1
1
1
1
1
1
1
0.999989
0.999989
0.999996
1
1
1
1
0.999999
1
1
0.999993
0.999991
0.999997
1
1
1
0.999999
0.999997
1
1
0.999993
0.999991
0.999993
1
1
1
1
0.999997
0.999998
0.999996
0.999986
0.999982
0.999984
1
1
1
0.999998
0.999976
0.999917
0.9998
0.999682
0.999669
0.999735
0.848492
0.826096
0.841779
0.846773
0.830155
0.798205
0.76928
0.763486
0.77969
0.801022
0.271532
0.21385
0.146744
0.109017
0.0881412
0.0683029
0.0539753
0.0524339
0.061491
0.0743371
0.000162687
0.000152812
1.21917e-06
1.53147e-06
1.50156e-06
1.51146e-06
1.76001e-06
4.10709e-06
3.48718e-06
3.14794e-06
8.79759e-06
1.30135e-05
4.45674e-06
5.13123e-06
2.05708e-06
4.40147e-06
4.32057e-05
0.000104445
7.42775e-05
1.43022e-05
2.0815e-06
2.79287e-06
7.04501e-06
1.18403e-05
1.57841e-05
2.34293e-05
0.000208705
0.000208492
0.000209234
0.000182223
1.85121e-06
1.93921e-06
3.04569e-06
1.26068e-05
9.62172e-06
3.2704e-05
0.000207841
0.000209234
0.000209243
0.000207505
1.85121e-06
1.85121e-06
1.93921e-06
1.26632e-05
3.04359e-06
4.1585e-05
0.000206432
0.000165518
8.53973e-05
7.51567e-05
4.5199e-05
2.10488e-06
2.49091e-06
5.63407e-06
1.62389e-06
2.61818e-05
5.42158e-05
2.35754e-06
2.21339e-06
2.30558e-06
0.000229504
8.1947e-05
2.09355e-06
1.82758e-06
3.79693e-06
2.48079e-05
2.09465e-05
2.21015e-06
2.21482e-06
1.49836e-05
8.12616e-05
0.000105491
2.78954e-05
1.81185e-06
2.00677e-06
1.13094e-05
2.59512e-06
2.4342e-06
2.21482e-06
6.81685e-05
1.66833e-05
6.51329e-05
2.17593e-05
1.61283e-06
1.51865e-06
1.50952e-06
1.98854e-05
2.19949e-05
4.62317e-06
5.53041e-05
0.00036455
0.000366062
2.4612e-05
1.62266e-06
1.57513e-06
1.51529e-06
3.6787e-05
2.52787e-05
3.82062e-06
6.2448e-05
0.000289928
0.000365914
0.000228979
1.89776e-05
1.62267e-06
2.32727e-05
3.54088e-05
3.35862e-06
2.78642e-06
6.4809e-05
1
1
1
1
1
1
1
1
1
1
1
1
1
1
1
1
1
0.999995
0.999992
0.999999
1
1
1
1
1
1
1
0.99999
0.999989
0.999998
1
1
1
1
1
1
1
0.999997
0.999996
0.999999
1
1
1
1
0.999999
1
1
0.999997
0.999996
0.999999
1
1
1
1
1
0.999999
0.999997
0.999991
0.999988
0.999992
1
1
1
1
0.999993
0.999957
0.999868
0.99975
0.999696
0.999746
0.846615
0.832141
0.856692
0.870334
0.856555
0.820514
0.77855
0.754265
0.754993
0.774155
0.250516
0.204807
0.151107
0.121679
0.103994
0.0803751
0.0573551
0.046422
0.0480626
0.0576828
0.000269082
0.000158174
1.17258e-06
1.59299e-06
1.55852e-06
1.58212e-06
1.79314e-06
2.06432e-06
2.25127e-06
2.45796e-06
2.06202e-05
1.10407e-05
5.0326e-06
2.37567e-06
1.62002e-06
3.5461e-06
4.74333e-05
5.9257e-05
1.75831e-05
4.04608e-06
4.31637e-06
3.29405e-06
2.77455e-06
4.32276e-06
8.75129e-06
0.000127485
0.000207841
0.000209234
0.000194626
0.000121336
1.89972e-06
4.75716e-06
2.45132e-06
2.4176e-06
6.70226e-05
0.000209185
0.000209481
0.000209362
0.000209243
0.000209243
1.84968e-06
1.93304e-06
2.11906e-06
1.4452e-05
0.000104411
0.000195398
0.000151326
0.000202713
0.000209243
0.000188265
1.89972e-06
1.90883e-06
2.97245e-06
3.47268e-05
7.36895e-05
3.11575e-05
4.67922e-05
1.70802e-05
0.000100444
2.68743e-06
7.68243e-05
1.99653e-06
2.23527e-06
2.1705e-05
2.92663e-05
0.000114492
7.87923e-05
2.30875e-06
6.90025e-06
2.65031e-05
0.000225958
2.4881e-05
3.07217e-06
4.07317e-06
2.93072e-05
8.46235e-05
2.46755e-06
2.37008e-06
4.18062e-05
7.64793e-05
0.000218268
0.000145107
1.47328e-05
1.83943e-06
1.61051e-05
5.11049e-06
9.58947e-06
6.52917e-06
5.74885e-06
7.03111e-05
0.000297388
0.000268309
2.37639e-06
2.01641e-06
1.65781e-06
1.57513e-06
3.78432e-05
2.63186e-05
3.5504e-06
0.000197991
0.000108852
0.000365779
0.000145847
2.29832e-06
1.93834e-06
5.17069e-05
5.45919e-05
3.28177e-05
2.84929e-06
0.000214985
1
1
1
1
1
1
1
1
1
1
1
1
1
1
1
1
1
1
1
1
1
1
1
1
1
1
1
1
0.999999
0.999999
1
1
1
1
1
1
1
1
0.999998
1
1
1
1
1
1
1
1
1
0.999998
1
1
1
1
1
1
1
0.999999
0.999997
0.999994
0.999996
1
1
1
1
0.999999
0.999987
0.999946
0.999873
0.999813
0.999821
0.858547
0.849374
0.874264
0.892514
0.886567
0.859017
0.817595
0.781405
0.764868
0.769236
0.239562
0.20109
0.154372
0.129214
0.120354
0.10372
0.0789486
0.060471
0.0531849
0.0548747
0.00040238
0.000193312
1.08678e-06
1.63741e-06
1.62002e-06
1.63741e-06
1.71438e-06
1.87011e-06
2.06432e-06
2.25127e-06
4.74828e-05
1.33363e-05
1.93469e-06
1.70642e-06
1.63741e-06
1.71438e-06
1.87011e-06
2.06432e-06
2.25127e-06
3.07985e-06
1.94776e-05
3.06388e-06
2.22843e-06
1.75971e-06
1.94751e-06
5.998e-05
6.46255e-05
8.38272e-05
4.491e-05
1.06342e-05
3.21866e-05
9.34836e-06
2.41274e-06
2.02176e-06
9.797e-05
0.000209453
0.000207946
0.00020883
0.000209243
0.000139211
2.50399e-05
1.347e-05
2.45714e-06
6.39974e-05
0.00020123
0.000207946
0.000207217
0.000207714
0.000197279
0.000159799
1.92915e-06
7.73385e-06
3.73485e-05
0.000128375
0.000132193
3.16316e-05
0.00018345
0.000203958
5.07655e-06
3.90229e-06
2.62453e-06
2.06004e-06
3.81714e-05
5.65664e-05
1.63513e-05
0.000114665
0.000152456
4.28322e-05
6.24648e-05
5.21519e-06
0.000186318
3.26279e-06
8.05954e-06
4.23616e-06
8.56302e-05
0.00014138
4.46626e-05
2.68322e-05
9.41254e-05
7.76185e-06
0.000281416
0.000116818
9.08766e-06
3.1824e-06
9.06364e-05
6.82917e-05
5.58786e-06
5.66802e-06
9.41254e-05
8.52815e-06
0.000285218
0.000300131
2.62927e-05
2.37594e-06
1.99459e-05
2.33623e-06
8.41472e-06
5.61785e-06
6.30226e-05
0.000132329
0.000129736
0.000365468
2.44422e-05
2.91217e-06
2.34244e-06
9.63997e-06
5.45919e-05
2.79578e-05
6.26915e-06
0.000218178
1
1
1
1
1
1
1
1
1
1
1
1
0.999998
0.999998
1
1
1
1
1
1
1
1
0.999994
0.999989
1
1
1
1
1
1
1
1
1
1
1
1
1
0.999997
0.999993
0.999997
1
1
1
1
1
1
1
0.999998
0.999963
0.999947
1
1
1
1
1
1
1
0.999998
0.999962
0.99995
1
1
1
1
0.999992
0.999998
0.999987
0.99996
0.999895
0.999876
0.869749
0.86518
0.885293
0.90697
0.912236
0.896413
0.865615
0.831136
0.806946
0.798947
0.238123
0.210632
0.168331
0.138358
0.129745
0.124037
0.107743
0.0876135
0.0742769
0.0689721
0.000634576
0.000402187
0.000136896
1.51008e-06
1.63738e-06
1.71438e-06
1.86807e-06
2.02899e-06
2.11563e-06
2.31756e-06
8.71409e-05
3.59532e-05
1.68386e-05
1.12565e-05
3.51912e-06
2.92967e-06
2.029e-06
2.11563e-06
6.84134e-06
1.75117e-05
4.61207e-05
9.02434e-06
2.86354e-06
5.75587e-06
5.58499e-06
2.78921e-05
4.20346e-06
2.42598e-06
2.07222e-05
9.11403e-05
4.74009e-05
4.76762e-06
2.62011e-06
3.25957e-06
2.45393e-05
0.000151392
0.000140648
0.000106632
0.000154075
7.10004e-05
2.81615e-05
3.66926e-06
3.16715e-06
2.35985e-05
0.000104937
7.60486e-05
0.000206281
0.000207202
0.000104286
6.23912e-05
4.78623e-06
4.40147e-05
4.55939e-05
4.80045e-05
2.75479e-05
3.00758e-05
0.00020312
9.3436e-05
8.9621e-06
2.41741e-05
4.05709e-06
3.00059e-05
4.68756e-05
1.71324e-05
5.69111e-06
1.49113e-05
0.00014381
8.71607e-05
6.25367e-06
5.58519e-06
6.25786e-06
4.37973e-06
1.22329e-05
4.3248e-06
3.16092e-05
0.000142667
0.000158397
0.000159048
3.7126e-05
6.25367e-06
0.000188496
5.6203e-05
4.10829e-06
5.4386e-06
0.00010491
0.000142025
7.36774e-05
0.000143812
5.66697e-05
7.81504e-06
0.000204258
0.000278929
4.42852e-05
3.20868e-06
5.48424e-05
0.000101531
9.88198e-06
2.9455e-05
0.000199341
3.14354e-05
8.39037e-05
0.000289861
7.70143e-05
3.98588e-06
3.53906e-06
7.3807e-06
2.36576e-05
7.18309e-06
9.55224e-05
0.000208688
1
1
0.999998
0.999996
1
1
1
1
1
1
1
0.999998
0.999962
0.999955
0.999986
1
1
1
1
1
1
0.999998
0.999951
0.999951
0.999975
1
1
1
1
1
1
0.999999
0.999987
0.999987
0.999996
1
1
0.999997
0.999994
0.999992
1
1
1
1
1
1
1
0.999995
0.99983
0.999792
1
1
1
1
1
1
1
1
0.999981
0.999837
1
1
1
1
1
1
0.999999
0.999994
0.99997
0.999893
0.880394
0.878937
0.890902
0.915128
0.92918
0.925215
0.90444
0.876782
0.854495
0.841742
0.254209
0.238263
0.207668
0.173969
0.152574
0.137725
0.125996
0.112214
0.0984648
0.0878836
0.000975077
0.000773338
0.000415368
0.00011246
1.6815e-06
1.86768e-06
2.029e-06
2.11563e-06
2.16794e-06
2.30781e-06
8.43741e-05
7.57475e-05
5.3545e-05
1.89059e-05
5.61153e-05
5.68708e-05
5.74378e-05
2.16793e-06
2.40264e-06
6.59662e-06
2.11711e-05
1.43194e-05
1.12444e-05
1.30587e-05
4.73143e-05
5.71235e-05
5.5552e-05
2.39302e-06
2.84064e-05
0.00013169
1.80425e-05
5.43263e-06
3.88348e-06
6.82147e-06
1.46286e-05
5.58603e-06
3.12369e-05
1.86401e-05
6.70461e-05
0.000192091
9.87216e-06
4.0376e-06
3.65212e-06
4.54706e-06
5.58171e-06
5.50753e-06
0.000147014
0.000204986
7.45951e-05
7.47663e-05
5.16045e-06
3.52194e-05
8.98378e-06
5.34724e-06
5.34391e-06
5.56079e-06
6.01695e-05
2.75948e-05
2.6313e-05
7.738e-06
4.9822e-06
2.53427e-05
1.39534e-05
4.3248e-06
4.81395e-06
5.34391e-06
5.34757e-06
6.95601e-06
7.10374e-06
9.71553e-06
5.21965e-06
4.77676e-06
4.97111e-06
4.07742e-06
4.3248e-06
4.81395e-06
0.00012427
0.000142753
3.26547e-05
1.37869e-05
1.62219e-05
5.05954e-06
4.03094e-06
3.9581e-06
4.07742e-06
0.000114087
0.000191437
0.000195528
2.37009e-05
9.20675e-06
1.99256e-05
7.04307e-05
4.51815e-06
3.73801e-06
5.17345e-06
0.000128618
0.000194247
0.000199341
0.000199915
1.81926e-05
2.3623e-05
2.76097e-05
3.91404e-05
8.96756e-06
5.4885e-06
2.94131e-05
6.52688e-05
0.000126442
0.000218176
0.00021902
1
1
0.999991
0.999981
0.999997
1
1
1
1
1
1
1
0.999954
0.999951
0.999958
0.999998
1
1
1
1
1
1
0.999958
0.999951
0.999951
0.999995
1
1
1
0.999997
1
0.999999
0.99999
0.999977
0.999995
1
1
0.999999
0.999994
0.999999
1
1
1
1
1
1
1
0.999999
0.999928
0.999826
1
1
1
1
1
1
1
1
0.999957
0.999759
1
1
1
1
1
1
1
0.999993
0.999995
0.999991
0.905408
0.904469
0.913295
0.925221
0.935839
0.941402
0.932672
0.915329
0.900511
0.891757
0.298083
0.293273
0.281155
0.250542
0.214158
0.181364
0.155638
0.135991
0.122474
0.110335
0.00162236
0.00138886
0.000909165
0.000458093
0.000122646
2.91742e-06
2.21825e-06
2.16793e-06
2.27117e-06
2.39303e-06
0.000170655
0.000177606
0.000134664
8.90884e-05
5.96747e-05
7.27393e-05
0.000226659
2.27117e-06
2.39303e-06
4.66342e-06
3.36611e-05
3.28264e-05
2.9109e-05
4.98229e-05
5.36085e-05
6.14314e-05
0.000245999
2.96196e-06
3.23919e-06
3.61997e-06
2.24356e-05
1.0834e-05
1.18249e-05
8.89672e-05
4.35714e-05
7.28157e-06
0.000139664