/*--------------------------------*- C++ -*----------------------------------*\
| =========                 |                                                 |
| \\      /  F ield         | OpenFOAM: The Open Source CFD Toolbox           |
|  \\    /   O peration     | Version:  2312                                  |
|   \\  /    A nd           | Website:  www.openfoam.com                      |
|    \\/     M anipulation  |                                                 |
\*---------------------------------------------------------------------------*/
FoamFile
{
    version     2.0;
    format      ascii;
    arch        "LSB;label=32;scalar=64";
    class       volScalarField;
    location    "1.48";
    object      p;
}
// * * * * * * * * * * * * * * * * * * * * * * * * * * * * * * * * * * * * * //

dimensions      [1 -1 -2 0 0 0 0];

internalField   nonuniform List<scalar> 
8000
(
383.342
383.213
383.046
382.852
382.536
382.08
381.502
380.819
380.043
379.194
334.533
334.365
334.116
333.861
333.581
333.18
332.618
331.92
331.122
330.25
285.996
285.928
285.614
285.284
284.887
284.453
283.891
283.166
282.316
281.357
237.718
237.695
237.415
237.095
236.586
236.006
235.349
234.531
233.589
232.564
189.587
189.67
189.473
189.137
188.591
187.878
187.089
186.161
185.079
183.97
141.627
141.916
141.799
141.538
140.977
140.128
139.148
138.056
136.841
135.619
92.7815
93.514
94.0594
94.3058
93.9077
92.9893
91.8677
90.6347
89.2865
87.7047
41.2674
43.205
45.9965
47.8297
48.0771
47.2054
45.9871
44.6769
43.164
41.3029
7.35262
8.80288
11.8465
13.6287
13.7386
12.9901
12.2101
11.3945
10.4042
9.12588
0.013742
-0.0172266
-0.0102522
0.0179333
-0.0239354
-0.121293
-0.226076
-0.317708
-0.376139
-0.397219
-0.256763
-0.284006
-0.389876
-0.455341
-0.480032
-0.487206
-0.485153
-0.477179
-0.465362
-0.45491
-0.401718
-0.407667
-0.460071
-0.502527
-0.521418
-0.525025
-0.519727
-0.511382
-0.504247
-0.498024
-0.494201
-0.499182
-0.526253
-0.550389
-0.558296
-0.558894
-0.55625
-0.553784
-0.552699
-0.555114
-0.572882
-0.581467
-0.589691
-0.606925
-0.605562
-0.599027
-0.598097
-0.602443
-0.607427
-0.60944
-0.636221
-0.648678
-0.655238
-0.663858
-0.655203
-0.64673
-0.649384
-0.656299
-0.66025
-0.661313
-0.698555
-0.708115
-0.719739
-0.721577
-0.708284
-0.703619
-0.70724
-0.711158
-0.713416
-0.7125
-0.75775
-0.764312
-0.776511
-0.772518
-0.763112
-0.761727
-0.763479
-0.766087
-0.766707
-0.763794
-0.809741
-0.813896
-0.825319
-0.819612
-0.815024
-0.815296
-0.817332
-0.819323
-0.819613
-0.815675
-0.858147
-0.862179
-0.869356
-0.867825
-0.865366
-0.865907
-0.868767
-0.871701
-0.87279
-0.868265
-0.910126
-0.914272
-0.919075
-0.91963
-0.916296
-0.917106
-0.920089
-0.924453
-0.9259
-0.922889
383.178
383.002
382.777
382.532
382.295
381.911
381.37
380.704
379.943
379.11
334.341
334.031
333.729
333.439
333.237
332.952
332.458
331.785
331
330.15
285.869
285.639
285.24
284.859
284.56
284.199
283.692
283
282.166
281.239
237.489
237.416
237.169
236.751
236.265
235.723
235.115
234.318
233.335
232.325
189.201
189.411
189.366
188.873
188.234
187.521
186.754
185.814
184.695
183.573
141.231
141.57
141.511
141.103
140.391
139.5
138.546
137.487
136.275
135.049
92.703
93.2148
93.5653
93.4736
92.8126
91.772
90.5791
89.2906
87.9238
86.4557
42.3661
43.7838
45.4967
46.4077
46.0231
44.8447
43.4696
42.1357
40.7696
39.2243
8.0148
9.39344
10.7109
11.1441
10.4497
9.41753
8.64011
8.10184
7.62955
6.97979
-0.120703
-0.192132
-0.292067
-0.319515
-0.326979
-0.358606
-0.391348
-0.409964
-0.425592
-0.424693
-0.323817
-0.404459
-0.486985
-0.511216
-0.520997
-0.521743
-0.507177
-0.48914
-0.473478
-0.463285
-0.426759
-0.456229
-0.497774
-0.523455
-0.536778
-0.538084
-0.527336
-0.516235
-0.510195
-0.507084
-0.506645
-0.523372
-0.546783
-0.55976
-0.562781
-0.563125
-0.560116
-0.558072
-0.559281
-0.559004
-0.583546
-0.59525
-0.60582
-0.613747
-0.603097
-0.594731
-0.598263
-0.606068
-0.61137
-0.610772
-0.65318
-0.665477
-0.6663
-0.668
-0.648393
-0.640807
-0.650717
-0.662679
-0.665079
-0.663979
-0.714876
-0.726596
-0.733509
-0.721348
-0.703109
-0.70127
-0.71313
-0.720017
-0.720545
-0.717429
-0.769227
-0.777365
-0.784434
-0.771758
-0.76327
-0.767782
-0.775217
-0.77671
-0.775082
-0.770064
-0.814428
-0.819968
-0.822218
-0.817265
-0.817213
-0.823603
-0.830955
-0.831459
-0.828801
-0.822949
-0.858376
-0.864852
-0.866346
-0.864731
-0.865465
-0.871377
-0.881416
-0.885118
-0.882722
-0.877391
-0.906737
-0.914278
-0.917749
-0.916978
-0.914759
-0.918529
-0.928551
-0.936936
-0.938307
-0.934509
382.953
382.763
382.668
382.416
382.061
381.665
381.17
380.524
379.789
378.988
334.05
333.735
333.623
333.176
332.845
332.616
332.225
331.582
330.826
329.999
285.578
285.17
285.074
284.519
284.057
283.787
283.386
282.753
281.967
281.079
237.206
236.946
236.9
236.383
235.778
235.263
234.744
234.037
233.146
232.171
188.901
188.906
188.872
188.396
187.682
186.973
186.263
185.413
184.385
183.274
140.838
140.879
140.677
140.207
139.504
138.709
137.87
136.894
135.746
134.562
92.636
92.5223
92.305
91.9364
91.2178
90.2286
89.0867
87.8184
86.5343
85.1246
43.7795
43.9928
44.127
44.025
43.2344
41.9753
40.662
39.5608
38.4377
37.1913
9.26146
9.53814
9.32421
8.75819
7.70056
6.63024
5.83166
5.41536
5.15322
4.82656
-0.158167
-0.30094
-0.412883
-0.424982
-0.424614
-0.436276
-0.459276
-0.444445
-0.437682
-0.434171
-0.402615
-0.484282
-0.511913
-0.514347
-0.525045
-0.523946
-0.507598
-0.49042
-0.476928
-0.468109
-0.473969
-0.506658
-0.528152
-0.539265
-0.547611
-0.546957
-0.537106
-0.525165
-0.515672
-0.510109
-0.535333
-0.555123
-0.566963
-0.571031
-0.573393
-0.573455
-0.570138
-0.567269
-0.564036
-0.55883
-0.598411
-0.612934
-0.61802
-0.616756
-0.608063
-0.60435
-0.610627
-0.616791
-0.615875
-0.612628
-0.657578
-0.670524
-0.670586
-0.666987
-0.653039
-0.653618
-0.667305
-0.672643
-0.671651
-0.668825
-0.714359
-0.726201
-0.727121
-0.716975
-0.707808
-0.715423
-0.728264
-0.730911
-0.728922
-0.723997
-0.76831
-0.77573
-0.77665
-0.768481
-0.765621
-0.777419
-0.785993
-0.78802
-0.782924
-0.775829
-0.811882
-0.817468
-0.81793
-0.8171
-0.821402
-0.832429
-0.838699
-0.838721
-0.834252
-0.826815
-0.857368
-0.861143
-0.861577
-0.863984
-0.868752
-0.877277
-0.886707
-0.887282
-0.885121
-0.87937
-0.90353
-0.912092
-0.913077
-0.914675
-0.916078
-0.921132
-0.930978
-0.937439
-0.939387
-0.935488
382.755
382.517
382.589
382.423
381.908
381.419
380.929
380.304
379.604
378.846
333.728
333.428
333.426
333.187
332.732
332.336
331.947
331.343
330.628
329.848
285.156
284.755
284.706
284.348
283.787
283.425
283.072
282.483
281.746
280.911
236.847
236.447
236.36
235.952
235.287
234.782
234.348
233.719
232.924
232.01
188.593
188.268
188.081
187.671
186.997
186.331
185.721
184.984
184.078
183.085
140.413
140.028
139.588
139.139
138.547
137.902
137.19
136.341
135.298
134.094
92.4386
91.5873
90.7544
90.1866
89.5192
88.7092
87.7945
86.8243
85.746
84.4749
44.4436
43.4637
42.2239
41.3621
40.5077
39.6894
38.9935
38.101
36.8493
35.4944
9.93384
9.22995
7.84325
6.68372
5.70698
5.04872
4.64145
4.47106
4.34559
4.08883
-0.241721
-0.380835
-0.436193
-0.448722
-0.471373
-0.462944
-0.452089
-0.443781
-0.432111
-0.427337
-0.463615
-0.51244
-0.511764
-0.51954
-0.519
-0.508955
-0.495549
-0.486671
-0.477715
-0.47026
-0.511912
-0.530728
-0.5384
-0.547721
-0.550982
-0.547213
-0.537924
-0.53093
-0.524158
-0.516197
-0.561173
-0.571894
-0.571622
-0.576776
-0.58215
-0.582345
-0.580096
-0.579615
-0.575948
-0.56849
-0.613282
-0.621865
-0.617921
-0.618103
-0.618984
-0.621316
-0.628346
-0.631783
-0.628213
-0.619766
-0.663121
-0.671012
-0.668226
-0.667245
-0.666606
-0.673301
-0.683646
-0.685817
-0.681751
-0.67266
-0.714326
-0.722897
-0.71965
-0.717155
-0.718023
-0.729321
-0.738031
-0.73838
-0.736061
-0.729099
-0.765652
-0.770485
-0.769179
-0.767106
-0.769481
-0.782409
-0.788545
-0.789614
-0.789737
-0.782591
-0.808597
-0.813562
-0.815148
-0.816128
-0.819935
-0.831158
-0.834842
-0.836649
-0.838592
-0.832687
-0.85476
-0.860069
-0.861812
-0.865799
-0.87042
-0.876775
-0.87911
-0.88028
-0.883836
-0.880827
-0.902222
-0.911815
-0.912568
-0.914525
-0.916783
-0.919943
-0.923168
-0.926241
-0.931136
-0.930785
382.453
382.204
382.177
382.057
381.605
381.126
380.634
380.043
379.386
378.68
333.43
333.086
332.946
332.901
332.499
332.09
331.649
331.071
330.404
329.675
284.682
284.285
284.007
283.911
283.473
283.139
282.755
282.185
281.494
280.717
236.24
235.828
235.521
235.249
234.771
234.36
233.952
233.36
232.626
231.795
187.941
187.448
187.074
186.718
186.208
185.695
185.187
184.554
183.76
182.853
139.708
139.005
138.392
137.992
137.564
137.106
136.551
135.751
134.805
133.75
91.9355
90.4899
89.2209
88.4987
87.9888
87.5134
87.025
86.2455
85.146
83.9392
44.4702
42.5835
40.3157
39.0313
38.629
38.5323
37.8265
36.7011
35.357
34.0385
9.98167
8.53034
6.35064
5.02999
4.61179
4.59364
4.72712
4.64065
4.39257
4.06186
-0.347302
-0.423662
-0.434919
-0.469451
-0.46163
-0.450388
-0.437898
-0.433471
-0.428285
-0.424608
-0.497781
-0.513892
-0.512707
-0.515173
-0.503968
-0.495091
-0.486081
-0.481676
-0.476704
-0.47201
-0.531997
-0.538816
-0.542345
-0.548274
-0.543712
-0.53749
-0.532589
-0.530957
-0.526405
-0.521276
-0.575082
-0.577417
-0.573783
-0.580069
-0.582945
-0.582274
-0.58166
-0.582203
-0.577831
-0.572619
-0.620606
-0.622263
-0.617879
-0.621084
-0.624423
-0.629451
-0.634037
-0.634027
-0.629306
-0.622635
-0.665451
-0.668693
-0.667186
-0.668893
-0.67237
-0.682403
-0.688408
-0.685769
-0.682247
-0.674112
-0.713776
-0.717792
-0.716716
-0.717803
-0.721833
-0.734284
-0.740417
-0.736928
-0.737071
-0.729059
-0.761752
-0.765681
-0.766042
-0.766678
-0.770956
-0.783969
-0.789181
-0.787836
-0.790192
-0.786982
-0.806179
-0.811408
-0.814435
-0.814681
-0.818725
-0.829624
-0.83465
-0.835528
-0.838231
-0.835659
-0.853266
-0.859054
-0.863092
-0.864673
-0.866625
-0.872056
-0.874349
-0.87706
-0.882189
-0.88087
-0.902012
-0.912169
-0.913615
-0.915411
-0.915337
-0.915216
-0.914349
-0.918317
-0.925335
-0.926994
382.035
381.864
381.699
381.496
381.156
380.755
380.292
379.749
379.144
378.49
333.052
332.795
332.57
332.412
332.104
331.739
331.301
330.768
330.153
329.479
284.217
283.874
283.542
283.373
283.103
282.787
282.386
281.851
281.213
280.501
235.591
235.202
234.777
234.546
234.254
233.917
233.507
232.952
232.288
231.542
187.16
186.552
186.098
185.788
185.468
185.096
184.667
184.072
183.354
182.558
138.835
137.952
137.252
136.911
136.682
136.348
135.825
135.108
134.263
133.389
91.1985
89.3934
87.8173
87.0656
86.8575
86.7328
86.2569
85.3576
84.2424
83.1728
44.3079
41.689
38.679
37.4872
37.5255
37.2943
36.5109
35.3239
34.068
32.957
9.96335
7.81043
5.21981
4.1871
4.48589
4.87981
4.90281
4.55911
4.20742
3.92391
-0.414544
-0.430574
-0.434109
-0.451318
-0.438701
-0.433902
-0.431373
-0.42802
-0.423135
-0.421296
-0.509422
-0.507595
-0.504222
-0.501195
-0.490599
-0.483824
-0.479934
-0.475675
-0.470209
-0.467524
-0.539195
-0.540753
-0.540456
-0.541265
-0.536082
-0.531389
-0.528969
-0.525515
-0.520636
-0.517612
-0.579345
-0.579643
-0.576195
-0.581278
-0.579584
-0.579021
-0.579306
-0.579261
-0.577999
-0.573971
-0.621849
-0.622318
-0.620541
-0.624181
-0.623958
-0.627464
-0.630766
-0.632513
-0.632443
-0.627104
-0.665279
-0.668322
-0.668702
-0.671173
-0.671926
-0.679083
-0.683664
-0.685679
-0.685352
-0.678856
-0.712227
-0.716782
-0.717283
-0.718874
-0.721483
-0.730244
-0.735418
-0.737022
-0.738756
-0.732231
-0.760121
-0.764961
-0.766321
-0.767292
-0.770643
-0.779908
-0.784743
-0.786413
-0.788988
-0.786327
-0.805951
-0.812451
-0.815013
-0.815897
-0.818435
-0.825828
-0.829422
-0.831956
-0.834297
-0.83425
-0.854509
-0.861148
-0.864564
-0.864054
-0.865268
-0.86796
-0.869787
-0.872475
-0.876477
-0.877098
-0.904698
-0.915063
-0.914791
-0.91415
-0.911194
-0.909716
-0.910515
-0.913376
-0.918247
-0.921962
381.559
381.429
381.252
381.03
380.724
380.356
379.93
379.44
378.885
378.284
332.576
332.405
332.191
331.967
331.681
331.334
330.927
330.441
329.878
329.261
283.696
283.442
283.159
282.935
282.673
282.36
281.968
281.475
280.899
280.26
234.928
234.574
234.223
233.976
233.709
233.394
233.001
232.495
231.906
231.25
186.297
185.668
185.257
185.021
184.767
184.468
184.048
183.501
182.885
182.217
137.906
136.934
136.238
135.976
135.783
135.444
134.946
134.292
133.587
132.902
90.2203
88.2875
86.612
85.9771
85.817
85.5276
84.9081
83.983
83.0093
82.2113
43.8924
40.7287
37.5379
36.3898
36.1206
35.6527
34.7792
33.6462
32.6337
31.9089
9.8932
7.21255
4.66462
4.00286
4.48005
4.65139
4.39411
3.96774
3.6844
3.56897
-0.427025
-0.431175
-0.425652
-0.432451
-0.429109
-0.427906
-0.425199
-0.419555
-0.414103
-0.413753
-0.501676
-0.498193
-0.491389
-0.485217
-0.480924
-0.477619
-0.473652
-0.468389
-0.462891
-0.459726
-0.535997
-0.538703
-0.533088
-0.530597
-0.529744
-0.527424
-0.525093
-0.522262
-0.519188
-0.514023
-0.577401
-0.578765
-0.575265
-0.579992
-0.577898
-0.576983
-0.579077
-0.581817
-0.582293
-0.5752
-0.619695
-0.621036
-0.621616
-0.626945
-0.624642
-0.625951
-0.631191
-0.637987
-0.639516
-0.631902
-0.664004
-0.668393
-0.66986
-0.67406
-0.67414
-0.677047
-0.68344
-0.690232
-0.691539
-0.684621
-0.712692
-0.717638
-0.718682
-0.72162
-0.723489
-0.728252
-0.735165
-0.739734
-0.741875
-0.735843
-0.762198
-0.766565
-0.76783
-0.769379
-0.771757
-0.777348
-0.783511
-0.786387
-0.787473
-0.784908
-0.808375
-0.815793
-0.817499
-0.817727
-0.818082
-0.82179
-0.825032
-0.826991
-0.828274
-0.827635
-0.859651
-0.866776
-0.868818
-0.866811
-0.862902
-0.862165
-0.86279
-0.86587
-0.868743
-0.869863
-0.912863
-0.921375
-0.917998
-0.913878
-0.907051
-0.903241
-0.903203
-0.905644
-0.910377
-0.916914
381.082
380.964
380.789
380.567
380.285
379.95
379.565
379.126
378.621
378.066
332.07
331.922
331.727
331.501
331.228
330.909
330.536
330.093
329.578
329.012
283.121
282.9
282.66
282.434
282.172
281.87
281.507
281.059
280.535
279.953
234.216
233.87
233.587
233.364
233.1
232.799
232.435
231.978
231.452
230.863
185.348
184.761
184.416
184.225
183.997
183.695
183.313
182.848
182.331
181.754
136.827
135.881
135.212
134.897
134.627
134.277
133.851
133.339
132.796
132.27
88.9738
87.0213
85.4614
84.6852
84.2507
83.7742
83.1243
82.4061
81.7212
81.3309
42.9412
39.6451
36.499
34.8401
34.1555
33.467
32.6585
31.9827
31.4829
31.2535
9.64038
6.75019
4.36388
3.76626
3.86704
3.76104
3.5029
3.36722
3.31575
3.35871
-0.416369
-0.422614
-0.419858
-0.423888
-0.423395
-0.420441
-0.414552
-0.408666
-0.403527
-0.402061
-0.481478
-0.484971
-0.481009
-0.473717
-0.472101
-0.470335
-0.466742
-0.462487
-0.456534
-0.45014
-0.525216
-0.532624
-0.526351
-0.520311
-0.522487
-0.523572
-0.523728
-0.522762
-0.518624
-0.507645
-0.570942
-0.57322
-0.571043
-0.573884
-0.576491
-0.579785
-0.584435
-0.586442
-0.583971
-0.571124
-0.61558
-0.617027
-0.618138
-0.624979
-0.627474
-0.632248
-0.638451
-0.644466
-0.64452
-0.631859
-0.662489
-0.666961
-0.668178
-0.674541
-0.677929
-0.682841
-0.689024
-0.696232
-0.698756
-0.686496
-0.712256
-0.71772
-0.718609
-0.723378
-0.727114
-0.731912
-0.739092
-0.744512
-0.744833
-0.737879
-0.764021
-0.767111
-0.768348
-0.771133
-0.774293
-0.778884
-0.786034
-0.788126
-0.784736
-0.77928
-0.811342
-0.818413
-0.819332
-0.818964
-0.818795
-0.820787
-0.8242
-0.82509
-0.822805
-0.819617
-0.862552
-0.872842
-0.872894
-0.868204
-0.861479
-0.858039
-0.858835
-0.861953
-0.864824
-0.866957
-0.924949
-0.928114
-0.923159
-0.915467
-0.904696
-0.900219
-0.901464
-0.90614
-0.913779
-0.921999
380.651
380.536
380.361
380.143
379.881
379.573
379.216
378.809
378.345
377.828
331.602
331.456
331.265
331.048
330.793
330.496
330.146
329.733
329.257
328.715
282.554
282.342
282.126
281.908
281.657
281.371
281.038
280.623
280.133
279.553
233.513
233.13
232.896
232.692
232.446
232.164
231.841
231.431
230.945
230.382
184.392
183.85
183.519
183.331
183.099
182.812
182.512
182.145
181.695
181.174
135.644
134.717
134.022
133.597
133.291
132.97
132.66
132.317
131.934
131.55
87.4367
85.5715
83.9933
83.0328
82.3831
81.8257
81.2702
80.823
80.5213
80.4501
41.3476
38.0337
34.7371
32.7232
31.8397
31.1973
30.6634
30.3606
30.3836
30.7011
9.0426
6.24638
3.90255
3.09562
2.9834
2.88321
2.79317
2.80461
2.90719
3.09558
-0.394869
-0.402533
-0.411705
-0.420752
-0.416555
-0.410935
-0.405658
-0.4007
-0.394791
-0.391709
-0.459806
-0.468369
-0.472709
-0.469855
-0.465164
-0.463328
-0.463432
-0.461125
-0.453293
-0.444883
-0.510827
-0.519613
-0.51919
-0.514428
-0.515504
-0.519148
-0.5236
-0.524492
-0.516978
-0.5041
-0.559157
-0.564305
-0.564458
-0.566948
-0.57196
-0.579867
-0.585901
-0.588726
-0.582337
-0.56846
-0.60806
-0.612642
-0.612374
-0.619655
-0.626664
-0.636282
-0.642418
-0.648889
-0.642851
-0.62896
-0.659279
-0.665596
-0.665211
-0.671946
-0.679159
-0.687934
-0.693804
-0.700681
-0.695068
-0.684857
-0.711629
-0.717698
-0.717908
-0.723009
-0.729015
-0.735691
-0.741819
-0.74681
-0.740475
-0.733084
-0.764137
-0.767406
-0.768396
-0.771806
-0.775836
-0.780366
-0.787455
-0.787717
-0.780373
-0.779304
-0.813746
-0.819781
-0.819443
-0.819664
-0.819869
-0.821424
-0.825289
-0.823753
-0.823387
-0.828325
-0.866398
-0.876861
-0.875234
-0.869087
-0.861496
-0.857056
-0.858204
-0.865232
-0.874675
-0.881247
-0.930321
-0.933255
-0.929147
-0.918739
-0.905794
-0.902878
-0.908193
-0.919663
-0.931635
-0.936057
380.301
380.186
380.012
379.799
379.548
379.251
378.907
378.519
378.079
377.515
331.214
331.073
330.878
330.667
330.421
330.133
329.797
329.406
328.953
328.467
282.053
281.851
281.644
281.442
281.201
280.924
280.611
280.226
279.755
279.299
232.784
232.421
232.242
232.068
231.844
231.575
231.283
230.917
230.454
230.06
183.499
182.961
182.627
182.443
182.231
181.965
181.728
181.438
181.05
180.758
134.458
133.506
132.753
132.395
132.041
131.731
131.484
131.248
131.002
130.891
85.8123
84.0205
82.4901
81.3152
80.5645
79.9569
79.4139
79.1086
79.105
79.4529
39.3178
36.1132
32.9791
30.7247
29.5827
28.8575
28.353
28.3569
28.9302
29.7659
8.14072
5.68903
3.40383
2.43448
2.20043
2.09254
2.03434
2.13301
2.3684
2.67847
-0.384335
-0.3881
-0.40727
-0.423965
-0.414042
-0.4056
-0.400573
-0.394717
-0.388988
-0.386886
-0.448331
-0.454098
-0.465499
-0.469223
-0.462611
-0.458469
-0.459422
-0.455815
-0.447016
-0.441931
-0.502471
-0.506106
-0.511356
-0.511155
-0.509716
-0.511124
-0.516534
-0.517376
-0.508294
-0.500711
-0.553086
-0.556327
-0.559105
-0.561477
-0.563997
-0.570026
-0.576506
-0.582512
-0.572838
-0.564701
-0.602094
-0.605478
-0.608773
-0.614077
-0.619886
-0.628694
-0.639077
-0.646286
-0.635709
-0.627119
-0.653691
-0.660469
-0.662831
-0.668258
-0.675214
-0.684675
-0.696698
-0.702125
-0.690503
-0.680813
-0.709154
-0.715889
-0.717199
-0.72172
-0.727778
-0.735265
-0.745461
-0.748282
-0.73695
-0.732095
-0.76086
-0.76346
-0.768078
-0.772138
-0.776054
-0.781516
-0.789582
-0.789319
-0.782245
-0.784406
-0.812031
-0.814515
-0.81833
-0.82039
-0.821073
-0.823494
-0.828618
-0.828659
-0.832197
-0.839029
-0.868044
-0.874523
-0.873103
-0.870266
-0.863553
-0.860154
-0.864632
-0.875685
-0.887945
-0.893337
-0.930081
-0.935299
-0.934516
-0.922193
-0.908522
-0.908414
-0.919694
-0.934677
-0.94431
-0.945551
380.072
379.958
379.783
379.569
379.316
379.016
378.673
378.291
377.857
377.326
330.96
330.833
330.633
330.408
330.158
329.867
329.532
329.149
328.703
328.24
281.722
281.52
281.336
281.119
280.875
280.594
280.28
279.902
279.445
278.983
232.348
231.997
231.797
231.614
231.395
231.123
230.831
230.469
230.028
229.605
182.846
182.321
181.98
181.768
181.549
181.296
181.057
180.762
180.396
180.084
133.47
132.52
131.872
131.45
131.092
130.754
130.465
130.169
129.914
129.85
84.3721
82.7487
81.2282
80.0481
79.2119
78.4177
77.6776
77.2761
77.3205
77.7841
37.4498
34.5239
31.7934
29.4517
27.9416
26.6918
25.8113
26.0059
26.928
28.0017
7.23302
5.2217
3.12515
2.09284
1.71333
1.47231
1.32393
1.4558
1.75302
2.10244
-0.381961
-0.386884
-0.414386
-0.428731
-0.414487
-0.402356
-0.395209
-0.389898
-0.385902
-0.386717
-0.447243
-0.452797
-0.465568
-0.468571
-0.460598
-0.451828
-0.450556
-0.449144
-0.443878
-0.442682
-0.503603
-0.507085
-0.508454
-0.507637
-0.502992
-0.498596
-0.50141
-0.505974
-0.501121
-0.500605
-0.554341
-0.559628
-0.560082
-0.557449
-0.553182
-0.551133
-0.559868
-0.570255
-0.563363
-0.562936
-0.60242
-0.608506
-0.612091
-0.611413
-0.608406
-0.608065
-0.629273
-0.638113
-0.627081
-0.624322
-0.647888
-0.655679
-0.664888
-0.666254
-0.665468
-0.671004
-0.69819
-0.699307
-0.681606
-0.67788
-0.703618
-0.707694
-0.71764
-0.720441
-0.722156
-0.733655
-0.753501
-0.748138
-0.73098
-0.728437
-0.75621
-0.757669
-0.767076
-0.772022
-0.775212
-0.786631
-0.798143
-0.79196
-0.781476
-0.781131
-0.807449
-0.808039
-0.816233
-0.821501
-0.82392
-0.831624
-0.837987
-0.835691
-0.836712
-0.837959
-0.866722
-0.869451
-0.871024
-0.872056
-0.869006
-0.869169
-0.875746
-0.886169
-0.893973
-0.894408
-0.927807
-0.932577
-0.93508
-0.925848
-0.914503
-0.917608
-0.932836
-0.945307
-0.950244
-0.947281
379.996
379.879
379.695
379.467
379.199
378.888
378.533
378.137
377.693
377.203
330.878
330.752
330.534
330.298
330.034
329.73
329.382
328.978
328.525
328.025
281.624
281.464
281.251
280.993
280.728
280.427
280.088
279.682
279.219
278.709
232.182
231.857
231.68
231.468
231.21
230.891
230.548
230.146
229.696
229.215
182.523
182.005
181.738
181.5
181.293
180.955
180.612
180.233
179.817
179.427
132.852
131.909
131.506
131.235
130.807
130.289
129.801
129.308
128.885
128.678
83.4522
81.9778
80.8236
79.9071
78.9951
77.8568
76.6736
75.8293
75.5761
75.8864
36.1677
33.7365
31.6291
29.9071
28.2087
26.1609
24.429
24.0013
24.7303
25.8213
6.50821
4.98724
3.25464
2.30405
1.82331
1.35434
1.01409
0.977902
1.1922
1.50361
-0.376492
-0.394911
-0.425969
-0.427642
-0.41118
-0.398951
-0.395364
-0.394411
-0.394924
-0.395176
-0.450249
-0.4606
-0.470606
-0.465991
-0.451913
-0.444448
-0.447034
-0.452198
-0.453562
-0.454056
-0.508876
-0.513119
-0.508292
-0.499949
-0.491027
-0.489293
-0.49496
-0.502875
-0.505357
-0.509319
-0.561329
-0.566766
-0.560007
-0.549212
-0.541025
-0.538525
-0.552569
-0.560163
-0.56156
-0.56605
-0.610243
-0.615788
-0.613824
-0.604577
-0.594923
-0.595249
-0.622342
-0.625746
-0.620505
-0.624825
-0.65312
-0.658854
-0.66408
-0.659301
-0.653196
-0.667343
-0.699555
-0.688138
-0.672324
-0.675171
-0.697458
-0.702637
-0.710222
-0.713611
-0.71534
-0.743968
-0.762754
-0.741218
-0.719849
-0.721602
-0.75293
-0.749771
-0.758102
-0.766969
-0.777581
-0.806121
-0.812396
-0.789142
-0.77032
-0.770306
-0.804472
-0.799564
-0.811101
-0.820798
-0.831721
-0.850473
-0.853012
-0.837881
-0.829365
-0.829032
-0.863382
-0.861579
-0.868281
-0.873995
-0.879409
-0.886012
-0.889549
-0.891696
-0.8922
-0.889679
-0.930406
-0.929327
-0.929706
-0.929741
-0.924948
-0.930424
-0.945337
-0.95254
-0.951757
-0.94617
380.077
379.956
379.762
379.519
379.227
378.889
378.51
378.086
377.606
377.111
330.967
330.824
330.612
330.362
330.071
329.74
329.363
328.931
328.439
327.949
281.747
281.588
281.351
281.078
280.779
280.446
280.065
279.624
279.137
278.62
232.312
231.99
231.82
231.592
231.28
230.907
230.498
230.048
229.572
229.067
182.605
182.077
181.893
181.731
181.407
180.971
180.513
180.043
179.566
179.122
132.826
132.019
131.693
131.523
131.083
130.407
129.691
128.992
128.384
128.031
83.3265
81.8593
80.9628
80.4064
79.5591
78.226
76.6448
75.3132
74.5886
74.5948
35.5944
33.4684
31.6228
30.7575
29.3558
27.0848
24.5869
23.1437
23.1146
23.9777
5.96117
4.76384
3.38056
2.6358
2.21591
1.63415
1.0733
0.814575
0.855572
1.08574
-0.366652
-0.396669
-0.423722
-0.423885
-0.413729
-0.40736
-0.405856
-0.406719
-0.407895
-0.406333
-0.450326
-0.467095
-0.471244
-0.465952
-0.454438
-0.450613
-0.454183
-0.459522
-0.465516
-0.468551
-0.509513
-0.515234
-0.5095
-0.504914
-0.497712
-0.496333
-0.5032
-0.506308
-0.515198
-0.525855
-0.560327
-0.565682
-0.559934
-0.552861
-0.545207
-0.54377
-0.55638
-0.557284
-0.565857
-0.578462
-0.60654
-0.614485
-0.612219
-0.604949
-0.597036
-0.598576
-0.615632
-0.615439
-0.62008
-0.631717
-0.649307
-0.658123
-0.661006
-0.657984
-0.653354
-0.667715
-0.6818
-0.67358
-0.670359
-0.679626
-0.6915
-0.698996
-0.707827
-0.712566
-0.718552
-0.746338
-0.752076
-0.724852
-0.71168
-0.72184
-0.741073
-0.741721
-0.754978
-0.769124
-0.78782
-0.821416
-0.814095
-0.773793
-0.755131
-0.766146
-0.802297
-0.792501
-0.807916
-0.825766
-0.850394
-0.872812
-0.861417
-0.82939
-0.812394
-0.821258
-0.863512
-0.85535
-0.867793
-0.880014
-0.896744
-0.907882
-0.903797
-0.890374
-0.881762
-0.881581
-0.926943
-0.92393
-0.927594
-0.933173
-0.938621
-0.945395
-0.954481
-0.955232
-0.948242
-0.944618
380.311
380.177
379.971
379.721
379.4
379.023
378.598
378.128
377.61
377.079
331.223
331.06
330.84
330.581
330.261
329.891
329.468
328.989
328.462
327.917
282.078
281.873
281.596
281.31
281
280.635
280.204
279.706
279.17
278.61
232.753
232.401
232.191
231.904
231.574
231.166
230.692
230.165
229.615
229.051
183.144
182.601
182.438
182.211
181.829
181.346
180.795
180.215
179.627
179.072
133.43
132.683
132.432
132.254
131.811
131.101
130.246
129.37
128.579
128.002
83.9812
82.6243
81.8396
81.4094
80.7119
79.4877
77.8394
76.2097
75.027
74.5114
35.7658
33.9443
32.3086
31.6564
30.7379
29.0065
26.5599
24.4505
23.421
23.4521
5.69904
4.70066
3.50011
2.79319
2.59638
2.19874
1.58494
1.13614
0.974088
1.02104
-0.350564
-0.391315
-0.422674
-0.433576
-0.427791
-0.420271
-0.41609
-0.414977
-0.412778
-0.409223
-0.447951
-0.473485
-0.486445
-0.488228
-0.47584
-0.465038
-0.461054
-0.461777
-0.468111
-0.473279
-0.509321
-0.526323
-0.536026
-0.53279
-0.516666
-0.50984
-0.510282
-0.509164
-0.519343
-0.531242
-0.562695
-0.580052
-0.584924
-0.57206
-0.558392
-0.555362
-0.560755
-0.56136
-0.572763
-0.587021
-0.613683
-0.628985
-0.628321
-0.615941
-0.605218
-0.605935
-0.611374
-0.615909
-0.62918
-0.63954
-0.656886
-0.670045
-0.671837
-0.664393
-0.660903
-0.661061
-0.665618
-0.667723
-0.677483
-0.685042
-0.696928
-0.707699
-0.71697
-0.718998
-0.719766
-0.726165
-0.724444
-0.715863
-0.717669
-0.727035
-0.741368
-0.747667
-0.762877
-0.77434
-0.787286
-0.800982
-0.789277
-0.761112
-0.756902
-0.772431
-0.797872
-0.794879
-0.812432
-0.832422
-0.854921
-0.874654
-0.850555
-0.813134
-0.807356
-0.825627
-0.863981
-0.853605
-0.869628
-0.887979
-0.909487
-0.921563
-0.905118
-0.879189
-0.872585
-0.886125
-0.925487
-0.918844
-0.926913
-0.93788
-0.950776
-0.957513
-0.957058
-0.949583
-0.943054
-0.948974
380.666
380.501
380.285
380.043
379.695
379.275
378.804
378.279
377.718
377.151
331.612
331.393
331.147
330.9
330.578
330.167
329.695
329.159
328.581
327.991
282.551
282.25
281.908
281.614
281.325
280.955
280.488
279.925
279.317
278.695
233.431
233.034
232.697
232.361
232.024
231.615
231.097
230.481
229.828
229.179
184.113
183.516
183.33
182.975
182.538
182.005
181.386
180.685
179.951
179.268
134.478
133.881
133.723
133.415
132.907
132.193
131.281
130.279
129.322
128.539
85.2419
84.1469
83.3888
82.8194
82.2125
81.2359
79.8007
78.1755
76.7742
75.8293
36.6711
35.3423
33.7659
32.7175
32.2169
31.126
29.2915
27.2474
25.7106
24.9539
5.70106
5.00974
3.9049
3.00495
2.78452
2.67781
2.2915
1.80124
1.48692
1.36359
-0.325991
-0.387947
-0.428607
-0.446158
-0.442804
-0.429909
-0.420515
-0.416404
-0.411756
-0.407665
-0.444998
-0.486272
-0.507486
-0.510611
-0.4964
-0.476566
-0.465576
-0.463294
-0.465818
-0.466775
-0.510481
-0.535958
-0.551871
-0.548152
-0.530453
-0.518952
-0.512624
-0.512993
-0.522045
-0.527965
-0.567434
-0.589175
-0.597322
-0.584679
-0.570543
-0.566333
-0.566318
-0.565804
-0.576708
-0.586335
-0.622404
-0.64665
-0.64564
-0.628466
-0.618263
-0.615148
-0.615419
-0.621054
-0.632997
-0.637422
-0.670293
-0.691128
-0.690096
-0.678928
-0.670988
-0.65988
-0.662636
-0.675859
-0.682412
-0.682903
-0.710917
-0.727775
-0.73235
-0.729505
-0.720925
-0.71239
-0.71298
-0.718841
-0.72458
-0.728116
-0.753743
-0.764265
-0.776466
-0.780311
-0.778943
-0.774366
-0.767102
-0.759759
-0.767458
-0.778781
-0.804827
-0.806863
-0.82237
-0.834828
-0.842819
-0.843759
-0.829167
-0.808917
-0.816942
-0.832796
-0.865864
-0.856375
-0.872751
-0.888435
-0.904174
-0.911839
-0.89123
-0.870552
-0.875295
-0.892279
-0.91954
-0.914414
-0.924514
-0.939338
-0.952277
-0.956612
-0.948687
-0.937923
-0.943051
-0.952823
381.081
380.849
380.665
380.499
380.115
379.624
379.108
378.528
377.921
377.316
332.048
331.705
331.472
331.357
331.017
330.547
330.031
329.435
328.806
328.173
283.093
282.686
282.269
282.079
281.754
281.375
280.899
280.276
279.598
278.917
234.266
233.832
233.425
233.087
232.659
232.212
231.683
230.983
230.233
229.5
185.335
184.815
184.633
184.171
183.562
182.92
182.209
181.414
180.554
179.747
136.067
135.595
135.558
135.118
134.428
133.6
132.62
131.499
130.398
129.436
87.0165
86.3129
85.7971
85.097
84.2687
83.2443
81.9359
80.4229
78.9697
77.7706
38.3909
37.5944
36.4617
35.2341
34.2799
33.3645
31.8414
30.1433
28.5761
27.3819
6.17302
5.77506
4.92467
3.93042
3.31124
2.96886
2.71412
2.38967
2.06367
1.80799
-0.289877
-0.371136
-0.424369
-0.454408
-0.45685
-0.438859
-0.41897
-0.417011
-0.415072
-0.413383
-0.443723
-0.490527
-0.514416
-0.519164
-0.505708
-0.485931
-0.468977
-0.463783
-0.465003
-0.464683
-0.509573
-0.530787
-0.545633
-0.548593
-0.538104
-0.526898
-0.517433
-0.514385
-0.521377
-0.522816
-0.563029
-0.577677
-0.589031
-0.587554
-0.578393
-0.574454
-0.570404
-0.563733
-0.575748
-0.581432
-0.620589
-0.639223
-0.644946
-0.6347
-0.624542
-0.621329
-0.621671
-0.618263
-0.62823
-0.63471
-0.674236
-0.697032
-0.699986
-0.686226
-0.675723
-0.667171
-0.669
-0.676833
-0.679191
-0.68131
-0.71909
-0.743585
-0.74884
-0.739392
-0.727629
-0.713285
-0.712643
-0.722737
-0.725554
-0.728907
-0.761927
-0.78172
-0.793697
-0.791553
-0.780946
-0.766129
-0.761893
-0.764993
-0.772591
-0.783092
-0.806664
-0.81963
-0.83703
-0.843083
-0.837594
-0.824936
-0.812775
-0.811418
-0.821246
-0.837977
-0.853817
-0.862328
-0.878558
-0.894554
-0.895252
-0.886353
-0.872106
-0.866646
-0.879409
-0.895218
-0.90176
-0.906896
-0.920906
-0.937851
-0.944192
-0.943203
-0.93436
-0.928916
-0.940607
-0.952792
381.481
381.172
381.106
381.032
380.564
380.021
379.464
378.841
378.191
377.547
332.473
332.076
331.878
331.852
331.454
330.957
330.433
329.793
329.114
328.439
283.709
283.256
282.945
282.768
282.273
281.857
281.396
280.735
280
279.264
235.232
234.729
234.448
234.105
233.47
232.935
232.383
231.641
230.817
229.99
186.718
186.328