/*--------------------------------*- C++ -*----------------------------------*\
| =========                 |                                                 |
| \\      /  F ield         | OpenFOAM: The Open Source CFD Toolbox           |
|  \\    /   O peration     | Version:  2312                                  |
|   \\  /    A nd           | Website:  www.openfoam.com                      |
|    \\/     M anipulation  |                                                 |
\*---------------------------------------------------------------------------*/
FoamFile
{
    version     2.0;
    format      ascii;
    arch        "LSB;label=32;scalar=64";
    class       volScalarField;
    location    "1.48";
    object      p_rgh;
}
// * * * * * * * * * * * * * * * * * * * * * * * * * * * * * * * * * * * * * //

dimensions      [1 -1 -2 0 0 0 0];

internalField   nonuniform List<scalar> 
8000
(
407.867
407.738
407.571
407.377
407.061
406.605
406.027
405.344
404.568
403.719
408.108
407.94
407.691
407.436
407.156
406.755
406.193
405.495
404.697
403.825
408.621
408.553
408.239
407.909
407.512
407.078
406.516
405.791
404.941
403.982
409.393
409.37
409.09
408.77
408.261
407.681
407.024
406.206
405.264
404.239
410.312
410.395
410.198
409.862
409.316
408.603
407.814
406.886
405.804
404.695
411.402
411.691
411.574
411.313
410.752
409.903
408.923
407.831
406.616
405.394
411.607
412.339
412.884
413.131
412.733
411.814
410.693
409.46
408.111
406.53
378.176
383.737
389.578
393.982
392.63
386.836
383.113
384.704
387.046
387.166
133.478
155.741
191.433
212.918
215.179
207.753
201.235
193.906
182.547
164.179
1.6374
1.93665
4.38142
6.79387
6.66446
4.99584
3.42471
1.95551
0.763509
0.186655
0.500953
0.568663
0.395158
0.318646
0.237682
0.141708
0.0817883
0.0688923
0.0844303
0.0839396
0.292114
0.416172
0.185261
0.106089
0.0736664
0.0572841
0.0570194
0.0706989
0.117882
0.211781
0.243936
0.419408
0.161385
0.0809581
0.0664553
0.0652211
0.0686935
0.100136
0.156444
0.15537
0.21044
0.398305
0.334699
0.0708089
0.0666969
0.0745325
0.0774433
0.133902
0.0807211
0.0550275
0.206211
0.413578
0.410077
0.163174
0.0671255
0.0821319
0.147084
0.05631
0.0523058
0.051176
0.35418
0.431579
0.419395
0.144655
0.0664679
0.0971093
0.0712376
0.0505397
0.0482102
0.0490959
0.45589
0.449604
0.400946
0.102841
0.0553228
0.0560805
0.0541515
0.0515079
0.0460357
0.0469144
0.47867
0.473298
0.133417
0.0913707
0.0567123
0.0530777
0.0811897
0.0900374
0.0405541
0.0441989
0.503888
0.498315
0.133315
0.104405
0.101194
0.0604841
0.128322
0.125671
0.0688644
0.0412812
0.525532
0.381814
0.142732
0.0945703
0.0532699
0.0551219
0.130103
0.124585
0.0763159
0.0598042
407.703
407.527
407.302
407.057
406.82
406.436
405.895
405.229
404.468
403.635
407.916
407.606
407.304
407.014
406.812
406.527
406.033
405.36
404.575
403.725
408.494
408.264
407.865
407.484
407.185
406.824
406.317
405.625
404.791
403.864
409.164
409.091
408.844
408.426
407.94
407.398
406.79
405.993
405.01
404
409.926
410.136
410.091
409.598
408.959
408.246
407.479
406.539
405.42
404.298
411.006
411.345
411.286
410.878
410.166
409.275
408.321
407.262
406.05
404.824
411.528
412.04
412.39
412.299
411.638
410.597
409.404
408.116
406.749
405.281
380.995
384.51
390.591
393.241
390.047
384.892
382.651
383.976
386.53
387.339
147.023
164.008
182.746
189.22
179.058
165.284
156.013
148.853
141.769
130.802
1.82606
2.1552
2.65793
2.62856
1.65138
0.799003
0.327541
0.16724
0.0420046
0.0438309
0.455198
0.361396
0.293576
0.25688
0.144342
0.0496418
0.0283604
0.0389641
0.0531951
0.0570529
0.216917
0.193166
0.141323
0.0931143
0.0609359
0.0401011
0.0481732
0.0673017
0.0912482
0.0996757
0.173078
0.170243
0.117933
0.0668876
0.0611279
0.0607592
0.0646085
0.0774533
0.0776342
0.0633169
0.200265
0.371678
0.131235
0.0560873
0.0679503
0.0778366
0.109909
0.155253
0.0653651
0.0657343
0.303504
0.395797
0.358924
0.0756816
0.0732089
0.0950965
0.182004
0.109226
0.0620771
0.0659529
0.216825
0.41177
0.354113
0.0683832
0.0833654
0.18856
0.173639
0.0725011
0.0550827
0.0469508
0.164561
0.17398
0.155282
0.0646178
0.0736504
0.142293
0.113688
0.0749383
0.0354907
0.0405738
0.210779
0.110745
0.0933752
0.0560512
0.0544447
0.0467091
0.0895524
0.0964506
0.0391185
0.0368939
0.503659
0.173188
0.0706351
0.103215
0.0653229
0.0747918
0.115893
0.0961858
0.0261606
0.0315941
0.526228
0.198874
0.0912752
0.100561
0.0500629
0.0516782
0.112213
0.107994
0.0342921
0.0254568
407.478
407.288
407.192
406.94
406.586
406.19
405.695
405.049
404.314
403.513
407.625
407.309
407.192
406.747
406.419
406.191
405.8
405.157
404.401
403.574
408.203
407.791
407.688
407.143
406.682
406.412
406.011
405.378
404.592
403.704
408.881
408.614
408.575
408.058
407.453
406.938
406.419
405.712
404.821
403.846
409.626
409.629
409.596
409.121
408.407
407.698
406.988
406.138
405.11
403.999
410.613
410.654
410.452
409.982
409.279
408.484
407.645
406.669
405.521
404.337
411.461
411.347
411.13
410.761
410.043
409.054
407.912
406.643
405.359
403.95
384.369
384.142
386.838
388.329
387.282
387.869
388.346
388.328
388.47
387.781
163.033
166.432
164.382
156.056
139.373
123.638
112.597
106.131
101.233
94.9798
2.15945
1.92286
1.18007
0.606887
0.315668
0.121909
0.00802658
0.0225763
0.029664
0.0334575
0.329985
0.25852
0.215453
0.129635
0.0197413
0.00631608
0.0148813
0.0293245
0.0453231
0.0501337
0.138733
0.11021
0.0844023
0.0575751
0.0301157
0.0292174
0.042543
0.0794308
0.130684
0.111763
0.111501
0.0852812
0.0600188
0.0495655
0.0479472
0.0504009
0.0929878
0.150254
0.153452
0.157981
0.130552
0.0799249
0.0494704
0.0490214
0.0615941
0.0730263
0.16455
0.158179
0.15885
0.161768
0.258862
0.262461
0.103338
0.0542292
0.0678215
0.15125
0.165292
0.160124
0.160589
0.147226
0.30281
0.321104
0.145235
0.0509669
0.0832825
0.174618
0.161935
0.159107
0.0955252
0.0538938
0.165343
0.141512
0.0849068
0.0690626
0.180153
0.169819
0.161446
0.0742897
0.0276113
0.0349213
0.0525509
0.107353
0.0524965
0.0694675
0.12667
0.0903451
0.125091
0.0230435
0.0253667
0.0351815
0.102571
0.132675
0.050633
0.0572368
0.0468227
0.0478275
0.0576572
0.0326685
0.0236717
0.0393036
0.523015
0.117913
0.0513651
0.0755051
0.0482614
0.0393196
0.0474551
0.0415317
0.0189369
0.0350703
407.28
407.042
407.113
406.946
406.433
405.944
405.454
404.829
404.129
403.371
407.303
407.002
406.988
406.748
406.302
405.911
405.522
404.918
404.203
403.423
407.781
407.369
407.308
406.951
406.406
406.05
405.697
405.108
404.371
403.536
408.522
408.117
408.004
407.624
406.962
406.457
406.023
405.394
404.599
403.685
409.318
408.993
408.797
408.396
407.722
407.056
406.446
405.709
404.803
403.81
410.188
409.803
409.363
408.914
408.322
407.677
406.965
406.116
405.073
403.869
411.264
410.412
409.579
409.012
408.344
407.534
406.62
405.649
404.571
403.3
385.355
380.073
379.183
382.899
388.115
390.117
388.45
386.601
384.548
381.617
172.928
162.178
140.476
122.689
108.339
98.6066
92.0955
88.8036
86.1525
81.3156
2.1415
1.39392
0.529968
0.181327
0.0137016
0.00436291
0.0149442
0.0230141
0.0348212
0.0398907
0.212709
0.203495
0.116544
0.0258017
0.00792951
0.0120969
0.0242242
0.0316738
0.0456459
0.0747025
0.078961
0.0683601
0.0502978
0.0258487
0.074327
0.0723023
0.0982379
0.114889
0.129713
0.143269
0.0670421
0.0500857
0.0460681
0.0397919
0.0462341
0.0822957
0.137466
0.137947
0.141576
0.148997
0.0771318
0.0451491
0.0462502
0.0467923
0.0491093
0.124632
0.146685
0.143183
0.146465
0.154391
0.147353
0.0464225
0.0443722
0.0477001
0.0562549
0.159317
0.149026
0.102522
0.0957784
0.156194
0.234449
0.0625284
0.0591681
0.0449841
0.0594357
0.160523
0.134814
0.0661014
0.0638183
0.0892148
0.1337
0.0633436
0.0625727
0.073926
0.156751
0.164872
0.105014
0.0270902
0.0207609
0.0303693
0.0543391
0.0593232
0.0491538
0.127286
0.180382
0.172934
0.0923528
0.0229699
0.0210214
0.0432651
0.109049
0.0783197
0.0497258
0.0693727
0.0843495
0.0531266
0.0564365
0.0299461
0.0249011
0.0467648
0.519304
0.0713412
0.0480084
0.045277
0.042507
0.0388946
0.0348644
0.0316576
0.0267441
0.0285641
406.978
406.729
406.702
406.581
406.13
405.651
405.159
404.568
403.911
403.205
407.005
406.66
406.509
406.463
406.071
405.665
405.224
404.646
403.979
403.25
407.307
406.909
406.61
406.514
406.091
405.764
405.38
404.81
404.119
403.342
407.915
407.503
407.183
406.904
406.443
406.035
405.627
405.035
404.301
403.47
408.666
408.173
407.797
407.441
406.932
406.42
405.912
405.279
404.484
403.573
409.483
408.78
408.167
407.767
407.339
406.881
406.326
405.526
404.58
403.525
410.76
409.315
408.046
407.324
406.814
406.338
405.85
405.07
403.969
402.761
384.928
375.185
376.849
387.894
391.034
389.183
386.009
381.739
377.614
373.727
175.478
152.467
116.444
97.4621
91.1626
90.3504
92.1018
90.1924
85.7837
80.0261
1.68698
0.748045
0.216701
-0.00266444
0.00567205
0.0167758
0.0288976
0.0332416
0.0384499
0.0422023
0.115857
0.138656
0.0310313
0.00337439
0.020856
0.0505565
0.0397821
0.0344878
0.0430634
0.0655155
0.042818
0.0487837
0.0311306
0.0289602
0.0924297
0.115441
0.123216
0.0617875
0.0504777
0.0768258
0.041331
0.0398414
0.0414797
0.0433209
0.0421176
0.112837
0.133629
0.0822777
0.0424795
0.0457579
0.0433311
0.0418762
0.0455508
0.0433506
0.045191
0.104901
0.116838
0.0472804
0.0339709
0.0432442
0.0561235
0.0438189
0.0451423
0.0437056
0.0454462
0.077859
0.0745755
0.0265545
0.0364343
0.0958047
0.0829617
0.0437255
0.0447612
0.0440068
0.0421864
0.0632717
0.0320612
0.0245436
0.0384915
0.13311
0.0707302
0.0518961
0.0727997
0.0566346
0.0512399
0.0835143
0.0269414
0.0226973
0.0207923
0.0320706
0.0556205
0.0549178
0.0817408
0.130711
0.132057
0.108577
0.0304299
0.0240843
0.0213812
0.0239548
0.0973773
0.0518728
0.0649442
0.120423
0.131916
0.0854338
0.0375592
0.0316771
0.0265455
0.0278675
0.466604
0.0471294
0.0470916
0.0588196
0.0622385
0.0485595
0.0442496
0.0395713
0.0325233
0.0316855
406.56
406.389
406.224
406.021
405.681
405.28
404.817
404.274
403.669
403.015
406.627
406.37
406.144
405.986
405.679
405.314
404.876
404.343
403.728
403.054
406.842
406.499
406.162
405.992
405.727
405.412
405.011
404.476
403.838
403.126
407.266
406.877
406.452
406.217
405.927
405.592
405.182
404.627
403.963
403.216
407.885
407.277
406.823
406.512
406.191
405.821
405.392
404.797
404.076
403.276
408.61
407.727
407.027
406.686
406.457
406.123
405.6
404.883
404.036
403.16
410.023
408.218
406.642
405.891
405.683
405.558
405.081
404.178
403.056
401.983
387.222
377.716
385.93
390.646
389.208
386.054
381.771
376.409
371.616
368.024
176.491
143.442
99.95
84.3568
88.1576
93.8508
93.8487
88.104
82.1697
77.3031
1.17577
0.394607
0.0326664
0.0153663
0.0280347
0.0328731
0.0353339
0.0386839
0.043576
0.0454348
0.054456
0.0847331
0.0151667
0.0168318
0.0337996
0.0546106
0.041421
0.0401658
0.0456559
0.0491928
0.0292704
0.0358347
0.0283637
0.0331628
0.0547852
0.0876244
0.0611812
0.0395554
0.0445257
0.0475675
0.0352485
0.0355901
0.0394071
0.0434084
0.0396989
0.0567045
0.0570773
0.0348307
0.0361461
0.0402978
0.0416201
0.0410559
0.0426705
0.0455045
0.0420918
0.0430464
0.0361812
0.0307069
0.030776
0.0361723
0.0472329
0.0440061
0.0435845
0.0414189
0.0445734
0.0332985
0.0286232
0.0266345
0.0274639
0.0344167
0.0492903
0.0446436
0.0441321
0.0428983
0.0439622
0.0312157
0.0259701
0.0243989
0.043317
0.100992
0.0509011
0.0456863
0.065241
0.0474402
0.0410919
0.0306712
0.0257586
0.0241412
0.046088
0.134456
0.0551663
0.0589161
0.0993652
0.0800951
0.0433133
0.0340894
0.0302359
0.0276535
0.0253156
0.0253639
0.113141
0.0561078
0.0918677
0.118122
0.062505
0.0505406
0.03908
0.0362608
0.0322559
0.0316594
0.461217
0.0435751
0.0514983
0.073041
0.0704518
0.0532693
0.0475327
0.0444893
0.0396348
0.0359564
406.084
405.954
405.777
405.555
405.249
404.881
404.455
403.965
403.41
402.809
406.151
405.98
405.766
405.542
405.256
404.909
404.502
404.016
403.453
402.836
406.321
406.067
405.784
405.56
405.298
404.985
404.593
404.1
403.524
402.885
406.603
406.249
405.898
405.651
405.384
405.069
404.676
404.17
403.58
402.925
407.022
406.393
405.982
405.746
405.492
405.193
404.773
404.226
403.608
402.939
407.681
406.709
406.013
405.751
405.558
405.219
404.721
404.067
403.359
402.673
409.045
407.112
405.437
404.802
404.642
404.351
403.727
402.794
401.81
401.009
391.657
385.386
388.129
386.685
382.205
378.705
373.879
367.699
363.242
361.351
175.811
135.068
91.6615
80.1147
86.9055
89.163
84.9464
77.7327
72.8276
70.8183
0.474222
0.241283
0.0410202
0.0342224
0.0375682
0.0387777
0.0414932
0.0471479
0.0526023
0.052958
0.0343632
0.036453
0.0246258
0.030592
0.0356915
0.0393041
0.0422306
0.0474409
0.0529475
0.0561348
0.0316823
0.0293513
0.0323698
0.0349918
0.0352798
0.0380397
0.0399879
0.0427316
0.047605
0.0549991
0.0369219
0.0356593
0.0391362
0.0362953
0.036251
0.0371004
0.0350527
0.0327369
0.0415371
0.0628045
0.0436768
0.0421722
0.0415471
0.0406386
0.0385071
0.0372079
0.0319726
0.0257159
0.0345416
0.054975
0.0969906
0.0438931
0.0424197
0.0389713
0.0393026
0.0352119
0.0288264
0.0223168
0.0288066
0.0634617
0.114463
0.0437755
0.0427225
0.039766
0.0397513
0.0331251
0.0262155
0.0229297
0.0440059
0.120245
0.0574587
0.0553474
0.0487872
0.0451119
0.0396893
0.0331488
0.0269828
0.024353
0.0371758
0.106033
0.0535143
0.0586097
0.0997482
0.0707638
0.0416043
0.0378248
0.0345774
0.0326184
0.0313364
0.031993
0.149189
0.0510026
0.0731354
0.0675459
0.0459336
0.0465764
0.0459456
0.0428608
0.0399966
0.0389006
0.447863
0.0372191
0.0415469
0.0522913
0.0527083
0.0546288
0.0546595
0.0522168
0.0684404
0.0445898
405.607
405.489
405.314
405.092
404.81
404.475
404.09
403.651
403.146
402.591
405.645
405.497
405.302
405.076
404.803
404.484
404.111
403.667
403.153
402.587
405.746
405.525
405.285
405.059
404.797
404.495
404.132
403.683
403.16
402.578
405.891
405.545
405.262
405.039
404.775
404.474
404.11
403.652
403.124
402.538
406.073
405.486
405.141
404.95
404.722
404.42
404.038
403.572
403.054
402.478
406.602
405.656
404.987
404.672
404.402
404.052
403.626
403.114
402.568
402.043
407.799
405.846
404.286
403.51
403.075
402.593
401.933
401.202
400.506
400.118
391.118
385.599
383.088
376.545
371.241
367.044
361.817
358.319
356.483
356.936
171.551
127.317
86.4223
74.9464
75.7885
73.7624
69.2391
66.816
65.8956
66.6427
0.156327
0.0440575
0.0468139
0.0427841
0.0432762
0.0462304
0.0521318
0.0580257
0.0631787
0.06467
0.0928284
0.0408228
0.0594807
0.0420804
0.043696
0.0454679
0.0490744
0.0533541
0.0593877
0.0661486
0.110369
0.0334687
0.044727
0.0446581
0.0424276
0.0413484
0.0412493
0.0427741
0.0751321
0.123573
0.105369
0.0409023
0.0430137
0.0401633
0.0375298
0.0342425
0.0296461
0.0314206
0.125421
0.166587
0.0796083
0.0461389
0.0450189
0.0381696
0.0356636
0.0308889
0.0246956
0.0286422
0.136117
0.163535
0.105602
0.0453181
0.0440961
0.0377582
0.0343269
0.0294124
0.0232346
0.0263989
0.0634739
0.166222
0.147691
0.0525931
0.0427773
0.0380004
0.0342615
0.029461
0.02522
0.0213162
0.021009
0.0908948
0.0818359
0.0785982
0.0422249
0.0393723
0.0362022
0.0316104
0.0252606
0.0223679
0.0257992
0.0312859
0.0523835
0.0470995
0.0997808
0.0774847
0.046155
0.0388316
0.0354146
0.0345204
0.0368093
0.0400197
0.346156
0.0367627
0.0593626
0.0776978
0.0669828
0.0509708
0.049907
0.0468155
0.0488426
0.0423439
0.31591
0.0304735
0.0355136
0.045718
0.0566499
0.0579945
0.0564818
0.0534974
0.104457
0.0418255
405.176
405.061
404.886
404.668
404.406
404.098
403.741
403.334
402.87
402.352
405.177
405.031
404.84
404.623
404.368
404.071
403.721
403.308
402.831
402.288
405.179
404.967
404.751
404.533
404.282
403.996
403.663
403.247
402.757
402.159
405.188
404.805
404.571
404.367
404.121
403.839
403.516
403.106
402.614
401.994
405.117
404.575
404.244
404.056
403.824
403.537
403.237
402.87
402.409
401.799
405.419
404.492
403.797
403.372
403.066
402.745
402.434
402.091
401.695
401.27
406.262
404.396
402.818
401.858
401.204
400.637
400.065
399.601
399.276
399.162
384.666
376.44
370.961
362.768
357.465
353.096
349.491
348.163
349.158
352.205
161.387
117.687
77.5492
62.5838
60.0178
57.9868
56.2394
56.378
58.1558
61.4322
0.102374
0.0641331
0.0549672
0.0459194
0.0501145
0.0557331
0.0610131
0.0659849
0.0719902
0.0752843
0.124373
0.0685961
0.0644009
0.0462629
0.050624
0.0524586
0.0523699
0.0547209
0.0659509
0.0961627
0.145256
0.0926466
0.0548935
0.0504866
0.0493948
0.0457537
0.041321
0.0419629
0.125278
0.174594
0.154532
0.0887086
0.0496199
0.0470729
0.0420564
0.0341492
0.0281269
0.0433862
0.156107
0.170105
0.162124
0.0636962
0.0507885
0.0434831
0.036471
0.0268497
0.0207193
0.0463493
0.15479
0.167767
0.0558248
0.0466932
0.0470583
0.0403451
0.0330935
0.0243188
0.0184488
0.0305827
0.129873
0.0777056
0.148317
0.0438516
0.0434709
0.0383661
0.0323583
0.0256821
0.0215871
0.0207022
0.0213826
0.0285537
0.0887804
0.0698634
0.0432839
0.0386893
0.0346579
0.0301279
0.0232992
0.0234435
0.0303697
0.0313028
0.055847
0.0497272
0.101303
0.0668447
0.0401693
0.0381908
0.0343457
0.0485977
0.039705
0.0314309
0.357512
0.188066
0.077603
0.0863695
0.0680059
0.0517192
0.0537414
0.0579632
0.038484
0.0278869
0.107723
0.0255177
0.0331702
0.0578719
0.0674409
0.0617265
0.0631694
0.0508445
0.0273973
0.0229527
404.826
404.711
404.537
404.324
404.073
403.776
403.432
403.044
402.603
401.934
404.789
404.648
404.453
404.242
403.996
403.708
403.372
402.981
402.525
401.73
404.678
404.476
404.269
404.067
403.826
403.549
403.236
402.851
402.37
401.404
404.459
404.096
403.917
403.743
403.519
403.25
402.958
402.592
402.099
401.008
404.224
403.686
403.352
403.168
402.956
402.69
402.453
402.163
401.719
400.56
404.233
403.281
402.528
402.17
401.816
401.505
401.259
401.022
400.713
400.037
404.637
402.845
401.315
400.139
399.382
398.758
398.191
397.863
397.785
397.763
371.649
359.363
356.522
348.816
342.743
337.505
333.973
334.737
339.518
345.564
146.539
107.352
68.1573
50.7246
45.9598
43.6617
42.4607
44.1629
48.3025
53.7526
0.143756
0.109146
0.0593635
0.0427046
0.0526264
0.0610641
0.0660948
0.071977
0.0779322
0.0807533
0.127266
0.0778577
0.0508257
0.0466898
0.0531757
0.0573122
0.0563642
0.0600688
0.0728576
0.0920659
0.152346
0.147839
0.0808596
0.053802
0.0551874
0.0537758
0.0483699
0.0714193
0.146514
0.177757
0.154407
0.1466
0.0776362
0.0525854
0.0500229
0.0439925
0.038639
0.12034
0.166475
0.17372
0.163179
0.182933
0.0914826
0.049086
0.0432523
0.0344416
0.0366332
0.133553
0.161786
0.102639
0.208577
0.198056
0.105288
0.0440169
0.0370423
0.0275775
0.0282533
0.0577698
0.0619977
0.0319024
0.111295
0.0887466
0.0861475
0.041886
0.0335977
0.0261088
0.0203905
0.0137066
0.0249183
0.0297201
0.0629595
0.0537579
0.0461346
0.0386909
0.0344415
0.028978
0.0209129
0.0225864
0.0287427
0.0264948
0.0585306
0.292506
0.077655
0.0395913
0.0393805
0.0361805
0.031018
0.0462877
0.0305548
0.0209751
0.358921
0.364744
0.213967
0.0643572
0.0459103
0.0486445
0.0460977
0.0478169
0.0225397
0.0159842
0.184672
0.22151
0.0628849
0.0685725
0.0552694
0.0507975
0.0446999
0.0249331
0.0147591
0.0132511
404.597
404.483
404.308
404.094
403.841
403.541
403.198
402.816
402.381
401.744
404.535
404.408
404.208
403.983
403.733
403.442
403.107
402.724
402.276
401.534
404.347
404.145
403.961
403.744
403.5
403.219
402.905
402.526
402.069
401.343
404.023
403.672
403.472
403.289
403.07
402.798
402.506
402.144
401.702
400.963
403.571
403.046
402.705
402.493
402.273
402.02
401.782
401.487
401.12
400.438
403.245
402.295
401.647
401.225
400.867
400.528
400.239
399.942
399.684
399.506
403.197
401.574
400.053
398.871
398.025
397.211
396.437
396.01
396.054
396.403
357.763
346.055
344.764
338.656
330.987
322.368
316.079
318.615
326.138
334.366
131.864
98.8285
62.4044
44.4329
37.0622
32.3944
29.5187
31.8556
37.1624
43.4389
0.12806
0.130243
0.0521652
0.0379431
0.0521831
0.0643124
0.0714701
0.0769663
0.0817708
0.0816199
0.0779589
0.0840891
0.0515066
0.0479633
0.0551976
0.0639585
0.0666392
0.0851839
0.0873427
0.0808378
0.0701803
0.0849282
0.0787098
0.0612994
0.0621396
0.0663071
0.084846
0.175463
0.180441
0.162976
0.0680022
0.0691965
0.0743146
0.0629495
0.0608546
0.0628881
0.122044
0.170322
0.177312
0.174037
0.103453
0.0795862
0.0676584
0.054781
0.054784
0.0550751
0.136415
0.160962
0.110281
0.0590809
0.246701
0.23891
0.0909661
0.0460939
0.0468323
0.0412522
0.0669001
0.0336698
0.0311928
0.0349639
0.191562
0.241388
0.0973954
0.0410037
0.0392436
0.0277231
0.00944494
0.0138191
0.030944
0.0334308
0.0665776
0.0902512
0.0771543
0.0394318
0.035296
0.0238732
0.0123864
0.0199602
0.0296323
0.0307758
0.0638857
0.27035
0.0649046
0.0381759
0.0357342
0.0280328
0.02642
0.0410676
0.0251021
0.0228058
0.360987
0.369816
0.194975
0.0371163
0.0397925
0.0396196
0.0561711
0.0343124
0.0159678
0.01521
0.370524
0.373677
0.0903804
0.0481354
0.0434941
0.0403151
0.0251612
0.0134154
0.00887796
0.0118265
404.521
404.404
404.22
403.992
403.724
403.413
403.058
402.662
402.218
401.728
404.453
404.327
404.109
403.873
403.609
403.305
402.957
402.553
402.099
401.599
404.249
404.089
403.876
403.618
403.353
403.052
402.713
402.305
401.842
401.334
403.857
403.532
403.355
403.143
402.885
402.566
402.223
401.82
401.369
400.889
403.248
402.73
402.463
402.225
402.018
401.68
401.337
400.957
400.54
400.151
402.627
401.684
401.281
401.01
400.581
400.064
399.575
399.079
398.655
398.449
402.277
400.803
399.649
398.732
397.812
396.655
395.435
394.553
394.296
394.627
348.362
337.701
341.357
341.47
333.665
319.875
307.513
304.956
311.64
320.57
120.02
94.4746
64.7917
48.1273
38.9518
30.22
23.9121
23.234
27.2206
32.8826
0.165216
0.142199
0.0405736
0.0390455
0.0554935
0.0677276
0.0714304
0.0734759
0.072674
0.0722641
0.0693024
0.0611206
0.0467124
0.0516736
0.0641707
0.0728419
0.090221
0.116565
0.0996795
0.0683275
0.0563717
0.0525294
0.0597531
0.0707979
0.0819423
0.0879847
0.186722
0.178688
0.176624
0.15744
0.05293
0.0475472
0.0549839
0.0716352
0.0779937
0.0946313
0.187861
0.181121
0.179729
0.174174
0.0531562
0.0476116
0.0496337
0.0659753
0.069265
0.0944349
0.176391
0.145921
0.0981617
0.0870672
0.0902198
0.0538666
0.0489144
0.0559268
0.0591824
0.0624848
0.0501909
0.0247616
0.0404734
0.0376919
0.237129
0.119878
0.0516433
0.0480521
0.0478193
0.0351491
0.0134297
0.0207355
0.0421085
0.0500529
0.122096
0.144845
0.0737768
0.0438205
0.0333666
0.0123482
-0.000972732
0.0221507
0.0407954
0.094134
0.0682092
0.114663
0.065933
0.0389604
0.0279563
0.00919664
0.0224152
0.0393553
0.0329747
0.0767668
0.374513
0.377687
0.0614553
0.034901
0.0294439
0.0227865
0.0512241
0.038645
0.018688
0.0743562
0.3031
0.376785
0.245563
0.0448674
0.0330776
0.0482882
0.0449717
0.00714417
0.00738064
0.0722313
404.602
404.481
404.287
404.044
403.752
403.414
403.035
402.611
402.131
401.636
404.542
404.399
404.187
403.937
403.646
403.315
402.938
402.506
402.014
401.524
404.372
404.213
403.976
403.703
403.404
403.071
402.69
402.248
401.761
401.244
403.987
403.665
403.495
403.267
402.955
402.582
402.173
401.722
401.246
400.741
403.33
402.802
402.618
402.456
402.131
401.696
401.238
400.767
400.29
399.846
402.601
401.794
401.468
401.298
400.858
400.182
399.466
398.765
398.156
397.804
402.152
400.684
399.788
399.231
398.382
397.037
395.428
394.058
393.317
393.339
347.1
339.654
346.831
350.979
344.514
328.997
311.077
300.709
300.948
308.853
110.72
90.4844
66.7347
53.7332
45.9471
35.528
25.3791
20.5667
21.291
25.528
0.224583
0.142937
0.0427989
0.0428313
0.052972
0.0593513
0.0609539
0.0602168
0.0591275
0.0607867
0.0753082
0.0536106
0.0463704
0.0502948
0.0614201
0.0662369
0.0852467
0.085991
0.0585552
0.048556
0.056994
0.0506977
0.0561382
0.0615971
0.0712946
0.139581
0.177996
0.175673
0.158551
0.106594
0.0539615
0.0503573
0.0546929
0.0617449
0.10897
0.197483
0.185054
0.184078
0.175432
0.162827
0.0568582
0.0489689
0.0513574
0.0667862
0.134209
0.192858
0.146647
0.180833
0.180513
0.154998
0.0632673
0.0544579
0.0523307
0.0779146
0.110229
0.0656479
0.0626715
0.0497809
0.112233
0.033509
0.127124
0.0627957
0.0541453
0.0641946
0.0639512
0.100895
0.0680429
0.0371763
0.0538354
0.0585644
0.250943
0.0877206
0.0568306
0.0434946
0.0452003
0.0563288
-0.00277455
0.0374478
0.0879948
0.105014
0.243247
0.190306
0.063093
0.0341859
0.0217912
-0.0100548
0.00518125
0.0345837
0.0509106
0.0974097
0.3135
0.295301
0.041786
0.0292389
0.0121842
0.000971223
0.0379332
0.0409091
0.028882
0.205326
0.133542
0.382054
0.168241
0.025498
0.019706
0.060487
0.0541577
0.0326014
0.010956
0.217279
404.836
404.702
404.496
404.246
403.925
403.548
403.123
402.652
402.135
401.604
404.798
404.635
404.415
404.156
403.836
403.466
403.043
402.564
402.037
401.492
404.703
404.498
404.221
403.935
403.625
403.26
402.829
402.331
401.795
401.235
404.428
404.076
403.866
403.579
403.249
402.841
402.367
401.84
401.29
400.726
403.869
403.326
403.163
402.936
402.554
402.071
401.52
400.94
400.352
399.797
403.205
402.458
402.207
402.029
401.586
400.876
400.021
399.144
398.352
397.776
402.806
401.449
400.665
400.234
399.537
398.308
396.647
394.994
393.792
393.279
351.656
346.463
353.975
360.03
356.925
345.069
327.4
311.99
304.883
306.52
105.895
88.8731
68.2142
57.0287
53.1416
45.816
34.8846
26.7397
23.5429
24.2937
0.302723
0.164649
0.043807
0.0331613
0.0389383
0.0464663
0.0506826
0.0518683
0.0541575
0.0578001
0.0915046
0.0484012
0.0295755
0.0276752
0.0400278
0.0508688
0.0549331
0.0543103
0.0480727
0.043331
0.0657302
0.0394786
0.0293045
0.0322763
0.0485069
0.0880341
0.0902103
0.102149
0.0700393
0.0388258
0.070145
0.038799
0.0296785
0.0423037
0.114741
0.186056
0.17974
0.179676
0.168526
0.111372
0.0650563
0.0421005
0.0354793
0.0885693
0.190073
0.193799
0.187877
0.183672
0.163498
0.128344
0.0557093
0.0466746
0.0659243
0.138044
0.144247
0.0726387
0.175951
0.188417
0.0373487
0.0289561
0.0653404
0.0541401
0.0722965
0.0842395
0.0529283
0.121199
0.151624
0.0769435
0.0900494
0.0372005
0.218598
0.0642957
0.0529641
0.0384097
0.0912726
0.122651
0.0561585
0.0699075
0.128525
0.04317
0.301822
0.163669
0.0537362
0.0286819
0.0811764
0.0422821
0.0126118
0.050101
0.131733
0.0400611
0.301999
0.325895
0.0616318
0.0216003
0.0160195
-0.0120205
0.00993539
0.0333289
0.0919714
0.141259
0.154953
0.386843
0.0529175
0.0213777
0.00793767
0.00817319
0.0515803
0.0336066
0.0194116
0.215974
405.191
405.026
404.81
404.568
404.22
403.8
403.329
402.804
402.243
401.676
405.187
404.968
404.722
404.475
404.153
403.742
403.27
402.734
402.156
401.566
405.176
404.875
404.533
404.237
403.95
403.58
403.113
402.55
401.942
401.32
405.106
404.709
404.372
404.036
403.699
403.29
402.772
402.155
401.501
400.854
404.838
404.241
404.055
403.7
403.263
402.73
402.111
401.41
400.668
399.981
404.253
403.656
403.498
403.19
402.682
401.968
401.056
400.053
399.086
398.301
404.067
402.972
402.214
401.644
401.035
400.06
398.622
396.988
395.566
394.615
356.678
353.67
359.485
366.403
367.838
360.932
347.779
333.064
322.637
318.94
105.298
93.1568
74.4329
61.049
57.2411
54.7571
47.5841
38.7099
32.8408
30.508
0.435385
0.26525
0.101095
0.0205204
0.023933
0.036864
0.0463299
0.0505158
0.0552038
0.0593889
0.114862
0.0472513
0.0162029
0.0102059
0.0204361
0.0399664
0.0504925
0.0528196
0.0527274
0.0572597
0.079584
0.0332024
0.0138175
0.0191667
0.0367691
0.0608406
0.0538196
0.0524488
0.0537072
0.0874683
0.0747246
0.0268699
0.0174075
0.0304428
0.0576126
0.139521
0.132956
0.112635
0.13079
0.0702782
0.0584005
0.0179524
0.0186299
0.0493196
0.113329
0.0973339
0.183214
0.178188
0.0981641
0.0660258
0.0443328
0.0513699
0.0535236
0.0664048
0.0598098
0.072714
0.192909
0.101753
0.0351804
0.0454982
0.0524399
0.0552898
0.0635273
0.0437821
0.0436724
0.0592103
0.156521
0.107634
0.0404449
0.0364011
0.0606418
0.0486008
0.0427499
0.0325112
0.0559387
0.150308
0.170289
0.178159
0.0718836
0.0356005
0.215187
0.0997069
0.0395281
0.0282106
0.105518
0.136404
0.0923877
0.172779
0.0900285
0.0322805
0.226725
0.303904
0.074819
0.0218987
0.0529667
0.0876255
0.025153
0.0635744
0.212836
0.0436422
0.117106
0.319029
0.10555
0.0209457
0.00757985
0.00691559
0.0303933
0.0254151
0.104697
0.203057
405.606
405.374
405.19
405.024
404.64
404.149
403.633
403.053
402.446
401.841
405.623
405.28
405.044
404.928
404.591
404.122
403.606
403.01
402.381
401.748
405.718
405.311
404.888
404.698
404.376
404
403.524
402.901
402.223
401.542
405.941
405.507
405.098
404.759
404.333
403.887
403.358
402.658
401.907
401.174
406.06
405.54
405.358
404.896
404.287
403.645
402.934
402.138
401.242
400.426
405.842
405.37
405.333
404.893
404.203
403.375
402.395
401.274
400.168
399.167
405.842
405.138
404.622
403.922
403.094
402.069
400.761
399.246
397.785
396.561
362.31
360.978
364.242
371.918
376.128
373.756
364.597
352.735
342.977
337.096
112.47
105.43
91.8369
76.807
67.2765
60.7495
55.6093
49.5446
43.492
38.8292
0.630005
0.454835
0.234963
0.0639175
0.0099076
0.027985
0.047949
0.0499485
0.0519124
0.0536664
0.114713
0.0634711
0.0281583
0.00558869
0.0381891
0.0583542
0.0756003
0.0523572
0.0512578
0.0537361
0.0664319
0.0413572
0.0247781
0.0228409
0.0526331
0.069367
0.0779458
0.0510389
0.0587051
0.115468
0.0611475
0.0387757
0.0264727
0.0297488
0.0436927
0.0420924
0.0618537
0.0608095
0.0784432
0.149351
0.0481167
0.025623
0.0196451
0.030483
0.0413258
0.0444898
0.137756
0.179513
0.0832901
0.0769239
0.040656
0.0392168
0.0176224
0.0287978
0.0392986
0.0480049
0.0849766
0.053999
0.0507296
0.0354132
0.0449695
0.0359384
0.0220328
0.0241674
0.0363026
0.0510483
0.0516937
0.0428208
0.0401164
0.0387473
0.0516185
0.0314672
0.0196468
0.0210685
0.031876
0.0470883
0.147906
0.159751
0.0631363
0.03738
0.0656212
0.0430835
0.0248012
0.0186857
0.0242777
0.13127
0.209761
0.214625
0.057453
0.0282926
0.0716711
0.108944
0.0329626
0.0162592
0.0168629
0.137666
0.211407
0.221485
0.209242
0.0286993
0.0772877
0.0759606
0.0729684
0.0271922
0.0175271
0.0413766
0.0844806
0.148377
0.224339
0.21296
406.006
405.697
405.63
405.556
405.089
404.546
403.989
403.366
402.716
402.072
406.048
405.651
405.45
405.423
405.026
404.532
404.008
403.368
402.689
402.014
406.334
405.881
405.565
405.387
404.892
404.481
404.021
403.359
402.625
401.889
406.907
406.404
406.121
405.776
405.144
404.61
404.058
403.315
402.491
401.665
407.443
407.053
406.987
406.423
405.581
404.79
404.013
403.089
402.099
401.138
407.837
407.584
407.599
406.997
406.071
405.065
403.981
402.772
401.503
400.323
408.229
407.906
407.691
406.982
405.909
404.596
403.111
401.556
400.058
398.715
374.145
373.42
376.228
379.638
382.183
382.609
377.774
369.975
362.987
358.424
131.933
129.764
124.299
110.658
94.495
79.9753
68.6351
59.9805
54.035
48.6855
0.975676
0.778416
0.488726