/*--------------------------------*- C++ -*----------------------------------*\
| =========                 |                                                 |
| \\      /  F ield         | OpenFOAM: The Open Source CFD Toolbox           |
|  \\    /   O peration     | Version:  2312                                  |
|   \\  /    A nd           | Website:  www.openfoam.com                      |
|    \\/     M anipulation  |                                                 |
\*---------------------------------------------------------------------------*/
FoamFile
{
    version     2.0;
    format      ascii;
    arch        "LSB;label=32;scalar=64";
    class       volScalarField;
    location    "0.5";
    object      p_rgh;
}
// * * * * * * * * * * * * * * * * * * * * * * * * * * * * * * * * * * * * * //

dimensions      [1 -1 -2 0 0 0 0];

internalField   nonuniform List<scalar> 
8000
(
377.377
378.074
379.406
381.328
383.626
386.054
388.655
390.602
392.015
392.812
377.941
378.681
380.222
382.209
384.626
387.255
389.874
391.987
393.467
394.364
379.006
379.75
381.258
383.485
386.283
389.264
392.225
394.646
396.333
397.331
380.6
381.495
383.321
385.986
389.157
392.53
395.881
398.802
400.782
401.933
382.816
383.87
386.022
389.11
392.781
396.807
400.888
404.471
406.666
407.953
384.61
385.933
388.669
392.672
397.59
403.022
407.824
412.436
415.649
417.381
385.102
386.735
390.183
395.506
402.316
409.76
416.966
423.081
426.907
429.052
300.079
308.991
329.365
359.479
386.89
408.699
426.339
433.868
441.328
444.411
24.243
30.2364
47.0152
84.9666
166.016
292.833
418.951
455.486
462.745
466.605
0.278343
0.284796
0.306578
0.297277
1.22039
39.4501
153.18
393.043
488.97
495.26
0.275794
0.277235
0.287549
0.272164
0.234977
0.162957
1.16494
192.661
500.165
529.773
0.244063
0.240141
0.242861
0.235099
0.20949
0.179994
0.218628
2.6424
366.082
573.522
0.237212
0.229807
0.216332
0.213704
0.222724
0.269335
0.242525
1.13035
127.227
368.201
0.224224
0.224392
0.210761
0.204528
0.206549
0.220946
0.349725
2.72855
-0.183584
0.00549685
0.194242
0.195034
0.193786
0.192585
0.19128
0.171348
0.146956
0.266144
0.0638171
0.117836
0.183295
0.182539
0.182212
0.179515
0.169846
0.140341
0.103871
0.110661
0.207414
0.215874
0.176365
0.175559
0.171433
0.162218
0.148871
0.121449
0.082309
0.096831
0.196948
0.307613
0.165535
0.163585
0.158412
0.150092
0.138072
0.119365
0.088659
0.11777
0.186158
0.365202
0.157526
0.154929
0.149967
0.141184
0.12934
0.116191
0.11148
0.141911
0.205812
0.354394
0.151885
0.148879
0.144141
0.135312
0.122461
0.108877
0.110264
0.132678
0.195871
0.372237
376.001
376.685
378.127
380.178
382.607
385.187
387.694
389.743
391.185
391.949
376.483
377.224
378.739
380.863
383.432
386.195
388.885
391.078
392.554
393.45
377.454
378.289
379.944
382.287
385.124
388.167
391.249
393.68
395.333
396.349
379.074
379.995
381.888
384.589
387.835
391.401
394.929
397.674
399.568
400.866
381.365
382.419
384.617
387.751
391.572
396.051
399.957
403.276
405.501
406.601
383.697
384.989
387.728
391.711
396.546
401.794
406.597
410.969
414.081
415.807
385.644
387.213
390.425
395.33
401.776
409.121
415.993
421.354
425.219
427.07
361.358
367.646
381.029
397.11
408.648
416.437
426.188
434.305
439.544
441.496
56.0984
64.0353
86.2939
133.753
225.14
357.797
444.741
453.339
459.751
462.801
0.239691
0.239521
0.258424
0.236175
0.247984
32.9793
183.493
418.383
484.51
489.364
0.239849
0.241567
0.251231
0.240234
0.211707
0.113031
0.0461367
120.227
352.518
500.89
0.229137
0.220459
0.219259
0.21315
0.189591
0.173887
0.191719
0.134103
-0.317941
362.608
0.222464
0.195171
0.188269
0.187093
0.193161
0.210843
0.230714
0.308595
34.4911
123.014
0.218187
0.196616
0.184497
0.186386
0.189076
0.193935
0.17265
0.19421
0.879621
-0.197414
0.212026
0.193372
0.184604
0.186613
0.185046
0.173124
0.144006
0.122956
0.0641252
0.0502043
0.187762
0.184044
0.18026
0.171839
0.164945
0.156698
0.122798
0.133422
0.165242
0.192751
0.171582
0.171709
0.167125
0.157386
0.1484
0.142667
0.0902181
0.105069
0.159096
0.190579
0.164628
0.162073
0.15717
0.146184
0.13305
0.17321
0.0720911
0.092484
0.143506
0.170566
0.157701
0.154634
0.149492
0.13819
0.125851
0.173732
0.0791713
0.104729
0.140429
0.152213
0.151844
0.148228
0.144266
0.133126
0.119754
0.15583
0.149416
0.101913
0.132844
0.275511
373.394
374.142
375.719
377.966
380.6
383.383
386.003
388.162
389.682
390.539
373.759
374.557
376.211
378.544
381.351
384.378
387.194
389.475
391.008
391.914
374.557
375.434
377.245
379.807
382.894
386.173
389.406
391.925
393.624
394.608
375.979
376.939
378.98
381.892
385.389
389.179
392.825
395.732
397.734
398.858
378.174
379.227
381.545
384.904
389.104
394.037
397.877
401.111
403.285
404.466
381.14
382.356
384.997
388.904
393.87
398.918
403.9
408.124
411.061
412.649
384.382
385.846
388.944
393.533
399.544
406.327
412.853
418.034
421.715
423.813
364.953
371.059
384.92
399.997
407.755
415.546
424.517
430.73
434.733
434.847
51.6382
58.9657
80.5531
129.556
220.853
337.762
423.568
449.043
453.415
455.49
0.213184
0.210172
0.21946
0.207957
0.199552
33.3069
160.429
317.486
426.618
403.609
0.201058
0.206285
0.216134
0.205454
0.188763
0.153027
0.221211
39.2288
125.38
209.019
0.202303
0.203548
0.206724
0.199201
0.185248
0.160588
0.170664
0.134259
0.120087
0.580911
0.200101
0.192659
0.188868
0.181685
0.178236
0.182769
0.190834
0.159215
0.296899
1.03295
0.205121
0.193302
0.192702
0.186689
0.17942
0.177334
0.174813
0.155634
0.20108
2.65812
0.195048
0.197846
0.188156
0.186582
0.178757
0.17337
0.169084
0.159696
0.121406
0.216477
0.183062
0.184145
0.181303
0.175198
0.179066
0.154374
0.155351
0.154057
0.131473
0.111285
0.174986
0.173174
0.16958
0.161679
0.17423
0.196033
0.138656
0.132355
0.11217
0.114454
0.16709
0.164171
0.1596
0.148756
0.153933
0.216463
0.128211
0.11282
0.106328
0.135016
0.159139
0.155686
0.150836
0.13855
0.13782
0.20401
0.174436
0.10077
0.104179
0.138045
0.152312
0.148734
0.144605
0.133227
0.125064
0.205301
0.197242
0.0986573
0.103679
0.247778
369.536
370.363
372.204
374.7
377.668
380.756
383.575
385.908
387.512
388.309
369.636
370.528
372.447
375.096
378.292
381.664
384.575
387.117
388.722
389.687
369.973
370.955
373.057
376.011
379.584
383.41
386.659
389.111
390.922
392.041
370.736
371.808
374.234
377.65
381.833
385.962
389.713
392.728
394.646
395.83
372.359
373.569
376.299
380.166
385.28
390.048
394.345
397.891
399.884
400.906
373.949
375.862
379.098
383.535
389.444
394.875
399.914
403.868
406.572
407.757
377.276
379.313
383.052
388.28
394.816
401.695
407.987
413.074
416.812
418.186
316.644
310.35
323.473
356.315
398.411
411.547
419.196
424.569
426.803
428.069
46.6993
46.505
55.9275
88.7754
157.395
268.583
365.659
426.474
445.393
426.015
0.193683
0.197271
0.210195
0.186862
0.156543
24.4332
94.2315
166.914
201.198
162.787
0.173934
0.172828
0.183527
0.180987
0.155054
0.128756
0.195807
0.237631
0.0526445
6.73616
0.184792
0.193448
0.20256
0.193412
0.173989
0.138579
0.161199
0.167278
0.191535
0.201981
0.195134
0.201186
0.201922
0.193744
0.181268
0.173666
0.195816
0.189281
0.212247
0.214451
0.199701
0.205683
0.204521
0.196433
0.183452
0.176025
0.197341
0.169733
0.155275
0.326885
0.194921
0.199739
0.197722
0.193552
0.1877
0.174701
0.188719
0.180508
0.145538
0.151889
0.188599
0.188759
0.18732
0.182893
0.188098
0.21277
0.186845
0.185773
0.164787
0.14925
0.180987
0.178848
0.17655
0.169486
0.172745
0.244969
0.234133
0.152932
0.13128
0.155372
0.171698
0.168239
0.165275
0.155793
0.153508
0.230161
0.219685
0.121082
0.11172
0.141033
0.161541
0.158069
0.155082
0.143435
0.140562
0.220218
0.205041
0.172017
0.113365
0.122665
0.152372
0.149166
0.146652
0.137489
0.129182
0.200296
0.201638
0.195539
0.129136
0.10927
364.57
365.528
367.634
370.543
373.957
377.434
380.6
383.174
384.932
385.804
364.206
365.206
367.521
370.649
374.423
378.102
381.393
384.151
385.952
387.016
363.667
364.784
367.42
370.986
375.437
379.589
383.079
385.966
387.976
389.073
363.106
364.421
367.593
371.915
376.913
381.678
385.831
388.944
391.285
392.527
362.826
364.873
368.536
373.571
379.429
385.052
389.944
393.689
396.014
397.017
355.517
365.347
370.022
375.91
382.689
389.245
394.853
399.146
402.06
403.255
360.917
369.645
373.955
380.088
387.453
395.224
401.767
406.766
409.772
410.76
273.368
267.203
262.517
293.133
336.651
393.158
411.704
416.201
417.167
414.129
29.5393
30.4794
35.1775
50.559
86.0569
163.356
271.402
347.111
378.471
312.191
0.111365
0.0922127
0.143689
0.173887
0.43171
8.35427
25.7054
39.0916
41.324
40.0264
0.156144
0.126677
0.154238
0.155827
0.118562
0.108225
0.14133
0.188347
0.138032
0.238509
0.181969
0.191037
0.200811
0.192334
0.170447
0.144098
0.147769
0.164601
0.170613
0.1912
0.20706
0.219812
0.226403
0.218764
0.201771
0.186651
0.206714
0.210883
0.191992
0.257797
0.210439
0.222709
0.224283
0.216469
0.203283
0.197401
0.252758
0.208809
0.172528
0.215202
0.202813
0.211997
0.212162
0.206941
0.19808
0.201759
0.256408
0.251184
0.184195
0.181307
0.196294
0.200063
0.199995
0.194928
0.187129
0.188978
0.241529
0.247332
0.237288
0.246746
0.188459
0.188271
0.187829
0.181065
0.171984
0.174156
0.190029
0.234389
0.209934
0.189464
0.175963
0.174507
0.174576
0.166306
0.156505
0.162857
0.176646
0.160576
0.129924
0.141268
0.16134
0.15949
0.161095
0.15178
0.144299
0.145957
0.158321
0.135645
0.124932
0.13153
0.14892
0.14706
0.148573
0.142447
0.135679
0.13176
0.143407
0.125285
0.117349
0.122324
358.784
359.847
362.343
365.768
369.693
373.712
377.378
380.269
382.203
383.213
357.753
358.82
361.692
365.528
369.711
374.031
377.878
380.95
383.04
384.246
355.694
356.959
360.496
365.159
370.179
374.925
379.196
382.545
384.811
385.975
352.391
354.453
358.824
364.579
371.008
376.735
381.499
385.145
387.678
389.036
340.149
350.647
357.514
364.667
372.311
379.247
385.088
389.007
391.678
392.976
235.232
332.874
356.727
365.43
374.409
382.485
389.199
394.071
396.912
398.119
162.779
298.695
352.452
368.419
378.189
387.252
394.751
399.828
402.594
403.477
117.6
165.301
147.231
202.952
270.965
336.014
400.703
408.173
409.834
395.72
17.7961
10.6077
13.9748
22.0449
41.2207
81.7937
158.407
236.471
250.152
188.087
0.185673
0.0326301
0.0913997
0.170129
0.181467
0.205028
0.18679
0.194867
0.289685
0.348414
0.181327
0.0888608
0.14505
0.138105
0.121802
0.136315
0.170458
0.202777
0.259651
0.281664
0.20859
0.20723
0.223252
0.208395
0.188036
0.181869
0.190863
0.198926
0.196707
0.228806
0.237846
0.261703
0.263623
0.251209
0.228596
0.211575
0.203063
0.229146
0.192032
0.219479
0.225946
0.256827
0.252571
0.24395
0.226135
0.210695
0.202238
0.257812
0.176228
0.201339
0.205166
0.23523
0.231892
0.227573
0.215137
0.202454
0.193588
0.256002
0.210148
0.191648
0.196794
0.216862
0.216598
0.212475
0.201364
0.190235
0.181572
0.18883
0.25569
0.205781
0.188653
0.201418
0.203792
0.197089
0.18632
0.175462
0.166907
0.16039
0.174396
0.204258
0.173383
0.181865
0.188347
0.179969
0.170563
0.16006
0.150766
0.146961
0.146872
0.152196
0.157661
0.159219
0.16856
0.16208
0.155733
0.147297
0.137516
0.135543
0.138859
0.142963
0.145481
0.14386
0.149313
0.146889
0.143891
0.139532
0.1311
0.129411
0.133052
0.136231
352.703
353.789
356.681
360.709
365.268
369.805
373.828
377.126
379.517
380.692
350.727
351.792
355.209
359.696
364.92
369.949
374.367
377.853
380.252
381.616
346.167
347.527
352.299
357.853
364.393
370.329
375.376
379.23
381.779
383.001
339.578
340.024
347.32
355.42
363.821
371.144
377.078
381.453
384.278
385.774
301.268
327.877
342.184
353.176
364.188
373.011
379.732
384.659
387.714
389.216
99.3245
206.832
333.981
351.866
365.19
375.464
383.401
388.866
392.098
393.285
19.4285
94.9212
255.301
332.782
368.092
379.607
388.172
393.972
396.181
396.848
7.08585
33.5842
69.1768
100.103
193.005
284.956
358.494
400.779
399.43
371.414
4.57541
2.70098
1.33882
3.58912
17.472
41.8481
85.2377
143.825
155.735
103.172
1.14664
0.248593
0.280022
0.289955
0.15528
0.190542
0.225502
0.233321
0.257482
0.297085
0.296161
0.0922358
0.189453
0.178038
0.147772
0.162637
0.187511
0.218722
0.255158
0.278741
0.265164
0.25665
0.280321
0.252197
0.213111
0.204511
0.212705
0.221142
0.227362
0.248226
0.302409
0.330937
0.315483
0.288478
0.252622
0.229248
0.21539
0.211651
0.200682
0.221015
0.255183
0.301493
0.283933
0.27373
0.247507
0.225426
0.210154
0.22404
0.184125
0.203332
0.190871
0.254166
0.251367
0.251539
0.232562
0.215299
0.201407
0.215596
0.1963
0.191409
0.187753
0.234651
0.234547
0.233921
0.217158
0.20297
0.190781
0.193997
0.199778
0.185403
0.195424
0.227323
0.226153
0.217571
0.201935
0.189412
0.179335
0.179841
0.198472
0.201214
0.180143
0.19701
0.209453
0.197083
0.184724
0.174511
0.166201
0.162271
0.161831
0.165598
0.158524
0.150525
0.175382
0.170758
0.16608
0.160187
0.153965
0.151734
0.152258
0.154032
0.141976
0.117576
0.135444
0.146826
0.149543
0.148499
0.145362
0.144295
0.145781
0.147302
347.099
348.057
351.317
355.743
361.195
366.417
371.007
374.635
377.092
378.502
344.328
345.118
348.71
354.092
360.465
366.318
371.349
375.227
377.868
379.439
337.563
338.529
342.932
350.458
358.998
366.226
372.058
376.393
379.193
380.586
328.116
328.781
333.758
344.493
356.937
366.34
373.331
378.303
381.385
382.923
309.251
300.092
317.427
339.528
355.408
367.257
375.51
381.101
384.457
386.029
188.913
98.9801
189.91
327.173
355.934
369.098
378.515
384.834
388.084
389.277
19.4694
12.5488
113.63
262.77
351.253
373.411
382.668
389.148
391.255
391.646
11.2372
5.86832
28.2485
54.173
131.964
248.96
321.441
386.357
385.585
344.115
8.7029
3.2073
1.44391
0.938207
3.87212
18.5985
47.5816
89.8943
104.21
61.9042
4.25965
1.20116
0.451004
0.319486
0.162599
0.151051
0.225518
0.267782
0.277592
0.315184
0.355013
0.253046
0.285062
0.203402
0.164419
0.169889
0.191535
0.22594
0.261072
0.293708
3.83918
0.369632
0.347004
0.266516
0.221415
0.210008
0.217978
0.231326
0.243521
0.264264
12.6406
0.460895
0.373953
0.311525
0.266187
0.236685
0.223678
0.216674
0.214925
0.237901
14.5436
0.372838
0.324155
0.300979
0.26106
0.233282
0.227293
0.207428
0.196486
0.212603
4.4468
0.272555
0.278483
0.275753
0.247107
0.225148
0.219497
0.196494
0.181431
0.193732
0.2805
0.257524
0.266835
0.259608
0.232915
0.213652
0.20633
0.20295
0.176631
0.189074
0.222817
0.296205
0.281036
0.245982
0.218628
0.201468
0.192028
0.208914
0.200743
0.183808
0.311179
0.331406
0.321756
0.220637
0.198577
0.185944
0.177385
0.176015
0.182817
0.180593
0.16579
1.16356
0.529281
0.182666
0.174406
0.169357
0.164742
0.162448
0.161095
0.16239
0.14299
1.44768
1.14402
0.175031
0.153045
0.155061
0.154391
0.154216
0.1547
0.155411
342.46
342.849
345.884
351.479
357.866
363.759
368.819
372.756
375.434
376.828
338.668
338.714
342.663
349.397
357.15
363.528
369.094
373.262
376.1
377.701
330.502
328.583
333.363
343.946
354.917
363.201
369.585
374.3
377.291
378.806
316.943
313.719
319.325
333.389
350.529
362.599
370.534
376.004
379.267
380.878
296.695
294.024
230.975
279.482
342.599
362.505
372.169
378.5
382.072
383.718
319.528
173.587
75.9206
207.608
337.386
363.566
374.855
381.904
385.179
386.439
109.536
8.98973
22.2595
171.762
325.6
368.822
378.826
385.864
387.963
388.174
5.70898
4.65225
8.72809
58.0546
112.007
224.974
299.722
370.683
373.142
324.02
8.88123
1.96016
3.42187
0.672254
0.472315
1.48183
30.4475
62.6863
78.4728
42.0254
29.9603
0.315444
0.809468
0.229233
0.28409
0.205577
0.21045
0.256629
0.277919
0.303591
4.441
0.349421
0.30669
0.188502
0.181771
0.213352
0.243457
0.257005
0.259103
0.285187
14.0975
0.626021
0.347513
0.239893
0.215877
0.217362
0.219685
0.231816
0.251075
0.265907
73.0936
0.743929
0.408682
0.306628
0.2665
0.240427
0.227172
0.231758
0.240846
0.245609
100.259
0.516637
0.359523
0.308551
0.267614
0.238224
0.234634
0.235561
0.224867
0.219906
41.7312
0.34351
0.304125
0.289811
0.257086
0.232449
0.233826
0.223279
0.197132
0.198958
0.255
0.411318
0.313072
0.284688
0.246481
0.222351
0.220515
0.218291
0.18369
0.192329
1.8464
0.592829
0.400363
0.273878
0.231887
0.209724
0.199586
0.204176
0.185488
0.186466
19.8487
13.9997
0.79348
0.226063
0.205057
0.192473
0.183664
0.180304
0.18144
0.181765
32.9831
41.8065
3.81389
0.167961
0.175956
0.174073
0.170419
0.168806
0.167501
0.168016
37.4917
50.359
10.6562
0.13393
0.152595
0.158673
0.159432
0.15975
0.160296
0.160711
338.61
339.371
343.435
349.753
356.278
362.392
367.598
371.662
374.453
375.876
332.016
333.118
338.101
347.102
355.51
362.174
367.757
372.1
375.106
376.619
319.013
317.053
323.322
340.437
353.734
361.889
368.159
373.227
376.242
377.799
302.374
297.315
289.249
310.656
343.802
360.442
368.813
374.834
378.094
379.73
294.325
284.781
188.204
179.179
290.73
358.224
369.455
376.959
380.718
382.423
314.37
199.121
49.9775
99.9984
284.13
358.942
372.211
380.205
383.55
384.901
132.89
8.76251
9.87972
83.8191
317.684
366.174
376.137
383.998
386.21
386.364
7.7867
5.86273
5.67786
64.9587
141.459
208.933
287.712
362.675
366.789
314.433
3.76252
3.30148
6.66283
13.2451
0.413297
0.559724
23.5843
53.2376
69.4311
34.7181
38.2778
1.75779
3.67703
0.2212
0.473838
0.266354
0.250601
0.263208
0.281439
0.304075
53.9393
0.264704
0.338024
0.196212
0.198493
0.247183
0.291781
0.293392
0.266901
0.28179
71.7685
0.808201
0.381236
0.235168
0.22962
0.238306
0.24
0.254578
0.252597
0.261137
95.8317
1.02867
0.38924
0.287092
0.267285
0.247421
0.232224
0.230597
0.242183
0.240923
103.137
3.21911
0.309454
0.282891
0.266938
0.242971
0.226786
0.237381
0.231561
0.221085
109.419
10.7359
0.448594
0.287594
0.257965
0.234757
0.22485
0.227247
0.216433
0.202357
108.048
18.9303
0.719569
0.319063
0.249496
0.223053
0.210795
0.220126
0.202355
0.193223
40.9541
26.8823
0.376642
0.538382
0.244481
0.208129
0.196526
0.197761
0.192658
0.187409
34.9074
33.9132
0.464311
0.62029
0.243516
0.187441
0.183206
0.179183
0.177431
0.179931
130.218
40.7997
0.505637
0.472537
0.227013
0.167795
0.16959
0.169873
0.169388
0.170289
164.264
47.852
1.86884
0.301187
0.193467
0.154446
0.158676
0.161401
0.162623
0.163316
336.92
337.893
342.057
348.765
355.381
361.748
367.107
371.313
374.168
375.628
329.207
331.355
336.388
345.974
354.678
361.545
367.295
371.793
374.792
376.37
316.914
315.941
322.44
340.389
353.472
361.397
367.626
372.984
375.979
377.563
302.987
295.446
282.671
314.114
345.906
360.593
368.446
374.548
377.841
379.507
293.297
278.308
137.156
167.219
287.124
357.725
368.852
376.616
380.468
382.22
268.258
108.242
19.1759
74.6121
264.054
356.512
371.028
379.801
383.293
384.723
25.4947
8.65142
8.90623
70.2636
302.537
364.949
375.244
383.729
386.072
386.261
5.43761
6.33792
6.11554
53.8739
155.002
216.422
287.543
362.591
367.486
315.082
7.21004
6.8383
7.50391
17.5216
0.266829
0.514751
27.2301
54.7092
71.0162
35.1454
62.2036
17.7372
3.10326
0.542007
0.637604
0.275587
0.255785
0.267833
0.281598
0.304813
80.7402
24.5307
0.848072
0.434532
0.283293
0.273885
0.295305
0.272676
0.258133
0.281779
87.5984
35.3873
0.4585
0.323562
0.262277
0.24463
0.237784
0.235855
0.247493
0.261822
94.5095
45.3372
0.35675
0.237792
0.241838
0.238611
0.228026
0.22118
0.222957
0.239552
101.637
46.0883
0.873723
0.236826
0.233799
0.23361
0.223705
0.215613
0.210217
0.214929
109.156
68.055
8.50455
0.302162
0.247556
0.228172
0.215507
0.21686
0.198453
0.19694
115.223
122.103
45.5469
1.22016
0.263126
0.222138
0.204146
0.218086
0.202109
0.191148
113.948
137.928
90.2698
3.44646
0.234819
0.208754
0.194632
0.195611
0.198791
0.186179
137.136
148.32
105.517
4.33049
0.181947
0.185583
0.182645
0.179183
0.178435
0.180491
155.263
157.108
85.7835
3.12684
0.145052
0.164806
0.170367
0.170562
0.170251
0.170854
163.673
165.09
87.4137
4.77913
0.141388
0.156163
0.161847
0.163764
0.164193
0.164763
338.044
339.355
343.033
349.103
355.863
362.248
367.647
371.83
374.651
376.13
332.453
334.073
338.491
346.172
354.672
361.93
367.843
372.322
375.318
377.009
319.308
322.687
328.598
338.985
351.944
361.325
368.263
373.349
376.516
378.124
295.212
299.4
311.432
330.959
347.137
360.471
369.137
375.032
378.509
380.227
280.768
213.666
158.27
252.559
336.392
359.537
370.584
377.514
381.351
383.126
129.317
25.5547
29.7617
170.762
328.256
359.881
373.091
380.954
384.508
385.933
6.17658
5.46387
15.3274
169.834
324.09
366.876
377.613
385.286
387.61
387.854
3.88959
4.82746
11.7185
63.4229
118.31
221.651
298.72
370.905
374.052
324.229
2.98792
3.90266
5.15525
1.48159
0.537135
3.76841
31.9891
64.8347
80.9936
42.2828
1.79001
2.81418
1.27177
0.467439
0.467599
0.24183
0.242345
0.271141
0.285341
0.30679
1.42853
1.26019
0.882147
0.317361
0.266008
0.257121
0.270336
0.275455
0.259983
0.284395
7.2308
1.06758
0.425668
0.313101
0.237037
0.216994
0.217971
0.226855
0.243659
0.260893
19.1649
0.226624
0.353505
0.327549
0.258641
0.222076
0.21762
0.213338
0.209499
0.23094
26.6681
0.120762
0.51246
0.368243
0.241462
0.216605
0.21419
0.2072
0.193308
0.207227
25.9256
0.267505
0.567292
0.380109
0.238666
0.212145
0.207407
0.195301
0.188448
0.194929
15.6802
0.34864
0.32671
0.440358
0.239424
0.2068
0.199254
0.206032
0.182738
0.187698
12.447
0.472983
0.233476
0.641918
0.229114
0.195716
0.186488
0.188388
0.191328
0.183219
65.621
0.639836
0.237133
0.734073
0.229508
0.178816
0.176362
0.17422
0.173713
0.17684
149.777
5.21492
0.130289
0.731334
0.238883
0.1634
0.166617
0.167177
0.167126
0.168262
164.4
15.3559
0.046726
0.739832
0.252106
0.153016
0.15938
0.161725
0.162674
0.163407
341.327
342.804
346.512
351.955
358.13
364.095
369.239
373.226
375.967
377.418
336.648
338.725
343.592
349.873
357.278
363.983
369.542
373.799
376.669
378.317
326.451
329.205
335.841
345.129
355.637
363.721
370.169
374.943
377.982
379.595
300.278
315.58
326.576
338.267
352.727
363.485
371.35
376.854
380.231
381.917
161.498
181.107
262.412
325.522
349.052
363.871
373.448
379.699
383.395
385.127
11.4773
21.602
129.694
313.926
348.096
365.399
376.5
383.558
387.133
388.52
5.4402
10.8599
138.775
270.524
346.075
371.365
381.463
388.388
390.727
391.168
4.57892
6.7153
27.1387
49.9853
127.622
247.609
321.124
386.067
385.861
343.739
3.77627
4.84206
1.24288
0.911774
3.30899
17.3606
47.5889
90.0466
105.969
61.7329
0.88579
0.992018
0.59802
0.409789
0.217907
0.185535
0.253062
0.281101
0.293679
0.324492
0.404055
0.238097
0.288875
0.246361
0.220792
0.205461
0.224479
0.247318
0.267088
0.292404
0.289304
0.194446
0.243517
0.235469
0.22125
0.212518
0.217823
0.227013
0.237932
0.258358
0.317392
0.243223
0.255002
0.250301
0.238259
0.225169
0.216415
0.220979
0.199299
0.221572
0.358312
0.275765
0.246981
0.250254
0.231694
0.216805
0.2075
0.238877
0.204928
0.202575
0.345928
0.285765
0.230717
0.244275
0.221384
0.205892
0.195322
0.193006
0.224827
0.192875
0.303776
0.327863
0.213948
0.223763
0.208432
0.195427
0.186389
0.18236
0.17465
0.183841
1.12519
0.394542
0.202847
0.19954
0.192481
0.18475
0.176789
0.174368
0.17601
0.180628
15.1609
0.302833
0.172733
0.166827
0.174864
0.173498
0.169569
0.167446
0.16662
0.169423
33.5569
0.136433
0.124886
0.136335
0.159918
0.16362
0.163885
0.163363
0.163147
0.16406
40.4394
0.0810597
0.0936758
0.114267
0.151694
0.155883
0.159165
0.160135
0.160307
0.160777
346.77
348.13
351.462
356.273
361.894
367.243
371.809
375.445
377.938
379.291
343.832
345.326
349.309
354.74
361.306
367.289
372.225
376.089
378.72
380.201
338.117
337.393
344.29
351.846
360.622
367.466
373.153
377.46
380.29
381.73
328.206
332.186
337.855
347.909
359.605
368.076
374.818
379.716
382.843
384.444
191.952
269.909
325.064
343.129
358.947
369.698
377.475
383.014
386.424
388.076
45.5376
152.713
310.714
341.685
359.629
372.23
381.347
387.41
390.974
392.345
23.6088
143.58
276.481
329.443
365.235
377.732
386.852
393.018
395.495
396.247
20.4956
74.8658
61.3182
95.2004
190.622
284.638
356.951
400.381
399.236
370.815
14.643
5.32804
1.40344
2.44254
16.0896
41.6287
83.7675
141.274
156.077
103.572
1.56977
0.250845
0.378457
0.288679
0.183836
0.211943
0.253875
0.259673
0.266421
0.306702
0.308514
0.249442
0.274955
0.203108
0.190196
0.190098
0.214761
0.235788
0.261435
0.281998
0.261437
0.254291
0.298445
0.248191
0.225391
0.214289
0.217831
0.219207
0.224786
0.245247
0.272673
0.27922
0.30262
0.268641
0.245546
0.228638
0.215841
0.219568
0.184714
0.214473
0.29688
0.288842
0.274422
0.253884
0.233576
0.21692
0.209907
0.235696
0.208325
0.199178
0.286957
0.274866
0.24
0.230971
0.215144
0.199947
0.189162
0.226985
0.225963
0.191078
0.261131
0.276262
0.216603
0.21273
0.198223
0.184274
0.173214
0.167597
0.208289
0.187675
0.208936
0.343163
0.198335
0.194715
0.183954
0.173123
0.163762
0.162285
0.162247
0.171494
0.157361
0.319706
0.189832
0.17591
0.172207
0.166468
0.159818
0.157432
0.157753
0.160887
0.174752
0.18515
0.167009
0.158983
0.162618
0.163568
0.160177
0.157604
0.156957
0.15812
0.181129
0.146005
0.141302
0.147911
0.155452
0.160589
0.16046
0.158071
0.156583
0.156755
353.136
354.374
357.255
361.297
366.028
370.749
374.883
378.147
380.378
381.544
351.894
352.924
356.153
360.554
365.807
371.156
375.499
378.924
381.275
382.59
348.479
349.805
354.142
359.671
366.262
371.894
376.793
380.571
383.113
384.445
346.972
345.862
351.263
358.748
367.037
373.668
379.176
383.263
386.076
387.587
300.756
334.932
346.963
357.849
367.893
376.174
382.856
387.316
390.312
391.68
210.238
315.788
345.024
358.679
370.164
379.67
387.202
392.558
395.725
397.068
244.342
319.128
348.158
364.99
375.725
385.475
393.386
398.646
401.772
402.773
169.135
165.659
142.652
198.007
267.736
332.926
399.29
407.794
409.576
394.731
8.28187
3.10883
10.7991
18.803
38.8882
79.2034
154.201
232.891
249.451
189.93
-0.111474
0.0290227
0.122494
0.108778
0.169443
0.195469
0.222078
0.225898
0.301316
0.338594
0.182907
0.176326
0.218522
0.138687
0.14362
0.16124
0.191406
0.220299
0.274859
0.283011
0.211524
0.235616
0.277591
0.226369
0.20726
0.195557
0.194445
0.194959
0.201494
0.23187
0.246094
0.277264
0.291222
0.259068
0.233704
0.212362
0.21924
0.185031
0.178699
0.212639
0.315693
0.27204
0.263794
0.24326
0.221286
0.204884
0.25087
0.197816
0.178587
0.197632
0.337498
0.239103
0.231821
0.218683
0.200972
0.184106
0.236418
0.232126
0.215349
0.182419
0.315069
0.214614
0.208088
0.197865
0.180841
0.187868
0.187992
0.165909
0.200088
0.190895
0.216007
0.194866
0.188924
0.18191
0.167715
0.180243
0.170878
0.139304
0.143919
0.155166
0.167491
0.180707
0.174366
0.170855
0.16265
0.160328
0.148738
0.138816
0.143555
0.150418
0.166354
0.167028
0.161924
0.162216
0.163277
0.160231
0.150555
0.14704
0.146959
0.150128
0.167338
0.154018
0.151827
0.1545
0.161217
0.166143
0.163061
0.155365
0.150691
0.151151
359.396
360.518
362.951
366.405
370.382
374.397
378.066
380.974
382.973
383.982
358.848
359.993
362.644
366.504
370.745
374.932
378.981
382.004
384.047
385.218
357.901
359.104
362.151
366.493
371.637
376.626
380.691
383.9
386.144
387.394
357.568
358.253
361.808
366.968
373.391
378.826
383.55
387.135
389.604
390.953
355.176
357.015
362.075
368.637
375.792
382.306
387.847
392.262
394.565
395.696
348.885
356.239
363.436
371.298
379.365
386.835
393.035
397.584
400.831
402.157
361.233
364.93
370.502
377.322
385.334
393.621
400.486
405.608
408.864
410.003
252.116
248.808
259.423
289.718
333.489
391.313
411.1
415.588
416.868
414.102
17.2731
22.5723
28.9721
46.113
82.639
159.952
268.042
344.469
377.537
315.798
0.0915996
0.0969584
0.101669
0.113106
0.241098
6.98194
25.0024
37.6021
40.6393
40.6638
0.132479
0.136673
0.171845
0.149106
0.140557
0.128732
0.157449
0.197051
0.189607
0.2138
0.194152
0.214368
0.236471
0.206403
0.184973
0.156949
0.146076
0.163576
0.180498
0.203062
0.226579
0.253092
0.255918
0.229364
0.202755
0.188581
0.18841
0.167767
0.191462
0.221227
0.242483
0.240437
0.234878
0.219422
0.199811
0.253526
0.201603
0.152642
0.172726
0.191172
0.246407
0.217583
0.213338
0.199326
0.22715
0.348879
0.199404
0.137017
0.170149
0.190332
0.248927
0.199294
0.19476
0.181123
0.262509
0.347422
0.313022
0.144686
0.139814
0.158888
0.245815
0.184799
0.181333
0.168775
0.250779
0.340123
0.311386
0.172257
0.121813
0.138773
0.220588
0.173383
0.170884
0.16359
0.200778
0.344682
0.320176
0.14236
0.122693
0.137639
0.173556
0.165548
0.164088
0.163834
0.172405
0.22936
0.227406
0.137787
0.131031
0.140422
0.161295
0.158853
0.158651
0.161682
0.169805
0.180565
0.170458
0.152369
0.143679
0.143619
364.854
365.835
367.909
370.89
374.298
377.821
381.038
383.664
385.492
386.456
364.889
365.914
368.122
371.262
374.928
378.75
382.103
384.893
386.747
387.822
365.07
366.189
368.634
372.121
376.22
380.53
384.295
387.116
389.142
390.334
365.806
366.954
369.74
373.756
378.602
383.349
387.536
390.913
393.073
394.256
366.45
368.387
371.854
376.514
382.217
387.626
392.367
396.208
398.45
399.566
367.493
370.636
374.974
380.43
386.783
392.867
398.348
402.63
405.448
406.68
373.036
376.009
380.449
386.292
393.157
400.399
406.939
412.204
416.023
417.442
297.397
304.087
323.579
357.391
398.733
411.07
418.803
424.424
426.626
427.755
37.5571
41.7036
55.1515
89.423
158.316
269.491
366.312
426.66
445.725
429.466
0.149146
0.16926
0.183218
0.162095
0.140197
25.2708
95.6976
168.179
202.422
163.7
0.167557
0.171882
0.179938
0.169085
0.166074
0.152575
0.213786
0.23917
1.33875
5.96196
0.209461
0.221173
0.221441
0.201739
0.180846
0.143436
0.161709
0.168264
0.208353
0.196107
0.223442
0.235075
0.223955
0.20335
0.18327
0.173521
0.176304
0.171928
0.201273
0.183714
0.229801
0.21909
0.213388
0.204173
0.195961
0.214546
0.173702
0.14954
0.160193
0.231226
0.202445
0.202767
0.19502
0.215523
0.29547
0.289339
0.16993
0.131615
0.198491
0.414893
0.18937
0.19153
0.179513
0.224691
0.341929
0.344128
0.211292
0.111653
0.179897
0.127448
0.179821
0.17539
0.169129
0.193284
0.338008
0.334502
0.321059
0.217754
0.121282
0.124333
0.16999
0.169
0.165222
0.161561
0.320604
0.34404
0.327505
0.257538
0.117745
0.128411
0.163494
0.164234
0.163577
0.162842
0.214819
0.396262
0.366575
0.157739
0.114947
0.132513
0.159744
0.159948
0.161044
0.165682
0.179429
0.253786
0.25728
0.138348
0.125797
0.13757
369.144
370.019
371.788
374.461
377.44
380.572
383.498
385.918
387.616
388.554
369.522
370.448
372.346
375.048
378.227
381.605
384.727
387.308
389.019
390.009
370.37
371.365
373.444
376.391
379.877
383.545
386.986
389.926
391.789
392.829
371.938
373.008
375.337
378.654
382.59
386.864
390.75
393.864
396.053
397.236
374.231
375.554
378.245
382.034
386.606
391.955
396.048
399.503
401.859
403.125
377.494
379.145
382.285
386.657
391.906
397.257
402.533
406.951
409.995
411.585
382.164
383.992
387.483
392.397
398.368
405.433
412.046
417.319