/*--------------------------------*- C++ -*----------------------------------*\
| =========                 |                                                 |
| \\      /  F ield         | OpenFOAM: The Open Source CFD Toolbox           |
|  \\    /   O peration     | Version:  2312                                  |
|   \\  /    A nd           | Website:  www.openfoam.com                      |
|    \\/     M anipulation  |                                                 |
\*---------------------------------------------------------------------------*/
FoamFile
{
    version     2.0;
    format      ascii;
    arch        "LSB;label=32;scalar=64";
    class       surfaceScalarField;
    location    "0.5";
    object      phi;
}
// * * * * * * * * * * * * * * * * * * * * * * * * * * * * * * * * * * * * * //

dimensions      [0 3 -1 0 0 0 0];

oriented        oriented;

internalField   nonuniform List<scalar> 
22600
(
4.99158e-08
-1.25317e-08
-4.5254e-09
5.48682e-08
-9.51279e-09
4.5603e-09
4.62467e-08
-5.68922e-09
1.43108e-08
2.82864e-08
-2.77414e-09
2.07344e-08
6.14898e-09
-1.2224e-09
2.33598e-08
-1.19167e-08
-3.25662e-09
2.13222e-08
-2.51393e-08
-5.53358e-09
1.87562e-08
-2.42277e-08
-1.69985e-08
1.6087e-08
-8.89282e-09
-3.18947e-08
1.65599e-08
-1.39932e-08
5.10041e-09
7.68135e-08
-3.11253e-08
-2.21297e-08
1.04715e-07
-2.37544e-08
-1.36596e-08
1.1924e-07
-1.43898e-08
-5.82435e-09
1.19049e-07
-2.04207e-10
-2.37885e-09
1.07885e-07
1.21039e-08
-2.16257e-09
8.9648e-08
2.01996e-08
-5.21947e-09
7.03718e-08
2.47477e-08
-1.1005e-08
5.13159e-08
1.81008e-08
-1.60433e-08
2.93858e-08
5.01062e-09
-1.49752e-08
4.78855e-08
-3.2493e-08
8.07692e-08
-8.19119e-08
6.80723e-09
1.07978e-07
-6.78649e-08
1.6902e-08
1.16027e-07
-4.78641e-08
2.5425e-08
1.08878e-07
-2.2259e-08
2.92044e-08
9.18542e-08
2.37932e-09
2.67479e-08
6.84131e-08
2.52382e-08
1.84025e-08
4.447e-08
4.32363e-08
5.45455e-09
2.90571e-08
3.68455e-08
-3.33184e-09
1.85376e-08
2.19101e-08
-6.37991e-09
8.96444e-08
-2.32213e-08
9.09866e-08
-2.4041e-07
1.04481e-07
1.27031e-07
-2.13154e-07
1.09244e-07
1.4228e-07
-1.6901e-07
1.05897e-07
1.36556e-07
-1.12756e-07
9.62207e-08
1.09391e-07
-4.63786e-08
7.59234e-08
7.44475e-08
1.20141e-08
4.81676e-08
5.05163e-08
4.71131e-08
2.00546e-08
4.40843e-08
4.71952e-08
-3.91788e-09
2.12494e-08
5.20115e-08
-7.26659e-09
1.40402e-07
-2.95082e-08
1.14068e-07
-6.84566e-07
3.60293e-07
1.72395e-07
-6.26075e-07
3.54594e-07
1.94118e-07
-5.0211e-07
3.11377e-07
1.70603e-07
-3.34419e-07
2.45179e-07
1.13445e-07
-1.63469e-07
1.74249e-07
5.3968e-08
-3.85576e-08
1.10048e-07
8.62556e-09
3.55399e-08
5.69157e-08
-3.64131e-08
4.91307e-08
4.31031e-08
-8.7296e-08
-2.64333e-08
1.29328e-07
-1.17364e-08
6.48423e-08
1.86542e-07
-1.57974e-06
7.02545e-07
3.4078e-07
-1.48848e-06
7.08165e-07
4.34894e-07
-1.28312e-06
6.86894e-07
4.61348e-07
-9.81503e-07
6.2063e-07
3.93002e-07
-5.76926e-07
4.81803e-07
2.64035e-07
-2.18906e-07
3.09315e-07
1.28492e-07
-2.12564e-08
1.9234e-07
-4.49473e-08
1.09076e-08
2.11662e-07
-2.0697e-07
-2.51219e-07
3.86808e-07
-4.78646e-07
2.5994e-07
3.80966e-07
-2.39345e-06
4.47494e-07
6.92132e-07
-2.25174e-06
4.52096e-07
8.87811e-07
-1.99244e-06
5.13642e-07
9.43281e-07
-1.6571e-06
6.20127e-07
8.54423e-07
-1.17329e-06
6.85225e-07
5.97128e-07
-5.63558e-07
6.01948e-07
2.58172e-07
-1.49223e-07
4.66922e-07
-7.28896e-08
-8.35916e-08
4.25561e-07
-2.91089e-07
-5.20086e-07
4.87066e-07
-1.13251e-06
3.62774e-07
6.26965e-07
-2.54971e-06
-4.13057e-07
1.13691e-06
-2.32736e-06
-4.34317e-07
1.49648e-06
-1.90787e-06
-4.44141e-07
1.58643e-06
-1.3823e-06
-3.64744e-07
1.37401e-06
-8.98769e-07
-6.21041e-08
1.04631e-06
-5.38656e-07
3.02793e-07
5.65758e-07
-1.23011e-07
4.54342e-07
8.7304e-08
-5.90727e-08
4.53935e-07
-2.01881e-07
-5.35885e-07
3.04984e-07
-1.44221e-06
1.0782e-07
3.94186e-07
-2.21361e-06
-6.91067e-07
7.96445e-07
-1.97026e-06
-7.59365e-07
1.01744e-06
-1.29326e-06
-8.35607e-07
1.04263e-06
-3.81979e-07
-1.02551e-06
1.30913e-06
-5.56473e-08
-1.10962e-06
1.68628e-06
-3.70036e-08
-8.78801e-07
1.55439e-06
4.49628e-07
-4.40749e-07
9.21192e-07
5.53147e-07
2.0976e-08
1.58755e-07
1.0784e-07
1.18713e-07
-8.94668e-07
-3.88788e-07
-4.11891e-07
-2.40792e-06
3.81765e-07
-1.17335e-06
-1.82317e-06
6.1437e-07
-3.63031e-06
-1.81743e-07
1.34545e-06
-5.89285e-06
1.3116e-06
5.68959e-07
-6.76121e-06
1.3876e-06
-5.74886e-07
-2.00971e-06
-3.80214e-06
-9.86365e-07
2.9562e-07
-8.62068e-07
-9.93631e-07
9.74592e-07
3.62424e-07
-4.88249e-07
2.94307e-07
9.27127e-07
-1.39002e-07
-3.43779e-08
-5.65983e-07
1.83961e-07
3.92672e-07
-3.202e-06
4.59292e-07
1.06855e-06
-3.16704e-06
1.20206e-06
2.25795e-06
-3.18246e-06
1.28979e-06
3.27701e-06
-2.05313e-06
-2.37003e-06
4.60605e-06
4.41366e-07
-5.78613e-06
-6.38965e-07
2.52927e-07
-6.20286e-06
-3.44662e-07
-1.00669e-07
-5.69615e-08
-4.71641e-06
-1.06707e-06
2.85628e-07
1.20667e-06
-6.22133e-07
8.08715e-07
-5.57464e-07
4.61438e-07
2.83938e-06
-2.81381e-06
8.73231e-07
3.53091e-06
-2.87415e-06
1.8304e-06
4.65092e-06
-3.35013e-06
3.6346e-06
5.36572e-06
-3.8929e-06
4.79509e-06
5.82591e-06
-2.38035e-06
1.72934e-06
2.86795e-06
-4.41169e-07
-8.51491e-07
4.34063e-07
1.80211e-06
-1.48705e-06
-2.60797e-06
-1.47288e-06
-4.77212e-08
-1.31319e-07
-1.01339e-07
9.00691e-07
-1.39698e-07
8.902e-07
3.69234e-06
-1.20072e-06
1.30462e-06
4.0537e-06
-9.37214e-07
1.77465e-06
4.93077e-06
-7.49881e-07
2.49257e-06
5.84814e-06
-1.20034e-06
3.10108e-06
6.77978e-06
-1.56237e-06
-1.27867e-06
7.05237e-06
1.95335e-07
-7.53638e-06
5.2213e-06
1.47048e-06
-1.31358e-05
1.85614e-06
1.13532e-06
-2.06544e-06
-1.36291e-05
2.42745e-06
-3.18653e-06
2.02178e-06
1.21243e-06
4.05771e-06
-6.81136e-07
1.5723e-06
3.90383e-06
-2.10008e-07
1.78136e-06
4.11133e-06
6.10395e-07
1.97101e-06
4.56624e-06
1.09223e-06
2.64692e-06
4.95645e-06
1.14741e-06
3.17468e-06
4.85872e-06
1.66589e-06
-1.11065e-06
7.51108e-06
1.99555e-06
-1.11127e-06
3.44126e-06
-1.58449e-06
-1.31821e-06
-8.98101e-06
-4.44119e-06
-5.89948e-06
1.39474e-06
1.07546e-06
3.69629e-06
-5.70666e-08
1.39497e-06
3.24267e-06
3.41678e-07
1.802e-06
2.87062e-06
8.33675e-07
2.7368e-06
2.37182e-06
1.25963e-06
4.3038e-06
1.63617e-06
1.75329e-06
6.86136e-06
4.7798e-07
1.82317e-06
7.67561e-06
5.23089e-06
1.46595e-06
5.73765e-06
7.18655e-06
-1.80731e-06
1.51948e-06
1.8551e-06
-6.61794e-06
-2.76726e-06
-1.61275e-06
6.82286e-07
2.50827e-06
7.13379e-07
1.11169e-06
1.97574e-06
8.37523e-07
1.87584e-06
1.32884e-06
7.7762e-07
3.29473e-06
4.51557e-07
5.01358e-07
4.87392e-06
-6.7695e-07
7.33928e-07
5.4664e-06
-1.78068e-06
1.66618e-06
5.46213e-06
3.87808e-06
1.35707e-06
3.71181e-06
1.04681e-05
-1.53128e-06
1.76527e-06
8.85956e-06
-5.0579e-06
3.32676e-07
-1.33467e-06
5.05622e-07
1.18846e-06
7.06304e-07
1.09617e-06
7.66141e-07
6.1906e-07
1.80405e-06
2.58614e-07
3.62341e-07
2.76879e-06
-4.03297e-07
-1.0989e-07
3.51394e-06
-1.35711e-06
-6.49911e-08
1.81321e-06
-1.95719e-06
1.87723e-06
6.55634e-07
3.16272e-06
1.87293e-06
6.07088e-07
1.21396e-05
-1.62297e-06
4.54651e-07
1.22968e-05
-3.28477e-06
6.62492e-07
1.24833e-07
4.35346e-07
3.83889e-07
1.69034e-07
9.34189e-07
1.30882e-07
1.36404e-07
1.51842e-06
-2.55144e-07
-7.04717e-08
2.16031e-06
-8.33942e-07
-2.11247e-07
2.36839e-06
-1.45138e-06
-1.13809e-07
-5.15614e-07
-1.01786e-06
1.94467e-06
-3.39959e-06
3.05354e-06
2.99316e-06
-2.44948e-06
1.16786e-05
-4.89088e-07
-2.02454e-07
1.12873e-05
-1.23757e-06
2.09393e-07
2.50641e-07
3.08328e-07
5.4093e-08
-1.21424e-07
6.53217e-07
-1.74999e-07
-3.89995e-08
1.13588e-06
-5.39176e-07
-1.98632e-07
1.63042e-06
-1.12557e-06
-2.02915e-07
1.76657e-06
-1.41476e-06
-1.72783e-07
-8.73163e-07
1.31225e-07
1.49065e-06
-4.28055e-06
3.41822e-06
3.0427e-06
-2.90936e-06
8.59087e-06
1.71657e-06
-2.33771e-07
7.68762e-06
9.24093e-07
2.4612e-07
-2.70496e-07
8.66804e-08
-1.84585e-07
-6.37693e-08
3.01342e-07
-8.65171e-08
-3.0314e-07
6.60406e-07
-2.33709e-07
-6.64533e-07
9.38738e-07
-1.19073e-07
-1.28483e-06
1.02027e-06
-2.80868e-07
-1.21543e-06
-3.88239e-07
4.28418e-07
1.11133e-06
-2.85616e-06
1.91175e-06
3.9744e-06
-2.19e-06
1.8766e-06
6.04811e-06
-2.75883e-07
1.41076e-06
4.36274e-06
-6.6065e-07
6.30895e-07
2.02442e-08
-1.0393e-07
1.1867e-07
-5.04669e-09
-8.93954e-08
1.19247e-07
-2.90903e-08
-7.44801e-08
1.12834e-07
-5.06982e-08
-6.03478e-08
1.0269e-07
-6.73697e-08
-4.91226e-08
8.91537e-08
-7.66557e-08
-4.22676e-08
7.28757e-08
-7.59125e-08
-4.05877e-08
5.86007e-08
-5.63018e-08
-5.17247e-08
4.82011e-08
-1.98374e-08
-6.87344e-08
4.88298e-08
-3.26576e-08
1.79206e-08
5.53524e-08
-2.2543e-07
8.68506e-08
5.38843e-08
-1.85827e-07
8.42408e-08
4.62264e-08
-1.48472e-07
7.58253e-08
3.4822e-08
-1.13935e-07
6.26126e-08
2.27184e-08
-8.33136e-08
4.41319e-08
1.19461e-08
-5.98284e-08
2.31136e-08
4.84936e-09
-4.6873e-08
2.37713e-09
6.18012e-09
-5.69241e-08
-1.21747e-08
1.18345e-08
-7.67831e-08
-1.25809e-08
4.0412e-09
-5.73573e-08
6.34324e-08
-3.69442e-07
1.34377e-07
5.747e-08
-2.99829e-07
1.36866e-07
3.85822e-08
-2.31035e-07
1.26876e-07
1.70539e-08
-1.74593e-07
1.11391e-07
-2.11822e-09
-1.25135e-07
8.7741e-08
-1.74379e-08
-8.60919e-08
5.99857e-08
-3.11422e-08
-5.95344e-08
3.18202e-08
-2.25976e-08
-8.07829e-08
1.19823e-08
7.85778e-10
-1.1742e-07
1.08735e-08
1.80617e-08
-3.64561e-08
7.29555e-08
-5.30293e-07
2.40208e-07
7.4413e-08
-4.54817e-07
2.62775e-07
6.11858e-08
-3.63535e-07
2.51624e-07
3.42349e-08
-2.74168e-07
2.22747e-07
-3.52439e-10
-1.92888e-07
1.78264e-07
-2.70429e-08
-1.33683e-07
1.22449e-07
-3.686e-08
-9.32115e-08
6.35488e-08
-2.10948e-08
-1.14602e-07
1.4136e-08
-2.99118e-09
-1.42518e-07
-2.71915e-10
4.19061e-08
-5.63438e-08
8.40304e-08
-6.55971e-07
4.35885e-07
9.2377e-08
-5.86994e-07
4.78424e-07
6.35931e-08
-4.63709e-07
4.40335e-07
1.25446e-08
-3.3308e-07
3.5514e-07
-3.90191e-08
-2.28272e-07
2.61196e-07
-9.26137e-08
-1.42574e-07
1.72534e-07
-1.38312e-07
-8.73747e-08
9.67773e-08
-1.54869e-07
-1.36718e-07
8.17758e-08
-1.32624e-07
-2.03106e-07
1.6767e-07
-3.82964e-08
1.24211e-08
1.28553e-07
-8.79965e-07
7.93675e-07
2.06185e-07
-8.26606e-07
8.70145e-07
2.16757e-07
-6.82825e-07
8.95437e-07
1.59654e-07
-4.89853e-07
8.34506e-07
4.58848e-08
-2.97475e-07
6.64775e-07
-8.19979e-08
-1.41051e-07
4.35675e-07
-2.21063e-07
-3.86619e-08
2.82692e-07
-3.5773e-07
-1.1964e-07
3.31251e-07
-3.43163e-07
-3.20519e-07
4.89654e-07
-2.56521e-07
1.35002e-07
2.14486e-07
-1.33745e-06
6.98509e-07
3.63035e-07
-1.23185e-06
7.08787e-07
4.26493e-07
-1.0115e-06
7.7886e-07
3.78603e-07
-7.00997e-07
8.79161e-07
2.42677e-07
-3.79335e-07
9.0301e-07
4.15628e-08
-1.31797e-07
7.93808e-07
-1.96856e-07
4.395e-08
6.22729e-07
-4.50408e-07
-1.39063e-08
5.73379e-07
-4.7455e-07
-3.5136e-07
5.42049e-07
-5.38488e-07
1.70191e-07
4.4078e-07
-2.29935e-06
1.4564e-07
7.32498e-07
-2.07834e-06
1.20462e-07
8.28549e-07
-1.61238e-06
6.06872e-08
6.70756e-07
-9.53858e-07
4.59107e-08
4.12474e-07
-3.56838e-07
1.7368e-07
1.86937e-07
7.76887e-08
3.18845e-07
1.07283e-08
2.6515e-07
4.09351e-07
-2.06211e-07
2.41334e-07
4.15634e-07
-3.29963e-07
-1.36095e-07
2.13471e-07
-5.8192e-07
-1.7871e-07
4.93976e-07
-4.89774e-06
1.36965e-06
9.0555e-07
-4.60144e-06
1.35216e-06
1.1573e-06
-3.9417e-06
1.24196e-06
1.2199e-06
-2.9019e-06
8.59934e-07
1.26117e-06
-1.90028e-06
3.92558e-07
1.11782e-06
-6.99661e-07
4.18915e-08
6.54616e-07
3.85942e-07
-9.83343e-08
2.30834e-07
7.82716e-07
-9.6624e-08
-8.53789e-08
5.12004e-07
-2.13174e-07
6.47427e-08
-1.12083e-06
1.47986e-07
-4.25149e-06
-9.8853e-07
3.1756e-07
-3.83376e-06
-3.22884e-07
-1.04077e-06
-2.28382e-06
1.0459e-06
-3.73425e-06
-1.15065e-06
1.51118e-06
-5.35983e-06
-1.53211e-06
6.82533e-07
-2.33511e-06
-4.97511e-06
2.64363e-07
4.08389e-08
-2.95782e-06
-2.58193e-08
4.09898e-07
2.66741e-07
-3.41333e-07
2.19671e-07
9.72617e-07
-4.09388e-07
9.6189e-07
-1.24346e-06
3.72097e-07
-1.94408e-06
-6.64985e-06
1.13129e-06
-1.34061e-06
-6.41938e-06
1.74849e-06
3.05204e-08
-6.11399e-06
1.21713e-06
1.83218e-06
-4.5046e-06
-2.42937e-06
2.1932e-06
3.62559e-07
-5.38877e-06
-1.28594e-06
-4.76848e-07
-7.03327e-06
-1.7379e-06
3.23909e-07
-1.26062e-06
-8.04969e-06
1.47671e-06
7.03615e-07
-2.78091e-06
1.16715e-06
1.29939e-06
-1.9135e-07
-3.61058e-07
-1.19435e-06
-4.24149e-06
4.47829e-07
-2.11407e-07
-4.81224e-06
1.74076e-06
1.33309e-06
-5.94562e-06
3.57323e-06
2.95042e-06
-6.84361e-06
4.53588e-06
4.35104e-06
-5.50084e-06
2.3725e-06
3.7262e-06
-3.28993e-06
1.45494e-06
2.13041e-06
-1.14863e-06
1.5372e-08
-4.14001e-06
-3.943e-06
2.18012e-08
-2.90191e-06
1.32399e-08
-1.21525e-07
1.30302e-06
-1.22801e-06
-5.41046e-07
-2.01598e-06
-8.37536e-07
5.02236e-07
-2.04131e-06
2.60934e-09
1.97182e-06
-2.22876e-06
1.37951e-06
3.4327e-06
-3.05952e-06
3.28768e-06
5.28164e-06
-4.40115e-06
4.21706e-06
6.56994e-06
-3.57778e-06
9.84653e-07
8.28625e-06
-1.45295e-06
-2.73294e-06
4.99792e-06
-4.28502e-06
-2.47903e-06
-3.73804e-06
3.00967e-06
-1.38302e-05
1.32514e-05
-1.20031e-06
3.69093e-07
-1.09487e-06
-7.77598e-07
4.53931e-07
-5.84414e-07
1.31687e-07
1.03387e-06
6.39055e-07
1.1394e-06
1.91547e-06
1.60175e-06
2.79717e-06
3.43492e-06
1.33636e-06
5.94219e-06
4.96822e-06
1.22589e-07
8.25833e-06
8.9379e-06
-9.72254e-07
7.23836e-06
8.8801e-06
-4.44669e-06
4.29697e-06
1.81358e-06
-7.05142e-06
-9.26616e-06
1.12768e-06
-8.34006e-07
9.57756e-07
-1.87836e-07
-6.19755e-07
6.71305e-07
-8.99622e-08
5.37682e-07
2.85165e-07
4.24939e-07
2.49831e-06
-5.91916e-08
1.27365e-06
4.52179e-06
4.73272e-07
2.69147e-06
7.09756e-06
1.66583e-06
2.54978e-06
9.59555e-06
7.65379e-06
2.52076e-07
9.49237e-06
1.10588e-05
-3.88278e-06
6.15719e-06
7.91565e-06
-9.38483e-06
1.43054e-06
-6.15225e-06
-8.20006e-08
8.4576e-07
4.51636e-07
4.18225e-07
5.51497e-07
4.57097e-07
1.1971e-06
9.07227e-08
1.93169e-07
2.73809e-06
-8.20764e-07
-2.78057e-07
4.66151e-06
-1.00122e-06
2.85005e-07
5.90209e-06
2.49399e-07
1.84203e-06
7.20432e-06
7.3812e-06
3.2744e-07
6.96985e-06
1.31874e-05
-3.42541e-06
4.16565e-06
1.26503e-05
-6.98837e-06
7.89803e-06
-3.63652e-06
3.67661e-07
3.69923e-07
3.94077e-07
9.62815e-07
1.41384e-07
4.34027e-07
1.59734e-06
-2.61274e-07
7.98079e-08
2.36858e-06
-1.22274e-06
-4.79145e-07
3.20405e-06
-1.3136e-06
-5.88078e-07
2.81608e-06
1.1325e-06
1.38209e-06
3.61758e-06
8.35349e-06
9.91339e-08
3.95773e-06
1.49107e-05
-3.68649e-06
1.91645e-06
1.55559e-05
-4.14906e-06
9.53448e-06
4.04836e-07
4.32284e-07
3.05464e-08
-6.02922e-08
7.77581e-07
-1.72241e-07
1.0473e-07
1.29339e-06
-6.56372e-07
-1.91183e-07
1.71708e-06
-1.44974e-06
-4.07924e-07
1.43403e-06
-9.40164e-07
-2.04193e-07
-3.21485e-07
3.28926e-06
1.54344e-06
4.65807e-07
1.01966e-05
3.62731e-07
1.40844e-06
1.68998e-05
-3.42083e-06
-2.3481e-07
1.7226e-05
-1.26448e-06
6.85862e-06
2.69169e-06
2.69967e-07
-1.08208e-07
-3.16331e-07
4.3646e-07
-3.65326e-07
-1.24074e-08
7.42939e-07
-8.73973e-07
-2.8751e-07
8.85316e-07
-1.47114e-06
-3.23886e-07
8.74551e-08
-2.58992e-07
-5.60846e-08
-2.01106e-06
5.24502e-06
1.6334e-06
-2.40767e-06
1.25639e-05
1.07207e-06
-1.19983e-06
1.88374e-05
-1.42882e-06
-1.41708e-06
1.70195e-05
1.34791e-06
3.85501e-06
1.31606e-06
-1.37846e-08
-3.50928e-07
-1.37048e-07
4.07373e-08
-4.97599e-08
-4.56623e-07
1.22822e-07
-2.50261e-07
-9.395e-07
2.37716e-08
-2.2316e-07
-1.268e-06
-8.5174e-07
-1.4359e-07
4.79244e-07
-2.78408e-06
1.16091e-06
6.44486e-06
-4.19688e-06
1.73548e-06
1.41529e-05
-3.07672e-06
6.92805e-07
1.8901e-05
-1.26183e-06
2.34596e-06
1.42694e-05
-3.23353e-07
2.25589e-06
2.93359e-08
-1.04568e-07
2.39731e-07
3.82134e-10
-7.84586e-08
2.26659e-07
-2.59657e-08
-5.48152e-08
1.93997e-07
-4.82442e-08
-3.73246e-08
1.62293e-07
-6.53551e-08
-2.46959e-08
1.30961e-07
-7.62806e-08
-1.89856e-08
1.02787e-07
-7.52798e-08
-2.04665e-08
7.80665e-08
-5.61728e-08
-3.5056e-08
6.41501e-08
-1.96037e-08
-5.25852e-08
6.4846e-08
-1.78564e-08
1.61733e-08
6.67938e-08
-2.18235e-07
1.89584e-07
6.42268e-08
-1.65012e-07
1.73361e-07
5.60149e-08
-1.08556e-07
1.37778e-07
4.20105e-08
-6.40707e-08
1.03363e-07
2.638e-08
-3.3122e-08
6.81885e-08
1.41094e-08
-1.84621e-08
3.48607e-08
5.41682e-09
-1.42126e-08
4.81587e-09
5.67036e-09
-3.19294e-08
-1.55549e-08
1.28416e-08
-5.84646e-08
-1.38728e-08
1.64434e-08
-7.88155e-08
7.89518e-08
-3.0197e-07
2.06923e-07
7.00808e-08
-2.52123e-07
2.32848e-07
5.05395e-08
-1.70845e-07
2.08707e-07
2.46214e-08
-1.00513e-07
1.73751e-07
1.61062e-09
-5.21855e-08
1.29815e-07
-1.38307e-08
-2.59008e-08
8.28657e-08
-2.76532e-08
-9.54849e-09
4.09785e-08
-2.19058e-08
-4.09788e-08
1.52843e-08
-4.30704e-10
-8.70371e-08
1.79709e-08
3.18881e-08
-5.23316e-08
1.19631e-07
-3.2222e-07
2.16781e-07
1.08703e-07
-3.24929e-07
3.46508e-07
8.07846e-08
-2.49845e-07
3.58542e-07
3.92136e-08
-1.50216e-07
3.14022e-07
-6.0681e-09
-7.51447e-08
2.46505e-07
-4.08359e-08
-3.79497e-08
1.69265e-07
-4.99612e-08
-2.94504e-08
9.2576e-08
-2.87153e-08
-7.81714e-08
3.00828e-08
-1.70278e-09
-1.26558e-07
1.22359e-08
3.86316e-08
-6.47901e-08
1.74167e-07
-2.62616e-07
2.74268e-07
1.58144e-07
-3.50432e-07
5.19951e-07
9.88731e-08
-3.20878e-07
5.70639e-07
3.54432e-08
-2.23376e-07
4.91729e-07
-1.75495e-08
-1.2689e-07
3.65934e-07
-6.24866e-08
-5.83066e-08
2.37828e-07
-1.04622e-07
-1.70359e-08
1.26498e-07
-9.44364e-08
-9.70876e-08
9.05065e-08
-5.16157e-08
-1.52646e-07
1.50937e-07
2.66012e-08
-2.71644e-08
2.15758e-07
-2.68929e-07
6.28429e-07
2.16411e-07
-3.51627e-07
8.70686e-07
1.24919e-07
-3.23644e-07
9.89695e-07
1.33821e-08
-2.04095e-07
9.26762e-07
-8.47935e-08
-9.21579e-08
7.28218e-07
-1.89535e-07
-1.08714e-08
4.92981e-07
-2.96428e-07
5.07537e-08
3.21796e-07
-3.55474e-07
-4.19906e-08
3.352e-07
-2.53555e-07
-1.33192e-07
3.68282e-07
-2.70133e-08
-6.49387e-08
2.08889e-07
-8.25486e-07
1.08196e-06
2.35208e-07
-7.85267e-07
1.11611e-06
1.32934e-07
-6.0433e-07
1.16182e-06
-3.57102e-08
-3.0198e-07
1.14569e-06
-2.13508e-07
-1.8296e-08
1.00695e-06
-3.61011e-07
1.42902e-07
7.87539e-07
-4.94448e-07
2.11251e-07
5.95668e-07
-6.15061e-07
1.2651e-07
5.25492e-07
-4.9603e-07
-1.59588e-08
3.05784e-07
-1.58052e-07
-1.948e-07
4.24754e-07
-1.84899e-06
7.60981e-07
6.9125e-07
-1.69137e-06
7.60071e-07
7.2366e-07
-1.30564e-06
7.29586e-07
5.25355e-07
-6.23592e-07
5.65828e-07
2.24241e-07
1.47912e-08
4.41706e-07
-4.00297e-08
3.80734e-07
3.45283e-07
-2.31389e-07
5.16676e-07
2.95286e-07
-4.07405e-07
4.4922e-07
2.6894e-07
-4.5559e-07
2.24725e-07
2.09726e-08
-1.61027e-07
-6.31327e-07
4.27026e-07
-4.44318e-06
3.42601e-06
7.26337e-07
-4.16288e-06
3.52435e-06
7.77497e-07
-3.55906e-06
3.44423e-06
7.45639e-07
-2.63733e-06
2.90553e-06
7.35812e-07
-1.50729e-06
1.92446e-06
5.62406e-07
-2.24347e-07
8.20379e-07
3.47734e-07
5.11863e-07
1.2115e-07
1.53786e-07
8.65841e-07
-3.19297e-07
5.26712e-08
7.55721e-07
-6.43055e-07
4.42485e-07
-1.67167e-06
1.00938e-06
-3.00639e-06
-3.87599e-06
1.33405e-06
-2.65297e-06
-2.15746e-06
5.66146e-07
-1.39961e-06
-3.4565e-07
-1.92782e-06
-1.30138e-07
1.49796e-06
-5.32154e-06
1.00287e-06
1.56609e-06
-2.04824e-06
-5.48898e-06
2.2557e-06
-2.86433e-07
-2.51477e-06
1.239e-06
3.58151e-07
-3.14651e-07
1.94575e-07
5.84541e-07
3.33635e-07
-2.13692e-07
3.66063e-07
-5.82497e-07
9.2193e-07
-2.92139e-06
-8.41919e-06
2.30597e-06
-2.30255e-06
-8.15384e-06
2.75616e-06
-4.48682e-07
-7.5151e-06
2.21928e-06
1.65105e-06
-5.74891e-06
2.10844e-06
3.08867e-06
-1.61238e-06
-1.55422e-06
-1.69686e-06
-6.06312e-07
-5.05899e-06
1.14269e-06
1.71222e-07
-1.57853e-06
-6.95751e-06
4.63911e-06
9.97601e-07
-8.67849e-06
7.60314e-06
-4.51167e-06
5.68398e-06
-5.35721e-07
-2.70023e-06
-5.11195e-06
6.85383e-07
-1.9036e-06
-6.43229e-06
2.53633e-06
-5.80807e-07
-7.66444e-06
4.13084e-06
1.11584e-06
-7.9029e-06
5.67209e-06
2.8182e-06
-6.77161e-06
3.87634e-06
2.7307e-06
-5.92175e-06
5.40771e-06
3.50756e-06
-5.04486e-06
3.40146e-06
-1.67614e-06
-7.21812e-06
1.70983e-06
-4.33268e-06
-2.64093e-06
-2.40733e-06
9.08502e-07
-1.97813e-06
-2.04223e-06
-2.9275e-06
-1.42671e-06
-1.10319e-06
-3.39314e-06
2.45226e-08
7.25564e-08
-4.33335e-06
2.00544e-06
1.23015e-06
-5.15474e-06
3.61894e-06
2.80422e-06
-6.00066e-06
4.45198e-06
4.38036e-06
-6.06047e-06
6.52263e-06
5.45715e-06
-5.47319e-06
3.64557e-06
4.33739e-06
-7.4215e-06
-1.35273e-06
4.53412e-06
-8.58822e-07
1.83688e-06
7.65448e-06
-2.97848e-06
-1.26294e-06
-1.52747e-06
-2.70044e-06
-7.52018e-07
-1.21361e-06
-1.00503e-06
-4.57571e-07
-5.26246e-07
1.00917e-06
6.26947e-07
1.90761e-07
2.76547e-06
2.87442e-06
-4.90128e-07
4.33618e-06
5.22901e-06
-2.29677e-06
5.42535e-06
7.01227e-06
-3.61655e-06
3.7413e-06
7.23929e-06
-5.66454e-06
1.17199e-06
7.90975e-06
-7.85773e-06
2.98456e-06
1.15199e-06
-1.76139e-06
-5.56732e-07
-6.9165e-07
-1.92586e-06
-2.2061e-07
-4.56908e-07
-1.1452e-06
-5.21389e-07
-2.91909e-07
9.05419e-07
-3.26251e-07
1.76228e-07
3.0508e-06
2.31071e-06
1.1098e-06
4.58349e-06
5.54595e-06
7.00159e-07
4.85902e-06
8.89703e-06
-1.90822e-06
2.91271e-06
9.97608e-06
-4.67325e-06
9.62914e-07
9.58865e-06
-9.11393e-06
5.53555e-06
-7.74033e-06
-3.41225e-07
-4.30148e-07
-2.95696e-07
-1.43813e-07
-7.64231e-08
1.15499e-07
1.27019e-07
-3.85324e-07
-2.13728e-07
8.36624e-07
-8.83038e-07
-4.30873e-07
2.5329e-06
1.42998e-06
-5.30534e-07
4.13085e-06
5.47072e-06
3.19316e-07
4.38312e-06
1.05067e-05
-1.5345e-06
2.31251e-06
1.24938e-05
-3.87248e-06
1.72837e-07
1.10927e-05
-6.35274e-06
6.95782e-06
-4.88595e-06
2.65291e-07
-3.26132e-07
-4.02914e-07
6.2912e-07
-1.96799e-07
1.90555e-07
1.10497e-06
-5.74903e-07
-2.0647e-07
1.30707e-06
-1.18185e-06
-3.82431e-07
1.88833e-06
8.51212e-07
-5.90563e-07
3.2143e-06
6.14627e-06
-6.19418e-07
3.69243e-06
1.20467e-05
-1.91895e-06
1.54871e-06
1.43161e-05
-3.36517e-06
-1.23397e-06
1.25025e-05
-2.77622e-06
6.08865e-06
4.0036e-08
3.95087e-07
-1.98823e-07
-6.85734e-07
5.73502e-07
-3.23405e-07
5.29156e-08
9.72982e-07
-8.3247e-07
-3.33088e-07
1.14244e-06
-1.3224e-06
-4.36823e-07
1.01378e-06
9.13283e-07
-1.37598e-07
1.94275e-06
7.44395e-06
-6.83223e-07
2.64135e-06
1.37213e-05
-2.01049e-06
1.05059e-08
1.60408e-05
-2.51465e-06
-2.85078e-06
1.40731e-05
2.6286e-08
4.15435e-06
1.77521e-06
2.09609e-07
-7.78838e-08
-8.03367e-07
2.28917e-07
-3.98197e-07
4.30596e-08
3.78458e-07
-9.09988e-07
-3.59529e-07
3.41364e-07
-1.20825e-06
-4.00936e-07
-1.19058e-07
1.29079e-06
2.68299e-08
4.09511e-07
8.65541e-06
-1.06626e-07
9.60835e-07
1.55237e-05
-1.28162e-06
-1.40266e-06
1.80376e-05
-1.06214e-06
-2.4053e-06
1.48781e-05
1.54548e-06
2.79914e-06
2.65963e-07
-3.0551e-08
-6.96486e-07
2.22442e-08
-1.83294e-07
9.90544e-08
-3.94271e-07
-2.53431e-07
-2.36971e-07
-8.53142e-07
-5.72936e-07
-2.99241e-07
-8.12671e-07
-1.27561e-06
1.9266e-08
1.8306e-06
-1.40496e-06
5.68967e-07
9.37671e-06
-1.4975e-06
1.57734e-07
1.7194e-05
-2.88623e-06
6.87287e-07
1.94319e-05
-1.30182e-06
1.90141e-06
1.37383e-05
-7.70376e-07
1.94434e-06
1.95402e-08
-1.70483e-08
2.97774e-07
-1.83936e-08
-6.15593e-09
2.70749e-07
-4.44142e-08
4.38814e-09
2.1563e-07
-6.61534e-08
1.12637e-08
1.72769e-07
-8.41961e-08
1.39939e-08
1.35009e-07
-9.25417e-08
9.80549e-09
1.01327e-07
-8.99255e-08
8.25522e-10
7.46248e-08
-6.44904e-08
-2.14312e-08
6.01463e-08
-2.05456e-08
-4.2398e-08
6.32991e-08
-7.49419e-09
3.1218e-09
5.88134e-08
-2.91098e-08
2.27124e-07
3.79133e-08
-2.22525e-08
2.10358e-07
3.20059e-08
2.07395e-09
1.45999e-07
1.98593e-08
2.87806e-08
9.79927e-08
4.75606e-09
4.10922e-08
5.61935e-08
-5.64741e-09
3.58688e-08
1.92009e-08
-1.2633e-08
2.1115e-08
-8.488e-09
-7.33887e-09
-1.4397e-08
-2.78832e-08
8.52743e-09
-4.85663e-08
-2.35708e-08
2.22572e-08
-1.00039e-07
1.23577e-07
7.10227e-08
8.92782e-08
7.0073e-08
2.45506e-08
2.39549e-07
2.97043e-08
2.17175e-08
2.29432e-07
-3.02502e-09
5.1106e-08
1.84155e-07
-2.69915e-08
6.88639e-08
1.2601e-07
-4.49847e-08
6.02812e-08
7.64463e-08
-5.25977e-08
4.06142e-08
2.90922e-08
-3.99345e-08
-1.4816e-08
3.0402e-09
-9.4481e-09
-6.86182e-08
7.53602e-09
3.73838e-08
-7.69064e-08
2.36648e-07
2.5878e-07
-7.22311e-08
1.5431e-07
1.49418e-07
3.03979e-07
6.01398e-08
8.65431e-08
3.87887e-07
-1.02395e-08
9.81026e-08
3.37404e-07
-6.4858e-08
1.17479e-07
2.52508e-07
-1.03747e-07
1.01404e-07
1.67032e-07
-1.09372e-07
5.29289e-08
8.58861e-08
-7.24996e-08
-4.24036e-08
2.07981e-08
-2.51511e-08
-1.13235e-07
9.50446e-09
3.53661e-08
-8.79235e-08
3.23656e-07
6.75557e-07
-3.3371e-07
2.58225e-07
4.11775e-07
3.23025e-07
1.04648e-07
1.97324e-07
6.13436e-07
-2.14544e-08
1.28392e-07
5.87542e-07
-9.81357e-08
1.20306e-07
4.39789e-07
-1.34455e-07
1.05497e-07
2.70053e-07
-1.48023e-07
7.276e-08
1.20235e-07
-1.14416e-07
-3.85474e-08
5.30433e-08
-6.1537e-08
-1.13443e-07
9.82659e-08
1.4156e-08
-6.74916e-08
2.97455e-07
9.22529e-07
1.69985e-07
3.12534e-07
6.74493e-07
5.9289e-07
1.52953e-07
4.66167e-07
8.80432e-07
-4.20766e-08
3.62873e-07
8.87311e-07
-1.99049e-07
2.89345e-07
7.16151e-07
-3.03133e-07
2.28709e-07
4.73853e-07
-3.6533e-07
1.76433e-07
2.80318e-07
-3.48105e-07
4.53633e-08
2.34064e-07
-2.27451e-07
-4.47905e-08
1.78976e-07
-4.86053e-08
-2.29628e-07
1.7064e-07
4.61402e-07
1.43502e-06
1.85787e-07
4.05079e-07
1.37037e-06
4.39709e-08
4.28156e-07
1.34165e-06
-1.80027e-07
4.42916e-07
1.28965e-06
-3.87164e-07
4.15012e-07
1.08842e-06
-5.51969e-07
4.46512e-07
7.34542e-07
-6.7245e-07
4.07829e-07
4.84754e-07
-7.22858e-07
2.23091e-07
3.98172e-07
-5.37361e-07
4.33172e-08
3.21793e-08
-2.38731e-07
-5.42035e-07
2.75252e-07
-5.93922e-07
1.59595e-06
3.78123e-07
-5.7558e-07
1.63786e-06
3.68071e-07
-5.89869e-07
1.75766e-06
2.31994e-07
-2.49965e-07
1.39479e-06
5.09071e-08
1.30354e-07
9.07451e-07
-1.55465e-07
5.71163e-07
4.27004e-07
-3.33793e-07
7.46753e-07
1.3469e-07
-4.52538e-07
5.21046e-07
8.97304e-08
-4.73207e-07
2.36961e-07
-1.52003e-07
-2.54611e-07
-1.08865e-06
4.29707e-07
-3.24921e-06
5.46043e-06
6.48287e-07
-3.52805e-06
6.25824e-06
3.2168e-07
-3.13002e-06
6.31099e-06
-1.45872e-07
-2.09194e-06
5.21506e-06
-3.61581e-07
-1.18437e-06
3.4549e-06
-2.66353e-07
-3.12103e-07
1.60842e-06
-1.19823e-07
4.62811e-07
2.58562e-07
9.74012e-08
5.34277e-07
-5.49752e-07
4.46812e-07
3.907e-07
-1.14621e-06
3.55396e-07
-1.83487e-06
1.30154e-06
-1.87677e-06
-6.1857e-06
1.02765e-06
-1.25613e-06
-4.15549e-06
-5.75875e-07
-2.21288e-07
-1.65085e-06
-2.88382e-06
6.40341e-07
1.07363e-06
-6.25546e-06
9.78828e-07
2.77454e-06
-3.35998e-06
-5.22743e-06
4.27556e-06
-1.39672e-06
-3.28186e-06
3.02041e-06
-3.11386e-08
-2.32439e-06
1.68766e-06
1.07145e-06
-2.68925e-06
1.76367e-06
-5.06863e-07
1.35121e-06
1.57931e-06
-4.00448e-06
-9.10259e-06
3.4023e-06
-1.79857e-06
-9.43438e-06
3.40204e-06
9.08054e-07
-8.64417e-06
1.92217e-06
2.02893e-06
-5.65763e-06
1.59568e-06
2.28465e-06
-2.59171e-06
-6.7369e-07
-1.91277e-06
-1.65159e-06
-1.49025e-06
-1.08932e-06
-1.20475e-06
-2.39039e-07
1.16806e-06
-1.0455e-07
2.98232e-07
-2.56509e-06
6.94172e-06
-1.2446e-06
6.71995e-06
-4.66181e-07
-3.62454e-06
-5.97369e-06
1.32385e-06
-2.17211e-06
-7.84876e-06
3.489e-06
-4.17267e-07
-8.50427e-06
4.68786e-06
7.82564e-07
-7.85541e-06
5.83665e-06
1.27329e-06
-6.90903e-06
4.56417e-06
4.01172e-07
-6.96322e-06
4.24195e-06
3.63873e-07
-6.17582e-06
1.76878e-06
2.07463e-06
-5.65153e-06
-9.10944e-07
1.6425e-06
-4.16878e-06
2.34365e-07
-1.4814e-06
-1.12247e-06
-2.76304e-06
-3.9401e-06
-4.09101e-07
-1.77059e-06
-4.50803e-06
1.18095e-06
-9.1151e-07
-5.42916e-06
2.95454e-06
-7.40342e-08
-6.07174e-06
3.89772e-06
6.16561e-07
-6.28713e-06
3.82886e-06
6.1429e-07
-6.20472e-06
3.83315e-06
4.4383e-07
-5.55745e-06
7.82776e-07
2.75208e-06
-5.04857e-06
-1.39887e-06
7.43942e-06
-4.47409e-06
5.3419e-06
1.14808e-06
-1.96276e-06
-1.91592e-06
-2.41619e-06
-2.18061e-06
-9.76351e-07
-1.78999e-06
-1.1333e-06
-6.31648e-07
-1.85343e-06
1.01043e-06
-2.09634e-07
-1.81737e-06
2.63355e-06
1.10018e-06
-2.59687e-06
2.85211e-06
1.94555e-06
-3.84659e-06
1.88183e-06
1.95257e-06
-4.155e-06
-7.69565e-07
4.02791e-06
-4.28897e-06
-2.65648e-06
7.41381e-06
-5.9452e-06
7.32804e-06
-3.49063e-06
-1.09865e-06
-1.38186e-06
-1.71786e-06
-1.31612e-06
-5.56661e-07
-6.59135e-07
-1.05694e-06
-4.6842e-07
-7.14321e-07
5.35753e-08
-4.78769e-07
-6.65149e-07
1.85976e-06
1.33116e-06
-9.27364e-07
2.44441e-06
4.01453e-06
-1.95347e-06
7.57709e-07
4.6362e-06
-2.90515e-06
-1.84676e-06
5.78855e-06
-3.82941e-06
-2.43902e-06
5.23626e-06
-6.34411e-06
3.48809e-06
-6.3394e-06
-1.48396e-07
-9.8318e-07
-1.42126e-06
9.35648e-08
-4.84786e-07
-1.9833e-07
4.04343e-07
-5.80811e-07
-4.12117e-07
5.76811e-07
-7.51014e-07
-3.31091e-07
1.24458e-06
7.8098e-07
-6.48111e-07
1.87509e-06
5.15654e-06
-1.45321e-06
4.80131e-07
6.93498e-06
-2.43833e-06
-1.67185e-06
7.07383e-06
-3.00579e-06
-2.15421e-06
3.69113e-06
-4.32524e-06
3.31564e-07
-3.88365e-06
3.2445e-07
-6.46998e-07
-1.45505e-06
5.17832e-07
-4.30717e-07
-5.69171e-08
9.40302e-07
-7.63738e-07
-4.46012e-07
1.19856e-06
-9.05854e-07
-4.85831e-07
1.03359e-06
5.61984e-07
-2.06604e-07
1.06897e-06
5.88114e-06
-1.3794e-06
-2.56105e-07
8.74397e-06
-2.40287e-06
-2.09048e-06
8.18288e-06
-2.63983e-06
-2.54866e-06
3.72586e-06
-2.35278e-06
-7.01129e-07
-1.47593e-06
3.97929e-07
-4.20899e-07
-1.62524e-06
4.19644e-07
-3.71216e-07
-2.83048e-08
6.3494e-07
-8.29762e-07
-4.82361e-07
8.1946e-07
-9.33379e-07
-5.9382e-07
4.32515e-07
8.98771e-07
-8.74435e-08
1.13924e-07
6.37607e-06
-8.59561e-07
-1.42733e-06
1.02895e-05
-2.01479e-06
-3.12542e-06
9.26576e-06
-1.89945e-06
-2.67105e-06
4.76732e-06
-1.46954e-06
-9.24064e-08
-1.50456e-06
2.49408e-07
-2.02148e-07
-1.62185e-06
1.17996e-07
-3.00764e-07
1.0402e-07
7.23835e-08
-7.28292e-07
-4.15395e-07
6.70431e-08
-8.13769e-07
-5.15205e-07
-3.72475e-07
1.36427e-06
8.40069e-10
-9.60344e-07
6.74656e-06
1.10751e-07
-2.44842e-06
1.14282e-05
-9.32164e-07
-3.72033e-06
1.0168e-05
-6.92434e-07
-1.91274e-06
5.37984e-06
-8.74633e-07
4.03588e-07
-2.14277e-06
3.88163e-08
-1.35548e-06
2.78382e-08
-2.37481e-07
2.92491e-07
-2.17896e-07
-3.77263e-07
-2.3737e-07
-5.88112e-07
-6.88549e-07
-2.90307e-07
-5.11418e-07
-1.27297e-06
1.29151e-07
1.83882e-06
-1.88368e-06
1.06985e-06
6.85638e-06
-2.83493e-06
6.59256e-07
1.18779e-05
-2.91195e-06
2.35067e-07
1.06972e-05
-6.42611e-07
-3.12164e-07
5.32407e-06
-1.4429e-06
4.33505e-07
1.12393e-08
9.38371e-08
2.79662e-07
-5.85777e-08
6.62732e-08
2.74293e-07
-8.6989e-08
4.84789e-08
1.95562e-07
-1.02778e-07
4.41269e-08
1.44431e-07
-1.14684e-07
3.83219e-08
1.08594e-07
-1.21143e-07
2.76232e-08
8.01622e-08
-1.13587e-07
1.10608e-08
5.60081e-08
-7.87992e-08
-1.93501e-08
4.4709e-08
-2.41188e-08
-4.41445e-08
5.27631e-08
-3.91593e-09
-1.7081e-08
9.99461e-08
1.51191e-07
1.86514e-07
2.59258e-08
1.16216e-07
2.34435e-07
-7.8012e-10