/*--------------------------------*- C++ -*----------------------------------*\
| =========                 |                                                 |
| \\      /  F ield         | OpenFOAM: The Open Source CFD Toolbox           |
|  \\    /   O peration     | Version:  2312                                  |
|   \\  /    A nd           | Website:  www.openfoam.com                      |
|    \\/     M anipulation  |                                                 |
\*---------------------------------------------------------------------------*/
FoamFile
{
    version     2.0;
    format      ascii;
    arch        "LSB;label=32;scalar=64";
    class       volScalarField;
    location    "0.43";
    object      alpha.water;
}
// * * * * * * * * * * * * * * * * * * * * * * * * * * * * * * * * * * * * * //

dimensions      [0 0 0 0 0 0 0];

internalField   nonuniform List<scalar> 
8000
(
1
1
1
1
1
1
1
1
1
1
1
1
1
1
1
1
1
1
1
1
1
1
1
1
1
1
1
1
1
1
1
1
1
1
1
1
1
1
1
1
1
1
1
1
1
1
1
1
1
1
1
1
1
1
1
1
1
1
1
1
0.993068
0.992271
0.982511
0.992024
1
1
1
1
1
1
0.767826
0.709959
0.652594
0.717092
0.826094
0.921428
0.968571
0.989016
0.998628
0.999998
0.209099
0.127881
0.0852611
0.188826
0.365478
0.538368
0.692473
0.79031
0.842173
0.867093
0.0106303
0.00748443
0.00266796
0.00114475
0.00184648
0.0303147
0.0823922
0.149833
0.211129
0.245568
0.00313107
0.00264475
0.000768647
0.000144356
1.46252e-05
4.7292e-06
8.21267e-06
7.36992e-06
9.02592e-06
1.14673e-05
0.00082309
0.00085115
0.000266532
3.20968e-05
4.6095e-06
4.15754e-06
1.35665e-05
2.16219e-05
2.19969e-05
2.19387e-05
0.000316476
0.000170644
8.99196e-05
7.19868e-06
4.0104e-06
3.9299e-06
8.52033e-06
1.03755e-05
7.6509e-06
6.09259e-06
0.000235045
2.92243e-05
1.31133e-05
4.59582e-06
3.82472e-06
3.70693e-06
4.18129e-06
3.56497e-06
3.3735e-06
3.28634e-06
0.000354345
5.258e-06
5.14759e-06
4.1748e-06
3.70693e-06
3.60791e-06
3.49279e-06
3.3735e-06
3.28141e-06
3.14442e-06
0.000316452
1.41864e-06
1.28329e-05
5.82068e-06
1.34434e-05
1.98346e-05
1.68388e-05
4.65006e-06
4.67482e-06
7.19931e-06
0.000265
1.09364e-06
1.98281e-05
1.80582e-05
2.82827e-05
2.82827e-05
2.46868e-05
5.3227e-06
3.56091e-06
5.09348e-06
0.000281938
9.10083e-07
1.19713e-05
1.55622e-05
2.04806e-05
9.8748e-06
3.36767e-06
1.37221e-06
3.54118e-07
1.83937e-07
0.000291288
4.50647e-05
1.05266e-06
8.09406e-07
2.97936e-07
2.69742e-10
9.81123e-11
2.65314e-11
9.14083e-12
5.41806e-12
0.000290123
0.000235699
5.85858e-05
4.44278e-07
2.69746e-10
2.99134e-11
3.45168e-12
4.02043e-14
4.93523e-15
1.68687e-14
1
1
1
1
1
1
1
1
1
1
1
1
1
1
1
1
1
1
1
1
1
1
1
1
1
1
1
1
1
1
1
1
1
1
1
1
1
1
1
1
1
1
1
1
1
1
1
1
1
1
1
1
1
1
1
1
1
1
1
1
0.993596
0.989525
0.989181
1
1
1
1
1
1
1
0.707063
0.68677
0.673437
0.760609
0.875569
0.947536
0.978783
0.997003
1
1
0.115435
0.104753
0.0883751
0.120414
0.174474
0.25288
0.338234
0.406196
0.462616
0.489657
0.00503471
0.00458287
0.00192954
0.000549884
0.000258104
0.000206715
0.00660487
0.0285996
0.0441493
0.0515325
0.00149087
0.00149642
0.000540704
0.000108389
2.22377e-05
4.7263e-06
8.74255e-06
1.62814e-06
3.45953e-06
5.79533e-06
0.000589339
0.000505848
0.000240438
3.29353e-05
7.44372e-06
5.19878e-06
3.57131e-06
2.4003e-06
5.83333e-06
9.33926e-06
0.000306672
0.000219216
0.000109311
1.16342e-05
6.19378e-06
1.82353e-05
3.57166e-05
5.2706e-06
6.34561e-06
2.20494e-05
0.000260229
4.71006e-05
5.0412e-05
3.84055e-05
1.86424e-05
3.4307e-05
3.57166e-05
2.95827e-05
7.64212e-06
2.96576e-05
0.000365104
7.03057e-06
2.31765e-05
8.9547e-05
7.46102e-05
2.75082e-05
3.30153e-05
2.09099e-05
1.48572e-05
3.69897e-05
0.000360827
2.47074e-06
8.31118e-05
8.9547e-05
4.73425e-05
1.2557e-05
1.64207e-05
5.05171e-06
1.23287e-05
1.72471e-05
0.000328773
1.1512e-06
8.93561e-05
8.9547e-05
1.81764e-05
1.53246e-05
1.52029e-05
4.41376e-06
2.26668e-06
1.31754e-06
0.000286002
3.75227e-07
7.9192e-05
2.10604e-05
7.67667e-06
4.27519e-06
2.37449e-06
1.22559e-06
4.22805e-10
1.65518e-10
0.000251046
1.29259e-05
1.09455e-05
4.06907e-08
4.44805e-08
3.26827e-11
6.00096e-12
1.79399e-11
1.37367e-12
2.9239e-13
0.000167019
0.000189628
3.35921e-07
1.66769e-09
3.26825e-11
7.43628e-12
8.17957e-13
1.8282e-13
9.25652e-15
2.27315e-14
1
1
1
1
1
1
1
1
1
1
1
1
1
1
1
1
1
1
1
1
1
1
1
1
1
1
1
1
1
1
1
1
1
1
1
1
1
1
1
1
1
1
1
1
1
1
1
1
1
1
1
1
1
1
1
1
1
1
1
1
0.985425
0.989564
1
1
1
1
1
1
1
1
0.668175
0.670251
0.71971
0.798261
0.857477
0.889063
0.906558
0.925021
0.947455
0.962047
0.0925929
0.0808164
0.0857897
0.092751
0.103659
0.116057
0.127494
0.139597
0.14942
0.149328
0.00237166
0.00131822
0.00047049
0.0001103
8.35078e-06
1.1589e-07
8.12088e-08
4.43437e-08
4.23085e-07
2.30096e-05
0.000515215
0.000395781
0.000108185
1.76397e-05
4.1102e-06
3.64668e-06
1.41676e-06
1.52586e-07
1.49165e-07
4.01625e-07
0.000164825
0.000122597
0.000162161
5.13327e-05
5.34977e-06
1.70765e-05
1.32235e-05
3.14485e-07
4.78259e-06
9.37901e-06
0.000311535
0.000222718
0.000217695
5.2972e-05
7.38806e-06
3.19918e-05
3.52816e-05
4.5669e-06
1.44922e-05
6.23117e-05
0.000412373
0.000160789
8.7134e-05
6.35049e-05
4.33969e-05
2.85721e-05
3.21556e-05
1.0927e-05
2.95146e-05
5.47275e-05
0.000375719
3.99754e-05
7.9245e-06
8.04928e-05
3.56028e-05
2.04142e-05
2.17081e-05
1.40696e-05
2.70009e-05
2.46903e-05
0.000180509
2.1053e-05
6.61207e-06
7.48475e-05
9.9097e-06
2.44703e-06
6.41213e-06
5.60478e-06
8.61995e-06
9.09678e-06
6.36803e-05
4.75215e-06
1.33647e-06
4.35684e-05
1.63132e-06
4.65226e-08
1.99922e-06
1.93351e-06
6.24106e-07
5.52219e-09
3.0135e-05
8.05395e-08
1.51979e-06
3.88836e-06
1.64356e-07
1.35714e-07
2.49893e-07
1.74732e-07
1.61097e-11
4.73467e-11
3.04714e-05
1.31944e-08
1.00238e-05
2.12438e-08
1.04645e-08
4.83415e-09
3.45732e-10
6.09319e-11
9.44299e-14
8.8022e-14
7.44288e-05
5.18264e-08
5.64058e-06
3.47065e-08
2.70724e-11
7.98e-13
2.78647e-13
1.0464e-13
8.89423e-14
8.55705e-14
1
1
1
1
1
1
1
1
1
1
1
1
1
1
1
1
1
1
1
1
1
1
1
1
1
1
1
1
1
1
1
1
1
1
1
1
1
1
1
1
1
1
1
1
1
1
1
1
1
1
1
1
1
1
1
1
1
1
1
1
0.996802
1
1
1
1
1
1
0.999999
0.999994
0.999997
0.728793
0.755022
0.793975
0.81444
0.812743
0.795876
0.788184
0.79771
0.812706
0.823161
0.20647
0.123185
0.0917287
0.07156
0.0554695
0.0426102
0.0348452
0.0327581
0.0302401
0.0264436
0.0010874
0.000471589
0.000101049
8.37427e-06
1.90421e-07
1.57285e-07
1.14118e-07
9.57423e-08
1.14106e-07
3.47211e-07
0.000117187
7.61141e-05
2.21834e-05
1.84155e-05
3.77562e-06
4.27212e-06
2.47755e-06
1.14108e-07
1.20701e-07
1.59809e-07
2.18988e-05
3.88553e-05
4.65982e-05
4.41487e-05
5.31476e-06
6.04338e-06
2.72528e-06
2.4078e-07
5.51312e-06
9.13322e-06
0.000158164
7.54167e-05
9.35647e-05
3.41713e-05
3.71485e-06
3.7062e-06
1.43984e-06
1.09884e-08
1.1998e-05
1.25979e-05
0.000403464
0.000250591
5.05291e-05
1.46538e-05
5.58942e-06
2.01144e-06
2.3178e-06
2.85368e-07
1.33822e-05
6.46043e-06
0.000166974
0.000188444
2.79335e-05
4.38309e-06
3.34441e-07
9.12693e-07
1.09209e-06
1.80207e-06
7.06464e-06
1.96148e-06
2.45276e-06
2.14814e-05
1.25678e-05
2.54763e-06
3.00719e-07
9.34069e-09
1.41261e-08
1.71988e-06
1.02165e-06
3.72489e-07
2.77668e-08
1.40171e-07
6.21163e-08
5.89393e-07
3.60903e-07
6.18623e-09
1.72666e-09
8.90883e-09
1.31032e-10
1.20933e-11
1.51772e-09
1.26108e-08
7.29117e-09
6.9062e-07
1.86392e-07
4.72719e-09
2.04448e-10
9.85807e-12
4.25037e-13
4.24948e-13
1.79946e-10
1.51772e-09
1.78059e-09
3.16934e-07
2.92304e-08
1.44795e-08
4.98503e-10
4.55727e-13
1.21064e-13
3.75536e-13
1.7563e-05
1.69822e-06
7.29117e-09
6.02e-09
5.07739e-08
2.52022e-08
5.82314e-11
1.21934e-13
1.16317e-13
8.80661e-14
1
1
1
1
1
1
1
1
1
1
1
1
1
1
1
1
1
1
1
1
1
1
1
1
1
1
1
1
1
1
1
1
1
1
1
1
1
1
1
0.999993
1
1
1
1
1
1
1
1
1
0.999973
1
1
1
1
1
0.999999
1
1
0.999999
0.999997
1
1
1
1
1
0.999999
0.999992
0.999922
0.999073
0.996995
0.828503
0.87229
0.854295
0.808989
0.755135
0.702725
0.675416
0.649439
0.617466
0.584327
0.384968
0.180364
0.103871
0.0550797
0.0237003
0.00733884
0.00130489
0.000142673
1.38882e-07
3.08336e-06
0.00244283
0.000223716
3.99906e-05
1.76666e-07
1.55457e-07
1.13679e-07
9.57436e-08
8.89288e-08
7.86692e-08
1.2182e-07
9.34747e-06
3.11091e-05
1.14448e-05
1.18871e-05
1.13577e-06
1.38061e-06
2.58073e-06
7.92967e-07
1.12665e-07
6.20192e-08
8.73142e-06
2.71234e-05
3.44479e-05
1.56008e-05
4.08769e-07
6.17397e-07
1.45839e-06
7.03261e-07
3.10725e-07
7.5863e-08
5.61673e-06
1.75083e-05
3.14298e-05
1.0303e-05
8.2616e-08
9.71755e-09
2.19209e-09
1.38345e-09
4.81329e-07
7.18826e-08
5.63503e-05
0.000121891
4.43209e-05
2.57485e-07
5.58066e-08
1.59112e-08
2.79685e-09
2.41814e-09
6.47374e-09
2.17231e-08
1.00054e-05
0.00011601
4.09076e-05
1.31352e-07
4.27823e-08
8.37869e-09
2.22739e-09
3.4196e-09
7.43204e-09
9.30185e-09
3.76653e-06
2.27588e-05
1.62349e-05
1.33487e-06
8.33486e-09
3.4441e-09
4.14891e-10
1.63097e-09
6.03299e-10
2.12069e-10
4.63199e-07
5.7148e-08
4.58341e-08
4.18559e-07
2.93296e-08
2.67255e-09
5.98679e-11
5.65084e-11
6.67917e-12
1.11e-10
1.79944e-10
1.63765e-09
1.78059e-09
1.94354e-08
2.59916e-08
1.11238e-08
1.97441e-11
1.74952e-12
2.38056e-12
5.16791e-12
1.41621e-10
1.79946e-10
8.30534e-11
2.64097e-08
6.68246e-08
2.00989e-08
2.63716e-12
9.55221e-13
7.27331e-13
4.25578e-13
2.31705e-09
1.6595e-07
1.27495e-08
7.53765e-09
2.0857e-07
2.04297e-08
1.88613e-12
8.3849e-13
1.22037e-13
3.51537e-10
1
1
1
1
1
1
1
1
1
1
1
1
1
1
1
1
1
1
1
1
1
1
1
1
1
1
1
1
1
1
1
1
1
1
1
1
1
1
0.999996
0.999928
1
1
1
1
1
1
1
1
0.999999
0.999757
1
1
1
1
0.999999
1
0.999999
0.999995
0.999984
0.999903
1
1
1
1
0.999967
0.999913
0.998597
0.989443
0.96704
0.937678
0.914609
0.944693
0.886176
0.790554
0.700453
0.620062
0.547943
0.441833
0.337664
0.25901
0.549856
0.26144
0.117096
0.041522
0.00678994
1.2241e-07
9.39832e-08
7.3419e-08
6.59614e-07
5.06485e-05
0.0301962
0.000118194
8.35629e-07
1.55271e-07
1.22409e-07
1.22411e-07
1.70389e-07
5.63459e-08
4.19473e-08
6.54762e-07
4.1944e-06
8.23612e-06
1.63443e-06
4.48262e-07
1.28448e-07
1.22411e-07
1.06425e-06
5.81932e-07
9.90436e-08
6.45219e-08
1.07909e-05
4.80978e-05
1.80808e-06
2.80619e-07
1.22998e-07
1.83336e-07
8.88451e-07
6.5212e-07
7.33376e-07
5.32558e-07
4.13053e-06
2.84069e-05
7.5987e-06
5.64818e-07
8.71498e-08
8.34348e-08
1.38345e-09
1.34112e-09
3.90135e-07
-5.25471e-09
1.42212e-06
7.00435e-06
2.70867e-05
1.22144e-05
4.03546e-08
2.79685e-09
1.41211e-09
1.35607e-09
1.74068e-09
2.15149e-09
1.13832e-06
5.41723e-06
2.69257e-05
1.24024e-05
1.94048e-08
2.01553e-09
4.15204e-10
1.16595e-09
1.72174e-09
1.446e-08
1.42586e-06
3.10912e-06
6.71869e-06
2.36635e-06
5.87192e-09
2.03277e-10
6.3148e-11
5.78985e-11
4.91492e-10
1.44069e-09
3.70974e-07
8.44247e-08
7.3401e-09
4.34366e-09
2.03323e-10
6.31113e-11
1.08584e-11
3.09549e-12
1.81388e-10
1.50847e-08
1.41606e-10
1.80869e-10
8.30529e-11
7.79191e-09
1.24148e-10
1.08747e-11
3.08848e-12
1.04899e-12
1.41737e-09
9.43628e-08
1.20344e-10
1.04877e-10
1.43674e-12
3.42547e-08
1.52827e-10
6.44008e-12
1.05167e-12
9.88279e-13
1.08361e-09
1.636e-07
7.61887e-10
2.1818e-11
2.90178e-12
8.86438e-08
1.52579e-10
5.16745e-12
9.88719e-13
9.84008e-13
5.59681e-13
6.57765e-10
1
1
1
1
1
1
1
1
1
1
1
1
1
1
1
1
0.999999
0.999995
0.999999
1
1
1
1
1
1
1
0.999992
0.999959
0.999987
1
1
1
1
1
1
1
0.999987
0.999953
0.999982
0.999916
1
1
1
1
1
1
0.999998
0.999993
0.999978
0.999908
1
1
1
1
1
0.999999
0.999991
0.99996
0.999884
0.999696
1
1
1
1
0.999991
0.998531
0.98692
0.956792
0.907768
0.851244
0.964384
0.976628
0.905286
0.783226
0.668872
0.544862
0.414572
0.290969
0.182986
0.134242
0.696614
0.340987
0.129018
0.0329183
0.000284761
9.39832e-08
6.25936e-08
5.63459e-08
4.19475e-08
0.000467339
0.0781324
0.0100424
1.46179e-05
8.8671e-07
2.74717e-07
1.31166e-07
5.91129e-08
4.92038e-08
2.97902e-08
2.36526e-08
3.19309e-06
4.19973e-06
2.05222e-05
4.77053e-05
2.91572e-05
1.22137e-06
8.77227e-08
4.55758e-08
2.64723e-08
-2.23924e-07
2.91573e-05
5.40482e-05
4.70327e-06
1.89153e-05
2.99978e-05
1.74531e-06
4.73335e-09
5.18338e-08
1.01299e-08
-2.74789e-06
1.58203e-05
5.29754e-05
2.78651e-06
1.26569e-06
2.44343e-06
1.72791e-09
1.34118e-09
1.34118e-09
5.57081e-10
-1.30168e-06
1.31522e-06
2.57185e-06
6.28117e-06
3.88793e-06
2.02266e-08
1.6422e-09
1.35607e-09
1.34112e-09
1.3742e-09
-1.13266e-07
1.02638e-06
8.5566e-07
4.43163e-06
3.26838e-06
1.52458e-07
4.60846e-09
1.2299e-09
1.35607e-09
1.55502e-09
3.96205e-06
2.02853e-06
7.51404e-07
6.3615e-07
1.4551e-07
9.06289e-07
2.97747e-09
4.15204e-10
9.2487e-10
3.80524e-08
7.87128e-06
1.70915e-06
7.57838e-07
2.15604e-08
1.06474e-10
3.36509e-06
4.67384e-05
6.30814e-11
5.78985e-11
1.08362e-07
6.19196e-06
2.66313e-07
1.09053e-07
1.19094e-09
1.10031e-11
4.08441e-06
0.000119035
1.7801e-05
3.00128e-12
2.80725e-07
1.16348e-05
8.68402e-13
1.43661e-12
5.36583e-14
1.4368e-12
5.12934e-06
0.000149384
4.30954e-05
-6.34623e-12
8.55039e-07
2.47673e-05
1.31101e-14
5.22205e-14
1.53601e-14
4.88287e-13
3.10484e-06
0.00012005
5.92218e-05
2.28604e-07
2.97823e-06
6.5012e-05
1
1
1
1
1
1
1
1
1
1
1
1
1
1
1
1
0.999995
0.999929
0.999989
1
1
1
1
1
1
1
0.999957
0.999586
0.999823
0.999998
1
1
1
1
1
1
0.999947
0.999587
0.999755
0.999987
1
1
1
1
1
1
0.999993
0.999873
0.99983
0.999997
1
1
1
1
1
0.999995
0.999959
0.999781
0.999728
0.999909
1
1
1
0.999999
0.999811
0.988521
0.957551
0.944227
0.975233
0.980888
0.990696
0.995725
0.924348
0.787477
0.626176
0.430885
0.292546
0.26656
0.448141
0.58879
0.793212
0.40459
0.14008
0.02907
3.08402e-06
1.86781e-07
3.72261e-07
8.01342e-08
0.00696367
0.185795
0.14539
0.0312825
8.39029e-05
1.08723e-05
8.86717e-07
5.99381e-07
6.25936e-08
5.63459e-08
4.19475e-08
0.0844992
2.6854e-06
3.19301e-06
8.106e-05
0.000328828
0.000356898
0.00020137
5.60613e-06
4.72846e-08
2.97902e-08
0.0170671
2.45774e-06
3.17853e-06
4.29746e-05
0.000299069
0.000457127
0.000383197
5.34223e-05
4.3735e-08
1.52871e-08
-6.45495e-06
2.64529e-06
3.24811e-06
2.54681e-07
1.41498e-07
0.000229754
0.000110465
7.47372e-05
1.17492e-06
3.63536e-05
1.1788e-05
1.24052e-06
2.85651e-06
4.80294e-07
9.62991e-08
3.56014e-08
5.75974e-05
8.8361e-05
2.56181e-06
7.89087e-05
1.00721e-06
1.11428e-06
2.05297e-06
9.1458e-07
2.14355e-08
4.01435e-08
0.000409644
0.000219987
1.55502e-09
2.71179e-05
4.53264e-06
5.97494e-06
5.69027e-06
1.16841e-06
9.7144e-10
1.32636e-08
0.000893296
0.000300471
3.3662e-09
6.13306e-08
9.4482e-06
6.70741e-06
3.53748e-06
2.98433e-08
1.21011e-11
9.71573e-10
0.000926816
0.000307018
2.65401e-08
3.91488e-06
0.000122958
7.42291e-07
1.0135e-07
4.04455e-14
2.55267e-12
6.67673e-05
0.000931166
0.000290346
2.04611e-07
5.91726e-06
0.000395718
1.30087e-14
4.72028e-14
1.53296e-14
5.37084e-14
0.00018154
0.000931166
0.000193418
3.69161e-07
1.41349e-05
0.00119942
8.22948e-15
1.92536e-14
8.96761e-15
1.53618e-14
0.000171243
0.000931166
0.000117458
5.20312e-07
1.25589e-05
0.00140201
1
1
1
1
1
1
1
1
1
0.993465
1
1
1
1
1
1
1
0.999999
1
1
1
1
1
1
1
1
0.999985
0.999789
0.999905
1
1
1
1
1
1
1
0.99996
0.999592
0.99955
1
1
1
1
1
1
0.999999
0.999975
0.999852
0.999525
1
1
1
1
1
0.999999
0.999982
0.999882
0.999792
0.999666
0.999997
1
1
1
0.999981
0.997144
0.959395
0.911421
0.991712
0.999503
0.996346
0.999997
1
0.9456
0.788897
0.557315
0.305014
0.199135
0.547164
0.997524
0.989969
0.844592
0.46059
0.145243
0.0240313
8.69083e-06
3.08402e-06
4.94806e-06
0.0137066
0.67779
0.98698
0.212179
0.0456917
5.77972e-05
9.16297e-06
9.71315e-06
6.79864e-06
3.72261e-07
8.01342e-08
0.149745
0.870986
2.66516e-06
3.36619e-06
1.54128e-05
0.000308808
0.000148033
1.21789e-05
4.86446e-06
2.30963e-07
0.0354792
0.518634
2.24964e-06
2.66516e-06
0.000149501
0.000404631
0.000461995
0.000137155
5.98034e-05
6.53088e-07
1.19395e-06
0.282237
2.216e-06
3.13112e-06
3.50398e-07
6.24236e-07
0.000639652
0.00169692
0.00149259
0.000192987
6.94249e-06
0.0762489
1.30019e-06
1.18777e-05
7.66316e-07
5.21997e-08
0.000315183
0.00200226
0.00200052
0.000595126
6.02345e-06
0.00409285
3.06737e-06
8.29172e-06
2.57216e-06
2.25095e-08
1.5416e-08
0.00169816
0.00200228
0.000613499
1.23197e-06
0.00115669
1.12677e-05
1.12229e-05
1.95044e-06
8.8031e-10
3.99217e-09
0.000198338
0.00199163
0.000229115
2.16613e-07
0.00237757
1.12639e-05
4.48073e-06
1.66826e-10
2.91652e-12
8.80363e-10
0.000279971
0.00103284
4.1815e-07
5.19611e-07
0.00166899
7.14791e-07
1.46384e-08
1.40937e-14
3.17123e-13
2.92739e-12
0.000600702
5.62145e-05
5.67602e-07
7.5466e-07
0.000301187
7.98049e-15
8.35313e-15
8.91741e-15
2.75101e-14
5.16037e-05
0.00079584
0.000540185
7.5466e-07
9.37105e-07
1.4407e-06
8.22948e-15
8.22945e-15
8.83794e-15
8.95807e-15
8.42953e-05
0.000588734
0.000776467
8.04504e-07
8.90932e-07
1.09149e-06
1
1
1
1
1
1
1
1
0.983117
0.865614
1
1
1
1
1
1
1
1
1
0.865485
1
1
1
1
1
1
1
0.999997
1
0.864516
1
1
1
1
0.999997
0.999971
0.99997
0.999997
1
0.890465
1
1
1
1
0.999983
0.999972
0.999964
0.999995
0.999999
0.906875
1
1
1
1
0.999994
0.999914
0.999743
0.999955
0.998641
0.834416
1
1
1
0.999991
0.98936
0.915262
0.858579
0.999071
0.984541
0.778212
0.999997
1
0.961765
0.789136
0.479815
0.209632
0.178859
0.802405
0.97264
0.778212
0.869397
0.485929
0.138335
0.0206438
1.47721e-05
7.59835e-05
0.000779846
0.339985
0.971446
0.8515
0.252112
0.0521202
9.40909e-05
4.359e-06
7.87958e-06
1.31542e-05
4.93499e-06
0.165861
0.967293
0.929167
3.3662e-06
4.02409e-06
4.3462e-06
1.33567e-06
6.65435e-06
1.45282e-05
7.95062e-06
0.0542124
0.672251
0.909826
1.63875e-05
4.4408e-06
1.78816e-06
1.1252e-06
1.4359e-06
7.38745e-06
8.16646e-05
3.2442e-06
0.29605
0.933583
5.16161e-06
5.11023e-06
1.5982e-06
4.07999e-07
9.19572e-05
0.000669855
0.000562214
0.000101245
0.0545557
0.712839
1.36799e-06
2.70487e-05
6.3186e-06
4.10026e-08
0.000195537
0.00152458
0.00119317
0.000402155
0.0128225
0.0949972
5.81378e-06
2.40537e-05
5.49584e-06
1.06346e-08
4.30346e-05
0.000697152
0.000993925
0.00254117
0.01344
0.00122593
1.12118e-05
9.61376e-06
8.76473e-07
3.79933e-10
1.44882e-06
9.57568e-07
5.61543e-05
0.00739321
0.0145078
0.0076443
6.07791e-06
1.72412e-06
7.66643e-12
3.11639e-13
3.8005e-10
4.73682e-08
0.000370023
0.011072
0.0141027
0.00969819
1.43573e-08
9.48462e-13
1.85529e-14
3.70338e-14
3.47458e-08
8.99216e-08
0.000697052
0.00772024
0.00720584
0.00538764
1.14885e-14
5.74931e-13
1.08593e-14
1.88372e-14
1.98468e-06
2.24043e-06
0.000668422
0.0010637
2.33191e-05
0.00164776
8.25377e-15
6.23173e-14
9.03792e-15
9.31354e-15
1.24586e-12
2.94758e-05
0.000325097
6.98815e-05
1.09149e-06
0.00136199
1
1
1
1
1
1
1
1
0.993413
0.871905
1
1
1
1
1
1
1
1
1
0.867715
1
1
1
1
1
1
1
0.999997
1
0.86504
1
1
1
1
0.999997
0.999973
0.999971
0.999994
1
0.888768
1
1
1
1
0.999989
0.999984
0.999965
0.999993
0.999375
0.902593
1
1
1
1
0.999993
0.999916
0.999748
0.999961
0.982901
0.842642
1
1
1
0.999954
0.986672
0.913501
0.871202
0.999247
0.961478
0.778258
0.999997
1
0.96646
0.783584
0.461899
0.208687
0.206428
0.855617
0.964345
0.778212
0.870131
0.490397
0.142709
0.0214872
9.65746e-06
0.000109433
0.000895261
0.353969
0.967293
0.8544
0.249893
0.0532739
9.76795e-05
1.06301e-06
1.66291e-06
2.41364e-05
2.67712e-05
0.106497
0.862784
0.878713
4.02409e-06
3.54127e-06
1.17732e-06
5.59826e-07
1.07921e-06
8.53169e-06
9.81178e-07
0.011081
0.483704
0.931254
1.63369e-05
4.38887e-06
1.26177e-06
7.57593e-07
6.08735e-07
6.56438e-06
1.29013e-05
-7.1471e-06
0.246835
0.931298
4.36859e-06
5.60808e-06
1.64263e-05
2.54239e-07
2.65553e-07
3.22347e-06
1.55957e-05
-1.3979e-05
0.213322
0.931162
1.67427e-06
2.7614e-05
2.89918e-05
1.08933e-07
1.25993e-07
1.30459e-07
1.51695e-06
-1.49232e-05
0.2278
0.898686
1.74451e-06
2.74211e-05
6.12449e-06
5.62387e-08
4.07426e-08
5.19185e-08
-4.68451e-06
4.31636e-06
0.177467
0.560165
6.23663e-06
1.11599e-05
2.14596e-06
5.65482e-10
5.25234e-09
2.01366e-08
9.18857e-07
1.15626e-05
0.0422244
0.237549
3.82434e-06
1.87342e-06
5.93558e-09
4.60923e-12
2.67446e-10
2.15057e-09
2.44875e-07
-9.30773e-07
8.20734e-06
0.0856095
1.30221e-07
5.34589e-09
5.43567e-13
3.1714e-13
4.4532e-09
6.81377e-09
1.08359e-06
-1.82413e-07
-8.15719e-07
0.0262074
2.50242e-12
1.23572e-13
1.10632e-14
2.93057e-14
3.69243e-13
1.7507e-08
9.99141e-09
7.62488e-09
1.23579e-05
0.00564545
2.54062e-14
1.86036e-13
1.09226e-14
1.34176e-11
1.15116e-11
2.86635e-09
1.80226e-10
-2.94507e-08
0.00123823
0.0151925
1
1
1
1
1
1
1
1
1
1
1
1
1
1
1
1
1
0.999998
1
1
1
1
1
1
1
1
0.999984
0.999793
0.999916
1
1
1
1
1
1
1
0.999954
0.999628
0.999695
1
1
1
1
1
1
0.999999
0.999978
0.999841
0.99973
1
1
1
1
1
0.999999
0.999985
0.999909
0.999811
0.999963
0.999998
1
1
1
0.99998
0.997581
0.968235
0.933645
0.990934
0.999678
0.999945
0.999584
1
0.955234
0.79407
0.570063
0.340564
0.238569
0.525634
0.964488
0.999339
0.841844
0.465877
0.147645
0.024937
1.22095e-06
4.14037e-06
2.49244e-05
0.000550362
0.453161
0.967596
0.211064
0.046418
2.75174e-06
1.89962e-07
1.28528e-06
3.82163e-05
2.70314e-08
1.10977e-08
0.0614295
0.651192
6.0738e-06
3.88213e-06
3.3165e-07
2.69744e-07
6.71462e-07
2.21787e-05
2.61258e-09
2.59096e-09
0.00706463
0.353174
2.14075e-05
5.87614e-06
1.11312e-05
8.74868e-06
5.5799e-07
7.2316e-06
2.83369e-05
2.65418e-07
8.20363e-07
0.149096
1.04954e-05
3.79304e-05
4.07322e-05
1.03825e-05
2.97675e-07
4.41986e-08
4.69531e-05
2.84613e-07
8.80438e-07
0.0359616
3.36098e-06
4.10431e-05
4.10431e-05
1.10638e-05
7.45365e-08
3.57796e-08
1.96727e-05
9.94591e-10
6.13814e-07
0.0027695
1.75154e-06
3.4725e-05
2.12268e-05
2.44308e-06
7.4641e-09
1.90891e-08
1.7273e-06
1.43293e-05
9.50257e-06
0.000210563
5.24326e-06
6.05627e-06
3.29334e-06
1.3206e-07
2.19402e-10
3.88363e-09
3.01748e-06
1.94841e-05
1.36071e-05
0.00102012
7.05104e-06
3.44623e-06
3.54006e-08
1.62823e-10
6.75203e-11
2.85806e-07
5.29683e-06
1.3678e-08
8.95165e-06
9.41786e-07
2.77235e-06
4.91143e-07
5.64359e-11
1.27435e-12
1.80599e-11
1.42966e-06
4.22658e-06
-1.14614e-08
-3.32457e-09
4.89308e-07
7.82944e-11
8.75882e-12
2.14434e-11
1.21529e-13
1.27444e-12
1.47285e-06
2.42801e-06
1.39288e-08
4.59566e-10
3.42738e-09
2.32751e-14
6.97797e-14
3.60533e-13
8.30596e-14
1.48575e-13
7.21881e-07
1.08548e-07
4.29107e-10
5.59167e-10
7.87056e-10
1
1
1
1
1
1
1
1
1
1
1
1
1
1
1
1
0.999994
0.999911
0.999983
1
1
1
1
1
1
1
0.999954
0.999624
0.999839
0.999996
1
1
1
1
1
1
0.999948
0.999625
0.99982
0.999952
1
1
1
1
1
1
0.999995
0.999852
0.999854
0.999998
1
1
1
1
1
0.999996
0.999971
0.999812
0.999754
0.999964
1
1
1
0.999999
0.999978
0.995633
0.975719
0.956488
0.955228
0.94453
0.989557
0.997982
0.931992
0.80104
0.663169
0.499401
0.357879
0.295375
0.373456
0.468435
0.786474
0.407571
0.142864
0.033014
0.000104318
1.04763e-07
2.70377e-08
1.10978e-08
0.000550362
0.128523
0.144228
0.0315998
-2.4113e-07
5.08902e-08
7.67455e-08
3.57237e-07
7.21856e-09
2.59111e-09
1.06638e-08
0.0348257
8.10643e-06
3.54033e-06
2.27126e-07
1.034e-07
1.32492e-07
1.41076e-07
2.02482e-09
2.45628e-09
2.58639e-09
0.000508381
2.23025e-05
6.71663e-06
6.4204e-06
7.62475e-06
5.42564e-07
3.61786e-08
2.44177e-09
2.4262e-09
6.09012e-05
2.64407e-05
1.25331e-05
1.16865e-05
2.45964e-05
2.20149e-05
1.46542e-06
3.14008e-09
2.4247e-09
2.42744e-09
0.000177619
3.09658e-05
1.89093e-06
2.19262e-05
4.10431e-05
2.92098e-05
1.38127e-06
2.95019e-09
1.207e-09
2.17408e-09
7.17138e-05
0.0015054
1.82124e-06
3.76396e-05
3.96922e-05
1.91029e-05
9.1224e-08
1.207e-09
4.31283e-10
9.92494e-10
0.000106886
0.00653723
2.35166e-06
1.8711e-05
1.7636e-05
3.43912e-06
1.05392e-09
4.31282e-10
2.16781e-10
5.91344e-11
0.000488732
0.00670543
6.32368e-06
1.64093e-07
2.28612e-08
2.0486e-08
5.45155e-10
7.76883e-09
6.28486e-11
5.56797e-11
0.000223197
0.00221736
1.69321e-06
6.36592e-08
8.93079e-11
8.89004e-12
6.30255e-12
3.34597e-08
4.16514e-11
3.38319e-11
2.77261e-05
9.41786e-07
7.6767e-11
5.79997e-10
3.66753e-12
1.92106e-12
1.63625e-12
2.54502e-08
2.17218e-12
4.56519e-11
2.47025e-10
9.11971e-05
1.5311e-14
5.65969e-12
4.5743e-13
2.00406e-13
1.29636e-12
1.63625e-12
1.99458e-12
2.26377e-08
3.43444e-09
0.000106069
1
1
1
1
1
1
1
1
1
1
1
1
1
1
1
1
0.999999
0.999993
0.999999
1
1
1
1
1
1
1
0.999991
0.999951
0.999985
0.999999
1
1
1
1
1
1
0.999986
0.99995
0.999977
0.999859
1
1
1
1
1
1
0.999999
0.999995
0.999975
0.999844
1
1
1
1
1
0.999999
0.999994
0.999971
0.999893
0.999669
1
1
1
1
0.999993
0.999794
0.994484
0.970327
0.92467
0.866612
0.961563
0.975442
0.910176
0.7974
0.695716
0.595931
0.480722
0.340284
0.210975
0.136908
0.687111
0.34166
0.131828
0.0372518
0.00322462
2.23598e-08
1.24519e-08
2.19982e-07
3.41982e-05
0.000657934
0.0760151
0.0100212
-2.47822e-07
3.91262e-08
2.23598e-08
1.24238e-08
1.20902e-08
3.15645e-09
4.53678e-09
3.41886e-05
9.2152e-06
6.71421e-06
1.90588e-07
1.1093e-07
6.01083e-07
1.23607e-08
3.10259e-09
2.5885e-09
3.1616e-09
-9.93955e-08
1.04049e-05
5.1696e-06
4.67401e-06
5.55067e-06
3.46589e-06
1.02161e-07
3.18291e-09
8.75294e-09
3.61556e-09
-4.61833e-07
2.83493e-06
2.90986e-06
4.24623e-06
2.71072e-06
3.82422e-06
3.53702e-07
2.05929e-09
4.7143e-09
6.94915e-09
-4.95078e-07
1.91603e-06
2.10755e-06
7.15085e-06
5.00337e-06
3.86806e-06
5.78518e-08
1.74172e-09
3.68179e-08
3.78581e-06
3.09648e-05
1.89093e-06
1.91603e-06
1.81669e-05
1.57459e-05
1.54821e-06
2.5241e-09
5.18017e-10
2.28226e-09
8.44438e-05
0.000766287
2.5114e-06
6.46536e-06
1.65896e-05
7.85535e-06
2.44618e-08
3.10085e-10
1.47696e-10
5.91344e-11
0.000178062
0.00172337
2.79329e-06
4.5077e-06
2.02988e-06
1.12339e-07
2.85226e-10
6.07649e-11
6.20519e-10
3.3854e-11
0.000145828
0.00179741
5.27911e-07
5.1848e-08
5.89376e-10
1.60657e-10
1.6248e-09
3.11786e-11
2.67469e-09
3.70528e-12
2.49315e-05
0.000120542
2.06626e-11
2.66215e-11
8.93151e-11
4.32855e-12
1.29857e-09
1.33598e-11
1.49512e-09
2.27496e-12
2.54637e-10
2.36674e-09
7.57286e-12
1.29221e-11
2.91099e-12
3.24831e-12
6.05025e-12
1.1074e-11
2.17218e-12
3.47573e-08
1.01865e-08
6.69701e-08
1
1
1
1
1
1
1
1
1
1
1
1
1
1
1
1
1
1
1
1
1
1
1
1
1
1
1
1
1
1
1
1
1
1
1
1
1
1
0.999995
0.999904
1
1
1
1
1
1
1
1
0.999996
0.99968
1
1
1
1
0.999999
1
0.999999
0.999996
0.999984
0.999936
1
1
1
1
0.999999
0.999988
0.999625
0.994109
0.977509
0.958539
0.910047
0.939001
0.887505
0.80274
0.721197
0.650728
0.584895
0.484216
0.389836
0.329919
0.534207
0.260194
0.120816
0.0470123
0.0108805
5.31461e-08
4.19695e-08
3.76095e-08
1.17588e-06
8.70353e-05
0.0276844
0.000197527
-2.18712e-07
4.59718e-08
3.91264e-08
8.41113e-08
5.84812e-08
1.60379e-08
7.08241e-07
1.16097e-06
9.48026e-06
1.01277e-05
5.42322e-08
4.59658e-08
6.20128e-07
1.44715e-06
9.03186e-07
2.26026e-08
6.93691e-09
-2.22386e-08
9.45564e-06
4.31275e-06
1.35042e-06
5.51428e-08
6.88055e-07
7.49127e-07
7.68803e-07
9.87638e-08
2.9085e-07
1.27241e-07
1.63066e-05
3.59625e-05
1.18596e-05
4.42469e-08
4.2662e-09
2.01879e-09
1.65124e-09
2.01947e-09
1.48802e-07
5.83448e-08
8.20546e-06
8.9778e-05
2.96125e-05
7.17914e-08
1.40128e-08
1.37307e-08
1.14363e-09
2.17449e-09
4.23596e-09
1.37317e-08
1.91603e-06
4.2149e-05
2.53422e-05
4.2974e-07
1.51263e-07
1.75386e-09
1.78239e-10
7.96258e-10
4.94306e-09
2.02375e-08
2.39364e-06
3.85882e-06
4.01227e-06
1.32222e-06
9.88401e-09
1.47359e-10
3.2106e-11
1.30577e-10
2.03303e-09
1.68295e-08
7.16513e-07
9.46585e-07
5.90576e-07
2.93591e-07
1.87787e-09
3.1986e-11
2.33435e-11
3.70523e-12
1.94546e-10
1.92081e-08
1.5961e-10
7.44472e-10
3.50853e-08
4.04915e-08
1.64995e-08
9.91024e-11
1.36889e-11
2.27495e-12
3.11416e-12
6.24265e-05
4.26447e-11
1.50105e-10
4.61062e-08
1.06885e-07
2.01121e-08
3.11466e-11
4.72867e-11
1.97294e-12
7.04431e-13
0.000101111
2.06629e-11
1.07769e-07
4.1853e-07
1.86202e-07
3.57657e-09
1.33598e-11
6.46836e-10
5.46985e-13
9.37471e-14
4.80444e-13
1
1
1
1
1
1
1
1
1
1
1
1
1
1
1
1
1
1
1
1
1
1
1
1
1
1
1
1
1
1
1
1
1
1
1
1
1
1
1
0.999996
1
1
1
1
1
1
1
1
1
0.999982
1
1
1
1
1
0.999998
1
1
0.999999
0.999998
1
1
1
1
1
0.999999
0.999994
0.99998
0.999769
0.999338
0.820445
0.861091
0.850041
0.816467
0.770904
0.720034
0.692318
0.668429
0.655709
0.656724
0.366561
0.178215
0.108427
0.062481
0.0308976
0.0132508
0.00575884
0.00291179
0.00229816
0.00301652
0.00157155
0.000274692
5.55244e-05
6.38233e-09
5.35222e-08
6.283e-08
2.78601e-08
2.81305e-08
2.78597e-08
7.30693e-08
1.49688e-05
2.13998e-05
1.0687e-07
5.50681e-08
3.24789e-06
7.22789e-06
2.30812e-06
2.2963e-08
4.22225e-08
3.75152e-08
1.1935e-05
1.22295e-05
7.22835e-06
4.62612e-07
1.58862e-06
5.33536e-06
2.37136e-06
1.48737e-08
3.1548e-07
6.31921e-07
0.000425868
0.000153267
3.74787e-06
2.34404e-07
1.62719e-08
4.2662e-09
2.06228e-09
7.31645e-09
5.18192e-07
2.21138e-06
0.000392093
0.000236572
1.50406e-05
1.24051e-07
3.27776e-08
9.25042e-09
1.94781e-09
4.23596e-09
6.27144e-07
1.64518e-06
0.000159703
0.000156975
3.91108e-05
6.86531e-08
1.11731e-08
4.70814e-09
7.2408e-10
4.94306e-09
2.02375e-08
9.358e-07
1.12086e-05
2.06663e-05
1.58359e-05
1.96372e-06
3.81838e-09
7.21795e-10
1.47686e-10
1.95375e-09
1.6488e-08
2.16997e-07
5.28721e-09
2.28279e-08
3.55008e-08
3.16771e-07
2.60864e-08
2.00241e-10
3.20892e-11
4.9855e-11
1.61211e-09
3.3333e-08
2.69266e-10
5.28721e-09
1.65611e-08
9.99286e-09
9.83946e-09
3.33803e-10
1.64903e-10
1.50485e-12
4.98569e-11
6.46794e-08
1.5961e-10
1.0955e-06
1.37063e-06
6.53453e-07
2.5621e-09
1.09883e-10
1.27661e-10
8.4039e-13
1.51285e-12
2.88292e-06
4.26447e-11
2.32473e-06
4.44281e-06
2.21177e-06
1.34005e-07
1.71294e-11
8.26747e-13
6.15141e-13
4.01378e-11
9.69801e-09
1
1
1
1
1
1
1
1
1
1
1
1
1
1
1
1
1
1
1
1
1
1
1
1
1
1
1
1
1
1
1
1
1
1
1
1
1
1
1
1
1
1
1
1
1
1
1
1
1
1
1
1
1
1
1
1
1
1
1
1
0.999668
0.999343
1
1
1
1
1
0.999999
0.999999
0.999998
0.718679
0.736708
0.779507
0.813115
0.817214
0.802147
0.793242
0.801746
0.819847
0.836871
0.191184
0.118824
0.0938183
0.0789015
0.0654892
0.0528287
0.0428526
0.0378558
0.0375814
0.039756
0.00106207
0.000573839
0.000139292
1.44138e-05
9.02809e-08
1.14224e-07
3.10497e-08
2.78603e-08
3.10542e-08
8.15409e-08
0.000194366
0.000112757
1.45167e-05
1.0687e-07
2.36763e-06
9.15518e-06
3.66934e-06
3.04421e-08
4.36216e-08
6.97548e-08
0.000134447
5.00837e-05
4.21949e-05
1.28319e-05
1.48147e-06
8.8324e-06
4.45746e-06
2.87631e-06
2.17469e-06
1.67691e-05
0.000561438
0.000194551
5.65287e-05
1.82866e-05
2.33204e-07
1.62719e-08
2.94691e-06
7.61492e-06
4.65531e-06
3.86993e-05
0.000561741
0.00011148
1.78175e-05
2.67275e-06
1.31014e-06
1.91132e-06
4.9924e-06
1.0621e-05
9.8794e-06
3.02334e-05
0.000561731
0.000136427
1.45492e-05
4.43867e-07
6.0329e-08
8.70853e-09
1.11068e-08
9.30097e-06
1.69393e-05
2.32287e-05
0.000429639
0.000181945
2.34521e-05
6.46829e-08
1.99698e-08
1.35351e-09
2.38305e-09
1.37449e-06
1.30044e-05
7.40003e-06
0.000157821
6.14486e-05
1.08474e-05
1.30618e-08
1.35388e-09
8.75763e-10