/*--------------------------------*- C++ -*----------------------------------*\
| =========                 |                                                 |
| \\      /  F ield         | OpenFOAM: The Open Source CFD Toolbox           |
|  \\    /   O peration     | Version:  2312                                  |
|   \\  /    A nd           | Website:  www.openfoam.com                      |
|    \\/     M anipulation  |                                                 |
\*---------------------------------------------------------------------------*/
FoamFile
{
    version     2.0;
    format      ascii;
    arch        "LSB;label=32;scalar=64";
    class       volScalarField;
    location    "0.43";
    object      p;
}
// * * * * * * * * * * * * * * * * * * * * * * * * * * * * * * * * * * * * * //

dimensions      [1 -1 -2 0 0 0 0];

internalField   nonuniform List<scalar> 
8000
(
396.221
395.862
395.309
394.703
394.131
393.686
393.41
393.304
393.331
393.447
347.585
347.122
346.46
345.739
345.071
344.561
344.254
344.143
344.175
344.294
299.049
298.462
297.613
296.707
295.905
295.315
294.966
294.843
294.879
295.003
250.434
249.687
248.672
247.6
246.682
246.021
245.669
245.58
245.657
245.795
201.788
200.702
199.384
198.079
197.141
196.532
196.28
196.305
196.474
196.617
154.898
152.951
150.34
148.319
147.288
147.017
147.268
147.74
148.329
148.469
105.756
102.719
98.5492
96.2044
96.1585
97.2106
98.5923
99.894
100.816
101.626
54.4362
47.863
42.1712
42.1751
45.1179
48.6654
51.142
54.3476
56.1184
56.9772
8.58161
5.8157
5.81474
7.15414
10.3864
15.5447
20.4445
23.5308
25.2996
26.297
1.24901
0.162461
0.141032
-0.111018
-0.288191
0.117009
1.50922
3.4805
5.28193
6.29183
0.245678
-0.376379
-0.576311
-0.5979
-0.58224
-0.547716
-0.51462
-0.475852
-0.458302
-0.452054
-0.228266
-0.449446
-0.647724
-0.662599
-0.646886
-0.616746
-0.562756
-0.531999
-0.521493
-0.524673
-0.375728
-0.458489
-0.60595
-0.654137
-0.640082
-0.608235
-0.577576
-0.554378
-0.544656
-0.548805
-0.473459
-0.520859
-0.571852
-0.601085
-0.603102
-0.594309
-0.586943
-0.581931
-0.578079
-0.5805
-0.566451
-0.582672
-0.558801
-0.565691
-0.582648
-0.595236
-0.600664
-0.602279
-0.602772
-0.605234
-0.615256
-0.616538
-0.580103
-0.586202
-0.603324
-0.618971
-0.626367
-0.628223
-0.629367
-0.631064
-0.651599
-0.650164
-0.636195
-0.637943
-0.64538
-0.657515
-0.664009
-0.666411
-0.667565
-0.66838
-0.696334
-0.6974
-0.694145
-0.692994
-0.696237
-0.705205
-0.709461
-0.711633
-0.712646
-0.712726
-0.746999
-0.749148
-0.751321
-0.75329
-0.754058
-0.756479
-0.758486
-0.759536
-0.759795
-0.759598
-0.801217
-0.802457
-0.810411
-0.817561
-0.811953
-0.810152
-0.809545
-0.809023
-0.808396
-0.807978
395.842
395.486
394.95
394.372
393.832
393.423
393.178
393.098
393.158
393.299
347.104
346.639
345.997
345.313
344.681
344.208
343.937
343.862
343.922
344.066
298.444
297.838
297.007
296.14
295.37
294.805
294.481
294.387
294.456
294.616
249.663
248.853
247.83
246.777
245.862
245.189
244.826
244.745
244.842
245.012
200.67
199.588
198.236
196.889
195.844
195.102
194.747
194.728
194.896
195.11
152.869
151.249
148.672
146.492
145.145
144.393
144.239
144.533
145.032
145.407
102.707
100.204
96.1835
93.715
93.076
92.9951
93.5127
94.4565
95.328
95.8565
48.1529
41.8469
36.5394
35.636
37.5327
40.111
42.4232
44.5405
46.0514
46.7401
6.83771
4.20787
3.40887
3.33756
4.07417
6.0157
8.31334
10.1449
11.6926
12.5088
0.498774
-0.260304
-0.286456
-0.336179
-0.37659
-0.35429
-0.343255
-0.153765
0.130713
0.20744
-0.390776
-0.656307
-0.669399
-0.655278
-0.60483
-0.538359
-0.506895
-0.49588
-0.508524
-0.503401
-0.533172
-0.631438
-0.692316
-0.742362
-0.712571
-0.615241
-0.555274
-0.553328
-0.562371
-0.571854
-0.509065
-0.559219
-0.624002
-0.693363
-0.684231
-0.636992
-0.586338
-0.566816
-0.571581
-0.588363
-0.53657
-0.557231
-0.521605
-0.563257
-0.600525
-0.608437
-0.602872
-0.596614
-0.601999
-0.611857
-0.59163
-0.56821
-0.471315
-0.507122
-0.570601
-0.600293
-0.610568
-0.614783
-0.617845
-0.620302
-0.616275
-0.586219
-0.533292
-0.568333
-0.603258
-0.618316
-0.62658
-0.630696
-0.632629
-0.634177
-0.648401
-0.637198
-0.625215
-0.640187
-0.646395
-0.6538
-0.660238
-0.663631
-0.665367
-0.666357
-0.699231
-0.696794
-0.692466
-0.695645
-0.697348
-0.702007
-0.706185
-0.708979
-0.710304
-0.710586
-0.753093
-0.751647
-0.752397
-0.756152
-0.756609
-0.756303
-0.757106
-0.758155
-0.758295
-0.758126
-0.809007
-0.806611
-0.813903
-0.820857
-0.816779
-0.811992
-0.809661
-0.808634
-0.807737
-0.807295
395.248
394.909
394.403
393.868
393.382
393.035
392.861
392.857
392.979
393.173
346.403
345.958
345.343
344.698
344.116
343.707
343.51
343.509
343.637
343.839
297.559
296.97
296.162
295.329
294.599
294.084
293.823
293.802
293.943
294.164
248.623
247.797
246.743
245.667
244.717
244.041
243.715
243.68
243.83
244.07
199.347
198.198
196.723
195.289
194.108
193.269
192.895
192.884
193.092
193.39
150.238
148.528
146.207
143.958
142.275
141.233
140.908
141.047
141.644
142.095
98.4413
95.9358
92.9356
90.6831
89.4791
88.8409
88.8618
89.3554
89.9812
90.3756
42.5622
36.2888
32.3343
31.0309
31.327
31.8842
32.4995
33.4335
34.3276
34.7507
6.40446
3.81007
2.57842
2.109
2.20912
2.40457
2.58245
2.77255
2.97247
3.15395
0.204908
-0.166025
-0.284109
-0.375235
-0.345404
-0.308705
-0.288344
-0.294543
-0.294914
-0.235166
-0.515067
-0.662381
-0.639581
-0.629435
-0.548814
-0.464499
-0.4114
-0.402928
-0.406534
-0.399123
-0.592844
-0.717918
-0.751795
-0.735387
-0.652084
-0.555866
-0.498908
-0.480384
-0.477886
-0.474605
-0.600283
-0.690854
-0.689792
-0.664443
-0.615433
-0.573342
-0.545456
-0.536413
-0.540976
-0.545275
-0.608029
-0.636222
-0.544813
-0.527188
-0.560143
-0.583904
-0.582436
-0.578319
-0.582898
-0.587673
-0.616533
-0.584498
-0.492115
-0.510036
-0.574004
-0.603527
-0.607173
-0.606462
-0.60904
-0.611296
-0.62424
-0.593879
-0.55859
-0.578248
-0.610798
-0.622457
-0.626378
-0.628043
-0.630146
-0.631484
-0.657338
-0.646828
-0.634982
-0.638389
-0.650517
-0.655946
-0.659518
-0.661964
-0.663718
-0.66448
-0.707342
-0.704585
-0.691432
-0.69355
-0.702379
-0.704916
-0.706581
-0.708206
-0.708888
-0.709198
-0.762115
-0.762999
-0.750876
-0.755252
-0.76093
-0.759075
-0.758358
-0.758241
-0.757704
-0.757553
-0.818394
-0.821508
-0.812586
-0.817437
-0.818318
-0.813556
-0.810624
-0.808905
-0.807512
-0.807116
394.578
394.266
393.803
393.328
392.922
392.672
392.612
392.729
392.949
393.224
345.618
345.21
344.634
344.043
343.541
343.234
343.157
343.281
343.519
343.813
296.595
296.043
295.269
294.482
293.815
293.386
293.234
293.346
293.618
293.964
247.505
246.691
245.61
244.501
243.548
242.924
242.683
242.731
243.03
243.444
198.029
196.807
195.231
193.662
192.338
191.453
191.141
190.963
191.351
191.823
148.207
146.303
143.848
141.362
139.35
138.07
137.444
137.135
138.013
138.351
96.1674
93.3953
90.4317
87.5653
85.482
84.2417
84.0091
84.7178
85.3713
85.995
42.6153
35.6071
30.7663
27.6332
25.5076
23.6516
22.4644
22.7102
23.0381
23.1122
7.76903
3.49111
2.09614
1.45994
1.06546
0.711942
0.462834
0.390813
0.299132
0.255359
-0.0758649
-0.270991
-0.336462
-0.374326
-0.350909
-0.324588
-0.291437
-0.242869
-0.211231
-0.193619
-0.542823
-0.618432
-0.59815
-0.567921
-0.486516
-0.425668
-0.387603
-0.362045
-0.342019
-0.32868
-0.617034
-0.709646
-0.724472
-0.660172
-0.567984
-0.501664
-0.465781
-0.446583
-0.436241
-0.430594
-0.630211
-0.706047
-0.694469
-0.625175
-0.568844
-0.538984
-0.524561
-0.516752
-0.512117
-0.506372
-0.626387
-0.656376
-0.600309
-0.562518
-0.560492
-0.566259
-0.567368
-0.565719
-0.563685
-0.557565
-0.623433
-0.606706
-0.570616
-0.571275
-0.582844
-0.592679
-0.596757
-0.597222
-0.596253
-0.592873
-0.631919
-0.614338
-0.607459
-0.608811
-0.611281
-0.618893
-0.622998
-0.624195
-0.624654
-0.62455
-0.664877
-0.654433
-0.6522
-0.6459
-0.651125
-0.657886
-0.660651
-0.661992
-0.662251
-0.662477
-0.712821
-0.708159
-0.703377
-0.697989
-0.703981
-0.707145
-0.70838
-0.709024
-0.708267
-0.708097
-0.770851
-0.771046
-0.765341
-0.758683
-0.759855
-0.759199
-0.759168
-0.758839
-0.757398
-0.757095
-0.831312
-0.833421
-0.824683
-0.817145
-0.815226
-0.812569
-0.810883
-0.809419
-0.8074
-0.807183
393.916
393.636
393.225
392.828
392.529
392.42
392.526
392.808
393.158
393.548
344.861
344.489
343.961
343.447
343.058
342.899
343.001
343.306
343.705
344.154
295.711
295.189
294.452
293.725
293.158
292.872
292.91
293.224
293.727
294.311
246.508
245.698
244.577
243.46
242.56
242.036
241.957
242.244
242.848
243.582
197.028
195.705
193.98
192.253
190.857
190.014
189.63
189.836
190.505
191.29
147.15
144.976
142.13
139.277
137.019
135.613
135.165
135.419
136.098
136.612
96.1829
92.8344
89.1294
85.2603
82.2756
80.553
79.9309
79.1904
79.1332
79.2004
45.4932
37.6703
31.0804
25.3426
20.7017
17.6649
16.8207
16.3554
15.4268
14.3553
11.1794
4.37333
2.20215
1.0465
0.288021
-0.0572156
-0.0989081
-0.0643188
-0.0472009
-0.0478983
-0.230831
-0.335942
-0.328267
-0.328596
-0.315137
-0.284756
-0.251222
-0.221466
-0.20687
-0.201974
-0.526338
-0.551109
-0.517108
-0.483071
-0.425277
-0.381931
-0.349104
-0.324436
-0.308949
-0.29994
-0.59787
-0.649119
-0.624757
-0.572238
-0.502536
-0.459321
-0.429603
-0.41008
-0.401198
-0.39749
-0.616974
-0.661755
-0.641353
-0.587249
-0.542958
-0.513664
-0.494169
-0.482371
-0.477564
-0.474915
-0.622051
-0.635766
-0.609818
-0.584334
-0.567277
-0.55246
-0.544049
-0.539211
-0.534454
-0.53196
-0.62746
-0.617391
-0.602792
-0.600521
-0.591214
-0.582918
-0.581643
-0.58085
-0.577512
-0.576219
-0.643432
-0.630067
-0.620978
-0.619981
-0.614335
-0.615239
-0.618212
-0.618851
-0.616577
-0.616249
-0.67398
-0.662689
-0.65439
-0.653102
-0.653951
-0.657788
-0.661328
-0.662204
-0.659872
-0.65921
-0.717488
-0.70973
-0.706257
-0.705915
-0.704397
-0.706785
-0.709566
-0.70999
-0.707395
-0.706167
-0.771289
-0.769399
-0.767255
-0.762464
-0.758314
-0.759058
-0.76027
-0.75983
-0.757277
-0.756248
-0.828459
-0.82975
-0.823973
-0.81636
-0.814833
-0.812746
-0.811869
-0.810411
-0.807836
-0.807073
393.359
393.112
392.759
392.452
392.288
392.359
392.669
393.142
393.639
394.224
344.237
343.9
343.432
343.014
342.767
342.803
343.126
343.654
344.264
344.984
295.006
294.509
293.816
293.17
292.741
292.653
292.945
293.543
294.35
295.303
245.736
244.909
243.78
242.703
241.9
241.564
241.765
242.438
243.456
244.61
196.312
194.863
193.025
191.226
189.865
189.019
189.017
189.72
190.825
192.026
146.847
144.205
141.045
137.946
135.581
134.243
134.038
134.59
135.456
136.204
97.1765
92.7879
88.3827
83.8412
80.5218
77.3845
74.5785
72.5291
71.2001
70.0655
48.574
40.1461
31.6459
23.4141
17.5031
14.9598
13.4477
10.5944
7.69513
6.11341
15.9277
6.31139
2.38425
0.673551
-0.0473494
-0.113745
-0.122395
-0.122646
-0.120502
0.0122671
0.209723
-0.395786
-0.324039
-0.289669
-0.271984
-0.241906
-0.228107
-0.216588
-0.22801
-0.209691
-0.504909
-0.519683
-0.467404
-0.429121
-0.381718
-0.344452
-0.320537
-0.301719
-0.291522
-0.279151
-0.580914
-0.599975
-0.568051
-0.519006
-0.468365
-0.430023
-0.404858
-0.388637
-0.383685
-0.37884
-0.597805
-0.631899
-0.599188
-0.562763
-0.525012
-0.49353
-0.473551
-0.461619
-0.458491
-0.463088
-0.611211
-0.62101
-0.596336
-0.57797
-0.560886
-0.54021
-0.52789
-0.520993
-0.517439
-0.524604
-0.62637
-0.615312
-0.595268
-0.591076
-0.586897
-0.577413
-0.573245
-0.570305
-0.565672
-0.570461
-0.646647
-0.630926
-0.613248
-0.612737
-0.616421
-0.615862
-0.61727
-0.616353
-0.61125
-0.6118
-0.677905
-0.664347
-0.651307
-0.65432
-0.658946
-0.660547
-0.663831
-0.663297
-0.6583
-0.65597
-0.720219
-0.71073
-0.706506
-0.708839
-0.708528
-0.709774
-0.712633
-0.711784
-0.707804
-0.70527
-0.770395
-0.766922
-0.76519
-0.763126
-0.761054
-0.761687
-0.762998
-0.761793
-0.759076
-0.758527
-0.822604
-0.82248
-0.820884
-0.816797
-0.815425
-0.81443
-0.813961
-0.812274
-0.810512
-0.811851
392.952
392.733
392.438
392.232
392.219
392.48
392.989
393.638
394.284
395.159
343.795
343.491
343.085
342.773
342.69
342.934
343.494
344.237
345.008
346.07
294.516
294.037
293.4
292.853
292.595
292.749
293.358
294.266
295.307
296.713
245.236
244.391
243.289
242.275
241.63
241.569
242.225
243.419
244.862
246.557
195.903
194.346
192.476
190.653
189.307
188.842
189.524
191.187
193.111
195.02
146.992
143.927
140.634
137.297
134.958
133.9
134.34
136.296
138.42
140.578
98.5746
93.2008
88.324
83.4574
79.263
74.1569
70.3305
68.2894
66.9339
69.7073
50.2415
42.1438
32.2385
22.1035
16.4433
13.4235
10.1284
6.4197
4.4832
9.84921
20.0346
8.43486
2.59419
0.394891
-0.0796454
-0.112266
-0.138314
-0.165161
-0.0733703
0.647209
1.50359
-0.378543
-0.300766
-0.246455
-0.225813
-0.220713
-0.224967
-0.230819
-0.235816
-0.21238
-0.466623
-0.498566
-0.439101
-0.392388
-0.345117
-0.316591
-0.30036
-0.283397
-0.262345
-0.294355
-0.550866
-0.572483
-0.527939
-0.482418
-0.43585
-0.40367
-0.385045
-0.37315
-0.373875
-0.394253
-0.582375
-0.609589
-0.577375
-0.542125
-0.50242
-0.4761
-0.460176
-0.451084
-0.451849
-0.476968
-0.602733
-0.617714
-0.590699
-0.57082
-0.549529
-0.531356
-0.522328
-0.515722
-0.513411
-0.532205
-0.61906
-0.614292
-0.598761
-0.591661
-0.584378
-0.575547
-0.574408
-0.57042
-0.563245
-0.577024
-0.643509
-0.633336
-0.622222
-0.620663
-0.621055
-0.618242
-0.621971
-0.620153
-0.611099
-0.617779
-0.68045
-0.671031
-0.662771
-0.663551
-0.665255
-0.663996
-0.670001
-0.668424
-0.66089
-0.662448
-0.723905
-0.716991
-0.713991
-0.71452
-0.713919
-0.712374
-0.718742
-0.716481
-0.711854
-0.709746
-0.771926
-0.769247
-0.767633
-0.766403
-0.764892
-0.764067
-0.768393
-0.765636
-0.763394
-0.760963
-0.821831
-0.820974
-0.81978
-0.818201
-0.816672
-0.816509
-0.818639
-0.815021
-0.815262
-0.816632
392.699
392.503
392.268
392.159
392.28
392.697
393.35
394.171
394.859
395.887
343.535
343.268
342.913
342.702
342.766
343.196
343.948
344.898
345.698
346.941
294.232
293.765
293.198
292.757
292.665
293.064
293.965
295.185
296.244
297.842
244.972
244.13
243.059
242.12
241.666
241.947
243.104
244.844
246.449
248.413
195.715
194.124
192.248
190.371
189.272
189.278
190.924
193.863
196.407
198.927
147.201
144.012
140.626
136.766
134.94
134.254
136.154
140.607
144.089
147.269
99.4875
93.9707
88.8352
84.3845
78.3492
71.7954
68.1518
70.4957
76.6426
81.8693
53.4969
43.9944
32.9987
21.8842
15.3826
10.3771
6.56069
5.54585
11.9287
17.7195
21.7869
10.1023
2.78065
0.196806
-0.0465568
-0.105714
-0.156076
-0.145416
0.12095
0.570408
3.41129
0.000563228
-0.277541
-0.218046
-0.185072
-0.197466
-0.222463
-0.233673
-0.217116
-0.36225
-0.441437
-0.492202
-0.416846
-0.359337
-0.307438
-0.286811
-0.276689
-0.255288
-0.241797
-0.285129
-0.530122
-0.55602
-0.49427
-0.450916
-0.407147
-0.380544
-0.368699
-0.354144
-0.358653
-0.349349
-0.572555
-0.594653
-0.553611
-0.519559
-0.490371
-0.465884
-0.450194
-0.438023
-0.444403
-0.474186
-0.5999
-0.619974
-0.584871
-0.559812
-0.54301
-0.523042
-0.518069
-0.514364
-0.517605
-0.578683
-0.620313
-0.623668
-0.608702
-0.593851
-0.583703
-0.56945
-0.576447
-0.577002
-0.56678
-0.593885
-0.647505
-0.644398
-0.636299
-0.629871
-0.62584
-0.609308
-0.630434
-0.631191
-0.615374
-0.624008
-0.684152
-0.679941
-0.674262
-0.67296
-0.671105
-0.654939
-0.68365
-0.681032
-0.668335
-0.674425
-0.727119
-0.723425
-0.720931
-0.721021
-0.717743
-0.704593
-0.734165
-0.727118
-0.720207
-0.728036
-0.773671
-0.772204
-0.770555
-0.770625
-0.766312
-0.756276
-0.783633
-0.774937
-0.772224
-0.770762
-0.822064
-0.821443
-0.820342
-0.820552
-0.817457
-0.80671
-0.829892
-0.823131
-0.820481
-0.838499
392.576
392.4
392.211
392.172
392.38
392.886
393.618
394.422
395.346
396.508
343.414
343.157
342.861
342.728
342.9
343.464
344.267
345.114
345.978
346.846
294.11
293.681
293.153
292.803
292.881
293.471
294.404
295.42
296.205
297.119
244.877
244.052
243.018
242.187
241.965
242.511
243.795
245.28
245.913
246.768
195.66
194.092
192.279
190.495
189.616
189.949
192.105
194.894
194.672
194.525
147.361
144.266
140.919
137.113
135.261
134.855
137.964
142.719
139.778
137.65
100.306
94.6697
89.3779
84.8073
78.0043
69.8566
67.9825
77.1778
77.8378
77.1196
55.0939
45.2518
33.6141
21.5556
13.4702
6.75789
5.00161
13.4819
23.563
29.5005
23.3738
11.4269
2.8573
0.152921
-0.0411246
-0.0950181
-0.0582144
0.145787
2.5627
9.39579
5.3419
0.277279
-0.276802
-0.191383
-0.171067
-0.214684
-0.226911
-0.214018
-0.144755
4.0625
-0.440991
-0.504063
-0.403556
-0.334586
-0.28497
-0.27469
-0.244604
-0.219075
0.242188
1.63283
-0.521524
-0.54873
-0.465214
-0.422551
-0.384781
-0.359831
-0.343988
-0.325318
-0.39415
1.64594
-0.56691
-0.58286
-0.532239
-0.50224
-0.47759
-0.430896
-0.421408
-0.421706
-0.43812
0.357095
-0.602109
-0.621991
-0.575592
-0.551788
-0.546306
-0.508025
-0.500835
-0.519513
-0.503336
-0.534481
-0.623652
-0.634483
-0.610543
-0.594531
-0.59195
-0.581467
-0.569769
-0.601406
-0.557629
-0.596474
-0.650603
-0.651852
-0.64239
-0.63525
-0.634205
-0.647654
-0.628617
-0.656258
-0.618341
-0.661075
-0.68625
-0.684392
-0.680544
-0.679007
-0.678043
-0.685551
-0.698389
-0.697636
-0.676831
-0.737526
-0.729345
-0.727338
-0.725353
-0.725739
-0.723887
-0.723136
-0.737597
-0.735324
-0.721585
-0.77573
-0.775194
-0.77422
-0.77297
-0.773841
-0.769895
-0.765769
-0.777193
-0.775091
-0.765117
-0.801543
-0.822824
-0.822347
-0.821451
-0.822218
-0.818957
-0.821029
-0.812766
-0.814486
-0.806563
-0.840264
392.552
392.389
392.232
392.238
392.509
393.127
394.025
394.863
395.835
397.085
343.393
343.148
342.886
342.808
343.077
343.826
344.838
345.716
346.23
348.65
294.091
293.686
293.192
292.93
293.191
294.068
295.273
296.247
296.289
299.551
244.873
244.064
243.078
242.387
242.453
243.37
244.945
246.29
245.674
248.807
195.677
194.157
192.409
190.766
190.236
190.991
193.621
196.114
193.256
195.127
147.498
144.494
141.182
137.167
135.797
135.798
140.189
144.22
136.025
139.309
100.719
95.0449
89.8007
85.702
77.8391
68.4619
72.7475
81.731
74.7396
83.7174
55.8
45.7593
33.9944
21.7746
11.3775
5.52336
11.3002
20.0442
30.1695
40.0163
24.5156
11.9476
2.91596
0.258006
0.00141659
0.156762
0.71976
0.413426
13.1321
26.3303
6.49407
0.250173
-0.210158
-0.179281
-0.16669
-0.166376
-0.181835
-0.301279
12.1507
34.5032
-0.45264
-0.503319
-0.39215
-0.318969
-0.279973
-0.278981
-0.27436
0.0914592
7.85823
37.4924
-0.524153
-0.556974
-0.460972
-0.423462
-0.396909
-0.387778
-0.399623
-0.325267
2.13747
30.3723
-0.561921
-0.57802
-0.522222
-0.498075
-0.48458
-0.469592
-0.482078
-0.448921
0.0693078
14.8765
-0.603084
-0.621748
-0.573727
-0.552628
-0.548627
-0.528252
-0.553218
-0.557542
-0.484123
0.677883
-0.626371
-0.641024
-0.611288
-0.595137
-0.593935
-0.597199
-0.610449
-0.61743
-0.609823
-0.902499
-0.652076
-0.656652
-0.644925
-0.636391
-0.634346
-0.644469
-0.65398
-0.592053
-0.620121
-0.868319
-0.687136
-0.68637
-0.682865
-0.680677
-0.679097
-0.690012
-0.700264
-0.541136
-0.591912
-0.731289
-0.729852
-0.728664
-0.727154
-0.727277
-0.725757
-0.736476
-0.748678
-0.619022
-0.731819
-0.697013
-0.775606
-0.77493
-0.774275
-0.774776
-0.774086
-0.782361
-0.790187
-0.786117
-0.755784
-0.779252
-0.823264
-0.822809
-0.822321
-0.822723
-0.822893
-0.832013
-0.836451
-0.808985
-0.782151
-0.855244
392.596
392.437
392.29
392.312
392.597
393.226
394.11
394.954
396.025
397.279
343.436
343.196
342.946
342.887
343.172
343.926
344.911
345.744
346.429
348.964
294.133
293.736
293.256
293.017
293.304
294.197
295.364
296.232
296.508
300.073
244.912
244.114
243.15
242.503
242.627
243.59
245.1
246.234
245.885
249.627
195.714
194.211
192.507
190.954
190.554
191.48
194.041
195.991
193.491
196.144
147.527
144.568
141.334
137.491
136.346
136.892
141.496
144.218
136.58
138.79
100.742
95.149
89.9929
85.8602
78.3385
70.6653
76.2711
82.5833
74.8888
81.0595
55.8181
45.8912
34.2388
21.7218
10.9206
6.83008
13.4302
22.2925
30.7055
39.7024
24.0517
11.9418
2.98213
0.296174
0.0229881
0.231394
0.77778
1.2042
17.8374
35.1075
6.42489
0.288627
-0.216668
-0.163466
-0.170005
-0.196284
-0.261768
-0.295629
17.1424
48.8623
-0.456059
-0.516463
-0.397907
-0.320212
-0.283916
-0.313182
-0.394464
-0.373266
4.74817
43.9549
-0.526247
-0.566366
-0.466926
-0.426277
-0.397641
-0.410347
-0.462225
-0.459161
1.38705
24.7021
-0.559102
-0.589047
-0.535918
-0.499308
-0.480289
-0.487786
-0.513827
-0.479871
1.13534
16.0383
-0.600726
-0.629722
-0.582592
-0.550705
-0.539798
-0.550514
-0.571609
-0.538104
1.42525
18.6833
-0.626215
-0.643257
-0.615831
-0.593237
-0.586559
-0.599186
-0.619742
-0.600382
1.36439
6.79473
-0.651127
-0.657266
-0.646262
-0.634682
-0.631856
-0.645107
-0.66232
-0.661784
-0.342584
0.888167
-0.686321
-0.686149
-0.682365
-0.679325
-0.680757
-0.695626
-0.712664
-0.720065
-0.762156
-0.172052
-0.729065
-0.727963
-0.726749
-0.727295
-0.730093
-0.746863
-0.767705
-0.777632
-0.768913
-0.465234
-0.775345
-0.774531
-0.774322
-0.775621
-0.77821
-0.795089
-0.809876
-0.806086
-0.796442
-0.823391
-0.823136
-0.822801
-0.822685
-0.823935
-0.826481
-0.83835
-0.844095
-0.822188
-0.812146
-0.656533
392.705
392.543
392.387
392.396
392.669
393.269
394.139
395.177
396.328
398.149
343.539
343.298
343.037
342.959
343.205
343.87
344.836
345.935
347.217
348.442
294.232
293.825
293.336
293.049
293.212
293.917
295.027
296.347
297.83
299.159
244.988
244.19
243.207
242.46
242.344
243
244.412
246.234
247.972
249.547
195.755
194.223
192.486
190.827
190.08
190.512
192.642
195.635
197.169
198.195
147.43
144.407
141.179
137.549
135.815
135.519
138.483
143.265
142.872
142.02
100.356
94.7875
89.5271
84.8281
78.2163
71.0814
70.0319
78.1555
80.0234
80.7656
55.0536
45.3613
33.8683
21.814
13.6673
7.80328
5.94714
13.8029
22.6355
29.5291
22.9439
11.3522
2.87155
0.198592
-0.0285979
-0.0716732
-0.0653399
0.0523286
1.50359
8.90195
5.2716
0.179141
-0.286166
-0.19616
-0.197815
-0.237884
-0.294515
-0.284612
-0.0105994
2.91968
-0.461564
-0.52332
-0.422477
-0.356072
-0.318233
-0.329236
-0.349994
-0.357979
-0.271496
0.945809
-0.528752
-0.576807
-0.49181
-0.451892
-0.419844
-0.418745
-0.42601
-0.417297
-0.441043
0.44245
-0.554698
-0.592132
-0.552612
-0.518222
-0.494093
-0.487265
-0.4877
-0.466831
-0.454604
-0.240185
-0.591851
-0.621723
-0.584583
-0.562555
-0.548873
-0.545349
-0.547294
-0.530947
-0.533715
-0.534103
-0.620499
-0.63549
-0.613687
-0.599207
-0.593544
-0.597027
-0.60336
-0.604038
-0.640003
-0.775941
-0.648492
-0.652184
-0.643039
-0.636062
-0.636255
-0.645218
-0.654991
-0.66674
-0.719941
-0.949342
-0.684419
-0.683051
-0.679369
-0.678306
-0.682104
-0.693175
-0.70424
-0.717931
-0.770963
-0.902937
-0.727775
-0.7256
-0.724463
-0.726113
-0.729882
-0.740187
-0.749656
-0.754528
-0.765521
-0.796558
-0.774692
-0.773347
-0.773356
-0.774777
-0.77773
-0.784663
-0.790976
-0.788886
-0.785432
-0.786747
-0.822983
-0.822416
-0.822375
-0.823213
-0.82472
-0.828123
-0.83019
-0.823273
-0.821646
-0.817616
392.901
392.725
392.54
392.504
392.725
393.273
394.102
395.156
396.049
397.809
343.728
343.476
343.185
343.054
343.226
343.802
344.761
345.993
347.241
348.968
294.417
293.993
293.475
293.123
293.154
293.72
294.86
296.434
298.255
300.418
245.134
244.33
243.331
242.501
242.198
242.668
244.073
246.286
249.037
252.028
195.84
194.294
192.511
190.794
189.888
190.093
191.91
195.334
199.543
203.843
147.295
144.169
140.919
137.274
135.646
135.151
137.09
141.893
147.722
153.459
99.6013
94.0626
88.8749
84.1043
78.8509
73.2844
70.191
72.3551
80.7277
88.6138
53.3955
44.0494
33.3137
22.7623
16.8645
12.2987
8.35584
5.85958
13.9585
22.1827
21.7865
10.1434
2.86463
0.423371
-0.0590052
-0.114623
-0.154944
-0.142125
0.274847
1.50772
3.32211
-0.10103
-0.312021
-0.230129
-0.228961
-0.229356
-0.253999
-0.279757
-0.300345
-0.390962
-0.476465
-0.526326
-0.443566
-0.383813
-0.343995
-0.326042
-0.328108
-0.335563
-0.352784
-0.383679
-0.535276
-0.576749
-0.513369
-0.47532
-0.435909
-0.414039
-0.407966
-0.403432
-0.405158
-0.399758
-0.553578
-0.58521
-0.558468
-0.526493
-0.499939
-0.482228
-0.475476
-0.464897
-0.464315
-0.479912
-0.587651
-0.606324
-0.574397
-0.556786
-0.546498
-0.536368
-0.532629
-0.522463
-0.520089
-0.534208
-0.61705
-0.625252
-0.5991
-0.589919
-0.58717
-0.584391
-0.584851
-0.578871
-0.576795
-0.568838
-0.645786
-0.64657
-0.632935
-0.627909
-0.629106
-0.631874
-0.635953
-0.636601
-0.657984
-0.617895
-0.682207
-0.679122
-0.672693
-0.671501
-0.675576
-0.680814
-0.687375
-0.695184
-0.727292
-0.75924
-0.725973
-0.722233
-0.719872
-0.721645
-0.724719
-0.729481
-0.735572
-0.742672
-0.761412
-0.798352
-0.773611
-0.771421
-0.771076
-0.772115
-0.773486
-0.776767
-0.780722
-0.784086
-0.792434
-0.816022
-0.822701
-0.821921
-0.821653
-0.821892
-0.822089
-0.823378
-0.82467
-0.824523
-0.828211
-0.835882
393.212
393.022
392.788
392.671
392.778
393.197
393.909
394.824
395.76
396.995
344.042
343.768
343.428
343.212
343.259
343.674
344.462
345.512
346.676
348.115
294.74
294.299
293.735
293.298
293.187
293.532
294.402
295.698
297.331
299.175
245.418
244.615
243.604
242.715
242.249
242.41
243.362
245.055
247.359
249.779
196.027
194.518
192.766
191.11
189.998
189.781
190.759
192.979
196.081
199.08
147.09
144.051
140.905
137.802
135.704
134.868
135.557
138.066
141.637
144.742
98.7908
93.2068
88.3864
83.6253
79.7357
75.3232
72.1374
70.8344
71.0203
73.916
50.1334
42.1198
32.5466
22.9713
17.6141
14.8039
11.9378
7.74872
5.77834
13.1525
19.4623
8.47737
2.67292
0.560045
-0.071007
-0.119297
-0.131248
-0.162675
-0.0115513
1.06082
1.38952
-0.364518
-0.323438
-0.285619
-0.267666
-0.242833
-0.242044
-0.264489
-0.297751
-0.251038
-0.505875
-0.531517
-0.459785
-0.421358
-0.378769
-0.348751
-0.333007
-0.329176
-0.335759
-0.370857
-0.545366
-0.567053
-0.536016
-0.501248
-0.46214
-0.434222
-0.414601
-0.405686
-0.396116
-0.430042
-0.563025
-0.587792
-0.568733
-0.538369
-0.515691
-0.495778
-0.479194
-0.470236
-0.453039
-0.47805
-0.59459
-0.60645
-0.57946
-0.561057
-0.553155
-0.542579
-0.532102
-0.525179
-0.513821
-0.526089
-0.621208
-0.626762
-0.601084
-0.588203
-0.58666
-0.584498
-0.581236
-0.578168
-0.570827
-0.564982
-0.648484
-0.648594
-0.631387
-0.622745
-0.625118
-0.628765
-0.630851
-0.63228
-0.631784
-0.602358
-0.682538
-0.678916
-0.669164
-0.666557
-0.671289
-0.676621
-0.681111
-0.685817
-0.696436
-0.651968
-0.725284
-0.720892
-0.716913
-0.717975
-0.721578
-0.725544
-0.729751
-0.734386
-0.746274
-0.750325
-0.773472
-0.770982
-0.769997
-0.77065
-0.772013
-0.774133
-0.776668
-0.779364
-0.785558
-0.79228
-0.823559
-0.822897
-0.822429
-0.822041
-0.821972
-0.822417
-0.823044
-0.8235
-0.82576
-0.826546
393.662
393.447
393.159
392.95
392.915
393.146
393.654
394.365
395.107
395.919
344.518
344.216
343.818
343.505
343.393
343.604
344.146
344.946
345.858
346.836
295.247
294.789
294.179
293.653
293.378
293.482
294.022
294.955
296.168
297.433
245.908
245.128
244.102
243.166
242.527
242.415
242.907
244
245.573
247.195
196.391
194.989
193.29
191.681
190.559
189.955
190.252
191.441
193.277
195.037
146.813
144.203
141.229
138.37
136.199
135.127
135.228
136.327
138.126
139.49
96.931
92.525
88.3443
84.0072
80.621
77.9234
75.6592
74.3588
74.4531
74.4748
47.8018
39.8387
31.9111
24.222
18.5417
15.665
14.3077
11.6052
9.15879
8.82075
15.3202
6.25623
2.48674
0.799914
-0.01489
-0.106435
-0.125513
-0.131428
-0.127291
0.0684587
0.110318
-0.367015
-0.349854
-0.342081
-0.314319
-0.265012
-0.248618
-0.244927
-0.264784
-0.263496
-0.531415
-0.535209
-0.501156
-0.472109
-0.418578
-0.373664
-0.346371
-0.330663
-0.329711
-0.333073
-0.56404
-0.581055
-0.580608
-0.543154
-0.489478
-0.453402
-0.427628
-0.412014
-0.409446
-0.414522
-0.580892
-0.597711
-0.592562
-0.559727
-0.531877
-0.508273
-0.488963
-0.477591
-0.475917
-0.479153
-0.605978
-0.607213
-0.593745
-0.579228
-0.565555
-0.549953
-0.537777
-0.531762
-0.531556
-0.536356
-0.625984
-0.625476
-0.612701
-0.6032
-0.593252
-0.586138
-0.582005
-0.580644
-0.580882
-0.586916
-0.649359
-0.650453
-0.638345
-0.625869
-0.624339
-0.626046
-0.627702
-0.629255
-0.630682
-0.631964
-0.681653
-0.680143
-0.670294
-0.664687
-0.667786
-0.67229
-0.675937
-0.678738
-0.682192
-0.679946
-0.723395
-0.720638
-0.716498
-0.715862
-0.718107
-0.721468
-0.724768
-0.727604
-0.731485
-0.732464
-0.773736
-0.772835
-0.771156
-0.769614
-0.769819
-0.771388
-0.773305
-0.775286
-0.777868
-0.782933
-0.825786
-0.827017
-0.825772
-0.823129
-0.821653
-0.821382
-0.821614
-0.822209
-0.823158
-0.826812
394.245
394
393.655
393.355
393.185
393.23
393.518
394.006
394.552
395.104
345.163
344.827
344.371
343.962
343.706
343.708
344.009
344.543
345.171
345.806
295.958
295.477
294.822
294.215
293.798
293.685
293.946
294.532
295.32
296.13
246.661
245.897
244.88
243.907
243.174
242.801
243.002
243.63
244.598
245.626
197.054
195.769
194.182
192.65
191.481
190.954
190.755
191.329
192.458
193.625
146.968
144.815
142.166
139.593
137.607
136.386
136.268
136.909
138.166
139.217
95.5476
92.2414
88.8785
85.326
82.5255
80.7425
80.4954
80.1738
80.7764
81.3721
44.2396
37.072
31.2712
26.1189
21.8798
18.8128
17.4674
16.9159
16.8728
17.3246
10.365
4.25615
2.31252
1.19279
0.458139
0.0164733
-0.0672217
-0.0668926
-0.0483584
-0.0349872
-0.278203
-0.351053
-0.368216
-0.388183
-0.354204
-0.314261
-0.275823
-0.247891
-0.24078
-0.247159
-0.540294
-0.569681
-0.565959
-0.551108
-0.465751
-0.407565
-0.369567
-0.344508
-0.333993
-0.331673
-0.587075
-0.629562
-0.648733
-0.610919
-0.533001
-0.478225
-0.444623
-0.425383
-0.416836
-0.4169
-0.602544
-0.647448
-0.636252
-0.588129
-0.551045
-0.522323
-0.502846
-0.491629
-0.487746
-0.488029
-0.610088
-0.61862
-0.597477
-0.579741
-0.570253
-0.556981
-0.547602
-0.544796
-0.545475
-0.544711
-0.612794
-0.602064
-0.595476
-0.599882
-0.595284
-0.588803
-0.58678
-0.58881
-0.591195
-0.589657
-0.633291
-0.627274
-0.623687
-0.626905
-0.624742
-0.625382
-0.628047
-0.63164
-0.632538
-0.629382
-0.669556
-0.667465
-0.664024
-0.664036
-0.667482
-0.670195
-0.674064
-0.677105
-0.677341
-0.674217
-0.71682
-0.717227
-0.716468
-0.717175
-0.718567
-0.720112
-0.72273
-0.72472
-0.725572
-0.724529
-0.774174
-0.776256
-0.774876
-0.772724
-0.770844
-0.770581
-0.771887
-0.773005
-0.773926
-0.775948
-0.833268
-0.836167
-0.831969
-0.82779
-0.823278
-0.821625
-0.821159
-0.821136
-0.821111
-0.822311
394.923
394.645
394.246
393.866
393.582
393.478
393.581
393.872
394.254
394.656
345.934
345.56
345.052
344.563
344.187
344.03
344.123
344.439
344.858
345.291
296.842
296.327
295.631
294.96
294.434
294.167
294.195
294.533
295.017
295.528
247.638
246.869
245.88
244.908
244.12
243.661