/*--------------------------------*- C++ -*----------------------------------*\
| =========                 |                                                 |
| \\      /  F ield         | OpenFOAM: The Open Source CFD Toolbox           |
|  \\    /   O peration     | Version:  2312                                  |
|   \\  /    A nd           | Website:  www.openfoam.com                      |
|    \\/     M anipulation  |                                                 |
\*---------------------------------------------------------------------------*/
FoamFile
{
    version     2.0;
    format      ascii;
    arch        "LSB;label=32;scalar=64";
    class       volScalarField;
    location    "0.43";
    object      p_rgh;
}
// * * * * * * * * * * * * * * * * * * * * * * * * * * * * * * * * * * * * * //

dimensions      [1 -1 -2 0 0 0 0];

internalField   nonuniform List<scalar> 
8000
(
420.746
420.387
419.834
419.228
418.656
418.211
417.935
417.829
417.856
417.972
421.16
420.697
420.035
419.314
418.646
418.136
417.829
417.718
417.75
417.869
421.674
421.087
420.238
419.332
418.53
417.94
417.591
417.468
417.504
417.628
422.109
421.362
420.347
419.275
418.357
417.696
417.344
417.255
417.332
417.47
422.513
421.427
420.109
418.804
417.866
417.257
417.005
417.03
417.199
417.342
424.673
422.726
420.115
418.094
417.063
416.792
417.043
417.515
418.104
418.244
422.374
419.082
411.804
412.489
414.984
416.036
417.417
418.719
419.641
420.451
336.986
309.146
282.372
306.079
349.081
387.665
407.467
418.186
423.489
424.851
96.0901
59.496
41.7436
86.2186
163.028
240.196
309.282
353.118
376.488
387.865
6.66348
4.11251
1.84896
0.887846
1.03734
14.6947
40.3295
73.6951
104.031
121.072
2.37167
1.4994
0.334191
-0.00860264
-0.0596901
-0.0302579
0.00463051
0.0429646
0.061367
0.0688707
0.799629
0.594261
0.0665447
-0.0804372
-0.0802136
-0.0503285
0.00896414
0.04426
0.0549773
0.0517646
0.431242
0.259158
0.0622517
-0.0366032
-0.0245003
0.00729739
0.0407681
0.0651023
0.0731557
0.0680519
0.344201
0.160648
0.0989976
0.0641307
0.0616034
0.0703184
0.0779982
0.0826018
0.0863276
0.0838492
0.396541
0.132289
0.156081
0.1485
0.131211
0.118552
0.113042
0.111343
0.110785
0.108225
0.385369
0.144815
0.189919
0.178494
0.167161
0.156368
0.146698
0.135584
0.134459
0.134679
0.371983
0.160045
0.189161
0.185982
0.186812
0.174677
0.165275
0.147217
0.144639
0.145063
0.403808
0.161755
0.174495
0.178725
0.1797
0.161638
0.151802
0.147918
0.146032
0.145807
0.424484
0.199129
0.157058
0.154869
0.153637
0.150946
0.148939
0.147889
0.14763
0.147827
0.432476
0.379233
0.202044
0.139339
0.144522
0.146323
0.14693
0.147452
0.148079
0.148497
420.367
420.011
419.475
418.897
418.357
417.948
417.703
417.623
417.683
417.824
420.679
420.214
419.572
418.888
418.256
417.783
417.512
417.437
417.497
417.641
421.069
420.463
419.632
418.765
417.995
417.43
417.106
417.012
417.081
417.241
421.338
420.528
419.505
418.452
417.537
416.864
416.501
416.42
416.517
416.687
421.395
420.313
418.961
417.614
416.569
415.827
415.472
415.453
415.621
415.835
422.644
421.024
418.447
416.267
414.92
414.168
414.014
414.308
414.807
415.182
419.492
415.692
411.563
412.54
411.901
411.82
412.338
413.282
414.153
414.681
308.372
294.608
284.4
315.533
359.678
388.705
402.501
411.314
413.926
414.615
55.3344
48.2553
40.6347
53.908
77.161
111.759
149.607
179.746
204.793
216.872
3.30845
2.33904
1.07774
0.385772
0.209535
0.207912
3.19735
13.6256
21.1486
24.6623
0.891319
0.628643
0.123824
-0.0844853
-0.0783635
-0.0209018
0.012628
0.0199829
0.00828087
0.0146059
0.363002
0.217688
0.00724802
-0.159727
-0.144301
-0.0482363
0.0108131
0.0120992
0.00499103
-0.00251635
0.2919
0.188178
0.056077
-0.0731118
-0.0673124
-0.012698
0.0486641
0.0495376
0.0454306
0.0382673
0.29775
0.136102
0.173919
0.124324
0.073982
0.0764328
0.0829302
0.0851306
0.0652315
0.0699369
0.379007
0.14801
0.256377
0.267727
0.193635
0.130477
0.124115
0.111299
0.103936
0.117204
0.418053
0.175932
0.290108
0.259954
0.192974
0.151496
0.146167
0.133416
0.13701
0.139197
0.426742
0.173058
0.256356
0.241538
0.177626
0.167915
0.161379
0.149263
0.145791
0.144033
0.404396
0.161903
0.233818
0.180789
0.16761
0.160034
0.154226
0.150446
0.148072
0.147789
0.381909
0.167495
0.164951
0.15131
0.150857
0.151122
0.150319
0.14927
0.14913
0.149299
0.307058
0.331058
0.142893
0.135619
0.139696
0.144483
0.146814
0.147841
0.148738
0.14918
419.773
419.434
418.928
418.393
417.907
417.56
417.386
417.382
417.504
417.698
419.978
419.533
418.918
418.273
417.691
417.282
417.085
417.084
417.212
417.414
420.184
419.595
418.787
417.954
417.224
416.709
416.448
416.427
416.568
416.789
420.298
419.472
418.418
417.342
416.392
415.716
415.39
415.355
415.505
415.745
420.072
418.923
417.448
416.014
414.833
413.994
413.62
413.609
413.817
414.115
420.013
418.303
415.982
413.733
412.05
411.008
410.683
410.822
411.419
411.87
412.624
411.437
411.761
409.508
408.304
407.666
407.687
408.18
408.806
409.201
288.489
282.979
297.201
324.765
346.824
358.989
366.034
373.753
382.892
388.678
45.3871
37.8877
38.7274
41.1575
45.8008
51.1602
56.1016
61.3329
65.624
65.7673
1.77491
0.913591
0.400883
0.142085
0.124458
0.157324
0.177669
0.171453
0.171258
0.24152
0.265042
0.056277
-0.068894
-0.105334
-0.031674
0.0524019
0.104354
0.112175
0.108567
0.116108
0.0641112
-0.084758
-0.0963399
-0.142385
-0.0849945
0.0178315
0.0726189
0.083868
0.0888837
0.0947554
0.203661
0.0586886
0.0566741
-0.0188724
0.00221678
0.0593781
0.0892797
0.0795092
0.0810259
0.106017
0.326936
0.132317
0.175002
0.176996
0.130739
0.0971715
0.10101
0.0910844
0.0988013
0.110705
0.361645
0.15513
0.22474
0.25838
0.162517
0.122203
0.119476
0.11476
0.12137
0.117471
0.273134
0.182386
0.206707
0.238875
0.157003
0.139676
0.138767
0.136489
0.136676
0.1357
0.203474
0.166339
0.175424
0.206162
0.160127
0.153417
0.151423
0.148924
0.146111
0.14485
0.176874
0.153859
0.168246
0.168159
0.156137
0.153575
0.152008
0.150319
0.149487
0.149177
0.172933
0.144438
0.165636
0.152192
0.146505
0.148354
0.149067
0.149184
0.149721
0.149872
0.209199
0.135016
0.149279
0.139071
0.138157
0.142919
0.145851
0.14757
0.148963
0.149359
419.103
418.791
418.328
417.853
417.447
417.197
417.137
417.254
417.474
417.749
419.193
418.785
418.209
417.618
417.116
416.809
416.732
416.856
417.094
417.388
419.22
418.668
417.894
417.107
416.44
416.011
415.859
415.971
416.243
416.589
419.18
418.366
417.285
416.176
415.223
414.599
414.358
414.406
414.704
415.119
418.754
417.532
415.956
414.387
413.063
412.178
411.866
411.688
412.076
412.548
417.982
416.078
413.623
411.137
409.125
407.845
407.219
406.91
407.788
408.126
413.974
412.22
409.257
406.39
404.307
403.067
402.834
403.543
404.194
404.819
310.82
313.451
322.926
327.314
324.564
316.509
312.495
316.242
322.081
325.998
94.1822
55.2154
40.7188
31.6822
24.5859
18.8763
15.393
14.4518
13.3113
11.6863
0.896302
0.414513
0.176552
0.0955472
0.115155
0.14146
0.174591
0.223151
0.254797
0.272518
0.0324955
-0.0642454
-0.0717118
-0.0434206
0.030452
0.0915551
0.128697
0.153039
0.173068
0.186428
-0.0406187
-0.123676
-0.134138
-0.0712189
-0.000914324
0.065817
0.0998298
0.117628
0.130941
0.138628
0.0797909
-0.0467287
-0.0240348
0.00888073
0.0465569
0.0764111
0.089446
0.0963797
0.108357
0.114469
0.302684
0.171568
0.0952917
0.10935
0.10538
0.0972461
0.0963403
0.0966444
0.107342
0.108883
0.206429
0.238412
0.160456
0.143064
0.128619
0.119195
0.115244
0.115284
0.119991
0.119746
0.130219
0.162253
0.162362
0.153398
0.149222
0.141389
0.137288
0.137387
0.136397
0.136008
0.14447
0.155005
0.157175
0.163901
0.158492
0.151444
0.148675
0.14734
0.147074
0.146848
0.145555
0.150227
0.155004
0.160979
0.154554
0.151234
0.149995
0.149351
0.150108
0.150278
0.136574
0.13638
0.142086
0.14903
0.147597
0.148239
0.148258
0.148586
0.150027
0.15033
0.141945
0.124676
0.131799
0.139336
0.141298
0.14393
0.145592
0.147056
0.149075
0.149292
418.441
418.161
417.75
417.353
417.054
416.945
417.051
417.333
417.683
418.073
418.436
418.064
417.536
417.022
416.633
416.474
416.576
416.881
417.28
417.729
418.336
417.814
417.077
416.35
415.783
415.497
415.535
415.849
416.352
416.936
418.183
417.373
416.252
415.135
414.235
413.711
413.632
413.919
414.523
415.256
417.753
416.43
414.705
412.978
411.582
410.739
410.355
410.561
411.23
412.009
416.925
414.751
411.905
409.052
406.794
405.388
404.94
405.194
405.873
406.386
415.008
411.659
407.954
404.085
401.101
399.378
398.753
397.991
397.663
397.068
350.342
358.611
345.408
323.02
298.587
276.289
265.409
255.397
242.718
229.468
171.939
79.9132
45.882
24.4046
10.5763
3.41639
0.861515
0.412031
0.369782
0.370311
1.3723
0.234175
0.156324
0.137461
0.15091
0.181272
0.214798
0.244551
0.259141
0.264057
-0.0065036
-0.0200784
0.0038054
0.0380704
0.0903322
0.133804
0.167249
0.190997
0.206134
0.215117
-0.0288749
-0.0697595
-0.0412698
0.000628569
0.0617695
0.105102
0.135294
0.154391
0.163052
0.166628
-0.000408477
-0.0379058
-0.00897658
0.032187
0.0702172
0.0994666
0.118957
0.130755
0.135856
0.138254
0.0774008
0.107042
0.0816754
0.078011
0.0949352
0.109726
0.118128
0.122965
0.127725
0.13023
0.0908737
0.17626
0.137498
0.110798
0.120042
0.128313
0.129583
0.130378
0.133719
0.135012
0.119704
0.147493
0.151628
0.141308
0.145947
0.145039
0.142064
0.141425
0.143699
0.144026
0.13572
0.146683
0.154972
0.156561
0.155397
0.151539
0.147997
0.147121
0.149453
0.150115
0.140887
0.148646
0.15212
0.152476
0.154
0.1516
0.14881
0.148385
0.15098
0.152208
0.136136
0.138026
0.14017
0.144985
0.149171
0.148386
0.147156
0.147595
0.150148
0.151177
0.128018
0.126883
0.132514
0.140122
0.141841
0.143748
0.144606
0.146064
0.148639
0.149402
417.884
417.637
417.284
416.977
416.813
416.884
417.194
417.667
418.164
418.749
417.812
417.475
417.007
416.589
416.342
416.378
416.701
417.229
417.839
418.559
417.631
417.134
416.441
415.795
415.366
415.278
415.57
416.168
416.975
417.928
417.411
416.584
415.455
414.378
413.575
413.239
413.44
414.113
415.13
416.273
417.037
415.588
413.75
411.951
410.59
409.744
409.742
410.445
411.549
412.698
416.622
413.98
410.82
407.721
405.356
404.018
403.813
404.364
405.227
405.953
416.002
411.613
407.208
402.666
399.336
396.182
392.957
387.992
379.527
369.041
385.067
387.695
357.69
314.316
275.292
243.205
215.189
173.339
132.157
101.669
245.364
115.62
51.5724
18.3847
3.19764
0.303231
0.294569
0.294309
0.296698
0.450288
14.7323
0.12521
0.142325
0.176379
0.194048
0.224126
0.237948
0.249413
0.237985
0.256589
0.0122739
-0.000420471
0.0484618
0.0861343
0.133373
0.170636
0.195036
0.213605
0.223554
0.235907
-0.0107581
-0.00879637
-0.00295687
0.0452268
0.0957792
0.134155
0.159718
0.175806
0.180803
0.185535
0.0178496
-0.00137492
0.0185918
0.0507075
0.0881661
0.119646
0.139575
0.151507
0.154873
0.150034
0.0519052
0.0457981
0.0837571
0.0922845
0.101316
0.121967
0.134286
0.141183
0.144737
0.137572
0.0856633
0.099762
0.135088
0.128961
0.124341
0.133814
0.137981
0.140921
0.145554
0.140774
0.114711
0.13171
0.15213
0.149336
0.143859
0.144414
0.143005
0.143922
0.149025
0.148476
0.13172
0.145046
0.158024
0.155008
0.150379
0.148778
0.145494
0.146028
0.151025
0.153368
0.138156
0.147645
0.151869
0.149543
0.149847
0.148601
0.145742
0.146591
0.150573
0.153186
0.13703
0.140503
0.142235
0.14433
0.146371
0.145738
0.144427
0.145632
0.14835
0.149046
0.133871
0.133995
0.135591
0.139762
0.14105
0.142045
0.142514
0.144201
0.145963
0.144625
417.477
417.258
416.963
416.757
416.744
417.005
417.514
418.163
418.809
419.684
417.37
417.066
416.66
416.348
416.265
416.509
417.069
417.812
418.583
419.645
417.141
416.662
416.025
415.478
415.22
415.374
415.982
416.886
417.93
419.338
416.911
416.066
414.964
413.95
413.305
413.244
413.897
415.085
416.534
418.218
416.628
415.071
413.201
411.378
410.032
409.567
410.249
411.91
413.831
415.725
416.767
413.702
410.409
407.071
404.733
403.675
404.113
406.06
408.164
410.272
417.4
412.026
407.149
402.282
398.085
392.514
384.99
373.352
356.383
341.153
405.027
401.429
365.306
310.312
262.626
214.032
162.854
113.721
72.0997
59.552
310.597
150.876
56.7483
14.5226
0.455885
0.304698
0.278637
0.251788
0.343572
1.25879
38.3409
4.76228
0.172014
0.219932
0.24029
0.245323
0.241035
0.235179
0.230173
0.253606
0.0500449
0.0186203
0.0864832
0.147182
0.18491
0.199062
0.21471
0.231652
0.252694
0.220554
0.0296397
0.0220485
0.0387866
0.0923156
0.145129
0.161388
0.179033
0.190954
0.190206
0.168273
0.0404401
0.0359843
0.0374571
0.0717753
0.112201
0.137026
0.15295
0.162042
0.161276
0.13536
0.0603124
0.0461628
0.0756315
0.0939274
0.112659
0.13082
0.139848
0.146454
0.148765
0.129895
0.0928945
0.0975413
0.115613
0.121886
0.126955
0.135681
0.136818
0.140806
0.147982
0.137016
0.118306
0.12751
0.138537
0.139722
0.139908
0.142035
0.138305
0.140122
0.149205
0.148475
0.130256
0.138907
0.146572
0.145774
0.146791
0.183118
0.139324
0.140901
0.148522
0.151884
0.134698
0.141478
0.144385
0.143855
0.147959
0.248075
0.154898
0.141894
0.146762
0.158606
0.135499
0.138178
0.139792
0.141022
0.147183
0.278777
0.178099
0.141789
0.144806
0.168914
0.134644
0.135501
0.136695
0.138274
0.14277
0.254676
0.194423
0.141672
0.144058
0.201963
417.224
417.028
416.793
416.684
416.805
417.222
417.875
418.696
419.384
420.412
417.11
416.843
416.488
416.277
416.341
416.771
417.523
418.468
419.272
420.516
416.856
416.39
415.823
415.382
415.29
415.689
416.585
417.759
418.847
420.466
416.647
415.805
414.734
413.795
413.341
413.622
414.77
416.448
418.082
420.085
416.44
414.849
412.973
411.096
409.997
410.003
411.648
414.56
417.095
419.651
416.976
413.787
410.401
406.541
404.715
404.028
405.918
410.323
413.791
417.02
418.313
412.796
407.66
403.209
397.114
386.964
373.457
371.556
387.579
394.607
417.953
410.298
373.071
311.656
245.875
169.098
114.441
103.876
176.992
234.472
352.583
179.034
61.5418
12.7216
0.371653
0.311289
0.261005
0.271542
3.4383
78.3723
71.5578
15.0288
0.227491
0.25299
0.281316
0.268788
0.243541
0.232329
0.248878
39.4389
0.0749696
0.0244659
0.139886
0.324874
0.391214
0.331821
0.241221
0.259761
0.273243
9.01111
0.0353383
0.00984649
0.0940215
0.281687
0.414524
0.399467
0.22548
0.209955
0.20543
0.211089
0.0421899
0.0204616
0.0596701
0.093653
0.263481
0.214902
0.208709
0.175821
0.190989
0.146159
0.0630957
0.0440908
0.0776218
0.102427
0.119189
0.177235
0.202558
0.149506
0.19677
0.0841586
0.0917041
0.0890153
0.103173
0.11739
0.127551
0.432832
0.291082
0.134225
0.163712
0.120561
0.117308
0.120199
0.124863
0.130405
0.134445
0.829438
0.358053
0.129086
0.144947
0.143443
0.130596
0.132244
0.135087
0.136366
0.138221
0.903731
0.373904
0.128314
0.144155
0.234313
0.131892
0.135037
0.137444
0.137354
0.197886
0.952272
0.373186
0.131433
0.143243
0.469674
0.133754
0.135221
0.13687
0.1368
0.305683
0.995267
0.299128
0.132823
0.148015
1.22396
0.134411
0.135032
0.136133
0.135923
0.302643
1.03951
0.238817
0.133841
0.147994
1.45762
417.101
416.925
416.736
416.697
416.905
417.411
418.143
418.947
419.871
420.873
416.989
416.732
416.436
416.303
416.475
417.039
417.842
418.689
419.553
420.421
416.735
416.306
415.778
415.428
415.506
416.096
417.027
418.019
418.818
419.744
416.552
415.726
414.693
413.862
413.64
414.186
415.464
416.885
417.51
418.443
416.385
414.817
413.004
411.22
410.341
410.673
412.824
415.587
415.292
415.25
417.136
414.041
410.694
406.888
405.036
404.625
407.708
412.438
409.463
407.424
419.131
413.495
408.203
403.626
395.92
375.749
358.595
393.363
396.505
394.781
422.968
413.127
381.497
311.849
218.655
119.221
78.5531
214.936
390.528
393.689
375.57
203.683
63.7691
10.5791
0.37942
0.323191
0.360772
6.27162
285.285
420.898
104.579
22.0131
0.216078
0.278858
0.299429
0.254456
0.239237
0.251995
70.0288
409.98
0.0754057
0.0126939
0.119399
0.339324
0.30622
0.246601
0.272924
0.296069
19.0116
268.99
0.0438187
0.0168471
0.183106
0.369538
0.439633
0.281532
0.253787
0.239125
0.170598
161.254
0.0475723
0.0321832
0.0811008
0.111267
0.52733
1.22161
1.10594
0.309625
0.179257
47.6736
0.0609258
0.048041
0.0870898
0.110422
0.324367
1.47867
1.48471
0.536345
0.162823
2.83517
0.0897528
0.0826331
0.10251
0.11671
0.119286
1.33632
1.5641
0.545719
0.154471
0.936597
0.11823
0.116947
0.119367
0.125026
0.126073
0.263261
1.64433
0.278033
0.142098
1.905
0.132182
0.128555
0.128781
0.130318
0.131283
0.350135
0.946007
0.112027
0.132915
1.4212
0.129643
0.131049
0.133022
0.132636
0.134488
0.650352
0.168983
0.123538
0.137437
0.340918
0.132231
0.133205
0.134455
0.133584
0.18431
0.863099
0.619918
0.133018
0.143157
0.107188
0.133651
0.134128
0.135024
0.134257
0.218063
0.697992
0.885638
0.142758
0.150764
0.117254
417.077
416.914
416.757
416.763
417.034
417.652
418.55
419.388
419.947
418.318
416.968
416.723
416.461
416.383
416.652
417.401
418.413
419.291
419.805
412.338
416.716
416.311
415.817
415.555
415.816
416.693
417.898
418.872
418.914
405.579
416.548
415.739
414.753
414.062
414.127
415.04
416.615
417.965
417.349
401.696
416.402
414.882
413.134
411.491
410.957
411.71
414.338
416.838
413.98
395.317
417.273
414.269
410.957
406.942
405.57
405.55
409.895
413.982
405.433
364.458
419.544
413.87
408.626
404.524
393.275
360.297
346.529
400.26
388.641
331.902
423.674
413.634
387.818
312.156
188.081
82.9325
77.4001
315.302
387.99
326.383
387.043
214.758
60.9505
9.27322
0.424494
0.605335
1.4615
142.437
418.164
381.404
124.321
24.9786
0.299617
0.288723
0.302953
0.305722
0.286437
77.3743
462.9
467.505
0.0641174
0.0137763
0.125111
0.196743
0.238476
0.243519
0.244755
28.4993
354.253
506.122
0.0491566
0.00960372
0.10411
0.141247
0.167975
0.180459
0.210471
0.240636
169.529
557.021
0.0543656
0.0382353
0.0918818
0.1153
0.18487
0.553827
0.475409
0.226218
34.0984
452.112
0.0599962
0.0583198
0.0926274
0.109574
0.242898
1.14245
0.898255
0.370664
8.66029
64.1819
0.0889847
0.0872916
0.103842
0.116096
0.147867
0.609362
0.806973
1.89933
9.65071
0.679765
0.116714
0.110924
0.116016
0.123884
0.127029
0.116533
0.148945
5.78347
11.159
5.69792
0.127103
0.124349
0.12646
0.128648
0.130229
0.119351
0.408231
9.22004
11.6197
7.91917
0.128536
0.129711
0.131221
0.131098
0.132648
0.121976
0.70743
6.85959
6.30568
4.78135
0.131819
0.132495
0.13315
0.132649
0.135138
0.127095
0.723174
1.08557
0.17278
1.62189
0.133211
0.133666
0.134154
0.133752
0.133582
0.152627
0.43066
0.214263
0.175367
1.40264
417.121
416.962
416.815
416.837
417.122
417.751
418.635
419.479
420.388
418.666
417.011
416.771
416.521
416.462
416.747
417.501
418.486
419.319
420.004
412.816
416.758
416.361
415.881
415.642
415.929
416.822
417.989
418.857
419.133
406.165
416.587
415.789
414.825
414.178
414.301
415.26
416.769
417.908
417.56
402.225
416.439
414.936
413.232
411.679
411.276
412.202
414.758
416.715
414.078
395.391
417.302
414.343
411.109
407.266
406.119
406.644
411.203
413.982
401.746
366.157
419.567
413.974
408.818
404.671
392.919
361.94
354.073
401.169
381.444
329.258
423.692
413.766
389.788
310.063
181.04
83.8917
89.6618
337.106
385.477
326.069
386.885
216.613
62.8387
9.66269
0.443936
0.693899
1.56759
149.052
421.14
391.389
123.218
25.5541
0.294777
0.303004
0.296744
0.280927
0.216669
49.7457
419.242
458.377
0.0610363
0.000384358
0.117723
0.195102
0.231665
0.206232
0.121066
5.84306
254.134
523.609
0.0470342
0.000181794
0.0978601
0.138225
0.166777
0.157427
0.10912
0.100887
141.045
550.063
0.0566985
0.0275125
0.0872684
0.113973
0.132998
0.127313
0.10885
0.124691
132.411
586.999
0.0625564
0.05072
0.0987616
0.111542
0.12246
0.111747
0.0915692
0.114199
152.78
613.838
0.0862492
0.0874515
0.0997459
0.118028
0.124695
0.112076
0.0881549
0.11391
128.169
405.511
0.113885
0.111485
0.115643
0.125594
0.128423
0.115183
0.0986531
0.107273
32.4877
182.071
0.126096
0.124691
0.126964
0.13
0.128568
0.1137
0.0968588
0.0885076
0.0538043
69.8539
0.129422
0.130416
0.131626
0.13108
0.128286
0.111517
0.0915989
0.080587
0.0887628
22.8664
0.13208
0.132894
0.133103
0.131804
0.129215
0.112352
0.0975582
0.101346
0.122185
5.20173
0.133339
0.133674
0.13379
0.13254
0.129994
0.118128
0.11238
0.134259
1.32748
14.8167
417.23
417.068
416.912
416.921
417.194
417.794
418.664
419.702
420.853
422.674
417.114
416.873
416.612
416.534
416.78
417.445
418.411
419.51
420.792
422.017
416.857
416.45
415.961
415.674
415.837
416.542
417.65
418.947
420.445
421.784
416.663
415.865
414.882
414.135
414.019
414.675
416.079
417.846
419.595
421.222
416.48
414.948
413.211
411.552
410.805
411.237
413.362
416.325
417.835
418.92
417.205
414.182
410.954
407.324
405.589
405.29
408.234
412.989
412.637
411.795
419.181
413.612
408.352
403.647
396.271
379.789
367.722
394.093
398.746
399.573
422.776
413.236
385.291
314.008
223.538
133.331
93.9909
207.345
377.459
397.161
373.996
205.811
64.7839
11.002
0.388836
0.346976
0.361966
0.698484
190.666
412.331
103.99
22.2531
0.18109
0.269903
0.268758
0.245881
0.171473
0.181368
29.0514
306.521
0.0565857
-0.00629783
0.0927182
0.159092
0.197137
0.1972
0.165033
0.157047
3.87835
183.172
0.0473862
-0.00942032
0.0785371
0.117113
0.144546
0.149405
0.154033
0.146927
0.123495
85.0237
0.064856
0.0442262
0.0854624
0.101262
0.119215
0.125887
0.154184
0.146468
0.159061
22.3999
0.0725472
0.0676026
0.104742
0.106939
0.113351
0.116849
0.127895
0.131228
0.128866
1.96013
0.0919709
0.100407
0.112619
0.113754
0.117686
0.114211
0.109092
0.117368
0.0779737
0.0848914
0.115765
0.112691
0.119738
0.124314
0.12402
0.11506
0.107576
0.108334
0.0506684
0.585731
0.130607
0.12906
0.129985
0.131019
0.127221
0.116381
0.109368
0.0914055
0.0455994
-0.092851
0.132978
0.133196
0.133912
0.132262
0.128493
0.119414
0.112343
0.103837
0.0928508
0.0622368
0.132734
0.134078
0.134069
0.132648
0.129695
0.124097
0.118651
0.118552
0.121993
0.120681
0.133492
0.134059
0.1341
0.133262
0.131755
0.129042
0.126389
0.133202
0.13483
0.13886
417.426
417.25
417.065
417.029
417.25
417.798
418.627
419.681
420.574
422.334
417.303
417.051
416.76
416.629
416.801
417.377
418.336
419.561
420.815
422.543
417.042
416.618
416.1
415.748
415.779
416.345
417.479
419.013
420.86
423.042
416.809
416.005
415.006
414.176
413.873
414.343
415.739
417.896
420.681
423.695
416.565
415.019
413.236
411.519
410.613
410.818
412.634
416.027
420.236
424.568
417.07
413.944
410.694
407.049
405.421
404.925
406.857
411.618
417.431
423.224
418.426
412.888
407.7
402.929
397.669
390.718
381.282
377.321
385.292
389.771
417.433
411.183
376.195
317.518
260.952
196.2
140.247
114.78
151.574
194.704
349.776
180.317
62.7857
14.5909
0.401369
0.302346
0.261993
0.274804
0.921003
55.4556
70.9273
15.075
0.153842
0.23587
0.237049
0.236785
0.21198
0.186219
0.165635
16.2867
0.0427311
-0.00947908
0.0715757
0.131265
0.171098
0.189055
0.186918
0.179463
0.162242
0.392913
0.0413669
-0.00888875
0.0543238
0.0930514
0.128471
0.150056
0.156111
0.160645
0.193235
0.179217
0.0672237
0.0350732
0.0697224
0.100116
0.114084
0.130899
0.13765
0.14823
0.257604
0.152179
0.0757751
0.0703554
0.114929
0.124711
0.116591
0.125809
0.129547
0.139714
0.189525
1.12381
0.0954687
0.112716
0.140327
0.134879
0.124119
0.126835
0.126374
0.132355
0.210374
4.78718
0.116275
0.127917
0.140735
0.134978
0.13117
0.128401
0.124322
0.123674
0.47349
5.23525
0.132231
0.130335
0.136651
0.13784
0.13375
0.128518
0.12195
0.114141
0.262492
1.84285
0.133854
0.136197
0.138503
0.13673
0.133656
0.128923
0.122803
0.115703
0.120738
0.0608305
0.133814
0.136004
0.136349
0.13531
0.133939
0.130681
0.126703
0.123339
0.114991
0.174075
0.133774
0.134554
0.134822
0.134583
0.134386
0.133097
0.131805
0.131973
0.128267
0.221944
417.737
417.547
417.313
417.196
417.303
417.722
418.434
419.349
420.285
421.52
417.617
417.343
417.003
416.787
416.834
417.249
418.037
419.087
420.251
421.69
417.365
416.924
416.36
415.923
415.812
416.157
417.026
418.317
419.954
421.8
417.093
416.29
415.279
414.39
413.924
414.085
415.035
416.722
419.03
421.43
416.752
415.243
413.491
411.835
410.723
410.506
411.483
413.703
416.8
419.77
416.865
413.826
410.68
407.577
405.479
404.643
405.33
407.833
411.383
414.428
417.616
412.032
407.211
402.45
398.559
394.083
389.205
380.208
365.852
350.256
403.883
400.969
367.411
316.389
273.663
234.181
188.975
133.173
83.681
63.835
306.067
151.199
57.9973
16.4926
1.689
0.297637
0.285683
0.254342
0.419618
1.75178
37.2412
4.76641
0.142422
0.180375
0.198319
0.223148
0.223937
0.201487
0.168226
0.230852
0.0138917
-0.013038
0.0553377
0.0937237
0.136565
0.166281
0.18202
0.185851
0.179267
0.144117
0.024572
-6.53363e-05
0.0306929
0.0659545
0.103888
0.129911
0.149476
0.158394
0.167961
0.133772
0.0518364
0.0271156
0.0469933
0.0764167
0.0997768
0.117563
0.133932
0.142891
0.160091
0.134772
0.068852
0.0571192
0.0874451
0.104428
0.111579
0.119634
0.130074
0.13702
0.150859
0.15657
0.0913608
0.0858245
0.123049
0.13421
0.125665
0.126729
0.129989
0.133059
0.200396
0.6907
0.113698
0.116591
0.141488
0.143496
0.135175
0.131511
0.129424
0.127995
0.263731
1.46684
0.129045
0.134054
0.141802
0.142858
0.138036
0.132704
0.128214
0.123508
0.230794
1.61059
0.133544
0.137528
0.141463
0.1404
0.136798
0.132831
0.128626
0.123989
0.133481
0.211418
0.133953
0.136443
0.137428
0.136775
0.135413
0.133292
0.130759
0.128061
0.121867
0.115148
0.132916
0.133578
0.134046
0.134434
0.134503
0.134058
0.133431
0.133008
0.130725
0.129993
418.187
417.972
417.684
417.475
417.44
417.671
418.179
418.89
419.632
420.444
418.093
417.791
417.393
417.08
416.968
417.179
417.721
418.521
419.433
420.411
417.872
417.414
416.804
416.278
416.003
416.107
416.647
417.58
418.793
420.058
417.583
416.803
415.777
414.841
414.202
414.09
414.582
415.675
417.247
418.854
417.116
415.714
414.015
412.406
411.284
410.68
410.977
412.166
414.001
415.691
416.588
413.978
411.004
408.145
405.974
404.902
405.003
406.101
407.897
409.247
415.756
411.35
407.169
402.832
399.446
396.744
394.365
391.307
386.115
380.094
382.619
385.296
358.444
319.603
283.955
255.18
229.628
189.926
152.794
130.436
238.239
115.046
53.2246
20.7979
4.93384
0.310512
0.291429
0.285513
0.290123
0.521635
13.4636
0.19091
0.116019
0.123915
0.151675
0.201002
0.217384
0.221056
0.201521
0.20302
-0.0115126
-0.0149728
0.0138968
0.0429401
0.0967656
0.142106
0.169119
0.184374
0.185318
0.18194
0.00536326
-0.0145499
-0.0157716
0.0209518
0.0749847
0.111095
0.13688
0.152116
0.154793
0.149625
0.0422211
0.0374417
0.0278269
0.0534251
0.0812504
0.104853
0.124163
0.135535
0.137299
0.134008
0.0616245
0.114351
0.0880192
0.0829944
0.0966295
0.112231
0.124398
0.130414
0.130622
0.125828
0.086602
0.115696
0.11653
0.10833
0.11808
0.125088
0.12922
0.130581
0.130346
0.124323
0.112734
0.112753
0.124977
0.13541
0.135944
0.134229
0.132573
0.13102
0.129594
0.128324
0.128251
0.129947
0.139509
0.144875
0.14154
0.137035
0.133388
0.130587
0.127134
0.129395
0.13498
0.137737
0.141907
0.142548
0.140282
0.136908
0.133607
0.130771
0.12689
0.179443
0.133689
0.13459
0.136311
0.137908
0.137625
0.136037
0.13412
0.132139
0.129557
0.216151
0.130689
0.129561
0.131103
0.133524
0.134825
0.135093
0.134862
0.134266
0.133317
0.129663
418.77
418.525
418.18
417.88
417.71
417.755
418.043
418.531
419.077
419.629
418.738
418.402
417.946
417.537
417.281
417.283
417.584
418.118
418.746
419.381
418.583
418.102
417.447
416.84
416.423
416.31
416.571
417.157
417.945
418.755
418.336
417.572
416.555
415.582
414.849
414.476
414.677
415.305
416.273
417.301
417.779
416.494
414.907
413.375
412.206
411.679
411.48
412.054
413.183
414.346
416.743
414.59
411.941
409.368
407.382
406.16
406.043
406.684
407.941
408.991
414.373
411.066
407.704
404.151
401.351
399.567
399.319
398.992
399.528
399.986
346.127
353.897
344.035
326.544
305.56
283.798
272.267
262.936
258.218
259.043
163.457
78.901
47.8903
27.6336
13.7442
5.95245
2.74831
1.56282
1.32577
1.63834
0.919345
0.242794
0.123606
0.0777946
0.111796
0.151743
0.190165
0.218097
0.225208
0.21885
-0.0175674
-0.0436451
-0.0508795
-0.0360551
0.0509447
0.111178
0.146646
0.170529
0.181054
0.183371
-0.016274
-0.0585956
-0.0805847
-0.0465832
0.0319691
0.0888568
0.120788
0.138701
0.147417
0.147531
0.27143
0.0595547
-0.0208319
0.0251401
0.0620904
0.0908048
0.11028
0.1215
0.125697
0.12645
0.311461
0.20005
0.0746478
0.0825161
0.0919442
0.1052
0.114574
0.117382
0.117115
0.118552
0.211902
0.220694
0.143538
0.111391
0.115949
0.122426
0.124445
0.122418
0.120045
0.122233
0.135497
0.148698
0.148616
0.134862
0.135536
0.134894
0.132228
0.128637
0.12775
0.131058
0.139774
0.141879
0.14533
0.145545
0.141864
0.13913
0.135261
0.13222
0.131985
0.135135
0.141555
0.141153
0.141922
0.141209
0.139817
0.138263
0.135645
0.133655
0.132803
0.133901
0.133251
0.132162
0.133792
0.135293
0.136583
0.136844
0.135538
0.13442
0.133499
0.13409
0.123207
0.12253
0.128751
0.130799
0.133326
0.13485
0.135316
0.135339
0.135364
0.134173
419.448
419.17
418.771
418.391
418.107
418.003
418.106
418.397
418.779
419.181
419.509
419.135
418.627
418.138
417.762
417.605
417.698
418.014
418.433
418.866
419.467
418.952
418.256
417.585
417.059
416.792
416.82
417.158
417.642
418.153
419.313
418.544
417.555
416.583
415.795
415.336
415.236
415.606
416.169
416.781
418.739
417.544
416.08
414.696
413.585
412.913
412.777
412.946
413.629
414.328
417.673
415.759
413.463
411.268
409.582
408.587
408.334
408.274
409.432
410.104
413.815
411.053
408.65
406.189
404.39
403.314
403.266
404.014
405.26
406.173
305.376
305.853
317.458
327.305
327.164
320.047
315.516
318.294
325.866
333.406
87.2521
53.3593
41.6459
34.8751
28.9894
23.4137
18.9807
16.745
16.6195
17.6564
0.850939
0.421659
0.140027
0.0219414
0.0696064
0.125189
0.171503
0.217476
0.251178
0.261849
0.0315066
-0.0726227
-0.110715
-0.115655
-0.0231828
0.0714596
0.121431
0.150171
0.16558
0.179664
0.000548629
-0.124255
-0.138482
-0.120063
-0.0404481
0.0487327
0.0922526
0.112434
0.12238
0.134821
0.328574
0.0213888
-0.0283161
0.00646977
0.0392275
0.0713923
0.0894254
0.0980425
0.0998343
0.122571
0.425736
0.104398
0.104697
0.119191
0.10896
0.103769
0.102173
0.101205
0.0990539
0.11359
0.521358
0.239764
0.178379
0.152925
0.133411
0.122963
0.114933
0.113189
0.11441
0.121251
0.47918
0.309257
0.190138
0.156263
0.143716
0.135838
0.128537
0.122532
0.129657
0.128311
0.281778
0.208516
0.169695
0.154919
0.14602
0.141488
0.135581
0.130743
0.132084
0.134364
0.179065
0.146546
0.147363
0.146214
0.144306
0.142778
0.137369
0.134725
0.135552
0.135878
0.138612
0.129585
0.132903
0.137037
0.141333
0.140034
0.13692
0.135758
0.135938
0.135391
0.122315
0.11716
0.124054
0.128922
0.135171
0.135099
0.135803
0.136105
0.136731
0.136282
420.128
419.82
419.375