/*--------------------------------*- C++ -*----------------------------------*\
| =========                 |                                                 |
| \\      /  F ield         | OpenFOAM: The Open Source CFD Toolbox           |
|  \\    /   O peration     | Version:  2312                                  |
|   \\  /    A nd           | Website:  www.openfoam.com                      |
|    \\/     M anipulation  |                                                 |
\*---------------------------------------------------------------------------*/
FoamFile
{
    version     2.0;
    format      ascii;
    arch        "LSB;label=32;scalar=64";
    class       volScalarField;
    location    "1.215";
    object      alpha.water;
}
// * * * * * * * * * * * * * * * * * * * * * * * * * * * * * * * * * * * * * //

dimensions      [0 0 0 0 0 0 0];

internalField   nonuniform List<scalar> 
8000
(
1
1
1
1
1
1
1
1
1
1
1
1
1
1
1
1
1
1
1
1
1
1
1
1
1
1
1
1
1
1
1
1
1
1
1
1
1
1
1
1
1
1
1
1
1
1
1
1
1
1
1
1
1
1
1
1
1
1
1
1
1
1
1
1
1
1
1
1
1
1
0.933704
0.94046
0.942361
0.932805
0.914683
0.892343
0.858429
0.8125
0.767248
0.737935
0.389226
0.367796
0.329258
0.280735
0.220629
0.171409
0.13516
0.104923
0.0774674
0.0579424
0.00447957
0.001677
0.000677427
0.00052235
0.000517813
0.000409565
0.000285778
0.000119106
0.000140745
9.78825e-05
0.000558307
0.000218247
0.00014512
0.00029977
0.000501769
0.000452296
0.000220213
1.07146e-05
1.01891e-05
9.9326e-06
0.000259529
0.000153379
0.000120128
0.000337696
0.000561323
0.000266984
1.89471e-05
1.01887e-05
9.93468e-06
9.87982e-06
0.000203436
0.000394347
0.000123734
0.000505114
0.000505377
3.69524e-05
1.45285e-05
1.33048e-05
1.32487e-05
1.03264e-05
0.000252217
0.000437013
0.000131978
0.000497909
0.000369262
1.60138e-05
1.54441e-05
3.46037e-05
4.73872e-05
2.18974e-05
0.000335735
0.000506326
0.000137043
0.000229264
0.000113467
1.41098e-05
3.08458e-05
0.000186165
0.000181456
1.36089e-05
0.000534725
0.000531449
0.000278418
9.91351e-06
8.02755e-06
1.1144e-05
5.0612e-05
0.000205992
0.000207965
0.00013105
0.000534725
0.000534725
0.000200395
9.21202e-06
9.24258e-06
2.91227e-05
1.5146e-05
7.70109e-05
0.000202306
0.000198772
0.000522567
0.000196486
2.35607e-05
3.46465e-05
0.000134013
0.000134186
4.56994e-05
5.19549e-06
1.97909e-05
7.44224e-05
8.13593e-05
5.67245e-06
5.87288e-05
0.000134014
0.000134253
0.000134492
0.00013459
3.35792e-05
3.65442e-06
3.77544e-06
4.60687e-06
3.86084e-06
2.00975e-05
5.96224e-05
0.000134492
0.000134769
0.000135046
0.000134763
4.03004e-05
4.22368e-06
1
1
1
1
1
1
1
1
1
1
1
0.999999
0.999997
0.999999
1
1
1
1
1
1
1
0.999973
0.999972
0.999991
1
1
1
1
1
1
1
0.999976
0.999993
1
1
1
1
1
1
1
1
0.999985
1
1
1
1
1
1
1
1
1
0.999998
1
1
1
1
1
1
1
1
1
1
1
1
1
1
1
1
1
1
0.928959
0.933253
0.927333
0.905507
0.884293
0.867396
0.846071
0.81065
0.772142
0.751084
0.379328
0.353696
0.313445
0.264419
0.210885
0.164945
0.128164
0.0983282
0.0776819
0.0668838
0.00454532
0.00153897
0.000760667
0.000533811
0.000448863
0.000300018
0.000176518
0.000247809
0.000242881
0.000181454
0.000575779
0.000219089
0.000131181
0.000182659
0.000327291
0.00019328
2.13475e-05
2.34004e-05
2.81481e-05
2.5649e-05
0.000184041
0.000121665
8.50862e-05
0.000221627
0.000332438
4.75463e-05
1.63619e-05
1.07145e-05
1.01873e-05
9.93315e-06
0.000129163
0.000121298
9.04305e-05
0.000381505
0.000243643
3.10413e-05
3.83025e-05
0.000130778
8.10938e-05
1.15945e-05
0.00016182
0.000117807
0.000294952
0.000484897
0.000104519
3.21981e-05
0.000203419
0.000208998
0.000208494
0.000154309
0.000470833
0.000131434
0.000346264
0.000392112
4.70376e-05
3.57814e-05
0.000208998
0.000209339
0.000208998
0.00020838
0.000531162
0.000310742
8.00831e-05
0.000107881
6.61339e-06
1.03192e-05
0.000122171
0.000208998
0.000208379
0.000207965
0.000534725
0.000308318
1.10462e-05
7.80424e-06
1.43721e-05
2.01222e-05
7.35725e-06
0.000116098
0.000207966
0.000206128
0.000531017
8.78863e-05
1.04276e-05
2.78383e-05
0.000133947
0.000123573
3.47285e-06
3.46748e-06
2.52333e-05
0.000109429
0.000219403
4.90533e-06
4.00111e-05
0.000133086
0.000134014
0.000134172
1.84735e-05
3.34931e-06
3.52838e-06
3.43399e-06
4.90533e-06
3.82246e-06
2.00129e-05
8.68613e-05
0.000131696
7.8019e-05
2.73455e-05
1.5181e-05
9.48276e-06
1.27457e-05
1
1
1
1
1
1
1
1
1
1
1
1
1
0.999996
1
1
1
1
1
1
1
0.99994
0.99985
0.999957
1
1
1
1
1
1
1
0.999634
0.999632
0.999968
1
1
1
1
1
1
1
0.999635
0.999744
1
1
1
1
1
1
1
1
0.999974
0.999997
1
1
1
1
1
1
1
1
1
1
1
1
1
1
1
1
1
0.915398
0.91592
0.900418
0.870114
0.851758
0.842217
0.832606
0.816093
0.801272
0.791809
0.341357
0.308804
0.273578
0.220785
0.169153
0.130649
0.106643
0.0887964
0.0813914
0.079961
0.00281003
0.00127192
0.000734228
0.000522988
0.000341835
0.000247201
9.57924e-05
1.41085e-05
1.53151e-05
1.56809e-05
0.000574113
0.000192632
9.8878e-05
8.82969e-05
6.03284e-05
3.77039e-05
3.62135e-05
1.99107e-05
1.65369e-05
1.66513e-05
0.000246674
8.1304e-05
4.92553e-05
5.94805e-05
4.51232e-05
2.62967e-05
1.84532e-05
1.4516e-05
1.54712e-05
1.86808e-05
0.000372426
5.1643e-05
4.06263e-05
6.8748e-05
0.000143926
0.000104353
1.69375e-05
1.68448e-05
1.70457e-05
1.5312e-05
0.000462338
7.04508e-05
0.000145524
0.000423538
0.000414255
0.000339344
3.11604e-05
3.04393e-05
5.6349e-05
3.41408e-05
0.00053054
9.27965e-05
0.000236863
0.000406565
6.29276e-05
2.28171e-05
0.000206108
0.000209273
0.000209308
0.000208822
0.000533829
0.000431276
7.80416e-05
0.000122516
5.81317e-06
4.55078e-06
7.70941e-05
0.000206669
0.000208822
0.000206366
0.00053445
0.000533829
1.13778e-05
6.11685e-06
5.73296e-06
4.4572e-06
5.53926e-06
2.16622e-05
7.72589e-05
0.000157572
0.000533829
0.000327199
9.51063e-06
7.80424e-06
2.77124e-05
3.08091e-05
3.34043e-06
3.31891e-06
3.42715e-06
3.34802e-06
0.000313396
4.96245e-05
1.17391e-05
3.1212e-05
5.19637e-05
3.88716e-05
3.34932e-06
3.30642e-06
3.94868e-06
6.28134e-06
7.15602e-06
3.62427e-06
8.79916e-06
5.86149e-05
0.000107824
9.84265e-06
2.7966e-06
3.31514e-06
6.00841e-06
1.68577e-05
1
1
1
1
1
1
1
1
1
1
1
1
1
1
1
1
1
1
1
1
1
0.999974
0.999888
0.999953
0.999998
1
1
1
1
1
1
0.99988
0.999632
0.999892
1
1
1
1
1
1
1
0.999903
0.999697
0.999949
1
1
1
1
1
0.999997
1
0.999993
0.999996
1
1
1
1
1
1
1
1
1
1
1
1
1
1
1
1
0.999998
0.873295
0.874735
0.86057
0.846265
0.855173
0.863597
0.865576
0.861783
0.851629
0.845692
0.278716
0.23459
0.192689
0.137006
0.102197
0.0927617
0.091606
0.0964952
0.0994523
0.101371
0.00192957
0.00143555
0.000652685
0.000403734
0.000191462
8.7665e-06
4.86087e-05
1.28808e-05
1.44744e-05
1.50535e-05
0.000506864
0.00076159
9.35358e-05
6.01143e-05
3.29206e-05
1.7081e-05
3.49786e-05
1.67207e-05
1.55099e-05
1.52394e-05
0.000327831
0.000770693
4.06259e-05
3.02672e-05
2.71915e-05
1.93493e-05
1.69375e-05
1.68544e-05
1.66087e-05
4.78789e-05
0.000447943
0.0001995
3.31847e-05
2.93143e-05
2.89225e-05
3.3515e-05
1.68487e-05
1.69375e-05
1.7076e-05
1.77674e-05
0.000521707
8.05587e-05
4.06264e-05
0.000178862
0.000318687
0.000124511
0.000135486
0.000206323
0.000114066
2.42673e-05
0.000531639
0.000103681
7.05957e-05
0.000387089
0.000114453
9.06627e-06
0.00016762
0.000209273
0.000208777
0.000198653
0.00053404
0.000395269
0.000113117
0.000341792
2.99562e-05
3.853e-06
7.35758e-06
9.5459e-06
5.13242e-05
0.000136546
0.000533829
0.000534124
0.000493163
0.000293002
4.5037e-06
3.59907e-06
3.34043e-06
3.47112e-06
3.4464e-06
3.77442e-06
0.000447284
0.000456296
0.000375687
0.000179806
4.32893e-05
3.34043e-06
3.31891e-06
3.30643e-06
3.37909e-06
3.44563e-06
6.81084e-05
9.36615e-05
0.000137118
2.89485e-05
5.4555e-05
3.35528e-06
3.30839e-06
3.31413e-06
3.40225e-06
3.379e-06
7.75643e-06
5.4952e-06
3.47191e-06
2.51222e-05
2.89342e-05
1.14427e-05
3.31514e-06
3.30839e-06
2.45878e-05
3.72691e-05
1
1
1
1
1
1
1
1
1
1
1
1
1
1
1
1
1
1
1
1
1
0.999999
0.999992
0.999996
1
1
1
1
1
1
1
1
0.999984
0.999982
0.999996
1
1
1
0.999999
0.999999
1
1
1
0.999984
0.999993
1
1
1
0.999999
0.999987
1
1
1
1
1
1
1
1
1
1
1
1
1
1
1
1
1
1
0.999999
0.999998
0.815188
0.832162
0.833814
0.842286
0.860098
0.880528
0.89418
0.897668
0.895427
0.896089
0.203281
0.155278
0.107697
0.0708775
0.0636646
0.0832941
0.110671
0.12788
0.136763
0.146378
0.00104071
0.00103891
0.000453927
0.000158138
6.79259e-06
7.83085e-06
8.43876e-06
1.06122e-05
1.2881e-05
1.3318e-05
0.000305205
0.00072807
7.64246e-05
2.97823e-05
1.24647e-05
1.04611e-05
1.57633e-05
2.72118e-05
3.74534e-05
8.28081e-06
0.000231199
0.00114491
3.49474e-05
2.00117e-05
3.58172e-05
7.94606e-05
3.20833e-05
0.000148847
0.000170466
0.000102509
0.000102301
0.000448749
2.93146e-05
2.63975e-05
2.63249e-05
2.6301e-05
0.00013086
0.000182156
0.000176137
0.000170485
0.0004187
7.83679e-05
4.95613e-05
0.000159649
6.22893e-05
6.88572e-06
0.000126823
0.000188524
0.000121888
9.07588e-05
0.000513145
7.09863e-05
9.42111e-05
0.000354344
0.000126229
2.9777e-06
1.13484e-05
4.98198e-06
3.93563e-06
6.6611e-06
0.000431589
0.000100809
8.57307e-05
0.000324467
0.000230537
4.77197e-06
6.16905e-06
3.6122e-06
3.6122e-06
3.83971e-06
0.000235275
0.000141968
0.000117885
0.000199317
0.000239415
6.60271e-05
3.4768e-06
3.4758e-06
3.56432e-06
3.6122e-06
3.57871e-05
8.44799e-05
0.00017808
0.000241661
0.000242063
0.00015661
2.11215e-05
3.31891e-06
3.42792e-06
7.08633e-06
9.42191e-06
2.21073e-05
0.000113664
0.000224655
0.000239462
0.000183812
0.000125215
0.000132248
0.000114446
4.10056e-05
9.42188e-06
8.35163e-06
8.36362e-06
9.22554e-05
8.8992e-05
7.43592e-05
8.17435e-05
0.000225714
0.000235278
0.000138768
1
1
1
1
1
1
1
1
1
1
1
1
1
1
1
1
1
1
1
1
1
1
1
1
1
1
1
1
1
1
1
1
1
1
1
1
1
0.999999
0.999985
0.999994
1
1
1
1
0.999999
1
1
1
0.999981
0.999892
1
1
1
1
1
1
1
1
0.999998
0.999968
1
1
1
1
1
0.999999
0.999997
0.999995
0.999991
0.99997
0.785125
0.816952
0.821232
0.816264
0.840506
0.878025
0.904795
0.920974
0.931536
0.940248
0.154712
0.0988176
0.0545663
0.037663
0.0591008
0.101894
0.146844
0.18266
0.208134
0.232211
0.00044893
0.000566839
0.000216443
7.99644e-06
3.84937e-06
5.61159e-06
7.04837e-06
8.96091e-06
8.59148e-06
8.28081e-06
0.000111569
0.00032038
4.2672e-05
7.22696e-06
8.21524e-06
5.03936e-05
5.72383e-05
3.03391e-05
2.41034e-05
4.44196e-06
6.7439e-05
0.000356049
2.3031e-05
1.28358e-05
7.46671e-05
0.000159964
0.000165277
0.000169783
0.000166063
5.40644e-05
2.35299e-05
0.000287862
2.96992e-05
2.17366e-05
0.000107475
1.26639e-05
0.000115986
0.000175802
0.000100981
8.61149e-05
5.37319e-05
6.74079e-05
0.000118111
0.000288318
8.60656e-05
2.04351e-06
2.2944e-05
2.10566e-05
3.21945e-06
2.62346e-06
7.48513e-05
1.02081e-05
0.000118373
0.000331211
0.000207624
2.14844e-06
1.04975e-05
2.63487e-05
5.60101e-06
3.30062e-06
3.98856e-05
1.07739e-05
3.221e-05
0.00020467
0.000291541
2.3091e-05
2.05266e-05
4.44596e-05
2.31327e-05
3.85091e-06
2.25249e-05
1.57801e-05
1.76386e-05
2.46377e-05
9.54636e-05
0.00023559
0.000194958
7.98402e-05
1.83654e-05
4.79278e-06
3.26211e-05
1.76386e-05
1.24042e-05
4.06615e-05
0.000136981
0.000242193
0.000244766
0.000246209
0.000201976
3.50482e-05
4.1402e-05
2.83677e-05
1.04129e-05
5.2187e-05
0.000242193
0.000244766
0.000248169
0.000249535
0.000248754
0.000129716
3.43825e-05
2.14861e-05
1.79742e-06
3.69686e-05
0.000146779
0.000154052
0.00022249
0.000248169
0.000226625
4.73927e-05
1
1
1
1
1
1
1
1
1
1
1
1
1
1
1
1
0.999999
0.999999
1
1
1
1
1
1
1
1
1
0.999997
1
1
1
1
1
1
1
1
1
1
0.999985
0.999979
1
1
1
1
1
1
1
1
0.999974
0.999892
1
1
1
1
1
1
1
1
0.999986
0.999938
0.999999
1
1
1
0.999998
0.999994
0.999991
0.999987
0.999972
0.999934
0.778037
0.800059
0.791475
0.780792
0.821596
0.874006
0.917127
0.946427
0.965405
0.976021
0.131724
0.0693504
0.0339448
0.0293444
0.0628404
0.118409
0.18576
0.251502
0.309874
0.356206
0.000198547
0.000217478
1.14789e-05
2.74134e-06
3.08382e-06
3.85098e-06
4.44111e-06
3.50047e-06
3.32614e-06
3.97929e-06
4.60155e-05
7.72577e-05
5.9097e-06
2.25904e-06
7.78924e-06
3.6807e-05
9.48915e-06
2.90815e-06
1.53168e-06
1.93753e-06
2.23052e-05
2.55422e-05
1.32568e-05
8.44058e-06
0.00015669
0.000157237
3.90139e-05
2.45696e-05
2.0705e-05
2.58908e-05
1.54372e-05
1.79329e-05
3.98073e-05
0.000131884
0.000185326
3.2069e-06
2.70912e-05
2.4691e-05
4.96542e-06
2.41739e-05
9.49071e-06
1.40348e-05
0.000126265
0.000316
0.000183756
1.41158e-06
1.98564e-05
1.64856e-05
2.13161e-06
2.42871e-06
8.00183e-06
7.43541e-06
8.36003e-05
0.000318765
0.000311951
1.80564e-06
5.8298e-06
2.59011e-05
2.58462e-05
2.69342e-06
2.11411e-05
9.07815e-06
1.0774e-05
0.000212518
0.000299351
0.000104909
2.21116e-05
9.39641e-05
8.61967e-05
9.43074e-06
0.000102092
6.66031e-05
1.56759e-05
1.90156e-05
9.3967e-05
8.54872e-05
7.09798e-05
0.000246036
0.000194448
1.91516e-05
5.69202e-05
9.99573e-05
4.33948e-05
7.50423e-06
1.26947e-05
3.35535e-05
0.000204673
0.000249535
0.000241494
3.97309e-05
2.32445e-05
2.32548e-05
1.77322e-05
4.32233e-06
3.55138e-05
0.000107142
0.00024938
0.00024938
0.000143506
2.0273e-05
5.89992e-06
1.93146e-06
1.87144e-06
2.63512e-06
3.14088e-05
9.21312e-05
0.000138357
9.79174e-05
1.06868e-05
1.5316e-05
1
1
1
1
1
1
1
0.999999
1
1
1
1
1
1
1
1
1
0.999991
0.999993
1
1
1
1
1
1
1
0.999999
0.999991
0.999994
1
1
1
1
1
1
1
1
0.999995
0.999984
0.999997
1
1
1
1
1
1
1
0.999997
0.999974
0.99991
1
1
1
1
1
1
1
0.999997
0.999974
0.999967
0.999989
0.999997
0.999998
0.999998
0.999993
0.999986
0.999983
0.99998
0.999959
0.999948
0.747306
0.771312
0.762816
0.760638
0.814357
0.882704
0.937932
0.97273
0.990334
0.996661
0.122451
0.0622395
0.0315127
0.028894
0.0662988
0.13586
0.231928
0.340365
0.446045
0.525118
0.000240067
0.000108788
2.67245e-06
2.14324e-06
2.30541e-06
2.60398e-06
1.72064e-06
1.46809e-06
1.5319e-06
1.9379e-06
0.000182039
2.47726e-05
1.44894e-06
1.57383e-06
2.32525e-06
4.7924e-06
1.35504e-06
1.35258e-06
1.39246e-06
1.53161e-06
5.61455e-05
1.23135e-05
7.1826e-06
2.35542e-06
0.000154401
4.91435e-05
1.34704e-06
1.34374e-06
1.38938e-06
1.55908e-06
9.49075e-06
7.66981e-06
4.83954e-05
0.000285417
0.000145888
1.33211e-06
3.52112e-06
1.33701e-06
1.35836e-06
1.55883e-06
7.45033e-06
6.00269e-06
8.96934e-05
0.000307683
0.00011095
1.38028e-06
5.79093e-06
1.36118e-06
1.55168e-06
2.33242e-06
7.43541e-06
6.91344e-06
3.15386e-05
0.000316
0.000196971
4.59741e-06
3.82314e-06
3.58994e-05
2.28787e-05
2.33324e-06
0.000142875
3.05905e-05
1.4831e-05
0.000287631
0.000275263
5.1807e-05
1.2031e-05
6.61756e-05
3.96694e-05
2.89483e-06
0.000104793
0.000147031
0.000107399
7.35727e-05
9.40445e-05
2.50714e-05
9.68997e-06
5.70876e-05
4.11107e-05
6.42609e-06
1.65957e-05
0.000119017
0.000147787
6.93433e-05
6.19531e-06
2.53548e-06
2.16358e-05
5.95498e-05
2.34423e-05
3.17135e-05
1.42337e-05
1.13864e-05
6.47063e-05
3.45091e-05
3.59219e-06
1.97748e-06
3.17829e-05
2.13582e-05
1.20332e-05
7.42356e-05
4.64311e-05
2.72057e-06
2.91357e-06
2.79631e-06
2.57774e-06
3.93177e-06
1.0581e-05
6.59068e-06
1.19684e-05
8.33837e-05
1
1
1
1
1
1
1
1
0.999997
0.999971
1
1
1
1
1
1
1
0.999994
0.999987
0.999969
1
1
1
1
1
1
1
0.999995
0.99999
0.999912
1
1
1
1
1
1
1
0.999996
0.999981
0.999881
1
1
1
1
1
1
1
0.999956
0.999794
0.999664
0.999999
1
1
1
1
1
0.999999
0.999971
0.999808
0.999627
0.999972
0.999989
0.999992
0.99999
0.999981
0.999976
0.999978
0.999954
0.999825
0.999648
0.714834
0.742181
0.741326
0.751086
0.817142
0.89707
0.95787
0.989993
0.998998
0.999199
0.12157
0.0671155
0.0328952
0.0284872
0.0733315
0.159827
0.287799
0.443649
0.605445
0.724483
6.28945e-05
7.37728e-05
1.9708e-06
1.58722e-06
1.70678e-06
1.64413e-06
1.35503e-06
1.35254e-06
1.39234e-06
0.0229931
7.40983e-05
1.55323e-05
1.42053e-06
1.44614e-06
1.54597e-06
1.35502e-06
1.33488e-06
1.3416e-06
1.35256e-06
1.39244e-06
8.62733e-05
7.54531e-06
4.52668e-06
1.58749e-06
0.000149583
1.47882e-06
1.33281e-06
1.33704e-06
1.34375e-06
1.38953e-06
2.54643e-05
6.00269e-06
4.24944e-05
0.000264223
6.58222e-05
1.33166e-06
1.33211e-06
1.3322e-06
1.33703e-06
1.40294e-06
5.74535e-06
5.65272e-06
4.27118e-05
0.000297138
1.00281e-05
1.33208e-06
1.3322e-06
1.33181e-06
1.36589e-06
2.10497e-06
4.67031e-05
6.00269e-06
1.24733e-05
0.000307683
4.95474e-05
1.3928e-06
1.33722e-06
1.59155e-06
1.36306e-06
1.44219e-06
0.000150687
0.000137537
3.89001e-05
0.00023334
7.27233e-05
1.5528e-06
1.89105e-06
2.61647e-06
1.41855e-06
3.48074e-06
4.31543e-05
0.000146497
0.000147787
0.00011642
3.89578e-05
1.56488e-06
1.36949e-06
1.41272e-06
1.76248e-06
3.45191e-05
5.16054e-05
8.35382e-05
0.000147787
0.000103954
1.0659e-05
1.48317e-06
1.41171e-06
2.22153e-06
1.40811e-05
0.000111763
7.1713e-05
7.43845e-06
9.91348e-05
4.06873e-05
1.94018e-06
1.62405e-06
1.84689e-06
2.49829e-06
5.08986e-05
0.000149207
0.000126045
7.25458e-06
5.61408e-06
2.57774e-06
2.29053e-06
1.95509e-06
2.33719e-06
9.18387e-06
0.000137499
0.000153786
1
1
1
1
1
1
1
1
1
0.994129
1
1
1
1
1
1
1
1
1
0.994141
1
1
1
1
1
1
1
1
1
0.994149
1
1
1
1
1
1
1
1
1
0.996181
1
1
1
1
1
1
0.999999
1
0.999978
0.9954
0.999999
1
1
1
1
1
0.999999
0.999999
0.999896
0.997102
0.99995
0.999973
0.999979
0.999975
0.999965
0.999962
0.999971
0.999978
0.99989
0.999164
0.694019
0.717594
0.729855
0.75324
0.823644
0.904894
0.965396
0.994121
0.999347
0.998774
0.111193
0.0700066
0.0359446
0.0346859
0.0841026
0.178004
0.318288
0.490847
0.692044
0.821296
2.35252e-05
8.00514e-05
3.67618e-06
1.44596e-06
1.70589e-06
1.3579e-06
1.33579e-06
1.34277e-06
0.015396
0.0922493
8.94097e-06
1.0662e-05
1.39854e-06
1.38837e-06
1.3576e-06
1.33416e-06
1.33475e-06
1.3358e-06
1.34278e-06
1.39439e-06
3.66901e-05
6.5039e-06
5.54976e-06
1.3417e-05
5.49402e-05
1.3321e-06
1.33314e-06
1.33316e-06
1.34161e-06
1.41699e-06
1.77424e-05
5.64073e-06
1.75936e-05
9.44788e-05
7.66849e-06
1.33211e-06
1.33142e-06
1.33154e-06
1.34647e-06
1.74655e-06
5.13081e-06
5.47802e-06
5.68975e-06
0.000212741
2.32799e-06
1.33145e-06
1.33156e-06
1.33185e-06
1.33185e-06
1.49122e-06
0.000135347
8.49286e-05
8.73968e-06
0.00015389
1.08637e-05
1.33328e-06
1.33258e-06
1.33181e-06
1.33247e-06
1.02298e-05
0.000150686
0.000150686
0.00011147
4.12078e-05
2.65874e-06
1.34006e-06
1.33662e-06
1.33258e-06
1.33932e-06
6.135e-05
3.75199e-05
0.00010943
0.000145141
5.88153e-05
1.71609e-06
1.34582e-06
1.33727e-06
1.34025e-06
3.31762e-05
7.93323e-05
7.95417e-05
6.90913e-06
0.000147787
5.569e-05
1.91333e-06
1.35128e-06
1.3695e-06
1.38411e-06
9.06322e-05
7.81802e-05
0.000105772
7.20238e-06
3.37596e-05
1.42911e-05
1.62405e-06
1.48318e-06
1.41172e-06
4.20443e-05
0.000155899
3.99747e-05
0.000123217
7.62709e-05
6.02881e-06
3.56404e-06
1.90842e-06
6.3792e-06
2.4843e-05
0.000159982
0.000161147
5.15227e-05
1
1
1
1
1
1
1
1
1
0.9941
1
1
1
1
1
1
1
1
1
0.99539
1
1
1
1
1
1
1
0.999998
1
0.998152
1
1
1
1
0.999999
0.999999
1
0.999998
1
0.998421
1
1
1
1
0.999985
0.99999
1
0.999999
1
0.99671
0.999999
1
1
1
0.999985
0.999989
0.999999
0.999999
0.999999
0.997844
0.999949
0.99997
0.999973
0.999966
0.99994
0.999939
0.999958
0.999967
0.999975
0.999188
0.711955
0.729421
0.746936
0.773665
0.833019
0.903886
0.961492
0.993701
0.999344
0.998763
0.111357
0.0776277
0.048468
0.0507096
0.0952829
0.179198
0.310567
0.496441
0.729154
0.860093
8.94121e-06
6.08894e-05
4.46178e-06
1.40024e-06
1.39674e-06
1.34101e-06
1.33922e-06
1.35209e-06
0.0352161
0.131677
5.44512e-06
6.70571e-06
1.39625e-06
1.37209e-06
1.34106e-06
1.33925e-06
1.3358e-06
1.33924e-06
1.3517e-06
1.39572e-06
4.8616e-06
5.85212e-06
4.10582e-06
6.98952e-06
1.34024e-06
1.33458e-06
1.33475e-06
1.34029e-06
1.38856e-06
1.45812e-06
4.78034e-06
6.03204e-06
4.06565e-06
1.88027e-06
1.33623e-06
1.33173e-06
1.33457e-06
1.33182e-06
1.37049e-06
1.42591e-06
5.07768e-06
8.94703e-06
4.12816e-06
5.69275e-06
1.72184e-06
1.33334e-06
1.33191e-06
1.33173e-06
1.33185e-06
1.5667e-06
0.00019246
0.000181879
1.35352e-05
2.33534e-06
1.53623e-06
1.33711e-06
1.33546e-06
1.33191e-06
1.33509e-06
3.59928e-05
0.000106434
9.53383e-05
8.13407e-05
7.22712e-06
1.34194e-06
1.33784e-06
1.33678e-06
1.33546e-06
1.00207e-05
7.58108e-05
4.04861e-05
2.77187e-06
9.94314e-05
1.58538e-05
1.34583e-06
1.3371e-06
1.33827e-06
1.33778e-06
6.89736e-05
7.91994e-05
8.5119e-05
1.55073e-06
3.86283e-05
7.17087e-06
1.35128e-06
1.34172e-06
1.33827e-06
2.20661e-05
8.84688e-05
1.36333e-05
0.000103442
2.06985e-05
1.88197e-06
1.68692e-06
1.49758e-06
1.72609e-06
3.63625e-05
9.22795e-05
4.50929e-05
6.68343e-06
2.41732e-05
4.33485e-05
3.02643e-05
4.30583e-05
4.35466e-05
6.16508e-05
0.000152211
9.0224e-05
1.20309e-05
7.62399e-06
1
1
1
1
1
1
1
1
1
0.999999
1
1
1
1
1
1
1
0.999995
0.999991
1
1
1
1
1
1
1
1
0.999986
0.999985
1
1
1
1
1
0.999997
0.999998
1
0.999989
0.999986
0.999997
1
1
1
0.999999
0.999981
0.999982
0.999992
0.999999
0.999999
0.999994
0.999999
1
1
0.999999
0.999981
0.999981
0.999991
0.999997
0.999998
0.99999
0.999962
0.999981
0.999988
0.999981
0.999946
0.999931
0.999937
0.99995
0.99996
0.999965
0.748798
0.767932
0.783481
0.805643
0.849258
0.904645
0.954941
0.990176
0.999091
0.999385
0.110018
0.082528
0.0670004
0.0728978
0.110171
0.180177
0.291913
0.464887
0.695423
0.828132
5.44513e-06
2.12811e-05
3.49141e-06
1.89757e-06
1.3672e-06
1.34151e-06
1.35572e-06
1.39948e-06
0.0180833
0.10482
4.86159e-06
4.12452e-06
1.89702e-06
1.36727e-06
1.34159e-06
1.34066e-06
1.33925e-06
1.35216e-06
1.3955e-06
1.45335e-06
4.68211e-06
4.74423e-06
3.74743e-06
1.84624e-06
1.36232e-06
1.34016e-06
1.34832e-06
1.41286e-06
1.41651e-06
1.4927e-06
4.81729e-06
1.40421e-05
2.85499e-05
3.27652e-06
1.36085e-06
1.33454e-06
1.35954e-06
6.71293e-06
1.3647e-06
1.41623e-06
0.00016175
0.000160568
7.27644e-05
1.76493e-06
1.36507e-06
1.33698e-06
1.33354e-06
1.33191e-06
1.33356e-06
1.36453e-06
0.000194621
7.60395e-05
7.60062e-05
1.23656e-05
1.36942e-06
1.33891e-06
1.77359e-06
1.33358e-06
1.34022e-06
1.46738e-05
5.44809e-05
1.9025e-06
1.40401e-05
2.05774e-05
2.95516e-06
1.34197e-06
1.33827e-06
1.3403e-06
2.75011e-06
4.08684e-05
6.40791e-05
1.50536e-06
2.11576e-06
5.35948e-06
1.56921e-06
1.33854e-06
1.33677e-06
1.33852e-06
4.24976e-05
4.2117e-05
8.47791e-05
1.48866e-06
1.51121e-06
1.37807e-06
1.34674e-06
1.34571e-06
1.58657e-06
2.12315e-05
6.63751e-05
6.84789e-06
0.00010157
1.70668e-05
1.67375e-06
1.8045e-06
7.95629e-06
4.54389e-05
4.77855e-05
4.4456e-05
5.94762e-06
6.35294e-06
2.11829e-05
6.10986e-05
7.65413e-05
7.74647e-05
6.11504e-05
2.50557e-05
4.9893e-06
5.30773e-06
6.91963e-06
6.68343e-06
1
1
1
1
1
1
1
1
1
1
1
1
1
1
1
1
1
0.99999
0.999989
0.999999
1
1
1
1
1
1
0.999999
0.999985
0.999985
0.999996
1
1
1
1
0.999999
1
0.999999
0.999995
0.999992
0.999997
1
1
1
1
0.999996
0.999998
0.999999
0.999998
0.999998
0.999998
1
1
1
1
0.999996
0.999998
0.999998
0.999996
0.999996
0.999997
0.999978
0.99999
0.999996
0.999994
0.999977
0.99996
0.999943
0.999932
0.999939
0.999957
0.780081
0.799951
0.814798
0.834042
0.865752
0.904247
0.940064
0.97472
0.996324
0.999042
0.108814
0.0833246
0.074725
0.0889378
0.126027
0.178993
0.24953
0.367814
0.546772
0.700768
7.28544e-06
6.86017e-06
4.75584e-06
3.53099e-06
3.1306e-06
2.08672e-06
1.44933e-06
1.5301e-06
1.5025e-06
0.0145192
6.48212e-06
2.8015e-05
7.82483e-05
6.41522e-05
1.22411e-05
1.34159e-06
1.35576e-06
1.39959e-06
1.45337e-06
1.50262e-06
4.73894e-06
4.95438e-05
0.000181541
0.000198808
0.000128192
4.63849e-06
1.44533e-06
3.88419e-06
1.47716e-06
1.60853e-06
0.000145303
0.000100094
0.000228489
0.000219981
0.000103264
1.36022e-06
1.2848e-05
1.10502e-05
1.38463e-06
1.48459e-06
0.000216004
8.05416e-05
0.000222412
0.000168487
3.19557e-05
1.36379e-06
1.92924e-05
1.33357e-06
1.3424e-06
1.3846e-06
0.000172669
4.50857e-06
6.95206e-05
5.40252e-05
7.37697e-06
1.3693e-06
1.11136e-05
1.3403e-06
1.34818e-06
1.44575e-06
2.02457e-05
1.50536e-06
1.72404e-06
2.44015e-06
1.47758e-06
1.36825e-06
1.35971e-06
1.34827e-06
3.01633e-06
1.52962e-06
3.66085e-05
1.48852e-06
1.50536e-06
1.48301e-06
1.38034e-06
1.3483e-06
1.33854e-06
1.62708e-05
1.14092e-05
1.66508e-06
8.65696e-05
1.50097e-06
1.48029e-06
1.44077e-06
1.4866e-06
1.35794e-06
1.06245e-05
2.78734e-05
1.62621e-05
2.71749e-06
9.97801e-05
2.30841e-05
1.59843e-06
2.57584e-05
4.44668e-05
4.50669e-05
3.23866e-05
4.58226e-06
5.24507e-06
8.30345e-06
9.21218e-05
1.32595e-05
4.70309e-06
7.95632e-06
3.8012e-06
4.05589e-06
4.23727e-06
4.31428e-06
8.77242e-06
5.22471e-05
1
1
1
1
1
1
1
1
1
1
1
1
1
1
1
1
1
1
1
1
1
1
1
1
1
1
1
0.999999
0.999998
0.999999
1
1
1
1
1
1
1
0.999999
0.999996
0.999999
1
1
1
1
1
1
1
0.999999
0.999998
0.999999
1
1
1
1
1
1
0.999999
0.999998
0.999996
0.999998
0.999995
0.999998
1
0.999999
0.999992
0.999981
0.999963
0.99994
0.999934
0.99995
0.799044
0.812557
0.827464
0.849499
0.8767
0.902694
0.919811
0.941
0.967997
0.98644
0.100071
0.0820635
0.0766816
0.0932681
0.132369
0.176196
0.211537
0.2579
0.343803
0.438772
8.79621e-06
8.53622e-06
6.68277e-06
4.76354e-06
4.27298e-06
3.16444e-06
2.17061e-06
1.77947e-06
1.64891e-06
2.245e-06
0.000128711
0.000190264
0.000213762
0.000119928
6.38712e-06
2.07754e-06
1.44936e-06
1.53017e-06
1.50264e-06
1.6491e-06
0.000264649
0.000281798
0.000279211
0.00019986
4.90844e-05
3.49018e-06
5.93366e-05
8.68475e-06
1.60854e-06
4.0489e-06
0.000274768
0.00027824
0.000265865
0.000194876
3.73119e-05
1.80582e-05
0.000218105
1.53206e-06
1.88984e-06
1.11734e-05
0.000182926
8.18462e-05
0.000189952
0.000179467
1.48486e-05
0.000110762
0.000155915
1.34238e-06
1.43524e-06
1.48397e-06
8.88913e-05
8.35457e-06
4.04645e-05
4.11915e-05
6.55031e-06
0.000100963
1.58374e-05
1.3482e-06
1.36128e-06
1.41011e-06
8.28231e-05
1.72409e-06
1.76385e-06
1.7444e-06
6.11744e-06
2.09419e-05
1.52261e-06
1.36133e-06
1.41002e-06
1.56974e-06
2.90676e-05
1.50536e-06
1.51917e-06
1.51917e-06
2.23789e-06
1.38033e-06
1.35999e-06
9.09498e-06
4.90125e-06
1.69737e-06
3.33282e-05
3.45132e-06
1.50057e-06
1.49889e-06
4.27068e-06
1.36419e-06
1.77405e-05
2.78734e-05
2.42755e-05
9.80566e-06
6.70313e-05
1.01009e-05
1.13023e-05
4.41181e-05
4.44489e-05
3.9085e-05
4.23626e-06
4.37868e-06
3.29723e-05
4.30734e-05
7.03351e-05
3.63733e-06
3.46854e-06
4.35107e-06
4.5866e-06
4.23727e-06
4.23363e-06
4.24499e-06
2.53163e-05
5.12259e-05
1
1
1
1
1
1
1
1
1
1
1
1
1
1
1
1
1
1
1
1
1
1
1
1
1
1
1
0.999999
1
1
1
1
1
1
1
1
1
0.999995
0.999982
0.999998
1
1
1
1
1
1
1
1
0.999884
0.999899
0.999999
1
1
1
1
1
1
0.999999
0.999949
0.999809
1
1
1
0.999996
0.999999
0.999993
0.999984
0.999968
0.999908
0.999819
0.803822
0.816453
0.828347
0.846675
0.8733
0.895478
0.903868
0.906653
0.917635
0.940804
0.103188
0.0913529
0.0835267
0.0928668
0.126634
0.160636
0.178995
0.189142
0.216157
0.265034
8.95765e-06
9.85086e-05
2.67562e-05
5.75315e-06
3.37608e-06
3.09692e-06
2.47009e-06
1.95857e-06
2.19022e-06
5.22815e-06
0.000313407
0.000161823
2.02805e-05
2.01856e-05
4.26021e-06
3.36799e-06
1.90944e-05
1.88034e-06
1.64912e-06
2.1903e-06
0.000311563
0.000191559
1.4373e-05
6.66595e-06
5.28859e-06
0.000130964
0.00022497
6.1928e-06
2.14965e-06
4.78858e-05
0.00015542
0.000186476
1.30479e-05
7.30004e-06
3.11886e-05
0.000224871
0.000224871
2.14736e-06
2.13092e-06
7.35015e-05
0.000155442
0.000219587
1.63439e-05
0.00019445
0.000221201
0.000223699
0.000177643
1.3786e-06
4.0396e-06
1.24506e-05
0.000155569
0.000195522
8.26088e-05
0.000196835
0.000202227
0.000222429
2.71072e-05
1.42796e-06
1.68158e-06
1.5696e-06
0.000168701
9.00516e-05
8.8536e-05
3.0625e-05
2.88547e-05
9.34725e-05
1.53252e-06
1.4203e-06
1.45614e-06
1.48943e-06
8.58709e-05
4.93397e-06
2.66648e-05
1.66432e-06
2.28888e-06
1.57771e-06
1.45894e-06
1.54895e-06
2.61561e-06
1.73281e-06
3.14777e-05
2.23458e-06
1.51917e-06
1.51343e-06
6.73822e-06
3.17668e-06
1.70967e-05
2.78225e-05
2.25255e-05
1.47362e-05
4.06991e-05
3.38966e-05
4.34368e-05
4.39917e-05
4.41985e-05
3.90442e-05
4.23474e-06
4.24451e-06
1.91905e-05
4.2291e-05
6.29588e-05
3.29216e-05
1.85585e-05
1.2794e-05
1.17778e-05
4.34235e-06
4.24451e-06
4.25318e-06
4.56775e-06
3.20162e-05
1
1
1
1
1
1
1
1
1
1
1
1
1
1
1
1
1
1
1
1
1
0.999998
0.999996
0.999999
1
1
1
0.999999
1
0.999998
1
1
0.999998
0.999999
1
1
1
0.999994
0.999971
0.999992
1
1
1
1
1
1
1
1
0.999757
0.999215
1
1
1
1
1
1
1
1
0.999948
0.99921
1
1
1
1
1
0.999999
0.999995
0.99999
0.99995
0.9999
0.808247
0.814243
0.821912
0.82967
0.84214
0.861574
0.864787
0.858102
0.856219
0.884015
0.125796
0.117919
0.107016
0.104315
0.113491
0.125848
0.129303
0.129184
0.135573
0.159184
0.000390194
0.000402413
0.000220381
1.37717e-05
3.09267e-06
2.95805e-06
2.49454e-06
1.94478e-06
2.49508e-06
6.24655e-06
0.000297448
0.000110136
3.34522e-05
1.00672e-05
1.99164e-05
3.84096e-06
4.01231e-06
1.94035e-06
1.85745e-06
7.76598e-06
0.000317844
7.42437e-05
1.0073e-05
7.41028e-06
4.82066e-05
9.65292e-05
5.91024e-05
5.19508e-06
2.49492e-06
0.000112733
0.000277087
0.000114339
1.64101e-05
1.5966e-05
0.000146519
0.000112221
4.62334e-05
2.74461e-06
2.62222e-06
0.000102979
0.00028956
0.000221479
1.97428e-05
0.000123832
0.000216013
0.000102973
2.60882e-05
2.26583e-06
2.34988e-06
4.48985e-05
0.000274213
0.000278554
8.62416e-05
0.000184066
0.000149179
6.99171e-05
1.94738e-05
2.7765e-06
3.34021e-06
2.07121e-05
0.000228682
0.000287268
0.000275682
3.79626e-05
1.19315e-05
1.68733e-05
4.12479e-06
1.7845e-06
1.5056e-06
1.90292e-06
0.000148513
0.00013649
0.000118473
2.04365e-06
2.29829e-06
1.86045e-06
1.60403e-06
1.57501e-06
1.59248e-06
1.65268e-06
0.000115963
2.587e-06
1.89849e-06
1.66433e-06
2.02213e-06
1.92673e-06
1.83291e-06
1.71898e-06
6.8838e-06
6.8867e-06
0.000163429
5.70073e-06
6.40021e-06
2.02149e-05
3.75706e-05
2.36946e-05
2.48721e-05
2.87115e-05
3.14864e-05
3.15057e-05
0.000154117
6.37096e-05
3.24139e-05
4.62742e-05
4.96496e-05
4.86665e-05
3.78483e-05
6.1721e-06
5.85973e-06
1.35268e-05
1
1
1
1
1
1
1
1
1
1
1
1
0.999999
0.999999
1
1
1
1
1
1
1
0.999986
0.999943
0.999973
0.999999
1
1
1
0.999999
0.999994
1
0.999959
0.999911
0.999962
1
1
1
0.999999
0.999978
0.999983
1
0.999995
1
1
1
1
1
1
0.999928
0.999727
1
1
1
1
1
1
1
1
0.999985
0.999571
1
1
1
1
1
1
1
1
0.999992
0.999987
0.855787
0.845032
0.831094
0.81238
0.798084
0.791448
0.792139
0.786885
0.788134
0.82711
0.189223
0.177783
0.148829
0.125394
0.110823
0.0950994
0.0852158
0.0828112
0.08613
0.0946713
0.00146306
0.00129318
0.000664595
0.000149693
3.08508e-06
2.98556e-06
2.88316e-06
2.42901e-06
2.89766e-06
3.64297e-06
0.000378636
0.00023247
0.000101473
1.80486e-05
3.28543e-06
3.11042e-06
4.68917e-06
1.26648e-05
2.52263e-06
1.60887e-05
0.000304591
0.00011224
2.26416e-05
9.42398e-06
1.80704e-05
4.82032e-06
2.21988e-06
1.04824e-05
3.09217e-06
9.12153e-05
0.000394238
0.000209026
4.18688e-05
4.01161e-06
5.58721e-06
1.97989e-06
1.98138e-06
2.09664e-06
2.45049e-06