/*--------------------------------*- C++ -*----------------------------------*\
| =========                 |                                                 |
| \\      /  F ield         | OpenFOAM: The Open Source CFD Toolbox           |
|  \\    /   O peration     | Version:  2312                                  |
|   \\  /    A nd           | Website:  www.openfoam.com                      |
|    \\/     M anipulation  |                                                 |
\*---------------------------------------------------------------------------*/
FoamFile
{
    version     2.0;
    format      ascii;
    arch        "LSB;label=32;scalar=64";
    class       surfaceScalarField;
    location    "0.09";
    object      alphaPhi0.water;
}
// * * * * * * * * * * * * * * * * * * * * * * * * * * * * * * * * * * * * * //

dimensions      [0 3 -1 0 0 0 0];

oriented        oriented;

internalField   nonuniform List<scalar> 
22600
(
3.11145e-12
2.08424e-13
-2.61407e-12
5.0962e-12
7.32791e-13
-2.64703e-12
6.73526e-12
1.05226e-12
-2.62458e-12
7.74926e-12
1.61092e-12
-2.55701e-12
8.0493e-12
2.26596e-12
-2.49478e-12
7.6025e-12
2.94732e-12
-2.4278e-12
6.44696e-12
3.59927e-12
-2.37147e-12
4.69306e-12
4.14781e-12
-2.32372e-12
2.51599e-12
4.53438e-12
-2.2934e-12
4.80936e-12
-2.24182e-12
3.13114e-12
4.09043e-13
-2.7417e-12
5.31882e-12
1.50149e-12
-2.84977e-12
7.06144e-12
2.23817e-12
-2.81504e-12
8.16186e-12
3.37006e-12
-2.73852e-12
8.49747e-12
4.73308e-12
-2.67731e-12
8.02998e-12
6.14951e-12
-2.60902e-12
6.81346e-12
7.48528e-12
-2.54717e-12
4.95591e-12
8.6116e-12
-2.49312e-12
2.62505e-12
9.41662e-12
-2.45467e-12
9.91368e-12
-2.41561e-12
3.51322e-12
5.85056e-13
-3.2733e-12
6.1273e-12
2.37005e-12
-3.41482e-12
8.21043e-12
3.5978e-12
-3.35964e-12
9.50382e-12
5.42223e-12
-3.25229e-12
9.89061e-12
7.60577e-12
-3.16027e-12
9.34263e-12
9.85676e-12
-3.05802e-12
7.9098e-12
1.19896e-11
-2.97208e-12
5.72628e-12
1.37794e-11
-2.89107e-12
2.99501e-12
1.50678e-11
-2.83502e-12
1.57856e-11
-2.8094e-12
4.19389e-12
1.03433e-12
-4.26508e-12
7.48622e-12
3.49721e-12
-4.36796e-12
1.00133e-11
5.43486e-12
-4.29641e-12
1.16292e-11
7.99984e-12
-4.1169e-12
1.21143e-11
1.11808e-11
-3.97913e-12
1.1441e-11
1.44385e-11
-3.82643e-12
9.67891e-12
1.75302e-11
-3.6955e-12
6.98335e-12
2.01441e-11
-3.58177e-12
3.63019e-12
2.20262e-11
-3.5099e-12
2.29705e-11
-3.4669e-12
5.14775e-12
1.97488e-12
-5.78967e-12
9.40924e-12
5.0648e-12
-5.77626e-12
1.2709e-11
7.86105e-12
-5.66379e-12
1.47965e-11
1.1386e-11
-5.41001e-12
1.5403e-11
1.58299e-11
-5.19314e-12
1.45401e-11
2.03434e-11
-4.97878e-12
1.22972e-11
2.46325e-11
-4.78696e-12
8.88358e-12
2.82765e-11
-4.62872e-12
4.618e-12
3.09184e-11
-4.51973e-12
3.2157e-11
-4.47253e-12
6.46277e-12
3.60724e-12
-7.94431e-12
1.23482e-11
6.94352e-12
-7.69957e-12
1.62624e-11
1.15017e-11
-7.49472e-12
1.90213e-11
1.58862e-11
-7.20771e-12
1.9782e-11
2.20359e-11
-6.92047e-12
1.87111e-11
2.80994e-11
-6.63478e-12
1.58654e-11
3.39089e-11
-6.36573e-12
1.15049e-11
3.88692e-11
-6.15011e-12
6.04995e-12
4.24647e-11
-5.9991e-12
4.42131e-11
-5.92854e-12
8.35026e-12
4.97829e-12
-1.05567e-11
1.61566e-11
9.63748e-12
-1.04396e-11
2.12322e-11
1.65256e-11
-1.00536e-11
2.49397e-11
2.18968e-11
-9.68281e-12
2.59328e-11
3.03643e-11
-9.28888e-12
2.45502e-11
3.84098e-11
-8.88968e-12
2.081e-11
4.6217e-11
-8.52309e-12
1.50991e-11
5.284e-11
-8.21344e-12
8.01724e-12
5.75989e-11
-8.00375e-12
6.01659e-11
-7.89426e-12
1.2896e-11
9.32116e-12
-1.64304e-11
2.22991e-11
1.21142e-11
-1.58436e-11
3.25116e-11
1.64769e-11
-1.5609e-11
3.76832e-11
3.16884e-11
-1.49632e-11
3.90094e-11
4.33526e-11
-1.43146e-11
3.68742e-11
5.41725e-11
-1.36274e-11
3.12765e-11
6.47971e-11
-1.29824e-11
2.26976e-11
7.38338e-11
-1.24247e-11
1.19005e-11
8.03909e-11
-1.20123e-11
8.38227e-11
-1.17716e-11
4.85853e-15
1.99873e-19
-3.37802e-15
9.68528e-15
3.63175e-19
-5.19227e-15
3.05117e-14
1.47878e-18
-1.18303e-14
4.75133e-14
2.30471e-18
-1.55346e-14
6.76381e-14
3.8707e-18
-2.09568e-14
8.07573e-14
3.86053e-18
-2.60886e-14
8.15856e-14
2.03965e-18
-3.05122e-14
6.68668e-14
-1.79793e-18
-3.40407e-14
3.75372e-14
-6.44224e-18
-3.63425e-14
-9.56105e-18
-3.72541e-14
2.73578e-19
2.48399e-23
-1.23206e-19
8.0808e-19
6.21166e-23
-2.77207e-19
2.89811e-18
2.88049e-22
-9.26106e-19
6.12164e-18
7.45236e-22
-1.72011e-18
1.13317e-17
1.7934e-21
-3.16943e-18
1.6651e-17
3.16385e-21
-4.9949e-18
1.97644e-17
4.5626e-21
-6.99688e-18
1.81945e-17
5.45377e-21
-8.88264e-18
1.09828e-17
5.59977e-21
-1.03089e-17
5.26815e-21
-1.09263e-17
1.84614e-23
6.65295e-27
-5.81983e-24
7.24053e-23
2.30138e-26
-1.81238e-23
3.45125e-22
1.35664e-25
-9.03223e-23
9.77673e-22
4.87517e-25
-2.39931e-22
2.32011e-21
1.54435e-24
-5.89651e-22
4.16274e-21
3.57925e-24
-1.16172e-21
5.75469e-21
6.60034e-24
-1.92586e-21
5.9006e-21
9.93441e-24
-2.7566e-21
3.79469e-21
1.2583e-23
-3.45568e-21
1.36749e-23
-3.77705e-21
3.59987e-27
3.83582e-30
-8.97794e-28
1.97179e-26
1.20969e-29
-3.77728e-27
1.25448e-25
8.91519e-29
-2.74091e-26
4.66891e-25
4.24187e-28
-1.00207e-25
1.4016e-24
1.70352e-27
-3.18507e-25
3.02537e-24
4.86833e-27
-7.67116e-25
4.79022e-24
1.25166e-26
-1.48072e-24
5.36508e-24
2.61618e-26
-2.36346e-24
3.58458e-24
4.22955e-26
-3.17792e-24
5.18215e-26
-3.56918e-24
1.30915e-30
2.09246e-33
-2.31776e-31
8.89699e-30
9.27825e-33
-1.27114e-30
7.24386e-29
8.40662e-32
-1.33306e-29
3.51747e-28
5.12942e-31
-6.77808e-29
1.33577e-27
2.56619e-30
-2.82206e-28
3.49923e-27
8.89373e-30
-8.38043e-28
6.4237e-27
2.60742e-29
-1.89197e-27
7.97735e-27
6.057e-29
-3.37542e-27
5.64404e-27
1.04986e-28
-4.87163e-27
1.322e-28
-5.62319e-27
7.47281e-34
8.63625e-36
-9.73293e-35
6.10566e-33
1.59161e-35
-6.68842e-34
6.20278e-32
1.14111e-34
-9.72175e-33
3.84794e-31
8.57265e-34
-6.72432e-32
1.82332e-30
5.23574e-33
-3.61772e-31
5.74526e-30
2.16328e-32
-1.31187e-30
1.2159e-29
7.13353e-32
-3.43862e-30
1.6691e-29
1.82573e-31
-6.81771e-30
1.24935e-29
3.37327e-31
-1.05222e-29
4.35229e-31
-1.2459e-29
8.06451e-37
3.11359e-36
-6.77429e-38
6.2396e-36
3.42387e-36
-6.32253e-37
7.68046e-35
2.36831e-36
-1.04202e-35
5.94631e-34
3.90399e-36
-9.51332e-35
3.45743e-33
1.44255e-35
-6.4999e-34
1.29554e-32
6.9684e-35
-2.84372e-33
3.13805e-32
2.56622e-34
-8.57747e-33
4.7411e-32
7.17987e-34
-1.87783e-32
3.74608e-32
1.40723e-33
-3.08656e-32
1.85577e-33
-3.74023e-32
2.69661e-39
7.55989e-39
-1.72267e-36
1.41648e-38
1.74809e-38
-3.48698e-38
1.76851e-37
2.10207e-37
-1.93063e-38
1.27417e-36
1.05569e-36
-2.4472e-37
8.93639e-36
1.64724e-37
-1.60247e-36
3.92778e-35
3.56601e-37
-8.35224e-36
1.07895e-34
1.20758e-36
-2.86868e-35
1.78386e-34
3.66018e-36
-6.88321e-35
1.48348e-34
7.56632e-36
-1.19905e-34
1.01688e-35
-1.48289e-34
5.87914e-37
3.09638e-36
-7.09265e-36
1.03184e-37
1.82426e-37
-1.69485e-36
3.55821e-39
5.59165e-39
-1.71433e-36
4.18846e-39
6.62658e-39
-5.4228e-39
3.36743e-38
5.6194e-38
-6.86744e-39
1.57678e-37
4.07588e-38
-3.5503e-38
4.86049e-37
1.73473e-38
-1.26466e-37
8.73257e-37
2.40959e-38
-3.29835e-37
7.61536e-37
5.19847e-38
-6.05552e-37
7.09721e-38
-7.6214e-37
2.14307e-34
2.43431e-33
-3.31968e-33
4.60619e-36
1.64264e-34
-1.27111e-34
6.59369e-37
6.41547e-36
-5.27566e-36
1.7102e-38
5.20754e-38
-1.4485e-36
2.29508e-40
4.39059e-40
-1.87267e-38
1.10736e-39
1.32379e-39
-2.8993e-40
2.82738e-39
5.86171e-39
-9.99536e-40
5.47892e-39
9.43727e-40
-2.03662e-39
4.98792e-39
8.73972e-40
-3.9151e-39
6.24298e-40
-4.99883e-39
9.51169e-32
1.25206e-30
-1.70546e-30
2.52279e-33
9.49797e-32
-6.84563e-32
3.66876e-34
3.99104e-33
-3.33882e-33
5.20797e-36
4.78094e-35
-8.08274e-34
3.0135e-38
2.00682e-37
-5.91181e-36
1.20241e-40
4.83148e-40
-2.64329e-38
2.69617e-41
8.63044e-41
-9.26512e-41
6.29305e-41
2.58189e-40
-2.5088e-41
4.07782e-41
3.2668e-40
-4.63334e-41
1.83244e-41
-4.09339e-41
2.85328e-29
-5.88163e-28
4.32564e-28
8.61732e-31
-2.36975e-29
3.51693e-29
1.31394e-31
-1.41356e-30
1.57305e-30
2.29197e-33
-2.97957e-31
2.44966e-32
1.46379e-35
-2.80609e-33
1.31707e-34
5.9716e-38
-1.34715e-35
5.8744e-37
3.8447e-40
-4.92521e-38
2.2324e-39
1.41475e-42
-3.06638e-40
7.67028e-42
6.74966e-43
-1.01785e-42
6.80783e-42
-6.78734e-43
9.4073e-42
2.94478e-12
1.18366e-13
-4.9981e-12
4.94882e-12
3.68739e-13
-4.90615e-12
6.55653e-12
7.36511e-13
-4.85082e-12
7.5611e-12
1.30432e-12
-4.74227e-12
7.86798e-12
1.9593e-12
-4.6346e-12
7.44131e-12
2.64875e-12
-4.52452e-12
6.31986e-12
3.29664e-12
-4.42519e-12
4.61662e-12
3.83266e-12
-4.34124e-12
2.48291e-12
4.2178e-12
-4.28395e-12
4.53757e-12
-4.23761e-12
2.96989e-12
3.59272e-13
-5.37905e-12
5.15462e-12
8.12097e-13
-5.35558e-12
6.86348e-12
1.63018e-12
-5.28185e-12
7.95673e-12
2.79182e-12
-5.17493e-12
8.29995e-12
4.14908e-12
-5.06241e-12
7.8656e-12
5.56831e-12
-4.94685e-12
6.68273e-12
6.91115e-12
-4.83794e-12
4.86606e-12
8.02361e-12
-4.7436e-12
2.57909e-12
8.82798e-12
-4.67847e-12
9.40475e-12
-4.64147e-12
3.38057e-12
4.68618e-13
-6.35553e-12
5.98035e-12
1.31332e-12
-6.42613e-12
7.99974e-12
2.6652e-12
-6.30775e-12
9.29514e-12
4.53037e-12
-6.1698e-12
9.68868e-12
6.73086e-12
-6.01427e-12
9.16633e-12
9.00552e-12
-5.85108e-12
7.77133e-12
1.11528e-11
-5.69984e-12
5.62931e-12
1.29573e-11
-5.56909e-12
2.94036e-12
1.4268e-11
-5.47605e-12
1.50566e-11
-5.4321e-12
4.09394e-12
4.95367e-13
-8.12265e-12
7.37336e-12
1.94411e-12
-8.19864e-12
9.80118e-12
4.06238e-12
-8.02871e-12
1.14201e-11
6.69908e-12
-7.80584e-12
1.19133e-11
9.93101e-12
-7.57298e-12
1.12736e-11
1.32558e-11
-7.3361e-12
9.55358e-12
1.64036e-11
-7.11633e-12
6.89834e-12
1.90864e-11
-6.929e-12
3.58521e-12
2.10074e-11
-6.79318e-12
2.20087e-11
-6.71639e-12
5.08058e-12
5.48498e-13
-1.08174e-11
9.34991e-12
2.76378e-12
-1.07769e-11
1.25415e-11
5.841e-12
-1.05455e-11
1.46391e-11
9.50226e-12
-1.02278e-11
1.52607e-11
1.40763e-11
-9.88161e-12
1.44348e-11
1.87144e-11
-9.52578e-12
1.2228e-11
2.31262e-11
-9.19355e-12
8.85089e-12
2.68846e-11
-8.91284e-12
4.61349e-12
2.95947e-11
-8.71522e-12
3.09016e-11
-8.63305e-12
6.50633e-12
6.9383e-13
-1.46078e-11
1.23693e-11
3.72529e-12
-1.44278e-11
1.62231e-11
8.68777e-12
-1.41161e-11
1.89702e-11
1.32533e-11
-1.36412e-11
1.97797e-11
1.95604e-11
-1.3153e-11
1.87281e-11
2.5838e-11
-1.2633e-11
1.58996e-11
3.18252e-11
-1.21409e-11
1.15449e-11
3.69316e-11
-1.17306e-11
6.08223e-12
4.06219e-11
-1.14414e-11
4.244e-11
-1.12923e-11
8.4098e-12
7.51628e-13
-1.96977e-11
1.63669e-11
4.82647e-12
-1.94308e-11
2.14215e-11
1.26079e-11
-1.8979e-11
2.51203e-11
1.82103e-11
-1.82976e-11
2.61539e-11
2.68522e-11
-1.75719e-11
2.47663e-11
3.51817e-11
-1.67976e-11
2.09998e-11
4.32107e-11
-1.6093e-11
1.52439e-11
5.00138e-11
-1.54896e-11
8.09528e-12
5.48852e-11
-1.50573e-11
5.75157e-11
-1.48326e-11
1.30074e-11
4.72617e-12
-3.15409e-11
2.26632e-11
7.50491e-12
-3.06047e-11
3.30148e-11
1.23787e-11
-2.98047e-11
3.83501e-11
2.65728e-11
-2.8661e-11
3.966e-11
3.87124e-11
-2.74846e-11
3.7513e-11
4.9835e-11
-2.61337e-11
3.18324e-11
6.07946e-11
-2.48974e-11
2.31041e-11
7.01256e-11
-2.38505e-11
1.21162e-11
7.69157e-11
-2.30899e-11
8.04708e-11
-2.26366e-11
1.61359e-15
1.81199e-19
-1.98834e-20
7.35797e-15
6.3101e-19
-4.14507e-16
2.71538e-14
2.1756e-18
-1.5447e-14
4.07315e-14
2.99128e-18
-2.22851e-14
6.20145e-14
5.4818e-18
-3.23183e-14
7.62774e-14
5.99918e-18
-4.32689e-14
7.83467e-14
4.66128e-18
-5.2439e-14
6.48742e-14
1.17259e-18
-5.97018e-14
3.6622e-14
-3.32835e-18
-6.44751e-14
-6.47776e-18
-6.64906e-14
6.28515e-20
8.22572e-24
-2.11091e-36
3.88462e-19
4.48007e-23
-3.08149e-21
2.02465e-18
2.73685e-22
-5.47077e-19
4.53878e-18
6.90376e-22
-1.70981e-18
9.37767e-18
1.79977e-21
-3.83046e-18
1.46366e-17
3.24311e-21
-7.03471e-18
1.80201e-17
4.74144e-21
-1.06724e-17
1.69686e-17
5.72756e-21
-1.41817e-17
1.03701e-17
5.92288e-21
-1.68885e-17
5.59552e-21
-1.81296e-17
2.65168e-24
1.2141e-27
-2.34827e-31
2.42179e-23
9.17456e-27
-3.30143e-26
1.90043e-22
9.33814e-26
-2.37539e-23
6.24852e-22
3.65876e-25
-1.59571e-22
1.7399e-21
1.29902e-24
-5.6624e-22
3.42197e-21
3.15731e-24
-1.40786e-21
5.00129e-21
5.97373e-24
-2.63927e-21
5.30525e-21
9.10786e-24
-4.05212e-21
3.47517e-21
1.15806e-23
-5.28355e-21
1.25879e-23
-5.88488e-21
3.32424e-28
3.08776e-31
-6.34055e-39
4.82055e-27
2.79763e-30
-1.13449e-30
5.59226e-26
4.6697e-29
-3.45384e-27
2.60413e-25
2.70794e-28
-4.64693e-26
9.62073e-25
1.28709e-27
-2.5365e-25
2.34397e-24
3.9982e-27
-8.32813e-25
3.99306e-24
9.07994e-27
-1.88643e-24
4.67226e-24
2.00269e-26
-3.29408e-24
3.19501e-24
3.38453e-26
-4.65487e-24
4.23563e-26
-5.35305e-24
7.99267e-32
1.71996e-34
-9.66421e-43
1.55011e-30
1.46193e-33
-8.84628e-35
2.57156e-29
3.428e-32
-7.94475e-31
1.691e-28
2.80245e-31
-2.06207e-29
8.30736e-28
1.75437e-30
-1.75733e-28
2.53808e-27
6.83698e-30
-7.80332e-28
5.11367e-27
1.84049e-29
-2.17123e-27
6.71558e-27
4.46277e-29
-4.35104e-27
4.89504e-27
8.14576e-29
-6.69656e-27
1.05129e-28
-7.96753e-27
3.15109e-35
4.33563e-35
-8.17847e-40
7.76919e-34
4.06669e-35
-8.08332e-39
1.77064e-32
5.74263e-35
-2.90105e-34
1.59972e-31
4.06975e-34
-1.35835e-32
1.02916e-30
3.25951e-33
-1.75801e-31
3.90643e-30
1.56467e-32
-1.04537e-30
9.2598e-30
4.93029e-32
-3.55176e-30
1.36083e-29
1.29886e-31
-8.13084e-30
1.05634e-29
2.54538e-31
-1.35828e-29
3.37728e-31
-1.66875e-29
4.03236e-38
6.71453e-38
-9.92026e-37
7.15813e-37
1.22251e-37
-6.47152e-38
1.78445e-35
1.02314e-35
-1.38592e-37
2.15033e-34
5.55815e-36
-1.29957e-35
1.77676e-33
1.45649e-35
-2.47356e-34
8.27518e-33
4.77115e-35
-1.94005e-33
2.29079e-32
1.73436e-34
-7.98078e-33
3.75116e-32
4.94468e-34
-2.07513e-32
3.09478e-32
1.03523e-33
-3.74809e-32
1.40865e-33
-4.7445e-32
4.8577e-37
1.88632e-36
-8.82617e-36
6.22047e-38
6.86619e-38
-7.42592e-36
3.01552e-38
3.33024e-38
-9.11307e-37
5.07905e-37
2.26795e-37
-2.50911e-38
4.19147e-36
3.4009e-36
-6.05329e-37
2.36429e-35
4.71802e-37
-4.88921e-36
7.56973e-35
9.03843e-37
-2.41059e-35
1.37309e-34
2.448e-36
-7.06686e-35
1.20075e-34
5.44293e-36
-1.37342e-34
7.57245e-36
-1.78683e-34
2.43005e-34
1.73518e-33
-3.2643e-33
5.1028e-36
1.16299e-34
-1.90262e-34
1.10066e-36
3.90478e-36
-6.32812e-36
1.02125e-38
2.06635e-38
-2.5181e-36
1.49018e-38
2.27533e-38
-1.47729e-38
9.4375e-38
1.35215e-37
-1.90762e-38
3.28713e-37
7.47833e-38
-1.01323e-37
6.55872e-37
3.55016e-38
-3.15792e-37
6.05649e-37
3.66882e-38
-6.56724e-37
5.20125e-38
-8.75576e-37
1.23897e-31
1.04753e-30
-1.78109e-30
2.54495e-33
7.50451e-32
-1.12229e-31
3.91126e-34
2.93478e-33
-3.60374e-33
4.67144e-36
3.15793e-35
-8.29668e-34
2.94709e-38
9.79237e-38
-5.00745e-36
6.46767e-40
1.31718e-39
-2.49692e-38
2.48256e-39
3.20946e-39
-7.28038e-40
4.00901e-39
1.19097e-38
-2.48125e-39
3.90984e-39
1.17081e-39
-4.01866e-39
8.62085e-40
-5.49902e-39
4.22102e-29
4.18219e-28
-6.45589e-28
1.10445e-30
3.377e-29
-4.64648e-29
1.72638e-31
1.46804e-30
-1.68215e-30
2.55703e-33
1.99496e-32
-3.70609e-31
1.32306e-35
9.3869e-35
-2.88198e-33
5.07588e-38
3.90576e-37
-1.18761e-35
1.89005e-40
9.73817e-40
-4.2761e-38
4.32683e-41
1.87822e-40
-1.70029e-40
4.60231e-41
3.05865e-40
-4.33144e-41
3.20551e-40
-6.3088e-41
9.86089e-27
-1.60093e-25
1.14197e-25
3.0373e-28
-1.25706e-26
9.916e-27
4.82504e-29
-5.0726e-28
4.75948e-28
8.94697e-31
-1.07289e-28
8.21717e-30
6.21221e-33
-1.09923e-30
5.00059e-32
2.82723e-35
-5.91173e-33
2.57406e-34
9.72457e-38
-2.45788e-35
1.15983e-36
3.94882e-40
-8.21584e-38
4.10807e-39
1.00107e-42
-3.49663e-40
1.18892e-41
-1.33093e-42
6.72264e-42
2.98744e-12
-5.94195e-13
-6.82076e-12
5.02187e-12
-1.0872e-13
-6.74384e-12
6.6513e-12
2.6572e-13
-6.6519e-12
7.66499e-12
8.47247e-13
-6.50662e-12
7.97402e-12
1.52206e-12
-6.36964e-12
7.53885e-12
2.23147e-12
-6.22647e-12
6.40232e-12
2.897e-12
-6.09538e-12
4.67346e-12
3.44904e-12
-5.98342e-12
2.50448e-12
3.8459e-12
-5.90477e-12
4.15792e-12
-5.86201e-12
2.99383e-12
-9.71167e-13
-7.45721e-12
5.21876e-12
-2.41834e-13
-7.34439e-12
6.95865e-12
6.18895e-13
-7.265e-12
8.0586e-12
1.80771e-12
-7.12268e-12
8.40784e-12
3.1982e-12
-6.9746e-12
7.96745e-12
4.65727e-12
-6.82081e-12
6.77071e-12
6.03537e-12
-6.67691e-12
4.92999e-12
7.18154e-12
-6.55237e-12
2.61336e-12
8.01043e-12
-6.46556e-12
8.59688e-12
-6.42648e-12
3.40249e-12
-1.42174e-12
-8.82409e-12
6.05488e-12
-4.34435e-13
-8.80165e-12
8.11989e-12
1.00421e-12
-8.66517e-12
9.4338e-12
2.9176e-12
-8.49566e-12
9.83777e-12
5.17766e-12
-8.2989e-12
9.3062e-12
7.52169e-12
-8.08668e-12
7.89184e-12
9.72862e-12
-7.88337e-12
5.72052e-12
1.15899e-11
-7.71225e-12
2.9899e-12
1.29496e-11
-7.58969e-12
1.37615e-11
-7.5266e-12
4.13744e-12
-2.081e-12
-1.1175e-11
7.48361e-12
-6.88006e-13
-1.12048e-11
9.98782e-12
1.57805e-12
-1.10146e-11
1.16211e-11
4.31741e-12
-1.07467e-11
1.21218e-11
7.63961e-12
-1.04468e-11
1.14762e-11
1.10611e-11
-1.01379e-11
9.7265e-12
1.4319e-11
-9.84962e-12
7.03268e-12
1.70789e-11
-9.59671e-12
3.64963e-12
1.91001e-11
-9.41935e-12
2.01172e-11
-9.30819e-12
5.20637e-12
-3.02436e-12
-1.47897e-11
9.53443e-12
-9.41205e-13
-1.47508e-11
1.28103e-11
2.28144e-12
-1.44319e-11
1.49534e-11
6.08235e-12
-1.40533e-11
1.55854e-11
1.08275e-11
-1.36228e-11
1.47471e-11
1.56186e-11
-1.31515e-11
1.24979e-11
2.02089e-11
-1.27123e-11
9.04502e-12
2.40991e-11
-1.23338e-11
4.72815e-12
2.69147e-11
-1.20535e-11
2.8268e-11
-1.19311e-11
6.72507e-12
-4.24002e-12
-1.99669e-11
1.26603e-11
-1.40583e-12
-1.98024e-11
1.66505e-11
3.65714e-12
-1.94065e-11
1.94423e-11
8.4975e-12
-1.87843e-11
2.02789e-11
1.50276e-11
-1.81218e-11
1.92052e-11
2.15621e-11
-1.74148e-11
1.63005e-11
2.78274e-11
-1.67456e-11
1.18332e-11
3.31333e-11
-1.61735e-11
6.23114e-12
3.69822e-11
-1.57683e-11
3.88591e-11
-1.55468e-11
8.77308e-12
-6.06966e-12
-2.71475e-11
1.67826e-11
-1.93579e-12
-2.68622e-11
2.20815e-11
5.60185e-12
-2.61849e-11
2.58649e-11
1.17046e-11
-2.52487e-11
2.69219e-11
2.0694e-11
-2.42463e-11
2.54764e-11
2.94393e-11
-2.31723e-11
2.16063e-11
3.78395e-11
-2.21751e-11
1.5678e-11
4.49803e-11
-2.13389e-11
8.31113e-12
5.00988e-11
-2.07227e-11
5.27827e-11
-2.0395e-11
1.3503e-11
-1.19594e-16
-4.3658e-11
2.37236e-11
-3.64277e-14
-4.25892e-11
3.40851e-11
5.15434e-12
-4.14097e-11
3.96201e-11
1.29884e-11
-3.9768e-11
4.10052e-11
2.98777e-11
-3.80534e-11
3.87683e-11
4.16896e-11
-3.61472e-11
3.28975e-11
5.31935e-11
-3.43799e-11
2.38821e-11
6.30475e-11
-3.29053e-11
1.2552e-11
7.02125e-11
-3.18609e-11
7.39627e-11
-3.12703e-11
8.43123e-21
-6.72425e-35
-6.67435e-21
3.34116e-16
5.53424e-21
-9.72025e-25
1.76039e-14
1.14502e-18
-9.08842e-15
2.9215e-14
3.26617e-18
-1.3626e-14
4.93994e-14
5.79553e-18
-2.93732e-14
6.64762e-14
8.21919e-18
-4.48729e-14
7.11084e-14
7.82048e-18
-5.95573e-14
6.0193e-14
5.11187e-18
-7.07822e-14
3.43895e-14
1.1117e-18
-7.81666e-14
-1.87567e-18
-8.14471e-14
3.24009e-38
-6.95618e-35
-1.19591e-37
2.45269e-21
5.72961e-26
-1.4173e-37
6.00344e-19
4.86362e-23
-3.79934e-44
2.28151e-18
3.69117e-22
-2.61856e-19
5.8128e-18
1.23577e-21
-2.12384e-18
1.0757e-17
2.77114e-21
-5.36952e-18
1.44458e-17
4.34195e-21
-9.86324e-18
1.428e-17
5.43317e-21
-1.43981e-17
8.95645e-18
5.7224e-21
-1.7997e-17
5.45266e-21
-1.97396e-17
1.59842e-33
-3.35477e-41
-1.70579e-33
2.51351e-26
1.9729e-30
-3.35572e-34
2.54134e-23
7.03782e-27
-2.51318e-37
2.09101e-22
1.15787e-25
-6.16974e-24
8.45221e-22
6.57128e-25
-1.82539e-22
2.13938e-21
2.11111e-24
-8.00427e-22
3.57096e-21
4.42582e-24
-2.00911e-21
4.0786e-21
7.05258e-24
-3.56206e-21
2.77879e-21
9.11425e-24
-4.99996e-21
9.95234e-24
-5.75415e-21
2.79943e-40
-3.82145e-45
-3.44668e-40
8.38266e-31
1.51754e-34
-2.67063e-38
3.58323e-27
1.58902e-30
-1.22871e-37
5.94807e-26
5.23938e-29
-4.89352e-28
3.72852e-25
4.87401e-28
-4.88891e-26
1.2669e-24
2.21141e-27
-3.62961e-25
2.57191e-24
5.91115e-27
-1.21648e-24
3.3147e-24
1.10705e-26
-2.56743e-24
2.38268e-24
2.00874e-26
-3.99527e-24
2.62864e-26
-4.79479e-24
3.58415e-43
3.4574e-44
-1.18959e-39
6.25425e-35
7.47842e-37
-2.60032e-41
7.94002e-31
6.03262e-34
-5.87306e-43
2.56095e-29
3.44329e-32
-6.29425e-32
2.50975e-28
5.03678e-31
-1.95536e-29
1.16629e-27
3.15997e-30
-2.49423e-28
2.94258e-27
1.06123e-29
-1.14876e-27
4.37481e-27
2.31178e-29
-2.94062e-27
3.40057e-27
4.47588e-29
-5.12249e-27
6.08458e-29
-6.43751e-27
2.887e-40
1.43351e-40
-3.71459e-39
8.71549e-39
1.74681e-39
-1.29606e-38
2.78709e-34
3.41348e-35
-4.60616e-40
1.63065e-32
3.9409e-35
-1.32937e-35
2.43386e-31
7.23301e-34
-1.15332e-32
1.52957e-30
6.09619e-33
-2.45688e-31
4.77243e-30
2.53565e-32
-1.54327e-30
8.16749e-30
6.36386e-32
-4.77422e-30
6.86154e-30
1.30236e-31
-9.28533e-30
1.83333e-31
-1.21967e-29
2.65524e-37
2.90571e-37
-3.67264e-36
4.12907e-38
2.56377e-38
-6.95047e-36
1.41116e-37
7.64886e-38
-3.46378e-37
1.50529e-35
7.23306e-36
-7.76652e-39
3.31652e-34
9.20694e-36
-9.82318e-36
2.77321e-33
2.15361e-35
-3.38158e-34
1.06127e-32
8.01877e-35
-2.85987e-33
2.0821e-32
2.2937e-34
-1.06271e-32
1.88767e-32
4.95634e-34
-2.29906e-32
7.20621e-34
-3.15016e-32
1.80958e-34
3.62114e-34
-2.99986e-33
4.31914e-36
2.95121e-35
-1.59748e-34
9.71942e-37
9.74025e-37
-1.43066e-35
2.79661e-38
2.1943e-38
-2.13883e-36
7.09662e-37
6.0527e-37
-1.84678e-38
6.81828e-36
3.28181e-36
-7.29353e-37
3.16821e-35
7.58832e-37
-7.17277e-36
7.08192e-35
1.18922e-36
-3.17543e-35
6.91021e-35
2.45274e-36
-7.60233e-35
3.67121e-36
-1.08378e-34
1.0044e-31
2.89776e-31
-1.71838e-30
1.6863e-33
2.3362e-32
-9.80944e-32
2.5697e-34
9.09933e-34
-2.4301e-33
5.64094e-36
1.00374e-35
-5.15203e-34
1.80544e-38
2.2593e-38
-5.18928e-36
2.35538e-38
3.75381e-38
-1.54101e-38
1.30209e-37
2.21439e-37
-2.90783e-38
3.16056e-37
8.60751e-38
-1.30618e-37
3.30616e-37
3.54146e-38
-3.30358e-37
2.41209e-38
-4.88447e-37
3.90019e-29
1.514e-28
-6.7651e-28
7.78804e-31
1.24532e-29
-4.22109e-29
1.32326e-31
5.38952e-31
-1.28854e-30
1.60102e-33
7.23126e-33
-2.56093e-31
6.74894e-36
3.12121e-35
-1.57897e-33
3.30233e-38
9.06476e-38
-5.35126e-36
8.95195e-40
2.00595e-39
-2.6258e-38
2.4694e-39
4.42565e-39
-8.6674e-40
2.03533e-39
1.1872e-38
-2.53151e-39
9.22784e-40
-2.83902e-39
1.02234e-26
5.15697e-26
-1.80187e-25
2.61272e-28
4.64129e-27
-1.33033e-26
4.49201e-29
2.15851e-28
-4.62186e-28
6.87338e-31
3.63122e-30
-8.77333e-29
3.7331e-33
2.00257e-32
-7.13109e-31
1.45709e-35
9.90902e-35
-3.18725e-33
5.5824e-38
4.36454e-37
-1.19311e-35
1.69066e-40
1.03139e-39
-4.49285e-38
2.49665e-41
1.87373e-40
-1.36491e-40
2.75901e-40
-2.68837e-41
1.87301e-24
-3.47685e-23
1.1972e-23
5.62857e-26
-2.80857e-24
1.14056e-24
9.82417e-27
-1.08839e-25
5.66671e-26
1.9137e-28
-1.98746e-26
1.21487e-27
1.42523e-30
-2.17582e-28
8.74973e-30
7.24618e-33
-1.29633e-30
5.39221e-32
2.84189e-35
-6.13877e-33
2.89002e-34
7.68554e-38
-2.3458e-35
1.23463e-36
2.87466e-40
-6.6098e-38
3.65042e-39
-2.7322e-40
6.85079e-42
3.09521e-12
-1.44197e-12
-7.93056e-12
5.15373e-12
-8.18276e-13
-7.90877e-12
6.78659e-12
-4.18118e-13
-7.79266e-12
7.81059e-12
1.81693e-13
-7.64235e-12
8.11905e-12
8.83188e-13
-7.49418e-12
7.6727e-12
1.62465e-12
-7.33815e-12
6.51523e-12
2.31527e-12
-7.19009e-12
4.75345e-12
2.89133e-12
-7.06391e-12
2.54478e-12
3.30526e-12
-6.97391e-12
3.61592e-12
-6.9213e-12
3.0354e-12
-2.70048e-12
-8.73968e-12
5.30804e-12
-1.72413e-12
-8.62811e-12
7.0943e-12
-8.47214e-13
-8.54286e-12
8.21386e-12
4.05926e-13
-8.38855e-12
8.56507e-12
1.85996e-12
-8.22318e-12
8.11564e-12
3.3749e-12
-8.04146e-12
6.89683e-12
4.8054e-12
-7.87549e-12
5.02375e-12
5.99934e-12
-7.73211e-12
2.66621e-12
6.86881e-12
-7.63238e-12
7.46479e-12
-7.57577e-12
3.46533e-12
-4.06132e-12
-1.04299e-11
6.18289e-12
-2.84933e-12
-1.03238e-11
8.29514e-12
-1.3506e-12
-1.01997e-11
9.6378e-12
6.3921e-13
-9.99368e-12
1.00552e-11
2.99534e-12
-9.77266e-12
9.51302e-12
5.44632e-12
-9.53543e-12
8.06551e-12
7.75448e-12
-9.30138e-12
5.84908e-12
9.68753e-12
-9.09776e-12
3.06072e-12
1.11111e-11
-8.95456e-12
1.1952e-11
-8.87556e-12
4.21447e-12
-5.7576e-12
-1.32101e-11
7.64695e-12
-4.25313e-12
-1.31516e-11
1.0268e-11
-1.96153e-12
-1.29396e-11
1.19337e-11
9.72459e-13
-1.26619e-11
1.24368e-11
4.43912e-12
-1.23116e-11
1.17714e-11
8.01182e-12
-1.19458e-11
9.97903e-12
1.14156e-11
-1.16054e-11
7.21524e-12
1.42966e-11
-1.13107e-11
3.74871e-12
1.64008e-11
-1.11017e-11
1.74808e-11
-1.09743e-11
5.3707e-12
-8.10958e-12
-1.74453e-11
9.83742e-12
-6.03329e-12
-1.73403e-11
1.31948e-11
-2.66066e-12
-1.70033e-11
1.53991e-11
1.33208e-12
-1.65385e-11
1.60617e-11
6.27688e-12
-1.60404e-11
1.51916e-11
1.13339e-11
-1.5498e-11
1.2882e-11
1.6119e-11
-1.49724e-11
9.3252e-12
2.02079e-11
-1.45359e-11
4.88452e-12
2.31641e-11
-1.42112e-11
2.461e-11
-1.40471e-11
6.97931e-12
-1.12933e-11
-2.35468e-11
1.30714e-11
-8.51609e-12
-2.33365e-11
1.72501e-11
-3.32552e-12
-2.28595e-11
2.01321e-11
1.87565e-12
-2.21491e-11
2.09852e-11
8.73486e-12
-2.13569e-11
1.98828e-11
1.5634e-11
-2.05133e-11
1.68727e-11
2.22309e-11
-1.97305e-11
1.22449e-11
2.78509e-11
-1.90556e-11
6.44937e-12
3.19105e-11
-1.85687e-11
3.39211e-11
-1.83034e-11
9.18219e-12
-1.60512e-11
-3.205e-11
1.74595e-11
-1.19393e-11
-3.16963e-11
2.29818e-11
-4.08723e-12
-3.09223e-11
2.68932e-11
2.5653e-12
-2.9812e-11
2.79864e-11
1.20659e-11
-2.86182e-11
2.64742e-11
2.13683e-11
-2.73352e-11
2.24432e-11
3.02921e-11
-2.61393e-11
1.62951e-11
3.78771e-11
-2.51345e-11
8.64143e-12
4.33431e-11
-2.44111e-11
4.62299e-11
-2.40193e-11
1.42023e-11
-1.46823e-17
-5.1612e-11
2.50901e-11
-2.17152e-21
-5.05578e-11
3.56118e-11
-1.70705e-12
-4.91912e-11
4.13971e-11
3.19311e-12
-4.72137e-11
4.28865e-11
1.31976e-11
-4.50293e-11
4.05342e-11
3.02916e-11
-4.27182e-11
3.43642e-11
4.26581e-11
-4.0576e-11
2.49209e-11
5.32187e-11
-3.87935e-11
1.30916e-11
6.08879e-11
-3.75345e-11
6.48908e-11
-3.68349e-11
2.17308e-21
-2.12273e-34
2.46396e-37
5.9063e-25
-1.94313e-38
4.38503e-41
6.48591e-15
-7.06074e-41
-2.15778e-16
1.13309e-14
5.29648e-19
-1.01665e-15
3.26196e-14
4.24093e-18
-1.00662e-14
5.08213e-14
7.45041e-18
-3.18312e-14
6.00644e-14
9.41866e-18
-5.05876e-14
5.30841e-14
7.87096e-18
-6.61731e-14
3.09436e-14
4.65933e-18
-7.61405e-14
1.98272e-18
-8.07555e-14
3.83815e-38
-2.12254e-34
-1.76963e-37
5.40238e-41
-1.22699e-37
-1.54966e-40
3.20977e-44
-2.04514e-41
3.79776e-42
2.6778e-19
1.22183e-23
6.36892e-45
2.3758e-18
4.01392e-22
-1.04576e-19
6.06423e-18
1.54408e-21
-2.19984e-18
9.93412e-18
3.18148e-21
-6.02789e-18
1.07876e-17
4.36351e-21
-1.07173e-17
7.0817e-18
4.76289e-21
-1.46173e-17
4.57438e-21
-1.66365e-17
3.5843e-34
-1.19495e-40
-6.49268e-34
2.76212e-37
-7.02547e-39
-6.21534e-37
2.62414e-38
-3.62897e-39
4.95841e-39
6.20082e-24
9.71926e-28
7.9833e-42
2.02794e-22
1.11835e-25
-1.24988e-24
8.9895e-22
8.15988e-25
-1.8115e-22
2.02277e-21
2.45732e-24
-8.93849e-22
2.66721e-21
4.44717e-24
-2.13439e-21
1.94827e-21
6.00493e-24
-3.42189e-21
6.63005e-24
-4.16391e-21
1.03648e-40
-1.48204e-40
-5.10733e-40
1.8026e-38
-4.9524e-42
-9.71338e-39
5.36481e-38
-4.39848e-44
-1.95617e-38
4.82451e-28
1.23546e-31
-2.97927e-38
5.36356e-26
4.20667e-29
-5.02232e-29
4.05035e-25
5.98801e-28
-4.65125e-26
1.22425e-24
2.60967e-27
-4.03287e-25
1.9066e-24
5.94063e-27
-1.2664e-24
1.49809e-24
9.13214e-27
-2.34871e-24
1.26215e-26
-3.03238e-24
2.14946e-40
-6.61277e-40
-2.81799e-39
2.82751e-41
-8.3826e-41
-3.084e-40
4.58193e-43
-5.79704e-41
-4.59669e-40
6.05763e-32
2.76747e-35
-8.98016e-43
2.10909e-29
2.38893e-32
-3.43595e-33
2.75657e-28
6.1061e-31
-1.77095e-29
1.1551e-27
3.77145e-30
-2.74721e-28
2.19312e-27
1.06654e-29
-1.16732e-27
1.9129e-27
1.85163e-29
-2.5464e-27
2.62847e-29
-3.51177e-27
1.37053e-37
-5.61696e-37
-2.53838e-36
1.44588e-39
-1.93552e-38
-1.20547e-37
3.51926e-40
-8.22044e-41
-2.01652e-39
1.2476e-35
1.58295e-36
-6.99194e-40
1.22105e-32
2.47242e-35
-4.06762e-37
2.68673e-31
8.60175e-34
-9.91143e-33
1.55036e-30
7.33605e-33
-2.6806e-31
3.58429e-30
2.54808e-32
-1.53266e-30
3.47353e-30
4.96012e-32
-3.92283e-30
7.18646e-32
-5.77066e-30
1.17817e-34
-4.39632e-34
-2.23368e-33
1.37595e-36
-1.57366e-35
-1.15528e-34
4.67905e-37
-3.26517e-38
-2.0749e-36
7.10658e-39
1.79177e-39
-9.31364e-37
1.02038e-35
3.66811e-36
-2.01206e-39
3.65784e-34
7.82833e-36
-7.98749e-36
2.87017e-33
2.33715e-35
-3.6535e-34
8.04461e-33
8.05482e-35
-2.78128e-33
8.654e-33
1.74417e-34
-8.31482e-33
2.58284e-34
-1.30191e-32
7.13754e-32
-2.25705e-31
-1.38347e-30
9.91555e-34
-8.0425e-33
-7.79623e-32
1.4582e-34
2.28274e-35
-1.6176e-33
1.85277e-36
1.56085e-36
-2.71049e-34
1.88212e-38
1.139e-38
-1.34537e-36
7.49627e-37
6.43767e-37
-1.32113e-38
7.19e-36
2.46501e-36
-7.51523e-37
2.42667e-35
7.31154e-37
-6.84857e-36
2.88975e-35
8.7269e-37
-2.37621e-35
1.21384e-36
-3.94767e-35
3.02238e-29
-7.22273e-29
-5.98524e-28
5.01351e-31
-2.19068e-30
-3.67501e-29
8.31159e-32
4.35953e-32
-8.85316e-31
8.65181e-34
1.35457e-33
-1.46011e-31
5.42473e-36
6.25928e-36
-6.75159e-34
1.62638e-38
1.70041e-38
-3.4368e-36
2.64491e-38
4.29947e-38
-1.15734e-38
1.0009e-37
2.06257e-37
-2.83184e-38
1.27163e-37
5.5477e-38
-9.32225e-38
1.72249e-38
-1.58472e-37
8.86069e-27
-1.19603e-26
-1.79157e-25
1.76207e-28
-1.17251e-28
-1.19904e-26
3.28463e-29
3.12632e-29
-3.35574e-28
3.98716e-31
8.0832e-31
-5.47862e-29
1.67889e-33
4.78112e-33
-3.35562e-31
5.19935e-36
2.30663e-35
-1.14911e-33
2.44151e-38
6.65294e-38
-3.67827e-36
7.03889e-40
1.94051e-39
-1.70593e-38
1.00512e-39
2.9543e-39
-5.77777e-40
5.815e-39
-1.14523e-39
1.78069e-24
-2.51998e-25
-3.67257e-23
4.55345e-26
1.2264e-25
-2.72929e-24
8.50799e-27
1.28446e-26
-8.68821e-26
1.32565e-28
3.42112e-28
-1.41963e-26
7.38897e-31
2.49372e-30
-1.17006e-28
3.11905e-33
1.56417e-32
-5.53205e-31
1.11531e-35
8.50078e-35
-2.2917e-33
3.22574e-38
3.5465e-37
-8.05312e-36
6.6074e-41
6.81956e-40
-2.39318e-38
8.56699e-41
-6.29322e-41
2.52218e-22
-5.31148e-21
2.9643e-22
7.69084e-24
-4.20909e-22
4.4674e-23
1.43868e-24
-1.50642e-23
3.23888e-24
2.91276e-26
-2.47566e-24
9.81154e-26
2.28564e-28
-2.83408e-26
9.12055e-28
1.28721e-30
-1.83556e-28
7.10838e-30
5.77853e-33
-9.81534e-31
4.69997e-32
1.78825e-35
-4.28343e-33
2.39805e-34
2.94374e-38
-1.36467e-35
8.5303e-37
-2.45565e-38
1.51141e-39
3.16873e-12
-2.23148e-12
-8.27225e-12
5.27138e-12
-1.66901e-12
-8.28596e-12
6.92356e-12
-1.22735e-12
-8.17448e-12
7.96392e-12
-6.09625e-13
-8.03822e-12
8.27329e-12
1.26638e-13
-7.89484e-12
7.82116e-12
8.92355e-13
-7.73775e-12
6.64155e-12
1.61764e-12
-7.58762e-12
4.84435e-12
2.21747e-12
-7.45589e-12
2.5922e-12
2.65157e-12
-7.36195e-12
2.96902e-12
-7.29192e-12
3.11737e-12
-4.49325e-12
-9.14236e-12
5.42591e-12
-3.47601e-12
-9.08535e-12
7.23126e-12
-2.54405e-12
-8.99602e-12
8.38269e-12
-1.27144e-12
-8.83979e-12
8.74486e-12
2.64392e-13
-8.67485e-12
8.28085e-12
1.86093e-12
-8.48976e-12
7.03846e-12
3.34962e-12
-8.31138e-12