/*--------------------------------*- C++ -*----------------------------------*\
| =========                 |                                                 |
| \\      /  F ield         | OpenFOAM: The Open Source CFD Toolbox           |
|  \\    /   O peration     | Version:  2312                                  |
|   \\  /    A nd           | Website:  www.openfoam.com                      |
|    \\/     M anipulation  |                                                 |
\*---------------------------------------------------------------------------*/
FoamFile
{
    version     2.0;
    format      ascii;
    arch        "LSB;label=32;scalar=64";
    class       surfaceScalarField;
    location    "0.215";
    object      alphaPhi0.water;
}
// * * * * * * * * * * * * * * * * * * * * * * * * * * * * * * * * * * * * * //

dimensions      [0 3 -1 0 0 0 0];

oriented        oriented;

internalField   nonuniform List<scalar> 
22600
(
-2.94238e-07
-6.41153e-07
9.18539e-07
-5.31872e-07
-6.2774e-07
8.65375e-07
-6.99643e-07
-6.07054e-07
7.74825e-07
-7.8279e-07
-5.78141e-07
6.61289e-07
-7.80932e-07
-5.43646e-07
5.41787e-07
-7.0644e-07
-5.06957e-07
4.32466e-07
-5.75306e-07
-4.7229e-07
3.41156e-07
-4.03834e-07
-4.42433e-07
2.70961e-07
-2.07079e-07
-4.23722e-07
2.26966e-07
-4.08181e-07
2.01102e-07
-2.48107e-07
-1.21962e-06
8.13109e-07
-4.48737e-07
-1.19227e-06
7.65158e-07
-5.8766e-07
-1.14912e-06
6.80987e-07
-6.5485e-07
-1.08767e-06
5.76718e-07
-6.51348e-07
-1.01479e-06
4.67638e-07
-5.87673e-07
-9.40594e-07
3.69962e-07
-4.76477e-07
-8.72497e-07
2.8901e-07
-3.33516e-07
-8.12059e-07
2.26665e-07
-1.71133e-07
-7.73265e-07
1.8716e-07
-7.44992e-07
1.65678e-07
-2.31165e-07
-1.80297e-06
8.03353e-07
-4.21299e-07
-1.75895e-06
7.56816e-07
-5.52713e-07
-1.68673e-06
6.69027e-07
-6.14712e-07
-1.58942e-06
5.63755e-07
-6.08088e-07
-1.4763e-06
4.5489e-07
-5.455e-07
-1.35845e-06
3.5527e-07
-4.41507e-07
-1.2508e-06
2.74314e-07
-3.081e-07
-1.15874e-06
2.13278e-07
-1.58459e-07
-1.09735e-06
1.74446e-07
-1.05697e-06
1.53522e-07
-1.90767e-07
-2.35108e-06
7.31512e-07
-3.4999e-07
-2.28921e-06
6.89487e-07
-4.57997e-07
-2.18537e-06
6.06649e-07
-5.06253e-07
-2.04796e-06
5.06795e-07
-4.97067e-07
-1.88827e-06
4.02783e-07
-4.42704e-07
-1.72168e-06
3.08865e-07
-3.5494e-07
-1.57248e-06
2.33911e-07
-2.46577e-07
-1.4451e-06
1.77994e-07
-1.27378e-07
-1.3579e-06
1.41355e-07
-1.30776e-06
1.23413e-07
-1.32837e-07
-2.83011e-06
6.08733e-07
-2.42351e-07
-2.75114e-06
5.71444e-07
-3.13856e-07
-2.61004e-06
4.96173e-07
-3.43684e-07
-2.42447e-06
4.06335e-07
-3.31388e-07
-2.21577e-06
3.15202e-07
-2.88709e-07
-1.99643e-06
2.32069e-07
-2.27975e-07
-1.80081e-06
1.67601e-07
-1.5656e-07
-1.63745e-06
1.20933e-07
-8.13555e-08
-1.52508e-06
9.19685e-08
-1.46746e-06
7.83366e-08
-5.38391e-08
-3.2207e-06
4.45316e-07
-9.67274e-08
-3.12083e-06
4.12576e-07
-1.22043e-07
-2.93582e-06
3.51091e-07
-1.27182e-07
-2.69296e-06
2.73629e-07
-1.14389e-07
-2.42407e-06
1.95507e-07
-9.08625e-08
-2.14653e-06
1.26574e-07
-6.52952e-08
-1.90423e-06
7.78462e-08
-4.23483e-08
-1.70602e-06
4.56266e-08
-2.26311e-08
-1.57291e-06
2.81122e-08
-1.51006e-06
1.99729e-08
3.6748e-08
-3.53363e-06
2.80489e-07
6.89032e-08
-3.41249e-06
2.59514e-07
1.00873e-07
-3.17124e-06
2.0346e-07
1.30777e-07
-2.84217e-06
1.19325e-07
1.47164e-07
-2.48578e-06
4.53438e-08
1.47967e-07
-2.13719e-06
-1.01282e-08
1.26206e-07
-1.84121e-06
-4.12449e-08
8.9804e-08
-1.61965e-06
-4.99613e-08
4.59706e-08
-1.47954e-06
-4.95278e-08
-1.41671e-06
-4.73678e-08
1.00158e-07
-3.88992e-06
2.61022e-07
2.06492e-07
-3.73929e-06
2.20674e-07
2.98667e-07
-3.39788e-06
1.34714e-07
3.71064e-07
-2.93985e-06
2.55899e-08
4.02644e-07
-2.43457e-06
-8.2441e-08
3.8025e-07
-1.97065e-06
-1.43798e-07
3.07021e-07
-1.60903e-06
-1.58651e-07
2.06033e-07
-1.37431e-06
-1.44111e-07
1.02513e-07
-1.25321e-06
-1.22594e-07
-1.21145e-06
-1.02547e-07
2.95667e-07
-3.56116e-06
-6.14708e-07
6.09047e-07
-3.34794e-06
-6.85594e-07
8.23113e-07
-2.92617e-06
-6.45399e-07
8.80192e-07
-2.36906e-06
-5.48372e-07
8.1382e-07
-1.72068e-06
-5.04682e-07
6.66235e-07
-1.1371e-06
-4.55491e-07
4.55516e-07
-7.21325e-07
-3.73397e-07
2.468e-07
-5.37715e-07
-2.6084e-07
1.0941e-07
-5.15141e-07
-1.64968e-07
-5.28494e-07
-1.07571e-07
6.8072e-07
-7.44882e-07
-2.73965e-06
1.30028e-06
-6.76406e-07
-2.61269e-06
1.66044e-06
-5.08289e-07
-2.14599e-06
1.738e-06
-9.70862e-08
-1.84965e-06
1.48011e-06
8.99442e-08
-1.52791e-06
1.01538e-06
7.6046e-08
-1.21206e-06
5.56875e-07
-2.80959e-08
-8.0838e-07
2.48566e-07
-7.63544e-08
-4.31855e-07
8.96748e-08
-3.36045e-08
-1.53484e-07
-6.29825e-09
-9.24402e-08
5.54104e-07
-3.97565e-07
-1.33368e-12
8.42031e-07
-5.4819e-07
5.10532e-07
1.02186e-06
-1.91516e-08
-8.29846e-08
9.94463e-07
-1.60615e-09
1.20495e-07
6.51869e-07
3.03716e-08
-1.41509e-07
3.32869e-07
-9.68981e-10
-2.62807e-07
1.28803e-07
-1.74137e-08
-2.36079e-07
3.06557e-08
-3.6919e-09
-1.33813e-07
3.53301e-09
-7.81431e-10
-1.57264e-08
-3.1482e-11
-3.788e-09
3.10871e-08
-4.49174e-11
-3.91645e-13
2.06496e-08
6.02426e-11
-5.4553e-13
1.67049e-09
-1.74658e-10
-9.90133e-13
9.58754e-11
-3.4081e-11
-1.39307e-12
3.18469e-08
-1.38284e-09
-7.90101e-13
3.03023e-08
5.7166e-10
-1.19409e-12
1.0742e-08
1.02203e-09
1.09582e-09
2.64837e-09
6.20921e-10
2.07955e-09
9.30529e-11
1.91381e-10
8.7267e-10
4.57844e-11
-1.23199e-10
1.10482e-12
-1.39031e-11
-2.24929e-12
2.08539e-10
-1.46858e-10
-1.41776e-12
4.87025e-11
-1.55191e-11
-3.54447e-12
1.59335e-10
1.5129e-10
-8.92308e-11
7.28444e-10
-4.31309e-11
4.03965e-11
6.44763e-10
5.05832e-11
8.07574e-10
4.0499e-10
7.80319e-11
9.50386e-10
2.44343e-11
4.75106e-11
8.00204e-10
-1.51966e-11
1.83575e-11
1.48293e-10
3.98081e-12
1.17792e-11
7.68858e-12
4.07521e-11
-5.82591e-11
1.20765e-11
1.31998e-11
-6.50681e-11
7.2241e-12
2.66395e-11
-3.23154e-11
1.53248e-11
1.17335e-11
3.14356e-11
1.86441e-11
2.20774e-12
5.51993e-11
9.01867e-12
2.18167e-12
7.451e-11
-4.29422e-12
2.12089e-12
6.40802e-11
-6.60777e-12
1.61388e-12
4.08178e-11
-1.52775e-12
8.12391e-13
8.25988e-12
1.50409e-13
1.38984e-12
2.22551e-12
1.85821e-11
-3.0451e-13
1.8047e-12
1.19554e-11
7.58499e-12
1.14944e-12
5.50148e-12
2.08797e-11
4.25653e-13
-1.0217e-13
2.26528e-12
5.89276e-13
1.0555e-14
2.36065e-12
-4.72263e-13
1.52519e-15
3.36171e-12
-8.98718e-13
1.1161e-14
2.44935e-12
-4.31436e-13
2.1878e-14
8.96781e-13
-5.53459e-14
2.01093e-14
2.5983e-13
2.91252e-15
5.39048e-14
1.15939e-13
5.50529e-14
1.25301e-11
1.98376e-13
5.09384e-14
6.27385e-12
1.83705e-13
-5.19149e-15
6.10277e-13
1.61972e-14
-1.98172e-15
7.09027e-14
-7.93825e-16
-3.04718e-17
2.99302e-14
-1.36494e-14
-8.02116e-17
1.58303e-14
-1.7984e-14
-4.02329e-17
1.45557e-14
-1.07554e-14
1.94667e-16
1.02354e-14
-9.96196e-16
2.89536e-16
4.96084e-15
3.50309e-17
9.95744e-16
1.11721e-14
4.49082e-16
6.44307e-14
1.85717e-14
1.6118e-16
5.12034e-14
2.25135e-15
-8.5626e-17
1.10462e-14
2.02491e-17
-5.73815e-18
2.83526e-16
-1.89871e-17
-4.22027e-19
3.93723e-17
-8.70676e-17
-4.90959e-19
2.86249e-17
-1.89167e-16
-9.14284e-19
5.53127e-17
-1.37572e-16
-6.13487e-18
8.21003e-17
-9.09513e-18
-1.90273e-17
6.22113e-17
1.01522e-18
8.95074e-18
1.49848e-16
-5.55166e-18
6.04079e-16
1.16298e-16
-2.87735e-18
2.7891e-16
3.40997e-18
-1.88628e-18
3.06817e-17
-2.4413e-20
1.72057e-20
3.05868e-19
-1.44654e-19
1.24056e-19
9.6939e-20
-5.38654e-19
9.27701e-20
1.10563e-19
-1.98617e-18
1.13636e-19
3.36193e-19
-1.73196e-18
2.49416e-19
7.70359e-19
-1.98806e-19
3.97266e-19
8.59243e-19
1.82767e-19
1.92106e-19
6.65912e-19
5.84038e-20
1.08077e-18
1.90926e-19
1.8794e-20
4.34802e-19
5.23476e-21
3.32931e-20
4.58855e-20
-1.82816e-20
1.36233e-20
4.1706e-21
-3.31098e-20
9.1038e-20
2.47442e-20
-3.68712e-20
5.26811e-20
1.43501e-20
-5.41366e-20
3.74749e-20
1.31421e-20
-5.88071e-20
4.83558e-20
2.20673e-20
-9.72136e-21
3.92806e-20
2.93672e-20
4.91862e-21
9.23454e-21
1.06323e-20
9.3301e-21
2.90337e-20
2.40269e-21
2.748e-21
5.87965e-21
1.36799e-21
7.09078e-21
2.36931e-20
-2.02679e-21
2.06016e-21
1.08589e-20
-3.39323e-21
1.86476e-21
2.03017e-21
-2.46061e-21
1.15963e-21
1.56337e-21
-1.52966e-21
6.72953e-22
6.96102e-22
-1.21006e-21
5.149e-22
3.21736e-22
-1.32185e-22
5.83138e-22
3.19712e-22
1.21762e-22
2.65087e-23
-3.64238e-07
-6.98952e-07
1.96145e-06
-6.52433e-07
-6.81847e-07
1.83542e-06
-8.46828e-07
-6.56749e-07
1.62597e-06
-9.33187e-07
-6.21362e-07
1.36901e-06
-9.16081e-07
-5.80201e-07
1.10488e-06
-8.16362e-07
-5.37002e-07
8.69748e-07
-6.56595e-07
-4.96246e-07
6.77635e-07
-4.56662e-07
-4.6238e-07
5.33407e-07
-2.32906e-07
-4.40923e-07
4.44133e-07
-4.2323e-07
3.91426e-07
-3.06083e-07
-1.35458e-06
1.75901e-06
-5.48701e-07
-1.31068e-06
1.63661e-06
-7.09153e-07
-1.25275e-06
1.43744e-06
-7.78548e-07
-1.17543e-06
1.20018e-06
-7.62672e-07
-1.08589e-06
9.5745e-07
-6.78411e-07
-9.97091e-07
7.45791e-07
-5.44272e-07
-9.16457e-07
5.75083e-07
-3.77435e-07
-8.49027e-07
4.46474e-07
-1.92543e-07
-8.04764e-07
3.66108e-07
-7.72333e-07
3.22238e-07
-2.8699e-07
-2.00829e-06
1.73163e-06
-5.19675e-07
-1.93878e-06
1.61761e-06
-6.7237e-07
-1.84039e-06
1.40936e-06
-7.37036e-07
-1.7173e-06
1.17029e-06
-7.1751e-07
-1.57927e-06
9.28741e-07
-6.33883e-07
-1.4408e-06
7.1535e-07
-5.06538e-07
-1.31489e-06
5.454e-07
-3.50503e-07
-1.21109e-06
4.19305e-07
-1.79318e-07
-1.14203e-06
3.40525e-07
-1.09612e-06
2.9799e-07
-2.39377e-07
-2.6125e-06
1.56771e-06
-4.37509e-07
-2.51709e-06
1.46593e-06
-5.66496e-07
-2.37644e-06
1.27169e-06
-6.18349e-07
-2.20613e-06
1.04748e-06
-5.98331e-07
-2.0179e-06
8.21397e-07
-5.24391e-07
-1.82534e-06
6.19463e-07
-4.14072e-07
-1.65428e-06
4.6298e-07
-2.83555e-07
-1.51246e-06
3.48843e-07
-1.45621e-07
-1.41341e-06
2.74803e-07
-1.35652e-06
2.38194e-07
-1.7242e-07
-3.11734e-06
1.28386e-06
-3.14695e-07
-3.00091e-06
1.19754e-06
-4.04107e-07
-2.82454e-06
1.03369e-06
-4.36365e-07
-2.60633e-06
8.38798e-07
-4.1551e-07
-2.3638e-06
6.40251e-07
-3.55382e-07
-2.12076e-06
4.67367e-07
-2.75368e-07
-1.89862e-06
3.31931e-07
-1.85651e-07
-1.71927e-06
2.38029e-07
-9.52688e-08
-1.58998e-06
1.78152e-07
-1.52398e-06
1.50529e-07
-7.89957e-08
-3.50529e-06
9.16505e-07
-1.50961e-07
-3.37191e-06
8.55543e-07
-1.9421e-07
-3.15954e-06
7.29341e-07
-2.00773e-07
-2.89493e-06
5.68792e-07
-1.78343e-07
-2.59556e-06
4.04831e-07
-1.37846e-07
-2.29789e-06
2.63202e-07
-9.50277e-08
-2.02299e-06
1.59404e-07
-5.91626e-08
-1.80229e-06
9.27867e-08
-3.03891e-08
-1.64551e-06
5.48697e-08
-1.57175e-06
3.73527e-08
2.7888e-08
-3.78246e-06
5.379e-07
3.71422e-08
-3.64711e-06
5.25472e-07
4.5514e-08
-3.38801e-06
4.23565e-07
7.20292e-08
-3.07533e-06
2.73213e-07
1.01526e-07
-2.7096e-06
1.29897e-07
1.21768e-07
-2.34118e-06
1.29318e-08
1.19555e-07
-2.00121e-06
-6.08001e-08
9.11308e-08
-1.73434e-06
-8.94799e-08
4.81449e-08
-1.55811e-06
-9.39278e-08
-1.47861e-06
-9.23558e-08
6.7733e-08
-3.84504e-06
2.64635e-07
1.38343e-07
-3.72156e-06
2.24875e-07
2.17466e-07
-3.46917e-06
1.37013e-07
3.00186e-07
-3.14756e-06
1.53449e-08
3.66305e-07
-2.72507e-06
-1.32819e-07
3.79293e-07
-2.24969e-06
-2.47948e-07
3.32339e-07
-1.82244e-06
-2.9014e-07
2.37903e-07
-1.50972e-06
-2.74014e-07
1.21873e-07
-1.32527e-06
-2.39181e-07
-1.25233e-06
-2.06739e-07
1.92161e-07
-3.41892e-06
-1.19009e-06
4.23983e-07
-3.33302e-06
-1.28663e-06
6.56571e-07
-3.02756e-06
-1.26586e-06
8.32513e-07
-2.70264e-06
-1.11154e-06
8.61792e-07
-2.15826e-06
-1.03937e-06
7.72613e-07
-1.5303e-06
-9.46272e-07
5.95386e-07
-1.00021e-06
-7.59742e-07
3.74745e-07
-6.70682e-07
-5.51461e-07
1.63885e-07
-5.24231e-07
-3.76619e-07
-5.14337e-07
-2.47613e-07
5.58325e-07
-4.22095e-11
-2.30082e-06
9.1829e-07
-4.84548e-07
-2.07253e-06
1.13704e-06
-3.9203e-07
-1.96968e-06
1.42227e-06
-1.3579e-07
-2.13296e-06
1.49243e-06
-3.06725e-07
-2.265e-06
1.24268e-06
-1.42266e-07
-2.02413e-06
8.44737e-07
1.4698e-09
-1.59419e-06
4.48217e-07
-2.93721e-08
-9.00567e-07
1.56085e-07
-6.0142e-08
-4.54428e-07
-3.46696e-08
-2.55124e-07
1.34589e-12
-4.48698e-13
-3.27169e-13
2.59848e-08
-7.05831e-13
-4.18244e-13
1.78086e-08
-6.48197e-12
-1.52694e-12
2.53906e-09
-2.86195e-11
-8.87177e-14
5.69028e-08
-5.15866e-12
-5.65036e-13
1.42337e-07
-3.53662e-11
-1.22789e-12
1.88083e-07
-1.08871e-09
-1.07328e-07
1.15241e-07
-3.83814e-09
-1.87076e-07
1.68218e-08
1.68864e-09
-1.19766e-07
-9.08182e-10
-3.32698e-08
8.54556e-14
-4.65707e-13
-1.85928e-12
1.36877e-13
-1.85857e-14
-2.29991e-12
3.47414e-13
-3.04052e-14
-8.41581e-12
6.40623e-13
-2.10745e-11
-1.09535e-11
4.4849e-13
-4.36269e-12
-5.05397e-12
8.19115e-13
-3.96735e-11
-2.23321e-12
8.81417e-12
-1.03379e-11
-5.38254e-13
-9.86543e-10
-1.03378e-09
2.95957e-10
-7.97095e-10
4.27358e-10
1.32681e-09
1.9124e-10
-2.76717e-09
1.88575e-14
-2.45309e-12
-6.59151e-13
-1.27959e-13
2.69181e-12
-4.80258e-12
-6.03059e-12
1.21501e-12
-5.14029e-12
-1.94521e-11
9.65468e-11
-1.61682e-11
-9.35456e-11
6.90856e-11
-7.22577e-12
-1.80499e-10
7.97426e-11
1.75674e-11
-1.09208e-10
8.63622e-11
3.42038e-11
-3.15189e-10
-5.40002e-11
2.53026e-11
-1.5622e-10
3.26114e-11
3.1213e-10
1.8395e-11
-3.95804e-11
-1.54983e-11
2.24876e-11
-1.97129e-11
-9.82145e-11
1.09279e-10
-3.73701e-11
-1.28363e-10
1.0294e-10
1.49314e-11
-1.08879e-10
2.35142e-11
4.63098e-11
-4.26339e-11
-1.45061e-12
5.64336e-11
-2.46314e-11
-3.45595e-12
3.3429e-11
-7.75414e-12
-2.43794e-12
1.54302e-11
-2.24953e-11
-1.28628e-12
2.70511e-12
-8.97587e-12
1.77055e-12
1.97965e-11
8.33497e-13
5.59614e-12
-5.56659e-11
1.03755e-10
3.66225e-11
-6.95393e-11
9.23028e-11
6.64168e-11
-2.74009e-11
6.5908e-12
5.93414e-11
-1.13776e-12
-8.12473e-14
1.48397e-11
-1.1605e-13
-3.16432e-14
6.71152e-13
-3.64534e-13
-1.98884e-14
1.99556e-13
-4.20374e-13
-1.40943e-14
4.42572e-14
-1.0036e-12
-2.54463e-14
2.01714e-13
-2.81567e-13
5.61051e-14
9.19295e-13
2.0833e-14
4.12071e-13
-1.60348e-12
9.46964e-13
5.09373e-11
7.55696e-14
1.64894e-13
3.76614e-11
5.31618e-14
-1.33445e-13
2.73302e-12
2.38105e-16
-1.56552e-15
4.91306e-14
-1.59717e-15
-6.04617e-17
9.45116e-16
-5.66029e-15
-7.34198e-17
6.07838e-16
-7.46751e-15
-5.16926e-17
1.48354e-15
-2.75393e-14
-4.2707e-16
4.57794e-15
-5.29105e-15
1.23163e-15
2.65126e-14
2.97706e-16
1.09923e-14
3.03905e-13
1.71067e-14
8.6876e-13
1.3519e-13
1.91892e-15
3.91375e-13
1.29252e-15
-9.61235e-16
1.38053e-14
-3.23091e-18
-6.73037e-18
1.05702e-16
-1.60838e-17
7.04667e-19
3.23133e-18
-5.05096e-17
2.84116e-19
8.57381e-18
-9.13126e-17
-2.94524e-18
2.41639e-17
-4.87494e-16
-9.37857e-18
8.08021e-17
-6.61544e-17
2.64418e-17
4.72989e-16
-2.10311e-17
1.41934e-16
4.17246e-15
4.72974e-17
1.70083e-14
1.05939e-15
-5.33713e-18
5.6156e-15
1.72143e-18
-2.78063e-18
1.58296e-16
-1.43776e-19
1.16984e-18
1.49866e-18
-2.72896e-19
6.93393e-19
3.37285e-19
-6.64717e-19
4.99185e-19
3.69763e-19
-1.35742e-18
5.11259e-19
7.59468e-19
-8.6476e-18
9.01211e-19
1.8515e-18
-9.0581e-19
1.98502e-18
8.35088e-18
3.9298e-19
1.7833e-18
2.61994e-17
-3.77302e-18
7.41e-17
2.62343e-18
-1.5043e-18
2.85481e-17
-2.58048e-20
3.40166e-19
7.57344e-19
-1.12567e-19
7.43812e-19
3.58403e-19
-1.1636e-19
5.50911e-19
1.47879e-19
-1.10893e-19
3.08164e-19
8.74904e-20
-1.25335e-19
1.80076e-19
7.67373e-20
-2.37028e-19
1.69724e-19
1.1225e-19
-3.08827e-20
2.00177e-19
2.26779e-19
4.21823e-20
5.62768e-20
2.50015e-19
7.38699e-19
3.34976e-19
1.30801e-20
2.7707e-19
1.08796e-19
-9.96373e-21
7.2094e-20
1.28417e-19
-2.03398e-20
3.30203e-20
4.09758e-20
-1.97937e-20
2.11173e-20
3.61405e-20
-1.45612e-20
1.23591e-20
2.17882e-20
-7.832e-21
7.6241e-21
1.12437e-20
-7.30712e-21
5.24277e-21
4.41205e-21
-6.27097e-22
6.85114e-21
4.12949e-21
1.1467e-21
3.16614e-22
-4.74791e-07
-7.20358e-07
3.13244e-06
-8.44181e-07
-6.97915e-07
2.90272e-06
-1.08196e-06
-6.7514e-07
2.53889e-06
-1.17413e-06
-6.41941e-07
2.10312e-06
-1.13485e-06
-6.02969e-07
1.66858e-06
-9.96704e-07
-5.60369e-07
1.29197e-06
-7.92138e-07
-5.18764e-07
9.91832e-07
-5.46048e-07
-4.83723e-07
7.7104e-07
-2.768e-07
-4.61813e-07
6.36699e-07
-4.41434e-07
5.5606e-07
-4.03512e-07
-1.4395e-06
2.86736e-06
-7.23164e-07
-1.38734e-06
2.64569e-06
-9.26233e-07
-1.31949e-06
2.28486e-06
-1.00192e-06
-1.23659e-06
1.87051e-06
-9.64083e-07
-1.14558e-06
1.46223e-06
-8.42451e-07
-1.05119e-06
1.11498e-06
-6.66604e-07
-9.6436e-07
8.44831e-07
-4.57346e-07
-8.94112e-07
6.47606e-07
-2.31596e-07
-8.47832e-07
5.26377e-07
-8.09871e-07
4.5908e-07
-3.81836e-07
-2.12688e-06
2.7945e-06
-6.90551e-07
-2.07902e-06
2.618e-06
-8.90969e-07
-1.96988e-06
2.26016e-06
-9.63487e-07
-1.83206e-06
1.83828e-06
-9.22365e-07
-1.68295e-06
1.42499e-06
-8.00218e-07
-1.5344e-06
1.07641e-06
-6.28976e-07
-1.39627e-06
8.06066e-07
-4.30496e-07
-1.28352e-06
6.10236e-07
-2.18502e-07
-1.21e-06
4.90702e-07
-1.15603e-06
4.25645e-07
-3.26187e-07
-2.73608e-06
2.50775e-06
-5.98184e-07
-2.73026e-06
2.38917e-06
-7.70523e-07
-2.58573e-06
2.05988e-06
-8.29395e-07
-2.38975e-06
1.66404e-06
-7.87445e-07
-2.17634e-06
1.27283e-06
-6.77118e-07
-1.96972e-06
9.44457e-07
-5.27841e-07
-1.77398e-06
6.9142e-07
-3.57927e-07
-1.61759e-06
5.12996e-07
-1.8173e-07
-1.51069e-06
3.99298e-07
-1.44202e-06
3.42459e-07
-2.37357e-07
-3.20729e-06
2.01339e-06
-4.54147e-07
-3.27581e-06
1.95988e-06
-5.84105e-07
-3.10925e-06
1.68716e-06
-6.22992e-07
-2.86403e-06
1.35196e-06
-5.81917e-07
-2.59362e-06
1.01646e-06
-4.86994e-07
-2.32306e-06
7.25785e-07
-3.68334e-07
-2.07007e-06
5.09362e-07
-2.44888e-07
-1.86038e-06
3.57374e-07
-1.23861e-07
-1.71704e-06
2.63469e-07
-1.63412e-06
2.1877e-07
-1.04768e-07
-3.54388e-06
1.39324e-06
-2.54909e-07
-3.66917e-06
1.39905e-06
-3.39924e-07
-3.51408e-06
1.21919e-06
-3.54958e-07
-3.23628e-06
9.56078e-07
-3.12153e-07
-2.9134e-06
6.81803e-07
-2.39714e-07
-2.57377e-06
4.41472e-07
-1.62725e-07
-2.25704e-06
2.69385e-07
-9.743e-08
-1.98762e-06
1.54727e-07
-4.78014e-08
-1.8004e-06
8.86051e-08
-1.70256e-06
5.79872e-08
5.6453e-08
-3.81397e-06
7.86431e-07
-1.12696e-08
-3.93668e-06
8.60782e-07
-5.96307e-08
-3.79835e-06
7.56276e-07
-4.92944e-08
-3.5079e-06
5.34543e-07
-2.17618e-09
-3.14006e-06
3.0946e-07
5.92917e-08
-2.73316e-06
1.10867e-07
9.22845e-08
-2.32301e-06
-2.78126e-08
8.65443e-08
-1.97409e-06
-9.7253e-08
4.87293e-08
-1.73319e-06
-1.23311e-07
-1.61743e-06
-1.28749e-07
1.28131e-07
-3.78401e-06
1.3469e-07
1.16649e-07
-3.88176e-06
1.83101e-07
1.2057e-07
-3.79417e-06
1.305e-07
1.78479e-07
-3.58292e-06
3.35381e-08
2.69873e-07
-3.27967e-06
-8.40479e-08
3.45872e-07
-2.82951e-06
-2.27267e-07
3.48738e-07
-2.28704e-06
-3.28647e-07
2.72133e-07
-1.81865e-06
-3.5252e-07
1.43294e-07
-1.50978e-06
-3.33478e-07
-1.37392e-06
-3.06715e-07
3.01634e-07
-3.05189e-06
-1.36273e-06
4.47725e-07
-2.86442e-06
-1.39901e-06
5.8037e-07
-2.73841e-06
-1.38193e-06
7.96686e-07
-2.82457e-06
-1.2991e-06
9.67109e-07
-2.85388e-06
-1.26773e-06
9.76104e-07
-2.43861e-06
-1.21947e-06
8.08192e-07
-1.68634e-06
-1.08026e-06
5.48784e-07
-1.04013e-06
-8.15958e-07
2.59944e-07
-6.72635e-07
-5.97791e-07
-5.40532e-07
-4.55631e-07
2.44737e-07
-1.81746e-11
-2.00132e-07
3.25296e-07
-2.11665e-11
-2.39944e-07
4.68889e-07
-2.70377e-11
-4.10631e-07
9.03752e-07
-1.05738e-11
-8.28042e-07
1.48652e-06
-2.9594e-12
-1.48079e-06
1.7447e-06
-2.07031e-12
-2.04572e-06
1.50499e-06
-3.25327e-07
-1.97963e-06
9.02666e-07
-4.55233e-08
-1.51524e-06
4.41187e-07
-2.84279e-08
-8.56859e-07
-7.5694e-08
-5.64145e-07
1.75257e-13
-2.39294e-12
-2.2862e-11
5.14728e-13
-2.28388e-12
-2.1993e-11
-4.05587e-14
-6.00793e-12
-2.39668e-11
3.02017e-13
-7.09931e-12
-7.30648e-12
4.61887e-13
-3.66156e-12
-3.36722e-12
8.72853e-13
-3.66224e-12
-1.84032e-12
8.94072e-08
-3.89238e-11
-1.54177e-12
1.86914e-07
-5.33176e-10
-8.88851e-08
1.41421e-07
-3.78568e-09
-1.92106e-07
-3.8484e-09
-1.37603e-07
-1.34245e-13
-1.66185e-13
-4.28682e-12
-4.69218e-13
-4.564e-13
-4.29957e-12
-1.4963e-13
-1.67417e-12
-1.47911e-11
1.20834e-12
-1.68811e-12
-2.13834e-11
5.87129e-13
-4.5501e-12
-8.29476e-12
6.98624e-13
-1.20359e-11
1.4866e-12
4.87176e-13
-4.48095e-11
-1.30614e-12
-2.01054e-10
-4.51547e-11
-3.52055e-13
-1.76925e-09
-8.92398e-10
-1.20531e-12
6.02937e-10
-1.07694e-08
-2.78876e-13
-4.26491e-13
-1.05824e-13
-2.35907e-12
-9.53966e-13
-1.93781e-13
-2.05939e-12
-8.26692e-12
-5.75016e-13
-5.03432e-12
-1.40172e-11
-4.87103e-12
-5.83675e-12
-9.85377e-12
-4.50157e-12
-9.83362e-12
-6.01909e-12
-8.6676e-13
-2.47118e-11
-2.85911e-12
-5.26797e-12
-2.53393e-11
8.31431e-12
2.49842e-11
-7.87493e-10
-4.57327e-11
1.18912e-10
4.54318e-11
-4.31435e-10
-2.61751e-12
-3.39397e-11
-3.01791e-13
-1.24733e-11
-3.68611e-11
-8.04964e-13
-1.50648e-11
-1.85922e-11
-3.86742e-13
-1.35215e-11
-5.12938e-12
7.88588e-13
-7.33287e-12
-5.22039e-13
1.73007e-12
-3.29574e-12
-1.9599e-13
9.63809e-13
-4.46723e-12
-2.68935e-14
-3.54807e-13
-2.64764e-12
-3.49782e-13
4.63688e-12
-3.95665e-11
-1.32961e-12
8.10336e-12
1.69252e-12
1.73051e-12
-1.39322e-11
-1.40595e-11
-3.8112e-13
-2.45296e-11
-1.18476e-11
2.45869e-13
-7.53659e-12
-2.48558e-12
4.53673e-13
-5.20888e-13
-4.73206e-14
1.41039e-13
-8.0665e-15
-9.33517e-16
1.95805e-14
-1.36223e-14
-6.6087e-16
1.05717e-14
-2.26107e-14
-1.78253e-15
8.38949e-15
-1.88031e-13
-8.05995e-15
2.25709e-14
-9.74165e-13
-2.57236e-14
3.80413e-13
2.60422e-14
8.54527e-13
-1.69052e-13
-2.06329e-13
3.90045e-13
-2.42417e-13
-3.58293e-13
3.02229e-13
-1.56586e-15
-1.76675e-14
4.5294e-14
-3.55851e-17
-4.54462e-17
3.97373e-16
-3.59111e-17
-5.61201e-19
2.52967e-17
-9.61394e-17
-9.04336e-19
2.24823e-17
-4.23551e-16
-6.57207e-18
4.83551e-18
-4.29988e-15
-1.30287e-16
4.10067e-16
-1.17491e-14
-4.21422e-16
7.81559e-15
2.26753e-16
1.99167e-14
5.68112e-14
-1.70919e-14
1.76151e-13
2.14751e-15
-6.12099e-15
2.58071e-14
-1.02242e-18
-1.78424e-16
3.7316e-16
-1.2383e-18
4.22953e-18
4.62307e-18
-2.80502e-18
2.86891e-18
2.32915e-18
-3.91233e-18
3.6038e-18
2.85945e-18
-6.79389e-18
2.20065e-18
2.37605e-18
-7.42116e-17
4.1315e-18
6.65868e-18
-9.39668e-17
-8.03509e-18
9.45555e-17
-2.53671e-18
2.02779e-16
5.01206e-16
-7.37388e-17
1.93291e-16
2.44832e-17
-3.47699e-17
1.37074e-17
-1.16548e-19
2.29531e-18
1.48173e-18
-6.43137e-19
4.64503e-18
2.30303e-18
-7.27728e-19
1.66177e-18
9.70944e-19
-6.09711e-19
7.98031e-19
7.21632e-19
-9.31995e-19
6.19208e-19
5.36715e-19
-1.72587e-18
1.45838e-18
8.91322e-19
-8.73212e-19
8.99216e-19
1.44164e-18
2.5114e-19
2.11033e-18
3.31695e-18
1.96444e-18
2.6542e-18
1.57928e-19
2.43633e-18
1.42831e-18
-1.25465e-19
1.44623e-18
7.04007e-19
-1.50525e-19
6.64265e-19
5.59426e-19
-1.16012e-19
2.24119e-19
1.90717e-19
-1.01691e-19
1.25427e-19
1.11364e-19
-1.31925e-19
1.1758e-19
9.12494e-20
-1.16756e-19
1.28907e-19
1.24564e-19
-2.33361e-20
1.62454e-19
1.21157e-19
4.53658e-20
5.26974e-20
1.48992e-19
5.73412e-19
1.13057e-18
4.62353e-21
7.86174e-19
1.97088e-18
-1.75095e-20
1.20743e-19
1.29015e-19
-1.24724e-20
4.06009e-20
3.60295e-20
-1.00824e-20
8.52199e-21
9.62158e-21
-9.33322e-21
7.5828e-21
7.24766e-21
-7.36353e-21
6.83666e-21
6.45827e-21
-5.62947e-21
6.79447e-21
4.25495e-21
-5.80488e-22
7.34682e-21
4.47451e-21
1.51716e-21
3.39775e-22
-7.02281e-07
-6.45614e-07
4.45164e-06
-1.21286e-06
-6.67836e-07
4.08114e-06
-1.50946e-06
-6.88621e-07
3.5241e-06
-1.59913e-06
-6.72026e-07
2.86481e-06
-1.50996e-06
-6.41835e-07
2.22125e-06
-1.29737e-06
-6.00087e-07
1.67947e-06
-1.01288e-06
-5.56367e-07
1.2637e-06
-6.89659e-07
-5.17858e-07
9.6568e-07
-3.46411e-07
-4.94713e-07
7.88163e-07
-4.70342e-07
6.79991e-07
-6.23901e-07
-1.38652e-06
4.22389e-06
-1.08847e-06
-1.44111e-06
3.88353e-06
-1.33803e-06
-1.42882e-06
3.27463e-06
-1.4005e-06
-1.34381e-06
2.60477e-06
-1.30866e-06
-1.24529e-06
1.97384e-06
-1.1142e-06
-1.14265e-06
1.46308e-06
-8.64193e-07
-1.04443e-06
1.08289e-06
-5.85813e-07
-9.62456e-07
8.13824e-07
-2.93744e-07
-9.13904e-07
6.53499e-07
-8.6886e-07
5.63854e-07
-5.55553e-07
-1.98041e-06
3.94329e-06
-1.05153e-06
-2.21209e-06
3.88496e-06
-1.3089e-06
-2.18918e-06
3.27789e-06
-1.3631e-06
-2.03721e-06
2.58589e-06
-1.26437e-06
-1.85824e-06
1.9392e-06
-1.06896e-06
-1.68401e-06
1.42238e-06
-8.23496e-07
-1.52518e-06
1.04134e-06
-5.55117e-07
-1.39376e-06
7.73164e-07
-2.7873e-07
-1.31121e-06
6.11622e-07
-1.24582e-06
5.23876e-07
-4.24089e-07
-2.44584e-06
3.42953e-06
-9.05737e-07
-2.92431e-06
3.58303e-06
-1.16264e-06
-2.9314e-06
3.059e-06
-1.2083e-06
-2.70862e-06
2.38111e-06
-1.11273e-06
-2.43938e-06
1.75842e-06
-9.29499e-07
-2.18471e-06
1.26192e-06
-7.06668e-07
-1.96146e-06
9.04875e-07
-4.71978e-07
-1.77111e-06
6.55649e-07
-2.37473e-07
-1.64966e-06
5.03247e-07
-1.56626e-06
4.25426e-07
-2.39686e-07
-2.90607e-06
2.79181e-06
-6.68118e-07
-3.50362e-06
2.96762e-06
-9.01429e-07
-3.55204e-06
2.54112e-06
-9.46033e-07
-3.28601e-06
1.97396e-06
-8.62321e-07
-2.94182e-06
1.43519e-06
-7.0257e-07
-2.61511e-06
9.96429e-07
-5.21427e-07
-2.31689e-06
6.83644e-07
-3.3801e-07
-2.06632e-06
4.69174e-07
-1.70163e-07
-1.89334e-06
3.39294e-07
-1.79433e-06
2.76674e-07
-2.49838e-08
-3.39607e-06
2.00907e-06
-3.5311e-07
-3.83631e-06
2.05988e-06
-5.63573e-07
-3.94588e-06
1.82351e-06
-6.07566e-07
-3.73245e-06
1.44651e-06
-5.40711e-07
-3.3537e-06
1.02683e-06
-4.1008e-07
-2.95873e-06
6.54464e-07
-2.77553e-07
-2.57776e-06
3.97731e-07
-1.63934e-07
-2.25376e-06
2.28549e-07
-7.91317e-08
-2.01762e-06
1.28086e-07
-1.8976e-06
8.21309e-08
1.2067e-07
-3.69251e-06
1.02754e-06
-2.23659e-08
-3.97698e-06
1.1448e-06
-1.93126e-07
-4.16104e-06
1.14249e-06
-2.39038e-07
-4.03977e-06
8.8797e-07
-1.82246e-07
-3.67936e-06
5.78417e-07
-7.24505e-08
-3.23133e-06
2.73705e-07
2.22197e-08
-2.76397e-06
6.37411e-08
5.86889e-08
-2.32241e-06
-6.5061e-08
4.10239e-08
-1.99809e-06
-1.25161e-07
-1.83592e-06
-1.494e-07
1.93309e-07
-3.75843e-06
1.41329e-08
2.1527e-07
-4.00141e-06
1.91471e-07
1.17073e-07
-4.17498e-06
2.48084e-07
9.45918e-08
-4.05923e-06
7.94076e-08
1.46293e-07
-3.80451e-06
-8.45023e-09
2.51441e-07
-3.43471e-06
-1.28188e-07
3.23755e-07
-2.90584e-06
-2.58718e-07
2.89429e-07
-2.29079e-06
-3.49486e-07
1.59115e-07
-1.82279e-06
-3.78139e-07
-1.60699e-06
-3.76227e-07
1.78843e-07
-1.93526e-06
8.7226e-08
3.60157e-07
-1.83436e-06
-2.43736e-07
5.20962e-07
-1.83658e-06
-7.64934e-07
7.53408e-07
-2.11191e-06
-1.0523e-06
1.0186e-06
-2.61236e-06
-1.18321e-06
1.15975e-06
-2.96077e-06
-1.21992e-06
1.08005e-06
-2.5772e-06
-1.16718e-06
7.63895e-07
-1.69718e-06
-9.84436e-07
3.75849e-07
-1.00484e-06
-7.6973e-07
-7.27663e-07
-6.5548e-07
8.25304e-09
-7.25802e-10
2.02363e-07
3.52107e-08
-5.72114e-10
1.65474e-07
7.61051e-08
-7.36833e-10
2.96967e-07
2.92277e-07
-2.20618e-10
-3.39272e-08
9.16476e-07
-7.75722e-11
-3.86258e-07
1.76454e-06
-2.41276e-11
-1.11304e-06
1.99393e-06
-6.91403e-12
-1.76763e-06
1.62567e-06
-3.32676e-07
-1.76764e-06
8.27145e-07
1.20259e-09
-1.24843e-06
-2.67118e-08
-9.98446e-07
-4.32376e-12
-4.21437e-11
-7.15879e-10
1.10327e-11
-3.4719e-11
-5.78352e-10
1.73202e-11
-7.49782e-11
-6.48152e-10
6.59027e-12
-8.44668e-11
-1.2037e-10
2.4277e-12
-5.08911e-11
-2.78656e-11
1.354e-12
-1.45978e-11
-7.74232e-12
1.54533e-12
-4.80783e-12
-1.64216e-12
1.0694e-07
-4.16542e-11
-1.28209e-12
2.50832e-07
-3.36586e-10
-1.41207e-07
-1.81655e-08
-3.31251e-07
-9.08408e-13
-1.23752e-12
-4.37335e-11
7.02271e-13
-7.89666e-13
-3.9812e-11
1.47264e-11
-4.66878e-12
-9.97475e-11
2.69823e-11
-1.38272e-11
-1.20088e-10
1.01804e-11
-1.36799e-11
-3.67505e-11
1.90425e-12
-6.79818e-12
-1.11216e-12
1.33005e-12
-4.67441e-12
-1.11841e-12
6.30318e-13
-4.31191e-11
-7.32793e-13
-3.49548e-10
-1.37405e-12
-8.48921e-13
1.01409e-09
-3.03012e-08
-4.02475e-14
-6.67417e-14
-9.59257e-13
-2.29672e-13
-9.5706e-14
-5.23935e-13
-3.14456e-12
-7.86174e-14
-2.24402e-12
-3.31831e-12
-9.73886e-13
8.30491e-12
-2.3479e-12
-1.74711e-12
1.47183e-13
-6.92367e-13
-9.34014e-13
-5.54453e-13
4.56886e-12
-4.89842e-13
3.57923e-13
-3.23653e-11
-3.07647e-12
8.75195e-12
-9.80131e-10
9.10839e-11
1.85305e-10
8.51204e-11
-7.44179e-10
-1.50458e-14
-2.56866e-13
-2.21019e-14
-3.43348e-14
-6.91379e-13
-6.09081e-14
-1.16702e-13
-3.51415e-13
-3.09563e-14
-1.44666e-13
-8.99508e-14
-6.71629e-14
-1.40366e-13
-1.84339e-14
7.23265e-15
-1.85288e-13
-1.10122e-14
8.68408e-14
5.15186e-13
-1.64878e-14
2.00914e-13
-1.75354e-11
-3.84359e-14
3.49306e-12
-7.2327e-11
-2.97799e-12
2.7838e-11
2.71629e-12
-1.58073e-11
-8.23358e-14
-5.08715e-13
-2.63289e-15
-1.82613e-13
-3.22309e-13
-6.88484e-15
-5.29873e-14
-2.20736e-14
-4.31069e-15
-1.37775e-15
-3.0515e-16
-1.08929e-16
-2.72627e-16
-2.04236e-17
7.3697e-17
-8.4681e-16
-2.50392e-17
1.71853e-16
-9.80862e-15
-7.00836e-18
8.15528e-16
-4.95365e-14
-1.9373e-15
1.5911e-14
-3.08092e-12
-1.80821e-14
4.09908e-13
1.70308e-14
3.48017e-13
1.57356e-14
-2.32999e-14
3.80118e-15
-3.56351e-15
-4.33455e-15
1.49393e-15
-8.30511e-17
-2.3842e-16
9.8529e-17
-8.88976e-19
-7.06625e-20
3.2538e-18
-1.41281e-18
1.86587e-19
4.6267e-19
-4.7441e-18
5.52666e-19
6.7316e-19
-2.35482e-18
1.78255e-18
3.70848e-18
-1.68472e-15
-1.09263e-17
1.30399e-16
-1.97469e-14
-5.64731e-17
6.89134e-15
5.16642e-18
1.55913e-14
3.17608e-15
1.91965e-15
-4.59063e-17
2.68202e-18
1.5508e-16
-1.05923e-16
-2.10009e-19
7.42367e-19
8.44049e-19
-1.1734e-18
7.00121e-19
3.6213e-19
-1.77702e-18
2.20008e-18
1.15662e-18
-1.81875e-18
2.50899e-18
1.32264e-18
-2.26674e-18
1.87591e-18
1.65812e-18
-2.76246e-17
2.06279e-18
3.1383e-18
-7.51157e-17
-3.31938e-18
6.05288e-17
-5.31266e-19
1.21075e-16
2.19173e-17
-1.05279e-17
5.58083e-17
4.7019e-20
2.55919e-18
5.18538e-18
-2.10248e-19
1.10458e-18
7.77953e-19
-4.6044e-19
1.38807e-18
5.13167e-19
-6.43342e-19
9.14298e-19
5.71918e-19
-4.94459e-19
8.15589e-19
5.78823e-19
-5.65715e-19
5.82385e-19
4.50428e-19
-7.87078e-19
6.53155e-19
5.81626e-19
-4.50911e-19
5.31936e-19
8.34701e-19
1.20113e-19
8.05507e-19
1.59197e-19
7.10749e-19
1.39149e-18
-5.29001e-20
2.41653e-18
1.81792e-18
-1.0607e-19
5.21617e-19
3.57629e-19
-8.21225e-20
2.53673e-19
1.92077e-19
-1.02291e-19
7.90881e-20
1.06718e-19
-8.94263e-20
9.83124e-20
9.79865e-20
-9.90615e-20
9.52144e-20
8.02351e-20
-8.27854e-20
1.22036e-19
9.71886e-20
-1.41769e-20
2.10787e-19
1.10138e-19
3.56282e-20
3.74851e-20
1.62828e-20
4.07997e-19
6.11285e-19
-2.59538e-20
8.35861e-19
1.53795e-18
-1.46358e-20
7.8984e-20
1.08027e-19
-2.55489e-21
1.91847e-20
1.95802e-20
-7.16406e-21
9.57863e-21
3.43855e-21
-7.40735e-21
6.85896e-21
5.18956e-21
-7.48859e-21
6.34998e-21
4.75335e-21
-8.45802e-21
8.57268e-21
6.47477e-21
-8.47301e-22
1.42167e-20
1.1802e-20
2.78549e-21
9.21342e-22
-9.36318e-07
-5.03028e-07
5.86217e-06
-1.70765e-06
-6.26678e-07
5.47915e-06
-2.14248e-06
-6.90769e-07
4.6497e-06
-2.22696e-06
-6.96741e-07
3.64604e-06
-2.04595e-06
-6.77854e-07
2.71809e-06