/*--------------------------------*- C++ -*----------------------------------*\
| =========                 |                                                 |
| \\      /  F ield         | OpenFOAM: The Open Source CFD Toolbox           |
|  \\    /   O peration     | Version:  2312                                  |
|   \\  /    A nd           | Website:  www.openfoam.com                      |
|    \\/     M anipulation  |                                                 |
\*---------------------------------------------------------------------------*/
FoamFile
{
    version     2.0;
    format      ascii;
    arch        "LSB;label=32;scalar=64";
    class       surfaceScalarField;
    location    "0.23";
    object      alphaPhi0.water;
}
// * * * * * * * * * * * * * * * * * * * * * * * * * * * * * * * * * * * * * //

dimensions      [0 3 -1 0 0 0 0];

oriented        oriented;

internalField   nonuniform List<scalar> 
22600
(
1.69115e-07
-3.37466e-07
1.68352e-07
3.32965e-07
-3.5785e-07
1.94e-07
4.72254e-07
-3.6422e-07
2.2493e-07
5.76475e-07
-3.80204e-07
2.75983e-07
6.33596e-07
-3.97362e-07
3.40241e-07
6.31299e-07
-4.12053e-07
4.14351e-07
5.61456e-07
-4.22668e-07
4.92511e-07
4.25521e-07
-4.28427e-07
5.64362e-07
2.34899e-07
-4.30336e-07
6.20958e-07
-4.32073e-07
6.51041e-07
1.41096e-07
-6.18591e-07
1.40029e-07
2.7725e-07
-6.55746e-07
1.61742e-07
3.95524e-07
-6.74314e-07
1.9182e-07
4.86005e-07
-7.11582e-07
2.40897e-07
5.37394e-07
-7.50908e-07
3.02158e-07
5.38943e-07
-7.8769e-07
3.74088e-07
4.82883e-07
-8.17851e-07
4.51243e-07
3.69215e-07
-8.37673e-07
5.22915e-07
2.06056e-07
-8.4711e-07
5.79932e-07
-8.53669e-07
6.09567e-07
1.35375e-07
-8.88318e-07
1.34352e-07
2.63183e-07
-9.40547e-07
1.56993e-07
3.77997e-07
-9.80438e-07
1.9131e-07
4.69224e-07
-1.04786e-06
2.45053e-07
5.25339e-07
-1.12136e-06
3.14336e-07
5.32806e-07
-1.19228e-06
3.97124e-07
4.80832e-07
-1.25161e-06
4.8573e-07
3.68531e-07
-1.29465e-06
5.69276e-07
2.05743e-07
-1.32199e-06
6.37671e-07
-1.33964e-06
6.73496e-07
1.10795e-07
-1.10884e-06
1.0973e-07
2.12109e-07
-1.17363e-06
1.31767e-07
3.11162e-07
-1.24935e-06
1.69857e-07
3.95778e-07
-1.36042e-06
2.27939e-07
4.52631e-07
-1.4822e-06
3.03991e-07
4.67889e-07
-1.60487e-06
3.97335e-07
4.2912e-07
-1.71034e-06
4.97507e-07
3.33002e-07
-1.79182e-06
5.93286e-07
1.87484e-07
-1.84934e-06
6.72865e-07
-1.88631e-06
7.15508e-07
6.62644e-08
-1.24011e-06
6.50035e-08
1.24278e-07
-1.31735e-06
8.57067e-08
1.94976e-07
-1.44462e-06
1.24572e-07
2.6406e-07
-1.61482e-06
1.8532e-07
3.20474e-07
-1.80738e-06
2.68759e-07
3.46325e-07
-2.00221e-06
3.71485e-07
3.26888e-07
-2.17425e-06
4.83345e-07
2.58444e-07
-2.31648e-06
5.93106e-07
1.48497e-07
-2.42425e-06
6.84856e-07
-2.48777e-06
7.31615e-07
-3.48876e-09
-1.23148e-06
-5.14318e-09
-1.50866e-09
-1.33117e-06
1.18405e-08
2.23753e-08
-1.51836e-06
4.98602e-08
6.89321e-08
-1.77509e-06
1.13709e-07
1.22317e-07
-2.06579e-06
2.05025e-07
1.60862e-07
-2.36521e-06
3.24453e-07
1.69432e-07
-2.64068e-06
4.57857e-07
1.41239e-07
-2.88048e-06
5.92193e-07
8.36934e-08
-3.06678e-06
7.00081e-07
-3.16711e-06
7.473e-07
-9.63878e-08
-1.03684e-06
-9.82537e-08
-1.68972e-07
-1.17408e-06
-8.45097e-08
-1.95056e-07
-1.44652e-06
-4.57582e-08
-1.73929e-07
-1.82262e-06
2.64067e-08
-1.17371e-07
-2.25805e-06
1.35705e-07
-5.58138e-08
-2.71082e-06
2.84055e-07
-8.44862e-09
-3.1408e-06
4.52759e-07
1.35553e-08
-3.51623e-06
6.13751e-07
1.77979e-08
-3.80488e-06
7.33854e-07
-3.94969e-06
7.89349e-07
-1.99132e-07
-6.36785e-07
-2.01003e-07
-3.60546e-07
-8.11659e-07
-2.01074e-07
-4.65314e-07
-1.17922e-06
-1.62588e-07
-4.95104e-07
-1.68999e-06
-1.02877e-07
-4.55398e-07
-2.28761e-06
-1.01529e-08
-3.80516e-07
-2.89901e-06
1.13343e-07
-3.03292e-07
-3.45247e-06
2.34503e-07
-2.1584e-07
-3.91215e-06
3.0857e-07
-9.76386e-08
-4.25976e-06
3.36818e-07
-4.45165e-06
3.94989e-07
-3.82702e-07
1.28248e-07
-3.83705e-07
-7.58496e-07
9.54107e-08
-4.72639e-07
-1.05527e-06
-1.27333e-07
-5.6895e-07
-1.22036e-06
-6.39275e-07
-6.77812e-07
-1.26624e-06
-1.28719e-06
-7.32061e-07
-1.25466e-06
-1.95061e-06
-7.12434e-07
-1.16544e-06
-2.53449e-06
-7.56262e-07
-9.14175e-07
-2.99441e-06
-9.00668e-07
-4.80118e-07
-3.3395e-06
-1.08357e-06
-3.55198e-06
-1.13916e-06
-4.64407e-07
-9.60604e-08
-4.65084e-07
-1.07878e-06
-1.07885e-07
-7.34132e-07
-1.50427e-06
2.96131e-08
-1.06066e-06
-1.67376e-06
7.86946e-08
-1.19084e-06
-1.67053e-06
2.53341e-08
-1.04051e-06
-1.60997e-06
-3.37654e-07
-8.35048e-07
-1.42947e-06
-7.32711e-07
-6.8012e-07
-1.09991e-06
-1.00186e-06
-6.57429e-07
-6.18386e-07
-1.23125e-06
-7.13404e-07
-1.3875e-06
-8.2568e-07
-5.45572e-08
6.34453e-10
-5.47035e-08
-2.32493e-07
-3.95629e-09
-8.68507e-08
-4.62066e-07
4.99317e-09
-7.21789e-08
-6.91759e-07
4.75547e-09
-3.69245e-10
-7.57026e-07
-2.97499e-11
1.3388e-07
-6.16133e-07
-2.76956e-11
2.33339e-07
-4.46826e-07
-1.59425e-11
-8.21874e-13
-3.15521e-07
-3.8586e-12
-8.6635e-11
-2.04741e-07
-1.82309e-12
3.07821e-07
-1.31947e-12
2.73982e-07
-1.15941e-09
8.40534e-10
-1.18939e-09
-9.63e-09
5.91138e-10
2.91225e-09
-4.8681e-09
2.26705e-10
-7.18297e-13
-3.35353e-12
-1.17528e-10
-3.5315e-12
-1.81207e-12
-5.15771e-12
-3.09117e-11
-8.03931e-13
-3.20444e-12
-2.60399e-11
-1.33804e-13
-1.65675e-12
-1.53312e-11
3.31142e-14
-1.13434e-13
-4.46048e-12
-6.31016e-14
-2.03318e-13
-1.93357e-12
-3.3043e-13
-1.39495e-12
2.22165e-10
1.01395e-10
2.28437e-10
-6.3219e-11
4.49525e-11
7.0362e-10
-3.72783e-11
-4.83293e-13
2.87763e-10
-2.36027e-11
-3.31616e-12
2.21732e-12
-3.19707e-11
2.98818e-11
-1.00944e-10
-1.83032e-11
5.1615e-11
-9.82379e-11
-8.59596e-13
5.41039e-11
-3.92836e-12
-1.12697e-13
5.96984e-12
-7.37979e-12
-6.9853e-14
3.06459e-12
-3.85914e-12
1.72507e-12
-2.59759e-12
3.39584e-11
6.2418e-12
3.51316e-11
1.54341e-11
1.93098e-12
5.10201e-11
1.24439e-12
-6.00311e-13
2.26946e-11
-1.98444e-13
-8.47906e-14
6.4927e-12
-1.16979e-12
6.53092e-14
6.07881e-12
7.01815e-13
5.07351e-12
-4.10596e-12
2.32583e-12
4.07813e-11
-2.10927e-11
-5.17992e-13
5.83524e-11
-4.46915e-11
-3.54847e-13
4.04059e-11
-5.28223e-11
3.0449e-11
-5.00843e-11
2.34316e-12
1.75271e-13
2.40059e-12
1.48501e-12
5.1567e-14
2.19412e-12
1.26981e-13
-4.07372e-14
8.51061e-13
1.02573e-14
-2.68598e-15
5.09883e-14
5.85859e-14
3.59876e-16
7.10199e-14
1.3823e-12
1.47179e-14
7.75226e-13
8.61615e-12
3.84509e-13
7.56612e-12
7.61562e-12
2.34299e-11
1.19273e-11
4.59485e-12
2.44084e-11
8.32783e-13
3.03439e-11
-2.97961e-11
6.78191e-14
2.10697e-15
6.82448e-14
5.0999e-14
9.75882e-16
5.02761e-14
3.27747e-15
-8.36868e-16
8.73977e-15
4.9968e-16
-3.22499e-17
3.90408e-16
5.69104e-16
1.39627e-19
3.00105e-16
7.81851e-15
4.98424e-17
7.52534e-15
1.70517e-13
8.3631e-16
2.23468e-13
1.86542e-12
6.67679e-14
4.14912e-12
1.88657e-12
4.5923e-13
6.5408e-12
1.22106e-12
1.19264e-11
7.31821e-16
2.30325e-17
7.1572e-16
8.85247e-16
2.24805e-17
4.92033e-16
3.3538e-17
-1.06156e-17
4.59257e-17
2.96568e-18
5.28388e-19
1.2511e-18
2.22763e-18
2.97763e-19
4.22292e-19
4.84845e-17
-3.77522e-19
5.93783e-18
3.47648e-16
2.5122e-18
5.7533e-16
4.28579e-15
1.90842e-16
6.33725e-14
2.05188e-14
7.57044e-16
1.56016e-13
2.21465e-15
1.66251e-13
6.21455e-18
2.61766e-19
5.81076e-18
1.23018e-17
1.15017e-18
4.97966e-18
5.08369e-19
5.32521e-19
4.10956e-19
2.82561e-19
2.89536e-19
3.24452e-20
2.86795e-19
2.727e-19
1.58074e-20
4.41408e-19
2.71497e-19
3.1456e-20
2.59827e-18
3.71752e-20
3.66123e-19
9.06308e-17
1.65408e-19
1.13002e-16
3.02326e-16
8.08527e-19
5.68415e-16
1.24767e-18
1.93757e-15
7.47526e-20
3.63338e-20
6.57782e-20
2.7308e-19
1.64877e-19
1.03755e-19
1.44348e-19
1.95583e-19
3.59731e-20
1.46772e-19
1.709e-19
1.64003e-20
2.18187e-19
2.29032e-19
1.05958e-20
2.51169e-19
2.41776e-19
7.45505e-21
4.90396e-20
3.34334e-20
3.221e-21
3.46654e-19
4.49886e-20
5.07039e-20
9.4209e-19
6.00877e-21
3.98222e-19
4.98708e-21
1.17383e-18
1.27034e-21
1.04099e-21
3.02706e-22
1.1612e-20
4.36942e-21
4.15476e-21
1.46095e-20
3.0297e-21
5.25171e-21
2.13567e-20
2.48882e-21
7.88453e-21
3.44205e-20
2.4415e-21
1.11117e-20
3.70744e-20
2.00392e-21
1.04275e-20
2.36709e-20
1.36317e-21
1.6943e-20
4.75548e-20
4.01559e-21
3.0714e-20
1.07217e-20
1.5461e-21
6.21502e-21
4.47011e-21
1.67983e-20
1.94737e-07
-3.58059e-07
3.31673e-07
3.86618e-07
-3.83338e-07
3.85458e-07
5.55094e-07
-3.9204e-07
4.48494e-07
6.88929e-07
-4.13332e-07
5.5548e-07
7.71915e-07
-4.38652e-07
6.95906e-07
7.85154e-07
-4.62775e-07
8.63887e-07
7.11919e-07
-4.8349e-07
1.04924e-06
5.47957e-07
-4.98197e-07
1.22652e-06
3.03753e-07
-5.06347e-07
1.37151e-06
-5.12972e-07
1.45271e-06
1.62785e-07
-6.56106e-07
2.75291e-07
3.22323e-07
-7.01601e-07
3.20467e-07
4.64937e-07
-7.25211e-07
3.82376e-07
5.7955e-07
-7.71609e-07
4.84562e-07
6.52205e-07
-8.27111e-07
6.17962e-07
6.6686e-07
-8.83468e-07
7.80126e-07
6.08635e-07
-9.35836e-07
9.61814e-07
4.72346e-07
-9.77006e-07
1.13801e-06
2.64575e-07
-1.00601e-06
1.28736e-06
-1.03243e-06
1.37532e-06
1.57965e-07
-9.40977e-07
2.61257e-07
3.09451e-07
-1.00388e-06
3.07791e-07
4.49302e-07
-1.05044e-06
3.7669e-07
5.66414e-07
-1.13146e-06
4.87795e-07
6.45579e-07
-1.22806e-06
6.36118e-07
6.67279e-07
-1.32624e-06
8.18194e-07
6.13417e-07
-1.41776e-06
1.02151e-06
4.77307e-07
-1.4949e-06
1.22328e-06
2.65597e-07
-1.55596e-06
1.39933e-06
-1.60794e-06
1.49559e-06
1.32862e-07
-1.17406e-06
2.0995e-07
2.57018e-07
-1.25094e-06
2.54668e-07
3.81151e-07
-1.3347e-06
3.29984e-07
4.91265e-07
-1.46187e-06
4.48231e-07
5.70891e-07
-1.61054e-06
6.06849e-07
5.99672e-07
-1.76438e-06
8.06701e-07
5.58076e-07
-1.90852e-06
1.02986e-06
4.36868e-07
-2.0352e-06
1.2548e-06
2.4429e-07
-2.13965e-06
1.44914e-06
-2.22312e-06
1.55455e-06
8.69993e-08
-1.3177e-06
1.21641e-07
1.65658e-07
-1.40692e-06
1.63029e-07
2.603e-07
-1.54473e-06
2.39962e-07
3.54557e-07
-1.73207e-06
3.61263e-07
4.32938e-07
-1.95034e-06
5.30171e-07
4.70751e-07
-2.17419e-06
7.43482e-07
4.4748e-07
-2.38834e-06
9.86442e-07
3.53752e-07
-2.57961e-06
1.23125e-06
1.98151e-07
-2.73829e-06
1.43909e-06
-2.85159e-06
1.53743e-06
1.3316e-08
-1.33155e-06
-4.59927e-09
3.34462e-08
-1.4457e-06
3.04891e-08
8.42625e-08
-1.65165e-06
1.05959e-07
1.57884e-07
-1.92308e-06
2.31098e-07
2.3393e-07
-2.2339e-06
4.1254e-07
2.82732e-07
-2.54695e-06
6.48401e-07
2.8267e-07
-2.84762e-06
9.172e-07
2.23381e-07
-3.11424e-06
1.18611e-06
1.22308e-07
-3.33885e-06
1.40171e-06
-3.47989e-06
1.47993e-06
-8.27386e-08
-1.17412e-06
-1.72947e-07
-1.3494e-07
-1.33963e-06
-1.38382e-07
-1.32479e-07
-1.63875e-06
-6.11235e-08
-7.90202e-08
-2.02781e-06
7.76801e-08
-1.26796e-10
-2.455e-06
2.77914e-07
7.39381e-08
-2.87056e-06
5.33606e-07
1.17895e-07
-3.23677e-06
7.97956e-07
1.14324e-07
-3.54489e-06
1.04798e-06
7.21214e-08
-3.79773e-06
1.23495e-06
-3.95556e-06
1.32475e-06
-1.99717e-07
-8.10824e-07
-3.64657e-07
-3.58504e-07
-1.0203e-06
-3.61671e-07
-4.35329e-07
-1.40332e-06
-3.2124e-07
-4.16008e-07
-1.91297e-06
-2.37067e-07
-3.12117e-07
-2.468e-06
-1.01012e-07
-1.79247e-07
-2.94847e-06
5.85528e-08
-7.07114e-08
-3.29814e-06
1.87681e-07
-1.04878e-08
-3.56211e-06
2.66112e-07
1.87413e-08
-3.78993e-06
3.00555e-07
-3.96164e-06
4.03669e-07
-4.7201e-07
9.71082e-08
-7.62725e-07
-8.73169e-07
-4.97528e-08
-8.74748e-07
-1.13367e-06
-4.00777e-07
-1.11376e-06
-1.17663e-06
-9.5359e-07
-1.31026e-06
-1.02755e-06
-1.45793e-06
-1.38472e-06
-8.15193e-07
-1.71771e-06
-1.25207e-06
-6.50455e-07
-1.79133e-06
-1.06177e-06
-5.12546e-07
-1.85247e-06
-9.58475e-07
-3.07434e-07
-1.95372e-06
-1.01565e-06
-2.14848e-06
-1.14421e-06
-7.32818e-07
-1.08131e-07
-1.08644e-06
-1.14297e-06
-4.24071e-08
-1.14198e-06
-1.27616e-06
-5.52559e-09
-1.40219e-06
-1.17603e-06
-8.04646e-08
-1.20899e-06
-9.27905e-07
-1.44002e-07
-6.56712e-07
-6.37971e-07
-2.20394e-07
-1.97451e-07
-4.29081e-07
-1.50352e-10
-1.52707e-08
-2.72576e-07
-4.68197e-09
1.51309e-07
-1.6585e-07
-3.05734e-07
4.17994e-07
-2.72586e-07
2.63064e-07
-8.59936e-08
-3.96443e-09
-2.33805e-07
-6.64618e-08
-7.21493e-09
-6.73452e-08
-3.94394e-09
-2.7325e-11
-4.87489e-12
-3.23387e-09
-3.06544e-11
1.17318e-09
-1.34906e-08
-2.28859e-11
8.58461e-11
-1.28421e-11
-4.57162e-10
-5.53491e-12
-1.25347e-10
-2.05655e-11
-8.17247e-12
-4.84701e-09
-5.01055e-11
-5.97077e-12
-2.70972e-09
-4.82501e-11
-9.0105e-12
-2.65838e-11
-5.69859e-12
3.09483e-09
5.84992e-10
-9.84426e-09
-1.1673e-12
-1.20473e-09
-1.33375e-12
-3.0086e-12
-2.50818e-11
-1.38269e-12
-1.31247e-11
-2.2717e-11
-6.63136e-12
-3.66839e-12
-1.61305e-11
-5.77362e-11
6.08369e-12
-1.0471e-10
-3.93022e-10
9.38242e-12
-2.07222e-11
-1.90142e-11
4.61748e-12
-7.08384e-12
-4.30925e-11
1.07722e-12
-4.71324e-12
-4.24785e-11
-2.45415e-12
-2.50713e-11
7.01611e-10
4.35739e-11
-5.90318e-11
1.18494e-10
-5.31491e-11
1.16191e-10
2.86639e-11
1.66504e-10
2.45723e-11
-3.02129e-11
1.36095e-10
9.1595e-12
2.72905e-11
2.34181e-11
1.34541e-10
4.33794e-11
4.37948e-12
8.03993e-11
9.71888e-12
-1.55616e-11
1.76574e-10
3.89733e-12
-2.77106e-11
-1.29139e-10
1.7307e-12
-9.69237e-12
-1.05117e-11
-1.95504e-12
-2.18626e-12
5.02354e-11
1.84287e-12
1.61715e-11
2.35614e-11
-1.27323e-12
2.34311e-11
6.29099e-11
6.76662e-13
5.35274e-11
5.97686e-11
-9.40536e-13
4.87495e-11
1.02832e-10
-3.44368e-13
1.40917e-11
1.65055e-10
-2.45207e-13
1.21402e-11
1.66334e-10
2.13786e-12
2.50105e-11
1.44019e-10
1.55366e-11
-1.19931e-11
6.03403e-11
2.00647e-11
-2.93104e-11
-2.7181e-11
-2.86821e-11
2.1506e-12
4.98621e-14
1.5042e-12
1.43484e-12
-9.54793e-15
1.46686e-12
1.75565e-12
3.21657e-14
1.07126e-12
4.73557e-13
-2.36734e-14
4.17757e-13
1.39598e-13
-4.63559e-15
8.11933e-14
3.80215e-12
-7.52738e-15
1.92645e-13
6.67991e-11
-6.45582e-14
3.56762e-12
1.72419e-10
2.10026e-12
1.55412e-11
1.42151e-10
3.11553e-11
2.2432e-11
3.99946e-11
-4.69583e-13
4.95492e-14
9.60869e-16
5.06741e-14
4.07097e-14
5.04193e-16
4.09011e-14
3.7284e-14
3.06767e-16
4.04487e-14
6.30709e-15
-3.60199e-16
8.1156e-15
1.37861e-15
-4.98312e-17
9.00847e-16
1.25696e-15
-6.69719e-18
3.40447e-16
1.5867e-13
-2.79986e-16
2.31113e-15
9.91992e-12
-5.809e-14
7.34566e-13
4.84195e-11
5.51248e-14
2.27615e-11
1.83681e-12
4.22283e-11
4.97303e-16
2.19926e-17
8.54134e-16
5.91994e-16
2.60037e-17
5.76593e-16
4.41094e-16
6.24218e-18
3.78001e-16
5.3028e-17
-4.9098e-18
4.81243e-17
8.26667e-18
1.65451e-18
3.13796e-18
6.25995e-18
1.27915e-18
1.29808e-18
9.32464e-17
1.31186e-18
5.50451e-18
3.30565e-15
-1.08992e-16
2.92347e-15
4.56266e-14
-1.63063e-16
1.804e-13
1.73818e-15
4.28924e-13
5.29121e-18
1.15027e-18
1.12758e-17
1.07317e-17
3.86087e-18
1.00325e-17
5.47024e-18
2.32816e-18
4.66868e-18
1.02631e-18
1.22574e-18
6.60929e-19
9.37234e-19
1.22772e-18
2.17678e-19
9.03672e-19
1.35758e-18
1.19015e-19
1.05892e-18
1.4142e-18
2.0201e-19
9.55885e-18
5.10105e-20
1.5554e-18
3.08152e-16
-7.06055e-19
2.26498e-16
-1.35915e-19
2.99548e-15
1.18195e-19
1.67043e-19
2.41031e-19
5.67243e-19
8.63281e-19
5.06743e-19
4.57104e-19
7.00569e-19
2.93364e-19
4.52027e-19
7.29325e-19
1.73017e-19
5.95832e-19
9.1438e-19
1.27069e-19
8.42283e-19
1.38854e-18
1.12366e-19
8.37485e-19
1.53599e-18
1.55477e-19
1.78554e-19
3.67467e-19
6.55598e-20
1.62504e-18
1.06867e-19
5.6933e-19
-5.22518e-20
3.39248e-18
5.36288e-21
9.6933e-21
4.22738e-21
5.0653e-20
4.24658e-20
4.6092e-20
7.17725e-20
3.48827e-20
5.955e-20
9.7753e-20
3.01699e-20
8.35532e-20
1.56227e-19
3.18081e-20
1.20959e-19
2.06037e-19
3.66384e-20
1.6712e-19
1.97501e-19
4.52593e-20
1.41957e-19
1.45704e-19
5.24469e-20
3.05558e-19
4.18769e-20
2.13458e-20
1.05467e-19
3.35086e-20
1.57421e-19
2.25891e-07
-3.64493e-07
4.70275e-07
4.49946e-07
-3.92102e-07
5.53505e-07
6.47508e-07
-3.94612e-07
6.45544e-07
8.06896e-07
-4.09924e-07
8.06017e-07
9.09145e-07
-4.2605e-07
1.01971e-06
9.31176e-07
-4.38632e-07
1.28049e-06
8.50709e-07
-4.46065e-07
1.57577e-06
6.56317e-07
-4.49975e-07
1.87089e-06
3.63233e-07
-4.53242e-07
2.11784e-06
-4.60781e-07
2.25944e-06
1.92953e-07
-6.74791e-07
3.92636e-07
3.84274e-07
-7.25348e-07
4.62392e-07
5.56035e-07
-7.37022e-07
5.53024e-07
6.97114e-07
-7.73289e-07
7.06847e-07
7.9043e-07
-8.1357e-07
9.12166e-07
8.14123e-07
-8.50709e-07
1.16851e-06
7.46026e-07
-8.78832e-07
1.46268e-06
5.75882e-07
-9.02111e-07
1.76029e-06
3.24757e-07
-9.24392e-07
2.00964e-06
-9.43287e-07
2.15844e-06
1.92401e-07
-9.81094e-07
3.75159e-07
3.78607e-07
-1.05065e-06
4.46885e-07
5.5233e-07
-1.08377e-06
5.49719e-07
7.01099e-07
-1.15283e-06
7.18564e-07
8.05306e-07
-1.22942e-06
9.47764e-07
8.38221e-07
-1.30019e-06
1.23476e-06
7.71962e-07
-1.36115e-06
1.57009e-06
5.99335e-07
-1.41312e-06
1.90691e-06
3.47619e-07
-1.4559e-06
2.18255e-06
-1.46838e-06
2.33954e-06
1.71052e-07
-1.25013e-06
3.07938e-07
3.321e-07
-1.33508e-06
3.78047e-07
4.93643e-07
-1.4062e-06
4.90868e-07
6.38958e-07
-1.52159e-06
6.71683e-07
7.49664e-07
-1.65263e-06
9.19348e-07
7.94377e-07
-1.77378e-06
1.23557e-06
7.42723e-07
-1.88773e-06
1.6081e-06
5.87943e-07
-1.98579e-06
1.98226e-06
3.51538e-07
-2.05996e-06
2.2896e-06
-2.03841e-06
2.44065e-06
1.25953e-07
-1.44552e-06
1.9107e-07
2.42446e-07
-1.5452e-06
2.56657e-07
3.78072e-07
-1.67656e-06
3.74701e-07
5.15961e-07
-1.86308e-06
5.64863e-07
6.31868e-07
-2.06487e-06
8.26501e-07
6.91287e-07
-2.25871e-06
1.16899e-06
6.59402e-07
-2.43901e-06
1.5696e-06
5.3076e-07
-2.59667e-06
1.97076e-06
3.18883e-07
-2.70441e-06
2.29542e-06
-2.62744e-06
2.40188e-06
5.16141e-08
-1.5193e-06
1.75734e-08
1.08956e-07
-1.65198e-06
7.99275e-08
2.07754e-07
-1.87333e-06
2.0393e-07
3.34058e-07
-2.163e-06
4.04713e-07
4.55517e-07
-2.46095e-06
6.87163e-07
5.29906e-07
-2.74111e-06
1.05642e-06
5.17337e-07
-2.98431e-06
1.47507e-06
4.07922e-07
-3.19123e-06
1.89008e-06
2.22174e-07
-3.32354e-06
2.20659e-06
-3.21985e-06
2.25053e-06
-4.37842e-08
-1.44727e-06
-2.012e-07
-5.79781e-08
-1.63883e-06
-1.37335e-07
-1.9219e-10
-1.98817e-06
-4.07394e-09
1.15285e-07
-2.41252e-06
2.11727e-07
2.42931e-07
-2.8178e-06
5.07122e-07
3.22894e-07
-3.14042e-06
8.52955e-07
3.29377e-07
-3.38166e-06
1.18883e-06
2.42708e-07
-3.57975e-06
1.52318e-06
9.96328e-08
-3.71051e-06
1.76504e-06
-3.6767e-06
1.84495e-06
-1.60925e-07
-1.17896e-06
-4.72088e-07
-3.18916e-07
-1.4029e-06
-4.39663e-07
-3.58446e-07
-1.90988e-06
-3.6002e-07
-2.8659e-07
-2.49625e-06
-2.25094e-07
-1.72033e-07
-2.98559e-06
-4.74266e-08
-8.02689e-08
-3.29242e-06
1.19366e-07
-4.02805e-08
-3.50728e-06
2.74e-07
-6.41193e-08
-3.70916e-06
4.69467e-07
-8.98086e-08
-3.88768e-06
6.35866e-07
-4.12467e-06
8.15995e-07
-5.65312e-07
-1.26386e-07
-1.06461e-06
-1.11057e-06
-3.9972e-07
-1.13587e-06
-1.34627e-06
-1.0587e-06
-1.34824e-06
-1.24546e-06
-1.47483e-06
-1.42395e-06
-9.0507e-07
-1.40505e-06
-1.28506e-06
-5.15909e-07
-1.193e-06
-8.17651e-07
-3.01126e-07
-1.00682e-06
-3.06799e-07
-2.89709e-07
-1.60366e-07
2.75239e-08
-2.99305e-07
-3.90188e-07
1.13633e-07
-2.48854e-07
1.26775e-07
-1.05182e-06
3.00527e-08
-1.51788e-06
-1.39665e-06
-5.58331e-09
-1.27935e-06
-1.06882e-06
-5.36909e-11
-1.07255e-06
-4.25006e-07
-1.1783e-09
-4.70074e-07
-6.34757e-08
-2.28143e-10
-4.3502e-08
1.15443e-08
-6.00442e-10
7.89189e-08
1.63445e-08
-4.11668e-10
4.49604e-08
2.79288e-10
-1.76556e-10
7.15665e-09
-1.78189e-09
-7.45155e-11
2.99259e-08
-3.25611e-11
1.31637e-08
-7.33868e-08
5.32677e-09
-4.82077e-07
-4.89156e-12
-3.04298e-11
-5.9951e-09
-2.44212e-11
-9.2291e-12
-2.80717e-11
-2.77255e-13
-3.21439e-11
-3.30671e-12
9.61055e-12
-2.10497e-10
-2.19274e-11
1.77114e-11
-6.58756e-10
-3.85561e-11
8.00795e-12
-4.27085e-10
-1.07628e-11
1.71647e-12
-1.9274e-10
7.20017e-13
3.7643e-13
-9.23879e-11
-1.87893e-12
-4.49286e-11
-2.15165e-13
-7.92649e-13
2.25611e-10
-4.74679e-09
-1.58407e-12
-2.54128e-11
-3.01439e-12
-4.09416e-13
-8.5677e-12
-1.12427e-12
-1.4077e-11
-2.11274e-11
-4.5575e-12
-3.71789e-11
-9.84043e-11
-1.70711e-10
-7.00198e-12
-3.0075e-10
-1.55213e-09
1.24605e-11
-3.87987e-10
-4.40243e-10
1.94686e-11
-1.62152e-10
-8.9826e-11
9.02505e-12
-2.23455e-11
-1.08797e-10
-3.86831e-12
-6.08912e-11
2.85036e-10
-1.47612e-12
-3.36435e-11
2.36765e-11
1.63252e-10
3.24016e-11
6.24598e-12
1.20338e-11
8.20087e-12
9.11121e-12
-5.28568e-12
-3.96778e-12
2.7587e-11
-1.9504e-11
3.52427e-11
1.81011e-10
-2.91366e-11
-1.88098e-09
3.0318e-10
-5.79217e-11
-3.27946e-09
-1.58831e-11
-4.88826e-11
-2.04281e-10
2.29954e-12
-1.14578e-11
-4.91489e-12
-5.63771e-12
-4.32573e-12
2.20366e-11
-6.72382e-13
1.51405e-12
5.21495e-11
6.5613e-13
6.32283e-11
1.64899e-11
7.39615e-12
1.67276e-11
1.54645e-11
2.85408e-12
9.25397e-13
1.70715e-11
-1.43212e-13
-1.53895e-12
1.82786e-11
-3.49313e-13
9.89627e-11
3.75009e-11
-5.32181e-12
-1.97642e-10
1.76187e-11
-2.27304e-11
-6.58909e-11
8.81444e-12
-4.59699e-11
-2.73359e-12
-4.6915e-11
-1.06464e-12
8.05886e-13
-4.14787e-14
1.18601e-13
1.02816e-12
3.0468e-14
1.77419e-12
7.51801e-13
-5.1284e-14
7.53734e-13
3.64695e-13
-1.58829e-14
2.84065e-13
5.29575e-14
-3.57168e-15
9.22857e-15
6.99243e-13
-5.20002e-16
-8.09562e-13
1.26096e-11
-2.20611e-15
-5.37572e-13
3.56446e-11
-1.32046e-12
-2.96323e-13
3.80143e-11
-1.67735e-11
-2.65518e-13
-2.87477e-11
-2.83847e-13
8.16784e-15
-8.10668e-16
2.77665e-15
3.86464e-14
2.82688e-16
3.73003e-14
1.28073e-14
-4.74911e-16
1.24041e-14
3.44293e-15
-1.11753e-16
1.13007e-15
4.56648e-16
-8.83865e-18
2.96755e-16
6.91985e-16
1.38913e-17
-4.89874e-16
7.87674e-16
9.07558e-18
9.15299e-18
2.56512e-12
-2.89025e-15
1.97183e-15
1.43923e-11
-1.79423e-13
2.03912e-13
-3.01888e-12
3.41854e-13
4.33439e-17
-9.72629e-18
2.55102e-17
3.69387e-16
5.79962e-18
4.44204e-16
1.14979e-16
-1.35347e-17
1.17839e-16
2.08307e-17
4.26726e-18
1.42969e-17
6.65854e-18
5.28408e-18
2.07319e-18
7.88588e-18
5.87159e-18
9.42814e-18
7.41582e-18
7.17774e-18
8.80119e-19
4.01526e-17
-5.35745e-19
1.03886e-17
6.31312e-16
-2.3499e-16
8.17792e-16
-2.96794e-15
4.16224e-14
4.23649e-19
5.22735e-19
4.2017e-19
4.82005e-18
2.26748e-18
4.64339e-18
3.05632e-18
2.70315e-18
2.71631e-18
2.24307e-18
2.41465e-18
1.34279e-18
2.75281e-18
3.55927e-18
7.75263e-19
4.21322e-18
4.60567e-18
5.13776e-19
5.65512e-18
8.34854e-18
6.5545e-19
2.11528e-18
3.05985e-18
8.65738e-19
9.49739e-18
1.65641e-18
3.23637e-18
-8.55342e-19
3.99908e-17
4.30238e-20
1.99168e-19
1.22362e-19
3.31629e-19
6.96077e-19
3.88101e-19
4.86493e-19
4.8493e-19
4.13312e-19
5.28273e-19
5.25109e-19
2.89527e-19
7.46599e-19
6.02008e-19
2.32866e-19
1.43923e-18
1.02249e-18
2.44999e-19
2.12875e-18
1.99694e-18
4.08135e-19
1.63129e-18
3.10977e-18
6.74501e-19
8.61023e-19
1.87532e-18
5.5089e-19
1.44965e-18
6.36125e-19
3.9224e-21
1.18607e-20
5.37913e-21
4.22153e-20
5.83446e-20
5.93473e-20
4.63677e-20
3.73233e-20
3.1691e-20
6.42954e-20
2.89304e-20
3.62295e-20
8.1612e-20
2.48365e-20
3.60674e-20
1.6152e-19
4.02654e-20
5.51291e-20
3.52945e-19
1.00134e-19
1.54339e-19
6.50968e-19
2.93436e-19
5.64542e-19
7.43331e-19
5.63457e-19
1.82299e-18
3.31848e-19
1.27546e-18
2.76891e-07
-3.80546e-07
5.73931e-07
5.56766e-07
-4.13542e-07
6.87172e-07
8.07686e-07
-4.10057e-07
8.04681e-07
1.01681e-06
-4.18243e-07
1.01513e-06
1.16111e-06
-4.24232e-07
1.29964e-06
1.20789e-06
-4.21289e-07
1.65499e-06
1.12397e-06
-4.05293e-07
2.06498e-06
8.93076e-07
-3.7966e-07
2.48144e-06
5.17246e-07
-3.33996e-07
2.82766e-06
-2.97668e-07
3.05274e-06
2.42092e-07
-7.12233e-07
4.82231e-07
4.86487e-07
-7.72084e-07
5.76538e-07
7.09515e-07
-7.73515e-07
6.93454e-07
9.00309e-07
-7.99525e-07
8.97336e-07
1.03861e-06
-8.24519e-07
1.17415e-06
1.093e-06
-8.35187e-07
1.52802e-06
1.03077e-06
-8.33392e-07
1.95301e-06
8.37444e-07
-8.14294e-07
2.38826e-06
5.0681e-07
-7.58862e-07
2.76514e-06
-6.46842e-07
2.97208e-06
2.46177e-07
-1.04883e-06
4.6558e-07
4.89765e-07
-1.13205e-06
5.63267e-07
7.21024e-07
-1.15316e-06
6.98102e-07
9.26175e-07
-1.20972e-06
9.23606e-07
1.08294e-06
-1.26771e-06
1.23418e-06
1.1551e-06
-1.30983e-06
1.63724e-06
1.10656e-06
-1.33863e-06
2.12386e-06
8.92042e-07
-1.33987e-06
2.64701e-06
5.15392e-07
-1.25621e-06
3.05654e-06
-9.43523e-07
3.09877e-06
2.29245e-07
-1.36177e-06
3.91633e-07
4.50506e-07
-1.4628e-06
4.87532e-07
6.74444e-07
-1.52216e-06
6.35928e-07
8.85357e-07
-1.63144e-06
8.82494e-07
1.0573e-06
-1.74236e-06
1.22206e-06
1.1485e-06
-1.84499e-06
1.67954e-06
1.11777e-06
-1.93978e-06
2.23998e-06
8.89772e-07
-1.99647e-06
2.86686e-06
4.89608e-07
-1.87083e-06
3.30439e-06
-1.33192e-06
3.24249e-06
1.86898e-07
-1.61659e-06
2.58987e-07
3.63987e-07
-1.73323e-06
3.50001e-07
5.67904e-07
-1.86343e-06
5.12058e-07
7.75994e-07
-2.04721e-06
7.72537e-07
9.61207e-07
-2.2406e-06
1.13953e-06
1.06894e-06
-2.4274e-06
1.64367e-06
1.04822e-06
-2.61076e-06
2.2613e-06
8.06255e-07
-2.732e-06
2.94825e-06
3.89065e-07
-2.58812e-06
3.42991e-06
-2.00578e-06
3.35483e-06
1.15898e-07
-1.7774e-06
6.24914e-08
2.34388e-07
-1.92404e-06
1.52242e-07
4.08368e-07
-2.16289e-06
3.29413e-07
6.12215e-07
-2.45502e-06
6.08677e-07
8.04095e-07
-2.75015e-06
1.00484e-06
9.11919e-07
-3.01427e-06
1.53547e-06
8.74555e-07
-3.24284e-06
2.14452e-06
6.09733e-07
-3.35975e-06
2.78265e-06
2.14281e-07
-3.21286e-06
3.22678e-06
-2.7702e-06
3.12239e-06
2.8976e-08
-1.82552e-06
-1.82063e-07
8.10696e-08
-2.0282e-06
-8.52664e-08
2.14696e-07
-2.41148e-06
1.10888e-07
4.02501e-07
-2.83305e-06
4.01955e-07
5.68009e-07
-3.19127e-06
7.82734e-07
6.3613e-07
-3.44086e-06
1.21148e-06
5.76291e-07
-3.62836e-06
1.63435e-06
3.55056e-07
-3.70434e-06
2.08924e-06
1.31093e-07
-3.58446e-06
2.36085e-06
-3.35552e-06
2.50459e-06
-9.90654e-08
-1.69314e-06
-5.05432e-07
-2.32773e-07
-1.91276e-06
-4.21429e-07
-2.23772e-07
-2.49353e-06
-2.86873e-07
-1.18354e-07
-3.05651e-06
-1.0662e-07
-5.5339e-10
-3.46506e-06
1.09312e-07
1.0307e-07
-3.43549e-06
2.8462e-07
1.2817e-07
-3.1566e-06
5.36803e-07
6.81161e-08
-2.97808e-06
9.68227e-07
7.66206e-09
-2.96289e-06
1.4599e-06
-3.11324e-06
2.01306e-06
-6.64969e-07
-6.45364e-07
-1.23892e-06
-1.29765e-06
-9.53691e-07
-1.18081e-06
-1.41387e-06
-1.47421e-06
-1.24547e-06
-1.05763e-06
-1.34428e-06
-1.07943e-06
-4.356e-07
-1.02717e-06
-6.32014e-07
-6.41811e-08
-8.9141e-08
-9.70449e-08
2.86049e-09
-4.5227e-08
2.06444e-07
-7.41106e-08
-7.43247e-09
3.04311e-07
-1.34399e-07
-2.97643e-08
9.91839e-07
-1.33179e-08
8.62608e-07
-1.16586e-06
7.62987e-08
-1.68903e-06
-1.19628e-06
-7.70391e-08
-1.18891e-06
-4.5896e-07
-1.53551e-09
-4.34136e-07
-1.77692e-08
-1.9097e-10
-2.29438e-08
1.29683e-08
-2.02736e-09
8.0877e-09
1.77326e-09
-3.23874e-09
3.89018e-09
3.46903e-10
-1.99372e-09
2.85945e-09
-1.74494e-10
-7.31097e-10
6.5535e-10
-1.97991e-10
-1.85403e-09
1.72722e-09
-1.18086e-09
7.8187e-10
-7.52793e-10
4.64463e-09
-7.34214e-07
1.5337e-09
-3.78879e-11
-3.8569e-09
-3.09155e-12
-3.22357e-11
1.17132e-12
-3.59396e-12
-2.62995e-10
-1.14257e-11
7.69195e-12
-2.78697e-09
-1.40561e-10
-2.75484e-11
-3.32269e-09
-2.77083e-11
-6.39957e-11
-2.09395e-09
1.68244e-11
-5.43715e-11
-1.53315e-09
2.95981e-10
-5.02684e-11
-1.74771e-09
1.22838e-10
-1.25398e-09
3.12873e-11
-3.39536e-12
-1.0507e-10
-2.92269e-12
-7.1428e-12
-2.43738e-11
-1.7266e-11
-1.65788e-12
-2.31148e-11
-1.3577e-11
-1.49928e-10
-5.55307e-11
-4.38587e-10
-2.84041e-09
-1.58858e-09
-6.50238e-09
-5.10584e-09
-1.53486e-09
-1.26098e-08
-3.48915e-09
-4.93106e-10
-1.24942e-08
-1.20671e-09
-1.78534e-10
-6.91816e-09
-2.27152e-10
-3.9559e-11
-6.26063e-09
-5.3592e-11
-3.61072e-09
3.30469e-12
-2.68184e-12
-2.10987e-11
1.0768e-11
1.23893e-10
-6.34892e-12
1.52952e-12
-6.34419e-12
1.6782e-11
-2.22453e-12
-9.11827e-13
-6.67759e-11
-2.59101e-09
-5.20868e-11
-5.65434e-09
-3.9302e-09
3.46316e-10
-1.11832e-08
-9.74055e-10
1.65567e-10
-7.28747e-09
-5.63254e-12
-1.03813e-10
-5.39793e-11
2.84852e-13
-6.85354e-12
-4.63069e-11
-8.27154e-13
-5.85958e-11
6.23263e-12
-8.29189e-14
-1.16296e-13
4.81043e-11
-1.10478e-12
6.05805e-11
8.84747e-13
1.95084e-12
1.80269e-11
7.57561e-14
-2.09034e-14
4.26151e-13
-5.68084e-12
-1.04021e-12
-2.34926e-10
2.77601e-10
-3.91074e-11
-3.98494e-09
5.15861e-10
-2.33226e-11
-2.21263e-09
1.07984e-11
-8.50544e-12
-5.34605e-12
1.48229e-12
-7.68273e-14
-1.85487e-13
-2.47332e-14
-4.5194e-13
4.23747e-14
-2.3427e-15
9.02446e-15
3.64918e-13
-2.71232e-14
3.84269e-13
2.085e-13
-1.65199e-14
3.6536e-13
3.73136e-14
7.49513e-15
2.23711e-14
3.83107e-13
9.1879e-15
-1.45468e-12
9.07119e-12
-1.07176e-13
-4.93933e-11
5.58286e-12
-2.17341e-13
-2.70107e-11
2.56695e-13
-6.5143e-14
-2.36196e-12
1.63822e-14
-9.34098e-14
-3.59865e-14
-3.71489e-13
-8.54803e-15
3.25777e-16
-2.56146e-17
2.7499e-16
6.76696e-15
-3.83513e-16
4.36159e-15
8.52335e-16
-1.26208e-16
1.53896e-15
6.66989e-16
-8.71589e-17
4.76454e-16
4.76893e-15
9.53966e-17
4.22091e-15
1.52461e-13
1.56912e-15
-2.64011e-13
1.70618e-14
-1.27243e-15
-7.88794e-14
8.79629e-15
2.09318e-18
8.61928e-16
8.76901e-14
-3.15146e-15
-2.19121e-15
-6.0598e-14
3.16371e-15
1.16484e-18
4.74477e-19
1.57942e-18
4.61203e-17
-2.84407e-18
2.61544e-17
1.19316e-17
4.67471e-18
1.23638e-17
6.23897e-18
4.40814e-18
5.96857e-18
4.73648e-17
4.89491e-18
6.0818e-17
1.36e-15
3.51635e-18
1.97521e-16
9.55968e-17
-2.51438e-17
2.30136e-17
4.81044e-16
5.11424e-18
7.21192e-18
8.06027e-15
2.45397e-16
5.5954e-16
4.80415e-16
6.54479e-15
3.79004e-20
2.78905e-19
2.2963e-19
6.96907e-19
1.19455e-18
7.89501e-19
1.42612e-18
2.41727e-18
2.02949e-18
1.44681e-18
2.39469e-18
1.23139e-18
2.67425e-18
2.65809e-18
1.16295e-18
1.12643e-17
1.76274e-18
4.0122e-18
5.03247e-18
3.07223e-18
5.99194e-19
9.05277e-18
6.05844e-18
1.14216e-18
7.57973e-17
4.55548e-18
9.11768e-18
-1.18706e-18
1.28002e-16
2.15254e-20
1.70393e-19
1.15417e-19
2.0553e-19
7.16552e-19
3.63267e-19
3.48708e-19
5.35219e-19
4.25331e-19
3.46669e-19
3.74645e-19
2.72732e-19
5.67944e-19
4.0142e-19
2.51309e-19
1.07068e-18
8.23406e-19
2.4094e-19
2.29763e-18
2.24017e-18
3.79219e-19
3.75304e-18
5.34738e-18
1.4305e-18
3.29761e-18
3.10481e-18
1.06512e-18
4.89861e-19
6.38529e-19
3.50767e-21
1.61668e-20
8.20729e-21
3.83413e-20
7.5806e-20
8.46805e-20
3.78268e-20
4.90659e-20
3.73239e-20
4.11145e-20
3.0521e-20
2.4681e-20
5.50445e-20
2.82228e-20
2.71711e-20
1.98548e-19
5.68225e-20
1.64157e-19
1.00294e-18
2.56211e-19
1.04629e-18
2.38142e-18
1.4226e-18
4.8522e-18
1.03437e-18
1.21052e-18
2.38279e-18
3.39431e-19
5.00593e-19
3.41306e-07
-3.97852e-07
6.30477e-07
6.97467e-07
-4.3912e-07
7.7013e-07
1.02132e-06
-4.26435e-07
9.07266e-07
1.30092e-06
-4.24387e-07
1.15991e-06
1.50892e-06
-4.16876e-07
1.50852e-06
1.59899e-06
-3.92515e-07
1.95744e-06
1.50986e-06
-3.4971e-07
2.50382e-06
1.19159e-06
-2.872e-07
3.08691e-06
6.67255e-07
-2.13368e-07
3.56536e-06
-5.22783e-08
3.7327e-06
3.0346e-07
-7.51844e-07
5.32764e-07
6.20108e-07
-8.28008e-07
6.48778e-07
9.14841e-07
-8.14163e-07
7.86448e-07
1.1766e-06
-8.24684e-07
1.03587e-06