/*--------------------------------*- C++ -*----------------------------------*\
| =========                 |                                                 |
| \\      /  F ield         | OpenFOAM: The Open Source CFD Toolbox           |
|  \\    /   O peration     | Version:  2312                                  |
|   \\  /    A nd           | Website:  www.openfoam.com                      |
|    \\/     M anipulation  |                                                 |
\*---------------------------------------------------------------------------*/
FoamFile
{
    version     2.0;
    format      ascii;
    arch        "LSB;label=32;scalar=64";
    class       surfaceScalarField;
    location    "0.715";
    object      alphaPhi0.water;
}
// * * * * * * * * * * * * * * * * * * * * * * * * * * * * * * * * * * * * * //

dimensions      [0 3 -1 0 0 0 0];

oriented        oriented;

internalField   nonuniform List<scalar> 
22600
(
1.93482e-07
-6.40957e-09
-1.04942e-07
2.80218e-07
9.47715e-09
-9.62137e-08
3.31605e-07
3.55607e-08
-8.6948e-08
3.46959e-07
6.84276e-08
-8.37812e-08
3.31928e-07
1.01084e-07
-8.6053e-08
2.91087e-07
1.33039e-07
-9.21983e-08
2.32951e-07
1.607e-07
-1.02564e-07
1.69468e-07
1.75764e-07
-1.12281e-07
1.0282e-07
1.82046e-07
-1.15397e-07
2.2201e-07
-1.19191e-07
2.24109e-07
-2.85034e-08
-1.14628e-07
3.37123e-07
7.2473e-09
-1.10785e-07
4.18146e-07
6.31718e-08
-1.08634e-07
4.62109e-07
1.33861e-07
-1.09396e-07
4.64062e-07
2.14887e-07
-1.15756e-07
4.24942e-07
3.00144e-07
-1.27985e-07
3.52981e-07
3.80051e-07
-1.4739e-07
2.67098e-07
4.31286e-07
-1.69639e-07
1.54972e-07
4.69489e-07
-1.75317e-07
5.57452e-07
-1.80469e-07
2.56379e-07
-1.16546e-07
-7.76032e-08
3.89002e-07
-4.12204e-08
-8.41551e-08
4.82103e-07
6.11715e-08
-9.11001e-08
5.28339e-07
1.89936e-07
-1.02311e-07
5.22997e-07
3.39733e-07
-1.19503e-07
4.70152e-07
4.97418e-07
-1.4443e-07
3.80176e-07
6.49449e-07
-1.7942e-07
2.80121e-07
7.33341e-07
-2.02001e-07
1.49477e-07
7.71541e-07
-1.71409e-07
8.88068e-07
-1.81139e-07
3.37548e-07
-4.27229e-07
6.71046e-08
5.08314e-07
-2.44474e-07
3.24876e-08
6.11069e-07
-2.3676e-08
-1.79077e-08
6.52149e-07
2.09175e-07
-6.03179e-08
6.31411e-07
4.65789e-07
-1.05319e-07
5.62096e-07
7.24735e-07
-1.58001e-07
4.51842e-07
9.48363e-07
-1.88661e-07
2.93416e-07
1.03189e-06
-1.40121e-07
1.02345e-07
9.49917e-07
1.26958e-08
1.13964e-06
-1.49226e-07
5.56069e-07
-1.16024e-06
2.81263e-07
8.00327e-07
-7.43989e-07
2.55256e-07
9.52526e-07
-3.71392e-07
1.95517e-07
1.01519e-06
3.71698e-08
1.09341e-07
1.00024e-06
4.82816e-07
-2.07693e-09
8.76155e-07
9.39073e-07
-9.02536e-08
6.00446e-07
1.32134e-06
-9.72668e-08
1.37839e-07
1.40526e-06
8.92335e-08
-1.52356e-07
8.4758e-07
3.92532e-07
9.0162e-07
8.56626e-08
5.82414e-07
-2.10493e-06
3.44983e-07
1.07127e-06
-1.51743e-06
2.84594e-07
1.46991e-06
-1.03674e-06
2.66702e-07
1.72832e-06
-4.63734e-07
2.42499e-07
1.69811e-06
3.14937e-07
1.98086e-07
1.42156e-06
1.08113e-06
1.34491e-07
9.17883e-07
1.63808e-06
1.86934e-07
2.33296e-07
1.70521e-06
3.84643e-07
-2.3345e-07
8.92656e-07
4.21775e-07
1.87605e-07
4.79555e-07
-4.34209e-08
-2.41927e-06
1.89577e-08
7.37976e-07
-2.26084e-06
-3.11817e-08
1.39771e-06
-1.88052e-06
1.84122e-07
1.90733e-06
-1.20148e-06
2.28139e-07
2.01371e-06
-6.36052e-08
2.70821e-07
1.63731e-06
1.0616e-06
3.95936e-07
1.05126e-06
1.682e-06
5.42129e-07
4.11539e-07
1.70839e-06
6.36535e-07
-1.42357e-07
1.12586e-06
3.19269e-07
1.18126e-07
-7.58614e-08
1.45369e-07
-1.58138e-07
-1.0635e-06
8.46064e-07
-3.32826e-07
-1.18434e-06
1.72332e-06
-3.84831e-07
-1.26646e-06
2.17525e-06
-2.54581e-07
-9.13877e-07
2.31512e-06
4.57828e-08
-2.81475e-07
2.43308e-06
5.67112e-07
9.40238e-08
2.15893e-06
1.47208e-06
2.09173e-07
1.302e-06
2.34076e-06
1.47659e-07
1.06821e-07
2.4641e-06
-1.56719e-07
1.62907e-06
-1.42967e-06
1.00913e-07
-6.5251e-09
-1.84769e-09
1.44315e-07
-3.13635e-09
-4.53385e-09
3.71733e-07
6.46539e-10
-2.36167e-08
9.29511e-07
-1.1149e-08
-1.00885e-07
2.18425e-06
-2.25984e-08
-4.34796e-07
3.48157e-06
2.5783e-07
-9.39912e-07
3.8858e-06
1.74231e-06
-1.56395e-06
2.42885e-06
4.46457e-06
-1.4935e-06
2.76116e-07
5.40056e-06
-8.35439e-07
4.92476e-06
-3.08873e-06
1.7735e-09
-9.05109e-10
-5.11895e-10
-6.26505e-10
-2.82535e-10
-7.94018e-10
1.69355e-09
-1.22529e-10
-2.53104e-09
1.81068e-09
-5.08632e-10
-1.34614e-08
1.72068e-08
-4.34403e-11
-3.6597e-08
4.25984e-07
-1.07681e-08
-9.04107e-08
1.54235e-06
-3.80718e-09
-2.83583e-07
1.83902e-06
2.70951e-06
-1.01555e-06
1.9094e-07
6.70961e-06
-9.87969e-07
7.51157e-06
-2.81443e-06
5.73101e-10
-1.51044e-11
-9.42851e-11
2.17216e-10
8.26579e-11
-5.5448e-11
6.30161e-11
9.37249e-11
-1.65363e-10
-1.48553e-10
-1.75464e-10
-9.65965e-10
-8.62194e-11
6.21526e-10
-3.66119e-09
2.14505e-09
-1.7666e-09
-1.48095e-08
-6.44403e-09
2.24696e-09
-3.85865e-08
3.98647e-07
-3.86106e-09
-1.73211e-07
2.59732e-07
2.75422e-06
-2.31663e-07
7.75683e-06
-1.27274e-06
1.764e-10
2.04229e-11
2.07139e-11
1.05186e-10
4.05407e-11
7.34286e-11
3.72712e-11
-3.78104e-11
1.24239e-10
-9.44505e-11
4.54683e-10
-3.35248e-11
-5.25908e-10
8.27117e-10
-5.00544e-10
-1.06361e-09
1.14798e-10
-2.0743e-09
6.33319e-09
-1.07054e-09
-6.84685e-09
5.59505e-09
1.81228e-08
-2.44904e-08
1.55396e-07
1.04651e-07
-8.25152e-08
4.03913e-06
-3.08956e-07
3.76375e-11
1.01944e-11
2.63579e-11
2.87934e-11
1.00051e-11
2.71935e-11
8.19958e-12
3.37364e-11
8.39515e-11
-1.08233e-10
7.5099e-10
1.89986e-10
-2.65811e-10
1.45255e-09
-1.19092e-10
-2.97526e-10
4.89554e-10
-4.28582e-10
-1.28175e-10
5.54018e-11
-1.37419e-09
1.68293e-08
6.77772e-09
-5.60405e-09
9.80873e-08
4.21928e-08
-1.97274e-08
-9.87931e-08
-1.7392e-07
6.90799e-12
2.79702e-12
1.10579e-11
7.62886e-12
2.22534e-12
8.5482e-12
-3.44914e-13
1.18079e-11
3.17958e-11
-3.22358e-10
9.5466e-10
3.0142e-10
-4.6893e-10
1.56591e-09
1.28484e-11
-2.42481e-10
3.94472e-10
-1.40071e-10
-1.37091e-10
3.05636e-10
-3.56872e-10
5.57001e-09
2.32922e-09
-1.18597e-09
4.2826e-08
9.54515e-09
-4.25699e-09
-1.14074e-08
-4.62153e-08
1.66937e-12
3.14846e-12
2.89764e-12
2.1565e-12
2.43207e-12
2.31922e-12
-1.57877e-11
1.45547e-11
1.17478e-11
-4.36101e-10
5.87051e-10
2.67011e-10
-3.44316e-10
5.4626e-10
4.55603e-11
-1.86587e-10
2.7477e-10
-3.88755e-11
-1.03968e-10
3.27686e-10
-9.69802e-11
1.29505e-09
1.25872e-09
-2.76215e-10
6.18611e-09
5.51322e-09
-6.5479e-10
-6.37221e-10
-6.58894e-09
1.32707e-12
1.27722e-12
6.52004e-12
2.93594e-12
1.60362e-12
3.31755e-12
-7.94843e-12
8.48788e-11
2.75828e-11
-2.01072e-10
3.1166e-10
1.00206e-10
-1.33862e-10
3.35639e-10
5.54164e-11
-9.10601e-11
2.36469e-10
-1.31583e-11
-4.99052e-11
3.2394e-10
-3.5798e-11
4.66211e-10
8.793e-10
-1.35601e-10
1.80362e-09
4.4015e-09
-1.74989e-10
3.05475e-09
-1.00372e-09
1.59157e-12
6.92166e-13
3.5651e-12
5.06015e-12
1.01141e-12
1.43427e-12
-1.63993e-11
1.22549e-10
5.61884e-11
-1.59343e-10
4.40943e-10
8.04618e-11
-7.65864e-11
4.24366e-10
2.14907e-11
-4.8276e-11
2.52839e-10
-1.91998e-11
-2.1056e-11
3.40476e-10
-4.08251e-11
1.97725e-10
9.00679e-10
-7.63278e-11
3.85755e-10
4.3837e-09
-1.20244e-10
7.67185e-09
6.53981e-11
1.86031e-12
-3.42294e-12
4.14215e-12
4.12976e-12
-4.48146e-13
1.42695e-12
-2.28413e-11
8.5565e-11
6.93228e-11
-1.85741e-10
1.19022e-09
1.08194e-10
-1.18975e-10
6.49039e-10
-1.99223e-11
-5.03157e-11
3.57423e-10
-6.82304e-11
-9.87442e-12
3.23126e-10
-3.87256e-11
1.01174e-10
9.1076e-10
-1.03434e-10
-1.40247e-10
1.91865e-08
-1.82007e-10
8.46996e-09
6.62723e-10
1.30463e-10
-5.56402e-11
5.71148e-11
1.43097e-10
-7.50189e-11
7.54819e-11
-8.97418e-11
7.61825e-11
1.65302e-10
-4.13083e-10
1.04674e-09
2.07442e-10
-1.37315e-10
7.08089e-10
-9.57341e-11
-5.49378e-11
3.60894e-10
-5.80078e-11
-1.39735e-11
2.79806e-10
-4.45223e-11
-6.68787e-10
1.70655e-09
-6.16146e-11
-6.89006e-10
2.3612e-08
-1.69739e-10
5.27147e-09
1.0132e-09
6.51491e-11
6.46493e-11
-5.58023e-11
-3.03152e-12
7.06773e-11
-5.17772e-11
-1.7801e-10
2.27343e-10
5.37133e-11
-2.5832e-10
1.27803e-10
4.98627e-10
-9.11263e-11
-1.28646e-10
6.30147e-10
-4.82067e-11
-5.55444e-11
4.49476e-10
-5.62101e-10
-4.228e-11
8.35353e-10
-2.67807e-09
-9.78823e-11
2.01853e-08
-1.41308e-09
6.21704e-10
2.50532e-08
4.87226e-10
2.7747e-09
1.54549e-07
-8.45336e-08
-8.27388e-08
1.99322e-07
-5.94003e-08
-8.15872e-08
2.2634e-07
-2.94833e-08
-8.44828e-08
2.34462e-07
3.47789e-09
-9.53809e-08
2.21658e-07
3.86887e-08
-1.11938e-07
1.91034e-07
6.8807e-08
-1.30381e-07
1.52852e-07
8.3998e-08
-1.4838e-07
1.28765e-07
7.22174e-08
-1.60412e-07
9.88747e-08
7.24994e-08
-1.58006e-07
1.78383e-07
-1.98699e-07
1.95986e-07
-1.91754e-07
-1.03825e-07
2.69491e-07
-1.3014e-07
-1.1355e-07
3.18138e-07
-6.08598e-08
-1.25905e-07
3.35956e-07
2.02976e-08
-1.44034e-07
3.25187e-07
1.00372e-07
-1.66671e-07
2.85544e-07
1.75366e-07
-1.94902e-07
2.30921e-07
2.17533e-07
-2.26302e-07
2.03592e-07
1.78894e-07
-2.48987e-07
1.50409e-07
1.97315e-07
-2.4695e-07
4.58844e-07
-3.10522e-07
2.10458e-07
-2.94109e-07
-7.532e-08
2.86889e-07
-1.8913e-07
-1.01595e-07
3.37239e-07
-7.47445e-08
-1.27566e-07
3.60298e-07
5.0443e-08
-1.55516e-07
3.34886e-07
1.97709e-07
-1.91428e-07
2.61164e-07
3.37078e-07
-2.32419e-07
1.60078e-07
4.07179e-07
-2.67981e-07
1.4371e-07
2.43537e-07
-2.50275e-07
1.45992e-07
2.12745e-07
-1.89121e-07
7.59921e-07
-3.36223e-07
2.57451e-07
-4.14341e-07
4.67422e-08
3.50685e-07
-2.55754e-07
5.8766e-09
4.07399e-07
-7.75256e-08
-7.18404e-08
4.12212e-07
1.27968e-07
-1.42656e-07
3.57373e-07
3.58143e-07
-2.10914e-07
2.28442e-07
5.81895e-07
-2.73887e-07
5.77993e-08
6.67713e-07
-2.78553e-07
-4.32858e-08
3.11645e-07
-1.07145e-07
-1.19268e-08
1.53537e-07
4.05444e-08
9.70429e-07
-3.71661e-07
4.23109e-07
-6.47654e-07
2.14525e-07
5.77936e-07
-3.42355e-07
1.87029e-07
6.60814e-07
-6.6169e-08
1.01282e-07
6.75241e-07
2.50814e-07
-2.79319e-08
6.03808e-07
6.03857e-07
-1.76358e-07
4.14846e-07
9.61575e-07
-2.80971e-07
9.00427e-08
1.11718e-06
-2.21928e-07
-2.92076e-07
6.59391e-07
1.23607e-07
-3.44368e-07
2.8221e-07
3.16151e-07
1.03357e-06
-3.21845e-07
5.94157e-07
-1.06631e-06
3.31521e-07
8.93828e-07
-6.35542e-07
2.78109e-07
1.18103e-06
-3.09886e-07
2.23214e-07
1.29054e-06
2.94364e-07
8.94447e-08
1.16081e-06
9.65078e-07
-3.34111e-08
8.83655e-07
1.48415e-06
-1.10924e-07
4.92473e-07
1.69097e-06
4.32801e-09
-1.39706e-07
1.41006e-06
2.66427e-07
-4.83455e-07
9.82166e-07
6.31477e-08
1.228e-06
-1.97923e-07
4.03178e-07
-1.27393e-06
1.21003e-07
7.61017e-07
-1.07925e-06
1.06842e-07
1.12891e-06
-7.44351e-07
2.50606e-07
1.50844e-06
-3.20948e-09
1.47171e-07
1.46933e-06
1.25486e-06
2.0151e-08
1.1869e-06
2.10843e-06
5.4086e-08
8.19195e-07
2.45007e-06
1.50731e-07
2.08074e-07
2.45077e-06
2.06945e-07
-3.33703e-07
2.21451e-06
-3.69259e-07
1.46638e-06
-6.47948e-07
3.23882e-07
-2.05153e-08
-1.48967e-06
1.05464e-06
-4.63989e-08
-1.60401e-06
1.82606e-06
-7.26575e-08
-1.80547e-06
2.03473e-06
2.6458e-07
-1.45542e-06
2.04787e-06
1.14639e-06
-8.84303e-07
1.81652e-06
2.27683e-06
-6.41417e-07
1.38338e-06
3.68905e-06
-5.96659e-07
6.34755e-07
3.90651e-06
-5.59447e-07
-2.01036e-07
4.01536e-06
-1.12142e-06
2.57064e-06
-2.73053e-06
-1.27518e-09
3.8921e-10
-2.2359e-08
-9.13005e-10
8.13548e-10
-5.24484e-08
2.87627e-09
3.76422e-09
-1.04807e-07
8.76604e-08
1.59724e-10
-2.05408e-07
4.83074e-07
-3.22278e-08
-5.56076e-07
1.12449e-06
-2.28396e-08
-1.07475e-06
1.72051e-06
5.25925e-07
-1.96624e-06
1.74052e-06
3.09303e-06
-2.79186e-06
1.21394e-06
5.88804e-06
-2.89983e-06
5.53972e-06
-5.38296e-06
-1.09131e-10
3.59182e-11
-1.52527e-10
-1.07004e-11
8.49362e-11
-1.53089e-10
1.04484e-09
3.99181e-10
-2.03792e-10
1.09296e-08
1.19074e-09
-2.53581e-08
2.1618e-08
3.08161e-09
-8.48435e-08
2.66396e-08
1.11188e-08
-1.35041e-07
8.52351e-08
3.57736e-08
-1.86902e-07
6.20477e-07
1.6819e-07
-4.61208e-07
1.56721e-06
1.29841e-06
-8.66677e-07
3.78331e-06
-2.39708e-06
2.53105e-11
3.93738e-11
-9.74606e-11
8.62985e-11
7.66934e-11
-8.71717e-11
2.25258e-10
2.13822e-10
-1.07631e-10
1.21766e-09
-3.07184e-10
-5.58899e-10
3.40653e-09
7.33839e-10
-3.875e-09
8.30002e-09
2.54436e-09
-1.18357e-08
2.16648e-08
9.0961e-09
-2.77925e-08
4.90372e-08
3.38482e-08
-6.93945e-08
2.6551e-07
1.04229e-07
-1.3324e-07
3.90945e-07
-4.41143e-07
6.93011e-11
2.26182e-11
6.09651e-13
1.41157e-10
6.14552e-11
9.67936e-12
2.74778e-10
2.2304e-10
3.83869e-12
2.73116e-10
4.28648e-10
-1.79896e-11
4.901e-10
4.03831e-11
-1.89565e-10
1.25571e-09
5.7909e-10
-9.48026e-10
4.34756e-09
2.1399e-09
-3.27545e-09
1.39173e-08
9.06807e-09
-9.25806e-09
3.63433e-08
2.73405e-08
-2.89818e-08
1.96137e-07
-8.28844e-08
2.82842e-11
9.77965e-12
1.90179e-11
6.7686e-11
1.05054e-11
3.00589e-11
3.14954e-10
7.29013e-11
4.62314e-11
3.49311e-10
1.06385e-09
1.22259e-10
5.6861e-11
5.94387e-10
-2.60084e-11
9.19942e-11
2.14099e-10
-1.08667e-10
7.44488e-10
5.31185e-10
-4.2867e-10
3.7437e-09
2.1577e-09
-1.58276e-09
1.1069e-08
6.23378e-09
-5.51437e-09
5.29705e-08
-2.06223e-08
4.94819e-12
6.82992e-12
1.12454e-11
1.25986e-11
3.96215e-12
9.11241e-12
1.4595e-11
1.50211e-11
1.61318e-11
3.34464e-10
1.24325e-09
4.82491e-10
-6.46175e-12
2.14024e-09
1.52352e-12
-5.05146e-12
9.68382e-11
-2.94846e-11
9.88581e-11
1.35701e-10
-7.33777e-11
8.62986e-10
4.68916e-10
-2.62077e-10
2.52099e-09
1.45756e-09
-9.72903e-10
1.52008e-08
-3.37105e-09
3.82854e-12
8.57411e-12
4.51677e-12
4.92149e-12
2.62726e-12
4.61761e-12
2.19322e-11
4.74138e-12
6.65627e-12
1.7288e-10
5.13457e-10
2.64763e-10
-4.91621e-11
2.31193e-09
9.2115e-11
-8.58772e-12
5.4332e-11
-3.05642e-11
2.24352e-11
4.96321e-11
-4.01113e-11
2.01923e-10
1.84916e-10
-1.62003e-10
6.56707e-10
7.16255e-10
-3.14122e-10
7.53366e-09
-2.31488e-10
7.27431e-11
5.08879e-11
1.06865e-10
1.95207e-11
8.96401e-12
3.51704e-11
2.74964e-11
1.54702e-11
1.00435e-11
-2.07587e-11
2.20242e-10
1.22587e-10
-2.32545e-11
2.39549e-09
1.68045e-10
-3.28284e-12
3.50469e-11
-2.41592e-11
1.58597e-11
3.48402e-11
-4.77853e-11
2.03442e-10
4.12077e-10
-6.0774e-10
2.37647e-10
7.15592e-10
-2.1256e-10
7.74071e-09
-2.02665e-11
5.29322e-11
5.9144e-12
1.40366e-10
1.77803e-11
4.01754e-12
2.34071e-11
9.31493e-11
8.8496e-11
5.68467e-11
-1.38701e-10
5.01328e-10
9.96289e-11
-4.21703e-11
2.56363e-09
9.0598e-11
-3.35373e-13
4.75316e-11
-2.81322e-11
6.83101e-11
7.87863e-11
-1.56804e-10
3.67611e-10
6.87693e-10
-9.36411e-10
3.0308e-10
9.70565e-10
-4.76754e-10
1.75472e-08
8.80785e-11
5.00068e-11
-7.44352e-11
9.65916e-11
2.62425e-11
-1.62005e-11
2.22656e-11
6.89076e-11
1.64541e-10
9.07411e-11
-3.11746e-10
1.2748e-09
1.15759e-10
-3.51298e-11
2.70442e-09
-1.16807e-10
2.60809e-12
1.771e-10
-4.62621e-11
3.40275e-11
1.1226e-10
-1.11289e-10
2.48068e-10
6.13024e-10
-7.02432e-10
2.48419e-10
1.25589e-09
-6.5598e-10
2.09192e-08
5.27636e-10
1.97726e-10
-1.47916e-10
1.32165e-10
2.12826e-10
-4.3516e-11
9.57166e-11
-3.86862e-11
5.64433e-10
3.06575e-10
-5.31557e-10
2.32688e-09
2.2159e-10
-4.34656e-11
2.62724e-09
-1.86128e-10
-5.81363e-13
2.08294e-10
-4.23363e-11
8.27138e-12
1.69134e-10
-1.25861e-10
2.72699e-12
3.91235e-10
-1.83473e-10
-1.60771e-09
3.58808e-09
-4.02073e-10
2.11134e-08
1.65173e-09
7.19679e-11
3.14307e-11
-2.12757e-11
-1.81587e-11
9.50673e-11
-1.4814e-11
-4.72143e-10
5.95044e-10
1.09324e-09
-6.48818e-10
2.0093e-10
2.58212e-09
-7.82284e-11
-1.07819e-10
2.33561e-09
-2.07794e-11
-2.41839e-10
2.94538e-10
-3.35259e-11
-2.01333e-10
3.06307e-10
-2.22673e-10
-1.62909e-10
5.91936e-10
-4.39309e-09
-1.56379e-10
7.60076e-09
2.20184e-09
1.654e-08
1.60963e-07
-1.37415e-07
-5.35687e-09
2.02944e-07
-9.98304e-08
-2.37372e-08
2.2879e-07
-5.78272e-08
-5.25022e-08
2.37842e-07
-1.5603e-08
-8.88296e-08
2.2782e-07
2.40813e-08
-1.25997e-07
1.99429e-07
5.72621e-08
-1.59252e-07
1.60917e-07
7.43239e-08
-1.84192e-07
1.31424e-07
6.44147e-08
-1.95334e-07
9.65701e-08
6.43442e-08
-1.87496e-07
1.6443e-07
-2.66559e-07
2.01668e-07
-3.02896e-07
-2.55262e-08
2.74041e-07
-2.22832e-07
-6.29225e-08
3.22569e-07
-1.25597e-07
-1.06662e-07
3.41615e-07
-2.52649e-08
-1.53418e-07
3.3159e-07
6.73171e-08
-1.99882e-07
2.94696e-07
1.42991e-07
-2.43738e-07
2.41473e-07
1.79538e-07
-2.78293e-07
2.07099e-07
1.40669e-07
-2.90867e-07
1.45947e-07
1.59308e-07
-2.80762e-07
4.01399e-07
-4.01543e-07
2.21501e-07
-4.41557e-07
-2.44419e-08
2.96346e-07
-3.34105e-07
-6.51672e-08
3.47824e-07
-1.84148e-07
-1.20493e-07
3.70865e-07
-2.54908e-08
-1.78331e-07
3.53071e-07
1.297e-07
-2.36017e-07
2.88929e-07
2.60761e-07
-2.86047e-07
1.99969e-07
3.12069e-07
-3.11552e-07
1.93758e-07
1.65376e-07
-2.68772e-07
1.69887e-07
2.14349e-07
-2.20291e-07
6.80169e-07
-4.45105e-07
2.81212e-07
-5.01432e-07
-1.80297e-08
3.6644e-07
-3.82826e-07
-3.06303e-08
4.28863e-07
-2.15032e-07
-1.03379e-07
4.35136e-07
2.30749e-08
-1.97495e-07
3.75474e-07
2.57935e-07
-2.79486e-07
2.35562e-07
4.62866e-07
-3.3608e-07
6.73775e-08
5.14006e-07
-3.12305e-07
5.67918e-08
1.96034e-07
-1.27217e-07
1.07633e-07
3.0113e-07
-9.70788e-08
9.51667e-07
-5.35526e-07
3.95361e-07
-4.97865e-07
3.72914e-09
4.9453e-07
-3.28447e-07
3.34801e-08
5.57334e-07
-1.34488e-07
-4.20661e-08
5.71274e-07
1.70316e-07
-1.89112e-07
5.01343e-07
4.88063e-07
-3.36555e-07
2.97167e-07
8.02561e-07
-4.1649e-07
1.84222e-08
9.04731e-07
-3.33908e-07
-1.59813e-07
5.61479e-07
-6.36021e-08
-1.32684e-07
7.31893e-07
-1.41742e-07
1.29138e-06
-7.94245e-07
5.83346e-07
-4.88935e-07
4.81192e-08
7.12544e-07
-2.78244e-07
9.87082e-08
8.62474e-07
-1.10718e-07
4.95132e-08
8.96415e-07
3.69598e-07
-1.43779e-07
7.73189e-07
9.0024e-07
-3.22362e-07
4.91477e-07
1.35281e-06
-3.79458e-07
1.06654e-07
1.57758e-06
-2.83703e-07
-3.68925e-07
1.44895e-06
-1.45457e-07
-5.27093e-07
1.54151e-06
-5.88175e-07
1.60109e-06
-1.03472e-06
6.63533e-07
-4.56334e-07
-2.96067e-08
7.04768e-07
-2.69527e-07
5.78089e-08
8.15513e-07
-8.42115e-08
1.13334e-07
1.00616e-06
4.14471e-07
-8.83508e-08
1.00906e-06
1.27642e-06
-3.58924e-07
7.8202e-07
2.08331e-06
-4.49382e-07
3.61094e-07
2.59285e-06
-4.43612e-07
-2.84438e-07
2.774e-06
-4.72575e-07
-6.44922e-07
2.60923e-06
-1.0765e-06
1.66454e-06
-1.35633e-06
5.61114e-07
-1.02653e-07
-2.05871e-06
1.23024e-06
-1.56765e-07
-2.03451e-06
1.7194e-06
-9.39052e-08
-2.05919e-06
1.7621e-06
4.19761e-07
-1.80956e-06
1.67191e-06
1.1612e-06
-1.44281e-06
1.42476e-06
2.00978e-06
-1.2229e-06
9.51359e-07
2.76179e-06
-1.09424e-06
2.73549e-07
3.86813e-06
-9.75763e-07
-3.58192e-07
3.75116e-06
-1.63161e-06
1.53041e-06
-3.20385e-06
-2.911e-10
-2.41304e-10
-1.30706e-07
6.46264e-09
-2.1274e-10
-2.15728e-07
5.18374e-09
-3.25411e-11
-2.16871e-07
1.22642e-07
1.77982e-09
-4.95523e-07
4.41365e-07
2.05036e-08
-9.38294e-07
1.01356e-06
3.21728e-08
-1.60811e-06
1.71591e-06
1.33672e-07
-2.51727e-06
2.32469e-06
8.02473e-07
-3.27623e-06
2.39646e-06
2.09427e-06
-3.51897e-06
2.38564e-06
-4.83906e-06
-4.78621e-11
-2.32258e-10
-2.13542e-10
8.64823e-12
-1.45496e-10
-2.61701e-10
5.91941e-11
-1.95705e-11
-2.71097e-10
1.55368e-08
7.20904e-10
-3.97597e-08
3.61318e-08
5.39121e-09
-9.22052e-08
4.42701e-08
1.34355e-08
-1.28147e-07
7.52196e-08
3.33043e-08
-1.26009e-07
1.93811e-07
8.297e-08
-1.64416e-07
6.48743e-07
1.5675e-07
-3.1813e-07
3.24676e-07
-7.30927e-07
2.4055e-11
-3.31491e-11
-1.94971e-10
7.23254e-11
-1.81417e-11
-3.00687e-10
1.72885e-10
-1.09207e-11
-3.37488e-10
8.98664e-10
1.13298e-11
-5.6571e-10
4.33098e-09
3.4044e-10
-2.35758e-09
9.07146e-09
1.59884e-09
-5.08872e-09
1.67792e-08
5.08453e-09
-8.04428e-09
3.18105e-08
1.40549e-08
-1.65362e-08
6.30157e-08
3.35053e-08
-4.08944e-08
7.1639e-08
-1.28283e-07
8.78879e-12
-1.30948e-11
-5.45571e-12
1.28917e-11
-3.85554e-12
1.01683e-12
3.47013e-11
-2.4014e-12
-3.74259e-12
5.27495e-11
6.35965e-12
-8.28922e-12
2.50432e-10
-1.99117e-11
-3.56604e-11
8.7763e-10
1.30165e-10
-1.17866e-10
2.39696e-09
6.50593e-10
-3.85429e-10
6.04439e-09
2.49469e-09
-1.36169e-09
9.36671e-09
6.79565e-09
-4.95714e-09
1.53065e-08
-2.21622e-08
1.17566e-11
-3.26061e-12
2.78339e-11
8.72483e-12
-1.82743e-12
3.35964e-11
3.88922e-11
1.56425e-14
2.84555e-11
1.19176e-10
1.17987e-10
3.54461e-12
2.93205e-11
5.62537e-11
-2.0209e-12
4.13822e-11
2.09477e-11
-1.83843e-11
2.27007e-10
9.04679e-11
-5.42913e-11
1.02896e-09
3.49992e-10
-2.1271e-10
1.85768e-09
1.35161e-09
-6.06443e-10
3.81888e-09
-3.56448e-09
9.56698e-12
-2.88977e-12
3.38954e-11
7.16536e-12
-1.16851e-12
1.29399e-11
1.41829e-11
7.54686e-13
1.05292e-11
2.0408e-10
1.88682e-10
1.77599e-11
2.25852e-11
1.95895e-10
6.85944e-12
5.08007e-12
1.49441e-11
-1.16787e-11
2.73904e-11
1.47546e-11
-2.46501e-11
2.03829e-10
8.25675e-11
-1.74858e-10
5.03211e-10
4.58798e-10
-3.71462e-10
1.72535e-09
-4.79267e-10
1.35672e-11
-2.98833e-11
4.67977e-11
7.69464e-12
-2.70743e-12
1.37006e-11
8.44777e-12
1.17864e-12
7.46677e-12
1.44563e-10
1.09002e-10
3.14752e-11
3.7232e-11
4.1789e-10
1.63321e-11
2.71684e-12
1.97984e-11
-1.16175e-11
1.39438e-11
1.65071e-11
-5.11322e-11
1.17284e-10
4.44382e-10
-4.7461e-10
2.78812e-10
1.07471e-09
-8.71856e-10
2.00337e-09
1.94317e-12
1.27735e-10
-3.27361e-11
4.98335e-11
2.54327e-11
-2.24096e-12
1.39091e-10
1.95836e-11
2.77273e-12
1.65851e-11
7.29119e-11
1.09534e-10
3.62459e-11
2.86828e-11
7.69814e-10
4.63057e-12
1.3496e-11
1.65321e-11
-1.63522e-11
8.52189e-11
3.96131e-11
-1.14033e-10
2.1865e-10
1.41023e-09
-1.26798e-09
1.00694e-10
2.53433e-09
-1.08351e-09
2.22568e-09
3.03111e-11
6.48515e-11
-4.02268e-11
9.87685e-11
2.03754e-11
-2.88607e-12
7.17013e-11
3.16886e-11
1.22585e-11
3.76306e-11
2.95454e-11
1.89107e-10
5.72242e-11
1.31234e-11
1.31585e-09
1.56233e-11
3.22644e-12
1.92077e-11
-3.12425e-11
-1.1032e-10
1.82551e-10
-2.31417e-10
-1.79129e-10
1.88404e-09
-1.34316e-09
-1.68292e-10
3.28919e-09
-1.13575e-09
2.26719e-09
3.86706e-12
4.45006e-11
-3.72382e-11
4.11387e-11
2.50014e-11
-2.2295e-11
4.11233e-11
1.67018e-11
8.03935e-11
3.82879e-11
-1.88606e-10
5.09777e-10
9.20355e-11
-3.67974e-11
1.39936e-09
-6.21193e-11
-3.27872e-11
9.05912e-11
-1.45295e-10
-3.33451e-10
2.48187e-10
-2.89641e-11
-5.62866e-10
1.39572e-09
-6.69622e-10
-3.358e-10
2.88937e-09
-5.18499e-10
2.72946e-09
1.94904e-13
8.26363e-11
-3.5603e-11
3.24301e-11
1.4058e-10
-6.36396e-12
1.08044e-10
-4.79048e-11
9.46674e-10
3.89241e-10
-2.5406e-10
9.35911e-10
5.35684e-11
-1.23255e-10
4.26379e-10
-1.74445e-10
-1.25082e-10
3.19416e-10
-3.32985e-10
-1.67262e-10
3.41143e-10
-2.11285e-10
-3.09621e-10
6.93967e-10
-6.32122e-11
-5.68296e-10
2.10666e-09
-3.73799e-10
5.16892e-09
-8.17097e-13
3.65175e-11
2.08701e-11
-7.94731e-12
-9.65841e-11
2.77668e-10
4.34144e-11
-2.64267e-10
5.44408e-10
1.26507e-09
-2.51893e-10
2.80615e-11
1.43419e-09
-4.52338e-10
-3.99585e-10
7.79924e-10
-5.0219e-10
-2.2224e-09
1.52779e-09
-3.57747e-10
-1.02773e-09
1.06449e-09
-6.95181e-10
-1.9404e-10
1.0015e-09
-2.25663e-09
-1.62407e-10
2.94665e-09
1.28999e-10
6.15147e-09
1.49785e-07
-9.35899e-08
5.15369e-08
1.85579e-07
-7.5474e-08
1.59425e-08
2.09449e-07
-4.51905e-08
-3.11814e-08
2.18239e-07
-1.30952e-08
-8.45239e-08
2.10297e-07
1.86124e-08
-1.36669e-07
1.84661e-07
4.82355e-08
-1.81851e-07
1.49807e-07
6.5761e-08
-2.15099e-07
1.20132e-07
6.33314e-08
-2.2899e-07
8.71478e-08
6.64283e-08
-2.2094e-07
1.40728e-07
-3.20139e-07
1.79256e-07
-2.08585e-07
4.69811e-08
2.41063e-07
-1.85804e-07
-1.43986e-08
2.93328e-07
-1.14694e-07
-8.94239e-08
3.18031e-07
-2.97821e-08
-1.61435e-07
3.11228e-07
5.20827e-08
-2.26549e-07
2.78634e-07
1.18908e-07
-2.81816e-07
2.3009e-07
1.58173e-07
-3.22161e-07
1.86942e-07
1.5237e-07
-3.36757e-07
1.25762e-07
1.74369e-07
-3.27523e-07
3.30544e-07
-4.65598e-07
2.17728e-07
-2.76201e-07
-8.0263e-09
2.73003e-07
-2.73354e-07
-3.28922e-08
3.23554e-07
-1.7914e-07
-1.06598e-07
3.48515e-07
-4.13141e-08
-1.91761e-07
3.42869e-07
9.31176e-08
-2.71406e-07
3.00715e-07
2.09383e-07
-3.34368e-07
2.39799e-07
2.76851e-07
-3.69315e-07
2.11161e-07
2.63993e-07
-3.51757e-07
1.48878e-07
3.35366e-07
-3.19004e-07
5.62554e-07
-5.28237e-07
3.26446e-07
-2.98527e-07
-9.74033e-08
3.74101e-07
-2.99788e-07
-5.18515e-08
4.16929e-07
-2.09307e-07
-1.16039e-07
4.29576e-07
-1.40645e-08
-2.37391e-07
3.9324e-07
1.90642e-07
-3.40675e-07
3.08032e-07
3.69047e-07
-4.10536e-07
2.07867e-07
4.71656e-07
-4.06944e-07
1.93796e-07
4.48057e-07
-2.9721e-07
1.42053e-07
5.68987e-07
-2.78957e-07
8.09827e-07
-6.40747e-07
4.72968e-07
-2.86909e-07
-1.85252e-07
5.07872e-07
-2.05775e-07
-9.54372e-08
5.10315e-07
-1.01907e-07
-1.51909e-07
5.21459e-07
1.09801e-07
-3.24122e-07
4.8899e-07
3.73991e-07
-4.87435e-07
3.68465e-07
6.39061e-07
-5.65979e-07
1.91233e-07
8.26525e-07
-5.11545e-07
9.46366e-08
8.40584e-07
-3.59533e-07
2.14178e-08
1.00215e-06
-5.01686e-07
1.07394e-06
-1.03694e-06
6.66026e-07
-1.75964e-07
-2.9536e-07
6.76455e-07
1.33631e-08
-1.30859e-07
6.81311e-07
1.23294e-07
-1.80543e-07
6.88536e-07
3.56749e-07
-3.97952e-07
6.13505e-07
7.59283e-07
-6.32623e-07
4.2296e-07
1.11585e-06
-6.65707e-07
1.36591e-07
1.38805e-06
-5.58856e-07
-1.67878e-07
1.522e-06
-5.22404e-07
-3.22036e-07
1.64279e-06
-1.07465e-06
1.29026e-06
-1.57307e-06
7.95828e-07
2.63578e-07
-5.57833e-07
6.23411e-07
5.15909e-07
-2.72317e-07
5.6462e-07
5.53983e-07
-2.58564e-07
6.28128e-07
6.30164e-07
-4.25274e-07
7.28282e-07
1.07714e-06
-7.76933e-07
6.14719e-07
1.71623e-06
-9.36191e-07
2.10553e-07
2.2611e-06
-9.12498e-07
-3.70187e-07
2.55171e-06
-9.21548e-07
-6.81641e-07
2.41895e-06
-1.54121e-06
1.14127e-06
-1.88898e-06
9.68938e-07
-3.90797e-08
-2.5128e-06
1.3516e-06
1.21754e-07
-2.55542e-06
1.51298e-06
2.8346e-07
-2.41622e-06
1.43345e-06
4.80614e-07
-2.04944e-06
1.32537e-06
7.94182e-07
-1.67289e-06
1.16088e-06
1.19692e-06
-1.31375e-06
9.09908e-07
1.59455e-06
-1.02201e-06
4.09869e-07
2.22134e-06
-9.48703e-07
6.96138e-09
2.35433e-06
-1.88022e-06
7.64913e-07
-3.30563e-06
1.64318e-08
-1.07064e-09
-3.30295e-07
6.96204e-08
-8.65648e-10
-5.82487e-07
1.75358e-07
-4.44731e-10
-1.37194e-06
5.11168e-07
5.2486e-08
-2.39887e-06
9.00058e-07
1.1231e-07
-2.95296e-06
1.40267e-06
1.38318e-07
-3.47327e-06
1.87178e-06
1.29046e-07
-3.47069e-06
2.09272e-06
1.70023e-07
-3.24919e-06
1.92868e-06
2.85291e-07
-2.78148e-06
4.93024e-07
-3.57546e-06
-8.64103e-11
-9.86974e-10
-3.44913e-10
2.71427e-11
-8.79545e-10
-3.37528e-10
8.16558e-11
-2.30231e-10
-5.22774e-10
1.59465e-08
-2.30037e-09
-6.54698e-10
3.31686e-08
3.60653e-09
-6.2886e-10
3.73288e-08
6.52244e-09
-4.27128e-10
4.73415e-08
9.06101e-09
-1.72792e-08
9.1353e-08
2.16808e-08
-6.14779e-08
1.24736e-07
4.40054e-08
-1.06853e-07
7.85958e-08
-2.2926e-07
-6.88275e-11
-2.72559e-10
-4.03565e-10
2.98791e-10
-1.99379e-10
-8.39877e-10
9.41183e-10
-2.06941e-10
-6.84097e-10
9.848e-10
-3.5248e-11
-1.25372e-09
3.44555e-09
7.18593e-11
-1.32839e-09
5.49771e-09
2.81113e-10
-9.66178e-10
6.4611e-09
4.73611e-10
-6.92295e-10
1.11881e-08
1.86272e-09
-1.48771e-09
1.70117e-08
5.82444e-09
-7.31475e-09
1.21669e-08
-4.24103e-08
1.82567e-11
-2.32e-10
-7.66018e-11
9.45624e-11
-3.61858e-10
-2.18854e-10
1.08751e-10
-2.04057e-10
-2.04644e-10
5.40052e-11
-2.00703e-11
-7.25551e-11
9.02774e-11
-1.02503e-13
-1.58379e-11
2.69189e-10
2.74168e-12
-2.8255e-11
5.27422e-10
3.86276e-11
-2.11628e-10
1.39103e-09
9.49784e-11
-4.18217e-10
2.2606e-09
1.03118e-09
-7.40368e-10
1.40062e-09
-7.1453e-09
5.37857e-10
-3.74806e-10
1.34952e-10
5.38032e-10
-8.94326e-10
1.05468e-10
5.92844e-11
-2.94495e-10
5.89545e-11
3.14207e-11
-1.11302e-11
6.49515e-12
1.32043e-11
5.33777e-12
-2.41701e-13
1.32316e-11
6.10183e-12
-2.74745e-11
3.43615e-11
5.4481e-12
-4.69429e-11
2.23368e-10
4.67159e-11
-3.1991e-10
3.82008e-10
8.28785e-10
-5.30352e-10
3.85398e-10
-1.78621e-09
1.03188e-09
-5.25244e-10
3.41555e-10
1.08153e-09
-1.01295e-09
3.11421e-10
7.62729e-11
-2.34411e-10
2.55244e-10
2.80438e-11
1.07044e-11
3.51359e-11
1.29383e-11
1.75017e-11
4.06564e-12
6.50005e-12
7.98229e-12
-1.21114e-11
1.60643e-11
2.85203e-12
-3.73369e-11
2.46824e-10
2.84324e-10
-5.48141e-10
2.04905e-10
2.34067e-09
-1.14006e-09
1.0788e-09
-4.4303e-10
1.44243e-09
-7.19097e-10
2.75969e-10
1.00214e-09
-8.4704e-10
4.57267e-10
6.51203e-11
-3.33036e-11
4.55601e-10
1.61623e-11
2.17713e-11
6.19249e-11
1.19879e-11
2.52547e-11
7.763e-12
5.55676e-12
7.27292e-12
-8.80033e-12
2.98252e-11
1.36074e-11
-3.16092e-11
-4.37077e-11
8.4185e-10
-5.32475e-10
-1.05716e-10
3.73302e-09
-1.60835e-09
1.21067e-09
-7.14931e-11
9.66889e-10
-6.51692e-10
1.82059e-10
3.382e-10
-3.6255e-10
5.28673e-10
1.34618e-11
-7.68719e-13
3.63692e-10
9.45353e-12
2.86701e-11
4.71893e-11
3.71308e-12
2.45344e-11
6.89848e-12
-2.65458e-12
5.68041e-12
-1.27475e-11
-5.20464e-11
5.36308e-11
-3.61923e-11
-6.09084e-10
1.17843e-09
-3.10003e-10
-2.85681e-10
3.27786e-09
-4.10117e-10
6.85198e-10
-2.24415e-11
7.17623e-10
-2.46083e-10
1.61454e-10
1.4188e-10
-6.81343e-11
3.71311e-10
1.0306e-11
1.31091e-11
1.62711e-10
-1.6042e-12
5.04517e-11
4.83077e-11
-7.07199e-12
3.49821e-11
2.22054e-12
-3.03882e-11
4.38777e-11
-5.03163e-11
-2.60055e-10
2.08392e-10
-1.2442e-10
-1.06942e-09
8.86586e-10
-1.52871e-10
-3.35501e-10
1.62428e-09
-2.30366e-10
3.75651e-10
-1.40095e-11
7.61983e-11
-1.80051e-11
5.8595e-11
4.41527e-11
-7.3881e-12
1.30558e-10
1.81848e-13
4.19094e-11
8.30106e-11
-1.82057e-11
1.04827e-10
6.34613e-11
-1.68059e-10
1.05349e-10
-1.99616e-11
-5.4311e-10
3.44768e-10
-7.91496e-10
-5.11892e-10
4.97846e-10
-1.13819e-09
-5.27685e-10
1.5255e-10
-1.15653e-10
-7.98863e-11
1.02103e-10
-3.00347e-11
3.17619e-10
-5.41334e-12
1.44287e-11
-1.69244e-11
1.53728e-11
2.56309e-11
3.95794e-11
2.344e-10
-3.62715e-11
8.34806e-10
3.88908e-10
-9.9556e-11
1.79058e-10
5.83545e-11
-8.10464e-10
4.80194e-10
-7.76146e-11
-1.42168e-09
5.89123e-10
-1.55706e-09
-9.01754e-10
8.56542e-10
-2.36424e-09
-4.56334e-10
2.72778e-10
-5.56971e-10
-3.95317e-10
1.41297e-10
-2.31157e-12
8.24305e-10
-3.68203e-12
6.58945e-12
1.06851e-10
-4.15535e-11
-2.34099e-10
8.82798e-10
4.67062e-10
-1.4529e-10
6.29942e-10
1.63567e-09
-2.57844e-10
4.74515e-11
2.73352e-10
-2.85998e-09
-9.11072e-11
1.25987e-09
-3.84321e-09
-1.64701e-09
1.38497e-09
-1.68854e-09
-2.3297e-09
1.44286e-09
-7.48779e-10
-1.21314e-09
3.62634e-10
-6.95332e-10
-3.04868e-12
1.83306e-10
-4.2446e-14
2.8686e-10
1.27426e-07
-1.3947e-08
6.45783e-08
1.45095e-07
-3.82273e-08
3.65e-08
1.64856e-07
-3.54702e-08
-1.54715e-08
1.74436e-07
-2.16142e-08
-7.24899e-08
1.70371e-07
-2.09318e-09
-1.3051e-07
1.51267e-07
2.15793e-08
-1.84326e-07
1.24459e-07
3.67144e-08
-2.25006e-07
1.02209e-07
3.6131e-08
-2.42871e-07
7.70881e-08
4.1997e-08
-2.37816e-07
1.04209e-07
-3.4726e-07
1.50252e-07
-7.21351e-08
1.10028e-07
1.83215e-07
-1.27489e-07
4.19012e-08
2.32581e-07
-1.1686e-07
-5.74003e-08
2.63904e-07
-6.69933e-08
-1.47379e-07
2.63061e-07
9.2261e-10