/*--------------------------------*- C++ -*----------------------------------*\
| =========                 |                                                 |
| \\      /  F ield         | OpenFOAM: The Open Source CFD Toolbox           |
|  \\    /   O peration     | Version:  2312                                  |
|   \\  /    A nd           | Website:  www.openfoam.com                      |
|    \\/     M anipulation  |                                                 |
\*---------------------------------------------------------------------------*/
FoamFile
{
    version     2.0;
    format      ascii;
    arch        "LSB;label=32;scalar=64";
    class       volScalarField;
    location    "0.715";
    object      p_rgh;
}
// * * * * * * * * * * * * * * * * * * * * * * * * * * * * * * * * * * * * * //

dimensions      [1 -1 -2 0 0 0 0];

internalField   nonuniform List<scalar> 
8000
(
397.571
396.92
396.788
397.117
397.801
398.704
399.677
400.571
401.27
401.743
397.206
396.617
396.61
397.121
398.019
399.152
400.346
401.427
402.249
402.861
396.391
395.941
396.228
397.135
398.474
400.062
401.683
403.126
404.189
405.076
394.988
394.709
395.445
397.016
399.082
401.446
403.792
405.811
407.246
408.58
393.025
393.047
394.512
396.854
400.023
403.512
406.945
409.923
412.335
414.231
388.512
389.082
391.937
395.743
400.178
405.535
411.153
416.158
420.402
422.486
377.905
380.784
385.969
392.038
398.809
407.266
416.478
424.772
430.77
429.143
212.7
241.592
276.827
301.246
308.281
344.018
400.106
437.034
448.647
454.288
19.1947
22.321
32.0965
49.3773
94.7911
178.476
311.906
438.521
474.988
488.206
0.0637185
0.170265
0.2882
0.527463
1.12004
12.8537
87.9555
313.05
478.313
506.748
-0.0664673
-0.00678736
0.0482496
0.168575
0.426675
0.887654
2.13043
95.2214
344.78
483.463
-0.202482
-0.157382
-0.124004
-0.116442
0.00232837
0.245163
0.516589
0.992685
70.0802
392.132
-0.24099
-0.206259
-0.190647
-0.230541
-0.171793
-0.000757382
0.160116
0.315326
0.695842
125.027
-0.218798
-0.204016
-0.196034
-0.215801
-0.150844
-0.0922731
0.0243133
0.0720599
0.0889742
0.540875
-0.205414
-0.205157
-0.200341
-0.201063
-0.17954
-0.12502
-0.0338093
-0.0173087
-0.0299823
0.407106
-0.212552
-0.211935
-0.202687
-0.223453
-0.238144
-0.142721
-0.0748082
-0.0698445
-0.106987
0.117776
-0.226887
-0.226222
-0.206429
-0.235306
-0.265575
-0.174646
-0.143928
-0.156638
-0.20225
-0.0733259
-0.2501
-0.263206
-0.260825
-0.281153
-0.305627
-0.242583
-0.246329
-0.257074
-0.146909
0.105426
-0.277449
-0.327914
-0.382359
-0.339831
-0.363047
-0.33804
-0.357119
-0.348898
0.20796
0.124202
-0.298822
-0.394408
-0.493698
-0.452381
-0.406472
-0.42451
-0.445421
-0.289261
0.288205
0.0860179
397.362
396.665
396.465
396.711
397.302
398.106
398.984
399.802
400.449
400.914
396.969
396.336
396.259
396.68
397.473
398.489
399.565
400.549
401.285
401.888
396.068
395.589
395.827
396.64
397.852
399.295
400.765
402.117
403.083
403.824
394.464
394.193
394.855
396.373
398.331
400.519
402.613
404.663
405.718
406.873
391.917
392.065
393.607
396.129
399.132
402.394
405.384
408.182
410.022
411.854
387.067
387.927
390.865
394.597
399.214
404.27
409.049
413.985
417.652
419.401
371.743
376.527
383.891
391.54
398.71
406.499
414.426
422.226
428.45
429.281
175.809
203.062
256.084
312.814
359.044
399.983
419.932
432.951
442.585
447.173
0.24897
0.328408
0.449671
7.93878
40.7498
102.661
224.483
375.396
461.24
467.426
-0.0633632
-0.014831
0.0489084
0.0755939
0.247497
0.822774
6.28133
78.0699
262.766
347.203
-0.240415
-0.224333
-0.219302
-0.174434
-0.0203671
0.195274
0.453258
1.19693
19.5428
95.4212
-0.348155
-0.314565
-0.317573
-0.346292
-0.236289
-0.052821
0.0871313
0.227619
0.71142
3.0593
-0.363915
-0.307682
-0.311444
-0.361817
-0.33994
-0.136652
-0.0157375
0.0359499
0.108282
0.779385
-0.307972
-0.265537
-0.264256
-0.317611
-0.339525
-0.169035
-0.0850786
-0.0562394
-0.0761282
0.15689
-0.251974
-0.240512
-0.242923
-0.287355
-0.317899
-0.20445
-0.141127
-0.125698
-0.164499
0.045938
-0.229462
-0.237273
-0.243149
-0.302634
-0.324659
-0.223473
-0.192684
-0.201976
-0.260362
-0.137738
-0.237572
-0.261367
-0.262282
-0.323591
-0.323561
-0.252851
-0.26844
-0.295577
-0.369249
-0.102232
-0.269585
-0.31214
-0.331382
-0.363005
-0.30832
-0.321357
-0.371381
-0.409846
-0.486514
0.190045
-0.308293
-0.389435
-0.461098
-0.392055
-0.321062
-0.414716
-0.484327
-0.529577
-0.548867
0.315773
-0.36642
-0.505556
-0.574352
-0.47643
-0.37746
-0.511737
-0.585838
-0.633164
-0.414065
0.444605
397.018
396.229
395.9
395.991
396.413
397.054
397.79
398.498
399.072
399.489
396.664
395.94
395.722
395.958
396.557
397.38
398.288
399.145
399.805
400.325
395.864
395.286
395.347
395.956
396.909
398.094
399.341
400.534
401.349
402
394.426
394.076
394.572
395.745
397.368
399.199
401.011
402.901
403.826
404.634
392.084
392.153
393.461
395.641
398.26
401.028
403.526
406.401
407.368
408.677
388.248
388.799
391.037
394.457
398.686
402.952
406.932
410.987
412.931
414.308
379.659
381.59
386.897
392.885
399.915
406.231
411.939
417.655
420.668
421.684
219.916
235.331
270.953
322.205
361.465
391.227
414.737
425.524
429.834
402.949
0.0508693
0.0671636
0.266478
16.7818
49.6157
96.2308
152.966
251.727
328.98
326.335
-0.0887273
-0.0333035
0.050709
0.0387753
0.104284
0.414474
1.37287
7.44409
33.242
76.6163
-0.229941
-0.199935
-0.202203
-0.196544
-0.144063
-0.0262437
0.163203
0.419327
0.945697
3.44164
-0.324577
-0.301852
-0.300192
-0.295781
-0.231322
-0.127474
-0.0328381
0.0597689
0.184016
0.999224
-0.342869
-0.319026
-0.327625
-0.341539
-0.279045
-0.154661
-0.0740253
-0.0450512
-0.0433497
0.252706
-0.320901
-0.297058
-0.297343
-0.311339
-0.280069
-0.180532
-0.135597
-0.142112
-0.190593
-0.0280665
-0.283434
-0.283733
-0.289155
-0.294742
-0.272274
-0.192271
-0.191713
-0.242862
-0.311406
-0.183552
-0.264157
-0.295548
-0.302101
-0.298635
-0.249988
-0.174741
-0.248874
-0.307416
-0.41499
-0.256093
-0.2895
-0.328029
-0.333796
-0.301696
-0.152861
-0.196872
-0.331005
-0.409534
-0.48691
-0.277132
-0.332414
-0.383227
-0.39612
-0.304177
-0.0795782
-0.282199
-0.437275
-0.500808
-0.527497
-0.26738
-0.396432
-0.474499
-0.486574
-0.336856
-0.1772
-0.387093
-0.540855
-0.626313
-0.532264
-0.187344
-0.456608
-0.583679
-0.561108
-0.403732
-0.324567
-0.461596
-0.625147
-0.6814
-0.443033
0.178611
396.477
395.579
395.078
394.956
395.147
395.57
396.121
396.687
397.171
397.524
396.184
395.344
394.934
394.922
395.245
395.807
396.491
397.172
397.729
398.168
395.535
394.828
394.652
394.936
395.536
396.369
397.308
398.217
398.91
399.48
394.448
393.938
394.121
394.823
395.934
397.256
398.614
399.903
400.734
401.524
392.827
392.64
393.539
395.066
396.92
398.908
400.755
402.497
403.575
404.619
390.129
390.245
392.082
394.568
397.559
400.556
403.292
405.734
407.038
408.105
385.039
386.231
390.106
394.999
399.982
404.288
407.752
410.582
411.454
412.5
288.499
291.265
310.916
332.357
351.545
369.938
385.918
406.083
408.066
343.913
1.54259
5.08795
21.1794
52.8639
83.306
112.351
133.28
157.657
154.188
182.045
-0.0660665
0.0165526
0.0759983
0.109847
0.0738926
0.058874
0.351574
0.861067
1.86326
7.50177
-0.150038
-0.0589643
-0.051477
-0.138459
-0.162712
-0.1295
-0.0411216
0.0888578
0.250658
1.18799
-0.282634
-0.20279
-0.184513
-0.201371
-0.202498
-0.163572
-0.108334
-0.0485338
-0.0231476
0.281663
-0.291532
-0.220229
-0.237336
-0.254039
-0.223733
-0.163506
-0.133718
-0.154984
-0.200289
-0.0168914
-0.26717
-0.203766
-0.248852
-0.266602
-0.223839
-0.168384
-0.165039
-0.236304
-0.304409
-0.143856
-0.240979
-0.218098
-0.285349
-0.269705
-0.212717
-0.149106
-0.188127
-0.308415
-0.357862
-0.228304
-0.239098
-0.295029
-0.334192
-0.268414
-0.16269
-0.108543
-0.242432
-0.379097
-0.408442
-0.259929
-0.266879
-0.360936
-0.364337
-0.264926
-0.0784803
-0.143354
-0.322484
-0.42543
-0.40022
-0.232649
-0.379692
-0.434673
-0.41838
-0.246454
-0.110097
-0.220388
-0.361716
-0.479528
-0.380863
-0.194779
-0.455175
-0.523055
-0.482383
-0.304796
-0.249585
-0.285741
-0.377137
-0.467133
-0.337611
-0.139791
-0.499986
-0.565752
-0.510523
-0.420775
-0.376896
-0.188562
-0.299504
-0.503281
-0.337496
-0.127978
395.821
394.749
394.014
393.622
393.53
393.699
394.046
394.469
394.866
395.159
395.584
394.565
393.896
393.567
393.536
393.801
394.242
394.755
395.213
395.579
395.102
394.198
393.69
393.541
393.738
394.14
394.755
395.432
396.002
396.484
394.317
393.642
393.428
393.535
393.918
394.666
395.552
396.476
397.197
397.843
393.231
393.048
393.449
394.151
395.102
396.106
397.267
398.446
399.278
400.001
390.943
392.168
393.346
394.403
395.769
397.358
398.942
400.405
401.022
401.666
389.356
391.638
395.097
397.565
399.809
401.774
403.146
403.546
402.228
401.19
316.319
317.385
334.855
340.775
343.598
351.263
364.095
374.748
359.582
305.488
31.8443
65.648
121.236
168.232
182.034
175.89
156.364
125.779
79.5073
104.798
-0.0561476
0.0417659
0.0141119
-0.0748729
-0.0950417
-0.0609884
-0.00113293
0.155784
0.59922
2.40231
-0.124777
-0.00330646
-0.0358152
-0.123374
-0.155158
-0.144934
-0.0971828
-0.00745811
0.0487072
0.426895
-0.167153
-0.0614188
-0.136738
-0.221299
-0.227337
-0.166212
-0.09343
-0.0782844
-0.124514
0.0752111
-0.203399
-0.149033
-0.19655
-0.243636
-0.220156
-0.168564
-0.143307
-0.185217
-0.242739
-0.0418891
-0.211354
-0.188568
-0.177876
-0.223754
-0.191669
-0.152253
-0.142924
-0.228556
-0.238964
-0.150037
-0.230804
-0.214297
-0.205071
-0.227543
-0.174884
-0.117939
-0.149817
-0.279582
-0.260945
-0.203282
-0.292741
-0.247548
-0.264331
-0.250765
-0.145685
-0.0956483
-0.194312
-0.334623
-0.309245
-0.182305
-0.3442
-0.360871
-0.3444
-0.265843
-0.142967
-0.157748
-0.25276
-0.320375
-0.252601
-0.140461
-0.397897
-0.462602
-0.417883
-0.30305
-0.255465
-0.196377
-0.198086
-0.311869
-0.21664
-0.138947
-0.459558
-0.522118
-0.461569
-0.403028
-0.399982
-0.186518
-0.116684
-0.231464
-0.251681
-0.17702
-0.468828
-0.49283
-0.477562
-0.507374
-0.513069
-0.35721
-0.1403
-0.160857
-0.290864
-0.21622
395.056
393.768
392.769
392.044
391.61
391.514
391.674
391.984
392.325
392.575
394.896
393.632
392.632
391.904
391.482
391.414
391.628
392.021
392.422
392.76
394.568
393.36
392.426
391.717
391.331
391.373
391.766
392.318
392.806
393.248
394.193
393.138
392.337
391.641
391.199
391.272
391.746
392.51
393.227
393.923
393.458
392.956
392.617
392.108
391.84
392.075
392.882
393.772
394.547
395.182
384.008
392.711
393.689
393.006
392.57
392.595
393.466
394.475
394.923
395.943
387.59
395.367
397.755
397.849
397.448
397.558
397.803
397.142
394.531
395.484
322.845
306.413
345.539
380.89
379.124
372.928
364.599
355.752
321.605
283.353
91.8277
173.8
231.143
244.495
221.517
181.5
142.304
97.0808
51.5213
75.5807
-0.00509461
0.0284864
-0.161153
-0.327552
-0.264395
-0.143011
-0.0345628
0.0749016
0.167409
1.04245
-0.0667632
-0.0629935
-0.283924
-0.451303
-0.350471
-0.208218
-0.131782
-0.0623585
-0.0717691
0.130554
-0.138286
-0.0756805
-0.243364
-0.338453
-0.237352
0.069767
0.0580624
-0.0975828
-0.210507
-0.0218319
-0.175502
-0.148204
-0.206712
-0.318343
-0.252588
-0.151619
-0.108012
-0.163846
-0.263317
-0.0853173
-0.247888
-0.192791
-0.200893
-0.270984
-0.21717
-0.16192
-0.123112
-0.198028
-0.202738
-0.127756
-0.29864
-0.265614
-0.234748
-0.243554
-0.190917
-0.14195
-0.130157
-0.213032
-0.191687
-0.144413
-0.311419
-0.33157
-0.282362
-0.254159
-0.183135
-0.150577
-0.184425
-0.239911
-0.198874
-0.146521
-0.330738
-0.372036
-0.318555
-0.274381
-0.227899
-0.218576
-0.210764
-0.242765
-0.196037
-0.147984
-0.366019
-0.429653
-0.365857
-0.327127
-0.331296
-0.290236
-0.169047
-0.163661
-0.194273
-0.156721
-0.428143
-0.444099
-0.39308
-0.387054
-0.405497
-0.367006
-0.239533
-0.0889404
-0.217891
-0.181985
-0.4067
-0.41356
-0.39591
-0.416006
-0.456196
-0.412362
-0.328225
-0.138085
-0.254765
-0.217158
394.185
392.665
391.302
390.21
389.427
389.107
389.13
389.396
389.717
389.973
394.09
392.542
391.102
389.896
389.063
388.724
388.808
389.175
389.587
389.93
393.94
392.271
390.726
389.294
388.284
387.988
388.237
388.841
389.454
389.977
393.968
392.326
390.487
388.684
387.172
386.906
387.344
388.28
389.167
390.045
394.088
392.582
390.532
387.932
386.189
386.026
387.016
388.486
389.701
390.493
395.162
393.331
391.922
388.531
385.703
384.694
386.033
387.716
388.706
390.432
390.65
396.529
396.889
393.474
388.986
386.942
388.428
390.761
388.943
389.046
352.83
362.711
392.183
405.091
387.001
390.597
390.811
363.615
307.906
265.404
210.316
241.502
247.536
192.403
96.1051
50.9834
58.3853
58.0788
38.3019
61.6504
0.0318627
-0.0855282
-0.376048
-0.369148
-0.271204
-0.171949
-0.0344822
0.0679067
0.0877944
0.340186
-0.0442883
-0.311967
-0.667073
-0.685951
-0.411113
-0.193896
-0.105086
-0.0527217
-0.135779
0.0118097
-0.0935099
-0.192539
-0.461376
-0.536152
-0.160206
0.0745858
-0.0406834
-0.0950921
-0.263387
-0.0900924
-0.205612
-0.23943
-0.349091
-0.360738
-0.237808
-0.135146
-0.0910844
-0.151411
-0.281128
-0.105664
-0.27953
-0.273773
-0.316812
-0.336763
-0.262528
-0.179632
-0.132208
-0.169581
-0.153131
-0.0612198
-0.293803
-0.311787
-0.303867
-0.288462
-0.229224
-0.177458
-0.148028
-0.181866
-0.129511
-0.0312242
-0.302434
-0.339872
-0.315812
-0.265477
-0.195506
-0.173685
-0.168037
-0.1878
-0.158548
-0.102446
-0.299363
-0.380437
-0.298117
-0.246216
-0.180627
-0.177943
-0.174661
-0.18189
-0.171036
-0.140085
-0.343168
-0.387434
-0.302583
-0.21341
-0.184732
-0.203734
-0.19542
-0.187151
-0.18953
-0.16393
-0.386431
-0.373791
-0.295542
-0.21713
-0.200109
-0.244948
-0.236269
-0.223675
-0.214248
-0.190076
-0.34966
-0.327281
-0.285315
-0.280378
-0.18976
-0.257265
-0.29794
-0.276714
-0.238643
-0.216718
393.271
391.569
389.762
388.431
387.235
386.729
386.648
386.949
387.304
387.589
393.145
391.374
389.451
388.029
386.633
385.95
385.951
386.405
386.916
387.327
393.016
390.901
388.745
386.894
385.34
384.374
384.517
385.367
386.211
386.896
393.116
390.817
388.008
385.364
382.9
381.767
382.274
383.9
385.29
386.369
393.573
390.224
386.943
383.687
379.076
377.818
379.419
382.367
384.59
386.099
394.317
388.53
385.732
381.566
373.75
371.509
374.908
379.933
383.051
385.451
393.447
392.016
385.37
381.1
365.03
365.494
375.106
382.32
383.797
384.027
405.479
397.332
392.184
348.107
178.615
191.194
320.154
381.898
336.695
260.78
305.905
215.119
99.4169
21.392
2.24017
1.34614
4.61756
22.9136
21.9269
55.3055
0.0376375
-0.17253
-0.151935
0.318224
0.708931
0.215054
0.108548
0.13387
0.081385
0.304601
-0.180776
-0.493987
-0.384869
-0.0452836
0.388719
-0.0490698
-0.0422476
0.00897902
-0.115257
-0.0407443
-0.140374
-0.389442
-0.368609
-0.136935
-0.213296
-0.143616
-0.119004
-0.0876723
-0.26975
-0.138223
-0.197127
-0.345973
-0.38396
-0.270736
-0.273989
-0.203466
-0.148534
-0.148926
-0.269477
-0.101709
-0.269182
-0.325452
-0.309298
-0.257995
-0.254576
-0.207001
-0.175951
-0.162634
-0.161166
-0.0393866
-0.298213
-0.333559
-0.318216
-0.28939
-0.224286
-0.170724
-0.174569
-0.158759
-0.09881
-0.0126602
-0.309064
-0.349278
-0.313662
-0.238795
-0.152182
-0.0835348
-0.144877
-0.157355
-0.129836
-0.0262031
-0.315474
-0.370549
-0.300059
-0.173077
-0.0369578
0.109901
-0.0800879
-0.178608
-0.159241
-0.117421
-0.338494
-0.371262
-0.258223
-0.117737
0.00858269
0.278077
-0.0686158
-0.215463
-0.193618
-0.170711
-0.338084
-0.344715
-0.224982
-0.0861813
0.140129
0.169688
-0.0609617
-0.245498
-0.21857
-0.185991
-0.286834
-0.297362
-0.223656
0.168143
0.369518
-0.00610958
0.161991
-0.256666
-0.23068
-0.204565
392.34
390.381
388.328
386.506
385.003
384.382
384.426
384.87
385.334
385.679
392.196
390.066
387.697
385.412
383.701
383.036
383.264
383.989
384.688
385.214
391.88
389.349
386.444
383.538
380.609
380.255
380.776
382.188
383.432
384.363
391.751
388.469
384.596
380.95
375.774
374.337
376.443
379.419
381.756
383.274
392.184
386.704
380.777
374.674
366.204
365.432
369.978
375.708
379.739
382.277
393.077
380.789
368.275
361.903
346.956
348.949
359.579
370.743
377.223
381.029
396.082
373.394
359
337.256
267.312
230.089
331.949
370.188
377.393
379.715
404
388.252
366.809
147.793
10.826
4.2638
40.6563
276.466
354.164
273.548
305.106
60.876
2.79401
2.42124
2.41382
1.9469
1.10532
0.921523
5.50128
67.7733
0.182003
0.244642
1.05118
1.83333
1.702
0.872878
0.391444
0.256877
0.14993
0.296328
-0.303379
-0.087675
0.853031
1.22834
1.04732
0.149511
0.0660279
0.0574462
-0.0758571
-0.0706297
-0.36974
-0.294905
0.491773
0.681383
0.683959
-0.0244569
-0.0616845
-0.0784641
-0.261509
-0.174794
-0.281294
-0.320833
0.211986
0.502918
0.596361
-0.0348879
-0.13125
-0.158534
-0.305933
-0.162244
-0.258456
-0.310607
-0.351646
-0.232004
0.183126
0.465261
-0.165498
-0.183874
-0.222925
-0.129968
-0.275936
-0.313255
-0.342043
-0.326524
-0.198117
0.652874
-0.155031
-0.175257
-0.143025
-0.0289089
-0.297336
-0.335118
-0.332095
-0.265286
0.190128
0.69096
-0.136632
-0.175548
-0.137843
-0.0262279
-0.312699
-0.356541
-0.319691
-0.210855
0.41536
0.738401
-0.130913
-0.201474
-0.169364
-0.109042
-0.315028
-0.36203
-0.304903
-0.191208
0.103599
0.744166
0.120551
-0.230771
-0.197989
-0.165381
-0.294073
-0.345202
-0.255477
0.0582936
-0.0753557
0.167671
0.749642
-0.237221
-0.213532
-0.180109
-0.258792
-0.313769
-0.144422
0.363258
-0.0989285
-0.0990757
0.77364
-0.218274
-0.217106
-0.182186
391.28
389.543
387.307
385.496
383.82
382.97
383.008
383.552
384.109
384.512
390.769
389.106
386.426
383.938
382.17
381.137
381.464
382.39
383.261
383.894
388.804
387.979
384.605
381.204
378.623
377.464
378.012
379.958
381.559
382.726
387.222
386.755
382.265
377.13
371.45
367.636
371.394
376.07
379.161
381.146
386.282
384.635
377.624
368.395
347.431
349.114
362.029
370.091
375.901
379.465
388.326
382.367
368.121
331.884
306.851
310.368
342.587
361.991
371.294
377.043
391.618
382.182
356.714
299.887
172.698
63.6501
171.45
337.416
368.73
375.113
388.784
351.146
237.453
63.535
3.50129
4.05663
3.48792
55.6825
301.147
292.037
90.3789
6.72508
2.35986
2.17459
2.35067
2.11611
1.64342
0.739259
0.856257
91.2917
0.285304
0.850919
1.53856
1.43745
1.34381
0.912535
0.586016
0.383028
0.22162
0.138649
-0.080927
0.388921
0.873508
0.957447
0.807197
0.42012
0.209263
0.112526
-0.0395929
-0.0519185
-0.345328
0.0664646
0.706007
0.49732
0.360145
0.0983599
-0.0356855
-0.0825074
-0.261187
-0.213082
-0.372149
0.236725
0.511276
0.27299
0.180527
-0.0509979
-0.159613
-0.151422
-0.388998
-0.235299
-0.252125
0.251222
0.40269
0.0602662
0.109618
0.344496
-0.191195
-0.159225
-0.350964
-0.188644
-0.214714
0.186265
-0.0478152
-0.23661
0.0512683
0.576946
-0.185455
-0.175293
-0.221805
-0.108147
-0.233679
-0.23846
-0.350812
-0.267549
-0.102719
0.619447
-0.192608
-0.218091
-0.167764
-0.0740031
-0.28992
-0.388408
-0.19454
-0.244354
-0.121215
0.218432
0.128554
-0.23063
-0.205224
-0.158313
-0.318505
-0.277302
0.450498
-0.124909
-0.121774
-0.0999916
0.665448
-0.241962
-0.234681
-0.187193
-0.297692
-0.210138
0.622333
0.399763
-0.101218
0.0651543
0.71561
-0.236745
-0.238285
-0.199085
-0.261939
-0.0448872
0.720698
0.748026
-0.0839196
0.0805375
0.777938
-0.20572
-0.222396
-0.189606
390.883
389.232
386.92
385.027
383.414
382.546
382.635
383.236
383.849
384.286
389.974
388.888
385.899
383.657
381.704
380.584
380.88
381.953
382.926
383.624
388.428
387.635
384.217
380.859
378.041
376.239
376.745
379.152
381.017
382.356
386.389
385.844
381.278
376.292
370.74
365.723
368.027
374.289
378.214
380.597
384.75
383.166
375.664
367.911
350.389
338.279
356.765
366.873
374.091
378.465
386.986
380.176
370.031
338.729
298.815
289.494
316.636
354.094
367.299
375.032
388.801
376.095
355.079
297.492
139.388
44.947
69.0584
238.213
359.33
373.851
345.78
213.103
143.681
36.598
3.02267
3.06844
2.75914
3.58942
190.174
315.011
21.1233
3.07103
2.43106
2.27321
2.17988
1.8913
1.49337
0.906158
0.547981
131.628
0.758411
1.70911
2.33528
1.88757
1.39842
0.938802
0.72161
0.510892
0.276955
0.702704
0.541322
0.611097
0.839591
1.69323
1.26823
0.50093
0.374949
0.159831
0.0161176
0.00865958
0.160413
0.0886837
0.280705
0.791963
0.946366
0.151871
0.126616
0.0191828
-0.22848
-0.199533
-0.368771
-0.14033
-0.049864
-0.0761032
0.0356375
-0.0848851
-0.153944
-0.00642146
-0.394669
-0.280047
-0.353889
-0.110227
-0.209608
-0.204764
-0.199994
-0.202119
-0.219858
-0.152504
-0.402902
-0.250466
-0.241662
0.0194944
-0.271045
-0.25515
-0.238442
-0.230305
-0.243078
-0.246331
-0.285785
-0.190398
-0.193828
-0.00635324
-0.298144
-0.264853
-0.101527
-0.0471204
-0.282778
-0.253906
-0.237793
-0.179264
-0.276194
-0.15872
-0.311391
-0.260244
0.0517732
0.215684
-0.32713
-0.285991
-0.255823
-0.222827
-0.313511
-0.410694
-0.322949
-0.250894
-0.0939763
0.295385
-0.191732
-0.32124
-0.253465
-0.260507
-0.280988
-0.365517
-0.267781
-0.16525
-0.163311
0.372473
0.427637
-0.325385
-0.155893
-0.264612
-0.232377
-0.277991
0.339055
-0.00689765
-0.158049
-0.0958252
0.705752
-0.274739
-0.0963775
-0.238906
391.473
389.593
387.335
385.63
384.217
383.433
383.526
384.077
384.656
385.078
391.132
388.983
386.581
384.488
382.696
381.565
382.052
382.972
383.863
384.516
390.546
387.833
384.903
381.961
379.214
378.45
378.845
380.622
382.26
383.459
389.591
385.669
381.249
377.877
374.27
370.783
372.638
376.633
379.933
382.017
388.22
378.742
369.62
369.265
364.801
358.473
363.556
370.82
376.938
380.511
388.223
373.406
367.135
360.983
338.345
332.338
346.449
361.629
371.704
378.061
388.488
372.871
364.154
327.414
203.846
128.681
199.67
327.079
367.665
377.245
311.533
180.364
175.35
65.1481
3.87485
2.96088
3.26885
42.9074
294.525
315.447
7.13565
3.62134
3.33354
2.6789
2.40132
1.70038
1.06926
0.619116
1.17814
133.448
1.3855
2.10545
2.61734
2.36541
1.69921
0.751521
0.526343
0.362029
0.250762
0.961348
0.840823
0.994378
1.09027
1.74396
1.41397
0.422552
0.215347
0.107727
0.0488083
0.0715627
0.457239
0.0737144
0.162144
1.25311
1.09577
0.23104
0.201197
0.0344427
-0.188162
-0.160724
-0.135192
-0.19226
-0.112366
0.287084
0.729428
0.00581129
0.0601045
0.0393608
-0.337279
-0.285886
-0.368195
-0.319659
-0.249778
-0.275204
-0.301888
-0.27094
0.0349544
0.0290265
-0.419086
-0.288411
-0.333026
-0.353393
-0.28365
-0.285393
-0.305472
-0.31378
-0.0855109
0.0521275
-0.327551
-0.233344
-0.292367
-0.34419
-0.299604
-0.223399
-0.279658
-0.342807
-0.349783
0.0217195
-0.306361
-0.238958
-0.287387
-0.342557
-0.285301
-0.0722896
0.264899
-0.258154
-0.428949
-0.273069
-0.362919
-0.310354
-0.266
-0.33919
-0.282644
-0.0108238
0.493458
0.124327
-0.475817
-0.452131
-0.234271
-0.353073
-0.227687
-0.292289
-0.26965
-0.0215869
0.557268
0.340334
-0.453863
-0.457327
-0.152199
-0.330797
-0.172845
-0.220849
-0.157722
-0.0326208
-0.159074
0.381604
-0.217463
-0.3707
-0.0782187
-0.293421
391.788
390.236
388.441
387.045
385.917
385.326
385.428
385.894
386.407
386.785
391.545
389.763
387.894
386.289
384.92
384.223
384.435
385.156
385.891
386.44
391.053
388.95
386.834
384.726
383.012
382.031
382.349
383.702
384.937
385.855
390.287
386.688
384.649
382.245
379.574
378.179
378.659
381.491
383.505
385.096
388.948
378.623
381.084
378.598
374.141
372.33
373.772
378.402
382.466
384.724
389.825
380.869
379.456
373.439
365.245
362.332
365.533
374.166
380.107
383.971
375.198
379.885
380.294
368.741
328.755
335.234
354.092
367.604
379.233
384.826
342.961
245.406
276.822
216.619
36.6739
22.4173
44.2388
252.545
373.154
309.117
55.6569
3.62336
3.0464
2.47608
2.24294
1.40213
0.598742
2.05335
13.2134
137.684
1.50171
2.02383
1.97438
1.88537
0.894063
0.345207
0.209153
0.155674
0.227582
0.533421
1.02149
1.17186
1.30298
0.836512
0.290986
-0.0964913
-0.0465924
0.012178
0.0358291
0.082739
0.283262
0.166195
0.0384087
-0.190086
-0.325303
-0.268795
-0.213934
-0.174693
-0.172437
-0.142639
-0.250361
-0.204293
-0.193289
-0.302164
-0.365958
-0.337498
-0.294012
-0.232624
-0.307383
-0.270112
-0.273159
-0.276734
-0.281657
-0.337771
-0.353024
-0.349977
-0.165553
-0.0710088
-0.401712
-0.302364
-0.268512
-0.262824
-0.237729
-0.333009
-0.357692
-0.369237
-0.0959034
-0.0274456
-0.364322
-0.271424
-0.249404
-0.14304
0.400431
0.174418
-0.391831
-0.421493
-0.322778
-0.184997
-0.374147
-0.307353
-0.188954
-0.0649293
0.717915
0.651693
-0.356704
-0.475565
-0.513791
-0.438455
-0.448462
-0.413727
0.0871088
-0.115069
0.812478
0.725621
0.180713
-0.551093
-0.566365
-0.569877
-0.368211
-0.29448
0.110251
-0.171561
0.814584
0.805115
0.663261
-0.542056
-0.555842
-0.550084
-0.238717
-0.1688
-0.162815
-0.175815
0.00370281
0.904018
0.779592
-0.306558
-0.479556
-0.44562
-0.120112
-0.172086
392.573
391.262
389.79
388.788
388.052
387.742
387.893
388.329
388.806
389.145
392.323
390.919
389.41
388.297
387.447
387.111
387.352
387.969
388.594
389.066
391.899
390.571
388.694
387.295
386.21
385.848
386.315
387.384
388.376
389.06
391.229
389.421
387.743
385.821
384.195
383.751
384.519
386.4
387.904
389.099
390.238
387.546
386.578
383.698
381.407
381.06
382.571
385.944
388.548
389.929
375.009
387.02
385.39
380.716
377.024
376.365
379.249
385.652
388.298
390.165
354.231
384.822
387.745
382.434
374.536
371.4
374.859
385.283
390.241
391.9
355.567
328.248
337.628
355.831
248.459
193.248
274.024
395.286
375.865
285.131
126.677
27.8484
6.65887
4.31362
7.34043
5.07381
17.1992
36.748
53.8948
149.355
1.726
1.98187
1.17539
0.648424
0.21038
0.0154359
-0.0481752
0.0710247
0.226229
1.29996
0.933678
1.16619
0.660504
0.00356063
-0.309165
-0.245266
-0.144666
-0.0592745
-0.00889129
0.0789108
0.473833
0.437121
0.142933
-0.303146
-0.38229
-0.343823
-0.275349
-0.200825
-0.177573
-0.124368
-0.178225
-0.224556
-0.289579
-0.38714
-0.397
-0.3804
-0.343899
-0.27699
-0.302223
-0.254481
-0.21696
-0.283287
-0.352295
-0.392653
-0.397566
-0.396354
-0.384737
-0.319802
-0.404831
-0.306786
0.501303
-0.0554032
-0.0798225
-0.364147
-0.399997
-0.404223
-0.423235
-0.396258
-0.416902
-0.311812
1.03704
0.201262
0.108952
-0.371817
-0.427772
-0.437562
-0.468154
-0.494203
-0.460725
-0.38189
0.526358
0.0620948
0.0975604
-0.404872
-0.467164
-0.489011
-0.526805
-0.598327
-0.562529
-0.498718
-0.22534
-0.18311
0.0510527
-0.402032
-0.492608
-0.53973
-0.56869
-0.63049
-0.593719
-0.329753
-0.196971
-0.204884
0.0789085
-0.374358
-0.49604
-0.561524
-0.568466
-0.581781
-0.483787
-0.248985
-0.175121
-0.123764
0.0810187
-0.357385
-0.490799
-0.544762
-0.516354
-0.4749
-0.293293
-0.0872906
393.419
392.366
391.381
390.732
390.346
390.309
390.594
391.053
391.515
391.841
393.164
392.093
391.15
390.476
390.068
390.054
390.426
391.031
391.617
392.045
392.593
391.748
390.72
390.006
389.566
389.664
390.269
391.186
392.008
392.594
391.692
391.123
390.169
389.326
388.824
388.95
389.884
391.355
392.589
393.447
381.443
390.438
389.576
388.585
388.205
388.733
390.331
392.643
394.359
395.354
359.385
386.489
389.186
387.695
386.89
387.727
390.217
394.081
395.989
396.597
357.082
385.587
391.263
389.763
389.141
389.1
393.071
398.078
399.156
399.476
373.127
354.273
332.391
349.365
387.816
394.741
404.738
401.992
379.264
299.913
124.291
72.8861
34.1353
37.236
58.0221
81.7375
111.27
110.581
104.68
144.404
2.69003
1.6754
0.507525
0.163139
-0.0409973
-0.155162
-0.0481352
0.210848
0.352315
1.62358
1.30944
0.934327
0.0130138
-0.289576
-0.296928
-0.225615
-0.146927
-0.0558597
-0.00607323
0.130482
1.25073
0.921481
-0.0455797
-0.3391
-0.331436
-0.325925
-0.258612
-0.203351
-0.186634
-0.10153
-0.0256307
-0.248189
-0.401811
-0.434876
-0.407241
-0.375858
-0.338442
-0.289737
-0.303277
-0.237299
-0.288613
-0.373956
-0.453491
-0.44908
-0.42782
-0.405763
-0.381165
-0.347015
-0.405037
-0.307617
0.178515
-0.25687
-0.423741
-0.410398
-0.433872
-0.42446
-0.403701
-0.41238
-0.445149
-0.347669
0.845597
0.451778
-0.37324
-0.392994
-0.453348
-0.449554
-0.43835
-0.472194
-0.501097
-0.439973
0.791775
0.719005
-0.324352
-0.41438
-0.476018
-0.477946
-0.498903
-0.580756
-0.619227
-0.585311
0.951186
0.755882
-0.314869
-0.422241
-0.490402
-0.511835
-0.54474
-0.626983
-0.635665
-0.655094
0.926489
0.673
-0.30348
-0.408333
-0.501405
-0.539593
-0.552484
-0.613186
-0.61044
-0.517689
0.922677
0.74653
-0.261382
-0.404053
-0.505055
-0.552559
-0.530132
-0.513556
-0.504749
-0.189173
394.338
393.533
392.901
392.586
392.534
392.757
393.195
393.731
394.227
394.576
394.107
393.337
392.771
392.493
392.487
392.789
393.345
394.012
394.612
395.049
393.417
392.969
392.509
392.345
392.496
392.993
393.778
394.708
395.509
396.09
392.159
392.354
392.204
392.176
392.474
393.244
394.46
395.856
396.972
397.732
383.659
391.138
391.955
392.245
393.09
394.454
396.191
398.236
399.694
400.576
374.054
389.276
391.8
391.967
392.971
395.144
397.912
400.987
402.727
403.333
382.135
392.759
393.534
394.263
396.768
399.837
403.192
406.214
407.171
407.413
377.278
352.038
318.061
323.024
358.696
387.67
396.947
397.855
398.587
345.404
90.9446
74.762
68.5105
91.5324
120.575
140.494
144.713
145.079
141.885
155.79
1.52695
0.41694
-0.185851
-0.0955012
0.0744878
0.0758898
0.324474
0.63345
0.769336
2.99341
0.931601
0.170829
-0.407291
-0.343385
-0.195922
-0.155875
-0.0702196
0.021459
0.0681571
0.405694
0.988267
0.357803
-0.432165
-0.367662
-0.283599
-0.267775
-0.233153
-0.199504
-0.179035
-0.036349
0.953191
-0.187928
-0.516595
-0.458072
-0.410043
-0.371915
-0.338468
-0.295944
-0.30399
-0.20614
-0.115077
-0.453866
-0.522649
-0.481213
-0.454573
-0.431006
-0.39478
-0.338948
-0.402111
-0.298475
-0.385761
-0.429277
-0.483148
-0.463655
-0.469211
-0.458309
-0.401302
-0.369225
-0.437845
-0.358638
-0.27309
-0.32155
-0.434397
-0.4397
-0.46767
-0.474948
-0.420384
-0.408336
-0.478706
-0.442149
0.16292
-0.18343
-0.399925
-0.436069
-0.475152
-0.492067
-0.469697
-0.497347
-0.580354
-0.571074
0.518162
-0.0836161
-0.367658
-0.430631
-0.487687
-0.511614
-0.511322
-0.585224
-0.651889
-0.646435
0.45414
-0.0152061
-0.341059
-0.419796
-0.489908
-0.529525
-0.518044
-0.586352
-0.630468
-0.615512
0.0606084
0.0283423
-0.335379
-0.4112
-0.485499
-0.548822
-0.50246
-0.511709
-0.526793
-0.491118
395.247
394.635
394.292
394.239
394.462
394.913
395.514
396.149
396.7
397.091
395.045
394.502
394.218
394.255
394.574
395.151
395.891
396.66
397.311
397.8
394.556
394.21
394.085
394.338
394.906
395.733
396.741
397.78
398.622
399.258
393.841
393.754
393.897
394.437
395.33
396.615
398.099
399.588
400.669
401.562
392.675
393.071
393.746
394.881
396.478
398.39
400.49
402.617
404.139
405.204
392.003
392.343
393.426
394.86
397.054
399.886
403.098
406.476
408.537
409.637
392.518
392.553
393.784
396.326
399.672
403.797
408.059
412.38
414.779
415.828
342.643