/*--------------------------------*- C++ -*----------------------------------*\
| =========                 |                                                 |
| \\      /  F ield         | OpenFOAM: The Open Source CFD Toolbox           |
|  \\    /   O peration     | Version:  2312                                  |
|   \\  /    A nd           | Website:  www.openfoam.com                      |
|    \\/     M anipulation  |                                                 |
\*---------------------------------------------------------------------------*/
FoamFile
{
    version     2.0;
    format      ascii;
    arch        "LSB;label=32;scalar=64";
    class       volScalarField;
    location    "0.875";
    object      alpha.water;
}
// * * * * * * * * * * * * * * * * * * * * * * * * * * * * * * * * * * * * * //

dimensions      [0 0 0 0 0 0 0];

internalField   nonuniform List<scalar> 
8000
(
1
1
1
1
1
1
1
1
1
1
1
1
1
1
1
1
1
1
1
1
1
1
1
1
1
1
1
1
1
1
1
1
1
1
1
1
1
1
0.999997
0.999987
1
1
1
1
1
1
1
0.999999
0.999138
0.999808
0.999994
0.999999
1
0.999999
0.999999
1
0.999999
0.943579
0.599663
0.641513
0.951929
0.940799
0.927521
0.945431
0.973911
0.937935
0.781529
0.409551
0.0690144
0.0142457
0.639532
0.630034
0.614929
0.542971
0.427598
0.25854
0.0480295
0.000172036
0.000624838
0.000115938
0.127823
0.140136
0.121494
0.0889372
0.0271478
1.44786e-05
8.92398e-06
1.56988e-05
0.000101136
2.17581e-05
1.75669e-06
1.75845e-06
1.76395e-06
1.80113e-06
2.16205e-06
5.51506e-06
6.41492e-06
8.09905e-06
2.1757e-05
1.0994e-05
1.75843e-06
1.76395e-06
1.7902e-06
3.07699e-06
7.21104e-06
6.41492e-06
5.8617e-06
4.72356e-06
1.16849e-05
7.68794e-06
1.76841e-06
1.79021e-06
1.90513e-06
8.48311e-06
1.65892e-05
7.57336e-06
4.39646e-06
4.22996e-06
8.06297e-06
4.01142e-06
4.50049e-06
2.93268e-06
7.09573e-06
3.13689e-05
3.5007e-05
2.3333e-05
4.22996e-06
4.1405e-06
4.01142e-06
3.9718e-06
4.89783e-06
3.73364e-05
0.000198197
0.000308329
0.000296817
0.000293145
0.000142035
4.88809e-06
3.9718e-06
3.9718e-06
3.0167e-05
0.000257515
0.000321504
0.00032237
0.000320106
0.000309061
0.000297546
0.00029469
7.62504e-05
3.9718e-06
0.000232779
0.000321378
0.00032237
0.000283257
0.00013011
0.000142441
0.000211226
0.000253863
0.000252695
5.82379e-05
0.000317736
0.000321241
0.000243044
1.3042e-05
1.17076e-05
1.31545e-05
1.27543e-05
1.23895e-05
1.97614e-05
5.06476e-05
0.00031639
0.000191531
9.24827e-06
1.101e-05
2.38756e-05
3.96163e-05
2.9712e-05
1.44365e-05
7.21529e-06
7.42323e-06
2.36322e-05
7.82129e-06
7.60846e-06
9.86203e-06
5.8786e-05
0.000108891
8.35699e-05
3.39064e-05
2.90863e-05
1.67569e-05
4.96121e-06
8.39567e-06
1.48859e-05
1.63977e-05
3.86778e-05
6.15334e-05
6.60989e-05
2.78214e-05
2.54432e-05
2.91617e-05
1
1
1
1
1
1
1
1
1
1
1
1
1
1
1
1
1
1
1
1
1
1
1
1
1
1
1
1
1
0.999983
1
1
1
1
1
1
1
0.999998
0.999983
0.999981
1
1
1
1
1
1
1
0.999962
0.993482
0.999891
1
0.999978
0.999979
1
1
1
0.999962
0.878848
0.550835
0.743134
0.993605
0.995405
0.997886
0.999995
0.996002
0.948107
0.78074
0.398891
0.100089
0.0828647
0.843775
0.858101
0.818449
0.726203
0.507264
0.258822
0.054345
0.00947024
0.000285855
7.82878e-05
0.0719321
0.0566581
0.0336408
0.00921889
1.13885e-05
2.19214e-05
1.56991e-05
2.74461e-05
5.55838e-05
5.76556e-05
1.75525e-06
1.75861e-06
1.77658e-06
1.8895e-06
2.83509e-06
1.82878e-05
2.51373e-05
2.27958e-05
9.43953e-05
0.000638115
1.75819e-06
1.77275e-06
1.88708e-06
2.35638e-06
4.7104e-05
0.000202793
0.000281902
6.05603e-05
0.000205171
0.00131904
6.1079e-06
8.12831e-06
2.70649e-06
2.99837e-06
7.77356e-05
0.000315118
0.000316241
8.52695e-05
0.000148528
0.000605906
1.22261e-05
1.03831e-05
2.18324e-06
2.47257e-05
0.000251895
0.000312642
0.000314581
0.000285491
8.47354e-05
0.000188294
1.70457e-05
1.86816e-05
2.57597e-05
0.000246488
0.000293461
0.000234155
0.000310205
0.000255738
3.01493e-05
3.9718e-06
1.65824e-05
5.03329e-05
0.000212925
0.000320106
0.000166707
3.45973e-05
0.000143114
0.000293675
0.00011381
4.71766e-06
2.15951e-05
0.000185581
0.000317606
0.000113821
9.23722e-06
9.42966e-06
3.56382e-05
0.00010749
0.000251166
3.8694e-05
0.000118245
0.000310333
5.07248e-05
8.79888e-06
9.05326e-06
3.74434e-05
3.82154e-05
9.87226e-06
1.42936e-05
1.47285e-05
0.000246066
1.36829e-05
8.21821e-06
8.69408e-06
7.88492e-05
0.000200286
0.000151356
8.25653e-06
6.94086e-06
6.94086e-06
2.39265e-05
6.50723e-06
5.61005e-06
3.77211e-05
0.000186141
0.00019444
0.000186141
6.29743e-05
6.94086e-06
6.94707e-06
5.52379e-06
1.05344e-05
1.8039e-05
3.82202e-05
0.000174908
0.000186141
0.00018444
0.000104675
6.94707e-06
9.33283e-06
1
1
1
1
1
1
1
1
1
1
1
1
1
1
1
1
1
1
1
1
1
1
1
1
1
1
0.999999
1
1
0.999994
1
1
1
1
1
1
0.999991
0.999999
0.999998
0.999954
1
1
1
1
1
1
1
0.999982
0.999969
1
0.999986
0.999989
0.999985
1
1
1
0.999982
0.964383
0.913207
0.991935
0.999999
1
1
1
0.999997
0.988864
0.88954
0.602198
0.427681
0.498929
0.953682
0.95554
0.934962
0.884553
0.719576
0.446361
0.207521
0.0799291
0.000288166
0.000326994
0.236021
0.19227
0.125116
0.0448805
7.6684e-06
1.82665e-05
2.57126e-05
3.23527e-05
0.000148936
7.82887e-05
1.57449e-06
1.55201e-06
1.76008e-06
2.79328e-06
6.35019e-06
7.6684e-06
6.4462e-05
2.10588e-05
0.000216749
0.00142437
1.78615e-06
2.08284e-06
2.23029e-06
3.57779e-06
2.15875e-05
0.000209612
0.000316336
0.000247048
0.000443712
0.00216077
3.67121e-05
5.50314e-05
4.01371e-06
3.46549e-06
8.16718e-05
0.000316336
0.000325985
0.000331752
0.000579652
0.00216187
3.77218e-05
1.26382e-05
2.02813e-06
2.18327e-06
0.000249401
0.000307678
0.00016176
6.27078e-05
0.000115352
0.00169057
4.33415e-06
1.57701e-06
1.6634e-06
9.47404e-05
0.000268948
3.61101e-05
4.02923e-05
0.000188038
4.17665e-05
0.000265434
1.13448e-06
1.68687e-06
4.57544e-05
0.000310911
1.77487e-05
9.13373e-06
9.20726e-06
0.000218764
3.44222e-05
8.83523e-06
9.77961e-07
1.94876e-05
0.000243102
0.000137824
9.31247e-06
9.18182e-06
1.03481e-05
1.22097e-05
0.000112542
1.37889e-05
1.47135e-06
0.000169726
0.000179803
8.59843e-06
9.33377e-06
4.88821e-05
6.58113e-05
1.22921e-05
9.56652e-06
1.37744e-05
9.07397e-05
0.000142438
1.35777e-05
6.34761e-06
2.98494e-05
0.000256864
0.00025914
1.06339e-05
6.94086e-06
9.71946e-05
6.50774e-05
5.61005e-06
4.73172e-06
4.56633e-06
8.14789e-05
0.000202163
0.000177266
2.8659e-05
6.93083e-06
9.01772e-06
7.83535e-06
6.03508e-06
4.66866e-06
1.20711e-05
0.000107462
0.000179046
0.000180143
0.000107475
7.50621e-06
8.60912e-06
1
1
1
1
1
1
1
1
1
1
1
1
1
1
1
1
1
1
1
1
1
1
1
1
1
1
1
0.999999
0.999998
1
0.999999
1
1
1
1
1
0.999988
0.999972
0.99999
1
0.999986
1
1
1
1
0.999999
0.999975
0.999999
1
1
1
1
1
1
1
1
0.999997
0.999989
1
1
1
1
1
1
1
0.999997
0.985276
0.910399
0.855231
0.914446
0.994818
0.985881
0.955043
0.916135
0.873584
0.702086
0.45292
0.279076
0.11802
0.202217
0.587245
0.517935
0.372539
0.193928
0.0654843
9.08206e-06
1.32935e-05
2.04142e-05
3.01222e-05
0.000305512
0.0392237
0.0212576
0.00423505
5.55952e-06
7.45041e-06
7.44714e-06
9.08207e-06
1.32934e-05
2.03606e-05
3.01213e-05
3.29876e-05
1.95677e-05
1.50389e-05
4.17364e-06
2.06687e-05
6.94119e-05
8.75957e-05
0.000228036
0.00019958
0.000118114
8.20624e-06
4.42601e-06
2.16992e-06
2.58153e-06
2.45811e-05
6.19787e-05
4.34828e-05
0.000251645
0.000274355
8.67075e-05
3.08261e-06
1.57698e-06
1.6634e-06
2.05545e-06
0.000229731
6.29599e-05
1.04464e-05
3.53646e-05
8.81863e-06
1.02475e-05
1.15243e-06
1.3926e-06
1.60019e-06
3.32138e-05
0.000239247
3.62823e-05
9.63681e-06
0.000128118
0.00104628
0.00112213
9.77961e-07
1.19853e-06
1.57425e-05
0.000285124
9.13373e-06
9.13373e-06
9.13373e-06
5.61446e-05
0.000559398
0.00112485
8.5406e-07
9.77961e-07
0.000110244
0.000160643
9.18182e-06
9.13373e-06
9.63681e-06
1.16645e-05
1.58416e-05
0.000876103
8.86975e-07
6.00197e-05
0.000195969
8.50026e-06
8.08304e-06
4.74821e-05
0.000132147
0.000202337
0.000694554
0.000982208
1.52452e-05
0.000151751
9.53069e-05
4.56633e-06
5.02332e-06
0.0003091
0.000580499
0.000582507
0.000495821
0.000468499
0.000112201
0.000128242
4.53595e-06
4.41622e-06
3.70999e-06
7.70772e-06
2.25278e-05
8.73911e-06
5.93738e-06
4.63559e-06
3.78555e-05
5.28881e-06
4.42179e-06
4.40834e-06
2.79628e-06
4.64723e-06
6.83413e-06
1.73987e-05
7.90454e-05
5.796e-05
1
1
1
1
1
1
1
1
1
1
1
1
1
1
1
1
1
1
1
1
1
1
1
1
1
1
1
1
1
1
1
1
1
1
1
1
0.999998
0.999996
0.999999
1
1
0.999995
1
1
1
0.999999
0.999994
1
1
1
0.999048
0.999953
1
1
1
1
1
1
1
1
0.999936
1
1
1
1
1
0.999997
0.999989
0.999266
0.999918
0.999994
1
0.991313
0.962125
0.960694
0.942019
0.809691
0.651327
0.555141
0.608683
0.860961
0.784885
0.619947
0.430972
0.268769
0.156797
0.0605699
0.0292414
0.0112277
0.071946
0.211807
0.128007
0.0409486
0.00375689
7.44218e-06
7.63317e-06
8.12542e-06
9.78087e-06
1.22767e-05
0.00109867
0.000328875
0.000113927
9.54958e-06
6.20785e-06
9.56584e-06
8.65129e-06
8.79248e-06
1.15273e-05
8.77235e-06
8.74723e-06
4.16011e-05
6.32912e-06
1.89566e-06
2.2705e-06
1.06974e-05
1.70986e-05
9.0409e-06
8.80005e-06
8.77764e-06
8.74984e-06
4.00975e-06
1.76934e-06
1.67988e-06
1.89735e-06
6.6949e-05
3.79808e-05
9.24107e-06
8.81861e-06
8.79408e-06
8.77473e-06
1.55128e-06
1.60868e-06
1.6634e-06
2.31212e-05
0.000139175
2.80331e-05
1.04352e-05
7.55221e-05
0.000202685
7.3624e-05
1.31205e-06
1.42053e-06
2.58489e-05
0.000263131
2.04606e-05
9.13373e-06
9.37376e-06
0.000100984
0.000545918
0.000621039
2.33712e-06
1.70072e-06
9.9243e-05
0.000174426
9.32702e-06
9.37376e-06
9.98729e-06
0.0001631
0.00104799
0.00105274
1.32599e-06
1.86343e-05
0.000190916
5.98423e-06
7.21387e-06
2.12553e-05
0.000514932
0.00102596
0.00104572
0.00105274
6.83222e-06
0.000154701
0.000162885
4.44166e-06
3.77659e-06
0.00011725
0.000516184
0.000480734
0.000180388
3.56628e-05
7.66815e-05
0.000153407
9.37028e-05
3.77659e-06
2.79627e-06
1.56305e-05
2.4006e-05
9.06041e-06
7.23151e-06
4.178e-06
7.28149e-05
7.44666e-05
2.57652e-05
1.19532e-05
2.31565e-06
2.20622e-06
2.48571e-06
8.55188e-06
0.000105723
5.73251e-05
1
1
1
1
1
1
1
1
1
1
1
1
1
1
1
1
1
1
1
1
1
1
1
1
1
1
1
1
1
1
1
1
1
1
1
1
1
1
1
1
1
1
0.999997
1
1
1
1
1
1
1
0.998981
0.99961
1
1
1
1
1
1
1
1
0.999738
0.999961
1
1
1
1
1
1
1
0.999429
0.999998
1
1
0.998144
0.973927
0.980485
0.985561
0.943575
0.873755
0.762033
0.924662
0.83909
0.694407
0.540246
0.442605
0.38652
0.326878
0.319298
0.376398
0.515745
0.291062
0.152731
0.0528468
0.0114889
7.63317e-06
8.12543e-06
8.79277e-06
9.01905e-06
8.84426e-06
0.0902122
0.00056647
0.000170163
2.32081e-05
8.56217e-06
1.13537e-05
1.00755e-05
9.02006e-06
8.84506e-06
8.74773e-06
8.74828e-06
3.42742e-05
5.69255e-06
2.31335e-06
4.25094e-06
1.03405e-05
1.76616e-05
1.52156e-05
8.79209e-06
8.74984e-06
8.74722e-06
3.35748e-06
2.20485e-06
1.89682e-06
4.6281e-06
5.49225e-06
1.35102e-05
1.25299e-05
9.01683e-06
8.77473e-06
8.74984e-06
2.8901e-06
1.76941e-06
3.37325e-06
8.6368e-06
5.23379e-05
4.3722e-05
1.29352e-05
1.06636e-05
8.94662e-06
8.77473e-06
7.21223e-06
1.80671e-06
1.50934e-05
0.00019876
0.000144227
9.58317e-06
1.59377e-05
1.64987e-05
2.82626e-05
9.58167e-06
3.04477e-05
3.25256e-06
9.36363e-05
0.000187432
1.64702e-05
1.01648e-05
1.19621e-05
0.000251023
0.000526921
0.000188929
1.81357e-05
5.97434e-06
6.44957e-05
5.62265e-05
9.41498e-06
9.69414e-05
0.000904112
0.000985817
0.00101426
4.60032e-05
9.30348e-06
3.27858e-05
8.10816e-05
4.74167e-05
5.88805e-06
2.54568e-05
0.000284898
0.000583079
0.000361489
4.1217e-06
1.28386e-05
8.69811e-05
7.4986e-05
2.01248e-05
4.72394e-06
2.35505e-05
4.07389e-05
2.52497e-05
4.19722e-06
3.95349e-06
6.68137e-05
8.07158e-05
3.87684e-05
3.9924e-06
4.57674e-06
3.05543e-06
3.18896e-06
6.26213e-06
0.000105723
1.86886e-05
1
1
1
1
1
1
1
1
1
1
1
1
1
0.999999
1
1
1
1
1
1
1
1
0.999995
1
1
1
1
1
1
1
0.999998
1
0.999999
0.999999
1
1
1
1
1
1
0.999994
1
0.999998
1
1
1
1
1
1
1
0.999641
0.999824
1
1
1
1
1
1
0.999997
1
0.999895
0.999973
1
1
1
1
1
1
0.999998
0.990277
1
1
1
1
1
0.999999
0.999503
0.999364
0.979647
0.854501
0.942547
0.860668
0.735523
0.608057
0.520449
0.48542
0.47982
0.556545
0.638344
0.808405
0.312492
0.166378
0.0628288
0.0160795
0.00093982
9.66669e-06
9.27302e-06
8.99982e-06
0.0599473
0.18451
0.000431457
0.000137703
2.75887e-05
9.67217e-06
8.7012e-06
9.27301e-06
8.99846e-06
8.79368e-06
8.74828e-06
8.74752e-06
1.6335e-05
7.93657e-06
4.46037e-06
4.35443e-06
7.00647e-06
1.59594e-05
2.83768e-05
1.67292e-05
8.79053e-06
8.74828e-06
4.36291e-06
5.22423e-06
2.33095e-06
3.75857e-06
5.41684e-06
4.23508e-05
7.09156e-05
5.31631e-05
1.07361e-05
8.77317e-06
3.71988e-06
1.88884e-05
1.02959e-05
6.1535e-06
0.000112161
0.000111106
6.02974e-05
4.34717e-05
1.49818e-05
1.22752e-05
1.66379e-05
5.84355e-05
2.57996e-05
4.80443e-05
0.000144811
7.39231e-05
0.000119035
1.88383e-05
1.72898e-05
4.50796e-05
6.03913e-05
6.00653e-05
3.29029e-05
7.12603e-05
0.000108204
3.3605e-05
0.000214299
0.000189887
2.31482e-05
2.7967e-05
6.03012e-05
6.04505e-05
2.7389e-05
5.97799e-05
3.85749e-05
4.87309e-05
0.000427332
0.000649805
8.41382e-05
4.14178e-06
6.03402e-05
5.70641e-05
4.79593e-05
3.6355e-05
3.5264e-05
1.79304e-05
6.4441e-05
0.000151314
2.38166e-05
3.94782e-06
2.53334e-05
2.80966e-05
5.47508e-05
5.70991e-05
3.27258e-05
9.52524e-06
2.37058e-05
4.58148e-05
2.56323e-05
3.95349e-06
3.2529e-05
2.68961e-05
2.91392e-05
4.63808e-05
4.76403e-05
8.93097e-06
3.77975e-06
4.05105e-06
3.05026e-05
1.85794e-05
1
1
1
1
1
1
1
1
1
1
1
0.999994
0.999986
1
1
1
1
1
1
1
1
0.999994
0.999976
0.999997
1
0.999998
1
1
1
1
0.999995
1
0.999986
1
1
1
1
1
1
1
0.999871
0.999922
1
1
1
1
1
1
1
1
0.999904
0.999977
1
1
1
1
1
1
0.999997
1
0.999984
0.999998
1
1
1
1
1
1
0.999963
0.997581
1
1
1
1
1
1
1
1
0.999988
0.965368
0.969067
0.879477
0.744443
0.607343
0.516346
0.502903
0.525772
0.616273
0.701014
0.871783
0.364595
0.185717
0.0686348
0.0169369
0.00125413
1.40003e-05
1.07393e-05
0.00962815
0.0732832
0.206629
0.000357909
0.000107187
3.47185e-05
1.92708e-05
1.19283e-05
9.77255e-06
9.20482e-06
8.89238e-06
8.75579e-06
8.74828e-06
8.02748e-06
3.8897e-05
2.2398e-05
1.1288e-05
8.41043e-06
9.59991e-06
1.70677e-05
1.76959e-05
9.11759e-06
8.75579e-06
7.65292e-06
7.22281e-05
5.67078e-05
9.21168e-06
6.80873e-06
9.34111e-06
6.84894e-05
0.00010588
5.24915e-05
8.88045e-06
6.4563e-06
0.000207374
0.00022547
5.40818e-05
3.53033e-05
8.14988e-05
0.000110438
0.000135961
9.5541e-05
8.58734e-05
1.07146e-05
0.000106575
0.00021547
0.000177467
0.000144263
7.14073e-05
3.33852e-05
0.000196473
0.00014245
0.000139635
1.45287e-05
1.30268e-05
6.35449e-05
0.000210543
0.000157799
3.7429e-05
9.11789e-05
0.000199829
6.98522e-05
0.0001285
6.7416e-06
1.02968e-05
1.27518e-05
0.000141243
0.000158643
4.7871e-05
4.87345e-05
6.14659e-05
5.62439e-06
2.10355e-05
5.8978e-07
4.27847e-05
3.45333e-05
3.55335e-05
0.000148133
4.76786e-05
2.28588e-05
3.72481e-05
3.22203e-06
3.78859e-06
1.52359e-06
4.10894e-05
9.15052e-05
9.95703e-05
5.32861e-05
2.56942e-05
4.21482e-06
2.16162e-05
2.56838e-05
3.94705e-06
3.43025e-06
2.06506e-05
0.00011253
0.000226754
0.000106687
4.8765e-06
3.42358e-06
4.32753e-06
4.33099e-06
1.47424e-05
1
1
1
1
1
1
1
1
1
1
1
0.999995
0.999989
1
1
1
1
1
1
1
1
0.999979
0.999976
0.999991
1
0.99998
0.999997
1
1
1
1
1
0.999988
0.999996
0.999807
0.999701
1
1
1
1
0.99993
0.999886
0.999997
1
0.999934
0.999942
1
1
1
1
0.999996
0.999242
0.998563
0.99917
1
0.999994
1
1
0.999926
0.998924
1
0.999853
0.999745
0.99989
0.99999
0.999943
1
1
0.999842
0.989565
1
1
1
1
1
1
1
1
1
0.991013
0.964789
0.86333
0.713968
0.557733
0.457863
0.455699
0.484514
0.602771
0.705572
0.86984
0.344903
0.161211
0.0528001
0.00913632
0.00012912
1.72561e-05
0.0012569
0.0239521
0.0741023
0.202477
0.000272342
7.02277e-05
5.43783e-05
3.06592e-05
2.55427e-05
1.07601e-05
1.03389e-05
8.9782e-06
8.76828e-06
8.75579e-06
1.1201e-05
5.5162e-05
4.44983e-05
2.92338e-05
1.12969e-05
1.01582e-05
1.07601e-05
1.02012e-05
8.92645e-06
8.76828e-06
8.73027e-06
0.000243179
0.000283028
0.000203558
2.09718e-05
1.02018e-05
1.19506e-05
6.77917e-05
9.87793e-05
4.03019e-05
9.32824e-06
0.000263738
0.000299954
0.000301901
0.000207852
2.63262e-05
2.15956e-05
0.000103566
0.000135877
0.000134298
1.64628e-05
1.70925e-05
0.000138697
0.000300539
0.000301697
0.00010676
6.96239e-06
2.71335e-05
0.00013874
0.000135877
7.60315e-05
1.00157e-05
7.09039e-06
0.000147407
0.000298101
8.16381e-05
5.18052e-06
6.1584e-05
0.000135877
0.000134298
0.000117359
3.87965e-05
1.23961e-05
1.21336e-05
8.06482e-05
3.78804e-05
4.6216e-06
2.01995e-05
4.09736e-05
3.7167e-05
4.35527e-05
0.000203265
0.000213047
7.95382e-05
1.24444e-05
1.06898e-05
3.03416e-06
2.92548e-06
2.74104e-06
3.16819e-06
8.39845e-06
0.000248141
0.000256731
0.000251033
6.10731e-05
2.55642e-06
2.39662e-06
2.43227e-06
6.59761e-06
3.85166e-06
5.31807e-06
0.000218774
0.000258961
0.000256731
9.44221e-05
3.94039e-06
2.55642e-06
2.75664e-06
2.63142e-06
1.18703e-05
0.989278
1
1
1
1
1
1
1
1
1
0.99407
1
1
1
1
1
1
1
1
1
0.996168
0.999933
1
0.999996
0.999999
1
1
0.999999
1
1
0.989272
0.999819
1
0.999999
0.999983
0.999406
0.998799
1
1
1
0.988785
0.999397
1
1
0.999816
0.994508
0.998795
1
0.999998
1
0.988787
0.999507
0.998723
0.997542
0.996479
0.994508
0.999058
1
0.999828
0.997146
0.997963
0.999867
0.999749
0.999551
0.998148
0.996308
0.999929
1
1
0.978964
1
0.999998
0.999997
0.999999
1
0.999999
1
1
1
0.98643
0.934045
0.82086
0.672246
0.52612
0.437894
0.433385
0.438884
0.542595
0.654223
0.823851
0.260431
0.111486
0.0336931
0.00439124
4.80971e-05
5.5902e-05
4.45389e-05
0.0131689
0.0747916
0.20072
3.28576e-05
6.33674e-05
8.31013e-05
5.98753e-05
4.9423e-05
8.42765e-05
1.51468e-05
8.91528e-06
8.77481e-06
8.76828e-06
1.17429e-05
3.51621e-05
0.000135158
0.000107374
2.24955e-05
2.30988e-05
1.09161e-05
1.01083e-05
8.85761e-06
8.77481e-06
4.33322e-05
0.000225457
0.00030464
0.000305422
8.71666e-05
1.12508e-05
1.02089e-05
1.39218e-05
4.7127e-05
6.33152e-05
3.08958e-05
0.000234449
0.000276721
0.00030464
0.000276612
3.24333e-05
7.02954e-06
2.04557e-05
0.000123734
0.000132579
0.000113433
2.536e-05
1.76394e-05
0.000302486
0.000301594
9.32884e-05
3.84577e-06
4.1706e-06
8.71372e-05
0.000134298
0.000136543
1.26486e-05
6.05053e-06
0.00011726
0.000301722
7.84516e-05
2.88095e-06
3.42964e-06
0.000114893
0.000133589
0.000136694
4.35675e-05
7.90831e-06
8.82312e-06
0.000293288
3.75705e-05
2.45956e-06
2.40992e-06
2.5667e-05
6.84187e-05
0.000135869
3.43955e-05
1.66085e-05
1.90355e-05
9.58696e-05
7.7356e-06
2.39662e-06
2.40337e-06
2.52282e-06
2.83054e-06
8.87556e-05
2.14855e-05
3.31897e-05
1.34361e-05
2.33623e-05
2.39662e-06
2.38372e-06
2.39027e-06
2.39748e-06
3.69198e-06
1.54497e-05
2.12392e-05
2.98038e-05
1.00286e-05
2.58743e-05
2.73135e-06
2.39662e-06
2.43227e-06
2.39736e-06
1.86179e-05
0.986885
0.998447
1
1
1
1
1
1
1
1
0.986889
1
1
1
1
1
1
0.999999
1
1
0.987708
1
1
1
1
1
1
0.999997
1
1
0.988834
1
1
1
0.999971
1
0.999762
1
1
1
0.988787
0.998244
0.998097
0.999132
0.999997
0.995793
0.996609
1
0.999996
1
0.988787
0.998197
0.996944
0.996509
0.99896
0.994508
0.99644
1
0.999651
0.994126
0.99701
0.999587
0.999354
0.999521
0.99937
0.996854
0.999026
1
1
0.978943
0.999996
0.999994
0.999995
0.999998
1
1
1
1
1
0.98381
0.894543
0.78355
0.648354
0.505693
0.409871
0.395171
0.404168
0.507592
0.626208
0.800565
0.187631
0.0760377
0.0233048
0.00258843
2.89691e-05
6.06628e-05
0.00010617
0.00854748
0.0680926
0.186852
8.90692e-06
3.80588e-05
4.75772e-05
2.89691e-05
2.43463e-05
0.000111226
0.000227246
1.75381e-05
8.91528e-06
8.77481e-06
6.04852e-06
1.05348e-05
0.000197298
0.000162186
3.07085e-05
5.42932e-05
8.12696e-05
0.000219134
0.000110432
8.85761e-06
3.56193e-05
0.000143385
0.000306016
0.000305069
8.30551e-05
1.46467e-05
1.12508e-05
1.39617e-05
0.000145818
4.17812e-05
6.67494e-05
4.98789e-06
0.000171199
0.000305938
0.000139549
1.42649e-05
1.02089e-05
2.0833e-05
2.31501e-05
6.83488e-05
0.000134026
5.22009e-06
4.01222e-06
0.000246775
0.000301594
2.46289e-05
6.97752e-05
8.17821e-05
2.29165e-05
0.000132143
0.000136668
2.16969e-05
4.12392e-06
5.64551e-05
0.000298175
0.000180304
0.000119713
2.00476e-05
3.67251e-05
0.00013285
0.000115236
1.87505e-05
6.73323e-06
7.66765e-05
0.000294912
0.000292476
0.000107861
2.45308e-06
2.734e-05
0.000131516
1.9845e-05
1.53619e-05
1.20358e-05
0.000101752
0.000291646
0.000195216
1.85527e-05
2.39682e-06
5.10901e-06
2.58542e-05
1.70929e-05
9.75852e-06
6.6111e-06
3.81509e-05
0.000239896
5.07588e-05
2.39056e-06
2.38556e-06
2.39027e-06
1.34418e-05
1.32121e-05
6.6111e-06
5.91193e-06
6.06298e-06
1.55656e-05
4.09225e-05
2.38388e-06
2.4254e-06
2.40594e-06
1.95623e-05
0.99977
1
1
1
1
1
1
1
1
1
1
0.999994
0.999996
1
1
1
1
1
1
1
1
1
1
1
1
1
0.999984
1
1
1
1
1
1
1
0.99984
0.999667
0.999933
1
1
1
0.99921
0.991758
0.991031
0.99622
1
0.999248
0.999971
1
1
1
0.999178
0.990659
0.990656
0.996305
1
0.999708
1
0.999989
0.999939
0.999999
0.999836
0.99768
0.998437
0.999781
1
1
1
0.999999
1
0.988614
1
0.999996
1
1
1
1
1
1
1
0.968753
0.838351
0.740186
0.59825
0.443287
0.355243
0.339636
0.360661
0.4875
0.617587
0.803997
0.131066
0.057859
0.0164152
0.000773079
2.43463e-05
3.87305e-05
6.37834e-05
0.011247
0.0601737
0.161798
4.43132e-06
3.3105e-05
4.22491e-05
2.79847e-05
2.00107e-05
4.84739e-05
3.39535e-05
1.49939e-05
1.01073e-05
9.00257e-06
4.10389e-06
6.71022e-06
0.000221768
0.000179347
2.49981e-05
1.95518e-05
0.000214009
0.000249022
0.000242181
4.42361e-05
2.52578e-05
2.16016e-05
0.000160469
0.000305819
3.53827e-05
1.81448e-05
2.4891e-05
8.32398e-05
0.000250185
8.19536e-05
8.94482e-06
2.86589e-06
3.04031e-06
6.85837e-05
0.000106027
1.64648e-05
1.15775e-05
7.52483e-05
5.13603e-05
5.75531e-05
2.42388e-05
2.88994e-06
2.92818e-06
1.6791e-05
0.000275824
0.000260938
0.000254753
6.80317e-05
1.50571e-05
8.48781e-05
2.18919e-05
3.01181e-06
3.09871e-06
4.76239e-06
0.000150805
0.000289756
0.000226337
6.6958e-06
1.76699e-05
0.000131516
9.89795e-06
5.1338e-06
8.9807e-06
3.66889e-05
0.000106773
0.000289756
9.1644e-05
2.83739e-06
3.46754e-05
0.000130436
0.000114434
0.000103149
6.31506e-05
0.000100953
0.00010708
0.000289756
0.000107502
1.9472e-05
7.06773e-06
4.46401e-05
0.000252531
0.000158857
5.85791e-05
1.6708e-05
3.13623e-05
0.000133412
9.06661e-05
9.44834e-05
4.91687e-06
4.10929e-05
0.000224347
8.50702e-05
1.26571e-05
3.1923e-06
4.75028e-06
2.60898e-05
4.02548e-05
9.95403e-05
1.67283e-05
0.000103845
1
1
1
1
1
1
1
1
1
1
1
0.999997
0.999994
1
1
1
1
1
1
1
1
1
1
0.999998
0.999998
0.999998
1
1
1
1
0.999949
0.999902
0.999476
1
1
1
1
1
1
1
0.998725
0.991765
0.998359
1
1
1
1
1
1
1
0.998779
0.991202
0.99988
1
1
1
1
1
1
1
0.999795
0.999187
1
1
1
1
1
0.999999
1
0.99975
1
1
1
1
1
1
1
1
0.998753
0.917466
0.811835
0.723334
0.581414
0.427786
0.35339
0.350743
0.374886
0.477974
0.576147
0.779736
0.11266
0.0560626
0.0157471
0.000771754
1.88758e-05
3.62124e-05
3.5731e-05
0.00436047
0.0404553
0.12784
9.20051e-07
9.26237e-06
3.96202e-05
4.053e-05
1.35653e-05
4.70514e-05
1.90544e-05
1.66012e-05
1.21779e-05
9.90562e-06
3.60342e-06
3.68075e-06
0.000187306
0.000193296
4.72536e-05
1.97935e-05
2.22905e-05
0.000251109
0.000253175
7.58956e-05
1.08968e-05
8.39541e-06
3.97256e-05
0.000140645
1.97935e-05
1.95518e-05
1.97935e-05
0.000197568
0.000254952
0.000250185
2.8659e-06
2.85753e-06
2.86589e-06
3.21191e-06
0.000148537
0.000185394
0.000224881
6.22604e-05
6.77075e-05
0.000124325
2.88996e-06
2.8659e-06
2.88996e-06
2.92823e-06
1.47633e-05
0.000254774
0.000244199
2.54011e-05
1.48401e-05
1.46696e-05
3.277e-06
2.88996e-06
2.92826e-06
3.55328e-06
4.4296e-06
0.0001353
0.000163697
1.0589e-05
1.4563e-05
3.97603e-05
1.56004e-05
3.93732e-06
3.132e-06
9.7557e-06
5.98495e-06
0.000177944
0.000187683
4.07207e-05
1.41767e-05
6.99767e-05
0.000227467
0.000156969
3.93526e-05
2.29067e-05
2.23582e-05
0.000177326
0.000188359
0.000163962
7.12924e-06
1.84691e-05
0.000293375
0.000287687
0.000117656
5.44889e-05
5.25897e-05
4.16358e-05
0.000187591
0.000183922
2.7943e-05
2.33081e-05
0.000297981
0.000293375
0.000115702
2.03577e-05
5.26863e-06
9.75193e-07
7.81827e-05
0.0001813
8.42028e-05
0.000126853
1
1
1
1
1
1
1
1
1
1
1
1
0.999999
1
1
1
1
1
1
1
1
1
0.999997
1
1
1
1
1
1
1
0.999995
1
1
1
1
1
1
1
1
1
0.999733
0.998452
1
1
1
1
1
1
1
1
0.99972
0.998658
1
1
1
1
1
1
1
1
0.999945
0.999875
1
1
1
0.999999
0.999997
1
1
0.999997
0.999999
1
1
1
1
1
0.996537
0.980203
0.961287
0.871979
0.81797
0.751251
0.632608
0.469379
0.381926
0.37329
0.348865
0.391904
0.492932
0.664895
0.110083
0.0681071
0.0253144
0.00255993
1.0849e-05
1.72187e-05
1.12687e-05
2.44179e-05
2.11837e-05
0.0692497
2.27824e-06
3.83874e-06
6.83905e-05
1.03847e-05
1.00146e-05
1.80621e-05
2.15641e-05
5.03129e-05
1.16358e-05
7.83404e-06
2.69584e-06
2.94632e-06
8.97595e-05
0.000194832
9.96263e-05
1.98606e-05
3.59128e-05
0.00025505
0.00025505
6.12072e-05
5.58495e-06
1.38297e-05
2.23751e-05
4.02299e-05
8.92219e-05
6.61237e-05
0.000112289
0.000252854
0.000254952
0.000218268
2.85753e-06
2.85753e-06
2.85453e-06
2.92494e-06
2.47272e-05
6.83524e-05
5.06332e-05
3.4477e-05
0.000109194
0.000170241
2.86899e-06
2.8537e-06
2.86899e-06
4.36205e-06
3.25761e-06
2.9722e-05
4.35238e-05
1.52749e-05
1.49532e-05
1.62491e-05
3.02321e-06
2.86899e-06
5.55622e-06
2.91533e-05
6.35076e-06
2.67016e-06
7.15333e-05
1.34547e-05
2.5127e-05
6.51523e-06
3.66428e-06
3.05257e-06
6.58539e-06
3.21642e-05
2.28481e-05
1.65824e-06
0.00016958
3.09746e-05
2.41689e-05
4.93e-06
1.60043e-05
4.94132e-05
4.30786e-05
1.78677e-05
9.84982e-06
1.08018e-06
8.78265e-05
0.000156175
7.52556e-06
4.59452e-06
5.14888e-05
0.000186473
7.70432e-05
1.23502e-06
8.75941e-07
9.73621e-07
2.94415e-05
0.000181371
1.81655e-05
4.54183e-06
0.000180118
0.000164654
7.86892e-05
1.16031e-06
6.91927e-07
8.75941e-07
2.01011e-05
8.15711e-05
3.61832e-05
7.50628e-05
1
1
1
1
1
1
1
1
1
1
1
1
1
1
1
1
1
1
1
1
1
0.999999
1
1
1
1
1
1
1
1
1
1
0.999994
1
1
1
1
1
1
1
0.999997
1
0.999999
1
1
1
1
1
1
1
0.999094
0.998748
1
1
1
1
1
1
1
1
0.999628
0.999708
1
1
0.999997
1
0.999998
0.999997
1
1
0.999999
1
1
1
0.999688
0.986701
0.94772
0.920975
0.884417
0.845786
0.841195
0.791314
0.696807
0.53594
0.414607
0.349709
0.267799
0.259445
0.274164
0.394688
0.112076
0.0829541
0.039844
0.00598083
4.9059e-06
9.39541e-06
7.02562e-06
5.6825e-06
1.55519e-05
7.72596e-06
2.68081e-06
2.67746e-06
3.97581e-06
2.21865e-06
2.79394e-06
2.67834e-05
8.93703e-05
0.000100035
7.83403e-06
7.0167e-06
2.5263e-06
2.63341e-06
2.09718e-06
2.83141e-05
9.34762e-05
0.000175237
0.000254345
0.000254193
0.000220079
1.94077e-05
2.69933e-06
3.18042e-06
2.08081e-06
1.28624e-05
8.30436e-05
4.47663e-05
9.75325e-05
0.000254752
0.000254395
7.31539e-05
2.83746e-06
2.85486e-06
6.12866e-06
2.87263e-06
2.88764e-06
2.88764e-06
4.85806e-06
1.71325e-05
0.000108671
7.91283e-05
3.02163e-06
2.86899e-06
1.67568e-05
2.55679e-05
3.00159e-06
3.48049e-06
4.11316e-06
2.0699e-05
3.34873e-05
2.78817e-05
8.52286e-06
3.05257e-06
2.17972e-05
3.24875e-05
1.94126e-05
4.35019e-06
4.56914e-06
4.827e-05
7.98949e-06
4.92996e-06
5.58107e-06
4.13769e-06
1.11319e-05
3.24875e-05
3.17139e-05
1.00997e-05
2.58206e-05
5.19924e-05
6.90151e-06
4.59452e-06
9.5739e-06
1.65669e-05
6.82839e-06
2.78243e-05
2.81946e-05
6.60761e-06
2.29204e-05
5.71068e-05
8.78655e-06
4.52998e-06
4.32796e-05
1.53582e-06
8.34345e-07
3.56166e-06
2.72978e-06
2.25788e-06
6.03098e-06
5.54865e-05
4.54183e-06
4.52017e-06
1.53582e-06
8.21603e-07
1.21161e-06
1.25817e-06
5.3806e-07
8.68251e-07
3.46929e-06
1.03623e-05
5.25294e-06
4.54183e-06
1
1
1
1
1
1
1
1
1
1
1
1
1
1
1
1
1
1
1
1
1
1
1
1
1
1
1
1
1
1
1
1
0.999992
1
1
1
0.999998
0.999998
1
1
0.99981
0.99998
1
1
1
0.999999
0.999996
1
1
1
0.995205
0.997083
1
1
1
1
0.999997
1
1
1
0.998062
0.999391
1
0.999999
1
0.999996
0.999989
0.999981
0.995482
0.995437
0.999998
1
1
1
0.975197
0.936926
0.864771
0.698204
0.549525
0.557663
0.851426
0.811205
0.749739
0.591524
0.414276
0.28623
0.163095
0.0660494
0.00682626
0.0206624
0.115586
0.0972238
0.0598181
0.00903056
2.79393e-06
5.69382e-06
3.30875e-06
3.35626e-06
4.37755e-06
6.19005e-06
2.52446e-06
2.8585e-06
2.04964e-06
1.86695e-06
1.98897e-06
3.82303e-05
9.8533e-05
6.33205e-05
6.60387e-06
7.02227e-06
2.37009e-06
2.09718e-06
1.84153e-06
1.94095e-06
3.76599e-05
0.000136667
0.000241939
0.00023539
4.76464e-05
7.02227e-06
2.41421e-06
2.06897e-06
1.89813e-06
1.90123e-06
1.24863e-05
1.4342e-05
3.27738e-05
0.000133022
0.000127541
9.08317e-06
4.12214e-05
8.15088e-06
2.4681e-05
7.34938e-06
2.86542e-06
2.92993e-06
3.3379e-06
4.2448e-06
4.35408e-05
7.73479e-06
0.000210984
9.29151e-05
6.28956e-05
2.55412e-05
5.28708e-06
9.57368e-06
3.252e-05
7.19696e-06
5.72641e-06
6.32857e-06
0.000232424
0.000203596
4.06074e-05
2.70215e-05
1.70875e-05
3.15721e-05
6.59402e-05
5.1632e-06
4.96823e-06
4.60229e-06
0.000239507
0.000212418
3.14674e-05
1.04898e-05
8.2375e-06
2.94238e-05
1.54675e-05
4.95648e-06
4.60229e-06
4.52998e-06
0.000231466
0.0001525
6.15085e-06
5.75069e-07
4.97648e-07
2.26813e-05
5.34845e-06
2.47323e-05
2.17867e-05
4.5232e-06
0.000216549
3.25167e-05
4.55107e-07
4.83815e-07
4.83821e-07
8.88813e-06
1.20319e-06
1.94957e-05
2.65182e-05
4.52794e-06
1.31923e-05
4.34453e-07
8.21603e-07
5.69843e-07
4.97648e-07
5.6817e-07
7.80983e-07
2.55298e-06
8.86908e-06
4.52277e-06
1
1
1
1
1
1
1
1
1
1
1
1
1
1
1
1
1
1
1
1
1
1
1
1
1
1
1
0.999999
0.999998
1
0.999991
0.999992
1
1
1
1
0.999991
0.999979
1
1
0.99951
0.999936
1
1
1
0.999996
0.999974
1
1
1
0.999054
1
1
1
0.999993
0.999997
0.999989
0.999981
0.999996
0.999999
0.999848
1
1
1
0.999994
0.999989
0.987363
0.871468
0.778583
0.822091
1
1
1
0.986339
0.941361
0.847868
0.547503
0.302443
0.138579
0.132739
0.795482
0.782398
0.712884
0.558968
0.350339
0.15349
0.00189354
3.3379e-06
4.29386e-06
2.68783e-05
0.0891947
0.088159
0.0519488
0.00265114
1.98896e-06
2.24105e-06
2.50941e-06
3.12902e-06
3.35614e-06
4.37227e-06
1.18713e-05
2.04962e-06
1.83954e-06
1.82484e-06
1.8486e-06
9.3113e-06
2.07609e-05
4.43675e-06
3.07789e-05
5.83497e-05
2.13528e-06
1.84153e-06
1.81977e-06
1.81832e-06
1.88005e-06
1.10362e-05
3.23077e-05
1.57292e-05
1.62775e-05
0.000107471
2.18099e-06
1.8863e-06
1.81821e-06
1.81832e-06
1.8183e-06
1.88004e-06
2.19808e-06
3.7245e-06
7.46593e-06
0.000100606
4.34904e-05
2.05249e-05
1.97875e-05
3.72058e-06
4.08786e-06
1.28184e-05
3.9321e-06
4.06508e-06
7.4262e-06
1.91462e-05
0.000185026
9.36795e-05
5.72782e-05
1.25055e-05
2.61904e-05
7.45969e-05
6.53198e-05
4.57621e-06
5.96385e-06
4.9623e-06
0.000187954
0.00011391
3.68586e-05
4.56511e-06
2.93507e-05
7.50809e-05
7.49484e-05
4.93363e-06
1.62112e-05
4.67666e-06
0.000158698
5.29864e-05
1.60842e-06
6.36115e-07