/*--------------------------------*- C++ -*----------------------------------*\
| =========                 |                                                 |
| \\      /  F ield         | OpenFOAM: The Open Source CFD Toolbox           |
|  \\    /   O peration     | Version:  2312                                  |
|   \\  /    A nd           | Website:  www.openfoam.com                      |
|    \\/     M anipulation  |                                                 |
\*---------------------------------------------------------------------------*/
FoamFile
{
    version     2.0;
    format      ascii;
    arch        "LSB;label=32;scalar=64";
    class       volScalarField;
    location    "0.875";
    object      p_rgh;
}
// * * * * * * * * * * * * * * * * * * * * * * * * * * * * * * * * * * * * * //

dimensions      [1 -1 -2 0 0 0 0];

internalField   nonuniform List<scalar> 
8000
(
385.037
384.322
382.676
380.225
377.098
373.505
369.737
366.495
363.838
361.932
385.161
384.358
382.561
379.865
376.414
372.454
368.195
364.046
360.789
358.548
385.452
384.433
382.339
379.201
375.095
370.133
364.321
358.758
354.35
351.508
385.808
384.549
381.998
378.201
373.174
366.502
357.98
350.375
344.496
340.924
385.935
384.254
381.25
376.84
370.781
362.098
350.172
338.013
324.566
316.913
385.505
384.034
380.709
375.364
368.222
357.646
342.009
307.413
192.059
187.096
368.651
363.954
356.781
356.696
357.733
334.944
270.662
139.369
24.8416
6.05151
257.876
254.598
247.188
216.721
168.744
101.148
19.2401
0.648541
1.04924
0.906966
56.5612
62.0654
53.8788
39.3308
11.8794
0.360883
0.363011
0.384153
0.526092
0.621169
0.203153
0.187886
0.180072
0.154896
0.149561
0.220718
0.274322
0.313108
0.380122
0.442917
0.167009
0.1643
0.163256
0.166788
0.195945
0.236838
0.254635
0.286384
0.308763
0.326546
0.148506
0.161189
0.170646
0.186094
0.217848
0.248438
0.253063
0.249222
0.24283
0.24766
0.152318
0.166913
0.175324
0.197259
0.219918
0.239186
0.235645
0.222239
0.202306
0.205916
0.159336
0.191527
0.296799
0.372089
0.376368
0.386772
0.291916
0.195112
0.177839
0.179325
0.182121
0.346262
0.379335
0.369768
0.367474
0.35757
0.358638
0.359881
0.200224
0.152695
0.337415
0.397341
0.372366
0.328099
0.203092
0.196309
0.244891
0.286643
0.305466
0.168256
0.407695
0.391772
0.299969
0.111734
0.105789
0.0832093
0.0577527
0.0612784
0.100739
0.151508
0.393593
0.262784
0.0935994
0.106274
0.12561
0.12079
0.0770291
0.0540702
0.0843535
0.113959
0.102536
0.0792352
0.0752525
0.0917365
0.162242
0.215263
0.169807
0.0939596
0.100466
0.122359
0.0611594
0.0654467
0.0636622
0.0729261
0.127183
0.183112
0.195445
0.134651
0.109142
0.13508
385.881
385.204
383.64
381.319
378.382
375.099
371.792
368.695
366.474
364.333
386.079
385.335
383.611
381.056
377.801
374.03
370.237
366.784
363.926
361.18
386.505
385.552
383.589
380.611
376.755
372.01
366.896
362.185
357.764
354.471
387.266
386.147
383.67
379.913
374.897
368.224
360.156
353.422
346.891
343.586
387.651
386.128
383.395
378.867
372.634
363.451
351.49
341.134
325.423
323.241
388.187
387.067
383.952
378.095
370.549
359.395
344.085
295.462
187.384
230.754
384.272
384.566
382.166
377.004
366.22
338.768
270.98
137.971
36.0093
28.9608
334.107
339.683
323.052
284.93
198.568
101.475
21.6195
4.11431
0.807442
0.694225
31.7903
25.1033
15.0511
4.19416
0.285532
0.364564
0.339359
0.344655
0.416379
0.516138
0.227142
0.189111
0.169832
0.153026
0.179626
0.229576
0.268722
0.288591
0.349773
0.683855
0.130766
0.128856
0.137978
0.158817
0.213109
0.316724
0.38781
0.302918
0.356769
0.955949
0.104777
0.128161
0.146683
0.163368
0.218602
0.368826
0.378898
0.262445
0.288634
0.54788
0.121845
0.1474
0.158894
0.175992
0.314307
0.360916
0.36064
0.332942
0.216757
0.299141
0.137874
0.160588
0.167313
0.298718
0.324093
0.286424
0.344395
0.300632
0.151222
0.161448
0.15006
0.187151
0.279237
0.326337
0.208602
0.104341
0.182831
0.30326
0.177432
0.130898
0.170747
0.288716
0.339103
0.158714
0.0683958
0.0484974
0.0461167
0.10178
0.243996
0.12592
0.264517
0.38357
0.111506
0.0703701
0.0605554
0.0499768
0.0048744
-0.0292795
0.0268117
0.0940695
0.375975
0.110939
0.0610181
0.0649326
0.126836
0.202774
0.111282
-0.0325786
0.021167
0.0906592
0.143696
0.067881
0.0327378
0.0696094
0.227256
0.23727
0.210131
0.0820188
0.0447817
0.0924353
0.0743638
0.0340171
0.00937238
0.0340822
0.194727
0.23821
0.254282
0.174037
0.0684381
0.0979742
387.399
386.77
385.301
383.126
380.406
377.398
374.404
371.656
369.4
367.554
387.709
387.021
385.409
383.034
380.048
376.702
373.39
370.356
367.577
365.006
388.382
387.554
385.69
382.931
379.408
375.357
371.261
367.44
363.201
359.725
389.585
388.558
386.3
382.855
378.332
372.736
366.323
360.561
353.77
351.695
390.717
389.52
386.794
382.563
376.739
368.517
359.329
351.033
339.349
338.945
393.66
391.853
388.707
383.647
376.535
366.2
354.313
333.053
301.295
323.132
394.05
392.881
388.989
384.231
376.478
361.614
317.186
213.833
145.721
169.76
385.358
383.713
372.542
349.063
282.138
174.725
81.3821
31.5602
0.7741
0.789814
103.791
84.5874
55.1359
19.7896
0.485201
0.369761
0.371529
0.393397
0.498653
0.573346
0.198313
0.18997
0.163549
0.149136
0.184154
0.223709
0.290058
0.304374
0.413813
1.06721
0.109997
0.116399
0.121961
0.133819
0.166794
0.284282
0.375577
0.365538
0.473375
1.42021
0.113028
0.137933
0.12853
0.14195
0.192648
0.333172
0.355337
0.374328
0.520643
1.46063
0.125488
0.130584
0.143903
0.150207
0.283928
0.316998
0.238316
0.193604
0.243247
1.23223
0.110545
0.1294
0.133684
0.183778
0.277104
0.113115
0.125475
0.245032
0.170145
0.321354
0.111607
0.127796
0.143569
0.315661
0.0753305
0.0514902
0.0578225
0.219986
0.111196
0.119055
0.120364
0.140442
0.276378
0.167388
0.0395221
0.0209058
0.0113254
0.00102487
0.11413
0.0977279
0.141243
0.255226
0.207883
0.050912
0.0276127
0.0275714
0.0173017
-0.0331452
0.0210008
0.0954021
0.226029
0.209124
0.0391034
0.0281201
0.0427905
0.214957
0.194196
0.00889179
0.0718578
0.191645
0.179426
0.0391776
-0.0122893
-0.0122658
0.0731331
0.189853
0.173575
0.0768863
0.108849
0.130662
0.0624142
-0.0209997
-0.0642848
-0.0557619
0.0587697
0.159646
0.19965
0.174513
0.102202
0.127446
389.444
388.86
387.501
385.51
383.052
380.361
377.702
375.277
373.239
371.76
389.875
389.254
387.77
385.61
382.941
380.01
377.119
374.435
371.988
370.264
390.89
390.154
388.436
385.927
382.81
379.382
376.033
372.764
369.178
366.782
392.65
391.677
389.579
386.508
382.629
378.201
373.419
368.479
362.664
361.235
394.944
393.739
391.064
387.165
382.224
376.048
369.24
362.005
353.341
354.154
398.647
397.067
393.836
389.135
383.198
375.319
366.642
357.177
346.473
348.92
402.887
401.089
396.415
390.282
384.001
375.454
360.822
326.966
299.422
321.759
408.59
403.275
386.284
365.974
344.021
274.109
176.811
108.831
45.6622
77.588
260.49
229.156
164.493
85.432
28.7124
0.461108
0.37587
0.395473
0.326924
0.500617
18.8276
10.2985
2.16512
0.166932
0.16285
0.203518
0.231597
0.27598
0.281071
0.312003
0.0793293
0.0704129
0.104367
0.118554
0.118446
0.171811
0.216201
0.322858
0.309375
0.2777
0.0912818
0.0912428
0.106178
0.12152
0.141007
0.156446
0.16606
0.311277
0.325192
0.253138
0.0904336
0.10173
0.117205
0.138134
0.257449
0.137847
0.126364
0.184503
0.176328
0.218152
0.0846673
0.103779
0.113153
0.137064
0.239934
0.0865277
0.0889303
0.210359
0.866726
0.945019
0.0744962
0.095576
0.112662
0.298993
0.0493396
0.0203259
0.0367759
0.10747
0.497092
0.940687
0.0692564
0.0932805
0.173626
0.182133
0.0185802
-5.56429e-05
0.0161889
0.0335171
0.081298
0.768986
0.0714142
0.133671
0.216803
0.0373563
0.00556454
0.0104848
0.076615
0.155043
0.616145
0.88093
0.084501
0.182091
0.0834143
-0.00446355
-0.0126217
0.232851
0.462119
0.505613
0.494574
0.49439
0.152285
0.107105
-0.0537145
-0.0552818
-0.043058
-0.0298442
-0.00203431
0.0329166
0.0750496
0.0995724
0.0339103
-0.0712287
-0.110316
-0.110318
-0.0917773
-0.0629054
-0.0132284
0.0749922
0.161321
0.160659
391.78
391.237
389.996
388.196
386.005
383.634
381.307
379.221
377.566
376.346
392.404
391.814
390.452
388.496
386.127
383.575
381.074
378.781
376.795
375.603
393.765
393.073
391.49
389.234
386.506
383.575
380.725
378.04
375.395
373.962
396.02
395.132
393.181
390.437
387.134
383.554
379.932
376.268
372.399
371.499
399.312
398.135
395.641
392.158
388.004
383.385
378.496
373.351
368.427
369.315
403.907
402.589
399.476
395.168
390.177
384.579
378.27
371.695
366.238
367.324
410.895
408.948
404.492
398.681
392.815
386.495
379.891
373.162
367.467
369.372
420.974
418.559
409.698
391.817
384.515
372.081
317.734
254.362
215.279
237.538
385.678
350.161
275.167
190.413
118.492
69.0986
26.8018
13.1301
5.36444
30.9413
103.994
62.7252
19.8305
1.95957
0.176825
0.172109
0.187521
0.214439
0.214657
0.744005
0.199139
0.0994549
0.0823012
0.110493
0.100763
0.0874203
0.12059
0.155168
0.156227
0.192025
0.106791
0.0835938
0.0908036
0.1133
0.123642
0.117885
0.125423
0.160487
0.186058
0.210704
0.0803194
0.0855982
0.0958688
0.116445
0.147666
0.113044
0.105361
0.138056
0.145357
0.19964
0.0596861
0.0752402
0.0896135
0.114217
0.162935
0.063636
0.067644
0.149594
0.24213
0.225546
0.0434497
0.0618599
0.0993319
0.265354
0.0492702
0.00599212
0.010171
0.134912
0.488186
0.600121
0.0307501
0.0533086
0.141597
0.172513
0.0160103
0.000230352
0.0206587
0.167147
0.885813
0.913573
0.0096085
0.0537535
0.179209
0.00723084
0.000447483
0.00510129
0.390154
0.806918
0.842276
0.87037
-0.00122167
0.138971
0.107077
-0.040866
-0.0318257
0.0686241
0.397565
0.366858
0.128452
0.0442749
0.0512112
0.0993415
0.00249118
-0.0824634
-0.0636925
-0.0266396
0.00690192
0.0378977
0.0613163
0.0869697
0.0345761
-0.0125863
-0.0938497
-0.108617
-0.101236
-0.0769265
-0.0349886
0.0765162
0.206016
0.168325
394.232
393.67
392.541
390.918
388.973
386.902
384.894
383.127
381.764
380.879
395.041
394.42
393.177
391.407
389.304
387.084
384.953
383.057
381.514
380.649
396.68
395.979
394.528
392.498
390.108
387.606
385.212
383.071
381.206
380.269
399.381
398.509
396.701
394.235
391.392
388.454
385.638
383.058
380.612
379.856
403.375
402.193
399.857
396.752
393.252
389.669
386.218
383.026
380.276
380.101
408.732
407.254
404.331
400.439
396.252
392.134
388.075
384.309
381.301
381.299
416.726
414.522
410.323
405.118
400.077
395.543
391.461
388.432
384.825
385.695
427.739
424.468
418.454
410.87
396.068
394.64
393.091
377.608
349.711
310.458
416.085
375.146
308.107
238.572
195.416
170.763
144.325
140.797
165.244
224.46
143.203
74.9541
25.8962
5.63364
0.18002
0.169951
0.153461
0.118608
0.203491
44.6583
0.31539
0.143812
0.0985357
0.107511
0.110157
0.0868846
0.0816566
0.0898654
0.127566
0.18372
0.0858448
0.0864053
0.0979824
0.111386
0.120482
0.119248
0.116622
0.130057
0.146122
0.189634
0.0627498
0.0774514
0.0877538
0.100961
0.107459
0.10379
0.096006
0.102101
0.128395
0.188095
0.0409208
0.0540073
0.0664784
0.0883729
0.104672
0.0783126
0.0376093
0.0632578
0.0703956
0.14055
0.0312797
0.0364484
0.0637645
0.18878
0.146515
0.0227636
0.00300818
0.0235932
0.0487084
0.104286
0.0361662
0.0301833
0.107354
0.146547
0.0399891
0.0395497
0.034373
0.215811
0.428021
0.216945
0.0066253
0.0214601
0.0437905
0.0146767
0.0207829
0.129369
0.778535
0.810389
0.828994
0.0936466
-0.00598622
0.0251067
0.0170766
-0.0247969
-0.0140095
0.0441747
0.272546
0.519169
0.342888
0.0818887
0.00632564
0.0548465
-0.0116758
-0.0705366
-0.040221
0.0231965
0.0769323
0.118091
0.117825
0.126745
0.0702862
0.0387971
-0.0520179
-0.0945027
-0.0664473
-0.0261834
0.00710896
0.117309
0.26601
0.164207
396.5
395.971
394.916
393.428
391.684
389.869
388.151
386.657
385.542
384.875
397.498
396.869
395.698
394.072
392.186
390.242
388.414
386.874
385.678
384.999
399.362
398.649
397.279
395.414
393.294
391.154
389.172
387.476
386.159
385.479
402.407
401.501
399.787
397.523
395.032
392.595
390.382
388.494
386.933
386.383
406.77
405.537
403.299
400.465
397.455
394.61
392.109
390.117
388.535
388.27
412.49
410.761
407.892
404.413
400.905
397.75
395.05
392.963
390.558
391.476
420.588
417.989
414.111
409.502
405.12
401.635
399.343
398.34
396.008
394.842
431.786
427.851
422.018
415.811
410.818
407.282
405.407
406.431
398.794
356.637
424.766
384.86
326.239
268.359
229.655
214.385
211.882
245.845
281.33
356.826
153.558
81.5996
30.795
7.86181
0.619467
0.156518
0.134608
0.18151
29.3303
90.9954
0.270953
0.134074
0.108106
0.112975
0.115753
0.0868412
0.0621154
0.0775413
0.110553
0.172837
0.0781828
0.10167
0.110684
0.116459
0.121375
0.115597
0.114207
0.111888
0.128248
0.187876
0.0554463
0.0853375
0.0902706
0.0946333
0.10871
0.132092
0.132029
0.114334
0.112194
0.172818
0.0365702
0.0635773
0.0617796
0.0739528
0.15239
0.139966
0.0643885
0.0338515
0.0349629
0.108089
0.0407654
0.0748782
0.0678678
0.0777353
0.169113
0.106828
0.0936486
-0.0119195
-0.0136836
0.0889063
0.0691839
0.0799675
0.0699131
0.0759538
0.148369
0.112761
0.22338
0.174064
0.0234888
0.0874678
0.0644286
0.0777592
0.040347
0.0526892
0.0867493
0.154814
0.478683
0.62717
0.14226
0.105958
0.0669267
0.0685109
0.0278123
0.00739841
0.0607586
0.116552
0.185594
0.272314
0.157706
0.141376
0.0580897
0.0409153
0.01782
0.0091841
0.0407714
0.0851303
0.137321
0.212852
0.20886
0.168078
0.0952501
0.0482998
-0.00106912
-0.00165081
0.0411585
0.0679051
0.0968227
0.171586
0.238698
0.198212
398.406
397.942
396.929
395.547
393.952
392.322
390.811
389.532
388.628
388.072
399.552
398.972
397.822
396.299
394.578
392.84
391.232
389.939
388.938
388.448
401.611
400.897
399.555
397.806
395.891
394.012
392.348
390.939
389.946
389.457
404.896
403.963
402.286
400.154
397.916
395.813
394
392.542
391.502
391.179
409.427
408.127
405.954
403.29
400.617
398.251
396.329
394.966
394.152
394.043
415.263
413.278
410.419
407.182
404.12
401.577
399.664
398.45
397.402
398.385
423.375
420.193
416.422
412.174
408.304
405.446
403.874
403.857
402.229
404.202
434.572
429.567
423.698
417.733
413.185
411.082
409.921
410.586
411.517
403.387
437.45
393.545
330.486
268.025
227.508
221.737
232.001
272.477
310.505
387.09
179.148
91.0729
33.6657
8.32265
0.802328
0.1714
0.139879
4.78273
35.8761
101.784
0.275775
0.16124
0.131234
0.137506
0.136607
0.0892483
0.0409539
0.0543719
0.104538
0.172849
0.101172
0.161143
0.150952
0.137439
0.130873
0.1092
0.0975691
0.0937785
0.123646
0.19116
0.0671255
0.150435
0.151504
0.113428
0.111637
0.113227
0.136585
0.146521
0.135108
0.171212
0.041104
0.203464
0.232758
0.125678
0.103439
0.129949
0.125443
0.099745
0.0711475
0.140426
0.0380613
0.121982
0.22832
0.2151
0.180558
0.133185
0.0705179
0.132912
0.0584534
0.137893
0.0434217
0.0551484
0.115349
0.23694
0.210611
0.145497
0.170135
0.201202
0.0550251
0.156836
0.0376999
0.0494095
0.0538261
0.15798
0.216384
0.175555
0.192667
0.18435
0.106194
0.131096
0.033425
0.0640746
0.0379384
0.0396123
0.193525
0.173126
0.179386
0.207585
0.169216
0.160941
0.0442914
0.0544964
0.064444
0.0717245
0.0871156
0.142818
0.15462
0.209277
0.228962
0.183965
0.0649029
0.0429871
0.0878201
0.190932
0.121821
0.11235
0.164782
0.197662
0.21616
0.206796
399.861
399.414
398.417
397.086
395.577
394.064
392.693
391.554
390.772
390.299
401.103
400.54
399.377
397.896
396.261
394.652
393.221
392.073
391.217
390.83
403.33
402.572
401.189
399.41
397.592
395.912
394.462
393.265
392.458
392.098
406.801
405.797
404.055
401.833
399.626
397.755
396.295
395.149
394.439
394.295
411.469
409.99
407.711
404.933
402.312
400.277
398.841
397.876
397.496
397.572
417.178
414.651
411.467
408.255
405.52
403.457
402.144
401.409
400.942
401.693
424.678
420.967
416.837
412.495
408.944
407.003
406.101
406.412
404.28
404.907
435.019
429.514
423.156
416.515
412.117
410.944
411.389
414.18
413.215
415.874
435.338
386.18
316.714
245.774
201.502
200.594
213.327
266.21
313.448
387.362
169.56
79.2849
26.0418
4.60622
0.302399
0.213609
0.710409
11.5806
36.3128
99.662
0.391231
0.319075
0.217573
0.174124
0.172649
0.114907
0.0388917
0.0269505
0.100162
0.171769
0.179722
0.253853
0.209969
0.162712
0.138085
0.113337
0.0762839
0.0666022
0.116815
0.192068
0.096441
0.276762
0.302413
0.235637
0.117864
0.113041
0.103228
0.129753
0.172562
0.201401
0.0519631
0.236373
0.261048
0.257674
0.199089
0.0921824
0.0841018
0.112064
0.107732
0.17417
0.0512486
0.0486103
0.123687
0.230324
0.249614
0.138598
0.0682683
0.0461476
0.057205
0.123271
0.101992
0.0402959
0.0199423
0.105178
0.248593
0.132319
0.0893887
0.107843
0.0879738
0.153116
0.140243
0.0579727
0.0134395
-0.00661887
0.0738708
0.110478
0.113882
0.126516
0.121074
0.139563
0.0784689
0.191846
0.170715
0.0402644
0.00792987
0.0902354
0.123555
0.139554
0.1494
0.153606
0.0469286
0.230818
0.206159
0.185905
0.0364056
0.0773926
0.128113
0.158657
0.186113
0.174034
0.0457074
0.212058
0.213439
0.185508
0.0595098
0.082553
0.153558
0.169071
0.184058
0.190377
400.571
400.254
399.218
397.91
396.462
395.01
393.703
392.639
391.878
391.479
401.738
401.457
400.221
398.717
397.145
395.608
394.263
393.209
392.446
392.08
403.927
403.531
402.022
400.192
398.477
396.873
395.516
394.443
393.721
393.406
406.175
406.783
405.02
402.659
400.523
398.68
397.254
396.388
395.801
395.673
410.352
411
408.727
405.814
403.094
400.214
399.774
399.104
398.576
398.722
415.416
415.759
412.333
408.476
405.257
403.017
402.856
402.431
401.555
402.427
424.464
421.284
416.925
412.434
408.698
406.561
406.502
407.076
405.74
402.876
434.469
428.738
422.418
416.142
412.06
410.987
410.51
413.636
415.118
414.854
420.537
366.604
297.828
231.691
192.735
190.924
192.764
238.963
289.96
367.719
128.117
55.1554
16.8943
2.33626
0.243422
0.28651
0.13664
6.37451
36.6424
98.8261
0.452512
0.465141
0.310059
0.197161
0.184455
0.176716
0.060952
0.0242352
0.0849665
0.165037
0.264707
0.306208
0.274179
0.176473
0.117207
0.11771
0.0686298
0.0511666
0.102353
0.18577
0.151001
0.26855
0.268371
0.234151
0.115413
0.0989173
0.0980116
0.0968787
0.149833
0.230294
0.0837785
0.211057
0.1898
0.181192
0.189768
0.0775088
0.0793512
0.0826673
0.131028
0.189753
0.133168
0.046885
-0.00453154
0.156655
0.179512
0.0933566
0.0629251
0.0492312
0.0385294
0.119539
0.156076
0.0297429
-0.0136363
0.0220905
0.178816
0.0776044
0.0645343
0.0570926
0.0546546
0.137055
0.155074
0.0458967
-0.0161343
-0.0553202
0.183016
0.0546548
0.0766788
0.0795657
0.0818562
0.145724
0.14677
0.0266332
-0.0187903
-0.047029
0.0260335
0.0359233
0.0847316
0.104669
0.118808
0.132208
0.0975619
0.00493998
-0.0139955
-0.0540839
-0.0364212
0.036179
0.0896704
0.117017
0.143245
0.146477
0.0289508
0.0042706
-0.016738
-0.0512212
-0.0129291
0.0501511
0.10532
0.116817
0.140493
0.165893
400.705
400.397
399.392
398.083
396.61
395.149
393.832
392.766
391.998
391.609
401.553
401.637
400.399
398.888
397.262
395.718
394.384
393.326
392.565
392.214
403.31
403.67
402.15
400.361
398.581
396.935
395.56
394.506
393.797
393.517
406.239
406.778
404.898
402.728
400.589
398.798
397.372
396.381
395.806
395.699
410.097
410.445
408.076
405.681
403.089
400.363
399.22
399.038
398.426
398.673
414.855
415.04
411.695
408.271
405.784
402.813
401.874
402.084
401.164
401.361
423.314
420.727
416.471
412.184
408.63
406.035
405.428
406.366
406.036
402.537
432.939
427.663
421.515
415.326
410.972
409.564
409.23
412.119
414.424
413.301
401.575
349.099
286.92
222.747
180.427
174.037
177.374
223.214
277.357
357.327
92.4156
37.7454
11.8006
1.45648
0.220178
0.307061
0.198731
4.07994
33.3196
92.0068
0.490401
0.439957
0.278108
0.142655
0.124101
0.179109
0.186634
0.0177933
0.0717717
0.16009
0.288084
0.277792
0.256395
0.126895
0.0526777
0.101839
0.101034
0.151655
0.139623
0.183036
0.154929
0.192781
0.203007
0.145372
0.0510424
0.0743943
0.0887941
0.0889996
0.206229
0.220183
0.104507
0.0400262
0.0758232
0.121813
0.0619016
0.0548781
0.0896031
0.1001
0.0871141
0.162062
0.127875
0.0128146
-0.039786
0.0953154
0.174817
0.045681
0.116428
0.119385
0.0140615
0.124802
0.119091
0.00967326
-0.0337106
-0.0192884
0.19209
0.153746
0.150409
0.0684197
-0.000703576
0.120298
0.0891439
-0.00545174
-0.0299001
0.0126542
0.210854
0.25878
0.150244
0.0689783
0.058703
0.178574
-0.00473621
-0.0182676
-0.0266932
0.0403517
0.225294
0.194283
0.0801294
0.0861718
0.0993471
0.13353
-0.0147222
-0.0206041
-0.0233147
-0.00533631
0.196639
0.079115
0.0680299
0.0926466
0.124421
0.135631
-0.00791656
-0.00206699
-0.000578787
-0.00858287
0.0182806
0.0870547
0.0755969
0.0820413
0.112188
0.142241
400.332
399.898
398.881
397.536
396.012
394.486
393.091
391.945
391.119
390.673
401.512
400.975
399.808
398.313
396.653
395.028
393.604
392.44
391.606
391.163
403.629
402.873
401.488
399.736
397.897
396.196
394.697
393.502
392.7
392.316
406.853
405.708
404
401.928
399.727
397.813
396.342
395.163
394.476
394.34
410.905
407.654
405.387
403.915
402.078
399.787
398.459
397.521
397.064
397.054
415.923
411.425
408.596
406.889
404.836
402.547
401.208
400.597
399.626
401
422.328
418.301
414.276
410.447
407.064
404.957
403.95
404.617
404.031
403.512
430.546
425.676
419.142
412.457
408.391
406.941
407.028
410.364
411.45
405.612
375.653
329.424
264.571
195.048
156.198
149.426
158.411
215.06
274.425
358
64.6345
28.7323
8.38521
0.569927
0.16785
0.280901
0.208573
5.30468
29.3816
79.6408
0.407805
0.334989
0.227343
0.11383
0.0767448
0.123827
0.0946137
0.00817785
0.0646641
0.157354
0.234879
0.205174
0.218367
0.0913788
-0.00699254
0.0437551
0.172498
0.158438
0.195527
0.199735
0.116882
0.0825897
0.0847313
0.121682
4.35889e-05
0.0596525
0.0919187
0.121016
0.260664
0.243678
0.0354742
0.0102739
-0.0470868
-0.0320896
0.05185
0.0700788
0.105294
0.140199
0.101271
0.152415
0.00142944
-0.0289187
-0.0589143
-0.0519282
0.191914
0.245251
0.270724
0.114922
0.0105758
0.0869157
-0.0303055
-0.0532634
-0.0604102
-0.0455437
0.114844
0.275137
0.239896
0.0557476
-0.00934908
0.112506
-0.0642303
-0.0707658
-0.0566837
-0.0061731
0.100051
0.295296
0.136053
0.063504
0.0602427
0.167884
0.00117645
-0.00142138
-0.00729535
0.066479
0.121017
0.317038
0.156865
0.0994318
0.096017
0.137764
0.12195
0.0622138
0.0199627
0.0280933
0.0777824
0.191936
0.150616
0.175201
0.121342
0.149705
0.129332
0.0414088
0.0291068
0.057305
0.0731642
0.0974684
0.10567
0.164856
0.113628
0.207146
399.205
398.751
397.716
396.316
394.704
393.06
391.526
390.25
389.316
388.788
400.272
399.719
398.549
397.002
395.259
393.513
391.935
390.622
389.662
389.119
402.176
401.486
400.13
398.366
396.43
394.539
392.822
391.442
390.474
389.975
405.092
404.138
402.437
400.401
398.165
396.083
394.208
392.776
391.841
391.5
408.843
405.962
405.225
402.944
400.287
397.908
396.019
394.737
394.022
393.736
413.772
409.796
409.169
405.978
402.99
400.586
398.765
397.892
397.045
397.302
420.267
417.054
413.152
408.827
405.385
402.986
401.18
400.727
400.566
402.903
428.39
424.139
417.873
411.418
407.476
406.028
405.429
406.137
408.179
383.246
363.172
321.844
257.066
188.112
155.363
154.463
165.055
210.886
255.871
346.327
55.3751
27.6895
7.97449
0.550174
0.141421
0.245922
0.178058
2.01911
19.6457
62.9431
0.210295
0.180697
0.158584
0.100743
0.0583772
0.111373
0.0723736
0.0109984
0.0751446
0.168042
0.143966
0.119872
0.163839
0.0997872
0.0048814
0.0379953
0.0575855
0.166001
0.206583
0.221406
0.0618773
0.0355063
0.00836829
0.0369138
0.00490876
0.0759081
0.096991
0.1946
0.258023
0.347037
-0.0066525
-0.0265741
-0.0513776
-0.059063
0.0934627
0.20907
0.261216
0.117187
0.0851697
0.175878
-0.0583561
-0.0703878
-0.0780383
-0.0644519
-0.000982759
0.249443
0.253692
0.0614268
-0.00799349
0.0245261
-0.0952571
-0.0993257
-0.0884553
-0.056635
-0.00463092
0.156515
0.18167
0.0486223
-0.00676705
0.0447622
-0.120595
-0.122109
-0.0938715
-0.0412676
0.0157949
0.204893
0.212774
0.0991301
0.0642727
0.117193
0.02461
-0.01148
-0.0613931
-0.0110881
0.0587203
0.234863
0.237653
0.239042
0.10761
0.110681
0.078635
0.120404
0.0447726
0.0628784
0.125559
0.139802
0.258309
0.274712
0.14217
0.128999
0.128311
0.190448
0.108592
0.0824495
0.105303
0.101216
0.149391
0.246918
0.171053
0.220521
397.713
397.195
396.123
394.618
392.851
391.009
389.263
387.781
386.68
386.013
398.626
398.031
396.846
395.204
393.299
391.338
389.512
387.958
386.8
386.073
400.335
399.66
398.287
396.412
394.271
392.09
390.077
388.393
387.142
386.396
403.032
402.184
400.491
398.254
395.798
393.395
391.019
389.164
387.751
387.12
406.804
405.323
403.447
400.637
397.61
394.637
392.107
390.298
389.017
388.579
411.632
409.781
407.246
403.826
400.499
397.553
394.735
392.685
391.431
390.926
417.944
415.723
411.76
407.133
402.854
399.108
396.551
395.483
394.841
396.01
426.062
423.111
417.678
411.293
406.554
403.7
399.467
393.926
390.324
360.846
364.453
333.912
279.859
206.614
168.066
164.656
153.871
172.698
218.84
294.355
53.7775
33.3497
12.5057
1.36905
0.100655
0.16213
0.134803
0.0572005
0.241943
34.1719
0.00212007
0.0363998
0.103051
0.0697442
0.0594625
0.081547
0.0736975
0.0707019
0.131051
0.20262
0.0684325
0.0567535
0.0828895
0.120096
0.0676941
0.0521063
0.0765197
0.209974
0.258249
0.227072
0.0240897
0.0232651
0.00779949
0.00644148
0.0706295
0.110967
0.14809
0.224875
0.253138
0.321747
-0.0259433
-0.0293013
-0.0363125
-0.0296509
0.0158874
0.0998831
0.100269
0.0593784
0.0787429
0.187754
-0.0755523
-0.0750469
-0.0660082
-0.0474495
-0.0194553
0.0333151
0.0572731
0.0212142
-0.0323443
0.0206441
-0.115511
-0.110009
-0.0862083
-0.0351515
-0.0163323
-0.00308526
0.0678751
0.0368041
-0.00563651
0.0272503
-0.154476
-0.140864
-0.10058
-0.0322851
0.00455822
0.00808255
0.152978
0.0931504
0.0772918
0.0651728
-0.183122
-0.127938
-0.078434
-0.0371767
0.0127375
0.0285175
0.100921
0.229596
0.117872
0.0934867
-0.168888
0.000376849
-0.024287
-0.0227954
0.0348088
0.056261
0.0758925
0.262806
0.141695
0.106299
-0.0174026
0.0332348
0.0338674
0.0242158
0.062517
0.0776787
0.0787977
0.145372
0.125653
0.165326
395.92
395.379
394.225
392.575
390.596
388.489
386.468
384.712
383.381
382.54
396.683
396.093
394.834
393.04
390.907
388.665
386.503
384.61
383.111
382.29
398.211
397.575
396.125
394.075
391.638
389.087
386.637
384.5
382.706
381.835
400.689
399.885
398.137
395.702
392.887
389.837
386.913
384.356
382.103
381.322
404.351
403.222
400.958
397.809
394.173
390.682
387.158
383.994
381.541
381.078
408.904
407.404
404.891
401.198
397.313
392.955
388.802
385.161
382.108
381.823
415.294
413.503
409.681
404.429
398.939
394.472
390.706
387.843
385.127
384.994
423.636
420.914
415.962
409.514
404.509
395.645
376.364
366.071
352.332
340.216
373.503
351.123
308.496
236.377
182.728
154.331
118.146
114.459
121.131
173.443
54.7441
40.5565
19.4802
2.95868
0.0880444
0.126306
0.139711
0.138667
0.175628
0.26188
-0.0540181
-0.00748939
0.036718
0.0562003
0.0727833
0.0978641
0.136558
0.16075
0.172325
0.241581
0.0347017
0.0354208
0.025459
0.044172
0.0976366
0.168471
0.228941
0.25495
0.285443
0.22994
0.0138052
0.0243439
0.0205192
0.0244151
0.0799668
0.0862333
0.128277
0.222392
0.248924
0.220378
-0.0188577
-0.00540861
-0.00246941
0.00137549
0.0122659
0.0314247
0.0358388
0.0195434
0.0694921
0.126426
-0.0627381
-0.0471473
-0.0221431
0.0032232
-0.0043513
0.000168323
-0.0042427
-0.00168785
-0.0249569
0.0402682
-0.0960152
-0.0865891
-0.0485831
-0.00826802
0.00205225
-0.00882286
-0.0138722
0.0441918
-0.029655
0.0297057
-0.135242
-0.122021
-0.0834817
-0.0229541
0.0114606
0.000206503
0.0154943
0.0944395
0.0341423
0.0585875
-0.167978
-0.13789
-0.103269
-0.0370316
0.00711873
-0.00263705
0.024886
0.131981
0.0942642
0.0847375
-0.154478
-0.146277
-0.0949597
-0.0498382
-0.0132491
-0.00772244
0.0147987
0.136889
0.110801
0.09555
-0.170335
-0.11382
-0.0641063
-0.0294609
-0.00591625
-0.00182821
0.0200745
0.0721404
0.0901112
0.0871552
394.022
393.455
392.189
390.35
388.107
385.7
383.359
381.287
379.687
378.612
394.647
394.047
392.671
390.677
388.257
385.662
383.121
380.836
378.941
377.889
396.01
395.386
393.793
391.485
388.649
385.654
382.706
380.009
377.526
376.305
398.204
397.434
395.533
392.806
389.571
385.718
381.917
378.226
374.985
373.916
401.541
400.548
398.106
394.426
389.904
385.481
380.495
375.369
371.152
371.297
404.975
404.183
402.042
397.861
392.778
386.955
380.388
373.689
368.356
368.432
411.663
410.623
407.015
400.898
394.435
388.441
381.693
374.144
365.532
365.901
420.379
418.346
413.909
406.866
391.425
372.127
339.179
273.148
213.054
217.049
377.781
360.098
332.04
261.382
182.778
126.402
71.9905
29.3245
3.41117
9.4576
56.6162
47.6515
29.2599
4.38681
0.101767
0.141156
0.169116
0.200042
0.2224
0.226184
-0.010137
0.026287
0.0475801
0.0624698
0.089805
0.130819
0.189186
0.211652
0.218634
0.241012
0.0356854
0.0428737
0.0364096
0.0447853
0.0880145
0.173493
0.265635
0.293613
0.22686
0.241254
0.0274953
0.0440669
0.0486682
0.0492086
0.0556147
0.0739984
0.100445
0.15566
0.182234
0.186344
0.0253703
0.0289343
0.053757
0.0442548
0.0278946
0.0356721
0.038504
0.00668407
0.0478039
0.0998343
0.109168
0.0521733
0.0535425
0.0441036
0.0209868
0.0134948
0.0201299
-0.0204677
-0.0129236
0.0488741
0.106262
0.10726
0.00611893
0.0245303
0.022068
0.0204692
0.0298913
-0.00596103
-0.00605737
0.0399025
0.0958425
0.0932342
-0.0318227
-0.016078
0.0065005
0.0210925
-0.00457856
0.0290354
0.0229439
0.0538284
0.0751829
0.0319265
-0.0712715
-0.0491847
-0.0145201
0.0134967
0.0021394
0.0760693
0.0705038
0.0723701
0.06682
-0.0629984
-0.0702397
-0.0583343
-0.0291148
-0.00665307
0.00657026
0.0847465
0.098004
0.0829229
-0.101093
-0.0763299
-0.0674736
-0.0642266
-0.0420196
-0.020071
0.00969747
0.0584873
0.0781414
0.0764518
392.212
391.611
390.193
388.129
385.605
382.874
380.204
377.809
375.88
374.642
392.681
392.069
390.533
388.32
385.566
382.584
379.655
376.961
374.713
373.296
393.928
393.293
391.524
388.859
385.59
382.058
378.56
375.212
372.134
370.221
395.75
394.865
392.794
389.721
385.721
381.107
376.185
371.339
366.973
365.153
398.666
397.711
395.039
390.827
385.487
379.3
372.374
365.558
359.534
358.089
402.754
401.847
398.714
393.829
387.399
379.122
369.182
359.743
351.644
351.35
408.749
407.513
403.284
396.679
388.932
379.354
362.371
314.508
275.904
289.765
415.695
414.55
409.87
398.549
374.461
332.24
212.276
117.007
53.4272
51.4186
353.771
348.062
315.221
247.229
154.755
67.7399
1.18816
0.296836
0.243889
0.316618
43.7339
43.2407
25.4116
1.39437
0.130906
0.174179
0.22632
0.231943
0.224788
0.235478
0.0409559
0.0609978
0.0720297
0.0969395
0.112908
0.146876
0.209402
0.237159
0.26164
0.278167
0.0529556
0.0610952
0.057581
0.0731804
0.0938753
0.131718
0.187217
0.212834
0.234296
0.311724
0.0487292
0.068507
0.0767962
0.0749933
0.0715574
0.0863881
0.109853
0.113413
0.148241