/*--------------------------------*- C++ -*----------------------------------*\
| =========                 |                                                 |
| \\      /  F ield         | OpenFOAM: The Open Source CFD Toolbox           |
|  \\    /   O peration     | Version:  2312                                  |
|   \\  /    A nd           | Website:  www.openfoam.com                      |
|    \\/     M anipulation  |                                                 |
\*---------------------------------------------------------------------------*/
FoamFile
{
    version     2.0;
    format      ascii;
    arch        "LSB;label=32;scalar=64";
    class       surfaceScalarField;
    location    "1.01";
    object      alphaPhi0.water;
}
// * * * * * * * * * * * * * * * * * * * * * * * * * * * * * * * * * * * * * //

dimensions      [0 3 -1 0 0 0 0];

oriented        oriented;

internalField   nonuniform List<scalar> 
22600
(
-5.88334e-08
1.29915e-07
-7.1082e-08
-7.53103e-08
1.33197e-07
-1.16721e-07
-6.13619e-08
1.22225e-07
-1.36174e-07
-6.99101e-08
1.1144e-07
-1.02892e-07
-9.4948e-08
1.04602e-07
-7.95635e-08
-1.26027e-07
1.04597e-07
-7.35184e-08
-1.52656e-07
1.05e-07
-7.8371e-08
-1.62828e-07
9.9296e-08
-8.91242e-08
-1.48211e-07
8.52685e-08
-9.98848e-08
6.80697e-08
-1.1361e-07
-1.00591e-07
3.60166e-07
-1.29659e-07
-1.50534e-07
3.50173e-07
-1.67032e-07
-1.55105e-07
3.3605e-07
-2.09254e-07
-1.66314e-07
3.11405e-07
-1.88756e-07
-1.89959e-07
2.65539e-07
-1.37292e-07
-2.12264e-07
2.38558e-07
-1.11656e-07
-2.22137e-07
2.22058e-07
-1.07185e-07
-2.12058e-07
1.98253e-07
-1.09036e-07
-1.74027e-07
1.55094e-07
-1.07857e-07
1.06151e-07
-1.09692e-07
-1.98123e-08
4.5076e-07
-7.07819e-08
-8.61141e-08
4.08828e-07
7.64615e-09
-1.59061e-07
5.00681e-07
-9.16843e-08
-1.77627e-07
5.11411e-07
-1.8144e-07
-1.86855e-07
4.48627e-07
-1.7386e-07
-2.05691e-07
3.8703e-07
-1.29635e-07
-2.31147e-07
3.49514e-07
-1.01999e-07
-2.52382e-07
3.01206e-07
-8.1718e-08
-2.25994e-07
1.71241e-07
-4.25351e-08
-1.90245e-08
8.96856e-10
1.38309e-07
3.03996e-07
8.45423e-09
1.94404e-08
2.14215e-07
3.13482e-07
-1.75716e-07
4.97238e-07
1.98599e-07
-2.37676e-07
6.0129e-07
-2.79189e-08
-2.35339e-07
5.75598e-07
-1.29307e-07
-2.70555e-07
5.32861e-07
-1.10616e-07
-3.56698e-07
4.9025e-07
-5.45929e-08
-4.12216e-07
3.39362e-07
1.73629e-08
-3.15938e-07
-7.00653e-08
1.45027e-07
-4.28664e-07
2.24343e-07
4.09035e-07
-2.76311e-07
1.71272e-07
2.31085e-07
-1.63027e-07
5.55192e-07
-1.85689e-07
4.70321e-07
4.43691e-07
-4.0296e-07
6.10707e-07
2.07854e-07
-4.40077e-07
5.87657e-07
2.50584e-08
-4.77278e-07
5.55387e-07
1.46758e-08
-5.19029e-07
4.57856e-07
7.41447e-08
-4.46496e-07
1.0664e-07
1.60189e-07
-2.72294e-07
-4.45687e-07
2.01419e-07
-7.12026e-07
1.36923e-07
2.96747e-07
-1.05018e-06
4.77222e-07
2.49204e-08
-5.72104e-07
6.80907e-07
-3.82885e-07
2.72883e-07
6.05243e-07
-5.88229e-07
3.81843e-07
4.34208e-07
-5.78769e-07
3.35808e-07
2.42389e-07
-5.10201e-07
3.23449e-07
1.63369e-07
-3.96505e-07
2.2535e-07
1.1881e-07
-2.42966e-07
-7.98345e-08
3.29359e-08
-1.38418e-07
-4.97725e-07
-5.25157e-08
-6.05974e-07
-1.00094e-07
-1.79243e-07
-1.42403e-06
5.52862e-07
-3.68613e-07
-8.45018e-07
4.62284e-07
-5.92952e-07
-2.08669e-07
7.05891e-07
-6.52126e-07
-1.77785e-08
4.58795e-07
-4.98685e-07
1.62313e-07
2.00541e-08
-3.29186e-07
3.69037e-07
-2.15087e-07
-2.18987e-07
4.15907e-07
-3.00756e-07
-1.94768e-07
2.25585e-07
-3.29638e-07
-2.87845e-07
-3.87704e-08
-3.65435e-07
-2.00979e-07
-3.71533e-07
-2.48357e-07
-1.20276e-06
2.7021e-08
-3.79685e-07
-6.47765e-07
-6.59249e-08
-5.80585e-07
-2.24928e-07
2.17159e-07
-5.52549e-07
1.0052e-07
-1.46334e-07
-4.96031e-07
5.85301e-07
-4.79506e-07
-6.56438e-07
9.88984e-07
-4.5954e-07
-9.31184e-07
1.05056e-06
-3.59908e-07
-1.08338e-06
7.73676e-07
-3.95897e-07
-9.84191e-07
3.22393e-07
-5.52255e-07
1.13819e-07
-6.88557e-07
2.12784e-08
-9.33391e-07
-2.90466e-07
9.04704e-08
-1.4007e-07
-5.76858e-07
-6.2349e-08
2.32217e-07
-3.04324e-07
-3.9111e-07
6.44002e-07
-2.14722e-07
-9.21154e-07
9.15265e-07
1.41477e-08
-1.44683e-06
7.38404e-07
3.5263e-07
-1.44409e-06
2.5838e-07
3.87374e-07
-1.062e-06
1.43645e-08
2.82556e-07
-6.48705e-07
-4.65861e-09
2.30931e-07
-1.08648e-10
2.28732e-07
2.86663e-07
-9.2933e-07
1.49069e-07
9.64958e-07
-4.06688e-07
-2.30867e-07
1.13864e-06
-1.23633e-07
3.05825e-08
7.76064e-07
7.85632e-08
4.61928e-07
2.63573e-07
2.60805e-08
6.18571e-07
5.41214e-08
-4.61294e-08
4.00006e-07
1.60246e-08
-9.60215e-09
1.2763e-07
4.64324e-09
9.91027e-11
7.41869e-09
-2.07146e-11
6.74878e-12
9.97453e-13
-8.28521e-11
2.36768e-12
2.22214e-07
-5.7804e-10
3.95556e-07
5.85852e-07
-6.6235e-10
3.32716e-07
6.15113e-07
-5.16738e-10
2.94679e-07
4.42954e-07
-5.33985e-10
2.53629e-07
9.69863e-08
-2.27762e-09
8.12085e-08
1.00807e-08
1.97577e-09
1.05556e-08
-5.2812e-11
8.56691e-11
3.37071e-10
-5.89173e-11
9.88045e-13
6.93981e-12
-8.32871e-11
-1.38092e-11
1.69127e-11
-2.15088e-10
1.26287e-10
-3.17814e-11
-3.23555e-10
1.24724e-11
-4.66457e-11
-4.64799e-10
-6.19898e-12
-5.06294e-11
-2.90157e-10
-4.25442e-11
-1.51244e-10
-1.69898e-10
-4.26808e-11
-2.03811e-09
2.82757e-11
-2.85403e-10
-1.14688e-10
2.83206e-12
3.22588e-11
-1.37535e-10
-5.05798e-12
4.92807e-12
-1.09364e-10
-1.56025e-10
2.12144e-11
-1.49225e-10
-1.51037e-10
7.98264e-11
-2.273e-10
4.0774e-10
-1.41044e-10
1.86943e-11
-8.73011e-11
-2.47273e-10
1.10127e-10
-1.72504e-10
-3.8263e-10
2.70982e-10
-1.26249e-10
-1.66657e-10
2.61406e-10
-1.56264e-10
-1.40017e-10
3.07111e-11
-3.03179e-11
-8.75179e-11
1.24224e-11
-7.35041e-12
-5.13558e-10
-9.30253e-11
3.67414e-11
-7.21761e-10
-3.18016e-10
2.14756e-10
-3.87731e-10
-8.54738e-11
4.34923e-10
-3.09756e-10
1.18523e-10
-1.69113e-10
1.22429e-10
-6.33402e-11
-2.26444e-10
5.0801e-10
-4.06632e-11
-1.94588e-10
5.69498e-10
-4.07058e-11
-6.18852e-11
8.73574e-11
-3.30348e-11
-6.76177e-11
2.44536e-11
-7.22863e-12
-6.4752e-11
2.24367e-11
1.91472e-12
-2.11901e-09
-3.22334e-10
2.52145e-10
-5.48676e-09
-1.59595e-09
8.94269e-10
-1.64334e-09
-1.30004e-09
7.12862e-10
-7.08347e-10
1.80811e-11
-8.40555e-11
2.97356e-11
-4.04607e-13
-1.94898e-10
3.21495e-10
-4.51553e-11
-8.37298e-11
1.91617e-10
-8.3274e-11
-2.60717e-11
3.36265e-11
-4.37072e-12
-2.87959e-11
1.88548e-11
-8.55734e-13
-5.80586e-11
1.18271e-11
2.06544e-11
-4.36159e-09
-2.44574e-10
5.60065e-10
-8.05942e-09
-1.70622e-09
1.46016e-09
-5.95991e-09
-2.39634e-09
4.91165e-10
-2.38302e-09
-1.89169e-10
-1.90702e-11
3.95028e-11
1.01107e-11
-4.63646e-11
9.06112e-11
-8.25471e-11
-1.26386e-11
1.56317e-10
-9.82164e-11
-1.22376e-11
2.84073e-11
5.39987e-13
-9.86774e-12
1.97584e-11
3.55496e-12
2.04234e-10
1.01682e-11
3.22876e-11
-5.71052e-09
-6.61676e-11
6.76571e-10
-9.71133e-09
-7.84349e-10
1.63394e-09
-1.08052e-08
-1.31252e-09
-1.14242e-11
-1.9668e-09
-9.30006e-10
-8.98487e-12
4.4964e-11
7.55153e-12
-1.76644e-11
1.17412e-10
-6.69716e-11
-3.99314e-12
1.13331e-10
2.75602e-12
-7.65257e-12
1.99905e-11
5.85226e-12
-3.67165e-12
1.46344e-11
6.61852e-12
1.79986e-10
2.96025e-11
6.20628e-11
-2.09333e-09
2.85567e-11
6.96037e-10
-9.22977e-09
7.01504e-11
7.73883e-10
-1.02299e-08
-8.06712e-11
-1.57548e-10
-1.04347e-09
-1.55208e-09
-4.81301e-12
1.26908e-10
2.98005e-12
-4.84424e-12
7.79431e-11
1.59205e-11
-1.86119e-12
6.76696e-11
6.8419e-12
-1.06176e-11
1.6741e-11
5.51022e-12
-3.27658e-11
1.97732e-11
1.0786e-11
-8.27883e-10
1.92747e-10
3.7452e-10
-1.5915e-09
2.32934e-10
3.3391e-10
-3.0404e-09
1.10389e-10
3.29452e-10
-7.9257e-09
1.90313e-11
-3.06919e-10
9.82835e-11
-1.63183e-09
-1.31646e-11
1.91596e-10
-6.43428e-12
2.1324e-13
6.04324e-11
4.70756e-12
-1.99886e-13
2.68815e-11
3.51898e-11
-7.24849e-12
1.37209e-11
3.57151e-12
-4.45836e-11
3.05544e-11
1.36589e-11
-1.78131e-09
2.56496e-10
4.54515e-10
-3.28842e-09
3.79648e-10
8.36953e-10
-2.84071e-09
2.3962e-10
1.98735e-10
-1.79464e-09
-3.15045e-11
-9.93183e-11
-3.78129e-11
-6.86358e-10
-1.64387e-12
-1.49924e-11
2.29914e-10
1.31826e-12
1.19389e-12
6.35641e-11
6.94677e-13
3.15974e-12
1.94827e-11
-8.13833e-12
3.89117e-12
1.26513e-11
-4.41305e-11
3.99302e-11
1.25199e-10
-1.14852e-09
2.83482e-10
9.29131e-11
-2.40228e-09
3.94934e-10
1.52554e-10
-7.92514e-10
6.28742e-11
3.48699e-11
-3.88894e-10
-4.66655e-11
-6.55873e-12
-2.86773e-10
7.09656e-12
-1.01876e-07
1.27797e-07
-9.70039e-08
-8.71619e-08
-1.67278e-08
-1.14706e-07
5.27788e-09
-8.1329e-08
-1.47284e-07
3.34596e-08
-6.19499e-09
-1.24878e-07
2.08382e-08
3.40424e-08
-1.00984e-07
-8.63546e-09
5.20923e-08
-9.6137e-08
-4.17335e-08
5.61831e-08
-1.01456e-07
-7.02711e-08
5.27983e-08
-1.13385e-07
-9.00977e-08
4.44134e-08
-1.24471e-07
2.2588e-08
-1.38827e-07
-1.30081e-07
3.29882e-07
-2.01663e-07
-2.55674e-08
-1.91513e-07
-9.67602e-08
7.30464e-08
-2.45333e-07
-1.43863e-07
4.98681e-08
3.17626e-08
-2.03535e-07
-7.10876e-09
1.35402e-07
-1.81675e-07
-5.74195e-08
1.45655e-07
-1.54908e-07
-9.10455e-08
1.29852e-07
-1.47228e-07
-1.09955e-07
1.11377e-07
-1.48706e-07
-1.11735e-07
8.55806e-08
-1.47244e-07
3.19603e-08
-1.44566e-07
9.74813e-08
3.34258e-07
-1.72639e-07
3.23929e-07
-6.01959e-07
1.91644e-07
3.61306e-07
-5.18414e-07
1.44021e-07
2.3671e-07
9.00197e-08
-1.15101e-07
9.92503e-08
3.08416e-07
-2.09415e-07
1.30138e-08
2.897e-07
-1.87444e-07
-3.61101e-08
2.34024e-07
-1.57048e-07
-7.79381e-08
2.11369e-07
-1.39882e-07
-1.09836e-07
1.83308e-07
-1.08365e-07
5.88609e-08
-5.87983e-08
3.75438e-07
6.8136e-08
-1.00862e-07
5.24221e-07
-9.26578e-07
4.89318e-07
3.4855e-07
-5.68607e-07
4.24468e-07
1.89988e-07
1.61634e-07
5.90293e-08
8.80769e-08
4.54671e-07
-1.73651e-07
1.14641e-08
4.5168e-07
-1.95983e-07
-8.13604e-08
4.07203e-07
-1.34947e-07
-1.94818e-07
4.06269e-07
-6.40783e-08
-2.33937e-07
3.31716e-07
3.57386e-08
3.74714e-09
1.52127e-07
4.78891e-07
-2.91726e-07
5.22814e-08
3.63771e-07
-9.45041e-07
6.91662e-07
-2.31934e-08
-2.79115e-07
5.41323e-07
-1.46852e-07
3.01318e-07
1.91828e-07
-1.57408e-07
5.50096e-07
-5.98106e-08
-1.80471e-07
5.51566e-07
-6.21472e-08
-2.18567e-07
5.03865e-07
1.55787e-08
-2.09708e-07
4.68394e-07
8.92047e-08
-1.32965e-07
3.13087e-07
1.43305e-07
-8.90136e-08
1.74044e-07
2.1206e-07
-3.54738e-07
3.28057e-07
-1.36428e-07
-6.03377e-07
6.82371e-07
-3.94573e-07
-3.80143e-08
6.22141e-07
-4.51802e-07
4.18196e-07
3.7456e-07
-3.68415e-07
5.6389e-07
1.45209e-07
-2.30528e-07
5.1301e-07
6.4038e-08
-5.91915e-08
4.50302e-07
1.03654e-09
1.17829e-07
3.84595e-07
-6.02859e-08
1.89948e-07
2.65767e-07
-7.73145e-08
7.50261e-08
-7.98136e-08
4.85466e-08
-1.04959e-07
2.54553e-07
-3.20764e-07
-5.72492e-08
2.84918e-07
-4.51428e-07
2.34887e-07
5.63655e-07
-3.90977e-07
5.53619e-07
2.6292e-07
-2.57122e-07
6.97322e-07
-2.47233e-07
-1.325e-07
7.90902e-07
-6.17601e-07
-4.042e-08
7.99477e-07
-7.4201e-07
2.55774e-08
6.73366e-07
-6.84406e-07
7.13702e-09
4.86448e-07
-5.67675e-07
3.51734e-07
-5.18021e-07
1.03561e-07
2.61756e-07
-4.43261e-07
-3.16038e-07
5.5967e-07
-2.63247e-07
-5.41887e-07
7.83915e-07
-1.0602e-07
-6.13543e-07
1.12838e-06
-6.49443e-07
-6.37597e-07
1.3731e-06
-1.13123e-06
-7.51836e-07
1.5552e-06
-1.1096e-06
-8.24963e-07
1.43827e-06
-9.25579e-07
-7.64376e-07
9.18927e-07
-9.64042e-07
-5.86455e-07
6.1142e-07
-1.06385e-06
4.53772e-07
-1.16477e-06
1.25047e-07
4.76522e-07
-6.30285e-07
-2.51724e-07
9.96245e-07
-6.36696e-07
-3.56425e-07
1.2379e-06
-6.53604e-07
-4.10551e-07
1.26552e-06
-6.57529e-07
-5.59772e-07
1.0051e-06
-1.42464e-07
-7.2402e-07
5.83789e-07
2.96895e-07
-6.61152e-07
1.38585e-07
3.61726e-07
-4.59146e-07
3.05826e-10
3.32653e-07
-3.03578e-07
-1.11167e-11
3.20086e-07
-2.20172e-10
3.18982e-07
4.11415e-07
-4.14468e-07
6.32483e-07
3.39994e-07
-4.91303e-08
4.49811e-07
3.7105e-07
2.1185e-08
3.47815e-07
3.47392e-07
1.85046e-08
5.00108e-07
2.37767e-07
-1.57796e-07
6.01069e-07
9.29418e-08
-3.77232e-08
3.52108e-07
9.63783e-09
2.26158e-11
5.55475e-08
-1.59013e-11
8.72907e-10
4.18083e-09
-4.86974e-11
-8.42271e-13
1.52885e-11
-1.88775e-10
1.15486e-11
2.08942e-07
-3.84487e-10
3.83972e-07
3.9548e-07
-4.14435e-10
3.78648e-07
3.40093e-07
-1.70841e-09
2.21935e-07
1.66687e-07
-1.44661e-09
1.17139e-07
2.81735e-08
7.22906e-10
2.46002e-08
-7.08329e-10
-1.14464e-10
1.95403e-09
-6.76501e-10
2.48097e-10
6.16415e-10
-1.31661e-10
2.76542e-11
2.16363e-10
-2.38121e-10
-1.01029e-11
8.86123e-11
-3.57381e-10
3.31286e-10
-9.1548e-12
-1.23444e-10
-2.75335e-12
-8.8133e-11
-1.39873e-10
-6.35715e-11
-1.07595e-10
-1.63758e-10
-1.38285e-09
-7.97781e-10
-5.61726e-12
-6.67054e-10
-1.28354e-10
2.32362e-11
-8.02238e-11
-1.84119e-10
3.87206e-11
-1.17973e-10
-9.77651e-11
1.07384e-11
1.15755e-11
-1.57649e-10
-4.56301e-11
6.29744e-11
-6.04291e-10
-1.38581e-10
4.99954e-10
-1.44186e-10
6.51681e-10
-1.18366e-11
-5.01828e-12
-5.98459e-11
-4.00585e-11
3.01396e-12
-1.16615e-10
-4.35937e-11
1.80835e-11
-1.40538e-10
-4.98673e-11
2.12619e-11
-9.31762e-11
-2.78167e-11
2.14908e-11
-2.24947e-11
-8.77879e-11
3.86349e-11
-1.95177e-11
-3.2263e-10
-3.32577e-12
2.77692e-11
-9.90001e-10
-1.48996e-10
3.73847e-10
-3.91694e-10
-2.00878e-10
7.94203e-10
-6.03012e-11
9.63599e-11
1.36078e-13
1.49566e-11
-5.0902e-11
-9.75997e-12
3.8422e-11
-5.67794e-11
-2.15738e-11
6.10248e-11
-7.58839e-11
-1.89972e-11
3.97222e-11
-5.94425e-11
-1.53774e-11
1.84277e-11
-9.968e-12
-5.43265e-12
3.45252e-11
3.61928e-12
-1.66588e-09
-2.15301e-11
3.10782e-10
-3.53756e-09
-6.256e-11
4.12408e-10
-9.03456e-10
1.52619e-10
2.4083e-10
7.05616e-11
-7.20919e-11
6.13517e-12
2.57765e-11
-2.33486e-11
-5.14953e-11
9.0697e-11
-4.08416e-11
-4.45918e-11
1.06406e-09
-2.16264e-10
-1.95093e-11
7.44025e-11
-5.95822e-11
-2.07053e-11
2.1895e-11
-2.84973e-13
-2.72509e-11
3.48906e-11
2.46543e-11
-2.26859e-09
7.06961e-11
6.45169e-10
-1.96335e-09
3.98249e-10
6.08394e-11
-9.11595e-10
1.88639e-10
4.45492e-12
3.93248e-10
-2.24011e-10
1.84683e-11
2.83268e-11
-9.62326e-13
-6.87113e-11
1.17645e-09
-1.32589e-10
-1.58551e-10
1.44958e-09
-1.78893e-10
-2.30755e-11
4.1201e-10
-3.9753e-12
-2.02028e-11
2.21766e-11
3.5848e-12
-9.85053e-11
5.27e-11
5.0164e-11
-2.21376e-09
2.925e-10
8.41834e-10
-9.83953e-10
4.76532e-10
2.39198e-11
-9.31555e-10
2.53192e-10
-1.46991e-12
1.24593e-09
-3.97648e-10
7.1062e-12
2.90054e-11
5.74453e-13
-5.36571e-12
1.45621e-09
-1.00879e-10
-1.36993e-10
1.78839e-09
-6.1889e-12
-4.34699e-11
1.03344e-09
7.83026e-11
-6.49797e-11
3.35639e-11
1.15484e-11
-5.13517e-10
2.00816e-10
2.77796e-10
-1.25048e-09
5.46087e-10
9.40594e-10
-1.02319e-09
1.53361e-10
1.86536e-11
-2.36754e-09
6.17972e-10
-4.12507e-11
1.38698e-09
-4.92028e-10
1.50878e-11
6.08995e-11
-5.99673e-12
1.14372e-10
8.62544e-10
-4.41197e-11
1.9173e-11
1.96134e-09
1.25652e-10
-1.68903e-11
6.72089e-10
1.83221e-10
-5.63539e-11
4.35179e-11
3.03574e-11
-8.84039e-10
3.4184e-10
6.1453e-10
-7.49965e-10
5.26686e-10
2.66067e-10
-3.13084e-10
1.2931e-10
3.51603e-12
-2.17657e-09
4.54488e-10
-3.04632e-11
8.08993e-10
-9.83014e-11
-9.34483e-13
2.07109e-10
-3.46192e-11
1.16825e-10
1.29897e-11
-4.47008e-12
1.20457e-10
3.57924e-10
1.51178e-10
1.05249e-12
7.29446e-11
1.34837e-10
-1.53938e-10
7.63221e-11
6.34994e-11
-9.87323e-10
3.20389e-10
2.64855e-10
-5.17871e-10
2.85988e-10
9.73101e-11
-9.34747e-11
1.25208e-10
2.76656e-12
-1.46183e-09
2.99606e-10
-1.04015e-11
6.89002e-10
-2.53598e-11
1.4844e-13
-1.72284e-11
2.30879e-10
5.59467e-12
-1.29197e-12
9.64998e-12
1.52076e-11
3.23516e-11
4.91311e-11
-2.33936e-12
3.48242e-11
5.3702e-11
-1.90499e-10
1.85054e-10
1.91758e-10
-4.32852e-10
3.39902e-11
2.20913e-10
-1.74748e-10
9.74821e-12
1.74197e-11
4.50598e-11
-6.21786e-12
8.9892e-11
-5.24972e-10
-6.43913e-12
3.47216e-10
-1.40337e-11
1.48614e-10
-1.23486e-07
1.0997e-07
-8.3488e-08
-1.17675e-07
-1.0658e-07
-1.39373e-08
-7.88384e-09
-2.2553e-07
-3.15454e-08
1.59347e-08
-8.31424e-08
-6.55544e-08
-5.67263e-09
3.99306e-09
-8.33701e-08
-4.07386e-08
3.48967e-08
-9.59676e-08
-7.23591e-08
3.69445e-08
-1.0678e-07
-9.61359e-08
2.69435e-08
-1.16551e-07
-1.10544e-07
9.2719e-09
-1.19335e-07
-2.61967e-08
-1.23152e-07
-1.85135e-07
2.94263e-07
-2.00822e-07
-7.40659e-08
-3.40921e-07
2.65114e-08
9.91725e-08
-5.80747e-07
3.8115e-08
6.59717e-08
-1.74944e-07
-7.85324e-08
-1.94207e-08
5.11533e-08
-1.43442e-07
-8.19445e-08
1.01139e-07
-1.58626e-07
-1.17369e-07
8.78582e-08
-1.62717e-07
-1.28885e-07
5.41761e-08
-1.64422e-07
-1.21413e-07
9.13621e-09
-1.54581e-07
-5.18778e-08
-1.44982e-07
-6.38136e-08
4.1115e-07
-2.25712e-07
2.34703e-07
-6.91046e-07
2.43252e-07
4.29848e-07
-9.43216e-07
3.11346e-07
3.36979e-07
-2.49335e-07
5.21595e-08
1.37016e-07
1.63773e-07
-1.22072e-07
4.86582e-09
2.20397e-07
-1.74552e-07
-5.96695e-08
1.77269e-07
-1.81923e-07
-9.10645e-08
1.30656e-07
-1.84967e-07
-1.11441e-07
9.69073e-08
-1.75759e-07
2.78329e-08
-1.5799e-07
1.52433e-07
4.01327e-07
-2.43471e-07
4.32613e-07
-8.25947e-07
3.4404e-07
4.87965e-07
-9.77637e-07
4.03536e-07
3.96852e-07
-1.96407e-07
9.72141e-08
2.15758e-07
2.9074e-07
-1.19524e-07
5.4602e-08
3.86324e-07
-2.00754e-07
-5.45612e-08
3.5353e-07
-2.02045e-07
-1.40309e-07
3.3214e-07
-1.79814e-07
-1.807e-07
3.22624e-07
-1.49588e-07
2.27088e-07
-1.20632e-07
2.99327e-07
4.50099e-07
-2.95818e-07
3.92245e-07
-4.56941e-07
2.30562e-07
2.27119e-07
-5.54379e-07
2.83648e-07
1.56762e-07
5.98877e-08
5.89785e-09
6.55745e-08
4.44471e-07
-1.22354e-07
8.23965e-09
5.17332e-07
-1.3582e-07
-5.96861e-08
5.40458e-07
-1.03423e-07
-1.606e-07
6.36257e-07
-1.13999e-07
-2.28281e-07
6.88222e-07
-1.54612e-07
5.07897e-07
-1.81117e-07
3.2743e-07
6.76056e-07
-2.2533e-07
2.49203e-07
1.42303e-07
1.62817e-07
-6.2384e-09
9.28799e-08
2.30089e-07
-5.24913e-08
4.52089e-07
2.86116e-08
-1.78682e-08
6.25843e-07
-7.07862e-08
1.25729e-08
7.1312e-07
-1.62191e-07
-1.25389e-08
8.40317e-07
-2.73711e-07
-6.77779e-08
9.77073e-07
-3.45863e-07
-1.1151e-07
1.0353e-06
-3.80655e-07
8.82332e-07
-4.36243e-07
3.60674e-07
7.81256e-07
-2.11321e-07
6.6057e-08
6.61162e-07
6.08939e-08
-1.66634e-07
7.63391e-07
1.25851e-07
-1.51094e-07
9.04817e-07
-2.05349e-07
-1.23369e-07
1.02407e-06
-6.73184e-07
-2.22258e-07
1.26343e-06
-1.06902e-06
-3.36296e-07
1.41675e-06
-1.2044e-06
-3.31119e-07
1.40226e-06
-1.11477e-06
-2.38705e-07
1.33034e-06
-9.55138e-07
1.21176e-06
-9.08255e-07
1.31677e-07
9.13117e-07
-7.068e-07
-2.85954e-07
1.12218e-06
-3.06633e-07
-6.24942e-07
1.48249e-06
-4.86128e-07
-8.95491e-07
1.7464e-06
-1.22048e-06
-1.10953e-06
1.75877e-06
-1.65189e-06
-1.27567e-06
1.49729e-06
-1.5944e-06
-1.25137e-06
1.16238e-06
-1.32322e-06
-1.04157e-06
7.89521e-07
-1.23411e-06
-7.43646e-07
5.39152e-07
-1.23201e-06
4.36301e-07
-1.26208e-06
-3.02525e-07
9.04034e-07
-5.10813e-07
-5.62962e-07
9.58749e-07
-4.87281e-07
-5.82229e-07
1.00825e-06
-7.5856e-07
-6.03679e-07
8.4117e-07
-6.91746e-07
-5.46905e-07
4.13807e-07
-1.42523e-07
-4.22171e-07
9.20607e-08
1.56089e-07
-2.95151e-07
-2.9655e-08
2.0972e-07
-1.84458e-07
-3.73515e-09
2.2189e-07
-1.3233e-07
-1.04511e-10
2.26701e-07
-3.24154e-10
2.10428e-07
1.48222e-07
-1.23326e-07
7.70282e-07
1.39601e-07
-1.23001e-07
5.03942e-07
1.4776e-07
-8.25444e-08
2.80109e-07
1.15405e-07
-1.52921e-07
2.61678e-07
1.06325e-07
-3.83902e-08
1.58129e-07
1.9429e-08
-4.25537e-09
5.24656e-08
-1.46679e-10
2.17548e-09
2.12106e-08
-5.53594e-11
-5.29915e-12
3.35414e-10
-9.65534e-11
-9.14929e-11
4.80939e-11
-3.27798e-10
3.56473e-11
9.56152e-08
-1.97294e-10
1.72e-07
1.00657e-07
-1.99165e-09
1.17676e-07
5.62392e-08
3.7898e-10
7.37952e-09
1.3916e-08
-9.64384e-10
7.51478e-09
-4.03196e-10
-2.29064e-10
8.06105e-10
-2.03423e-09
9.55862e-12
1.88179e-09
-1.69815e-10
7.77613e-11
7.44811e-10
-1.60509e-10
9.26787e-12
5.67763e-11
-2.22148e-10
-6.48937e-11
6.18273e-11
-4.91351e-10
1.49268e-10
-6.47375e-11
-3.50503e-11
-3.64908e-11
-9.79783e-10
-2.94404e-12
-1.05467e-09
-5.01976e-10
-4.7225e-11
-9.83608e-10
-7.63644e-11
-1.03575e-10
-1.82425e-09
-1.80815e-10
-1.46572e-11
-5.36417e-10
-6.39195e-11
2.50509e-11
-6.40684e-11
-2.7841e-11
6.48733e-12
2.34873e-11
-2.02671e-10
2.46462e-11
7.6906e-11
-8.95067e-10
-8.22801e-11
7.78936e-10
-2.60373e-10
6.69022e-10
-7.43595e-12
-3.8244e-12
-4.73248e-11
-2.97832e-11
7.58207e-12
-8.75067e-11
-2.47224e-11
3.84823e-12
-1.19892e-10
-9.36666e-12
8.02517e-12
-9.99076e-11
-1.22348e-11
1.61463e-12
-3.79528e-11
-2.97838e-12
1.20838e-11
-8.26943e-12
-9.46251e-12
2.46606e-11
7.93591e-12
-3.96979e-10
2.14207e-10
5.73236e-11
-1.38846e-09
2.94714e-10
5.54421e-10
1.11259e-10
2.15481e-10
7.00783e-12
-4.2982e-13
-3.6989e-11
2.18782e-12
1.26963e-11
-3.28297e-11
6.77048e-13
8.25628e-12
-2.17091e-10
-9.20382e-12
4.21431e-11
-4.50614e-11
-4.73187e-12
8.96996e-12
-2.98737e-12
-7.56162e-12
1.24074e-11
3.19426e-12
-9.95049e-11
1.76549e-10
2.51574e-11
-7.08687e-10
6.3177e-10
-1.37783e-11
-5.89504e-10
7.13102e-10
5.92273e-10
1.30088e-10
-4.33783e-11
1.17939e-11
5.7243e-13
-1.68087e-11
7.53719e-12
4.56884e-11
-2.23907e-11
5.88954e-11
1.06378e-10
-1.77819e-10
1.09113e-14
7.49789e-11
-3.4052e-11
7.10451e-13
7.30195e-12
7.85039e-14
-1.81641e-11
2.05951e-11
1.18848e-11
-3.09886e-10
4.56419e-10
9.03009e-11
-7.25295e-10
8.38481e-10
1.95675e-11
-1.83611e-10
2.35457e-10
1.24885e-10
3.75333e-10
-1.51827e-10
1.55248e-11
7.38735e-12
-3.02183e-12
8.28513e-11
1.0195e-10
-2.20663e-10
6.20482e-11
9.64682e-11
-8.55563e-11
4.34626e-12
9.07446e-11
-9.27575e-12
-4.29599e-14
1.34874e-11
2.82451e-12
-1.01469e-10
6.45877e-11
2.87652e-11
-5.57223e-10
5.77201e-10
4.62563e-10
-4.25904e-10
7.79855e-10
6.86907e-11
-7.539e-11
1.36101e-10
4.01847e-12
3.40245e-10
-2.45049e-10
2.55954e-12
2.23553e-11
-1.8681e-11
6.23513e-11
4.72356e-11
-3.9024e-12
4.41802e-11
5.0558e-11
-3.77035e-12
1.38676e-11
1.12887e-10
4.59575e-12
5.37414e-12
2.57732e-11
1.22965e-11
-3.02604e-10
3.30396e-10
2.75952e-10
-5.02391e-10
5.77629e-10
9.48963e-10
-1.11328e-10
1.55164e-10
1.22039e-10
-5.64096e-11
4.91425e-11
-6.23985e-12
9.78092e-11
-1.03829e-10
2.0286e-12
4.44757e-11
-6.31581e-12
9.80711e-12
4.36779e-12
-5.17919e-12
3.65545e-11
4.93983e-11
-1.78391e-12
1.51428e-11
1.17606e-10
1.99601e-11
-5.88882e-11
4.58494e-11
4.80704e-11
-3.02992e-10
2.0533e-10
6.77245e-10
-1.39953e-10
7.50518e-11
3.33146e-10
-1.38415e-11
2.41207e-11
1.1488e-11
-1.16401e-11
2.20798e-11
-5.73162e-12
2.82416e-11
-2.44751e-11
4.56694e-13
2.57159e-11
-7.30885e-12
1.99373e-12
5.67099e-12
-8.02219e-12
8.87709e-12
4.20782e-11
4.06429e-13
-8.01037e-13
2.75849e-11
6.49515e-11
-1.06439e-10
1.36483e-10
3.00224e-10
-1.08785e-10
8.24346e-11
3.48197e-10
-1.5838e-11
2.22235e-11
1.68988e-11
-4.23946e-12
1.50226e-11
1.43613e-14
-2.23021e-12
1.57355e-11
-6.69422e-12
1.69477e-11
-1.66819e-11
-3.85805e-13
-5.75161e-12
1.25005e-11
-5.98083e-13
-2.0539e-12
6.66682e-12
-2.2696e-13
1.93997e-11
1.54573e-11
-6.82814e-11
1.29027e-10
5.78243e-11
-1.35997e-10
6.33537e-10
4.44391e-10
-2.35538e-11
3.78071e-11
2.90609e-11
-3.99413e-12
2.21397e-12
9.59328e-12
1.12527e-13
-5.93309e-12
9.91348e-12
2.83123e-12
-7.4932e-12
1.35279e-11
-1.53136e-11
1.51597e-11
-8.95654e-08
9.63582e-08
-9.02808e-08
-9.8333e-08
-2.14365e-08
1.62668e-08
-3.96878e-08
-8.35297e-08
-6.66089e-09
-2.62301e-08
-2.7256e-08
-5.17561e-08
-4.54834e-08
1.98542e-08
-8.39709e-08
-7.58796e-08
3.91414e-08
-1.04713e-07
-1.01628e-07
3.83103e-08
-1.19342e-07
-1.16343e-07
2.69038e-08
-1.2874e-07
-1.23198e-07
9.97494e-09
-1.22456e-07
-1.60081e-08
-1.19088e-07
-1.62627e-07
2.60451e-07
-2.02288e-07
-1.59944e-07
-1.57842e-08
1.81764e-08
-4.68277e-08
-1.83075e-07
2.45439e-08
-4.17616e-08
-3.41803e-08
-7.66742e-08
-8.34867e-08
6.1126e-08
-1.42989e-07
-1.24758e-07
9.10064e-08
-1.69219e-07
-1.46477e-07
7.45309e-08
-1.77219e-07
-1.41236e-07
3.39069e-08
-1.76666e-07
-1.23462e-07
-7.0709e-09
-1.5531e-07
-4.84907e-08
-1.32832e-07
-1.56104e-07
4.16107e-07
-2.25264e-07
-4.68136e-08
-3.38198e-08
1.51998e-07
1.28446e-07
-2.77975e-07
2.30986e-07
1.099e-07
-8.34176e-09
4.48671e-08
1.29926e-08
1.45894e-07
-1.09932e-07
-7.18968e-08
1.78521e-07
-1.77176e-07
-1.2433e-07
1.47313e-07
-2.02273e-07
-1.43676e-07
8.70757e-08
-2.18789e-07
-1.40544e-07
4.34201e-08
-2.29382e-07
2.91923e-09
-2.41966e-07
-2.7319e-08
5.00138e-07
-3.00182e-07
1.41929e-07
2.22906e-08
1.18681e-07
2.79495e-07
-2.56353e-07
2.44349e-07
2.42508e-07
6.39183e-08
6.19408e-08
1.12543e-07
2.619e-07
-1.05565e-07
-1.85814e-08
3.1642e-07
-2.07529e-07
-1.25354e-07
2.94662e-07
-2.4262e-07
-1.96535e-07
2.37341e-07
-2.58899e-07
-2.12138e-07
2.1587e-07
-3.06435e-07
1.93683e-07
-4.03218e-07
1.39224e-07
5.90425e-07
-5.25329e-07
2.64035e-07
2.56462e-07
-1.2842e-07
2.7015e-07
2.06761e-08
5.16624e-10
2.0502e-07
2.48161e-07
-1.13215e-07
1.43184e-07
3.8143e-07
-1.80049e-07
6.64256e-08
4.6661e-07
-2.09251e-07
-6.49359e-08
5.7572e-07
-2.53119e-07
-2.39863e-07
6.17873e-07
-3.19604e-07
-3.22064e-07
5.89113e-07
-4.45654e-07
5.01582e-07
-6.29359e-07
2.13109e-07
7.20114e-07
-5.68127e-07
2.20371e-07
5.71937e-07
-1.59921e-07
1.14759e-07
4.62859e-07
-1.06305e-07
9.91357e-08
5.46439e-07
-2.54042e-07
1.18294e-07
6.39786e-07
-3.483e-07
8.04332e-08
8.30507e-07
-4.88227e-07
-4.90079e-08
1.03164e-06
-6.00194e-07
-2.11599e-07
1.10675e-06
-6.72147e-07
-2.83912e-07
1.05873e-06
-7.77954e-07
9.22341e-07
-9.86599e-07
1.35965e-07
8.69968e-07
-4.97141e-07
-1.12645e-07
9.53998e-07
-7.25576e-08
-2.575e-07
9.59967e-07
-2.26402e-07
-2.76023e-07
1.00863e-06
-6.49013e-07
-3.41591e-07
1.17784e-06
-1.14567e-06
-5.18548e-07
1.46299e-06
-1.52455e-06
-6.57313e-07
1.6429e-06
-1.67689e-06
-6.51834e-07
1.61826e-06
-1.63176e-06
-4.89769e-07
1.50574e-06
-1.56422e-06
1.3341e-06
-1.55217e-06
-2.92843e-07
1.20477e-06
-7.48763e-07
-6.75853e-07
1.49151e-06
-4.61131e-07
-1.01082e-06
1.74872e-06
-9.39907e-07
-1.35249e-06
1.7702e-06
-1.64039e-06
-1.57194e-06
1.33095e-06
-1.9929e-06
-1.49829e-06
8.95994e-07
-1.64293e-06
-1.30815e-06
5.81204e-07
-1.29769e-06
-1.04535e-06
3.29391e-07
-1.21264e-06
-7.3548e-07
1.40592e-07
-1.20074e-06
6.07112e-08
-1.19165e-06
-6.08555e-07
9.02286e-07
-1.63702e-07
-6.97678e-07
6.23256e-07
-2.6777e-07
-6.31759e-07
4.00915e-07
-5.84883e-07
-5.17047e-07
1.17404e-07
-4.75676e-07
-3.35477e-07
-3.22985e-08
-8.27758e-08
-1.65107e-07
-3.62358e-08
8.94609e-08
-8.54377e-08
-2.1529e-08
1.40725e-07
-6.40878e-08
-2.22313e-09
9.29374e-08
-3.95686e-08
2.65187e-09
5.43771e-08
5.31586e-09
2.91269e-08
5.93883e-08
-5.12951e-08
5.93084e-07
7.62329e-08
-1.19578e-07
2.71243e-07
4.05068e-08
-4.30966e-10
6.50537e-08
2.9768e-08
-5.02973e-09
4.64083e-08
1.42552e-08
-1.02978e-09
3.23166e-08
-8.45114e-10
-1.56812e-09
1.88177e-08
-3.75037e-09
-2.47488e-10
2.22458e-09
-8.50289e-09
-6.3061e-12
2.66466e-09
-9.08687e-09
4.93715e-10
2.66643e-09
9.43909e-10
2.48917e-09
1.04763e-08
-7.66156e-10
3.58648e-08
8.21752e-10
1.49495e-10
8.19898e-09
-4.41685e-12
-3.66479e-10
4.79695e-10
1.84943e-09
1.74489e-09
1.86672e-10
2.20362e-10
5.04034e-10
7.45902e-10
-2.4648e-10
2.44641e-11
5.68553e-10
-2.86916e-10
2.61469e-12
9.84628e-11
-5.82939e-10
-3.25924e-11
2.72702e-10
-6.18058e-10
5.96348e-11
4.38651e-10
2.07307e-13
4.5071e-10
-5.1992e-10
-1.01952e-11
-9.94951e-11
-5.04791e-10
-6.96514e-11
-6.78633e-10
-3.9142e-10
-1.26604e-10
-1.03849e-09
2.81631e-11
-4.9406e-12
-4.89036e-10
7.66182e-11
1.57069e-11
-1.13593e-10
5.16059e-12
2.12433e-11
3.89339e-12
-3.50645e-12
1.47427e-11
1.18339e-11
-2.01942e-10
2.27581e-11
8.58727e-11
-8.67662e-10
1.36602e-10
4.85209e-10
9.31417e-11
7.53326e-10
-1.18284e-11
7.09643e-12
-3.70182e-11
-1.84855e-11
1.00073e-12
-9.65231e-11
1.1861e-11
-4.41937e-11
-1.51649e-10
2.51481e-11
3.40649e-12
-9.40681e-11
1.15644e-11
-2.48384e-14
-9.3314e-12
7.33843e-12
1.01568e-11
4.11164e-12
2.43642e-12
1.37833e-11
8.92454e-12
-1.01938e-10
5.35974e-11
4.15481e-11
-5.25805e-10
2.38934e-10
1.35746e-10
1.41186e-10
4.80799e-11
3.97014e-12
6.98793e-13
-2.40582e-11
1.08534e-11
-1.1493e-11
-3.63442e-11
7.00536e-11
-8.91872e-11
-1.96713e-10
5.92063e-12
1.50639e-11
-1.13751e-10
4.38472e-13
4.10401e-12
-1.5982e-12
5.66983e-13
7.12566e-12
6.18268e-12
3.16038e-12
2.45871e-11
1.03543e-11
-4.96005e-11
7.36348e-11
8.65039e-12
-4.45168e-11
1.50238e-10
2.49107e-11
3.08615e-10
-6.54543e-11
5.02387e-12
-6.54192e-12
-3.18057e-11
3.9935e-11
-4.98655e-11
-1.3221e-10
2.71336e-11
-1.47173e-11
-2.54062e-10
-1.09055e-12
1.08633e-11
-5.69235e-11
-2.91426e-12
8.13661e-12
-3.74139e-13
-2.36681e-12
1.26915e-11
7.01565e-12
3.59424e-12
8.71138e-11
2.17605e-11
-2.23392e-11
9.56891e-11
2.1817e-11
6.63798e-11
1.1359e-10
8.52761e-12
4.09321e-10
-1.78871e-10
-6.04422e-12
-6.4948e-12
-5.9033e-11
5.08395e-12
-1.56721e-12
-1.62073e-10
-8.63394e-13
3.10615e-12
-7.08917e-12
-2.44522e-12
6.01658e-12
-4.77811e-12
-2.73305e-12
1.01258e-11
1.17997e-12
-1.01813e-11
4.07697e-11
9.17128e-12
-1.15664e-12
5.50188e-10
4.70974e-11
-1.92634e-11
1.81144e-10
1.49021e-11
-9.0292e-11
3.51454e-11
2.12223e-11
2.08833e-10
-1.68133e-10
-7.2741e-13
1.09886e-11
-2.12569e-11
-5.19474e-13
-4.73691e-14
-5.76318e-12
-1.44814e-12
2.86708e-12
-3.07999e-12
-1.94247e-12
1.0194e-11
8.37311e-13
-1.62699e-11
2.89075e-11
7.00884e-12
-4.50349e-11
3.65502e-10
1.31065e-10
-5.83384e-11
6.33943e-10
3.28068e-10
-2.58423e-11
2.30979e-10
1.17249e-11
-3.87949e-11
3.10079e-11
1.1178e-12
4.17903e-11
-3.39608e-11
-1.38186e-12
4.95053e-12
-4.44282e-12
-1.71221e-12
1.28959e-12
-6.13456e-12
-3.51053e-12
3.80264e-12
-1.6254e-12
-1.46428e-11
3.62731e-11
4.38648e-12
-9.40238e-11
2.75067e-10
1.82469e-10
-1.26085e-10
2.78034e-10
4.17515e-10
-7.46288e-11
1.46656e-10
3.73396e-10
-6.12e-12
6.63234e-11
3.27102e-11
-2.224e-12
2.26857e-11
-2.89073e-12
2.04933e-11
-1.67154e-11
-2.74323e-12
4.29392e-12
-4.99769e-12
-2.25922e-12
4.2476e-12
-1.17622e-11
-1.56659e-11
1.27427e-11
4.24624e-12
-9.96795e-11
1.81249e-10
1.70039e-10
-2.44266e-10
2.51586e-10
5.42366e-10
-9.44754e-11
1.13351e-10
3.291e-10
-7.53206e-12
2.34858e-11
4.90993e-11
1.26638e-12
2.42742e-11
-1.73666e-12
4.08791e-12
1.94219e-11
-6.75338e-12
2.09404e-11
-3.11982e-11
-5.92276e-12
-3.40918e-12
6.3477e-12
-3.41306e-12
-3.68188e-12
2.09983e-11
-2.29971e-11
7.82766e-11
8.37819e-11
-1.72069e-10
4.10158e-10
1.35721e-10
-1.66169e-10
3.01737e-10
1.05659e-10
-1.24172e-11
4.62954e-11
2.06589e-11
1.55115e-12
-5.10484e-12
1.81537e-11
5.31191e-12
-7.23508e-12
2.09921e-11
9.45362e-12
-1.2067e-11
1.92247e-11
-2.65833e-11
2.06175e-11
-6.9847e-08
8.60927e-08
-1.06526e-07
-8.06659e-08
1.65756e-08
1.05101e-08
-5.82231e-08
-7.91599e-09
-2.11877e-08
-5.76827e-08
1.05836e-08
-6.28801e-08
-7.6707e-08
2.88226e-08
-9.37691e-08
-1.02366e-07
3.67297e-08
-1.15783e-07
-1.22763e-07
3.41019e-08
-1.33046e-07
-1.29616e-07
2.43272e-08
-1.46214e-07