/*--------------------------------*- C++ -*----------------------------------*\
| =========                 |                                                 |
| \\      /  F ield         | OpenFOAM: The Open Source CFD Toolbox           |
|  \\    /   O peration     | Version:  2312                                  |
|   \\  /    A nd           | Website:  www.openfoam.com                      |
|    \\/     M anipulation  |                                                 |
\*---------------------------------------------------------------------------*/
FoamFile
{
    version     2.0;
    format      ascii;
    arch        "LSB;label=32;scalar=64";
    class       volVectorField;
    location    "0.265";
    object      U;
}
// * * * * * * * * * * * * * * * * * * * * * * * * * * * * * * * * * * * * * //

dimensions      [0 1 -1 0 0 0 0];

internalField   nonuniform List<vector> 
8000
(
(0.00232561 -0.00512832 0.00229717)
(0.00698137 -0.00562513 0.00267145)
(0.0111109 -0.0052747 0.00291637)
(0.0140391 -0.00505819 0.00333486)
(0.0156472 -0.00480884 0.00379122)
(0.0157997 -0.00451908 0.00418135)
(0.0144081 -0.00418635 0.00443986)
(0.011602 -0.00384531 0.0045309)
(0.00759326 -0.00354335 0.00453725)
(0.00295765 -0.00338289 0.00450969)
(0.00207304 -0.0135624 0.00203932)
(0.00615703 -0.0145772 0.00236081)
(0.00970001 -0.0136782 0.00264737)
(0.0122035 -0.013111 0.00310025)
(0.0135231 -0.0124952 0.00358149)
(0.0135674 -0.011735 0.00399893)
(0.0123108 -0.0108475 0.00429306)
(0.00988754 -0.00996336 0.00442312)
(0.00646987 -0.00922589 0.00449321)
(0.00259572 -0.00886892 0.00447519)
(0.00242027 -0.0221192 0.00238787)
(0.00692858 -0.0235687 0.00278006)
(0.0107087 -0.0223752 0.00322352)
(0.0134596 -0.0217231 0.00387793)
(0.014943 -0.0210161 0.00460612)
(0.0150523 -0.0200939 0.0052957)
(0.0137049 -0.0189596 0.00584441)
(0.0110012 -0.0177679 0.00619403)
(0.00714727 -0.016713 0.00641871)
(0.00279118 -0.0162387 0.00636997)
(0.00266118 -0.0322938 0.00262721)
(0.00722781 -0.0338899 0.00310875)
(0.0108487 -0.0328933 0.003786)
(0.0135889 -0.0326462 0.00474992)
(0.0150414 -0.0323953 0.00583248)
(0.0151407 -0.0318239 0.00693244)
(0.0137867 -0.0309245 0.00784968)
(0.0110682 -0.0298584 0.00854711)
(0.00714955 -0.0288682 0.00901735)
(0.00273649 -0.0285239 0.0090047)
(0.00272681 -0.0430951 0.00268563)
(0.00700888 -0.0443026 0.00332499)
(0.010137 -0.0440715 0.00437022)
(0.0125799 -0.0449146 0.00588802)
(0.0139441 -0.0459899 0.00767058)
(0.0141565 -0.0467633 0.00963183)
(0.012971 -0.0471141 0.0116147)
(0.0103944 -0.0469648 0.0135822)
(0.00658938 -0.0468509 0.015131)
(0.00239316 -0.0470736 0.0155369)
(0.00268217 -0.0529373 0.00262695)
(0.00660409 -0.0537106 0.00364822)
(0.00909334 -0.0556665 0.0055555)
(0.0110551 -0.0598778 0.00837004)
(0.0123414 -0.0650437 0.0119414)
(0.0127314 -0.0700164 0.0163192)
(0.0116646 -0.0742918 0.0213144)
(0.00892732 -0.0778048 0.0260731)
(0.00539554 -0.0811777 0.029578)
(0.00188539 -0.0831919 0.0310717)
(0.00328416 -0.0630143 0.00321464)
(0.00721225 -0.0648551 0.00538655)
(0.00773782 -0.0716472 0.0091701)
(0.00721882 -0.0828543 0.0142165)
(0.00614576 -0.095752 0.0204987)
(0.0034114 -0.108926 0.0273758)
(-0.0012239 -0.121277 0.0324581)
(-0.00497451 -0.133023 0.0339439)
(-0.0045468 -0.143499 0.0339359)
(-0.00157382 -0.149174 0.0349964)
(0.00444212 -0.0793148 0.00437004)
(0.00479965 -0.077828 0.00874215)
(-0.00398336 -0.0853314 0.0140613)
(-0.0140656 -0.101091 0.0190615)
(-0.0254929 -0.12076 0.0232236)
(-0.0380535 -0.14168 0.0221312)
(-0.0461247 -0.162139 0.0122091)
(-0.0437872 -0.181498 -0.00343092)
(-0.0301522 -0.196734 -0.0149099)
(-0.0110993 -0.204139 -0.0177041)
(-0.00357755 -0.0803956 -0.00373625)
(-0.0207444 -0.0652743 0.00364468)
(-0.0482464 -0.0714261 0.00488802)
(-0.0713364 -0.0954019 0.00103964)
(-0.0857628 -0.125543 -0.0125053)
(-0.0789111 -0.158184 -0.0398137)
(-0.0577656 -0.186919 -0.0659272)
(-0.0387432 -0.20928 -0.0826119)
(-0.0271646 -0.228314 -0.0979103)
(-0.0100471 -0.241633 -0.111529)
(-0.048109 -0.0247071 -0.0490218)
(-0.0987836 -0.0225977 -0.0337747)
(-0.133695 -0.0616609 -0.0476237)
(-0.136214 -0.1174 -0.0767059)
(-0.077529 -0.175885 -0.128027)
(0.0529376 -0.236343 -0.196841)
(0.16491 -0.247378 -0.180977)
(0.162043 -0.249284 -0.103231)
(0.0825568 -0.269385 -0.0809019)
(0.029454 -0.301168 -0.114551)
(-0.116171 0.157918 -0.119998)
(-0.166145 0.0476414 -0.0890271)
(-0.192031 -0.0889398 -0.152853)
(-0.111962 -0.21669 -0.260435)
(0.027255 -0.283736 -0.269094)
(0.105445 -0.248938 -0.235792)
(0.140691 -0.147636 -0.148641)
(0.141826 -0.110855 -0.0556179)
(0.0788944 -0.11638 -0.0387768)
(0.0218211 -0.155762 -0.0942535)
(-0.139113 0.356022 -0.13177)
(-0.126468 0.0934387 -0.100197)
(-0.28365 -0.0744825 -0.231667)
(-0.208299 0.00436334 -0.338436)
(-0.10284 0.0660844 -0.355304)
(0.0332421 0.0961104 -0.294288)
(0.126133 0.087374 -0.179781)
(0.154134 0.0414794 -0.0628586)
(0.0746154 0.00201062 -0.0430247)
(0.0062238 -0.0392343 -0.115039)
(-0.147117 0.566997 -0.10359)
(-0.233534 0.347563 -0.113269)
(-0.278053 0.315853 -0.168569)
(-0.150106 0.295156 -0.215531)
(-0.0365928 0.237129 -0.233773)
(0.099077 0.188862 -0.182975)
(0.176559 0.143316 -0.099777)
(0.146116 0.116786 -0.0342988)
(0.0318068 0.105713 -0.0615193)
(-0.00886875 0.0691291 -0.12824)
(-0.0918442 0.813798 -0.0518864)
(-0.150705 0.474745 -0.0690054)
(-0.211987 0.324991 -0.0027559)
(-0.0927675 0.300229 0.00233346)
(-0.00524712 0.27571 -0.0318008)
(0.0787747 0.215556 -0.0412224)
(0.10451 0.1646 -0.029747)
(0.0611577 0.1461 -0.0238733)
(-0.012947 0.134982 -0.0646574)
(-0.00821611 0.0829532 -0.101704)
(-0.0029309 0.868228 0.0156681)
(0.0354662 0.600424 -0.0034994)
(-0.0142409 0.183693 0.0721043)
(-0.00786465 0.00770086 0.0818926)
(0.0111205 -0.000884695 0.0743151)
(0.039935 0.00762521 0.0649741)
(0.0537787 0.0506706 0.0475596)
(0.0420551 0.106385 0.0145774)
(0.00803025 0.120941 -0.0285595)
(0.0104598 0.086838 -0.0622864)
(0.07122 0.636676 0.0694389)
(0.183963 0.519588 0.0720132)
(0.192568 0.119912 0.0645168)
(0.127209 -0.0663278 0.035872)
(0.0757786 -0.0909962 0.0348675)
(0.0536783 -0.095314 0.0460728)
(0.0366809 -0.0751776 0.0586758)
(0.0364731 0.00505913 0.0524065)
(0.0332988 0.0670104 0.0226957)
(0.0245502 0.0670571 -0.00322366)
(0.0797137 0.274145 0.0711631)
(0.191963 0.226469 0.0694493)
(0.202983 0.0203508 0.0199557)
(0.150541 -0.0683688 -0.00173738)
(0.105348 -0.0865267 0.0064586)
(0.0757723 -0.0961415 0.0158272)
(0.0440781 -0.105591 0.0270506)
(0.020182 -0.0891815 0.0438155)
(0.0179366 -0.0402578 0.0482445)
(0.0153615 -0.0119238 0.040928)
(0.0363911 0.0795789 0.0310464)
(0.105279 0.0718629 0.0170702)
(0.123096 0.00213796 -0.0033157)
(0.109802 -0.0511273 -0.00209881)
(0.0906974 -0.0788601 0.0035143)
(0.0731016 -0.0950141 0.00747065)
(0.0546959 -0.104258 0.011344)
(0.0338489 -0.106791 0.0183181)
(0.0188298 -0.100998 0.0285624)
(0.0130152 -0.091372 0.0338507)
(0.0145725 0.0165838 0.0119109)
(0.0495833 0.0199821 0.00509841)
(0.0713312 -0.0163872 0.00142036)
(0.0748835 -0.0530467 0.00193217)
(0.0692963 -0.0783772 0.0031879)
(0.0603306 -0.0954649 0.00451848)
(0.0499997 -0.106687 0.00617771)
(0.0391541 -0.111899 0.00836299)
(0.0286175 -0.112687 0.0112079)
(0.01967 -0.112526 0.0134955)
(0.00884845 -0.0267834 0.00684692)
(0.0292501 -0.0196009 0.00509895)
(0.044666 -0.0383174 0.0030487)
(0.0511617 -0.0620572 0.0023656)
(0.0509791 -0.0819045 0.00239814)
(0.047236 -0.0973056 0.00275796)
(0.0415859 -0.10867 0.00353927)
(0.0350656 -0.115919 0.00466036)
(0.0282092 -0.119465 0.00590197)
(0.0212175 -0.120164 0.00662396)
(0.00270001 -0.00562804 0.0069015)
(0.00821493 -0.00633329 0.00813479)
(0.0132784 -0.00601541 0.00889669)
(0.0171547 -0.00592259 0.0102869)
(0.0196631 -0.00587971 0.0119901)
(0.0205336 -0.00584742 0.013782)
(0.0194225 -0.00579116 0.015462)
(0.0162098 -0.00568451 0.0168319)
(0.010912 -0.00551009 0.01774)
(0.00422366 -0.00542841 0.0180067)
(0.00239465 -0.0145818 0.00605918)
(0.00719776 -0.0160417 0.00709965)
(0.0115042 -0.0151997 0.00800192)
(0.0147611 -0.0149446 0.0095006)
(0.0167696 -0.0148491 0.0112719)
(0.0173535 -0.0147798 0.0131271)
(0.0162935 -0.0147087 0.0148538)
(0.013565 -0.0146107 0.0162127)
(0.00909745 -0.01451 0.0170405)
(0.00358692 -0.0148013 0.0172731)
(0.00281253 -0.0235746 0.0068316)
(0.00815808 -0.0256682 0.00806036)
(0.0127898 -0.0245695 0.00939679)
(0.0163666 -0.024398 0.0114791)
(0.0186066 -0.0245522 0.0139572)
(0.0192904 -0.0248091 0.0165758)
(0.0181265 -0.0251311 0.0190353)
(0.0150516 -0.0254399 0.0209499)
(0.00986741 -0.0258002 0.022199)
(0.00372291 -0.0268148 0.0229909)
(0.00314278 -0.0338951 0.0071199)
(0.00865397 -0.0361424 0.0085466)
(0.0131749 -0.0351986 0.0106072)
(0.0167487 -0.0354794 0.0136043)
(0.0189346 -0.0362905 0.0171856)
(0.0195157 -0.0372923 0.0210331)
(0.0181869 -0.0384023 0.0247613)
(0.01494 -0.0394801 0.0278508)
(0.00949267 -0.0407084 0.030255)
(0.00343882 -0.0428089 0.0319169)
(0.00336719 -0.0443072 0.00688019)
(0.00888379 -0.0460036 0.00875328)
(0.0130996 -0.0456649 0.0120375)
(0.0164492 -0.0470112 0.0167181)
(0.0184652 -0.0492448 0.0224183)
(0.0189751 -0.0519794 0.0286723)
(0.017607 -0.0548767 0.0350012)
(0.0143314 -0.0576113 0.0408081)
(0.00882835 -0.0605654 0.0456423)
(0.00303176 -0.0637948 0.0485391)
(0.00370386 -0.0537202 0.00644551)
(0.00948457 -0.0546966 0.00932175)
(0.0134389 -0.056519 0.014789)
(0.0164607 -0.0609204 0.0224495)
(0.0184778 -0.066697 0.0314124)
(0.0193313 -0.0728874 0.0410859)
(0.0185339 -0.0785167 0.0506427)
(0.0154658 -0.0832501 0.0590888)
(0.00994112 -0.0878438 0.0655628)
(0.0034885 -0.0918939 0.0689751)
(0.00543666 -0.0648846 0.00702375)
(0.0112153 -0.065419 0.011021)
(0.0133671 -0.0705396 0.0187699)
(0.0153377 -0.0790714 0.0286421)
(0.0174928 -0.0891646 0.0396511)
(0.018478 -0.0983393 0.0514272)
(0.0178039 -0.105365 0.061433)
(0.0141079 -0.110742 0.0678598)
(0.00831902 -0.115639 0.0717213)
(0.00245905 -0.120722 0.074221)
(0.00876256 -0.0778861 0.00456612)
(0.0102196 -0.0710111 0.00992282)
(0.00474754 -0.0740767 0.01694)
(0.00239941 -0.0841131 0.026527)
(0.00147808 -0.0974684 0.0413038)
(-0.000605759 -0.11055 0.0562628)
(-0.00167607 -0.122075 0.0671717)
(-0.00422161 -0.131521 0.0744949)
(-0.00678304 -0.140376 0.0817454)
(-0.00404131 -0.149468 0.0865705)
(0.0039682 -0.0653323 -0.021197)
(-0.00185627 -0.037792 -0.00256904)
(-0.0236459 -0.0449889 0.013251)
(-0.0441247 -0.0752141 0.0372519)
(-0.0529046 -0.109738 0.0576406)
(-0.0466514 -0.139633 0.0762701)
(-0.0402517 -0.165727 0.0951079)
(-0.0336485 -0.191865 0.118519)
(-0.0184556 -0.227335 0.139806)
(-6.33555e-05 -0.271145 0.145993)
(-0.0321129 -0.0225663 -0.100418)
(-0.0151879 -0.0164836 -0.0158442)
(-0.0893803 -0.0549029 0.0956224)
(-0.132806 -0.139482 0.119907)
(-0.117338 -0.210254 0.0443939)
(-0.0602034 -0.250578 0.0705608)
(-0.0902587 -0.25291 0.00864628)
(-0.0785422 -0.258967 -0.0159564)
(-0.0224912 -0.337184 -0.0212535)
(0.0114634 -0.389833 -0.0264038)
(-0.0887254 0.0460098 -0.170068)
(0.11077 0.0755291 0.119998)
(-0.225482 -0.144693 0.0963573)
(-0.140442 -0.103697 -0.169851)
(-0.168876 0.0423904 -0.371078)
(-0.156644 0.072553 -0.396725)
(-0.161691 0.0769168 -0.328891)
(-0.111895 0.0234959 -0.219383)
(-0.0232801 -0.0673921 -0.133576)
(0.00416243 -0.140016 -0.129828)
(-0.108209 0.103345 0.0198502)
(-0.0766685 0.204166 0.0190545)
(-0.41203 0.17661 -0.352681)
(-0.401454 0.127718 -0.52219)
(-0.364605 0.126769 -0.488483)
(-0.257336 0.149403 -0.385192)
(-0.149643 0.138976 -0.238132)
(-0.0300031 0.0479527 -0.106816)
(0.0393169 -0.0478519 -0.0505349)
(0.0156028 -0.121409 -0.071936)
(-0.117546 0.346928 -0.0890885)
(-0.133008 0.505841 -0.0342428)
(-0.306702 0.331853 -0.265558)
(-0.240371 0.160644 -0.332005)
(-0.176871 0.0582266 -0.292298)
(-0.0453851 0.0144281 -0.185517)
(0.0999539 -0.0270275 -0.0483439)
(0.172927 -0.0530212 0.045475)
(0.145444 -0.0498842 0.0597518)
(0.0532814 -0.0871758 0.00105523)
(-0.0817375 0.517701 -0.0537085)
(-0.0966838 0.632177 -0.0130135)
(-0.16917 0.39054 0.0114722)
(-0.0530828 0.187462 0.0782802)
(0.0316188 0.0501701 0.108401)
(0.118226 -0.0566549 0.131277)
(0.162278 -0.0946806 0.140614)
(0.160768 -0.0727422 0.131894)
(0.119748 -0.0508204 0.0998338)
(0.0613119 -0.0745838 0.0425378)
(-0.0107337 0.672785 0.0746667)
(0.00395783 0.700308 0.0464083)
(-0.00059057 0.348686 0.147937)
(0.0623838 0.0110796 0.190337)
(0.0886449 -0.130147 0.165292)
(0.101839 -0.158281 0.147587)
(0.10407 -0.144963 0.142658)
(0.109839 -0.100562 0.133094)
(0.107934 -0.0630075 0.109766)
(0.0797804 -0.0602157 0.0815445)
(0.0759595 0.570944 0.184217)
(0.168876 0.662607 0.17073)
(0.22939 0.316753 0.177404)
(0.229359 0.0153679 0.130114)
(0.165219 -0.100794 0.0885892)
(0.113403 -0.138461 0.0838424)
(0.0771473 -0.160143 0.100899)
(0.063285 -0.137636 0.120048)
(0.065462 -0.0899304 0.120554)
(0.0519727 -0.0622418 0.1053)
(0.0796745 0.251323 0.183208)
(0.224309 0.375995 0.210741)
(0.281658 0.178735 0.143149)
(0.235483 0.00356578 0.0644167)
(0.166777 -0.0666655 0.038346)
(0.117188 -0.0940954 0.0414641)
(0.0768464 -0.11842 0.0536782)
(0.040756 -0.136473 0.0796348)
(0.0276284 -0.121412 0.105205)
(0.0234365 -0.097552 0.112845)
(0.0231745 0.0791426 0.0982491)
(0.123813 0.151799 0.113444)
(0.164865 0.0813003 0.0604154)
(0.148171 0.00190887 0.0285003)
(0.120285 -0.0493138 0.0229725)
(0.0963081 -0.0774713 0.0246417)
(0.0750407 -0.0947522 0.0293857)
(0.0513357 -0.106228 0.0398996)
(0.0295972 -0.114619 0.0579051)
(0.0193472 -0.115125 0.0710248)
(0.00778608 0.0227075 0.0436433)
(0.0469271 0.0598021 0.0404197)
(0.0804571 0.029715 0.0256945)
(0.0892998 -0.0180117 0.0191448)
(0.0835933 -0.0530928 0.0168131)
(0.0738024 -0.0756746 0.0166935)
(0.0628761 -0.0908421 0.0185868)
(0.0508655 -0.100176 0.0225626)
(0.0375862 -0.103838 0.0284896)
(0.0250172 -0.105072 0.0329626)
(0.00713446 -0.0182763 0.0239086)
(0.0278785 0.0067462 0.0223421)
(0.0481903 -0.00976062 0.0173068)
(0.0577718 -0.0373013 0.0135708)
(0.0586589 -0.0604696 0.0116382)
(0.0553053 -0.0782808 0.0112036)
(0.0498784 -0.0916214 0.0122883)
(0.0430828 -0.101001 0.0145055)
(0.0347257 -0.106515 0.017518)
(0.0254287 -0.10865 0.0191221)
(0.00294417 -0.00527955 0.0109799)
(0.00897524 -0.00601791 0.0131501)
(0.0145111 -0.00550732 0.0143828)
(0.0186703 -0.00517956 0.0167697)
(0.021326 -0.00491184 0.019863)
(0.0222236 -0.00465813 0.0233734)
(0.020983 -0.00440825 0.0270429)
(0.0174072 -0.00417287 0.0304715)
(0.0114305 -0.004036 0.033348)
(0.00431787 -0.00410031 0.0351948)
(0.00268124 -0.013688 0.00954054)
(0.00809953 -0.0152068 0.0113447)
(0.0129439 -0.0138059 0.0127844)
(0.016496 -0.0128685 0.015296)
(0.0186292 -0.0120425 0.0184423)
(0.0191729 -0.011247 0.0220068)
(0.0178447 -0.0105592 0.0257668)
(0.0145251 -0.0101749 0.0293225)
(0.00930166 -0.0103561 0.0328734)
(0.0037069 -0.011027 0.0352714)
(0.00325587 -0.0223927 0.0105502)
(0.00949365 -0.0245836 0.0126297)
(0.0148946 -0.022417 0.0147374)
(0.0189549 -0.0209852 0.0181481)
(0.0214248 -0.0197614 0.0223693)
(0.022071 -0.0186428 0.0270982)
(0.020478 -0.0177664 0.0319234)
(0.0165547 -0.0174632 0.0366022)
(0.0107472 -0.0180069 0.0411913)
(0.0044561 -0.0194478 0.0432961)
(0.0038215 -0.0329205 0.0106748)
(0.010716 -0.0352264 0.0130007)
(0.0164154 -0.0325019 0.0162441)
(0.020783 -0.0307262 0.0210882)
(0.0234029 -0.0292201 0.0269488)
(0.0240323 -0.0278529 0.0335139)
(0.0221556 -0.0268367 0.0401576)
(0.0178486 -0.0265157 0.0467077)
(0.011674 -0.0273974 0.0525385)
(0.00488375 -0.0288924 0.0545157)
(0.00441307 -0.0441104 0.00993276)
(0.0121679 -0.0457102 0.0128938)
(0.0182899 -0.0428907 0.0180939)
(0.0229879 -0.0411656 0.0254609)
(0.0257781 -0.0398028 0.0342571)
(0.0263528 -0.0385895 0.0439976)
(0.0241426 -0.0379048 0.0538223)
(0.019364 -0.0379135 0.0632678)
(0.012399 -0.0391034 0.0710948)
(0.0047507 -0.0391738 0.0725296)
(0.00560493 -0.0557343 0.00885067)
(0.0149415 -0.0565835 0.0131924)
(0.0218218 -0.0547581 0.0216071)
(0.0266742 -0.053799 0.0327498)
(0.0293854 -0.0529445 0.0454412)
(0.0295807 -0.0521752 0.0588023)
(0.0272208 -0.0518456 0.0714522)
(0.0223793 -0.0520338 0.0826887)
(0.0142134 -0.052396 0.0909307)
(0.004883 -0.0504705 0.0930098)
(0.00918861 -0.0717817 0.00747034)
(0.0189461 -0.0706753 0.0130632)
(0.0240425 -0.0675466 0.0236631)
(0.0281633 -0.0658806 0.0369377)
(0.0305477 -0.0653759 0.0522488)
(0.030733 -0.0655661 0.0674671)
(0.0296305 -0.0659094 0.0806019)
(0.0254018 -0.0654975 0.0904639)
(0.0155279 -0.0640272 0.0959531)
(0.0045576 -0.06274 0.0996815)
(0.0140619 -0.0854217 -0.00433941)
(0.01732 -0.0744721 0.00417339)
(0.0128351 -0.0696228 0.011404)
(0.0162674 -0.0719651 0.028537)
(0.0189082 -0.0752047 0.0515006)
(0.022278 -0.0812031 0.0739022)
(0.0243092 -0.08738 0.0924904)
(0.0206644 -0.0914706 0.101767)
(0.00821572 -0.0929391 0.105525)
(-0.00081808 -0.0978322 0.114068)
(0.00548252 -0.0712057 -0.0493427)
(0.0138842 -0.0458376 -0.0247063)
(0.00778481 -0.0606488 0.008712)
(-0.0129685 -0.0787586 0.0525343)
(-0.0136797 -0.0954927 0.0782005)
(-0.00945979 -0.109653 0.0944843)
(-0.0156926 -0.126271 0.0974047)
(-0.036529 -0.131423 0.0798286)
(-0.0361241 -0.104219 0.134714)
(-0.00656105 -0.138888 0.173928)
(-0.0449735 -0.0612271 -0.135374)
(0.0925553 -0.0543559 -0.084614)
(0.136692 -0.017403 0.177578)
(-0.0449471 -0.0506457 0.123177)
(-0.084053 -0.124403 -0.0491638)
(-0.153781 -0.103357 -0.229458)
(-0.209296 -0.103198 -0.313471)
(-0.231587 -0.0391786 -0.337733)
(-0.162501 0.0511463 -0.336486)
(-0.0636443 0.0430065 -0.330501)
(-0.148321 -0.0943859 -0.172355)
(0.0889747 -0.129361 -0.129802)
(-0.111554 0.184724 0.0074381)
(-0.164065 0.191191 -0.397354)
(-0.290562 0.0875509 -0.533525)
(-0.326625 0.0531473 -0.567455)
(-0.321149 0.00633741 -0.518619)
(-0.271248 -0.0740737 -0.41421)
(-0.166994 -0.153266 -0.316459)
(-0.0690769 -0.192024 -0.262694)
(-0.231026 -0.12516 -0.18449)
(-0.375529 0.196476 -0.281887)
(-0.48523 0.199799 -0.412876)
(-0.468039 0.0862337 -0.541805)
(-0.424299 -0.0186275 -0.506962)
(-0.352076 -0.0406693 -0.393638)
(-0.263182 -0.0466184 -0.225787)
(-0.147234 -0.113432 -0.0905406)
(-0.062368 -0.180158 -0.0381254)
(-0.0398147 -0.19569 -0.0517971)
(-0.154709 0.280893 -0.175462)
(-0.280503 0.352558 -0.196197)
(-0.329283 0.190197 -0.286801)
(-0.306956 0.0187253 -0.330144)
(-0.264002 -0.0676008 -0.293793)
(-0.149343 -0.119879 -0.166267)
(0.0164713 -0.176708 -0.00523421)
(0.114658 -0.232695 0.0796499)
(0.109162 -0.234649 0.0793429)
(0.0377805 -0.223391 0.0108551)
(-0.00394058 0.286424 -0.14878)
(-0.0108042 0.41128 -0.108874)
(-0.0581879 0.265116 -0.0310235)
(-0.0194997 0.0519347 0.062113)
(0.0499176 -0.0771435 0.0809864)
(0.124014 -0.160562 0.0784277)
(0.182352 -0.225916 0.105958)
(0.17399 -0.244882 0.121368)
(0.124518 -0.215628 0.0964934)
(0.0602473 -0.185237 0.0370134)
(0.0634803 0.216244 0.0361574)
(0.127924 0.39577 0.0338497)
(0.115417 0.270191 0.13106)
(0.143566 -0.00849538 0.191243)
(0.149821 -0.143659 0.169736)
(0.144894 -0.171149 0.145735)
(0.126149 -0.19591 0.13222)
(0.0983376 -0.206052 0.122137)
(0.080103 -0.180325 0.110258)
(0.0537545 -0.148767 0.0933402)
(0.0671477 0.147787 0.211475)
(0.179516 0.343879 0.236331)
(0.235655 0.22159 0.230326)
(0.244886 0.011534 0.171322)
(0.190235 -0.0925666 0.108435)
(0.137154 -0.127287 0.0832008)
(0.0978335 -0.157387 0.0852097)
(0.066961 -0.175049 0.102853)
(0.0504263 -0.162722 0.122135)
(0.0365597 -0.135529 0.128742)
(0.0245161 0.0299907 0.203351)
(0.153159 0.185804 0.274347)
(0.21919 0.11382 0.208104)
(0.204746 -0.00156957 0.116336)
(0.158551 -0.0650029 0.0664629)
(0.118173 -0.093218 0.0515399)
(0.0874887 -0.112153 0.0521899)
(0.0565254 -0.128955 0.0677972)
(0.0324591 -0.134277 0.0955895)
(0.0210409 -0.126135 0.115158)
(-0.000171864 0.00608044 0.117224)
(0.067772 0.0829679 0.155677)
(0.120167 0.0553299 0.110806)
(0.124653 -0.00605164 0.0661014)
(0.108941 -0.0542424 0.0452202)
(0.091667 -0.0810897 0.03732)
(0.0756589 -0.0969385 0.0368353)
(0.0582633 -0.105677 0.043364)
(0.0385166 -0.109172 0.0577036)
(0.0232062 -0.109831 0.0696238)
(0.00369818 -0.0145896 0.0634324)
(0.031537 0.0295686 0.0717017)
(0.0654098 0.0104508 0.0565498)
(0.0787244 -0.0297024 0.0415371)
(0.0776802 -0.060623 0.0324447)
(0.0713868 -0.0815326 0.0285659)
(0.0631686 -0.0958104 0.0293375)
(0.0532372 -0.104997 0.0341029)
(0.0403307 -0.108706 0.0416974)
(0.0267992 -0.109232 0.0452784)
(0.00496273 -0.0375794 0.0364323)
(0.0227024 -0.010438 0.0395438)
(0.0420838 -0.0231186 0.0332662)
(0.0527241 -0.0470366 0.0262688)
(0.0555654 -0.0684807 0.0215971)
(0.0543799 -0.0858136 0.0199331)
(0.0508464 -0.099276 0.0214951)
(0.0455191 -0.109227 0.0258009)
(0.0370265 -0.114853 0.032374)
(0.0269415 -0.116724 0.0345859)
(0.00336325 -0.00506374 0.0138601)
(0.0103652 -0.0059273 0.0169809)
(0.0168991 -0.0051821 0.0184975)
(0.0217746 -0.00456558 0.0215931)
(0.0249004 -0.003986 0.0257074)
(0.0260582 -0.00333723 0.0304793)
(0.0247691 -0.0025778 0.0355788)
(0.0208913 -0.00179884 0.0408064)
(0.0144466 -0.00085988 0.0451159)
(0.0059517 -0.000379144 0.0465293)
(0.00313346 -0.0131264 0.0119864)
(0.00959643 -0.0149618 0.014544)
(0.0154557 -0.0128758 0.0162789)
(0.0197202 -0.0111146 0.0194966)
(0.022341 -0.00936721 0.023617)
(0.0231923 -0.00748652 0.0283772)
(0.0218427 -0.00568158 0.03356)
(0.0186277 -0.00418581 0.0388753)
(0.0134223 -0.0023838 0.0425455)
(0.00659796 -0.00124354 0.0440958)
(0.00390949 -0.0217518 0.0132494)
(0.0115767 -0.0244276 0.0161547)
(0.0183066 -0.0209973 0.0187458)
(0.0233175 -0.0180406 0.0231076)
(0.0264294 -0.0151667 0.0285151)
(0.0273398 -0.0121315 0.0345264)
(0.0257369 -0.00945087 0.0410382)
(0.0220231 -0.00740798 0.0468207)
(0.0150728 -0.00554026 0.0503631)
(0.00696595 -0.00129065 0.0528742)
(0.00478624 -0.0326944 0.0133645)
(0.013716 -0.0355344 0.0165223)
(0.0212614 -0.0307489 0.0205669)
(0.0269011 -0.0265569 0.0266892)
(0.0304249 -0.0224217 0.0341029)
(0.031378 -0.0180844 0.0423065)
(0.0295212 -0.0142124 0.0512848)
(0.0249927 -0.0113103 0.0587288)
(0.0160237 -0.00777551 0.0636241)
(0.00685156 0.00451076 0.0654434)
(0.00593395 -0.0449945 0.0123229)
(0.0168551 -0.047104 0.0161935)
(0.0256599 -0.0412001 0.0227691)
(0.032125 -0.0360169 0.0319196)
(0.0360871 -0.0307859 0.0427185)
(0.0369144 -0.0254333 0.0546035)
(0.0342047 -0.0207994 0.0672856)
(0.0279012 -0.0171637 0.0778916)
(0.015431 -0.0115819 0.0840808)
(0.00512308 0.00796482 0.0842494)
(0.0084157 -0.0600223 0.0107661)
(0.022605 -0.0610559 0.0161799)
(0.0329666 -0.0538152 0.0264466)
(0.0398151 -0.0470442 0.0396481)
(0.0432509 -0.0403141 0.0545684)
(0.0430289 -0.033501 0.0703489)
(0.0391003 -0.0271584 0.0858829)
(0.0307771 -0.0216523 0.0988035)
(0.0147566 -0.0131905 0.107336)
(0.00276728 0.00850815 0.109891)
(0.0142393 -0.0830563 0.00690223)
(0.0289061 -0.0793409 0.0150067)
(0.0373368 -0.0659182 0.0275464)
(0.042397 -0.0548823 0.0418588)
(0.0445011 -0.0463366 0.0591274)
(0.0454452 -0.0386393 0.0784591)
(0.0444732 -0.0319613 0.0968852)
(0.0353692 -0.027535 0.113326)
(0.0187634 -0.0174899 0.123563)
(0.00653363 -0.00294499 0.127919)
(0.0192069 -0.101152 -0.0148582)
(0.027384 -0.0848344 0.00146603)
(0.0297746 -0.072731 0.0140421)
(0.033916 -0.0653168 0.0317868)
(0.0411147 -0.0639669 0.0599891)
(0.0484746 -0.064791 0.0911273)
(0.0425497 -0.0648148 0.116122)
(0.0246104 -0.0643367 0.134648)
(0.00684554 -0.0623735 0.141878)
(-0.00268432 -0.0650052 0.143162)
(0.0018428 -0.0952681 -0.073882)
(0.0381387 -0.0763981 -0.0447311)
(0.0520408 -0.0787057 -0.00661235)
(0.0563633 -0.0796919 0.0651198)
(0.0572669 -0.0846078 0.108802)
(0.0228643 -0.0885566 0.125566)
(-0.0813145 -0.0214928 0.131523)
(-0.0881569 -0.0511388 0.0855252)
(-0.0955797 -0.0631566 0.104924)
(-0.0581546 -0.0767642 0.136235)
(-0.0715002 -0.118132 -0.131864)
(0.117583 -0.138597 -0.10803)
(0.0941367 -0.0268308 0.0702107)
(0.00639378 -0.04061 0.117783)
(-0.0974284 -0.0685474 -0.0725503)
(-0.22984 -0.011839 -0.213848)
(-0.25737 0.136859 -0.223389)
(-0.227972 0.0499973 -0.224461)
(-0.213414 -0.0860665 -0.230406)
(-0.155302 -0.121649 -0.208611)
(-0.234791 -0.230991 -0.0393405)
(-0.169909 -0.100047 -0.0456602)
(-0.421117 0.236443 -0.037407)
(-0.426134 0.110344 -0.317106)
(-0.449224 -0.0197491 -0.453322)
(-0.380095 -0.159515 -0.484521)
(-0.313551 -0.18387 -0.416753)
(-0.258674 -0.219484 -0.349486)
(-0.201322 -0.278228 -0.298189)
(-0.119996 -0.315291 -0.2505)
(-0.293749 -0.037512 -0.0719061)
(-0.496654 0.174178 -0.264947)
(-0.515825 0.147734 -0.391555)
(-0.432811 -0.0601168 -0.492977)
(-0.388515 -0.232692 -0.500197)
(-0.357599 -0.29362 -0.411008)
(-0.284336 -0.274937 -0.228958)
(-0.174597 -0.288803 -0.0923276)
(-0.0924808 -0.326865 -0.0422002)
(-0.0539135 -0.312074 -0.036554)
(-0.140675 0.265347 -0.0329851)
(-0.25902 0.203013 -0.0935401)
(-0.237623 0.0473684 -0.223382)
(-0.231106 -0.0906505 -0.294864)
(-0.265118 -0.155773 -0.329962)
(-0.229389 -0.216672 -0.249776)
(-0.0941015 -0.265437 -0.0468656)
(0.0264996 -0.317528 0.0886762)
(0.0369349 -0.319478 0.11327)
(-0.00845397 -0.2776 0.085919)
(0.0340867 0.168531 -0.0467342)
(0.114553 0.142826 -0.00317144)
(0.10342 0.0479285 0.02758)
(0.0509881 -0.080041 0.086348)
(-0.00108412 -0.121538 -0.010954)
(0.0158686 -0.199985 -0.0543621)
(0.0935312 -0.26899 0.0383288)
(0.112326 -0.315742 0.089056)
(0.07302 -0.295746 0.0861977)
(0.0288731 -0.252014 0.0644272)
(0.0691535 -0.0435599 0.0324179)
(0.174529 0.021924 0.096193)
(0.186786 0.0161847 0.159018)
(0.179862 -0.0867264 0.179566)
(0.169399 -0.113509 0.158187)
(0.16588 -0.139756 0.137509)
(0.144035 -0.194923 0.115616)
(0.0931981 -0.23118 0.0968387)
(0.0467771 -0.221943 0.089258)
(0.0236034 -0.198112 0.0911269)
(0.0284352 -0.0798961 0.147024)
(0.124714 0.0211881 0.242108)
(0.176351 0.0131704 0.239749)
(0.183032 -0.0614803 0.171675)
(0.158625 -0.102831 0.111717)
(0.135298 -0.126569 0.0869133)
(0.107465 -0.151431 0.0758571)
(0.0711324 -0.167492 0.0769058)
(0.0415658 -0.166264 0.0918193)
(0.0247305 -0.15477 0.107312)
(-0.00307327 -0.0756633 0.149283)
(0.0659959 0.00250818 0.229237)
(0.1239 -0.00182386 0.192482)
(0.136567 -0.047562 0.123947)
(0.122216 -0.0835496 0.0781214)
(0.104932 -0.10493 0.0590348)
(0.0882167 -0.120449 0.053696)
(0.0679056 -0.128861 0.0609988)
(0.0432602 -0.128233 0.0788767)
(0.0251992 -0.124246 0.0936012)
(-0.000648257 -0.0525987 0.101318)
(0.0324755 0.00104118 0.136678)
(0.0739503 -0.00668542 0.111771)
(0.0906757 -0.043916 0.0772767)
(0.0903545 -0.0750067 0.0560521)
(0.0843283 -0.0950128 0.0462187)
(0.076893 -0.108559 0.0454485)
(0.0665094 -0.115973 0.0530742)
(0.0480836 -0.115011 0.0682686)
(0.0292651 -0.111787 0.0760703)
(0.0035609 -0.05328 0.0639176)
(0.0240072 -0.019484 0.0770352)
(0.0500952 -0.0300106 0.0654993)
(0.0645991 -0.0553164 0.0507274)
(0.0690386 -0.0778111 0.0405214)
(0.0688734 -0.0950175 0.0363978)
(0.0664106 -0.108372 0.0388017)
(0.061233 -0.118047 0.0469839)
(0.0470139 -0.121649 0.0614449)
(0.0300947 -0.119803 0.065625)
(0.00400929 -0.0617932 0.039608)
(0.0184626 -0.0380344 0.0452264)
(0.0348931 -0.0468946 0.0394289)
(0.0458147 -0.0653736 0.031934)
(0.0514534 -0.0833959 0.0268068)
(0.05411 -0.0995225 0.0256838)
(0.0544792 -0.113602 0.0292347)
(0.0526225 -0.125719 0.0363948)
(0.0422575 -0.133043 0.0491052)
(0.0294776 -0.131001 0.0506154)
(0.00381822 -0.00481573 0.0154276)
(0.0120668 -0.00588832 0.019453)
(0.0199863 -0.00491897 0.02111)
(0.0258838 -0.00398888 0.0246721)
(0.0297641 -0.00307582 0.0295236)
(0.0313703 -0.00200748 0.0350753)
(0.0303277 -0.000677982 0.0412848)
(0.0260436 0.000957047 0.0470377)
(0.0178728 0.00238149 0.0511001)
(0.00769264 0.00433731 0.0549128)
(0.00361267 -0.0125138 0.013256)
(0.0113639 -0.0148756 0.0165035)
(0.0185955 -0.0120582 0.0183591)
(0.023835 -0.00936853 0.0220608)
(0.0271637 -0.00673554 0.0268682)
(0.0284695 -0.00404846 0.0324052)
(0.027358 -0.00135122 0.0388211)
(0.0231689 0.0016295 0.0442968)
(0.01518 0.0047035 0.0495127)
(0.00610433 0.0098365 0.0522984)
(0.00463666 -0.0210529 0.0146893)
(0.0140535 -0.0246006 0.0183527)
(0.0225265 -0.0197834 0.0211712)
(0.028723 -0.0151643 0.0261671)
(0.0324996 -0.0106536 0.0322207)
(0.0338942 -0.0061543 0.0393823)
(0.0318543 -0.00193335 0.0466989)
(0.0262413 0.00218094 0.0540857)
(0.0154519 0.00824061 0.0599666)
(0.00441807 0.0204118 0.0546282)
(0.00587002 -0.0324607 0.0147748)
(0.0173049 -0.0363743 0.018664)
(0.0271325 -0.029249 0.0231481)
(0.0343208 -0.0224145 0.0301637)
(0.0387493 -0.0155948 0.0384662)
(0.040463 -0.00849799 0.0485215)
(0.0376106 -0.00209591 0.0586229)
(0.0304981 0.00481527 0.0693876)
(0.0164022 0.0179083 0.0754564)
(0.00466563 0.0382022 0.0646241)
(0.00772226 -0.0461054 0.0136503)
(0.0225776 -0.049376 0.0181637)
(0.0344811 -0.0398458 0.0255301)
(0.0429325 -0.0307761 0.0358589)
(0.0481761 -0.0216144 0.0479614)
(0.0499162 -0.0121369 0.0625419)
(0.0458643 -0.00411761 0.0771381)
(0.0358313 0.00503563 0.0924138)
(0.0166364 0.0231571 0.100297)
(0.00399725 0.0451049 0.0861642)
(0.0120194 -0.0652563 0.0120258)
(0.0316208 -0.066866 0.0181739)
(0.0457008 -0.052936 0.029185)
(0.0546758 -0.0402282 0.043323)
(0.0591634 -0.0280319 0.0596606)
(0.0595936 -0.0151467 0.07765)
(0.0544959 -0.002353 0.0961853)
(0.0416521 0.0147444 0.115908)
(0.0198191 0.0380343 0.125471)
(0.00624458 0.0600127 0.11391)
(0.02067 -0.096005 0.00564097)
(0.04013 -0.0895164 0.0171832)
(0.0526679 -0.0654426 0.0301995)
(0.0593057 -0.0460761 0.0446072)
(0.0622491 -0.0309451 0.0630283)
(0.0658508 -0.0182787 0.0858233)
(0.0677562 -0.00630467 0.114702)
(0.0541067 0.00966257 0.144949)
(0.0313512 0.0267813 0.162733)
(0.0123933 0.0436457 0.170123)
(0.0232466 -0.121019 -0.0271454)
(0.0423129 -0.0985179 0.000367652)
(0.0522836 -0.0761669 0.0173489)
(0.0615452 -0.0640122 0.0381325)
(0.0753293 -0.05957 0.0715426)
(0.0772686 -0.0542587 0.110044)
(0.0627119 -0.0469474 0.144682)
(0.0405412 -0.0400288 0.181451)
(0.0160681 -0.0372004 0.212423)
(-0.0189447 -0.0260478 0.231624)
(-0.012381 -0.126596 -0.0879097)
(0.0585102 -0.11149 -0.0528815)
(0.0803392 -0.0961261 -0.0110764)
(0.1098 -0.0844278 0.0713894)
(0.12938 -0.0714215 0.165612)
(0.0379695 -0.000107236 0.197602)
(-0.092915 -0.00674199 0.158848)
(-0.116578 -0.0424526 0.113264)
(-0.151905 -0.0380328 0.0619752)
(-0.169074 -0.0130332 0.0279828)
(-0.11476 -0.178118 -0.0673615)
(0.0474875 -0.209059 -0.0914407)
(-0.0180515 -0.118264 -0.0282584)
(-0.0731732 -0.0556507 0.087094)