/*--------------------------------*- C++ -*----------------------------------*\
| =========                 |                                                 |
| \\      /  F ield         | OpenFOAM: The Open Source CFD Toolbox           |
|  \\    /   O peration     | Version:  2312                                  |
|   \\  /    A nd           | Website:  www.openfoam.com                      |
|    \\/     M anipulation  |                                                 |
\*---------------------------------------------------------------------------*/
FoamFile
{
    version     2.0;
    format      ascii;
    arch        "LSB;label=32;scalar=64";
    class       volScalarField;
    location    "0.735";
    object      alpha.water;
}
// * * * * * * * * * * * * * * * * * * * * * * * * * * * * * * * * * * * * * //

dimensions      [0 0 0 0 0 0 0];

internalField   nonuniform List<scalar> 
8000
(
1
1
1
1
1
1
1
1
1
1
1
1
1
1
1
1
1
1
1
1
1
1
1
1
1
1
1
1
1
1
1
1
1
1
1
1
1
1
1
1
1
1
1
1
1
1
1
1
1
1
0.999996
0.999999
1
1
1
1
1
1
0.999938
0.998141
0.966696
0.983911
0.997822
0.999999
0.999705
1
1
1
0.998742
0.989634
0.431135
0.46366
0.563971
0.69862
0.78993
0.871127
0.956729
0.997961
0.997529
0.992752
0.0526934
0.0503446
0.0660133
0.119714
0.253985
0.482758
0.775835
0.986777
0.997776
0.996792
0.000469505
0.000571345
0.000723773
0.00130331
0.00246245
0.0763937
0.311858
0.826517
0.99756
0.996797
8.50199e-05
0.000127153
0.000218838
0.000343213
0.000650669
0.00123258
0.040012
0.462476
0.949051
0.970455
2.11586e-05
3.71957e-05
3.75153e-05
6.18036e-05
0.000142488
0.000350711
0.000667484
0.0736089
0.641441
0.894974
7.24636e-06
7.66298e-06
1.34829e-05
9.53481e-06
1.54846e-05
4.20839e-05
0.000115318
0.000297815
0.131638
0.783737
1.22425e-06
1.17824e-06
3.00405e-06
3.85758e-06
4.84033e-06
6.3712e-06
1.11237e-05
5.40563e-05
0.0105673
0.277534
3.41676e-07
3.09156e-07
1.09101e-06
1.78975e-05
5.23315e-05
2.8602e-06
3.04855e-06
8.02283e-06
8.89996e-06
0.00101594
2.27833e-07
2.23776e-07
7.38626e-06
6.94939e-05
6.74984e-05
3.56276e-06
2.51666e-06
3.46948e-06
5.21742e-06
0.000192959
2.18977e-07
2.18817e-07
1.70935e-05
6.94939e-05
6.03821e-05
2.69433e-06
3.22414e-06
4.54801e-06
7.1215e-06
4.63113e-05
2.18789e-07
2.18977e-07
1.56562e-05
5.28346e-05
1.14206e-05
3.38985e-06
4.17863e-06
5.32334e-06
7.64373e-06
1.50783e-05
4.94753e-06
1.52921e-05
2.06539e-05
8.12527e-06
5.52254e-06
4.17822e-06
4.72894e-06
1.11612e-05
9.6249e-06
1.0986e-05
1.9044e-05
1.3897e-05
2.17331e-05
9.2222e-06
7.6154e-06
5.39398e-06
5.46575e-06
1.6767e-05
9.23594e-06
1.00216e-05
1
1
1
1
1
1
1
1
1
1
1
1
1
1
1
1
1
1
1
1
1
1
1
1
1
1
1
1
1
1
1
1
1
1
1
1
1
1
1
1
1
1
1
1
1
1
1
1
0.999975
1
1
1
1
1
1
1
1
0.999904
0.998269
0.999838
0.980948
0.992831
1
1
1
1
1
0.999994
0.999565
0.999793
0.449379
0.497095
0.634896
0.832744
0.978474
1
1
0.999997
0.999979
0.998894
0.00381453
0.0152876
0.0497012
0.146298
0.338901
0.623949
0.861309
0.999986
0.999963
0.99781
1.5481e-05
1.61817e-05
1.66744e-05
0.0003288
0.000791878
0.0363676
0.176427
0.477896
0.838027
0.894148
1.59837e-05
2.25363e-05
1.53182e-05
4.88647e-05
0.000102574
0.000273591
0.000668895
0.0162376
0.23191
0.564105
1.17368e-05
2.03112e-05
9.38299e-06
6.95207e-06
1.60805e-05
3.76138e-05
8.43633e-05
0.000297999
0.00377401
0.120546
6.72984e-06
1.22319e-05
1.06173e-05
1.91037e-06
3.05904e-06
6.81814e-06
1.09042e-05
4.26526e-05
3.19065e-05
0.0149708
2.42019e-06
1.10593e-06
3.31463e-06
1.44487e-06
2.60188e-06
2.48883e-06
2.74527e-06
7.17109e-06
9.32857e-06
0.0115062
3.63551e-07
3.63551e-07
5.5434e-07
4.40633e-06
5.47368e-06
2.36431e-06
2.32088e-06
3.04865e-06
4.90063e-06
0.00613223
3.00698e-07
2.95484e-07
3.63551e-07
6.63978e-05
1.81138e-05
2.47915e-06
2.42958e-06
2.51666e-06
4.12903e-06
0.000213163
6.58456e-07
2.23776e-07
2.10467e-06
6.94939e-05
4.96215e-05
2.52862e-06
2.51666e-06
5.22046e-06
5.08159e-06
6.33944e-06
2.44518e-05
7.78493e-06
2.21992e-06
6.58524e-05
5.51406e-05
2.77873e-06
3.31669e-06
5.21622e-05
1.33004e-05
1.17617e-05
2.64653e-05
2.58458e-05
1.47687e-05
2.01445e-05
3.30357e-05
1.61243e-05
7.65363e-06
5.48532e-05
2.59542e-05
2.0549e-05
1.44279e-05
1.00411e-05
1.81265e-05
7.87035e-06
3.48177e-05
3.73876e-05
1.17143e-05
5.48801e-05
4.79956e-05
3.79952e-05
1
1
1
1
1
1
1
1
1
1
1
1
1
1
1
1
1
1
1
1
1
1
1
1
1
1
1
1
1
1
1
1
1
1
1
1
1
1
1
1
1
1
1
1
1
1
1
1
1
1
1
1
1
1
1
1
1
0.999994
0.999912
1
1
1
1
1
1
1
1
1
1
1
0.666168
0.723671
0.791168
0.874674
0.969308
1
1
1
0.999999
0.939659
0.0173496
0.0848285
0.179152
0.286396
0.417772
0.612028
0.739867
0.856404
0.931381
0.825443
1.43569e-05
1.54888e-05
1.41324e-05
1.32305e-05
0.000690987
0.016917
0.0512603
0.127831
0.233118
0.360619
1.66276e-05
2.001e-05
1.31898e-05
6.07847e-06
1.47091e-05
8.97324e-05
0.000208118
0.00054291
0.00101123
0.0154992
4.37599e-06
1.70261e-06
2.33122e-06
1.82751e-06
3.01756e-06
6.53482e-06
1.47743e-05
5.21105e-05
0.00013381
0.00101126
5.17362e-06
1.10348e-06
1.02038e-06
1.59168e-06
1.88294e-06
2.31372e-06
2.58946e-06
5.46062e-06
2.04816e-05
0.000224503
6.22644e-07
6.11267e-07
6.85148e-07
1.02038e-06
1.81192e-06
2.20984e-06
2.31714e-06
2.76925e-06
7.42139e-06
0.000128285
4.67312e-07
5.53905e-07
5.92152e-07
7.31307e-06
1.18347e-05
2.30524e-06
2.29342e-06
2.32104e-06
4.6852e-06
3.54524e-05
8.57998e-06
7.93161e-07
4.9571e-07
2.19681e-05
2.30088e-05
2.84209e-06
2.32108e-06
7.64593e-06
7.13553e-06
1.535e-05
2.39549e-05
7.33995e-06
6.26517e-07
2.9409e-05
2.10047e-05
3.08157e-06
1.20855e-05
4.40047e-05
3.39579e-05
7.80121e-05
2.75259e-05
1.81854e-05
1.43215e-06
2.13026e-05
1.84645e-05
9.43489e-05
7.84455e-05
8.53636e-05
9.8951e-05
0.000105886
1.56964e-05
1.95637e-05
6.80303e-06
8.1981e-06
2.76043e-05
0.000189167
0.000123674
5.08086e-05
6.98775e-05
3.71713e-05
5.22481e-07
3.25559e-06
5.35924e-06
5.2814e-06
9.25657e-05
0.00021634
8.91251e-05
4.82157e-06
1.8909e-06
4.07072e-06
1
1
1
1
1
1
1
1
1
1
1
1
1
1
1
1
1
1
1
1
1
1
1
1
1
1
1
1
1
1
0.999999
1
1
1
1
1
1
1
1
1
0.999984
1
1
1
1
1
1
1
1
1
1
1
1
1
1
1
1
1
1
1
1
1
1
1
1
1
1
1
1
1
0.815028
0.835019
0.848899
0.864556
0.902154
0.964557
1
1
0.999999
0.849237
0.0872191
0.208095
0.310834
0.373851
0.429834
0.461677
0.526982
0.623437
0.599302
0.568882
1.28634e-05
1.43573e-05
1.59204e-05
1.73567e-05
9.0652e-05
0.00110952
0.00276799
0.0134412
0.0170711
0.0620599
3.37862e-05
5.73542e-05
5.60027e-05
2.56594e-05
6.80306e-06
8.62225e-06
1.90122e-05
5.18131e-05
0.000133782
0.00131487
5.93222e-06
3.17899e-05
7.91187e-05
4.73529e-05
5.26857e-06
2.43924e-06
2.69065e-06
5.42247e-06
2.04762e-05
0.000133621
5.89842e-07
2.28322e-05
8.44511e-05
3.81206e-05
2.44685e-06
2.30511e-06
2.44965e-06
2.75384e-06
5.46372e-06
2.04638e-05
4.34513e-07
2.69843e-05
4.89074e-05
2.22519e-05
2.41744e-06
2.26576e-06
2.30324e-06
7.849e-06
8.54665e-06
1.1894e-05
9.49815e-06
3.23052e-05
1.2676e-05
4.0224e-06
2.52785e-06
2.26576e-06
2.26568e-06
2.10285e-05
6.02025e-05
1.82601e-05
3.30628e-05
3.20896e-05
4.84784e-06
3.51874e-06
3.47772e-06
2.26576e-06
2.32129e-06
3.10187e-05
6.04713e-05
4.23043e-05
3.3521e-05
2.83708e-05
3.69088e-06
2.99102e-06
3.45454e-06
2.33076e-05
3.59116e-05
4.54575e-05
6.05631e-05
2.98743e-05
1.84245e-06
2.81791e-06
2.05717e-06
2.24913e-06
2.02744e-05
0.000207022
0.00017846
5.80707e-06
4.5482e-05
8.49337e-06
1.18131e-07
9.91218e-07
1.3245e-06
1.84424e-06
7.7023e-05
0.00021348
0.000171819
2.09339e-06
2.76402e-06
1.89381e-07
2.12109e-08
1.12034e-07
3.34873e-07
3.31067e-06
0.000137136
0.000228526
0.000116992
1.44122e-06
1.75208e-07
1.58705e-06
1
1
1
1
1
1
1
1
1
1
1
1
1
1
1
1
1
1
1
1
1
1
1
1
1
1
1
1
1
1
1
1
1
1
1
1
1
1
1
1
0.999759
0.99998
1
1
1
1
1
1
1
1
0.993442
0.999408
1
1
1
1
1
1
1
1
0.999998
1
1
0.999998
1
1
1
1
1
0.994463
0.824945
0.802581
0.82901
0.851979
0.855254
0.897453
0.95961
1
0.985095
0.748222
0.172984
0.280362
0.349377
0.339772
0.281083
0.250339
0.295358
0.360378
0.29109
0.345183
1.1333e-05
1.28634e-05
1.54352e-05
1.93273e-05
2.30108e-05
2.58768e-05
2.85016e-05
5.77467e-05
0.00019303
0.00547053
3.2013e-05
6.77961e-05
6.75899e-05
2.55852e-05
3.0302e-05
0.000128279
8.24429e-05
2.87487e-05
3.18839e-05
0.00019185
0.000111916
0.000122083
0.000121986
0.000107334
1.34633e-05
1.39605e-05
0.000107892
0.000101171
2.57911e-05
4.29142e-05
3.91069e-06
0.000114979
0.000122245
9.91503e-05
7.68714e-06
6.82935e-06
5.90974e-06
9.90981e-06
2.33739e-05
2.83632e-05
3.50426e-07
3.24479e-05
0.000120497
0.000110688
1.49893e-05
2.30517e-06
4.78513e-06
2.03894e-05
6.34267e-05
2.267e-05
4.34513e-07
1.06299e-05
0.000104891
5.62073e-05
3.06783e-06
2.26576e-06
2.32492e-06
3.51362e-05
6.34187e-05
1.15709e-05
2.46222e-06
1.8293e-05
2.22343e-05
1.21925e-05
2.61686e-06
2.32129e-06
2.61683e-06
1.32532e-05
5.82767e-05
1.29091e-06
6.1445e-05
2.31153e-05
2.80596e-06
3.37222e-06
3.49583e-06
2.74151e-05
3.08523e-05
6.75138e-06
5.41061e-06
3.31043e-07
0.000109438
1.64058e-05
1.74388e-06
2.76142e-06
1.93793e-05
8.83131e-05
9.54898e-05
5.52776e-06
2.0419e-07
1.71903e-07
6.59479e-05
2.32838e-06
1.40648e-06
2.15853e-06
3.36936e-05
6.51805e-05
0.000109672
2.34887e-05
1.71903e-07
1.54528e-07
2.65676e-05
3.34873e-07
1.05615e-06
1.97776e-06
3.29913e-06
1.6528e-05
9.48388e-05
9.1323e-06
1.54528e-07
1.40411e-07
1
1
1
1
1
1
1
1
1
1
1
1
1
1
1
1
1
1
1
1
1
1
1
1
1
1
1
1
1
1
1
1
1
1
1
1
1
1
1
1
0.999996
0.99978
0.99999
1
1
1
1
1
1
1
0.975977
0.996477
0.999998
1
1
1
1
1
1
1
0.9866
0.999994
0.99998
0.999988
0.999987
0.999998
1
1
1
0.998327
0.790441
0.76686
0.825942
0.899212
0.880822
0.915605
0.952994
0.971048
0.914428
0.645141
0.217808
0.256323
0.210363
0.116964
0.0532297
0.0488644
0.0940385
0.168242
0.134658
0.196409
1.02708e-05
1.22788e-05
1.71574e-05
2.2467e-05
2.36723e-05
2.84167e-05
3.23023e-05
2.45618e-05
2.49998e-05
0.000191621
2.262e-05
3.7214e-05
5.6119e-05
2.53843e-05
1.84763e-05
0.000132314
0.000103218
2.55583e-05
2.18101e-05
3.28766e-05
0.000116251
0.000121986
0.000122165
0.00010451
1.45342e-05
0.000152333
0.000211752
0.000209906
6.16418e-05
3.57468e-05
2.44172e-05
7.30884e-05
0.000121986
0.000119144
1.61189e-05
1.04454e-05
1.21589e-05
1.60094e-05
2.42022e-05
2.97935e-05
3.06125e-07
5.006e-07
0.000109439
0.000109859
8.81431e-06
2.60705e-06
1.09391e-05
1.30052e-05
6.29461e-05
9.91118e-06
4.93634e-07
1.38125e-06
8.05028e-05
7.71251e-05
6.96701e-06
3.67351e-06
2.3939e-05
7.91005e-06
4.29092e-05
2.40277e-05
3.77232e-05
2.59371e-05
5.41262e-05
3.94617e-05
3.42032e-06
4.66959e-06
5.43049e-06
5.79747e-06
1.70829e-06
2.94042e-05
0.000112101
0.000101647
9.35773e-06
1.13586e-05
3.46081e-06
5.82848e-06
2.43101e-05
3.07943e-05
3.60745e-07
5.55305e-06
0.00011324
4.61673e-05
2.98782e-06
3.14375e-06
3.62054e-06
3.73441e-05
4.90292e-05
5.10774e-05
3.24052e-07
2.52497e-07
0.000106015
7.08613e-06
2.0429e-06
2.74932e-06
1.90642e-05
0.000213666
6.39575e-05
3.82959e-05
2.0419e-07
1.46043e-07
5.82288e-05
2.05735e-06
1.40648e-06
1.31028e-05
0.000164106
0.000262761
5.17404e-05
7.13662e-06
1.99217e-07
9.97717e-08
1
1
1
1
1
1
1
1
1
1
1
1
0.999999
0.999999
1
1
1
1
1
1
1
1
0.999978
0.999999
1
1
1
1
1
1
0.999994
0.999998
0.999997
0.999998
1
1
1
1
1
1
0.99998
0.999999
0.999999
1
1
1
1
1
1
1
0.999594
0.999998
0.999999
0.999999
1
1
1
1
0.999998
0.999999
0.980994
0.999962
0.999967
0.999956
0.999667
0.999985
0.999998
1
0.999996
0.994721
0.836919
0.854719
0.884987
0.818487
0.599227
0.675116
0.848507
0.942415
0.877645
0.600663
0.186759
0.114443
0.0453013
7.38806e-05
0.000103316
5.29447e-05
3.4632e-05
0.0284731
0.0338026
0.116553
8.8327e-06
1.41844e-05
2.39873e-05
3.25316e-05
8.82812e-05
4.53414e-05
2.37354e-05
1.30302e-05
1.03535e-05
0.000274413
3.32196e-05
5.12235e-05
4.17624e-05
3.1786e-05
0.000152588
0.000128598
3.19199e-05
7.58443e-06
6.68132e-06
2.48457e-05
2.22969e-05
2.15962e-05
7.0611e-05
3.68442e-05
3.83228e-05
0.000188024
0.000195095
2.67095e-05
6.49883e-06
8.1092e-06
1.00877e-05
3.13389e-06
5.61059e-05
5.02257e-05
1.07329e-05
2.63887e-05
4.0478e-06
1.59249e-05
1.14382e-05
5.39644e-06
4.80346e-07
1.01506e-06
2.47072e-05
2.69241e-05
3.02647e-06
2.86094e-06
2.91504e-06
1.38072e-05
5.10043e-05
4.79423e-06
4.38166e-06
2.47383e-06
1.07814e-05
2.14252e-05
3.3678e-06
2.91504e-06
9.10718e-05
2.83416e-05
7.40254e-05
8.05868e-05
7.91854e-05
5.99893e-05
1.70824e-05
1.96925e-05
3.50016e-06
1.55756e-05
0.000251021
4.57779e-05
1.9865e-05
9.32416e-05
0.000109341
0.000103862
3.91612e-05
6.60432e-06
3.62559e-06
0.000130491
0.000402148
3.19539e-05
2.16952e-06
4.44804e-05
0.000112101
9.67483e-05
2.13962e-05
3.70987e-06
3.31898e-05
0.000495922
0.000430487
3.509e-06
5.71549e-07
2.51585e-06
5.12535e-05
8.01078e-05
2.45177e-06
1.10046e-05
0.000595251
0.000935801
0.000439649
1.53861e-06
1.25274e-06
2.66335e-06
3.24902e-05
2.31382e-05
2.22586e-06
0.000185029
0.000996876
0.000991031
0.000449872
1.90195e-06
1.39135e-06
2.27572e-06
1
1
1
1
1
1
1
1
1
1
1
0.999988
0.999966
1
1
1
1
1
1
1
0.999997
0.999965
0.999957
0.999989
1
0.999993
1
1
1
1
0.999952
1
0.999979
1
1
1
1
1
1
1
0.999888
0.997513
0.999995
1
1
1
1
1
1
1
0.995459
0.99272
0.998589
0.999998
0.999999
1
1
1
1
0.999998
0.993582
0.997322
0.99282
0.988733
0.96247
0.979507
0.992833
0.998369
0.999971
0.994957
0.872365
0.872511
0.821384
0.439423
0.174174
0.177243
0.252099
0.515854
0.723824
0.589024
0.10958
0.0306456
0.000114318
0.000107098
0.000136587
8.50036e-05
2.19311e-05
1.33035e-05
1.09714e-05
0.0904385
1.17354e-05
2.39186e-05
9.97415e-05
0.00046823
0.000486841
0.000138155
8.69893e-06
7.51191e-06
6.70506e-06
1.03014e-05
3.85223e-05
8.23236e-05
0.000148674
0.000417521
0.000244301
6.05679e-05
7.51431e-06
6.71109e-06
6.45464e-06
6.44656e-06
7.4485e-06
2.83762e-06
3.61421e-06
4.96972e-06
1.66107e-05
4.07631e-05
9.07847e-06
1.77591e-05
6.28447e-06
5.39142e-06
2.11124e-06
2.35967e-06
3.29468e-06
4.59231e-06
4.35506e-06
8.35349e-06
5.12466e-06
3.0953e-05
6.69637e-05
4.79423e-06
1.01506e-06
1.6333e-06
1.41296e-05
2.86383e-05
3.38822e-06
3.80969e-05
1.3878e-05
2.00313e-05
6.82751e-05
4.78233e-06
4.15136e-05
9.34194e-06
4.68587e-06
5.2223e-06
5.46314e-06
0.000219687
0.000398554
6.40808e-05
5.77873e-05
5.61265e-05
9.99971e-05
2.43668e-05
5.22098e-06
4.88182e-06
3.62559e-06
0.00034688
0.000765251
9.27622e-05
1.83367e-05
9.32966e-05
0.000105174
1.86367e-05
5.66188e-06
4.91732e-06
3.64329e-06
0.000406116
0.000765251
2.52063e-05
3.70368e-06
7.334e-05
3.23364e-05
1.83155e-05
7.52322e-06
1.73151e-05
0.000444995
0.000799837
0.000787826
1.59556e-06
9.19445e-07
1.7627e-05
7.25698e-06
1.52617e-05
8.14143e-06
0.000618473
0.00109513
0.00104218
0.000896941
3.35898e-06
1.37343e-06
1.90783e-05
9.6748e-07
2.44508e-06
0.000162932
0.00109511
0.00112849
0.00109278
0.000688035
8.36436e-05
3.33913e-06
1.11392e-05
1
1
1
1
1
1
1
1
1
1
1
0.999995
0.999989
1
1
1
1
1
1
1
1
0.999959
0.999957
0.999983
0.999998
0.999825
0.999988
1
1
1
1
1
0.999992
1
0.999891
0.998653
0.999927
1
1
1
1
0.99947
0.999698
1
0.999999
1
1
1
1
1
0.999899
0.987867
0.969972
0.98825
0.996952
1
1
1
0.999999
0.999994
0.999563
0.976062
0.95201
0.917222
0.852885
0.733223
0.916464
0.976769
0.991577
0.994826
0.872571
0.883489
0.610248
0.21952
0.092373
0.0417301
0.0556398
0.137993
0.391247
0.550767
0.0495017
0.0049562
8.90747e-05
9.80826e-05
0.000122799
0.00018187
6.90333e-05
3.10425e-05
1.7627e-05
0.0812637
2.23364e-05
5.0651e-05
0.00045723
0.000457483
0.000475121
0.000160149
2.13596e-05
1.06433e-05
8.47117e-06
1.21175e-05
4.63936e-05
0.000118926
0.000301256
0.000770217
0.000856363
0.000793092
2.10051e-05
9.00692e-06
6.70787e-06
7.05897e-06
2.02883e-05
2.96656e-06
3.42348e-06
3.65954e-05
0.000874021
0.000873813
1.21006e-05
1.30377e-05
1.03239e-05
6.08637e-06
2.96656e-06
2.83762e-06
2.96656e-06
3.30948e-05
0.000862189
0.000873813
1.20043e-05
1.94294e-05
6.78629e-05
5.70432e-06
2.81142e-06
2.61873e-06
2.98962e-06
1.79568e-05
0.000356209
0.000863468
0.000129905
1.27805e-05
6.82178e-05
4.65146e-06
3.30747e-05
2.98963e-06
3.55545e-06
5.66697e-06
0.00010206
0.000652707
0.000661978
1.24475e-05
2.57494e-05
7.04377e-06
4.95067e-05
3.55546e-06
1.03342e-05
5.71878e-05
4.15077e-05
0.000138554
0.000765082
1.13886e-05
1.94819e-05
9.22551e-05
2.31795e-05
5.41543e-06
0.000118802
0.000711435
0.00022366
0.000171486
0.000765306
1.09628e-05
6.04124e-06
6.47265e-05
3.43302e-06
5.81253e-06
0.000257012
0.00113482
0.000440489
0.000187948
0.000757653
1.09284e-05
7.39564e-06
2.54616e-05
1.04506e-06
2.66134e-06
0.000288712
0.00103767
0.000768549
0.000212259
0.000601383
0.000219998
3.56399e-05
2.12647e-05
7.59487e-07
1.87988e-05
0.000259938
0.000314893
0.00115833
0.000302398
0.000180635
0.000905552
6.85202e-05
8.32412e-06
0.985384
0.999884
1
1
1
1
1
1
1
1
0.991035
0.999975
1
1
1
1
1
1
1
1
0.98252
0.999374
1
0.999996
1
1
0.999789
0.999998
1
1
0.978625
0.9984
0.999999
1
1
0.992276
0.997971
1
1
1
0.978754
0.998882
0.999999
0.999999
0.990315
0.976702
0.999704
1
1
1
0.988974
0.998976
0.996533
0.960889
0.971103
0.999994
1
1
0.999999
0.999991
0.999211
0.999283
0.98431
0.954112
0.829027
0.663122
0.669012
0.948187
0.97348
0.992097
0.875028
0.797798
0.431509
0.231472
0.143641
0.0511925
0.04295
0.0725865
0.222415
0.527077
0.0136383
8.90743e-05
7.07862e-05
8.82586e-05
9.74128e-05
0.000206322
0.000178337
0.000123869
5.53818e-05
0.0739233
4.71064e-05
0.000429539
0.000453246
7.43855e-05
8.97674e-05
0.000214364
7.46824e-05
1.55723e-05
2.13257e-05
3.26916e-05
0.000273099
0.000444639
0.000199772
5.46241e-05
0.000368688
0.000770885
6.60548e-05
1.01736e-05
3.68514e-05
1.36162e-05
0.00019648
0.000369379
7.85881e-06
5.52472e-05
0.000488314
0.000874021
1.75392e-05
2.85902e-05
3.90406e-05
1.17601e-05
3.59519e-06
3.89117e-05
4.77965e-06
3.20409e-05
0.000102417
0.000862996
8.74902e-05
3.3771e-05
1.13816e-05
5.2357e-06
4.28187e-06
2.98962e-06
0.000129493
0.000261819
0.000119321
0.000285106
0.000613315
7.25317e-06
8.49368e-06
4.33974e-06
6.56183e-06
0.000120274
0.000915542
0.00108809
0.000129389
0.000180554
0.000749884
6.00794e-06
1.3093e-05
4.42961e-06
4.71128e-06
0.000303657
0.00110314
0.00112496
0.000414564
0.000217325
0.000761585
1.02513e-05
2.1147e-05
8.10727e-05
3.63043e-06
0.000332015
0.00112498
0.00113482
0.00092646
0.000314736
0.000753845
1.64147e-05
2.34207e-05
2.33365e-05
1.81524e-06
0.000215542
0.00113999
0.00114053
0.00115229
0.000224755
0.000729311
2.40596e-05
0.000151112
1.2306e-05
1.06005e-06
6.05366e-05
0.00109293
0.00115229
0.00115833
0.00025592
0.0002218
0.000510285
0.00023508
1.49897e-05
9.84819e-07
1.91855e-06
0.000354759
0.00115833
0.00116872
0.00052378
0.000112196
0.000895758
0.000259098
8.02794e-06
0.979168
0.998345
1
1
1
1
1
1
1
1
0.98032
0.999894
1
1
1
1
1
0.999999
1
1
0.980296
0.999767
1
1
1
1
0.999691
0.999995
1
1
0.978567
0.9995
0.999569
0.999644
1
0.997285
0.99728
1
1
1
0.978567
0.99847
0.994696
0.999788
0.996697
0.973964
0.995876
1
1
1
0.991201
0.99918
0.999099
0.987228
0.99576
0.99993
1
1
1
0.999993
0.99923
0.999283
0.996253
0.962307
0.797854
0.726858
0.732275
0.841915
0.990676
0.994928
0.823967
0.627442
0.331159
0.154356
0.0901115
0.0681017
0.0772925
0.122995
0.232323
0.557245
0.000110451
0.00485725
5.95727e-05
6.88138e-05
9.1186e-05
0.000163131
0.000352754
0.000365985
0.000407841
0.08733
0.00012216
0.000165905
0.000210377
5.66253e-05
7.7125e-05
0.000103826
2.51552e-05
6.00509e-05
5.00784e-05
3.40567e-05
0.000110161
0.0001199
3.87075e-05
5.31297e-05
5.93223e-05
9.27122e-05
2.42581e-05
7.3333e-05
0.000142607
2.86243e-05
0.000396508
0.000396508
3.38385e-05
4.11565e-05
0.000131265
0.000362898
1.60223e-05
9.99803e-05
0.000189042
3.05354e-05
0.000142879
0.000398204
4.84566e-05
5.69381e-05
0.000540595
0.000591429
5.85302e-06
4.28839e-06
1.37421e-05
2.28665e-05
0.000103797
0.00027954
4.7902e-05
7.63411e-05
0.000538549
0.00060786
9.74751e-05
4.07652e-06
3.88718e-06
4.16446e-06
3.08255e-05
1.25292e-05
3.04379e-05
7.52454e-05
0.000152257
0.000616025
0.000452216
4.09904e-06
3.82661e-06
4.09821e-06
3.05671e-06
7.90039e-05
0.000281305
0.000163552
0.000151977
0.000513048
0.00074368
4.47123e-06
4.00113e-06
1.36757e-05
2.85976e-06
8.11258e-05
0.0010245
0.000768688
0.000135003
0.000151371
0.000726682
1.8415e-05
5.82072e-05
1.05106e-05
1.18877e-06
8.68401e-05
0.0011679
0.00114543
0.00023703
7.43915e-05
0.000703295
2.99386e-05
0.000249544
1.19499e-05
1.61901e-06
0.000227004
0.00119168
0.00116717
0.000751052
4.267e-05
0.000309426
2.02964e-06
0.000336261
6.25506e-05
1.22589e-06
0.000341186
0.00117483
0.0011693
0.00118381
0.000467438
5.86564e-05
0.000188168
0.000358781
2.73822e-05
0.99961
0.999994
1
1
1
1
1
1
1
1
1
0.999994
0.999993
1
1
1
1
1
1
1
1
1
1
1
0.999988
1
0.99995
1
1
1
1
0.999548
0.997579
0.997732
0.999817
0.997841
0.999631
1
1
1
0.999985
0.980665
0.963986
0.982692
1
0.994114
0.999535
1
1
1
0.999697
0.976575
0.975835
0.997282
0.999993
1
1
1
1
0.999996
0.999391
0.984688
0.958743
0.89743
0.787667
0.752256
0.820252
0.979956
0.992564
0.99881
0.573923
0.430362
0.249797
0.0652119
0.04646
0.0704395
0.127095
0.218598
0.348018
0.604245
0.000192289
5.95727e-05
5.25291e-05
5.95727e-05
0.000102874
0.000128997
0.000272299
0.000455763
0.000199511
0.0970517
0.000357151
0.000143765
6.60755e-05
0.000327228
0.000442927
0.00010236
0.00012366
0.000265579
8.97642e-05
4.17529e-05
3.52229e-05
2.26326e-05
3.31224e-05
8.52251e-05
0.000104761
7.68851e-05
0.000293639
0.000491083
9.95807e-05
2.83905e-05
5.44737e-05
0.000121795
0.000131969
4.88399e-05
7.76577e-05
1.32024e-05
0.000244843
0.000471843
0.000301425
2.06239e-05
8.68447e-05
0.00018604
0.000176146
0.000261051
0.000564505
3.08137e-05
5.61397e-05
0.000346762
0.000167703
1.07353e-05
8.24264e-05
7.08856e-05
6.67838e-05
0.000401606
0.000802825
0.00030005
3.42771e-05
0.00015728
3.82661e-06
5.36374e-06
1.67993e-05
7.80242e-06
1.25292e-05
0.000318513
0.000847049
0.000612118
2.72616e-05
3.8266e-06
3.67818e-06
3.6488e-06
3.00369e-06
3.45138e-06
2.74786e-05
0.000255163
0.000348281
0.000617798
5.82527e-05
4.31611e-06
3.41534e-06
3.40762e-06
2.60986e-06
3.37305e-06
0.000710883
0.000359639
0.000113078
0.000600312
4.59452e-05
1.34102e-05
8.9869e-05
1.42532e-05
2.23231e-06
0.000154242
0.00119184
0.000374316
8.31994e-05
0.000105185
1.9196e-06
9.23254e-06
0.00025114
0.000246866
3.80704e-06
0.00104647
0.00119183
0.000262365
4.22644e-05
1.89546e-06
1.861e-06
1.94002e-06
0.000193846
0.000298399
0.000206848
0.00119662
0.00119469
0.000556806
0.000165662
2.45218e-06
4.26197e-05
2.02964e-06
9.27941e-05
0.000247348
1
1
0.999999
1
1
1
1
1
1
1
1
0.99999
0.999983
0.999999
1
1
1
1
1
1
1
1
1
0.999994
0.999999
0.999994
1
1
1
1
0.999734
0.996498
0.996872
0.999998
0.999999
1
1
1
1
1
0.997303
0.963136
0.991943
1
1
1
1
1
1
1
0.999962
0.986698
0.999524
0.999993
1
1
1
1
1
0.999999
0.977283
0.967516
0.960985
0.930934
0.945195
0.989854
1
1
0.999985
0.999858
0.613799
0.38675
0.281706
0.122007
0.0982175
0.180198
0.315461
0.385001
0.6453
0.670281
5.99987e-05
4.73789e-05
5.11763e-05
5.25291e-05
6.53116e-05
0.000239975
0.000318401
0.00256713
0.000122238
0.124837
5.75012e-05
9.42755e-05
4.10723e-05
0.000126261
0.000385824
0.000331452
0.000278083
0.000137377
6.38271e-05
9.7249e-05
8.88256e-05
1.4064e-05
1.59667e-05
6.94172e-05
2.67628e-05
2.81414e-05
0.000290589
0.00024626
4.88753e-05
2.52928e-05
5.15037e-06
9.05618e-06
0.000219553
0.000705205
3.63839e-05
9.48161e-06
0.000158491
0.000252452
6.35289e-05
1.01461e-05
3.90275e-06
8.65924e-06
0.000933573
0.0010394
0.000192732
6.38588e-06
0.000128692
0.000389075
0.000135331
5.05867e-06
4.78695e-06
1.0519e-05
0.00103437
0.00103961
0.000539807
1.60373e-05
0.000214401
0.000389275
4.44599e-05
3.71764e-06
6.98806e-06
1.03951e-05
0.000951435
0.00103961
0.00103042
9.61163e-05
0.00013711
0.000352121
3.41509e-06
3.40762e-06
3.45099e-06
7.80242e-06
0.00034656
0.00103961
0.00103664
0.000132429
1.99176e-05
4.98787e-05
3.22866e-06
3.3226e-06
3.37245e-06
1.06036e-05
0.000142307
0.00103664
0.00102745
5.67969e-05
1.9196e-06
3.48026e-05
9.41288e-05
0.000117703
0.000112982
3.74698e-05
0.000264993
0.00102876
0.000960806
1.89546e-06
1.85202e-06
1.9196e-06
0.000169831
0.000303033
0.000766338
0.000675197
0.00037126
0.00101535
0.000424255
1.85062e-06
1.861e-06
1.85577e-06
6.10217e-05
0.000304124
0.00109624
0.00119089
0.000213449
0.000525206
0.000139053
1.87638e-06
1.85526e-06
1.96135e-06
2.47843e-06
0.000297716
1
1
1
1
1
1
1
1
1
1
1
1
0.999999
0.999999
1
1
1
1
1
1
1
1
0.999991
0.999999
1
1
1
1
1
1
0.999949
0.998804
0.999999
0.999999
1
1
1
1
1
1
1
0.993493
0.999905
1
1
1
1
1
1
1
0.982607
0.999632
0.999941
0.999998
1
1
1
1
0.999997
1
0.90129
0.980345
0.989086
0.989295
0.994409
1
1
1
0.999998
0.997385
0.76567
0.452683
0.401282
0.381186
0.318734
0.434975
0.584511
0.848296
0.952538
0.669964
0.0254307
4.14468e-05
4.72302e-05
5.95747e-05
6.80133e-05
0.00108054
0.0103483
0.00493603
0.0157786
0.205565
4.02836e-05
3.5044e-05
4.11521e-05
4.99131e-05
0.000154512
2.80111e-05
4.95795e-05
5.79497e-05
8.81755e-05
8.01027e-05
3.2076e-05
1.91342e-05
4.11033e-05
4.32731e-05
2.42984e-05
2.41807e-05
3.8749e-05
2.90849e-05
2.70517e-05
2.09993e-05
0.000189864
0.000159476
0.000479031
0.000475629
3.37663e-05
6.33736e-06
1.04747e-05
2.04446e-05
1.44648e-05
9.04988e-06
0.000744026
0.000307303
0.00100231
0.000763442
3.25268e-05
3.9729e-06
2.00875e-05
4.12164e-05
1.50587e-05
4.48078e-06
0.000514141
5.5618e-05
0.000992114
0.000639003
5.16536e-05
5.96372e-06
3.90252e-05
0.000151998
2.7872e-05
3.54297e-06
1.30229e-05
1.12743e-05
0.000934505
0.000471158
0.00013521
7.40348e-06
4.52183e-05
0.00021834
3.22857e-06
3.32256e-06
9.38224e-06
1.43634e-05
0.000341503
0.000421927
0.000180012
5.84547e-06
2.88856e-05
0.000146807
3.08665e-06
3.22861e-06
2.3769e-05
1.80751e-05
2.76872e-05
0.000409884
0.000145496
2.58507e-06
3.91333e-06
4.86555e-05
6.27275e-05
5.04697e-05
0.000236706
4.25862e-05
8.95418e-05
0.000404191
6.14965e-05
2.25902e-06
1.9196e-06
2.28339e-06
4.0438e-05
0.000304078
0.00044103
0.00020185
0.000124025
0.000238375
1.09167e-05
1.87637e-06
1.861e-06
2.33764e-06
2.96475e-06
0.000198579
0.000247264
0.000171553
0.000135866
7.5897e-05
9.44532e-07
1.48489e-06
2.08747e-06
2.07222e-06
2.86836e-06
0.00011998
1
1
1
1
1
1
1
1
1
1
1
1
1
1
1
1
1
1
1
1
1
0.999998
1
1
1
1
1
1
1
1
1
0.999963
0.999999
1
1
1
1
1
1
1
0.986529
0.999938
1
1
1
1
1
1
1
1
0.905291
0.990128
0.999998
1
1
1
1
1
1
0.999999
0.86127
0.976883
0.999498
0.999966
0.999988
0.999999
1
1
0.999999
0.999264
0.819202
0.571323
0.570882
0.748157
0.840332
0.913744
0.985376
1
0.999996
0.728116
0.0434915
8.57846e-05
5.95747e-05
6.41413e-05
0.000979196
0.0321483
0.0852087
0.131436
0.166653
0.348958
4.31913e-05
4.14318e-05
4.72156e-05
5.33179e-05
2.42335e-05
4.00897e-05
4.35472e-05
6.40464e-05
0.000159781
0.00596385
0.000380717
0.000401724
0.000238217
5.47561e-05
1.51541e-05
5.29342e-06
8.08884e-06
1.40494e-05
3.03936e-05
7.94092e-05
0.00114999
0.00111697
0.000924694
8.61587e-05
6.50382e-06
3.97072e-06
4.59549e-06
6.40278e-06
9.26374e-06
2.08448e-05
0.00115826
0.00114297
0.00108713
9.56293e-05
3.81119e-06
3.32125e-06
3.43717e-06
4.61597e-06
4.93857e-06
8.98883e-06
0.00114297
0.00110482
0.000618974
4.9193e-05
3.03778e-06
7.1822e-06
3.42848e-06
3.61781e-06
4.07357e-06
4.43572e-06
0.00110482
0.0010304
0.000274895
1.60391e-05
4.5385e-06
1.00298e-05
6.00698e-06
3.82721e-06
3.08645e-06
3.41355e-06
0.000656787
0.000956155
0.00020528
5.09371e-06
2.75835e-06
5.00555e-06
1.61749e-05
2.3428e-05
3.0245e-06
3.08561e-06
4.93272e-05
0.00049177
0.000198333
3.02777e-06
2.34917e-06
2.24624e-06
9.12788e-06
2.16091e-05
3.47523e-06
7.80214e-06
3.52066e-05
0.000135051
0.000214294
1.4009e-05
3.02785e-06
2.34914e-06
2.2833e-06
3.7624e-05
4.35518e-05
5.63772e-05
2.74162e-05
6.41182e-05
0.000196025
1.54352e-05
3.17911e-06
8.56609e-06
2.17335e-06
3.19267e-05
4.44485e-05
4.50187e-05
2.48115e-05
2.27215e-05
4.88833e-05
6.47072e-06
1.70958e-06
2.26099e-05
2.89498e-05
1.11326e-05
3.07044e-05
7.25173e-06
1
1
1
1
1
1
1
1
1
1
1
1
1
1
1
1
1
1
1
1
1
1
1
1
1
1
1
1
1
1
0.999787
0.999562
0.999992
1
1
1
1
1
1
1
0.969407
0.995439
1
1
1
1
1
1
1
1
0.922672
0.988485
0.999996
1
1
1
1
1
1
1
0.936385
0.994411
0.999933
0.999997
1
1
1
1
1
1
0.809614
0.697795
0.695481
0.800595
0.913611
0.988874
1
1
1
0.869484
0.0203965
0.000142063
0.00052939
0.010787
0.0364127
0.147986
0.307689
0.416444
0.459716
0.56016
9.06919e-05
6.31779e-05
3.79148e-05
4.05647e-05
5.0015e-05
0.000109176
0.000108364
0.000729732
0.00153512
0.0442048
0.000729416
0.000643258
0.000223009
2.30547e-05
2.2659e-05
1.17593e-05
1.12415e-05
4.83083e-05
0.000101234
0.000591924
0.00115183
0.00114801
0.00040324
1.47853e-05
2.99791e-05
4.12325e-06
3.35941e-06
9.51072e-06
2.17202e-05
9.96577e-05
0.0011538
0.00115181
0.000212928
3.88194e-06
3.08142e-06
2.63469e-06
2.4225e-06
3.40182e-06
6.53818e-06
2.18501e-05
0.00115302
0.00113229
0.000110102
3.03778e-06
2.63508e-06
2.51112e-06
2.34451e-06
2.42628e-06
3.204e-06
6.4079e-06
0.00113228
0.000996299
5.8716e-05
5.36847e-06
4.92158e-06
3.00357e-06
2.30861e-06
2.34452e-06
2.67912e-06
3.42613e-06
0.000748494
0.0005093
5.48289e-05
2.75836e-06
2.28704e-06
2.24267e-06
2.25483e-06
2.3798e-06
2.76127e-06
3.01859e-06
3.02303e-05
0.000315776
8.61268e-05
2.5448e-06
2.24628e-06
2.24628e-06
2.24372e-06
2.86778e-06
2.8054e-06
3.44921e-06
2.32137e-05
0.000260245
7.32745e-05
4.03109e-06
3.57977e-06
2.07597e-05
3.10458e-06
6.9411e-06
8.99838e-06
3.87386e-06
5.0849e-05
0.000212427
2.64874e-05
1.85051e-06
7.93114e-06
6.39001e-05
4.36112e-05
5.1419e-06
1.72547e-05
3.70839e-06
8.70813e-05
0.000110187
4.14796e-06
5.95106e-07
2.20731e-05
6.61427e-05
6.51381e-05
6.96899e-06
1.10738e-05
4.16048e-06
1
1
1
1
1
1
1
1
1
1
1
1
1
1
1
1
1
1
1
1
0.999999
1
1
1
1
1
1
1
1
1
0.999805
0.999982
1
1
1
1
1
1
1
1
0.998276
0.999738
0.999996
1
1
1
1
1
1
1
0.998236
0.999284
0.999969
1
1
1
1
1
1
1
0.999257
0.999841
0.999997
1
1
1
1
1
1
1
0.741094
0.747347
0.769988
0.792538
0.851799
0.941434
1
1
1
0.996027
0.000146874
0.00332102
0.0177977
0.044494
0.132325
0.333505
0.544809
0.702672
0.785745
0.815059
6.15743e-05
3.6993e-05
2.49869e-05
2.30919e-05
0.000101583
0.000232555
0.00452454
0.0315666
0.0787482
0.226691
0.000531357
0.000345972
4.80638e-05
1.4869e-05
1.92208e-05
2.43064e-05
7.66688e-05
0.000256827
0.00046338
0.00245784
0.000672499
0.000434167
4.25793e-05
1.23437e-05
1.51986e-05
4.24676e-06
1.11874e-05
4.267e-05
8.77346e-05
0.00046425
0.000184154
9.91035e-05
1.68131e-05
4.90526e-06
3.78332e-06
2.54433e-06
3.3513e-06
8.12874e-06
1.99404e-05
8.7623e-05
0.000272976
0.000140427