/*--------------------------------*- C++ -*----------------------------------*\
| =========                 |                                                 |
| \\      /  F ield         | OpenFOAM: The Open Source CFD Toolbox           |
|  \\    /   O peration     | Version:  2312                                  |
|   \\  /    A nd           | Website:  www.openfoam.com                      |
|    \\/     M anipulation  |                                                 |
\*---------------------------------------------------------------------------*/
FoamFile
{
    version     2.0;
    format      ascii;
    arch        "LSB;label=32;scalar=64";
    class       surfaceScalarField;
    location    "0.735";
    object      alphaPhi0.water;
}
// * * * * * * * * * * * * * * * * * * * * * * * * * * * * * * * * * * * * * //

dimensions      [0 3 -1 0 0 0 0];

oriented        oriented;

internalField   nonuniform List<scalar> 
22600
(
2.13508e-07
2.65853e-08
-8.49037e-08
2.51887e-07
3.52577e-08
-7.36366e-08
2.6423e-07
4.71658e-08
-5.9509e-08
2.5278e-07
6.07794e-08
-4.93295e-08
2.24151e-07
7.1972e-08
-4.33431e-08
1.83625e-07
8.15991e-08
-4.10725e-08
1.38575e-07
8.86721e-08
-4.36225e-08
9.90701e-08
8.6974e-08
-4.7469e-08
6.26399e-08
8.25878e-08
-4.61576e-08
1.09348e-07
-4.67077e-08
2.3762e-07
4.51393e-08
-9.5263e-08
2.9541e-07
6.67558e-08
-8.92877e-08
3.32641e-07
9.16285e-08
-8.16937e-08
3.47425e-07
1.21151e-07
-7.5156e-08
3.35898e-07
1.55636e-07
-7.21369e-08
2.99152e-07
1.92689e-07
-7.4344e-08
2.43897e-07
2.28088e-07
-8.41609e-08
1.86867e-07
2.43272e-07
-9.9268e-08
1.09169e-07
2.58888e-07
-9.86018e-08
3.19456e-07
-1.00939e-07
2.53598e-07
1.40195e-08
-5.71506e-08
3.15204e-07
6.94567e-08
-6.43068e-08
3.55312e-07
1.19944e-07
-6.84236e-08
3.68885e-07
1.7861e-07
-7.10318e-08
3.50629e-07
2.50346e-07
-7.64543e-08
3.04632e-07
3.26295e-07
-8.76097e-08
2.37977e-07
4.034e-07
-1.08656e-07
1.75746e-07
4.28596e-07
-1.23093e-07
9.18011e-08
4.28792e-07
-8.59598e-08
4.98921e-07
-8.76644e-08
3.19138e-07
-2.27059e-07
9.73797e-08
3.82356e-07
-5.10726e-08
5.73121e-08
4.17098e-07
8.18363e-08
3.36523e-09
4.16376e-07
2.10749e-07
-3.14173e-08
3.76474e-07
3.55205e-07
-6.49576e-08
3.18681e-07
4.83879e-07
-9.97907e-08
2.50799e-07
5.82378e-07
-1.11096e-07
1.56951e-07
5.79546e-07
-5.71031e-08
3.06601e-08
4.28814e-07
1.2627e-07
5.67447e-07
-3.78658e-08
4.82737e-07
-8.7108e-07
3.34961e-07
6.04823e-07
-4.65934e-07
2.92775e-07
6.58557e-07
-1.91095e-07
2.19198e-07
6.52606e-07
8.68935e-08
1.29807e-07
6.08006e-07
3.69343e-07
3.0462e-08
5.07942e-07
6.30506e-07
-4.65622e-08
3.14298e-07
8.03806e-07
-2.77846e-08
-4.64768e-08
7.38257e-07
2.02064e-07
-2.50981e-07
1.17454e-07
5.15864e-07
9.13463e-08
2.2512e-07
2.60702e-07
-1.50865e-06
3.41146e-07
6.11122e-07
-1.08593e-06
2.69592e-07
9.29014e-07
-7.87848e-07
2.78859e-07
1.15887e-06
-3.92651e-07
2.49689e-07
1.11139e-06
2.34441e-07
1.82385e-07
8.69942e-07
7.38655e-07
1.33295e-07
4.63004e-07
9.88975e-07
2.21769e-07
-8.20939e-08
8.15025e-07
4.6833e-07
-3.80475e-07
-2.46431e-07
6.62933e-07
-9.78826e-07
6.98279e-07
-2.1723e-07
-1.0219e-06
-3.28494e-07
2.49246e-07
-1.12578e-06
-2.98905e-07
7.03795e-07
-1.12394e-06
-7.87702e-08
1.07936e-06
-8.17271e-07
4.89997e-08
1.15248e-06
4.9627e-08
1.06906e-07
8.16328e-07
8.31323e-07
2.43479e-07
3.35614e-07
9.60086e-07
5.09604e-07
-4.67323e-08
4.54424e-07
7.42947e-07
-3.71225e-07
-5.12879e-07
5.95037e-07
-1.62154e-06
2.66356e-07
1.64161e-07
4.55886e-08
-1.09316e-06
3.83352e-07
4.97283e-08
-1.16778e-06
9.11798e-07
9.77943e-08
-1.42503e-06
1.34224e-06
1.93188e-07
-1.44487e-06
1.30686e-06
4.41609e-07
-8.23462e-07
1.09174e-06
7.00365e-07
-2.96673e-08
8.22297e-07
6.67734e-07
4.65822e-07
3.73471e-07
2.28816e-07
6.73255e-07
-3.28254e-07
-1.89081e-07
3.77855e-07
-1.23043e-06
-7.25369e-07
7.31462e-08
-1.19352e-08
-5.84525e-08
2.94301e-08
-1.19868e-08
-1.55089e-07
6.99331e-08
-2.35935e-08
-4.20601e-07
2.81558e-07
-5.42471e-08
-7.36967e-07
7.03336e-07
-6.81265e-08
-1.24832e-06
1.52175e-06
4.19578e-07
-1.74542e-06
2.06804e-06
1.21211e-06
-1.65375e-06
1.37015e-06
1.76979e-06
-9.15861e-07
-2.10853e-07
1.44813e-06
-6.59877e-08
9.28791e-07
-2.38803e-06
-2.47438e-08
-5.93608e-10
-8.50031e-09
-2.18905e-08
4.00843e-10
-2.19917e-08
-1.25084e-08
5.44505e-10
-4.25677e-08
-1.1545e-08
-1.541e-10
-7.0454e-08
-2.16296e-08
-1.18868e-09
-8.55893e-08
-1.47533e-08
-1.59541e-08
-3.34528e-07
9.53869e-07
2.12297e-07
-9.8843e-07
1.33868e-06
2.27699e-06
-1.47401e-06
-1.38023e-07
3.22847e-06
-3.16188e-07
3.05481e-06
-2.27586e-06
-3.05369e-09
2.22455e-10
-1.99332e-10
-3.60944e-09
5.14088e-10
-9.33649e-10
-3.22261e-09
3.41105e-10
-2.20945e-09
-3.06818e-09
-6.64934e-11
-3.94119e-09
-1.43728e-09
-2.13413e-10
-7.84556e-09
3.34996e-09
-3.57094e-10
-2.56535e-08
-1.00261e-07
2.52584e-08
-5.77243e-08
9.01936e-07
5.50736e-07
-2.13457e-07
3.60735e-08
3.80231e-06
-2.11192e-07
4.48273e-06
-1.59588e-06
-4.31798e-10
1.50879e-10
1.42654e-10
-7.24291e-10
2.49069e-10
2.50798e-10
-7.50796e-10
5.07698e-10
-9.43729e-11
-8.74806e-10
1.59328e-10
-3.44162e-10
-7.56915e-10
5.4127e-11
-8.55564e-10
-4.63307e-10
-1.27267e-11
-2.10435e-09
3.17311e-08
1.0887e-09
-8.1976e-09
-7.44298e-09
7.69459e-09
-1.64409e-08
1.07201e-07
1.27437e-06
1.21805e-07
5.03218e-06
-6.69912e-07
-1.6696e-11
5.11596e-11
6.30619e-11
-1.15393e-10
5.58827e-11
1.68936e-10
-1.78235e-10
1.34973e-10
2.0255e-10
-3.04556e-10
2.14326e-10
3.68195e-11
-3.55728e-10
1.81691e-10
-9.62104e-11
-4.22203e-10
1.83511e-10
-2.54796e-10
1.32514e-09
4.24036e-10
-8.08316e-10
1.13507e-08
1.83093e-09
-4.11816e-09
-8.19976e-08
-1.11267e-08
-1.79356e-08
3.18731e-06
-8.51358e-10
1.07991e-11
1.67135e-11
2.23414e-11
-4.13681e-12
1.47091e-11
3.9392e-11
-2.96207e-11
4.76225e-11
7.37162e-11
-1.21051e-10
2.88488e-10
6.98687e-11
-2.10144e-10
4.78836e-10
-1.39652e-11
-2.61019e-10
2.86057e-10
-5.766e-11
2.1279e-12
3.57793e-10
-1.5888e-10
5.43808e-10
1.30802e-09
-3.96835e-10
-3.06056e-07
1.00823e-08
-1.88154e-09
-1.08267e-08
1.72154e-07
4.02435e-12
5.668e-12
8.71273e-12
2.58618e-12
5.21662e-12
9.2571e-12
-9.26139e-12
3.22846e-11
2.04009e-11
-2.27746e-10
9.26238e-10
9.13281e-11
-1.77776e-10
1.64114e-09
6.53425e-12
-1.24191e-10
2.51419e-10
-1.74079e-11
6.50413e-11
2.10369e-10
-3.90196e-11
1.07085e-09
3.96828e-10
-7.39226e-11
9.67538e-09
1.60931e-09
-9.56019e-11
-5.51144e-10
-1.09522e-08
1.34951e-12
2.16036e-12
2.99149e-12
3.1418e-12
1.76424e-12
1.51795e-12
-1.1415e-10
1.08465e-10
3.85943e-11
-5.05454e-10
1.45964e-09
2.26155e-10
-1.03293e-10
1.76208e-09
2.13832e-11
-5.06345e-11
1.51706e-10
-9.41217e-12
3.43964e-11
1.38369e-10
-1.65086e-11
2.79229e-10
1.87463e-10
-2.27664e-11
1.56272e-09
3.86298e-10
-2.60454e-11
-2.21725e-10
-1.49708e-09
7.61697e-13
1.00319e-12
1.23118e-12
7.43878e-13
9.19909e-13
8.10745e-13
-3.07352e-10
1.69406e-10
5.93302e-11
-4.9618e-10
1.68542e-09
2.44569e-10
-1.08405e-10
7.98358e-10
-2.84942e-11
-1.89415e-11
7.55565e-11
-1.68689e-11
2.48325e-11
1.08905e-10
-1.63644e-11
9.9561e-11
1.48192e-10
-3.07408e-11
3.66885e-10
2.45532e-10
-1.39621e-11
1.93016e-10
-1.87818e-10
8.78435e-13
6.36997e-13
5.50297e-13
2.00511e-13
8.1711e-13
7.2638e-13
-1.57262e-10
2.09377e-10
5.93093e-11
-2.96197e-10
4.69258e-10
1.16135e-10
-5.39858e-11
2.63165e-10
-7.84998e-11
-8.67328e-12
1.06099e-10
-7.92816e-11
2.21102e-11
1.24093e-10
-5.185e-11
8.47268e-11
2.06974e-10
-8.51229e-11
1.29134e-10
2.84068e-10
-6.33822e-12
3.21477e-10
2.73483e-15
5.31302e-11
-2.68704e-13
2.94988e-11
4.72087e-11
3.44148e-11
9.01411e-11
-1.21303e-10
3.64985e-10
6.37167e-11
-1.32309e-10
4.02144e-10
2.8706e-11
-5.90316e-11
2.676e-10
-1.02843e-10
-4.20901e-12
1.59063e-10
-1.135e-10
2.84833e-11
1.55341e-10
-7.42142e-11
8.79285e-11
4.44149e-10
-2.62775e-10
5.13746e-11
3.0145e-10
-1.62188e-12
3.2833e-10
4.64823e-11
1.04554e-10
5.63691e-11
-1.44418e-11
1.98353e-11
6.04523e-11
1.8922e-12
-9.67466e-11
8.158e-11
4.30016e-10
-1.32475e-10
7.40698e-12
3.78009e-10
-6.25953e-11
-1.56477e-10
3.0253e-10
-3.39909e-12
-1.5295e-10
2.35195e-10
2.70439e-11
-7.71285e-11
1.86037e-10
7.60748e-11
-2.06141e-10
4.41302e-10
1.57997e-11
1.62092e-11
2.98e-10
4.98271e-11
3.99312e-10
1.80514e-07
-5.11337e-08
-4.75471e-08
1.8032e-07
-3.24449e-08
-4.09974e-08
1.70042e-07
-1.5521e-08
-3.371e-08
1.52501e-07
-1.21065e-09
-3.05779e-08
1.26452e-07
1.45152e-08
-3.1809e-08
9.53391e-08
2.47221e-08
-3.4682e-08
6.80666e-08
2.25101e-08
-3.88601e-08
6.48902e-08
-3.79942e-09
-4.0493e-08
6.17298e-08
-1.21109e-08
-3.08862e-08
8.02776e-08
-6.52555e-08
2.1412e-07
-1.14178e-07
-7.24726e-08
2.36723e-07
-6.71044e-08
-7.72313e-08
2.43569e-07
-2.52523e-08
-7.88083e-08
2.34184e-07
1.33237e-08
-8.03058e-08
2.10761e-07
4.99079e-08
-8.41066e-08
1.73322e-07
8.15528e-08
-9.37354e-08
1.32823e-07
8.76455e-08
-1.08797e-07
1.31741e-07
1.77188e-08
-1.19705e-07
1.07042e-07
2.33628e-08
-1.09376e-07
2.51255e-07
-1.64875e-07
2.11005e-07
-1.47243e-07
-5.03913e-08
2.20318e-07
-6.80431e-08
-7.26818e-08
2.24612e-07
-1.08495e-08
-8.71198e-08
2.17861e-07
4.62918e-08
-9.72495e-08
1.82379e-07
1.17631e-07
-1.08695e-07
1.16708e-07
1.8303e-07
-1.23416e-07
3.60905e-08
1.9635e-07
-1.36743e-07
5.04764e-08
-1.74892e-08
-1.0227e-07
9.5962e-08
-8.1446e-08
-2.66369e-08
4.23123e-07
-1.6357e-07
2.40106e-07
-1.50065e-07
5.32766e-08
2.4034e-07
-2.68156e-08
1.58508e-08
2.24098e-07
5.52463e-08
-4.64878e-08
1.94974e-07
1.38796e-07
-9.47984e-08
1.32397e-07
2.44818e-07
-1.29567e-07
2.15816e-08
3.49496e-07
-1.55442e-07
-1.05825e-07
3.41643e-07
-1.28982e-07
-1.53586e-07
-1.0004e-07
7.32079e-08
-8.26013e-08
-2.48403e-07
2.22243e-07
4.60525e-07
-1.57869e-07
3.78159e-07
-1.72749e-07
1.90153e-07
3.91757e-07
9.73344e-08
1.55027e-07
3.81023e-07
1.98672e-07
8.65058e-08
3.36948e-07
3.15279e-07
-2.59971e-09
2.56905e-07
4.69557e-07
-1.14234e-07
1.02534e-07
6.3032e-07
-1.73016e-07
-1.51121e-07
6.32143e-07
-6.46298e-08
-4.52584e-07
7.67018e-08
3.26797e-07
-4.26931e-07
-3.09966e-07
5.52286e-07
3.0916e-07
-5.04455e-08
4.40069e-07
-2.3375e-07
2.21588e-07
5.84766e-07
6.79535e-08
1.54243e-07
7.41856e-07
1.89347e-07
1.31096e-07
7.81854e-07
4.67497e-07
5.74742e-08
6.50059e-07
7.85324e-07
-1.58706e-09
4.12512e-07
1.0277e-06
-2.65374e-08
7.71276e-08
1.03576e-06
1.53538e-07
-4.59996e-07
5.49131e-07
5.33722e-07
-6.02223e-07
-3.06632e-08
5.23771e-07
1.85235e-07
2.20913e-07
2.3033e-07
8.6196e-09
-4.21885e-07
2.34331e-07
1.04819e-07
-3.66271e-07
3.46168e-07
7.66546e-08
-8.36075e-08
6.35751e-07
2.8352e-07
-5.66065e-08
7.13373e-07
8.87246e-07
-7.26383e-08
5.23121e-07
1.39572e-06
6.57072e-08
2.21508e-07
1.49923e-06
3.4775e-07
-2.08449e-07
1.09478e-06
6.27362e-07
-4.90887e-07
6.10103e-07
2.37269e-07
-7.25095e-08
3.59625e-08
1.72515e-07
4.82759e-08
-2.2134e-06
4.20859e-07
8.25366e-08
-2.36787e-06
7.61943e-07
1.92149e-07
-2.60888e-06
1.02315e-06
4.15512e-07
-2.23303e-06
1.00696e-06
1.03909e-06
-1.28426e-06
7.99692e-07
1.99172e-06
-4.18396e-07
4.32828e-07
2.14268e-06
1.89233e-07
-6.89785e-08
1.7541e-06
5.15864e-07
-5.0222e-07
1.45469e-06
-3.34097e-08
1.1216e-07
-1.4066e-06
-3.08818e-08
7.48374e-09
-1.12887e-07
-4.55604e-08
2.22346e-08
-4.66222e-07
-5.20541e-08
4.93774e-08
-1.19979e-06
-8.35201e-09
2.91201e-08
-2.04686e-06
1.73685e-07
-1.0417e-08
-2.6905e-06
5.54513e-07
6.38568e-07
-2.98644e-06
8.53481e-07
1.85656e-06
-3.07998e-06
7.4309e-07
2.9784e-06
-2.392e-06
5.93175e-07
3.15197e-06
-1.61334e-06
2.44738e-06
-4.13579e-06
-5.13429e-09
1.65421e-10
-1.81978e-10
-4.90879e-09
2.9735e-10
-2.55379e-10
7.4063e-10
1.46536e-09
-3.08858e-10
5.62283e-09
3.58108e-09
-5.19055e-08
-2.58153e-10
6.76206e-09
-1.01391e-07
-2.34303e-08
1.32702e-08
-3.07327e-07
1.35263e-07
2.47582e-08
-6.89083e-07
6.42074e-07
4.20634e-07
-1.03321e-06
1.39058e-06
2.12542e-06
-9.37075e-07
3.85448e-06
-2.78793e-06
-1.25506e-10
4.79512e-11
-2.07903e-10
-2.26844e-11
-1.33323e-10
-4.91663e-10
1.90382e-10
-6.50719e-11
-6.52369e-10
9.9955e-10
2.50372e-10
-1.63357e-09
4.71175e-09
1.01706e-09
-6.30722e-09
1.25887e-08
2.77194e-09
-2.40389e-08
1.72157e-08
8.4748e-09
-4.62249e-08
1.99306e-08
1.77418e-08
-7.39465e-08
8.42924e-07
-3.01542e-09
6.84969e-09
1.85779e-06
-3.71572e-07
5.28987e-11
3.5499e-11
-9.7662e-12
8.74642e-11
8.83077e-11
-8.41613e-12
5.96703e-11
3.29899e-11
-3.57386e-11
1.15575e-10
-2.38224e-11
-9.31584e-11
4.3961e-10
9.43844e-11
-3.275e-10
1.78326e-09
3.87177e-10
-1.15545e-09
4.19297e-09
1.33641e-09
-3.31842e-09
9.31404e-09
6.15452e-09
-9.9301e-09
2.91995e-08
1.61839e-08
-1.33772e-08
1.84268e-07
-1.10456e-07
3.72572e-11
1.22457e-11
2.42087e-12
5.81232e-11
4.38279e-11
4.34885e-11
4.31076e-11
1.05393e-10
5.93293e-11
6.80965e-12
5.501e-11
9.2692e-13
5.32072e-12
2.83243e-11
-2.25389e-11
1.12679e-10
8.65141e-11
-7.33226e-11
6.63996e-10
2.57675e-10
-2.47721e-10
2.85032e-09
1.02047e-09
-1.08607e-09
1.07427e-09
2.39224e-09
-2.4327e-09
1.51847e-07
-8.67077e-09
6.41871e-12
9.93785e-12
7.39425e-12
1.09061e-11
1.46394e-11
3.29227e-11
1.99337e-11
1.75762e-11
5.62231e-11
1.22421e-12
1.58939e-10
2.09145e-11
-1.24216e-11
8.41553e-11
-1.08929e-13
-8.11879e-12
3.88185e-11
-1.56923e-11
7.00102e-11
6.345e-11
-4.01076e-11
6.61612e-10
2.1534e-10
-1.41258e-10
9.00957e-10
6.99308e-10
-3.92806e-10
1.42389e-07
-1.04863e-09
1.48398e-12
7.65421e-12
7.56684e-12
4.34591e-12
7.02089e-12
1.16274e-11
1.03513e-11
1.29916e-11
1.54233e-11
8.92121e-13
8.74246e-10
4.10603e-11
-1.46008e-11
2.4731e-10
-1.52955e-12
-6.63938e-12
2.67705e-11
-1.30352e-11
1.55875e-11
2.0051e-11
-2.07196e-11
1.47764e-10
6.30743e-11
-5.1014e-11
7.08544e-10
1.40103e-10
-7.38433e-11
5.65407e-09
-1.94662e-09
1.34144e-12
2.51298e-12
6.86373e-12
1.89727e-12
2.57538e-12
4.18407e-12
3.95172e-11
5.01157e-12
6.55327e-12
-3.66439e-11
1.36037e-09
2.10897e-10
-1.8303e-11
8.52633e-10
2.06818e-11
-1.43413e-12
1.86958e-11
-2.08746e-11
1.42928e-11
1.5469e-11
-3.11895e-11
4.99242e-11
7.04947e-11
-6.92937e-11
1.12298e-10
1.02558e-10
-2.62348e-11
1.55134e-09
-2.20389e-10
1.26462e-11
4.23407e-11
6.40881e-11
8.33315e-12
1.32525e-11
1.86046e-11
1.59419e-11
2.25341e-11
1.23377e-11
-1.08833e-10
1.53596e-09
4.18063e-10
-2.87369e-11
1.11391e-09
1.80618e-11
8.56379e-13
2.09182e-11
-5.07147e-11
2.09975e-11
4.20787e-11
-6.65906e-11
8.15697e-11
4.17061e-10
-3.58283e-10
8.2966e-11
1.73115e-10
-7.34906e-11
1.56254e-09
-4.35793e-11
1.40868e-10
4.3611e-11
1.29659e-10
5.48877e-11
4.27277e-11
9.94695e-11
5.67446e-11
6.83636e-11
1.56478e-11
-2.17358e-10
6.79719e-10
2.13039e-10
-8.21701e-11
7.54959e-10
-4.52807e-11
1.26402e-11
1.0465e-10
-2.4536e-10
6.01675e-11
1.35366e-10
-2.01659e-10
2.59933e-10
9.495e-10
-5.86345e-10
9.11637e-11
6.90583e-10
-1.9095e-10
1.77844e-09
5.58297e-11
1.98542e-10
-3.85213e-11
1.29916e-10
1.72299e-10
1.40432e-11
1.58379e-10
2.9276e-11
2.59601e-10
2.94222e-11
-1.16524e-10
1.89964e-10
7.93689e-11
-7.97326e-11
9.34323e-10
-1.21334e-10
-7.52501e-12
3.35383e-10
-9.00309e-10
1.46985e-11
2.21437e-10
-3.37982e-10
1.3742e-10
1.31487e-09
-5.53388e-10
5.19746e-11
1.6325e-09
-1.4682e-10
2.00769e-09
3.60892e-11
1.06555e-10
3.99462e-11
-3.54357e-12
8.64913e-11
4.66002e-11
-6.9562e-13
-3.09515e-12
3.78806e-11
2.39232e-10
-1.46871e-10
3.25646e-11
4.10517e-10
-1.28519e-10
-3.21017e-10
1.35064e-09
-4.48798e-11
-2.05266e-09
8.05679e-10
-1.00088e-10
-3.71954e-10
2.70974e-10
1.12571e-12
-2.04856e-10
1.40861e-09
1.01903e-11
-1.06676e-10
1.53646e-09
1.34185e-10
6.88608e-09
1.92788e-07
-1.11147e-07
4.66407e-08
1.94698e-07
-8.00287e-08
3.71207e-08
1.86708e-07
-4.87685e-08
2.30482e-08
1.71476e-07
-2.19327e-08
6.58732e-09
1.48408e-07
5.96342e-10
-9.33777e-09
1.17304e-07
1.80747e-08
-2.16526e-08
8.66062e-08
2.04938e-08
-2.86562e-08
7.50913e-08
-2.80165e-09
-2.61764e-08
6.35927e-08
-9.5623e-09
-9.82534e-09
7.92948e-08
-8.09574e-08
2.25254e-07
-2.41539e-07
2.0209e-08
2.52572e-07
-1.7806e-07
-6.51705e-09
2.64808e-07
-1.06015e-07
-3.37983e-08
2.58885e-07
-3.87489e-08
-5.75666e-08
2.3583e-07
1.73306e-08
-7.77862e-08
1.98615e-07
5.79159e-08
-9.63615e-08
1.55056e-07
6.49086e-08
-1.09653e-07
1.43817e-07
-5.77788e-09
-1.05489e-07
1.08673e-07
2.45817e-09
-8.6253e-08
2.21119e-07
-1.98026e-07
2.29252e-07
-3.22434e-07
5.08743e-09
2.4652e-07
-2.449e-07
-2.31103e-08
2.55004e-07
-1.44108e-07
-5.75109e-08
2.53154e-07
-4.93985e-08
-8.47502e-08
2.2595e-07
4.32361e-08
-1.07396e-07
1.66493e-07
1.16879e-07
-1.22921e-07
9.2448e-08
1.22239e-07
-1.20029e-07
1.15125e-07
-7.50139e-08
-5.57116e-08
1.2649e-07
-3.85114e-08
2.96756e-09
3.89072e-07
-2.05034e-07
2.63812e-07
-2.88253e-07
-2.34299e-08
2.72205e-07
-2.12574e-07
-2.48682e-08
2.79629e-07
-1.29428e-07
-6.85909e-08
2.56452e-07
-4.49354e-09
-1.16527e-07
1.89599e-07
1.22148e-07
-1.41626e-07
6.34472e-08
2.32961e-07
-1.45372e-07
-7.27553e-08
2.13561e-07
-8.41015e-08
-4.50713e-08
-1.5835e-07
1.2886e-07
6.17765e-08
-9.50909e-08
1.71975e-07
5.2228e-07
-2.29301e-07
3.37741e-07
-1.23995e-07
-6.36955e-08
3.17161e-07
-7.21622e-09
-2.97511e-08
3.022e-07
3.61172e-08
-6.40781e-08
2.8988e-07
1.46528e-07
-1.41301e-07
2.23025e-07
2.83282e-07
-2.08512e-07
4.63515e-08
4.47656e-07
-2.11037e-07
-1.79516e-07
4.48329e-07
-7.35302e-08
-2.79407e-07
1.69179e-08
2.51421e-07
-1.92327e-07
1.60587e-07
2.09541e-07
6.79166e-07
-3.99658e-07
4.6996e-07
1.04926e-07
-1.17436e-07
4.52845e-07
2.52599e-07
-8.84569e-08
4.65096e-07
2.40293e-07
-8.53308e-08
4.49227e-07
3.79314e-07
-1.59443e-07
3.45703e-07
5.91651e-07
-2.06432e-07
1.11005e-07
8.02519e-07
-1.46702e-07
-1.92486e-07
8.67429e-07
3.79281e-08
-5.19437e-07
5.77697e-07
2.99985e-07
-5.27999e-07
7.5132e-07
-5.76067e-08
8.58874e-07
-4.86795e-07
4.48179e-07
4.24826e-07
-5.69038e-07
2.10902e-07
6.06039e-07
-4.82435e-07
1.40001e-07
5.53586e-07
-3.25999e-07
2.65117e-07
4.84084e-07
-2.86492e-07
3.54112e-07
7.4492e-07
-3.14902e-07
2.28354e-07
1.20205e-06
-2.08066e-07
-6.75765e-08
1.52519e-06
-1.4077e-08
-5.21396e-07
1.51716e-06
1.41719e-07
-6.63982e-07
1.45658e-06
-3.254e-07
7.33414e-07
-5.02555e-07
5.22004e-07
-8.21363e-09
-3.24403e-06
7.0881e-07
1.51985e-07
-3.32788e-06
7.55565e-07
2.77359e-07
-3.18097e-06
7.97542e-07
4.27494e-07
-2.51167e-06
7.69034e-07
8.67294e-07
-1.5998e-06
5.5853e-07
1.68001e-06
-6.85857e-07
1.5341e-07
2.14889e-06
-2.93546e-08
-3.84137e-07
2.1896e-06
3.80977e-07
-6.29605e-07
1.9115e-06
-2.42845e-07
5.86027e-07
-1.94134e-06
-5.56641e-08
-1.10123e-10
-5.61144e-07
3.5366e-08
-1.13801e-10
-1.68116e-06
2.92665e-07
-2.71276e-10
-2.86356e-06
6.37408e-07
5.48651e-08
-3.7387e-06
1.04679e-06
1.35708e-07
-4.01536e-06
1.63198e-06
6.00537e-07
-4.44803e-06
2.07144e-06
1.23477e-06
-4.15176e-06
2.26484e-06
1.91087e-06
-3.44384e-06
2.26523e-06
2.19961e-06
-2.60259e-06
2.41687e-06
-4.40106e-06
-2.49914e-11
-6.00551e-13
-2.17293e-10
9.70456e-12
-2.94201e-12
-3.26559e-10
9.87269e-12
-6.04002e-12
-3.93132e-10
1.64801e-09
1.74863e-09
-4.22463e-10
1.15501e-08
8.51693e-09
-8.05355e-09
1.02388e-07
2.77138e-08
-9.27199e-08
3.23367e-07
4.77781e-08
-1.75189e-07
7.03522e-07
7.87588e-08
-3.56639e-07
1.28586e-06
1.84758e-09
-2.49168e-07
6.11717e-07
-1.09311e-06
3.40509e-11
-1.33999e-11
-1.56651e-10
8.51413e-11
-4.71004e-12
-3.21179e-10
1.06823e-10
1.35126e-11
-4.29852e-10
6.82886e-10
4.73434e-11
-4.80385e-10
3.69357e-09
4.7588e-10
-4.6188e-10
1.04858e-08
1.7652e-09
-4.59119e-09
1.84039e-08
4.45855e-09
-1.00206e-08
2.83624e-08
1.34012e-08
-1.70348e-08
3.96249e-08
1.52857e-08
-1.50008e-08
1.00143e-07
-9.88923e-08
2.72348e-11
-6.42363e-12
-9.09457e-12
1.77302e-11
4.98988e-13
-1.99164e-11
2.59598e-11
6.87694e-12
-6.04579e-11
4.97432e-11
3.43833e-12
-6.07908e-11
2.35302e-10
1.46921e-11
-5.12466e-11
8.66112e-10
8.78382e-11
-8.75369e-11
1.95318e-09
3.70633e-10
-2.19448e-10
4.73884e-09
1.75967e-09
-7.92899e-10
6.18316e-09
2.46714e-09
-1.67624e-09
1.54277e-08
-1.92139e-08
2.97379e-12
2.22632e-12
8.16355e-13
1.36457e-11
5.79213e-12
2.08647e-11
1.19182e-11
8.37552e-12
5.17369e-11
9.13813e-12
1.03655e-11
4.72775e-12
8.62944e-12
8.25284e-12
-6.89168e-12
2.40483e-11
1.0713e-11
-1.24827e-11
1.37403e-10
3.88836e-11
-2.8501e-11
7.49384e-10
1.78001e-10
-9.19071e-11
6.51887e-10
3.90016e-10
-1.73459e-10
7.88845e-09
-2.50841e-09
2.91193e-12
1.33359e-12
3.81556e-12
5.58209e-12
2.91904e-12
3.05155e-11
8.98022e-12
5.81007e-12
5.20536e-11
7.93556e-12
2.36929e-11
2.88919e-11
3.1416e-12
6.83639e-11
2.90189e-12
2.6394e-12
9.18224e-12
-1.01815e-11
1.69733e-11
4.58253e-12
-2.31472e-11
1.15371e-10
2.45758e-11
-8.24095e-11
1.24797e-10
1.29668e-10
-3.9378e-11
4.24885e-09
-4.76706e-10
2.32451e-12
1.67248e-12
7.28894e-12
4.15532e-12
1.59994e-12
1.66418e-11
8.98979e-12
2.70691e-12
1.42063e-11
6.41139e-11
2.06566e-10
1.12014e-10
1.54244e-11
1.30984e-10
2.66256e-11
4.65229e-12
1.14342e-11
-8.68595e-12
1.05983e-11
2.861e-12
-2.82719e-11
4.0652e-11
5.92263e-11
-1.18577e-10
3.38184e-11
1.77661e-10
-1.25157e-10
1.51389e-09
-1.90632e-10
7.08022e-11
1.76837e-11
8.41966e-11
1.18382e-11
6.64128e-12
4.85398e-11
1.14307e-11
2.23178e-12
7.88185e-12
1.21355e-10
3.45964e-10
1.11117e-10
5.13494e-11
3.10838e-10
8.48696e-11
8.05547e-12
2.38385e-11
-1.49623e-11
1.14428e-11
1.28143e-11
-4.94538e-11
4.94003e-11
4.74533e-10
-3.20555e-10
1.68014e-11
5.58728e-10
-3.4484e-10
1.90122e-09
-1.87814e-10
1.48362e-10
1.10552e-11
2.91874e-10
5.97322e-11
4.05221e-11
1.70911e-10
4.6096e-11
7.79165e-12
2.38651e-11
8.53425e-11
3.34202e-10
6.4179e-11
1.09174e-11
3.00067e-10
2.58042e-11
7.29175e-12
1.20882e-10
-1.81062e-10
1.05933e-11
2.76808e-10
-4.36405e-10
6.53491e-12
1.52926e-09
-7.30687e-10
-1.99432e-11
1.69273e-09
-4.04143e-10
3.02415e-09
-1.83561e-10
2.26456e-10
-1.75009e-11
1.99284e-10
6.59261e-11
2.14571e-11
1.23439e-10
3.19716e-11
2.86521e-11
2.29166e-11
3.4484e-11
1.84199e-10
2.34258e-11
-7.24218e-11
2.6468e-10
-3.47291e-11
-1.72513e-10
6.48965e-10
-2.23776e-09
-2.77504e-10
1.01285e-09
-1.54671e-09
-1.93298e-10
1.05819e-09
-4.74258e-10
-1.81795e-10
1.77018e-09
-6.21439e-10
2.42204e-09
-5.7956e-11
1.34434e-10
-1.95723e-11
8.37161e-11
1.42138e-10
2.21132e-12
4.86436e-11
4.52699e-11
6.48902e-11
9.99517e-12
1.13963e-11
1.75695e-10
3.69883e-11
-3.01137e-10
1.00916e-09
-3.07898e-10
-9.60699e-10
9.35315e-10
-2.35725e-09
-9.12737e-10
1.00459e-09
-1.52672e-09
-6.09742e-10
5.60894e-10
-1.50231e-10
-2.30302e-10
1.01567e-09
-2.75522e-10
1.19397e-09
-1.57564e-11
1.41028e-11
9.08662e-12
-4.13402e-13
4.66362e-11
9.07288e-12
-6.51783e-13
3.1751e-12
8.06806e-12
7.44834e-11
-7.33377e-11
2.92791e-11
2.50296e-10
-8.56011e-10
-8.8439e-10
1.72386e-09
-1.09188e-09
-2.46084e-09
1.55213e-09
-5.39549e-10
-1.30064e-09
6.51871e-10
-1.77631e-10
-4.7959e-11
3.0573e-10
-8.15595e-11
-4.02938e-11
9.14516e-10
-7.01806e-12
1.53526e-09
1.89348e-07
-7.07138e-08
1.18203e-07
1.90839e-07
-6.02516e-08
9.58818e-08
1.85873e-07
-3.9663e-08
6.76763e-08
1.72762e-07
-1.93597e-08
3.90588e-08
1.51531e-07
-1.54023e-09
1.34333e-08
1.20396e-07
1.75489e-08
-8.06731e-09
8.93051e-08
2.44378e-08
-2.20026e-08
7.26031e-08
1.28959e-08
-2.23703e-08
5.8779e-08
1.01493e-08
-6.15054e-09
7.45478e-08
-9.67264e-08
2.1113e-07
-1.58115e-07
1.07615e-07
2.35182e-07
-1.52538e-07
6.1718e-08
2.57552e-07
-1.05602e-07
9.77005e-09
2.60603e-07
-4.73724e-08
-3.26048e-08
2.39991e-07
8.04405e-09
-6.6759e-08
2.03456e-07
5.01581e-08
-9.24348e-08
1.60513e-07
6.78385e-08
-1.10112e-07
1.33331e-07
4.40809e-08
-1.09492e-07
9.36777e-08
5.46425e-08
-9.10924e-08
1.90468e-07
-2.20268e-07
2.35362e-07
-1.89973e-07
3.4921e-08
2.45465e-07
-2.16781e-07
3.10294e-08
2.60903e-07
-1.67198e-07
-1.1353e-08
2.64775e-07
-8.07121e-08
-5.52821e-08
2.48706e-07
8.75887e-09
-9.20425e-08
2.05704e-07
8.92726e-08
-1.19034e-07
1.53685e-07
1.25271e-07
-1.25442e-07
1.46985e-07
8.51266e-08
-9.00574e-08
1.1019e-07
1.41367e-07
-4.69613e-08
3.3695e-07
-2.41326e-07
3.18013e-07
-1.66338e-07
-9.09135e-08
3.11906e-07
-2.13335e-07
-2.22075e-08
3.15087e-07
-1.97714e-07
-4.12555e-08
3.06279e-07
-8.93275e-08
-9.9104e-08
2.57748e-07
5.17316e-08
-1.36067e-07
1.79085e-07
1.67357e-07
-1.44794e-07
9.92423e-08
2.25048e-07
-1.04036e-07
1.15583e-07
1.63527e-07
3.4119e-08
9.86588e-08
2.67035e-07
6.32309e-08
4.81199e-07
-2.7489e-07
4.14532e-07
-9.20586e-08
-2.35493e-07
3.81044e-07
-8.28392e-08
-1.26758e-07
3.37823e-07
-9.99378e-08
-1.18634e-07
3.27688e-07
-2.95158e-08
-1.90978e-07
2.95511e-07
1.32216e-07
-2.56819e-07
2.00461e-07
3.0809e-07
-2.56719e-07
6.05935e-08
4.46189e-07
-1.54804e-07
6.63731e-09
4.16608e-07
5.22959e-08
-1.49355e-08
5.61844e-07
-6.36954e-08
6.25708e-07
-5.59102e-07
5.36442e-07
1.20541e-07
-4.55983e-07
4.7414e-07
1.81418e-07
-2.90412e-07
4.33468e-07
9.68355e-08
-2.41432e-07
4.02384e-07
1.45578e-07
-3.03453e-07
3.36544e-07
3.62024e-07
-3.704e-07
1.81668e-07
5.90428e-07
-2.74166e-07
-3.30408e-08
7.79778e-07
-8.09524e-08
-2.21014e-07
8.65089e-07
3.94769e-08
-2.98068e-07
1.08705e-06
-5.05755e-07
7.80499e-07
-9.39653e-07
5.04707e-07
6.34551e-07
-9.86715e-07
2.17825e-07
6.40663e-07
-6.54799e-07
9.4934e-08
4.16752e-07
-5.23024e-07
1.63195e-07
2.54665e-07
-4.6384e-07
3.09529e-07
4.43464e-07
-5.42677e-07
2.68079e-07
9.09435e-07
-4.85622e-07
-3.02039e-08
1.39232e-06
-3.28333e-07
-4.4429e-07
1.65221e-06
-2.31314e-07
-6.53742e-07
1.74846e-06
-7.77357e-07
6.01766e-07
-9.77564e-07
6.83805e-07
-6.74665e-10
-3.22285e-06
8.52983e-07
1.09272e-07
-3.26422e-06
8.75828e-07
7.2739e-08
-2.9862e-06
8.25038e-07
1.00876e-07
-2.33178e-06
8.45799e-07
3.55674e-07
-1.58434e-06
6.87574e-07
9.33158e-07
-8.01625e-07
3.21703e-07
1.89247e-06
-1.63633e-07
-1.86293e-07
2.28386e-06
2.57318e-07
-2.53107e-07
2.10587e-06
-5.33452e-07
5.69125e-07
-2.34558e-06
-4.90975e-08
-2.96809e-10
-1.42491e-06
2.82117e-07
-2.58428e-10
-2.86472e-06
7.72524e-07
-2.03891e-10
-3.66782e-06
1.22913e-06
-5.58032e-10
-4.08172e-06
1.64812e-06
6.50221e-09
-4.1251e-06
2.06448e-06
1.06104e-07
-3.68838e-06
2.55055e-06
2.29262e-07
-3.44579e-06
2.76855e-06
5.32759e-07
-2.91186e-06
2.52683e-06
5.05095e-07
-2.01355e-06
1.26708e-06
-3.6415e-06
-2.14236e-11
-1.52445e-10
-2.55747e-10
-2.77637e-12
-9.44427e-11
-3.81527e-10
-2.60348e-11
-2.93522e-11
-4.89152e-10
-4.70477e-10
-5.75403e-12
-5.43139e-10
1.55136e-10
8.06033e-11
-4.49651e-10
1.56076e-08
4.68e-09
-4.17807e-10
4.923e-08
1.04027e-08
-2.47929e-09
1.32389e-07
1.79244e-08
-4.11959e-08
1.69123e-07
1.80812e-08
-4.28897e-08
6.47886e-08
-2.84722e-07
9.86704e-11
-9.36332e-11
-1.64847e-10
2.70216e-10
-2.25392e-10
-3.18137e-10
2.34473e-10
-1.79252e-10
-3.30481e-10
1.45432e-10
-2.9223e-11
-2.92479e-10
2.05915e-10
7.10874e-12
-4.38002e-10
1.85879e-09
1.34472e-10
-1.50111e-09
3.40555e-09
2.37254e-10
-1.26001e-09
5.74793e-09
1.01923e-09
-2.1892e-09
1.01181e-08
2.32694e-09
-3.44239e-09
1.42833e-08
-3.75489e-08
3.09375e-11
-4.54594e-12
-3.04712e-11
4.02596e-10
-2.09525e-10
-1.62953e-11
3.56674e-10
-5.52254e-10
-6.86988e-11
7.36165e-11
-2.12332e-10
-5.911e-11
3.64292e-11
-9.90626e-12
-2.03792e-11
9.69545e-11
-8.67606e-14
-1.55389e-11
2.54263e-10
6.98827e-12
-1.45048e-10
7.81541e-10
1.01127e-10
-3.76708e-10
1.48387e-09
4.07127e-10
-3.74216e-10
2.29889e-09
-5.41708e-09
1.2319e-11
-6.80491e-12
7.53574e-13
5.30165e-10
-1.86652e-10
1.28918e-10
5.40836e-10
-5.6093e-10
1.52062e-10
3.33055e-11
-1.46653e-10
1.32252e-10
8.29623e-12
-4.75077e-12
2.71339e-12
7.15015e-12
-6.99656e-13
-1.43748e-11
2.1581e-11
-4.50137e-12
-3.37916e-11
9.80828e-11
1.19309e-11
-7.74548e-11
2.43634e-10
1.95901e-10
-8.33572e-11
8.30877e-10
-7.13118e-10
4.2693e-11
-3.99062e-11
3.74184e-12
4.37167e-10
-1.9485e-10
1.26494e-10
4.03053e-10
-1.68001e-10
4.06148e-10
4.40604e-11
-1.53337e-11
3.32983e-10
1.39001e-11
3.10534e-12
1.31409e-11
6.40649e-12
2.19493e-12
-9.37922e-12
1.52997e-11
-7.12215e-12
-3.30493e-11
1.00224e-10
6.82943e-11
-1.76908e-10
6.66192e-11
4.19531e-10
-1.80628e-10
6.96088e-10
-2.07092e-10
9.74297e-11
-1.51639e-10
4.28973e-11
3.12682e-10
-1.45834e-10
1.42314e-10
6.32495e-11
-2.79374e-11
4.39002e-10
1.6739e-11
5.77622e-12
1.77471e-10
1.3193e-11
1.01337e-11
1.20521e-11
5.86203e-12
1.83364e-12
-4.79053e-12
1.40027e-11
-7.64935e-12
-3.96809e-11
8.6396e-11
2.41407e-10
-3.94372e-10
2.89783e-11
1.12974e-09
-4.53837e-10
8.98852e-10
-9.61712e-11
2.92727e-10
-1.43659e-10
1.21767e-10
2.97203e-10
-9.43443e-11
2.55984e-10
4.02302e-11
-4.54146e-12
1.35798e-10
2.15071e-11
1.84227e-11
6.24079e-11
7.26888e-12
2.91697e-11
8.60536e-12
2.44115e-12
-2.6297e-12
-9.46802e-12
-1.07398e-11
-3.50306e-12
-4.79023e-11
-1.62623e-10
3.55809e-10
-3.28249e-10
-8.9488e-11
1.50052e-09
-5.38098e-10
8.17935e-10
-6.02284e-11
2.99835e-10
-5.19933e-11
2.20896e-10
1.14159e-10
-2.8745e-11
2.49107e-10
2.11513e-11
4.58281e-12
5.48257e-11
1.5801e-11
3.58464e-11
3.80399e-11
-2.97581e-11
4.02635e-11
1.02985e-11
-8.93249e-11
-2.77743e-10
-2.09686e-10
-1.39887e-10
-1.34206e-10
-4.04802e-10
-3.53621e-10
3.7827e-10
-2.45459e-10
-1.59175e-10
1.35534e-09
-2.02407e-10
4.81744e-10
-4.97717e-11
2.71033e-11
-5.60082e-12
1.74729e-10
3.24203e-11
-3.00079e-12
5.62619e-11
1.94623e-11
4.03289e-12
2.84209e-11
1.33832e-13
4.01589e-11
3.00682e-11
-6.21319e-10
4.56711e-10
5.51102e-12
-9.10343e-10
-2.99043e-10
-1.1835e-09
-6.10509e-10
-2.58081e-10
-1.87201e-09
-5.5796e-10
1.00679e-10
-1.08764e-10
-8.68125e-11
5.48429e-10
-5.97201e-11
8.9707e-11
-1.11912e-11
8.56701e-12
-3.37549e-13
1.05061e-10
2.0087e-11
4.1249e-13
1.43473e-11
9.4863e-12
1.35419e-11
1.37327e-11
-2.72296e-11
8.28787e-11
3.08878e-11
-7.9202e-10
1.10199e-09
-1.71587e-10
-1.14917e-09
-2.91778e-10
-1.19751e-09
-3.76466e-10
-3.52909e-10
-1.99513e-09
-1.88175e-10
3.86745e-11
-2.51568e-10
-1.25772e-11
1.15565e-10
-2.20139e-12
6.19219e-11
-1.12089e-12
8.32124e-13
1.0073e-11
-6.3459e-14
4.03348e-12
4.80559e-12
1.27581e-12
-3.40652e-12
8.54715e-12
2.07661e-11
-1.39827e-10
3.30303e-11
2.07815e-10
-8.05933e-10
-1.92276e-10
1.30151e-09
-1.60247e-09
-9.08333e-10
-2.1515e-10
-1.71211e-10
-1.39309e-09
-1.3641e-10
-4.28242e-11
-1.26218e-10
1.09692e-11
-3.88766e-11
-1.49375e-12
7.43171e-11
-2.76767e-13
4.59079e-10
1.79653e-07
5.16307e-09
1.41533e-07
1.70131e-07
-2.54655e-08
1.3087e-07
1.65836e-07
-3.08359e-08
1.02807e-07
1.54921e-07
-2.41562e-08
7.41297e-08
1.34915e-07
-1.26816e-08
4.61212e-08
1.06554e-07
2.84756e-09
1.74465e-08
7.81633e-08
1.20764e-08
-5.68869e-09
6.39665e-08
4.36396e-09
-1.25376e-08
5.36256e-08
5.68844e-09
-1.49812e-09
6.07355e-08
-1.03836e-07
1.96291e-07
-3.15753e-08
1.79816e-07
2.0072e-07
-1.02595e-07
1.34418e-07
2.25857e-07
-1.12651e-07
6.64489e-08
2.36772e-07
-8.0083e-08
1.24064e-08
2.21248e-07
-2.8204e-08