/*--------------------------------*- C++ -*----------------------------------*\
| =========                 |                                                 |
| \\      /  F ield         | OpenFOAM: The Open Source CFD Toolbox           |
|  \\    /   O peration     | Version:  2312                                  |
|   \\  /    A nd           | Website:  www.openfoam.com                      |
|    \\/     M anipulation  |                                                 |
\*---------------------------------------------------------------------------*/
FoamFile
{
    version     2.0;
    format      ascii;
    arch        "LSB;label=32;scalar=64";
    class       volScalarField;
    location    "0.75";
    object      p_rgh;
}
// * * * * * * * * * * * * * * * * * * * * * * * * * * * * * * * * * * * * * //

dimensions      [1 -1 -2 0 0 0 0];

internalField   nonuniform List<scalar> 
8000
(
389.201
389.951
391.007
392.259
393.604
394.947
396.197
397.234
397.957
398.403
389.251
390.071
391.228
392.609
394.096
395.575
396.943
398.09
398.875
399.407
389.343
390.316
391.709
393.384
395.166
396.922
398.547
399.944
400.91
401.602
389.356
390.551
392.365
394.547
396.739
399.003
401.06
402.789
404.029
404.896
389.267
390.713
393.329
396.297
399.35
402.353
404.938
407.161
408.993
410.327
388.294
390.445
394.414
398.653
402.785
406.768
410.517
413.819
416.185
416.661
371.438
380.739
392.091
401.518
408.129
413.231
418.322
422.803
424.576
423.319
222.393
228.676
261.751
317.243
363.141
388.675
412.271
432.727
436.442
438.013
52.8751
69.5834
107.998
174.815
251.001
308.999
386.433
452.499
458.749
466.923
1.29867
1.68167
2.40633
8.15021
36.4027
116.317
227.236
421.009
487.109
497.589
0.163487
0.160883
0.215975
0.354098
0.857591
1.48759
50.0605
269.579
509.516
526.46
0.0215695
-0.0230027
-0.000955149
0.0415306
0.140896
0.297072
0.34514
75.3976
450.045
519.348
-0.00104849
-0.0154597
-0.0290112
-0.0313138
1.5297e-05
0.044692
0.0728505
-0.055094
151.127
549.733
-0.0209723
-0.00446421
-0.0134265
-0.0430103
-0.0266656
0.0204108
0.0729232
0.139125
52.8568
336.872
-0.0184524
0.00738058
0.0137197
-0.0204557
-0.011939
0.0296693
0.091832
0.250353
-0.15155
4.2969
0.00276394
0.0168288
0.0257433
0.00524281
0.015392
0.0610709
0.0746714
0.0270683
-0.12306
-0.0812577
0.0178997
0.0178795
0.0264413
0.0442126
0.0431897
0.105697
0.0984196
0.0440163
-0.0340293
-0.00373492
0.0143523
0.0149761
0.0359649
0.0479308
0.067396
0.12052
0.102835
0.041918
-0.0149182
0.0251446
0.00191261
0.00617166
0.0371997
0.0370915
0.0456528
0.107937
0.0810255
0.00788381
-0.0368109
0.0134807
-0.0146874
-0.0109688
0.00240115
-0.00722288
0.0419336
0.0939711
0.0450142
-0.0391848
-0.0588272
-0.000684855
388.748
389.494
390.554
391.768
393.051
394.301
395.441
396.473
397.086
397.519
388.755
389.588
390.732
392.071
393.498
394.891
396.175
397.263
397.895
398.442
388.737
389.759
391.143
392.764
394.52
396.174
397.68
398.951
399.653
400.336
388.734
389.972
391.66
393.617
395.776
397.991
399.877
401.555
402.444
403.272
388.46
390.144
392.618
395.423
398.247
401.162
403.519
405.472
406.947
408.103
387.725
390.155
393.6
397.388
401.503
405.318
408.533
411.469
413.415
414.348
383.534
390.114
394.297
399.783
406.342
411.653
416.03
421.155
422.089
421.711
262.452
283.669
316.958
365.267
417.076
421.533
424.727
427.08
430.39
431.344
29.7888
56.7451
92.3713
149.86
255.217
366.801
433.678
452.199
451.548
457.035
0.0618782
0.132055
0.229295
0.401381
7.47559
55.6168
144.048
289.241
428.941
451.468
-0.247215
-0.192382
-0.107776
-0.0209384
0.0904317
0.285446
0.473305
26.5801
171.609
356.543
-0.232499
-0.257921
-0.195001
-0.118401
-0.0476269
0.0290027
0.0328626
-0.0396369
-0.296839
137.685
-0.145075
-0.228461
-0.243806
-0.179763
-0.0925432
-0.027934
0.000974572
-0.0088468
-0.0562671
12.5361
-0.11521
-0.136257
-0.182492
-0.186271
-0.10537
-0.0276676
0.021843
0.0344066
0.0199754
27.185
-0.0828225
-0.0554178
-0.0683243
-0.129143
-0.0942282
-0.0288884
0.0203238
0.012209
-0.0686476
21.1948
-0.0167102
0.0023546
0.0110096
-0.0622414
-0.0714365
-0.0154043
0.0166129
-0.0163221
-0.0954467
3.16437
0.0201868
0.0194193
0.0305219
-0.0116281
-0.0479785
0.0173457
0.0229679
-0.0425863
-0.0977636
-0.0580259
0.0212183
0.0137694
0.0191425
0.0334031
-0.0366251
0.0662221
0.0361281
-0.0700311
-0.116653
-0.0533707
0.0128415
0.00612496
-0.00414878
0.0205354
0.025103
0.134256
0.0611647
-0.100621
-0.134926
-0.0700378
-0.0398484
-0.053666
-0.0426359
-0.00924118
0.0449884
0.137607
0.0120818
-0.101839
-0.157914
-0.0837404
388.051
388.834
389.799
390.935
392.136
393.313
394.393
395.327
395.939
396.317
388.034
388.876
389.956
391.195
392.51
393.803
395.002
396.053
396.711
397.117
388.026
389.021
390.318
391.796
393.384
394.95
396.301
397.57
398.204
398.748
387.993
389.251
390.916
392.655
394.539
396.445
398.271
399.768
400.439
401.147
388.066
389.717
391.784
394.159
396.741
399.466
401.379
403.066
403.873
404.706
388.616
390.846
393.133
395.665
398.887
402.166
405.019
407.305
408.778
409.603
388.751
391.89
394.882
398.081
402.504
407.024
411.034
415.105
416.933
417.758
316.151
334.729
348.053
369.174
404.071
416.569
419.107
422.199
422.365
400.112
43.7382
77.9932
104.151
137.924
193.411
281.42
357.474
417.428
435.708
402.285
-0.0926568
-0.069446
-0.0150791
0.0556406
0.334879
9.27853
31.652
85.3257
142.939
242.859
-0.219186
-0.200089
-0.146602
-0.0759189
-0.00842381
0.0546672
0.106066
0.311281
2.17914
40.4679
-0.172657
-0.212092
-0.176275
-0.119564
-0.0588189
0.00474527
0.0441503
0.0726768
-0.0306808
0.677369
-0.213683
-0.26853
-0.253458
-0.188113
-0.0956389
-0.0257508
0.0199088
0.0475905
-0.0123988
0.227793
-0.202754
-0.233158
-0.243508
-0.204005
-0.125408
-0.0561717
0.000316332
0.0328775
-0.00132334
0.145563
-0.137558
-0.124971
-0.136607
-0.160976
-0.123625
-0.0702311
-0.0170881
-0.0184323
-0.0778476
0.905914
-0.0406354
-0.0274884
-0.0299537
-0.0790749
-0.0896627
-0.033071
-0.0252977
-0.0784793
-0.154561
0.724508
0.00832158
0.00519484
0.00877858
-0.0139557
-0.0219698
0.0199896
-0.0111346
-0.118494
-0.175902
0.361286
0.0128736
-0.00194113
-0.00112193
0.0347594
0.0224722
0.137563
0.076111
-0.13643
-0.175723
0.0469837
-0.0201291
-0.0240131
-0.0166467
0.0552586
0.0536975
0.137128
0.0652768
-0.155212
-0.115163
-0.0185485
-0.0880944
-0.0990879
-0.0669171
0.0171119
0.0961482
0.117771
-0.0737161
-0.206145
-0.116194
-0.102578
386.949
387.74
388.694
389.756
390.849
391.909
392.882
393.717
394.286
394.623
386.868
387.735
388.766
389.898
391.061
392.171
393.236
394.21
394.826
395.183
386.739
387.75
388.94
390.233
391.573
392.98
394.318
395.343
396.015
396.299
386.614
387.824
389.178
390.656
392.162
393.686
395.222
396.909
397.326
397.838
386.596
388.131
389.822
391.509
393.399
395.549
397.672
399.397
400.072
400.579
387.313
389.015
390.63
392.3
394.4
397.199
400.069
402.323
403.45
403.923
387.748
389.72
391.816
393.597
395.174
399.354
403.754
407.287
408.491
409.866
332.453
339.372
343.117
346.25
364.441
400.124
410.177
414.749
413.637
363.171
52.6589
80.4306
90.8028
84.4995
78.5041
110.624
192.851
293.23
302.92
304.121
-0.154515
-0.147909
-0.0767199
0.0170744
0.0974936
0.159687
0.390522
7.31531
17.7831
73.0453
-0.186692
-0.168885
-0.0961214
-0.0367142
0.00674947
0.0605116
0.0978405
0.141917
0.144202
0.483579
-0.142866
-0.187887
-0.116744
-0.0413667
-0.030331
0.0137288
0.062932
0.0958482
0.0842087
0.214884
-0.196945
-0.217533
-0.19753
-0.13677
-0.0675911
-0.0087026
0.0332039
0.048214
0.011433
0.150234
-0.185527
-0.194207
-0.196854
-0.167739
-0.100945
-0.0446691
-0.00682631
-0.00673326
-0.0589684
0.0701275
-0.123752
-0.109986
-0.119974
-0.124268
-0.0870758
-0.0420503
-0.024728
-0.0649274
-0.126208
0.00575975
-0.0408332
-0.0339644
-0.038245
-0.0488184
-0.0267624
0.00123253
-0.026425
-0.0918981
-0.130588
-0.0446894
-0.0112877
-0.0180561
-0.00946415
0.00753608
0.028773
0.0515545
-0.00281272
-0.0818537
-0.0979965
-0.0467873
-0.0282685
-0.0333843
-0.0134207
0.0416102
0.07036
0.0900695
0.0465742
-0.10639
-0.0805698
-0.040485
-0.0708411
-0.0662732
-0.0261276
0.0489662
0.107693
0.0515924
-0.0234911
-0.117131
-0.104274
-0.063045
-0.13163
-0.131884
-0.0761454
0.0254891
0.0975098
0.034002
-0.0893209
-0.136802
-0.113427
-0.0864985
385.662
386.47
387.393
388.372
389.349
390.285
391.137
391.855
392.355
392.646
385.485
386.38
387.369
388.396
389.413
390.385
391.259
392.097
392.638
392.955
385.171
386.209
387.33
388.472
389.622
390.799
391.925
392.757
393.353
393.63
384.682
385.984
387.25
388.478
389.692
390.962
392.154
393.417
393.924
394.4
384.273
385.818
387.215
388.602
390.081
391.771
393.502
395.109
395.724
396.176
382.208
385.505
387.049
388.012
389.633
392.014
394.518
396.583
397.473
397.615
385.813
386.241
387.177
387.731
388.936
392.058
395.938
398.92
399.379
398.99
318.433
305.225
311.111
320.137
329.836
365.751
401.169
407.2
404.864
327.175
42.8799
41.9589
33.4805
18.1177
13.5435
27.5098
68.4003
151.074
155.153
191.452
-0.193674
-0.13829
-0.0290124
0.0381801
0.115477
0.168004
0.219201
0.308328
0.324243
10.9544
-0.168373
-0.114293
-0.00481017
0.0598145
0.0753164
0.139679
0.160071
0.163634
0.159684
0.187066
-0.121627
-0.105827
-0.0240969
0.0302588
0.0482295
0.0452707
0.120057
0.171162
0.138374
0.200481
-0.146503
-0.140204
-0.0765077
0.000485199
0.0233071
0.0226899
0.0475035
0.0467488
0.0128105
0.107443
-0.132995
-0.126536
-0.103421
-0.0261033
0.00111491
-0.000209786
0.00315744
-0.0264272
-0.0864057
0.0171268
-0.0998512
-0.0840495
-0.0616873
-0.0520487
-0.00849016
0.0110291
-0.0103289
-0.0619039
-0.0945532
-0.0223838
-0.0495971
-0.0165871
-0.0234707
-0.00585945
0.0363548
0.0623434
0.000569754
-0.0550961
-0.045543
-0.0135073
0.0110799
0.0212634
-0.0117612
0.0341183
0.0765827
0.112744
0.0162413
-0.0382262
-0.0260958
0.00607722
0.0186045
-0.0318249
-0.0233538
0.0653513
0.126
0.274129
0.0260794
-0.0421781
-0.0235168
-0.000359173
-0.0294684
-0.0927613
-0.0420178
0.0624373
0.132873
0.170212
-0.0099035
-0.0617736
-0.0430125
-0.0247615
-0.15521
-0.176181
-0.093572
0.0296884
0.0736285
-0.0147608
-0.0470303
-0.095472
-0.0757176
-0.0528106
384.347
385.164
386.053
386.952
387.811
388.615
389.335
389.934
390.346
390.6
384.088
384.998
385.938
386.866
387.737
388.54
389.258
389.929
390.366
390.666
383.573
384.627
385.695
386.688
387.629
388.583
389.455
390.146
390.597
390.892
382.862
384.155
385.331
386.318
387.207
388.138
389.073
390.005
390.466
390.885
381.764
383.297
384.678
385.759
386.754
387.946
389.114
390.458
391.195
391.707
376.032
381.151
383.459
384.173
385.017
386.892
389.247
390.726
391.282
391.67
377.376
381.827
382.369
382.004
381.697
384.005
387.282
389.68
389.322
391.65
278.3
273.696
287.523
291.659
284.412
335.412
379.342
397.87
387.346
297.127
7.36031
4.32788
2.10415
0.475138
0.442979
0.61569
14.0339
48.6464
55.0406
97.1711
-0.191561
-0.0583019
0.0916858
0.177288
0.191528
0.207194
0.193393
0.228507
0.229892
0.454912
-0.142268
-0.0572559
0.0576473
0.126808
0.130861
0.198371
0.19968
0.158332
0.155758
0.207137
-0.0819209
-0.058645
0.0362132
0.0874247
0.0768587
0.113698
0.188155
0.210846
0.178679
0.19278
-0.113156
-0.0882726
-0.0142611
0.0659994
0.0664422
0.0414156
0.0700086
0.0440277
0.0290844
0.0825365
-0.0980044
-0.0797168
-0.0381933
0.0628871
0.0614844
0.0382142
0.0201736
-0.0154021
-0.0749656
-0.00597836
-0.0846141
-0.05786
-0.0202501
0.0431729
0.0640564
0.0825607
0.114525
-0.00400854
-0.0616672
-0.0206518
-0.0325792
0.0186391
0.00640434
0.0253292
0.0852131
0.158227
0.277111
-0.00585482
-0.0318955
0.0388057
0.00407195
0.00808139
-0.000182054
0.0520475
0.135951
0.586448
0.300362
-0.0114146
-0.00334799
0.0626687
-0.0227747
-0.0240331
-0.0396139
0.0679356
0.201787
0.877341
0.120002
-0.0164656
-0.0137363
0.0175971
-0.0711303
-0.129932
-0.069524
0.0588057
0.60479
0.690357
-0.00153612
-0.0346225
-0.034633
-0.0175691
-0.140266
-0.212911
-0.113139
0.0679225
0.380599
-0.0252213
-0.0231858
-0.0546378
-0.0560577
-0.0397388
383.122
383.944
384.793
385.61
386.354
387.04
387.655
388.121
388.447
388.659
382.805
383.737
384.609
385.434
386.162
386.812
387.348
387.908
388.239
388.509
382.144
383.188
384.192
385.038
385.762
386.536
387.211
387.696
388.037
388.27
381.199
382.676
383.642
384.366
384.887
385.502
386.133
386.694
387.037
387.497
379.594
381.427
382.571
383.148
383.531
384.35
385.014
385.774
386.723
387.375
378.184
379.465
380.675
380.446
380.16
381.328
383.302
384.304
384.722
385.655
371.843
377.263
378.208
374.284
369.875
372.801
374.927
377.37
379.576
382.169
214.119
249.431
262.427
201.94
152.27
176.906
229.171
302.708
320.881
265.203
0.0708802
0.18603
0.306441
0.362837
0.330961
0.354335
0.518806
0.711398
1.10188
48.0296
-0.0908608
0.0492048
0.196746
0.294087
0.266442
0.223418
0.196542
0.265831
0.261917
0.457865
-0.0971261
-0.00639527
0.0929603
0.135092
0.137674
0.186139
0.156021
0.152091
0.159259
0.22616
-0.0762919
-0.03984
0.0423167
0.0786854
0.0811149
0.143836
0.23029
0.177016
0.113728
0.129668
-0.0841097
-0.0483805
-0.00283053
0.0673226
0.0551025
0.0660823
0.106316
0.0769066
-0.00585748
0.0390118
-0.0785506
-0.0507539
-0.0138448
0.0491483
0.0581154
0.0869604
0.211938
0.0704985
-0.089927
-0.0305666
-0.0758305
-0.0183675
0.00304907
0.0398136
0.0759371
0.172579
0.57755
0.0407015
-0.0787625
-0.0351928
-0.0222859
0.00937393
0.0107296
0.0362794
0.116191
0.617414
0.68655
-0.0224617
-0.0490569
0.0513365
-0.0235395
-0.0214794
-0.029363
0.0417467
0.203652
0.882989
0.712437
0.00510963
0.00908931
0.0908645
-0.0647733
-0.0651394
-0.0765887
0.0365509
0.752456
0.890551
0.153405
0.0282891
-0.00453861
0.0418993
-0.142403
-0.132556
-0.111777
0.129983
0.929331
0.624127
0.000197726
0.171528
-0.0315196
-0.00463097
-0.204769
-0.218058
-0.151516
0.242461
0.316542
-0.126653
0.0552756
0.456943
-0.0498091
-0.030442
382.12
382.943
383.753
384.515
385.193
385.788
386.263
386.627
386.86
387.026
381.737
382.655
383.503
384.271
384.939
385.494
385.909
386.287
386.483
386.652
380.96
382.015
382.966
383.739
384.401
384.954
385.397
385.678
385.819
385.938
379.794
381.365
382.335
382.926
383.335
383.782
384.001
384.015
383.998
384.65
378.097
379.235
380.762
381.187
381.348
381.833
381.768
381.679
382.63
383.211
375.809
375.768
377.865
377.921
377.818
378.206
377.807
376.79
377.103
378.713
367.108
371.671
370.85
361.029
367.369
367.925
364.875
356.928
358.908
367.567
178.743
230.893
198.765
117.637
99.6835
118.275
110.758
105.909
140.713
194.47
0.106671
0.236196
0.334055
0.388318
0.535018
0.543605
0.572394
0.59886
0.555205
30.0236
-0.0183254
0.154242
0.280282
0.36733
0.403926
0.37085
0.261993
0.294537
0.286409
0.341831
-0.0624219
0.0405208
0.105241
0.183226
0.204678
0.204075
0.180045
0.13749
0.108684
0.211318
-0.0605356
0.000378464
0.047032
0.0873237
0.110664
0.146703
0.181937
0.122424
0.0639616
0.0955777
-0.0618722
-0.0256957
0.00722229
0.0426238
0.0511169
0.0938927
0.37274
0.107447
-0.0406752
-0.00565788
-0.0606721
-0.0349931
-0.00935044
0.0326518
0.047702
0.122528
0.523401
0.0275159
-0.149848
-0.075516
-0.0232897
-0.0163853
-0.0228489
0.0327582
0.0825824
0.498003
0.560312
-0.108507
-0.162028
-0.0689529
-0.0226896
-0.0381199
-0.0483616
0.00660335
0.265005
0.79648
0.653462
-0.0551618
-0.0678118
0.0226681
-0.0554679
-0.093041
-0.0852694
-0.0187645
0.850113
0.823303
0.455615
0.048267
0.00448261
0.0862431
-0.160384
-0.137482
-0.126334
0.23099
0.784177
0.816886
0.168699
0.393594
-0.0191743
0.0407706
-0.187965
-0.175769
-0.0559166
0.799127
0.748471
0.183177
0.0146117
0.613839
-0.0178311
-0.0115459
-0.162089
-0.180792
-0.0458695
0.301068
0.604007
-0.165551
-0.0385281
0.590974
0.0285988
-0.0440509
381.4
382.202
382.959
383.683
384.333
384.888
385.287
385.575
385.741
385.879
380.991
381.879
382.663
383.416
384.072
384.582
384.935
385.153
385.275
385.427
380.128
381.205
382.08
382.845
383.422
383.953
384.279
384.337
384.295
384.455
378.88
380.323
381.176
381.911
382.551
382.618
382.873
382.512
382.127
382.701
377.184
378.269
378.665
379.192
380.51
380.708
380.517
379.563
379.619
380.271
375.317
373.99
368.587
373.14
377.216
377.801
376.793
373.827
372.603
373.802
369.091
369.102
355.447
348.425
357.533
355.873
365.245
356.653
333.81
349.158
202.76
239.382
163.709
95.2893
104.969
118.241
108.835
72.0934
60.8861
134.887
0.156269
0.299206
0.41033
0.614167
1.2082
1.7046
0.670106
0.260236
0.413631
13.2316
0.102489
0.238754
0.357932
0.542246
0.82131
0.859468
0.457598
0.272255
0.290903
0.472307
0.0165596
0.0879818
0.145504
0.289691
0.574553
0.618251
0.291726
0.12888
0.0603896
0.211191
-0.0113586
0.0375375
0.0475936
0.100535
0.337357
0.479687
0.285538
0.0379264
-0.0231116
0.0564156
-0.0403245
0.0018124
0.00285016
0.0154883
0.0291081
0.293274
0.473865
-0.0656152
-0.113396
-0.0614217
-0.024587
-0.0259275
-0.0197938
0.0151041
0.0290643
0.045486
0.448309
-0.148061
-0.173642
-0.117122
-0.0109262
-0.0579513
-0.0517211
0.123669
0.347377
0.0584622
0.421386
-0.158798
-0.180365
-0.0908041
-0.0370904
-0.0980646
-0.0889308
0.599549
0.788799
0.136508
0.0299915
-0.049919
-0.0758421
-0.0107677
-0.119051
-0.127859
-0.0290147
0.698666
0.750948
0.433566
-0.0294799
0.340995
-0.0310619
0.0534796
-0.133343
-0.139596
-0.0054855
0.507711
0.699939
0.719748
0.00344566
0.562859
-0.0243865
-0.0111189
-0.104033
-0.120674
-0.0280958
-0.174052
0.676605
0.736054
0.255621
0.527839
0.0622954
-0.0663064
-0.0621813
-0.103339
-0.199703
-0.188657
0.682403
0.712606
0.160148
0.523366
0.178434
-0.0880095
380.696
381.731
382.436
383.182
383.919
384.457
384.808
385.048
385.169
385.286
380.074
381.395
382.114
382.905
383.766
384.317
384.526
384.649
384.69
384.81
377.969
380.54
381.515
382.376
383.398
384.006
384.084
383.897
383.659
383.761
375.348
379.447
380.791
381.794
382.845
382.538
382.906
382.367
381.487
381.884
372.901
377.685
378.889
380.094
381.367
379.19
381.566
379.929
378.949
379.309
372.392
375.761
374.966
372.194
377.867
381.941
379.097
374.96
371.749
372.021
371.905
372.997
367.044
368.109
372.242
375.253
360.038
362.266
334.232
338.467
242.864
239.661
159.281
132.027
163.354
189.895
160.065
116.012
58.8975
113.171
0.224993
0.364219
0.498542
0.801218
1.1832
2.54006
1.26068
0.239634
0.521076
5.86764
0.240763
0.324752
0.453431
0.705738
0.977732
1.12885
0.719902
0.305779
0.303493
0.54365
0.166131
0.198635
0.28231
0.512282
0.68776
0.841903
0.521613
0.14855
0.0595018
0.212283
0.0250476
0.0546956
0.308092
0.804132
0.548198
0.657615
0.557866
-0.000717344
-0.082554
0.00921462
-0.0124607
0.00810691
0.580239
0.727597
0.790078
0.217892
0.394242
-0.139117
-0.197633
-0.117162
-0.0289704
0.0590795
0.619251
0.699552
0.730841
0.078096
0.351139
-0.242092
-0.249592
-0.15576
-0.0480293
0.104732
0.609117
0.68462
0.716357
0.311496
0.205475
-0.200174
-0.222945
-0.122607
-0.0900946
0.108464
0.586256
0.661261
0.709583
0.554919
-0.0974837
-0.136289
-0.12866
-0.0507171
-0.0894037
-0.0011492
0.139258
0.637728
0.70202
0.668234
-0.147752
0.0284952
-0.0871699
-0.0364828
-0.0537989
-0.0810861
-0.188657
0.330543
0.705068
0.714653
-0.177182
0.412383
-0.0379606
-0.0935184
-0.016207
-0.0685499
-0.177268
-0.208165
0.732618
0.752294
0.229732
0.385902
0.0402678
-0.136576
-0.00160752
-0.0618777
-0.185216
-0.25218
0.189827
0.778161
0.663635
0.36502
0.113395
-0.162703
380.537
381.532
382.234
382.982
383.725
384.318
384.718
384.99
385.127
385.239
379.464
381.204
381.898
382.717
383.578
384.193
384.482
384.635
384.689
384.809
377.6
380.364
381.22
382.172
383.408
384.1
384.145
384.023
383.81
383.852
374.984
378.965
380.17
381.449
383.088
383.764
383.296
382.824
381.949
382.146
372.142
376.56
377.319
379.94
382.176
380.678
382.476
381.079
379.501
379.666
372.065
374.899
375.064
374.868
380.671
383.607
382.565
376.932
371.794
372.369
373.68
372.501
367.808
365.797
370.753
378.168
376.588
367.305
353.847
344.447
264.299
248.225
164.358
119.304
150.915
230.142
247.881
191.857
98.5543
125.625
0.280236
0.396618
0.541974
0.799853
1.22561
6.67192
11.566
4.83605
1.71013
5.10494
0.298967
0.36726
0.501234
0.73784
0.984239
1.1906
0.739861
0.240619
0.323869
0.537301
0.276448
0.334227
0.350652
0.511214
0.737309
0.855279
0.448931
0.159027
0.0922322
0.245302
0.173682
0.209955
0.21119
0.323842
0.571309
0.613145
0.319104
-0.0621458
-0.0632499
0.0271031
0.00540435
0.0877111
0.0910662
0.325353
0.252086
0.316403
0.298329
-0.205532
-0.244443
-0.12869
-0.0471443
-0.0209881
0.341717
0.696644
0.139525
0.0106418
0.242762
-0.282023
-0.311562
-0.193389
-0.0808408
-0.0209612
0.590254
0.65103
0.470454
-0.0824096
0.220953
-0.268416
-0.280007
-0.162341
-0.0783337
-0.047458
0.641236
0.635812
0.58004
-0.114898
-0.101758
-0.241883
-0.199135
-0.11607
-0.0418314
-0.0570438
0.663824
0.652971
0.586897
0.067179
-0.335688
-0.231475
-0.161492
-0.11993
0.000453258
0.00799687
0.238089
0.713472
0.636772
0.440568
-0.378814
-0.245174
-0.0375601
-0.16513
0.137143
0.42592
0.0478075
0.762053
0.712794
0.623697
-0.36233
-0.350017
-0.0651209
-0.118516
0.475037
0.667675
-0.0359559
0.190722
0.788044
0.708292
-0.0356676
-0.359912
-0.230339
-0.152714
381.145
381.667
382.293
383.032
383.796
384.482
385.01
385.381
385.592
385.687
380.666
381.159
381.836
382.681
383.552
384.277
384.782
385.022
385.222
385.372
379.692
380.089
380.889
381.853
382.953
383.941
384.469
384.662
384.601
384.623
378.022
378.07
378.48
380.063
382.183
383.021
383.729
383.552
383.266
383.29
375.587
372.035
370.301
373.947
380.895
381.95
383.03
382.016
381.15
381.407
373.326
368.7
365.568
373.519
377.49
380.95
381.235
378.505
375.141
375.339
370.825
366.394
354.473
345.721
352.619
371.492
374.88
371.459
355.713
353.953
203.216
195.626
121.592
67.4646
95.13
172.953
221.773
210.382
123.875
146.933
0.31132
0.397125
0.57559
0.969549
1.38402
2.10771
6.65509
5.19244
0.822916
8.90782
0.331833
0.367933
0.530449
0.819504
1.03199
0.966418
0.504849
0.302838
0.418485
0.552475
0.278212
0.297929
0.37943
0.532255
0.79168
0.644876
0.359784
0.201806
0.210517
0.262059
0.193594
0.230084
0.223037
0.363474
0.735432
0.571036
0.0965457
-0.0545418
0.0225488
0.00533056
0.0219909
0.0320444
0.0637724
0.123599
0.260327
0.335145
-0.0292798
-0.236262
-0.197928
-0.162665
-0.0509107
-0.070468
0.0365958
0.111035
-0.0114821
0.209867
-0.108138
-0.307031
-0.362029
-0.231562
-0.0726906
-0.0737593
0.587647
0.432143
-0.129702
-0.239659
-0.158594
-0.316825
-0.334125
-0.202062
-0.0437567
0.108863
0.687783
0.350585
-0.227579
-0.349212
-0.262693
-0.299608
-0.255432
-0.166012
0.000608127
0.800438
0.712377
0.254409
-0.30208
-0.416343
-0.387411
-0.302065
-0.197459
-0.161585
0.229064
0.90012
0.740653
0.64765
-0.148537
-0.422275
-0.42143
-0.354436
-0.0954604
-0.0309154
0.911975
0.892104
0.781715
0.705945
0.424383
-0.381271
-0.40605
-0.434565
-0.260651
-0.0841377
0.955762
0.893496
0.815389
0.765431
0.742313
-0.300378
-0.361837
-0.399869
-0.375235
-0.0555424
381.591
381.986
382.583
383.354
384.17
384.985
385.671
386.214
386.556
386.82
381.09
381.427
382.06
382.946
383.866
384.745
385.453
385.892
386.263
386.539
380.071
380.241
381.137
382.082
383.253
384.353
385.174
385.706
385.928
386.11
378.442
377.186
378.613
380.516
382.025
383.517
384.478
384.825
384.979
385.182
375.638
368.503
374.19
377.702
380.204
382.577
383.653
383.538
383.645
384.185
373.043
369.297
371.781
373.315
375.99
379.708
381.575
381.014
379.837
380.25
364.744
354.176
340.546
337.008
363.515
372.112
375.832
372.628
364.116
370.69
189.089
155.133
94.1013
51.7731
93.5247
177.571
228.137
201.037
166.48
198.427
0.355701
0.464808
0.672045
1.13074
1.23661
1.55722
5.83745
3.23931
0.592942
20.4819
0.314566
0.350701
0.54107
0.873564
0.968428
0.682979
0.333118
0.391959
0.495256
0.586004
0.236648
0.218512
0.537162
0.868403
0.799868
0.401069
0.228056
0.256504
0.239487
0.282164
0.116289
0.0927458
0.547501
0.675732
0.62629
0.273336
-0.0361116
0.0412509
0.0108185
-0.0184525
0.0161601
-0.0114273
0.072665
0.511155
0.430927
0.144592
-0.163407
-0.106585
-0.189092
-0.198401
-0.0428835
-0.0670309
-0.0899496
0.39583
0.327598
-0.0653839
-0.218232
-0.209308
-0.3773
-0.263715
-0.0650644
-0.0873946
0.00940797
0.347996
0.255854
-0.270959
-0.309073
-0.331279
-0.381016
-0.242372
-0.0520386
0.0572855
0.378116
0.298426
0.00974603
-0.365346
-0.334297
-0.322788
-0.306862
-0.205217
0.450505
0.670395
0.387599
0.265135
-0.36863
-0.38792
-0.366671
-0.314494
-0.245157
-0.193508
0.779605
0.721604
-0.129119
-0.166112
-0.418229
-0.374167
-0.377604
-0.405611
-0.165422
-0.100365
0.736133
0.415042
-0.0477694
-0.352492
-0.394034
-0.369298
-0.372838
-0.442605
-0.394464
-0.129798
0.121889
0.259273
0.761457
0.0242775
-0.34234
-0.359128
-0.360388
-0.403698
-0.400218
-0.180113
382.335
382.593
383.154
383.959
384.877
385.819
386.671
387.367
387.866
388.134
381.848
382.09
382.713
383.586
384.574
385.6
386.513
387.209
387.694
388.025
380.885
381.06
381.732
382.74
384.001
385.278
386.406
387.296
387.767
388.016
379.368
378.771
379.92
381.061
382.409
384.368
385.879
386.773
387.279
387.571
376.805
374.879
377.049
378.692
380.982
383.424
385.244
386.282
387.076
387.554
372.181
371.693
371.959
373.389
377.056
380.915
383.991
385.69
386.294
385.753
347.129
352.819
346.85
342.787
362.262
372.724
378.012
379.755
380.603
382.069
239.519
155.992
99.2429
60.7095
86.734
190.966
265.236
291.132
337.562
255.087
0.394169
0.559774
0.781781
1.02686
1.03226
2.36716
11.0914
0.879928
0.748331
54.1984
0.300187
0.360435
0.570927
0.93653
0.818679
0.512393
0.304166
0.410592
0.447301
0.563819
0.243581
0.213369
0.552264
0.878143
0.663854
0.235981
0.129411
0.142933
0.150031
0.278129
0.144116
0.083237
0.570051
0.604781
0.499292
-0.00133194
-0.12054
-0.0652206
-0.105297
-0.00419639
-0.000492621
-0.0234705
0.148744
0.445791
0.295164
-0.201992
-0.267119
-0.181879
-0.259617
-0.177928
-0.0789543
-0.0955755
-0.136354
0.308476
0.0481385
-0.305377
-0.308267
-0.190892
-0.347889
-0.252978
-0.0574982
-0.149255
-0.184569
0.0362887
-0.0948545
-0.329314
-0.268231
-0.187153
-0.390493
-0.263793
0.221344
-0.0579586
-0.238354
0.0934776
-0.206915
-0.332527
-0.265901
-0.275444
-0.347789
-0.243299
0.29362
0.0594296
-0.252555
-0.119301
-0.302835
-0.330618
-0.303
-0.286037
-0.315768
-0.259169
-0.0662251
-0.15616
-0.249328
-0.343739
-0.36802
-0.326963
-0.340641
-0.389811
-0.280518
-0.143083
-0.2588
-0.271521
-0.214908
-0.351089
-0.389852
-0.369372
-0.369856
-0.434302
-0.40118
-0.185267
-0.191665
-0.199336
-0.175882
-0.303748
-0.360064
-0.38538
-0.405855
-0.443766
-0.420617
-0.329316
383.176
383.41
383.986
384.869
385.886
386.952
387.96
388.844
389.415
389.749
382.708
382.948
383.587
384.546
385.655
386.833
387.927
388.871
389.452
389.867
381.733
382.026
382.711
383.885
385.317
386.819
388.152
389.29
390.029
390.333
380.197
380.112
381.13
382.578
384.301
386.258
387.984
389.39
390.025
390.438
376.793
377.776
378.666
380.752
383.418
385.975
388.293
390.177
391.176
391.646
360.928
369.794
374.327
376.679
380.66
385.383
389.018
391.329
392.168
391.819
331.813
355.409
362.367
366.071
372.776
380.583
386.358
390.421
391.653
391.831
271.102
174.696
133.755
150.933
208.391
324.615
384.501
397.983
399.403
307.54
0.557508
0.680128
0.894783
1.03583
1.03704
5.84889
22.6989
41.3063
75.7057
130.715
0.440279
0.509314
0.790943
0.891318
0.692022
0.425787
0.312741
0.430629
0.498971
1.08932
0.575514
0.612472
0.82338
0.794975
0.483318
0.139037
0.0873005
0.12849
0.180312
0.294204
0.502045
0.495179
0.551211
0.495723
0.0966287
-0.141241
-0.153923
-0.137499
-0.0836688
0.0551903
0.126419
0.0350811
0.235378
-0.00565167
-0.206554
-0.285376
-0.295921
-0.280695
-0.244509
-0.122011
-0.17019
-0.165286
-0.181606
-0.19077
-0.287263
-0.335012
-0.33969
-0.315399
-0.330025
-0.227247
-0.198503
-0.2245
-0.23008
-0.260326
-0.325368
-0.336743
-0.321836
-0.294431
-0.367822
-0.266697
-0.124417
-0.286866
-0.255909
-0.289358
-0.339341
-0.326973
-0.286886
-0.275826
-0.36161
-0.273903
-0.209623
-0.346834
-0.335187
-0.34336
-0.358766
-0.310988
-0.292864
-0.292775
-0.350626
-0.284685
-0.311306
-0.336754
-0.368773
-0.377427
-0.389842
-0.33378
-0.33777
-0.356212
-0.372004
-0.3118
-0.25934
-0.280891
-0.31404
-0.359363
-0.41749
-0.409929
-0.416612
-0.410845
-0.359085
-0.311532
-0.181129
-0.198798
-0.227282
-0.278138
-0.361593
-0.438807
-0.470257
-0.467306
-0.372546
-0.346649
384.089
384.335
384.949
385.896
387.026
388.231
389.394
390.394
391.08
391.48
383.64
383.919
384.62
385.671
386.914
388.229
389.502
390.647
391.376
391.868
382.604
383.036
383.901
385.232
386.847
388.562
390.19
391.47
392.391
392.818
380.887
381.285
382.672
384.395
386.382
388.475
390.379
392.242
393.129
393.985
373.836
378.352
380.955
383.512
386.427
389.398
392.007
394.492
395.398
396.19
356.929
371.971
378.095
381.488
385.575
389.963
393.626
396.557
397.94
398.45
349.107
367.191
375.426
381.512
386.599
391.18
394.986
399.193
401.037
401.718
247.704
183.026
203.176
290.21
361.231
399.601
403.991
408.901
409.856
365.549
1.02476
1.11693
1.16458
3.2289
10.9236
30.692
77.1973
156.723
216.56
257.838
0.853257
0.952587
1.08242
0.815601
0.567363
0.358453
0.461922
0.648429
2.01497
30.1224
0.652047
0.720606
0.730721
0.575177
0.174423
0.0899625
0.124197
0.208207
0.199569
0.376346
0.426108
0.500451
0.469967
0.0491133
-0.169304
-0.175637
-0.148727
-0.081135
-0.0190358
0.131509
0.289619
0.386592
-0.0204085
-0.192625
-0.249798
-0.284495
-0.285309
-0.242121
-0.173206
-0.0714634
-0.240331
0.118422
-0.134908
-0.249236
-0.290639
-0.322094
-0.330054
-0.31186
-0.27242
-0.191698
-0.350297
-0.338971
-0.206052
-0.307938
-0.325124
-0.336459
-0.335019
-0.324356
-0.324803
-0.255876
-0.408377
-0.415602
-0.333509
-0.3761
-0.358101
-0.339465
-0.337751
-0.325066
-0.35632
-0.283612
-0.412231
-0.398323
-0.434182
-0.453824
-0.413047
-0.347053
-0.340557
-0.345972
-0.364664
-0.298029
-0.356443
-0.359219
-0.454082
-0.498929
-0.494452
-0.41409
-0.376042
-0.373258
-0.376788
-0.319917
-0.258901
-0.275358
-0.385957
-0.461955
-0.507111
-0.509018
-0.467931
-0.423887
-0.390577
-0.343369
-0.158741
-0.202243
-0.253513
-0.316375
-0.380979
-0.491918
-0.487086
-0.46444
-0.390002
-0.353496
385.03
385.287
385.936
386.944
388.176
389.505
390.795
391.909
392.686
393.149
384.667
384.963
385.697
386.825
388.197
389.676
391.102
392.398
393.248
393.778
383.865
384.28
385.196
386.621
388.363
390.234
392.119
393.602
394.623
395.101
382.57
383.118
384.363
386.188
388.381
390.678
392.8
395.223
396
397.01
380.183
381.438
383.309
385.968
389.093
392.56
395.551
398.323