/*--------------------------------*- C++ -*----------------------------------*\
| =========                 |                                                 |
| \\      /  F ield         | OpenFOAM: The Open Source CFD Toolbox           |
|  \\    /   O peration     | Version:  2312                                  |
|   \\  /    A nd           | Website:  www.openfoam.com                      |
|    \\/     M anipulation  |                                                 |
\*---------------------------------------------------------------------------*/
FoamFile
{
    version     2.0;
    format      ascii;
    arch        "LSB;label=32;scalar=64";
    class       surfaceScalarField;
    location    "0.75";
    object      phi;
}
// * * * * * * * * * * * * * * * * * * * * * * * * * * * * * * * * * * * * * //

dimensions      [0 3 -1 0 0 0 0];

oriented        oriented;

internalField   nonuniform List<scalar> 
22600
(
1.6158e-07
3.56142e-08
-5.88676e-08
1.71036e-07
3.85135e-08
-4.79698e-08
1.63602e-07
3.9811e-08
-3.23767e-08
1.42143e-07
4.00836e-08
-1.86246e-08
1.12972e-07
3.74358e-08
-8.26467e-09
8.13475e-08
3.297e-08
-1.34568e-09
5.32156e-08
2.74461e-08
6.85832e-10
3.8287e-08
1.50347e-08
-1.05993e-10
2.94789e-08
4.81552e-09
3.99273e-09
2.35632e-08
5.91563e-09
1.80527e-07
6.82767e-08
-6.96442e-08
2.04983e-07
7.83961e-08
-6.43389e-08
2.19445e-07
7.99671e-08
-5.46179e-08
2.22761e-07
8.01206e-08
-4.33527e-08
2.10421e-07
8.34274e-08
-3.36514e-08
1.83913e-07
8.94049e-08
-2.99276e-08
1.47714e-07
9.74395e-08
-3.37937e-08
1.18766e-07
8.87957e-08
-4.48131e-08
7.14618e-08
9.06371e-08
-3.85174e-08
1.33063e-07
-3.80383e-08
1.82976e-07
6.24982e-08
-3.16298e-08
2.01668e-07
1.00645e-07
-4.09404e-08
2.13438e-07
1.10824e-07
-4.26274e-08
2.14925e-07
1.1857e-07
-3.99359e-08
1.98194e-07
1.37934e-07
-3.77757e-08
1.65346e-07
1.6184e-07
-3.95872e-08
1.20676e-07
1.92592e-07
-5.04829e-08
8.9962e-08
1.77007e-07
-5.74966e-08
4.5732e-08
1.46612e-07
-1.17446e-08
1.91106e-07
-1.23111e-08
2.3058e-07
-1.33593e-07
1.21314e-07
2.29597e-07
2.68011e-08
7.48265e-08
2.27545e-07
8.24589e-08
3.04172e-08
2.13381e-07
1.32291e-07
4.43406e-10
1.72346e-07
1.95915e-07
-1.69467e-08
1.33208e-07
2.42932e-07
-4.19536e-08
9.84776e-08
2.66512e-07
-3.91895e-08
4.48194e-08
2.00428e-07
3.02371e-08
-2.7963e-08
-1.061e-08
2.30004e-07
9.62236e-08
6.69201e-08
3.44907e-07
-6.95108e-07
3.55899e-07
3.86798e-07
-3.07463e-07
2.92374e-07
3.85217e-07
-1.42625e-07
2.26665e-07
3.60213e-07
2.83036e-09
1.54464e-07
3.1801e-07
1.61743e-07
7.63755e-08
2.50362e-07
3.0063e-07
9.94988e-09
1.07739e-07
3.52211e-07
5.69246e-08
-1.91062e-07
1.78462e-07
3.20767e-07
-3.36932e-07
-4.91065e-07
6.26325e-07
-6.15939e-07
3.7523e-07
5.88295e-09
-1.05803e-06
2.7779e-07
2.37294e-07
-7.47945e-07
2.0907e-07
4.86683e-07
-6.46023e-07
2.54008e-07
7.16137e-07
-4.87932e-07
2.61309e-07
6.99473e-07
-2.77322e-08
2.06139e-07
5.05204e-07
3.13559e-07
1.81341e-07
1.49977e-07
3.943e-07
3.13137e-07
-2.91232e-07
1.52581e-08
6.04412e-07
-4.8026e-07
-1.17172e-06
8.69684e-07
-1.96362e-06
8.67422e-07
-3.71636e-07
-2.04841e-07
-5.70191e-07
-1.77476e-07
-3.61129e-07
-5.80976e-07
9.20651e-08
-6.3464e-07
-2.80923e-07
4.42358e-07
-7.70193e-07
-6.80318e-08
5.75831e-07
-2.52693e-07
9.1488e-08
3.26778e-07
3.05483e-07
2.57129e-07
-7.25981e-08
2.20459e-07
5.73217e-07
-2.96007e-07
-6.48896e-07
8.87563e-07
-4.98617e-07
-1.80524e-06
8.36132e-07
-2.92061e-06
4.58371e-07
-6.35023e-08
3.79227e-06
-3.31932e-06
-2.06783e-07
3.22254e-06
-3.44039e-06
1.9793e-07
2.19112e-06
-3.23047e-06
6.21421e-07
1.10728e-06
-2.30096e-06
7.39649e-07
6.48269e-07
-1.01919e-06
5.43838e-07
5.18203e-07
-1.69088e-08
2.25146e-07
-1.29526e-08
5.52103e-07
-4.8926e-08
-1.30151e-06
9.26689e-07
-5.7319e-07
-2.05823e-06
7.77249e-07
-3.00129e-06
-4.92508e-07
-6.40118e-07
1.23921e-05
-7.51796e-06
-1.12634e-06
1.25327e-05
-8.82398e-06
-1.03236e-06
1.16699e-05
-9.57275e-06
-8.52448e-07
9.49732e-06
-8.56996e-06
-1.06489e-07
5.7195e-06
-5.81719e-06
6.29446e-07
3.13255e-06
-3.35028e-06
1.17793e-06
1.39807e-06
-1.95951e-06
8.16998e-07
-1.80202e-07
-7.60379e-07
-4.77016e-07
-1.09499e-06
3.30773e-07
-1.45036e-06
-2.02795e-06
-4.34265e-06
2.10188e-05
-9.4162e-06
-3.52289e-06
2.1176e-05
-9.46306e-06
-3.56027e-06
2.02935e-05
-8.5862e-06
-3.66418e-06
1.67405e-05
-7.13929e-06
-3.42287e-06
1.1631e-05
-6.1528e-06
-1.41808e-06
5.79705e-06
-4.66929e-06
4.90071e-07
2.62655e-06
-3.13663e-06
7.89102e-07
1.23586e-06
-1.7151e-06
-3.91114e-07
9.83395e-08
-1.31085e-08
1.49931e-09
-1.84297e-06
-5.1041e-06
2.43131e-05
-3.34557e-06
-4.82611e-06
2.54983e-05
-4.60025e-06
-4.58335e-06
2.49481e-05
-4.89743e-06
-5.16239e-06
2.21573e-05
-4.83771e-06
-5.10265e-06
1.65005e-05
-4.92926e-06
-5.78447e-06
1.04215e-05
-3.94263e-06
-1.13569e-06
-7.34313e-07
-1.28791e-06
9.40483e-07
1.87857e-07
-1.02817e-06
-1.05571e-07
1.12988e-06
1.45103e-08
1.07934e-06
-1.18341e-06
-5.286e-06
2.36399e-05
1.12528e-06
-5.13371e-06
2.64922e-05
-1.14618e-06
-4.71665e-06
2.6906e-05
-2.37488e-06
-4.72704e-06
2.50784e-05
-2.91078e-06
-5.51315e-06
2.03975e-05
-3.11088e-06
-5.18951e-06
1.31315e-05
-3.03366e-06
-6.19917e-06
3.96214e-06
-3.6868e-06
-1.42341e-07
-5.54098e-06
-3.27987e-07
8.74377e-08
6.48602e-07
2.51505e-07
2.10708e-06
-9.40302e-07
-5.10987e-06
2.06031e-05
4.33957e-06
-4.96196e-06
2.28398e-05
3.50455e-06
-4.61603e-06
2.52969e-05
1.26318e-06
-4.4194e-06
2.55625e-05
-6.80653e-07
-4.35454e-06
2.19719e-05
-1.63927e-06
-4.87976e-06
1.57439e-05
-2.0871e-06
-3.93908e-06
6.5455e-06
-3.52403e-06
-4.52879e-06
-1.23283e-06
-3.71845e-06
-4.98472e-08
8.74015e-07
-4.70435e-06
2.02834e-06
2.88903e-08
-4.18828e-06
1.68944e-05
5.78643e-06
-4.17838e-06
1.61402e-05
6.68964e-06
-3.96009e-06
1.99115e-05
5.16706e-06
-4.50004e-06
2.38974e-05
2.20505e-06
-4.49356e-06
2.22815e-05
-3.16011e-07
-4.5197e-06
1.71686e-05
-1.39857e-06
-5.73052e-06
1.07967e-05
-3.04034e-06
-9.79545e-06
6.33987e-06
-3.50778e-06
-1.80919e-06
-4.85872e-06
-2.25352e-06
-1.1934e-06
1.41255e-06
-2.08749e-06
1.28713e-05
5.817e-06
-2.62829e-06
9.62882e-06
7.05219e-06
-2.9458e-06
1.36665e-05
6.56253e-06
-4.63444e-06
2.16363e-05
3.94966e-06
-5.14022e-06
2.18128e-05
9.74486e-07
-3.75405e-06
1.69147e-05
-1.13233e-06
-1.46998e-06
1.21657e-05
-3.65308e-06
1.2897e-06
8.89544e-06
-5.31524e-06
1.22419e-06
1.5931e-06
-6.38632e-06
-4.33961e-09
3.51434e-08
4.2801e-07
8.89575e-06
4.68504e-06
-4.82978e-07
5.51993e-06
5.01988e-06
-2.29022e-06
1.014e-05
5.33375e-06
-5.25758e-06
2.03335e-05
4.27024e-06
-6.08698e-06
2.10917e-05
1.5504e-06
-2.74727e-06
1.51121e-05
-1.53706e-06
2.84303e-06
1.17148e-05
-5.13937e-06
6.55416e-06
1.11798e-05
-5.99548e-06
4.93247e-06
8.48248e-06
-5.26767e-06
5.174e-06
-2.45865e-07
1.83548e-06
5.88693e-06
3.39492e-06
3.67436e-07
3.87078e-06
3.1172e-06
-3.13578e-06
1.02064e-05
3.43681e-06
-6.91055e-06
2.04779e-05
3.63031e-06
-7.16845e-06
2.03305e-05
1.01911e-06
-1.61865e-06
1.32525e-05
-3.69025e-06
4.46227e-06
1.19965e-05
-6.36272e-06
8.04013e-06
1.35135e-05
-5.9116e-06
5.84282e-06
1.38623e-05
-3.18249e-06
1.06625e-05
3.54333e-07
2.71978e-06
4.36456e-06
2.43158e-06
-9.30949e-08
4.15807e-06
2.52559e-06
-5.09299e-06
1.24853e-05
2.72097e-06
-8.87708e-06
2.15207e-05
2.74133e-06
-7.46769e-06
1.93542e-05
-4.33085e-07
-4.72707e-07
1.23373e-05
-6.07969e-06
5.37146e-06
1.33474e-05
-7.19498e-06
8.30809e-06
1.62781e-05
-5.70119e-06
5.8828e-06
1.78841e-05
-1.59654e-06
1.52191e-05
1.3262e-06
3.34746e-06
2.73173e-06
2.49263e-06
-6.76595e-07
4.95171e-06
3.23041e-06
-6.9104e-06
1.56616e-05
3.05748e-06
-1.00614e-05
2.29631e-05
1.70854e-06
-6.70417e-06
1.84742e-05
-2.47723e-06
4.76652e-07
1.2838e-05
-7.68152e-06
5.79994e-06
1.56681e-05
-7.64399e-06
8.12567e-06
1.93311e-05
-5.37868e-06
5.49933e-06
2.10651e-05
-5.54603e-07
1.85045e-05
2.21391e-06
4.69987e-06
3.14609e-06
1.52233e-08
-8.72939e-07
4.46398e-06
6.06054e-06
-8.33076e-06
3.75249e-06
1.9367e-05
-1.04361e-05
3.41736e-07
2.47267e-05
-5.33863e-06
-5.22285e-06
1.85996e-05
1.03036e-06
-8.41709e-06
1.48861e-05
5.63951e-06
-7.79629e-06
1.88552e-05
7.41506e-06
-4.96379e-06
2.25193e-05
4.76096e-06
4.86329e-07
2.32328e-05
2.89536e-06
2.03701e-05
1.306e-07
-3.96787e-08
-5.83357e-10
1.03679e-07
-2.75951e-08
6.54589e-09
7.55662e-08
-2.12592e-08
1.69956e-08
4.91904e-08
-1.92319e-08
2.69833e-08
2.39175e-08
-1.75722e-08
3.45804e-08
2.40068e-09
-2.02909e-08
4.04621e-08
-8.49063e-09
-3.28499e-08
4.44271e-08
1.08413e-08
-6.913e-08
4.96922e-08
3.1315e-08
-7.8812e-08
6.2331e-08
4.43724e-09
3.27934e-08
1.57437e-07
-8.66636e-08
-2.57899e-08
1.49966e-07
-5.30152e-08
-3.1448e-08
1.36864e-07
-3.45238e-08
-2.82507e-08
1.18479e-07
-2.3766e-08
-2.04339e-08
9.39204e-08
-1.38018e-08
-1.28632e-08
6.70966e-08
-1.3056e-08
-1.03385e-08
4.50266e-08
-2.91067e-08
-1.54668e-08
7.09331e-08
-1.21308e-07
-1.8541e-08
7.15473e-08
-1.16636e-07
-1.30798e-09
9.09263e-08
-5.29801e-08
1.38714e-07
-9.2828e-08
-2.55455e-09
1.10447e-07
-3.81598e-08
-2.75282e-08
9.05108e-08
-2.06725e-08
-3.65428e-08
7.41168e-08
-1.44514e-08
-3.28563e-08
4.34445e-08
8.44387e-09
-2.93491e-08
-8.21044e-09
2.93232e-08
-3.03114e-08
-6.47902e-08
5.16442e-09
-2.81742e-08
-2.75977e-08
-2.401e-07
2.41027e-08
5.06003e-08
-3.08184e-07
1.01606e-07
1.53495e-07
-2.42795e-08
1.49769e-07
-4.34927e-08
8.76953e-08
9.78861e-08
4.24395e-08
4.61105e-08
5.30784e-08
5.23672e-08
2.18519e-09
8.49299e-09
5.88975e-08
-2.83201e-08
-4.92796e-08
8.37434e-08
-3.44736e-08
-1.44515e-07
1.14732e-07
-3.21268e-08
-2.44038e-07
4.22975e-08
2.32002e-08
-2.53575e-07
-4.29849e-07
2.29523e-07
-1.40731e-07
-5.86185e-07
3.9516e-07
4.90617e-08
3.06229e-08
2.48226e-07
4.45812e-08
1.98259e-07
1.99422e-07
2.27935e-07
1.55682e-07
1.34569e-07
2.34222e-07
1.09664e-07
7.13596e-08
2.20346e-07
5.62245e-08
5.49257e-09
2.35654e-07
-9.6681e-09
-1.23901e-07
2.86979e-07
-3.29031e-08
-3.39146e-07
1.99601e-07
1.14866e-07
-5.88899e-07
-4.04978e-07
5.45648e-07
-4.90861e-07
-8.40694e-07
7.82798e-07
-2.65575e-07
1.99006e-07
2.70394e-07
1.25896e-07
1.42842e-07
2.89365e-07
3.49803e-07
6.8232e-08
3.73239e-07
3.00433e-07
1.03923e-07
3.95179e-07
3.43897e-07
1.15818e-07
2.98382e-07
4.18924e-07
1.19666e-07
1.08997e-07
5.03549e-07
1.54156e-07
-1.84069e-07
4.23883e-07
3.8192e-07
-6.50914e-07
-1.64552e-07
8.30833e-07
-6.79184e-07
-8.43815e-07
9.01074e-07
-6.69343e-07
5.92005e-07
-7.42728e-09
6.18464e-07
-6.67879e-07
-1.84001e-07
5.65682e-07
-6.20282e-07
-1.94757e-07
3.06478e-07
-2.76212e-07
2.5297e-08
1.20084e-07
-6.42728e-08
2.07869e-07
2.40662e-07
8.71783e-08
1.18005e-07
5.58494e-07
2.92047e-07
-1.41844e-07
6.00951e-07
6.55999e-07
-4.21666e-07
-4.70782e-08
1.04991e-06
-5.59221e-07
-5.92929e-07
7.22801e-07
-1.18446e-06
4.14269e-07
-1.86615e-07
2.11219e-06
-4.72335e-06
-2.54107e-08
1.43315e-06
-4.46907e-06
1.47988e-07
9.28112e-07
-4.02551e-06
2.99684e-07
4.75748e-07
-2.80832e-06
3.92166e-07
3.44857e-07
-1.21587e-06
3.48231e-07
5.92004e-07
-6.48467e-09
1.13536e-07
6.7383e-07
7.13919e-07
-3.19736e-07
2.15702e-07
1.09718e-06
-5.23821e-07
-1.85767e-07
5.74173e-07
-1.4742e-06
-7.26585e-07
-2.02399e-06
5.33341e-06
-1.18868e-05
-5.29487e-07
3.14829e-06
-1.20336e-05
3.23787e-07
2.15695e-06
-1.16549e-05
4.01213e-07
2.49282e-06
-1.06645e-05
4.28755e-07
2.73462e-06
-8.2345e-06
7.01049e-07
2.17655e-06
-5.20712e-06
8.22535e-07
1.88336e-06
-3.29052e-06
5.41854e-07
1.5848e-06
-1.8488e-06
6.14224e-07
9.56528e-07
-8.83892e-07
3.90834e-07
-3.27876e-06
-2.32058e-06
7.57655e-06
-1.19362e-05
-1.87931e-06
5.78604e-06
-1.25421e-05
-1.7233e-06
5.77439e-06
-1.23597e-05
-1.50328e-06
6.48408e-06
-1.13506e-05
-1.2549e-06
5.58984e-06
-9.25639e-06
-1.29905e-07
3.11334e-06
-6.73108e-06
5.13377e-07
2.2292e-06
-4.12576e-06
7.77567e-07
2.01535e-06
-2.40983e-06
1.27663e-06
1.26203e-06
-8.17672e-07
2.64346e-06
-2.81897e-06
-9.57157e-07
1.13573e-05
-5.84941e-06
-2.12588e-06
9.56815e-06
-7.21365e-06
-2.43479e-06
9.35441e-06
-8.16854e-06
-1.77789e-06
9.91725e-06
-8.92776e-06
-5.26002e-07
8.9989e-06
-9.59022e-06
-1.38172e-07
7.32951e-06
-8.54662e-06
-7.78313e-07
7.2045e-06
-5.62307e-06
-9.37136e-08
1.41855e-06
-1.11598e-06
1.24014e-06
-6.15774e-06
6.10042e-06
3.90377e-06
-1.20358e-06
1.69522e-06
1.45492e-05
-1.10046e-06
-4.11586e-07
1.37724e-05
-3.24366e-06
-2.01179e-06
1.36441e-05
-5.06437e-06
-1.74052e-06
1.26658e-05
-5.93064e-06
-1.41682e-07
1.08449e-05
-6.55568e-06
1.7565e-06
8.99408e-06
-6.59642e-06
3.9448e-06
7.84736e-06
-6.51795e-06
3.66861e-06
6.82247e-06
-5.45572e-06
8.47782e-07
2.64338e-07
-3.34973e-06
1.96759e-06
1.84366e-06
2.88332e-06
1.71411e-05
2.4742e-06
1.9661e-07
1.77459e-05
2.21777e-06
-2.69307e-06
1.72652e-05
5.31787e-07
-3.36676e-06
1.45727e-05
-1.91377e-06
-1.63556e-06
1.10218e-05
-3.54745e-06
8.37077e-07
8.68085e-06
-4.2465e-06
4.67608e-06
6.78335e-06
-6.29901e-06
5.61258e-06
8.06548e-06
-5.89794e-06
2.54497e-06
5.51313e-06
-6.88553e-06
3.48829e-06
1.05315e-06
1.78991e-06
1.78271e-05
6.20473e-06
-4.02902e-08
1.8072e-05
8.1938e-06
-2.61781e-06
1.8678e-05
6.33179e-06
-5.17948e-06
1.71505e-05
2.18882e-06
-4.65061e-06
1.09677e-05
-7.9076e-07
-1.87303e-06
7.23266e-06
-2.72796e-06
3.52311e-06
4.4548e-06
-6.10792e-06
5.91589e-06
8.44401e-06
-6.27907e-06
2.86185e-06
1.17825e-05
-5.46886e-06
5.93045e-06
1.83224e-06
2.55647e-07
1.59697e-05
8.22386e-06
-6.97855e-08
1.49204e-05
1.05292e-05
-1.46126e-06
1.64631e-05
1.01688e-05
-5.48502e-06
1.9383e-05
5.74093e-06
-6.67576e-06
1.15734e-05
1.55955e-06
-2.98634e-06
4.5312e-06
-2.12029e-06
3.45219e-06
1.62388e-06
-7.26069e-06
7.35649e-06
6.62859e-06
-7.40413e-06
4.32399e-06
1.29503e-05
-4.52164e-06
8.01386e-06
2.27572e-06
2.95664e-08
1.21105e-05
8.12746e-06
6.24443e-07
1.02985e-05
9.04689e-06
1.89164e-08
1.26181e-05
9.78429e-06
-4.45319e-06
2.091e-05
7.21538e-06
-6.2078e-06
1.22206e-05
2.65782e-06
-1.06039e-06
1.7939e-06
-3.94716e-06
4.68837e-06
5.46083e-07
-9.81032e-06
7.929e-06
6.73855e-06
-9.34606e-06
5.78347e-06
1.37258e-05
-3.89759e-06
1.20924e-05
1.45906e-06
2.55424e-06
8.20508e-06
6.91434e-06
2.23885e-06
6.95914e-06
6.77199e-06
6.17315e-07
1.03545e-05
7.322e-06
-3.72744e-06
2.21599e-05
6.72513e-06
-4.6354e-06
1.23656e-05
1.78212e-06
1.31917e-06
1.16801e-06
-9.01892e-06
5.01084e-06
2.08085e-06
-1.15891e-05
7.04459e-06
9.60879e-06
-1.08156e-05
5.21906e-06
1.58088e-05
-3.43994e-06
1.64415e-05
1.22428e-06
6.32447e-06
5.30324e-06
5.48003e-06
4.39506e-06
5.61853e-06
5.79561e-06
3.72115e-07
1.10024e-05
6.09605e-06
-3.66653e-06
2.33722e-05
5.56773e-06
-3.44102e-06
1.20389e-05
-3.31895e-07
1.51659e-06
1.76223e-06
-1.16315e-05
3.68924e-06
4.98318e-06
-1.227e-05
5.12364e-06
1.38431e-05
-1.13699e-05
3.9804e-06
1.90585e-05
-3.70301e-06
2.07981e-05
9.49983e-07
7.61366e-06
2.17172e-06
5.15443e-06
5.60364e-06
4.56761e-06
6.29137e-06
-2.13789e-07
1.37204e-05
6.15685e-06
-3.99529e-06
2.45542e-05
4.30803e-06
-2.23936e-06
1.19106e-05
-4.10486e-06
4.85201e-07
3.44913e-06
-1.2093e-05
1.61648e-06
8.82029e-06
-1.26124e-05
2.97305e-06
1.83685e-05
-1.12607e-05
2.63284e-06
2.27594e-05
-3.91534e-06
2.47142e-05
9.30715e-07
9.45513e-06
5.22103e-06
-1.34329e-06
6.73377e-06
7.30557e-06
4.44737e-06
-9.43486e-07
6.81328e-06
1.83369e-05
-4.45327e-06
2.84967e-06
2.5556e-05
-1.80032e-06
-7.76403e-06
1.17988e-05
-1.13176e-06
-1.19198e-05
6.28327e-06
-6.86037e-07
-1.27081e-05
1.32864e-05
7.8667e-07
-1.08146e-05
2.27466e-05
1.30987e-06
-3.73778e-06
2.64603e-05
1.28319e-06
2.76362e-05
1.42754e-07
-1.03857e-07
1.13855e-07
1.23356e-07
-7.92043e-08
1.05148e-07
1.00238e-07
-5.63338e-08
9.6448e-08
7.75502e-08
-3.99759e-08
8.96467e-08
5.40358e-08
-2.82298e-08
8.63246e-08
3.06186e-08
-2.2257e-08
8.61365e-08
1.38149e-08
-2.88848e-08
9.01157e-08
2.43276e-08
-6.17532e-08
1.00933e-07
3.59928e-08
-7.19209e-08
1.22587e-07
1.41176e-08
5.46685e-08
1.67931e-07
-2.24658e-07
8.87779e-08
1.71434e-07
-1.76185e-07
6.20295e-08
1.68011e-07
-1.22837e-07
4.16748e-08
1.55029e-07
-7.81964e-08
3.07695e-08
1.30772e-07
-4.33269e-08
2.6491e-08
1.00732e-07
-2.73736e-08
2.48174e-08
7.26011e-08
-4.06574e-08
2.4437e-08
8.75947e-08
-1.32019e-07
3.67313e-08
7.97902e-08
-1.25846e-07
6.04212e-08
8.28605e-08
-4.19327e-08
1.57775e-07
-2.87123e-07
7.24351e-08
1.4564e-07
-2.37101e-07
4.5523e-08
1.36152e-07
-1.7178e-07
2.18876e-08
1.24018e-07
-1.13164e-07
1.42449e-08
9.82601e-08
-6.09007e-08
1.3983e-08
5.26583e-08
-2.84312e-08
1.6348e-08
1.25493e-09
-5.10873e-08
3.36592e-08
4.89606e-08
-2.6968e-07
1.14058e-07
9.04356e-08
-2.45382e-07
1.79667e-07
1.66773e-07
-1.77563e-08
1.68427e-07
-2.2997e-07
3.33697e-08
1.41264e-07
-2.00696e-07
3.68684e-08
1.28964e-07
-1.68972e-07
1.16772e-08
1.00917e-07
-1.10742e-07
-2.69509e-09
2.80865e-08
-2.90318e-08
6.48811e-09
-9.21526e-08
1.91172e-08
4.0564e-08
-1.98677e-07
-4.7201e-08
1.25838e-07
-1.30115e-07
-4.66384e-07
3.57666e-07
1.25058e-08
-4.04398e-07
4.11555e-07
1.99402e-07
1.04994e-08
1.97426e-07
-2.60517e-08
-3.18429e-08
1.40979e-07
1.32455e-09
1.01085e-08
9.70199e-08
-3.15636e-08
1.62152e-08
6.41441e-08
-1.60433e-08
-5.59854e-09
8.86832e-09
3.39666e-08
-1.73908e-08
-1.4737e-07
1.27907e-07
1.45461e-08
-3.35972e-07
6.5941e-08
1.90326e-07
-3.99825e-07
-4.0405e-07
5.47167e-07
-2.5449e-07
-2.92325e-07
5.2539e-07
2.15569e-07
-7.16508e-08
2.80826e-07
2.17671e-07
-1.48074e-07
2.29749e-07
2.26873e-07
-1.0624e-07
2.05851e-07
1.20081e-07
-2.38239e-08
1.5638e-07
1.46616e-07
2.62989e-09
5.41211e-08
2.10891e-07
4.50006e-08
-1.50262e-07
3.108e-07
1.75646e-07
-4.14346e-07
2.94424e-07
4.1752e-07
-6.63514e-07
-3.81786e-08
7.1413e-07
-5.65511e-07
1.19855e-07
3.90892e-07
2.70526e-07
-2.84631e-08
1.50303e-07
5.01529e-07
-7.13939e-07
-1.06731e-07
4.06655e-07
-5.4303e-07
-2.05643e-07
2.40713e-07
-2.97932e-07
-1.42277e-07
1.17297e-07
-9.832e-08
-4.7146e-08
1.65704e-07
3.72341e-08
-1.31608e-07
4.19645e-07
2.67664e-07
-3.78273e-07
6.79008e-07
5.18081e-07
-6.93493e-07
6.00232e-07
7.2672e-07
-7.08201e-07
5.68965e-07
2.88399e-07
-1.51922e-07
1.28516e-07
1.60253e-07
-9.83068e-08
-4.42003e-06
4.30415e-07
-1.51184e-07
-4.18139e-06
4.52083e-07
-5.57469e-08
-3.75072e-06
4.00916e-07
6.72088e-08
-2.70706e-06
3.13112e-07
2.50639e-07
-1.213e-06
1.64391e-07
5.51723e-07
1.01581e-08
-1.81622e-07
8.94996e-07
8.43944e-07
-5.78173e-07
9.13132e-07
1.18083e-06
-5.95016e-07
7.03359e-07
4.56623e-07
-1.91751e-07
-1.28177e-06
-1.52979e-06
-1.55702e-06
-1.23971e-05
2.33362e-07
-2.1422e-06
-1.18058e-05
1.51702e-06
-2.03968e-06
-1.09546e-05
2.19265e-06
-1.14067e-06
-1.01322e-05
2.35511e-06
2.6541e-07
-8.41173e-06
2.38863e-06
1.17484e-06
-5.86376e-06
2.36628e-06
1.69494e-06
-4.0681e-06
2.24291e-06
1.90984e-06
-2.72214e-06
2.23909e-06
1.44173e-06
-1.61845e-06
2.36574e-06
-3.59716e-06
-2.43828e-06
1.09812e-06
-1.36846e-05
-3.5076e-06
4.46873e-07
-1.40618e-05
-3.75459e-06
9.07943e-07
-1.50603e-05
-2.37738e-06
2.56084e-06
-1.64293e-05
1.18309e-08
3.18638e-06
-1.45666e-05
1.94127e-06
1.39063e-06
-8.87631e-06
2.73213e-06
6.94823e-07
-3.91651e-06
2.97079e-06
1.82724e-06
-2.5659e-06
3.34101e-06
5.1239e-07
-2.58545e-07
5.59058e-06
-2.7028e-06
3.73429e-06
-3.36233e-08
-4.77393e-06
2.51859e-06
-3.45565e-07
-5.2055e-06
1.36334e-06
9.70815e-08
-6.20242e-06
1.2371e-06
1.56434e-06
-7.80502e-06
1.51577e-06
3.50894e-06
-1.01915e-05
1.45985e-06
4.16549e-06
-1.12655e-05
1.4586e-06
4.36735e-06
-9.29433e-06
1.26415e-06
6.12434e-06
-5.21863e-06
1.13113e-06
5.2222e-06
1.52362e-06
5.68921e-06
-1.71079e-07
9.48308e-06
-1.98598e-08
-2.34385e-06
7.53494e-06
9.54685e-07
-2.59578e-06
4.01424e-06
1.81381e-06
-3.26039e-06
1.68621e-06
2.241e-06
-4.27928e-06
1.31962e-06
2.56977e-06
-5.24992e-06
1.67987e-06
2.94518e-06
-5.73637e-06
2.58993e-06
2.88183e-06
-5.94249e-06
3.09426e-06
5.9497e-06
-5.7854e-06
9.30137e-07
8.09596e-06
-4.05935e-06
1.07593e-05
-2.29627e-06
1.02285e-05
3.1812e-06
-6.54334e-07
7.90854e-06
5.35506e-06
1.37336e-07
3.42164e-06
6.75071e-06
8.1794e-08
-2.49147e-07
5.54641e-06
-1.54839e-06
-1.66767e-06
3.49776e-06
-3.0569e-06
-9.66893e-07
2.24067e-06
-4.24275e-06
2.29192e-06
9.02281e-08
-6.76622e-06
4.57143e-06
4.35173e-06
-6.57949e-06
9.38929e-07
1.06952e-05
-5.85224e-06
1.43583e-05
-1.60693e-06
5.33425e-06
6.30227e-06
3.70956e-06
4.78391e-06
8.61263e-06
5.48657e-06
2.52324e-06
9.82961e-06
5.51356e-06
-1.19851e-06
8.79459e-06
2.6624e-06
-3.15917e-06
5.37046e-06
-7.02801e-07
-1.81597e-06
1.98227e-06
-3.81275e-06
2.1724e-06
-2.16645e-06
-7.83961e-06
4.63232e-06
3.24719e-06
-7.63444e-06
9.72936e-07
1.29507e-05
-4.06502e-06
1.77964e-05
-6.3289e-07
9.05654e-07
6.69188e-06
7.60432e-06
2.41668e-06
8.36764e-06
9.26311e-06
3.12495e-06
9.46449e-06
9.82567e-06
-8.2812e-09
1.10492e-05
6.61955e-06
-2.04595e-06
7.31935e-06
1.64833e-06
-3.86381e-08
1.00117e-06
-3.1465e-06
3.31791e-06
-3.03893e-06
-9.74475e-06
4.53967e-06
4.2931e-06
-9.6718e-06
1.55569e-06
1.45312e-05
-3.11815e-06
2.03914e-05
1.23641e-06
1.18652e-06
5.39466e-06
8.75693e-06
2.77657e-06
6.43446e-06
9.39003e-06
4.48486e-06
7.35775e-06
1.01827e-05
2.01068e-06
1.24012e-05
8.33754e-06
7.80512e-08
8.96992e-06
2.93988e-06
2.20007e-06
-3.48067e-08
-5.0332e-06
3.36396e-06
-2.22786e-06
-1.17853e-05
3.31435e-06
7.08094e-06
-1.20843e-05
1.59111e-06
1.68152e-05
-4.45831e-06
2.33465e-05
9.49806e-08
6.01116e-06
4.05885e-06
7.64817e-06
6.03249e-06
5.12746e-06
8.05767e-06
5.59838e-06
6.37431e-06
8.73956e-06
2.77292e-06
1.37295e-05
8.22229e-06
2.56178e-07
1.06354e-05
2.63338e-06
1.72412e-06
-5.53829e-07
-9.96783e-06
1.35533e-06
-5.77166e-07
-1.2871e-05
6.81392e-07
1.06925e-05
-1.37532e-05
4.93499e-07
2.06938e-05
-7.13067e-06
2.66422e-05
-1.57788e-06
8.83923e-06
2.67485e-06
6.14222e-06
8.20575e-06
4.24049e-06
7.31606e-06
5.64523e-06
6.96847e-06
8.06241e-06
2.26028e-06
1.53722e-05
7.30999e-06
8.84908e-07
1.1143e-05
5.35874e-07
3.84754e-07
-1.80527e-07
-1.15046e-05
-1.39051e-06
1.76715e-06
-1.2839e-05
-2.09568e-06
1.40349e-05
-1.40071e-05
-1.62224e-06
2.54413e-05
-8.92396e-06
2.85567e-05
-2.58678e-06
9.31623e-06
9.50513e-07
5.64652e-06
8.95614e-06
3.20868e-06
7.68326e-06
4.95914e-06
8.73694e-06
8.3854e-06
8.35213e-07
1.74236e-05
6.3806e-06
5.6575e-07
1.05731e-05
-3.26549e-06
-1.18224e-06
4.76424e-07
-1.1002e-05
-3.7819e-06
4.46133e-06
-1.27069e-05
-4.49e-06
1.68883e-05
-1.3406e-05
-3.27751e-06
2.93666e-05
-9.05304e-06
2.87995e-05
-2.58951e-06
1.11303e-05
5.50291e-06
-1.09912e-06
1.00966e-05
8.49582e-06
3.05218e-06
3.76193e-06
9.25275e-06
1.26321e-05
-1.11344e-06
5.31518e-06
1.98335e-05
-1.06095e-06
-6.67148e-06
9.42809e-06
-3.74533e-06
-1.05966e-05
1.83758e-06
-6.06011e-06
-1.30421e-05
7.11009e-06
-6.51981e-06
-1.28581e-05
1.93915e-05
-4.46561e-06
-8.41004e-06
3.19846e-05
-2.08575e-06
2.77028e-05
1.39649e-07
-6.20036e-08
1.99051e-07
1.24291e-07
-5.84227e-08
1.78929e-07
1.08476e-07
-4.50075e-08
1.5727e-07
9.04978e-08
-3.2498e-08
1.40123e-07
6.92174e-08
-2.11226e-08
1.28728e-07
4.49001e-08
-1.12249e-08
1.21679e-07
2.58495e-08
-1.06615e-08
1.19828e-07
2.73609e-08
-2.90158e-08
1.28437e-07
3.40772e-08
-3.46034e-08
1.50474e-07
2.67055e-08
6.20401e-08
1.54942e-07
-1.4047e-07
1.90389e-07
1.60527e-07
-1.50152e-07
1.48173e-07
1.72444e-07
-1.19806e-07
1.04557e-07
1.71865e-07
-7.71542e-08
7.60047e-08
1.51938e-07
-3.43904e-08
5.96859e-08
1.19576e-07
-5.24109e-09
5.11954e-08
8.89395e-08
-3.84775e-09
4.82598e-08
8.38659e-08
-4.72712e-08
6.00604e-08
6.69363e-08
-4.07099e-08
8.34573e-08
8.9355e-08
-3.76459e-08
1.66068e-07
-1.6532e-07
1.19648e-07
1.5641e-07
-2.16735e-07
1.21765e-07
1.60244e-07
-1.94418e-07
9.26661e-08
1.584e-07
-1.30724e-07
6.96589e-08
1.4111e-07
-6.32772e-08
6.01598e-08
1.10957e-07
-1.49659e-08
5.62265e-08
7.16129e-08
6.59237e-09
6.25631e-08
8.99855e-08
-6.53699e-08
1.13784e-07
8.33916e-08
-1.83335e-08
1.63884e-07
1.79184e-07
-2.41937e-08
2.26416e-07
-1.41289e-07
-1.13078e-08
2.04326e-07
-2.25625e-07
6.78485e-08
1.97375e-07
-2.49324e-07
7.35334e-08
1.86977e-07
-1.73266e-07
5.02457e-08
1.35005e-07
-5.53935e-08
5.05764e-08
5.47713e-08
2.64867e-08
7.93452e-08
-2.53592e-09
4.0541e-08
1.49196e-07
4.22917e-08
-6.27994e-08
3.10267e-07
6.38783e-08
2.83584e-08
3.43277e-07
2.48853e-07
4.70867e-09
2.85617e-07
-9.25085e-08
-1.54421e-07
2.44116e-07
-1.4328e-07
-3.07361e-08
1.95206e-07
-2.02589e-07
1.83903e-08
1.63772e-07
-1.53895e-07
6.46383e-09
1.32799e-07
-4.89319e-08
7.12064e-09
4.52986e-08
7.9037e-08
4.94963e-08
-6.59295e-08
1.63575e-07
1.7852e-07
-7.29274e-08
8.4088e-08
4.07277e-07
-5.28736e-08
2.33382e-07
3.00312e-07
3.08481e-07
-1.84153e-07
3.61933e-07
1.80992e-08
-3.8088e-07
3.21444e-07
-3.34542e-08
-1.75576e-07
2.72805e-07
-1.2498e-07
-5.27935e-08
2.2976e-07
-9.18768e-08
-1.63438e-08
1.25137e-07
1.06549e-07
-5.85726e-09
-4.19228e-08
2.70379e-07
1.51364e-07
-2.21803e-07
3.74818e-07
3.86158e-07
-3.11019e-07
3.76889e-07
5.10544e-07
-3.07555e-07
6.46048e-07
-2.52369e-08
3.93957e-07
-4.21494e-07
2.44606e-07
4.1446e-07
-1.03295e-06
-2.36978e-09
2.37299e-07
-5.66807e-07
-1.11796e-07
1.59985e-08
-3.29484e-07
-3.65254e-08
-1.5465e-07
-1.10818e-07
2.92335e-08
7.24597e-08
5.56462e-09
-3.82642e-08
4.54505e-07
1.51035e-07
-2.96387e-07
8.15083e-07
3.35939e-07
-5.47376e-07
9.43898e-07
4.107e-07
-6.63057e-07
1.17282e-06
-1.22696e-07
1.10076e-07
-2.5066e-07
4.57415e-07
-7.48848e-07
-3.93623e-06
9.16774e-07
-7.44589e-07
-3.65886e-06
1.00319e-06
-6.3735e-07
-3.18378e-06
8.51362e-07
-3.95409e-07
-2.31448e-06
6.75355e-07
2.21009e-07
-1.18554e-06
2.7853e-07
9.53065e-07
-9.15773e-08
-1.03695e-07
1.35107e-06
6.9018e-07
-4.49767e-07
1.38848e-06
1.08232e-06
-3.07183e-07
1.23691e-06
2.49954e-07
4.08018e-07
-1.8869e-06
-1.61034e-06
-2.94642e-06
-1.18604e-05
1.41866e-07
-3.10171e-06
-1.12008e-05
1.79238e-06
-3.43537e-06
-9.8071e-06
3.02223e-06
-2.76813e-06
-8.98932e-06
3.53067e-06
-1.50212e-06
-7.19705e-06
3.28152e-06
-3.16322e-08
-4.62991e-06
3.19751e-06
4.56918e-07
-3.08994e-06
3.35628e-06
8.83013e-07
-2.37544e-06
3.48506e-06
9.20879e-07
-1.4312e-06
3.99599e-06
-3.70007e-06
-4.13626e-06
-1.46393e-06
-1.40106e-05
-3.80016e-06
-3.34387e-06
-1.41558e-05
-2.89928e-06
-4.553e-06
-1.48436e-05
-2.74541e-06
-3.21347e-06
-1.61378e-05
-1.8305e-06
-3.71505e-07
-1.66121e-05
2.14833e-07
2.64338e-06
-1.35967e-05
2.61585e-06
3.50155e-06
-9.36216e-06
3.9625e-06
1.67875e-06
-4.70828e-06
3.8018e-06
1.94838e-07
6.28195e-07
7.70829e-06
-2.61331e-06
4.48193e-06
-3.49513e-06
-3.97752e-06
4.69335e-06
-5.67425e-06
-3.08654e-06
4.55688e-06
-6.83089e-06
-3.78807e-06
4.46299e-06
-5.77609e-06
-5.14851e-06
3.40576e-06
-1.95231e-06
-7.55341e-06
1.9292e-06
1.91036e-06
-9.05595e-06
1.46191e-06
2.98272e-06
-8.3082e-06
8.02331e-07
4.21077e-06
-7.09105e-06
1.27116e-06
5.91982e-06
-4.6702e-06
1.26711e-05
-3.86275e-06
8.47121e-06
-4.4076e-06
-1.76924e-06
7.31185e-06
-5.7285e-06
-1.38216e-06
5.15759e-06
-5.85585e-06
-2.08116e-06
3.00825e-06
-5.25413e-06
-2.65189e-06
2.21558e-06
-3.56045e-06
-2.84913e-06
2.3606e-06
-8.84673e-07
-3.08635e-06
3.60686e-06
-3.91863e-07
-3.81416e-06
3.51348e-06
3.19046e-06
-4.67171e-06
1.70442e-06
9.003e-06
-5.33347e-06
1.65498e-05
-4.47049e-06
8.43523e-06
-4.90065e-06
2.24906e-07
7.89063e-06
-4.99043e-06
-5.61427e-08
6.33618e-06
-3.87577e-06
-3.43838e-07
3.22053e-06
-2.77169e-06
-9.15173e-07
1.63859e-07
-1.80377e-06
-1.75691e-06
-6.02081e-07
-8.51409e-07
-3.51006e-06
2.6172e-06
-3.61805e-06
-6.7593e-06
5.1074e-06
1.12511e-06
-7.00432e-06
1.95456e-06
1.0619e-05
-4.31545e-06
2.05508e-05
-3.65344e-06
5.36087e-06
-4.44002e-06
3.3762e-06
6.0671e-06
-3.42965e-06
3.21957e-06
6.16993e-06
-1.82597e-06
3.36094e-06
4.12356e-06
-5.51148e-07
2.48823e-06
1.63366e-06
-3.23948e-07
3.07277e-07
9.26136e-07
-6.96324e-07
-3.26031e-06
2.83571e-06
-5.60878e-06
-7.75845e-06
4.5541e-06
8.33358e-07
-9.06108e-06
1.63276e-06
1.244e-05
-2.96463e-06
2.33841e-05
-1.83334e-06
3.92409e-06
-3.46374e-06
6.10871e-06
5.44863e-06
-1.85988e-06
6.1688e-06
6.91759e-06
-3.88187e-07
6.91894e-06
5.49477e-06
1.41896e-06
6.07228e-06
2.96018e-06
1.20542e-06
2.65357e-06
2.50893e-06
-1.6362e-06
-1.75536e-06
2.53971e-06
-6.26655e-06
-9.11775e-06
2.17318e-06
2.3373e-06
-1.08092e-05
4.70988e-07
1.51801e-05
-4.15603e-06
2.57585e-05
-6.67006e-07
6.14129e-06
-2.19618e-06
6.47484e-06
7.18935e-06
-3.13404e-07
6.7955e-06
8.05546e-06
8.58014e-07
8.07044e-06
6.13754e-06
3.58328e-06
8.09115e-06
2.45805e-06
3.43691e-06
4.38789e-06
2.38793e-06
-2.15488e-06
-4.44441e-06
7.25644e-07
-5.6058e-06
-1.07837e-05
-1.25369e-06
4.43394e-06
-1.22016e-05
-1.72988e-06
1.86864e-05
-7.48841e-06
2.57519e-05
-1.6283e-06
8.94182e-06
-1.09345e-06
5.24466e-06
9.21291e-06
1.0169e-06
6.45627e-06
8.15541e-06
2.37659e-06
8.27849e-06
5.06334e-06
6.09607e-06
8.80156e-06
1.69661e-06
5.43582e-06
4.0012e-06
1.21794e-06
-2.169e-06
-9.47504e-06
-1.35344e-06
-4.60743e-06
-1.1298e-05
-4.43664e-06
6.09709e-06
-1.23332e-05
-3.53771e-06
2.08824e-05
-1.02256e-05
2.41479e-05
-3.51156e-06
9.65703e-06
-6.81788e-07
4.48333e-06
9.37895e-06
1.68988e-06
6.92115e-06
6.84381e-06
3.89952e-06
9.07461e-06
2.55341e-06
8.93726e-06
8.7592e-06
1.66841e-06
6.51194e-06
3.44758e-07
6.74853e-07
-2.38814e-06
-1.02919e-05
-3.47737e-06
-3.00887e-06
-1.02853e-05
-6.36055e-06
6.30867e-06
-1.13355e-05
-4.51586e-06
2.05628e-05
-1.0449e-05
2.15544e-05
-4.50913e-06
1.0281e-05
-6.6466e-07
4.62198e-06
9.53554e-06
2.05145e-06
8.06712e-06
5.52205e-06
6.02976e-06
1.02687e-05
2.25539e-07
1.24566e-05
8.15773e-06
3.31947e-08
7.71855e-06
-4.27976e-06
-1.44864e-06
-2.60393e-06
-9.30433e-06
-5.23866e-06
-1.88481e-06
-1.00409e-05
-7.22148e-06
5.23387e-06
-1.03484e-05
-4.87742e-06
1.76474e-05
-8.48172e-06
1.8094e-05
-4.0066e-06
1.12914e-05
5.06403e-06
-1.22113e-06
9.79968e-06
9.26063e-06
2.77839e-06
3.59838e-06
1.13308e-05
1.0153e-05
-1.52762e-06
6.45499e-06
1.64428e-05
-1.51556e-06
-6.76299e-06
7.79801e-06
-4.12039e-06
-8.47289e-06
-2.12278e-06
-6.80192e-06
-1.0629e-05
-1.61638e-06
-7.8687e-06
-1.01306e-05
3.57322e-06
-4.94219e-06
-7.13621e-06
1.34471e-05
-3.03904e-06
1.41051e-05
1.31515e-07
1.65614e-08
2.26949e-07
1.10475e-07
-2.02518e-08
2.20221e-07
9.99044e-08
-3.18268e-08
1.99668e-07
8.68707e-08
-2.96207e-08
1.82778e-07
6.7137e-08
-2.08804e-08
1.69342e-07
4.35065e-08
-1.05239e-08
1.55833e-07
2.46789e-08
-7.44633e-09
1.46102e-07
2.55697e-08
-1.9943e-08
1.47489e-07
3.2893e-08
-2.13241e-08
1.64475e-07
3.13054e-08
6.36277e-08
1.41596e-07
-8.66372e-09
2.6608e-07
1.35218e-07
-9.28932e-08
2.27192e-07
1.55539e-07
-1.17103e-07
1.69512e-07
1.65797e-07
-9.37724e-08
1.29898e-07
1.51179e-07
-4.94561e-08
1.0288e-07
1.17808e-07