/*--------------------------------*- C++ -*----------------------------------*\
| =========                 |                                                 |
| \\      /  F ield         | OpenFOAM: The Open Source CFD Toolbox           |
|  \\    /   O peration     | Version:  2312                                  |
|   \\  /    A nd           | Website:  www.openfoam.com                      |
|    \\/     M anipulation  |                                                 |
\*---------------------------------------------------------------------------*/
FoamFile
{
    version     2.0;
    format      ascii;
    arch        "LSB;label=32;scalar=64";
    class       surfaceScalarField;
    location    "0.28";
    object      phi;
}
// * * * * * * * * * * * * * * * * * * * * * * * * * * * * * * * * * * * * * //

dimensions      [0 3 -1 0 0 0 0];

oriented        oriented;

internalField   nonuniform List<scalar> 
22600
(
-1.08135e-07
-1.04246e-07
2.22985e-07
-2.17957e-07
-1.14893e-07
2.24716e-07
-3.08503e-07
-1.32977e-07
2.23522e-07
-3.69776e-07
-1.54945e-07
2.16218e-07
-3.94512e-07
-1.78035e-07
2.02771e-07
-3.80147e-07
-1.99527e-07
1.85162e-07
-3.27388e-07
-2.188e-07
1.66041e-07
-2.39446e-07
-2.36927e-07
1.48985e-07
-1.19938e-07
-2.59605e-07
1.40097e-07
-2.41454e-07
1.21517e-07
-9.05174e-08
-2.19098e-07
2.17287e-07
-1.86185e-07
-2.38702e-07
2.19476e-07
-2.67066e-07
-2.71208e-07
2.19111e-07
-3.24282e-07
-3.09788e-07
2.12059e-07
-3.50271e-07
-3.5016e-07
1.98114e-07
-3.41397e-07
-3.88261e-07
1.79859e-07
-2.97042e-07
-4.22785e-07
1.59632e-07
-2.19443e-07
-4.55346e-07
1.4082e-07
-1.12199e-07
-4.96609e-07
1.29761e-07
-4.67563e-07
1.1391e-07
-1.08835e-07
-4.03015e-07
3.03317e-07
-2.17825e-07
-4.30136e-07
3.00424e-07
-3.09664e-07
-4.74934e-07
2.95566e-07
-3.73547e-07
-5.27771e-07
2.81866e-07
-4.01729e-07
-5.81198e-07
2.59221e-07
-3.90776e-07
-6.30227e-07
2.31013e-07
-3.408e-07
-6.74083e-07
2.01321e-07
-2.53775e-07
-7.16177e-07
1.73806e-07
-1.34738e-07
-7.71398e-07
1.55751e-07
-7.38549e-07
1.36248e-07
-1.19417e-07
-7.32654e-07
4.57782e-07
-2.34749e-07
-7.56912e-07
4.42108e-07
-3.31935e-07
-7.96371e-07
4.18623e-07
-3.99009e-07
-8.4672e-07
3.86022e-07
-4.29174e-07
-8.96488e-07
3.45455e-07
-4.1953e-07
-9.4015e-07
3.00279e-07
-3.69487e-07
-9.7762e-07
2.53494e-07
-2.79823e-07
-1.01626e-06
2.1042e-07
-1.55933e-07
-1.07592e-06
1.8063e-07
-1.05175e-06
1.57263e-07
-1.28325e-07
-1.41463e-06
8.1588e-07
-2.49012e-07
-1.41176e-06
7.75534e-07
-3.53916e-07
-1.38912e-06
6.97658e-07
-4.26056e-07
-1.37885e-06
6.04266e-07
-4.5559e-07
-1.377e-06
5.10051e-07
-4.4336e-07
-1.37201e-06
4.19631e-07
-3.93136e-07
-1.36292e-06
3.35079e-07
-3.04795e-07
-1.36555e-06
2.6095e-07
-1.77092e-07
-1.41328e-06
2.0966e-07
-1.4071e-06
1.78266e-07
-1.05101e-07
-2.64567e-06
1.33148e-06
-1.97536e-07
-2.59117e-06
1.27184e-06
-3.06313e-07
-2.44199e-06
1.16164e-06
-4.14503e-07
-2.28025e-06
1.0096e-06
-4.81932e-07
-2.13985e-06
8.3027e-07
-4.89585e-07
-2.01508e-06
6.50719e-07
-4.47098e-07
-1.89696e-06
4.91549e-07
-3.64242e-07
-1.80673e-06
3.58324e-07
-2.20733e-07
-1.82434e-06
2.67551e-07
-1.84997e-06
2.22137e-07
1.07496e-07
-4.22998e-06
1.4358e-06
2.26206e-07
-4.096e-06
1.38612e-06
2.29873e-07
-3.81884e-06
1.37319e-06
9.35085e-08
-3.4818e-06
1.33791e-06
-1.28353e-07
-3.12956e-06
1.21158e-06
-3.24122e-07
-2.8025e-06
9.83189e-07
-4.29159e-07
-2.51804e-06
7.26118e-07
-4.47874e-07
-2.30479e-06
5.1677e-07
-3.27564e-07
-2.32882e-06
3.84169e-07
-2.50713e-06
3.29597e-07
4.66277e-07
-5.44886e-06
8.30673e-07
7.52928e-07
-5.21614e-06
8.33498e-07
9.3738e-07
-4.95414e-06
9.50844e-07
1.02766e-06
-4.66738e-06
1.09531e-06
9.30642e-07
-4.21744e-06
1.1849e-06
5.99868e-07
-3.61169e-06
1.13997e-06
1.78133e-07
-3.01043e-06
9.14128e-07
-2.10482e-07
-2.53344e-06
6.17271e-07
-3.70566e-07
-2.62505e-06
4.5631e-07
-3.24824e-06
3.70536e-07
6.70651e-07
-4.97562e-06
-6.20978e-08
2.04332e-07
-4.7606e-06
1.07668e-08
1.03218e-10
-5.35638e-06
6.06471e-07
2.06253e-07
-4.73693e-06
-1.366e-07
7.32453e-07
-5.13041e-06
3.86767e-07
1.26554e-06
-4.77087e-06
6.26085e-07
1.38297e-06
-3.92347e-06
7.95607e-07
8.14146e-07
-2.62581e-06
6.61197e-07
1.23706e-07
-2.23463e-06
3.00021e-07
-3.00422e-06
-1.20307e-07
1.11071e-06
-2.60116e-06
-2.56306e-06
9.11113e-07
-2.45759e-06
-2.10341e-06
-3.13842e-07
-2.00107e-06
-2.13035e-06
-1.15764e-06
-1.7591e-06
-2.13403e-06
-1.82116e-06
-2.79376e-06
-1.67313e-06
-1.6311e-06
-4.23318e-06
-7.2774e-07
3.76616e-07
-5.78871e-06
-1.4248e-07
1.58041e-06
-4.9527e-06
1.12309e-06
1.21646e-06
-2.02339e-06
1.52706e-07
-6.12724e-07
-1.17504e-06
6.99531e-07
-5.46832e-07
-2.47877e-06
6.52274e-07
-2.36456e-07
-2.17387e-06
2.49001e-08
3.86202e-07
-1.7599e-06
2.72716e-07
9.00913e-07
-2.90783e-06
1.12641e-06
8.97134e-07
-4.54459e-06
2.06139e-06
-1.14863e-07
-5.05329e-06
1.63665e-06
-1.88273e-06
-3.48124e-06
-3.3247e-08
-3.01979e-06
-2.63016e-07
8.05507e-07
-2.71513e-06
-1.47016e-07
1.04864e-06
-8.55859e-07
6.19117e-08
9.41313e-07
-1.85678e-06
-1.39109e-07
1.5896e-06
-1.62503e-06
-9.28646e-07
2.22628e-06
-1.05054e-06
-1.12254e-06
2.6931e-06
-1.59828e-06
4.02288e-07
3.20056e-06
-3.82826e-06
2.71737e-06
3.60384e-06
-6.03377e-06
4.3051e-06
3.56936e-06
-7.03982e-06
2.42538e-06
2.75503e-06
-3.8951e-06
-1.04251e-06
3.09802e-06
-2.34525e-06
-8.78802e-07
8.84935e-07
4.31862e-07
1.86982e-06
-1.64112e-06
6.28499e-07
2.48405e-06
-1.09109e-06
7.92458e-08
3.03592e-06
-2.60387e-07
-3.76625e-07
3.07018e-06
7.87894e-08
2.35418e-07
2.9498e-06
-3.61269e-07
1.90647e-06
3.39693e-06
-1.46414e-06
4.19788e-06
4.79148e-06
-3.51353e-06
3.94675e-06
6.63145e-06
-3.62529e-06
1.51578e-06
7.48516e-06
-1.95617e-06
4.56597e-06
-3.92899e-06
6.71389e-07
1.81086e-06
-7.39734e-07
1.15619e-06
2.23547e-06
-2.3622e-07
8.93229e-07
2.723e-06
5.75887e-07
5.90098e-07
2.04883e-06
1.32449e-06
1.02107e-06
4.52748e-07
2.06609e-06
2.14717e-06
-2.56921e-07
2.52775e-06
3.66791e-06
1.31509e-06
1.95566e-06
4.32185e-06
6.81482e-06
-8.37296e-07
2.40346e-06
1.15733e-05
-2.16975e-06
1.17277e-05
-4.75823e-06
2.41129e-07
1.57332e-06
-1.78237e-10
2.11409e-07
1.77095e-06
4.94239e-07
4.21682e-08
1.62239e-06
1.26986e-06
1.65411e-07
-7.09846e-08
1.99657e-06
4.88244e-07
-1.98093e-06
2.11085e-06
6.099e-07
-2.67753e-06
2.29896e-06
7.40667e-07
-1.65325e-06
2.83757e-06
1.23784e-06
5.37427e-06
9.43381e-07
9.66723e-07
1.37863e-05
-1.94185e-06
1.49991e-05
-2.30468e-06
-2.42705e-07
8.87191e-07
1.03718e-06
-5.73898e-07
7.1649e-07
1.38566e-06
-4.94798e-07
-2.87558e-07
1.83085e-06
-4.40697e-07
-1.7069e-06
1.58182e-06
-1.03751e-06
-2.33537e-06
9.5126e-07
-1.95239e-06
-2.85646e-06
1.09381e-06
-3.20428e-06
-2.38791e-06
1.98655e-06
-3.12029e-06
3.24621e-06
2.04407e-06
-1.59122e-06
1.1889e-05
3.68201e-07
1.1932e-05
1.4759e-06
-1.48951e-07
-5.71649e-07
1.65302e-06
-1.9423e-07
-8.79135e-07
1.6409e-06
-2.94069e-07
-1.54918e-06
1.36146e-06
-8.59048e-07
-1.93609e-06
7.94172e-07
-1.68144e-06
-1.99131e-06
4.78337e-07
-2.85969e-06
-2.03083e-06
3.52619e-07
-4.55312e-06
-1.58561e-06
8.91119e-07
-4.89144e-06
1.31808e-06
2.26645e-06
-2.62254e-06
6.6582e-06
2.96191e-06
6.14443e-06
3.16498e-06
2.38156e-09
-1.65315e-06
1.16193e-06
-1.32571e-07
-1.73814e-06
9.93952e-07
-4.92094e-07
-1.87314e-06
6.83488e-07
-9.99e-07
-1.90825e-06
4.79075e-07
-1.55399e-06
-1.79858e-06
3.62257e-07
-2.29516e-06
-1.51975e-06
2.30089e-07
-3.25924e-06
-8.72043e-07
2.50521e-07
-3.48968e-06
5.24523e-07
1.024e-06
-1.72658e-06
2.58372e-06
2.31139e-06
2.29249e-06
2.12537e-06
-1.3671e-08
-2.02758e-06
5.76272e-07
-2.46314e-07
-2.01684e-06
5.1135e-07
-5.44905e-07
-2.00544e-06
4.30899e-07
-8.90112e-07
-1.93145e-06
3.68408e-07
-1.26086e-06
-1.74351e-06
3.15676e-07
-1.63759e-06
-1.41474e-06
2.7173e-07
-1.91127e-06
-8.63215e-07
2.64856e-07
-1.74644e-06
-2.54865e-08
3.8518e-07
-7.3789e-07
7.73024e-07
8.02149e-07
6.1229e-07
9.42305e-07
1.95137e-10
4.0867e-07
-2.21779e-06
-2.21713e-07
3.83761e-07
-2.17868e-06
-4.64062e-07
3.48704e-07
-2.11179e-06
-7.18105e-07
3.13133e-07
-1.99053e-06
-9.57182e-07
2.85354e-07
-1.78978e-06
-1.1461e-06
2.69366e-07
-1.49518e-06
-1.19816e-06
2.75743e-07
-1.08689e-06
-9.68604e-07
3.25858e-07
-5.80902e-07
-4.32019e-07
4.42609e-07
-2.06172e-07
5.30316e-07
-3.50045e-07
-1.60816e-07
-2.09035e-07
6.04913e-07
-3.10519e-07
-2.10849e-07
5.85267e-07
-4.20966e-07
-2.19038e-07
5.53007e-07
-4.84417e-07
-2.27083e-07
5.06752e-07
-4.985e-07
-2.35587e-07
4.52442e-07
-4.65911e-07
-2.44316e-07
3.96888e-07
-3.91615e-07
-2.5372e-07
3.45465e-07
-2.81345e-07
-2.65993e-07
3.04708e-07
-1.38509e-07
-2.87246e-07
2.84508e-07
-2.59618e-07
2.42626e-07
-1.30296e-07
-4.49139e-07
6.01479e-07
-2.58291e-07
-4.396e-07
5.76222e-07
-3.54655e-07
-4.42894e-07
5.39331e-07
-4.14125e-07
-4.48286e-07
4.92732e-07
-4.33068e-07
-4.55888e-07
4.37358e-07
-4.11048e-07
-4.67196e-07
3.80719e-07
-3.50307e-07
-4.82193e-07
3.27362e-07
-2.5466e-07
-5.03785e-07
2.82965e-07
-1.28021e-07
-5.42372e-07
2.58247e-07
-4.9671e-07
2.2298e-07
-1.46997e-07
-7.5563e-07
7.69337e-07
-2.94935e-07
-7.30712e-07
7.39474e-07
-4.06234e-07
-7.24007e-07
6.87978e-07
-4.73754e-07
-7.24215e-07
6.25315e-07
-4.95107e-07
-7.2629e-07
5.50976e-07
-4.70411e-07
-7.33905e-07
4.73027e-07
-4.02262e-07
-7.48096e-07
3.99074e-07
-2.95006e-07
-7.7396e-07
3.36725e-07
-1.54273e-07
-8.25613e-07
2.98259e-07
-7.71639e-07
2.56904e-07
-1.49068e-07
-1.18373e-06
1.04496e-06
-3.02894e-07
-1.13692e-06
1.00215e-06
-4.23071e-07
-1.1066e-06
9.21396e-07
-4.98253e-07
-1.08625e-06
8.23235e-07
-5.26289e-07
-1.06577e-06
7.12969e-07
-5.05939e-07
-1.05149e-06
5.97514e-07
-4.38272e-07
-1.05005e-06
4.87785e-07
-3.27317e-07
-1.06806e-06
3.93563e-07
-1.79328e-07
-1.12329e-06
3.30322e-07
-1.07633e-06
2.82624e-07
-1.6975e-07
-1.7372e-06
1.54325e-06
-3.32583e-07
-1.68177e-06
1.48321e-06
-4.57399e-07
-1.6325e-06
1.34837e-06
-5.34942e-07
-1.58478e-06
1.18035e-06
-5.64358e-07
-1.52467e-06
9.98369e-07
-5.46662e-07
-1.46251e-06
8.12956e-07
-4.81594e-07
-1.41594e-06
6.35894e-07
-3.68142e-07
-1.40169e-06
4.81132e-07
-2.0833e-07
-1.4445e-06
3.71056e-07
-1.41377e-06
3.07374e-07
-2.30087e-07
-2.25387e-06
2.06984e-06
-4.25986e-07
-2.21679e-06
2.00276e-06
-5.67364e-07
-2.19692e-06
1.86744e-06
-6.49591e-07
-2.15505e-06
1.66209e-06
-6.71554e-07
-2.08232e-06
1.40988e-06
-6.44831e-07
-1.97833e-06
1.13981e-06
-5.73598e-07
-1.86923e-06
8.73613e-07
-4.53976e-07
-1.79843e-06
6.35435e-07
-2.66204e-07
-1.82184e-06
4.5712e-07
-1.82413e-06
3.66301e-07
-1.77422e-07
-2.91163e-06
2.24725e-06
-3.29102e-07
-2.87081e-06
2.19182e-06
-5.13955e-07
-2.82048e-06
2.1816e-06
-6.52216e-07
-2.74191e-06
2.06303e-06
-7.01538e-07
-2.63001e-06
1.80859e-06
-6.88968e-07
-2.47951e-06
1.4718e-06
-6.3888e-07
-2.29042e-06
1.09721e-06
-5.58724e-07
-2.13399e-06
7.72178e-07
-3.83631e-07
-2.17552e-06
5.62748e-07
-2.32634e-06
4.48174e-07
2.17578e-07
-4.71738e-06
2.56436e-06
2.40329e-07
-4.5609e-06
2.50083e-06
2.06053e-07
-4.19888e-06
2.36352e-06
6.68316e-08
-3.86139e-06
2.35401e-06
-6.33589e-08
-3.58542e-06
2.27049e-06
-1.47144e-07
-3.14856e-06
1.89281e-06
-2.96785e-07
-2.56282e-06
1.33617e-06
-4.4984e-07
-2.1107e-06
7.47038e-07
-4.55231e-07
-2.18204e-06
4.68228e-07
-2.62303e-06
2.11992e-07
1.18701e-06
-5.41678e-06
6.24401e-07
8.28181e-07
-5.23754e-06
1.04623e-06
1.01465e-06
-3.76957e-06
-9.31605e-09
2.13065e-06
-3.18311e-06
-1.93089e-06
1.4623e-06
-4.08731e-06
1.55702e-06
9.31616e-07
-4.30303e-06
2.31124e-06
4.12001e-07
-3.3207e-06
2.07311e-06
-3.76221e-08
-2.24177e-06
1.24188e-06
-2.80241e-07
-1.7176e-06
7.81923e-08
-2.21607e-06
-8.07511e-07
1.41517e-06
-2.4052e-06
-6.87789e-06
2.48244e-06
-1.6771e-06
-6.73112e-06
3.94105e-06
1.14407e-07
-7.47293e-06
5.27314e-06
7.47137e-07
-7.39636e-06
4.83386e-06
5.94144e-07
-5.9153e-06
2.09384e-06
-5.04305e-07
-1.78644e-06
-1.69456e-06
-1.0499e-06
1.37511e-06
-4.50958e-07
-5.49481e-06
3.13253e-06
-1.04866e-07
-1.94945e-06
3.8468e-08
-1.88059e-06
-1.61538e-06
5.54886e-07
-2.17586e-06
-3.71618e-06
1.69579e-06
-1.22946e-06
-3.7624e-06
3.62637e-06
5.98058e-07
-4.17413e-06
5.13053e-06
2.85954e-06
-6.52439e-06
5.19083e-06
4.75255e-06
-8.76329e-06
3.67638e-06
5.11516e-06
-9.15832e-06
1.02375e-06
4.16846e-06
-6.04697e-06
-2.9511e-06
-4.3661e-09
-1.77861e-06
-3.78128e-08
-4.77137e-06
-2.38383e-07
-2.83817e-06
6.39162e-08
-1.15332e-06
-2.36636e-06
-1.46368e-06
-1.52804e-06
-1.2783e-06
-1.20147e-06
-9.80937e-07
-5.1113e-07
-4.88443e-07
8.12604e-07
4.32628e-07
-9.64903e-07
3.17771e-06
2.49324e-06
-3.93405e-06
5.1292e-06
4.33674e-06
-7.20684e-06
5.6447e-06
5.65001e-06
-9.03687e-06
3.22449e-06
5.74058e-06
-7.21984e-06
9.67691e-07
1.13094e-06
-5.99076e-06
4.21159e-06
-5.19714e-06
-1.2e-06
-1.67716e-06
-1.14552e-06
-2.51412e-06
-8.31087e-07
-2.24179e-07
-3.27572e-06
-1.08031e-06
1.07039e-06
-2.97226e-06
-1.68855e-06
1.89652e-06
-1.18509e-06
-1.17571e-06
1.52051e-06
1.66131e-06
7.56595e-07
-7.30383e-07
4.09929e-06
4.34147e-06
-4.64297e-06
3.85828e-06
8.20204e-06
-5.84573e-06
7.30304e-07
8.43115e-06
-6.12841e-06
7.95824e-06
-6.94534e-06
-8.3913e-07
-1.36358e-06
9.15929e-08
-1.59906e-06
-1.14829e-06
8.40911e-07
-1.81484e-06
-2.03902e-06
1.75039e-06
-1.43562e-06
-3.23425e-06
2.49097e-06
-3.10166e-07
-3.5331e-06
3.29802e-06
1.21513e-06
-2.08526e-06
3.8443e-06
2.9168e-06
2.3891e-06
2.20635e-06
2.78659e-06
9.63277e-06
-2.13781e-06
6.81688e-07
1.29748e-05
-4.60855e-06
1.07186e-05
-6.8369e-06
-8.55081e-07
-1.24906e-06
1.26155e-06
-1.47982e-06
-1.57049e-06
1.54118e-06
-1.50466e-06
-2.6319e-06
1.88758e-06
-1.27169e-06
-3.55247e-06
2.08183e-06
-1.15014e-06
-3.73452e-06
2.19072e-06
-6.38187e-07
-2.97823e-06
2.67997e-06
8.13322e-07
1.10419e-06
2.67097e-06
1.52655e-06
9.84453e-06
1.83924e-08
4.76333e-07
1.50984e-05
-3.01522e-06
1.18563e-05
-2.96603e-06
-3.69204e-07
-1.44565e-06
2.01063e-06
-8.05373e-07
-1.86685e-06
2.1182e-06
-9.4872e-07
-2.69269e-06
2.03499e-06
-1.54599e-06
-2.92881e-06
1.55543e-06
-2.73659e-06
-2.80057e-06
1.20791e-06
-3.5934e-06
-2.60263e-06
1.57502e-06
-3.37156e-06
4.67403e-07
2.4015e-06
-1.62602e-06
7.85721e-06
2.28585e-06
-1.08543e-06
1.37414e-05
1.18469e-06
9.6528e-06
2.59396e-06
3.64296e-08
-1.87107e-06
2.24291e-06
-1.29634e-07
-2.09308e-06
2.03319e-06
-6.45063e-07
-2.32347e-06
1.50768e-06
-1.66532e-06
-2.14372e-06
1.02934e-06
-3.01219e-06
-1.87607e-06
9.00695e-07
-4.87569e-06
-1.46707e-06
1.08056e-06
-6.05102e-06
2.13326e-07
2.32053e-06
-5.00554e-06
4.79944e-06
4.27876e-06
-2.67408e-06
9.07254e-06
5.29928e-06
5.22484e-06
4.91886e-06
7.03031e-08
-1.99237e-06
1.42644e-06
-2.39746e-07
-1.99173e-06
1.20266e-06
-8.35665e-07
-1.93852e-06
8.94465e-07
-1.48853e-06
-1.79197e-06
7.802e-07
-2.26765e-06
-1.50815e-06
7.73462e-07
-3.43796e-06
-9.38375e-07
8.71705e-07
-4.62843e-06
1.94793e-07
1.45953e-06
-4.29673e-06
2.39138e-06
3.10038e-06
-1.79726e-06
4.20595e-06
4.67851e-06
2.03032e-06
3.52262e-06
-3.71285e-08
-1.94741e-06
8.47285e-07
-3.84754e-07
-1.90761e-06
7.74864e-07
-7.6413e-07
-1.83894e-06
7.10707e-07
-1.1716e-06
-1.69314e-06
6.77051e-07
-1.61949e-06
-1.42507e-06
6.80482e-07
-2.07014e-06
-9.72185e-07
7.56202e-07
-2.3742e-06
-2.08341e-07
9.72054e-07
-1.93001e-06
8.64481e-07
1.46789e-06
-5.78048e-07
1.52644e-06
2.1297e-06
5.87935e-07
1.80664e-06
-7.10646e-09
7.41644e-07
-1.98602e-06
-2.99307e-07
6.99203e-07
-1.93085e-06
-5.92586e-07
6.48833e-07
-1.84579e-06
-8.84064e-07
6.11145e-07
-1.69968e-06
-1.15122e-06
5.97377e-07
-1.46994e-06
-1.35327e-06
6.3214e-07
-1.13291e-06
-1.35931e-06
7.33406e-07
-6.59955e-07
-9.89473e-07
9.10381e-07
-8.98806e-08
-3.55033e-07
1.09743e-06
2.37184e-07
1.04791e-06
-2.84685e-07
-1.61372e-07
-1.58483e-07
9.37182e-07
-3.22483e-07
-1.51146e-07
8.97525e-07
-4.43655e-07
-1.5179e-07
8.25969e-07
-5.12451e-07
-1.62156e-07
7.37704e-07
-5.28886e-07
-1.77046e-07
6.45922e-07
-4.96263e-07
-1.94558e-07
5.58823e-07
-4.19036e-07
-2.13868e-07
4.82107e-07
-3.01603e-07
-2.36531e-07
4.23807e-07
-1.47459e-07
-2.66064e-07
3.96427e-07
-2.37056e-07
3.32222e-07
-1.25136e-07
-3.42232e-07
9.25724e-07
-2.614e-07
-3.13883e-07
8.75223e-07
-3.72868e-07
-3.02039e-07
8.01049e-07
-4.42162e-07
-3.1104e-07
7.1091e-07
-4.6665e-07
-3.32585e-07
6.17386e-07
-4.46397e-07
-3.63325e-07
5.29234e-07
-3.83144e-07
-4.00839e-07
4.51081e-07
-2.79388e-07
-4.45944e-07
3.88621e-07
-1.39047e-07
-5.03929e-07
3.55772e-07
-4.55549e-07
3.02426e-07
-1.53535e-07
-5.34431e-07
1.13041e-06
-3.07735e-07
-4.90998e-07
1.07079e-06
-4.37303e-07
-4.73339e-07
9.88845e-07
-5.20412e-07
-4.8591e-07
8.83294e-07
-5.49575e-07
-5.17662e-07
7.65216e-07
-5.26556e-07
-5.63791e-07
6.50474e-07
-4.53464e-07
-6.198e-07
5.44943e-07
-3.33612e-07
-6.87355e-07
4.58284e-07
-1.72471e-07
-7.74069e-07
4.07258e-07
-7.1662e-07
3.45505e-07
-1.73939e-07
-7.44173e-07
1.44241e-06
-3.42011e-07
-7.04248e-07
1.38347e-06
-4.84017e-07
-6.8312e-07
1.27318e-06
-5.80894e-07
-6.9526e-07
1.12946e-06
-6.19384e-07
-7.32399e-07
9.66196e-07
-6.00244e-07
-7.91381e-07
8.05963e-07
-5.23176e-07
-8.64983e-07
6.559e-07
-3.90637e-07
-9.5421e-07
5.27879e-07
-2.09164e-07
-1.06794e-06
4.4272e-07
-1.01689e-06
3.73726e-07
-2.04603e-07
-9.20068e-07
1.93242e-06
-4.00638e-07
-9.19896e-07
1.89489e-06
-5.58303e-07
-9.19903e-07
1.74282e-06
-6.68719e-07
-9.40064e-07
1.53557e-06
-7.18641e-07
-9.83403e-07
1.2993e-06
-7.0687e-07
-1.05146e-06
1.06127e-06
-6.27666e-07
-1.14296e-06
8.34663e-07
-4.78261e-07
-1.25521e-06
6.32725e-07
-2.5994e-07
-1.40112e-06
4.85913e-07
-1.36609e-06
3.9664e-07
-2.80033e-07
-1.0235e-06
2.46449e-06
-5.49433e-07
-1.07687e-06
2.42914e-06
-7.31178e-07
-1.14232e-06
2.2716e-06
-8.42727e-07
-1.19707e-06
2.03065e-06
-8.92769e-07
-1.25652e-06
1.73304e-06
-8.85151e-07
-1.33168e-06
1.41242e-06
-8.01522e-07
-1.45035e-06
1.09738e-06
-6.32811e-07
-1.59674e-06
8.08255e-07
-3.58628e-07
-1.79601e-06
5.77827e-07
-1.80658e-06
4.48158e-07
-3.36964e-07
-1.16472e-06
2.74174e-06
-6.78429e-07
-1.27209e-06
2.72851e-06
-9.37366e-07
-1.38178e-06
2.68e-06
-1.06e-06
-1.46979e-06
2.45839e-06
-1.07529e-06
-1.53561e-06
2.10297e-06
-1.03476e-06
-1.59908e-06
1.69867e-06
-9.22351e-07
-1.75803e-06
1.29248e-06
-7.65986e-07
-1.92228e-06
9.41353e-07
-5.19892e-07
-2.12407e-06
6.44713e-07
-2.30837e-06
4.30078e-07
-1.57702e-07
-1.63789e-06
3.27196e-06
-4.17875e-07
-1.64287e-06
3.13178e-06
-6.04425e-07
-1.62591e-06
2.7942e-06
-7.62986e-07
-1.7384e-06
2.78118e-06
-8.09894e-07
-1.98981e-06
2.7716e-06
-7.67787e-07
-2.00261e-06
2.25423e-06
-7.41471e-07
-1.94991e-06
1.50174e-06
-7.16792e-07
-1.99679e-06
7.96875e-07
-6.15508e-07
-2.07486e-06
3.17733e-07
-2.55942e-06
-1.52468e-07
1.42483e-06
-7.86198e-07
-9.76577e-07
1.10139e-06
1.74492e-07
-4.477e-07
1.21308e-06
4.99183e-07
-2.2461e-06
8.63133e-07
1.91445e-07
-3.51078e-06
4.11241e-07
-1.67032e-06
1.68941e-06
-2.74866e-07
-1.99713e-06
2.99187e-06
-1.09048e-06
-1.59027e-06
2.52908e-06
-1.2491e-06
-1.59924e-06
1.00295e-06
-6.26231e-07
-2.23342e-06
-3.86117e-07
-2.57931e-06
-1.41385e-06
7.77561e-07
-2.30497e-06
-7.36153e-06
2.47341e-06
-6.54539e-07
-7.59794e-06
3.46274e-06
1.07692e-06
-9.03999e-06
3.41614e-06
2.72563e-06
-9.88395e-06
1.90537e-06
3.16649e-06
-9.24134e-06
-6.24722e-07
3.20641e-06
-4.45989e-06
-4.28454e-06
3.17763e-06
2.67016e-07
-4.06627e-06
-1.44027e-06
2.7553e-06
-1.12192e-06
-6.80646e-06
1.66717e-06
-4.01218e-06
-1.30444e-06
6.87347e-07
-4.19634e-06
-3.50631e-06
3.028e-06
-3.74448e-06
-3.01311e-06
5.71881e-06
-2.76461e-06
-3.02341e-06
7.45196e-06
4.78715e-08
-5.57979e-06
6.6076e-06
3.97106e-06
-8.7235e-06
3.84234e-06
6.34399e-06
-9.53063e-06
1.75884e-06
6.93445e-06
-7.72028e-06
-3.14955e-07
3.53376e-06
-4.67885e-06
-6.22141e-07
-1.38419e-06
-5.35347e-06
-1.56061e-06
-3.00979e-06
-1.52388e-06
-4.57704e-06
-7.27803e-07
-1.37092e-06
-4.81587e-06
-2.83041e-07
-2.2185e-07
-5.22252e-06
8.20406e-07
2.51444e-06
-4.39803e-06
7.4471e-07
5.03859e-06
-6.10553e-07
-1.87658e-06
6.46161e-06
3.32233e-06
-5.60821e-06
7.20723e-06
5.80854e-06
-8.65657e-06
6.92965e-06
6.18729e-06
-9.5958e-06
3.7914e-06
5.49745e-06
-9.73415e-06
4.65967e-06
-7.62601e-06
-1.51836e-06
-3.82313e-06
-4.54023e-07
-2.55197e-06
-4.04282e-06
3.63759e-08
-3.1962e-06
-4.94248e-06
1.43458e-06
-2.98877e-06
-5.32913e-06
2.6202e-06
-7.65432e-07
-3.95056e-06
2.63718e-06
2.67851e-06
-7.69026e-07
-8.29575e-08
4.89573e-06
3.22205e-06
-4.2737e-06
5.20581e-06
6.69415e-06
-6.66268e-06
3.49443e-06
7.64984e-06
-6.56941e-06
7.83532e-06
-6.62655e-06
-7.82762e-07
-2.97014e-06
3.85752e-07
-1.45149e-06
-3.38692e-06
8.53741e-07
-1.716e-06
-4.44386e-06
1.51628e-06
-1.94016e-06
-4.97639e-06
2.3624e-06
-1.55884e-06
-4.41817e-06
3.38431e-06
1.41427e-08
-2.18835e-06
3.69065e-06
1.61124e-06
2.58433e-06
1.24696e-06
1.05594e-06
7.526e-06
-2.41436e-06
1.48594e-07
7.83709e-06
-3.88845e-06
6.3383e-06
-5.19128e-06
-6.01765e-07
-2.5247e-06
1.74645e-06
-1.08687e-06
-3.12784e-06
1.76722e-06
-1.35196e-06
-3.97268e-06
1.68149e-06
-1.91134e-06
-3.99164e-06
1.65646e-06
-2.42768e-06
-3.60781e-06
1.89671e-06
-2.03086e-06
-2.3611e-06
2.4559e-06
-1.06732e-06
1.89933e-06
2.39243e-06
-1.34392e-06
7.5542e-06
2.66801e-07
-2.22969e-06
7.65237e-06
-1.94473e-06
3.56861e-06
-2.42603e-06
-1.02413e-07
-2.41437e-06
2.29414e-06
-4.22986e-07
-2.78223e-06
2.09316e-06
-9.51329e-07
-3.07443e-06
1.66509e-06
-1.94922e-06
-2.79803e-06
1.35972e-06
-3.22896e-06
-2.54872e-06
1.42856e-06
-4.08346e-06
-2.00926e-06
2.07767e-06
-3.67177e-06
6.63932e-07
3.2252e-06
-2.60864e-06
5.22417e-06
3.55276e-06
-2.59231e-06
6.09707e-06
2.72367e-06
1.48622e-06
2.08404e-06
1.10929e-07
-2.13531e-06
2.04476e-06
-1.74911e-07
-2.21749e-06
1.75429e-06
-8.40436e-07
-2.20334e-06
1.30212e-06
-1.7493e-06
-2.00739e-06
1.14756e-06
-2.9208e-06
-1.74995e-06
1.27343e-06
-4.46338e-06
-1.18657e-06
1.80045e-06
-5.079e-06
2.57267e-07
3.34282e-06
-3.80561e-06
2.96654e-06
5.26299e-06
-2.11241e-06
3.93872e-06
5.76443e-06
3.26298e-07
3.96637e-06
2.80196e-09
-1.8722e-06
1.39059e-06
-3.65855e-07
-1.86027e-06
1.2141e-06
-8.91327e-07
-1.8295e-06
1.04611e-06
-1.44456e-06
-1.71525e-06
1.0413e-06
-2.10032e-06
-1.4564e-06
1.13567e-06
-2.92596e-06
-9.11295e-07
1.42208e-06
-3.49685e-06
8.1815e-08
2.20588e-06
-2.66421e-06
1.56482e-06
3.66947e-06
-7.3071e-07
2.10794e-06
4.57578e-06
1.39278e-07
2.97893e-06
-6.36195e-08
-1.85609e-06
1.1623e-06
-4.07634e-07
-1.82456e-06
1.08317e-06
-7.65554e-07
-1.76878e-06
1.00791e-06
-1.13929e-06
-1.64161e-06
9.77145e-07
-1.51712e-06
-1.40408e-06
1.00599e-06
-1.82747e-06
-9.97853e-07
1.15311e-06
-1.87679e-06
-3.55033e-07
1.45823e-06
-1.28131e-06
4.54594e-07
1.98262e-06
-2.64712e-07
7.99987e-07
2.42105e-06
-1.77791e-07
1.859e-06
-3.21785e-08
1.1461e-06
-1.95714e-06
-3.28801e-07
1.07027e-06
-1.899e-06
-6.13143e-07
9.76087e-07
-1.81169e-06
-8.77007e-07
9.10028e-07
-1.67663e-06
-1.10038e-06
8.85114e-07
-1.46843e-06
-1.23952e-06
9.38435e-07
-1.16501e-06
-1.17998e-06
1.07355e-06
-7.54729e-07
-8.05164e-07
1.27952e-06
-2.8936e-07
-2.61883e-07
1.44111e-06
-8.69706e-08
1.24557e-06
-6.37338e-07
-2.02807e-07
-4.53177e-09
1.15852e-06
-3.7964e-07
-1.99166e-08
1.09427e-06
-5.0909e-07
-4.80679e-08
1.00349e-06
-5.84704e-07
-7.57492e-08
8.89067e-07
-6.02185e-07
-1.10315e-07
7.73718e-07
-5.651e-07
-1.44293e-07
6.66032e-07
-4.77285e-07
-1.77852e-07
5.72144e-07
-3.42469e-07
-2.13964e-07
5.02954e-07
-1.64614e-07
-2.53896e-07
4.72469e-07
-2.19116e-07
3.86724e-07
-1.83325e-07
-1.17448e-08
1.14425e-06
-3.35269e-07
-6.41606e-08
1.07141e-06
-4.45892e-07
-1.00443e-07
9.64047e-07
-5.18606e-07
-1.38831e-07
8.46706e-07
-5.43455e-07
-1.95868e-07
7.27787e-07
-5.19054e-07
-2.60259e-07
6.20798e-07
-4.45636e-07
-3.27136e-07
5.26948e-07
-3.2395e-07
-4.01021e-07
4.53992e-07
-1.58084e-07
-4.82616e-07
4.18625e-07
-4.23445e-07
3.48671e-07
-2.07149e-07
6.94595e-08
1.28839e-06
-3.95474e-07
-8.6571e-08
1.28152e-06
-5.33386e-07
-1.42212e-07
1.16853e-06
-6.2065e-07
-2.00876e-07
1.0326e-06
-6.53116e-07
-2.88471e-07
8.90284e-07
-6.26083e-07
-3.9297e-07
7.56153e-07
-5.39931e-07
-5.01996e-07
6.33651e-07
-3.96092e-07
-6.19917e-07
5.3334e-07
-2.00153e-07
-7.48559e-07
4.77262e-07
-6.75109e-07
3.97016e-07
-2.18141e-07
2.12552e-07
1.54894e-06
-4.47819e-07
-8.34103e-08
1.60999e-06
-6.19374e-07
-1.83708e-07
1.48623e-06
-7.2548e-07
-2.68479e-07
1.30317e-06
-7.7005e-07
-3.87394e-07
1.10969e-06
-7.45833e-07
-5.34721e-07
9.23497e-07
-6.51232e-07
-6.93858e-07
7.53161e-07
-4.85285e-07
-8.64724e-07
6.06739e-07
-2.52585e-07
-1.05034e-06
5.11803e-07
-9.78879e-07
4.24911e-07
-1.97933e-07
3.60731e-07
2.01656e-06
-5.00079e-07
-2.33695e-08
2.137e-06
-7.29013e-07
-2.0657e-07
1.99461e-06
-8.72861e-07
-3.29593e-07
1.74053e-06
-9.42116e-07
-4.79302e-07
1.46046e-06
-9.29741e-07
-6.74236e-07
1.18841e-06
-8.30371e-07
-8.95606e-07
9.37041e-07
-6.34373e-07
-1.14119e-06
7.13188e-07
-3.35101e-07
-1.41555e-06
5.51849e-07
-1.36424e-06
4.46898e-07
-2.04849e-07
4.66483e-07
2.60033e-06
-6.00121e-07
7.81786e-08
2.72286e-06
-8.96665e-07
-1.88221e-07
2.54979e-06
-1.0765e-06
-3.61225e-07
2.24212e-06
-1.17741e-06
-5.37113e-07
1.89176e-06
-1.18612e-06
-7.81855e-07
1.52875e-06
-1.09258e-06
-1.08033e-06
1.18856e-06
-8.74583e-07
-1.44279e-06
8.91864e-07
-4.94898e-07
-1.86516e-06
6.47751e-07
-1.89983e-06
4.88852e-07
-2.60563e-07
1.89051e-07
3.38279e-06
-7.8062e-07
-1.25763e-07
3.4525e-06
-1.15082e-06
-3.94485e-07
3.25646e-06
-1.31321e-06
-5.49618e-07
2.80917e-06
-1.36019e-06
-6.38257e-07
2.25109e-06
-1.34361e-06
-8.4155e-07
1.74178e-06
-1.27175e-06
-1.20599e-06
1.34629e-06
-1.0911e-06
-1.73074e-06
1.04865e-06
-7.29529e-07
-2.27579e-06
6.93774e-07
-2.53496e-06
3.35683e-07
-3.1714e-07
-5.39997e-07
4.33272e-06
-6.59442e-07
-8.65464e-07
4.21379e-06
-9.04018e-07
-1.05564e-06
3.69993e-06
-1.18337e-06
-6.79582e-07
3.19049e-06
-1.44663e-06
-4.46613e-07
2.84322e-06
-1.46977e-06
-9.29646e-07
2.36547e-06
-1.42945e-06
-1.31365e-06
1.56907e-06
-1.30079e-06
-1.88252e-06
8.19998e-07
-9.04814e-07
-2.51935e-06
1.65322e-07
-3.04315e-06
-5.49093e-07
2.80229e-07
-9.58884e-07
-1.98392e-06
1.37625e-06
-4.21763e-07
-1.98743e-06
8.36874e-07
2.39295e-07
-3.00165e-06
-1.39868e-06
2.56881e-06
-4.52362e-06
-1.91252e-06
5.86298e-07
1.17034e-06
-2.39236e-06
-1.35744e-06
3.8995e-06
-2.61664e-06
-9.94843e-07
2.43455e-06
-2.13272e-06
-1.56338e-06
1.99899e-07
-7.69416e-07
-3.27041e-06
-9.98361e-07
-3.81783e-06
-1.40859e-06
-4.74767e-07
-4.74593e-06
-5.98252e-06
1.40919e-06
-3.36303e-06
-6.54063e-06
2.18347e-06
-2.11362e-06
-7.46134e-06
2.49941e-06
1.9172e-06
-9.54828e-06
1.2812e-06
3.61373e-06
-1.10506e-05
-5.09623e-07
3.38173e-06
-7.40824e-06
-1.82061e-06
3.51919e-06
-2.93604e-06
-1.9364e-06
2.87463e-06
-1.56693e-06
-3.49683e-08
-6.19618e-07
-2.88506e-06
-5.71333e-06
5.5609e-07
5.02464e-07
-6.21626e-06
-3.97922e-06
3.01017e-06
-5.68274e-06
-3.20111e-06
5.61281e-06
-5.8092e-06
-1.93046e-06
7.70381e-06
-3.12053e-06
-2.63305e-06
8.02237e-06
5.54174e-07
-5.9825e-06
6.95591e-06
3.96522e-06
-9.04767e-06
6.4585e-06
5.50638e-06
-9.21006e-06
6.18215e-06
5.94488e-06
-7.47274e-06
3.06526e-06
3.74712e-06
-6.60331e-06
-1.27261e-06
-4.38524e-06
-1.1339e-06
-5.60879e-06
-1.27978e-06
-8.17172e-07
-5.79064e-06
-4.91853e-07
6.00707e-09
-6.9492e-06
1.13723e-06
2.62273e-06
-6.80167e-06
1.80912e-06
5.36404e-06
-4.09841e-06
3.46977e-08
7.3112e-06
2.01837e-07
-3.79199e-06
8.53899e-06
3.18098e-06
-7.55897e-06
9.38433e-06
5.0483e-06
-9.54456e-06
7.48231e-06
5.36488e-06
-9.44988e-06
5.10806e-06
-6.52438e-06
-1.13912e-06
-4.91488e-06
-5.47258e-07
-1.66718e-06
-5.15786e-06
-6.83567e-08
-2.36633e-06
-5.91507e-06
1.0996e-06
-2.57138e-06
-6.28842e-06
2.31199e-06
-1.18233e-06
-5.33019e-06
2.47991e-06
1.62447e-06
-2.89733e-06
2.09404e-07
3.57739e-06
1.59458e-07
-3.2051e-06
4.80712e-06
2.37704e-06
-5.22115e-06
4.245e-06
4.53271e-06
-5.17511e-06
7.1178e-06
-4.39129e-06
-2.62038e-07
-4.13556e-06
-6.75681e-08
-5.01208e-07
-4.35196e-06
2.87013e-07
-9.86386e-07
-4.75137e-06
8.37762e-07
-1.8875e-06
-4.77948e-06
1.75457e-06
-2.4143e-06
-4.30275e-06
2.88368e-06
-1.94854e-06
-2.87509e-06
3.20265e-06
-1.77269e-06
-3.8905e-07
1.61962e-06
-2.47318e-06
1.14632e-06
-4.83156e-07
-1.67275e-06
1.64117e-06
-1.79735e-06
3.21242e-06
-2.95864e-06
-2.21352e-07
-3.23163e-06
1.09774e-06
-5.03526e-07
-3.50439e-06
1.20182e-06
-9.63057e-07
-3.72279e-06
1.11244e-06
-1.80749e-06
-3.56702e-06
1.28843e-06
-2.64968e-06
-3.29883e-06
1.73498e-06
-2.90965e-06
-2.59002e-06
2.43079e-06
-2.85765e-06
-7.20135e-07
2.67151e-06
-3.74819e-06
8.94126e-07
1.40953e-06
-3.5963e-06
-9.64828e-08
-3.5897e-07
-1.11994e-06
-1.68997e-06
3.01779e-08
-2.50637e-06
1.68596e-06
-2.38563e-07
-2.68111e-06
1.53863e-06
-8.19017e-07
-2.72969e-06
1.25245e-06
-1.67998e-06
-2.62761e-06
1.28128e-06
-2.61621e-06
-2.49271e-06
1.55865e-06
-3.26299e-06
-2.1177e-06
2.25213e-06
-2.9831e-06
-1.13718e-06
3.36236e-06
-2.55201e-06
2.66948e-07
3.74885e-06
-2.33936e-06
-3.37447e-07
2.75198e-06
-2.36981e-06
9.94557e-07
2.58788e-08
-1.96524e-06
1.65195e-06
-2.99428e-07
-2.07161e-06
1.47011e-06
-8.32974e-07
-2.11831e-06
1.22429e-06
-1.47227e-06
-2.07962e-06
1.23886e-06
-2.20379e-06
-1.91046e-06
1.4227e-06
-2.96624e-06
-1.48027e-06
1.92547e-06
-3.1052e-06
-6.97102e-07
3.04171e-06
-2.04354e-06
7.43222e-08
4.39396e-06
-8.79571e-07
-1.83522e-07
4.44653e-06
-1.64532e-06
2.36231e-06
-9.39118e-08
-1.78133e-06
1.51311e-06
-4.56605e-07
-1.88176e-06
1.38695e-06
-8.54808e-07
-1.91728e-06
1.24329e-06
-1.27248e-06
-1.84594e-06
1.22529e-06
-1.69875e-06
-1.65509e-06
1.30657e-06
-2.05894e-06
-1.27326e-06
1.57526e-06
-2.05393e-06
-6.19956e-07
2.12372e-06
-1.26791e-06
3.67738e-08
2.921e-06
-1.96166e-07
4.07071e-08
3.27981e-06
-9.33947e-07
2.07139e-06
-1.27414e-07
-1.82228e-06
1.54512e-06
-4.61806e-07
-1.89791e-06
1.43372e-06
-7.70493e-07
-1.88067e-06
1.27999e-06
-1.06714e-06
-1.77204e-06
1.1999e-06
-1.32324e-06
-1.5817e-06
1.18869e-06
-1.4771e-06
-1.27643e-06
1.31015e-06
-1.3576e-06
-8.36938e-07
1.5557e-06
-8.60469e-07
-3.57137e-07
1.8794e-06
-2.32079e-07
-2.29047e-07
2.06241e-06
-8.99747e-07
1.59272e-06
-1.05083e-07
1.5428e-06
-1.91005e-06
-4.03139e-07
1.44176e-06
-1.97134e-06
-6.54587e-07
1.27644e-06
-1.92957e-06
-8.71073e-07
1.1571e-06
-1.80262e-06
-1.02234e-06
1.07606e-06
-1.62138e-06
-1.08296e-06
1.09794e-06
-1.37531e-06
-9.72887e-07
1.19195e-06
-1.06542e-06
-6.47817e-07
1.33592e-06
-7.38612e-07
-2.38169e-07
1.42911e-06
-6.26698e-07
1.19718e-06
-1.08952e-06
-2.50984e-07
1.80598e-07
1.25324e-06
-4.68311e-07
1.1248e-07
1.19912e-06
-6.12868e-07
5.63529e-08
1.09169e-06
-6.90986e-07
2.04732e-09
9.65137e-07