/*--------------------------------*- C++ -*----------------------------------*\
| =========                 |                                                 |
| \\      /  F ield         | OpenFOAM: The Open Source CFD Toolbox           |
|  \\    /   O peration     | Version:  2312                                  |
|   \\  /    A nd           | Website:  www.openfoam.com                      |
|    \\/     M anipulation  |                                                 |
\*---------------------------------------------------------------------------*/
FoamFile
{
    version     2.0;
    format      ascii;
    arch        "LSB;label=32;scalar=64";
    class       surfaceScalarField;
    location    "0.905";
    object      alphaPhi0.water;
}
// * * * * * * * * * * * * * * * * * * * * * * * * * * * * * * * * * * * * * //

dimensions      [0 3 -1 0 0 0 0];

oriented        oriented;

internalField   nonuniform List<scalar> 
22600
(
-1.60099e-07
3.37393e-07
-1.77294e-07
-1.95012e-07
2.56887e-07
-2.21974e-07
-1.94066e-07
2.27672e-07
-2.28618e-07
-1.9471e-07
1.836e-07
-1.82956e-07
-1.88086e-07
1.24605e-07
-1.31228e-07
-1.66576e-07
7.48011e-08
-9.6312e-08
-1.33404e-07
4.33242e-08
-7.64956e-08
-8.58903e-08
2.26994e-08
-7.02135e-08
-2.38139e-08
7.7695e-09
-6.98456e-08
-3.56047e-09
-7.7096e-08
-2.11992e-07
7.82206e-07
-2.3282e-07
-2.78e-07
6.11569e-07
-2.88674e-07
-3.0368e-07
5.84197e-07
-3.30845e-07
-3.13781e-07
4.78456e-07
-2.84755e-07
-3.05359e-07
3.1002e-07
-1.93837e-07
-2.66691e-07
1.70763e-07
-1.34631e-07
-2.0482e-07
8.59567e-08
-1.04502e-07
-1.29298e-07
3.728e-08
-9.01027e-08
-3.80638e-08
-5.7606e-09
-7.77044e-08
-4.38214e-08
-7.40688e-08
-1.52185e-07
1.12435e-06
-1.89958e-07
-2.66895e-07
8.52815e-07
-1.26536e-07
-3.78906e-07
9.33834e-07
-2.37626e-07
-4.31229e-07
8.26638e-07
-2.9586e-07
-4.07088e-07
5.35715e-07
-2.49835e-07
-3.36503e-07
2.65561e-07
-1.65383e-07
-2.53719e-07
1.09439e-07
-1.06266e-07
-1.77929e-07
3.40524e-08
-7.25631e-08
-7.48294e-08
-7.33457e-08
-3.55145e-08
-2.22445e-07
4.43656e-09
-1.55457e-08
1.23813e-06
-9.82319e-08
-2.54878e-07
8.91895e-07
2.00253e-07
-5.54701e-07
1.16976e-06
6.38947e-08
-7.21696e-07
1.08025e-06
-8.66151e-08
-6.79637e-07
6.49531e-07
-1.55876e-07
-5.36083e-07
2.48855e-07
-1.26848e-07
-4.26266e-07
6.93345e-08
-6.97123e-08
-3.63518e-07
-2.43908e-08
-4.30493e-09
-1.88832e-07
-3.5132e-07
1.03288e-07
-7.27453e-07
2.0156e-07
-2.54769e-08
1.23969e-06
2.39072e-08
-6.59465e-07
9.21512e-07
6.04371e-07
-1.20791e-06
1.23216e-06
4.86038e-07
-1.41151e-06
1.03405e-06
2.49802e-07
-1.29918e-06
4.23681e-07
1.13512e-07
-9.86342e-07
-1.34119e-07
7.01383e-08
-7.05852e-07
-2.65665e-07
5.45091e-08
-4.96521e-07
-3.2423e-07
9.0509e-08
-1.34599e-07
-9.24874e-07
2.11632e-07
-1.28353e-06
2.46169e-07
-8.9244e-07
1.15878e-06
-2.49075e-07
-2.1963e-06
1.19699e-06
-4.5494e-08
-2.54262e-06
6.42416e-07
5.88329e-07
-2.28208e-06
3.09561e-07
4.63945e-07
-1.85986e-06
-2.31087e-07
2.32553e-07
-1.21749e-06
-8.64912e-07
8.83771e-08
-6.11636e-07
-9.0517e-07
3.36451e-08
-2.0167e-07
-6.99522e-07
-3.468e-08
1.59591e-07
-1.14371e-06
-1.42451e-07
-1.26158e-06
-2.06733e-07
-5.77493e-07
-1.12585e-07
-4.11418e-07
-9.63906e-07
-8.30351e-08
-1.00395e-06
-1.73112e-06
7.03901e-08
-6.00936e-07
-2.19598e-06
3.20393e-08
-1.30866e-07
-1.98066e-06
-4.01085e-07
-6.5726e-08
-1.32017e-06
-9.68384e-07
-1.72622e-07
-5.29298e-07
-1.25311e-06
-1.25237e-07
3.81252e-08
-9.63566e-07
-1.98609e-07
1.74747e-07
-7.30918e-07
-4.52394e-07
-6.26321e-07
-6.06324e-07
-7.32928e-08
4.43689e-08
-1.77216e-07
-1.00122e-07
2.04279e-08
-2.08949e-07
-1.49879e-07
-1.46576e-08
-2.48949e-07
-3.02773e-07
-1.10057e-08
-2.663e-07
-4.20153e-07
-6.66364e-09
-1.93643e-07
-4.93781e-07
-1.244e-09
-3.58903e-08
-5.31129e-07
-4.48422e-08
1.17375e-07
-2.05769e-07
-4.09185e-07
7.64337e-08
-3.16758e-07
-7.20468e-08
-1.50202e-07
1.38383e-08
-3.40444e-07
1.84268e-09
2.05681e-08
-9.51686e-09
1.23792e-08
1.31044e-08
-2.5529e-08
7.00576e-09
-1.1375e-09
-1.8212e-08
6.53032e-09
-1.61514e-09
-8.76226e-09
1.94631e-10
-4.93606e-11
-2.50564e-10
-1.12276e-09
-1.10295e-11
1.15224e-12
-4.74873e-08
-2.89527e-11
1.51722e-09
-1.38134e-07
-8.18961e-10
1.77553e-08
-2.03562e-07
-4.63327e-09
8.31918e-09
2.29883e-09
-3.87835e-08
3.38021e-09
3.8525e-09
5.13844e-09
6.25517e-09
3.60472e-09
4.96903e-11
2.90527e-09
-6.33901e-10
-1.77842e-10
7.50326e-10
-2.59927e-10
-2.02514e-12
1.16955e-10
4.26673e-10
-5.88286e-11
8.24779e-11
4.0432e-11
-6.23451e-12
9.04259e-12
8.55184e-13
1.54759e-11
-8.69321e-10
-5.64107e-12
5.27958e-11
-8.07826e-09
-7.25059e-11
2.07749e-10
2.20749e-10
-2.61701e-09
8.10455e-10
4.5974e-10
8.94199e-10
1.67561e-09
4.72581e-10
7.13846e-10
6.4394e-10
-3.73947e-10
2.55621e-10
3.73455e-10
-6.87914e-11
4.10065e-11
2.71636e-10
1.0315e-10
1.31582e-11
6.24421e-11
9.07647e-11
1.34251e-11
1.94871e-11
1.91462e-11
1.24162e-11
-1.09757e-11
2.19077e-12
1.31785e-11
-1.51697e-10
6.2744e-12
3.21898e-11
2.80764e-12
9.23534e-11
1.08774e-10
-7.4949e-11
3.77516e-11
2.99572e-10
-1.23423e-10
5.17965e-11
2.26482e-10
3.43891e-11
1.20624e-11
4.25106e-10
7.74252e-11
-6.62935e-12
3.78758e-10
8.59117e-11
-2.28314e-12
2.1628e-10
1.44878e-10
4.61707e-11
1.87736e-11
6.29958e-11
4.8219e-11
-1.98069e-12
6.55819e-12
9.90392e-12
-1.01272e-11
1.66771e-12
6.26351e-12
-3.38243e-12
5.77929e-12
5.06482e-11
2.33554e-10
-8.66819e-12
1.28361e-10
2.3389e-10
-1.16322e-11
2.12585e-10
1.47204e-10
-9.47685e-12
3.216e-10
8.35672e-11
-1.10445e-11
3.02223e-10
1.47381e-10
-4.01779e-11
1.82079e-10
1.3551e-10
3.06286e-11
5.99309e-12
3.06809e-11
5.39085e-11
-1.01682e-11
1.16475e-11
1.11094e-11
-2.17518e-11
5.75998e-12
7.17703e-12
6.01902e-12
4.43171e-12
4.48884e-11
3.68871e-10
-3.76728e-11
5.71783e-11
3.19852e-10
-2.46818e-12
1.06942e-10
1.4648e-10
-1.37953e-11
1.79736e-10
5.42143e-11
-7.62741e-12
2.13909e-10
1.86172e-10
-8.64049e-11
6.18448e-11
8.58138e-11
3.27824e-11
-1.69832e-11
2.06447e-11
3.3344e-11
-1.01222e-11
3.81217e-11
2.74545e-11
2.45008e-11
2.34619e-11
1.72131e-11
-2.68967e-10
1.06807e-11
6.37104e-12
3.90418e-10
-1.34226e-11
1.22933e-11
3.27697e-10
-1.82633e-13
2.48741e-11
1.63936e-11
-6.64359e-12
1.02407e-10
5.54486e-11
-1.18903e-11
1.57557e-10
1.80855e-10
-8.75523e-11
4.71951e-12
3.26264e-11
5.78399e-11
-1.24475e-11
4.02537e-11
3.96834e-11
2.69006e-11
6.87851e-11
3.96112e-11
-9.79708e-10
-4.12584e-11
8.00487e-11
-8.76997e-10
1.50979e-11
-1.93212e-11
4.03454e-10
1.98698e-11
-8.49863e-12
5.47354e-11
-4.68133e-13
3.48112e-12
5.83097e-12
-1.87472e-12
7.16136e-11
5.22976e-11
-1.60536e-11
5.82683e-11
4.16076e-11
-2.2955e-11
-4.14072e-12
2.39045e-11
4.65205e-11
1.66354e-11
5.58415e-11
6.40627e-11
-8.11312e-10
2.35398e-10
1.00443e-10
-2.17429e-09
-2.88626e-10
1.01138e-10
-8.86811e-10
-1.19099e-12
-9.17814e-12
3.71905e-10
5.35805e-11
-2.31972e-12
1.70558e-11
-3.72475e-13
-2.6589e-14
4.93134e-12
-1.61197e-12
7.53775e-12
6.33985e-12
-5.36961e-12
3.17672e-12
1.5826e-11
1.06995e-12
-4.45065e-11
2.33573e-11
2.52297e-11
-1.96496e-10
1.0195e-10
6.04504e-11
-2.3489e-09
5.25644e-10
1.38591e-10
-1.99035e-09
-2.08481e-10
-4.13907e-12
-7.24049e-10
-1.5993e-10
-1.12448e-11
8.48155e-11
4.36435e-11
-1.28031e-12
6.97058e-12
-1.12318e-13
-5.98261e-13
5.16488e-12
-1.08738e-12
4.44047e-13
6.2812e-12
-1.20209e-12
-3.78635e-12
1.48722e-11
2.73169e-12
4.68674e-11
3.94396e-11
3.10611e-11
-4.985e-10
2.47182e-10
5.54082e-11
-1.98215e-09
5.40116e-10
-2.90213e-11
-1.77637e-09
5.36477e-11
-2.53482e-10
-3.54618e-11
-7.44851e-11
-1.8196e-12
1.00931e-10
1.15125e-11
-9.36434e-13
5.49814e-12
3.86791e-13
-6.36248e-13
5.37088e-12
-7.17282e-13
-9.18823e-13
6.66203e-12
-2.66342e-13
6.54638e-12
4.44737e-11
7.93879e-12
5.71144e-11
9.03395e-11
3.78157e-11
-8.96087e-10
3.91535e-10
2.34238e-11
-1.65993e-09
3.63487e-10
-9.36854e-11
-1.91645e-10
2.02549e-11
-1.89034e-10
-2.98187e-11
-2.09882e-12
-9.93765e-13
5.34521e-11
2.82199e-10
-8.4517e-13
9.08102e-13
4.29039e-12
-1.52012e-12
2.35088e-13
5.60812e-12
-3.74289e-12
2.73407e-12
1.36975e-11
3.60465e-12
2.11344e-11
5.34339e-11
-5.47115e-11
2.65043e-11
7.84804e-11
-6.60422e-10
-6.73203e-12
2.91911e-10
-4.43002e-10
-9.1682e-11
3.2496e-11
-2.84518e-10
-9.89992e-11
2.74072e-11
3.63713e-11
-2.00281e-11
-2.04666e-07
2.502e-07
-2.22828e-07
-1.71917e-07
-5.19036e-08
-2.02819e-07
-7.2729e-08
-1.10058e-07
-2.17747e-07
-2.4454e-08
-4.23785e-08
-1.88852e-07
-1.00219e-08
-5.47735e-09
-1.40183e-07
3.47066e-09
-1.31491e-08
-9.66552e-08
2.25493e-08
-2.87179e-08
-6.68566e-08
4.34835e-08
-4.07188e-08
-5.04284e-08
5.97128e-08
-4.51042e-08
-4.09705e-08
-5.38382e-08
-4.56361e-08
-2.56485e-07
5.85292e-07
-3.11427e-07
-1.33793e-07
-2.71285e-07
-1.91985e-07
-1.73513e-08
-3.16832e-07
-2.40513e-07
-1.82348e-08
-4.98968e-08
-2.76353e-07
-4.74521e-08
5.72206e-08
-2.27318e-07
-5.43338e-08
1.37885e-08
-1.54686e-07
-2.68882e-08
-5.24922e-08
-1.08173e-07
7.41461e-09
-8.8549e-08
-7.65754e-08
4.56019e-08
-1.07248e-07
-5.37479e-08
-1.416e-07
-4.09224e-08
-7.05101e-08
7.78819e-07
-3.12974e-07
1.75272e-07
-7.26807e-07
8.32018e-08
2.23269e-07
-6.12025e-07
9.56996e-09
1.02489e-07
-2.58306e-08
-1.99146e-07
3.44765e-09
1.76174e-07
-2.69748e-07
-1.98377e-08
7.57516e-08
-2.04061e-07
3.19993e-09
-5.81517e-08
-1.23644e-07
3.86997e-08
-1.33231e-07
-6.3381e-08
6.97353e-08
-1.6517e-07
-8.62845e-09
-2.57723e-07
4.34352e-08
1.53082e-07
8.15154e-07
-2.87649e-07
2.34046e-07
-1.00964e-06
4.02125e-07
1.01807e-07
-7.30167e-07
3.14275e-07
-8.18998e-08
4.13858e-08
2.9875e-08
-1.73291e-07
2.92273e-07
-1.80583e-07
-1.38967e-07
1.20364e-07
-2.05785e-07
-8.00106e-08
-8.14677e-08
-1.05353e-07
-6.45944e-08
-1.59795e-07
6.84289e-09
-1.33492e-08
-2.45801e-07
1.32673e-07
-5.1851e-07
2.65873e-07
2.42929e-07
9.61234e-07
-3.65102e-07
-3.67934e-07
-8.74867e-08
2.93079e-07
-8.67175e-07
-1.84378e-07
4.3949e-07
-9.67795e-07
1.54618e-07
2.37188e-07
-8.44088e-07
2.44655e-07
3.74235e-08
-5.93959e-07
-2.33925e-08
-3.62349e-08
-3.70986e-07
-2.66096e-07
1.61641e-08
-1.97745e-07
-3.96868e-07
1.54341e-07
4.96736e-08
-6.05811e-07
3.24224e-07
-9.40406e-07
4.4137e-07
-4.90685e-07
1.45292e-06
-1.54498e-06
-1.77182e-06
1.32958e-06
-1.33978e-06
-2.39783e-06
6.97092e-07
-2.25205e-07
-1.98057e-06
2.79537e-08
1.73354e-07
-1.52583e-06
-8.52543e-08
1.07726e-07
-9.95063e-07
-4.67133e-07
1.33309e-09
-3.76874e-07
-8.20706e-07
-2.99363e-08
2.55478e-07
-9.98789e-07
-6.51107e-08
6.58044e-07
-1.13912e-06
-1.17102e-08
-1.08525e-06
7.03215e-08
-3.77419e-07
-4.25095e-08
-8.68471e-07
-1.14676e-06
2.01358e-07
-1.68673e-06
-1.87011e-06
3.76127e-07
-1.50863e-06
-2.19298e-06
1.48505e-07
-8.93414e-07
-1.79465e-06
-2.64667e-07
-5.01886e-07
-9.86145e-07
-8.43694e-07
-4.11569e-07
-3.21721e-08
-1.32529e-06
-3.57807e-07
7.48646e-07
-1.43144e-06
-4.48639e-07
9.3637e-07
-1.23643e-06
-4.89575e-07
-9.59113e-07
-4.63286e-07
-8.39262e-08
1.78325e-08
-2.02595e-07
-1.9499e-07
1.17623e-08
-2.65481e-07
-2.82553e-07
-7.55204e-11
-3.93073e-07
-4.60398e-07
3.42871e-10
-4.13112e-07
-6.00996e-07
-1.73305e-09
-4.85131e-07
-5.07678e-07
-8.48595e-09
-4.00451e-07
-2.53754e-07
-5.70885e-08
-3.01718e-07
-2.70307e-08
-2.96628e-07
-2.41863e-07
-1.85031e-07
-1.31255e-07
-5.38822e-07
-8.0452e-08
-9.50768e-07
-5.48751e-10
2.50779e-09
-7.16926e-09
-3.38044e-09
3.40931e-09
-2.50596e-08
-4.02091e-09
-1.4274e-09
-1.89778e-08
-8.12766e-11
-8.10836e-10
-1.16275e-08
-4.06197e-10
-1.29187e-11
-1.63933e-09
-5.606e-09
6.29106e-11
-3.42056e-09
-6.00489e-08
1.4504e-10
-1.40225e-09
-2.17063e-07
-2.09694e-09
2.78725e-09
-1.793e-07
-9.62438e-09
-9.89418e-08
-4.2083e-09
-2.54013e-07
2.5835e-09
9.27918e-11
2.03458e-09
2.68953e-09
7.38268e-11
9.89705e-10
8.37916e-10
-6.34885e-10
2.50493e-10
1.0348e-10
-3.3296e-11
4.31365e-11
7.76842e-11
8.131e-12
3.52592e-13
5.73803e-11
2.10885e-11
-2.01546e-11
-6.41747e-11
3.56288e-11
2.10348e-10
-2.44534e-09
-8.69571e-12
3.67715e-10
-1.04678e-08
-5.17102e-10
-6.90121e-10
2.87164e-10
-8.46854e-09
4.07189e-10
5.03679e-11
1.53111e-10
6.10687e-10
1.32911e-11
2.07706e-10
1.14886e-10
-4.79761e-11
9.0512e-12
1.53961e-10
-1.58016e-12
2.23128e-12
1.85142e-10
-5.56974e-12
5.37788e-12
5.21969e-11
4.31851e-11
1.98876e-11
1.75513e-11
1.83937e-11
4.03832e-11
-2.92782e-11
7.79938e-12
8.30869e-11
-6.97758e-10
-5.19469e-12
2.03541e-10
2.16147e-11
4.02077e-10
2.51952e-11
3.58785e-11
3.24304e-12
6.04455e-11
-1.26121e-11
7.66037e-12
1.82016e-11
2.20056e-12
-7.62399e-13
1.25418e-11
-2.03552e-13
-3.38214e-12
6.7037e-11
1.41639e-12
-1.53606e-12
8.56929e-11
5.87072e-11
7.35673e-12
3.40389e-11
4.8143e-11
1.55245e-11
-2.99334e-12
1.28477e-11
2.84231e-11
-5.40894e-11
1.41705e-11
3.01367e-11
-5.88758e-12
3.85845e-11
2.8868e-12
2.54621e-11
-2.49986e-12
2.03396e-11
2.24976e-11
-1.11164e-11
8.64809e-12
4.92602e-12
-1.17191e-11
6.64672e-12
8.18718e-13
-9.50284e-12
6.03412e-11
1.58528e-11
-1.18322e-11
8.64383e-11
1.28943e-10
8.82994e-13
1.9131e-11
3.66099e-11
4.46379e-11
-4.48392e-12
2.09832e-11
2.53539e-11
-1.74105e-11
1.88088e-11
1.9398e-11
3.34365e-11
1.60619e-11
-4.70832e-13
1.78725e-10
-2.45546e-12
1.60539e-12
1.61842e-11
8.2647e-12
2.09065e-12
2.78078e-12
-1.60901e-11
3.90576e-12
2.69138e-12
-1.03567e-11
6.54931e-11
1.14975e-10
-9.23261e-11
3.06624e-11
7.77271e-11
2.12401e-12
1.43033e-12
3.19993e-11
3.91716e-11
-1.31648e-11
2.97356e-11
2.35634e-11
-2.60777e-11
2.86984e-11
8.98559e-12
4.92956e-11
-1.75482e-13
-1.43462e-11
2.26014e-10
3.32789e-11
-1.71898e-12
3.1273e-12
2.72816e-15
-2.93857e-13
3.11375e-12
-8.9034e-12
-1.61569e-12
4.95337e-12
-1.38704e-11
5.27921e-12
1.01616e-10
-1.7796e-10
1.12645e-12
5.74808e-11
2.68803e-11
-3.6022e-11
4.58844e-11
3.9706e-11
-4.62615e-11
1.18116e-10
3.05646e-11
-2.53043e-11
3.45362e-11
-3.13241e-12
2.24798e-11
-3.56402e-12
-3.71499e-12
1.05479e-10
3.20101e-11
-2.70981e-12
2.68902e-12
-1.25278e-12
-1.40575e-12
3.53919e-12
-3.89201e-12
-1.40438e-11
7.06538e-12
-1.09952e-11
-2.77314e-12
8.07365e-12
-6.33187e-11
-3.95877e-11
5.06874e-11
4.91233e-11
-1.28466e-10
1.86529e-10
9.37112e-11
-5.72662e-11
9.55679e-11
-2.95893e-12
-3.15811e-11
3.79847e-11
-2.12267e-12
3.76841e-11
-3.57325e-12
-2.6836e-12
5.47966e-11
4.24855e-12
-3.11572e-12
3.57813e-12
-1.02946e-12
-2.50844e-12
4.39751e-12
-3.2947e-12
-1.18442e-12
6.31949e-12
-6.26808e-12
1.06709e-12
9.73624e-12
-3.693e-12
-6.1782e-11
9.86239e-11
3.86056e-11
-1.16313e-10
1.43884e-10
6.56303e-11
-7.29769e-11
8.43011e-11
-9.49788e-12
-2.49353e-10
5.32977e-11
-1.78294e-12
-5.05882e-11
-1.51727e-11
-2.42568e-12
1.53408e-11
6.07901e-12
-3.39358e-12
4.63826e-12
-3.9736e-13
-3.00361e-12
5.48163e-12
-2.75515e-12
-4.4729e-12
8.55064e-12
-2.21366e-12
-2.81911e-11
4.00266e-11
6.52224e-13
-9.19562e-11
1.48863e-10
4.85943e-11
-3.81912e-11
1.02111e-10
1.68974e-11
-7.46031e-11
3.75862e-11
-2.51284e-12
-4.59692e-10
1.00909e-10
-1.26506e-11
-1.00304e-10
-2.45219e-11
-1.76974e-12
2.27431e-11
5.71073e-12
-3.2485e-12
5.33251e-12
9.86804e-13
-3.5957e-12
6.24042e-12
-1.2869e-12
-1.038e-11
1.65345e-11
-1.4528e-12
-6.15031e-11
7.28441e-11
6.56121e-12
-5.45398e-11
1.30026e-10
3.53151e-11
-2.06468e-11
5.15935e-11
-7.22362e-13
-1.04543e-10
3.26943e-11
-5.94597e-12
-3.22938e-10
1.18858e-10
-1.04057e-11
5.91357e-12
2.29067e-11
-1.30074e-12
1.27183e-11
1.03602e-10
-3.37009e-12
2.12831e-12
5.97875e-12
-6.23182e-12
3.90483e-13
8.77113e-12
-4.79144e-11
3.70522e-13
6.83532e-11
-5.33083e-11
2.04939e-11
1.05979e-10
-2.98555e-11
1.40051e-11
5.02349e-11
-2.64225e-11
-7.09234e-12
4.64786e-11
-1.41548e-10
-1.04545e-11
6.7241e-11
-5.22522e-10
-8.39153e-12
3.44188e-10
1.55093e-10
-1.22934e-10
-2.13001e-07
2.22056e-07
-2.31883e-07
-1.87924e-07
-1.17481e-07
-1.10415e-07
-7.30371e-08
-2.2214e-07
-1.10494e-07
-1.26077e-08
-1.39778e-07
-1.09504e-07
2.41401e-09
-6.37333e-08
-9.14714e-08
1.06872e-08
-4.62423e-08
-5.86868e-08
2.57105e-08
-5.69908e-08
-2.48887e-08
4.24366e-08
-6.81823e-08
1.02832e-09
5.30485e-08
-7.66085e-08
2.50261e-08
-9.6455e-08
3.39815e-08
-3.07783e-07
5.60863e-07
-3.42451e-07
-1.91172e-07
-3.53306e-07
-7.27702e-08
-9.64389e-09
-5.80993e-07
-6.31876e-08
2.11464e-08
-3.12097e-07
-1.34825e-07
-1.60822e-08
-9.96417e-08
-1.54181e-07
-2.99465e-08
-6.75451e-08
-1.19519e-07
-1.66053e-08
-1.08868e-07
-6.96368e-08
1.26923e-08
-1.48155e-07
-2.59012e-08
4.53469e-08
-1.73308e-07
1.02968e-08
-2.15795e-07
3.55265e-08
-2.20631e-07
8.84708e-07
-4.16188e-07
8.01007e-08
-7.16755e-07
1.45919e-07
3.03494e-07
-9.96392e-07
2.01575e-07
2.57337e-07
-4.61279e-07
-3.80605e-09
1.13557e-07
-7.69928e-08
-1.48617e-07
3.37884e-08
-4.47332e-08
-1.47104e-07
3.50925e-08
-1.52566e-07
-8.12509e-08
6.96926e-08
-2.28793e-07
-1.73424e-08
9.13766e-08
-2.39544e-07
3.59232e-08
-2.80899e-07
7.20875e-08
-1.31598e-08
1.17408e-06
-5.63859e-07
2.26149e-07
-7.79922e-07
2.25982e-07
3.42159e-07
-1.1572e-06
3.59059e-07
2.37428e-07
-4.40782e-07
1.14111e-07
9.70944e-08
-1.09287e-08
-1.06314e-07
3.30367e-08
-2.36982e-08
-1.62762e-07
4.42465e-08
-1.94436e-07
-7.46931e-08
6.56634e-08
-2.71976e-07
2.86079e-08
7.52458e-08
-2.43453e-07
1.26999e-07
-2.99027e-07
1.93707e-07
2.52213e-07
1.54484e-06
-9.88079e-07
-2.44817e-08
7.94125e-08
-2.8956e-07
-3.24045e-07
-5.42736e-07
1.24583e-07
-3.86565e-07
-2.12331e-07
7.12554e-08
-3.72472e-07
7.68112e-08
-6.44094e-08
-2.32488e-07
-1.22782e-07
-7.71355e-08
-5.21664e-08
-4.24111e-07
6.55182e-08
4.99853e-08
-4.4148e-07
2.21693e-07
7.76156e-08
-2.41656e-07
2.94797e-07
-3.38496e-07
3.40127e-07
2.21177e-07
1.31681e-06
-2.14824e-06
-7.57395e-07
9.37583e-07
-1.97e-06
-1.50677e-06
6.37391e-07
-9.64965e-07
-1.44281e-06
2.53504e-07
-3.56438e-07
-1.09569e-06
-1.94504e-08
-1.43131e-07
-6.49519e-07
-4.77989e-07
-8.96382e-08
-1.77947e-07
-9.40342e-07
1.47218e-08
2.12009e-07
-9.94965e-07
9.84174e-08
4.45357e-07
-6.9427e-07
2.07557e-07
-5.90606e-07
3.28433e-07
-1.03242e-07
1.4571e-08
-1.89481e-06
-9.77563e-07
3.13261e-07
-2.51613e-06
-1.76831e-06
4.53629e-07
-2.19154e-06
-2.05974e-06
2.26639e-07
-1.51517e-06
-1.63137e-06
-2.54084e-07
-8.84041e-07
-8.36154e-07
-9.89747e-07
-6.41184e-07
-1.68202e-07
-1.40478e-06
-5.51003e-07
3.18138e-07
-1.44334e-06
-4.86616e-07
6.6518e-07
-1.19703e-06
-3.33788e-07
-7.37268e-07
-2.04913e-07
-5.77762e-08
7.21356e-09
-1.68745e-07
-1.92364e-07
1.14179e-08
-3.1082e-07
-2.39079e-07
1.22286e-08
-4.79316e-07
-4.13285e-07
9.57205e-09
-5.74455e-07
-7.53064e-07
-1.37196e-08
-8.38277e-07
-7.82098e-07
-8.87782e-08
-1.10669e-06
-3.88679e-07
-2.53877e-07
-1.18247e-06
-1.28091e-07
-3.60123e-07
-9.54309e-07
-1.16976e-08
-6.2355e-07
-8.42378e-07
-6.69841e-07
-1.03792e-06
3.47534e-09
-2.93552e-10
-7.12967e-09
5.45612e-09
9.13336e-10
-2.07005e-08
1.30624e-09
-1.64015e-09
-7.27285e-10
-8.57743e-12
-4.96678e-10
-5.60927e-10
-5.85024e-09
-2.18393e-11
-9.50999e-09
-5.50522e-08
-5.14833e-11
-4.27958e-08
-8.95811e-08
6.34333e-10
-8.94421e-08
-6.35715e-08
-1.08229e-09
-1.04437e-07
-2.32576e-08
-2.6694e-08
-2.34024e-07
-1.04674e-07
-4.37289e-07
8.96415e-10
-9.71913e-11
5.60061e-10
1.76978e-09
-9.74568e-11
6.86084e-10
3.1097e-10
-3.70865e-11
5.61638e-11
8.27321e-11
-1.59509e-11
3.59527e-11
5.54379e-11
8.78984e-12
1.19945e-11
3.36326e-10
1.2322e-10
-4.90301e-10
-2.52413e-11
5.38852e-11
1.03392e-09
-8.6612e-10
-6.10678e-12
1.10361e-10
-6.49694e-09
-2.34347e-10
-2.12011e-08
-6.37831e-10
-1.05866e-07
3.44086e-11
4.60053e-12
8.45194e-12
8.17151e-11
3.81525e-12
2.45155e-11
2.42412e-11
-2.06462e-12
3.98569e-12
1.27299e-11
-3.09262e-12
-4.03253e-13
1.98019e-11
2.72206e-12
3.12146e-12
7.6671e-11
5.95838e-11
2.38842e-11
4.56166e-11
4.30595e-11
7.73224e-11
-9.12473e-12
9.84155e-12
8.07757e-11
-1.2678e-10
-1.86299e-12
1.09809e-10
-6.21159e-11
7.78105e-11
1.61003e-12
7.33404e-12
-1.47282e-12
6.56189e-12
6.11534e-12
-7.38132e-13
4.90504e-12
-6.68424e-13
-3.77956e-12
6.2668e-12
-3.82244e-12
-5.57872e-12
7.53902e-12
9.39724e-13
-2.38021e-12
2.12923e-11
4.93741e-11
2.55979e-12
2.82625e-11
3.25247e-11
2.2342e-11
3.35392e-12
1.53906e-11
3.47312e-11
-2.49385e-11
1.42009e-11
3.3599e-11
1.25933e-11
3.88699e-11
1.29912e-12
6.02559e-12
-2.56599e-12
1.72182e-11
5.49877e-11
-1.84959e-11
1.51156e-11
3.64488e-12
-3.39591e-11
6.56738e-12
-1.41653e-12
-6.98058e-12
2.54518e-11
7.04202e-12
-7.30833e-12
7.19597e-11
1.68644e-10
-8.4082e-12
2.95537e-11
6.98121e-11
5.76289e-11
3.26821e-12
2.4836e-11
3.24597e-11
-7.69825e-12
1.95513e-11
3.3303e-11
3.05966e-11
2.34664e-11
4.73915e-13
6.04498e-11
-1.27158e-11
1.96375e-11
4.51951e-11
5.25475e-12
3.3796e-12
1.18701e-11
-9.55564e-11
-1.97827e-13
1.15189e-12
-8.64711e-12
5.43243e-13
6.69809e-11
-3.60511e-11
4.23127e-11
1.99342e-10
-2.24635e-11
1.77427e-11
4.98337e-11
5.6874e-11
1.36901e-12
2.67129e-11
3.10442e-11
-1.03437e-11
7.48739e-12
2.74097e-11
2.69006e-11
9.61294e-12
-2.89243e-11
1.19644e-10
6.61196e-11
-9.03529e-12
3.80751e-12
-2.51896e-12
-6.4347e-13
3.80119e-12
-3.01829e-11
-1.26026e-11
5.28711e-12
-5.85565e-12
-8.2938e-11
9.36048e-11
-8.55794e-11
-1.00829e-12
1.80969e-10
1.12037e-11
-2.74926e-14
3.32326e-11
4.90922e-11
-1.00796e-11
4.89644e-11
2.19957e-11
-1.24043e-11
1.21785e-11
2.64308e-11
1.28511e-11
-2.21419e-12
-1.37091e-11
1.20186e-11
8.77504e-11
-9.06414e-12
1.96191e-12
-4.34102e-12
-3.36175e-12
3.90915e-12
-1.02032e-11
-1.71289e-11
8.54097e-12
-2.57806e-12
-7.74446e-11
3.43894e-11
-2.90381e-11
-4.56736e-11
5.88329e-11
3.11336e-11
-3.05748e-11
8.73773e-11
1.73253e-11
-1.7708e-11
4.13649e-11
1.07784e-12
-9.09925e-12
1.50952e-11
2.75066e-12
1.13361e-11
-4.1624e-12
-2.85778e-12
7.3574e-12
1.12577e-11
-5.06526e-12
3.33884e-12
-4.15141e-13
-3.97754e-12
3.34342e-12
-4.1386e-12
-7.31177e-12
5.92512e-12
-1.1622e-12
-1.7699e-11
-6.65295e-15
-6.25226e-12
-2.91417e-11
9.43398e-12
3.7673e-12
-2.10726e-11
8.16437e-11
1.45665e-11
-6.9849e-12
1.86225e-11
3.40824e-12
-7.47374e-12
1.12631e-11
-1.30148e-12
1.0178e-11
-5.19965e-12
-3.59874e-12
9.5653e-12
7.05824e-12
-5.6955e-12
5.90964e-12
5.89766e-13
-5.50881e-12
9.05864e-12
-1.11158e-11
-4.28695e-12
1.09405e-11
-9.36364e-12
-1.16596e-11
1.16982e-11
-4.48386e-12
-2.35192e-11
3.6953e-11
-2.29365e-12
-6.53552e-12
3.63552e-11
-1.19979e-12
-5.14202e-12
1.34545e-11
-2.09883e-12
-1.75362e-11
1.44775e-11
-6.17317e-12
3.93227e-11
-3.35653e-12
-1.73761e-12
9.73397e-12
7.65397e-12
-4.54189e-12
5.46332e-12
4.07695e-12
-5.78594e-12
2.19149e-11
-2.4773e-12
-9.26429e-12
2.52799e-11
-1.01545e-11
-2.00419e-11
2.97461e-11
-6.75644e-12
-9.02667e-12
3.11788e-11
1.5915e-13
-3.76284e-12
2.81033e-11
9.75796e-13
-4.89083e-12
2.13678e-11
-1.56731e-11
-1.99933e-11
2.1975e-11
-4.03322e-12
5.09053e-11
1.05727e-11
-1.47697e-12
7.44561e-12
1.62525e-11
-9.52877e-12
8.45745e-12
7.01047e-12
-3.3106e-11
3.56364e-12
6.98684e-11
-2.11189e-11
-1.00629e-11
8.29669e-11
-1.93203e-11
-1.2164e-11
5.30895e-11
-8.10896e-12
-7.33165e-12
3.65005e-11
-4.5305e-12
-2.58972e-11
4.3976e-11
-1.40768e-11
-1.38231e-11
3.32097e-11
-1.12956e-10
2.99289e-12
1.60445e-10
9.08234e-11
1.09076e-10
-1.67758e-07
1.78962e-07
-2.43086e-07
-1.59404e-07
-4.57237e-08
-7.30459e-08
-7.15027e-08
-1.36626e-07
-6.17702e-08
-1.53205e-08
-9.87209e-08
-6.69649e-08
4.56569e-09
-5.52701e-08
-5.60885e-08
1.60693e-08
-4.35251e-08
-2.66649e-08
3.30343e-08
-4.8729e-08
6.87577e-09
4.7163e-08
-5.49955e-08
4.18951e-08
5.24307e-08
-5.83979e-08
7.81562e-08
-6.97931e-08
9.69813e-08
-2.68183e-07
4.71352e-07
-3.66659e-07
-2.41267e-07
-7.12942e-08
-7.41154e-08
-9.39532e-08
-3.10978e-07
-3.61498e-08
-3.19831e-08
-2.09638e-07
-8.58779e-08
-2.91384e-08
-1.01901e-07
-1.10394e-07
-2.70113e-08
-8.15643e-08
-8.3607e-08
-9.81632e-09
-1.05736e-07
-2.98246e-08
2.55372e-08
-1.34977e-07
1.87268e-08
5.66429e-08
-1.55967e-07
7.67606e-08
-1.75748e-07
1.18114e-07
-2.88885e-07
8.25672e-07
-4.81623e-07
-1.47554e-07
-9.41301e-08
2.74252e-08
6.95837e-08
-4.87165e-07
1.60625e-07
1.14618e-07
-2.98925e-07
4.04475e-08
5.64567e-08
-1.16987e-07
-7.53703e-08
1.9451e-08
-1.10781e-07
-8.08814e-08
3.09835e-08
-1.74234e-07
-2.42861e-08
6.23996e-08
-2.17625e-07
3.38897e-08
8.39898e-08
-2.23615e-07
8.19807e-08
-2.25177e-07
9.72518e-08
-1.35984e-07
1.1556e-06
-7.57801e-07
3.82387e-08
3.56513e-08
-7.80222e-08
2.16147e-07
-4.68372e-07
1.6236e-07
2.09586e-07
-2.56317e-07
7.80637e-08
1.23413e-07
-8.17279e-08
-5.53994e-08
6.81415e-08
-1.26503e-07
-9.17689e-08
6.64447e-08
-2.23162e-07
-2.40683e-08
8.16814e-08
-2.74397e-07
7.01429e-08
8.1537e-08
-2.33139e-07
1.36668e-07
-2.00142e-07
1.05215e-07
6.08299e-08
1.44516e-06
-1.33847e-06
1.38537e-08
4.19346e-07
-6.26278e-07
-5.53526e-08
-7.01231e-08
-2.04443e-07
-7.75911e-08
-1.71067e-08
-1.45716e-07
-4.92903e-08
-4.31676e-08
-1.31271e-07
6.39269e-08
-2.76179e-07
-4.06777e-08
1.55651e-07
-3.27997e-07
7.86287e-08
1.21207e-07
-1.84841e-07
1.66582e-07
3.09218e-08
-2.01579e-08
1.72101e-07
-7.35273e-08
1.02584e-07
2.48786e-07
1.15219e-06
-2.10406e-06
-3.86212e-07
4.89429e-07
-1.54027e-06
-9.23525e-07
4.69747e-07
-1.00113e-06
-9.14938e-07
2.30063e-07
-6.12196e-07
-6.42867e-07
-1.20268e-07
-3.38105e-07
-2.41985e-07
-6.18388e-07
-1.48312e-07
7.57772e-08
-6.45435e-07
1.43979e-08
2.02369e-07
-4.01525e-07
1.8851e-07
2.16093e-07
-1.45199e-07
3.18874e-07
-1.19267e-07
2.7454e-07
5.61975e-09
6.52727e-08
-2.76137e-06
-9.72703e-07
2.15537e-07
-2.94159e-06
-1.70383e-06
2.24574e-07
-2.32657e-06
-1.77041e-06
-1.04144e-07
-1.52653e-06
-1.3231e-06
-5.40111e-07
-9.70015e-07
-6.8251e-07
-1.10602e-06
-7.93192e-07
-2.45054e-07
-9.88974e-07
-6.44878e-07
1.35435e-07
-9.46673e-07
-3.21894e-07
3.9561e-07
-7.21076e-07
-1.80577e-08
-3.88321e-07
4.6061e-08
-1.16944e-07
-1.95007e-09
-9.24057e-07
-2.36929e-07
1.56548e-08
-8.51814e-07
-2.97914e-07
-4.40401e-09
-7.85501e-07
-4.93916e-07
-5.96973e-09
-9.13811e-07
-9.26366e-07
-7.8099e-08
-1.25107e-06
-1.22938e-06
-2.69022e-07
-1.53863e-06
-1.10605e-06
-5.42155e-07
-1.54872e-06
-7.33281e-07
-8.98149e-07
-1.2332e-06
-1.89644e-07
-1.29022e-06
-6.53938e-07
-1.18547e-06
-6.23652e-07
2.67896e-09
-1.38536e-10
-1.20819e-08
3.73814e-09
-3.36826e-10
-6.11952e-09
1.90823e-10
-7.3454e-11
-1.58593e-09
-3.44561e-11
-4.72953e-12
-6.32946e-09
-3.36817e-08
1.54814e-10
-5.43188e-08
-1.88025e-07
1.31505e-09
-1.57452e-07
-2.17581e-07
-2.47833e-09
-3.15416e-07
-6.47403e-08
-1.23809e-08
-6.09539e-07
3.12558e-07
-2.45881e-07
-7.1016e-07
-5.62524e-07
-3.16582e-07
1.56212e-10
-3.35664e-12
2.53364e-10
1.60359e-10
-9.61756e-12
3.24607e-10
2.92628e-11
-9.94506e-12
4.77454e-11
5.03665e-11
-4.09235e-13
8.97967e-12
3.69183e-10
5.85654e-11
-2.39339e-10
1.32172e-09
1.99003e-10
-2.38644e-10
-9.82268e-11
-2.31884e-11
9.06196e-11
-1.26034e-08
-6.85032e-12
2.76391e-10
-4.68072e-08
-1.21515e-10
-2.32703e-07
-4.14646e-10
-1.5571e-07
1.1153e-12
2.09142e-12
1.42857e-12
8.0135e-12
1.39217e-12
5.84365e-12
5.096e-12
-4.14642e-12
-4.95774e-14
8.23194e-12
-5.36666e-12
-9.64889e-14
5.52253e-11
6.2328e-12
7.10694e-12
2.10458e-10
6.79164e-11
-1.29985e-12
5.11348e-11
1.2459e-10
3.6383e-11
1.38787e-11
7.52203e-12
8.60667e-11
-1.31837e-11
2.17191e-13
3.77101e-11
-6.48876e-11
-1.65308e-10
-2.28605e-13
3.19048e-12
-2.44184e-12
1.04882e-12
1.61055e-12
-2.60627e-12
3.44006e-12
-6.89329e-12
-4.47673e-12
7.21826e-12
-7.23372e-12
-8.91799e-12
1.35772e-11
3.49021e-12
-7.24876e-12
6.56119e-11
1.94794e-11
-2.66061e-12
4.72336e-11
2.40396e-10
2.77373e-11
8.43331e-12
2.82464e-11
5.38862e-11
-2.71856e-13
1.92807e-11
1.81317e-11
4.26063e-11
1.28326e-11
3.96035e-13
3.51525e-12
-3.33227e-12
1.96558e-11
2.81109e-11
-9.35051e-12
1.28049e-11
-4.91918e-11
-4.29405e-11
5.06316e-13
-3.78684e-12
-2.08206e-13
3.72476e-12
2.42766e-12
-8.39497e-12
3.86142e-11
9.44624e-11
-5.06535e-12
8.865e-11
2.49165e-10
7.36922e-11
1.25367e-11
4.37309e-11
7.40799e-11
3.91977e-12
2.49473e-11
4.09279e-11
9.26198e-11
2.70266e-11
1.08967e-11
6.80487e-11
-1.77855e-12
1.70712e-11
2.26346e-11
-1.62434e-11
-8.69966e-13
-1.60761e-11
-1.21564e-10
-4.39343e-12
-1.43914e-12
-1.01999e-11
-2.26924e-11
7.94001e-12
-1.51415e-11
9.65141e-12
1.78169e-10
-2.01803e-11
6.66362e-11
1.85855e-10
1.65447e-10
1.1404e-11
3.17134e-11
6.69935e-11
1.30261e-12
2.99731e-11
3.09709e-11
1.28476e-10
1.61968e-11
-3.3563e-11
1.34669e-10
7.99872e-11
-7.93836e-11
2.46336e-11
1.32155e-11
-1.82199e-11
1.38991e-13
-1.13633e-10
-1.10817e-11
7.65489e-13
-1.55243e-11
-9.91053e-11
1.44141e-11
-2.34428e-11
-3.90168e-11
1.4614e-10
-1.33246e-11
6.24504e-12
3.01558e-11
1.23673e-10
-6.71603e-13
1.20167e-11
4.11382e-11
-1.2171e-11
3.56157e-11
3.1412e-11
1.16477e-11
-1.63633e-12
-4.4317e-11
9.80223e-11
1.50553e-10
-5.57332e-11
-1.80054e-12
-2.006e-11
-2.09142e-11
1.1368e-12
-6.70116e-11
-1.63406e-11
3.56648e-12
-7.46323e-12
-4.43126e-11
6.17988e-12
-2.17725e-12
-1.02821e-11
1.04959e-11
-8.82731e-12
-9.62411e-13
7.54127e-12
4.74772e-12
-4.43528e-12
1.56048e-11
5.88995e-12
-5.42044e-12
1.52976e-11
8.12443e-12
8.348e-12
-2.70338e-12
-4.68978e-12
1.27463e-11
1.03128e-10
-1.05647e-11
1.33332e-12
-4.96921e-12
-1.32796e-11
1.56778e-12
-1.41374e-11
-9.70134e-12
4.53625e-12
-8.61055e-12
-8.9624e-12
6.64148e-12
-8.29563e-12
-5.33278e-12
1.27468e-11
-4.22102e-12
-1.42187e-12
1.70536e-11
-1.02239e-12
-2.24292e-12
1.61362e-11
2.82851e-13
-2.01914e-12
1.28487e-11
-1.79973e-12
1.11527e-11
-1.02518e-11
-2.54886e-12
9.28386e-12
1.36666e-11
-1.32037e-11
7.78291e-12
1.71852e-12
-1.86034e-11
1.00777e-11
-8.71049e-12
-9.47756e-12
8.18268e-12
-1.27703e-11
-7.05519e-12
6.86576e-12
-9.61301e-12
-3.47201e-12
1.25263e-11
-8.32984e-12
-1.02173e-12
1.50329e-11
-5.09656e-12
-6.89504e-13
1.58e-11
-5.98373e-12
1.16432e-12
1.63027e-11
-1.48392e-11
1.14078e-11
-1.29158e-11
-4.79037e-13
9.9934e-12
8.21609e-12
-6.85171e-12
6.11497e-12
1.32e-11
-1.39561e-11
1.2658e-11
-2.57039e-12
-4.3712e-12
1.32779e-11
-6.53136e-12
-2.83908e-11
3.10869e-11
-1.68076e-11
-2.23678e-11
1.11901e-10
-1.13681e-10
-4.21178e-12
1.97074e-10
-1.49312e-10
7.10838e-13
9.20782e-11
-5.24709e-11
1.42853e-12
3.22655e-11
-1.92275e-11
1.75964e-11
6.96052e-12
4.45064e-12
7.31855e-11
2.09776e-10
-2.49063e-12
2.6482e-11
8.63014e-12
-2.27326e-12
2.71561e-12
1.46468e-11
1.29067e-12
-4.04331e-12
1.89138e-11
-1.45252e-11
-9.21227e-12
7.92339e-11
-5.28202e-11
-8.40978e-11
1.6604e-10
-2.00868e-11
-2.08309e-10
2.53297e-10
-3.75437e-12
-1.01182e-10
1.18135e-10
-6.5146e-12
5.16514e-12
3.82e-11
2.65274e-11
8.84803e-11
-1.1527e-07
1.25483e-07
-2.53299e-07
-1.10531e-07
-5.14461e-09
-7.264e-08
-5.08541e-08
-6.02717e-08
-6.1175e-08
-4.1773e-09
-5.4163e-08
-5.94797e-08
1.98107e-08
-4.1446e-08
-3.863e-08
4.02889e-08