/*--------------------------------*- C++ -*----------------------------------*\
| =========                 |                                                 |
| \\      /  F ield         | OpenFOAM: The Open Source CFD Toolbox           |
|  \\    /   O peration     | Version:  2312                                  |
|   \\  /    A nd           | Website:  www.openfoam.com                      |
|    \\/     M anipulation  |                                                 |
\*---------------------------------------------------------------------------*/
FoamFile
{
    version     2.0;
    format      ascii;
    arch        "LSB;label=32;scalar=64";
    class       surfaceScalarField;
    location    "0.03";
    object      alphaPhi0.water;
}
// * * * * * * * * * * * * * * * * * * * * * * * * * * * * * * * * * * * * * //

dimensions      [0 3 -1 0 0 0 0];

oriented        oriented;

internalField   nonuniform List<scalar> 
22600
(
1.13737e-13
-1.75714e-13
-9.44393e-16
1.68094e-13
-1.1223e-13
1.51971e-15
2.45788e-13
-1.14282e-13
-2.10862e-14
2.87726e-13
-9.31498e-14
-3.61444e-15
2.88062e-13
-5.68727e-14
5.49384e-15
2.58182e-13
-3.01194e-14
1.34197e-14
2.08832e-13
-9.58979e-15
1.73004e-14
1.52657e-13
8.51025e-17
1.94784e-14
1.11469e-13
-1.25823e-15
1.03794e-14
5.46296e-14
2.81839e-14
-2.18606e-14
-4.53462e-13
6.17193e-14
-3.49707e-15
-2.67281e-13
3.35776e-14
5.0953e-14
-2.617e-13
-7.20337e-15
6.61503e-14
-2.2572e-13
2.3748e-14
7.2477e-14
-1.71783e-13
2.27321e-14
6.08543e-14
-1.26191e-13
3.042e-14
4.86691e-14
-9.77061e-14
3.17768e-14
4.09314e-14
-8.24528e-14
2.9757e-14
2.6683e-14
-7.27742e-14
3.14586e-14
-2.79706e-15
4.22081e-14
3.80759e-15
-7.3976e-13
6.04865e-14
3.4468e-14
-3.88866e-13
3.41177e-16
9.40553e-14
-3.73744e-13
-3.53502e-14
1.08623e-13
-3.41747e-13
1.94387e-14
1.1243e-13
-2.82532e-13
3.16823e-14
9.30654e-14
-2.2663e-13
5.19164e-14
6.42174e-14
-1.92704e-13
6.33897e-14
2.84089e-14
-1.77836e-13
7.745e-14
-1.4948e-14
-1.64721e-13
8.67023e-14
-1.45801e-13
9.02302e-14
2.62312e-14
-9.82375e-13
2.72516e-15
7.1348e-14
-4.43621e-13
-7.40337e-14
1.32497e-13
-4.13791e-13
-1.01633e-13
1.34474e-13
-3.96226e-13
-2.23374e-14
1.38339e-13
-3.6075e-13
5.90355e-15
1.21611e-13
-3.24903e-13
5.32506e-14
8.51696e-14
-2.93091e-13
8.15603e-14
2.39388e-14
-2.71509e-13
1.05269e-13
-4.32837e-14
-2.51865e-13
1.08906e-13
-3.40868e-13
1.16554e-13
3.92213e-14
-1.24404e-12
-6.81281e-14
1.30853e-13
-4.63443e-13
-1.42683e-13
1.79497e-13
-3.71174e-13
-1.58536e-13
1.73047e-13
-3.97737e-13
-5.37728e-14
1.72245e-13
-4.0606e-13
-9.76959e-15
1.428e-13
-3.99781e-13
5.41494e-14
9.73002e-14
-3.8733e-13
9.46669e-14
3.01933e-14
-3.67566e-13
1.22183e-13
-4.34989e-14
-3.45716e-13
1.2939e-13
-5.32395e-13
1.18734e-13
6.01577e-14
-1.62336e-12
-1.32199e-13
2.49248e-13
-5.49131e-13
-1.54099e-13
1.42166e-13
-1.44991e-13
-1.65981e-13
1.47778e-13
-3.68339e-13
-7.68469e-14
1.59524e-13
-4.21291e-13
-3.34512e-14
1.40663e-13
-4.26413e-13
1.27931e-14
1.05963e-13
-4.2498e-13
4.28822e-14
5.87735e-14
-4.08495e-13
6.07795e-14
3.29546e-15
-3.83808e-13
6.74005e-14
-6.05946e-13
5.71436e-14
1.78391e-14
-3.35883e-12
1.13869e-13
6.87883e-13
-1.20012e-12
-4.41038e-14
1.98581e-13
3.73195e-13
-5.0506e-14
2.23177e-13
-3.72311e-13
-3.83106e-14
2.30177e-13
-4.19215e-13
-2.33848e-14
2.09698e-13
-4.01329e-13
-1.66198e-14
1.71945e-13
-3.77569e-13
-2.05948e-14
1.28004e-13
-3.4922e-13
-2.61728e-14
1.01707e-13
-3.23576e-13
-4.51932e-14
-4.56626e-13
-5.54822e-14
1.27362e-13
-2.78872e-13
1.4794e-14
-9.06783e-13
-1.52783e-13
4.46038e-13
-3.89994e-13
-1.14834e-17
4.37085e-14
-4.94092e-13
-6.80186e-24
1.24256e-13
-2.82495e-13
-2.96372e-30
8.27678e-14
-2.63425e-13
-1.00816e-36
4.1447e-14
-2.16779e-13
-3.18027e-43
1.90847e-14
-1.24451e-13
3.68658e-49
5.4259e-15
3.72899e-15
1.73844e-49
3.40124e-15
-5.51596e-34
7.4733e-15
1.55422e-17
-2.07973e-29
4.15368e-18
1.14835e-17
-3.84716e-30
3.0808e-19
6.80187e-24
4.67124e-30
-6.36516e-26
2.96372e-30
8.92012e-37
-1.73941e-31
1.00816e-36
-4.90373e-39
-5.65889e-38
3.18028e-43
2.96915e-43
-1.59784e-44
9.45666e-50
8.42867e-50
-3.93997e-51
-1.71373e-47
-1.53724e-47
1.20712e-41
-7.07473e-48
-6.38839e-48
5.19266e-42
-5.51596e-34
9.81823e-48
-7.87937e-37
-7.99695e-36
-9.10195e-37
-3.84717e-30
-2.36451e-37
-1.29656e-37
-3.91849e-37
2.01965e-33
-2.73189e-31
4.90395e-39
5.32737e-40
-4.32035e-38
1.12619e-43
1.90938e-43
-8.25933e-44
-1.66489e-46
-6.4764e-46
-2.02992e-51
-2.49886e-44
-6.99809e-44
3.75922e-49
-5.11726e-48
-1.11315e-47
7.99881e-49
1.22696e-52
1.1429e-47
1.69404e-49
2.50959e-33
4.9578e-51
-7.28551e-43
8.4689e-40
-1.23108e-42
-1.29359e-36
3.71099e-42
-2.25437e-44
-9.84635e-44
1.84519e-39
-3.17938e-38
4.38595e-44
1.90554e-42
-4.9491e-45
7.68757e-44
7.55204e-43
-2.66656e-48
1.41815e-43
7.12679e-43
-7.79749e-48
3.02554e-44
5.18645e-43
-7.16729e-48
2.81513e-44
1.8905e-43
-7.36275e-48
1.25166e-40
1.81079e-40
-8.43734e-46
5.97602e-40
-7.20732e-45
-4.89504e-42
1.10674e-47
-1.12201e-47
-4.78819e-42
4.36976e-41
-1.43927e-49
-3.09811e-42
5.10866e-44
-6.41317e-49
1.81767e-42
7.25052e-41
-2.11651e-48
6.14253e-42
9.11777e-41
-5.4939e-48
1.02011e-41
9.7414e-41
-1.0733e-47
1.18591e-41
8.67677e-41
-2.65459e-47
1.16936e-41
6.80469e-41
-1.35974e-46
1.35794e-41
1.42019e-41
-7.7638e-46
3.67762e-42
-1.36964e-41
-1.96346e-47
6.20754e-54
-2.16122e-54
-1.78155e-48
2.76039e-49
-1.44658e-61
9.8021e-49
4.13657e-50
-1.84118e-64
2.40159e-47
3.41133e-49
-9.0928e-58
3.76158e-47
3.99153e-49
-1.0294e-56
5.39318e-47
4.10616e-49
-4.8755e-56
6.27247e-47
3.59926e-49
-1.49169e-55
6.28263e-47
2.85791e-49
-3.08653e-55
4.71258e-47
1.42705e-49
-4.6688e-55
1.17115e-48
-8.9124e-47
1.35142e-58
4.587e-60
-9.54776e-63
1.23327e-53
1.49958e-55
-2.48472e-68
2.76054e-54
3.59905e-56
-1.27167e-68
2.21746e-53
2.1005e-55
-1.06413e-66
2.71771e-53
2.4937e-55
-2.37307e-65
3.5753e-53
2.61622e-55
-1.64834e-64
3.85385e-53
2.36709e-55
-6.42672e-64
3.61871e-53
1.92266e-55
-1.46659e-63
3.04285e-53
1.18631e-55
-2.25551e-63
3.72556e-54
-4.51138e-53
7.67422e-64
4.63993e-66
-7.93499e-70
2.79343e-59
1.62136e-61
-1.55823e-77
6.5239e-60
4.23782e-62
-1.04842e-84
4.38718e-59
2.49604e-61
-2.80666e-75
4.78403e-59
3.04342e-61
-7.57032e-74
5.36252e-59
3.27644e-61
-6.26222e-73
5.21153e-59
3.04368e-61
-2.23278e-72
4.23455e-59
2.50519e-61
-4.85022e-72
3.24957e-59
1.64026e-61
-7.19486e-72
1.23468e-59
-4.08403e-59
1.44028e-69
5.39807e-72
-4.48401e-76
4.85207e-65
1.95018e-67
-1.47021e-80
1.21468e-65
5.58045e-68
-2.9388e-89
7.49473e-65
3.42902e-67
-2.09521e-83
7.86436e-65
4.19118e-67
-5.64068e-80
8.14392e-65
4.52405e-67
-4.4988e-81
7.07463e-65
4.23386e-67
-1.75456e-80
5.02689e-65
3.4641e-67
-1.14226e-80
3.07675e-65
2.3645e-67
-8.6666e-80
4.12506e-65
-3.38635e-65
1.90289e-75
7.04297e-78
2.52313e-76
6.35913e-71
2.58615e-73
-2.64239e-79
1.86027e-71
8.00147e-74
-1.45341e-85
1.35561e-70
5.31853e-73
-1.34106e-84
1.42631e-70
6.35824e-73
-4.23135e-78
1.34533e-70
6.74147e-73
-1.26044e-77
1.0278e-70
6.24305e-73
-1.54536e-77
5.6442e-71
5.02194e-73
-1.36619e-77
2.25534e-71
3.52652e-73
-7.58094e-77
1.37192e-70
-2.48239e-71
2.1718e-81
9.97699e-84
4.57029e-82
8.6661e-77
3.52878e-79
1.25212e-77
2.93553e-77
1.17667e-79
4.18097e-78
2.4702e-76
8.95981e-79
2.77156e-77
2.45641e-76
1.03013e-78
2.93225e-77
2.16031e-76
1.05953e-78
2.35618e-77
1.46382e-76
9.64284e-79
1.25284e-77
6.2905e-77
7.62224e-79
3.60365e-78
7.82274e-78
5.52382e-79
-1.54339e-82
4.53652e-76
-2.32943e-77
3.17117e-87
1.45446e-89
5.91669e-88
1.23151e-82
4.85918e-85
2.79634e-83
4.73306e-83
1.72212e-85
1.14999e-83
4.81282e-82
1.62688e-84
1.10604e-82
4.48376e-82
1.78879e-84
1.00375e-82
3.69771e-82
1.78118e-84
7.06628e-83
2.21314e-82
1.59796e-84
2.84806e-83
8.11338e-83
1.25022e-84
-2.80672e-88
-8.60714e-81
9.5379e-85
-1.41474e-87
1.50469e-81
-4.31535e-83
4.76555e-93
1.49862e-93
2.18383e-95
1.83493e-88
4.94753e-89
6.66277e-91
7.66374e-89
1.83206e-89
2.4688e-91
1.04855e-87
1.99034e-88
3.19901e-90
9.55643e-88
1.43947e-88
3.38048e-90
7.19627e-88
7.2709e-89
3.2823e-90
4.00444e-88
-1.28728e-94
2.91952e-90
1.32011e-88
-2.97784e-93
2.27566e-90
-7.06576e-86
-5.99984e-93
1.89772e-90
-8.01279e-89
5.03756e-87
-2.82506e-14
-1.39728e-13
-6.25574e-14
-1.5332e-14
-9.58593e-14
-1.99445e-14
1.58754e-14
-1.22249e-13
-3.16491e-14
2.60127e-14
-9.23686e-14
-1.6377e-14
3.21642e-14
-8.15602e-14
-6.13882e-15
3.01602e-14
-6.43682e-14
1.60667e-15
2.65104e-14
-5.52827e-14
7.16204e-15
3.42443e-14
-6.04988e-14
1.15957e-14
4.08408e-14
-6.11043e-14
1.08677e-14
4.25046e-15
2.32794e-14
-2.11424e-13
-2.38727e-13
2.55785e-14
-1.91762e-13
-2.23843e-13
7.68759e-15
-2.14716e-13
-2.35688e-13
9.16124e-16
-2.0329e-13
-2.04099e-13
5.01554e-15
-1.96584e-13
-1.80791e-13
6.98932e-15
-1.73275e-13
-1.62613e-13
8.79208e-15
-1.39288e-13
-1.52314e-13
9.91404e-15
-1.00287e-13
-1.54472e-13
1.01014e-14
-5.76282e-14
-1.51007e-13
1.15552e-14
-7.31183e-14
1.39486e-14
-1.8979e-13
-3.87767e-13
2.4768e-14
-1.63993e-13
-3.56284e-13
-1.44711e-14
-2.04479e-13
-3.30218e-13
-1.60426e-14
-1.94146e-13
-3.07256e-13
5.01637e-15
-1.86766e-13
-2.69915e-13
1.58009e-14
-1.67798e-13
-2.42595e-13
2.55369e-14
-1.44785e-13
-2.24554e-13
3.52105e-14
-1.21359e-13
-2.1485e-13
4.56505e-14
-9.62305e-14
-2.04695e-13
5.27384e-14
-1.69623e-13
4.61686e-14
-1.7704e-13
-6.35926e-13
-1.2976e-14
-1.50288e-13
-5.06039e-13
-6.12234e-14
-2.03281e-13
-4.2362e-13
-5.93248e-14
-2.02595e-13
-3.99883e-13
-2.62442e-14
-1.87928e-13
-3.6043e-13
-5.20037e-15
-1.59978e-13
-3.17654e-13
2.23875e-14
-1.38128e-13
-2.75128e-13
4.06517e-14
-1.27211e-13
-2.39276e-13
5.60699e-14
-1.30591e-13
-2.0666e-13
5.64088e-14
-2.89173e-13
6.51545e-14
-1.4153e-13
-1.03405e-12
-6.90984e-14
-1.08527e-13
-6.7399e-13
-9.73356e-14
-1.78577e-13
-4.97124e-13
-9.81873e-14
-1.66998e-13
-4.97421e-13
-4.32375e-14
-1.55208e-13
-4.39121e-13
-1.05337e-14
-1.32748e-13
-3.73669e-13
2.71744e-14
-1.10337e-13
-3.11048e-13
5.36374e-14
-1.01432e-13
-2.46895e-13
7.08715e-14
-1.1128e-13
-1.99089e-13
8.46002e-14
-3.75864e-13
6.2151e-14
-1.41456e-13
-1.5763e-12
-8.38781e-14
2.57096e-14
-9.60183e-13
-9.42364e-14
-1.45669e-13
-4.40341e-13
-1.0446e-13
-1.35581e-13
-5.79218e-13
-5.15425e-14
-1.10357e-13
-5.14013e-13
-2.42584e-14
-8.47684e-14
-4.3059e-13
8.25371e-15
-6.27249e-14
-3.49592e-13
2.65631e-14
-5.21011e-14
-2.70168e-13
4.22737e-14
-4.58443e-14
-2.1403e-13
4.56743e-14
-4.25512e-13
4.12954e-14
-8.9103e-14
-2.78829e-12
7.58485e-14
4.73787e-13
-1.55239e-12
-3.7807e-14
2.74717e-14
5.43652e-15
-6.82018e-14
7.86357e-15
-5.801e-13
-3.14119e-14
3.76626e-14
-5.61925e-13
-1.54985e-14
4.77579e-14
-4.6228e-13
-3.61011e-15
4.08868e-14
-3.74105e-13
2.26606e-15
4.53627e-14
-3.1549e-13
5.2204e-15
5.93167e-14
-2.84346e-13
5.77944e-16
-4.15392e-13
-1.15523e-14
-1.01682e-13
-2.93557e-14
-3.85548e-13
-1.05539e-12
-9.15257e-14
2.26502e-13
-5.01221e-13
-2.04911e-18
-3.32565e-14
-5.28869e-13
-9.01852e-25
5.01828e-14
-3.38505e-13
-3.0486e-31
5.18587e-14
-3.08588e-13
-8.73747e-38
4.24318e-14
-2.47802e-13
-2.3997e-44
3.80262e-14
-1.46139e-13
4.70926e-43
3.32093e-14
-6.62763e-15
2.23742e-43
2.32767e-14
4.15019e-49
4.12758e-14
2.66457e-18
-9.87658e-31
7.03922e-19
2.04911e-18
-2.4766e-31
4.78664e-20
9.01853e-25
4.92537e-31
-3.65531e-26
3.04861e-31
6.64237e-38
-4.24222e-32
8.73758e-38
2.0306e-43
4.76657e-37
2.39982e-44
-3.45467e-46
1.09898e-42
6.3939e-51
1.24363e-51
1.18345e-48
-2.11835e-41
-3.02932e-42
3.13559e-36
-9.5869e-42
-6.63833e-43
1.28951e-36
-1.55297e-47
2.3795e-42
-3.30103e-38
-2.12192e-37
-1.96721e-37
-2.4766e-31
-1.87666e-39
-2.98972e-38
-2.64507e-38
3.52086e-35
-9.87824e-32
-2.8278e-45
1.10874e-41
-1.48459e-38
3.4619e-46
1.74502e-45
1.15557e-43
7.257e-52
2.28004e-52
7.20162e-49
-2.33657e-49
-2.27627e-50
1.49576e-43
-7.45613e-49
-1.05727e-48
2.82151e-43
-2.05434e-49
-2.53221e-46
5.60997e-44
-1.16962e-50
2.99011e-48
1.30357e-47
-3.38551e-47
-1.92151e-40
-1.52447e-38
-3.45987e-51
-4.15702e-45
-6.08791e-46
-1.67784e-49
-1.15131e-38
4.3516e-46
7.17378e-49
-3.54562e-45
8.53252e-49
1.72689e-49
-5.08582e-48
3.49437e-48
-7.48619e-49
-5.03742e-48
4.8542e-48
-7.67228e-48
-1.78662e-43
7.12557e-48
-7.81989e-47
-3.43876e-43
1.78436e-45
-5.20593e-46
-8.3058e-43
5.07582e-44
-4.24735e-43
-8.52302e-50
-7.91361e-54
-1.24078e-46
-1.57244e-49
-7.87726e-62
-2.34665e-49
-3.70416e-49
-5.27142e-63
-7.25409e-49
-4.13033e-49
-1.31342e-57
-1.84154e-48
7.45837e-49
-1.73311e-56
-4.26471e-48
5.60882e-48
-7.76072e-56
-9.01402e-48
2.02223e-47
-2.6066e-55
-1.56488e-47
1.99935e-46
-6.3701e-55
-3.76106e-46
1.57617e-45
-1.02857e-54
-8.55433e-46
6.60402e-41
-1.09428e-41
-5.3365e-63
-5.03697e-62
-1.06226e-53
-1.63101e-65
-6.18007e-71
-3.08719e-63
-7.851e-60
-3.05685e-73
-1.81833e-64
-1.22471e-58
-5.27336e-66
-1.35665e-57
7.49969e-58
-1.06748e-64
-1.03974e-56
1.13835e-56
-6.07902e-64
-3.89006e-56
5.91353e-56
-2.11444e-63
-1.03799e-55
1.95006e-55
-5.00651e-63
-1.97088e-55
4.72198e-55
-7.56693e-63
-2.78615e-55
3.00443e-49
-7.58089e-47
1.41091e-67
-8.8859e-69
-2.54616e-61
7.01231e-75
-1.15253e-76
-2.43573e-69
4.32814e-75
-2.81544e-77
-5.3145e-74
3.92814e-67
-2.12413e-74
-1.76319e-66
1.01047e-65
-8.38226e-73
-2.5183e-65
7.86959e-65
-4.24089e-72
-1.28918e-64
3.66898e-64
-1.29185e-71
-4.20742e-64
1.08701e-63
-2.68228e-71
-8.70836e-64
2.39303e-63
-3.6275e-71
-1.24e-63
2.10258e-55
-3.99118e-53
2.05501e-73
-9.94027e-75
-1.80725e-69
3.01707e-77
-3.18222e-82
-5.14983e-77
2.01841e-78
-1.46859e-83
-2.06996e-81
2.86917e-75
-1.26674e-82
-4.77728e-75
8.85106e-74
-2.59701e-81
-7.69685e-74
5.61217e-73
-2.23284e-80
-4.36463e-73
1.91241e-72
-7.31396e-80
-1.38972e-72
4.3437e-72
-6.84275e-80
-2.67608e-72
7.36094e-72
-7.57289e-80
-3.5661e-72
2.77844e-61
-4.02783e-59
5.1952e-79
-1.05214e-80
1.16269e-79
1.85582e-83
-4.90186e-78
2.44915e-88
2.22698e-83
-1.43592e-85
-1.29615e-89
2.18747e-83
-7.98652e-84
-2.59632e-83
3.37989e-81
-2.50188e-77
-3.70363e-82
6.90382e-81
-7.66887e-77
-2.11438e-81
1.4632e-80
-1.01801e-76
-5.69279e-81
1.3348e-80
-9.83466e-77
-8.39216e-81
3.74764e-79
-9.58651e-76
-1.22597e-80
3.78018e-67
-4.61949e-65
1.30472e-81
-1.10207e-86
4.29155e-85
1.20467e-78
-7.01451e-82
1.81687e-82
2.42172e-85
-4.13525e-82
1.22139e-86
3.5466e-84
-2.09083e-81
-6.57517e-92
1.00537e-77
-5.61353e-81
-3.83061e-88
2.26533e-77
-9.9955e-81
-1.91522e-87
2.18902e-77
-8.56207e-81
-3.643e-87
1.49637e-77
-5.39966e-81
-2.26884e-86
1.17495e-76
-1.40546e-80
-1.48688e-76
5.27515e-73
-5.61777e-71
1.12476e-87
-2.90001e-92
5.40331e-91
1.01519e-82
-6.38775e-87
2.15e-86
1.2888e-82
-6.2429e-87
1.62361e-86
7.92956e-82
-7.61262e-86
4.37971e-86
1.05225e-81
-7.29083e-86
6.71006e-87
1.4583e-81
-5.40895e-86
-6.70599e-92
9.25764e-82
-3.51823e-86
-1.26129e-91
3.55043e-82
-2.03843e-86
-3.39732e-91
5.47026e-83
-3.65297e-86
-1.02519e-81
7.75225e-79
-8.29048e-77
3.24144e-93
-1.71416e-97
9.70439e-97
9.33344e-88
-1.98862e-92
1.48982e-91
1.11027e-87
-9.96204e-93
1.16698e-91
1.60429e-86
-2.39107e-91
9.5605e-91
1.58718e-86
-1.56159e-91
-3.25218e-98
9.85755e-87
-8.99243e-92
-8.97746e-97
4.60458e-87
-4.89411e-92
-1.16956e-96
1.67112e-87
-2.68651e-92
-2.15595e-96
-1.58517e-83
-4.67328e-92
-3.77537e-87
1.25213e-84
-1.45542e-82
2.59985e-98
2.8658e-102
-6.43165e-103
4.15239e-93
1.99362e-97
-3.05517e-98
2.6506e-93
4.21305e-98
-1.09506e-98
7.75665e-92
-2.78932e-102
-4.79771e-97
5.10738e-92
-5.53443e-102
-2.37807e-97
2.91326e-92
-5.91473e-102
-7.76977e-98
1.29662e-92
-5.10591e-102
-6.57329e-100
4.55533e-93
-9.15385e-102
1.77638e-96
-5.92772e-89
-1.36734e-92
8.93724e-96
-2.73186e-88
2.2985e-90
-1.87603e-14
-2.00854e-13
-7.38233e-14
-1.17712e-14
-9.59565e-14
-2.8379e-14
2.49753e-14
-1.15428e-13
-4.76398e-14
3.35644e-14
-8.7422e-14
-2.56905e-14
4.17655e-14
-7.18747e-14
-2.26524e-14
3.77594e-14
-5.21409e-14
-1.3494e-14
3.24445e-14
-4.133e-14
-8.20508e-15
3.66004e-14
-4.36131e-14
-2.41691e-15
3.8006e-14
-3.99069e-14
2.60026e-15
1.77392e-14
8.09416e-15
-2.13094e-13
-3.14104e-13
7.32207e-15
-2.09466e-13
-2.22041e-13
-5.70335e-16
-2.12948e-13
-2.35175e-13
-2.45298e-16
-2.05678e-13
-2.01382e-13
-2.91619e-15
-1.96867e-13
-1.75404e-13
-1.47515e-15
-1.74278e-13
-1.55295e-13
-1.41258e-15
-1.39441e-13
-1.43033e-13
-1.68962e-15
-1.00045e-13
-1.38386e-13
-2.22915e-15
-4.97792e-14
-1.37421e-13
-1.1605e-15
-5.60592e-14
-4.04901e-15
-2.0111e-13
-4.36973e-13
1.1074e-14
-1.78213e-13
-3.62681e-13
-1.55479e-14
-1.97108e-13
-3.39017e-13
-5.92771e-15
-1.89863e-13
-3.04434e-13
-2.78996e-15
-1.8292e-13
-2.64694e-13
4.7577e-15
-1.64099e-13
-2.38387e-13
7.22845e-15
-1.40618e-13
-2.17815e-13
1.43901e-14
-1.14369e-13
-2.04266e-13
2.21217e-14
-9.06229e-14
-1.93188e-13
2.79664e-14
-1.60655e-13
2.03119e-14
-1.89711e-13
-6.31918e-13
1.71578e-14
-1.71795e-13
-5.1073e-13
-3.9363e-14
-2.0357e-13
-4.37065e-13
-3.11112e-14
-1.99888e-13
-3.99358e-13
-2.78264e-14
-1.78117e-13
-3.58577e-13
-1.65241e-14
-1.51653e-13
-3.15656e-13
-8.84888e-16
-1.29587e-13
-2.73076e-13
8.32845e-15
-1.21393e-13
-2.35549e-13
2.0631e-14
-1.27685e-13
-2.04107e-13
1.99284e-14
-2.91189e-13
3.06196e-14
-1.47275e-13
-9.74493e-13
-1.64102e-14
-1.17393e-13
-6.69861e-13
-5.63614e-14
-1.6924e-13
-5.11376e-13
-5.33313e-14
-1.53285e-13
-4.98281e-13
-3.33576e-14
-1.38811e-13
-4.366e-13
-1.20582e-14
-1.17016e-13
-3.7411e-13
5.95328e-15
-9.64154e-14
-3.14334e-13
2.22889e-14
-8.83408e-14
-2.52682e-13
3.22155e-14
-9.6682e-14
-2.06503e-13
5.03659e-14
-3.86428e-13
2.98002e-14
-1.30126e-13
-1.43417e-12
-2.94381e-14
1.14189e-14
-9.14492e-13
-4.95367e-14
-1.3124e-13
-4.64149e-13
-6.08713e-14
-1.22825e-13
-5.70117e-13
-3.31218e-14
-1.00353e-13
-5.05889e-13
-1.66071e-14
-7.46808e-14
-4.28849e-13
2.44004e-15
-5.35184e-14
-3.546e-13
1.33939e-14
-4.60126e-14
-2.75991e-13
2.70232e-14
-4.58798e-14
-2.20875e-13
2.92792e-14
-4.43682e-13
3.21483e-14
-6.95775e-14
-2.46045e-12
2.42793e-14
4.27302e-13
-1.42716e-12
-4.48511e-14
4.06072e-14
-8.69566e-14
-7.65798e-14
2.52459e-14
-5.6597e-13
-3.36347e-14
5.0109e-14
-5.34843e-13
-2.19571e-14
5.66702e-14
-4.39933e-13
-8.62581e-15
4.76758e-14
-3.56469e-13
3.02616e-15
4.31169e-14
-2.87332e-13
9.60494e-15
4.19492e-14
-2.49972e-13
1.79282e-14
-4.34637e-13
1.36554e-14
-1.49897e-13
-4.94912e-14
-4.24936e-13
-1.0269e-12
-1.11577e-13
1.38081e-13
-5.01684e-13
-1.05279e-18
-3.94536e-15
-5.13337e-13
-4.01056e-25
5.36436e-14
-3.37479e-13
4.29782e-38
7.17892e-14
-3.10709e-13
7.30958e-44
7.56941e-14
-2.4035e-13
9.36404e-50
7.71076e-14
-1.31478e-13
2.98765e-37
7.63343e-14
8.7734e-15
1.49622e-37
6.76633e-14
2.50727e-43
7.43873e-14
1.23883e-18
-2.84921e-31
2.6141e-19
1.05279e-18
-7.52926e-32
5.66243e-20
4.01056e-25
1.74597e-31
-2.00231e-26
1.32812e-31
-7.14208e-33
-9.59562e-33
-1.3753e-36
-5.45686e-37
-2.74149e-39
-3.42223e-42
-8.54051e-43
-6.02371e-46
-4.52719e-48
-8.29404e-49
2.96722e-45
-1.41246e-35
-1.91957e-36
-1.54359e-37
-6.56496e-36
-3.97374e-37
-3.59826e-37
-8.98424e-42
-3.3559e-43
-5.51802e-39
-3.74921e-38
-2.47519e-38
-7.52926e-32
-3.32134e-41
-3.92645e-39
-7.80449e-39
1.39169e-35
-2.73254e-32
1.12061e-44
2.59748e-42
-3.59235e-39
-3.27361e-44
-5.50355e-44
-1.17381e-45
-4.39535e-49
-2.41826e-49
1.05314e-43
-1.54094e-43
-8.39752e-45
3.04196e-38
-4.49543e-43
-1.02603e-43
3.4433e-44
-1.18596e-43
-4.33463e-43
-3.30798e-49
-9.69139e-48
1.03023e-52
1.70614e-41
-2.69094e-46
-1.22865e-39
-3.43567e-39
1.33898e-46
-5.73231e-46
4.99795e-40
-8.63332e-50
-3.37121e-39
1.80075e-48
2.65115e-47
-8.23505e-46
2.55594e-48
2.95625e-49
-1.52233e-48
3.39068e-48
-1.1188e-48
-2.62724e-48
2.8455e-43
-1.6008e-47
-1.06149e-43
4.98608e-43
-6.31467e-46
-2.59428e-43
1.38777e-42
-8.80235e-46
-2.52468e-43
2.01356e-42
-2.5781e-43
-1.30664e-49
-3.0169e-53
-1.44809e-46
-1.80228e-49
-1.71572e-62
-5.69374e-49
-2.48516e-49
-7.42955e-63
-1.41592e-47
-7.15637e-50
-2.662e-57
-1.47679e-48
1.05231e-48
-1.8341e-56
-2.92491e-48
4.94816e-48
-7.31437e-56
-5.59933e-48
1.70307e-47
-2.35792e-55
-2.53275e-47
6.53201e-46
-5.58178e-55
-1.65044e-46
1.31251e-45
-8.63499e-55
-4.44013e-46
6.80696e-41
-5.99041e-42
3.79912e-59
-1.39372e-60
-8.90947e-54
2.90279e-65
-1.29527e-68
-1.09487e-62
5.81589e-66
-7.01681e-72
-2.38498e-58
2.352e-58
-1.39232e-65
-2.48596e-57
2.20846e-57
-1.22833e-64
-8.63968e-57
1.45964e-56
-5.62152e-64
-2.65186e-56
5.88492e-56
-1.73925e-63
-6.16762e-56
1.72852e-55
-3.79403e-63
-1.1084e-55
3.86303e-55
-5.37459e-63
-1.44719e-55
3.03982e-49
-4.60177e-47
1.71531e-65
-3.45026e-68
-1.77564e-61
5.97283e-73
-1.09289e-75
-2.14265e-69
1.87688e-73
-3.21296e-80
-1.92275e-67
1.21442e-66
-8.75568e-74
-4.34646e-66
1.2285e-65
-7.71721e-73
-2.08035e-65
7.62555e-65
-3.36012e-72
-8.67507e-65
3.13346e-64
-9.15692e-72
-2.35782e-64
8.27825e-64
-1.68683e-71
-4.37682e-64
1.63591e-63
-2.1247e-71
-5.63503e-64
2.08252e-55
-2.55934e-53
1.07157e-72
-4.37082e-78
-1.69356e-69
4.54679e-80
-1.3904e-85
-4.2038e-77
1.86663e-81
-3.73118e-88
-3.69645e-76
1.03378e-74
-6.04521e-82
-8.74947e-75
8.82377e-74
-4.73671e-81
-5.74225e-74
4.27658e-73
-1.78251e-80
-2.54156e-73
1.28539e-72
-4.04071e-80
-6.62745e-73
2.56706e-72
-6.3085e-80
-1.11422e-72
3.53079e-72
-5.49307e-80
-1.33145e-72
2.70371e-61
-2.94658e-59
2.20339e-82
-6.95236e-85
2.16448e-79
5.12664e-89
-1.09597e-85
7.47869e-87
2.97505e-89
-4.95292e-92
-6.66412e-86
8.34133e-83
-3.00472e-90
-2.04233e-83
6.14433e-82
-6.15416e-87
-1.92072e-82
2.33972e-81
-2.17807e-86
-7.94941e-82
5.08443e-81
-3.3221e-86
-1.86269e-81
7.21541e-81
-2.98241e-85
-2.81693e-81
4.36048e-80
-9.77173e-76
-7.70832e-81
3.58599e-67
-3.96225e-65
1.99104e-86
-2.22617e-91
7.73933e-86
3.76788e-86
-2.14793e-89
6.29499e-90
9.15218e-93
-1.64065e-89
3.14655e-93
8.23788e-91
-2.2151e-89
1.17319e-92
1.05925e-87
-7.55218e-90
-6.64736e-91
2.91677e-87
-1.97167e-90
-3.29848e-90
4.10831e-87
-1.66598e-90
-7.84013e-90
3.59125e-86
-4.70463e-90
-1.79195e-86
9.72121e-77
-1.21137e-80
-1.31612e-76
4.8827e-73
-5.773e-71
1.46545e-92
-1.20969e-97
2.61517e-92
1.93884e-90
-1.52957e-94
7.41058e-94
1.71075e-90
-1.1698e-94
3.21879e-94
5.12184e-90
-8.98572e-94
2.24519e-94
3.19254e-91
-3.05579e-95
-5.88177e-98
2.18156e-91
-1.91777e-95
-3.6933e-97
1.58245e-91
-1.02138e-95
-8.2109e-97
3.83947e-91
-1.99277e-95
-3.039e-91
-2.10534e-78
-3.06397e-86
-1.138e-81
7.06792e-79
-9.20397e-77
8.7595e-99
-1.74423e-103
7.60445e-99
1.64896e-95
-2.10676e-100
2.89595e-99
1.62186e-95
-4.53939e-101
1.07965e-99
1.4739e-94
-1.33632e-100
-2.1314e-104
4.28099e-96
-7.66106e-101
-1.74359e-103
2.45622e-96
-3.98446e-101
-4.07893e-103
1.26295e-96
-1.88692e-101
-6.9474e-103
1.66736e-96
-4.08385e-101
-2.05949e-96
-2.0201e-83
-4.80682e-92
-4.95546e-87
1.13303e-84
-1.5989e-82
1.93161e-104
1.90989e-106
-2.14992e-109
3.40073e-101
-3.11945e-110
-3.15421e-107
9.80599e-102
-3.06747e-110
-1.09516e-107
3.52137e-101
-9.00637e-109
-3.27438e-106
1.82338e-101
-8.64067e-109
-1.48716e-106
8.81638e-102
-9.14715e-109
-5.04436e-107
4.39667e-102
-1.38739e-108
-1.20642e-107
6.69671e-102
-1.01877e-101
-6.18921e-108
-5.41726e-89
-1.87821e-92
3.57212e-96
-3.01696e-88
2.05176e-90
1.86033e-15
-2.70561e-13
-5.49534e-14
1.27256e-14
-1.18793e-13
-2.12667e-14
3.35264e-14
-1.18734e-13
-4.72296e-14
4.39272e-14
-9.89225e-14
-2.72345e-14
4.78137e-14
-7.81635e-14
-2.93388e-14
4.4141e-14
-5.53686e-14
-2.5235e-14
3.74328e-14
-4.00941e-14
-2.17482e-14
4.03548e-14
-3.9325e-14
-1.68055e-14
4.2141e-14
-3.20924e-14
-1.04818e-14
2.11146e-14
-3.06803e-15
-2.10677e-13
-4.02552e-13
-1.60459e-14
-2.30403e-13
-2.40911e-13
5.32173e-15
-2.09844e-13
-2.53527e-13
-1.44981e-14
-2.04348e-13
-2.16052e-13
-8.46397e-15
-1.95078e-13
-1.8199e-13
-1.09306e-14
-1.73264e-13
-1.56788e-13
-1.16482e-14
-1.37279e-13
-1.41188e-13
-1.25373e-14
-9.49148e-14
-1.33936e-13
-1.39591e-14
-3.88293e-14
-1.32198e-13
-1.26495e-14
-4.77398e-14
-1.24016e-14
-1.99025e-13
-5.35989e-13
-1.42671e-14
-1.82212e-13
-3.8871e-13
-8.37731e-15
-1.83387e-13
-3.64728e-13
-9.99628e-15
-1.81015e-13
-3.19121e-13
-8.10417e-15
-1.73851e-13
-2.71573e-13
-7.11544e-15
-1.57609e-13
-2.40558e-13
-7.31088e-15
-1.34421e-13
-2.1558e-13
-4.82906e-15
-1.0833e-13
-1.99361e-13
8.32757e-16
-8.4856e-14
-1.85964e-13
4.4262e-15
-1.54044e-13
4.15307e-15
-1.93849e-13
-6.67383e-13
-9.68103e-15
-1.7413e-13
-5.32464e-13
-2.814e-14
-1.91338e-13
-4.60734e-13
-2.28298e-14
-1.87878e-13
-4.17984e-13
-2.728e-14
-1.6608e-13
-3.74394e-13
-1.97762e-14
-1.41778e-13
-3.28315e-13
-1.13651e-14
-1.25091e-13
-2.82124e-13
-6.4968e-15
-1.19004e-13
-2.43358e-13
1.22262e-15
-1.27855e-13
-2.10277e-13
7.01052e-16
-2.99593e-13
1.16805e-14
-1.45516e-13
-9.37575e-13
-1.91966e-14
-1.08911e-13
-6.77904e-13
-3.93052e-14
-1.4256e-13
-5.29335e-13
-3.47618e-14
-1.31218e-13
-5.088e-13
-2.83627e-14
-1.16224e-13
-4.5122e-13
-1.59786e-14
-9.9777e-14
-3.90716e-13
-6.26226e-15
-8.24648e-14
-3.33004e-13
3.6458e-15
-7.71923e-14
-2.73317e-13
8.84809e-15
-7.99723e-14
-2.24036e-13
2.13662e-14
-3.97097e-13
1.564e-14
-1.16822e-13
-1.32599e-12
-2.07581e-14
1.2128e-14
-8.81408e-13
-3.53816e-14
-1.08913e-13
-4.82735e-13
-3.94624e-14
-1.03038e-13
-5.66374e-13
-2.71276e-14
-8.3457e-14
-5.10587e-13
-1.66002e-14
-6.1028e-14
-4.41549e-13
-4.91016e-15
-4.44593e-14
-3.73706e-13
3.90175e-15
-3.74208e-14
-2.99027e-13
1.27696e-14
-4.1614e-14
-2.39803e-13
1.63418e-14
-4.47389e-13
1.82735e-14
-5.30609e-14
-2.28139e-12
-1.68162e-14
4.00834e-13
-1.35964e-12
-4.36886e-14
5.44087e-14
-1.70864e-13
-5.99449e-14
4.96028e-14
-5.73718e-13
-3.51251e-14
6.46772e-14
-5.33491e-13
-2.54348e-14
6.50055e-14
-4.47091e-13
-1.44915e-14
5.58848e-14
-3.6986e-13
-4.14583e-15
5.20321e-14
-3.02058e-13
2.00828e-15
4.83417e-14
-2.43137e-13
8.7644e-15
-4.06224e-13
1.05652e-14
-1.5099e-13
-1.13659e-13
-2.5418e-13
-9.54184e-13
-1.30722e-13
1.22105e-13
-4.86632e-13
-4.05895e-19
5.72256e-14
-4.90465e-13
-1.467e-25
8.30967e-14
-3.31487e-13
-4.94384e-32
9.35663e-14
-3.09555e-13
-1.5762e-38
9.61532e-14
-2.47602e-13
1.21143e-45
9.47563e-14
-1.44271e-13
2.28456e-43
9.10414e-14
-1.95552e-15
2.13072e-43
8.07978e-14
4.00065e-49
7.77001e-14
5.79677e-19
-5.03447e-32
-4.5687e-20
4.05895e-19
-1.28961e-32
3.94565e-21
1.467e-25
3.85298e-32
-7.57533e-27
4.94385e-32
-9.59796e-33
-2.20113e-33
1.5762e-38
-1.54905e-39
-4.07693e-40
4.97678e-45
1.07263e-45
9.54031e-47
-6.31365e-44
-1.04965e-44
-6.26387e-45
-1.14887e-41
-1.29138e-42
-1.96105e-42
-1.01393e-41
-4.39616e-43
-2.24498e-42
-1.61028e-47
-3.45115e-48
-5.59957e-40
-5.38692e-39
-1.06358e-38
-1.28961e-32
-8.19122e-41
-7.4128e-40
-1.58705e-39
4.39677e-36
-8.1442e-33
1.23693e-40
3.78485e-41
-3.3172e-39
7.38591e-46
4.10047e-46
-9.07413e-46
-1.24457e-43
-5.23572e-44
1.96544e-49
-6.13256e-38
-7.00432e-40
7.94404e-50
-1.11091e-43
-1.43557e-43
1.20506e-44
1.43844e-48
-2.36184e-43
6.52123e-46
-5.68877e-52
4.20528e-47
1.04354e-40
-2.07764e-46
-8.99024e-40
-5.40719e-40
2.47094e-47
-3.66261e-46
5.50745e-40
3.74662e-44
-1.07274e-39
3.32252e-46
6.52794e-49
-4.82671e-46
1.20774e-48
1.727e-49
-1.27389e-48
4.51151e-48
-1.04481e-48
-1.70222e-48
2.15379e-43
-3.92282e-47
-6.08741e-46
6.10796e-43
-2.80892e-46
-3.22659e-46
7.07873e-43
-1.03385e-45
-1.24161e-46
2.93965e-42
-5.62446e-44
-1.86847e-49
-1.85867e-53
-9.79206e-47
-2.66112e-48
-7.57601e-62
-6.22207e-49
-1.03663e-49
-9.12186e-58
-1.4423e-47
1.88782e-49
-3.3653e-57
-9.3976e-49
1.3073e-48
-1.54744e-56
-1.58314e-48
4.97764e-48
-5.47389e-56
-2.6874e-48
4.84681e-47
-1.65933e-55
-4.96246e-48
2.85536e-46
-3.74841e-55
-7.11814e-48
1.25215e-45
-5.55325e-55
-8.38573e-48
5.1678e-41
-3.69473e-42
3.40862e-58
-8.17077e-61
-3.13521e-54
1.16531e-62
-1.19053e-68
-1.76575e-58
1.15426e-58
-2.91049e-66
-1.03188e-57
7.05973e-58
-2.23808e-65
-1.89161e-57
3.26184e-57
-1.10722e-64
-5.31589e-57
1.38545e-56
-3.91799e-64
-1.26299e-56
4.82219e-56
-1.06092e-63
-2.55603e-56
1.23444e-55
-2.09334e-63
-4.18543e-56
2.53342e-55
-2.74651e-63
-5.00488e-56
2.38849e-49
-3.22585e-47
1.98128e-65
-3.83543e-68
-3.04656e-62
9.06933e-70
-1.22636e-75
-2.12942e-68
2.40847e-67
-1.52694e-74
-9.61806e-67
2.13034e-66
-1.31994e-73
-2.98558e-66
1.1112e-65
-6.16802e-73
-1.21932e-65
5.71852e-65
-1.98809e-72
-3.63449e-65
2.05318e-64
-4.43834e-72
-8.40658e-65
4.76802e-64
-7.02832e-72
-1.38317e-64
8.37984e-64
-8.51601e-72
-1.58183e-64
1.60994e-55
-1.90775e-53
1.42567e-72
-1.39079e-77
-6.74022e-71
1.03301e-76
-6.2223e-85
-6.26444e-78
1.5215e-75
-9.28307e-83
-8.08917e-76
1.2851e-74
-7.36281e-82
-5.39754e-75
6.19617e-74
-2.97583e-81
-2.62345e-74
2.42007e-73
-8.06668e-81
-8.49427e-74
6.31622e-73
-1.47493e-80
-1.78782e-73
1.05421e-72
-1.97809e-80
-2.51705e-73
1.42224e-72
-4.04863e-80
-2.56979e-73
2.07216e-61
-2.46327e-59
6.56937e-82
-2.93399e-84
1.84571e-78
5.3287e-86
-1.22479e-91
5.56605e-86
1.07943e-83
-6.37722e-91
2.52535e-84
7.33103e-83
-4.49026e-90
-3.47007e-84
3.07446e-82
-1.62454e-89
-4.71965e-83
9.13363e-82
-3.9456e-89
-1.64922e-82
1.65596e-81
-6.55605e-89
-3.25988e-82
2.20274e-81
-2.26164e-85
-2.35987e-82
7.84089e-81
-6.49967e-76
-8.63783e-81
2.73483e-67
-3.59763e-65
1.16048e-88
-9.60348e-91
3.81418e-85
8.58129e-93
-1.47753e-96
9.93903e-93
7.21624e-92
-7.37554e-97
3.32733e-92
5.29005e-91
-1.14348e-96
5.28551e-92
1.95079e-90
-2.42546e-96
-1.2589e-91
4.53467e-90
-5.33608e-96
-6.46516e-91
7.47954e-90
-7.27113e-96
-1.38129e-90
2.46546e-86
-3.24949e-90
-1.81106e-86
5.50089e-77
-9.39801e-81
-9.85667e-77
3.73534e-73
-5.39573e-71
1.4654e-95
-4.57465e-97
1.032e-91
3.94925e-98
-6.40564e-102
1.06756e-98
5.85791e-98
-2.47956e-102
7.14601e-99
1.33803e-97
-2.80401e-102
4.74844e-99
3.31558e-97
-3.14325e-102
-3.30701e-98
6.24304e-97
-3.78609e-102
-1.55575e-97
6.85427e-97
-4.66276e-102
-3.03927e-97
2.24558e-91
-1.58405e-95
-2.737e-91
-6.00323e-78
-3.05075e-86
-8.88514e-82
5.49705e-79
-8.47622e-77
1.12063e-101
-1.17687e-102
2.07118e-98
2.13308e-103
-1.66984e-108
7.56168e-105
2.08243e-103
-6.76797e-109
2.39042e-105
4.11841e-103
-9.95747e-108
-3.44682e-105
5.0365e-103
-5.8145e-108
-3.61759e-104
5.49204e-103
-3.84215e-108
-1.10394e-103
4.95639e-103
-6.02538e-108
-2.82394e-103
9.98654e-97
-3.97554e-101
-2.09e-96
-2.25448e-83
-5.48419e-92
-4.64442e-87
9.10634e-85
-1.44238e-82
5.13627e-107
-1.19681e-104
-1.73276e-108
1.02699e-109
-5.22566e-111
-3.06303e-114
1.26626e-109
-6.37998e-111
-9.34945e-115
2.27006e-108
-1.77711e-110
-2.49962e-113
1.24495e-108
-5.45728e-110
-1.0891e-113
8.94793e-109
-1.18306e-109
-4.2039e-114
1.46736e-108
-9.43183e-109
-4.6289e-114
4.84652e-102
-1.07459e-101
-1.97721e-107
-5.00734e-89
-1.88836e-92
2.18764e-96
-2.81694e-88
1.71895e-90