/*--------------------------------*- C++ -*----------------------------------*\
| =========                 |                                                 |
| \\      /  F ield         | OpenFOAM: The Open Source CFD Toolbox           |
|  \\    /   O peration     | Version:  2312                                  |
|   \\  /    A nd           | Website:  www.openfoam.com                      |
|    \\/     M anipulation  |                                                 |
\*---------------------------------------------------------------------------*/
FoamFile
{
    version     2.0;
    format      ascii;
    arch        "LSB;label=32;scalar=64";
    class       surfaceScalarField;
    location    "0.03";
    object      phi;
}
// * * * * * * * * * * * * * * * * * * * * * * * * * * * * * * * * * * * * * //

dimensions      [0 3 -1 0 0 0 0];

oriented        oriented;

internalField   nonuniform List<scalar> 
22600
(
1.78304e-13
-6.93704e-14
-3.69358e-14
2.09994e-13
1.34923e-14
-2.34083e-14
2.86242e-13
2.01168e-15
-5.24459e-14
3.26602e-13
2.04266e-14
-3.19691e-14
3.26294e-13
5.39951e-14
-2.20721e-14
2.96578e-13
7.88719e-14
-1.49865e-14
2.45896e-13
9.83082e-14
-1.11598e-14
1.8556e-13
1.07553e-13
-8.71622e-15
1.32973e-13
1.04725e-13
-1.19474e-14
1.65588e-13
8.73267e-15
1.03896e-14
-1.70209e-13
4.7983e-14
3.88091e-14
2.78675e-14
-6.19421e-16
8.75737e-14
2.61673e-14
-2.50148e-14
1.0317e-13
5.66414e-14
1.11583e-15
1.08708e-13
1.04727e-13
1.34836e-15
9.65223e-14
1.43218e-13
9.7848e-15
8.26461e-14
1.65837e-13
1.22156e-14
7.24596e-14
1.75383e-13
1.16086e-14
5.35363e-14
1.80435e-13
1.50283e-14
2.48891e-13
3.03136e-14
3.4355e-14
-3.28602e-13
5.96378e-14
6.50063e-14
3.71267e-14
-1.44422e-14
1.24947e-13
4.59998e-14
-4.97209e-14
1.39151e-13
7.11831e-14
5.75832e-15
1.41796e-13
1.23023e-13
1.80267e-14
1.21685e-13
1.68271e-13
3.84822e-14
9.21281e-14
1.93142e-13
5.0038e-14
5.49764e-14
2.00036e-13
6.42772e-14
9.50659e-15
2.06099e-13
7.47383e-14
2.22245e-13
8.20972e-14
4.51138e-14
-4.76186e-13
1.36444e-14
9.44213e-14
8.2572e-14
-8.51927e-14
1.56358e-13
1.061e-13
-1.08245e-13
1.57751e-13
1.13931e-13
-2.56995e-14
1.59709e-13
1.42856e-13
1.65481e-15
1.41346e-13
1.68804e-13
4.65771e-14
1.04341e-13
1.90465e-13
7.37955e-14
4.38016e-14
2.02889e-13
9.67661e-14
-2.30774e-14
2.14892e-13
1.01099e-13
1.23087e-13
1.12122e-13
4.96149e-14
-6.75532e-13
-5.83804e-14
1.48705e-13
1.19532e-13
-1.39751e-13
1.96178e-13
2.14442e-13
-1.55352e-13
1.89725e-13
1.77344e-13
-5.15152e-14
1.84471e-13
1.6665e-13
-7.51186e-15
1.52878e-13
1.64966e-13
5.24826e-14
1.07334e-13
1.68098e-13
9.10102e-14
4.24624e-14
1.79222e-13
1.17096e-13
-2.81741e-14
1.93824e-13
1.24443e-13
6.30768e-15
1.1629e-13
7.31748e-14
-1.03468e-12
-1.21939e-13
2.77303e-13
4.59019e-14
-1.39508e-13
1.46208e-13
5.03475e-13
-1.62982e-13
1.56445e-13
2.36353e-13
-6.93298e-14
1.62358e-13
1.94176e-13
-2.78645e-14
1.40488e-13
1.82902e-13
1.55065e-14
1.06523e-13
1.76611e-13
4.27962e-14
6.29669e-14
1.8602e-13
5.89998e-14
1.21962e-14
2.05125e-13
6.5186e-14
-1.56326e-14
5.57882e-14
2.68985e-15
-2.77916e-12
1.32874e-13
6.38801e-13
-5.74352e-13
-2.04666e-14
2.80305e-13
8.75962e-13
-1.55662e-14
2.42811e-13
2.95477e-13
-1.91038e-14
2.27137e-13
2.28363e-13
-1.12481e-14
2.02253e-13
2.30201e-13
-1.03524e-14
1.66044e-13
2.47369e-13
-1.82615e-14
1.27492e-13
2.7044e-13
-2.64239e-14
1.11917e-13
2.88433e-13
-4.64536e-14
1.69487e-13
-5.60171e-14
1.69468e-13
-7.40139e-13
7.74794e-14
-8.30755e-13
-4.3212e-14
4.7869e-13
-3.80619e-13
3.76293e-13
6.00992e-14
-5.16925e-13
3.08256e-13
1.37574e-13
-2.96672e-13
-6.2867e-14
8.96373e-14
-2.73062e-13
1.85052e-13
4.47723e-14
-2.24659e-13
2.05579e-13
2.01996e-14
-1.27639e-13
1.95246e-13
7.04924e-15
5.38212e-15
1.83151e-13
1.64846e-15
1.93163e-13
6.71579e-15
5.10447e-11
-2.04533e-10
2.65892e-11
9.41763e-11
-5.1334e-11
1.2002e-11
3.62568e-11
5.85072e-11
3.64618e-12
2.06764e-11
3.04266e-11
-9.87496e-12
1.13778e-11
2.61287e-11
-1.09449e-11
9.65476e-12
2.11065e-11
-1.19236e-11
1.03529e-11
1.91587e-11
-1.13532e-11
1.19177e-11
1.78635e-11
-1.03916e-11
1.40768e-11
1.64586e-11
-9.52829e-12
3.24298e-11
-9.55976e-12
-1.81314e-11
-7.95725e-11
-6.30106e-11
-3.61522e-11
5.48601e-12
-3.36432e-11
-1.61728e-11
6.49932e-11
-2.01971e-11
-1.22379e-11
5.44436e-11
-1.96434e-11
-5.9769e-12
4.98107e-11
-1.93957e-11
-1.14165e-12
4.73714e-11
-1.86706e-11
4.52164e-12
4.51472e-11
-1.79919e-11
1.11197e-11
4.28641e-11
-1.73858e-11
1.75084e-11
4.15145e-11
-1.71701e-11
7.58736e-11
-1.48558e-11
-1.30723e-11
1.56207e-11
-4.19784e-11
-3.10116e-11
5.18156e-11
-3.09927e-11
-1.15951e-11
6.22582e-11
-1.81648e-11
-5.25378e-12
6.7586e-11
-1.91473e-11
-2.21186e-12
6.67614e-11
-1.76744e-11
7.79813e-13
6.57048e-11
-1.71011e-11
4.80428e-12
6.32334e-11
-1.61771e-11
9.93102e-12
6.03961e-11
-1.52731e-11
1.59591e-11
5.88026e-11
-1.48189e-11
1.13154e-10
-1.44131e-11
-9.244e-12
4.23663e-11
-1.87051e-11
-1.3768e-11
5.87472e-11
-1.32389e-11
-1.13562e-11
6.17632e-11
-1.1552e-11
-8.43676e-12
6.84196e-11
-1.16828e-11
-6.16056e-12
6.95302e-11
-1.0998e-11
-3.41523e-12
7.0641e-11
-1.13263e-11
7.52358e-13
7.06632e-11
-1.26431e-11
6.21977e-12
7.02134e-11
-1.36588e-11
1.31026e-11
7.04245e-11
-1.45343e-11
1.44491e-10
-1.42527e-11
-4.64756e-12
4.73775e-11
-1.80497e-11
-6.0252e-12
6.20853e-11
-1.78086e-11
-5.6056e-12
6.29311e-11
-1.62968e-11
-5.55473e-12
6.96338e-11
-1.44833e-11
-5.34003e-12
7.15538e-11
-1.35078e-11
-3.8568e-12
7.42994e-11
-1.37717e-11
-6.81516e-13
7.62862e-11
-1.41813e-11
4.07204e-12
7.74636e-11
-1.39526e-11
9.56801e-12
7.95526e-11
-1.35987e-11
1.68914e-10
-1.28245e-11
-2.37058e-12
5.00736e-11
-1.92064e-11
-1.44494e-12
6.24017e-11
-1.60345e-11
-2.45059e-12
6.30003e-11
-1.31448e-11
-2.28688e-12
6.84071e-11
-1.20317e-11
-2.29811e-12
7.23616e-11
-1.23006e-11
-1.15644e-12
7.70523e-11
-1.30002e-11
1.10291e-12
8.11537e-11
-1.32258e-11
4.36589e-12
8.38525e-11
-1.26628e-11
8.20547e-12
8.72604e-11
-1.20519e-11
1.88761e-10
-1.11138e-11
1.03079e-12
5.55527e-11
-1.42349e-11
2.60685e-12
6.26682e-11
-1.00383e-11
2.14886e-12
6.41002e-11
-8.98085e-12
2.39248e-12
6.91506e-11
-9.19661e-12
2.34263e-12
7.47666e-11
-9.83845e-12
2.91232e-12
8.06015e-11
-1.02479e-11
4.16917e-12
8.5745e-11
-1.02613e-11
5.60091e-12
8.93682e-11
-9.71576e-12
7.19356e-12
9.34974e-11
-9.44313e-12
2.03298e-10
-8.46395e-12
6.93078e-12
6.46624e-11
-8.40672e-12
7.79271e-12
7.01377e-11
-8.158e-12
7.44396e-12
7.31827e-11
-9.60591e-12
7.0397e-12
7.80104e-11
-1.01321e-11
6.97739e-12
8.27535e-11
-1.00088e-11
7.1919e-12
8.74688e-11
-9.29237e-12
7.18881e-12
9.16858e-11
-8.18985e-12
6.85993e-12
9.42758e-11
-6.96479e-12
5.58793e-12
9.81535e-11
-6.06394e-12
2.11482e-10
-5.21234e-12
1.00511e-11
7.67558e-11
-3.91628e-12
1.04229e-11
8.16014e-11
-5.69032e-12
1.09502e-11
8.3869e-11
-6.46799e-12
1.15419e-11
8.70518e-11
-6.21468e-12
1.18837e-11
9.03242e-11
-5.71663e-12
1.15504e-11
9.36593e-11
-4.89697e-12
1.02781e-11
9.66089e-11
-3.98813e-12
7.67564e-12
9.84161e-11
-3.17962e-12
3.84088e-12
1.01873e-10
-2.66421e-12
2.14842e-10
-2.33284e-12
1.0064e-11
8.75417e-11
-8.75441e-13
1.22123e-11
8.90072e-11
-1.11368e-12
1.36153e-11
9.08009e-11
-9.13086e-13
1.47695e-11
9.30266e-11
-8.81032e-13
1.51864e-11
9.5575e-11
-6.61603e-13
1.46042e-11
9.8391e-11
-5.07322e-13
1.25413e-11
1.01189e-10
-3.66868e-13
8.46966e-12
1.03285e-10
-1.7886e-13
2.92599e-12
1.06947e-10
-2.51495e-13
2.1768e-10
-8.4222e-13
1.13611e-11
9.3281e-11
1.74912e-12
1.37457e-11
9.37959e-11
2.01001e-12
1.6012e-11
9.52912e-11
2.00231e-12
1.75525e-11
9.78916e-11
1.77347e-12
1.81589e-11
1.01402e-10
1.19897e-12
1.74572e-11
1.05475e-10
5.89608e-13
1.47821e-11
1.09704e-10
1.68554e-13
9.81253e-12
1.13077e-10
-1.17104e-13
3.11395e-12
1.17651e-10
-6.8577e-13
2.24123e-10
-8.62496e-13
1.286e-11
4.68235e-12
9.67683e-11
1.61613e-11
3.91155e-12
9.74632e-11
1.91327e-11
3.00412e-12
9.99307e-11
2.13257e-11
1.7998e-12
1.04511e-10
2.23782e-11
4.73976e-13
1.10774e-10
2.14105e-11
-4.45136e-13
1.17868e-10
1.7806e-11
-8.42317e-13
1.24565e-10
1.173e-11
-1.62933e-12
1.29923e-10
3.47027e-12
-2.07663e-12
1.35594e-10
-1.72916e-12
2.35269e-10
1.27505e-14
-6.03026e-15
-6.62117e-14
2.6872e-14
2.70512e-14
-1.96668e-14
5.66582e-14
2.3065e-15
-3.36287e-14
6.68835e-14
3.1939e-14
-1.80525e-14
7.37017e-14
4.01874e-14
-8.15818e-15
7.09971e-14
5.39319e-14
-8.61247e-16
6.49346e-14
5.97723e-14
4.45119e-15
6.83404e-14
5.19202e-14
8.64357e-15
7.17013e-14
5.07317e-14
9.13765e-15
1.20591e-13
2.23565e-14
-1.501e-13
6.2053e-14
3.00648e-14
-1.51202e-13
7.03008e-14
8.60181e-15
-1.74867e-13
5.64956e-14
2.8384e-15
-1.65345e-13
8.26781e-14
5.88998e-15
-1.58973e-13
9.94447e-14
7.21013e-15
-1.36428e-13
1.10205e-13
8.61649e-15
-1.04086e-13
1.13639e-13
9.35642e-15
-6.67146e-14
1.04932e-13
9.43896e-15
-2.37657e-14
1.02906e-13
1.15306e-14
1.81421e-13
1.5149e-14
-1.38796e-13
4.60869e-14
3.92961e-14
-1.25554e-13
7.63727e-14
-5.92873e-15
-1.70752e-13
9.41277e-14
-8.07118e-15
-1.62719e-13
1.09332e-13
1.16496e-14
-1.56941e-13
1.37935e-13
2.10757e-14
-1.38882e-13
1.54978e-13
2.98387e-14
-1.1668e-13
1.63812e-13
3.85425e-14
-9.34763e-14
1.6456e-13
4.82497e-14
-6.67097e-14
1.66729e-13
5.52742e-14
2.00457e-13
4.93491e-14
-1.33257e-13
-1.08671e-13
1.17583e-14
-1.19005e-13
2.88454e-14
-4.67322e-14
-1.77995e-13
1.01571e-13
-4.51864e-14
-1.79051e-13
1.16108e-13
-1.28083e-14
-1.66354e-13
1.47062e-13
6.17436e-15
-1.40887e-13
1.79325e-13
3.12466e-14
-1.19474e-13
2.10982e-13
4.77178e-14
-1.06928e-13
2.36586e-13
6.17838e-14
-1.06577e-13
2.60761e-13
6.14999e-14
1.76391e-13
7.03803e-14
-1.25299e-13
-4.48487e-13
-3.95508e-14
-8.72869e-14
-8.20456e-14
-7.80308e-14
-1.60909e-13
9.39241e-14
-7.87036e-14
-1.52105e-13
8.46392e-14
-2.58264e-14
-1.43765e-13
1.38397e-13
4.28595e-15
-1.23962e-13
1.9358e-13
3.87377e-14
-1.01471e-13
2.45609e-13
6.27085e-14
-8.95846e-14
2.99776e-13
7.80951e-14
-9.32151e-14
3.39279e-13
9.07785e-14
1.62127e-13
6.81302e-14
-1.39832e-13
-9.63141e-13
-5.46875e-14
3.51516e-14
-3.4035e-13
-7.09273e-14
-1.34307e-13
1.74683e-13
-8.28596e-14
-1.28015e-13
3.98879e-14
-3.20733e-14
-1.10058e-13
1.07943e-13
-8.48391e-15
-8.73878e-14
1.81189e-13
2.02567e-14
-6.38532e-14
2.51466e-13
3.58152e-14
-4.80799e-14
3.21892e-13
4.93599e-14
-3.25889e-14
3.69337e-13
5.16597e-14
1.61958e-13
4.68724e-14
-1.14829e-13
-2.15683e-12
1.09553e-13
4.32368e-13
-9.04252e-13
-9.18074e-15
9.1913e-14
5.33696e-13
-3.50574e-14
1.62366e-14
1.09491e-13
-8.26422e-15
2.89198e-14
9.61894e-14
-1.28423e-15
3.55822e-14
1.74433e-13
6.34134e-15
3.14636e-14
2.49428e-13
9.05141e-15
4.33094e-14
2.98144e-13
9.62014e-15
7.02612e-14
3.19825e-13
1.62934e-15
2.01249e-13
-7.56636e-15
-1.06256e-13
4.45292e-13
-3.18892e-13
-1.00441e-12
2.32874e-13
2.57116e-13
-5.08993e-13
1.42183e-13
-2.37837e-14
-5.58513e-13
2.62037e-13
6.05917e-14
-3.57708e-13
-4.16674e-14
5.98566e-14
-3.2387e-13
1.76444e-13
4.83572e-14
-2.60364e-13
2.07487e-13
4.21628e-14
-1.52936e-13
2.05739e-13
3.70272e-14
-1.09534e-14
1.95786e-13
2.79679e-14
1.94088e-13
4.20617e-14
2.74271e-11
-6.62592e-11
2.97107e-11
4.43144e-11
-1.49942e-11
1.68466e-11
2.28099e-11
2.50555e-11
7.87588e-12
1.20476e-11
1.07967e-11
8.89478e-14
6.38435e-12
8.31746e-12
-1.5843e-12
6.01429e-12
4.83649e-12
-2.26665e-12
7.80181e-12
3.73301e-12
-1.6254e-12
1.07538e-11
3.00501e-12
-8.46211e-13
1.47062e-11
1.8606e-12
-2.00816e-13
1.74456e-11
-8.11141e-13
-1.46677e-11
-5.21346e-11
-3.92059e-11
-3.10563e-11
-1.0631e-11
-1.83485e-11
-1.9561e-11
1.15951e-11
-1.28796e-11
-1.74338e-11
8.77321e-12
-1.14959e-11
-1.18469e-11
4.86241e-12
-1.04344e-11
-6.57729e-12
3.66192e-12
-9.4465e-12
3.9394e-13
2.10103e-12
-8.62098e-12
9.27633e-12
-1.47239e-13
-7.78924e-12
1.87363e-11
-1.91225e-12
-7.509e-12
3.94882e-11
-8.05662e-12
-1.56163e-12
-3.89657e-11
-2.68456e-11
-2.29158e-11
-8.27814e-12
-1.95602e-11
-1.1417e-11
-9.26782e-12
-1.43605e-11
-9.22646e-12
-2.04631e-12
-1.34861e-11
-6.94955e-12
-2.7591e-12
-1.25498e-11
-3.95197e-12
-2.43561e-12
-1.14913e-11
2.30228e-13
-2.75552e-12
-1.04017e-11
6.58754e-12
-4.82551e-12
-9.55642e-12
1.40374e-11
-5.97778e-12
-9.08457e-12
5.50586e-11
-9.55697e-12
-1.15393e-11
-4.07846e-11
-1.92011e-11
-1.37813e-11
-2.21837e-11
-1.44309e-11
-1.36716e-11
-2.32237e-11
-1.31335e-11
-1.22631e-11
-1.60185e-11
-1.2177e-11
-1.0147e-11
-1.47693e-11
-1.12584e-11
-6.9666e-12
-1.27422e-11
-1.07954e-11
-1.95267e-12
-1.21356e-11
-1.08264e-11
4.67408e-12
-1.26885e-11
-1.09348e-11
1.24957e-11
-1.2445e-11
-1.11068e-11
6.90392e-11
-1.15114e-11
-3.28793e-12
-5.35632e-11
-2.19405e-11
-6.33187e-12
-3.89819e-11
-1.89649e-11
-8.20158e-12
-3.93542e-11
-1.7812e-11
-8.67225e-12
-3.17107e-11
-1.59072e-11
-8.27611e-12
-2.8437e-11
-1.49994e-11
-6.99792e-12
-2.43179e-11
-1.43133e-11
-3.9166e-12
-2.15772e-11
-1.39633e-11
1.3926e-12
-2.01115e-11
-1.3285e-11
7.95573e-12
-1.7664e-11
-1.26663e-11
7.93802e-11
-1.24325e-11
-2.78719e-12
-6.52241e-11
-2.21339e-11
-3.14091e-12
-5.30562e-11
-1.7855e-11
-3.98544e-12
-5.121e-11
-1.6214e-11
-3.85282e-12
-4.39904e-11
-1.46506e-11
-4.0259e-12
-3.89541e-11
-1.43367e-11
-3.19639e-12
-3.34782e-11
-1.42513e-11
-1.01035e-12
-2.87763e-11
-1.40043e-11
2.84772e-12
-2.5437e-11
-1.33439e-11
7.53681e-12
-2.12887e-11
-1.25982e-11
8.87618e-11
-1.19521e-11
7.13241e-13
-6.48288e-11
-1.7617e-11
2.28108e-12
-5.64299e-11
-1.40314e-11
1.6753e-12
-5.33956e-11
-1.29166e-11
1.66059e-12
-4.78022e-11
-1.24443e-11
1.19563e-12
-4.24495e-11
-1.24432e-11
1.3288e-12
-3.68116e-11
-1.23799e-11
2.23769e-12
-3.16882e-11
-1.20476e-11
4.41883e-12
-2.83634e-11
-1.14101e-11
6.40686e-12
-2.36214e-11
-1.07653e-11
9.53149e-11
-1.00042e-11
7.7567e-12
-5.51943e-11
-1.04329e-11
8.02739e-12
-5.05464e-11
-9.91894e-12
6.98376e-12
-4.87085e-11
-1.0851e-11
6.1427e-12
-4.53165e-11
-1.09192e-11
5.66205e-12
-4.12911e-11
-1.09411e-11
5.60552e-12
-3.66869e-11
-1.05031e-11
5.81014e-12
-3.21622e-11
-9.91877e-12
5.58679e-12
-2.89351e-11
-9.07356e-12
4.45953e-12
-2.41449e-11
-8.1799e-12
9.87725e-11
-7.50593e-12
9.4264e-12
-4.32609e-11
-2.63158e-12
9.58449e-12
-4.23221e-11
-4.32846e-12
9.90756e-12
-4.20918e-11
-5.63218e-12
1.03839e-11
-3.99126e-11
-6.16546e-12
1.06455e-11
-3.68178e-11
-6.37871e-12
1.04286e-11
-3.3072e-11
-6.2218e-12
9.34512e-12
-2.92672e-11
-5.85709e-12
6.88452e-12
-2.64487e-11
-5.33635e-12
3.05194e-12
-2.18161e-11
-4.93241e-12
1.01292e-10
-4.84975e-12
7.21872e-12
-3.55253e-11
3.25752e-12
9.69692e-12
-3.65037e-11
1.15715e-12
1.17274e-11
-3.52724e-11
-1.24051e-13
1.34689e-11
-3.27848e-11
-1.1884e-12
1.43914e-11
-2.91886e-11
-1.93911e-12
1.41371e-11
-2.51781e-11
-2.49812e-12
1.23013e-11
-2.13133e-11
-2.82788e-12
8.35418e-12
-1.82446e-11
-2.94326e-12
2.8115e-12
-1.37328e-11
-3.13819e-12
1.06633e-10
-3.51274e-12
7.4797e-12
-3.19412e-11
6.14353e-12
1.08453e-11
-3.08478e-11
3.84705e-12
1.40031e-11
-2.77072e-11
2.28838e-12
1.65453e-11
-2.32282e-11
8.3808e-13
1.79804e-11
-1.77951e-11
-4.31267e-13
1.78511e-11
-1.21616e-11
-1.58447e-12
1.54497e-11
-6.83357e-12
-2.49235e-12
1.04826e-11
-2.83317e-12
-3.11354e-12
3.37685e-12
1.91411e-12
-3.74641e-12
1.17576e-10
-4.10922e-12
1.03455e-11
6.7421e-12
-2.56544e-11
1.47034e-11
4.009e-12
-2.19571e-11
1.84971e-11
1.80528e-12
-1.64898e-11
2.14414e-11
-4.38767e-14
-9.48695e-12
2.322e-11
-1.95541e-12
-1.26934e-12
2.28426e-11
-3.21876e-12
7.0751e-12
1.93491e-11
-4.40666e-12
1.52817e-11
1.28289e-11
-5.40531e-12
2.05809e-11
3.89776e-12
-6.47475e-12
2.6471e-11
-6.48197e-12
1.35062e-10
1.81721e-14
-6.42024e-14
-6.13719e-14
3.11321e-14
2.76861e-14
-2.09793e-14
6.62899e-14
1.36192e-14
-3.75782e-14
7.44638e-14
3.99696e-14
-1.63274e-14
8.24001e-14
5.24526e-14
-1.37438e-14
7.7972e-14
6.88538e-14
-5.78085e-15
7.06659e-14
7.66959e-14
-1.0875e-15
7.19232e-14
7.18027e-14
3.18977e-15
6.94731e-14
7.39681e-14
7.98985e-15
1.36029e-13
1.49167e-14
-1.55302e-13
-9.44126e-15
2.23882e-14
-1.67301e-13
8.14158e-14
1.22624e-14
-1.74361e-13
6.40765e-14
1.18838e-14
-1.6858e-13
9.18488e-14
7.76942e-15
-1.6008e-13
1.10247e-13
7.58575e-15
-1.38086e-13
1.22759e-13
6.36202e-15
-1.04453e-13
1.27604e-13
4.98837e-15
-6.58804e-14
1.24776e-13
3.62586e-15
-1.5518e-14
1.20093e-13
4.61157e-15
2.00884e-13
2.65385e-15
-1.55305e-13
3.6405e-15
3.55195e-14
-1.41731e-13
7.69362e-14
6.01522e-15
-1.6475e-13
9.31268e-14
1.34714e-14
-1.60109e-13
1.19441e-13
1.40734e-14
-1.54524e-13
1.48689e-13
1.91973e-14
-1.36431e-13
1.64024e-13
2.03276e-14
-1.13358e-13
1.75002e-13
2.54055e-14
-8.65894e-14
1.78555e-13
3.15967e-14
-6.07134e-14
1.81573e-13
3.65092e-14
2.12202e-13
2.85068e-14
-1.52244e-13
-9.58098e-14
5.07176e-14
-1.42814e-13
2.93538e-14
-1.13109e-14
-1.79817e-13
9.49032e-14
-5.79519e-15
-1.78358e-13
1.22013e-13
-4.79597e-15
-1.5982e-13
1.53027e-13
3.9165e-15
-1.34801e-13
1.85091e-13
1.47481e-14
-1.12567e-13
2.16142e-13
2.26744e-14
-1.01878e-13
2.4277e-13
3.28276e-14
-1.0374e-13
2.65541e-13
3.08343e-14
1.76133e-13
4.09667e-14
-1.28939e-13
-3.83118e-13
2.43692e-14
-9.85846e-14
-7.35347e-14
-2.50712e-14
-1.54047e-13
8.37441e-14
-2.43156e-14
-1.41479e-13
8.7228e-14
-7.31161e-15
-1.31072e-13
1.42246e-13
1.02333e-14
-1.11201e-13
1.94501e-13
2.4568e-14
-8.96712e-14
2.43657e-13
3.77881e-14
-7.75858e-14
2.95153e-13
4.53113e-14
-7.89104e-14
3.32847e-13
6.17579e-14
1.52479e-13
4.02572e-14
-1.29037e-13
-8.1379e-13
1.12293e-14
1.07581e-14
-2.90222e-13
-1.66521e-14
-1.23026e-13
1.50951e-13
-3.18394e-14
-1.19377e-13
5.13038e-14
-7.13875e-15
-1.03761e-13
1.14471e-13
5.05894e-15
-8.03435e-14
1.81598e-13
1.96617e-14
-5.69969e-14
2.45428e-13
2.81476e-14
-4.3154e-14
3.14595e-13
3.93351e-14
-3.31325e-14
3.6136e-13
4.00502e-14
1.43718e-13
4.17879e-14
-9.26763e-14
-1.81397e-12
6.14079e-14
3.89547e-13
-7.81291e-13
-1.20348e-14
8.82924e-14
4.54705e-13
-4.39594e-14
2.9668e-14
1.11693e-13
-1.01302e-14
3.76569e-14
1.15706e-13
-4.20097e-15
4.14429e-14
1.90557e-13
5.57502e-15
3.55585e-14
2.62018e-13
1.46214e-14
4.01133e-14
3.19229e-13
1.93486e-14
5.36796e-14
3.44457e-13
2.49738e-14
1.82187e-13
2.05947e-14
-1.47138e-13
4.1655e-13
-3.89025e-13
-9.88608e-13
1.65694e-13
1.63052e-13
-5.13246e-13
-3.22544e-14
3.32526e-15
-5.43422e-13
1.61521e-13
6.3417e-14
-3.58025e-13
-6.03179e-14
8.03108e-14
-3.27089e-13
1.60793e-13
8.27515e-14
-2.52858e-13
1.8528e-13
8.32526e-14
-1.38739e-13
1.98595e-13
8.23523e-14
9.33863e-15
1.8686e-13
7.45074e-14
1.84192e-13
8.10422e-14
1.82446e-11
-4.73415e-11
2.83774e-11
3.17786e-11
-1.37603e-11
2.12326e-11
1.60038e-11
1.87083e-11
1.02564e-11
9.59531e-12
8.19824e-12
5.91886e-12
5.99363e-12
7.18136e-12
4.3048e-12
6.72531e-12
4.09819e-12
4.04617e-12
8.85913e-12
3.10758e-12
4.89479e-12
1.14869e-11
2.46671e-12
5.65559e-12
1.4879e-11
1.13238e-12
6.19183e-12
1.63344e-11
5.54211e-12
-1.26972e-11
-4.1974e-11
-1.80446e-11
-2.60105e-11
-1.08452e-11
-7.44166e-12
-1.80995e-11
7.79464e-12
-6.98373e-12
-1.70255e-11
6.32511e-12
-4.98325e-12
-1.12509e-11
3.12963e-12
-4.02456e-12
-6.0462e-12
1.92888e-12
-2.73658e-12
8.99519e-13
-2.77426e-13
-1.65832e-12
9.78692e-12
-2.7207e-12
-7.97415e-13
1.92096e-11
-4.72601e-12
-5.54532e-13
3.61786e-11
-2.23185e-12
-1.54221e-12
-3.46393e-11
-1.65032e-11
-1.89786e-11
-8.9614e-12
-1.24898e-11
-9.69438e-12
-1.17509e-11
-1.04465e-11
-8.17514e-12
-4.01549e-12
-8.60291e-12
-5.66724e-12
-5.18026e-12
-8.3147e-12
-2.43136e-12
-5.09112e-12
-6.9744e-12
1.72277e-12
-6.15266e-12
-5.71508e-12
7.51149e-12
-8.32075e-12
-4.68954e-12
1.44654e-11
-9.64482e-12
-4.35808e-12
5.15836e-11
-5.53993e-12
-9.51852e-12
-4.2151e-11
-1.64301e-11
-1.21831e-11
-2.51538e-11
-1.13365e-11
-1.28783e-11
-2.65478e-11
-1.16363e-11
-1.17242e-11
-1.9159e-11
-1.0122e-11
-9.90864e-12
-1.8131e-11
-9.47564e-12
-7.11031e-12
-1.60763e-11
-8.6578e-12
-2.39697e-12
-1.56882e-11
-8.16993e-12
4.46022e-12
-1.63714e-11
-7.94718e-12
1.24601e-11
-1.58801e-11
-7.79766e-12
6.61888e-11
-8.858e-12
-2.6759e-12
-5.59185e-11
-2.10878e-11
-5.19514e-12
-4.11137e-11
-1.73505e-11
-6.67139e-12
-4.16529e-11
-1.70923e-11
-7.39398e-12
-3.40662e-11
-1.4657e-11
-7.67723e-12
-3.07968e-11
-1.39096e-11
-6.34123e-12
-2.68458e-11
-1.29976e-11
-3.33841e-12
-2.39322e-11
-1.22691e-11
2.03757e-12
-2.22856e-11
-1.17335e-11
8.62023e-12
-1.96024e-11
-1.09731e-11
7.80775e-11
-1.10702e-11
-1.25625e-12
-6.44226e-11
-2.13308e-11
-1.23421e-12
-5.23544e-11
-1.72509e-11
-2.87439e-12
-5.09658e-11
-1.61347e-11
-3.10354e-12
-4.41779e-11
-1.47142e-11
-3.5847e-12
-3.92684e-11
-1.40765e-11
-2.81617e-12
-3.39788e-11
-1.36638e-11
-5.15057e-13
-2.92451e-11
-1.3212e-11
3.42968e-12
-2.58495e-11
-1.26001e-11
8.05918e-12
-2.16712e-11
-1.17411e-11
8.86738e-11
-1.1396e-11
3.32121e-12
-6.08739e-11
-1.74211e-11
4.01763e-12
-5.33762e-11
-1.43704e-11
2.47912e-12
-5.13636e-11
-1.32863e-11
1.91557e-12
-4.66316e-11
-1.25378e-11
1.29187e-12
-4.16217e-11
-1.23691e-11
1.53558e-12
-3.63215e-11
-1.22233e-11
2.61026e-12
-3.12433e-11
-1.18461e-11
4.8092e-12
-2.79621e-11
-1.1262e-11
6.69391e-12
-2.32518e-11
-1.04884e-11
9.56197e-11
-1.0168e-11
8.45405e-12
-4.98874e-11
-9.18452e-12
8.25429e-12
-4.7268e-11
-8.81438e-12
6.73292e-12
-4.65886e-11
-9.37978e-12
6.03027e-12
-4.39581e-11
-9.83548e-12
5.85022e-12
-4.05245e-11
-1.00146e-11
6.11449e-12
-3.63778e-11
-9.9149e-12
6.3997e-12
-3.21507e-11
-9.61179e-12
6.08062e-12
-2.917e-11
-9.10066e-12
4.7298e-12
-2.45036e-11
-8.3276e-12
9.82936e-11
-8.19627e-12
8.61176e-12
-3.9427e-11
-3.56086e-13
8.79953e-12
-4.02633e-11
-2.57817e-12
9.02452e-12
-4.0939e-11
-4.12748e-12
9.69493e-12
-3.96376e-11
-5.21654e-12
1.03842e-11
-3.70862e-11
-6.13295e-12
1.05511e-11
-3.3725e-11
-6.54878e-12
9.65078e-12
-3.02489e-11
-6.56325e-12
7.22883e-12
-2.77216e-11
-6.34826e-12
3.27575e-12
-2.33694e-11
-5.96173e-12
9.96299e-11
-6.19999e-12
5.06572e-12
-3.5416e-11
5.95959e-12
7.61979e-12
-3.69626e-11
2.2648e-12
9.94041e-12
-3.6355e-11
8.26947e-14
1.21347e-11
-3.41789e-11
-1.85869e-12
1.36254e-11
-3.0933e-11
-3.18946e-12
1.39157e-11
-2.72511e-11
-4.10301e-12
1.23809e-11
-2.36878e-11
-4.60446e-12
8.50585e-12
-2.09905e-11
-4.83964e-12
2.90818e-12
-1.69447e-11
-4.9784e-12
1.03666e-10
-5.34919e-12
4.5266e-12
-3.62691e-11
7.67843e-12
8.32376e-12
-3.50933e-11
4.10359e-12
1.19555e-11
-3.16329e-11
1.44864e-12
1.50645e-11
-2.68143e-11
-7.17176e-13
1.7082e-11
-2.11397e-11
-2.39476e-12
1.73953e-11
-1.56889e-11
-3.6143e-12
1.5173e-11
-1.06876e-11
-4.57922e-12
1.02173e-11
-7.1316e-12
-5.29823e-12
3.13588e-12
-2.7747e-12
-5.98772e-12
1.13152e-10
-6.35892e-12
7.40468e-12
5.44924e-12
-3.37485e-11
1.21717e-11
2.15486e-12
-2.96788e-11
1.6627e-11
-6.27771e-13
-2.34517e-11
2.01102e-11
-2.65598e-12
-1.52742e-11
2.21973e-11
-4.22531e-12
-6.72801e-12
2.19143e-11
-5.59236e-12
1.8452e-12
1.86328e-11
-6.81727e-12
9.14442e-12
1.20458e-11
-8.17223e-12
1.48165e-11
3.50508e-12
-9.35443e-12
1.99737e-11
-9.35985e-12
1.29139e-10
4.02411e-14
-1.32438e-13
-2.8498e-14
5.36027e-14
1.05836e-14
-8.33537e-15
7.42196e-14
1.37533e-14
-2.95549e-14
8.42352e-14
3.20917e-14
-1.02994e-14
8.82301e-14
4.95202e-14
-1.3262e-14
8.38771e-14
6.87681e-14
-1.04421e-14
7.56861e-14
8.0618e-14
-8.35659e-15
7.55186e-14
7.80151e-14
-4.82257e-15
7.28177e-14
8.2921e-14
1.01885e-15
1.40213e-13
9.09668e-15
-1.55511e-13
-9.58033e-14
9.77533e-15
-1.88814e-13
6.88149e-14
2.7619e-14
-1.72255e-13
5.05739e-14
6.70203e-15
-1.68333e-13
8.13009e-14
1.1235e-14
-1.59507e-13
1.06893e-13
6.6581e-15
-1.38238e-13
1.23903e-13
3.84044e-15
-1.03226e-13
1.31412e-13
1.1371e-15
-6.16056e-14
1.30534e-13
-1.75003e-15
-5.18707e-15
1.2637e-13
-1.88775e-15
2.09938e-13
-1.55773e-15
-1.56587e-13
-9.12996e-14
1.85574e-14
-1.47362e-13
5.72922e-14
2.19149e-14
-1.52507e-13
7.30473e-14
1.73582e-14
-1.53239e-13
1.09345e-13
1.64966e-14
-1.47446e-13
1.44496e-13
1.46304e-14
-1.31861e-13
1.64951e-13
1.18538e-14
-1.08727e-13
1.78978e-13
1.18453e-14
-8.16614e-14
1.84571e-13
1.53735e-14
-5.50994e-14
1.89419e-13
1.71866e-14
2.19311e-13
1.63468e-14
-1.61563e-13
-1.27127e-13
3.10702e-14
-1.47765e-13
1.11352e-14
8.39112e-15
-1.69658e-13
7.48389e-14
9.91991e-15
-1.68518e-13
1.06439e-13
2.09899e-15
-1.49808e-13
1.39052e-13
6.04103e-15
-1.27871e-13
1.7319e-13
1.0547e-14
-1.10036e-13
2.07558e-13
1.23717e-14
-1.00798e-13
2.3502e-13
1.7911e-14
-1.04665e-13
2.59319e-13
1.56715e-14
1.67728e-13
2.54685e-14
-1.27486e-13
-3.4481e-13
2.68873e-14
-9.27711e-14
-7.90904e-14
-2.96732e-16
-1.308e-13
6.6379e-14
3.54289e-16
-1.22787e-13
7.6605e-14
2.91602e-15
-1.11748e-13
1.26501e-13
1.10163e-14
-9.70152e-14
1.76547e-13
1.66572e-14
-7.80294e-14
2.23469e-13
2.31406e-14
-6.80197e-14
2.73198e-13
2.56304e-14
-6.30021e-14
3.14038e-13
3.6157e-14
1.40719e-13
2.91853e-14
-1.17472e-13
-7.05151e-13
2.3641e-14
8.71904e-15
-2.57602e-13
2.60587e-15
-1.04348e-13
1.293e-13
-6.13395e-15
-1.0345e-13
5.15594e-14
2.27336e-15
-9.02798e-14
1.05324e-13
8.2559e-15
-6.99354e-14
1.64538e-13
1.58908e-14
-5.01815e-14
2.22837e-13
2.15889e-14
-3.61502e-14
2.89021e-13
2.80256e-14
-2.99296e-14
3.4019e-13
2.98955e-14
1.37246e-13
3.06989e-14
-7.71831e-14
-1.63344e-12
2.05483e-14
3.64435e-13
-7.19868e-13
-1.08594e-14
9.41733e-14
3.72795e-13
-3.01141e-14
4.77724e-14
9.33239e-14
-1.11426e-14
4.87888e-14
1.07677e-13
-6.28727e-15
4.74378e-14
1.7692e-13
1.5868e-15
4.18894e-14
2.44413e-13
9.70158e-15
4.63658e-14
3.02882e-13
1.44067e-14
6.0125e-14
3.45529e-13
2.00959e-14
2.05796e-13
2.05091e-14
-1.53331e-13
1.4408e-13
-2.31493e-13
-9.25993e-13
7.35393e-14
1.43805e-13
-5.01028e-13
-1.09193e-13
6.78353e-14
-5.20939e-13
9.85501e-14
9.35851e-14
-3.5316e-13
-5.94832e-14
1.02497e-13
-3.26766e-13
1.57165e-13
1.03682e-13
-2.6017e-13
1.88724e-13
1.0141e-13
-1.50683e-13
2.06184e-13
9.73205e-14
-5.95753e-15
2.13006e-13
8.72195e-14
2.16664e-13
8.42295e-14
1.17363e-11
-3.60216e-11
2.18776e-11
2.29561e-11
-8.63687e-12
1.99145e-11
1.13683e-11
1.30206e-11
1.17539e-11
7.68021e-12
5.85168e-12
9.21441e-12
5.87697e-12
5.3121e-12
8.00611e-12
7.30773e-12
2.79603e-12
8.25317e-12
9.47848e-12
2.08616e-12
9.13231e-12
1.18705e-11
1.22233e-12
9.87287e-12
1.48828e-11
-7.93267e-14
1.01432e-11
1.56303e-11
9.20921e-12
-1.30516e-11
-3.5943e-11
-4.56532e-12
-2.07168e-11
-9.83493e-12
-1.15203e-12
-1.65229e-11
3.76576e-12
-1.59981e-12
-1.53409e-11
3.20272e-12
-3.61109e-13
-9.94305e-12
7.43265e-13
2.92267e-13
-4.79996e-12
-6.90827e-13
1.69673e-12
1.94396e-12
-3.14283e-12
3.03009e-12
1.01636e-11
-5.96981e-12
4.10284e-12
1.87144e-11
-7.73221e-12
4.21173e-12
3.33323e-11
1.87992e-12
-2.20673e-12
-3.4322e-11
-7.93169e-12
-1.63248e-11
-1.15697e-11
-6.0947e-12
-8.41726e-12
-1.51846e-11
-6.51575e-12
-6.98768e-12
-7.21025e-12
-4.4692e-12
-4.4324e-12
-8.80258e-12
-4.15974e-12
-1.57487e-12
-8.78501e-12
-2.67326e-12
2.27232e-12
-1.0076e-11
-1.62955e-12
7.80174e-12
-1.24737e-11
-7.32434e-13
1.4579e-11
-1.36068e-11
-4.62659e-13
4.84008e-11
-2.03802e-12
-9.51267e-12
-4.48449e-11
-1.18023e-11
-1.01986e-11
-2.76062e-11
-8.56907e-12
-1.1284e-11
-2.91971e-11
-8.93624e-12
-1.03217e-11
-2.17362e-11
-7.22207e-12
-9.02255e-12
-2.09555e-11
-6.97733e-12
-6.33643e-12
-1.91848e-11
-6.14475e-12
-1.62254e-12
-1.88897e-11
-5.40435e-12
4.97066e-12
-1.94646e-11
-4.8542e-12
1.28663e-11
-1.87245e-11
-4.51215e-12
6.40436e-11
-5.72554e-12
-1.37606e-12
-5.66197e-11
-1.76766e-11
-2.88215e-12
-4.17343e-11
-1.40182e-11
-5.43612e-12
-4.16971e-11
-1.39997e-11
-6.25866e-12
-3.48085e-11
-1.17368e-11
-6.79807e-12
-3.19293e-11
-1.10886e-11
-5.76286e-12
-2.80082e-11
-1.02023e-11
-2.64703e-12
-2.51987e-11
-9.45891e-12
2.65591e-12
-2.33844e-11
-8.94059e-12
9.29033e-12
-2.0525e-11
-8.2231e-12
7.76899e-11
-8.52249e-12
7.39342e-13
-6.03748e-11
-1.73111e-11
5.60745e-13
-4.9816e-11
-1.36014e-11
-1.62918e-12
-4.85049e-11
-1.29306e-11
-2.52217e-12
-4.2666e-11
-1.18515e-11
-3.31729e-12
-3.81493e-11
-1.14881e-11
-2.45787e-12
-3.30441e-11
-1.10979e-11
4.86437e-14
-2.82548e-11
-1.08206e-11
4.1519e-12
-2.47651e-11
-1.03592e-11
8.85405e-12
-2.05635e-11
-9.52876e-12
8.99485e-11
-9.45086e-12
5.51938e-12
-5.32848e-11
-1.33148e-11
5.20096e-12
-4.83366e-11
-1.10143e-11
3.08269e-12
-4.69158e-11
-1.06412e-11
2.16108e-12
-4.29884e-11
-1.0387e-11
1.53464e-12
-3.86255e-11
-1.03546e-11
1.96634e-12
-3.36584e-11
-1.03427e-11
3.38632e-12
-2.87513e-11
-1.01142e-11
5.55647e-12
-2.52833e-11
-9.69515e-12
7.44959e-12
-2.09904e-11
-8.87511e-12
9.7707e-11
-8.95889e-12
8.85175e-12
-4.08619e-11
-5.48638e-12
7.8342e-12
-4.09356e-11
-5.87352e-12
6.34828e-12
-4.12808e-11
-6.61073e-12
5.82666e-12
-3.96411e-11
-7.37227e-12
5.92916e-12
-3.66861e-11
-7.95159e-12
6.47959e-12
-3.29095e-11
-8.25902e-12
6.95366e-12
-2.89797e-11
-8.28922e-12
6.79839e-12
-2.63018e-11
-8.00914e-12
5.36411e-12
-2.20711e-11
-7.524e-12
1.00278e-10
-7.68084e-12
7.42777e-12
-3.28331e-11
2.18485e-12
7.17827e-12
-3.51414e-11
-3.62062e-13
7.68316e-12
-3.66154e-11
-2.33858e-12
8.75253e-12
-3.59241e-11
-3.82577e-12
9.85678e-12
-3.39075e-11
-4.98816e-12
1.05225e-11
-3.10711e-11
-5.78562e-12
9.97393e-12
-2.80449e-11
-6.04313e-12
7.5485e-12
-2.59224e-11
-6.01423e-12
3.59877e-12
-2.23381e-11
-5.63072e-12
1.00511e-10
-6.19608e-12
2.46822e-12
-3.32163e-11
6.61426e-12
5.16146e-12
-3.49485e-11
2.68402e-12
7.99684e-12
-3.48163e-11
3.69915e-13
1.06933e-11
-3.28289e-11
-1.6772e-12
1.27064e-11
-2.99007e-11
-3.05257e-12
1.34365e-11
-2.6637e-11
-4.01244e-12
1.21566e-11
-2.35532e-11
-4.51456e-12
8.37812e-12
-2.14273e-11
-4.76784e-12
2.70839e-12
-1.79534e-11
-4.99949e-12
1.02733e-10
-5.51063e-12
1.26377e-12
-3.88144e-11
6.20009e-12
5.58556e-12
-3.66996e-11
2.98335e-12
9.85182e-12
-3.3354e-11
4.59561e-13
1.32981e-11
-2.83737e-11
-1.11277e-12
1.58249e-11
-2.28088e-11
-2.69161e-12
1.6367e-11
-1.73726e-11
-3.68552e-12
1.42539e-11
-1.28074e-11
-4.53505e-12
9.50622e-12
-9.97626e-12
-5.24514e-12
2.60365e-12
-5.91588e-12
-5.97143e-12
1.10288e-10
-6.36963e-12
3.97989e-12
2.18105e-12
-4.05533e-11
9.50662e-12
-6.71723e-13
-3.5283e-11
1.46947e-11
-2.37835e-12
-2.9357e-11
1.86229e-11
-3.78049e-12
-2.03994e-11
2.0843e-11
-4.74409e-12
-1.11782e-11
2.0517e-11
-5.72331e-12
-2.47718e-12
1.72125e-11
-6.8113e-12
4.62491e-12
1.09537e-11
-8.01268e-12
9.35126e-12
2.82972e-12
-9.07289e-12
1.47489e-11
-9.19606e-12
1.24432e-10
3.78785e-14
-1.1565e-13
1.39515e-14
6.57389e-14
-1.07524e-14
7.40038e-15
7.31675e-14
1.29598e-14
-1.07468e-14
8.66424e-14
2.32913e-14
-1.13263e-15
9.03893e-14
4.46063e-14
-8.58363e-15
8.77156e-14
6.15305e-14
-9.15708e-15
8.14004e-14
7.44532e-14
-9.62627e-15
8.10114e-14
7.54695e-14
-7.22896e-15
8.06095e-14
8.08636e-14
-2.57749e-15