/*--------------------------------*- C++ -*----------------------------------*\
| =========                 |                                                 |
| \\      /  F ield         | OpenFOAM: The Open Source CFD Toolbox           |
|  \\    /   O peration     | Version:  2312                                  |
|   \\  /    A nd           | Website:  www.openfoam.com                      |
|    \\/     M anipulation  |                                                 |
\*---------------------------------------------------------------------------*/
FoamFile
{
    version     2.0;
    format      ascii;
    arch        "LSB;label=32;scalar=64";
    class       volScalarField;
    location    "0.04";
    object      alpha.water;
}
// * * * * * * * * * * * * * * * * * * * * * * * * * * * * * * * * * * * * * //

dimensions      [0 0 0 0 0 0 0];

internalField   nonuniform List<scalar> 
8000
(
1
1
1
1
1
1
1
1
1
1
1
1
1
1
1
1
1
1
1
1
1
1
1
1
1
1
1
1
1
1
1
1
1
1
1
1
1
1
1
1
1
1
1
1
1
1
1
1
1
1
1
1
1
1
1
1
1
1
1
1
1
1
1
1
1
1
1
1
1
1
1
1
1
1
1
1
1
1
1
1
3.2643e-08
2.16466e-08
2.10495e-08
2.669e-08
2.70918e-08
3.73326e-08
9.35528e-09
1.02891e-07
9.17077e-08
7.95758e-08
6.27104e-21
1.85777e-21
1.66884e-21
1.89818e-21
1.65042e-21
-3.10788e-32
8.91939e-29
1.42703e-26
5.4387e-21
2.68928e-26
1.47583e-26
2.32189e-27
1.98758e-27
3.94816e-35
0
-5.1913e-35
7.76921e-30
2.02169e-26
1.14908e-27
2.93386e-27
1.86801e-29
2.94668e-30
2.81993e-30
3.29246e-30
3.19849e-30
4.38595e-30
3.20323e-30
2.22859e-32
2.53363e-29
4.80448e-29
3.47584e-35
6.11891e-36
7.55758e-36
1.53761e-35
8.59287e-36
1.68063e-35
1.14599e-35
5.94358e-39
2.51616e-35
4.15557e-35
7.58248e-41
3.6553e-42
3.16083e-42
3.31153e-42
2.95078e-42
3.63178e-42
3.09268e-42
4.89619e-45
1.38157e-41
2.9109e-41
1.89426e-46
5.00653e-48
4.25734e-48
4.33591e-48
3.80171e-48
4.4413e-48
4.03734e-48
4.95464e-51
1.14279e-47
2.34316e-47
5.07656e-52
7.57041e-54
6.4154e-54
6.45547e-54
5.64451e-54
6.40516e-54
6.25815e-54
5.45001e-57
1.14705e-53
2.3505e-53
1.489e-57
1.28422e-59
1.08612e-59
1.08803e-59
9.60794e-60
1.07275e-59
1.11875e-59
6.42556e-63
1.34925e-59
2.83322e-59
4.74421e-63
2.403e-65
2.03392e-65
2.0408e-65
1.8286e-65
2.02049e-65
2.22516e-65
7.92997e-69
1.73149e-65
3.75898e-65
1.60762e-68
4.97587e-71
4.13632e-71
4.14715e-71
3.77337e-71
4.15895e-71
4.8012e-71
1.10273e-74
2.33035e-71
5.15775e-71
5.86809e-74
1.14648e-76
9.11291e-77
9.02797e-77
8.23851e-77
9.10923e-77
1.09598e-76
1.70695e-80
3.25359e-77
7.18754e-77
1
1
1
1
1
1
1
1
1
1
1
1
1
1
1
1
1
1
1
1
1
1
1
1
1
1
1
1
1
1
1
1
1
1
1
1
1
1
1
1
1
1
1
1
1
1
1
1
1
1
1
1
1
1
1
1
1
1
1
1
1
1
1
1
1
1
1
1
1
1
1
1
1
1
1
1
1
1
1
1
2.11262e-08
2.37272e-08
2.35481e-08
2.55792e-08
2.65826e-08
4.30862e-08
2.5582e-08
6.19163e-08
3.50477e-08
5.76839e-08
1.78972e-21
9.38513e-23
3.5089e-23
1.6829e-31
1.95649e-44
-2.09988e-32
1.91324e-44
1.076e-56
1.10992e-44
1.81754e-28
2.20945e-27
1.33701e-29
3.93461e-35
-4.56152e-51
-1.38813e-37
-3.49065e-31
-6.67298e-31
-3.07942e-62
2.88943e-40
8.95567e-34
2.78232e-30
9.99864e-33
1.50842e-33
5.2305e-34
1.57729e-34
7.28132e-39
9.63209e-39
2.12001e-38
1.26482e-33
3.51806e-30
1.01663e-35
1.01629e-39
1.18881e-40
6.35613e-41
1.65018e-41
4.98705e-45
1.57354e-45
5.59232e-46
3.04065e-41
5.04812e-38
3.42778e-42
7.47473e-47
1.4643e-47
1.12858e-47
2.67485e-48
2.29573e-52
3.91166e-53
1.26819e-55
4.33562e-52
5.41118e-47
4.6537e-48
5.5019e-54
3.69595e-54
2.82569e-54
6.38569e-55
4.22545e-59
6.39057e-60
3.58827e-63
4.74938e-58
9.00504e-53
7.01959e-54
1.16757e-60
1.31571e-60
1.03921e-60
2.74056e-61
4.7401e-62
1.68264e-66
8.01745e-70
4.08206e-63
1.29596e-58
1.19163e-59
1.03833e-66
4.97452e-66
6.93676e-66
5.68168e-66
6.60331e-66
1.82993e-65
1.49034e-70
9.79357e-66
1.61071e-64
2.23774e-65
8.81866e-70
3.15206e-70
5.54108e-71
4.88784e-71
7.21453e-71
1.35076e-70
6.30818e-76
1.18948e-71
7.80287e-71
4.62272e-71
2.76357e-75
6.4528e-76
3.10398e-76
5.9796e-77
1.1372e-76
2.31648e-76
1.07925e-81
2.27125e-77
1.31887e-76
1.0556e-76
1.05632e-81
5.63484e-82
1.36805e-81
2.1339e-81
3.02375e-81
4.53511e-81
3.42741e-87
7.59026e-83
4.78546e-82
1
1
1
1
1
1
1
1
1
1
1
1
1
1
1
1
1
1
1
1
1
1
1
1
1
1
1
1
1
1
1
1
1
1
1
1
1
1
1
1
1
1
1
1
1
1
1
1
1
1
1
1
1
1
1
1
1
1
1
1
1
1
1
1
1
1
1
1
1
1
1
1
1
1
1
1
1
1
1
1
2.03398e-08
2.41571e-08
2.40954e-08
2.44459e-08
2.35407e-08
3.52069e-08
2.48977e-08
3.62516e-08
2.46027e-08
4.02778e-08
1.5258e-21
3.60137e-23
1.6829e-31
-1.68188e-31
3.28692e-34
-4.33449e-39
-1.42873e-76
4.98973e-41
6.54816e-35
-1.34618e-30
1.78456e-27
3.79892e-34
2.21918e-34
8.08986e-42
-1.00674e-38
-2.2966e-32
-6.84434e-31
1.74008e-56
5.00679e-41
8.57261e-35
2.41384e-30
1.80154e-33
9.80024e-34
8.55296e-34
3.56757e-34
8.69981e-35
3.05326e-35
2.57917e-38
4.28474e-34
7.60396e-31
8.61424e-36
1.45117e-40
1.32168e-40
1.11927e-40
4.08113e-41
7.34852e-42
1.85348e-42
7.74045e-46
1.92316e-41
3.59052e-38
2.72287e-42
1.95867e-47
2.47056e-47
2.06369e-47
6.91558e-48
1.0547e-48
1.45243e-49
1.26113e-55
2.79279e-51
3.76677e-47
3.63279e-48
5.03668e-54
6.51314e-54
5.41441e-54
1.72992e-54
2.4275e-55
2.80687e-56
6.74977e-63
2.71246e-58
1.31276e-54
5.48186e-54
1.81708e-60
2.3447e-60
1.96097e-60
6.13925e-61
8.22794e-62
8.68051e-63
1.49734e-69
5.40898e-65
1.10882e-61
9.3599e-60
7.0473e-66
1.03376e-66
8.93928e-67
2.85296e-67
3.78232e-68
3.83841e-69
5.86598e-76
1.98614e-71
3.77635e-68
1.76652e-65
4.6163e-70
5.64989e-73
5.05989e-73
1.64533e-73
2.24172e-74
2.27168e-75
3.37443e-82
1.18223e-77
2.09341e-74
3.58295e-71
8.71591e-76
3.69055e-79
3.3882e-79
1.1226e-79
1.5874e-80
1.64651e-81
2.36462e-88
8.87641e-84
1.5969e-80
7.81632e-77
3.70604e-83
2.62027e-85
2.47379e-85
8.48615e-86
1.25055e-86
1.3485e-87
1.92356e-94
6.61539e-90
1.4572e-86
1
1
1
1
1
1
1
1
1
1
1
1
1
1
1
1
1
1
1
1
1
1
1
1
1
1
1
1
1
1
1
1
1
1
1
1
1
1
1
1
1
1
1
1
1
1
1
1
1
1
1
1
1
1
1
1
1
1
1
1
1
1
1
1
1
1
1
1
1
1
1
1
1
1
1
1
1
1
1
1
2.42127e-08
2.4105e-08
2.28983e-08
2.27563e-08
2.09787e-08
2.79489e-08
2.02933e-08
2.78196e-08
3.57949e-08
3.50656e-08
1.55864e-21
-8.41452e-32
-3.93119e-47
-8.09337e-48
-1.13071e-65
-1.58001e-89
-1.53696e-94
1.63238e-40
1.39309e-34
3.39946e-29
6.94137e-34
6.28878e-34
3.78868e-34
2.21918e-34
3.7886e-34
-4.77061e-38
-4.35503e-32
-6.95672e-56
1.63301e-40
1.39272e-34
2.43551e-30
7.59612e-34
9.63704e-34
7.81934e-34
3.79089e-34
9.2165e-35
1.75437e-35
2.91923e-38
1.58936e-34
1.60723e-31
1.18728e-35
1.07867e-40
1.37106e-40
1.05328e-40
4.51518e-41
8.32387e-42
1.07725e-42
9.82328e-46
1.23872e-41
2.45781e-38
2.49368e-42
2.07596e-47
2.66285e-47
2.01952e-47
7.99367e-48
1.25972e-48
9.84173e-50
8.59979e-56
1.62315e-50
7.4365e-47
3.27233e-48
5.52344e-54
7.22654e-54
5.47565e-54
2.07181e-54
2.99907e-55
1.93681e-56
7.39763e-63
1.74424e-57
5.05412e-54
4.95832e-54
2.03221e-60
2.67165e-60
2.03703e-60
7.54338e-61
1.04529e-61
6.14037e-63
1.92067e-69
3.71553e-64
7.53312e-61
8.5789e-60
1.63939e-65
1.21782e-66
9.68648e-67
3.62471e-67
4.95103e-68
2.79607e-69
8.14245e-76
1.40791e-70
2.63041e-67
1.63861e-65
2.89381e-70
6.85065e-73
5.62729e-73
2.16495e-73
3.0069e-74
1.69437e-75
4.85655e-82
8.36015e-77
1.48433e-73
3.31795e-71
4.80486e-76
4.52993e-79
3.82367e-79
1.5148e-79
2.18015e-80
1.2574e-81
3.63579e-88
6.28889e-83
1.16526e-79
7.06904e-77
1.80818e-83
3.26229e-85
2.83944e-85
1.1738e-85
1.76344e-86
1.05854e-87
3.14889e-94
4.77249e-89
1.10377e-85
1
1
1
1
1
1
1
1
1
1
1
1
1
1
1
1
1
1
1
1
1
1
1
1
1
1
1
1
1
1
1
1
1
1
1
1
1
1
1
1
1
1
1
1
1
1
1
1
1
1
1
1
1
1
1
1
1
1
1
1
1
1
1
1
1
1
1
1
1
1
1
1
1
1
1
1
1
1
1
1
2.35947e-08
2.27069e-08
2.12674e-08
2.18201e-08
2.03136e-08
2.59061e-08
1.76621e-08
2.36085e-08
3.67317e-08
3.40246e-08
1.15691e-21
4.20726e-32
5.89994e-38
-1.59086e-65
-5.34484e-44
-1.54831e-37
-1.66388e-31
7.01469e-75
9.969e-29
1.25268e-28
6.10299e-34
5.91781e-34
5.91781e-34
5.91578e-34
9.79611e-38
-9.41207e-38
-7.3687e-32
-3.64921e-50
1.31947e-29
6.05077e-32
2.03105e-30
6.28598e-34
7.81449e-34
5.91469e-34
3.64534e-34
1.02029e-34
1.92122e-35
2.68254e-38
1.1569e-34
1.20695e-31
1.09326e-35
8.55784e-41
1.06003e-40
7.61999e-41
4.17584e-41
8.83782e-42
1.65548e-42
8.0388e-46
6.80698e-42
1.77047e-38
1.94816e-42
1.62246e-47
2.02129e-47
1.43785e-47
7.31025e-48
1.33017e-48
9.98013e-50
6.36104e-56
1.68401e-50
5.70963e-47
2.59933e-48
4.29587e-54
5.48031e-54
3.90128e-54
1.89775e-54
3.14894e-55
1.86303e-56
6.51647e-63
1.57441e-57
3.98177e-54
4.05927e-54
1.57793e-60
2.0376e-60
1.45847e-60
6.93397e-61
1.09611e-61
5.73375e-63
1.6571e-69
3.33193e-64
6.74384e-61
7.25316e-60
2.58858e-65
9.55394e-67
7.05185e-67
3.3693e-67
5.23288e-68
2.62672e-69
6.96482e-76
1.29642e-70
2.37275e-67
1.41974e-65
1.06062e-70
5.42881e-73
4.15682e-73
2.04809e-73
3.21375e-74
1.61029e-75
4.22547e-82
7.68598e-77
1.35214e-73
2.90834e-71
3.14225e-76
3.60844e-79
2.84916e-79
1.46137e-79
2.36501e-80
1.21442e-81
3.23022e-88
5.7772e-83
1.0803e-79
6.14469e-77
9.23961e-84
2.61563e-85
2.14865e-85
1.15331e-85
1.94918e-86
1.0422e-87
2.86058e-94
4.51334e-89
1.05194e-85
1
1
1
1
1
1
1
1
1
1
1
1
1
1
1
1
1
1
1
1
1
1
1
1
1
1
1
1
1
1
1
1
1
1
1
1
1
1
1
1
1
1
1
1
1
1
1
1
1
1
1
1
1
1
1
1
1
1
1
1
1
1
1
1
1
1
1
1
1
1
1
1
1
1
1
1
1
1
1
1
2.30234e-08
2.18021e-08
2.0663e-08
2.15623e-08
2.02767e-08
2.55136e-08
1.65561e-08
2.05615e-08
3.50338e-08
3.50549e-08
-1.4604e-32
-6.21902e-62
7.42222e-85
-4.92067e-84
-9.03761e-39
0
0
4.57007e-34
4.80087e-28
3.05146e-28
4.23097e-31
8.46286e-31
6.25755e-31
4.0608e-34
1.16505e-34
1.36169e-38
-1.06176e-38
3.06478e-34
3.91998e-28
2.38247e-29
2.06113e-30
5.31992e-34
7.16316e-34
4.81491e-34
2.7738e-34
7.67293e-35
6.09879e-36
1.75433e-38
1.11723e-34
1.07022e-31
1.01974e-35
5.83751e-41
7.73635e-41
5.05326e-41
2.737e-41
5.73635e-42
3.38456e-43
4.44583e-46
7.76839e-42
1.23219e-38
1.64996e-42
1.0518e-47
1.40529e-47
9.06393e-48
4.56635e-48
8.08618e-49
2.43785e-50
1.41109e-55
1.04731e-50
3.43463e-47
2.25613e-48
2.69842e-54
3.6921e-54
2.39978e-54
1.14906e-54
1.81165e-55
4.4473e-57
1.42664e-62
8.03146e-58
2.21561e-54
3.62092e-54
9.75944e-61
1.35587e-60
8.8459e-61
4.12136e-61
6.10034e-62
1.34806e-63
2.53125e-69
1.56001e-64
3.46703e-61
6.59541e-60
3.54368e-65
6.36719e-67
4.26475e-67
1.98954e-67
2.88385e-68
6.09531e-70
5.85338e-76
5.93938e-71
1.10152e-67
1.30308e-65
1.35075e-70
3.64817e-73
2.54451e-73
1.20956e-73
1.76809e-74
3.73064e-76
2.11584e-82
3.52078e-77
6.12514e-74
2.68292e-71
1.84447e-76
2.43325e-79
1.76494e-79
8.6982e-80
1.30931e-80
2.82959e-82
1.48745e-88
2.66687e-83
4.93096e-80
5.67282e-77
1.07145e-83
1.77768e-85
1.34449e-85
6.93e-86
1.09022e-86
2.45893e-88
1.34483e-94
2.15315e-89
4.88514e-86
1
1
1
1
1
1
1
1
1
1
1
1
1
1
1
1
1
1
1
1
1
1
1
1
1
1
1
1
1
1
1
1
1
1
1
1
1
1
1
1
1
1
1
1
1
1
1
1
1
1
1
1
1
1
1
1
1
1
1
1
1
1
1
1
1
1
1
1
1
1
1
1
1
1
1
1
1
1
1
1
2.1732e-08
2.08578e-08
2.0034e-08
2.07868e-08
1.94635e-08
2.4905e-08
1.62033e-08
1.92992e-08
3.42527e-08
3.67114e-08
-1.89357e-32
-4.88934e-31
-4.23728e-32
-2.75252e-37
-2.41745e-32
-3.34119e-39
0
1.13325e-33
1.09319e-27
2.84303e-28
2.57947e-31
6.63806e-31
7.90347e-34
-1.06905e-37
-1.02263e-37
-9.52047e-39
-1.28471e-143
9.74145e-34
1.15947e-27
1.81939e-29
1.73732e-30
5.86121e-34
7.90298e-34
5.73294e-34
2.60332e-34
4.65021e-35
3.58556e-39
6.59473e-39
2.08424e-34
1.69523e-31
9.84855e-36
4.97165e-41
8.31355e-41
7.58765e-41
3.63265e-41
3.12283e-42
6.85535e-47
1.9114e-46
2.15404e-41
2.34698e-38
1.48706e-42
7.27827e-48
9.69564e-48
6.40683e-48
2.38734e-48
2.82402e-49
7.4386e-56
1.35896e-55
4.75948e-51
1.56304e-47
2.09792e-48
1.77768e-54
2.43579e-54
1.61905e-54
5.62608e-55
5.83226e-56
4.68077e-63
2.13794e-62
3.69692e-58
1.35449e-54
3.44477e-54
6.2788e-61
8.66612e-61
5.78048e-61
1.94098e-61
1.86121e-62
1.1989e-69
5.13102e-69
5.86789e-65
2.18786e-61
6.32906e-60
4.43275e-65
3.99571e-67
2.73226e-67
9.16407e-68
8.54971e-69
5.34822e-76
1.14991e-75
1.88479e-71
4.45239e-68
1.24845e-65
1.60799e-70
2.27299e-73
1.61194e-73
5.50268e-74
5.16706e-75
2.88394e-82
1.67277e-82
8.71115e-78
1.56362e-74
2.56313e-71
1.13401e-76
1.50875e-79
1.11451e-79
3.94018e-80
3.81007e-81
2.00682e-88
3.26311e-89
6.2752e-84
1.13996e-80
5.42052e-77
1.54829e-83
1.10018e-85
8.4889e-86
3.14253e-86
3.18045e-87
1.56826e-94
2.97313e-95
5.16864e-90
1.13791e-86
1
1
1
1
1
1
1
1
1
1
1
1
1
1
1
1
1
1
1
1
1
1
1
1
1
1
1
1
1
1
1
1
1
1
1
1
1
1
1
1
1
1
1
1
1
1
1
1
1
1
1
1
1
1
1
1
1
1
1
1
1
1
1
1
1
1
1
1
1
1
1
1
1
1
1
1
1
1
1
1
2.05775e-08
2.00644e-08
1.92769e-08
1.97372e-08
1.84134e-08
2.40761e-08
1.57626e-08
1.84725e-08
3.37227e-08
3.71734e-08
-5.63971e-30
-3.21933e-25
-1.18597e-25
-8.16511e-31
-4.75437e-26
-1.64822e-32
-2.33584e-142
1.69814e-33
1.56095e-27
2.5908e-28
-7.34528e-32
-2.73129e-32
-1.48234e-32
-2.34116e-31
-1.92828e-31
-1.58282e-32
-1.33699e-37
1.63652e-33
1.77652e-27
-5.4565e-29
1.4639e-30
3.2584e-34
5.04785e-34
2.3904e-34
9.6503e-35
2.29024e-35
1.48454e-35
6.67387e-40
2.57241e-34
1.99303e-31
4.57845e-36
5.13121e-41
9.34218e-41
4.34257e-41
1.75147e-41
4.9262e-42
3.29642e-42
5.2595e-47
2.01859e-41
1.95481e-38
1.35344e-42
4.18346e-48
5.7395e-48
3.23783e-48
9.95818e-49
8.63077e-50
6.31904e-51
4.93453e-56
3.3768e-52
1.55369e-48
1.97866e-48
9.51317e-55
1.34394e-54
7.60125e-55
2.12971e-55
1.63572e-56
5.85882e-59
1.01487e-62
6.04454e-59
3.838e-55
3.29798e-54
3.21355e-61
4.55494e-61
2.58271e-61
6.90415e-62
4.94677e-63
1.8669e-65
2.54371e-69
9.67697e-66
8.75399e-62
6.06517e-60
4.43351e-65
2.02946e-67
1.18103e-67
3.14171e-68
2.16155e-69
5.89546e-72
5.51439e-76
2.20013e-72
1.27995e-68
1.1867e-65
1.7626e-70
1.1277e-73
6.8064e-74
1.84266e-74
1.27336e-75
1.11954e-78
7.78825e-83
2.78715e-79
9.41799e-76
2.41611e-71
1.13766e-76
7.36986e-80
4.63519e-80
1.30094e-80
9.24497e-82
2.79424e-89
1.04991e-90
1.33581e-90
2.67709e-87
5.09418e-77
1.9742e-83
5.30931e-86
3.49834e-86
1.03048e-86
7.68094e-88
2.23382e-95
9.54528e-97
1.07765e-96
2.64386e-93
1
1
1
1
1
1
1
1
1
1
1
1
1
1
1
1
1
1
1
1
1
1
1
1
1
1
1
1
1
1
1
1
1
1
1
1
1
1
1
1
1
1
1
1
1
1
1
1
1
1
1
1
1
1
1
1
1
1
1
1
1
1
1
1
1
1
1
1
1
1
1
1
1
1
1
1
1
1
1
1
2.01141e-08
1.94518e-08
1.86375e-08
1.89717e-08
1.77065e-08
2.34265e-08
1.53621e-08
1.79814e-08
3.34468e-08
3.6998e-08
-3.20256e-30
-5.47239e-31
-1.15112e-29
-2.04351e-24
-1.83728e-24
-3.61486e-26
-3.79918e-140
1.71365e-33
1.54204e-27
1.9417e-28
-2.80912e-29
-3.59939e-32
-8.07739e-31
-1.28174e-30
-2.97951e-31
-1.44811e-31
-6.8953e-32
1.67706e-33
1.77181e-27
1.90357e-29
1.27507e-30
1.4241e-34
1.82291e-34
1.2352e-34
9.39617e-35
7.45825e-35
6.7144e-35
2.28592e-41
1.49876e-34
1.18502e-31
3.28831e-36
2.15132e-41
2.79209e-41
1.96768e-41
1.60987e-41
2.01122e-41
3.26886e-41
6.83568e-48
1.1066e-42
1.27278e-39
1.24189e-42
1.60427e-48
1.99516e-48
8.18908e-49
1.94439e-49
3.81755e-51
5.56213e-49
4.36065e-55
4.48303e-52
1.79638e-48
1.82805e-48
3.31359e-55
4.25315e-55
1.73428e-55
3.65495e-56
4.02999e-58
9.69443e-57
1.06517e-61
9.7252e-59
5.41173e-55
3.04517e-54
1.0503e-61
1.35131e-61
5.51242e-62
1.09513e-62
1.4766e-64
3.9014e-64
2.58772e-68
1.68457e-65
1.46622e-61
5.57003e-60
3.55831e-65
5.74972e-68
2.40888e-68
4.74165e-69
5.54948e-71
1.30454e-70
6.59785e-77
3.45938e-72
2.23647e-68
1.07946e-65
1.67966e-70
3.08564e-74
1.34303e-74
2.6852e-75
1.40278e-77
2.45582e-77
5.7987e-84
3.17579e-79
9.44887e-76
2.17836e-71
1.1039e-76
1.96584e-80
8.91789e-81
1.84983e-81
1.0476e-84
7.5737e-91
4.02397e-94
5.96575e-106
1.32323e-96
4.57222e-77
2.34872e-83
1.38657e-86
6.59741e-87
1.4399e-87
7.80804e-91
6.50915e-97
3.62845e-100
5.96574e-106
1.30982e-102
1
1
1
1
1
1
1
1
1
1
1
1
1
1
1
1
1
1
1
1
1
1
1
1
1
1
1
1
1
1
1
1
1
1
1
1
1
1
1
1
1
1
1
1
1
1
1
1
1
1
1
1
1
1
1
1
1
1
1
1
1
1
1
1
1
1
1
1
1
1
1
1
1
1
1
1
1
1
1
1
1.97715e-08
1.88116e-08
1.79593e-08
1.84029e-08
1.72074e-08
2.29668e-08
1.49111e-08
1.76089e-08
3.32479e-08
3.67525e-08
-7.48962e-35
-1.27934e-29
-3.89501e-24
-4.80026e-24
-1.55027e-24
-1.23354e-25
-5.83874e-49
1.21724e-33
1.09264e-27
8.68408e-29
-2.38499e-29
-5.00098e-31
-1.23166e-30
-7.45148e-31
-1.45169e-31
1.60592e-31
-7.16573e-38
1.09737e-33
1.18843e-27
5.33057e-33
1.14257e-30
5.79813e-35
1.32957e-34
1.58042e-34
1.50111e-34
1.64357e-34
1.46118e-34
4.65649e-41
1.27851e-36
5.97969e-33
2.9923e-36
9.06849e-42
1.69213e-41
2.1702e-41
3.42028e-41
1.47386e-41
8.18144e-41
1.69515e-47
1.62129e-44
7.90053e-41
1.11644e-42
4.33666e-49
5.59553e-49
1.44916e-49
9.50045e-51
4.00834e-49
2.25035e-48
1.40564e-54
4.65823e-52
1.66169e-48
1.62569e-48
7.93266e-56
1.06099e-55
2.69553e-56
1.25217e-57
9.63393e-58
1.28741e-55
3.13104e-61
1.1301e-58
5.4842e-55
2.6871e-54
2.32007e-62
3.1152e-62
7.90864e-63
3.86304e-64
3.1315e-64
1.19163e-63
7.37407e-68
1.85972e-65
1.57303e-61
4.89402e-60
1.68517e-65
1.25158e-68
3.27381e-69
1.52949e-70
1.11219e-70
3.73492e-70
2.91306e-76
2.99554e-72
2.60908e-68
9.44628e-66
1.42109e-70
6.43271e-75
1.74949e-75
6.45743e-77
2.20931e-77
6.21769e-77
1.47475e-83
8.04617e-80
1.45699e-76
1.8992e-71
1.03412e-76
3.95871e-81
1.12294e-81
3.37603e-83
3.44836e-86
5.28871e-91
7.44499e-96
2.14497e-105
9.19996e-115
3.97456e-77
1.51872e-82
2.69986e-87
8.06546e-88
2.54937e-89
2.85256e-97
4.46135e-97
6.59796e-102
9.07331e-111
1.86198e-109
1
1
1
1
1
1
1
1
1
1
1
1
1
1
1
1
1
1
1
1
1
1
1
1
1
1
1
1
1
1
1
1
1
1
1
1
1
1
1
1
1
1
1
1
1
1
1
1
1
1
1
1
1
1
1
1
1
1
1
1
1
1
1
1
1
1
1
1
1
1
1
1
1
1
1
1
1
1
1
1
1.95761e-08
1.83556e-08
1.75331e-08
1.8313e-08
1.71074e-08
2.29217e-08
1.48285e-08
1.75906e-08
3.34365e-08
3.65697e-08
-1.81392e-31
-5.30747e-30
-1.55573e-24
-5.0169e-25
-2.95689e-30
-9.98845e-32
0
5.60298e-34
5.23035e-28
5.38529e-30
-1.09348e-33
-1.48179e-31
-3.36125e-31
1.9263e-31
3.56006e-31
3.42421e-31
2.97296e-34
3.4096e-34
4.33439e-28
4.07185e-33
1.03724e-30
9.01917e-36
8.13204e-35
1.52312e-34
1.81211e-34
1.85379e-34
1.73073e-34
5.79347e-41
1.05184e-36
4.66517e-33
2.609e-36
1.46228e-42
9.26723e-42
1.09376e-43
5.52256e-42
1.71313e-41
7.89789e-41
1.77127e-47
2.0612e-45
1.00904e-41
9.86122e-43
3.93217e-50
6.25272e-50
4.84471e-51
2.00152e-51
5.59041e-49
2.73412e-48
1.58308e-54
3.89937e-52
1.28423e-48
1.40068e-48
6.21976e-57
1.03044e-56
7.54193e-58
1.94949e-58
1.10405e-57
1.92621e-55
2.97927e-61
9.68009e-59
4.11316e-55
2.28205e-54
1.65324e-63
2.76527e-63
2.01334e-64
6.40346e-65
3.11943e-64
2.05151e-63
5.93596e-68
1.50417e-65
1.16294e-61
4.14304e-60
2.74068e-66
1.03863e-69
7.82593e-71
2.01835e-71
9.75108e-71
3.16616e-70
1.4872e-76
1.47361e-72
2.07039e-68
8.02142e-66
1.05811e-70
5.06796e-76
3.99599e-77
3.1299e-78
1.52162e-77
4.25413e-77
1.13789e-83
1.8527e-80
1.03199e-77
1.61755e-71
9.44086e-77
2.99437e-82
2.47608e-83
2.38658e-87
8.579e-87
5.38009e-97
2.30025e-110
2.46259e-109
9.53039e-116
3.3826e-77
2.80099e-82
1.97508e-88
1.72463e-89
9.70474e-97
6.85418e-103
3.38171e-103
1.45686e-109
1.86176e-112
1.70467e-112
1
1
1
1
1
1
1
1
1
1
1
1
1
1
1
1
1
1
1
1
1
1
1
1
1
1
1
1
1
1
1
1
1
1
1
1
1
1
1
1
1
1
1
1
1
1
1
1
1
1
1
1
1
1
1
1
1
1
1
1
1
1
1
1
1
1
1
1
1
1
1
1
1
1
1
1
1
1
1
1
1.96861e-08
1.83931e-08
1.75645e-08
1.86823e-08
1.74692e-08
2.3335e-08
1.51451e-08
1.78218e-08
3.38761e-08
3.6374e-08
-6.31881e-32
-2.47658e-31
-3.22749e-30
-1.03046e-30
-2.18852e-36
-8.90922e-54
3.15636e-38
8.77519e-35
9.81951e-29
6.05845e-30
-3.67013e-32
-3.34135e-32
-1.46936e-32
1.21417e-31
2.1409e-31
2.39673e-31
1.32101e-33
1.95191e-41
3.76574e-37
1.73503e-33
9.61359e-31
-7.5067e-39
2.30609e-36
6.36229e-35
1.07255e-34
1.15901e-34
1.21914e-34
4.55062e-41
7.53126e-37
3.46508e-33
2.64613e-36
-9.26754e-46
3.05208e-43
4.96848e-45
1.07617e-42
8.00652e-42
3.06223e-41
7.98215e-48
1.47456e-45
5.92067e-42
8.62111e-43
-2.11856e-53
5.77935e-54
7.65663e-53
5.17745e-52
3.22023e-50
1.13687e-48
7.01892e-55
2.67707e-52
8.31943e-49
1.18149e-48
1.70132e-63
1.41804e-61
1.62433e-60
3.64047e-59
2.88238e-58
6.5103e-56
9.22316e-62
6.12095e-59
2.33339e-55
1.88872e-54
3.65894e-70
3.34914e-68
6.07347e-68
8.24028e-66
7.00641e-65
4.89518e-64
1.35297e-68
9.46399e-66
6.02152e-62
3.41885e-60
2.56067e-67
6.39295e-75
3.2618e-75
1.93882e-72
1.76232e-71
7.53098e-71
3.00563e-76
4.03483e-73
1.12333e-68
6.66105e-66
7.09882e-71
8.77698e-81
1.32445e-82
1.93328e-79
1.91869e-78
6.99973e-78
1.91291e-84
4.56319e-81
1.37957e-77
1.35161e-71
8.3213e-77
1.16795e-86
1.17597e-90
1.90588e-96
4.25515e-92
3.50061e-106
2.30025e-110
1.53e-116
2.24732e-116
2.82629e-77
4.44122e-82
5.67874e-92
8.77831e-97
3.66276e-105
8.24417e-104
1.51861e-110
9.68934e-118
1.00801e-115
4.10252e-114
1
1
1
1
1
1
1
1
1
1
1
1
1
1
1
1
1
1
1
1
1
1
1
1
1
1
1
1
1
1
1
1
1
1
1
1
1
1
1
1
1
1
1
1
1
1
1
1
1
1
1
1
1
1
1
1
1
1
1
1
1
1
1
1
1
1
1
1
1
1
1
1
1
1
1
1
1
1
1
1
2.0323e-08
1.89436e-08
1.80727e-08
1.93305e-08
1.81402e-08
2.39918e-08
1.5432e-08
1.81414e-08
3.44028e-08
3.65912e-08
-2.94831e-30
-4.36864e-25
-1.08474e-31
-1.52539e-31
-7.8879e-32
1.11365e-54
9.21085e-39
1.9413e-41
1.44445e-35
-1.73998e-42
-5.28363e-30
-1.18115e-31
-1.04736e-32
-1.77678e-32
2.54358e-32
6.64392e-32
1.73852e-32
2.39788e-42
1.12616e-41
9.36062e-36
9.41236e-31
-2.8925e-38
-3.12757e-39
3.74112e-39
2.03857e-35
3.46263e-35
4.67748e-35
1.85465e-41
3.31226e-37
1.59758e-33
2.71034e-36
-4.94829e-45
-4.57232e-46
9.2707e-46
3.16783e-45
7.43535e-43
6.02466e-42
1.81835e-48
6.88907e-46
2.59571e-42
7.41504e-43
-2.57103e-52
-6.92735e-54
4.17583e-56
3.55509e-53
3.14032e-52
1.39889e-49
1.16029e-55
1.10278e-52
3.29599e-49
9.79092e-49
2.32742e-72
3.89535e-67
8.44412e-64
8.43361e-61
1.39227e-59
2.72129e-57
9.46933e-63
2.16134e-59
7.28181e-56
1.53391e-54
1.3452e-72
4.20121e-74
1.19467e-70
3.39723e-68
2.03305e-66
2.35528e-65
8.21824e-70
3.34411e-66
1.62962e-62
2.76528e-60
2.39098e-67
1.65251e-77
1.65548e-77
1.50453e-75
3.35356e-73
4.20007e-72
5.41549e-77
1.72941e-73
3.0583e-69
5.41685e-66
4.27788e-71
4.75212e-81
1.59158e-85
1.18311e-83
1.94798e-80
2.511e-79
7.33681e-86
2.44812e-82
9.808e-77
1.10518e-71
1.12344e-76
1.61887e-86
7.99425e-94
1.12727e-100
5.20795e-101
4.39294e-117
6.5896e-118
4.07709e-117
8.54209e-116
2.30919e-77
5.1989e-82
6.83728e-92
2.81934e-99
3.38274e-106
3.13748e-110
3.76739e-118
3.58553e-118
4.27084e-119
1.65484e-117
1
1
1
1
1
1
1
1
1
1
1
1
1
1
1
1
1
1
1
1
1
1
1
1
1
1
1
1
1
1
1
1
1
1
1
1
1
1
1
1
1
1
1
1
1
1
1
1
1
1
1
1
1
1
1
1
1
1
1
1
1
1
1
1
1
1
1
1
1
1
1
1
1
1
1
1
1
1
1
1
2.12712e-08
1.97768e-08
1.8802e-08
1.98948e-08
1.88839e-08
2.46421e-08
1.55972e-08
1.83488e-08
3.49436e-08
3.79338e-08
-1.22568e-29
-9.93347e-26
-3.26838e-25
-4.97214e-25
-2.90867e-25
-1.74886e-26
0
1.22447e-42
0
-1.96596e-36
-1.07717e-29
-2.99145e-32
-1.02752e-31
-1.56621e-31
-8.76256e-32
-9.32629e-33
1.75606e-33
2.39787e-42
1.19894e-42
9.78183e-42
8.94286e-31
-8.14353e-39
-2.55371e-38
-3.42571e-38
-1.71333e-38
9.17858e-37
5.0686e-36
2.37282e-42
7.92213e-38
6.97152e-35
2.40753e-36
-1.66755e-45
-4.07678e-45
-3.92365e-45
-1.49345e-45
1.62848e-43
3.24224e-43
9.75954e-50
2.38125e-46
7.47275e-43
6.22492e-43
-1.60296e-52
-2.07765e-52
-3.41896e-53
-2.72307e-53
8.14617e-54
3.66478e-53
4.0986e-57
2.74104e-53
7.72234e-50
8.01753e-49
-5.2404e-72
-1.31227e-68
-3.77534e-63
-6.49787e-61
1.67033e-61
1.13026e-60
3.53359e-65
4.03255e-60
1.23473e-56
1.23786e-54
9.98458e-73
-1.3854e-75
-3.92994e-70
-8.97357e-68
1.95971e-68
1.34826e-67
4.6234e-72
5.54332e-67
1.88306e-63
2.22099e-60
1.89774e-67
1.25764e-77
-2.28639e-77
-9.37434e-75
2.46775e-75
1.65274e-74
3.96983e-79
4.17791e-74
3.41825e-70
4.35721e-66
2.3939e-71
2.50309e-81
1.28467e-88
2.57872e-89
5.3961e-83
4.10799e-82
2.69975e-89
4.83348e-83
2.07493e-77
8.9023e-72
1.34002e-76
1.89131e-86
8.12854e-94
1.04061e-100
2.67867e-107
2.11391e-117
6.53402e-118
2.72715e-119
1.3672e-117
1.85263e-77
6.31795e-82
8.11598e-92
2.96338e-99
3.26642e-106
4.08711e-113
2.94825e-117
1.2795e-117
2.7271e-119
2.7271e-119
1
1
1
1
1
1
1
1
1
1
1
1
1
1
1
1
1
1
1
1
1
1
1
1
1
1
1
1
1
1
1
1
1
1
1
1
1
1
1
1
1
1
1
1
1
1
1
1
1
1
1
1
1
1
1
1
1
1
1
1
1
1
1
1
1
1
1
1
1
1
1
1
1
1
1
1
1
1
1
1
2.23223e-08
2.06265e-08
1.96476e-08
2.05085e-08
1.95915e-08
2.51445e-08
1.57658e-08
1.90785e-08
3.55803e-08
3.92849e-08
-3.26744e-30
-1.56755e-26
-6.4049e-26
-8.16775e-26
-6.92692e-26
-5.20892e-32
-5.79724e-30
0
2.16646e-29
-4.66729e-30
-5.88725e-30
-4.73472e-33
-2.01508e-32
-2.66403e-32
-2.14297e-32
4.17818e-37
7.87191e-33
2.61221e-43
1.03201e-41
-1.56811e-30
8.4121e-31
-1.25144e-39
-4.94253e-39
-5.86786e-39
-4.60934e-39
1.46013e-43
1.58243e-39
4.19734e-43
1.48192e-37
1.81207e-33
2.12131e-36
-2.66139e-46
-8.27184e-46
-7.20916e-46
-4.56582e-46
7.55393e-50
1.01269e-46
1.97785e-50
1.86715e-46
1.25878e-42
5.1353e-43
-3.37044e-53
-6.77382e-53
-2.56913e-53
-5.40065e-59
6.98921e-59
4.64042e-54
1.35628e-57
9.81862e-54
6.48378e-50
6.56446e-49
-2.61925e-61
-2.70217e-74
-7.32001e-69
-1.3216e-66
7.94086e-67
1.07247e-64
7.74641e-68
6.91917e-61
5.47151e-57
1.00843e-54
4.81209e-73
-1.63814e-81
-7.94359e-76
-1.90482e-73
1.72816e-74
5.14917e-72
3.00018e-75
6.81789e-68
1.60611e-64
1.80186e-60
9.01465e-68
5.34063e-78
-5.08132e-83
-2.19454e-80
1.83233e-82
3.8479e-79
2.04236e-82
5.22626e-75
2.40755e-71
3.52486e-66
1.45248e-71
1.51021e-81
6.65813e-89
1.33277e-95
4.19715e-91
1.92767e-90
3.62994e-93
4.38867e-84
1.88754e-78
7.17554e-72
1.5815e-76
2.09027e-86
7.9255e-94
9.44939e-101
7.91584e-106
1.46279e-105
6.23294e-107
9.32588e-108
6.39227e-99
1.48271e-77
6.25896e-82
7.49113e-92
2.4668e-99
2.57647e-106
5.38093e-111
1.13698e-110
3.77343e-111
2.75346e-115
4.61264e-114
1
1
1
1
1
1
1
1
1
1
1
1
1
1
1
1
1
1
1
1
1
1
1
1
1
1
1
1
1
1
1
1
1
1
1
1
1
1
1
1
1
1
1
1
1
1
1
1
1
1
1
1
1
1
1
1
1
1
1
1
1
1
1
1
1
1
1
1
1
1
1
1
1
1
1
1
1
1
1
1
2.31406e-08
2.11195e-08
2.0271e-08
2.08517e-08
1.9939e-08
2.5761e-08
1.61975e-08
2.07475e-08
3.49256e-08
3.79108e-08
-2.5585e-54
-5.33242e-32
-2.63057e-31
-2.91821e-31
-2.55709e-31
-1.07623e-37
0
1.95378e-34
2.55742e-28
6.6148e-29
-6.24296e-30
-9.51449e-37
-8.05336e-38
-9.56329e-38
-8.08929e-38
2.6012e-37
1.16721e-32
6.78473e-43
5.97401e-29
-1.84634e-29
6.8599e-31
-2.86944e-43
-1.79411e-44
-1.93747e-44
-1.59018e-44
2.8356e-44
2.2118e-39
7.24365e-43
1.67043e-37
4.01897e-33
3.64097e-36
-5.78517e-50
-2.8989e-51
-2.39832e-51
-1.67609e-51
6.88058e-52
1.79078e-46
3.97014e-50
1.0134e-46
1.54862e-42
4.2071e-43
-8.47681e-57
-2.87584e-58
-1.27734e-58
-1.49498e-59
4.47261e-60
1.30995e-54
3.90869e-58
1.93649e-55
5.83854e-50
5.35908e-49
-4.21727e-64
-2.16675e-66
-7.54696e-75
-1.47575e-72
6.38272e-75
5.02819e-72
6.68069e-73
4.63885e-66
1.51115e-60
8.24559e-55
3.02839e-75
1.26902e-83
-8.97056e-82
-2.29726e-79
1.42521e-82
1.79662e-79
2.67418e-81
1.97377e-74
1.60238e-70
1.46671e-60
4.3097e-70
3.45887e-80
1.50687e-87
-2.96501e-86
4.19602e-89
3.20847e-87
2.63553e-89
1.68598e-81
4.71023e-78
2.8506e-66
9.15431e-72
9.7191e-82
3.90413e-89
-5.90865e-96
1.49354e-94
6.18726e-94
3.65516e-95
2.01626e-90
4.97516e-85
5.75934e-72
1.35952e-76
1.62438e-86
6.1376e-94
1.98407e-99
2.28544e-99
4.10908e-99
1.72777e-100
4.81786e-100
6.352e-96
1.17989e-77
5.66573e-82
6.4175e-92
2.12856e-99
1.24685e-104
5.15437e-104
6.01032e-104
1.31073e-104
1.90118e-108
4.56941e-103
1
1
1
1
1
1
1
1
1
1
1
1
1
1
1
1
1
1
1
1
1
1
1
1
1
1
1
1
1
1
1
1
1
1
1
1
1
1
1
1
1
1
1
1
1
1
1
1
1
1
1
1
1
1
1
1
1
1
1
1
1
1
1
1
1
1
1
1
1
1
1
1
1
1
1
1
1
1
1
1
2.33567e-08
2.12901e-08
2.04652e-08
2.04544e-08
1.91848e-08
2.55546e-08
1.6337e-08
2.30232e-08
3.11333e-08
2.67542e-08
0
-1.07206e-37
-7.39034e-37
-4.20728e-32
-4.266e-37
0
4.05602e-34
4.04606e-34
5.36005e-28
6.93686e-28
-4.15679e-30
-3.67761e-42
-2.07879e-43
-1.00859e-38
-1.17399e-44
6.93022e-38
1.65131e-32
1.13949e-42
8.43751e-38
-2.2232e-30
5.14358e-31
-9.5471e-49
-4.09321e-50
-2.13943e-45
-3.51386e-51
1.23167e-44
3.31421e-39
1.33774e-42
1.68709e-37
2.44323e-33
3.23211e-36
-1.6168e-55
-6.00845e-57
-2.64073e-52
-9.17385e-58
8.20417e-52
2.20303e-46
5.34119e-50
1.70201e-47
8.22802e-43
3.46115e-43
-2.42714e-62
-6.44006e-64
-1.96578e-59
-3.40967e-65
6.24829e-64
1.85433e-58
5.15089e-63
6.76229e-56
2.14697e-50
4.41053e-49
-1.74149e-69
-1.79341e-71
-1.84661e-67
-1.16492e-78
6.05341e-81
4.58962e-79
3.52882e-78
5.9256e-75
1.15374e-69
6.77753e-55
1.32273e-73
1.04379e-81
7.55489e-87
1.46917e-82
7.47995e-78
6.19963e-77
3.53851e-78
1.5348e-81
3.5901e-78
1.19581e-60
2.997e-68
2.51325e-78
1.28092e-83
3.15463e-83
1.27928e-82
5.48802e-82
2.30178e-83
4.42669e-87
9.5991e-85
2.29856e-66
6.01042e-72
6.59169e-82
2.02795e-88
2.1094e-88
4.77224e-88
1.87541e-87
1.1806e-88
2.73056e-92
1.69095e-90
4.59234e-72
9.36424e-77
1.09842e-86
8.01958e-93
8.14678e-93
9.39575e-93
1.57906e-92
6.57353e-94
1.37174e-97
7.86467e-96
9.32109e-78
4.75913e-82
5.55897e-92
5.03681e-98
6.48031e-98
4.9533e-97
5.19184e-97
6.30759e-98
2.47516e-102
4.90184e-101
1
1
1
1
1
1
1
1
1
1
1
1
1
1
1
1
1
1
1
1
1
1
1
1
1
1
1
1
1
1
1
1
1
1
1
1
1
1
1
1
1
1
1
1
1
1
1
1
1
1
1
1
1
1
1
1
1
1
1
1
1
1
1
1
1
1
1
1
1
1
1
1
1
1
1
1
1
1
1
1
2.16748e-08
2.01699e-08
2.07047e-08
2.07548e-08
1.96657e-08
2.82815e-08
1.7946e-08
2.77724e-08
3.02735e-08
1.36845e-08
1.6829e-31
-3.20258e-32
-4.20247e-32
-1.71793e-37
-4.3742e-84
4.97998e-40
9.18352e-34
5.76174e-34
7.74809e-28
1.04478e-21
-3.2564e-30
-4.23909e-39
-9.03074e-39
-3.8365e-44
2.86861e-46
8.23155e-38
2.07169e-32
1.69419e-42
3.68741e-38
2.10624e-34
4.20685e-31
-7.4074e-46
-1.89808e-45
-7.82597e-51
1.24817e-52
1.27074e-44
3.53463e-39
1.89898e-42
7.36598e-38
3.76575e-34
2.94375e-36
-9.61195e-53
-2.25452e-52
-8.95709e-58
4.06486e-60
5.27575e-52
1.46725e-46
3.97446e-50
4.36926e-49
1.44581e-43
3.04421e-43
-1.33217e-59
-2.44205e-59
-7.11911e-65
9.79088e-71
3.20871e-71
2.27526e-73
1.83064e-67
2.65803e-58
1.2156e-52
3.81646e-49
-1.33799e-66
-1.62756e-66
-1.75069e-72
2.16002e-80
3.13871e-74
2.27526e-73
1.15469e-74
3.2966e-69
1.48047e-65
5.78109e-55
3.50721e-73
3.50483e-80
5.26312e-80
1.02571e-75
7.66055e-71
5.94778e-70
3.29477e-71
7.93943e-75
2.8129e-72
1.00122e-60
5.20716e-68
9.18763e-77
1.39466e-76
3.09734e-76
1.1762e-75
4.87459e-75
2.0359e-76
3.71281e-80
3.35277e-78
1.8866e-66
4.42545e-72
2.1797e-81
2.17652e-81
2.4089e-81
4.98057e-81
1.86789e-80
1.35344e-81
3.27287e-85
1.36588e-83
3.70882e-72
5.11391e-77
1.0842e-85
1.1936e-85
1.25878e-85
1.34881e-85
2.04493e-85
8.47203e-87
1.65425e-90
6.76526e-89
7.43899e-78
3.65915e-82
6.12729e-91
7.94436e-91
1.0251e-90
7.27438e-90
7.89197e-90
9.42132e-91
2.05285e-95
5.35269e-94
1
1
1
1
1
1
1
1
1
1
1
1
1
1
1
1
1
1
1
1
1
1
1
1
1
1
1
1
1
1
1
1
1
1
1
1
1
1
1
1
1
1
1
1
1
1
1
1
1
1
1
1
1
1
1
1
1
1
1
1
1
1
1
1
1
1
1
1
1
1
1
1
1
1
1
1
1
1
1
1
2.1156e-08
1.90972e-08
2.03207e-08
2.1707e-08
2.12359e-08
3.22993e-08
1.76281e-08
3.02915e-08
4.20737e-08
2.76666e-08
0
-1.05538e-37