/*--------------------------------*- C++ -*----------------------------------*\
| =========                 |                                                 |
| \\      /  F ield         | OpenFOAM: The Open Source CFD Toolbox           |
|  \\    /   O peration     | Version:  2312                                  |
|   \\  /    A nd           | Website:  www.openfoam.com                      |
|    \\/     M anipulation  |                                                 |
\*---------------------------------------------------------------------------*/
FoamFile
{
    version     2.0;
    format      ascii;
    arch        "LSB;label=32;scalar=64";
    class       surfaceScalarField;
    location    "0.555";
    object      phi;
}
// * * * * * * * * * * * * * * * * * * * * * * * * * * * * * * * * * * * * * //

dimensions      [0 3 -1 0 0 0 0];

oriented        oriented;

internalField   nonuniform List<scalar> 
22600
(
1.60552e-07
-3.23113e-07
1.62561e-07
3.23568e-07
-3.32335e-07
1.69319e-07
4.48734e-07
-2.83627e-07
1.58461e-07
5.22089e-07
-2.22234e-07
1.48879e-07
5.43354e-07
-1.61248e-07
1.39983e-07
5.12933e-07
-9.91353e-08
1.29556e-07
4.35924e-07
-4.1136e-08
1.18146e-07
3.21983e-07
9.47669e-09
1.04464e-07
1.83291e-07
4.45622e-08
9.41296e-08
6.38984e-08
8.43694e-08
1.42954e-07
-6.10978e-07
1.44912e-07
2.94098e-07
-6.37707e-07
1.54228e-07
4.11614e-07
-5.42522e-07
1.41379e-07
4.84007e-07
-4.24539e-07
1.29912e-07
5.09154e-07
-3.06087e-07
1.19691e-07
4.86255e-07
-1.84112e-07
1.07876e-07
4.19849e-07
-6.98567e-08
9.5126e-08
3.16236e-07
3.0724e-08
8.2366e-08
1.84163e-07
1.03163e-07
7.34716e-08
1.42604e-07
6.60267e-08
1.82407e-07
-9.79608e-07
1.86224e-07
3.83736e-07
-1.02765e-06
1.88613e-07
5.36935e-07
-8.63846e-07
1.68125e-07
6.24758e-07
-6.67147e-07
1.54785e-07
6.50682e-07
-4.73879e-07
1.41868e-07
6.16355e-07
-2.78074e-07
1.2829e-07
5.27205e-07
-9.51865e-08
1.14479e-07
3.91946e-07
6.45148e-08
1.01468e-07
2.25093e-07
1.7762e-07
9.23966e-08
2.37955e-07
8.72929e-08
2.75138e-07
-1.53681e-06
2.82059e-07
5.39677e-07
-1.58149e-06
2.89297e-07
7.18811e-07
-1.25677e-06
2.13793e-07
8.2513e-07
-9.54924e-07
1.81458e-07
8.5044e-07
-6.70014e-07
1.70825e-07
7.99844e-07
-3.91135e-07
1.63657e-07
6.82705e-07
-1.37849e-07
1.59802e-07
5.07596e-07
8.11619e-08
1.58462e-07
2.90239e-07
2.30881e-07
1.64095e-07
3.12554e-07
1.70069e-07
5.39659e-07
-2.6058e-06
5.29331e-07
8.92952e-07
-2.5192e-06
5.84425e-07
1.03282e-06
-1.8062e-06
4.0956e-07
1.11233e-06
-1.32696e-06
2.92526e-07
1.10965e-06
-9.31101e-07
2.63763e-07
1.01393e-06
-5.71118e-07
2.75708e-07
8.37713e-07
-2.68705e-07
3.07071e-07
6.09507e-07
-3.82805e-08
3.47649e-07
3.39957e-07
1.13547e-07
3.86884e-07
2.07228e-07
4.08219e-07
8.20655e-07
-4.2109e-06
7.84445e-07
1.23578e-06
-3.83017e-06
8.95833e-07
1.30438e-06
-2.62079e-06
7.45997e-07
1.28394e-06
-1.89631e-06
5.89795e-07
1.17915e-06
-1.34614e-06
5.19826e-07
1.01098e-06
-9.28628e-07
5.25681e-07
8.02974e-07
-5.88375e-07
5.27673e-07
5.56021e-07
-3.00196e-07
5.08868e-07
3.03471e-07
-1.24885e-07
4.90982e-07
-9.3102e-09
4.83471e-07
8.42229e-07
-5.93089e-06
8.77762e-07
1.18071e-06
-5.1477e-06
9.7905e-07
1.3243e-06
-3.69094e-06
9.26562e-07
1.36061e-06
-2.71387e-06
7.81247e-07
1.26542e-06
-1.85705e-06
6.061e-07
1.09734e-06
-1.15757e-06
3.97026e-07
8.77843e-07
-5.20081e-07
1.51204e-07
6.54751e-07
-2.18462e-08
-5.52573e-08
3.95062e-07
2.5761e-07
-1.22807e-07
4.07119e-07
-1.27526e-07
5.62134e-07
-7.19409e-06
7.01069e-07
8.19348e-07
-6.21625e-06
8.11335e-07
1.43592e-06
-5.05663e-06
7.4911e-07
2.10495e-06
-3.88704e-06
5.04144e-07
2.44806e-06
-2.33776e-06
1.37603e-07
2.52004e-06
-1.01032e-06
-2.19226e-07
2.55011e-06
-1.09342e-07
-4.40813e-07
2.08408e-06
9.23953e-07
-4.79769e-07
1.18901e-06
1.63456e-06
-4.81883e-07
2.13891e-06
-5.52219e-07
3.56855e-07
-8.03928e-06
4.88331e-07
1.35183e-06
-8.04432e-06
8.33101e-07
3.13516e-06
-7.52166e-06
6.81689e-07
5.0321e-06
-6.28506e-06
5.01084e-07
6.18307e-06
-3.6671e-06
1.78371e-07
6.90373e-06
-1.75249e-06
2.15082e-08
7.56462e-06
-1.20072e-06
4.30488e-07
7.42417e-06
3.88795e-08
1.02553e-06
4.5993e-06
3.34058e-06
1.11885e-06
6.75993e-06
8.50893e-07
7.04503e-07
-9.5655e-06
8.21724e-07
3.08545e-06
-1.20033e-05
1.578e-06
5.86617e-06
-1.16047e-05
1.30233e-06
6.45865e-06
-7.80746e-06
9.29909e-07
6.30956e-06
-4.90036e-06
1.38236e-06
5.96563e-06
-2.89236e-06
1.4838e-06
4.5671e-06
-1.13265e-06
1.33047e-06
1.84585e-06
9.42583e-07
1.81755e-06
-1.23198e-06
5.83365e-06
5.84766e-07
9.7964e-06
-2.48158e-07
1.83348e-06
-1.35988e-05
2.19986e-06
1.99075e-06
-1.28088e-05
6.48268e-07
4.95567e-07
-9.36225e-06
-7.47275e-07
-6.0717e-07
-6.05509e-06
-6.4963e-07
-2.31822e-06
-2.89755e-06
-2.91756e-07
-3.67418e-06
-1.77437e-06
2.37979e-07
-4.91454e-06
-3.33686e-07
4.414e-07
-5.73559e-06
2.08559e-06
-3.21955e-07
-4.75115e-06
5.66694e-06
-8.17722e-07
9.42846e-06
-1.23856e-06
-1.24299e-06
-1.13865e-05
-9.69382e-07
-2.57816e-06
-7.84296e-06
-3.63068e-06
-4.70384e-06
-4.30559e-06
-2.93099e-06
-6.8838e-06
-1.68859e-06
-2.18654e-06
-7.18767e-06
-5.62761e-07
-2.03092e-06
-6.86203e-06
-3.14693e-07
-1.78531e-06
-6.66811e-06
1.0078e-06
-1.5354e-06
-6.11128e-06
2.96007e-06
-1.43131e-06
-4.65558e-06
5.497e-06
-1.28577e-06
7.96056e-06
-1.17328e-06
-3.00594e-06
-5.35865e-06
-3.0219e-06
-4.04386e-06
-2.2666e-06
-4.53843e-06
-5.26514e-06
-4.15521e-07
-2.66879e-06
-6.09427e-06
1.48035e-06
-2.33981e-06
-5.97799e-06
2.11094e-06
-2.78997e-06
-5.73922e-06
2.3075e-06
-2.86097e-06
-5.21536e-06
2.85204e-06
-2.3681e-06
-4.44694e-06
3.80409e-06
-1.61243e-06
-3.22152e-06
5.17889e-06
-9.07316e-07
6.52519e-06
-4.99616e-07
-2.49562e-06
-6.54407e-07
-2.20862e-06
-2.51533e-06
6.5979e-07
-2.90668e-06
-4.10289e-06
2.39625e-06
-1.22421e-06
-5.30372e-06
4.18907e-06
-1.50788e-06
-5.20976e-06
4.23484e-06
-2.21786e-06
-4.67887e-06
4.26103e-06
-2.48442e-06
-3.88364e-06
4.47367e-06
-2.41686e-06
-2.96534e-06
4.74996e-06
-1.86417e-06
-1.98411e-06
5.17267e-06
-9.75018e-07
5.71791e-06
-3.72418e-07
-2.22204e-06
2.03127e-06
-4.63637e-07
-2.2897e-06
3.24898e-06
-2.52152e-06
-3.73688e-06
4.28317e-06
-4.39732e-07
-4.60035e-06
5.19343e-06
-1.40889e-07
-4.31295e-06
4.3851e-06
-4.37652e-07
-3.82309e-06
4.53732e-06
-7.66144e-07
-3.1091e-06
4.97125e-06
-1.21155e-06
-2.15613e-06
5.19293e-06
-1.39593e-06
-1.23463e-06
5.30736e-06
-1.05618e-06
5.38933e-06
-4.45013e-07
-2.62075e-06
3.91154e-06
7.40478e-07
-2.69952e-06
5.50238e-06
-2.17463e-06
-3.6085e-06
5.52586e-06
-3.33704e-07
-3.83988e-06
4.74499e-06
6.79819e-07
-3.15951e-06
2.68745e-06
1.01729e-06
-2.79137e-06
3.42879e-06
7.40383e-07
-2.32031e-06
4.44596e-06
5.42267e-08
-1.58028e-06
4.76178e-06
-3.08883e-07
-7.97207e-07
4.94029e-06
-4.15998e-07
4.88685e-06
-1.00413e-07
-2.70692e-06
5.27376e-06
1.34471e-06
-2.9302e-06
7.75113e-06
-2.02547e-06
-3.31285e-06
6.80955e-06
-9.01034e-07
-3.32466e-06
4.39665e-06
3.6015e-07
-2.76211e-06
8.50656e-07
1.27424e-06
-2.24797e-06
1.58353e-06
1.33113e-06
-1.64375e-06
2.8525e-06
9.89237e-07
-1.04516e-06
3.3887e-06
7.74498e-07
-4.59852e-07
3.77359e-06
5.81387e-07
3.83723e-06
6.01438e-07
-2.32286e-06
5.62536e-06
1.97126e-06
-2.66403e-06
9.95483e-06
-1.86253e-06
-2.42815e-06
8.39107e-06
-1.81739e-06
-2.07738e-06
4.91866e-06
-8.72789e-07
-2.22784e-06
1.60397e-07
8.40724e-07
-2.18031e-06
5.41379e-07
9.94613e-07
-1.51522e-06
1.51639e-06
6.71023e-07
-9.34102e-07
2.04278e-06
7.648e-07
-4.2748e-07
2.47539e-06
7.91573e-07
2.66709e-06
7.42367e-07
-1.68253e-06
4.77521e-06
2.53268e-06
-2.25834e-06
1.17328e-05
-1.2022e-06
-1.49787e-06
9.98651e-06
-2.35592e-06
-5.55828e-07
5.7916e-06
-1.81497e-06
-1.15501e-06
1.61145e-07
5.9844e-07
-1.69565e-06
3.58476e-07
7.23538e-07
-1.35068e-06
1.05171e-06
1.19709e-07
-9.35187e-07
1.43482e-06
1.92465e-07
-4.69403e-07
1.73581e-06
2.73802e-07
1.88852e-06
2.94461e-07
-1.46773e-06
2.97778e-06
3.26517e-06
-1.8981e-06
1.2615e-07
1.20371e-05
-7.02779e-07
-2.07605e-06
1.08672e-05
6.92544e-07
-1.41093e-06
5.8072e-06
-4.6506e-07
9.04937e-07
4.13817e-07
-1.17017e-06
6.53663e-07
4.09925e-07
-1.04503e-06
7.75074e-09
9.1882e-07
-7.57517e-07
-3.59315e-08
1.18324e-06
-3.62269e-07
-4.40561e-08
1.38462e-06
-2.70011e-08
1.47469e-06
1.67293e-07
-3.32475e-07
3.27742e-07
3.50881e-07
-3.69467e-07
3.55198e-07
4.94756e-07
-3.21882e-07
3.36469e-07
5.83114e-07
-2.61855e-07
3.22375e-07
6.16922e-07
-2.07772e-07
3.13948e-07
5.95015e-07
-1.55471e-07
3.06934e-07
5.18108e-07
-1.08059e-07
3.03111e-07
3.91864e-07
-6.94197e-08
3.00128e-07
2.25263e-07
-4.3138e-08
3.03869e-07
-3.50359e-08
3.026e-07
1.51902e-07
-6.37811e-07
2.98345e-07
3.28138e-07
-7.25132e-07
3.33657e-07
4.68603e-07
-6.3104e-07
3.10072e-07
5.55937e-07
-5.10896e-07
2.91619e-07
5.90658e-07
-4.03488e-07
2.80685e-07
5.70628e-07
-2.99198e-07
2.71633e-07
4.96984e-07
-2.04587e-07
2.65297e-07
3.75191e-07
-1.27338e-07
2.62078e-07
2.16916e-07
-7.93351e-08
2.67944e-07
-7.22734e-08
2.73905e-07
1.82887e-07
-1.02619e-06
3.91719e-07
4.11194e-07
-1.18905e-06
4.24224e-07
5.94146e-07
-1.0275e-06
3.81636e-07
7.023e-07
-8.16876e-07
3.52611e-07
7.41612e-07
-6.32274e-07
3.31343e-07
7.12608e-07
-4.55101e-07
3.13196e-07
6.16559e-07
-2.92748e-07
2.9869e-07
4.60965e-07
-1.59939e-07
2.89663e-07
2.64464e-07
-8.25697e-08
2.92133e-07
-7.1452e-08
2.98007e-07
2.82838e-07
-1.58018e-06
5.53204e-07
6.10504e-07
-1.84738e-06
6.19959e-07
8.20781e-07
-1.5333e-06
5.09316e-07
9.34683e-07
-1.18438e-06
4.35055e-07
9.6671e-07
-8.95278e-07
4.01802e-07
9.17888e-07
-6.23187e-07
3.80565e-07
7.89303e-07
-3.72905e-07
3.68543e-07
5.89865e-07
-1.67428e-07
3.65388e-07
3.37254e-07
-3.33423e-08
3.67479e-07
1.1416e-08
3.66375e-07
5.99827e-07
-2.53752e-06
8.8685e-07
1.12587e-06
-2.87521e-06
1.08622e-06
1.31911e-06
-2.19417e-06
8.77183e-07
1.35889e-06
-1.58657e-06
6.54938e-07
1.32006e-06
-1.14086e-06
5.48176e-07
1.20619e-06
-7.4648e-07
5.1287e-07
1.0046e-06
-3.75779e-07
5.11538e-07
7.30592e-07
-7.91577e-08
5.33388e-07
4.01287e-07
1.32923e-07
5.49924e-07
2.34587e-07
5.41668e-07
9.37209e-07
-3.90098e-06
1.2107e-06
1.58738e-06
-4.1387e-06
1.50915e-06
1.77036e-06
-2.99194e-06
1.36079e-06
1.7455e-06
-2.06311e-06
1.09119e-06
1.60519e-06
-1.38842e-06
9.07686e-07
1.38397e-06
-8.38968e-07
8.3939e-07
1.11013e-06
-3.69583e-07
7.95317e-07
7.92719e-07
1.77306e-08
7.2939e-07
4.31138e-07
3.28519e-07
6.56968e-07
4.96328e-07
6.15964e-07
9.99639e-07
-5.28389e-06
1.26103e-06
1.56787e-06
-5.26571e-06
1.53784e-06
1.82368e-06
-3.80557e-06
1.48438e-06
1.91359e-06
-2.6336e-06
1.26184e-06
1.84859e-06
-1.70774e-06
9.90424e-07
1.61677e-06
-9.29463e-07
7.19332e-07
1.2532e-06
-2.92152e-07
4.37349e-07
9.70752e-07
6.49721e-08
1.79948e-07
5.83603e-07
5.61085e-07
3.17753e-08
8.36944e-07
1.16816e-08
7.9376e-07
-6.37223e-06
9.95645e-07
1.45681e-06
-6.5824e-06
1.46497e-06
2.03805e-06
-5.04204e-06
1.40433e-06
2.46653e-06
-3.5693e-06
1.01136e-06
2.67371e-06
-2.29327e-06
5.15953e-07
2.60319e-06
-1.15211e-06
7.39416e-08
2.42857e-06
-2.64245e-07
-2.94096e-07
1.77905e-06
6.853e-07
-4.50574e-07
8.28408e-07
1.5134e-06
-4.83561e-07
1.82562e-06
-6.85458e-07
8.17561e-07
-8.18355e-06
1.48209e-06
2.36946e-06
-9.70594e-06
2.40474e-06
3.84871e-06
-7.87751e-06
2.03791e-06
4.80325e-06
-5.33197e-06
1.30921e-06
5.76243e-06
-3.81644e-06
7.42366e-07
7.34079e-06
-3.16061e-06
4.51651e-07
9.12798e-06
-2.00211e-06
3.81165e-07
8.69891e-06
1.79296e-06
3.4694e-07
5.57636e-06
5.43616e-06
3.18642e-07
8.934e-06
1.08907e-06
1.64052e-06
-1.21933e-05
3.19095e-06
3.71809e-06
-1.41379e-05
3.93239e-06
5.06886e-06
-1.03484e-05
2.42251e-06
4.81652e-06
-5.83748e-06
1.68776e-06
4.97526e-06
-4.31511e-06
1.72228e-06
4.57978e-06
-2.43196e-06
1.15063e-06
3.3374e-06
-5.42856e-07
1.11359e-06
1.17693e-06
3.39216e-06
2.37883e-06
-1.35248e-06
7.94897e-06
6.01362e-07
9.98594e-06
2.74068e-07
1.02915e-06
-1.31863e-05
2.16372e-06
-1.24157e-06
-1.05938e-05
-6.2516e-07
-3.59923e-06
-6.13293e-06
-2.60514e-06
-4.75761e-06
-3.56029e-06
-1.76843e-06
-6.66936e-06
-2.54738e-06
-1.47723e-07
-7.72e-06
-1.22939e-06
8.60588e-08
-8.31822e-06
6.5875e-07
-1.61977e-07
-7.74532e-06
2.72196e-06
-2.24656e-07
-5.70317e-06
6.22969e-06
-1.14059e-06
8.15516e-06
-2.0619e-06
-3.23269e-06
-8.37453e-06
-2.54847e-06
-7.35997e-06
-3.76225e-06
-6.33489e-06
-8.46393e-06
-2.76768e-06
-5.19227e-06
-7.97751e-06
-2.85646e-06
-3.37679e-06
-7.75638e-06
-2.28946e-06
-2.50997e-06
-7.96527e-06
-1.31144e-06
-1.49438e-06
-7.69808e-06
-4.70258e-07
-6.73567e-07
-7.03209e-06
9.27362e-07
-3.02707e-07
-5.10353e-06
3.34439e-06
-3.29034e-07
5.05216e-06
-8.37147e-07
-3.80964e-06
-3.27163e-06
-4.31516e-06
-5.75576e-06
-1.53882e-06
-4.81575e-06
-5.3022e-06
-1.99773e-06
-3.89229e-06
-5.11114e-06
-1.56872e-06
-3.8186e-06
-5.28227e-06
-1.07367e-06
-3.83463e-06
-5.33328e-06
-7.18261e-07
-3.40312e-06
-5.10979e-06
-4.79465e-07
-2.58239e-06
-4.64121e-06
2.1964e-07
-1.37329e-06
-3.64096e-06
1.62216e-06
-1.8533e-07
2.81816e-06
1.40483e-07
-1.57522e-06
-1.16323e-06
-2.7418e-06
-3.60975e-06
9.87504e-07
-3.39846e-06
-3.90074e-06
-7.32468e-08
-2.85768e-06
-4.07908e-06
2.84093e-07
-3.18235e-06
-4.21174e-06
4.29546e-07
-3.58842e-06
-3.93487e-06
2.62991e-07
-3.74254e-06
-3.48292e-06
1.46089e-07
-3.49436e-06
-3.17342e-06
5.76955e-07
-2.53099e-06
-2.8604e-06
1.29442e-06
-9.60292e-07
1.78094e-06
-7.67755e-08
-9.71338e-07
1.19447e-07
-7.74968e-07
-2.43498e-06
3.28282e-06
-3.35318e-06
-2.81733e-06
1.73788e-06
-1.8685e-06
-2.97302e-06
1.64854e-06
-1.34965e-06
-3.12526e-06
1.24042e-06
-1.09628e-06
-2.76083e-06
6.77894e-07
-1.54548e-06
-2.19036e-06
6.56527e-07
-2.29245e-06
-1.76163e-06
1.1814e-06
-2.42911e-06
-1.79366e-06
1.87598e-06
-1.6057e-06
1.97437e-06
-6.33614e-07
-1.81916e-06
1.57485e-06
1.10424e-06
-2.45881e-06
4.53443e-06
-2.78659e-06
-3.11776e-06
3.87556e-06
-1.81242e-06
-3.28181e-06
2.84497e-06
-3.52559e-07
-3.07266e-06
1.13424e-06
9.14326e-07
-2.43356e-06
3.24605e-07
4.54565e-07
-1.92485e-06
7.09133e-07
-5.07083e-07
-1.44435e-06
1.46797e-06
-1.07596e-06
-1.2389e-06
2.28089e-06
-1.02636e-06
2.32819e-06
-4.0882e-07
-1.39336e-06
2.89982e-06
1.4131e-06
-2.03956e-06
5.80888e-06
-2.65372e-06
-2.85227e-06
6.17693e-06
-2.3897e-06
-3.25888e-06
4.5756e-06
-9.63865e-07
-3.35107e-06
1.52835e-06
9.7232e-07
-2.76688e-06
3.13572e-07
7.57967e-07
-2.07974e-06
6.94532e-07
3.16697e-07
-1.50881e-06
1.41072e-06
2.60822e-07
-1.05953e-06
2.24235e-06
1.70637e-07
2.42107e-06
2.30755e-07
-4.80085e-07
3.50652e-06
1.84465e-06
-9.23208e-07
7.21234e-06
-2.82287e-06
-1.60265e-06
8.25783e-06
-3.21885e-06
-2.20277e-06
6.68359e-06
-2.38065e-06
-2.64822e-06
2.56283e-06
2.51687e-07
-2.52304e-06
7.35624e-07
4.4738e-07
-1.95695e-06
6.96296e-07
1.03162e-07
-1.45657e-06
1.31001e-06
3.65126e-07
-8.84244e-07
1.95309e-06
5.08517e-07
2.15897e-06
4.23904e-07
6.64824e-07
3.21483e-06
2.15955e-06
9.17216e-08
9.09462e-06
-2.51137e-06
-6.22355e-07
1.01721e-05
-3.55615e-06
-9.49544e-07
8.63171e-06
-3.43589e-06
-1.32752e-06
3.67552e-06
-1.36283e-07
-1.58711e-06
1.1276e-06
5.91161e-07
-1.33664e-06
6.59254e-07
-9.37115e-08
-1.03187e-06
1.2091e-06
-1.14031e-08
-5.48226e-07
1.62296e-06
1.20307e-07
1.75691e-06
1.06724e-07
8.69938e-07
2.70519e-06
2.61748e-06
-1.87746e-07
-9.52551e-07
1.1231e-05
-8.55735e-07
-3.05493e-06
1.1819e-05
-2.42004e-07
-3.56141e-06
1.01685e-05
-3.22204e-07
1.72889e-07
4.48778e-06
-8.65601e-07
9.49418e-07
1.37524e-06
-8.70828e-07
7.00976e-09
6.65227e-07
-6.39513e-07
-1.25622e-07
1.06748e-06
-2.84858e-07
-1.2458e-07
1.34883e-06
-1.26829e-07
1.42411e-06
1.56674e-07
-2.82754e-07
4.53822e-07
3.32364e-07
-3.20542e-07
5.0005e-07
4.71372e-07
-2.79578e-07
4.77039e-07
5.58637e-07
-2.26803e-07
4.61914e-07
5.94293e-07
-1.7906e-07
4.57352e-07
5.76206e-07
-1.3412e-07
4.59141e-07
5.04962e-07
-9.5543e-08
4.69899e-07
3.84094e-07
-6.6206e-08
4.87202e-07
2.21841e-07
-5.17804e-08
5.17902e-07
-5.37679e-08
5.3214e-07
1.39419e-07
-5.40597e-07
4.1677e-07
3.0498e-07
-6.27506e-07
4.7506e-07
4.38189e-07
-5.47404e-07
4.44689e-07
5.22266e-07
-4.42962e-07
4.237e-07
5.5758e-07
-3.49639e-07
4.1595e-07
5.40988e-07
-2.5973e-07
4.13836e-07
4.73177e-07
-1.8243e-07
4.19996e-07
3.62013e-07
-1.27299e-07
4.34334e-07
2.18427e-07
-1.07071e-07
4.66821e-07
-1.11127e-07
4.93827e-07
1.6447e-07
-8.58478e-07
5.4513e-07
3.71842e-07
-1.01806e-06
6.07404e-07
5.43775e-07
-8.93435e-07
5.55733e-07
6.49432e-07
-7.13916e-07
5.17908e-07
6.89897e-07
-5.53966e-07
4.95205e-07
6.66222e-07
-4.0476e-07
4.81901e-07
5.7827e-07
-2.74687e-07
4.78898e-07
4.38354e-07
-1.82549e-07
4.8483e-07
2.65716e-07
-1.38887e-07
4.96586e-07
-1.09305e-07
4.92913e-07
2.08095e-07
-1.24728e-06
7.33916e-07
4.95709e-07
-1.5168e-06
8.31081e-07
7.14907e-07
-1.33508e-06
7.31767e-07
8.37554e-07
-1.05522e-06
6.53712e-07
8.76411e-07
-8.04235e-07
6.13214e-07
8.36807e-07
-5.72843e-07
5.88252e-07
7.19011e-07
-3.6414e-07
5.75793e-07
5.33437e-07
-2.0441e-07
5.72824e-07
3.10281e-07
-9.29195e-08
5.44668e-07
8.04694e-09
4.76082e-07
4.10375e-07
-1.80261e-06
1.0318e-06
8.85642e-07
-2.179e-06
1.27316e-06
1.13482e-06
-1.82706e-06
1.11998e-06
1.21155e-06
-1.38277e-06
9.05759e-07
1.20045e-06
-1.02478e-06
7.7982e-07
1.12442e-06
-7.09255e-07
7.25314e-07
9.53687e-07
-3.8892e-07
7.07048e-07
6.84256e-07
-1.05192e-07
7.036e-07
3.66001e-07
1.34999e-07
6.40261e-07
3.15814e-07
5.17121e-07
7.57182e-07
-2.62962e-06
1.28052e-06
1.402e-06
-2.99049e-06
1.67583e-06
1.68785e-06
-2.37558e-06
1.62346e-06
1.74859e-06
-1.72241e-06
1.37009e-06
1.67949e-06
-1.20413e-06
1.15614e-06
1.51308e-06
-7.5008e-07
1.04662e-06
1.24338e-06
-3.1087e-07
9.86965e-07
8.64709e-07
8.96256e-08
9.13247e-07
4.44392e-07
4.20478e-07
7.91805e-07
6.54586e-07
6.54592e-07
9.24931e-07
-3.67291e-06
1.37939e-06
1.5207e-06
-3.82029e-06
1.77186e-06
1.84523e-06
-2.99665e-06
1.78092e-06
2.02704e-06
-2.21787e-06
1.5755e-06
2.04661e-06
-1.51936e-06
1.28608e-06
1.87741e-06
-8.85178e-07
1.02363e-06
1.51102e-06
-3.10061e-07
8.02935e-07
1.11403e-06
7.83481e-08
5.88215e-07
6.23621e-07
5.90242e-07
3.52418e-07
9.44958e-07
2.35025e-07
7.24926e-07
-4.94843e-06
1.54624e-06
1.43817e-06
-5.10596e-06
2.0374e-06
1.90539e-06
-3.92216e-06
1.86261e-06
2.23713e-06
-2.96374e-06
1.42549e-06
2.39343e-06
-2.05712e-06
8.97416e-07
2.34367e-06
-1.14939e-06
3.87911e-07
2.11805e-06
-3.71095e-07
-7.44677e-09
1.46805e-06
5.19032e-07
-2.41256e-07
6.63486e-07
1.17868e-06
-2.67429e-07
1.22823e-06
-3.3099e-07
7.28656e-07
-7.36972e-06
3.17473e-06
2.08159e-06
-8.06057e-06
4.00643e-06
2.85815e-06
-5.61072e-06
2.94991e-06
3.35256e-06
-4.00872e-06
1.85978e-06
4.19516e-06
-3.38307e-06
1.22571e-06
5.48654e-06
-2.7523e-06
7.63185e-07
7.38073e-06
-1.98282e-06
9.86986e-08
6.27436e-06
2.65039e-06
-6.78049e-07
2.85261e-06
5.9838e-06
-1.06473e-06
6.99142e-06
-9.33724e-07
1.62002e-06
-1.16463e-05
5.84748e-06
2.39661e-06
-1.05096e-05
5.60482e-06
2.71833e-06
-6.53782e-06
3.02788e-06
2.50097e-06
-3.89556e-06
1.79196e-06
2.28744e-06
-2.43651e-06
9.8926e-07
4.21471e-07
-6.76655e-07
9.40955e-07
-1.5038e-06
6.44211e-07
4.1184e-07
-2.85363e-06
4.94135e-06
1.4377e-06
-3.65734e-06
6.40349e-06
9.85382e-07
5.41848e-06
1.06284e-06
-2.51361e-07
-9.90271e-06
6.71533e-07
-2.60909e-06
-6.44135e-06
-2.33567e-06
-4.26824e-06
-3.73622e-06
-3.74758e-06
-5.03025e-06
-2.19517e-06
-2.7068e-06
-6.72925e-06
-8.57933e-07
-2.72963e-08
-8.59211e-06
7.46002e-07
5.26277e-07
-1.01073e-05
1.50672e-06
4.90685e-07
-8.99409e-06
2.28023e-06
1.32329e-06
-6.81267e-06
2.99438e-06
8.70953e-08
2.57421e-06
-1.92552e-06
-2.95795e-06
-5.13818e-06
-4.35505e-06
-5.66077e-06
-2.879e-06
-7.19442e-06
-6.24119e-06
-2.73504e-06
-5.61303e-06
-6.11011e-06
-2.48538e-06
-3.21765e-06
-6.87534e-06
-1.49493e-06
-1.10774e-06
-7.5915e-06
-2.59936e-07
2.27724e-07
-7.48194e-06
-2.57847e-07
9.81439e-07
-6.62351e-06
-8.62957e-07
1.98205e-06
-4.96125e-06
-3.58742e-07
1.36183e-06
1.00652e-06
-9.50933e-07
-3.24817e-06
-1.52019e-06
-4.68497e-06
-5.20759e-06
-1.82703e-06
-3.90829e-06
-5.20492e-06
-3.24515e-06
-3.38486e-06
-4.91635e-06
-3.33412e-06
-3.25842e-06
-4.9673e-06
-2.50875e-06
-2.76986e-06
-4.85962e-06
-1.73777e-06
-2.03297e-06
-4.67577e-06
-1.69992e-06
-1.32416e-06
-4.44209e-06
-2.08411e-06
-3.85822e-07
-3.80832e-06
-1.50456e-06
3.26719e-07
-6.10577e-08
2.04774e-07
-8.01654e-07
-4.26709e-07
-3.03363e-06
-3.85548e-06
8.65581e-07
-3.03724e-06
-4.71361e-06
-2.06198e-06
-3.18272e-06
-4.67178e-06
-3.11166e-06
-3.44664e-06
-4.35753e-06
-2.7576e-06
-3.65382e-06
-3.63204e-06
-2.54133e-06
-3.66447e-06
-3.03777e-06
-2.36003e-06
-3.42852e-06
-2.99246e-06
-1.90507e-06
-2.75534e-06
-3.00955e-06
-1.15897e-06
-1.28879e-06
-2.56407e-07
-1.34865e-07
1.35155e-06
-9.48937e-07
-1.60429e-06
-9.1649e-07
2.49285e-06
-2.71241e-06
-2.71385e-06
2.79014e-07
-2.41213e-06
-3.22064e-06
-1.59121e-06
-2.3633e-06
-3.12558e-06
-1.52779e-06
-2.42115e-06
-2.33918e-06
-1.84123e-06
-3.03198e-06
-1.5506e-06
-1.74631e-06
-3.69475e-06
-1.43402e-06
-7.55175e-07
-3.69558e-06
-1.81966e-06
-2.91937e-08
-2.34983e-06
1.82946e-07
-9.22987e-07
1.20959e-06
-8.53351e-07
-2.00924e-07
1.14337e-06
2.17447e-06
-2.40198e-06
-7.51596e-07
2.73772e-06
-2.37615e-06
-2.02504e-06
1.18097e-06
-1.85129e-06
-2.24948e-06
4.4071e-07
-8.29739e-07
-1.86579e-06
-5.89546e-07
-1.1808e-06
-1.34627e-06
-6.60261e-07
-2.11265e-06
-1.06995e-06
3.62361e-07
-2.46981e-06
-1.22075e-06
8.61747e-07
-1.76649e-06
7.23996e-07
-1.04411e-06
1.35332e-06
-1.13668e-09
-7.92424e-07
2.01474e-06
1.7903e-06
-2.93097e-06
9.97023e-07
4.14276e-06
-2.77701e-06
-8.65455e-07
4.18111e-06
-2.10152e-06
-1.69483e-06
2.79616e-06
-5.53759e-07
-1.9405e-06
8.24961e-07
-4.10871e-07
-1.7681e-06
2.24569e-07
-7.40532e-07
-1.31546e-06
1.00939e-06
-8.38849e-07
-9.45721e-07
1.38653e-06
-7.2388e-07
1.21395e-06
-6.9778e-07
1.99219e-06
7.2719e-07
-8.75861e-07
2.54579e-06
2.19249e-06
-3.77865e-06
2.13277e-06
4.77361e-06
-3.43667e-06
4.70166e-08
6.40191e-06
-2.51569e-06
-1.12636e-06
5.00818e-06
-7.86952e-07
-1.57963e-06
1.91707e-06
-1.91464e-07
-1.57984e-06
7.00497e-07
-3.72553e-07
-1.17714e-06
1.29389e-06
-3.22077e-07
-6.16104e-07
1.61608e-06
-2.82073e-07
1.56431e-06
-5.47885e-07
2.61153e-06
1.15537e-06
-8.80166e-07
2.98167e-06
3.54766e-06
-4.23668e-06
2.50772e-06
5.71832e-06
-4.0269e-06
3.20822e-07
7.89832e-06
-2.7454e-06
-8.04645e-07
6.8214e-06
-8.24037e-07
-1.08573e-06
2.51886e-06
2.70467e-07
-1.146e-06
8.64818e-07
-1.97758e-07
-8.05731e-07
1.26926e-06
-3.2704e-07
-3.40788e-07
1.58241e-06
-3.10965e-07
1.62652e-06
-5.28051e-07
2.94064e-06
-2.73247e-07
1.19317e-06
3.08293e-06
-3.40314e-06
5.85596e-06
2.13189e-06
-3.99336e-06
7.6078e-06
-4.18231e-08
-2.74054e-06
9.25116e-06
-7.27132e-07
-4.39957e-07
8.11955e-06
-7.50652e-07
8.31874e-07
2.65992e-06
-8.37256e-07
-2.11705e-08
9.79605e-07
-5.68239e-07
-2.41354e-07
1.11598e-06
-2.29682e-07
-2.90578e-07
1.40986e-06
-4.4238e-07
1.4826e-06
1.47304e-07
-2.20353e-07
5.2687e-07
3.18498e-07
-2.59625e-07
5.88481e-07
4.56376e-07
-2.25563e-07
5.64725e-07
5.44258e-07
-1.77443e-07
5.51475e-07
5.83366e-07
-1.33967e-07
5.52211e-07
5.71113e-07
-9.14854e-08
5.62881e-07
5.08016e-07
-5.17107e-08
5.84706e-07
3.97301e-07
-1.74988e-08
6.15416e-07
2.39081e-07
5.49039e-09
6.70631e-07
2.36363e-08
6.91749e-07
1.28368e-07
-4.20044e-07
4.88094e-07
2.87158e-07
-5.04624e-07
5.6127e-07
4.17384e-07
-4.3978e-07
5.2868e-07
5.01378e-07
-3.46479e-07
5.08742e-07
5.39268e-07
-2.60759e-07
5.04851e-07
5.28619e-07
-1.75965e-07
5.08966e-07
4.74458e-07
-1.0166e-07
5.24106e-07
3.83557e-07
-4.54052e-08
5.53142e-07
2.53338e-07
-6.58522e-09
6.09116e-07
4.92673e-08
6.42136e-07
1.52856e-07
-6.57475e-07
6.29706e-07
3.45436e-07
-8.00934e-07
7.11133e-07
5.07922e-07
-7.05319e-07
6.58787e-07
6.1185e-07
-5.54255e-07
6.21755e-07
6.56555e-07
-4.14762e-07
6.04502e-07
6.40536e-07
-2.80398e-07
6.02354e-07
5.63911e-07
-1.61398e-07
6.15261e-07
4.32475e-07
-6.45857e-08
6.35446e-07
2.69116e-07
3.45058e-08
6.18854e-07
1.86872e-07
5.24781e-07
1.77332e-07
-9.36741e-07
8.3585e-07
4.21958e-07
-1.1574e-06
9.42924e-07
6.35507e-07
-1.03933e-06
8.52227e-07
7.67698e-07
-8.18257e-07
7.85522e-07
8.16503e-07
-6.01956e-07
7.51603e-07
7.85637e-07
-3.96829e-07
7.35549e-07
6.70379e-07
-2.08861e-07
7.38514e-07
4.77183e-07
-3.10671e-08
7.32501e-07
2.77875e-07
1.8029e-07
5.98192e-07
4.33895e-07
3.62703e-07
2.86128e-07
-1.30153e-06
1.11047e-06
6.37851e-07
-1.56022e-06
1.32425e-06
8.86701e-07
-1.36799e-06
1.19979e-06
1.01598e-06
-1.07469e-06
1.03292e-06
1.05908e-06
-8.06932e-07
9.4169e-07
1.01879e-06
-5.43189e-07
9.11969e-07
8.56132e-07
-2.42516e-07
9.03356e-07
5.75303e-07
9.2293e-08
8.61069e-07
3.12611e-07
4.44851e-07
6.38392e-07
7.74022e-07
3.28729e-07
5.77338e-07
-1.86076e-06
1.26241e-06
1.07898e-06
-2.05156e-06
1.66552e-06
1.3685e-06
-1.71862e-06
1.68458e-06
1.48893e-06
-1.30616e-06
1.48112e-06
1.49338e-06
-9.35403e-07
1.28016e-06
1.39859e-06
-5.59075e-07
1.15731e-06
1.15853e-06
-9.46848e-08
1.07919e-06
7.70103e-07
4.04437e-07
9.89532e-07
3.70099e-07
8.42952e-07
7.93708e-07
1.18039e-06
5.00128e-07
7.62072e-07
-2.64328e-06
1.39984e-06
1.26416e-06
-2.63995e-06
1.85817e-06
1.58793e-06
-2.2156e-06
1.95413e-06
1.80056e-06
-1.72006e-06
1.77676e-06
1.8951e-06
-1.22873e-06
1.48486e-06
1.87785e-06
-7.36879e-07
1.21868e-06
1.62378e-06
-5.52078e-08
1.01753e-06
1.13148e-06
6.1013e-07
8.74817e-07
5.79176e-07
1.02419e-06
7.23483e-07
1.38078e-06
4.99699e-07
4.85266e-07
-3.74474e-06
2.16243e-06
1.0456e-06
-3.64447e-06
2.48158e-06
1.45184e-06
-2.97002e-06
2.21079e-06
1.82812e-06
-2.49903e-06
1.82819e-06
2.00758e-06
-1.85568e-06
1.34491e-06
2.00001e-06
-1.20847e-06
8.67072e-07
1.79634e-06
-3.99852e-07
5.40871e-07
1.3821e-06
3.62629e-07
4.20483e-07
7.09966e-07
8.85177e-07
5.43722e-07
1.07891e-06
5.80112e-07
6.1044e-07
-6.15206e-06
4.97161e-06
1.42103e-06
-5.54428e-06
5.09565e-06
1.88361e-06
-4.0472e-06
3.56452e-06
2.61548e-06
-4.01434e-06
2.64322e-06
3.4649e-06
-3.43804e-06
1.95866e-06
4.39277e-06
-2.74604e-06
1.37288e-06
5.43644e-06
-2.1773e-06
8.32478e-07
5.67045e-06
-8.74391e-07
3.24956e-07
2.84009e-06
3.09294e-06
-4.42134e-07
3.75201e-06
-1.77535e-06
1.44598e-06
-8.24248e-06
6.49191e-06
1.94534e-06
-6.1194e-06
5.68059e-06
1.91842e-06
-3.77289e-06
2.78049e-06
1.67603e-06
-3.16161e-06
1.18163e-06
1.67924e-06
-2.4593e-06
7.30646e-09
-6.02378e-07
-1.52e-07
6.28539e-07
-4.47248e-06
4.65025e-07
1.63963e-06
-5.72308e-06
-4.04016e-08
1.85432e-06
-4.09291e-06
5.35002e-07
1.91315e-06
-6.32085e-07
2.96654e-06
-4.17015e-07
-6.69955e-06
-4.54382e-07
-1.3999e-06
-3.69283e-06
-3.77935e-06
-1.73006e-06
-2.17982e-06
-5.01048e-06
-2.08605e-06
-1.00802e-06
-4.5044e-06
-2.9297e-06
7.72782e-07
-2.41572e-06
-6.25822e-06
3.15429e-06
5.48513e-07
-9.5183e-06
2.76632e-06
1.44947e-06
-9.83279e-06
-3.22546e-07
1.91992e-06
-7.05658e-06
-2.68114e-06
5.2702e-07
-2.52116e-06
-3.76073e-06
-2.51511e-06
-2.82722e-06
-5.71227e-06
-3.27082e-06
-3.1246e-06
-7.00694e-06
-3.24478e-06
-2.6684e-06
-5.15047e-06
-3.31926e-06
-7.41667e-07
-3.40953e-06
-4.39146e-06
1.54377e-06
-8.06524e-07
-6.05483e-06
3.7826e-06
1.26279e-06
-6.9597e-06
3.3452e-06
1.30744e-06
-6.87031e-06
-5.92067e-07
2.16217e-06
-5.75424e-06
-3.20202e-06
7.66649e-07
-1.37943e-06
-4.70917e-06
-3.14657e-06
2.15594e-07
-4.58121e-06
-5.11941e-06
-1.68455e-06
-3.3755e-06
-5.4038e-06
-3.05398e-06
-2.71488e-06
-4.66122e-06
-2.80684e-06
-1.93583e-06
-4.29446e-06
-8.29202e-07
-7.63652e-07
-4.28467e-06
1.61847e-06
1.2138e-07
-4.01276e-06
2.10898e-06
-3.59858e-07
-4.28342e-06
-7.87412e-07
8.0173e-08
-3.88722e-06
-3.77071e-06
4.99209e-07
-2.32668e-06
-1.95599e-07
-1.78982e-06
2.81617e-06
-3.84438e-06
-4.60811e-06
1.08e-06
-2.9835e-06
-5.71702e-06
-2.02088e-06
-3.1069e-06
-5.61109e-06
-3.53125e-06
-2.82815e-06
-4.84591e-06
-2.75013e-06
-2.49807e-06
-3.79581e-06
-8.8188e-07
-2.21422e-06
-2.63723e-06
3.20377e-07
-2.7985e-06
-2.23911e-06
-9.75232e-07
-2.96563e-06
-2.10865e-06
-3.03265e-06
-2.1573e-06
-2.47041e-06
1.51105e-08
9.10966e-07
2.82635e-06
-2.52542e-06
-1.0141e-06
3.01425e-06
-2.72158e-06
-3.16237e-06
5.40052e-07
-2.82479e-06
-4.49425e-06
-1.96999e-06
-2.59268e-06
-4.56686e-06
-2.36424e-06
-2.73443e-06
-3.72021e-06
-1.25576e-06
-3.50476e-06
-2.19851e-06
-3.50677e-07
-4.54539e-06
-1.10797e-06
-4.99683e-07
-5.26167e-06
-8.51134e-07
-1.3563e-06
-4.28301e-06
-1.69825e-06
-1.11534e-06
2.18451e-06
1.70913e-06
-1.26822e-06
2.14539e-06
3.08124e-06
-2.42984e-06
2.77557e-07
2.698e-06
-2.66626e-06
-2.24997e-06
8.94054e-07
-2.18781e-06
-3.1577e-06
-3.98585e-07
-1.88766e-06
-2.77719e-06
-2.08275e-07
-2.60879e-06
-1.69158e-06
3.14608e-07
-3.86356e-06
-6.48805e-07
5.31815e-07
-4.54408e-06
-4.68838e-07
8.2007e-09
-3.31095e-06
-6.34343e-07
-1.94894e-06
1.80305e-06
9.12916e-07
-1.79926e-06
2.7159e-06
2.37903e-06
-3.14161e-06
2.01677e-06
3.42885e-06
-2.80872e-06
-5.88572e-07
3.28943e-06
-1.89156e-06
-2.21685e-06
1.91083e-06
-1.23489e-06
-2.36138e-06
9.12172e-07
-1.38679e-06
-1.66512e-06
9.34431e-07
-2.05662e-06
-7.66963e-07
1.2901e-06
-2.49529e-06
-3.30782e-07
9.74211e-07
-2.12606e-06
3.58185e-07
-1.95827e-06
1.50041e-06
9.98526e-07
-2.46188e-06
2.13795e-06
1.92704e-06
-3.9642e-06
2.01959e-06
3.34302e-06
-3.23248e-06
-1.05382e-07
4.70649e-06
-1.80778e-06
-1.79582e-06
3.66851e-06
-8.54191e-07
-2.08251e-06
1.70147e-06
-6.94079e-07
-1.5707e-06
1.12691e-06
-1.07684e-06
-8.45718e-07
1.54834e-06
-1.3053e-06
-2.99782e-07
1.5521e-06
-1.4059e-06
1.08378e-06
-1.7252e-06
1.50085e-06
1.33718e-06
-2.71967e-06
1.67354e-06
2.0612e-06
-4.54353e-06
1.33386e-06
3.45461e-06
-3.79881e-06
-4.25542e-07
5.51026e-06
-1.78977e-06
-1.72675e-06
4.68725e-06
-5.41563e-07
-1.75691e-06
2.16282e-06
-1.60713e-07
-1.3179e-06
1.1564e-06
-6.66269e-07
-7.66462e-07
1.46121e-06
-7.9135e-07
-3.07089e-07
1.69484e-06
-9.13075e-07
1.44169e-06
-1.36202e-06
1.7315e-06
-2.32629e-06
1.65873e-06
1.79881e-06
-4.38764e-06
2.97838e-06
1.08271e-06
-4.02386e-06
4.20122e-06
-6.75411e-07
-1.68638e-06
6.21421e-06
-1.7985e-06
-1.38463e-07
5.50884e-06
-1.43603e-06
2.77373e-07
2.35486e-06
-1.0506e-06
-4.20005e-07
1.16981e-06
-6.33276e-07
-4.68483e-07
1.27102e-06
-2.85348e-07
-5.31578e-07
1.58791e-06
-9.59052e-07
1.51909e-06
1.38786e-07
-1.58415e-07
5.46499e-07
3.10577e-07
-2.04509e-07
6.21199e-07
4.51994e-07
-1.76724e-07
6.00031e-07
5.4534e-07
-1.32705e-07
5.90834e-07
5.9028e-07
-9.29809e-08
6.00252e-07
5.87516e-07
-5.30301e-08
6.18675e-07
5.35888e-07
-1.27081e-08
6.49043e-07
4.34709e-07
2.82488e-08
6.88346e-07
2.70931e-07
7.39962e-08
7.60413e-07
1.50855e-07
7.37565e-07
1.18504e-07
-3.00242e-07
5.11416e-07