/*--------------------------------*- C++ -*----------------------------------*\
| =========                 |                                                 |
| \\      /  F ield         | OpenFOAM: The Open Source CFD Toolbox           |
|  \\    /   O peration     | Version:  2312                                  |
|   \\  /    A nd           | Website:  www.openfoam.com                      |
|    \\/     M anipulation  |                                                 |
\*---------------------------------------------------------------------------*/
FoamFile
{
    version     2.0;
    format      ascii;
    arch        "LSB;label=32;scalar=64";
    class       volScalarField;
    location    "0.245";
    object      alpha.water;
}
// * * * * * * * * * * * * * * * * * * * * * * * * * * * * * * * * * * * * * //

dimensions      [0 0 0 0 0 0 0];

internalField   nonuniform List<scalar> 
8000
(
1
1
1
1
1
1
1
1
1
1
1
1
1
1
1
1
1
1
1
1
1
1
1
1
1
1
1
1
1
1
1
1
1
1
1
1
1
1
1
1
1
1
1
1
1
1
1
1
1
1
1
1
1
1
1
1
1
1
1
1
0.999997
0.999997
0.999998
0.999998
0.999999
0.999999
1
1
1
1
0.999893
0.999896
0.999912
0.99993
0.999946
0.999961
0.999975
0.999986
0.999994
0.999997
0.894395
0.889003
0.886429
0.883708
0.870992
0.849986
0.82921
0.810923
0.82194
0.833441
0.26603
0.268151
0.274847
0.297766
0.33014
0.360381
0.406957
0.464631
0.470047
0.445031
1.89549e-07
1.81453e-07
0.00244221
0.0133341
0.0365678
0.0721359
0.0882949
0.0778349
0.0541229
0.0315714
1.81453e-07
1.73166e-07
1.73187e-07
1.72852e-07
2.76612e-07
5.89336e-07
9.1679e-07
1.14535e-06
2.44073e-06
0.00090671
3.03718e-07
1.11318e-06
2.7649e-07
1.42525e-05
2.98787e-05
2.12202e-05
3.95104e-06
1.69688e-06
1.82105e-06
0.000179578
1.01561e-05
1.11849e-05
6.77305e-06
2.24255e-05
1.07918e-05
1.96031e-06
4.92303e-08
5.46918e-08
9.52262e-07
2.65034e-05
1.07635e-05
8.15945e-06
5.4579e-06
5.48299e-06
1.13781e-07
1.16428e-11
1.31914e-10
9.59946e-09
3.63436e-07
2.14256e-06
3.81332e-06
2.60057e-06
1.21074e-06
2.41134e-13
2.27184e-13
2.82489e-13
7.71929e-12
3.73107e-09
1.98855e-08
6.93577e-08
1.18285e-07
6.52786e-09
1.72729e-14
2.11362e-14
2.24071e-13
1.66011e-13
1.78811e-13
8.08541e-12
1.66382e-10
7.39407e-10
1.75572e-14
1.75742e-14
1.75584e-14
2.40403e-14
2.81446e-13
1.65643e-13
1.48784e-13
9.00142e-13
7.31826e-13
1.06982e-12
1.8784e-14
1.75575e-14
3.41121e-14
4.08514e-14
2.66664e-13
1.52882e-13
1.25817e-13
2.02616e-13
1.73149e-14
3.04323e-15
6.1503e-14
1.88373e-14
8.1002e-14
3.37356e-14
4.10639e-14
2.71893e-14
1.87122e-14
1.86201e-14
1.51277e-14
2.7449e-15
1
1
1
1
1
1
1
1
1
1
1
1
1
1
1
1
1
1
1
1
1
1
1
1
1
1
1
1
1
1
1
1
1
1
1
1
1
1
1
1
1
1
1
1
1
1
1
1
1
1
1
1
1
1
1
1
1
1
1
1
0.999988
0.999991
0.999994
0.999997
0.999998
0.999999
1
1
1
1
0.991176
0.993813
0.998276
0.999852
0.999912
0.999951
0.999973
0.999984
0.999991
0.999994
0.468824
0.494664
0.563364
0.657425
0.743078
0.803883
0.823886
0.819522
0.815727
0.821239
3.27483e-07
2.75812e-07
3.837e-07
0.0074888
0.0428612
0.110101
0.190884
0.263326
0.354482
0.466587
2.32282e-07
2.38876e-07
2.24186e-07
3.83701e-07
9.3956e-07
5.06218e-06
3.49023e-06
0.00351832
0.00628568
0.0524628
1.89549e-07
1.81453e-07
1.80978e-07
2.40979e-06
5.96718e-07
9.26811e-07
1.14535e-06
2.44879e-06
6.06159e-05
2.73822e-06
1.72248e-06
8.61508e-06
5.7901e-06
3.8108e-05
5.89152e-05
5.92028e-05
5.8761e-05
2.54055e-05
1.32926e-05
1.38632e-06
3.60759e-05
4.53887e-05
4.53962e-05
2.84155e-05
9.29991e-06
9.1343e-06
1.12586e-05
1.25934e-05
1.97149e-06
7.86621e-07
4.51627e-05
4.53887e-05
1.20734e-05
4.12098e-11
1.10148e-12
3.55604e-11
9.39803e-10
2.99031e-08
1.63653e-07
4.26056e-07
2.63402e-05
1.08402e-05
3.12133e-12
5.07404e-13
3.42832e-13
1.07162e-12
2.69603e-11
7.86407e-10
6.91467e-09
1.88313e-08
2.33465e-14
1.84547e-14
1.96069e-14
5.43876e-13
5.53557e-13
8.32007e-13
7.28798e-13
1.3403e-11
1.6551e-10
1.34543e-10
1.75742e-14
1.75679e-14
1.77926e-14
8.23707e-13
5.60866e-13
4.17375e-13
6.41885e-13
6.48479e-13
2.08891e-12
5.88665e-13
1.85473e-14
6.4833e-14
2.23772e-13
9.43853e-13
5.69931e-13
3.78694e-13
3.48532e-13
5.5334e-13
1.16782e-13
1.76598e-14
1.07941e-13
9.20819e-14
2.2633e-13
2.9232e-13
2.06856e-13
1.32305e-13
8.11176e-14
7.54289e-14
8.43511e-14
1.54077e-14
1
1
1
1
1
1
1
1
1
1
1
1
1
1
1
1
1
1
1
1
1
1
1
1
1
1
1
1
1
1
1
1
1
1
1
1
1
1
1
1
1
1
1
1
1
1
1
1
1
1
0.999999
0.999999
1
1
1
1
1
1
1
1
0.999964
0.999968
0.999979
0.999988
0.999994
0.999998
0.999999
1
1
1
0.893922
0.908931
0.936166
0.96358
0.985173
0.998012
0.999938
0.999971
0.999984
0.999986
0.15833
0.192482
0.246893
0.321099
0.415585
0.544979
0.694679
0.791062
0.819333
0.810597
3.86522e-06
8.97056e-07
3.42717e-06
9.0754e-06
1.12079e-05
7.79292e-06
0.0112665
0.0819903
0.259572
0.463086
3.27478e-07
2.75812e-07
3.837e-07
9.3956e-07
6.11395e-06
5.74497e-06
5.81273e-06
5.81273e-06
0.00278098
0.0747756
3.79396e-06
4.00513e-07
2.70379e-07
9.99402e-06
6.68629e-05
9.38515e-05
7.48678e-06
6.26766e-06
2.73896e-06
1.38641e-06
3.96604e-07
2.87048e-06
5.95226e-06
4.43605e-06
4.51599e-06
7.21659e-06
1.17453e-05
1.21853e-05
2.9018e-05
1.16143e-06
8.94983e-06
1.41462e-05
1.03329e-05
5.92581e-06
4.53392e-06
4.48203e-06
6.85345e-06
1.24401e-05
1.33376e-05
1.91276e-07
1.89716e-05
2.03729e-05
3.79291e-06
1.65247e-12
1.59054e-12
2.86975e-11
8.62351e-08
9.33074e-07
2.37865e-08
4.72887e-09
9.958e-06
3.35127e-06
1.73328e-12
8.48573e-13
7.68336e-13
1.03238e-11
8.81688e-10
2.59804e-10
7.62406e-10
8.21223e-10
6.73344e-12
1.17273e-12
2.21536e-12
3.22082e-12
3.58438e-12
4.62383e-12
9.70474e-12
3.13014e-12
1.33021e-11
5.77768e-12
2.3177e-14
4.26753e-12
2.35177e-12
4.84011e-12
2.51222e-12
2.0038e-12
1.6556e-12
7.02043e-13
6.47859e-13
7.56068e-13
3.63578e-13
5.656e-13
2.09548e-12
2.19251e-12
8.21423e-13
4.9731e-13
4.36514e-13
6.93793e-13
5.5883e-13
1.95709e-13
6.39769e-13
1.84803e-12
6.93183e-13
2.69259e-13
1.03204e-13
6.56499e-14
5.97374e-14
6.94734e-14
7.54025e-14
1.88242e-14
1
1
1
1
1
1
1
1
1
1
1
1
1
1
1
1
1
1
1
1
1
1
1
1
1
1
1
1
1
1
1
1
1
1
1
1
1
1
1
1
1
1
1
1
1
1
1
1
1
1
1
0.999999
0.999999
1
1
1
1
1
1
1
0.999965
0.999951
0.999952
0.999965
0.999978
0.999989
0.999997
0.999999
1
1
0.700138
0.730074
0.779297
0.843764
0.905323
0.958181
0.992555
0.999937
0.999972
0.999975
1.5931e-05
0.000360573
0.037799
0.0993072
0.177903
0.283575
0.45801
0.691527
0.822437
0.829141
9.23231e-06
9.76407e-06
8.73809e-06
1.68736e-05
1.83372e-05
2.64956e-05
1.14339e-05
0.0094303
0.18246
0.410913
0.00014615
1.46642e-05
7.99117e-05
0.000180371
7.18681e-05
5.11051e-05
5.81273e-06
6.0822e-06
5.30512e-06
0.086442
0.000197431
1.3142e-05
5.75343e-07
7.23673e-07
0.000283595
0.000434927
0.000268858
9.44871e-06
4.19356e-06
2.73896e-06
7.22573e-09
1.55266e-08
2.34659e-06
1.15713e-05
1.6291e-05
3.66357e-06
4.96729e-07
1.32961e-05
5.98817e-05
5.52711e-06
7.84882e-09
6.93543e-09
3.50354e-09
2.72546e-11
1.09955e-11
2.78802e-10
2.92925e-07
8.50535e-06
1.36276e-05
2.26968e-07
9.33114e-09
3.62634e-09
2.70093e-11
1.08323e-12
9.34405e-13
2.13714e-12
1.27974e-08
7.18105e-08
2.69783e-09
4.0134e-10
5.98415e-09
2.43572e-10
2.89936e-10
1.07364e-12
7.86435e-13
6.20705e-13
3.0205e-11
7.16082e-10
2.3782e-11
5.84882e-12
1.05998e-08
1.58043e-09
1.89362e-12
1.72105e-12
3.63449e-12
3.58808e-12
3.49015e-12
8.60516e-12
9.17669e-13
1.79231e-13
1.60417e-11
5.39907e-12
2.10665e-12
1.73069e-12
2.17347e-12
1.8713e-12
1.43022e-12
1.64563e-12
6.31625e-13
1.52287e-13
5.85981e-11
6.59139e-12
1.62435e-12
5.53373e-13
5.07251e-13
4.74662e-13
3.8442e-13
4.48656e-13
3.46885e-13
1.26412e-13
1.45878e-11
3.4064e-12
7.06649e-13
1.87568e-13
5.19011e-14
5.05101e-14
4.84044e-14
6.174e-14
8.70081e-14
2.05825e-14
1
1
1
1
1
1
1
1
1
1
1
1
1
1
1
1
1
1
1
1
1
1
1
1
1
1
1
1
1
1
1
1
1
1
1
1
1
1
1
1
1
1
1
1
1
1
1
1
1
1
1
1
0.999999
0.999999
0.999999
1
1
1
1
1
0.980872
0.991278
0.996699
0.999926
0.999953
0.999973
0.999989
0.999998
0.999999
0.999999
0.309832
0.374614
0.493541
0.62608
0.760599
0.875376
0.957001
0.9976
0.99995
0.999961
4.01157e-05
7.53757e-05
0.000147575
3.2465e-05
0.0387431
0.136228
0.279631
0.536272
0.800411
0.850407
2.49794e-05
1.17587e-05
0.000168497
2.33765e-05
3.01472e-05
3.56651e-05
3.01366e-05
1.2602e-05
0.10449
0.364446
0.000492226
0.000226082
0.000234241
0.000270103
0.000275288
0.000179876
0.000116602
6.26976e-06
1.24217e-05
0.0759729
0.000247139
4.20529e-06
3.86007e-07
6.89093e-07
0.000171816
0.000448415
0.000447526
0.000254208
5.22909e-06
4.19356e-06
7.30901e-09
6.43585e-09
4.31894e-09
4.12782e-05
0.000194246
0.000229359
3.23223e-05
7.59226e-06
6.05306e-05
2.34052e-05
6.43585e-09
4.18977e-09
8.42454e-10
1.86488e-12
1.25947e-12
1.0835e-11
2.22478e-10
7.53503e-06
1.45995e-05
4.25128e-06
6.23206e-09
9.72796e-10
1.84998e-12
1.26045e-12
7.68925e-13
5.26296e-13
1.83677e-12
2.41499e-11
3.03163e-11
6.61294e-12
1.89376e-08
6.49239e-11
3.21368e-12
2.33808e-12
7.26211e-13
4.96745e-13
4.90585e-13
9.28024e-12
8.45529e-13
2.11924e-13
9.74871e-09
6.46062e-10
7.11854e-12
3.16353e-11
3.29894e-12
2.5143e-12
3.03765e-12
3.09711e-12
6.94408e-13
1.73026e-13
2.60754e-09
2.73846e-10
1.71186e-11
7.04174e-11
1.16277e-11
1.69585e-12
1.79834e-12
1.60208e-12
4.34721e-13
1.72638e-13
4.24349e-09
5.5149e-10
4.25444e-11
2.48013e-12
1.84293e-11
7.7834e-13
4.78323e-13
5.14199e-13
3.93234e-13
1.63797e-13
9.1418e-10
1.36564e-10
1.61358e-11
2.08587e-12
2.47134e-11
4.63966e-13
4.83666e-14
7.36706e-14
1.36928e-13
2.92168e-14
1
1
1
1
1
1
1
1
1
1
1
1
1
1
1
1
1
1
1
1
1
1
1
1
1
1
1
1
1
1
1
1
1
1
1
1
1
1
1
1
1
1
1
1
1
1
1
1
1
1
1
1
0.999999
0.999999
0.999999
0.999999
1
1
1
1
0.784965
0.830935
0.910736
0.972695
0.99834
0.999951
0.999977
0.999994
0.999998
0.999999
0.0168545
0.0437011
0.140137
0.326039
0.552433
0.759879
0.9016
0.984005
0.999912
0.999947
0.00014193
0.000183718
0.000187727
9.59418e-05
4.28847e-05
0.0435502
0.172661
0.406981
0.742465
0.871057
0.000665481
0.00252885
0.00200386
3.2465e-05
3.56798e-05
3.48918e-05
2.35314e-05
2.53895e-05
0.0436537
0.335147
0.000294574
0.000410659
4.67179e-07
5.09943e-05
0.000296187
0.000271655
0.000157159
1.57468e-05
7.57627e-06
0.0430917
4.92055e-06
6.60523e-09
3.23659e-08
3.91979e-07
6.4207e-07
0.000293501
0.00044917
0.000441675
7.16151e-05
4.59496e-06
6.43585e-09
5.61213e-09
4.54948e-09
3.23659e-08
7.21833e-05
0.000374627
0.000381844
5.82592e-05
5.4041e-05
2.80782e-05
9.12243e-09
5.07079e-09
1.54434e-09
2.92159e-07
4.97873e-05
9.40094e-05
2.75257e-06
3.7432e-06
1.70126e-05
1.46062e-05
1.81873e-07
1.50752e-09
7.78191e-10
2.52751e-08
1.01783e-12
3.10189e-13
4.45793e-13
1.04252e-12
8.45545e-13
2.53758e-07
3.7148e-07
2.00492e-09
1.71566e-11
2.01629e-12
3.10189e-13
3.10189e-13
3.9051e-13
4.17118e-13
1.48368e-13
1.30078e-13
1.78999e-07
4.61684e-09
1.90343e-10
7.7147e-09
8.89519e-11
3.08746e-13
2.24808e-12
2.09031e-12
5.6129e-13
2.3002e-13
1.29348e-07
1.77237e-08
1.57748e-09
1.24407e-08
3.91024e-10
3.3937e-13
1.6532e-12
2.20035e-12
5.83806e-13
2.87774e-13
1.68276e-07
2.75701e-08
2.8204e-09
2.23731e-08
7.73332e-10
4.30767e-13
5.93664e-13
9.67857e-13
5.89119e-13
2.73685e-13
3.68806e-08
6.68038e-09
1.05802e-09
2.15446e-08
1.09807e-09
1.56077e-13
9.83855e-14
1.26305e-13
2.07059e-13
4.13776e-14
1
1
1
1
1
1
1
1
1
1
1
1
1
1
1
1
1
1
1
1
1
1
1
1
1
1
1
1
1
1
1
1
1
1
1
1
1
1
1
1
0.989027
1
1
1
1
1
1
1
1
1
0.958128
0.964045
0.99476
1
0.999999
0.999999
1
1
1
1
0.460783
0.413115
0.667409
0.872215
0.972376
0.999932
0.999964
0.999987
0.999997
0.999998
0.00453233
0.00797865
0.0045542
0.0788124
0.331962
0.627375
0.841229
0.962709
0.999854
0.999932
0.000625924
0.00802975
0.000229362
0.000198916
0.000137313
3.52345e-05
0.103147
0.319215
0.661986
0.883557
0.00161496
0.00786046
0.00145845
0.00125497
0.000213187
2.35314e-05
1.60967e-05
1.89964e-05
0.00906046
0.304903
0.00159816
0.00128462
3.66948e-06
4.13166e-06
9.4622e-05
0.000795127
0.000210346
7.71396e-06
2.74723e-06
0.0193875
0.000133692
1.47416e-05
3.05527e-05
3.41032e-06
3.18094e-07
1.69971e-06
0.000436215
0.000442028
0.000127229
1.92302e-06
3.07413e-08
2.49747e-05
2.01768e-05
3.77467e-06
1.44325e-07
9.33787e-05
0.000418883
0.000239266
1.93299e-05
3.91832e-06
1.74647e-08
5.61213e-09
1.61059e-06
4.64758e-08
1.59933e-05
0.000123286
4.96506e-05
1.29165e-09
2.51087e-05
2.61329e-05
4.3489e-06
1.63581e-06
1.84147e-06
4.44499e-08
2.2658e-07
1.49625e-08
5.37963e-13
1.44553e-11
8.0726e-10
6.89184e-06
6.72657e-06
1.27216e-06
3.46995e-06
1.45686e-08
3.25866e-13
3.07992e-13
3.25862e-13
3.89252e-13
3.52287e-14
2.40864e-15
3.88711e-06
5.12203e-07
3.747e-06
8.18905e-08
1.03614e-12
3.61039e-13
1.97229e-12
9.43348e-13
2.48754e-14
2.48696e-14
3.30203e-06
2.04338e-06
4.29135e-06
9.947e-08
2.18437e-11
1.04655e-12
1.82445e-12
3.93456e-12
7.8006e-13
2.58054e-14
3.72756e-06
3.67042e-06
3.45394e-06
1.71944e-07
7.41842e-11
1.40578e-12
8.74424e-13
1.93132e-12
9.17028e-13
4.99582e-14
6.73309e-07
1.16305e-06
1.45162e-06
2.81902e-07
7.66744e-11
1.00761e-12
2.11708e-13
2.6464e-13
2.80166e-13
3.19183e-14
1
1
1
1
1
1
1
1
1
1
1
1
1
1
1
1
1
1
1
1
1
0.999995
0.997382
1
1
1
1
1
1
1
1
0.999466
0.996617
1
1
1
1
1
1
1
0.999925
1
0.999118
1
1
1
1
1
1
1
0.999644
0.974941
0.97072
0.993217
0.999999
0.999999
0.999999
1
1
1
0.685835
0.50748
0.400057
0.655522
0.910014
0.997334
0.999952
0.999979
0.999994
0.999998
0.0914103
0.0380487
0.00343308
0.00246693
0.152064
0.506532
0.781323
0.938083
0.998645
0.999914
0.00262668
0.00227034
0.000311774
0.000749431
0.000138793
5.32957e-05
0.0443108
0.254845
0.571654
0.885133
0.00265776
0.000310584
8.00723e-05
0.00565843
0.00151931
1.6239e-05
1.26101e-05
1.06944e-05
2.74723e-06
0.282216
0.00152119
2.47604e-05
6.45362e-06
2.60659e-06
8.71584e-05
0.000976509
0.000263999
2.74723e-06
6.5254e-07
0.00767566
0.000330299
4.33065e-05
0.000116145
1.68208e-06
3.31453e-08
2.98591e-08
0.000185336
0.000287919
4.41237e-05
3.28599e-07
0.000285954
0.00030329
0.000128847
1.21457e-07
3.56578e-08
6.39769e-08
0.000125609
0.000127404
1.95896e-05
5.10466e-07
4.19412e-05
0.000240889
2.78313e-05
4.04736e-08
5.72117e-08
9.16128e-06
3.63798e-06
1.77119e-07
4.48852e-05
6.91592e-06
4.83413e-06
0.000156681
2.34583e-05
2.07701e-08
4.53214e-08
3.82224e-08
9.52542e-12
1.52067e-06
3.02728e-06
7.70257e-06
6.68906e-06
0.000153892
2.98655e-05
3.39641e-10
1.70741e-12
3.25866e-13
5.36815e-13
1.12635e-12
1.18159e-09
2.15712e-06
1.25714e-05
0.000101576
2.49215e-05
6.08283e-09
3.13799e-11
1.03565e-12
1.96169e-12
4.96621e-13
1.68047e-14
1.23245e-14
4.01548e-05
3.89042e-05
1.58628e-05
3.08313e-08
4.91608e-10
5.02102e-12
1.7975e-12
2.02004e-12
1.68129e-14
1.21414e-14
4.48501e-05
3.84313e-05
1.32635e-05
4.9777e-08
1.09575e-09
1.4546e-11
1.90204e-12
1.94899e-12
2.62553e-13
3.39007e-14
8.79631e-06
2.49488e-05
1.42256e-05
1.94055e-07
6.21749e-10
8.113e-12
8.09689e-13
7.71796e-13
2.11623e-13
7.40072e-14
0.561099
0.987514
1
1
1
1
1
1
1
1
0.727023
1
1
1
1
1
1
1
1
1
0.861613
0.993696
1
1
1
1
1
1
1
1
0.920783
0.9944
0.999984
1
1
1
1
1
1
1
0.987641
0.999656
0.999938
0.998094
1
1
1
1
1
1
0.994185
0.999556
0.964623
0.940879
1
1
0.999999
1
1
1
0.984384
0.773051
0.396781
0.431548
0.825225
0.993496
0.999952
0.99997
0.999991
0.999997
0.882039
0.308761
0.00463611
0.0057689
0.0544412
0.400396
0.740938
0.913429
0.994735
0.999898
0.436988
0.0433618
0.000603869
0.00470949
0.000125577
3.79203e-05
0.00785465
0.202129
0.504615
0.8859
0.0192163
0.00261174
0.000186471
0.00573418
0.000827919
1.47885e-05
8.94754e-06
7.18062e-06
6.5254e-07
0.280346
0.00116823
6.75134e-05
3.82433e-06
5.41724e-05
0.00093335
0.000977836
0.000183747
6.5254e-07
2.61887e-07
0.0048501
0.000409673
3.87144e-06
1.13383e-07
3.31453e-08
2.36021e-08
3.04835e-08
2.99327e-08
1.75673e-05
3.56451e-06
1.7403e-07
0.00230419
4.3854e-06
1.83437e-07
1.48136e-07
2.81836e-08
2.53461e-08
3.55954e-06
2.30044e-05
1.28602e-05
3.23245e-07
0.0038579
0.000198377
2.68017e-07
2.92981e-07
1.29341e-07
9.0491e-08
7.39309e-08
2.35919e-06
4.60909e-05
9.52994e-06
0.00414923
0.00067433
1.45985e-07
8.83596e-08
3.44812e-09
1.49154e-09
4.29337e-09
1.07945e-05
4.55179e-05
7.68605e-06
0.00459812
0.00132354
7.99802e-06
1.81715e-07
3.39641e-10
1.70741e-12
1.22698e-08
1.74881e-06
3.87627e-06
3.07972e-06
0.00491415
0.00179463
8.81924e-06
9.03186e-08
1.27178e-09
3.13161e-11
7.10283e-11
6.77e-13
1.44173e-14
1.21414e-14
0.00437318
0.00145945
1.42072e-05
3.86699e-07
9.42335e-09
1.07261e-10
8.25596e-13
3.69394e-13
1.21414e-14
1.21285e-14
0.00225922
0.000524112
3.43735e-05
5.29947e-07
1.63013e-08
2.67171e-10
5.11222e-12
2.66691e-12
2.44349e-13
1.28603e-14
0.000250511
8.24182e-05
4.674e-05
2.41975e-06
7.95529e-09
1.51425e-10
3.70007e-12
1.90989e-12
3.52091e-13
1.38566e-14
0.297312
0.626485
1
1
1
1
1
1
1
1
0.297865
0.808132
1
1
1
1
1
1
1
1
0.319627
0.934914
1
1
1
1
1
1
1
1
0.363631
0.981252
1
0.999601
1
1
1
1
1
1
0.43643
0.999659
0.999654
0.98782
1
1
1
1
1
1
0.456309
0.99851
0.998849
0.93222
1
1
1
0.999999
1
1
0.492062
0.991179
0.611743
0.400577
0.764605
0.981656
0.999963
0.999965
0.999989
0.999997
0.662497
0.871289
0.0570753
0.00321747
0.013384
0.313231
0.710736
0.898571
0.992617
0.999892
0.727614
0.382806
0.00208277
0.000799317
0.000135593
5.23949e-05
8.94749e-06
0.166444
0.48094
0.890763
0.671609
0.0115211
0.000659879
0.00179668
9.80111e-05
7.03706e-05
5.42832e-06
1.59393e-06
2.61887e-07
0.287412
0.609291
0.000394751
5.80316e-05
0.000568435
0.00238967
0.000857837
1.82564e-06
2.61887e-07
1.90959e-07
0.00645662
0.463532
5.80304e-05
1.57638e-07
2.39568e-08
1.63823e-08
1.85372e-08
1.80931e-05
7.30527e-07
1.7403e-07
1.67221e-07
0.285034
7.00627e-06
5.12104e-07
1.52346e-06
1.48815e-08
1.54073e-08
2.05012e-08
6.35334e-08
2.17518e-06
2.63008e-07
0.189968
2.63118e-05
3.17222e-05
2.97372e-06
1.05951e-08
1.03295e-08
1.54073e-08
7.9193e-06
3.57785e-05
9.84414e-06
0.13076
4.56479e-05
4.16694e-05
2.91121e-06
5.04721e-09
4.25173e-09
8.08586e-09
1.86653e-05
4.71674e-05
1.0133e-05
0.0751785
0.000191731
3.84648e-05
3.74197e-06
2.27531e-09
6.06053e-10
1.89665e-09
7.81551e-06
2.09512e-05
4.28633e-06
0.0457448
0.00247206
4.07407e-05
3.56357e-06
2.48237e-08
1.71123e-09
2.67262e-09
2.75308e-12
1.43445e-14
1.08748e-07
0.0292054
0.00641768
3.35125e-05
2.05988e-06
6.41203e-08
8.90844e-10
2.73562e-12
1.42882e-14
1.21285e-14
1.21104e-14
0.0106765
0.00483543
4.56608e-05
3.18445e-06
1.18494e-07
2.3729e-09
2.46088e-11
1.50987e-13
7.1139e-14
1.37936e-14
0.00147273
0.00118095
3.38719e-05
7.12053e-07
3.27271e-08
7.07474e-10
9.26885e-12
4.20757e-13
9.93683e-14
4.59676e-14
0.297314
0.577336
1
1
1
1
1
1
1
1
0.297314
0.759797
1
1
1
1
1
1
1
1
0.315072
0.908955
1
1
1
1
1
1
1
1
0.361638
0.968153
1
0.999849
1
1
1
1
1
1
0.418836
0.999782
0.999727
0.988548
1
1
1
1
1
1
0.433547
0.998172
0.999587
0.945034
1
1
1
0.999999
1
1
0.522227
0.98307
0.60506
0.409333
0.760281
0.979816
0.999959
0.999964
0.999988
0.999997
0.759732
0.900277
0.0547192
0.00308078
0.0108043
0.306709
0.707326
0.899098
0.992773
0.999891
0.757697
0.528331
0.0025524
0.000726453
0.00013564
3.49786e-05
7.03952e-06
0.166703
0.482769
0.890658
0.686635
0.0697853
0.00141674
0.00187778
0.000144053
3.47244e-05
4.53149e-06
5.11547e-07
2.01093e-07
0.290429
0.579272
0.00105182
0.000146071
0.00257547
0.00259446
0.000486442
5.1151e-07
2.01093e-07
1.84165e-07
0.00737003
0.320558
8.33349e-05
2.58646e-08
2.09192e-08
1.89883e-08
1.92947e-08
6.0471e-06
2.03071e-07
1.67399e-07
1.68932e-07
0.210662
0.000300963
4.7788e-08
1.89883e-08
1.72478e-08
1.8111e-08
2.19459e-08
3.59862e-07
1.14984e-06
2.30434e-07
0.248009
0.00135093
2.24881e-07
2.00166e-08
1.66748e-08
1.03408e-08
1.76758e-08
9.2289e-06
3.50586e-05
1.02832e-05
0.270124
0.00246443
0.000152199
1.67107e-08
6.30749e-09
5.35427e-09
6.65226e-09
1.86042e-05
4.73293e-05
1.1691e-05
0.269937
0.00305071
0.000341641
1.44067e-06
6.06006e-09
2.6563e-09
1.24088e-09
8.74024e-06
2.36826e-05
4.55776e-06
0.269886
0.00446494
0.000320995
5.63819e-06
1.83608e-08
1.22768e-09
2.00435e-09
6.63132e-12
1.70141e-14
9.99568e-08
0.181818
0.0080411
0.000402202
3.44088e-06
1.18477e-07
1.8218e-09
3.86362e-12
8.99094e-15
1.21156e-14
1.21163e-14
0.0219169
0.00701899
0.000652883
7.32926e-06
2.99225e-07
5.93271e-09
6.65903e-11
2.86628e-13
1.29125e-14
1.35259e-14
0.00206529
0.00260359
0.00036351
3.79444e-06
1.47181e-07
3.31308e-09
4.20498e-11
3.71163e-13
6.13987e-14
4.59928e-14
0.585332
0.983978
1
1
1
1
1
1
1
1
0.756099
0.998797
1
1
1
1
1
1
1
1
0.893233
0.993797
1
1
1
1
1
1
1
1
0.947275
0.997095
0.999993
1
1
1
1
1
1
1
0.997438
0.99982
0.999961
0.996685
1
1
1
1
1
1
0.996825
0.987251
0.948034
0.942788
1
1
0.999999
0.999999
1
1
0.978859
0.720474
0.345701
0.439211
0.830212
0.993406
0.999951
0.999968
0.999991
0.999997
0.906073
0.326966
0.00518027
0.00555129
0.0539218
0.397278
0.741195
0.913126
0.994531
0.999893
0.591309
0.120349
0.00203394
0.00446475
0.000121807
1.87843e-05
0.00696548
0.199309
0.50173
0.883469
0.104102
0.0442694
0.00234817
0.00626294
0.000415596
6.39381e-06
3.47722e-06
9.81106e-07
3.06464e-07
0.286754
0.00146521
0.00447526
0.00130639
0.00448347
0.00291442
0.000173266
1.49377e-07
3.06464e-07
2.01093e-07
0.00813074
0.00112607
0.00015179
1.74857e-05
2.58895e-08
2.09199e-08
2.72938e-08
3.96557e-08
5.91815e-07
2.47999e-07
1.67221e-07
0.00199836
3.29727e-05
3.35379e-06
4.77904e-08
1.89883e-08
1.66915e-07
6.80255e-08
6.0739e-06
8.14172e-06
1.03924e-06
0.00232246
8.53961e-05
8.88959e-05
1.17951e-06
2.16999e-07
3.4465e-09
3.27256e-08
9.27635e-06
4.74912e-05
1.19476e-05
0.00312867
0.000337746
9.07152e-05
6.30463e-09
3.29959e-09
4.6806e-10
2.98492e-09
1.6739e-05
4.74912e-05
9.27474e-06
0.00356279
0.00182274
0.000108203
1.09891e-07
3.21642e-10
1.11078e-11
6.94344e-11
3.07362e-06
9.35595e-06
3.15407e-06
0.00397716
0.00338715
0.000142135
9.56367e-08
1.51635e-09
4.49516e-11
4.06122e-11
1.09418e-12
1.30214e-14
3.37922e-15
0.00632953
0.0036334
0.000130588
5.49384e-07
1.38185e-08
1.7316e-10
4.28731e-12
5.04578e-12
1.21163e-14
1.21104e-14
0.00612834
0.00294184
5.8838e-05
1.2535e-06
3.99841e-08
6.88641e-10
3.87336e-12
5.1923e-13
6.41039e-14
1.22909e-14
0.00253964
0.00114951
8.94762e-06
5.56176e-07
1.83428e-08
3.07673e-10
4.94715e-12
9.85198e-13
1.06641e-13
1.26976e-14
1
1
1
1
1
1
1
1
1
1
1
1
1
1
1
1
1
1
1
1
1
1
0.997889
1
1
1
1
1
1
1
1
0.999973
0.997414
1
1
1
1
1
1
1
0.999721
0.999947
0.998107
1
1
1
1
1
1
1
0.999421
0.952782
0.947136
0.991471
1
1
0.999999
1
1
1
0.637582
0.426603
0.410752
0.650256
0.912119
0.997248
0.999952
0.999979
0.999994
0.999998
0.0757818
0.0116709
0.00643506
0.00219832
0.153208
0.503541
0.781804
0.937731
0.998508
0.999909
0.00244132
0.00366555
0.000624183
7.69858e-05
3.18236e-05
1.96742e-05
0.0406408
0.251343
0.56727
0.881452
0.00128809
0.00479233
0.000505531
0.00223585
2.58346e-05
8.75372e-06
6.12329e-06
3.75315e-06
7.3172e-07
0.287859
0.00041496
0.00407057
0.000167758
0.00160644
0.00255388
0.000674301
3.35475e-06
7.3172e-07
3.06464e-07
0.0113302
7.34234e-05
0.00104756
7.56389e-05
9.28361e-08
2.95047e-08
3.96577e-08
5.40226e-05
7.30959e-05
6.10138e-06
1.85825e-07
1.39825e-06
0.000140951
0.000242843
5.42387e-06
4.95435e-08
1.01202e-07
7.52434e-05
1.57676e-05
3.62437e-06
3.65676e-07
1.84996e-06
0.000394571
0.000104158
3.78477e-07
1.17292e-07
2.32747e-05
2.83766e-08
2.49224e-06
4.74912e-05
8.31246e-06
0.000119036
0.000355267
4.31988e-05
7.80578e-08
1.41092e-07
9.12381e-12
1.52667e-11
3.81984e-06
1.31704e-05
6.40643e-06
0.00033289
0.000215784
4.42758e-05
3.18785e-10
9.12381e-12
1.32888e-12
1.10721e-09
1.61139e-12
1.28864e-11
1.1567e-06
0.000329159
0.000191607
5.21263e-05
6.07271e-09
4.49158e-11
1.90045e-12
2.17451e-12
1.96737e-12
1.48142e-14
9.34648e-15
0.000441864
0.00014431
3.97754e-05
3.81191e-08
6.33439e-10
7.76478e-12
2.05608e-12
2.41485e-12
1.22464e-14
1.21163e-14
0.000567723
7.97947e-05
2.37566e-05
9.63554e-08
2.31208e-09
3.04799e-11
2.31088e-12
2.36256e-12
2.27651e-13
2.74097e-14
0.000349932
5.80291e-05
1.37539e-05
5.28769e-08
1.33715e-09
1.66458e-11
1.14022e-12
8.94261e-13
2.3829e-13
7.38197e-14
1
1
1
1
1
1
1
1
1
1
1
1
1
1
1
1
1
1
1
1
1
1
1
1
1
1
1
1
1
1
0.999775
1
1
1
1
1
1
1
1
1
0.986236
0.997477
1
1
1
1
1
1
1
1
0.950801
0.951064
0.992248
1
0.999999
0.999999
1
1
1
1
0.428425
0.424256
0.655219
0.868317
0.973343
0.999933
0.999964
0.999987
0.999997
0.999998
0.00338042
0.00812055
0.00738309
0.0879679
0.338769
0.627067
0.842699
0.963306
0.999852
0.999929
0.000509942
0.00730245
8.27425e-05
4.3957e-05
3.82003e-05
3.29612e-05
0.101909
0.32093
0.662129
0.88064
0.000445148
0.00787419
0.0024421
3.82004e-05
3.4503e-05
2.41756e-05
8.75373e-06
1.04533e-05
0.0082171
0.308103
0.000644186
0.00418318
0.00136389
0.000871252
0.00107982
0.000643929
0.000101541
2.1103e-06
7.3172e-07
0.0227361
0.00020336
4.4563e-05
4.54685e-05
7.04353e-07
2.7307e-07
7.52026e-05
0.000586225
0.000216289
9.78495e-07
3.77153e-07
3.10829e-08
2.3532e-05
4.32625e-05
7.17434e-06
5.93507e-07
0.0004113
0.000283992
1.02117e-05
2.41188e-05
7.77131e-06
1.04659e-06
2.73719e-05
4.57275e-06
5.00031e-06
0.00011169
0.000138379
1.1442e-11
2.19454e-06
2.80083e-05
2.01562e-05
1.81844e-08
1.8833e-06
4.25304e-07
3.57664e-06
1.0279e-11
1.27477e-12
1.28387e-12
8.24943e-12
4.83812e-10
6.40124e-06
5.19858e-07
2.33608e-08
2.23609e-06
1.0279e-11
1.25598e-12
1.24214e-12
1.19251e-12
7.94426e-13
4.19876e-13
1.52803e-13
2.44194e-06
1.25431e-07
4.57662e-06
4.39048e-07
4.81368e-11
1.60299e-12
2.5083e-12
2.23034e-12
5.22328e-13
1.20112e-14
2.84321e-06
5.74304e-07
5.43388e-06
5.14396e-07
3.88376e-11
2.03734e-12
1.88978e-12
5.08036e-12
7.82515e-13
1.24117e-14
6.2011e-06
2.18886e-06
4.71619e-06
3.25172e-07
1.1935e-10
1.81877e-12
7.12389e-13
2.1085e-12
8.88509e-13
4.61298e-14
3.43386e-06
1.25152e-05
4.01247e-06
2.76119e-07
1.18299e-10
1.63573e-12
2.92019e-13
2.64254e-13
2.42507e-13
3.36802e-14
1
1
1
1
1
1
1
1
1
1
1
1
1
1
1
1
1
1
1
1
1
1
1
1
1
1
1
1
1
1
1
1
1
1
1
1
1
1
1
1
1
1
1
1
1
1
1
1
1
1
1
1
1
0.999999
0.999999
0.999999
1
1
1
1
0.771225
0.832472
0.915655
0.972826
0.998452
0.999951
0.999977
0.999994
0.999998
0.999999
0.0137656
0.0507973
0.153388
0.33354
0.555918
0.758316
0.902945
0.984587
0.999911
0.999945
0.000139576
0.000108037
0.000102298
4.461e-05
4.41838e-05
0.0406928
0.175733
0.411801
0.746345
0.870506
0.000529718
0.0015846
0.00142773
4.03636e-05
3.93016e-05
3.29612e-05
2.26163e-05
1.65042e-05
0.0461947
0.337598
0.00148992
0.00139662
0.00131684
0.000635679
8.96192e-05
0.00030691
0.000217391
6.34105e-06
2.1103e-06
0.0450574
5.42193e-05
1.37664e-06
8.69422e-07
2.14083e-06
8.80972e-07
0.000554822
0.000586225
0.000181207
1.6461e-06
9.78495e-07
2.21692e-08
3.17558e-08
2.83258e-07
1.57299e-06
0.000304623
0.000571661
0.000260607
5.17021e-06
7.32467e-05
3.05717e-05
1.69868e-08
1.78348e-08
3.33173e-07
7.42395e-05
0.000346353
0.00016601
2.25777e-12
3.08643e-06
4.7626e-06
1.35321e-05
1.00029e-08
3.6757e-09
8.93611e-08
2.42049e-10
6.92063e-06
1.24209e-12
1.14269e-12
1.02472e-12
6.50315e-13
2.06762e-07
8.59191e-09
4.6632e-10
1.19614e-11
1.31929e-12
1.20229e-12
1.22452e-12
1.2001e-12
8.55994e-13
2.45057e-13
1.905e-13
1.68071e-08
1.88921e-09
1.00596e-10
1.20159e-08
1.11279e-10
2.65596e-12
3.07861e-12
2.8288e-12
5.17903e-13
1.88201e-13
9.69093e-08
1.46722e-08
1.3201e-09
3.03078e-08
1.23187e-09
1.25235e-12
1.8701e-12
2.55825e-12
5.88553e-13
2.75285e-13
2.43201e-07
4.5501e-08
3.78947e-09
3.0328e-08
1.5682e-09
5.26546e-13
6.02048e-13
9.3295e-13
5.94735e-13
2.59598e-13
1.30665e-07
3.0556e-08
3.00222e-09
3.0792e-08
1.66898e-09
2.59651e-13
1.6867e-13
1.02556e-13
1.90396e-13
3.32877e-14
1
1
1
1
1
1
1
1
1
1
1
1
1
1
1
1
1
1
1
1
1
1
1
1
1
1
1
1
1
1
1
1
1
1
1
1
1
1
1
1
1
1
1
1
1
1
1
1
1
1
1
1
1
0.999999
0.999999
1
1
1
1
1
0.982211
0.993255
0.997313
0.999924
0.999952
0.999973
0.999989
0.999998
0.999999
0.999999
0.311325
0.391479
0.503611
0.625132
0.758696
0.875177
0.957405
0.997842
0.999951
0.99996
6.16923e-05
2.67572e-05
2.41598e-05
3.55301e-05
0.0399548
0.137392
0.281693
0.541677
0.804714
0.851047
8.04072e-05
8.14852e-06
8.95116e-06
2.97138e-05
3.55301e-05
4.6365e-05
4.25725e-05
7.37511e-06
0.111011
0.366548
0.000993997
0.000130411
0.000628604
0.000381087
0.000191049
0.000320474
8.93432e-05
4.56787e-06
2.78193e-06
0.0783584
3.13446e-05
6.46659e-08
6.01672e-07
1.15493e-06
0.000487341
0.000588372
0.000390975
7.97701e-06
1.66347e-06
1.53175e-06
1.67835e-08
1.45002e-08
6.4666e-08
0.000260876
0.000548836
0.000427632
9.31492e-06
8.84734e-06
7.35865e-05
2.51383e-05
9.11455e-09
3.66606e-09
1.05998e-05
8.21674e-05
0.00015456
1.10358e-06
2.84087e-11
3.43821e-06
7.58829e-06
2.44129e-06
5.3476e-09
6.07866e-10
1.22157e-11
1.31938e-12
1.20229e-12
1.22328e-12
1.46919e-12
7.96421e-12
2.19505e-11
7.17998e-12
4.83188e-09
1.72069e-11
1.367e-12
1.20229e-12
1.1739e-12
1.20355e-12
1.14132e-12
9.86227e-13
6.10558e-13
2.33562e-13
2.25503e-09
9.79473e-11
2.21248e-12
1.31938e-12
3.11987e-12
2.67702e-12
3.27332e-12
4.54143e-12
4.50233e-13
1.69602e-13
1.46813e-09
1.89941e-10
1.33592e-11
2.16881e-12
1.85224e-11
1.79482e-12
1.58666e-12
1.86414e-12
4.0411e-13
1.70605e-13
4.84657e-09
7.45509e-10
5.30095e-11
3.37051e-12
3.33007e-11
1.0363e-12
3.96774e-13
4.49232e-13
3.77664e-13
1.59717e-13
2.816e-09
5.4972e-10
4.58401e-11
3.8384e-12
3.54169e-11
7.71647e-13
4.48254e-14
5.63521e-14
1.24766e-13
2.45157e-14
1
1
1
1
1
1
1
1
1
1
1
1
1
1
1
1
1
1
1
1
1
1
1
1
1
1
1
1
1
1
1
1
1
1
1
1
1
1
1
1
1
1
1
1
1
1
1
1
1
1
1
0.999999
0.999999
1
1
1
1
1
1
1
0.999963
0.999951
0.999952
0.999964
0.999978
0.999989
0.999997
0.999999
1
1
0.704834
0.735675
0.780141
0.842688
0.903974
0.957833
0.992642
0.999937
0.999972
0.999974
9.20559e-06
0.0033101
0.0389085
0.100424
0.177646
0.283301
0.459298
0.694068
0.825177
0.830233
4.64419e-06
4.85475e-06
5.15017e-06
8.95116e-06
2.02734e-05
4.25725e-05
6.47707e-06
0.0122579
0.190996
0.410501
1.23234e-05
7.26764e-07
1.68812e-06
6.53341e-05
0.000204098
9.29581e-05
3.86137e-06
4.5535e-06
3.44667e-06
0.0923948
2.34569e-05
1.03072e-06
1.11956e-06
0.000454063
0.000568489
0.000446438
1.76965e-05
4.07389e-06
1.66091e-06
1.59555e-06
2.21692e-08
6.43804e-08
4.2803e-05
0.000213331
0.000247479
7.28947e-06
5.52006e-07
1.5561e-05
7.33384e-05
4.36905e-06
1.67835e-08
4.09646e-08
3.39631e-08
1.19152e-11
2.28053e-12
2.75413e-11
4.7001e-07
5.04834e-06
6.97827e-06
1.1396e-08
7.46474e-09
3.18718e-09
1.98205e-11
1.23343e-12
1.06932e-12
1.51697e-12
8.6633e-11
2.74005e-10
6.66145e-10
8.29928e-11
1.82184e-09
2.88906e-10
1.16501e-09
1.15152e-12
1.15753e-12
1.18968e-12
3.71806e-12
1.23275e-10
1.26433e-11
4.65599e-12
2.71242e-09
4.17165e-10