/*--------------------------------*- C++ -*----------------------------------*\
| =========                 |                                                 |
| \\      /  F ield         | OpenFOAM: The Open Source CFD Toolbox           |
|  \\    /   O peration     | Version:  2312                                  |
|   \\  /    A nd           | Website:  www.openfoam.com                      |
|    \\/     M anipulation  |                                                 |
\*---------------------------------------------------------------------------*/
FoamFile
{
    version     2.0;
    format      ascii;
    arch        "LSB;label=32;scalar=64";
    class       volScalarField;
    location    "0.485";
    object      p;
}
// * * * * * * * * * * * * * * * * * * * * * * * * * * * * * * * * * * * * * //

dimensions      [1 -1 -2 0 0 0 0];

internalField   nonuniform List<scalar> 
8000
(
375.563
374.827
373.53
371.774
369.714
367.563
365.513
363.746
362.409
361.614
327.894
327.079
325.689
323.793
321.585
319.29
317.117
315.258
313.858
313.027
281.608
280.657
279.066
276.888
274.375
271.776
269.341
267.281
265.737
264.817
236.91
235.74
233.843
231.226
228.249
225.189
222.374
220.055
218.34
217.306
194.037
192.407
190.171
186.933
183.282
179.476
176.066
173.497
171.566
170.481
153.599
151.71
148.54
144.284
139.505
134.95
130.952
127.479
125.148
123.908
115.903
113.478
109.238
103.372
96.4736
90.3214
84.9272
80.8982
78.2926
76.9672
80.658
78.6397
72.6369
64.264
55.4539
46.0162
38.9261
35.0542
33.0921
32.1929
55.304
50.4664
41.1845
29.3897
17.9053
10.6267
7.40339
5.95458
5.23778
4.9777
34.1277
26.4846
14.2828
4.84632
0.337031
-0.121708
-0.168617
-0.187101
-0.203441
-0.206768
19.0025
8.8405
-0.338087
-0.355088
-0.269974
-0.213412
-0.231163
-0.240726
-0.249585
-0.254487
16.0584
2.77274
-0.462658
-0.398272
-0.351713
-0.32384
-0.318434
-0.31288
-0.315246
-0.323003
11.7052
0.750272
-0.461168
-0.409709
-0.425036
-0.421131
-0.415278
-0.405602
-0.403382
-0.406811
-0.665094
-0.725249
-0.60136
-0.526107
-0.516131
-0.502719
-0.496305
-0.487838
-0.479409
-0.475943
-0.708754
-0.713058
-0.648438
-0.644735
-0.619458
-0.579817
-0.559723
-0.550348
-0.541731
-0.535638
-0.689606
-0.69605
-0.682808
-0.724503
-0.705812
-0.650588
-0.618981
-0.604943
-0.595463
-0.589858
-0.745336
-0.724262
-0.709846
-0.738552
-0.742222
-0.704295
-0.674598
-0.658891
-0.649181
-0.643895
-0.788032
-0.769343
-0.740155
-0.74557
-0.758618
-0.746167
-0.723115
-0.710683
-0.70234
-0.69784
-0.819974
-0.818487
-0.793644
-0.786877
-0.789891
-0.779919
-0.767243
-0.759181
-0.753349
-0.750093
-0.846044
-0.854706
-0.845682
-0.835673
-0.821373
-0.816265
-0.811474
-0.807181
-0.803421
-0.801144
374.811
374.056
372.735
370.946
368.837
366.632
364.522
362.697
361.312
360.488
327.061
326.227
324.821
322.892
320.633
318.282
316.036
314.106
312.646
311.775
280.635
279.681
278.085
275.874
273.305
270.637
268.121
265.997
264.389
263.434
235.702
234.58
232.699
230.038
226.998
223.875
220.969
218.521
216.7
215.628
192.347
190.992
188.865
185.548
181.781
177.903
174.393
171.75
169.716
168.552
151.642
149.994
147.046
142.879
138.114
133.411
129.527
125.821
123.43
122.174
113.398
111.719
107.864
102.243
95.7424
89.1002
83.2562
79.1272
76.3568
74.99
78.5605
77.0528
71.7829
64.0824
55.0599
46.117
39.5343
36.6777
34.7421
33.7583
50.3381
47.3797
40.0581
30.3233
21.1055
15.5421
11.5103
9.46136
8.35588
7.91785
26.3018
23.2103
15.0705
6.79957
1.0094
-0.122892
-0.216413
-0.231757
-0.248632
-0.254776
8.578
11.3619
2.36541
-0.427166
-0.29939
-0.220451
-0.260231
-0.270519
-0.278568
-0.282463
1.64574
-0.369325
-0.620089
-0.468144
-0.388843
-0.361972
-0.346888
-0.34042
-0.341152
-0.345936
0.703302
-0.520868
-0.563322
-0.488473
-0.466907
-0.455839
-0.441221
-0.428752
-0.426846
-0.42451
-0.726202
-0.650162
-0.566233
-0.53975
-0.534412
-0.526228
-0.517712
-0.498993
-0.490927
-0.485839
-0.739638
-0.672832
-0.616971
-0.615473
-0.607944
-0.592531
-0.577679
-0.56734
-0.554537
-0.544394
-0.698564
-0.718471
-0.685642
-0.700664
-0.695776
-0.668433
-0.632942
-0.620355
-0.606534
-0.59677
-0.746321
-0.786512
-0.758749
-0.76167
-0.766087
-0.728256
-0.686155
-0.665427
-0.653032
-0.646292
-0.802764
-0.817252
-0.801411
-0.79672
-0.79909
-0.760864
-0.728505
-0.711731
-0.702495
-0.697661
-0.840818
-0.846919
-0.838114
-0.815404
-0.794034
-0.775996
-0.764666
-0.757634
-0.75194
-0.749012
-0.857982
-0.870571
-0.857086
-0.817447
-0.799558
-0.805526
-0.807682
-0.805051
-0.801625
-0.799746
373.479
372.7
371.321
369.441
367.216
364.882
362.643
360.695
359.204
358.317
325.634
324.783
323.318
321.296
318.911
316.417
314.034
311.968
310.387
309.434
279.002
278.042
276.4
274.099
271.401
268.588
265.914
263.613
261.858
260.794
233.763
232.65
230.746
228.007
224.824
221.541
218.431
215.786
213.768
212.561
190.083
188.825
186.605
183.244
179.395
175.55
171.827
168.717
166.283
164.881
148.408
146.997
144.203
140.012
135.035
130.077
125.606
122.037
119.699
118.469
109.009
107.692
104.23
98.8797
92.3401
85.8842
80.0881
75.4112
72.0786
70.891
72.2561
71.5854
67.5981
60.5584
52.4768
44.8283
38.1593
34.9943
33.4782
32.5433
40.7271
39.8883
35.3364
27.2567
18.8603
13.2341
9.47877
7.24891
6.11286
5.74653
14.1994
14.8875
11.8202
6.02703
1.07986
-0.210241
-0.257438
-0.270835
-0.288013
-0.29034
-0.0676658
1.81574
-0.305169
-0.400349
-0.366369
-0.3236
-0.310346
-0.312408
-0.319863
-0.321705
-0.64663
-0.661604
-0.585096
-0.473586
-0.42823
-0.385741
-0.362745
-0.353623
-0.353277
-0.356806
-0.44645
-0.554726
-0.526327
-0.505555
-0.489125
-0.466274
-0.443005
-0.430265
-0.424857
-0.420673
-0.604245
-0.574663
-0.5546
-0.557777
-0.554564
-0.532662
-0.504323
-0.485732
-0.481843
-0.476834
-0.646045
-0.643979
-0.615618
-0.616788
-0.616587
-0.598718
-0.569724
-0.550661
-0.539736
-0.533585
-0.676007
-0.729848
-0.700786
-0.683108
-0.683815
-0.663103
-0.628691
-0.610255
-0.597521
-0.589767
-0.752581
-0.824954
-0.793593
-0.755456
-0.751935
-0.718743
-0.681172
-0.661722
-0.649187
-0.642701
-0.813278
-0.864488
-0.846308
-0.808479
-0.785549
-0.753963
-0.724701
-0.709194
-0.699401
-0.695193
-0.848403
-0.866145
-0.85609
-0.80986
-0.786094
-0.774323
-0.763284
-0.755853
-0.749546
-0.746362
-0.858212
-0.8677
-0.849428
-0.801509
-0.798829
-0.805114
-0.806022
-0.803483
-0.799556
-0.797432
371.675
370.863
369.392
367.385
364.999
362.484
360.058
357.927
356.266
355.32
323.685
322.802
321.242
319.081
316.514
313.812
311.217
308.947
307.185
306.128
276.766
275.773
274.04
271.576
268.647
265.564
262.611
260.054
258.093
256.885
231.073
229.921
227.937
224.994
221.493
217.815
214.299
211.305
209.092
207.703
186.745
185.414
183.156
179.614
175.336
170.773
166.318
162.673
160.211
158.586
143.991
142.586
139.853
135.558
130.189
124.694
119.249
114.683
111.27
109.217
102.95
101.912
98.7052
93.4279
85.9504
78.7399
72.2177
66.9154
63.0033
61.2538
63.6143
63.6294
60.3693
52.7684
43.8412
35.0307
28.8636
24.8659
22.2975
21.5454
28.4763
29.7559
27.0517
19.312
12.0761
6.90338
4.39514
3.15265
2.47154
2.20001
4.43829
6.32873
5.63222
2.23849
0.0368246
-0.256136
-0.267767
-0.295694
-0.340819
-0.371471
-0.331141
-0.380396
-0.394252
-0.408974
-0.3969
-0.351939
-0.339991
-0.346866
-0.357665
-0.355269
-0.400283
-0.469533
-0.480462
-0.457044
-0.418157
-0.382166
-0.364475
-0.354961
-0.350112
-0.356281
-0.390178
-0.468956
-0.500538
-0.499553
-0.475226
-0.449267
-0.431099
-0.418915
-0.410702
-0.409803
-0.497799
-0.526623
-0.541991
-0.560369
-0.546605
-0.515428
-0.492754
-0.47849
-0.47172
-0.465718
-0.588598
-0.604102
-0.606448
-0.618971
-0.609668
-0.581176
-0.557761
-0.542035
-0.53354
-0.524852
-0.660869
-0.6972
-0.692107
-0.682004
-0.670937
-0.645428
-0.61775
-0.600379
-0.589422
-0.581668
-0.741918
-0.802591
-0.792898
-0.758828
-0.734872
-0.701571
-0.671376
-0.654222
-0.643038
-0.636675
-0.804667
-0.847438
-0.853257
-0.817228
-0.780489
-0.745781
-0.718718
-0.704539
-0.695213
-0.690334
-0.833957
-0.847781
-0.857514
-0.821466
-0.797089
-0.775702
-0.761426
-0.752806
-0.746089
-0.742432
-0.851925
-0.852576
-0.841792
-0.818495
-0.813391
-0.809166
-0.805335
-0.801082
-0.796648
-0.794073
369.555
368.694
367.105
364.935
362.343
359.607
356.959
354.611
352.69
351.745
321.412
320.479
318.792
316.443
313.64
310.681
307.831
305.312
303.308
302.138
274.183
273.136
271.268
268.567
265.327
261.896
258.603
255.724
253.468
252.021
228.009
226.805
224.672
221.399
217.461
213.301
209.341
205.917
203.141
201.146
182.959
181.598
179.219
175.215
170.194
164.853
159.872
155.634
152.007
148.879
139.096
137.774
134.825
130.062
123.414
116.493
110.214
104.539
99.1696
94.2057
95.9822
95.2499
92.0809
85.8579
78.0716
69.1377
61.4922
55.033
49.7319
46.5015
54.3959
54.3341
52.0791
43.7143
34.0495
25.2188
19.6446
16.3592
14.2285
12.6668
17.0358
20.0845
18.4246
12.027
6.2561
2.94558
1.52176
0.627747
0.253568
0.0273612
0.248516
0.562057
0.823723
-0.00906862
-0.226467
-0.265911
-0.29425
-0.350219
-0.396216
-0.432872
-0.269615
-0.296973
-0.345018
-0.397664
-0.347805
-0.343267
-0.342539
-0.334337
-0.335538
-0.324606
-0.357615
-0.389044
-0.433912
-0.427291
-0.396825
-0.370277
-0.351503
-0.340216
-0.333205
-0.336889
-0.423275
-0.45733
-0.481491
-0.478938
-0.451131
-0.422568
-0.40475
-0.393408
-0.383665
-0.389474
-0.500268
-0.51886
-0.529865
-0.540597
-0.520097
-0.491355
-0.471573
-0.458668
-0.44894
-0.447377
-0.571573
-0.58372
-0.591007
-0.597739
-0.581338
-0.557128
-0.538464
-0.525527
-0.515752
-0.510784
-0.646539
-0.66585
-0.669645
-0.660216
-0.643194
-0.619102
-0.600671
-0.587265
-0.577598
-0.571226
-0.719325
-0.748173
-0.750158
-0.72584
-0.706771
-0.678677
-0.65873
-0.644815
-0.635278
-0.629301
-0.776278
-0.797649
-0.802516
-0.780197
-0.75613
-0.729185
-0.71085
-0.698124
-0.689382
-0.683648
-0.811181
-0.817462
-0.820092
-0.804498
-0.786461
-0.768929
-0.757378
-0.74809
-0.740649
-0.735063
-0.843774
-0.840634
-0.828999
-0.822055
-0.813219
-0.807772
-0.803236
-0.797509
-0.79172
-0.787268
367.342
366.424
364.701
362.343
359.523
356.553
353.681
351.155
348.986
347.992
319.05
318.056
316.22
313.655
310.585
307.348
304.229
301.463
299.217
297.977
271.51
270.391
268.368
265.381
261.779
257.949
254.267
250.976
248.343
246.606
224.871
223.597
221.286
217.6
213.169
208.446
203.879
199.767
195.969
193.248
179.11
177.688
175.2
170.49
164.714
158.51
152.477
146.727
141.265
135.891
134.442
132.992
129.782
124.528
116.462
108.18
99.3003
89.386
75.5222
64.2975
89.5477
88.4821
85.5098
78.6283
69.4288
58.5175
48.1786
38.775
21.1042
14.6498
44.6993
45.1802
44.092
35.0062
25.359
17.4661
12.0429
9.25367
3.22154
2.19527
9.69548
14.2773
12.6051
6.85496
3.07489
1.15423
0.176904
-0.0461236
-0.327196
0.118848
-0.114616
-0.120156
-0.20421
-0.214094
-0.224712
-0.267953
-0.278418
-0.293425
-0.346105
-0.195955
-0.204149
-0.211407
-0.313053
-0.351654
-0.348046
-0.336385
-0.308284
-0.291169
-0.273749
-0.275213
-0.332052
-0.358041
-0.387643
-0.401074
-0.391377
-0.359332
-0.324476
-0.30718
-0.289314
-0.309243
-0.427054
-0.454413
-0.461696
-0.458995
-0.435197
-0.400054
-0.37493
-0.363238
-0.348539
-0.362263
-0.499404
-0.520009
-0.521954
-0.521917
-0.501916
-0.472986
-0.448517
-0.434832
-0.423949
-0.425864
-0.563513
-0.575382
-0.579315
-0.578609
-0.563078
-0.539946
-0.519201
-0.506324
-0.497634
-0.493735
-0.631409
-0.643438
-0.644272
-0.637309
-0.624091
-0.601858
-0.586064
-0.573757
-0.566618
-0.562804
-0.695954
-0.71391
-0.712774
-0.696897
-0.681349
-0.662122
-0.647889
-0.635876
-0.629642
-0.627724
-0.750057
-0.759419
-0.759682
-0.745609
-0.73044
-0.71555
-0.703253
-0.691644
-0.685217
-0.681934
-0.792858
-0.795074
-0.790967
-0.782866
-0.770239
-0.760936
-0.75262
-0.743204
-0.73607
-0.730317
-0.833534
-0.831678
-0.822682
-0.817346
-0.80876
-0.80606
-0.800761
-0.793838
-0.786883
-0.780969
365.235
364.254
362.391
359.834
356.777
353.574
350.492
347.819
345.405
344.572
316.814
315.744
313.758
310.963
307.615
304.096
300.735
297.829
295.246
293.968
269
267.794
265.601
262.309
258.324
254.082
250.037
246.656
243.663
241.573
221.948
220.575
218.075
213.966
209.014
203.625
198.449
194.134
191.529
188.326
175.513
173.945
171.371
166.022
159.526
152.184
144.686
138.314
131.325
125.406
130.442
129.032
125.287
119.045
110.098
99.1491
84.6463
65.5666
43.6945
38.0797
84.0588
82.6699
79.7645
72.1535
61.629
48.2159
32.8923
14.7625
5.95942
8.57958
37.3859
38.6883
37.4577
29.0282
19.9857
12.144
7.57124
2.48821
1.59037
1.85399
6.50555
10.5951
9.00639
4.43035
1.5704
0.203725
0.055724
0.0609857
0.238373
0.51219
-0.153461
-0.185051
-0.218758
-0.226074
-0.288187
-0.281
-0.177715
-0.156032
-0.127828
0.0150962
-0.228711
-0.258037
-0.306942
-0.353275
-0.367545
-0.346022
-0.272144
-0.233467
-0.196815
-0.333648
-0.341051
-0.35968
-0.37864
-0.395819
-0.402968
-0.37373
-0.313745
-0.279767
-0.227824
-0.319342
-0.433224
-0.45893
-0.456023
-0.453286
-0.435641
-0.399166
-0.360609
-0.339978
-0.305905
-0.340798
-0.499911
-0.518442
-0.513431
-0.511887
-0.493249
-0.4592
-0.431381
-0.414703
-0.398298
-0.40573
-0.557795
-0.568737
-0.570923
-0.56625
-0.552468
-0.526241
-0.506282
-0.491841
-0.484654
-0.491112
-0.619625
-0.62857
-0.628226
-0.620113
-0.609374
-0.590362
-0.577216
-0.564567
-0.562302
-0.574882
-0.679276
-0.687818
-0.684141
-0.674127
-0.663986
-0.652164
-0.641242
-0.630689
-0.630492
-0.645963
-0.73194
-0.735195
-0.731855
-0.724302
-0.715144
-0.707819
-0.698051
-0.688213
-0.685954
-0.690998
-0.779417
-0.77962
-0.775565
-0.770282
-0.76195
-0.757469
-0.74914
-0.740225
-0.734089
-0.729928
-0.824713
-0.823314
-0.818483
-0.813937
-0.808362
-0.805287
-0.798449
-0.791053
-0.782429
-0.775374
363.427
362.382
360.384
357.627
354.334
350.931
347.691
345.523
342.822
341.597
314.911
313.762
311.623
308.596
304.962
301.175
297.747
295.368
292.202
290.755
266.89
265.61
263.215
259.614
255.221
250.511
246.465
243.922
240.473
238.094
219.583
218.071
215.338
210.8
205.25
198.994
193.564
191.541
187.579
181.716
172.966
171.253
168.215
162.19
154.849
145.84
138.393
132.429
120.257
107.88
126.838
125.287
121.735
114.511
104.027
87.9757
64.653
49.383
37.0617
24.0993
79.9858
78.5622
75.2948
67.1087
55.0809
37.0599
12.2215
6.92812
3.09417
2.35794
33.5365
35.7939
34.6445
25.6827
16.7686
8.759
1.55764
0.975658
0.572475
1.06837
5.21338
8.6885
7.10242
3.42161
0.77783
0.0744807
0.0879321
0.217626
0.176403
0.298246
-0.18017
-0.216833
-0.22825
-0.251991
-0.312015
-0.237119
-0.122555
-0.096419
-0.12927
-0.244839
-0.249431
-0.281378
-0.316029
-0.345607
-0.363394
-0.340074
-0.28877
-0.255645
-0.241959
-0.329306
-0.345111
-0.367632
-0.385493
-0.398973
-0.401015
-0.375025
-0.343548
-0.293028
-0.245501
-0.264523
-0.434012
-0.455145
-0.453024
-0.454538
-0.44377
-0.391478
-0.357269
-0.325422
-0.293763
-0.28682
-0.499187
-0.515535
-0.508922
-0.50636
-0.497041
-0.44349
-0.411076
-0.395259
-0.37829
-0.366158
-0.553429
-0.563787
-0.562217
-0.556705
-0.546483
-0.5112
-0.489121
-0.479239
-0.473606
-0.488774
-0.610741
-0.617641
-0.614934
-0.607889
-0.597951
-0.577124
-0.568815
-0.560999
-0.557977
-0.594103
-0.667395
-0.672382
-0.667647
-0.66215
-0.652423
-0.642163
-0.645329
-0.630538
-0.63228
-0.664163
-0.720472
-0.722225
-0.718492
-0.714787
-0.705536
-0.700251
-0.70293
-0.68881
-0.686509
-0.693335
-0.770183
-0.770068
-0.766925
-0.764336
-0.757055
-0.749074
-0.749793
-0.740419
-0.731192
-0.735983
-0.818139
-0.817225
-0.814348
-0.812063
-0.808058
-0.803114
-0.794558
-0.791227
-0.77843
-0.792379
362.076
360.977
358.86
355.923
352.386
348.699
345.248
342.532
340.064
338.944
313.497
312.28
310
306.76
302.835
298.726
294.905
291.823
288.617
286.639
265.328
263.978
261.403
257.524
252.717
247.448
242.691
239.402
233.83
231.701
217.837
216.222
213.253
208.401
202.038
194.472
189.627
186.633
173.204
168.821
171.027
169.17
165.729
159.475
150.531
139.491
130.91
121.517
97.04
96.1096
124.509
122.914
119.41
111.139
97.3463
71.3441
43.2794
38.7008
22.7981
33.8169
77.3938
75.7319
71.8041
63.3246
48.9332
14.9149
3.35178
1.76314
10.7269
26.9247
31.7499
33.8382
33.7661
24.0375
14.4745
2.02688
0.940597
0.297971
3.63446
11.5532
4.65849
7.77751
6.34784
3.0712
0.584297
0.123438
0.353206
0.304589
0.247571
0.761515
-0.203795
-0.247234
-0.248429
-0.274908
-0.29084
-0.189944
0.0387927
0.0389434
-0.0821633
-0.112916
-0.260309
-0.294216
-0.332133
-0.352723
-0.34038
-0.289348
-0.229823
-0.268197
-0.263305
-0.349036
-0.341522
-0.365217
-0.389331
-0.404202
-0.400673
-0.386256
-0.377482
-0.354011
-0.282276
-0.284629
-0.43052
-0.44647
-0.448949
-0.452934
-0.442172
-0.420159
-0.392684
-0.360976
-0.30419
-0.309209
-0.497684
-0.50973
-0.500456
-0.49902
-0.483903
-0.466999
-0.43525
-0.402929
-0.363286
-0.380452
-0.550703
-0.559915
-0.551523
-0.547385
-0.533806
-0.517342
-0.501277
-0.475976
-0.456294
-0.505612
-0.605187
-0.6102
-0.603224
-0.599403
-0.586199
-0.568014
-0.569244
-0.552511
-0.54699
-0.590913
-0.659589
-0.661273
-0.656512
-0.652429
-0.641026
-0.62803
-0.631802
-0.623387
-0.63301
-0.666518
-0.71287
-0.713038
-0.709223
-0.705678
-0.697161
-0.686865
-0.684939
-0.685648
-0.70031
-0.718358
-0.763875
-0.763408
-0.760586
-0.757756
-0.754386
-0.742056
-0.733355
-0.740306
-0.75135
-0.768755
-0.813532
-0.8128
-0.810762
-0.808643
-0.8097
-0.796592
-0.785789
-0.790852
-0.799328
-0.836846
361.3
360.167
357.973
354.932
351.252
347.511
344.117
341.129
339.001
338.905
312.689
311.427
309.052
305.673
301.556
297.343
293.392
289.881
287.129
287.643
264.439
263.046
260.342
256.281
251.199
245.59
240.4
236.212
232.371
233.565
216.851
215.18
212.052
206.929
199.898
191.622
185.262
179.74
172.683
176.078
169.95
168.014
164.369
157.693
146.965
132.952
121.757
112.422
102.983
118.622
123.325
121.733
118.24
109.015
91.1548
65.0928
42.7974
32.385
36.3343
71.6391
76.1334
74.3161
70.2653
60.5956
42.641
12.9349
4.00023
3.3753
24.8325
51.345
31.0917
32.9819
33.3102
23.4306
12.5712
1.48542
1.48023
1.20331
13.2326
21.6897
4.48671
7.58829
6.18159
2.91975
0.374642
0.443575
0.719791
0.592577
0.522496
1.06255
-0.213627
-0.244495
-0.24568
-0.299063
-0.314687
0.00587763
0.208316
0.133679
0.135708
0.316999
-0.268226
-0.294697
-0.331386
-0.352797
-0.331513
-0.252827
-0.151013
-0.127429
-0.22927
-0.176365
-0.337809
-0.362033
-0.389784
-0.407084
-0.396083
-0.369951
-0.318798
-0.290995
-0.285476
-0.252805
-0.423443
-0.439
-0.445478
-0.447419
-0.432786
-0.4062
-0.386878
-0.359164
-0.294091
-0.259406
-0.495026
-0.502299
-0.495486
-0.490155
-0.475732
-0.454856
-0.430224
-0.392102
-0.342028
-0.255166
-0.550024
-0.557486
-0.545016
-0.537385
-0.524757
-0.511505
-0.495177
-0.46418
-0.426148
-0.316824
-0.603038
-0.607884
-0.596605
-0.58995
-0.579574
-0.573523
-0.564904
-0.545334
-0.540841
-0.501537
-0.656269
-0.657482
-0.65
-0.64479
-0.637676
-0.637173
-0.632265
-0.621628
-0.643561
-0.616485
-0.708673
-0.708738
-0.703807
-0.699641
-0.696551
-0.698725
-0.694819
-0.68822
-0.710558
-0.683388
-0.760078
-0.759787
-0.756616
-0.753764
-0.754149
-0.757356
-0.752851
-0.746936
-0.760127
-0.79145
-0.81063
-0.810086
-0.808237
-0.806126
-0.808193
-0.810379
-0.805671
-0.797889
-0.804772
-0.821397
361.164
360.014
357.786
354.69
350.903
347.028
343.444
340.554
338.642
338.422
312.549
311.268
308.85
305.399
301.148
296.76
292.604
289.127
286.682
286.903
264.294
262.875
260.111
255.94
250.623
244.732
239.272
234.952
231.413
233.055
216.704
214.998
211.783
206.502
199.117
190.063
183.315
178.37
171.385
176.713
169.807
167.832
164.089
157.146
145.897
130.47
119.236
112.294
100.413
121.894
123.188
121.549
117.915
108.193
89.0529
57.8645
32.1866
31.7637
43.1426
86.3205
76.0426
74.1518
69.858
59.19
40.4374
11.1098
4.14188
6.71731
37.6059
73.4785
31.1068
32.8683
33.4088
23.2431
12.2551
0.999066
1.18339
0.768667
2.72945
9.10185
4.4529
7.506
6.19784
2.9582
-0.00763119
0.281658
0.650832
0.426753
0.483132
0.810507
-0.212583
-0.244768
-0.248827
-0.314959
-0.433212
-0.136739
0.0846462
0.111658
0.198678
0.351266
-0.265671
-0.290859
-0.328281
-0.363694
-0.346139
-0.293206
-0.262565
-0.180144
-0.161299
-0.0829226
-0.335744
-0.359675
-0.386727
-0.406231
-0.392657
-0.354049
-0.308574
-0.265827
-0.265117
-0.252798
-0.421781
-0.439354
-0.446459
-0.445638
-0.425369
-0.388428
-0.343999
-0.300984
-0.29764
-0.271577
-0.493936
-0.502106
-0.496164
-0.488451
-0.470318
-0.443438
-0.411305
-0.379207
-0.377721
-0.239991
-0.550592
-0.555711
-0.543855
-0.534896
-0.520925
-0.505506
-0.488369
-0.467274
-0.458561
-0.200584
-0.602957
-0.607544
-0.595193
-0.588553
-0.578602
-0.572084
-0.564856
-0.556049
-0.550463
-0.228443
-0.655554
-0.656989
-0.649788
-0.644853
-0.637997
-0.63852
-0.636887
-0.636605
-0.662969
-0.588912
-0.707407
-0.70752
-0.703233
-0.700354
-0.69656
-0.701297
-0.700633
-0.698872
-0.72544
-0.719187
-0.758844
-0.758272
-0.75563
-0.753937
-0.753275
-0.757914
-0.756274
-0.746926
-0.753736
-0.732011
-0.809499
-0.808852
-0.807047
-0.805999
-0.806593
-0.808862
-0.805552
-0.796342
-0.792824
-0.764445
361.688
360.547
358.346
355.276
351.531
347.56
343.868
341.369
339.411
339.292
313.099
311.832
309.449
306.042
301.878
297.519
293.48
290.207
287.649
286.423
264.92
263.5
260.777
256.649
251.451
245.64
240.122
235.985
231.579
228.453
217.425
215.713
212.53
207.291
200.299
191.713
184.167
179.817
170.255
161.083
170.619
168.641
164.925
158.129
148.322
135.548
125.621
114.956
100.21
93.6246
124.129
122.403
118.645
109.679
95.5543
69.6433
37.1645
22.5851
30.9726
49.8992
77.1607
75.3814
71.2183
62.3772
48.2745
16.5987
3.07908
-0.540514
5.44738
17.5893
31.8061
33.79
33.6521
23.5411
14.152
2.33567
0.69581
0.381537
0.756516
2.08405
4.57874
7.75294
6.42381
3.05203
0.12639
-0.295235
0.229932
0.368772
0.33669
0.599031
-0.202354
-0.24313
-0.25352
-0.292741
-0.430431
-0.352292
-0.10584
-0.00254445
0.0320637
-0.0404786
-0.258857
-0.285899
-0.323571
-0.368183
-0.367605
-0.311895
-0.221117
-0.191428
-0.181413
-0.258152
-0.334111
-0.358227
-0.38111
-0.398827
-0.384655
-0.329528
-0.269609
-0.255491
-0.256113
-0.283585
-0.421305
-0.440609
-0.446755
-0.445722
-0.421674
-0.376547
-0.332141
-0.309847
-0.305827
-0.318973
-0.494405
-0.506168
-0.499351
-0.49153
-0.472954
-0.443711
-0.412025
-0.388992
-0.385907
-0.417243
-0.551983
-0.558223
-0.548409
-0.538866
-0.52548
-0.510118
-0.491823
-0.476342
-0.473331
-0.530054
-0.604008
-0.609215
-0.601262
-0.593296
-0.583022
-0.574771
-0.565611
-0.557711
-0.559566
-0.599119
-0.656272
-0.659211
-0.654399
-0.648498
-0.641425
-0.637397
-0.633269
-0.630548
-0.635765
-0.654124
-0.708375
-0.708846
-0.705338
-0.701662
-0.697636
-0.695798
-0.693627
-0.691272
-0.696231
-0.706065
-0.759449
-0.758764
-0.75612
-0.753829
-0.751575
-0.750633
-0.74885
-0.745173
-0.749291
-0.75615
-0.809798
-0.808948
-0.806892
-0.805128
-0.803612
-0.802846
-0.801993
-0.800158
-0.811572
-0.828249
362.836
361.734
359.626
356.697
353.171
349.55
346.339
343.866
342.17
342.521
314.31
313.093
310.819
307.583
303.657
299.534
295.853
293.076
291.355
291.841
266.283
264.908
262.333
258.437
253.587
248.222
243.424
239.503
237.121
238.087
218.993
217.363
214.363
209.403
203.119
195.868
188.542
182.631
177.606
173.906
172.408
170.538
167.095
160.718
152.263
141.724
131.353
121.182
105.923
88.1837
126.337
124.666
120.765
112.938
101.472
85.1677
60.5291
35.8738
22.9494
21.4411
79.6562
78.1249
74.6401
66.0217
53.0929
34.5615
12.2267
2.69337
2.23032
3.86826
33.5036
35.6202
34.5537
25.0883
15.4204
7.10051
1.66594
0.67378
0.781522
1.31306
5.08629
8.70675
7.28978
3.48738
0.586654
0.044694
0.141065
0.27118
0.592264
0.533184
-0.179384
-0.223683
-0.253042
-0.26191
-0.357721
-0.280566
-0.118379
-0.0397919
0.210312
0.0317439
-0.244192
-0.272609
-0.315986
-0.358913
-0.359628
-0.304486
-0.219589
-0.203578
-0.20339
-0.280647
-0.328941
-0.352765
-0.371146
-0.387789
-0.38005
-0.331658
-0.285959
-0.282857
-0.322405
-0.306454
-0.419833
-0.439467
-0.446057
-0.444088
-0.42567
-0.387072
-0.354685
-0.343536
-0.347378
-0.340418
-0.494969
-0.508567
-0.498484
-0.493785
-0.479216
-0.454711
-0.426162
-0.409632
-0.402273
-0.406286
-0.554277
-0.563826
-0.552937
-0.54481
-0.534163
-0.518491
-0.498629
-0.482458
-0.474334
-0.487426
-0.60776
-0.616877
-0.611555
-0.60266
-0.592228
-0.579801
-0.566224
-0.553786
-0.546076
-0.558177
-0.660672
-0.665874
-0.663478
-0.657405
-0.648362
-0.639031
-0.62962
-0.620754
-0.612284
-0.618601
-0.711935
-0.713463
-0.711181
-0.707168
-0.701259
-0.695212
-0.68867
-0.681432
-0.672572
-0.66695
-0.761979
-0.761317
-0.758471
-0.755878
-0.752672
-0.74908
-0.744834
-0.739303
-0.735867
-0.719277
-0.811378
-0.810246
-0.807531
-0.805714
-0.80375
-0.801786
-0.800148
-0.799032
-0.813161
-0.827155
364.506
363.464
361.494
358.754
355.481
352.082
348.958
346.467
344.789
345.013
316.078
314.929
312.801
309.805
306.175
302.35
298.764
295.883
294.241
294.301
268.268
266.927
264.591
261.016
256.606
251.814
247.09
243.412
241.158
241.871
221.28
219.826
217.035
212.515
206.895
200.619
194.332
188.316
184.981
183.755
174.957
173.211
170.321
164.509
157.07
148.386
138.916
128.801
116.551
89.4356
129.917
128.64
124.397
117.644
107.543
95.3406
80.2606
59.3627
28.6557
21.7954
83.7213
82.3153
79.2304
71.2261
59.7366
44.8206
29.5103
11.7335
3.70646
5.1228
37.1495
38.326
37.5148
28.783
19.018
10.5084
5.24493
1.37059
0.880998
1.186
6.33687
10.5914
9.29928
4.64231
1.55904
0.196515
0.119655
0.0225288
0.234143
0.600444
-0.149349
-0.191408
-0.232744
-0.23831
-0.278707
-0.263491
-0.157475
-0.145247
-0.0660555
0.0640855
-0.220766
-0.251123
-0.31213
-0.343888
-0.346876
-0.311727
-0.260369
-0.24184
-0.240291
-0.252401
-0.321004
-0.343106
-0.368317
-0.383525
-0.378039
-0.340217
-0.30038
-0.289277
-0.305611
-0.29802
-0.41511
-0.431573
-0.438107
-0.438944
-0.423398
-0.394014
-0.362878
-0.349388
-0.352561
-0.343967
-0.492883
-0.504284
-0.495975
-0.494805
-0.482854
-0.462766
-0.437674
-0.420844
-0.416231
-0.411253
-0.555524
-0.566341
-0.557672
-0.552396
-0.542273
-0.527955
-0.507523
-0.491002
-0.4846
-0.478157
-0.611943
-0.624009
-0.6231
-0.613721
-0.603788
-0.589151
-0.572499
-0.558129
-0.551192
-0.540744
-0.667486
-0.676583
-0.675179
-0.667501
-0.658547
-0.646687
-0.633548
-0.621735
-0.614149
-0.60111
-0.718362
-0.720818
-0.71885
-0.714894
-0.708608
-0.700172
-0.690836
-0.681639
-0.673848
-0.66038
-0.766592
-0.765323
-0.76232
-0.759653
-0.756314
-0.751437
-0.745564
-0.739251
-0.733418
-0.722467
-0.814298
-0.81231
-0.808298
-0.806477
-0.804661
-0.802234
-0.799452
-0.796519
-0.796785
-0.79266
366.538
365.563
363.732
361.216
358.215
355.088
352.173
349.811
348.217
347.928
318.25
317.188
315.224
312.475
309.171
305.697
302.438
299.803
298.163
297.9
270.733
269.528
267.345
264.112
260.169
255.94
251.903
248.584
246.452
245.951
224.153
222.781
220.263
216.251
211.304
205.909
200.607
195.924
192.75
190.901
178.494
176.931
174.24
169.166
162.687
155.536
148.237
140.921
133.159
121.054
133.969
132.463
128.999
123.321
114.468
105.18
95.2176
84.4074
68.5718
49.4579
89.3127
88.2237
85.1084
77.9715
67.951
56.058
45.5288
34.7747
17.9252
6.28788
44.6426
45.288
44.2017
35.0737
25.0294
16.5577
10.7227
6.92192
2.98401
2.17207
9.5763
14.2986
12.9101
7.20904
3.12708
1.14108
0.168232
-0.0446343
-0.294961
-0.0407303
-0.11758
-0.116513
-0.190726
-0.215906
-0.233085
-0.254086
-0.277474
-0.285464
-0.340492
-0.297782
-0.198481
-0.202651
-0.318118
-0.349497
-0.336856
-0.325871
-0.306236
-0.297277
-0.309558
-0.352145
-0.322488
-0.339295
-0.377715
-0.390434
-0.380038
-0.353404
-0.323448
-0.311945
-0.32015
-0.34173
-0.41212
-0.4165
-0.430559
-0.443605
-0.429532
-0.404005
-0.382444
-0.371025
-0.37208
-0.37496
-0.491463
-0.489098
-0.48944
-0.503012
-0.492536
-0.472494
-0.452188
-0.43859
-0.433299
-0.42782
-0.559711
-0.572705
-0.56669
-0.566177
-0.554173
-0.539538
-0.519012
-0.505266
-0.497418
-0.488546
-0.621876
-0.63688
-0.645368
-0.631872
-0.618528
-0.601749
-0.582181
-0.568744
-0.560479
-0.552086
-0.680966
-0.693555
-0.703725
-0.6887
-0.674663
-0.657652
-0.641259
-0.628663
-0.621059
-0.613523
-0.730966
-0.733341
-0.736266
-0.728131
-0.719504
-0.708483
-0.696012
-0.686149
-0.679145
-0.672579
-0.774351
-0.770709
-0.765693
-0.762179
-0.760332
-0.755224
-0.748202
-0.741654
-0.735886
-0.729789
-0.818919
-0.814027
-0.805138
-0.804008
-0.804379
-0.802845
-0.799888
-0.796446
-0.793454
-0.788557
368.727
367.818
366.134
363.834
361.1
358.249
355.579
353.374
351.872
351.358
320.6
319.611
317.816
315.315
312.331
309.203
306.268
303.849
302.234
301.705
273.409
272.297
270.294
267.397
263.905
260.199
256.69
253.822
251.926
251.167
227.308
226.031
223.731
220.207
215.921
211.317
206.876
203.139
200.55
199.106
182.377
180.949
178.366
174.06
168.642
162.71
156.91
151.814
147.6
143.475
138.697
137.317
134.177
129.027
122.118
114.656
107.117
100.398
94.3692
86.1777
95.8853
95.0832
91.7888
85.5295
77.4332
68.3187
59.6819
51.6626
44.7462
38.6156
54.4721
54.4437
52.1168
44.0208
34.4004
25.2176
18.9983
14.8953
12.4823
11.901
17.2476
20.1626
18.6446
12.4611
6.66825
3.16403
1.60211
0.594158
0.0303815
-0.093465
0.151029
0.628478
0.92672
0.101563
-0.198918
-0.256636
-0.298926
-0.335118
-0.39023
-0.421952
-0.296442
-0.304742
-0.346526
-0.388426
-0.335654
-0.337962
-0.341087
-0.343254
-0.354333
-0.370008
-0.355795
-0.363382
-0.419605
-0.416369
-0.388019
-0.363876
-0.343301
-0.335869
-0.336327
-0.343843
-0.414334
-0.421905
-0.446308
-0.461992
-0.445988
-0.419037
-0.404192
-0.394334
-0.390932
-0.391351
-0.510986
-0.50618
-0.500592
-0.519178
-0.511464
-0.48612
-0.468238
-0.456793
-0.450809
-0.446778
-0.590886
-0.610169
-0.594182
-0.584999
-0.574787
-0.55435
-0.533858
-0.521514
-0.514015
-0.507661
-0.651153
-0.69971
-0.690531
-0.664317
-0.641594
-0.618491
-0.595399
-0.58215
-0.573562
-0.56643
-0.707837
-0.747235
-0.749089
-0.727719
-0.70247
-0.675503
-0.651877
-0.638365
-0.629417
-0.62272
-0.754335
-0.760848
-0.771315
-0.759064
-0.742923
-0.721149
-0.702886
-0.692108
-0.684194
-0.677981
-0.786108
-0.776347
-0.77829
-0.770101
-0.767573
-0.759907
-0.751506
-0.744631
-0.738679
-0.733257
-0.824732
-0.813678
-0.798044
-0.795257
-0.800849
-0.802617
-0.800529
-0.797076
-0.793193
-0.788443
370.856
370.005
368.457
366.35
363.855
361.258
358.822
356.794
355.381
354.772
322.892
321.966
320.319
318.039
315.339
312.52
309.874
307.675
306.148
305.482
276.026
274.985
273.147
270.534
267.426
264.158
261.07
258.511
256.768
256.019
230.426
229.225
227.113
223.975
220.247
216.293
212.505
209.321
207.171
206.176