/*--------------------------------*- C++ -*----------------------------------*\
| =========                 |                                                 |
| \\      /  F ield         | OpenFOAM: The Open Source CFD Toolbox           |
|  \\    /   O peration     | Version:  2312                                  |
|   \\  /    A nd           | Website:  www.openfoam.com                      |
|    \\/     M anipulation  |                                                 |
\*---------------------------------------------------------------------------*/
FoamFile
{
    version     2.0;
    format      ascii;
    arch        "LSB;label=32;scalar=64";
    class       surfaceScalarField;
    location    "1.175";
    object      alphaPhi0.water;
}
// * * * * * * * * * * * * * * * * * * * * * * * * * * * * * * * * * * * * * //

dimensions      [0 3 -1 0 0 0 0];

oriented        oriented;

internalField   nonuniform List<scalar> 
22600
(
-5.64661e-08
1.87276e-07
-1.3081e-07
-6.43107e-08
2.27122e-07
-2.19277e-07
-3.50334e-08
2.61279e-07
-2.90557e-07
-9.41653e-09
2.23341e-07
-2.48957e-07
-7.98537e-09
1.6078e-07
-1.62211e-07
-1.88977e-08
1.1584e-07
-1.04928e-07
-2.46201e-08
8.67118e-08
-8.09895e-08
-1.20479e-08
6.07814e-08
-7.33536e-08
3.04138e-08
2.91587e-08
-7.16205e-08
-3.96532e-09
-7.57719e-08
-3.81904e-08
3.68177e-07
-1.4271e-07
-7.21584e-08
3.89062e-07
-1.27972e-07
-1.11928e-07
5.01719e-07
-2.0067e-07
-1.18475e-07
5.00769e-07
-2.70882e-07
-1.17755e-07
3.9162e-07
-2.31559e-07
-1.20396e-07
2.72865e-07
-1.54385e-07
-1.10323e-07
1.84633e-07
-1.07994e-07
-7.43192e-08
1.13019e-07
-8.82414e-08
-2.35049e-09
3.12481e-08
-7.40581e-08
-6.60203e-08
-5.59958e-08
1.06428e-07
3.14869e-07
-5.31198e-08
6.24854e-08
3.04516e-07
1.28489e-07
-1.25459e-07
6.19268e-07
7.03955e-08
-2.33488e-07
6.58311e-07
-4.95135e-08
-2.35133e-07
5.51958e-07
-1.58693e-07
-2.04057e-07
4.12183e-07
-1.70394e-07
-1.92194e-07
2.93518e-07
-1.20748e-07
-1.8252e-07
1.73895e-07
-7.055e-08
-7.81129e-08
-7.83226e-08
5.16339e-09
-3.57268e-07
7.8374e-08
1.8681e-07
-5.82921e-09
1.33887e-07
1.63991e-07
1.67485e-08
3.10586e-07
-1.33277e-07
6.49992e-07
2.66544e-07
-3.76369e-07
7.22862e-07
1.78541e-07
-4.27285e-07
5.79552e-07
2.33221e-08
-4.06631e-07
4.62098e-07
-7.05691e-08
-4.03128e-07
3.42013e-07
-5.19978e-08
-3.2385e-07
6.8867e-08
2.57504e-08
-9.29469e-08
-4.4499e-07
1.35765e-07
-7.65021e-07
1.68626e-07
-2.6872e-08
-1.79177e-07
2.0022e-07
-1.3529e-07
-2.21641e-08
1.4733e-07
-4.11126e-07
6.45651e-07
2.80177e-07
-6.33811e-07
6.86093e-07
2.59453e-07
-6.71286e-07
4.87657e-07
1.29371e-07
-6.15127e-07
3.68703e-07
3.72354e-08
-4.9805e-07
1.89843e-07
3.50935e-08
-2.45008e-07
-2.54644e-07
7.04683e-08
-2.7924e-10
-7.67447e-07
7.7728e-08
-9.30104e-07
2.57868e-08
-2.25385e-07
3.46357e-07
-3.00149e-07
-3.34971e-07
4.90111e-07
-4.02688e-07
-5.14368e-07
8.28671e-07
-3.6237e-09
-6.48667e-07
7.79591e-07
4.08023e-08
-6.78022e-07
5.89924e-07
-7.29121e-08
-6.26539e-07
4.25128e-07
-1.07908e-07
-4.89811e-07
1.30635e-07
-7.75217e-08
-2.64606e-07
-4.08781e-07
-7.10694e-08
-1.20545e-07
-7.95425e-07
-1.16085e-07
-9.40344e-07
-1.62093e-07
-2.77784e-07
8.31774e-07
-7.08336e-07
-4.18282e-07
9.70526e-07
-8.55986e-07
-5.43335e-07
1.12909e-06
-6.19812e-07
-7.30952e-07
1.172e-06
-5.63261e-07
-8.80566e-07
1.15312e-06
-5.75767e-07
-9.02553e-07
9.67724e-07
-5.2061e-07
-7.64808e-07
4.15823e-07
-4.22934e-07
-6.62206e-07
-1.50645e-07
-3.60809e-07
-4.4502e-07
-6.12434e-07
-4.00333e-07
-8.78957e-07
-4.66823e-07
-2.65361e-07
-1.05431e-08
-9.6816e-08
-3.70075e-07
2.18782e-09
-2.92631e-07
-5.77153e-07
3.0616e-08
-3.18829e-07
-9.24127e-07
1.24033e-07
-2.3766e-07
-1.33267e-06
2.19298e-07
-1.80226e-07
-1.57559e-06
2.49258e-07
-2.35017e-07
-1.56718e-06
1.50664e-07
-3.1384e-07
-1.23413e-06
-5.03655e-08
-3.21638e-07
-6.99339e-07
-2.34721e-07
-3.47099e-07
-3.25743e-07
-4.34348e-07
-1.51777e-08
2.75948e-09
-6.48596e-09
-2.71963e-08
4.25264e-09
2.84827e-09
-3.7718e-08
2.49624e-09
4.89794e-09
-7.664e-08
-2.08138e-10
5.35309e-09
-1.11553e-07
4.82181e-09
-1.4018e-09
-1.00136e-07
7.15683e-09
-7.76529e-09
-2.80626e-08
1.48604e-09
-7.27574e-09
-4.05513e-08
-2.00937e-09
-4.03219e-10
-6.44194e-08
-2.45285e-09
5.70029e-09
-1.92735e-09
1.85268e-08
-9.52618e-10
2.11128e-09
1.87073e-10
-1.56562e-09
1.47173e-09
1.79854e-09
-1.64224e-09
-5.39882e-10
3.71741e-09
-2.5495e-09
-7.10261e-11
6.14161e-09
-4.30052e-09
-3.4548e-10
6.71166e-09
-2.16484e-09
-8.98219e-10
5.4816e-09
-2.65931e-10
-2.57988e-09
2.00944e-09
-7.00145e-11
-3.00807e-09
2.10523e-10
-6.23214e-11
-2.56763e-09
1.44601e-10
-1.96134e-09
1.13775e-10
-2.02444e-10
1.33079e-09
4.31075e-10
-9.81065e-10
-1.23141e-10
1.18068e-09
-3.01465e-09
-4.59828e-10
2.12983e-09
-3.98802e-09
-2.33143e-10
1.7137e-09
-3.13648e-09
-9.75649e-10
8.01302e-10
-2.1715e-09
-3.11559e-09
4.23224e-10
-1.9413e-09
-2.64773e-09
1.11552e-10
-1.67189e-09
-2.71696e-09
-1.62707e-10
-9.90865e-10
-2.54417e-09
-1.2172e-10
-1.43374e-09
-1.6492e-11
-5.35815e-10
9.88249e-10
4.89316e-10
-1.99865e-09
-7.07108e-10
3.15248e-09
-6.47188e-10
2.78787e-11
5.11702e-10
-1.2095e-09
2.10243e-11
4.16012e-11
-2.93496e-09
-4.11926e-10
-1.71875e-10
-3.48753e-09
-1.49823e-09
-8.15067e-10
-2.7939e-09
-2.04836e-09
-1.03277e-09
-2.2568e-09
-2.05819e-09
-9.3972e-10
-1.86121e-09
-4.76112e-10
-4.05367e-10
-1.18441e-10
-3.69041e-11
-8.68356e-10
8.07448e-10
5.33855e-10
-1.2448e-09
-8.34163e-10
1.38364e-09
-9.69773e-10
3.9793e-10
1.57524e-10
-1.50087e-09
1.97761e-10
-6.93189e-11
-3.70649e-09
3.54151e-10
-1.14266e-09
-3.29455e-09
-4.89509e-10
-1.22688e-09
-2.9048e-09
-1.05205e-09
-1.12176e-09
-5.24381e-10
-5.45024e-11
-5.42076e-10
-6.98556e-11
-8.34637e-11
-4.26585e-11
-1.01636e-10
-4.51956e-11
-8.45144e-10
1.26055e-09
6.48511e-10
-1.64521e-09
-5.22701e-10
8.79591e-10
-7.50996e-10
8.58675e-10
2.62562e-11
-5.68468e-10
2.47349e-10
-3.71898e-10
-2.7508e-09
4.78295e-10
-1.06332e-09
-2.65632e-09
4.39362e-10
-7.64886e-10
-1.17506e-10
-9.40417e-12
-3.19407e-10
-1.18949e-10
-4.00287e-11
-2.17818e-11
-9.31046e-11
-5.45178e-11
-1.16252e-11
-4.41102e-11
-8.71844e-11
-1.16931e-09
1.4099e-09
4.35588e-10
-1.69401e-09
-2.43039e-10
6.28158e-10
-5.20591e-10
1.11226e-09
1.83461e-10
-2.88628e-10
1.23082e-10
-1.11246e-10
-2.92273e-10
1.0713e-10
-1.52353e-10
-4.99717e-11
4.26508e-11
9.0937e-11
-7.22191e-11
-6.776e-12
6.37646e-12
-1.08433e-10
-2.64553e-11
9.87618e-12
-1.8106e-10
-2.02712e-10
4.34497e-11
-1.4311e-10
-5.37577e-12
-1.30036e-09
1.20183e-09
1.47871e-10
-1.66316e-09
3.28613e-10
1.72854e-10
-9.5256e-11
3.95102e-10
2.7515e-10
-3.10312e-11
4.24654e-11
7.8727e-12
-2.30276e-11
5.60711e-11
3.44877e-11
-3.39492e-11
1.31356e-11
2.80193e-11
-6.69131e-11
-8.8339e-12
2.08317e-11
-9.47725e-11
-3.05777e-11
1.71062e-11
-7.18006e-10
-2.26546e-10
7.45349e-11
-9.09866e-10
2.01589e-11
-6.57958e-10
3.33327e-10
1.9397e-11
-1.28025e-09
3.23778e-10
-1.2045e-10
-2.23612e-11
-2.72626e-12
5.74642e-11
-1.24502e-11
1.27314e-11
1.14643e-11
-1.23697e-11
2.57649e-11
2.13004e-11
-2.4221e-11
-6.40246e-11
3.55692e-11
-2.39233e-11
-1.82458e-11
2.57775e-11
-5.40594e-11
-5.52774e-12
2.21456e-11
-1.05317e-09
-1.14317e-10
2.78983e-11
-1.20317e-09
-4.03121e-11
-6.34636e-11
2.09346e-10
-3.95181e-12
-1.06045e-10
1.77122e-11
-1.75816e-11
-4.48629e-11
-7.28737e-12
1.3379e-11
-1.23555e-10
-1.81111e-11
3.08458e-11
-2.90143e-10
-1.62651e-10
1.54095e-10
-3.89133e-10
-2.56462e-10
2.7332e-10
-1.94025e-10
-2.45075e-10
1.51991e-10
-2.10505e-11
-1.19883e-10
2.36437e-11
-1.97058e-10
-1.59492e-12
9.32724e-12
-2.61012e-10
-9.45415e-11
1.23776e-12
1.95081e-10
3.03332e-13
-6.85109e-12
2.2723e-11
-2.92979e-12
-8.92712e-11
1.67065e-11
4.45137e-12
-3.9454e-10
-6.72535e-11
7.69246e-11
-4.96542e-10
-3.07639e-10
2.28884e-10
-6.41605e-10
-4.19447e-10
2.93336e-10
-7.32966e-10
-4.29379e-10
2.64347e-10
-3.7076e-10
-4.05742e-10
1.193e-10
-1.30954e-10
-2.14154e-10
6.02227e-12
-6.94404e-11
-6.74344e-12
2.77697e-11
5.78025e-13
4.57294e-10
-2.3798e-13
-1.32756e-12
4.85553e-11
-8.95565e-12
2.25275e-12
1.78182e-11
-1.79939e-10
4.28552e-11
-8.99332e-12
-4.94837e-10
1.69436e-10
-1.77917e-10
-7.1868e-10
2.32122e-10
-4.39043e-10
-8.42534e-10
2.31558e-10
-5.35251e-10
-8.59809e-10
1.5427e-10
-5.27707e-10
-4.30498e-10
1.73208e-11
-4.67692e-10
-5.66552e-12
-2.28558e-10
-1.29183e-07
1.99454e-07
-2.0108e-07
-8.67614e-08
5.23604e-09
-2.66935e-07
4.82314e-08
-6.41559e-08
-3.61394e-07
1.34977e-07
1.41359e-08
-3.49839e-07
1.47878e-07
7.12676e-08
-2.4638e-07
1.32454e-07
6.48751e-08
-1.54379e-07
1.15498e-07
4.22535e-08
-1.06286e-07
1.0492e-07
2.16845e-08
-8.44602e-08
1.03923e-07
2.42877e-09
-7.30522e-08
-2.63762e-08
-7.21103e-08
9.45926e-09
2.90875e-07
-2.43591e-07
1.96698e-07
-2.71568e-07
-3.8405e-08
2.31326e-07
-2.52113e-07
-4.73355e-08
1.98839e-07
1.41607e-08
-2.3842e-07
1.36641e-07
2.14847e-07
-3.12939e-07
8.05593e-08
2.00496e-07
-2.33924e-07
5.3733e-08
1.10664e-07
-1.49578e-07
5.45405e-08
3.77349e-08
-1.05099e-07
7.47587e-08
-1.22105e-08
-7.96371e-08
-8.83761e-08
-5.41232e-08
2.88223e-07
1.05962e-07
-1.5643e-07
5.27123e-07
-7.39087e-07
3.57113e-07
3.81006e-07
-4.20648e-07
3.85038e-07
1.70775e-07
5.05739e-08
1.2431e-07
8.65131e-08
3.15313e-07
-1.74897e-07
6.21929e-08
3.16053e-07
-2.61631e-07
5.06885e-08
1.8867e-07
-1.87249e-07
3.00673e-08
8.92133e-08
-1.01407e-07
3.362e-08
2.91005e-09
-1.35099e-08
-2.41437e-07
1.04586e-07
3.47413e-07
-1.65329e-07
5.77656e-08
3.10775e-07
-8.47401e-07
4.55383e-07
9.4916e-10
-3.35851e-07
4.91491e-07
-2.39234e-07
1.13804e-07
3.55494e-07
-2.34681e-07
2.81401e-07
5.26811e-08
-1.46077e-07
3.06693e-07
-1.49813e-07
-1.24015e-07
2.4098e-07
-1.2637e-07
-1.34273e-07
1.28586e-07
-3.36387e-09
-2.07947e-08
-1.26959e-07
1.52155e-07
-5.30716e-07
2.72169e-07
7.29589e-08
5.23968e-08
-9.04656e-08
-2.09636e-07
-3.83112e-07
-3.43515e-08
-5.28863e-07
1.28898e-08
2.50664e-07
-6.59046e-07
1.71156e-07
3.32284e-07
-5.75499e-07
1.75192e-07
1.52033e-07
-4.11478e-07
1.64925e-07
1.49819e-08
-2.4436e-07
8.99952e-08
1.89601e-08
-1.18548e-08
-1.22356e-07
8.89057e-08
2.46024e-07
-4.49577e-07
1.42468e-07
-7.02472e-07
1.70741e-07
2.69777e-08
6.43557e-07
-9.18287e-07
-3.55582e-07
4.93753e-07
-8.96994e-07
-5.51828e-07
5.72077e-07
-3.66566e-07
-5.66094e-07
4.76638e-07
-2.50413e-07
-4.92437e-07
3.39264e-07
-3.10641e-07
-3.49019e-07
2.00508e-07
-2.8691e-07
-1.29002e-07
9.62197e-09
-2.17166e-07
1.7765e-07
-3.54824e-07
-1.45254e-07
3.72947e-07
-6.41054e-07
-1.19906e-07
-7.38022e-07
-9.3465e-08
6.07878e-08
8.72333e-07
-1.51462e-06
-4.01814e-07
1.01409e-06
-1.44052e-06
-7.12227e-07
1.11769e-06
-1.30131e-06
-7.89613e-07
9.98357e-07
-1.34017e-06
-7.39747e-07
7.90901e-07
-1.29016e-06
-5.72132e-07
5.14357e-07
-1.10371e-06
-3.07505e-07
2.40937e-07
-9.18878e-07
-1.13263e-07
-1.28358e-07
-7.81574e-07
5.27035e-08
-5.43836e-07
-6.63641e-07
-7.62466e-07
-6.02796e-07
-3.07022e-07
-1.85845e-08
-2.32075e-07
-6.31635e-07
4.88785e-09
-3.97093e-07
-9.99572e-07
5.37534e-08
-4.77216e-07
-1.32719e-06
1.3458e-07
-4.79279e-07
-1.508e-06
1.84598e-07
-5.43708e-07
-1.49142e-06
1.74934e-07
-6.98825e-07
-1.26521e-06
1.06467e-07
-7.9774e-07
-9.1783e-07
-2.04937e-08
-7.77039e-07
-5.20431e-07
-1.8377e-07
-7.51625e-07
-3.11279e-07
-7.48393e-07
-4.58497e-08
3.78354e-09
7.36451e-09
-5.77376e-08
3.74872e-09
9.21429e-09
-8.26703e-08
7.52964e-10
1.37696e-09
-1.52542e-07
-1.40461e-09
-5.92381e-09
-2.04528e-07
1.70018e-09
-1.09999e-08
-2.07335e-07
4.59864e-09
-1.03599e-08
-1.7724e-07
-1.76853e-09
-6.91396e-09
-1.58995e-07
-1.16512e-09
-1.74909e-10
-1.49197e-07
-7.33886e-10
1.56008e-08
-3.7671e-10
2.51322e-08
-2.30895e-09
1.84767e-09
3.12665e-09
-2.20601e-09
-1.2881e-10
5.30943e-09
-1.89764e-09
-1.85013e-10
6.5557e-09
-4.96866e-09
-9.86307e-10
8.99049e-09
-5.96915e-09
1.24961e-10
8.73266e-09
-6.39927e-10
-4.74589e-11
4.63395e-09
-1.82166e-10
-6.04397e-10
3.65538e-10
-1.40838e-10
-1.15493e-09
1.43832e-10
-1.42615e-10
-6.91907e-10
8.30993e-11
-2.6052e-10
4.75298e-11
-6.55293e-10
1.1856e-09
1.44359e-09
-1.81363e-09
-8.53538e-10
4.18026e-09
-1.36411e-09
1.36639e-10
2.40625e-09
-8.80103e-10
2.49481e-10
8.31492e-10
-6.8418e-10
5.5047e-12
4.71403e-10
-1.22811e-09
-3.47019e-10
1.49963e-10
-1.5623e-09
-1.58595e-09
9.4644e-11
-1.53037e-09
-1.46153e-09
5.2418e-11
-7.4106e-10
-1.64989e-10
2.96216e-12
-2.81705e-11
-2.04012e-12
-9.32484e-10
1.23687e-09
1.18337e-09
-1.89036e-09
-6.50234e-10
4.73942e-09
-3.2832e-10
2.20868e-10
2.66658e-10
-3.01243e-10
1.10139e-10
5.54873e-11
-6.08557e-10
2.06743e-11
-2.97584e-12
-3.20223e-09
-1.22154e-09
-6.6223e-11
-3.48573e-09
-2.07665e-09
-1.05172e-10
-1.0849e-09
-1.57306e-09
-6.36085e-11
-7.641e-11
-6.95481e-11
-4.91851e-11
-4.16548e-11
-5.55346e-11
-2.51081e-09
1.18906e-09
1.49051e-09
-5.51175e-10
1.1418e-10
1.18128e-09
-4.2989e-10
1.81904e-10
2.97043e-11
-7.87324e-10
3.61242e-10
-3.18042e-11
-3.97186e-09
1.31551e-11
-1.46807e-10
-4.30993e-09
-1.39941e-09
-4.75723e-10
-3.4087e-09
-2.49814e-09
-1.18392e-09
-4.15749e-10
-3.38024e-10
-4.91311e-10
-1.90231e-10
-2.73536e-10
-9.7112e-11
-1.90568e-10
-3.53569e-11
-1.93938e-09
1.26119e-09
2.03208e-09
-9.23753e-10
8.59658e-10
5.72982e-10
-1.06608e-09
3.39822e-10
-2.87783e-11
-3.96108e-09
1.07043e-09
-3.37591e-10
-3.90159e-09
1.31782e-10
-9.80864e-10
-3.63157e-09
-1.06073e-09
-9.92577e-10
-1.29079e-09
-4.17265e-10
-8.73863e-10
-6.03453e-10
-1.5152e-10
-3.35678e-10
-1.13056e-09
-8.11947e-10
-7.83925e-11
-1.74665e-09
-1.23601e-11
-1.68206e-09
1.63279e-09
2.13576e-09
-8.74616e-10
1.35616e-09
4.88191e-10
-5.95419e-10
2.75482e-10
-4.45484e-11
-2.72856e-09
5.14042e-10
-3.04079e-10
-2.81349e-09
5.47334e-10
-3.9433e-10
-9.69642e-10
-3.13365e-11
-1.29938e-10
-3.61843e-10
-3.02729e-11
-6.72233e-12
-8.22478e-10
-9.00427e-11
-4.97641e-12
-2.16574e-09
-1.14496e-09
-2.52077e-11
-1.93597e-09
-2.20981e-11
-1.84056e-09
2.13862e-09
1.82765e-09
-6.3724e-10
9.24046e-10
4.02848e-10
-2.40321e-10
1.45605e-10
6.27116e-12
-2.16647e-10
1.02942e-10
-1.22115e-12
-4.38129e-11
5.31304e-11
1.44379e-10
-6.35441e-11
8.99966e-15
3.2167e-11
-9.14582e-11
-3.46588e-12
2.32948e-11
-6.17346e-10
-2.32899e-11
1.0723e-11
-1.92808e-09
-9.5623e-10
-1.3024e-10
-1.6059e-09
-1.65986e-10
-2.706e-09
6.53438e-10
7.46409e-10
-1.70782e-10
3.74569e-10
3.74697e-10
-5.99046e-11
6.11804e-11
2.41242e-11
-2.97517e-11
5.39814e-11
2.19351e-11
-2.64092e-11
2.60697e-11
3.86943e-11
-3.02602e-11
-2.60721e-12
3.08018e-11
-2.40371e-11
-7.32623e-12
2.6669e-11
-6.05719e-11
-2.00584e-12
1.52732e-11
-1.32661e-09
-9.07239e-11
-6.38371e-11
-7.62222e-10
-4.1364e-10
-5.79224e-10
2.27346e-11
2.38295e-10
-4.55879e-11
1.9199e-11
2.45939e-10
-4.28125e-11
2.9961e-11
2.91974e-11
-5.52181e-11
4.26592e-11
4.76858e-11
-1.87669e-10
-5.9713e-12
1.05993e-10
-2.7365e-10
-1.82385e-10
1.08318e-10
-6.0285e-11
-4.6728e-11
4.62455e-11
-4.61876e-11
-1.43016e-12
8.08714e-12
-1.22624e-10
-3.18768e-12
-5.40173e-12
-9.81098e-11
-2.39899e-10
-2.43229e-11
6.10594e-11
1.22142e-11
-2.95084e-11
1.25295e-11
5.42316e-12
-5.63992e-11
1.98998e-11
2.92677e-11
-2.61879e-10
3.26457e-11
3.67502e-11
-5.53165e-10
-2.36425e-10
3.04892e-10
-5.21099e-10
-3.7758e-10
4.38357e-10
-1.59562e-10
-1.47779e-10
8.75162e-11
-2.64884e-11
-3.76693e-12
1.17355e-11
-2.3273e-11
-6.74517e-13
-1.96818e-12
-9.53148e-12
-2.84265e-11
-3.03537e-12
2.21837e-13
7.06142e-11
-6.37595e-12
-4.76368e-13
1.25862e-11
-2.80814e-11
7.07757e-12
3.32776e-11
-2.80777e-10
1.03093e-10
-2.01841e-12
-5.01306e-10
2.48895e-10
-1.11352e-10
-6.68073e-10
2.55652e-10
-2.49741e-10
-1.72683e-10
9.45334e-11
-1.56986e-10
-2.9932e-11
9.74753e-12
-2.16723e-11
-1.9669e-11
-9.45579e-13
-1.41755e-12
-3.43089e-11
-3.7692e-13
-2.29569e-07
2.27908e-07
-1.99419e-07
-1.66824e-07
-1.9251e-07
-1.3717e-07
1.08094e-07
-5.07635e-07
-1.28677e-07
2.63233e-07
-3.53265e-07
-1.51714e-07
2.46731e-07
-8.04035e-08
-1.49474e-07
1.83718e-07
2.71682e-08
-1.18534e-07
1.39497e-07
2.54991e-08
-8.75655e-08
1.16539e-07
3.86902e-09
-6.53713e-08
1.06742e-07
-1.62214e-08
-4.70336e-08
-5.17712e-08
-3.61487e-08
-9.6072e-08
3.96796e-07
-3.16406e-07
1.92181e-07
-5.34483e-07
1.53152e-08
4.20118e-07
-9.19954e-07
1.37047e-07
4.43086e-07
-5.99144e-07
-1.55026e-08
3.24177e-07
-9.67836e-08
-1.7765e-07
1.76636e-07
1.28459e-07
-1.87673e-07
9.63439e-08
9.37901e-08
-1.37578e-07
7.6682e-08
1.26852e-08
-9.42537e-08
9.09169e-08
-5.03679e-08
-5.97255e-08
-1.19915e-07
-2.95291e-08
1.41723e-07
4.43531e-07
-3.44888e-07
4.99001e-07
-8.01551e-07
2.66998e-07
5.33368e-07
-1.00877e-06
4.39696e-07
4.30903e-07
-5.65564e-07
1.93248e-07
3.26062e-07
-5.06667e-08
-1.16175e-07
2.1128e-07
2.16713e-07
-2.35103e-07
1.34281e-07
1.70935e-07
-1.87395e-07
1.13555e-07
4.50675e-08
-1.13064e-07
9.94258e-08
-6.60087e-09
-4.31475e-08
-1.18058e-07
4.14342e-08
2.71037e-07
5.33156e-07
-3.02897e-07
3.02702e-07
-5.98251e-07
2.20487e-07
1.13193e-07
-7.4057e-07
4.12887e-07
-1.43315e-08
-3.51651e-07
2.69091e-07
4.38562e-09
2.79773e-08
-4.46801e-08
4.86919e-08
2.45361e-07
-2.22767e-07
4.57937e-08
2.47638e-07
-2.00175e-07
5.75456e-09
1.6803e-07
-8.62872e-08
1.60691e-08
9.62169e-08
3.90227e-08
-1.56369e-07
1.75938e-07
2.40937e-07
7.70105e-07
-5.68351e-07
-6.43474e-08
2.97794e-08
-3.57325e-07
-3.96428e-07
-1.59125e-07
9.62879e-10
-5.07146e-07
-8.43917e-09
9.97907e-08
-4.12246e-07
9.19523e-08
-6.84176e-09
-2.27453e-07
1.76362e-07
-1.00812e-07
-7.81058e-08
1.9416e-07
-7.69095e-08
2.27422e-08
1.54035e-07
2.05269e-09
1.29487e-07
7.04154e-08
6.15241e-08
-2.00446e-07
1.36041e-07
1.69008e-07
9.79288e-07
-1.29648e-06
-1.75503e-07
6.0538e-07
-1.12808e-06
-5.34414e-07
5.67731e-07
-7.34511e-07
-6.11546e-07
4.1798e-07
-5.99699e-07
-5.25692e-07
1.96522e-07
-5.01064e-07
-3.42868e-07
7.23528e-08
-3.65725e-07
-1.14844e-07
4.7156e-09
-2.55745e-07
1.17119e-07
-4.99018e-08
-1.7328e-07
2.96986e-07
-8.69826e-08
-1.42376e-07
-2.14176e-07
-9.91462e-08
6.63606e-08
8.33798e-07
-1.842e-06
-4.35238e-07
9.2665e-07
-1.69474e-06
-8.13523e-07
1.0169e-06
-1.74285e-06
-8.9257e-07
7.37772e-07
-1.81519e-06
-8.20002e-07
3.29647e-07
-1.59694e-06
-6.41988e-07
4.00643e-08
-1.25849e-06
-4.48165e-07
-5.53382e-08
-1.05265e-06
-2.06245e-07
-2.17909e-07
-8.55503e-07
5.97807e-08
-3.56116e-07
-6.60549e-07
-4.93315e-07
-5.23133e-07
-3.05311e-07
-3.52051e-08
-3.99891e-07
-6.52846e-07
-1.0994e-09
-5.59568e-07
-9.80107e-07
3.64319e-08
-7.39299e-07
-1.24634e-06
1.09003e-07
-8.89602e-07
-1.38773e-06
1.21505e-07
-1.04421e-06
-1.36933e-06
6.32871e-08
-1.19312e-06
-1.18034e-06
-4.18806e-08
-1.18223e-06
-8.53046e-07
-1.64673e-07
-1.07982e-06
-4.4552e-07
-2.99389e-07
-9.37107e-07
-4.25605e-07
-8.20572e-07
-6.87496e-08
3.23147e-09
2.70234e-08
-8.48772e-08
4.73013e-09
1.32332e-08
-9.17684e-08
2.64856e-10
-8.15366e-09
-1.34581e-07
2.74755e-10
-2.18438e-08
-1.68358e-07
4.8591e-10
-2.84789e-08
-2.08626e-07
2.9301e-09
-4.6578e-08
-2.58405e-07
-2.31812e-10
-7.45616e-08
-2.81858e-07
-1.45354e-10
-9.55149e-08
-2.46628e-07
-3.51691e-10
-9.32169e-08
-1.14265e-09
-9.81043e-08
-4.10806e-09
-1.90011e-11
9.01189e-09
-2.82624e-09
-4.35004e-10
9.33589e-09
-2.58531e-09
-4.61893e-10
8.79048e-09
-5.98781e-09
1.305e-09
1.03964e-08
-5.36649e-09
6.5421e-10
7.48863e-09
-1.8864e-10
3.33836e-11
2.35033e-09
-1.4133e-10
-4.91876e-12
8.42285e-11
-1.6406e-10
-2.59335e-12
1.57707e-11
-2.5979e-10
-3.66492e-12
-1.61288e-10
-2.63741e-11
-9.64042e-10
-1.58287e-09
2.61866e-10
2.48457e-09
-2.55839e-09
-2.17559e-09
6.25713e-09
-1.31243e-09
2.21318e-10
3.03748e-09
-8.26792e-10
3.64493e-10
1.18963e-09
-3.19131e-10
1.61798e-10
4.54519e-10
-2.54637e-10
7.79772e-11
6.45389e-11
-1.44034e-10
9.58647e-11
-1.28045e-12
-1.53002e-10
6.42115e-11
-2.91195e-12
-1.6601e-10
7.83074e-11
-2.26917e-11
9.9239e-11
-6.98299e-11
-6.20839e-10
9.72597e-10
1.22506e-09
-1.99916e-09
-1.00355e-09
2.47379e-09
-3.57668e-10
1.21021e-10
9.05077e-10
-1.72961e-10
1.36984e-10
9.7865e-11
-1.04504e-10
9.64214e-11
2.43436e-11
-9.43778e-11
5.38138e-11
-3.46284e-11
-8.57063e-11
2.88533e-11
-4.58105e-11
-8.56785e-11
2.03943e-11
-2.05173e-11
-9.25709e-11
4.94774e-11
-1.56212e-11
5.79244e-11
-2.8959e-11
-9.34232e-10
1.53643e-09
5.73504e-10
-1.05747e-09
-7.67678e-11
1.51939e-09
-1.55689e-10
1.94426e-10
7.08602e-11
-2.74808e-10
1.76593e-10
-2.21026e-12
-7.78981e-10
3.18402e-10
-7.36299e-13
-1.90893e-09
-1.87951e-10
4.41649e-11
-1.60424e-09
-8.8092e-10
1.01506e-11
-5.62739e-10
-8.4278e-10
-1.68566e-12
-6.74032e-11
-2.82143e-10
-5.7614e-12
1.62709e-11
-2.3593e-11
-1.27895e-09
1.34341e-09
7.09871e-10
-1.07377e-09
3.32766e-10
9.04307e-10
-4.50169e-10
6.2263e-10
3.16392e-11
-3.34246e-09
1.07322e-09
-1.30652e-10
-4.77727e-09
9.95845e-10
-6.9541e-11
-4.93585e-09
-4.76608e-10
-1.397e-10
-5.91954e-09
-2.74753e-10
-1.73866e-10
-5.55899e-09
-1.05302e-09
-8.38213e-11
-1.25797e-09
-1.06667e-09
1.34224e-10
-9.53768e-10
6.58894e-11
-1.41031e-09
1.28215e-09
5.91472e-10
-1.36863e-09
4.10206e-10
1.24326e-09
-1.12665e-09
1.49601e-09
1.36413e-10
-2.86486e-09
6.49368e-10
-1.03418e-10
-3.0196e-09
8.67385e-10
-6.66327e-11
-6.46405e-10
-1.85156e-10
-2.09992e-10
-4.78356e-10
-4.66517e-11
-2.82823e-11
-1.29129e-09
-1.07202e-10
-1.35073e-10
-2.0554e-09
-1.11553e-09
-3.55652e-10
-1.39087e-09
-2.49699e-11
-1.33896e-09
1.17683e-09
4.11497e-10
-1.32469e-09
2.11203e-10
1.60199e-09
-6.27469e-10
1.52467e-09
5.33956e-10
-7.95337e-10
2.46674e-10
1.2062e-11
-7.14638e-10
1.70049e-10
1.47909e-10
-2.06607e-10
6.01089e-12
2.77001e-10
-6.01518e-11
2.16673e-12
2.58799e-11
-1.47106e-10
-1.9215e-12
-3.53123e-12
-1.87074e-09
-1.56719e-10
-1.76854e-10
-8.97958e-10
-4.74838e-10
-1.22699e-09
6.71943e-10
1.53575e-10
-1.56568e-09
4.20083e-10
1.41104e-09
-7.45925e-10
6.13558e-10
7.87817e-10
-7.5589e-11
2.29472e-10
2.07264e-10
-2.49251e-11
6.12092e-11
1.10765e-10
-2.09994e-11
2.08321e-12
4.05577e-11
-1.08324e-11
3.65058e-12
4.57801e-11
6.65469e-12
6.95746e-12
1.37534e-11
-3.98732e-10
-2.72611e-12
-1.86326e-11
-2.79085e-10
-3.51182e-10
-2.78664e-10
6.3017e-11
9.70862e-11
-1.26495e-09
6.6801e-11
3.83844e-10
-5.61212e-10
1.23636e-10
8.05666e-10
-2.79141e-11
1.24281e-10
6.21794e-10
-2.29616e-11
4.56059e-11
1.13736e-10
-1.48704e-11
2.09398e-11
8.37861e-11
-1.03974e-11
4.98859e-12
3.95519e-11
-1.02724e-11
3.10008e-12
1.00226e-11
-1.87261e-11
1.69001e-12
-3.38845e-12
-1.05393e-11
-9.58755e-11
6.55254e-12
4.01852e-11
8.32302e-12
-1.19652e-10
4.3037e-11
1.34758e-11
-9.03235e-11
7.58833e-13
2.05469e-10
-5.67704e-11
1.49023e-11
2.3722e-10
-3.84649e-11
6.55789e-11
2.46457e-10
-2.01588e-11
4.00593e-11
3.31914e-10
-8.88471e-12
4.00601e-12
7.74117e-11
-7.42672e-12
2.06022e-12
8.65571e-12
-1.10228e-11
1.94217e-12
-4.22174e-13
5.66945e-12
-3.70813e-11
9.77843e-12
-5.54284e-13
1.72813e-11
1.11484e-12
6.91895e-13
3.39483e-11
-7.63273e-12
1.17484e-11
-1.52454e-13
-5.39405e-11
1.57004e-10
8.14623e-12
-9.13894e-11
5.3521e-11
4.54594e-11
-4.08582e-11
1.86899e-10
3.03682e-11
-7.82369e-12
6.36666e-11
2.62081e-12
-7.92105e-12
7.87976e-12
1.45861e-12
-1.26856e-11
-3.1204e-13
3.41148e-12
-2.95548e-11
3.87868e-11
-2.0085e-07
1.81224e-07
-1.79793e-07
-1.93913e-07
-1.20728e-07
-2.33788e-08
6.54019e-08
-4.51791e-07
6.37989e-08
2.28716e-07
-3.37685e-07
2.26578e-08
2.27568e-07
-1.05357e-07
-4.29686e-08
1.74825e-07
3.80044e-09
-6.95917e-08
1.32934e-07
2.00464e-08
-6.57214e-08
1.11405e-07
7.22709e-09
-5.10689e-08
1.05077e-07
-1.21314e-08
-2.85743e-08
-4.10982e-08
-9.1465e-09
-2.03904e-07
3.91169e-07
-3.22448e-07
-3.7562e-08
-2.85817e-07
1.40627e-08
2.5698e-07
-8.23339e-07
2.14053e-07
3.87329e-07
-6.10171e-07
1.26633e-07
3.05652e-07
-1.63179e-07
-3.81503e-08
1.70363e-07
6.41853e-08
-1.12769e-07
9.62871e-08
6.19648e-08
-1.0542e-07
8.23891e-08
1.63746e-10
-7.32925e-08
9.94602e-08
-6.1442e-08
-2.74858e-08
-1.14376e-07
1.05581e-08
-1.39998e-08
5.1406e-07
-4.53779e-07
2.60163e-07
-3.42526e-07
4.95779e-08
4.40655e-07
-8.77993e-07
3.14034e-07
4.93361e-07
-6.75285e-07
2.05724e-07
4.04954e-07
-1.69011e-07
-2.19339e-08
2.45381e-07
1.30755e-07
-1.42099e-07
1.36362e-07
1.25958e-07
-1.42369e-07
1.11088e-07
1.03421e-08
-9.79678e-08
1.14617e-07
-5.72965e-08
-5.08221e-08
-1.07908e-07
-3.0308e-09
1.57652e-07
6.73582e-07
-6.20071e-07
3.07136e-07
-9.09182e-08
-1.80657e-07
2.94306e-07
-5.78002e-07
1.25943e-07
2.69295e-07
-4.73291e-07
9.21757e-08
2.58177e-07
-1.11766e-07
-9.08077e-08
1.96281e-07
1.77639e-07
-2.07756e-07
1.09976e-07
2.14311e-07
-2.02222e-07
5.17224e-08
1.10942e-07
-1.28634e-07
4.92769e-08
3.94508e-08
-5.5279e-08
-3.97381e-08
-2.6184e-09
2.50357e-07
8.23229e-07
-9.68355e-07
1.82912e-07
3.05826e-07
-6.86775e-07
-2.58053e-08
-7.27583e-08
-2.95761e-07
-1.135e-07
-1.19086e-07
-1.66761e-07
-5.99566e-08
1.22569e-08
-1.84408e-07
1.98083e-08
1.85447e-07
-1.88385e-07
5.86871e-08
2.45257e-07
-1.46735e-07
3.587e-08
2.08801e-07
-7.29888e-08
3.47109e-08
1.50064e-07
-4.79305e-08
8.22509e-09
-4.09467e-08
2.05479e-07
7.70371e-07
-1.4491e-06
-1.2202e-09
5.34026e-07
-1.14958e-06
-3.07731e-07
3.99918e-07
-9.00677e-07
-4.09185e-07
1.5966e-07
-7.76991e-07
-3.3207e-07
1.47193e-08
-5.80642e-07
-1.74457e-07
6.83937e-08
-4.06285e-07
-3.05642e-08
1.28368e-07
-2.82748e-07
3.57624e-08
1.77607e-07
-2.08413e-07
8.25773e-08
1.56395e-07
-1.95521e-07
-1.88079e-08
-2.12575e-07
-1.14559e-07
6.1405e-07
-1.82521e-06
-5.31217e-07
6.72312e-07
-1.68984e-06
-8.36962e-07
6.47709e-07
-1.9018e-06
-9.0964e-07
2.41131e-07
-1.92324e-06
-8.43315e-07
-5.68769e-08
-1.59926e-06
-6.92642e-07
-8.79782e-08
-1.25279e-06
-5.11753e-07
-9.99654e-08
-1.00521e-06
-3.04422e-07
-1.14379e-07
-7.70847e-07
-3.75027e-08
-1.86043e-07
-5.8503e-07
-3.46098e-07
-5.12261e-07
-2.91937e-07
-2.31419e-08
-5.99604e-07
-6.13042e-07
5.41308e-09
-7.81338e-07
-9.3146e-07
5.58232e-08
-1.06532e-06
-1.22452e-06
9.49967e-08
-1.39299e-06
-1.36896e-06
4.28901e-08
-1.60569e-06
-1.32117e-06
-7.48543e-08
-1.57098e-06
-1.15763e-06
-1.6221e-07
-1.40857e-06
-8.23836e-07
-2.79074e-07
-1.15785e-06
-3.9765e-07
-4.32302e-07
-8.97248e-07
-5.81017e-07
-7.30508e-07
-4.88359e-08
3.95321e-09
2.06892e-08
-5.86978e-08
6.67555e-09
1.09278e-09
-6.57571e-08
-1.35032e-09
-8.40466e-09
-8.47546e-08
-5.89799e-09
-9.20109e-09
-1.44485e-07
3.20874e-10
-5.19684e-08
-2.48174e-07
-1.14593e-09
-1.43649e-07
-3.30397e-07
-2.61523e-10
-2.64858e-07
-3.38696e-07
-1.54227e-09
-3.30357e-07
-2.77132e-07
-5.02679e-09
-3.38156e-07
-1.09743e-08
-3.47419e-07
-4.73194e-09
-3.01586e-10
1.6035e-08
-3.12352e-09
-6.73658e-11
1.28455e-08
-2.35621e-09
-4.33776e-10
7.66685e-09
-3.96478e-09
5.28686e-10
4.82618e-09
-1.00935e-09
2.56298e-10
4.34742e-09
-1.87913e-10
2.38376e-12
3.16823e-10
-2.95723e-10
-3.89936e-12
-1.14407e-10
-6.62155e-10
-2.45835e-11
-1.14596e-09
-1.16647e-09
4.4873e-11
-4.69156e-09
3.42591e-11
-1.1587e-08
-1.04093e-09
-1.1037e-10
2.748e-09
-2.18221e-09
8.8528e-11
3.72998e-09
-9.93517e-10
3.18563e-10
2.79863e-09
-4.10884e-10
3.76341e-10
6.52552e-10
-1.22166e-10
1.61704e-10
2.40416e-10
-1.462e-10
8.05979e-11
2.67513e-11
-1.07745e-10
1.69937e-10
-1.20056e-11
-1.44324e-10
1.3634e-10
-5.31994e-11
-1.38873e-10
6.83367e-11
-4.389e-11
4.21955e-11
-8.81161e-11
-2.07292e-10
3.53159e-10
7.57895e-10
-1.08816e-09
1.46517e-10
1.03912e-09
-2.91543e-10
1.63136e-10
9.92121e-10
-1.33219e-10
1.49673e-10
1.31104e-10
-1.59793e-10
1.59819e-10
4.94079e-11
-2.27998e-10
4.49706e-10
-5.95993e-11
-1.28519e-10
2.44354e-10
3.08234e-11
-9.2408e-11
6.99608e-11
1.45497e-11
-8.49444e-11
5.07525e-11
-7.08948e-12
6.31356e-11
-8.60993e-11
6.5738e-12
3.7044e-10
1.49109e-10
-2.92994e-10
1.12598e-10
1.94732e-10
-1.92051e-10
3.12807e-11
1.85552e-10
-4.18377e-10
2.50635e-10
6.91647e-11
-9.64871e-10
6.67633e-10
4.80269e-10
-6.55224e-10
8.48577e-10
7.10773e-10
-1.96423e-10
4.00012e-11
4.78707e-11
-1.41787e-10
-3.73915e-11
4.29001e-11
-9.2671e-11
-2.21801e-10
1.10755e-10
-3.08676e-11
6.89004e-11
1.69943e-11
3.06198e-10
6.03019e-11
-5.08513e-11
3.42199e-10
3.20429e-11
7.45139e-11
5.4952e-10
5.87671e-11
-2.56392e-09
1.37269e-09
3.31717e-10
-4.37087e-09
1.68056e-09
9.15757e-10
-3.69423e-09
4.09929e-10
3.56227e-10
-1.52307e-09
-1.46744e-11
9.8796e-12
-1.85859e-09
-2.88744e-10
5.64056e-12
-1.69807e-09
-1.02159e-09
8.03994e-11
-1.00323e-09
3.43747e-10
2.85012e-11
2.41296e-10
3.41508e-11
-7.27541e-11
6.24758e-10
4.08017e-11
-5.66812e-11
1.3463e-09
1.77342e-10
-1.43828e-09
1.58569e-09
1.38432e-10
-1.93552e-09
1.54132e-09
7.50618e-10
-6.55781e-10
7.08276e-11
7.25937e-12
-5.48291e-10
4.04432e-12
-2.41577e-11
-1.26119e-09
-6.14127e-11
-6.18347e-11
-1.99364e-09
-4.75907e-10
-1.82937e-10
-1.1796e-09
-1.80373e-10
4.51257e-11
2.08066e-10
3.29906e-11
-6.55678e-11
7.14461e-10
6.65515e-11
5.07254e-11
8.28856e-10
4.69351e-10
-9.23279e-12
1.8489e-09
4.37521e-10
-5.71061e-10
4.87078e-10
2.56976e-10
-1.81887e-10
1.64604e-10
2.16269e-10
-5.858e-11
9.96986e-12
2.11414e-11
-1.00605e-10
-3.38906e-13
-3.70748e-12
-7.08233e-10
-2.75422e-11
-3.02918e-11
-3.98898e-10
-2.22943e-10
7.0414e-11
1.42036e-10
3.39787e-11
-6.03119e-11
5.01318e-10
6.86086e-11
-1.69581e-10
2.87319e-10
5.29063e-10
1.19953e-10
3.36589e-10
6.42677e-10
3.1102e-11
7.64501e-10
6.47936e-10
-2.62636e-12
4.26121e-11
2.10788e-10
-5.47273e-12
2.14181e-11
5.47109e-11
-5.96903e-12
8.03956e-12
2.05302e-11
-4.63481e-11
2.88151e-14
-7.1918e-12
-3.73053e-11
-2.14899e-10
7.13824e-11
4.90953e-11
8.50204e-12
9.14675e-11
9.52457e-11
1.64469e-11
-1.93132e-10
2.43086e-10
5.68054e-10
-1.43709e-10
8.47562e-11
1.10687e-09
1.01418e-10
7.48974e-10
9.28883e-10
2.8805e-11
2.66078e-10
4.60786e-10
4.08879e-12
1.7941e-11
6.93299e-11
4.44447e-12
8.65882e-12
9.87785e-12
-5.20611e-12
5.23945e-12
-9.18599e-14
3.41713e-13
-1.04646e-10
1.81278e-11
2.3602e-11
1.58403e-14
5.26628e-11
3.95143e-11
1.13848e-11
-3.87327e-11
4.67725e-11
1.99647e-10
-8.72281e-11
8.38731e-12
6.48056e-10
1.83263e-11
1.4444e-11
9.65725e-10
9.3125e-11
3.55515e-10
8.59984e-10
1.35122e-11
1.5361e-10
4.82407e-10
1.03572e-11
3.12584e-11
1.39155e-10
3.89523e-12
8.20888e-12
2.93562e-13
2.62559e-11
-4.05966e-11
8.7431e-12
-1.99174e-11
1.69733e-11
1.25946e-11
7.00847e-13
2.36951e-11
2.2193e-11
1.89513e-11
2.5832e-11
-1.2975e-11
3.5215e-10
5.37586e-11
4.10031e-12
1.86739e-10
-1.00912e-13
6.58718e-11
3.98235e-10
3.13438e-11
7.70904e-11
4.9726e-10
1.18405e-10
1.08395e-10
9.24818e-11
1.18822e-10
2.41005e-11
-9.66928e-12
8.18906e-11
-2.43096e-11
3.98158e-11
-1.1008e-07
1.0977e-07
-1.79484e-07
-1.20176e-07
-9.57363e-09
-3.7088e-09
3.77383e-08
-1.67988e-07
7.38726e-08
1.5701e-07
-1.33179e-07
3.65654e-08