/*--------------------------------*- C++ -*----------------------------------*\
| =========                 |                                                 |
| \\      /  F ield         | OpenFOAM: The Open Source CFD Toolbox           |
|  \\    /   O peration     | Version:  2312                                  |
|   \\  /    A nd           | Website:  www.openfoam.com                      |
|    \\/     M anipulation  |                                                 |
\*---------------------------------------------------------------------------*/
FoamFile
{
    version     2.0;
    format      ascii;
    arch        "LSB;label=32;scalar=64";
    class       volScalarField;
    location    "0.17";
    object      p_rgh;
}
// * * * * * * * * * * * * * * * * * * * * * * * * * * * * * * * * * * * * * //

dimensions      [1 -1 -2 0 0 0 0];

internalField   nonuniform List<scalar> 
8000
(
309.608
311.701
315.53
320.653
326.494
332.43
337.883
342.379
345.564
347.212
314.028
316.057
319.764
324.72
330.365
336.095
341.352
345.682
348.747
350.33
322.071
323.991
327.494
332.168
337.473
342.84
347.748
351.778
354.627
356.098
334.11
335.827
338.974
343.172
347.922
352.708
357.067
360.634
363.148
364.444
350.13
351.537
354.14
357.626
361.565
365.518
369.1
372.019
374.067
375.12
369.409
370.414
372.307
374.857
377.738
380.617
383.21
385.307
386.771
387.52
391.755
392.288
393.313
394.719
396.325
397.924
399.34
400.455
401.213
401.594
416.147
416.14
416.14
416.199
416.342
416.486
416.549
416.524
416.46
416.409
405.286
399.849
389.472
376.3
362.264
348.007
334.193
322.117
313.224
308.397
140.735
125.832
101.647
78.0139
59.5402
45.81
35.5928
28.366
23.9051
21.7528
1.78739
1.0036
0.470061
0.174319
0.0120322
-0.0824521
-0.132179
-0.149078
-0.156352
-0.157706
-0.0458341
-0.111968
-0.167114
-0.178682
-0.175668
-0.177327
-0.179159
-0.178398
-0.178388
-0.176021
-0.291833
-0.278976
-0.259597
-0.234378
-0.211569
-0.197567
-0.189952
-0.184552
-0.181092
-0.177706
-0.228428
-0.220138
-0.210667
-0.202046
-0.195314
-0.190216
-0.185068
-0.180047
-0.176299
-0.173587
-0.171069
-0.171343
-0.17364
-0.176083
-0.176778
-0.175157
-0.172116
-0.168895
-0.166348
-0.164742
-0.151007
-0.153587
-0.157283
-0.159655
-0.160065
-0.15912
-0.157522
-0.155768
-0.154312
-0.153513
-0.13832
-0.139896
-0.141676
-0.142859
-0.143364
-0.143328
-0.142867
-0.142178
-0.141544
-0.141256
-0.122625
-0.123564
-0.124894
-0.126258
-0.127391
-0.128161
-0.128555
-0.128665
-0.128652
-0.128702
-0.10765
-0.10851
-0.10986
-0.111409
-0.112894
-0.114157
-0.115111
-0.115758
-0.116167
-0.11643
-0.0946609
-0.095449
-0.0967503
-0.0983414
-0.0999916
-0.101524
-0.102804
-0.103775
-0.104441
-0.104828
302.448
304.974
309.53
315.54
322.295
329.068
335.218
340.24
343.775
345.597
306.887
309.381
313.842
319.7
326.263
332.827
338.772
343.618
347.025
348.778
315.075
317.482
321.758
327.336
333.552
339.737
345.315
349.846
353.023
354.656
327.596
329.773
333.657
338.716
344.332
349.89
354.876
358.909
361.728
363.174
344.522
346.308
349.553
353.798
358.502
363.135
367.268
370.592
372.905
374.088
364.963
366.267
368.689
371.867
375.374
378.804
381.838
384.259
385.933
386.786
388.738
389.535
390.984
392.837
394.863
396.828
398.539
399.874
400.774
401.223
414.972
415.229
415.505
415.727
415.966
416.218
416.406
416.486
416.485
416.461
417.821
414.936
406.521
391.259
373.285
356.135
340.8
327.892
318.403
313.159
254.134
214.199
152.192
102.547
71.2799
51.811
39.6007
31.4819
26.3424
23.8811
33.4004
14.5487
0.547873
-0.0821488
-0.118855
-0.128763
-0.136983
-0.150066
-0.159828
-0.156371
-0.43208
-0.432852
-0.413416
-0.360676
-0.284352
-0.2264
-0.200463
-0.188114
-0.184296
-0.178185
-0.471395
-0.449898
-0.392275
-0.328147
-0.269755
-0.228881
-0.2064
-0.193203
-0.186071
-0.18095
-0.33571
-0.3107
-0.272562
-0.239968
-0.217197
-0.202599
-0.192469
-0.184838
-0.179604
-0.176205
-0.213551
-0.203545
-0.192966
-0.186452
-0.18234
-0.178583
-0.174658
-0.170914
-0.167986
-0.166251
-0.16024
-0.160369
-0.161039
-0.16134
-0.160883
-0.159776
-0.158217
-0.156456
-0.154953
-0.154211
-0.138133
-0.139283
-0.140773
-0.141953
-0.142684
-0.142945
-0.142733
-0.142197
-0.141636
-0.141443
-0.12051
-0.121474
-0.122961
-0.124613
-0.126121
-0.127269
-0.127969
-0.128289
-0.1284
-0.128554
-0.105234
-0.106175
-0.107745
-0.10961
-0.111459
-0.113071
-0.114313
-0.115168
-0.115711
-0.116074
-0.092316
-0.0931864
-0.0947041
-0.0965879
-0.0985593
-0.100396
-0.101929
-0.10309
-0.103883
-0.104357
287.515
291.024
297.202
305.139
313.844
322.376
329.967
336.065
340.306
342.476
291.848
295.386
301.577
309.436
317.979
326.303
333.677
339.582
343.682
345.776
300.314
303.728
309.785
317.407
325.603
333.526
340.499
346.058
349.904
351.866
314.044
316.983
322.516
329.531
337.029
344.23
350.528
355.52
358.961
360.711
332.995
335.278
339.91
345.883
352.25
358.332
363.618
367.781
370.636
372.083
355.722
357.436
361.016
365.643
370.522
375.132
379.095
382.187
384.292
385.356
382.117
383.328
385.749
388.772
391.807
394.586
396.92
398.704
399.894
400.484
411.309
411.973
413.204
414.374
415.168
415.706
416.096
416.358
416.491
416.531
432.008
430.689
426.247
414.676
394.952
372.849
353.567
338.411
327.775
321.929
418.426
370.436
281.179
185.886
114.638
72.8874
50.1827
38.0483
31.4265
28.3135
83.7131
55.6097
23.1469
2.48362
-0.0998583
-0.130888
-0.128615
-0.130405
-0.149767
-0.149346
-0.433484
-0.432647
-0.448607
-0.411301
-0.349816
-0.272668
-0.216392
-0.193954
-0.188531
-0.178056
-0.407073
-0.408881
-0.379908
-0.339998
-0.299588
-0.258936
-0.226798
-0.205509
-0.193132
-0.184135
-0.294963
-0.288843
-0.272067
-0.250052
-0.232601
-0.217471
-0.203877
-0.192611
-0.184635
-0.179696
-0.213456
-0.207979
-0.201103
-0.194973
-0.190055
-0.185088
-0.179796
-0.174706
-0.170686
-0.168559
-0.163081
-0.163206
-0.163601
-0.163799
-0.163427
-0.162254
-0.16038
-0.158161
-0.156234
-0.155445
-0.136077
-0.13734
-0.139185
-0.141004
-0.1424
-0.143127
-0.143123
-0.142604
-0.141989
-0.141872
-0.11692
-0.11813
-0.120095
-0.122351
-0.124489
-0.126191
-0.127291
-0.12785
-0.128095
-0.128376
-0.101313
-0.102427
-0.104393
-0.106791
-0.109229
-0.111395
-0.113078
-0.114246
-0.114991
-0.115491
-0.0882226
-0.0892506
-0.091158
-0.0935592
-0.0960972
-0.0984652
-0.100436
-0.101922
-0.102933
-0.103535
264.023
269.128
278.003
289.173
301.097
312.461
322.316
330.072
335.387
338.082
267.798
273.132
282.221
293.525
305.406
316.597
326.231
333.777
338.934
341.543
276.397
281.647
290.667
301.859
313.456
324.235
333.433
340.592
345.465
347.925
292.947
296.676
304.675
315.055
325.812
335.72
344.115
350.61
355.009
357.224
316.063
318.182
324.525
333.37
342.605
351.072
358.205
363.687
367.379
369.232
342.667
343.98
348.801
355.729
362.965
369.533
374.997
379.149
381.923
383.31
372.551
373.803
377.132
381.942
386.848
391.085
394.462
396.956
398.593
399.402
405.457
406.318
408.386
411.157
413.432
414.84
415.622
416.108
416.421
416.567
437.797
438.979
440.391
434.22
419.838
397.523
373.035
353.408
340.487
333.797
462.589
437.336
388.831
319.876
216.656
126.372
74.4112
50.0519
39.397
35.4737
81.0822
63.2097
42.16
28.3505
7.6438
-0.0940859
-0.1459
-0.131363
-0.136389
-0.12885
-0.472262
-0.408055
-0.420375
-0.436742
-0.411056
-0.359716
-0.281881
-0.217846
-0.20106
-0.178194
-0.363493
-0.346952
-0.352003
-0.348556
-0.327981
-0.297912
-0.260539
-0.227313
-0.206537
-0.189168
-0.257427
-0.254136
-0.250198
-0.247964
-0.242192
-0.232177
-0.218401
-0.203862
-0.192078
-0.184296
-0.194956
-0.195011
-0.197091
-0.196545
-0.194919
-0.191474
-0.185962
-0.179552
-0.17412
-0.171435
-0.154975
-0.156662
-0.159726
-0.16253
-0.16422
-0.164256
-0.162655
-0.160095
-0.157687
-0.15689
-0.1295
-0.131236
-0.134282
-0.137647
-0.140565
-0.142461
-0.143126
-0.142835
-0.142232
-0.14227
-0.110443
-0.111913
-0.114753
-0.118128
-0.121445
-0.124171
-0.126005
-0.127007
-0.127496
-0.127992
-0.094855
-0.0961526
-0.0988522
-0.102193
-0.105655
-0.108744
-0.111144
-0.112811
-0.113875
-0.114589
-0.0817919
-0.0829991
-0.085582
-0.0888521
-0.0923303
-0.0955536
-0.0982091
-0.100195
-0.101536
-0.102334
230.114
238.015
251.136
267.285
284.088
299.585
312.618
322.63
329.379
332.766
230.07
240.508
254.627
271.326
288.42
303.898
316.746
326.546
333.125
336.418
233.546
247.985
263.159
279.89
296.839
311.975
324.371
333.749
340.013
343.139
251.185
263.635
278.882
294.557
310.36
324.417
335.839
344.427
350.134
352.974
284.786
290.075
302.385
315.708
329.256
341.371
351.173
358.499
363.341
365.741
319.86
322.239
331.304
341.706
352.377
361.954
369.616
375.265
378.963
380.788
351.602
356.95
364.185
371.864
379.46
386.117
391.147
394.678
396.933
398.034
391.51
395.107
400.198
405.165
409.781
413.086
414.877
415.749
416.255
416.522
434.081
437.527
438.125
439.829
436.326
421.067
397.35
372.541
355.623
347.348
280.06
336.38
397.878
404.156
352.748
233.469
126.81
72.7657
51.4171
45.5042
0.262361
9.66049
24.345
41.7704
39.5809
13.5681
-0.0966214
-0.138918
-0.129091
-0.074499
-0.189391
-0.284572
-0.346781
-0.387599
-0.415842
-0.410977
-0.359852
-0.27716
-0.227067
-0.175951
-0.198811
-0.249477
-0.290476
-0.31981
-0.342713
-0.330017
-0.298798
-0.260325
-0.22996
-0.196987
-0.189881
-0.202815
-0.21678
-0.228032
-0.240011
-0.242015
-0.232535
-0.217685
-0.202205
-0.188967
-0.162571
-0.168799
-0.178078
-0.190084
-0.194264
-0.194971
-0.191351
-0.184644
-0.177658
-0.173987
-0.137688
-0.141544
-0.14772
-0.155146
-0.160958
-0.164006
-0.163958
-0.161633
-0.158865
-0.158103
-0.117076
-0.119663
-0.12459
-0.130435
-0.135962
-0.140017
-0.142093
-0.142466
-0.142072
-0.142367
-0.0996049
-0.101625
-0.105903
-0.111098
-0.116345
-0.12073
-0.123777
-0.125527
-0.12643
-0.127245
-0.0846947
-0.086507
-0.0904076
-0.0952922
-0.10038
-0.104881
-0.108359
-0.110762
-0.112287
-0.113304
-0.072067
-0.0738152
-0.0774725
-0.0821506
-0.0870769
-0.0915625
-0.0952008
-0.0978898
-0.0996868
-0.100752
178.329
193.33
215.245
239.357
263.178
284.328
301.477
314.299
322.79
327.006
162.9
187.274
215.181
242.068
267.073
288.648
305.765
318.413
326.738
330.857
132.918
183.85
222.239
250.49
275.635
297.043
313.779
325.999
333.99
337.929
116.221
179.574
238.799
267.332
290.671
310.526
326.088
337.376
344.719
348.327
134.445
192.205
266.345
292.916
312.432
329.397
342.841
352.545
358.83
361.906
151.468
218.077
301.069
323.84
339.078
352.503
363.166
370.762
375.632
378.002
143.175
233.684
337.59
358.677
369.882
379.557
387.003
391.981
395.038
396.499
198.416
313.626
386.436
396.694
403.886
409.841
413.526
415.259
416.039
416.409
264.784
360.997
432.113
437.006
439.329
435.945
419.346
394.439
372.59
361.365
2.30272
69.1523
182.962
385.324
418.646
355.318
217.914
114.23
70.5434
58.7988
0.0772825
-0.107731
-0.0218041
17.9923
50.6037
41.3093
8.66771
-0.103422
-0.120599
0.0198925
-0.05542
-0.181571
-0.23192
-0.316631
-0.376961
-0.412637
-0.409424
-0.351234
-0.283549
-0.174955
-0.117317
-0.152754
-0.186344
-0.260179
-0.314443
-0.345575
-0.330492
-0.301077
-0.27135
-0.211839
-0.137614
-0.152717
-0.172701
-0.199357
-0.22268
-0.240748
-0.243286
-0.233151
-0.217108
-0.19403
-0.130708
-0.13795
-0.151321
-0.1689
-0.187615
-0.194452
-0.194797
-0.189379
-0.180967
-0.175036
-0.116103
-0.119762
-0.129537
-0.141231
-0.152988
-0.160708
-0.1636
-0.162384
-0.159487
-0.158565
-0.0994719
-0.101946
-0.110058
-0.119186
-0.128346
-0.135473
-0.139721
-0.141266
-0.141354
-0.14197
-0.0835139
-0.08598
-0.0930072
-0.100942
-0.109028
-0.115752
-0.120511
-0.123332
-0.124828
-0.126047
-0.0695105
-0.0721944
-0.0784288
-0.0857658
-0.0932869
-0.0997734
-0.104727
-0.108115
-0.110242
-0.111638
-0.0576507
-0.0605431
-0.0662462
-0.0731973
-0.0802772
-0.0865171
-0.0914738
-0.0950771
-0.0974531
-0.0988503
100.149
129.736
169.075
206.271
239.707
267.87
289.856
305.853
316.263
321.378
39.1647
82.596
155.099
204.604
242.379
271.877
294.167
310.114
320.392
325.415
17.9088
42.9642
136.613
210.301
250.754
280.365
302.423
318.019
327.97
332.81
8.06899
26.6669
116.578
226.282
267.467
294.899
315.516
330.059
339.276
343.742
7.48441
19.7067
116.781
256.628
293.005
315.99
333.765
346.336
354.274
358.109
6.90146
24.0085
140.478
294.426
324.02
341.996
356.088
366.024
372.249
375.235
5.50586
28.1656
157.503
332.547
358.862
372.106
382.235
389.058
393.1
394.97
3.90522
49.4386
261.369
384.86
396.704
405.312
411.34
414.523
415.835
416.297
11.9623
7.94183
268.5
432.473
436.784
439.756
433.641
413.885
390.249
375.173
1.47908
0.455852
12.9597
155.821
392.3
407.306
319.571
182.657
100.228
76.2971
0.181506
0.116239
-0.0157206
0.0186506
21.694
45.1396
29.3182
2.21268
-0.0866484
0.169678
0.0175634
-0.0332817
-0.0988815
-0.21378
-0.330028
-0.393441
-0.433565
-0.406343
-0.353475
-0.175252
-0.0759205
-0.0989
-0.126197
-0.167109
-0.269854
-0.327441
-0.351909
-0.34037
-0.327121
-0.233607
-0.106342
-0.118915
-0.134343
-0.163042
-0.20245
-0.230867
-0.249571
-0.250791
-0.239822
-0.200896
-0.107197
-0.11316
-0.123954
-0.14475
-0.169836
-0.191054
-0.19654
-0.194084
-0.184709
-0.173968
-0.0967912
-0.0988733
-0.108896
-0.123914
-0.141146
-0.154661
-0.161536
-0.162234
-0.159353
-0.157586
-0.0812336
-0.0830536
-0.0903271
-0.104868
-0.118549
-0.12926
-0.136181
-0.139277
-0.140075
-0.140967
-0.0652749
-0.0678606
-0.0739321
-0.088043
-0.100062
-0.109632
-0.11647
-0.120582
-0.122792
-0.124437
-0.0515821
-0.0550978
-0.059966
-0.0737958
-0.0848305
-0.0937837
-0.100528
-0.105073
-0.107884
-0.109696
-0.0402228
-0.044383
-0.0489773
-0.0621222
-0.0723422
-0.0807726
-0.0873165
-0.0919809
-0.0950114
-0.0967778
34.9319
60.2829
115.699
169.468
216.114
252.234
279.093
298.237
310.52
316.494
12.3799
14.2945
62.1439
154.897
215.926
255.655
283.242
302.558
314.788
320.688
10.0222
9.92232
21.2612
136.96
223.054
264.031
291.539
310.664
322.623
328.348
8.684
8.72823
8.57349
117.857
239.228
279.397
305.334
323.261
334.417
339.732
7.87169
8.0094
7.95534
119.905
266.836
302.811
325.094
340.556
350.204
354.785
6.98233
6.93174
7.2556
147.371
302.303
331.875
349.388
361.588
369.222
372.816
5.62322
5.38285
8.88802
163.814
339.319
364.736
377.65
386.198
391.358
393.649
3.68714
3.17828
10.6811
267.624
386.715
400.567
408.746
413.466
415.652
416.256
1.57332
1.2236
3.88177
268.167
431.782
438.273
440.56
425.737
405.193
387.958
0.783468
0.815166
0.648055
17.7478
198.211
402.01
385.391
271.184
144.668
97.8551
0.350918
0.312206
0.255725
-0.0203753
-0.0857233
26.0827
40.0473
19.7454
0.0764731
0.427392
0.0729841
0.030224
0.0331727
-0.0983003
-0.252743
-0.363803
-0.417611
-0.43996
-0.39966
-0.16191
-0.0373688
-0.0648816
-0.0660864
-0.123187
-0.198946
-0.301708
-0.354398
-0.376436
-0.38561
-0.255754
-0.0271714
-0.0854049
-0.0779916
-0.131735
-0.17793
-0.222521
-0.252541
-0.272048
-0.270968
-0.209158
0.126535
-0.0724661
-0.0741898
-0.121488
-0.152129
-0.17941
-0.197245
-0.200003
-0.190907
-0.171392
0.170604
0.00301395
-0.0619335
-0.105376
-0.1286
-0.146668
-0.158244
-0.161439
-0.158413
-0.154651
0.126305
0.104695
-0.0566925
-0.0887399
-0.107589
-0.122201
-0.13198
-0.136748
-0.138264
-0.139221
-0.0387791
0.122005
-0.0398002
-0.0735157
-0.089959
-0.102945
-0.112103
-0.117587
-0.120552
-0.122565
-0.00416415
0.132876
-0.0300165
-0.0606496
-0.0753845
-0.0873838
-0.0961632
-0.10194
-0.105454
-0.107666
0.0359375
0.149632
-0.0185654
-0.0505439
-0.0636928
-0.0747649
-0.0830958
-0.0888905
-0.0926013
-0.0947387
26.9693
30.5604
61.2375
131.022
195.059
239.883
270.755
292.435
306.253
312.915
13.5389
13.149
14.1471
83.4224
189.448
242.404
274.68
296.733
310.604
317.222
10.8037
10.8052
9.79623
44.4465
186.82
249.602
282.923
304.928
318.603
325.067
9.14205
9.15278
8.70671
28.9246
182.145
264.287
297.529
317.975
330.754
336.783
8.21758
8.18871
8.00041
21.4661
195.526
290.634
318.967
336.157
347.155
352.353
7.29659
7.80656
7.07242
26.4047
223.754
323.446
344.969
358.26
366.972
371.063
7.02083
8.19725
5.41759
32.2991
242.208
358.03
374.726
383.995
390.042
392.713
6.88591
6.24413
3.16651
54.2386
320.87
395.913
407.01
412.409
415.458
416.273
4.87564
4.59389
1.48892
6.73405
364.867
438.441
439.495
430.615
413.821
397.804
1.20096
4.87779
0.798915
0.536285
81.3361
349.887
431.543
356.367
200.034
119.367
0.350531
4.95329
0.305977
0.351498
-0.276476
12.3271
60.2167
49.3745
9.94604
0.879599
0.312129
1.67135
0.0123491
-0.0346534
-0.238334
-0.32881
-0.401056
-0.425824
-0.419624
-0.114121
0.2476
-0.182824
-0.08322
-0.0951993
-0.179381
-0.275607
-0.346923
-0.403735
-0.437872
-0.272137
-0.0213298
-0.136618
-0.0998692
-0.116428
-0.164162
-0.213117
-0.256467
-0.288587
-0.306038
-0.217454
-0.0556993
-0.0751763
-0.0831817
-0.109587
-0.141279
-0.171706
-0.195324
-0.20661
-0.200762
-0.168718
-0.0141622
-0.0262154
-0.0605302
-0.0926494
-0.118456
-0.13995
-0.154796
-0.160542
-0.15718
-0.150439
0.00780341
0.0116781
-0.0403649
-0.0744477
-0.0977828
-0.115973
-0.128133
-0.134264
-0.136201
-0.136898
0.0197528
0.0538831
-0.0245111
-0.0582633
-0.080152
-0.0969116
-0.108227
-0.114902
-0.118513
-0.120758
0.0406995
0.120616
-0.0129213
-0.045436
-0.0656562
-0.0815137
-0.0923221
-0.0992254
-0.103348
-0.105878
0.0362621
0.163393
0.0207402
-0.0362504
-0.0543164
-0.069168
-0.0793744
-0.0862535
-0.0905711
-0.0930229
34.5071
25.7185
35.1806
103.406
181.086
232.775
266.225
289.305
303.998
311.049
13.4855
13.1686
12.0125
41.972
167.829
233.023
269.96
293.583
308.377
315.413
11.7075
10.8355
9.91859
20.7142
140.674
236.114
278.12
301.856
316.446
323.355
9.00576
9.26405
8.72089
8.29581
121.998
251.043
293.808
315.272
328.793
335.252
8.38068
8.29009
7.92238
7.33082
140.974
284.728
317.001
334.112
345.558
351.105
7.53885
7.40764
7.13082
6.89556
155.815
321.217
343.908
356.789
365.829
370.185
5.99341
7.65664
5.6519
5.57794
153.351
353.635
373.756
382.987
389.357
392.254
3.3474
6.70898
3.37613
3.72882
211.973
393.654
406.539
411.923
415.259
416.271
1.86939
1.98965
1.25658
7.67854
286.002
439.513
438.955
431.418
416.409
402.701
1.11155
0.721035
0.661249
0.745148
8.88307
310.656
465.185
409.524
238.199
132.407
0.581794
0.510607
0.321556
0.163525
-0.0684156
1.40231
87.3294
82.586
28.213
1.40827
0.239278
0.390428
0.0478712
0.0125828
-0.134575
-0.293652
-0.399173
-0.419225
-0.424455
-0.0431732
0.0573457
0.196931
-0.0556088
-0.0786213
-0.15317
-0.250259
-0.341634
-0.392196
-0.461986
-0.283849
-0.0174988
-0.0712645
-0.0819924
-0.10537
-0.152011
-0.205203
-0.256403
-0.291883
-0.331493
-0.224887
-0.0249849
-0.05538
-0.0629662
-0.098592
-0.133132
-0.167113
-0.195184
-0.21159
-0.210373
-0.167545
-0.00597184
-0.0119937
0.00160932
-0.0806277
-0.110747
-0.13567
-0.152954
-0.160217
-0.156709
-0.147258
0.0102321
0.0220273
0.0292591
-0.0620385
-0.0899273
-0.111964
-0.125801
-0.132629
-0.134707
-0.134934
0.0175825
0.0336244
0.0445547
-0.0463206
-0.0722069
-0.092946
-0.105824
-0.113159
-0.117174
-0.119493
0.0199552
0.031671
0.0527817
-0.0338773
-0.0580999
-0.0776191
-0.0899273
-0.0974865
-0.10201
-0.104709
0.019462
0.0280203
0.0236287
-0.0245895
-0.0473638
-0.065393
-0.0770446
-0.0845666
-0.0892931
-0.0919221
30.0657
24.329
35.5024
103.466
180.824
232.716
266.219
289.33
304.031
311.082
12.9452
12.6401
11.8084
42.3564
167.764
233.336
270.031
293.619
308.414
315.448
11.9417
10.7603
9.98317
21.4801
142.864
236.686
278.258
301.91
316.485
323.39
9.10963
9.24863
8.80657
8.35217
124.206
252.036
293.972
315.335
328.834
335.286
8.53027
8.31582
7.96135
7.42033
141.397
285.562
317.137
334.164
345.6
351.139
7.67803
7.39897
7.07514
6.79119
154.568
321.276
343.996
356.815
365.85
370.205
6.37603
6.7986
5.69051
5.51945
149.449
353.937
373.708
382.941
389.338
392.253
3.59487
6.69878
3.66086
4.07321
207.115
393.007
406.32
411.83
415.211
416.252
1.90499
4.88548
1.37614
8.82487
288.741
438.604
438.609
430.658
415.988
402.588
1.09811
1.34777
0.585064
1.09825
7.49877
313.871
468.824
414.081
240.555
132.644
0.555966
0.271664
0.268701
0.11428
-0.0786846
2.38544
93.8239
88.9426
31.1027
1.52941
0.229056
0.266575
0.0447834
-0.00831129
-0.134347
-0.293815
-0.395877
-0.418147
-0.423571
-0.0322542
0.0582758
0.209024
-0.0530591
-0.0854909
-0.151391
-0.251408
-0.340459
-0.394296
-0.463358
-0.284513
-0.0217679
-0.0306643
-0.0844447
-0.109352
-0.151723
-0.205383
-0.256421
-0.292366
-0.334468
-0.225603
-0.0344381
-0.0642506
-0.0732436
-0.102004
-0.133724
-0.167409
-0.195416
-0.212328
-0.211838
-0.167116
-0.0111715
-0.0234696
-0.0464333
-0.0825311
-0.111408
-0.135698
-0.152858
-0.16017
-0.156521
-0.146492
0.0108485
0.00717378
-0.0224775
-0.0617576
-0.0902361
-0.111785
-0.125516
-0.132325
-0.134307
-0.13438
0.0223924
0.0259197
-0.00598946
-0.0443883
-0.0720372
-0.0925395
-0.105435
-0.112803
-0.116819
-0.119102
0.0257386
0.0422027
0.00647235
-0.0311441
-0.0574147
-0.0770121
-0.0894731
-0.0971112
-0.101672
-0.104367
0.0242974
0.0471282
0.0209264
-0.0218881
-0.046199
-0.0646554
-0.0765665
-0.0841907
-0.0889766
-0.0916298
23.6222
30.5571
64.2483
132.427
195.567
240.181
270.994
292.623
306.404
313.051
12.9075
12.838
14.8352
87.0549
190.041
242.83
274.982
296.936
310.76
317.359
10.9593
10.8976
9.91777
46.7226
188.583
250.233
283.301
305.153
318.764
325.204
9.37972
9.2576
8.87735
30.9012
185.894
265.342
297.964
318.213
330.917
336.917
8.44432
8.33612
8.22184
23.8466
198.737
291.551
319.393
336.384
347.306
352.476
7.54805
8.24722
7.10254
29.3048
224.031
323.705
345.262
358.437
367.09
371.161
7.64895
7.696
5.31283
31.9892
243.621
358.264
374.894
384.085
390.109
392.775
6.21
5.37366
2.75411
48.8495
319.513
395.566
406.987
412.395
415.469
416.293
4.2323
3.94657
1.03188
5.65112
368.617
438.294
439.117
429.74
413.417
397.771
0.956979
4.40764
0.738576
0.425425
80.8112
353.841
438.049
364.104
204.2
120.324
0.382546
4.40255
0.297861
0.280417
-0.270929
13.8911
67.3368
56.2171
12.7934
0.982328
0.376775
1.59051
0.0185666
-0.0526224
-0.238373
-0.326848
-0.400201
-0.425389
-0.422764
-0.100979
0.278372
-0.139506
-0.0710427
-0.103731
-0.178122
-0.277755
-0.34786
-0.405217
-0.445013
-0.275082
-0.0256063
-0.108665
-0.0923777
-0.120481
-0.16409
-0.213934
-0.257204
-0.289695
-0.312589
-0.217862
-0.0611784
-0.0699767
-0.0783927
-0.110793
-0.140883
-0.172107
-0.195803
-0.20764
-0.202616
-0.166921
-0.0226688
-0.0338467
-0.0557336
-0.0912874
-0.117072
-0.139176
-0.154319
-0.160109
-0.15634
-0.14856
0.0082134
-0.0081656
-0.0351732
-0.0711141
-0.0956578
-0.1147
-0.127149
-0.133356
-0.135168
-0.135632
0.0441282
0.0118933
-0.0200446
-0.0537457
-0.0774368
-0.0952063
-0.106969
-0.113855
-0.117544
-0.119775
0.0694728
0.0463596
-0.00805262
-0.0402897
-0.0627312
-0.0795449
-0.0909265
-0.0981239
-0.102398
-0.104981
0.0742677
0.0891365
-0.001837
-0.0304767
-0.0513688
-0.0670759
-0.0779531
-0.0851606
-0.0896656
-0.0921952
33.5901
62.1995
117.815
170.835
216.95
252.784
279.497
298.544
310.768
316.716
11.9973
14.5429
65.0705
156.967
216.928
256.291
283.681
302.873
315.037
320.909
10.0748
9.97022
23.1504
140.439
224.004
264.753
292.019
310.989
322.872
328.565
8.91966
8.91017
9.89456
123.144
240.347
280.223
305.837
323.583
334.659
339.939
8.10601
8.26754
8.24213
123.931
267.621
303.582
325.568
340.851
350.425
354.971
7.13055
7.04028
7.61903
151.007
303.343
332.529
349.779
361.83
369.403
372.968
5.44341
5.23851
7.13542
162.655
340.37
365.184
377.899
386.358
391.483
393.754
3.24021
2.73151
7.72888
268.802
385.629
400.429
408.765
413.502
415.715
416.308
1.20817
0.968061
5.58584
269.811
432.065
438.105
440.19
425.197
405.172
387.951
0.685619
0.742943
0.70898
11.7004
192.624
404.518
390.102
277.04
147.349
98.6845
0.31926
0.286214
0.184279
-0.0473938
-0.0966216
27.3759
43.4778
22.8817
0.390962
0.481022
0.0666362
0.0185411
0.0416254
-0.109586
-0.259818
-0.369701
-0.421678
-0.445814
-0.407354
-0.156386
-0.0422237
-0.0678777
-0.0560644
-0.131448
-0.202624
-0.307174
-0.357741
-0.381473
-0.395356
-0.257883
-0.0767001
-0.0893571
-0.0839769
-0.135668
-0.179704
-0.224417
-0.254369
-0.275194
-0.276731
-0.208612
-0.0641473
-0.0766654
-0.0673124
-0.122432
-0.152273
-0.179464
-0.198446
-0.200796
-0.191467
-0.168982
-0.0288812
-0.0558393
-0.0493693
-0.103443
-0.126382
-0.14545
-0.157445
-0.16058
-0.157068
-0.152452
-4.17957e-05
-0.0366734
-0.0298127
-0.0842811
-0.104379
-0.120117
-0.130404
-0.135332
-0.136791
-0.137587
0.0420565
-0.017435
-0.0125529
-0.0672047
-0.0858959
-0.100293
-0.11015
-0.115965
-0.119074
-0.121119
0.086348
0.0465887
-0.00851835
-0.0533377
-0.0708977
-0.0844306
-0.0940346
-0.100246
-0.103988
-0.106299
0.0933717
0.0855925
-0.00865607
-0.0428569
-0.0591176
-0.0717446
-0.0809531
-0.0872221
-0.0911974
-0.0934539
99.5634
130.256
170.066
207.276
240.496
268.468
290.318
306.222
316.574
321.66
40.0624
84.6338
156.195
205.66
243.217
272.498
294.637
310.482
320.698
325.693
18.908
45.0661
139.955
211.362
251.577
281.001
302.897
318.382
328.269
333.079
8.10272
29.168
122.26
227.69
268.205
295.52
315.972
330.404
339.557
343.993
7.64728
22.253
122.289
257.268
293.476
316.525
334.161
346.643
354.525
358.331
6.77743
28.2005
148.769
295.039
324.504
342.454
356.409
366.276
372.453
375.414
5.24459
29.2852
160.268
333.163
359.373
372.444
382.458
389.234
393.242
395.092
3.72519
42.486
265.219
383.842
396.423
405.337
411.396
414.593
415.905
416.353
12.0671
6.01215
267.646
432.612
436.909
439.654
433.263
413.746
390.225
375.013
1.12617
0.401488
9.47216
147.831
387.44
408.163
322.626
184.811
100.916
76.615
0.164283
0.139638
-0.0251414
-0.0116673
19.2376
45.0319
30.5399
2.71839
-0.0832878
0.195671
0.0175294
-0.0288676
-0.0985356
-0.220803
-0.337878
-0.402672
-0.440759
-0.414493
-0.362465
-0.172221
-0.0701205
-0.0949929
-0.125764
-0.173871
-0.27326
-0.331509
-0.357046
-0.34597
-0.335789
-0.23472
-0.0992237
-0.114591
-0.132564
-0.165125
-0.204391
-0.233959
-0.251299
-0.253154
-0.243066
-0.199631
-0.0961369
-0.106878
-0.119074
-0.143606
-0.168727
-0.1895
-0.196389
-0.193905
-0.183962
-0.171528
-0.0802158
-0.0891383
-0.101356
-0.120318
-0.138494
-0.152633
-0.160122
-0.160896
-0.157717
-0.15546
-0.0614236
-0.0696878
-0.0838663
-0.0993735
-0.114769
-0.126566
-0.1341
-0.137447
-0.138287
-0.139122
-0.0450927
-0.0527048
-0.066942
-0.0813947
-0.0955467
-0.106441
-0.114033
-0.118532
-0.120931
-0.122654
-0.0328089
-0.0397957
-0.0532265
-0.0667276
-0.0800291
-0.0903655
-0.0979437
-0.102957
-0.106029
-0.107967
-0.0238907
-0.0305259
-0.0422652
-0.0553338
-0.0676647
-0.077395
-0.0847639
-0.0899136
-0.0932284
-0.0951304
178.366
193.865
216.023
240.137
263.863
284.895
301.944
314.692
323.134
327.326
163.897
188.092
215.96
242.851
267.758
289.209
306.226
318.799
327.074
331.169
135.163
185.796
223.086
251.243
276.291
297.586
314.224
326.37
334.311
338.226
119.851
183.19
239.524
267.922
291.235
311.02
326.5
337.719
345.015
348.6
137.112
194.989
266.617
293.187
312.866
329.811
343.198
352.845
359.088
362.143
149.234
221.098
302.526
324.256
339.491
352.857
363.458
371.004
375.839
378.19
140.365
237.861
339.493
359.206
370.258
379.834
387.213
392.15
395.179
396.625
197.469
313.384
385.448
396.37
403.893
409.913
413.602
415.332
416.101
416.461
273.592
367.1
432.168
436.995
439.289
435.729
419.136
394.288
372.374
361.066
3.54425
72.4166
184.543
384.337
418.644
355.32
218.067
114.335
70.4358
58.7516
0.0903871
-0.113952
-0.03589
17.6594
50.1705
41.4271
8.86096
-0.103175
-0.12127
0.0319066
-0.0592814
-0.182379
-0.233368
-0.328098
-0.388624
-0.424258
-0.417833
-0.356687
-0.289297
-0.172421
-0.117211
-0.152719
-0.189533
-0.266883
-0.320035
-0.350565
-0.334775
-0.304839
-0.276051
-0.211303
-0.135071
-0.151534
-0.172588
-0.20125
-0.225772
-0.242273
-0.244301
-0.233946
-0.217669
-0.192163
-0.124952
-0.134269
-0.148493
-0.167133
-0.185283
-0.19346
-0.194051
-0.188436
-0.179535
-0.172829
-0.10687
-0.11377
-0.124475
-0.137645
-0.150004
-0.158487
-0.161816
-0.16067
-0.157633
-0.15651
-0.0876727
-0.0936886
-0.103259
-0.114258
-0.124548
-0.13254
-0.137339
-0.139141
-0.139316
-0.139951
-0.0706115
-0.0761766
-0.0851666
-0.095194
-0.104657
-0.112396
-0.117813
-0.121006
-0.122701
-0.124023
-0.0568697
-0.0619642
-0.0704199
-0.0797731
-0.0887075
-0.0962529
-0.101917
-0.105736
-0.108116
-0.109644
-0.0463323
-0.0509276
-0.0587958
-0.0674612
-0.0758475
-0.0830782
-0.0887225
-0.0927604
-0.0954019
-0.096933
230.863
238.812
251.89
267.979
284.703
300.115
313.072
323.027
329.736
333.104
231.083
241.43
255.408
272.019
289.023
304.415
317.189
326.933
333.473
336.747
234.342
248.882
263.934
280.551
297.411
312.466
324.792
334.116
340.342
343.45
252.299
264.595
279.583
295.135
310.864
324.861
336.223
344.761
350.433
353.255
285.897
290.702
302.988
316.184
329.673
341.753
351.507
358.788
363.598
365.982
320.342
322.878
331.997
342.16
352.74
362.275
369.886
375.494
379.165
380.976
351.64
357.348
364.695
372.209
379.743
386.354
391.336
394.834
397.067
398.157
390.521
394.554
400.052
405.181
409.856
413.171
414.953
415.813
416.309
416.571
435.012
437.808
438.065
439.702
435.938
420.774
397.079
372.211
355.269
346.989
298.379
345.362
402.23
406.927
354.29
233.099
126.206
72.4065
51.1069
45.3353
0.333613
11.5178
26.2743
43.5982
40.6806
13.7954
-0.0952005
-0.137402
-0.129385
-0.0690595
-0.219567
-0.295006
-0.355635
-0.398662
-0.425331
-0.418848
-0.364609
-0.277483
-0.229848
-0.173573
-0.216394
-0.258042
-0.297198
-0.325744
-0.34831
-0.334212
-0.30156
-0.2615
-0.231015
-0.195251
-0.191561
-0.203766
-0.217927
-0.230391
-0.241277
-0.242785
-0.232747
-0.217276
-0.20127
-0.186935
-0.15988
-0.166443
-0.175898
-0.18784
-0.192862
-0.193804
-0.190121
-0.183187
-0.175911
-0.171925
-0.131721
-0.136305
-0.143489
-0.151621
-0.15813
-0.161687
-0.161908
-0.159633
-0.156811
-0.155995
-0.109338
-0.112953
-0.118946
-0.125915
-0.132307
-0.137021
-0.139536
-0.140137
-0.139844
-0.140197
-0.0909246
-0.0940438
-0.0995057
-0.105981
-0.112225
-0.117372
-0.120952
-0.123029
-0.12412
-0.125042
-0.0759674
-0.078757
-0.0838678
-0.0900131
-0.0961155
-0.101406
-0.105453
-0.108226
-0.109978
-0.111118
-0.0640168
-0.0665378
-0.0713176
-0.0771038
-0.0829581
-0.0881817
-0.0923674
-0.0954237
-0.0974535
-0.0986404
264.771
269.857
278.683
289.796
301.656
312.955
322.754
330.464
335.748
338.427
268.649
273.91
282.905
294.137
305.949
317.077
326.656
334.158
339.284
341.878
277.18
282.396
291.324
302.437
313.968
324.687
333.832
340.95
345.794
348.239
293.615
297.358
305.27
315.571
326.271
336.129
344.477
350.933
355.305
357.506
316.618
318.768
325.051
333.805
342.997
351.424
358.516
363.963
367.631
369.471
343.151
344.546
349.291