/*--------------------------------*- C++ -*----------------------------------*\
| =========                 |                                                 |
| \\      /  F ield         | OpenFOAM: The Open Source CFD Toolbox           |
|  \\    /   O peration     | Version:  2312                                  |
|   \\  /    A nd           | Website:  www.openfoam.com                      |
|    \\/     M anipulation  |                                                 |
\*---------------------------------------------------------------------------*/
FoamFile
{
    version     2.0;
    format      ascii;
    arch        "LSB;label=32;scalar=64";
    class       volScalarField;
    location    "0.15";
    object      p;
}
// * * * * * * * * * * * * * * * * * * * * * * * * * * * * * * * * * * * * * //

dimensions      [1 -1 -2 0 0 0 0];

internalField   nonuniform List<scalar> 
8000
(
511.193
508.954
504.886
499.681
494.052
488.602
483.793
479.946
477.277
475.915
458.084
455.911
451.963
446.915
441.455
436.166
431.491
427.746
425.144
423.814
400.561
398.525
394.826
390.101
384.992
380.034
375.641
372.112
369.654
368.396
339.268
337.43
334.085
329.812
325.182
320.673
316.66
313.422
311.159
309.998
274.895
273.282
270.342
266.58
262.49
258.485
254.9
251.992
249.951
248.901
207.852
206.45
203.905
200.656
197.118
193.642
190.515
187.97
186.179
185.258
140.26
139
136.729
133.861
130.76
127.713
124.972
122.742
121.168
120.353
67.8172
66.5851
64.3957
61.7384
58.9694
56.287
53.9291
52.0587
50.7575
50.0899
9.6526
9.31365
8.76939
8.25514
7.76606
7.1721
6.6815
6.32765
6.06772
5.93079
-0.566418
-0.682687
-0.766063
-0.716943
-0.655194
-0.674929
-0.689311
-0.665786
-0.656354
-0.650496
-0.772045
-0.826391
-0.865045
-0.859984
-0.825713
-0.802161
-0.782024
-0.761303
-0.749744
-0.742007
-0.967014
-0.982423
-0.974541
-0.94356
-0.908647
-0.884893
-0.865254
-0.847008
-0.833756
-0.825854
-1.02016
-1.01246
-0.993931
-0.974176
-0.957965
-0.943459
-0.928118
-0.91383
-0.903017
-0.896539
-1.01217
-1.01167
-1.00982
-1.0061
-0.998856
-0.988871
-0.977856
-0.967617
-0.959728
-0.955071
-1.03861
-1.04221
-1.04392
-1.04185
-1.03643
-1.02918
-1.02129
-1.01391
-1.0082
-1.00492
-1.07848
-1.08008
-1.07958
-1.07685
-1.07238
-1.06684
-1.06094
-1.05549
-1.05131
-1.04898
-1.11269
-1.11338
-1.1125
-1.11016
-1.1066
-1.10229
-1.09778
-1.09369
-1.09058
-1.08889
-1.14444
-1.14491
-1.14413
-1.1422
-1.13933
-1.13595
-1.13248
-1.12937
-1.12703
-1.12578
-1.17538
-1.17564
-1.17485
-1.17318
-1.17085
-1.16818
-1.16551
-1.16315
-1.16139
-1.16047
-1.20502
-1.20514
-1.20442
-1.20306
-1.20123
-1.19921
-1.19722
-1.1955
-1.19423
-1.19358
515.954
513.388
508.794
503.004
496.824
490.905
485.723
481.602
478.753
477.303
462.513
460.04
455.612
450.034
444.078
438.365
433.35
429.351
426.582
425.169
404.398
402.108
398.009
392.85
387.337
382.032
377.355
373.611
371.008
369.678
342.27
340.262
336.646
332.081
327.175
322.419
318.192
314.784
312.402
311.18
277.063
275.379
272.306
268.397
264.153
259.991
256.252
253.21
251.07
249.968
209.448
208.046
205.462
202.155
198.537
194.953
191.703
189.041
187.16
186.19
142.356
141.023
138.587
135.537
132.258
129.036
126.12
123.733
122.045
121.17
71.632
70.0292
67.2226
63.9286
60.6821
57.6789
55.0419
52.9409
51.4888
50.7489
12.3204
11.1496
9.51639
8.45523
7.94544
7.47968
6.93996
6.5055
6.21141
6.06483
-0.193293
-0.499501
-0.890957
-1.05949
-0.969409
-0.812726
-0.728616
-0.695854
-0.677136
-0.654225
-0.866105
-0.935149
-0.984095
-0.975475
-0.928305
-0.864565
-0.816315
-0.783939
-0.763353
-0.748504
-1.06264
-1.08457
-1.06832
-1.01287
-0.956951
-0.915973
-0.885173
-0.861036
-0.843951
-0.832825
-1.08964
-1.07846
-1.04511
-1.01045
-0.981971
-0.959441
-0.939453
-0.922678
-0.910144
-0.902588
-1.04234
-1.03646
-1.02681
-1.01816
-1.00811
-0.996442
-0.984188
-0.973032
-0.964415
-0.959338
-1.04743
-1.04933
-1.04923
-1.04641
-1.04073
-1.03322
-1.025
-1.01731
-1.01131
-1.0079
-1.08164
-1.08321
-1.08265
-1.07984
-1.07522
-1.06951
-1.06342
-1.0578
-1.05346
-1.05108
-1.1151
-1.11582
-1.11491
-1.11246
-1.10874
-1.10426
-1.09959
-1.09535
-1.09212
-1.09039
-1.14683
-1.14722
-1.1463
-1.14418
-1.14109
-1.13751
-1.13386
-1.13059
-1.12815
-1.12686
-1.17791
-1.178
-1.17696
-1.17499
-1.17235
-1.16944
-1.16656
-1.16405
-1.1622
-1.16124
-1.20742
-1.20733
-1.2063
-1.20459
-1.20244
-1.20017
-1.19799
-1.19613
-1.19478
-1.19409
525.95
522.628
516.851
509.777
502.419
495.513
489.558
484.872
481.655
480.025
471.728
468.566
463.07
456.346
449.34
442.743
437.028
432.513
429.403
427.823
412.236
409.381
404.409
398.335
391.99
385.979
380.731
376.554
373.66
372.184
348.029
345.703
341.566
336.453
331.035
325.813
321.18
317.442
314.828
313.486
280.608
278.918
275.749
271.69
267.255
262.855
258.855
255.57
253.245
252.043
211.345
210.201
207.864
204.692
201.091
197.404
193.973
191.11
189.063
188.002
144.96
143.842
141.534
138.437
134.99
131.513
128.307
125.641
123.739
122.749
78.0535
76.3158
72.8465
68.5603
64.2639
60.4415
57.2299
54.6825
52.9237
52.0324
20.6021
18.6067
14.0337
10.3393
8.53139
7.8854
7.40984
6.87907
6.49782
6.31464
1.56885
0.708042
-0.164371
-0.811467
-1.08436
-0.992218
-0.794034
-0.706054
-0.695381
-0.664344
-0.898071
-0.901194
-0.92768
-0.939983
-0.932925
-0.903664
-0.851622
-0.8075
-0.782059
-0.759556
-1.04312
-1.05243
-1.04694
-1.02025
-0.983086
-0.944481
-0.910223
-0.88103
-0.859751
-0.845044
-1.08607
-1.07596
-1.05505
-1.03184
-1.00674
-0.980547
-0.956496
-0.936569
-0.921665
-0.912241
-1.06081
-1.05532
-1.04552
-1.03483
-1.02261
-1.00891
-0.994881
-0.982164
-0.97222
-0.96639
-1.06416
-1.065
-1.06285
-1.05774
-1.05027
-1.04143
-1.0321
-1.02347
-1.01669
-1.01298
-1.09141
-1.09271
-1.09158
-1.08787
-1.08217
-1.07546
-1.06851
-1.0622
-1.05733
-1.05479
-1.12208
-1.12274
-1.12152
-1.11844
-1.11393
-1.10871
-1.10338
-1.09859
-1.09498
-1.09314
-1.1533
-1.15342
-1.15197
-1.14911
-1.14524
-1.14098
-1.13674
-1.13303
-1.13028
-1.1289
-1.1843
-1.18393
-1.18215
-1.17929
-1.1758
-1.17221
-1.16879
-1.16588
-1.16377
-1.16272
-1.21331
-1.21264
-1.21079
-1.20815
-1.20518
-1.20227
-1.19962
-1.19743
-1.19588
-1.19511
542.2
537.448
529.523
520.223
510.896
502.391
495.208
489.641
485.858
483.951
486.57
482.084
474.655
465.967
457.238
449.232
442.423
437.11
433.482
431.646
424.509
420.587
414.086
406.506
398.852
391.754
385.639
380.81
377.481
375.788
356.229
353.288
348.39
342.559
336.483
330.647
325.456
321.254
318.306
316.792
284.358
282.517
279.528
275.688
271.305
266.767
262.501
258.917
256.345
255.006
211.663
210.73
209.344
207.153
204.122
200.612
197.088
194.015
191.765
190.583
145.632
144.68
143.407
141.317
138.302
134.797
131.318
128.321
126.138
124.99
82.1534
81.0553
78.8361
74.75
69.6768
64.6395
60.4144
57.2039
55.0004
53.8802
27.2451
26.5232
23.1581
16.5747
11.2846
8.71906
7.87672
7.39487
6.9214
6.66023
8.41829
5.09536
1.97281
0.216258
-0.674353
-1.06306
-1.0022
-0.79765
-0.727113
-0.679538
-1.13161
-1.02053
-0.924869
-0.893767
-0.899069
-0.910899
-0.898194
-0.851887
-0.813234
-0.775951
-1.11687
-1.10662
-1.07591
-1.02412
-0.993605
-0.971204
-0.940218
-0.909134
-0.882477
-0.860935
-1.11278
-1.1005
-1.07564
-1.04801
-1.02522
-1.003
-0.978175
-0.955292
-0.937106
-0.924922
-1.07892
-1.07494
-1.06468
-1.05133
-1.03695
-1.02245
-1.00771
-0.993786
-0.982253
-0.975451
-1.07875
-1.07997
-1.07736
-1.07059
-1.06128
-1.05112
-1.04082
-1.03125
-1.02351
-1.01948
-1.10101
-1.10254
-1.10161
-1.09737
-1.09071
-1.08298
-1.07505
-1.06787
-1.06231
-1.05959
-1.13069
-1.1312
-1.12986
-1.12611
-1.12068
-1.11456
-1.10837
-1.10287
-1.09873
-1.09674
-1.16315
-1.1625
-1.16017
-1.15605
-1.15099
-1.14573
-1.14066
-1.13631
-1.13313
-1.13161
-1.19528
-1.19364
-1.19035
-1.18579
-1.18086
-1.17616
-1.1719
-1.16839
-1.16591
-1.16472
-1.22409
-1.22189
-1.21827
-1.21379
-1.20935
-1.20538
-1.20195
-1.19925
-1.19738
-1.19649
566.401
559.1
547.538
534.657
522.314
511.449
502.511
495.711
491.148
488.865
508.695
501.726
490.932
479.087
467.754
457.705
449.354
442.941
438.605
436.425
442.172
436.247
427.167
417.296
407.774
399.174
391.879
386.175
382.265
380.282
366.25
362.349
356.323
349.793
343.104
336.614
330.771
326
322.634
320.899
284.565
283.621
281.526
279.003
275.516
271.259
266.879
263.017
260.17
258.67
204.546
205.887
206.767
207.441
206.514
203.977
200.698
197.52
195.076
193.764
135.484
138.794
140.302
141.563
140.895
138.279
134.839
131.559
129.077
127.75
79.5996
80.2695
80.3785
79.524
75.6951
70.102
64.6132
60.3841
57.6066
56.2116
28.7354
29.7868
30.1937
26.2266
18.3446
11.7212
8.70098
7.84371
7.44622
7.14932
11.2807
9.55062
7.02291
3.07365
0.466738
-0.608244
-1.06166
-0.998585
-0.811965
-0.650669
-1.40968
-1.34035
-1.12535
-0.951403
-0.873839
-0.879598
-0.906544
-0.900917
-0.86181
-0.791883
-1.23108
-1.25784
-1.20209
-1.10253
-1.01229
-0.98088
-0.968865
-0.941821
-0.91235
-0.878245
-1.14865
-1.1461
-1.12395
-1.08661
-1.04734
-1.02154
-1.00104
-0.977823
-0.955693
-0.938287
-1.08857
-1.09373
-1.08764
-1.07219
-1.0533
-1.03608
-1.02084
-1.00636
-0.993116
-0.985019
-1.08415
-1.09004
-1.09063
-1.08403
-1.07316
-1.06143
-1.05
-1.0395
-1.03069
-1.02636
-1.10479
-1.10927
-1.1107
-1.10693
-1.09975
-1.09116
-1.08223
-1.07407
-1.06766
-1.06478
-1.13817
-1.13962
-1.13893
-1.13452
-1.12818
-1.12113
-1.11398
-1.10764
-1.10285
-1.10071
-1.17626
-1.1745
-1.17083
-1.16465
-1.15791
-1.15135
-1.14521
-1.14005
-1.13631
-1.13463
-1.21293
-1.20861
-1.20231
-1.19461
-1.1874
-1.18109
-1.17564
-1.17133
-1.16834
-1.16697
-1.24281
-1.23731
-1.22989
-1.22191
-1.21502
-1.2094
-1.20484
-1.2014
-1.1991
-1.19805
600.694
589.193
571.759
553.397
536.653
522.485
511.176
502.761
497.198
494.439
540.611
529.108
512.705
495.944
480.817
467.938
457.53
449.688
444.453
441.839
464.783
456.735
443.718
430.594
418.557
407.98
399.161
392.345
387.708
385.366
369.222
369.793
364.018
357.268
350.349
343.331
336.804
331.384
327.526
325.529
259.339
272.463
278.156
279.591
278.765
275.746
271.609
267.568
264.454
262.779
158.33
178.528
194.434
202.557
206.579
206.712
204.368
201.327
198.75
197.316
77.8176
103.46
124.911
135.393
140.583
141.018
138.436
135.097
132.339
130.825
41.6868
61.2577
72.1877
77.8574
79.4654
75.6864
69.6307
64.1794
60.573
58.8547
-2.12612
21.7295
29.8135
31.5176
27.2269
18.2973
11.2518
8.48099
7.88849
7.72169
1.78114
3.21322
8.84869
8.56534
3.66578
0.460436
-0.673702
-1.08038
-0.965895
-0.63158
-1.42018
-1.70449
-1.48408
-1.20044
-0.956559
-0.865309
-0.889098
-0.924036
-0.923259
-0.811432
-1.33597
-1.41696
-1.34879
-1.23303
-1.09597
-1.0024
-0.984824
-0.978439
-0.953637
-0.901029
-1.15497
-1.18702
-1.17708
-1.14239
-1.08861
-1.04257
-1.01933
-1.00188
-0.976993
-0.951235
-1.07675
-1.101
-1.10851
-1.09593
-1.07312
-1.05088
-1.03311
-1.01827
-1.00328
-0.993517
-1.07367
-1.08875
-1.09918
-1.09598
-1.08514
-1.07196
-1.05898
-1.04723
-1.03715
-1.03263
-1.09762
-1.10864
-1.11684
-1.11482
-1.10818
-1.09914
-1.0893
-1.08012
-1.0727
-1.06966
-1.14308
-1.14611
-1.14787
-1.14248
-1.13558
-1.12771
-1.1196
-1.11236
-1.10682
-1.10454
-1.19544
-1.18975
-1.18396
-1.17422
-1.16548
-1.15734
-1.14992
-1.14383
-1.13945
-1.13759
-1.24376
-1.23188
-1.219
-1.20562
-1.19517
-1.18665
-1.17968
-1.17437
-1.17078
-1.16921
-1.27795
-1.26368
-1.24732
-1.2328
-1.22213
-1.21411
-1.20803
-1.20367
-1.20084
-1.19959
650.218
630.281
603.053
576.527
553.632
535.043
520.692
510.285
503.525
500.206
584.279
565.936
540.985
516.772
496.225
479.521
466.471
456.873
450.562
447.44
485.292
480.229
463.599
446.29
430.956
417.812
407.066
398.889
393.385
390.622
350.189
364.891
368.456
364.228
357.72
350.399
343.17
337.02
332.601
330.305
203.127
232.245
261.877
275.713
280.091
279.649
276.299
272.219
268.857
267.001
78.6338
108.957
159.396
189.863
203.041
208.027
207.671
205.11
202.494
200.951
11.7492
30.6923
81.6138
119.474
135.736
141.957
141.624
138.647
135.676
133.965
3.78558
9.73789
45.9155
68.0239
77.9701
79.5737
74.6923
68.4357
63.776
61.5739
-0.979892
2.94742
16.2267
28.2963
31.3311
26.0574
16.4177
10.2557
8.39056
8.18337
-0.769899
-0.918442
0.520747
9.90272
8.51342
3.04054
0.194598
-0.807408
-1.04648
-0.691775
-1.15716
-1.47896
-1.58466
-1.38728
-1.15875
-0.92483
-0.877976
-0.927935
-0.962405
-0.841653
-1.21605
-1.35969
-1.42246
-1.33232
-1.20135
-1.07565
-1.00491
-1.01099
-1.00922
-0.935496
-1.1078
-1.17511
-1.21308
-1.1882
-1.13449
-1.07501
-1.03662
-1.02411
-1.00537
-0.967279
-1.04106
-1.08271
-1.1157
-1.11383
-1.09342
-1.06731
-1.04533
-1.02885
-1.01227
-0.999833
-1.03812
-1.06457
-1.09839
-1.10269
-1.09576
-1.08226
-1.06757
-1.05393
-1.04204
-1.03736
-1.08014
-1.09575
-1.11932
-1.11941
-1.11532
-1.10643
-1.09577
-1.08549
-1.07692
-1.07375
-1.14582
-1.15138
-1.15738
-1.14936
-1.14267
-1.134
-1.12484
-1.11662
-1.11026
-1.10782
-1.22045
-1.21149
-1.20058
-1.18472
-1.1737
-1.16354
-1.15454
-1.14732
-1.14221
-1.14016
-1.28859
-1.27079
-1.24237
-1.21941
-1.20434
-1.19277
-1.18382
-1.17729
-1.17297
-1.17116
-1.33233
-1.31041
-1.27329
-1.24757
-1.23103
-1.21953
-1.21142
-1.2059
-1.20242
-1.20094
728.863
689.314
642.649
603.351
572.262
548.156
530.19
517.527
509.463
505.547
646.517
617.279
576.937
541.441
513.357
491.663
475.396
463.788
456.3
452.632
505.187
496.016
484.027
464.283
444.626
428.1
414.955
405.194
398.723
395.502
351.32
346.095
360.78
369.433
365.232
357.496
349.397
342.406
337.363
334.74
215.062
194.297
223.277
263.142
279.575
282.855
280.592
276.57
272.962
270.916
91.1573
88.3707
104.143
161.112
195.913
208.032
210.294
208.54
205.961
204.318
19.7775
27.5988
29.6963
82.7506
126.026
141.19
144.002
141.892
138.802
136.88
0.578252
-0.235001
7.77963
46.2266
72.6251
80.6177
78.8179
72.6557
66.9902
64.1633
-0.346489
-0.439318
1.34078
16.3807
29.685
29.866
22.7811
13.7117
9.37822
8.6538
-0.558868
-0.631198
-0.741149
0.969902
9.28871
7.00825
1.82618
-0.201789
-0.885216
-0.734275
-1.10711
-1.29739
-1.47497
-1.45324
-1.26515
-1.03596
-0.905534
-0.916715
-0.966847
-0.840816
-1.13768
-1.33351
-1.3993
-1.38311
-1.2793
-1.14295
-1.04782
-1.03049
-1.06299
-0.964231
-1.06977
-1.15377
-1.2031
-1.20646
-1.16042
-1.10394
-1.05889
-1.0442
-1.04001
-0.987296
-1.01294
-1.04538
-1.10387
-1.11895
-1.10678
-1.08183
-1.05752
-1.03874
-1.02081
-1.00341
-1.02191
-1.01807
-1.0845
-1.10275
-1.10245
-1.09027
-1.0747
-1.05901
-1.04472
-1.03921
-1.07204
-1.05543
-1.11696
-1.12135
-1.12034
-1.11185
-1.10071
-1.08943
-1.07978
-1.07649
-1.13811
-1.13027
-1.16443
-1.15551
-1.14895
-1.13917
-1.12899
-1.11985
-1.11275
-1.11017
-1.22473
-1.22251
-1.21602
-1.1957
-1.18192
-1.16914
-1.15843
-1.15005
-1.1442
-1.14198
-1.31363
-1.30371
-1.26632
-1.23517
-1.21405
-1.1986
-1.18746
-1.17963
-1.17459
-1.17257
-1.37302
-1.36295
-1.30406
-1.26615
-1.2409
-1.22485
-1.21444
-1.20769
-1.20357
-1.20188
855.205
772.707
689.653
630.867
589.921
559.909
538.282
523.452
514.189
509.738
742.427
680.33
618.086
567.077
530.161
502.749
483.054
469.464
460.877
456.714
563.062
516.206
497.64
482.051
458.37
437.672
421.801
410.407
403.002
399.351
408.005
371.82
348.695
367.874
372.249
364.31
354.797
346.859
341.192
338.251
257.834
219.091
199.467
235.96
275.403
286.003
284.212
280.103
276.258
274.019
110.986
93.3541
90.7949
113.303
181.705
208.265
212.324
211.224
208.737
206.992
27.8965
26.7477
25.8548
32.113
106.437
140.631
145.717
144.413
141.33
139.204
3.02683
5.32786
-0.874058
9.82781
62.8692
80.8856
81.1662
76.0918
69.6933
66.2753
-0.720176
0.404261
-1.3472
0.676804
20.9341
28.861
25.8698
17.9483
10.7864
9.15901
-0.926317
-0.960107
-0.946599
-1.04978
7.24641
9.31013
4.47814
0.554345
-0.541438
-0.664913
-1.08928
-1.45769
-1.37696
-1.36708
-1.15608
-1.13397
-0.977551
-0.884813
-0.922737
-0.806359
-1.10021
-1.31024
-1.35964
-1.31629
-1.32298
-1.1723
-1.05604
-1.03523
-1.07887
-0.974054
-1.01849
-1.09131
-1.18842
-1.1789
-1.1718
-1.12152
-1.07794
-1.06319
-1.07327
-1.00697
-0.931779
-0.853226
-1.10141
-1.1059
-1.10881
-1.09048
-1.06822
-1.04889
-1.03062
-1.00604
-0.822279
-0.831043
-1.09249
-1.0957
-1.10365
-1.09421
-1.07934
-1.0623
-1.0455
-1.03815
-0.947389
-0.889117
-1.13211
-1.12284
-1.1235
-1.11479
-1.10363
-1.09163
-1.08099
-1.07756
-1.16151
-0.877003
-1.18582
-1.16587
-1.15531
-1.14288
-1.13172
-1.12182
-1.11412
-1.11145
-1.25059
-0.894991
-1.23456
-1.21128
-1.1906
-1.17376
-1.16124
-1.15179
-1.1453
-1.14293
-1.35809
-1.03733
-1.27218
-1.25291
-1.22377
-1.2036
-1.19021
-1.18118
-1.1755
-1.17329
-1.4403
-1.45348
-1.31683
-1.28648
-1.25024
-1.22937
-1.21671
-1.20885
-1.20419
-1.20231
991.807
853.96
728.95
650.818
601.499
567.29
543.13
526.876
516.857
512.077
843.34
742.441
647.814
585.984
541.939
509.922
487.71
472.767
463.471
458.997
608.851
568.555
509.821
488.969
467.368
444.129
426.061
413.481
405.448
401.517
425.687
415.191
360.794
356.205
373.383
369.237
358.316
349.51
343.399
340.238
277.953
262.4
221.497
209.766
264.18
288.337
286.861
282.209
278.169
275.786
131.333
111.451
94.2283
82.2954
163.998
208.668
214.173
212.806
210.351
208.523
19.3169
26.1084
18.1411
9.49089
83.7767
139.353
147.399
145.851
142.791
140.527
3.28647
2.50519
1.05672
2.96525
46.1603
81.4546
82.6717
77.936
71.2346
67.448
0.396817
-0.792666
-0.570157
-1.83929
-3.81448
28.0737
26.5424
19.7902
11.6889
9.43268
-0.575399
-1.01537
-0.832594
-1.22949
2.84937
11.4873
7.6729
1.22336
-0.2725
-0.568591
-0.957164
-1.13905
-1.20895
-1.21008
-1.29186
-1.32722
-1.09597
-0.876855
-0.86196
-0.761135
-1.05045
-1.13137
-1.2078
-1.23727
-1.2986
-1.18359
-1.07616
-1.02336
-1.06014
-0.963157
-1.01285
-1.04626
-1.1221
-1.13209
-1.15638
-1.1343
-1.0955
-1.075
-1.08653
-1.01696
-0.96507
-0.965745
-1.07409
-1.07623
-1.09666
-1.09168
-1.07569
-1.05651
-1.03867
-1.00821
-0.998827
-0.876527
-1.08551
-1.07786
-1.09599
-1.09342
-1.08109
-1.06344
-1.04521
-1.03593
-1.09636
-1.10372
-1.12425
-1.11469
-1.11955
-1.11458
-1.10455
-1.09192
-1.08067
-1.07706
-1.18305
-1.18515
-1.17591
-1.16577
-1.15554
-1.14399
-1.13284
-1.12224
-1.11424
-1.11152
-1.24935
-1.26045
-1.23343
-1.21932
-1.19485
-1.17605
-1.16256
-1.15221
-1.14539
-1.14289
-1.32111
-1.33588
-1.28728
-1.26642
-1.23064
-1.20654
-1.19158
-1.18157
-1.17554
-1.17319
-1.36627
-1.39206
-1.32725
-1.29831
-1.25709
-1.23204
-1.21783
-1.20907
-1.20411
-1.20211
985.763
849.75
727.161
650.15
601.349
567.247
543.152
526.92
516.906
512.126
840.813
739.59
646.692
585.352
541.614
509.866
487.735
472.815
463.522
459.048
609.22
566.898
510.17
489.191
467.345
444.136
426.107
413.538
405.503
401.57
429.441
417.434
364.276
358.541
374.087
369.418
358.407
349.583
343.46
340.292
282.165
267.137
225.528
212.609
265.39
288.709
286.995
282.294
278.231
275.837
134.018
116.097
97.5773
85.1678
165.147
209.057
214.315
212.888
210.405
208.566
20.8836
29.7254
20.7933
11.4071
84.653
139.808
147.484
145.906
142.826
140.553
3.50973
3.27212
1.06593
4.11739
47.6636
81.5586
82.6211
77.9274
71.2239
67.4431
0.390564
-0.924638
-0.789713
-2.10811
-3.58493
27.8285
26.2533
19.711
11.6726
9.43205
-0.623384
-1.08911
-0.899574
-1.32206
3.00538
11.3706
7.70248
1.23068
-0.26626
-0.556484
-0.985301
-1.16357
-1.2146
-1.21724
-1.28572
-1.34254
-1.10081
-0.872843
-0.857446
-0.753553
-1.06088
-1.13421
-1.20325
-1.23736
-1.29653
-1.18326
-1.073
-1.01959
-1.05773
-0.960567
-1.02106
-1.04594
-1.10865
-1.12908
-1.15124
-1.13226
-1.09372
-1.07373
-1.08686
-1.01605
-0.968382
-0.981874
-1.05693
-1.07346
-1.09207
-1.08928
-1.07399
-1.05543
-1.0382
-1.00667
-0.9938
-0.953984
-1.07155
-1.07729
-1.09268
-1.09157
-1.0795
-1.06202
-1.04375
-1.03411
-1.09023
-1.02195
-1.12078
-1.11579
-1.11771
-1.11336
-1.10326
-1.09063
-1.07934
-1.07567
-1.19063
-1.20097
-1.18047
-1.16642
-1.15513
-1.14327
-1.13181
-1.12114
-1.11311
-1.11037
-1.25644
-1.255
-1.24126
-1.21889
-1.19488
-1.17545
-1.16162
-1.15121
-1.14436
-1.14187
-1.32565
-1.31993
-1.29463
-1.26523
-1.23045
-1.20577
-1.19063
-1.18062
-1.1746
-1.17226
-1.37213
-1.38904
-1.33246
-1.29607
-1.25629
-1.23096
-1.21682
-1.20814
-1.20322
-1.20125
852.428
771.007
689.047
630.734
589.994
560.06
538.453
523.618
514.345
509.887
745.3
680.817
618.159
567.205
530.358
502.976
483.265
469.65
461.041
456.867
574.919
520.365
499.638
483.101
459.005
438.096
422.101
410.631
403.182
399.512
419.175
375.998
352.811
370.552
373.601
365.041
355.223
347.133
341.389
338.415
263.408
224.409
204.029
239.945
277.428
287.04
284.757
280.418
276.461
274.178
113.956
100.635
95.3177
117.896
184.241
209.428
212.904
211.538
208.923
207.128
30.6214
32.862
27.3672
35.1758
109.078
141.621
146.183
144.671
141.468
139.295
3.67424
7.76097
-0.363919
11.4304
63.697
81.1018
81.3245
76.1851
69.728
66.2866
-0.96782
0.0959147
-1.3506
0.352544
20.8633
28.6992
25.8175
18.0279
10.8122
9.15399
-1.10494
-1.24568
-1.07399
-1.19282
7.3969
9.73259
4.68828
0.598025
-0.522208
-0.642924
-1.16153
-1.44964
-1.39432
-1.38603
-1.15939
-1.1423
-0.971995
-0.875595
-0.915534
-0.794558
-1.11915
-1.26876
-1.33289
-1.31797
-1.32285
-1.17427
-1.05154
-1.02885
-1.07541
-0.972602
-1.03222
-1.03207
-1.15928
-1.16785
-1.16254
-1.11507
-1.07294
-1.05936
-1.07276
-1.00468
-0.965156
-0.808623
-1.08085
-1.09789
-1.10054
-1.08429
-1.06318
-1.0448
-1.02733
-1.00128
-0.851094
-0.940588
-1.08209
-1.09362
-1.09853
-1.0895
-1.07488
-1.05804
-1.04116
-1.03338
-1.00585
-0.978151
-1.12582
-1.12455
-1.12065
-1.11145
-1.1
-1.08789
-1.07719
-1.07371
-1.20839
-0.935649
-1.18332
-1.16753
-1.15339
-1.14029
-1.12865
-1.11854
-1.11078
-1.1081
-1.25246
-0.939245
-1.23981
-1.21202
-1.18867
-1.17128
-1.15839
-1.14879
-1.14228
-1.1399
-1.32575
-1.02845
-1.28169
-1.25007
-1.22077
-1.20067
-1.18732
-1.17832
-1.1727
-1.17052
-1.39874
-1.29953
-1.31712
-1.27787
-1.24552
-1.22571
-1.21365
-1.20605
-1.20155
-1.19975
728.964
689.47
642.941
603.697
572.631
548.514
530.514
517.814
509.722
505.791
648.49
618.345
577.677
542.065
513.896
492.118
475.771
464.099
456.569
452.881
511.879
499.297
486.078
465.634
445.56
428.759
415.43
405.55
399.011
395.757
362.14
350.992
364.389
371.91
366.756
358.442
350.001
342.815
337.667
334.997
220.795
201.792
228.12
266.5
281.669
284.064
281.3
277.009
273.263
271.158
96.2383
94.9723
109.902
165.16
198.308
209.32
211.009
208.956
206.226
204.52
21.259
28.6042
31.9762
86.6446
128.084
142.208
144.572
142.211
138.987
137.01
0.730595
-0.623573
8.45321
47.6347
73.3825
80.9844
79.0213
72.7593
67.0319
64.1754
-0.836942
-1.50211
1.1331
15.8652
29.6539
29.7618
22.8332
13.7876
9.38687
8.63098
-0.914423
-1.09509
-0.826904
1.02676
9.26175
7.09024
1.88433
-0.181664
-0.872614
-0.71693
-1.19615
-1.33021
-1.47002
-1.45424
-1.27277
-1.0302
-0.892304
-0.906182
-0.961759
-0.829214
-1.17017
-1.29616
-1.36525
-1.38228
-1.27674
-1.13928
-1.03722
-1.01873
-1.06648
-0.958861
-1.08625
-1.13703
-1.18008
-1.19059
-1.14416
-1.09308
-1.04945
-1.0366
-1.03719
-0.980797
-1.03974
-1.06029
-1.09471
-1.1077
-1.09497
-1.07169
-1.04881
-1.03111
-1.01389
-0.995314
-1.0592
-1.06096
-1.08722
-1.09942
-1.09536
-1.08261
-1.06733
-1.05195
-1.03771
-1.03197
-1.11128
-1.10999
-1.12016
-1.12185
-1.11608
-1.10612
-1.09464
-1.08329
-1.07362
-1.07033
-1.17356
-1.17403
-1.16784
-1.15749
-1.14589
-1.1345
-1.12379
-1.11444
-1.10727
-1.10469
-1.23861
-1.2447
-1.2173
-1.19599
-1.17846
-1.16465
-1.15362
-1.1451
-1.13924
-1.13704
-1.29955
-1.2957
-1.26114
-1.23053
-1.20884
-1.19359
-1.18266
-1.17495
-1.17002
-1.16805
-1.33843
-1.32103
-1.28722
-1.25547
-1.23348
-1.21908
-1.20951
-1.20317
-1.1993
-1.19773
651.003
630.986
603.724
577.161
554.213
535.558
521.138
510.672
503.871
500.53
585.6
567.068
541.96
517.622
496.947
480.118
466.96
457.28
450.916
447.767
487.759
482.204
465.264
447.607
431.963
418.569
407.636
399.333
393.751
390.951
354.495
368.271
371.155
366.234
359.124
351.362
343.836
337.499
332.972
330.627
207.519
237.097
265.558
278.389
281.866
280.78
277.024
272.705
269.211
267.296
84.1012
116.188
164.418
192.984
204.956
209.174
208.364
205.546
202.792
201.19
12.035
35.2421
86.2401
122.026
137.217
142.849
142.145
138.955
135.87
134.111
4.26946
10.7833
47.1629
68.8737
78.5639
79.8887
74.8429
68.5032
63.7944
61.5728
-1.827
-0.259938
15.7689
27.9955
31.1489
25.9731
16.397
10.2538
8.36221
8.14882
-1.19197
-1.21356
0.989877
9.68697
8.37514
3.01076
0.20597
-0.79584
-1.04152
-0.676837
-1.1719
-1.33788
-1.46542
-1.35894
-1.14972
-0.904189
-0.860713
-0.915875
-0.955964
-0.829649
-1.20434
-1.28888
-1.36525
-1.30703
-1.18811
-1.05567
-0.988792
-0.999707
-1.00467
-0.926011
-1.10773
-1.14898
-1.1809
-1.16059
-1.11428
-1.0581
-1.02263
-1.0128
-0.996557
-0.95644
-1.05585
-1.08269
-1.10083
-1.09734
-1.07777
-1.05337
-1.03314
-1.01793
-1.00198
-0.989163
-1.0627
-1.08185
-1.0957
-1.09492
-1.08545
-1.07161
-1.05739
-1.04423
-1.03257
-1.02794
-1.10489
-1.11526
-1.11913
-1.11565
-1.10823
-1.09814
-1.08728
-1.07704
-1.06855
-1.06543
-1.16045
-1.1618
-1.15624
-1.14665
-1.13695
-1.12703
-1.11749
-1.10915
-1.10279
-1.10038
-1.21953
-1.21293
-1.19657
-1.18055
-1.16778
-1.15696
-1.1478
-1.14054
-1.13545
-1.13345
-1.271
-1.25447
-1.23207
-1.21172
-1.1971
-1.18591
-1.17729
-1.17095
-1.16677
-1.16505
-1.30285
-1.28197
-1.25683
-1.23623
-1.22225
-1.21221
-1.20495
-1.19989
-1.19668
-1.19534
601.682
590.088
572.609
554.182
537.355
523.096
511.702
503.219
497.609
494.825
541.743
530.237
513.757
496.878
481.617
468.606
458.086
450.159
444.866
442.224
466.577
458.4
445.191
431.824
419.544
408.756
399.771
392.836
388.124
385.745
371.81
372.284
366.095
358.903
351.576
344.231
337.466
331.887
327.933
325.89
261.971
275.591
280.826
281.595
280.184
276.722
272.286
268.053
264.826
263.101
161.885
182.508
197.53
204.7
208.011
207.642
204.977
201.74
199.052
197.568
81.0483
107.557
127.516
137.032
141.68
141.707
138.864
135.368
132.522
130.971
43.7497
62.3631
72.9933
78.4778
79.8542
75.8724
69.7105
64.2045
60.5699
58.8437
-3.41635
20.5006
29.7935
31.2877
27.0628
18.1602
11.197
8.44717
7.85846
7.69877
2.3492
7.44206
9.24231
8.40365
3.55771
0.455979
-0.666349
-1.06939
-0.956593
-0.611783
-1.27344
-1.12058
-1.27963
-1.147
-0.922285
-0.837742
-0.868697
-0.908066
-0.912186
-0.795891
-1.28326
-1.30639
-1.27131
-1.18627
-1.06597
-0.97751
-0.966041
-0.963591
-0.941544
-0.886414
-1.13396
-1.14599
-1.13579
-1.10914
-1.0629
-1.02161
-1.00211
-0.987212
-0.963637
-0.937111
-1.07453
-1.08573
-1.08675
-1.0743
-1.05373
-1.03378
-1.01805
-1.00464
-0.990406
-0.980914
-1.07866
-1.08717
-1.08919
-1.08294
-1.07135
-1.05851
-1.04629
-1.03519
-1.02549
-1.02117
-1.10653
-1.1117
-1.11143
-1.10627
-1.09793
-1.08832
-1.07856
-1.06958
-1.06232
-1.05941
-1.14754
-1.14734
-1.14284
-1.13553
-1.12707
-1.1185
-1.11025
-1.10303
-1.09757
-1.09536
-1.19138
-1.18608
-1.17699
-1.16685
-1.15733
-1.14886
-1.14144
-1.1354
-1.1311
-1.12932
-1.23016
-1.22062
-1.20841
-1.19649
-1.18648
-1.17832
-1.17168
-1.1666
-1.16316
-1.16169
-1.25723
-1.24602
-1.23335
-1.22179
-1.21272
-1.20574
-1.20036
-1.19642
-1.19385
-1.19274
567.407
560.065
548.453
535.497
523.064
512.105
503.081
496.212
491.601
489.293
509.84
502.84
491.973
480.02
468.563
458.395
449.94
443.446
439.055
436.847
443.665
437.677
428.457
418.403
408.693
399.923
392.491
386.684
382.707
380.691
368.277
364.243
357.948
351.119
344.148
337.421
331.398
326.5
323.053
321.279
286.937
285.944
283.442
280.491
276.63
272.077
267.484
263.476
260.541
258.999
207.103
208.336
208.729
208.906
207.56
204.709
201.213
197.893
195.365
194.015
137.743
140.722
141.774
142.664
141.657
138.787
135.175
131.788
129.243
127.889
80.3151
80.6985
80.8591
79.889
75.8944
70.1909
64.6426
60.3832
57.5913
56.1928
28.4746
29.0982
29.9992
26.1005
18.1923
11.6368
8.65864
7.81771
7.42585
7.13285
11.3248
10.0628
7.2155
3.0493
0.466005
-0.599605
-1.0475
-0.979115
-0.796179
-0.629653
-1.32774
-1.13073
-1.02283
-0.892369
-0.833512
-0.85082
-0.883686
-0.881366
-0.845205
-0.773309
-1.17826
-1.17403
-1.13932
-1.05455
-0.976783
-0.95474
-0.947859
-0.923354
-0.895402
-0.860522
-1.12081
-1.1038
-1.08413
-1.05263
-1.01954
-0.998714
-0.981635
-0.960497
-0.939442
-0.92198
-1.07453
-1.07192
-1.06292
-1.04831
-1.03175
-1.0169
-1.00365
-0.990559
-0.97805
-0.969993
-1.07834
-1.07916
-1.07558
-1.06754
-1.05679
-1.04579
-1.03527
-1.02549
-1.01712
-1.01299
-1.10248
-1.10322
-1.10059
-1.09486
-1.0869
-1.07823
-1.06958
-1.06175
-1.05557
-1.05284
-1.135
-1.13414
-1.13035
-1.12448
-1.11735
-1.11
-1.10291
-1.09671
-1.09206
-1.09002
-1.16975
-1.1671
-1.16174
-1.15503
-1.14795
-1.14129
-1.13524
-1.13022
-1.1266
-1.12501
-1.2021
-1.19802
-1.1916
-1.18445
-1.17759
-1.17158
-1.16643
-1.16235
-1.15953
-1.15827
-1.22842
-1.22386
-1.2176
-1.21104
-1.20515
-1.20024
-1.19621
-1.19314
-1.19108
-1.19015
543.186
538.403
530.43
521.059
511.649
503.056
495.794
490.163
486.334
484.404
487.64
483.123
475.63
466.853
458.021
449.913
443.013
437.629
433.951
432.09
425.748
421.786
415.189
407.48
399.686
392.458
386.233
381.319
377.933
376.211
357.697
354.694
349.645
343.628
337.364
331.362
326.037
321.736
318.724
317.178
285.995
284.075
280.876
276.793
272.179
267.449
263.033
259.343
256.704
255.333
213.267
212.241
210.617
208.161
204.89
201.187
197.519
194.347
192.035
190.825
146.712
145.733
144.323
142.03
138.824
135.168
131.58
128.512
126.286
125.119
82.4634
81.3299
79.0886
74.9162
69.7604
64.6676
60.413
57.1877
54.9773
53.8545
26.7776
26.12
23.0422
16.4764
11.2123
8.67155
7.84867
7.37696
6.90644
6.64448
8.12776
4.99791
1.98799
0.231904
-0.659807
-1.04489
-0.978759
-0.772321
-0.707968
-0.659858
-1.09399
-0.966127
-0.874015
-0.847474
-0.86386
-0.882379
-0.87408
-0.829729
-0.792984
-0.755661
-1.0704
-1.0477
-1.02986
-0.983306
-0.962044
-0.9455
-0.917601
-0.888488
-0.863034
-0.841616
-1.08426
-1.06413
-1.04118
-1.01671
-0.998331
-0.979724
-0.95735
-0.936142
-0.918966
-0.907052
-1.0607
-1.05188
-1.04009
-1.02733
-1.01473
-1.00219
-0.989096
-0.976388
-0.965584
-0.959045
-1.06691
-1.06476
-1.05985
-1.05237
-1.04339
-1.03402
-1.02459
-1.01573
-1.00846
-1.00467
-1.0926
-1.09163
-1.08848
-1.08308
-1.07608
-1.06849
-1.06093
-1.05412
-1.04884
-1.0463
-1.12312
-1.12191
-1.11882
-1.11406
-1.10819
-1.10199
-1.09595
-1.09065
-1.08669
-1.08482
-1.15472
-1.15308
-1.14967
-1.14502
-1.13974
-1.13447
-1.12954
-1.12535
-1.12231
-1.12088
-1.1852
-1.18315
-1.17953
-1.17503
-1.17026
-1.16578
-1.16176
-1.15846
-1.15614
-1.15505
-1.21245
-1.2103
-1.20696
-1.20307
-1.19917
-1.19566
-1.19262
-1.1902
-1.18854
-1.18776
526.883
523.539
517.719
510.585
503.153
496.171
490.145
485.401
482.143