/*--------------------------------*- C++ -*----------------------------------*\
| =========                 |                                                 |
| \\      /  F ield         | OpenFOAM: The Open Source CFD Toolbox           |
|  \\    /   O peration     | Version:  2312                                  |
|   \\  /    A nd           | Website:  www.openfoam.com                      |
|    \\/     M anipulation  |                                                 |
\*---------------------------------------------------------------------------*/
FoamFile
{
    version     2.0;
    format      ascii;
    arch        "LSB;label=32;scalar=64";
    class       surfaceScalarField;
    location    "0.15";
    object      phi;
}
// * * * * * * * * * * * * * * * * * * * * * * * * * * * * * * * * * * * * * //

dimensions      [0 3 -1 0 0 0 0];

oriented        oriented;

internalField   nonuniform List<scalar> 
22600
(
3.21605e-07
5.39209e-07
-8.43378e-07
5.7935e-07
5.36787e-07
-7.94533e-07
7.59832e-07
5.31405e-07
-7.11887e-07
8.49884e-07
5.22589e-07
-6.12641e-07
8.5095e-07
5.10791e-07
-5.11856e-07
7.73788e-07
4.97301e-07
-4.20139e-07
6.33714e-07
4.838e-07
-3.43726e-07
4.47347e-07
4.71973e-07
-2.85607e-07
2.30931e-07
4.63244e-07
-2.46828e-07
4.58204e-07
-2.27273e-07
3.29369e-07
1.10587e-06
-8.78181e-07
5.92424e-07
1.09945e-06
-8.25716e-07
7.75404e-07
1.08596e-06
-7.3753e-07
8.65412e-07
1.06497e-06
-6.32386e-07
8.64662e-07
1.03782e-06
-5.26282e-07
7.84723e-07
1.00741e-06
-4.30174e-07
6.41597e-07
9.77354e-07
-3.50427e-07
4.52331e-07
9.51231e-07
-2.89992e-07
2.33293e-07
9.32066e-07
-2.49784e-07
9.21038e-07
-2.29541e-07
3.17964e-07
1.67724e-06
-8.72484e-07
5.70263e-07
1.66404e-06
-8.16896e-07
7.43309e-07
1.63779e-06
-7.24885e-07
8.2608e-07
1.59921e-06
-6.17016e-07
8.22258e-07
1.55149e-06
-5.09847e-07
7.43956e-07
1.49966e-06
-4.1395e-07
6.0684e-07
1.44953e-06
-3.3506e-07
4.27119e-07
1.40661e-06
-2.75656e-07
2.20075e-07
1.37542e-06
-2.36308e-07
1.35767e-06
-2.16558e-07
3.04018e-07
2.25454e-06
-8.65562e-07
5.4302e-07
2.23134e-06
-8.06299e-07
7.03777e-07
2.18679e-06
-7.09753e-07
7.77551e-07
2.12401e-06
-5.98569e-07
7.69794e-07
2.04915e-06
-4.89896e-07
6.93324e-07
1.97019e-06
-3.94052e-07
5.6351e-07
1.89541e-06
-3.16069e-07
3.95589e-07
1.83233e-06
-2.57802e-07
2.03507e-07
1.78693e-06
-2.1943e-07
1.76143e-06
-2.00247e-07
2.80692e-07
2.82261e-06
-8.34396e-07
4.98627e-07
2.7859e-06
-7.72492e-07
6.4159e-07
2.71733e-06
-6.73504e-07
7.03582e-07
2.62377e-06
-5.6176e-07
6.91774e-07
2.51547e-06
-4.54515e-07
6.19348e-07
2.40397e-06
-3.61362e-07
5.00981e-07
2.30033e-06
-2.86555e-07
3.50469e-07
2.21405e-06
-2.31207e-07
1.79914e-07
2.15249e-06
-1.95006e-07
2.11834e-06
-1.76997e-07
2.44047e-07
3.34792e-06
-7.56761e-07
4.30144e-07
3.2958e-06
-6.95999e-07
5.48189e-07
3.1997e-06
-6.00413e-07
5.95385e-07
3.07117e-06
-4.9459e-07
5.80237e-07
2.92556e-06
-3.94941e-07
5.15504e-07
2.77847e-06
-3.0976e-07
4.1437e-07
2.64375e-06
-2.42279e-07
2.88524e-07
2.53285e-06
-1.92952e-07
1.47621e-07
2.45436e-06
-1.60969e-07
2.41112e-06
-1.45162e-07
1.95181e-07
3.83407e-06
-6.70683e-07
3.40273e-07
3.75753e-06
-6.06816e-07
4.27505e-07
3.62353e-06
-5.11068e-07
4.57869e-07
3.45134e-06
-4.10539e-07
4.40617e-07
3.2629e-06
-3.20094e-07
3.87146e-07
3.0773e-06
-2.45367e-07
3.0846e-07
2.91008e-06
-1.87646e-07
2.13534e-07
2.77413e-06
-1.46359e-07
1.09095e-07
2.67884e-06
-1.20037e-07
2.62737e-06
-1.07161e-07
1.0637e-07
4.14371e-06
-4.09404e-07
1.83759e-07
4.05021e-06
-3.70074e-07
2.25574e-07
3.88515e-06
-3.03434e-07
2.36006e-07
3.67302e-06
-2.32103e-07
2.2171e-07
3.45078e-06
-1.73583e-07
1.89561e-07
3.23799e-06
-1.28534e-07
1.47317e-07
3.04683e-06
-9.45058e-08
1.00088e-07
2.89226e-06
-7.08938e-08
5.07513e-08
2.78464e-06
-5.64645e-08
2.72778e-06
-4.96562e-08
1.02201e-07
4.53617e-06
-4.83599e-07
1.65206e-07
4.35638e-06
-3.69175e-07
1.97449e-07
4.07073e-06
-2.17822e-07
2.12678e-07
3.80653e-06
-1.48742e-07
2.02539e-07
3.58757e-06
-1.26652e-07
1.71109e-07
3.36983e-06
-1.00415e-07
1.34282e-07
3.15874e-06
-7.5086e-08
9.37699e-08
2.99215e-06
-5.93785e-08
4.7999e-08
2.88135e-06
-5.09436e-08
2.82306e-06
-4.72767e-08
1.6938e-06
1.00541e-05
-7.06312e-06
3.01615e-06
1.00397e-05
-7.00568e-06
3.83888e-06
1.00772e-05
-6.82916e-06
4.46571e-06
9.68539e-06
-6.50569e-06
5.23215e-06
8.21658e-06
-5.39545e-06
5.18856e-06
6.52958e-06
-3.11616e-06
3.6999e-06
5.50377e-06
-8.56356e-07
1.86329e-06
4.93798e-06
-1.09218e-07
5.98509e-07
4.44137e-06
-2.95243e-07
4.17414e-06
-7.52577e-07
2.86976e-06
1.56598e-05
-8.28504e-06
5.01846e-06
1.52226e-05
-7.33162e-06
6.22193e-06
1.38432e-05
-4.96945e-06
6.14951e-06
1.16682e-05
-1.91038e-06
4.9866e-06
9.15957e-06
2.19936e-07
3.31057e-06
7.36526e-06
8.40342e-07
1.88877e-06
6.38448e-06
5.41082e-07
9.85942e-07
5.74419e-06
9.66237e-08
3.63036e-07
5.27376e-06
-2.09492e-07
4.98137e-06
-4.44187e-07
2.88163e-06
1.59773e-05
-2.95854e-06
4.51435e-06
1.47989e-05
-1.20902e-06
4.54619e-06
1.23077e-05
1.50365e-06
3.548e-06
9.86928e-06
2.7971e-06
2.24828e-06
8.04296e-06
2.41633e-06
1.23703e-06
6.92843e-06
1.44807e-06
6.56351e-07
6.26015e-06
7.05013e-07
3.33748e-07
5.80921e-06
2.57575e-07
1.09448e-07
5.51049e-06
-1.24221e-08
5.24333e-06
-1.52514e-07
1.54167e-06
1.18506e-05
2.7782e-06
2.08459e-06
1.05539e-05
3.70211e-06
1.75756e-06
8.80579e-06
3.8289e-06
1.10971e-06
7.48494e-06
3.03218e-06
5.54655e-07
6.66013e-06
1.93788e-06
2.14568e-07
6.13817e-06
1.13035e-06
4.31192e-08
5.79345e-06
6.38146e-07
-3.04364e-08
5.5551e-06
3.27659e-07
-4.89918e-08
5.40593e-06
1.23117e-07
5.16882e-06
2.55146e-08
5.63865e-07
7.86261e-06
3.56267e-06
6.38186e-07
7.18229e-06
3.29728e-06
4.10091e-07
6.45867e-06
2.57521e-06
1.26302e-07
5.97038e-06
1.79835e-06
-7.51894e-08
5.65989e-06
1.20174e-06
-1.95601e-07
5.45217e-06
8.06414e-07
-2.3183e-07
5.30343e-06
5.26239e-07
-2.03665e-07
5.20412e-06
3.22812e-07
-1.28881e-07
5.14947e-06
1.81674e-07
4.92063e-06
1.19303e-07
2.09244e-07
5.73139e-06
2.03574e-06
1.4082e-07
5.51221e-06
1.7385e-06
-2.52436e-08
5.28402e-06
1.34071e-06
-1.97521e-07
5.11442e-06
1.02824e-06
-3.15678e-07
4.99488e-06
7.83173e-07
-3.66312e-07
4.91655e-06
5.8625e-07
-3.51132e-07
4.86696e-06
4.21294e-07
-2.76227e-07
4.83882e-06
2.90398e-07
-1.59868e-07
4.83549e-06
1.97616e-07
4.60311e-06
1.57653e-07
2.71657e-08
4.74392e-06
1.0491e-06
-8.94002e-08
4.67416e-06
9.5462e-07
-2.26443e-07
4.59959e-06
8.21477e-07
-3.46373e-07
4.53668e-06
6.97674e-07
-4.20558e-07
4.49915e-06
5.69915e-07
-4.3623e-07
4.48171e-06
4.50506e-07
-3.93942e-07
4.47967e-06
3.45e-07
-2.99367e-07
4.48671e-06
2.57528e-07
-1.67827e-07
4.50852e-06
1.95436e-07
4.26613e-06
1.69157e-07
-5.4377e-08
4.18712e-06
6.81026e-07
-1.90008e-07
4.15369e-06
6.56103e-07
-3.11928e-07
4.12625e-06
5.9526e-07
-4.08984e-07
4.10776e-06
5.25983e-07
-4.59622e-07
4.10589e-06
4.43902e-07
-4.57142e-07
4.11596e-06
3.63277e-07
-4.01377e-07
4.13364e-06
2.90268e-07
-2.98874e-07
4.15512e-06
2.29094e-07
-1.64223e-07
4.1878e-06
1.86068e-07
3.93371e-06
1.68198e-07
-8.50438e-08
3.80248e-06
5.24557e-07
-2.25762e-07
3.78228e-06
5.12129e-07
-3.42842e-07
3.77238e-06
4.70951e-07
-4.28005e-07
3.76952e-06
4.23403e-07
-4.65496e-07
3.77921e-06
3.64172e-07
-4.52549e-07
3.79753e-06
3.05491e-07
-3.9118e-07
3.82092e-06
2.51352e-07
-2.88259e-07
3.84603e-06
2.06163e-07
-1.5685e-07
3.88184e-06
1.74547e-07
3.61589e-06
1.60969e-07
-1.03811e-07
3.49576e-06
4.52177e-07
-2.44145e-07
3.48032e-06
4.42289e-07
-3.55223e-07
3.47674e-06
4.06722e-07
-4.31176e-07
3.4787e-06
3.66774e-07
-4.59793e-07
3.49086e-06
3.16968e-07
-4.4067e-07
3.50983e-06
2.68578e-07
-3.76631e-07
3.53259e-06
2.24288e-07
-2.75199e-07
3.55656e-06
1.88042e-07
-1.48667e-07
3.59204e-06
1.63263e-07
3.31523e-06
1.51994e-07
-1.19342e-07
4.2558e-07
3.21864e-06
-2.58083e-07
4.1301e-07
3.20605e-06
-3.63628e-07
3.7707e-07
3.20522e-06
-4.31885e-07
3.38259e-07
3.2087e-06
-4.53046e-07
2.90746e-07
3.22128e-06
-4.28631e-07
2.45992e-07
3.23942e-06
-3.62727e-07
2.06327e-07
3.26036e-06
-2.63018e-07
1.74259e-07
3.28259e-06
-1.4138e-07
1.53365e-07
3.31705e-06
1.43067e-07
3.03078e-06
3.68806e-07
5.37024e-07
-1.72966e-06
6.59734e-07
5.36151e-07
-1.62161e-06
8.57203e-07
5.32809e-07
-1.44216e-06
9.49549e-07
5.25707e-07
-1.23069e-06
9.42273e-07
5.15035e-07
-1.01962e-06
8.50328e-07
5.02139e-07
-8.30333e-07
6.92212e-07
4.88861e-07
-6.74472e-07
4.86525e-07
4.77054e-07
-5.56973e-07
2.50497e-07
4.68266e-07
-4.79066e-07
4.6317e-07
-4.39946e-07
3.79374e-07
1.10422e-06
-1.80469e-06
6.77243e-07
1.10078e-06
-1.68821e-06
8.77695e-07
1.09119e-06
-1.49636e-06
9.69735e-07
1.07343e-06
-1.27214e-06
9.59969e-07
1.04828e-06
-1.04976e-06
8.64395e-07
1.01881e-06
-8.51274e-07
7.02345e-07
9.88955e-07
-6.88471e-07
4.92937e-07
9.62624e-07
-5.66154e-07
2.53546e-07
9.43148e-07
-4.85275e-07
9.31906e-07
-4.4473e-07
3.70313e-07
1.69093e-06
-1.81044e-06
6.58071e-07
1.68027e-06
-1.68414e-06
8.47782e-07
1.65707e-06
-1.48048e-06
9.31279e-07
1.6205e-06
-1.24759e-06
9.1737e-07
1.57339e-06
-1.02104e-06
8.22787e-07
1.5211e-06
-8.21651e-07
6.66553e-07
1.46989e-06
-6.59765e-07
4.66847e-07
1.42573e-06
-5.3906e-07
2.39835e-07
1.39351e-06
-4.59658e-07
1.37517e-06
-4.19989e-07
3.58808e-07
2.29581e-06
-1.81129e-06
6.34019e-07
2.27358e-06
-1.67482e-06
8.10604e-07
2.22943e-06
-1.4587e-06
8.83707e-07
2.16551e-06
-1.21668e-06
8.64664e-07
2.08805e-06
-9.85519e-07
7.71219e-07
2.00564e-06
-7.85146e-07
6.22061e-07
1.92727e-06
-6.24291e-07
4.34318e-07
1.86105e-06
-5.05372e-07
2.22701e-07
1.81333e-06
-4.27635e-07
1.78659e-06
-3.88965e-07
3.3658e-07
2.90302e-06
-1.7617e-06
5.90552e-07
2.86485e-06
-1.61774e-06
7.47945e-07
2.79258e-06
-1.39405e-06
8.07733e-07
2.69288e-06
-1.14891e-06
7.83666e-07
2.57685e-06
-9.19241e-07
6.93989e-07
2.45731e-06
-7.23362e-07
5.56589e-07
2.34635e-06
-5.68227e-07
3.86993e-07
2.25411e-06
-4.54671e-07
1.97933e-07
2.18837e-06
-3.80985e-07
2.15205e-06
-3.44519e-07
2.97824e-07
3.47161e-06
-1.60857e-06
5.17867e-07
3.4169e-06
-1.46808e-06
6.48135e-07
3.3138e-06
-1.2519e-06
6.91684e-07
3.17362e-06
-1.01888e-06
6.63995e-07
3.01383e-06
-8.0423e-07
5.82709e-07
2.85276e-06
-6.23919e-07
4.63914e-07
2.70593e-06
-4.83065e-07
3.20782e-07
2.58548e-06
-3.81197e-07
1.63435e-07
2.50043e-06
-3.15679e-07
2.4538e-06
-2.83479e-07
2.49444e-07
4.03703e-06
-1.47259e-06
4.26249e-07
3.95042e-06
-1.31714e-06
5.21392e-07
3.79869e-06
-1.09111e-06
5.44708e-07
3.60161e-06
-8.61849e-07
5.13787e-07
3.38566e-06
-6.61011e-07
4.44465e-07
3.17584e-06
-4.99126e-07
3.49864e-07
2.98962e-06
-3.76739e-07
2.4006e-07
2.83939e-06
-2.90466e-07
1.21977e-07
2.73447e-06
-2.35996e-07
2.67814e-06
-2.09529e-07
1.49996e-07
4.39404e-06
-9.07629e-07
2.52343e-07
4.30716e-06
-8.29167e-07
2.94846e-07
4.1412e-06
-6.8844e-07
2.92533e-07
3.89438e-06
-5.22554e-07
2.65778e-07
3.61511e-06
-3.76278e-07
2.23175e-07
3.35862e-06
-2.68709e-07
1.7082e-07
3.1411e-06
-1.93625e-07
1.14551e-07
2.96771e-06
-1.42938e-07
5.75622e-08
2.84714e-06
-1.1215e-07
2.78378e-06
-9.7733e-08
1.36303e-07
5.38221e-06
-1.59484e-06
1.85601e-07
5.10782e-06
-1.21913e-06
1.7813e-07
4.62609e-06
-6.95246e-07
1.87004e-07
4.1019e-06
-3.65139e-07
1.99936e-07
3.71314e-06
-2.37618e-07
1.84721e-07
3.46652e-06
-1.93108e-07
1.4728e-07
3.25695e-06
-1.53492e-07
1.02156e-07
3.07375e-06
-1.20297e-07
5.16832e-08
2.947e-06
-1.00329e-07
2.88034e-06
-9.21511e-08
1.29693e-06
6.23974e-06
-9.05337e-06
2.4686e-06
5.26231e-06
-8.33184e-06
3.12179e-06
4.36433e-06
-7.22059e-06
3.00978e-06
4.53174e-06
-6.82352e-06
2.47926e-06
5.38873e-06
-6.5405e-06
2.1118e-06
5.8177e-06
-5.09988e-06
1.68952e-06
5.57688e-06
-2.75399e-06
9.65677e-07
5.0047e-06
-1.31632e-06
1.66324e-07
4.58236e-06
-1.13125e-06
4.47657e-06
-2.18248e-06
1.17487e-06
7.13259e-06
-1.03144e-05
1.68898e-06
6.99118e-06
-9.5746e-06
1.86333e-06
7.28869e-06
-8.06817e-06
1.80629e-06
7.57108e-06
-4.89267e-06
1.64902e-06
7.55057e-06
-1.78463e-06
1.43202e-06
7.07816e-06
-2.03118e-07
1.03553e-06
6.44204e-06
7.23999e-08
5.72717e-07
5.88791e-06
-3.23783e-07
1.30517e-07
5.51343e-06
-6.98367e-07
5.30097e-06
-1.13807e-06
8.92541e-07
8.65195e-06
-5.33904e-06
1.04116e-06
8.47934e-06
-2.84579e-06
1.06298e-06
8.4895e-06
2.81019e-07
9.4668e-07
8.18258e-06
2.30189e-06
7.32442e-07
7.64182e-06
2.53932e-06
4.65709e-07
6.98417e-06
1.8088e-06
2.44101e-07
6.41415e-06
9.54509e-07
8.26053e-08
6.00632e-06
3.00657e-07
-2.50559e-08
5.76029e-06
-1.51622e-07
5.53004e-06
-4.06649e-07
3.78442e-07
8.87987e-06
2.30626e-06
3.60462e-07
8.48476e-06
3.71467e-06
2.23816e-07
7.9046e-06
4.55045e-06
4.35956e-08
7.27003e-06
4.12495e-06
-1.02629e-07
6.7361e-06
2.98982e-06
-1.89278e-07
6.31289e-06
1.88828e-06
-2.23806e-07
5.99666e-06
1.09017e-06
-2.07356e-07
5.77418e-06
5.43351e-07
-1.45266e-07
5.64962e-06
1.71697e-07
5.41591e-06
-5.62279e-09
1.40363e-07
7.58147e-06
4.87079e-06
5.01914e-08
7.14642e-06
4.72579e-06
-1.0269e-07
6.63566e-06
3.99705e-06
-2.73413e-07
6.21192e-06
3.02717e-06
-3.86446e-07
5.90759e-06
2.14327e-06
-4.30659e-07
5.69486e-06
1.46866e-06
-4.05943e-07
5.53961e-06
9.58578e-07
-3.23067e-07
5.43823e-06
5.75886e-07
-1.93068e-07
5.39436e-06
3.06945e-07
5.1543e-06
1.8785e-07
1.03445e-07
6.09394e-06
3.5491e-06
-2.35576e-08
5.87749e-06
3.13445e-06
-2.00721e-07
5.63939e-06
2.51414e-06
-3.68355e-07
5.44714e-06
1.96065e-06
-4.73262e-07
5.30152e-06
1.49415e-06
-5.00739e-07
5.19758e-06
1.11101e-06
-4.5927e-07
5.12937e-06
7.90064e-07
-3.53918e-07
5.0905e-06
5.32776e-07
-2.00589e-07
5.0896e-06
3.49045e-07
4.83854e-06
2.72819e-07
1.25038e-09
5.16199e-06
2.07733e-06
-1.50455e-07
5.08259e-06
1.90122e-06
-3.09637e-07
4.98373e-06
1.63631e-06
-4.41237e-07
4.8958e-06
1.3806e-06
-5.14825e-07
4.82889e-06
1.11614e-06
-5.22562e-07
4.78408e-06
8.71751e-07
-4.64826e-07
4.76045e-06
6.56176e-07
-3.50249e-07
4.75432e-06
4.79135e-07
-1.94268e-07
4.77426e-06
3.54795e-07
4.5093e-06
3.04124e-07
-7.10753e-08
4.62351e-06
1.36478e-06
-2.29388e-07
4.58321e-06
1.3138e-06
-3.67613e-07
4.52934e-06
1.18789e-06
-4.73455e-07
4.48268e-06
1.04495e-06
-5.23888e-07
4.45055e-06
8.72672e-07
-5.16033e-07
4.43349e-06
7.0602e-07
-4.50473e-07
4.43038e-06
5.54781e-07
-3.34837e-07
4.43744e-06
4.30339e-07
-1.82864e-07
4.46551e-06
3.42847e-07
4.18716e-06
3.07477e-07
-9.86113e-08
4.25504e-06
1.04935e-06
-2.55371e-07
4.22692e-06
1.02518e-06
-3.83634e-07
4.18955e-06
9.39001e-07
-4.76591e-07
4.15862e-06
8.40424e-07
-5.14785e-07
4.13833e-06
7.14594e-07
-4.98056e-07
4.12991e-06
5.92339e-07
-4.28931e-07
4.13195e-06
4.80663e-07
-3.1535e-07
4.14182e-06
3.88194e-07
-1.70712e-07
4.17131e-06
3.24107e-07
3.87966e-06
2.97758e-07
-1.17282e-07
3.96315e-06
9.05128e-07
-2.72272e-07
3.93932e-06
8.84892e-07
-3.93144e-07
3.90763e-06
8.09516e-07
-4.75401e-07
3.88138e-06
7.26271e-07
-5.03254e-07
3.86332e-06
6.19836e-07
-4.79478e-07
3.8554e-06
5.19308e-07
-4.07937e-07
3.85626e-06
4.28434e-07
-2.97201e-07
3.86453e-06
3.54603e-07
-1.60109e-07
3.89286e-06
3.04623e-07
3.58862e-06
2.82922e-07
-1.35802e-07
8.55213e-07
3.7e-06
-2.8978e-07
8.28759e-07
3.67754e-06
-4.04574e-07
7.51049e-07
3.64845e-06
-4.77235e-07
6.68793e-07
3.62351e-06
-4.96029e-07
5.67383e-07
3.60547e-06
-4.65786e-07
4.74585e-07
3.59657e-06
-3.91908e-07
3.93445e-07
3.59526e-06
-2.83245e-07
3.28957e-07
3.60117e-06
-1.51845e-07
2.86785e-07
3.62804e-06
2.67259e-07
3.31258e-06
4.72066e-07
5.24798e-07
-2.70208e-06
8.32794e-07
5.28483e-07
-2.51082e-06
1.06316e-06
5.30923e-07
-2.20346e-06
1.15679e-06
5.2858e-07
-1.8529e-06
1.12935e-06
5.21026e-07
-1.5132e-06
1.00518e-06
5.09826e-07
-1.21599e-06
8.09396e-07
4.97294e-07
-9.75988e-07
5.6445e-07
4.85703e-07
-7.9773e-07
2.89246e-07
4.76904e-07
-6.80766e-07
4.7175e-07
-6.2245e-07
4.89136e-07
1.08626e-06
-2.83012e-06
8.60282e-07
1.09128e-06
-2.62216e-06
1.09442e-06
1.09239e-06
-2.29196e-06
1.18693e-06
1.0834e-06
-1.91948e-06
1.15543e-06
1.06387e-06
-1.5611e-06
1.02579e-06
1.03728e-06
-1.24908e-06
8.2422e-07
1.00846e-06
-9.98068e-07
5.73833e-07
9.82147e-07
-8.1221e-07
2.93724e-07
9.62302e-07
-6.90563e-07
9.50749e-07
-6.30006e-07
4.87259e-07
1.70373e-06
-2.89083e-06
8.50349e-07
1.70049e-06
-2.65644e-06
1.07164e-06
1.68573e-06
-2.29511e-06
1.15223e-06
1.65501e-06
-1.89979e-06
1.11373e-06
1.61034e-06
-1.52901e-06
9.8331e-07
1.558e-06
-1.21195e-06
7.86847e-07
1.50536e-06
-9.60201e-07
5.46266e-07
1.45922e-06
-7.75557e-07
2.79153e-07
1.42524e-06
-6.55486e-07
1.40587e-06
-5.95958e-07
4.82053e-07
2.36551e-06
-2.93203e-06
8.34921e-07
2.3477e-06
-2.6749e-06
1.04118e-06
2.30532e-06
-2.28455e-06
1.1081e-06
2.23988e-06
-1.86848e-06
1.06173e-06
2.15787e-06
-1.48668e-06
9.30692e-07
2.06929e-06
-1.1654e-06
7.40575e-07
1.98441e-06
-9.1323e-07
5.12071e-07
1.91238e-06
-7.30027e-07
2.61042e-07
1.86037e-06
-6.11737e-07
1.83132e-06
-5.5337e-07
4.62433e-07
3.04513e-06
-2.88249e-06
7.94621e-07
3.01016e-06
-2.61239e-06
9.79146e-07
2.93235e-06
-2.20561e-06
1.02942e-06
2.82131e-06
-1.78062e-06
9.75764e-07
2.69065e-06
-1.39836e-06
8.47721e-07
2.55574e-06
-1.08177e-06
6.69768e-07
2.43067e-06
-8.36535e-07
4.60694e-07
2.32698e-06
-6.60193e-07
2.341e-07
2.25323e-06
-5.47244e-07
2.21273e-06
-4.91825e-07
4.17378e-07
3.68777e-06
-2.64956e-06
7.11975e-07
3.63424e-06
-2.38676e-06
8.66179e-07
3.52167e-06
-1.99542e-06
8.97973e-07
3.36299e-06
-1.59236e-06
8.40355e-07
3.17851e-06
-1.23447e-06
7.22126e-07
2.99133e-06
-9.4128e-07
5.65461e-07
2.82108e-06
-7.16807e-07
3.86312e-07
2.68213e-06
-5.57196e-07
1.95381e-07
2.58437e-06
-4.5589e-07
2.53117e-06
-4.06542e-07
3.76324e-07
4.36202e-06
-2.50435e-06
6.24568e-07
4.27655e-06
-2.2077e-06
7.33805e-07
4.11303e-06
-1.79171e-06
7.36729e-07
3.88305e-06
-1.38483e-06
6.716e-07
3.62217e-06
-1.03954e-06
5.65356e-07
3.36599e-06
-7.67536e-07
4.35821e-07
3.14092e-06
-5.67042e-07
2.94541e-07
2.96197e-06
-4.29032e-07
1.48256e-07
2.83801e-06
-3.43351e-07
2.77206e-06
-3.02164e-07
2.3564e-07
4.63776e-06
-1.40507e-06
4.01551e-07
4.61197e-06
-1.33049e-06
4.60123e-07
4.52385e-06
-1.15783e-06
4.3429e-07
4.28391e-06
-8.97575e-07
3.70345e-07
3.94886e-06
-6.39021e-07
2.97054e-07
3.60695e-06
-4.36386e-07
2.21173e-07
3.32467e-06
-3.01498e-07
1.45359e-07
3.11172e-06
-2.16867e-07
7.19629e-08
2.96605e-06
-1.66795e-07
2.88978e-06
-1.43486e-07
3.83411e-07
5.90071e-06
-3.21246e-06
5.50285e-07
5.89465e-06
-2.66868e-06
3.98821e-07
5.66123e-06
-1.68116e-06
2.65936e-07
4.95617e-06
-9.04517e-07
2.26299e-07
4.20616e-06
-4.55285e-07
2.16596e-07
3.69883e-06
-2.75278e-07
1.79568e-07
3.42487e-06
-2.16655e-07
1.22456e-07
3.22427e-06
-1.75743e-07
6.01185e-08
3.07255e-06
-1.44494e-07
2.98981e-06
-1.32072e-07
1.07944e-06
5.74629e-06
-9.75099e-06
2.21634e-06
5.53367e-06
-9.10776e-06
3.15801e-06
4.84678e-06
-7.3478e-06
4.01916e-06
3.30021e-06
-6.02871e-06
4.15128e-06
3.49631e-06
-5.96276e-06
3.52109e-06
4.87998e-06
-5.65085e-06
2.603e-06
5.82963e-06
-4.24067e-06
1.34166e-06
5.64769e-06
-2.4784e-06
9.70467e-08
5.01195e-06
-1.82604e-06
4.98319e-06
-4.07881e-06
3.42426e-07
5.66232e-06
-1.04608e-05
4.82386e-07
4.77179e-06
-8.95269e-06
8.94895e-07
4.46416e-06
-8.09806e-06
1.32246e-06
4.8073e-06
-6.82734e-06
1.18851e-06
6.19817e-06
-4.35253e-06
8.37607e-07
6.90907e-06
-1.88132e-06
5.76677e-07
6.7743e-06
-6.1135e-07
2.18219e-07
6.31759e-06
-6.35224e-07
-1.89332e-07
5.91715e-06
-1.19602e-06
5.80136e-06
-2.14558e-06
-3.78724e-07
5.07057e-06
-4.50163e-06
-1.00538e-06
5.02041e-06
-2.46775e-06
-1.26192e-06
5.16768e-06
-1.65957e-07
-1.03476e-06
5.8299e-06
1.05214e-06
-7.18455e-07
6.53226e-06
1.88892e-06
-5.27937e-07
6.71053e-06
1.81682e-06
-4.32123e-07
6.47564e-06
1.15736e-06
-3.68217e-07
6.19414e-06
3.60201e-07
-3.05828e-07
6.03592e-06
-3.32776e-07
5.8558e-06
-7.66916e-07
-6.35693e-07
5.04955e-06
3.00804e-06
-1.1697e-06
5.13999e-06
4.12911e-06
-1.41343e-06
5.35551e-06
4.60636e-06
-1.40986e-06
5.64488e-06
4.3064e-06
-1.21504e-06
5.84124e-06
3.48603e-06
-9.77358e-07
5.89023e-06
2.4709e-06
-7.7267e-07
5.85254e-06
1.50858e-06
-5.79296e-07
5.79963e-06
7.44495e-07
-3.52459e-07
5.79703e-06
1.83747e-07
5.58625e-06
-8.8538e-08
-3.68738e-07
5.00555e-06
5.41925e-06
-7.38046e-07
4.9721e-06
5.26299e-06
-9.65574e-07
5.03782e-06
4.54227e-06
-1.07134e-06
5.14398e-06
3.63384e-06
-1.0474e-06
5.23396e-06
2.7266e-06
-9.4485e-07
5.30184e-06
1.95449e-06
-7.92761e-07
5.35076e-06
1.30827e-06
-5.91844e-07
5.39019e-06
7.84409e-07
-3.33837e-07
5.45407e-06
3.9189e-07
5.22338e-06
2.16879e-07
-1.3652e-07
4.6614e-06
4.15213e-06
-4.25535e-07
4.63611e-06
3.75945e-06
-6.58067e-07
4.67181e-06
3.11268e-06
-8.10136e-07
4.74156e-06
2.51514e-06
-8.6039e-07
4.8208e-06
1.95757e-06
-8.26885e-07
4.8941e-06
1.48524e-06
-7.16976e-07
4.96043e-06
1.07049e-06
-5.36719e-07
5.02201e-06
7.20695e-07
-2.93707e-07
5.10051e-06
4.59589e-07
4.85002e-06
3.52473e-07
-1.17084e-07
4.36099e-06
2.58737e-06
-3.60383e-07
4.36165e-06
2.41898e-06
-5.62089e-07
4.39047e-06
2.11935e-06
-7.04622e-07
4.4369e-06
1.8278e-06
-7.60437e-07
4.49606e-06
1.49669e-06
-7.37674e-07
4.55897e-06
1.18412e-06
-6.4035e-07
4.62248e-06
8.96797e-07
-4.75928e-07
4.68414e-06
6.52575e-07
-2.56651e-07
4.75981e-06
4.76224e-07
4.49125e-06
4.06239e-07
-1.30484e-07
4.16673e-06
1.76155e-06
-3.43104e-07
4.16219e-06
1.72589e-06
-5.15911e-07
4.1705e-06
1.58066e-06
-6.40607e-07
4.19023e-06
1.41632e-06
-6.88406e-07
4.22514e-06
1.19139e-06
-6.64911e-07
4.27054e-06
9.7096e-07
-5.73347e-07
4.32139e-06
7.64313e-07
-4.22614e-07
4.37295e-06
5.90801e-07
-2.26287e-07
4.43922e-06
4.67108e-07
4.15529e-06
4.17149e-07
-1.32966e-07
4.00086e-06
1.40682e-06
-3.26991e-07
3.98507e-06
1.39632e-06
-4.82755e-07
3.97476e-06
1.29052e-06
-5.93735e-07
3.97372e-06
1.16791e-06
-6.32377e-07
3.98685e-06
9.91529e-07
-6.05975e-07
4.01325e-06
8.2323e-07
-5.18316e-07
4.04758e-06
6.66812e-07
-3.79121e-07
4.08573e-06
5.36228e-07
-2.02343e-07
4.1411e-06
4.45446e-07
3.84256e-06
4.08142e-07
-1.44713e-07
3.825e-06
1.27278e-06
-3.30055e-07
3.80115e-06
1.25416e-06
-4.7503e-07
3.77876e-06
1.15049e-06
-5.72027e-07
3.7621e-06
1.03489e-06
-5.99381e-07
3.75932e-06
8.74724e-07
-5.6663e-07
3.77001e-06
7.29794e-07
-4.79353e-07
3.78998e-06
5.98765e-07
-3.477e-07
3.816e-06
4.92673e-07
-1.85068e-07
3.86195e-06
4.21142e-07
3.5503e-06
3.90114e-07
-1.65704e-07
1.26191e-06
3.61894e-06
-3.48463e-07
1.22046e-06
3.59222e-06
-4.84149e-07
1.10132e-06
3.56418e-06
-5.67629e-07
9.74483e-07
3.53989e-06
-5.82899e-07
8.1356e-07
3.52841e-06
-5.4225e-07
6.74387e-07
3.52956e-06
-4.53034e-07
5.54095e-07
3.54011e-06
-3.25759e-07
4.59767e-07
3.55792e-06
-1.7316e-07
3.98547e-07
3.59759e-06
3.70134e-07
3.27426e-06
6.52331e-07
4.81951e-07
-3.8025e-06
1.12714e-06
4.98836e-07
-3.48447e-06
1.40377e-06
5.16621e-07
-2.9967e-06
1.49048e-06
5.26001e-07
-2.46561e-06
1.42371e-06
5.2574e-07
-1.97217e-06
1.24427e-06
5.18524e-07
-1.55507e-06
9.87701e-07
5.07897e-07
-1.22732e-06
6.81782e-07
4.97064e-07
-9.88874e-07
3.47227e-07
4.88485e-07
-8.34696e-07
4.83354e-07
-7.58577e-07
6.83195e-07
1.02014e-06
-4.01627e-06
1.17396e-06
1.04712e-06
-3.66121e-06
1.45426e-06
1.07406e-06
-3.12971e-06
1.53753e-06
1.08527e-06
-2.56201e-06
1.46364e-06
1.07861e-06
-2.04009e-06
1.27554e-06
1.05901e-06
-1.60146e-06
1.01012e-06
1.03331e-06
-1.25807e-06
6.95972e-07
1.00798e-06
-1.00898e-06
3.54011e-07
9.88158e-07
-8.48274e-07
9.764e-07
-7.69041e-07
7.00881e-07
1.6854e-06
-4.22187e-06
1.18892e-06
1.70367e-06
-3.80103e-06
1.45101e-06
1.71077e-06
-3.1939e-06
1.51429e-06
1.69412e-06
-2.57192e-06
1.42679e-06
1.65636e-06
-2.01926e-06
1.2338e-06
1.60608e-06
-1.56603e-06
9.71537e-07
1.55269e-06
-1.21732e-06
6.668e-07
1.50463e-06
-9.67477e-07
3.38414e-07
1.46868e-06
-8.07623e-07
1.44807e-06
-7.29216e-07
7.12528e-07
2.44936e-06
-4.37443e-06
1.19453e-06
2.44303e-06
-3.89626e-06
1.4367e-06
2.40831e-06
-3.22426e-06
1.47946e-06
2.34156e-06
-2.55867e-06
1.37867e-06
2.25347e-06
-1.98301e-06
1.18154e-06
2.15662e-06
-1.5188e-06
9.23824e-07
2.06319e-06
-1.16602e-06
6.30818e-07
1.98344e-06
-9.15822e-07
3.19163e-07
1.92562e-06
-7.57017e-07
1.89341e-06
-6.79545e-07
7.06517e-07
3.25634e-06
-4.36314e-06
1.16545e-06
3.21493e-06
-3.84323e-06
1.37939e-06
3.13177e-06
-3.14301e-06
1.39943e-06
3.00379e-06
-2.46289e-06
1.28751e-06
2.8516e-06
-1.88456e-06
1.09164e-06
2.69463e-06
-1.42392e-06
8.46154e-07
2.54947e-06
-1.07733e-06
5.74067e-07
2.4294e-06
-8.34074e-07
2.89295e-07
2.34418e-06
-6.81036e-07
2.29771e-06
-6.06831e-07
6.62515e-07
4.08644e-06
-4.11049e-06
1.06756e-06
3.96836e-06
-3.54523e-06
1.24328e-06
3.81816e-06
-2.85753e-06
1.24324e-06
3.62801e-06
-2.21655e-06
1.12847e-06
3.41084e-06
-1.67895e-06
9.4524e-07
3.18869e-06
-1.25212e-06
7.25114e-07
2.98534e-06
-9.32557e-07
4.87993e-07
2.81946e-06
-7.10135e-07
2.44554e-07
2.70317e-06
-5.71443e-07
2.64042e-06
-5.04691e-07
6.58795e-07
4.92311e-06
-3.96259e-06
1.00298e-06
4.74138e-06
-3.3249e-06
1.1134e-06
4.52752e-06
-2.6115e-06
1.06918e-06
4.26419e-06
-1.97679e-06
9.38235e-07
3.95684e-06
-1.45459e-06
7.64291e-07
3.64334e-06
-1.04825e-06
5.73896e-07
3.36195e-06
-7.53252e-07
3.80604e-07
3.13885e-06
-5.55127e-07
1.89368e-07
2.98615e-06
-4.35093e-07
2.90593e-06
-3.78305e-07
3.7919e-07
5.33129e-06
-2.16749e-06
6.2404e-07
4.98631e-06
-1.82027e-06
7.29585e-07
4.86363e-06
-1.59948e-06
6.90082e-07
4.71659e-06
-1.31047e-06
5.69125e-07
4.39606e-06
-9.57287e-07
4.30493e-07
3.98998e-06
-6.44388e-07
3.05825e-07
3.608e-06
-4.22882e-07
1.95804e-07
3.32211e-06
-2.90101e-07
9.5403e-08
3.13683e-06
-2.17077e-07
3.04187e-06
-1.84032e-07
5.22635e-07
6.33978e-06
-4.64689e-06
9.69836e-07
5.94627e-06
-4.07585e-06
9.97696e-07
6.11602e-06
-2.96141e-06
6.50214e-07
6.00924e-06
-1.84969e-06
3.81922e-07
5.1819e-06
-9.72835e-07
2.70845e-07
4.28198e-06
-4.56199e-07
2.21877e-07
3.70213e-06
-2.61813e-07
1.5635e-07
3.42163e-06
-2.09737e-07
7.6223e-08
3.25322e-06
-1.80758e-07
3.15507e-06
-1.69043e-07
1.2199e-06
5.59232e-06
-9.96112e-06
2.49398e-06
4.9117e-06
-9.34727e-06
3.34606e-06
5.67279e-06
-7.75666e-06
3.80449e-06
5.80101e-06
-6.27891e-06
4.58299e-06
3.63541e-06
-5.19477e-06
5.01587e-06
3.33531e-06
-5.13706e-06
4.5838e-06
4.73996e-06
-4.84644e-06
3.15228e-06
5.79864e-06
-3.42389e-06
1.16564e-06
5.60029e-06
-2.18646e-06
5.59818e-06
-5.35628e-06
8.70626e-07
5.24133e-06
-1.07275e-05
1.28005e-06
4.82772e-06
-9.27812e-06
1.87277e-06
4.52307e-06
-7.54107e-06
2.49149e-06
5.13806e-06
-6.78312e-06
2.58129e-06
4.94509e-06
-5.75202e-06
1.72719e-06
6.04234e-06
-3.73425e-06
6.86747e-07
6.81469e-06
-1.64563e-06
-7.7504e-08
6.79072e-06
-8.63054e-07
-6.01279e-07
6.51251e-06
-1.58446e-06
6.49564e-06
-3.64433e-06
-1.00574e-06
2.8265e-06
-1.14244e-06
-2.16985e-06
3.16898e-06
3.55102e-07
-2.47066e-06
3.97329e-06
6.84616e-07
-1.79074e-06
4.88095e-06
6.29343e-07
-1.42403e-06
5.60567e-06
8.61621e-07
-1.31218e-06
6.29133e-06
1.45597e-06
-1.21701e-06
6.5692e-06
1.30768e-06
-1.04688e-06
6.50119e-06
4.79593e-07
-7.82288e-07
6.4841e-06
-5.68952e-07
6.34946e-06
-1.40302e-06
-1.46733e-06
2.51938e-06
4.81557e-06
-2.43438e-06
2.92881e-06
5.33633e-06
-2.69507e-06
3.72293e-06
5.11741e-06
-2.55569e-06
4.55028e-06
4.49768e-06
-2.29446e-06
5.15004e-06
3.68043e-06
-1.94512e-06
5.52575e-06
2.88714e-06
-1.54349e-06
5.73705e-06
1.93909e-06
-1.14132e-06
5.87369e-06
9.69815e-07
-6.76117e-07
6.04826e-06
1.54373e-07
5.852e-06
-2.672e-07
-8.22435e-07
3.07083e-06
5.82404e-06
-1.46329e-06
3.25168e-06
5.58097e-06
-1.78499e-06
3.73233e-06
4.85457e-06
-1.88151e-06
4.24758e-06
4.03307e-06
-1.78957e-06
4.65291e-06
3.13179e-06
-1.58846e-06
4.94667e-06
2.33246e-06
-1.3178e-06
5.17408e-06
1.60058e-06
-9.81138e-07
5.3659e-06
9.55538e-07
-5.42566e-07
5.57611e-06
4.25472e-07
5.34163e-06
1.8469e-07
-3.73793e-07
3.46512e-06
4.2522e-06
-8.28604e-07
3.54234e-06
3.92359e-06
-1.14414e-06
3.79053e-06
3.37001e-06
-1.31546e-06
4.08617e-06
2.84786e-06
-1.3299e-06
4.36369e-06
2.26123e-06
-1.24338e-06
4.59957e-06
1.74581e-06
-1.06635e-06
4.7988e-06
1.26874e-06
-7.96482e-07
4.9705e-06
8.46227e-07
-4.26665e-07
5.15065e-06
5.15234e-07
4.88774e-06
3.79694e-07
-2.48047e-07
3.72836e-06
2.66214e-06
-5.81959e-07
3.72794e-06
2.5673e-06
-8.49515e-07
3.84235e-06
2.33509e-06
-1.02644e-06
4.00197e-06
2.08892e-06
-1.0753e-06
4.17465e-06
1.73458e-06
-1.02539e-06
4.33982e-06
1.39397e-06
-8.82541e-07
4.49162e-06
1.06113e-06
-6.53518e-07
4.62761e-06
7.66448e-07
-3.44485e-07
4.77234e-06
5.45496e-07
4.48919e-06
4.603e-07
-2.0519e-07
3.89862e-06
1.86887e-06
-4.69106e-07
3.82841e-06
1.88934e-06
-6.97522e-07
3.8587e-06
1.79273e-06
-8.60435e-07
3.92775e-06
1.65345e-06
-9.11202e-07
4.01842e-06
1.3984e-06
-8.71734e-07
4.12011e-06
1.1512e-06
-7.4742e-07
4.22322e-06
9.08401e-07
-5.48737e-07
4.32166e-06
6.98068e-07
-2.8821e-07
4.43322e-06
5.457e-07
4.13396e-06
4.84168e-07
-1.884e-07
3.9634e-06
1.59474e-06
-4.16207e-07
3.84896e-06
1.60359e-06
-6.1939e-07
3.82185e-06
1.53055e-06
-7.61708e-07
3.83021e-06
1.40777e-06
-8.02453e-07
3.86455e-06
1.18614e-06
-7.63144e-07
3.91691e-06
9.87124e-07
-6.49269e-07
3.97886e-06
7.973e-07
-4.72918e-07
4.04411e-06
6.3743e-07
-2.48378e-07
4.12827e-06
5.2585e-07
3.81416e-06
4.79562e-07
-2.02906e-07
3.92121e-06
1.57538e-06
-4.15951e-07
3.78551e-06
1.53065e-06
-6.00796e-07
3.72527e-06
1.43192e-06
-7.20691e-07
3.69598e-06
1.28902e-06
-7.44571e-07
3.69301e-06
1.07015e-06
-6.96931e-07
3.71138e-06
8.87682e-07
-5.85196e-07
3.74353e-06
7.22356e-07
-4.22115e-07
3.78382e-06
5.89879e-07
-2.2189e-07
3.84807e-06
5.01117e-07
3.52049e-06
4.61887e-07
-2.37474e-07
1.69721e-06
3.77181e-06
-4.50667e-07
1.58834e-06
3.63082e-06
-6.20642e-07
1.43742e-06
3.55915e-06
-7.17176e-07
1.25342e-06
3.51358e-06
-7.2177e-07
1.01804e-06
3.49312e-06
-6.6187e-07
8.32927e-07
3.49294e-06
-5.47144e-07
6.75636e-07
3.50727e-06
-3.9033e-07
5.54462e-07
3.53231e-06
-2.05208e-07
4.77322e-07
3.58418e-06
4.4069e-07
3.24473e-06
9.46721e-07
3.60712e-07
-5.05866e-06
1.58977e-06
4.11707e-07
-4.53923e-06
1.91805e-06
4.68609e-07
-3.79359e-06
1.97591e-06
5.06634e-07
-3.0301e-06
1.83826e-06
5.23009e-07
-2.35753e-06
1.57214e-06
5.24524e-07
-1.81348e-06
1.22718e-06
5.18187e-07
-1.40054e-06
8.37044e-07
5.09275e-07
-1.10801e-06
4.23271e-07
5.01457e-07
-9.2238e-07
4.96559e-07
-8.31865e-07
1.00736e-06
8.51511e-07
-5.45973e-06
1.6745e-06
9.21671e-07
-4.83831e-06
2.00212e-06
1.00613e-06
-3.99486e-06
2.04969e-06
1.06113e-06
-3.16408e-06
1.899e-06
1.08132e-06
-2.44771e-06
1.61901e-06
1.07662e-06
-1.87357e-06
1.26058e-06
1.05835e-06
-1.43979e-06
8.58141e-07
1.03616e-06
-1.13342e-06
4.33365e-07
1.01739e-06
-9.39434e-07
1.00585e-06
-8.44962e-07
1.07473e-06
1.64886e-06