/*--------------------------------*- C++ -*----------------------------------*\
| =========                 |                                                 |
| \\      /  F ield         | OpenFOAM: The Open Source CFD Toolbox           |
|  \\    /   O peration     | Version:  2312                                  |
|   \\  /    A nd           | Website:  www.openfoam.com                      |
|    \\/     M anipulation  |                                                 |
\*---------------------------------------------------------------------------*/
FoamFile
{
    version     2.0;
    format      ascii;
    arch        "LSB;label=32;scalar=64";
    class       surfaceScalarField;
    location    "0.37";
    object      alphaPhi0.water;
}
// * * * * * * * * * * * * * * * * * * * * * * * * * * * * * * * * * * * * * //

dimensions      [0 3 -1 0 0 0 0];

oriented        oriented;

internalField   nonuniform List<scalar> 
22600
(
-3.42697e-08
1.823e-07
-1.39454e-07
-8.23432e-08
1.68694e-07
-1.20621e-07
-1.32553e-07
1.43451e-07
-9.32411e-08
-1.76091e-07
1.0755e-07
-6.40117e-08
-2.03638e-07
6.39012e-08
-3.63539e-08
-2.10087e-07
1.67553e-08
-1.03066e-08
-1.86559e-07
-3.34841e-08
9.95533e-09
-1.30756e-07
-8.59219e-08
3.01193e-08
-4.34035e-08
-1.37061e-07
4.97089e-08
-8.86895e-08
4.5286e-08
-2.80864e-08
4.03191e-07
-1.82656e-07
-7.2355e-08
3.74823e-07
-1.61861e-07
-1.20935e-07
3.22852e-07
-1.30821e-07
-1.66668e-07
2.49901e-07
-9.66181e-08
-1.9999e-07
1.59364e-07
-6.21404e-08
-2.13649e-07
5.9392e-08
-2.89779e-08
-1.97377e-07
-5.01534e-08
3.97773e-10
-1.41727e-07
-1.65834e-07
2.42617e-08
-4.67369e-08
-2.80418e-07
4.83666e-08
-1.8321e-07
4.77832e-08
-4.7675e-08
6.70704e-07
-2.11417e-07
-1.11283e-07
6.26438e-07
-1.88007e-07
-1.82862e-07
5.4357e-07
-1.49138e-07
-2.50766e-07
4.23859e-07
-1.06055e-07
-2.98701e-07
2.72803e-07
-6.55038e-08
-3.16357e-07
1.02733e-07
-2.56853e-08
-2.92834e-07
-8.2503e-08
8.8268e-09
-2.16206e-07
-2.83473e-07
4.10104e-08
-8.11449e-08
-4.91654e-07
7.61758e-08
-3.43296e-07
7.89412e-08
-7.72185e-08
1.00275e-06
-2.48669e-07
-1.69564e-07
9.44308e-07
-2.25524e-07
-2.72735e-07
8.31598e-07
-1.84858e-07
-3.71532e-07
6.56989e-07
-1.34332e-07
-4.43174e-07
4.23963e-07
-7.95178e-08
-4.76332e-07
1.54999e-07
-1.91075e-08
-4.57073e-07
-1.266e-07
2.48378e-08
-3.82746e-07
-4.40599e-07
8.27989e-08
-2.11102e-07
-8.49647e-07
1.86347e-07
-7.54421e-07
2.00022e-07
-1.00553e-07
1.29977e-06
-1.9635e-07
-2.25047e-07
1.24101e-06
-1.72206e-07
-3.83695e-07
1.12707e-06
-1.3682e-07
-5.42178e-07
8.97701e-07
-8.2228e-08
-6.49337e-07
5.39865e-07
-8.744e-09
-6.54888e-07
1.10429e-07
5.01208e-08
-6.0401e-07
-3.00148e-07
1.22669e-07
-6.03255e-07
-7.29117e-07
2.87747e-07
-5.09006e-07
-1.51309e-06
5.69076e-07
-1.76769e-06
5.04133e-07
-5.78354e-08
1.48648e-06
-1.98423e-07
-8.34636e-08
1.44164e-06
-1.75001e-07
-1.91851e-07
1.34339e-06
-1.07942e-07
-3.73174e-07
1.06794e-06
1.10884e-08
-5.16123e-07
5.47112e-07
1.35703e-07
-5.18533e-07
-1.78913e-07
2.9175e-07
-4.8524e-07
-8.24609e-07
5.09417e-07
-5.01039e-07
-1.13944e-06
7.85962e-07
-5.57123e-07
-1.23196e-06
8.37645e-07
-1.46737e-06
5.95471e-07
1.2179e-08
2.1389e-06
-8.83062e-07
1.70854e-09
1.90165e-06
-7.87537e-07
-1.78882e-07
1.61137e-06
-5.33062e-07
-5.05046e-07
1.07103e-06
-1.51608e-07
-8.07924e-07
3.74664e-07
1.8769e-07
-8.97527e-07
-1.52387e-07
4.19327e-07
-4.72691e-07
-7.26591e-08
4.23144e-07
-7.90841e-08
-2.19998e-09
1.6212e-07
-1.95506e-08
-2.85078e-10
-7.24347e-08
-3.37831e-11
-1.57825e-08
1.97209e-07
1.38505e-06
-1.76626e-06
9.707e-09
1.16186e-06
-1.51443e-06
-3.43661e-07
6.8272e-07
-1.06624e-06
-4.29097e-07
1.09831e-07
-5.75469e-07
-1.09749e-07
-5.92235e-08
-2.32422e-07
6.86197e-08
-2.37171e-08
-5.36294e-08
1.16576e-09
-9.3861e-11
-5.39843e-09
3.48725e-12
2.77627e-11
-1.08708e-09
2.48391e-12
-1.46355e-12
-2.8634e-10
-1.33009e-11
-2.2487e-11
1.07765e-07
-1.9183e-08
-5.84014e-07
1.33336e-07
-2.28604e-08
-4.81706e-07
1.12631e-07
-2.63031e-08
-2.80414e-07
4.57387e-08
-1.23776e-08
-1.07304e-07
2.22829e-08
-3.74614e-09
-3.22174e-08
1.47604e-10
-4.5204e-10
-1.417e-09
-6.38886e-12
2.40671e-11
4.70171e-12
-1.77457e-11
1.68267e-11
-4.93231e-12
-1.23139e-11
7.74e-11
-3.91607e-12
-1.32527e-10
5.74011e-13
1.34631e-08
2.53224e-09
-4.84328e-08
2.09954e-08
1.4632e-09
-4.16538e-08
1.09925e-08
-3.3403e-10
-2.0944e-08
3.30815e-09
-6.5038e-10
-5.31109e-09
6.14902e-10
-2.40635e-10
-7.32552e-10
2.93959e-11
5.36613e-11
-5.65885e-12
-3.39053e-11
2.00447e-11
8.94366e-12
-2.82207e-10
2.45876e-10
8.02227e-12
-9.4859e-11
1.11976e-10
-1.02715e-11
-1.92303e-10
-3.54909e-12
1.01075e-09
1.18685e-09
-1.26845e-09
1.77856e-09
7.18961e-10
-1.03038e-09
1.141e-09
1.32387e-10
-4.89994e-10
3.27808e-10
8.86984e-11
-1.30144e-10
1.52778e-11
3.15298e-11
-2.58043e-12
1.18321e-12
4.2387e-11
2.45149e-11
-8.79455e-12
1.76633e-11
5.63736e-12
-5.70707e-10
2.67269e-10
2.22591e-11
-2.72219e-10
3.62242e-10
-2.58262e-12
1.37251e-10
-5.4769e-11
1.63835e-10
6.6538e-10
1.38926e-10
2.58623e-10
3.41421e-10
1.26487e-10
1.46351e-10
1.18627e-10
1.02389e-10
5.49097e-11
6.82228e-11
8.8002e-11
1.03425e-11
2.10694e-11
4.45403e-11
2.52697e-12
3.17717e-11
1.10141e-11
2.57497e-12
1.37102e-11
2.25552e-12
-1.90274e-10
2.84065e-11
1.74024e-11
-3.0828e-10
3.63431e-10
-9.69582e-12
4.63099e-10
-9.33625e-11
4.14707e-11
2.49639e-10
2.20141e-10
4.59266e-11
1.10287e-10
1.49144e-10
2.76779e-11
3.40443e-11
7.89618e-11
1.41933e-11
2.6708e-11
4.17637e-11
8.02595e-12
1.154e-11
1.4805e-11
2.6276e-12
3.28529e-11
4.47052e-12
8.05428e-13
1.42324e-11
1.5923e-12
3.42133e-12
1.42281e-11
2.10237e-12
-1.551e-10
1.27441e-10
-1.97892e-11
8.40479e-10
-4.76782e-11
1.37376e-11
3.882e-11
1.09326e-10
1.15991e-11
2.66781e-11
5.75763e-11
8.47359e-12
1.43842e-11
1.83572e-11
1.69917e-11
2.50593e-11
1.20376e-11
3.22791e-11
5.85306e-11
2.4069e-11
5.10912e-11
1.75536e-10
5.59711e-11
2.10632e-11
1.97337e-10
2.84726e-11
-5.28882e-12
3.89516e-11
1.60267e-12
-1.65016e-10
2.41888e-10
6.77478e-12
1.26435e-09
-3.11854e-10
7.43109e-12
1.74456e-11
5.89395e-11
6.06298e-12
2.5594e-11
2.17384e-11
6.42348e-12
6.72482e-12
4.54754e-12
2.09358e-11
2.21531e-11
1.31046e-11
2.77022e-11
3.39261e-11
2.36049e-11
3.94938e-11
1.0629e-10
6.3005e-11
2.80561e-11
2.79147e-10
5.42439e-11
-1.70111e-11
8.05371e-11
2.713e-13
-2.33032e-10
3.90794e-10
-5.8799e-12
1.67798e-09
-6.0266e-10
1.83909e-12
7.83734e-12
1.1293e-11
2.14459e-12
1.57876e-11
1.04143e-11
8.06542e-13
7.52163e-12
3.80739e-12
3.44217e-12
6.29557e-13
5.81799e-12
6.1493e-12
6.08371e-14
4.36932e-12
2.36641e-11
1.87375e-12
8.11169e-12
3.70746e-11
1.17953e-10
3.92616e-11
-7.53837e-13
5.9653e-10
2.39132e-12
-1.6524e-10
6.50726e-10
-1.0408e-10
2.15443e-09
-5.99402e-10
7.58743e-15
1.32228e-15
1.0607e-12
1.74302e-13
2.25384e-14
2.81114e-12
2.08734e-13
5.5691e-15
1.35555e-12
5.51435e-14
-1.14932e-15
7.33939e-14
8.23715e-14
-9.12275e-17
3.26557e-14
2.12938e-12
-1.26198e-14
5.82244e-14
2.09596e-11
1.97301e-11
1.23493e-11
-6.37507e-12
1.07766e-09
3.13187e-11
-6.67861e-11
1.15925e-09
-1.56603e-10
2.69622e-10
-4.50131e-10
9.93477e-16
1.404e-18
7.09602e-15
4.82886e-15
2.10803e-17
1.80573e-14
7.05083e-16
-1.89647e-18
9.6953e-15
4.32887e-17
-2.39179e-17
6.37224e-17
4.96843e-17
-1.57415e-15
1.06659e-16
2.40937e-13
-2.63086e-13
8.53428e-15
-2.4084e-11
1.44019e-11
8.70905e-12
-7.72056e-11
4.95099e-10
4.51583e-11
-4.43076e-11
8.40002e-10
-4.65344e-11
2.99171e-11
-1.76667e-10
-5.39945e-19
-7.56865e-19
1.33607e-17
-6.55152e-21
-2.18128e-20
2.06203e-17
-1.9436e-18
-2.06648e-20
2.30352e-20
-2.69291e-17
-1.65126e-18
3.24168e-18
-2.18353e-15
-4.39129e-16
1.16257e-15
2.24688e-12
-1.40417e-14
1.97699e-13
-8.96637e-12
2.8859e-12
6.36137e-12
-1.15757e-10
-1.18541e-11
3.38288e-11
-2.10432e-11
1.33694e-10
7.78518e-11
1.40212e-12
5.5345e-12
-8.96692e-22
4.44984e-21
-1.66106e-20
-5.47178e-21
2.92704e-21
-4.11688e-21
-1.5805e-20
7.76548e-21
-1.2088e-21
-3.83974e-18
2.15236e-18
-8.11135e-20
-7.94253e-16
3.50623e-16
-1.42824e-17
-1.96391e-13
1.81375e-13
-1.20224e-15
-1.3841e-12
2.19604e-12
-2.89624e-14
-1.87043e-11
3.99371e-12
-5.46307e-13
-6.84626e-13
1.15538e-11
2.43236e-12
5.87405e-13
4.18371e-14
-8.40135e-08
5.16676e-08
-9.54072e-08
-1.67326e-07
4.3158e-08
-8.04665e-08
-2.29889e-07
2.28078e-08
-5.34859e-08
-2.68242e-07
-3.45346e-09
-2.22054e-08
-2.80989e-07
-3.67426e-08
1.31361e-08
-2.67183e-07
-7.34102e-08
4.92973e-08
-2.27739e-07
-1.14585e-07
8.50963e-08
-1.54892e-07
-1.65242e-07
1.22515e-07
-4.79048e-08
-2.16766e-07
1.59487e-07
-1.38387e-07
1.35768e-07
-6.11e-08
1.11599e-07
-1.67886e-07
-1.31411e-07
1.06154e-07
-1.54546e-07
-1.90598e-07
7.46871e-08
-1.23513e-07
-2.36012e-07
2.70744e-08
-8.1732e-08
-2.6189e-07
-3.84706e-08
-3.45341e-08
-2.61938e-07
-1.1928e-07
1.69399e-08
-2.32444e-07
-2.11074e-07
6.73914e-08
-1.61858e-07
-3.28644e-07
1.17078e-07
-4.75087e-08
-4.47684e-07
1.64935e-07
-2.83821e-07
1.45708e-07
-8.67241e-08
2.21835e-07
-2.22082e-07
-1.8803e-07
2.20378e-07
-2.00925e-07
-2.75345e-07
1.72463e-07
-1.59599e-07
-3.44367e-07
9.09456e-08
-1.00904e-07
-3.81696e-07
-3.01605e-08
-3.64847e-08
-3.83919e-07
-1.76592e-07
3.38491e-08
-3.47785e-07
-3.4102e-07
1.02639e-07
-2.4862e-07
-5.59358e-07
1.72561e-07
-7.96636e-08
-7.83927e-07
2.43462e-07
-5.00146e-07
2.15603e-07
-1.21977e-07
4.00637e-07
-2.9366e-07
-2.60526e-07
3.99002e-07
-2.65598e-07
-3.85345e-07
3.26503e-07
-2.14079e-07
-4.84844e-07
1.93803e-07
-1.37691e-07
-5.54496e-07
5.32811e-09
-4.53543e-08
-5.90451e-07
-2.10532e-07
5.07878e-08
-5.62207e-07
-4.96445e-07
1.52018e-07
-4.45956e-07
-8.65931e-07
2.7312e-07
-1.97674e-07
-1.27851e-06
4.32643e-07
-8.71902e-07
3.74102e-07
-1.95251e-07
7.74586e-07
-3.74057e-07
-4.01372e-07
7.72783e-07
-3.39865e-07
-6.08642e-07
6.80373e-07
-2.83419e-07
-7.86774e-07
4.66597e-07
-1.7689e-07
-9.18544e-07
1.57434e-07
-2.90804e-08
-9.21451e-07
-2.73559e-07
1.16055e-07
-8.71141e-07
-7.07124e-07
2.83033e-07
-7.89719e-07
-1.20599e-06
5.46366e-07
-5.46629e-07
-1.82158e-06
8.68927e-07
-1.53641e-06
6.21895e-07
-2.40615e-07
1.25323e-06
-4.91217e-07
-4.49295e-07
1.24046e-06
-4.33999e-07
-6.99018e-07
1.12455e-06
-3.02397e-07
-9.51937e-07
8.34469e-07
-1.03864e-07
-1.0825e-06
3.27439e-07
9.62566e-08
-1.08449e-06
-2.88662e-07
3.08785e-07
-9.97048e-07
-8.59907e-07
6.15921e-07
-8.21172e-07
-1.07539e-06
9.22097e-07
-7.8996e-07
-1.02441e-06
9.39693e-07
-1.23449e-06
5.86348e-07
-1.83514e-07
1.98689e-06
-1.46345e-06
-3.79965e-07
1.95307e-06
-1.30369e-06
-6.76563e-07
1.62323e-06
-9.65138e-07
-9.79984e-07
1.09376e-06
-5.05719e-07
-1.11999e-06
4.36168e-07
-3.16047e-08
-8.76363e-07
-8.37257e-08
2.92845e-07
-3.36288e-07
-1.59686e-07
3.18208e-07
-2.90241e-08
-2.71124e-08
3.15146e-08
-1.29171e-08
-5.03185e-09
-1.70336e-07
-8.97714e-10
-2.6625e-08
5.01695e-08
1.00402e-06
-2.63689e-06
-6.93973e-09
8.88309e-07
-2.35926e-06
-1.21339e-07
4.90382e-07
-1.74999e-06
-1.42223e-07
5.25186e-08
-9.06702e-07
1.31767e-08
-3.33298e-08
-3.47705e-07
1.15289e-07
-1.89903e-08
-1.41324e-07
1.41487e-08
-1.33866e-10
-6.46272e-08
1.41275e-09
1.63626e-12
-1.55607e-08
1.64498e-10
1.1524e-11
-4.10252e-09
2.93368e-12
-7.66333e-10
7.26115e-08
5.45447e-08
-8.6483e-07
1.27516e-07
4.56225e-08
-7.5157e-07
1.15189e-07
1.61354e-08
-4.79148e-07
4.15341e-08
1.47366e-09
-1.80092e-07
1.57582e-08
1.80841e-10
-4.07615e-08
8.35709e-11
2.08829e-11
-4.91992e-09
4.87528e-12
1.02632e-11
-1.19153e-10
1.06146e-12
4.5289e-12
-1.74106e-11
8.84202e-13
1.27578e-11
-7.24539e-12
4.5298e-12
-2.03155e-12
4.98492e-09
1.46828e-09
-1.39501e-09
9.05681e-09
1.12266e-09
-8.45166e-10
4.35288e-09
2.87615e-10
-1.88589e-10
5.15367e-10
4.73588e-11
-1.76253e-11
6.88351e-12
1.18805e-11
-5.74979e-12
-5.75612e-12
-1.29239e-11
-1.98753e-11
-1.09545e-12
7.92367e-12
-3.71557e-13
3.0958e-13
6.99796e-12
-1.92979e-12
5.46287e-13
5.71349e-12
-4.31866e-12
4.74743e-12
-4.62061e-12
6.40761e-11
7.45133e-11
-3.43324e-11
1.28413e-10
5.79514e-11
-3.2225e-11
2.60589e-11
-8.73032e-11
-1.33043e-11
-1.76642e-11
-3.84885e-11
-7.97129e-13
-1.28671e-11
4.53112e-12
-1.02646e-11
-2.36444e-12
1.8381e-11
1.00351e-12
-4.4319e-13
9.0548e-12
9.33488e-13
3.34742e-13
8.87094e-12
-1.15285e-12
3.70789e-13
5.46894e-12
-3.44625e-12
1.00466e-10
-8.45918e-12
2.06903e-11
1.61123e-10
1.67078e-12
2.0183e-11
7.47364e-11
2.55901e-12
4.80008e-12
5.80657e-11
1.72613e-13
-1.10931e-12
5.84891e-11
-1.87248e-12
-1.73832e-13
2.07375e-11
5.74861e-12
8.67326e-13
1.69097e-11
9.79403e-12
8.30039e-13
8.88607e-12
1.44116e-12
4.08503e-13
9.97538e-12
1.53055e-12
1.31215e-13
6.18427e-12
-1.10416e-11
5.43003e-11
-6.09463e-12
2.81242e-11
1.14894e-10
6.4709e-11
5.80685e-12
7.18233e-11
4.85715e-11
7.09269e-12
4.09777e-11
2.14829e-11
4.04451e-12
2.95586e-11
8.83737e-12
6.40539e-12
5.8036e-11
2.44646e-11
4.07169e-12
3.09193e-11
9.60424e-12
2.32933e-12
8.79417e-12
2.04085e-12
9.10313e-13
1.03782e-11
2.19649e-12
1.23717e-13
1.41089e-11
-2.70291e-11
1.42903e-11
-5.63229e-12
4.53247e-12
9.79308e-12
1.20067e-10
4.54805e-12
5.87065e-11
8.75629e-11
1.98387e-13
8.77997e-12
2.45421e-11
2.93982e-11
1.3518e-11
8.79783e-12
1.11728e-10
6.19366e-11
5.14959e-11
8.76462e-11
1.88477e-10
2.57949e-11
3.77559e-11
2.18644e-10
2.67404e-11
2.59329e-12
3.54406e-11
5.42685e-12
1.14971e-12
9.25926e-11
-1.253e-10
7.73229e-10
-3.44943e-11
-9.86506e-12
1.6395e-11
6.68985e-11
-2.24505e-12
6.26959e-12
3.99414e-11
1.52817e-13
2.39621e-12
6.44221e-12
1.12524e-11
1.12447e-11
6.70634e-12
5.39828e-11
1.0408e-11
1.1784e-11
9.68096e-11
5.06347e-11
3.29822e-11
1.03474e-10
2.85285e-10
1.07676e-10
8.07355e-12
9.80533e-11
1.01622e-11
4.30132e-11
6.24448e-10
-2.01149e-10
1.97849e-09
-6.90916e-10
-1.60062e-12
-1.13763e-12
7.54693e-12
-1.51109e-12
-4.26913e-13
1.00565e-12
-3.52004e-13
6.84502e-13
1.96927e-13
1.35764e-12
-2.21455e-14
1.88842e-13
2.02022e-12
-3.59138e-14
2.10147e-13
1.64122e-11
-4.6357e-13
2.75468e-12
7.96328e-11
3.68658e-11
1.56734e-11
1.68209e-10
6.90426e-10
1.85169e-11
1.61343e-10
2.13187e-09
-2.43159e-10
2.30283e-09
-7.10383e-10
-1.20176e-14
-2.88975e-15
5.55764e-14
-1.60867e-14
-1.16262e-14
4.19984e-14
2.23944e-14
-9.66664e-15
1.47937e-14
2.21451e-15
-6.21707e-16
3.71719e-15
1.51102e-15
-1.95864e-15
1.216e-15
9.06553e-13
-6.6122e-16
8.21964e-14
4.64669e-11
2.06624e-12
1.68916e-12
2.32174e-10
1.06831e-09
1.24785e-11
1.93808e-10
2.21974e-09
-2.1126e-10
2.49852e-09
-4.32586e-10
2.61075e-17
-1.32165e-17
5.07176e-16
-7.40389e-18
-2.13119e-17
5.81613e-16
-9.07423e-18
-2.99481e-17
7.76235e-17
-1.61305e-16
-1.42074e-16
3.90271e-17
-4.00126e-17
-3.69586e-15
3.99137e-15
2.19675e-15
-2.08097e-14
2.89357e-14
3.1757e-11
1.77923e-12
3.9424e-13
1.5051e-10
7.16389e-10
-1.64076e-11
1.22746e-10
2.04e-09
-3.81831e-11
2.48043e-09
-4.09902e-11
-2.826e-20
-7.0778e-20
2.22115e-19
-7.42895e-19
-1.285e-19
2.65674e-19
-2.26243e-17
-8.85397e-18
1.33516e-18
5.30057e-16
-8.5259e-16
1.78353e-16
5.40956e-14
-6.80495e-14
1.34667e-14
3.45969e-12
-4.63345e-14
8.77727e-13
7.06391e-12
2.39115e-11
4.36078e-12
-7.34196e-12
7.8901e-11
5.29969e-12
-6.47355e-11
4.62453e-10
5.88988e-11
2.04459e-11
9.11405e-11
-1.93256e-20
1.34776e-19
-7.87592e-20
-4.50818e-20
1.13738e-19
-5.00026e-20
-1.26829e-17
4.13376e-18
-4.38392e-19
-1.29365e-15
4.61445e-16
-4.56877e-17
-9.77711e-14
3.17305e-14
-4.33645e-15
-4.25915e-12
1.64465e-12
9.41242e-14
-5.16067e-12
1.19705e-11
3.45182e-12
-3.09463e-11
1.10966e-11
-2.79731e-12
-7.57277e-12
4.21735e-11
1.49269e-11
1.0229e-11
1.29431e-12
-6.18099e-08
-1.9161e-08
-2.02662e-09
-1.3448e-07
-8.99663e-09
1.20055e-09
-1.88386e-07
-8.89758e-09
9.31777e-09
-2.19052e-07
-1.97976e-08
2.82583e-08
-2.27142e-07
-3.76187e-08
5.88446e-08
-2.14138e-07
-6.07748e-08
9.70675e-08
-1.79998e-07
-8.94171e-08
1.40374e-07
-1.17977e-07
-1.28464e-07
1.88957e-07
-2.8137e-08
-1.67379e-07
2.37026e-07
-8.87731e-08
1.96405e-07
-2.53325e-08
-4.63089e-08
-1.00516e-07
-7.75939e-08
-9.25336e-09
-1.02028e-07
-1.27458e-07
2.50175e-09
-8.50492e-08
-1.66508e-07
-1.06032e-08
-5.18756e-08
-1.8952e-07
-4.30814e-08
-6.05999e-09
-1.91687e-07
-9.18542e-08
5.01862e-08
-1.70138e-07
-1.56418e-07
1.12844e-07
-1.13917e-07
-2.45922e-07
1.78315e-07
-2.29629e-08
-3.34442e-07
2.41045e-07
-1.73265e-07
2.07237e-07
-4.84721e-08
-4.08787e-08
-1.6249e-07
-1.20601e-07
2.15542e-08
-1.59603e-07
-1.90922e-07
3.87326e-08
-1.25509e-07
-2.49091e-07
1.72871e-08
-7.06254e-08
-2.80779e-07
-4.58758e-08
-2.00162e-09
-2.85256e-07
-1.33402e-07
7.98736e-08
-2.56472e-07
-2.49399e-07
1.66835e-07
-1.75642e-07
-4.12649e-07
2.58459e-07
-4.21096e-08
-5.74442e-07
3.49929e-07
-2.99654e-07
2.99882e-07
-6.41985e-08
1.35894e-08
-2.68197e-07
-1.54619e-07
9.27662e-08
-2.46389e-07
-2.47171e-07
1.13213e-07
-1.96008e-07
-3.29006e-07
7.46835e-08
-1.13252e-07
-3.93813e-07
-1.44634e-08
-1.19589e-08
-4.27653e-07
-1.55218e-07
1.06444e-07
-4.03064e-07
-3.62598e-07
2.40628e-07
-2.91003e-07
-6.47218e-07
3.95627e-07
-9.02967e-08
-9.07285e-07
5.64779e-07
-4.76826e-07
4.60977e-07
-1.14346e-07
2.42152e-07
-4.7468e-07
-2.55016e-07
3.09031e-07
-4.1546e-07
-4.06707e-07
3.25454e-07
-3.43969e-07
-5.48058e-07
2.5601e-07
-2.16865e-07
-6.61682e-07
1.06259e-07
-3.61791e-08
-7.05072e-07
-1.71589e-07
1.75816e-07
-6.72819e-07
-5.2917e-07
4.17349e-07
-5.51008e-07
-9.45636e-07
7.22969e-07
-3.00694e-07
-1.2805e-06
9.9181e-07
-7.97101e-07
6.4146e-07
-2.05814e-07
6.58351e-07
-7.07591e-07
-4.12443e-07
6.88204e-07
-6.06544e-07
-6.27505e-07
6.84066e-07
-4.45946e-07
-8.40488e-07
5.91784e-07
-2.26657e-07
-9.45935e-07
2.84076e-07
2.3887e-08
-9.46509e-07
-1.6795e-07
3.05683e-07
-9.39732e-07
-6.13335e-07
6.95354e-07
-8.85984e-07
-9.83718e-07
1.0919e-06
-7.79712e-07
-1.21616e-06
1.24717e-06
-1.25135e-06
6.47157e-07
-2.0927e-07
1.16721e-06
-1.74879e-06
-4.44992e-07
1.17421e-06
-1.55397e-06
-6.58042e-07
1.14194e-06
-1.20997e-06
-8.53748e-07
8.43805e-07
-7.95298e-07
-8.81889e-07
3.91816e-07
-2.82919e-07
-6.61247e-07
-5.78732e-08
1.86332e-07
-3.01625e-07
-2.20787e-07
3.17343e-07
-1.20524e-07
-1.2862e-07
8.49844e-08
-1.75661e-07
-4.11965e-08
-3.86577e-08
-1.50307e-08
2.89593e-07
1.18595e-07
4.1273e-07
-2.77855e-06
7.72046e-08
4.22549e-07
-2.50951e-06
3.26349e-08
2.87702e-07
-1.99261e-06
5.12619e-08
5.73816e-08
-1.14169e-06
8.46544e-08
-1.33589e-08
-4.83692e-07
1.0343e-07
-3.40247e-08
-2.30828e-07
8.20752e-08
-5.61905e-09
-1.11014e-07
1.64984e-08
-5.28493e-10
-7.81388e-08
1.91799e-09
-8.59365e-12
-3.07293e-08
-1.26661e-11
-1.39365e-08
1.30056e-07
-3.07145e-09
-1.33269e-06
2.52449e-07
-3.31061e-09
-1.18867e-06
2.36446e-07
-1.71463e-09
-8.03207e-07
7.87577e-08
-2.27447e-10
-3.51738e-07
2.94312e-08
-3.44415e-11
-4.22366e-08
4.06937e-09
-9.34743e-13
-1.36214e-08
3.2166e-10
-1.38948e-11
-1.99299e-09
1.21534e-11
2.51226e-12
-2.43114e-10
2.27623e-12
5.03542e-12
-1.23331e-11
6.52291e-12
-2.66693e-11
4.58376e-11
-1.10943e-11
-4.5548e-09
9.96836e-11
-1.15858e-11
-4.20026e-09
4.66137e-11
-5.1979e-12
-1.84553e-09
2.62631e-12
-3.94698e-13
-2.00904e-10
7.57927e-13
-4.88205e-12
-8.95884e-12
1.20687e-11
-1.11642e-12
-6.7567e-12
2.97122e-12
-5.57559e-13
-3.24342e-12
2.27142e-12
2.31199e-12
-2.17684e-12
8.79493e-13
5.03507e-12
-3.56691e-12
8.64211e-12
-7.43466e-12
4.95052e-13
-4.64308e-11
-2.86803e-12
5.97359e-13
-4.37905e-11
-7.00199e-13
2.39849e-13
-1.93225e-11
-1.13588e-13
-2.03746e-13
-8.00822e-13
-8.0699e-14
-1.45565e-12
-1.04474e-12
-1.77618e-12
3.70794e-12
2.22027e-11
3.34176e-13
4.60813e-12
1.60115e-11
3.91317e-12
2.09699e-12
4.58889e-12
-1.00429e-12
8.5909e-13
5.02993e-12
-3.07061e-12
7.65757e-12
-7.17903e-12
3.06497e-12
-8.02686e-11
1.07084e-13
8.37816e-12
-8.69243e-11
1.54251e-12
-9.33881e-14
-1.62845e-11
1.46867e-12
1.48282e-12
-3.40805e-12
-5.69356e-14
8.27731e-12
2.49349e-12
9.43221e-12
4.52424e-12
3.39847e-11
4.43843e-11
1.20502e-12
1.1369e-11
1.78665e-11
3.91053e-13
3.76504e-12
2.3691e-11
2.14872e-12
7.53548e-11
-2.14994e-11
7.866e-12
-4.65102e-12
-1.17171e-11
-1.78028e-10
1.68753e-11
2.64279e-12
-8.71471e-11
5.07118e-11
-7.2108e-14
-7.36627e-12
3.51544e-12
1.43703e-11
-2.12804e-12
-1.1002e-13
6.28016e-11
3.93686e-12
3.37655e-11
2.16895e-11
3.78688e-11
4.50069e-11
2.99799e-12
2.62338e-11
1.7776e-11
-4.13707e-12
3.94532e-12
7.93792e-12
1.4019e-11
5.11737e-10
-3.94645e-10
2.00833e-11
-3.91448e-12
-1.97115e-11
-1.11557e-10
4.74691e-11
-5.08297e-12
-1.65716e-11
1.02353e-11
-5.91799e-13
-1.46449e-12
9.03361e-13
4.3207e-12
-1.10182e-12
1.66703e-12
3.76901e-11
-1.37416e-12
5.5375e-12
4.94852e-11
1.80168e-11
5.06643e-11
2.12067e-11
3.30743e-11
1.01322e-11
2.7392e-11
8.94698e-11
2.92656e-11
5.9175e-11
9.67104e-10
-4.32851e-10
9.14364e-10
-4.02537e-10
-3.59949e-12
-7.55347e-12
1.29806e-11
-1.26569e-12
-9.91526e-13
8.43659e-13
-3.53416e-13
-1.80182e-13
7.46664e-14
3.17553e-14
-1.57711e-13
9.83186e-14
1.4371e-12
-2.13161e-13
1.59308e-13
1.38032e-11
-2.74027e-13
9.11326e-13
4.47215e-11
1.07315e-11
2.53267e-12
9.21723e-11
3.33224e-10
2.35883e-11
1.04865e-10
1.06584e-09
-3.47881e-10
1.87858e-09
-6.83176e-10
-2.19038e-14
-5.7163e-14
1.66028e-13
-2.73638e-14
-4.1769e-14
4.4394e-14
-1.68439e-14
-1.36761e-14
1.39589e-14
2.92735e-15
-2.50291e-15
1.01544e-14
1.1348e-14
-2.15951e-14
3.27145e-15
7.36664e-13
-1.24324e-14
2.27474e-14
2.39043e-11
2.47538e-12
1.5305e-13
3.81892e-11
3.85778e-10
-5.26384e-12
-2.22766e-11
9.8057e-10
-3.39688e-10
1.71397e-09
-5.21807e-10
4.76157e-17
-4.8193e-16
1.69346e-15
-8.96053e-16
-5.24356e-16
1.61837e-15
-8.10165e-17
-1.55555e-16
4.46835e-16
-1.17787e-15
-3.31052e-16
3.44706e-16
-4.7214e-15
-3.95671e-14
1.4243e-14
5.50184e-14
1.90295e-13
3.32791e-14
3.74877e-12
3.62652e-13
1.93037e-14
-1.1425e-11
2.15504e-10
-6.78643e-12
-1.02645e-10
1.83398e-10
-6.58234e-11
6.93246e-10
-2.01599e-10
-7.04486e-20
-3.74349e-19
1.19135e-18
-1.05911e-18
-1.58797e-19
7.16493e-19
-8.37628e-17
-2.545e-18
4.22011e-18
-3.50386e-16
-4.19604e-16
3.82011e-16
-1.4253e-13
-1.37022e-14
3.24319e-14
1.69372e-14
5.93217e-13
1.34312e-13
1.30247e-13
6.58152e-13
3.50893e-15
-3.10277e-12
2.88704e-11
-7.77817e-13
-3.38513e-11
4.77636e-11
-4.91853e-12
-1.84752e-11
-8.32696e-12
-2.48639e-20
-2.65379e-19
3.11309e-19
-9.49112e-19
-1.72038e-19
2.5433e-19
1.52102e-20
-5.01217e-18
2.3953e-18
2.80231e-16
-8.11475e-16
2.99863e-16
3.09694e-14
-4.82863e-14
1.8109e-14
-2.98793e-13
5.63277e-13
7.48007e-13
-3.34423e-13
3.06324e-11
3.98981e-13
-4.99992e-12
3.95691e-11
-2.84286e-13
-5.48057e-12
6.55288e-11
-4.61182e-12
-1.32359e-12
3.8155e-13
-3.74203e-20
4.75532e-19
-2.29583e-19
-1.26613e-19
3.27194e-19
-1.29187e-19
-5.29891e-18
5.26882e-18
-1.16145e-18
-8.64551e-16
6.25178e-16
-1.35938e-16
-4.59745e-14
3.70245e-14
-1.0118e-14
-4.83396e-12
1.3252e-12
2.56059e-13
-1.80903e-12
7.38453e-12
1.40772e-11
-1.45283e-11
3.47391e-12
1.93412e-11
-4.64493e-12
4.31428e-12
2.47241e-11
7.3694e-13
-3.60295e-14
-5.01386e-08
-1.40576e-08
7.79116e-08
-1.04928e-07
-1.10363e-08
6.70268e-08
-1.44419e-07
-1.39943e-08
6.28026e-08
-1.66904e-07
-1.87014e-08
6.94445e-08
-1.70956e-07
-3.01841e-08
9.30809e-08
-1.59614e-07
-4.34716e-08
1.29197e-07
-1.31367e-07
-6.20332e-08
1.7416e-07
-8.03185e-08
-9.09508e-08
2.28859e-07
-7.8402e-09
-1.17989e-07
2.82536e-07
-3.69734e-08
2.25538e-07
-1.83167e-08
-4.62287e-08
-2.43805e-08
-4.62516e-08
-3.81567e-08
-4.69723e-08
-7.17121e-08
-1.99245e-08
-5.36585e-08
-9.61365e-08
-1.30191e-08
-3.31335e-08
-1.12598e-07
-2.72005e-08
7.41762e-09
-1.1782e-07
-5.37225e-08
6.56593e-08
-1.04608e-07
-9.51611e-08
1.3276e-07
-6.37184e-08
-1.60735e-07
2.07209e-07
1.07674e-09
-2.20232e-07
2.78493e-07
-5.94318e-08
2.30772e-07
-2.95469e-08
-2.65618e-08
-1.21718e-07
-7.3048e-08
-4.29285e-08
-1.1133e-07
-1.12848e-07
-9.76399e-09
-9.58701e-08
-1.50805e-07
3.08706e-09
-4.8774e-08
-1.7558e-07
-1.93612e-08
1.49339e-08
-1.83115e-07
-6.69548e-08
1.0064e-07
-1.63105e-07
-1.4407e-07
1.95734e-07
-1.02917e-07
-2.60302e-07
2.97838e-07
-8.31809e-09
-3.63074e-07
3.98173e-07
-1.02111e-07
3.34243e-07
-2.13194e-08
5.20871e-08
-2.95945e-07
-7.56174e-08
-1.60393e-08
-2.1898e-07
-1.32264e-07
2.87194e-08
-1.77845e-07
-1.89041e-07
4.60724e-08
-9.94606e-08
-2.34749e-07
1.54193e-08
-1.03052e-09
-2.62459e-07
-5.68507e-08
1.24049e-07
-2.47734e-07
-1.8787e-07
2.69702e-07
-1.63783e-07
-3.86106e-07
4.3748e-07
-2.75401e-08
-5.44666e-07
6.10128e-07
-1.63779e-07
4.95105e-07
6.30965e-09
1.57165e-07
-5.53742e-07
-8.21835e-08
6.19584e-08
-4.04965e-07
-1.7804e-07
1.10657e-07
-3.3005e-07
-2.71958e-07
1.35846e-07
-2.12722e-07
-3.56729e-07
1.09499e-07
-4.54874e-08
-4.29657e-07
3.22092e-08
1.59684e-07
-4.2981e-07
-2.15127e-07
4.44759e-07
-3.23781e-07
-5.42822e-07
7.73654e-07
-1.38481e-07
-7.74322e-07
1.03616e-06
-3.77049e-07
7.16248e-07
-1.77852e-09
3.72961e-07
-8.951e-07
-1.49855e-07
2.78966e-07
-6.75475e-07
-2.95382e-07
3.37559e-07
-5.27322e-07
-4.50968e-07
3.82803e-07
-3.18027e-07
-6.08895e-07
3.48805e-07
-5.74931e-08
-6.52148e-07
8.32289e-08
2.97917e-07
-6.75984e-07
-2.12198e-07
7.16199e-07
-6.71775e-07
-5.92606e-07
1.14222e-06
-5.51811e-07
-9.35555e-07
1.33788e-06
-9.57684e-07
6.91156e-07
3.29267e-08
4.4883e-07
-1.79335e-06
-1.90754e-07
4.38287e-07
-1.48961e-06
-3.55314e-07
4.99913e-07
-1.20776e-06
-4.97441e-07
6.05926e-07
-8.76293e-07
-5.79184e-07
4.39983e-07
-4.26018e-07
-4.47135e-07
4.89578e-08
1.3036e-07
-2.92181e-07
-1.51301e-07
4.65205e-07
-2.42174e-07
-2.7899e-07
5.42504e-07
-3.64888e-07
-2.2206e-07
6.31693e-07
-1.79197e-07
8.21288e-07
3.35026e-07
-3.50176e-07
-2.55648e-06
3.08284e-07
-2.26013e-07
-2.24854e-06
2.40649e-07
-1.38754e-07
-1.8472e-06
2.79472e-07
-9.82255e-08
-1.23462e-06
2.31135e-07
-4.55877e-08
-6.77223e-07
1.85305e-07
-7.35156e-08
-3.17066e-07
1.12584e-07
-2.06491e-08
-1.85605e-07
7.11382e-08
-4.4443e-09
-1.26894e-07
1.36764e-08
-6.82615e-10
-1.94714e-07
-5.84216e-11
-1.79547e-07
2.86346e-07
-7.36074e-08
-2.21693e-06
4.97335e-07
-5.5621e-08
-1.96529e-06
4.42679e-07
-2.02422e-08
-1.31762e-06
1.99348e-07
-2.82014e-09
-5.74294e-07
5.8711e-08
-1.26115e-10
-8.18786e-08
1.34867e-08
-4.146e-11
-4.18596e-08
2.29246e-09
-8.58885e-11
-1.13612e-08
2.88278e-10
-5.5096e-12
-2.68027e-09
1.75127e-11
-2.50197e-12
-4.18628e-10
3.95775e-12
-1.54248e-10
5.94053e-10
-9.42979e-11
-7.90407e-08
1.06575e-09
-3.79281e-11
-6.02549e-08
4.41434e-10
-8.20179e-12
-2.14551e-08
2.03731e-11
-5.37514e-12
-2.5946e-09
9.19543e-13
-6.07527e-12
-1.11295e-10
1.75395e-12
-2.09965e-11
-7.09483e-12
3.32973e-12
-8.80344e-11
-5.32717e-12
2.79031e-12
-7.57751e-12
-3.6186e-12
9.28507e-13
5.01093e-12
-2.29929e-12
1.96746e-11
-2.78488e-11
-1.30626e-13
-4.15364e-11
-5.61953e-11
-3.81618e-14
-3.71255e-11
-1.45904e-12
-4.33628e-14
-8.24513e-12
-1.77886e-14
-3.77147e-13
-5.08222e-12
-1.34492e-14
7.53443e-13
-1.20025e-11
1.80537e-13
-1.09569e-11
-4.17897e-11
4.10293e-12
-6.61903e-12
-6.05014e-11
8.44054e-12
1.04058e-11
-2.75986e-11
3.09817e-12
1.63627e-13
1.81318e-11
-4.18859e-12
1.30968e-11
-1.34155e-12
-2.30721e-12
-9.48121e-11
2.21889e-12
-9.02291e-13
-4.8268e-11
1.1364e-12
-2.26461e-13
-5.09018e-12
8.58889e-14
4.19074e-14
-5.4108e-12
3.51949e-13
7.60189e-13
-2.06923e-11
2.39938e-12
-1.18658e-12
-4.53791e-11
2.67155e-11
-3.6314e-11
-1.23591e-11
2.60108e-11
-6.91368e-12
-1.76163e-10
3.39288e-11
1.72518e-13
2.5898e-10
-6.87514e-12
1.28048e-11
-4.50782e-12
-6.67243e-12
-1.03721e-10
1.53852e-11
-1.84735e-12
-9.67294e-12
2.16658e-13
-5.12805e-13
-8.04988e-13
7.06322e-14
-2.65194e-13
-1.11246e-12
2.31644e-13
1.67586e-12
-4.67324e-12
7.09218e-13
2.14456e-14
-1.19339e-11
1.1321e-11
2.10187e-12
-3.31331e-12
3.13937e-12
-1.11541e-10
-1.1654e-10
2.56172e-12
-2.74872e-13
5.71328e-10
-6.50667e-10
1.45315e-11
-4.18168e-12
-6.44256e-13
-1.21682e-11
1.2387e-11
-1.44136e-13
-6.88097e-13
3.53657e-13
-4.9941e-14
-8.06877e-14
2.00663e-14
-2.12814e-14
-1.0476e-13
1.86287e-14
-1.70056e-13
-2.05366e-13
8.65173e-14
2.70519e-14
-6.75322e-13
9.76204e-13
-3.57602e-12
1.84576e-13
2.10345e-12
-3.1094e-10
2.37196e-11
-2.67225e-11
-8.89428e-11
7.77082e-10
-7.81867e-10
1.19144e-09
-3.96988e-10
4.76774e-14
-1.63274e-13
9.59376e-13
-6.53476e-15
-3.43068e-14
2.25785e-13
-1.08227e-14
-9.9887e-15
6.18051e-15
-1.54555e-14
-1.03413e-14
4.18658e-15
-6.26962e-14
-9.50751e-15
4.51595e-15
4.97356e-14
3.12314e-15
4.20272e-14
1.38415e-13
7.90343e-13
6.81457e-13
-4.33388e-10
3.05919e-11
-7.6616e-12
-2.25725e-10
7.303e-10
-4.74718e-10
1.12567e-09
-6.97414e-10
8.35638e-16
-1.67435e-15
3.92527e-15
-1.8083e-16
-1.62085e-15
1.13173e-14
-8.04196e-16
-4.7139e-16
4.81983e-15
-5.3143e-16
-8.46406e-16
6.07738e-17
-1.07861e-15
-5.37853e-15
1.36386e-16
1.47387e-14
4.32181e-15
1.38216e-15
8.39439e-13
1.56132e-14
5.71438e-14
-6.83475e-12
4.35051e-12
-9.96304e-13
-2.08317e-10
5.29171e-11
-9.4196e-11
2.2718e-10
-4.21578e-10
1.08442e-18
-5.82012e-18
6.76656e-17
-2.17047e-17
-1.34424e-17
3.65269e-17
-5.32626e-17
-6.37834e-18
1.36297e-17
-3.08179e-15
-1.95781e-16
2.79411e-16
-1.05994e-14
-2.30752e-14
5.42619e-15
-2.86907e-15
6.58149e-14
1.02131e-15
-3.17417e-14
6.06732e-14
1.20001e-15
-3.00958e-12
5.46895e-13
-1.65129e-14
-1.42983e-11
1.43166e-14
-1.89167e-12
-9.41029e-13
-5.73393e-12
-2.45687e-20
-1.52811e-18
1.28422e-18
-1.67935e-19
-1.10465e-18
4.39211e-19
2.66984e-18
-1.63233e-18
1.81975e-18
2.32898e-16
-1.6088e-16
1.17128e-16
-1.02497e-13
-5.99209e-15
1.02254e-14
-1.34268e-15
2.58736e-14
2.74947e-14
-1.67828e-15
5.60626e-14
2.12028e-15
-4.96047e-13
2.51731e-13
-8.17691e-16
-4.09854e-13
1.08113e-12
-3.584e-14
-4.28818e-14
-3.70408e-15
-1.19237e-19
-1.31729e-18
1.85606e-18
-4.10394e-19
-9.5928e-19
1.44776e-18
-1.10917e-18
-1.39496e-18
1.33673e-18
2.4313e-16
-1.66523e-16
5.96663e-17
2.10721e-14
-1.11165e-14
2.34168e-15
-1.05287e-12
-1.97058e-13
9.20425e-14
-3.11384e-13
6.45815e-12
3.27394e-13
-1.89074e-12
1.35892e-11
-2.98921e-13
-3.66375e-13
4.72695e-12
-1.67626e-13
-4.11156e-14
4.23217e-15
-1.32372e-19
1.67286e-18
-8.24123e-19
-3.24004e-19
1.24771e-18
-7.22442e-19
3.33376e-18
5.51328e-19
-3.54534e-19
4.51668e-16
3.09898e-17
-3.10874e-17
2.6546e-14
1.30989e-15
-2.19826e-15
-2.12801e-12
5.30865e-14
-5.53329e-14
-5.26134e-12
6.10697e-13
3.02934e-12
-6.17193e-12
1.85517e-12
1.00054e-11
-6.02744e-13
-1.0882e-12
3.8982e-12
5.53668e-15
-3.12418e-15
-6.44512e-08
1.88136e-08
1.47382e-07
-1.08946e-07
-8.02297e-09
1.19544e-07
-1.29454e-07
-2.14303e-08
1.04741e-07
-1.35219e-07
-2.95705e-08
1.04781e-07
-1.29545e-07
-3.27081e-08
1.20115e-07
-1.14656e-07
-3.61262e-08
1.50434e-07
-8.78246e-08
-4.41652e-08
1.91494e-07
-4.4074e-08