/*--------------------------------*- C++ -*----------------------------------*\
| =========                 |                                                 |
| \\      /  F ield         | OpenFOAM: The Open Source CFD Toolbox           |
|  \\    /   O peration     | Version:  2312                                  |
|   \\  /    A nd           | Website:  www.openfoam.com                      |
|    \\/     M anipulation  |                                                 |
\*---------------------------------------------------------------------------*/
FoamFile
{
    version     2.0;
    format      ascii;
    arch        "LSB;label=32;scalar=64";
    class       volScalarField;
    location    "1.46";
    object      alpha.water;
}
// * * * * * * * * * * * * * * * * * * * * * * * * * * * * * * * * * * * * * //

dimensions      [0 0 0 0 0 0 0];

internalField   nonuniform List<scalar> 
8000
(
1
1
1
1
1
1
1
1
1
1
1
1
1
1
1
1
1
1
1
1
1
1
1
1
1
1
1
1
1
1
1
1
1
1
1
1
1
1
1
1
1
1
1
1
1
1
1
1
1
1
1
1
1
1
1
1
1
1
1
1
1
1
1
1
1
1
1
1
1
1
0.653539
0.669733
0.688316
0.71333
0.736195
0.758706
0.796124
0.844678
0.883181
0.899735
0.0444104
0.0545418
0.0760849
0.103224
0.135874
0.171917
0.212784
0.24971
0.267371
0.261654
0.000698277
0.000767252
0.00082379
0.00123667
0.00121681
0.000912831
0.000646296
0.000471713
0.000310156
0.000199402
0.00042098
0.000441442
0.000118724
0.000178169
0.000163677
9.68237e-05
5.09728e-05
4.04185e-05
4.73711e-05
0.000105563
0.000417019
0.000510624
4.87651e-05
3.624e-05
2.92608e-05
1.87355e-05
1.65569e-05
2.09782e-05
5.2573e-05
0.000190087
0.000290615
0.000495868
4.50974e-05
2.04603e-05
1.42065e-05
1.25382e-05
1.42605e-05
4.96935e-05
0.000165091
0.000174459
0.000166409
0.000501064
0.000231759
1.7084e-05
1.23434e-05
1.25382e-05
2.26085e-05
0.000138715
0.000118277
4.70948e-05
0.000166199
0.000503541
0.000507144
9.90389e-05
1.31559e-05
2.37269e-05
0.000155744
3.03309e-05
2.42973e-06
2.01823e-06
0.00030536
0.000507142
0.000507347
0.000100024
1.66119e-05
7.91076e-05
7.30858e-05
2.46384e-06
2.01823e-06
1.83986e-06
0.000506471
0.000506736
0.000506944
0.00010211
1.30428e-05
1.13287e-05
1.10209e-05
1.10786e-05
9.78075e-06
1.8851e-06
0.000506959
0.000506471
0.000216483
7.58257e-05
3.64719e-05
7.65417e-06
2.79799e-05
8.34846e-05
2.56354e-05
1.90368e-06
0.000506959
0.000506959
0.00014028
8.0762e-05
7.54867e-05
6.05331e-06
7.16247e-05
0.000113846
9.7416e-05
1.98962e-06
0.000506959
0.000419193
0.000132875
0.000107552
2.82134e-05
4.22961e-06
5.43141e-05
0.000113842
9.808e-05
1.70478e-05
1
1
1
1
1
1
1
1
1
1
1
1
1
1
1
1
1
1
1
1
1
1
1
1
1
1
1
1
1
1
1
1
1
1
1
1
1
1
1
1
1
0.999999
1
1
1
1
1
1
1
1
1
1
1
1
1
1
1
1
1
1
1
1
1
1
1
1
1
1
1
1
0.66398
0.679896
0.705327
0.725564
0.740414
0.763012
0.8049
0.855218
0.897625
0.920234
0.0489575
0.0648624
0.0870065
0.108114
0.129213
0.156523
0.196252
0.237024
0.259611
0.259598
0.000571566
0.000664617
0.000944331
0.001089
0.000850356
0.000486313
0.000252228
0.000151761
3.66489e-06
5.16315e-06
0.000238448
0.000156276
0.000160302
0.000190877
0.000144203
5.60684e-05
2.50515e-05
1.62594e-05
2.44002e-05
1.33912e-05
0.000234079
0.000103382
5.04327e-05
4.0847e-05
2.66144e-05
1.68058e-05
1.60374e-05
2.07232e-05
5.09732e-05
9.02318e-05
0.000137183
9.79262e-05
3.45204e-05
1.68309e-05
1.10741e-05
1.30184e-05
1.47954e-05
3.50278e-05
5.48817e-05
1.39151e-05
0.000170262
0.000338557
4.79301e-05
1.24157e-05
9.13124e-06
1.10608e-05
7.6231e-05
0.000165527
2.0211e-05
1.97725e-05
0.000345592
0.000500332
0.000316698
2.98013e-05
9.09401e-06
5.15269e-05
0.000174988
0.000149686
3.1209e-05
3.56378e-05
0.000247279
0.000504518
0.000367627
2.94086e-05
2.90415e-05
0.000174223
0.000174834
9.80029e-05
5.1897e-05
2.20002e-05
0.000145226
0.000340047
0.000149282
2.79088e-05
4.45373e-05
0.000149198
0.000112474
0.000121245
4.16513e-05
1.90371e-06
0.000147063
0.000128196
6.83003e-05
2.88205e-05
1.97446e-05
8.58196e-06
6.84036e-05
0.000119288
4.06909e-05
1.97301e-06
0.000498009
0.000182524
3.01643e-05
7.23052e-05
3.14618e-05
1.01413e-05
0.000109033
0.000115052
2.77706e-05
2.15041e-06
0.000505533
0.000200783
6.06275e-05
8.71785e-05
1.31401e-05
2.82326e-06
4.83012e-05
0.000107978
5.00094e-05
9.52253e-06
1
1
0.999996
0.999987
0.999996
1
1
1
1
1
1
0.999985
0.999925
0.999957
0.999987
1
1
1
1
1
1
0.999964
0.999896
0.999985
1
1
1
1
1
1
1
0.999954
1
1
1
1
1
1
1
1
1
0.999993
0.999995
1
1
1
1
1
1
1
1
1
1
1
1
1
1
1
1
1
1
1
1
1
1
1
1
1
1
0.999998
0.68325
0.697845
0.724425
0.744897
0.768247
0.81084
0.863377
0.907025
0.937602
0.952263
0.0601189
0.0812409
0.099692
0.112563
0.125711
0.146826
0.179449
0.21839
0.245933
0.25055
0.000507163
0.000743063
0.000794287
0.00064367
0.000370624
0.00011488
4.3265e-06
3.04406e-06
3.93587e-06
4.73333e-06
0.000136718
0.000111863
0.000135766
0.000113675
7.65381e-05
4.02221e-05
1.68057e-05
5.75639e-06
1.46375e-05
7.95441e-06
0.000111313
2.84173e-05
3.53512e-05
2.43401e-05
3.06042e-05
5.54658e-05
2.0771e-05
4.82687e-05
7.35859e-05
5.23533e-05
8.79518e-05
1.67909e-05
1.87238e-05
8.26037e-06
9.13124e-06
1.75329e-05
9.15903e-05
0.000174426
0.000173999
0.000173339
0.000112852
9.47487e-06
2.04061e-05
5.6298e-06
7.20022e-06
4.7776e-05
0.00017492
0.000174781
0.000174426
0.000173999
0.000252059
0.000205371
9.99303e-05
2.84167e-05
6.41436e-06
0.000123675
0.00017492
0.000175002
0.000174781
0.000173826
0.000287655
0.00031235
9.43199e-05
2.98425e-05
2.06252e-05
0.000174834
0.000175002
0.000174834
0.000172465
0.00011355
0.000144781
0.000136172
2.87027e-05
2.34894e-05
0.000168398
0.000174223
0.000174834
0.00014253
9.08989e-06
1.97301e-06
8.58997e-06
8.89413e-05
1.83384e-05
2.02706e-05
0.000113999
0.000107202
0.000140852
2.08265e-05
1.44525e-06
2.02019e-06
4.95589e-05
0.000109656
6.42064e-06
1.43116e-05
9.77571e-06
9.32837e-06
3.39819e-05
1.7871e-05
1.4641e-06
8.48445e-06
0.000500252
8.53254e-05
8.97271e-06
3.61596e-05
1.11716e-05
2.51264e-06
1.58499e-05
1.91854e-05
1.45962e-06
1.5281e-05
1
0.999997
0.999954
0.999958
0.999993
1
1
1
1
1
1
0.99998
0.999813
0.999814
0.999941
1
1
1
1
1
1
0.999905
0.999813
0.999818
0.999952
1
1
1
1
1
1
0.999967
0.999816
0.999971
1
1
1
1
1
1
1
1
0.999959
0.999998
1
1
1
1
1
1
1
1
1
1
1
1
1
1
1
1
1
1
1
1
1
1
1
1
1
1
0.717725
0.723361
0.739463
0.769097
0.819883
0.879878
0.92398
0.953004
0.969307
0.97395
0.0881937
0.107194
0.11434
0.119037
0.132173
0.156906
0.198818
0.250919
0.286059
0.292659
0.000524564
0.000784174
0.000598044
0.000302745
7.89689e-05
4.84786e-06
3.84976e-06
3.24866e-06
3.27423e-06
3.93708e-06
7.66144e-05
0.000110047
9.39308e-05
4.21541e-05
4.64564e-05
2.34844e-05
1.70264e-05
2.76533e-06
2.20287e-06
8.72909e-06
4.48656e-05
1.6461e-05
1.88985e-05
1.04577e-05
0.000121687
0.000142806
0.000150676
7.31153e-05
5.6188e-05
0.000121684
3.79686e-05
5.16033e-06
7.89999e-06
5.11956e-06
1.57506e-05
8.27661e-05
0.000173542
0.000173834
0.000173629
0.000173364
6.04602e-05
3.32115e-06
4.49277e-06
4.24187e-06
4.8571e-06
8.54931e-05
0.000174156
0.000174426
0.000164804
0.000173339
0.000142048
2.14504e-06
3.47291e-06
1.44512e-05
3.07803e-06
8.57995e-05
0.000167523
0.000112927
0.000105439
0.000171555
0.000204223
1.59111e-05
5.11877e-05
1.68628e-05
2.72695e-06
9.6797e-05
0.000118754
6.41394e-05
8.77944e-05
0.000121663
7.82727e-05
1.7657e-05
3.37027e-05
6.07696e-05
9.47472e-05
0.000168882
9.26645e-05
1.63238e-05
1.44937e-06
1.77109e-06
7.58375e-06
1.54883e-05
4.06169e-06
6.60219e-05
0.000155521
0.000160123
8.18685e-05
1.46099e-06
1.43812e-06
1.69296e-05
5.67016e-05
3.33033e-05
3.47181e-06
2.33137e-05
5.98422e-05
4.24756e-05
3.51795e-05
1.87699e-06
1.43997e-06
3.91382e-05
0.000484258
2.07589e-05
3.02048e-06
3.014e-06
2.64586e-06
2.38207e-06
1.79596e-06
1.45962e-06
1.44815e-06
3.09983e-05
1
0.999999
0.999988
0.999989
0.999999
1
1
1
1
1
1
0.999994
0.999836
0.999833
0.999966
1
1
1
1
1
1
0.999988
0.999813
0.999813
0.999939
1
1
1
1
1
1
1
0.999913
0.999881
0.999977
1
1
1
1
1
1
1
0.999987
0.999991
0.999994
1
1
1
0.999997
0.999981
1
1
1
1
1
1
1
1
1
0.999994
1
1
1
1
1
1
1
1
0.999999
0.999995
0.759365
0.751334
0.772492
0.838062
0.904063
0.945335
0.968634
0.979689
0.985817
0.986378
0.127265
0.135005
0.127846
0.127815
0.154063
0.205948
0.281174
0.347651
0.382762
0.387553
0.000500649
0.000691631
0.000354542
8.47939e-05
5.6672e-06
3.96511e-06
3.22704e-06
2.60652e-06
2.1945e-06
2.89251e-06
3.90279e-05
9.18447e-05
4.96058e-05
1.46142e-05
3.48297e-05
4.92755e-05
9.48195e-06
1.69481e-06
1.62138e-06
4.80759e-06
7.53639e-06
1.24337e-05
1.00879e-05
1.72182e-05
7.80525e-05
0.000128744
0.000121862
3.61829e-05
7.69761e-06
4.11063e-05
3.52853e-06
3.321e-06
3.28374e-06
1.72816e-05
9.46218e-06
5.61367e-05
0.000124779
7.13808e-05
1.31693e-05
1.48755e-05
3.22462e-06
2.2259e-06
2.12869e-06
4.39693e-06
4.97326e-06
3.36471e-05
6.99663e-05
2.75242e-05
1.64041e-06
7.21308e-06
2.44863e-05
1.61119e-06
1.56718e-06
2.0529e-06
2.56436e-06
9.79888e-06
1.7624e-05
1.48618e-06
2.05272e-06
6.60745e-05
3.59459e-05
1.73197e-06
2.98803e-05
7.22759e-06
2.43276e-06
2.34039e-06
3.22465e-06
1.47889e-06
1.15337e-05
0.000133038
1.08492e-05
1.52373e-05
4.87429e-05
4.91778e-05
2.69889e-06
1.40753e-05
2.384e-06
1.45226e-06
1.72857e-06
2.77684e-05
7.52105e-06
1.06065e-05
4.88379e-05
6.4759e-05
6.42763e-05
5.44295e-05
2.99221e-06
1.43694e-06
1.43759e-06
4.81353e-06
5.58695e-05
4.29651e-06
1.29453e-05
5.63383e-05
6.41896e-05
5.13054e-05
3.5913e-06
1.43965e-06
1.43812e-06
1.00724e-05
0.000457346
1.97236e-06
2.26619e-06
1.07956e-05
2.34832e-05
9.0701e-06
2.09383e-06
1.44802e-06
1.43997e-06
1.04963e-05
1
1
1
1
1
1
1
1
1
1
1
0.999999
0.999989
0.999988
0.999998
1
1
1
1
1
1
1
0.999962
0.999949
0.999992
1
1
1
1
1
1
1
1
0.999976
0.999987
1
1
1
0.999996
0.999995
1
1
1
0.999995
0.999993
0.999999
1
1
0.999986
0.99997
1
1
1
1
1
1
1
1
0.999998
0.999977
1
1
1
1
1
1
1
0.999999
0.999995
0.99998
0.808498
0.800425
0.857927
0.928632
0.963424
0.979627
0.988245
0.993588
0.996118
0.996273
0.168465
0.166842
0.149062
0.161604
0.222189
0.312448
0.400373
0.463589
0.493973
0.495968
0.000382573
0.000533125
0.000103375
2.95033e-06
2.87804e-06
3.62022e-06
2.46002e-06
1.69497e-06
1.62174e-06
1.78061e-06
2.74353e-05
6.72739e-05
1.22723e-05
6.79506e-06
6.41939e-06
6.99074e-06
1.83889e-06
1.56543e-06
1.56713e-06
1.58949e-06
5.68807e-06
8.51996e-06
8.37248e-06
1.17907e-05
3.84557e-06
1.10804e-05
9.06314e-06
2.0347e-06
1.61115e-06
1.75992e-06
2.60906e-06
2.20348e-06
5.75005e-06
1.35145e-05
2.34189e-06
5.54032e-06
3.69248e-06
1.52972e-06
1.60456e-06
1.65598e-06
2.14853e-06
1.61119e-06
1.78006e-06
1.07671e-05
1.79092e-06
1.51678e-06
1.49508e-06
1.5039e-06
1.52061e-06
1.6404e-06
3.72493e-05
1.51668e-06
1.49517e-06
4.42354e-06
8.18483e-06
1.46476e-06
1.45238e-06
1.47362e-06
1.48779e-06
1.61402e-06
2.59832e-05
1.61119e-06
1.62221e-05
7.64321e-06
8.77879e-06
1.55456e-06
1.44276e-06
1.46045e-06
1.43532e-05
6.31443e-05
6.88317e-06
6.02603e-06
4.78209e-05
2.33221e-05
4.09711e-06
1.46935e-06
1.44031e-06
1.43705e-06
3.3431e-05
0.000152596
7.56326e-06
1.62978e-05
4.86763e-05
4.91116e-05
1.9368e-06
1.47836e-06
1.44336e-06
1.43503e-06
1.43694e-06
5.11092e-05
9.02102e-05
8.82236e-06
3.07751e-05
4.40648e-05
1.79843e-05
6.21331e-06
1.43965e-06
1.43694e-06
1.43735e-06
1.44591e-06
0.000455234
1.90567e-06
2.08463e-06
9.57306e-06
1.87522e-05
5.21803e-06
1.94119e-06
1.43965e-06
1.44591e-06
1.45666e-06
1
1
1
1
1
1
1
1
1
1
1
1
1
1
1
1
1
0.999999
1
1
1
1
1
1
1
1
1
0.999998
1
1
1
1
1
1
1
1
1
0.999999
0.999995
1
1
1
1
1
1
1
1
1
0.999987
0.999978
1
1
1
1
1
1
1
1
0.999994
0.999989
1
1
1
1
1
1
0.999998
0.999996
0.999987
0.999982
0.862895
0.87419
0.931985
0.966731
0.980262
0.989528
0.996149
0.998714
0.999458
0.999549
0.212232
0.203239
0.187475
0.226664
0.314068
0.414734
0.495352
0.551268
0.595041
0.604384
0.000246392
0.000283676
2.92378e-06
2.67929e-06
2.04362e-06
1.96623e-06
1.62054e-06
1.56504e-06
1.56698e-06
1.58955e-06
9.39068e-05
2.8011e-05
2.98613e-06
2.05903e-06
1.53256e-06
1.53143e-06
1.52233e-06
1.54692e-06
1.56552e-06
1.56713e-06
0.000103945
4.58092e-06
2.35993e-06
1.77344e-06
1.50862e-06
1.543e-06
1.56449e-06
1.56512e-06
1.56696e-06
1.58913e-06
4.96131e-05
1.72114e-06
2.0453e-06
1.69657e-06
1.46313e-06
1.47116e-06
1.49498e-06
1.68822e-06
2.21384e-06
4.7432e-06
9.81372e-06
1.51668e-06
1.49517e-06
4.1669e-06
1.45561e-06
1.45239e-06
1.45239e-06
1.50653e-06
6.59434e-06
2.63991e-05
0.000129913
1.49128e-06
1.48358e-06
2.28769e-06
2.81516e-06
1.44478e-06
1.44277e-06
2.56545e-06
1.0334e-05
2.85769e-05
0.000135206
9.58618e-06
2.98666e-06
1.46639e-06
2.87264e-06
1.44276e-06
1.44095e-06
6.06919e-06
1.65706e-05
0.000100964
1.87498e-05
4.18339e-05
4.38326e-05
2.17424e-05
2.00775e-06
1.44096e-06
1.43755e-06
3.40304e-06
2.18834e-05
0.00015271
7.52105e-06
1.09326e-05
4.56119e-05
3.07386e-05
1.49944e-06
1.43756e-06
1.43503e-06
1.43515e-06
1.43511e-06
4.90382e-05
0.000197512
2.31834e-06
1.40636e-05
1.06592e-05
1.49518e-06
1.44099e-06
1.43756e-06
1.43515e-06
1.44159e-06
1.45334e-06
0.000449166
1.89025e-06
1.92579e-06
1.90572e-06
1.74297e-06
1.45637e-06
1.44099e-06
1.44159e-06
1.46837e-05
1.91195e-06
1
1
1
1
1
1
1
0.999999
1
1
1
1
1
1
1
1
1
0.999995
0.999997
1
1
1
1
1
1
1
0.999999
0.999995
0.999998
1
1
1
1
1
1
1
1
0.999996
0.999982
1
1
1
1
1
1
1
1
0.999999
0.999987
0.999999
1
1
1
1
1
1
1
0.999999
0.999989
0.999998
1
1
1
1
1
0.999998
0.999996
0.999991
0.999979
0.999985
0.892961
0.912205
0.951259
0.970558
0.982759
0.993817
0.998983
0.999646
0.999588
0.999594
0.251729
0.237415
0.227041
0.273001
0.363623
0.464137
0.560946
0.65053
0.687174
0.694958
8.43502e-05
4.43392e-06
3.23031e-06
1.98337e-06
1.53257e-06
1.53144e-06
1.52233e-06
1.54658e-06
0.00630121
0.00867352
0.000153417
1.55749e-05
2.5858e-05
1.75065e-06
1.48451e-06
1.48789e-06
1.50431e-06
1.52234e-06
1.54695e-06
1.58799e-06
0.000181991
1.02793e-05
5.41098e-06
1.50856e-06
1.46314e-06
1.47115e-06
1.5059e-06
1.54692e-06
1.69171e-06
2.63133e-06
0.000181825
2.66036e-06
1.4997e-06
1.46303e-06
1.45563e-06
1.45239e-06
1.47112e-06
1.53937e-06
3.32434e-05
0.00011873
0.00016285
1.49127e-06
1.4696e-06
1.45515e-06
1.45074e-06
1.44483e-06
1.4524e-06
6.91094e-06
0.000111115
0.000193982
8.54079e-05
1.48447e-06
1.47972e-06
1.45939e-06
1.44483e-06
1.4438e-06
1.44478e-06
2.40071e-05
0.000155079
0.000192975
0.000136546
3.98738e-05
1.46639e-06
1.45183e-06
1.44381e-06
1.44376e-06
9.79009e-06
1.37478e-05
7.48077e-05
0.00019139
4.79046e-05
5.58005e-05
1.4325e-05
1.45653e-06
1.44443e-06
1.44282e-06
2.24784e-06
1.44514e-06
1.50459e-06
0.000133217
7.58666e-06
7.89569e-06
6.77364e-05
5.80229e-05
1.74685e-05
1.44257e-06
1.43756e-06
1.43507e-06
1.4442e-06
4.4733e-06
0.000366809
5.89741e-05
1.87028e-05
2.73618e-05
1.98847e-05
2.14368e-06
1.44099e-06
1.64303e-06
4.35554e-06
1.56868e-06
0.000206839
2.00306e-06
1.99542e-06
2.2354e-06
2.69344e-06
1.55007e-06
1.47068e-06
3.71377e-06
7.03785e-05
9.58064e-06
1
1
1
1
1
1
1
1
0.999997
0.999987
1
1
1
1
1
1
1
0.999996
0.999992
0.99999
1
1
1
1
1
1
1
0.999997
0.99999
0.999902
1
1
1
1
1
1
1
1
0.999972
0.999753
1
1
1
1
1
1
1
1
0.999959
0.99965
1
1
1
1
1
1
1
1
0.999977
0.999659
1
0.999999
1
1
0.999998
0.999995
0.999991
0.999987
0.999964
0.999672
0.897509
0.912333
0.943056
0.96202
0.980273
0.994172
0.999282
0.999537
0.99951
0.999246
0.270682
0.252931
0.237009
0.276618
0.363508
0.472411
0.592968
0.68595
0.721161
0.729466
5.46903e-05
3.16731e-06
2.36225e-06
1.90982e-06
1.49535e-06
1.49137e-06
1.50431e-06
0.0100379
0.0247678
0.0264523
9.61348e-05
1.35154e-05
1.51105e-05
1.69099e-06
1.49138e-06
1.48335e-06
1.49137e-06
1.5043e-06
1.64225e-06
2.06677e-06
0.000181825
0.000125246
9.99189e-06
1.66003e-06
1.85177e-06
1.47334e-06
1.48335e-06
1.52097e-06
5.7817e-06
6.26836e-05
0.000182016
0.000109027
4.8002e-06
1.53784e-06
1.62312e-06
1.46279e-06
1.47332e-06
1.88118e-06
9.25412e-05
0.000194759
0.000181825
5.73038e-05
2.80757e-06
1.46841e-06
1.44834e-06
1.4495e-06
1.46279e-06
3.23526e-05
0.00020074
0.000198691
2.62273e-06
1.49128e-06
3.00764e-06
1.50521e-06
1.44447e-06
1.44381e-06
2.35421e-06
6.24161e-05
0.000196853
0.000193982
0.000136024
7.21421e-06
1.45249e-06
1.44446e-06
1.44381e-06
1.4438e-06
8.65491e-06
2.98636e-05
0.000172317
9.76855e-05
4.13689e-05
4.10127e-05
1.45661e-06
1.44514e-06
1.44447e-06
1.44772e-06
1.60599e-06
1.56658e-06
1.84952e-05
2.71549e-06
2.12412e-05
0.00015033
0.00011896
4.00638e-05
1.11067e-05
1.45384e-06
1.47621e-06
2.25375e-05
1.81549e-06
2.48898e-06
0.00037354
0.000372115
5.39335e-05
5.74318e-05
2.18717e-05
1.79754e-06
7.57366e-06
3.06429e-05
5.10315e-06
2.70946e-06
0.000119031
0.000181061
2.43234e-06
9.80067e-06
9.24761e-06
8.76968e-06
2.57484e-05
2.59806e-05
2.8302e-06
2.83879e-06
1
1
1
1
1
1
1
1
0.999957
0.995677
1
1
1
1
1
1
1
1
0.999966
0.995766
1
1
1
1
1
1
1
1
0.999931
0.995768
1
1
1
1
1
1
1
1
0.999871
0.99577
1
1
1
1
1
1
1
1
0.999777
0.995774
1
1
1
1
1
1
1
0.999998
0.999898
0.996917
0.999998
0.999998
0.999999
0.999998
0.999994
0.99999
0.999985
0.99998
0.999892
0.999169
0.87986
0.879333
0.917065
0.945072
0.97236
0.990546
0.998478
0.99939
0.999345
0.998692
0.267708
0.244779
0.215766
0.244158
0.33058
0.441267
0.566398
0.674893
0.720614
0.732907
4.94834e-05
4.41907e-06
1.98578e-06
1.62924e-06
1.51585e-06
1.49499e-06
1.51888e-06
0.00802753
0.0260162
0.0283811
3.31493e-05
1.37337e-05
1.78529e-06
1.51584e-06
1.49499e-06
1.49138e-06
1.49499e-06
1.51889e-06
1.8575e-06
3.34106e-06
0.000129404
0.000125647
2.49277e-05
1.62884e-06
3.62936e-06
1.48334e-06
1.51528e-06
1.59451e-06
5.36198e-06
4.95342e-05
9.61608e-05
9.87432e-05
3.48661e-05
1.73983e-06
3.26516e-06
1.47333e-06
1.50907e-06
2.79124e-05
0.000131226
0.000198836
0.000111273
0.000167207
5.04975e-05
1.55354e-06
1.46844e-06
1.50208e-06
7.67107e-06
0.000126953
0.00020639
0.000203337
0.000266694
0.000255563
5.06504e-05
1.48185e-06
1.44834e-06
1.44895e-06
2.13081e-05
0.000165305
0.000203337
9.13081e-05
5.5836e-05
7.91411e-05
3.82436e-05
1.45253e-06
1.44447e-06
1.44381e-06
5.08448e-06
3.75058e-05
6.26801e-05
2.94348e-06
1.04329e-05
6.58943e-06
5.6024e-06
1.44705e-06
1.44517e-06
1.44634e-06
1.44785e-06
1.50691e-06
1.9993e-06
2.70099e-06
1.82687e-05
0.000318874
3.30351e-05
2.05203e-06
5.83319e-06
3.57873e-06
5.1538e-06
1.33457e-05
2.74062e-06
2.71549e-06
0.000378216
0.000378963
0.000198083
3.92602e-05
2.89984e-06
2.46361e-06
2.4241e-05
2.20223e-05
2.96606e-06
2.76964e-06
0.000256233
0.000378216
1.54588e-05
2.00713e-05
4.34631e-06
2.75964e-06
6.74485e-06
2.83665e-06
2.82295e-06
2.8302e-06
1
1
1
1
1
1
1
1
0.999926
0.995636
1
1
1
1
1
1
1
1
0.999969
0.996167
1
1
1
1
1
1
1
0.999999
0.999991
0.997823
1
1
1
1
1
1
1
0.999999
0.999997
0.998189
1
1
1
1
0.999996
0.999998
1
0.999999
0.999995
0.998149
1
1
1
1
0.999996
0.999997
0.999999
0.999999
0.999991
0.999188
0.999996
0.999996
0.999997
0.999994
0.999986
0.999981
0.999976
0.999971
0.999966
0.999264
0.849629
0.844325
0.882725
0.918949
0.954571
0.978954
0.993598
0.998795
0.999278
0.998682
0.244161
0.216594
0.184644
0.206326
0.278116
0.371042
0.481867
0.60082
0.670141
0.688162
4.96699e-05
2.23299e-06
2.01766e-06
1.70041e-06
1.6097e-06
1.51454e-06
1.95121e-06
4.43476e-06
0.00564942
0.0103675
8.21884e-06
2.81442e-06
1.82635e-06
1.60971e-06
1.51455e-06
1.49499e-06
1.51455e-06
1.85315e-06
3.34106e-06
6.60556e-06
5.85492e-06
1.60055e-05
1.1092e-05
1.01196e-05
7.39906e-06
1.51615e-06
4.32531e-06
3.26054e-05
3.30151e-05
2.80612e-05
1.26169e-05
1.36846e-05
1.744e-05
9.01474e-06
3.26614e-06
1.50907e-06
6.03213e-05
0.000198714
0.000208635
0.00020868
3.32575e-05
8.83222e-06
1.35272e-05
3.47969e-06
1.47611e-06
2.88448e-06
0.000128468
0.000213329
0.000213008
0.000177499
0.000286633
0.000217877
1.86354e-05
1.47596e-06
1.45231e-06
3.17674e-06
5.92254e-05
0.000166975
9.54014e-05
3.01186e-06
0.000193606
0.000212201
4.18388e-05
1.4523e-06
1.4473e-06
1.46286e-06
9.30437e-06
2.30712e-06
2.49222e-06
2.73617e-06
1.2021e-05
6.70663e-05
2.92105e-05
1.44918e-06
1.44705e-06
1.44785e-06
1.47421e-06
1.84667e-06
2.25968e-06
2.49222e-06
1.48554e-05
0.000125632
3.39583e-06
1.51802e-06
1.44918e-06
1.47421e-06
2.11642e-05
1.07762e-05
2.49222e-06
2.63441e-06
0.000377667
0.000378704
0.000152286
6.20066e-06
1.51006e-06
8.07095e-06
5.15564e-05
1.15805e-05
2.74254e-06
2.85678e-06
0.000283498
0.00037903
0.000112356
1.79467e-05
1.82687e-06
3.51832e-05
6.62046e-06
2.82263e-06
2.82287e-06
2.82294e-06
1
1
1
1
1
1
1
1
0.999999
0.999999
1
1
1
1
1
1
1
0.999998
0.999991
1
1
1
1
1
1
1
1
0.999989
0.999989
0.999999
1
1
1
1
0.999999
1
1
0.999992
0.99999
0.999998
1
1
1
0.999999
0.999996
0.999997
1
0.999999
0.999998
0.999998
1
1
1
1
0.999997
0.999997
0.999999
0.999998
0.999997
0.999995
0.999997
0.999998
0.999999
0.999997
0.999988
0.99998
0.999971
0.999962
0.999964
0.999967
0.82495
0.808579
0.8509
0.900126
0.940245
0.96651
0.984542
0.994594
0.997837
0.998595
0.21218
0.190238
0.16748
0.192418
0.250005
0.319408
0.405966
0.499379
0.563428
0.587051
5.40925e-05
2.1748e-06
2.14796e-06
1.96116e-06
1.91512e-06
1.98505e-06
4.21054e-06
1.24268e-05
1.31205e-05
9.24818e-06
3.86165e-06
3.38532e-06
2.58496e-05
4.1981e-06
1.69692e-06
1.51455e-06
1.95122e-06
4.43476e-06
6.60556e-06
7.0234e-06
1.84796e-06
1.98972e-06
9.83781e-06
1.29656e-05
1.32252e-05
1.33763e-05
0.000102352
0.000152994
0.000113869
3.04347e-05
1.78131e-06
1.78787e-06
1.9925e-06
1.26984e-05
1.03671e-05
2.51912e-05
0.000217697
0.000217838
0.000217886
0.000217199
1.78515e-06
1.78124e-06
1.78787e-06
1.25131e-05
2.26608e-06
2.98534e-05
0.00020669
0.000217697
0.000216935
0.000201348
4.94758e-05
1.78787e-06
1.93665e-06
2.28559e-06
1.47611e-06
1.3393e-05
7.14468e-05
0.000117974
4.24057e-05
2.48164e-05
0.000242489
9.96762e-05
2.52117e-06
1.48479e-06
1.98501e-06
1.40479e-05
3.94421e-05
2.57239e-06
2.50209e-06
3.05193e-06
0.000136663
0.000159974
2.99601e-05
1.48204e-06
1.45482e-06
4.1737e-06
1.73405e-06
2.21005e-06
2.44259e-06
3.91368e-05
0.000145759
3.35631e-05
1.34049e-05
1.5112e-06
1.48034e-06
1.5064e-06
2.17312e-05
1.12784e-05
2.89693e-06
3.8996e-05
0.000319941
0.000315761
1.93091e-06
1.54092e-06
1.5112e-06
1.28324e-05
5.37877e-05
1.98768e-05
2.85681e-06
2.68185e-05
0.000107186
0.000377683
0.000348009
4.46369e-05
1.4349e-05
8.29939e-05
5.51523e-05
3.2905e-06
2.82295e-06
2.41268e-05
1
1
1
1
1
1
1
1
1
1
1
1
1
1
1
1
1
0.999995
0.999992
0.999999
1
1
1
1
1
1
1
0.99999
0.999989
0.999998
1
1
1
1
1
1
1
0.999997
0.999996
0.999998
1
1
1
1
0.999999
1
1
0.999999
0.999999
0.999999
1
1
1
1
1
1
1
0.999999
0.999998
0.999998
1
0.999998
1
1
0.999997
0.999989
0.999977
0.999963
0.999957
0.999966
0.804895
0.787701
0.84508
0.904918
0.941178
0.959029
0.972525
0.983137
0.988978
0.991974
0.1739
0.162325
0.152031
0.183197
0.241586
0.2933
0.339604
0.396751
0.439605
0.46185
5.49117e-05
2.19275e-06
2.17698e-06
2.16484e-06
2.17699e-06
2.21991e-06
2.66499e-06
4.58876e-06
8.89999e-06
7.02341e-06
1.5591e-05
1.18222e-05
1.25473e-05
2.17699e-06
1.9572e-06
1.87174e-06
5.1328e-06
8.18418e-06
6.27141e-06
6.21321e-06
3.39897e-05
1.56018e-05
3.52471e-06
5.07555e-06
7.12372e-06
5.91514e-05
0.000168682
0.000181081
9.6785e-05
1.98525e-05
9.89691e-06
1.04349e-05
2.20601e-06
4.26256e-06
2.82594e-05
0.000192825
0.000217838
0.00021789
0.000217664
0.00020029
1.78126e-06
1.8594e-06
1.92409e-06
4.84354e-06
3.06791e-05
0.000132437
0.000148898
0.000217664
0.00021789
0.000216166
1.83086e-06
1.81716e-06
1.86016e-06
6.52655e-06
2.16483e-05
1.39287e-05
5.62366e-05
0.000122945
0.000203474
3.20761e-05
0.000117946
1.86016e-06
1.96542e-06
3.01263e-06
1.17525e-05
9.99285e-05
0.000141488
2.29237e-05
3.89203e-05
1.41729e-05
0.000270153
0.000111628
3.98339e-06
1.51453e-06
1.11053e-05
3.89081e-05
2.21004e-06
2.62226e-06
6.46103e-05
0.000146003
0.000273207
0.000263667
3.61056e-05
1.63242e-06
3.11635e-06
1.62082e-06
4.78664e-06
3.51092e-06
3.06595e-06
0.00016008
0.000216384
0.000124071
1.93325e-06
1.68678e-06
1.54092e-06
4.09199e-06
4.41431e-05
1.46687e-05
3.19484e-06
0.000185765
6.41819e-05
0.000368497
0.000177782
1.93325e-06
1.68678e-06
8.66573e-05
8.74401e-05
2.53585e-05
2.87656e-06
0.000180586
1
1
1
1
1
1
1
1
1
1
1
1
1
1
1
1
1
1
1
1
1
1
1
1
1
1
1
1
0.999999
0.999999
1
1
1
1
1
1
1
1
0.999998
0.999999
1
1
1
1
1
1
1
1
0.999999
1
1
1
1
1
1
1
1
0.999999
0.999999
0.999999
1
1
1
1
1
0.999996
0.999988
0.999976
0.999965
0.999968
0.779234
0.778488
0.837164
0.904242
0.942712
0.958666
0.964646
0.969098
0.97335
0.976426
0.133938
0.130299
0.127563
0.15878
0.218364
0.274548
0.306908
0.324779
0.345
0.357939
9.65397e-05
2.52497e-05
2.16137e-06
2.17697e-06
2.21991e-06
2.27974e-06
2.46152e-06
3.01708e-06
4.57046e-06
5.84461e-06
3.32321e-05
6.01364e-06
2.73603e-06
2.26971e-06
2.21226e-06
2.33308e-06
2.9483e-06
4.42466e-06
5.70883e-06
6.11199e-06
4.62762e-05
1.61524e-05
2.59263e-06
2.61705e-06
2.33308e-06
4.56114e-05
7.93529e-05
7.28503e-05
2.29323e-05
6.21321e-06
4.75293e-05
2.68674e-05
2.39478e-06
2.57557e-06
9.70275e-05
0.000214203
0.000216055
0.000217668
0.000217769
8.30869e-05
2.37706e-05
2.74331e-05
3.94709e-06
4.82624e-05
0.00021228
0.000214161
0.00016126
0.000215451
0.000216166
0.00019568
1.86016e-06
1.07478e-05
2.05593e-05
6.40849e-05
8.68207e-05
2.61909e-05
9.02451e-05
0.000211002
3.62004e-05
5.32191e-06
2.67819e-06
2.0734e-06
1.26392e-05
1.91125e-05
1.15643e-05
0.000129559
0.000148644
0.000105145
9.01147e-05
7.5125e-06
0.00021197
4.36842e-06
3.43811e-06
1.71098e-06
6.0036e-05
0.000157496
0.000120105
5.73464e-05
0.000112307
6.62757e-06
0.000272628
0.000272628
1.89937e-05
2.01855e-06
4.46273e-05
3.81759e-05
4.08222e-06
3.91992e-06
0.000109366
1.3279e-05
0.000272947
0.000268158
4.5503e-05
1.93325e-06
2.3727e-06
4.0806e-06
4.86482e-06
4.16362e-06
7.31932e-05
0.000216536
5.76199e-05
0.000124172
1.24084e-05
2.68527e-06
2.61092e-06
5.43545e-05
8.61076e-05
8.9749e-06
1.65085e-05
0.000221489
1
1
1
1
1
1
1
1
1
1
1
1
0.999999
0.999998
1
1
1
1
1
1
1
1
0.999993
0.999988
1
1
1
1
1
1
1
1
1
1
1
1
1
0.999997
0.999993
0.999998
1
1
1
1
1
1
1
0.999998
0.999946
0.999935
1
1
1
1
1
1
1
0.999998
0.999984
0.999968
1
1
1
1
1
0.999999
0.999997
0.999989
0.999969
0.999946
0.746601
0.757172
0.808534
0.880254
0.93313
0.954839
0.960887
0.962193
0.963498
0.963657
0.101692
0.102402
0.106129
0.126967
0.174782
0.231467
0.272253
0.291996
0.300345
0.301259
0.000127929
7.39148e-05
2.16906e-06
2.24563e-06
2.27974e-06
2.41558e-06
2.60701e-06
3.01361e-06
3.67063e-06
4.75214e-06
4.44727e-05
1.32699e-05
5.67093e-06
1.95597e-05
2.77385e-06
2.82158e-06
3.01357e-06
4.45144e-06
5.38338e-06
6.23269e-06
4.13806e-05
6.82101e-06
3.25806e-06
5.69805e-06
2.83535e-06
2.87304e-05
7.30229e-06
7.18249e-06
1.35126e-05
4.69363e-05
4.7664e-05
3.7229e-06
2.57558e-06
3.49783e-06
0.000112124
0.000214123
0.000162805
0.000133857
0.000151973
4.61391e-05
2.07495e-05
2.22739e-05
9.43361e-06
8.79762e-05
0.000194627
0.000194834
0.000214639
0.000214642
0.00012881
9.72716e-05
4.36385e-06
5.76829e-05
7.04154e-05
7.26045e-05
4.6812e-05
4.61669e-05
0.000214639
0.000171141
8.62901e-06
2.23323e-05
4.08758e-06
1.54882e-05
3.09005e-05
5.90817e-06
3.90429e-06
1.00042e-05
0.000142912
0.000152448
6.78969e-06
6.29016e-06
8.25764e-06
4.25015e-06
3.62524e-06
2.59257e-06
5.58423e-05
0.000157428
0.000161977
0.000164513
7.31126e-05
6.78969e-06
0.000140969
0.000160279
2.97784e-06
2.44577e-06
6.85825e-05
0.000156025
9.82732e-05
0.000178238
0.000141856
7.88617e-06
9.66894e-05
0.000259734
0.000111217
4.92792e-06
2.16398e-05
7.66985e-05
1.35593e-05
6.03392e-05
0.00021851
0.000163755
3.57659e-05
0.000141818
0.000107312
1.48835e-05
3.36294e-06
7.2579e-06
1.54227e-05
5.58661e-06
0.00015723
0.000221659
1
1
0.999998
0.999997
1
1
1
1
1
1
1
0.999999
0.999964
0.999957
0.999987
1
1
1
1
1
1
0.999998
0.99995
0.99995
0.999974
1
1
1
1
1
1
0.999999
0.999987
0.999985
0.999995
1
1
0.999997
0.999997
0.999998
1
1
1
1
1
1
1
0.999997
0.999834
0.99976
1
1
1
1
1
1
1
1
0.999936
0.999768
1
1
1
1
1
1
1
0.999997
0.999961
0.999872
0.705551
0.720507
0.762053
0.823585
0.889638
0.93438
0.950115
0.952098
0.952113
0.951615
0.0815047
0.0891196
0.104882
0.118548
0.137772
0.175331
0.214869
0.240243
0.24952
0.249626
0.000181694
0.000201219
0.000194681
2.2637e-06
2.41557e-06
2.56801e-06
2.97467e-06
3.67063e-06
4.61134e-06
4.50806e-06
2.1746e-05
2.90117e-05
3.17092e-05
1.54096e-05
3.57423e-05
3.03157e-05
5.35936e-05
5.38308e-06
5.43116e-06
5.14095e-06
1.35999e-05
8.05756e-06
7.33215e-06
1.91805e-05
2.76146e-05
5.44785e-05
4.70494e-05
6.12255e-06
9.56273e-06
6.2136e-05
1.28514e-05
4.60954e-06
3.49783e-06
1.28702e-05
2.47648e-05
4.35326e-05
4.90517e-05
7.61844e-06
0.00010693
0.000146298
5.15333e-06
6.96551e-06
7.0948e-06
4.6013e-06
5.11583e-06
5.88776e-06
0.00021455
0.00018338
5.20691e-05
6.26457e-05
4.82364e-06
2.79864e-05
1.10871e-05
3.57549e-06
3.90429e-06
1.38619e-05
0.000188088
2.53869e-05
1.17833e-05
1.36561e-05
4.62296e-06
1.10134e-05
1.05552e-05
3.26776e-06
3.57549e-06
1.20111e-05
4.15664e-05
1.01435e-05
1.33089e-05
1.93502e-05
4.25015e-06
3.62524e-06
3.26776e-06
3.2579e-06
3.26776e-06
1.13389e-05
0.000164525
0.000202758
4.66499e-05
1.24472e-05
4.46073e-06
5.77459e-06
3.2579e-06
2.94145e-06
3.24844e-06
0.000112137
0.000210122
0.000214573
5.3233e-05
8.66069e-06
1.03735e-05
5.64443e-05
3.2943e-06
3.20236e-06
3.17157e-06
9.19453e-05
0.000212879
0.000218499
0.000220966
5.94598e-05
2.2571e-05
6.71349e-05
0.000170891
2.35921e-05
4.55765e-06
5.70503e-06
9.21256e-05
0.000188493
0.000223363
0.000224225
1
1
0.999992
0.999984
0.999997
1
1
1
1
1
1
1
0.999953
0.99995
0.999961
0.999999
1
1
1
1
1
0.999999
0.999955
0.99995
0.99995
0.999995
1
1
1
0.999997
1
0.999998
0.999989
0.999975
0.999994
1
1
0.999999
0.999994
1
1
1
1
1
1
1
1
1
0.999949
0.999845
1
1
1
1
1
1
1
1
0.999968
0.999768
1
1
1
1
1
1
1
1
0.999995
0.999989
0.687193
0.701465
0.743148
0.786104
0.8291
0.879928
0.915337
0.932065
0.938156
0.942808
0.0691542
0.0860185
0.1116
0.129776
0.14348
0.154259
0.166543
0.184132
0.195708
0.198311
0.000443429
0.000517706
0.00046656
0.00029652
2.42361e-06
2.87616e-06
4.62495e-06
4.61125e-06
5.00905e-06
4.61336e-06
5.26727e-05
6.88795e-05
6.91002e-05
0.000101341
3.41749e-05
5.88379e-05
0.000300407
1.66383e-05
5.37928e-06
5.00911e-06
1.8071e-05
1.38612e-05
1.73178e-05
8.80586e-05
4.23952e-05
3.7484e-05
0.000260127
1.54655e-05
5.58498e-06
5.41533e-06
1.40042e-05
6.8893e-06
8.81138e-06
8.39293e-05
1.46045e-05
5.86061e-06
0.000151929
0.000142509
3.60846e-05
2.44083e-05
6.04717e-05
1.9447e-05
1.55917e-05
4.13373e-05