/*--------------------------------*- C++ -*----------------------------------*\
| =========                 |                                                 |
| \\      /  F ield         | OpenFOAM: The Open Source CFD Toolbox           |
|  \\    /   O peration     | Version:  2312                                  |
|   \\  /    A nd           | Website:  www.openfoam.com                      |
|    \\/     M anipulation  |                                                 |
\*---------------------------------------------------------------------------*/
FoamFile
{
    version     2.0;
    format      ascii;
    arch        "LSB;label=32;scalar=64";
    class       volVectorField;
    location    "1.46";
    object      U;
}
// * * * * * * * * * * * * * * * * * * * * * * * * * * * * * * * * * * * * * //

dimensions      [0 1 -1 0 0 0 0];

internalField   nonuniform List<vector> 
8000
(
(-0.00177242 0.00374833 -0.00247157)
(-0.00396413 0.00570135 -0.00485446)
(-0.0054472 0.00774885 -0.00757746)
(-0.00671563 0.00762611 -0.00730047)
(-0.00753012 0.00562132 -0.00463479)
(-0.00883471 0.00381493 -0.00308245)
(-0.00998007 0.00295125 -0.00298989)
(-0.0100878 0.00235289 -0.00324033)
(-0.00878588 0.00167045 -0.00343607)
(-0.00531599 0.000714599 -0.00364245)
(-0.000212437 0.0107263 -0.00239697)
(0.00051482 0.0120317 -0.00321707)
(-0.00420061 0.0182016 -0.00653916)
(-0.00969102 0.0202998 -0.00601664)
(-0.0125741 0.0178537 -0.00457779)
(-0.0136865 0.013518 -0.00388266)
(-0.0140048 0.00992212 -0.00382833)
(-0.0134924 0.00709758 -0.00392099)
(-0.0118771 0.00410928 -0.0033259)
(-0.00658909 0.00182124 -0.00242034)
(2.15703e-05 0.0111695 0.00135064)
(0.00331356 0.00755822 0.00420062)
(0.000425136 0.0228036 -0.00134489)
(-0.0114041 0.0275747 -0.00275021)
(-0.0183696 0.0260463 -0.00275187)
(-0.0196959 0.0217346 -0.00362981)
(-0.019185 0.0168821 -0.00393528)
(-0.0190531 0.0128013 -0.00291301)
(-0.0160031 0.00552395 -0.000683793)
(-0.00719609 -0.00479935 -0.000615778)
(-0.00238308 0.0034936 0.00661196)
(-0.00175196 -0.00615299 0.00616198)
(-0.000724897 0.0221713 0.0036786)
(-0.0130615 0.0331301 0.000178431)
(-0.022384 0.0312715 -0.00115135)
(-0.0255949 0.0282652 -0.00279364)
(-0.0260218 0.0242789 -0.00304901)
(-0.0235309 0.0148753 -0.00153523)
(-0.0147958 -0.00371066 -0.000732823)
(-0.00864594 -0.0147609 -0.00286439)
(-0.00263785 0.00335964 0.00144583)
(-0.00777449 -0.00190997 -0.00514964)
(-0.00904488 0.0229478 0.00292857)
(-0.0178564 0.0374193 0.00245944)
(-0.0258763 0.0357824 4.58055e-05)
(-0.0294195 0.0332195 -0.0019474)
(-0.0279798 0.0263783 -0.00223717)
(-0.0207303 0.0102519 -0.00192846)
(-0.013912 -0.00685102 -0.00417497)
(-0.0110475 -0.0130198 -0.00735696)
(-0.00280942 0.0306962 -0.0090508)
(-0.0123766 0.0306263 -0.0144593)
(-0.0172408 0.041919 -0.00288442)
(-0.0229407 0.0500167 0.00212185)
(-0.0300876 0.0456193 0.000804271)
(-0.0333422 0.0372337 -0.000923531)
(-0.0310102 0.0235868 -0.00198039)
(-0.02522 0.00690058 -0.00407449)
(-0.021384 -0.00427483 -0.00906417)
(-0.0141333 -0.00877829 -0.0138802)
(-0.00510147 0.052964 -0.0151456)
(-0.0181645 0.0551315 -0.0174321)
(-0.0278993 0.0576123 -0.00804265)
(-0.036859 0.0592527 -0.0018167)
(-0.0473133 0.0554638 -0.00194494)
(-0.0531147 0.0475533 -0.00395048)
(-0.0527487 0.0358567 -0.00729415)
(-0.0476235 0.0237806 -0.0122097)
(-0.0364175 0.0151116 -0.0179765)
(-0.0198876 0.0109224 -0.0210386)
(-0.000701378 0.0851686 -0.021589)
(-0.00448103 0.0885582 -0.0197433)
(-0.0172029 0.0872788 -0.00756534)
(-0.0447169 0.0846163 -0.000642096)
(-0.0710991 0.0776354 -0.00349961)
(-0.0836736 0.0636392 -0.00804277)
(-0.0817339 0.0460106 -0.012277)
(-0.0688668 0.0306842 -0.0164949)
(-0.0525806 0.021119 -0.0202059)
(-0.0333707 0.0166509 -0.0224597)
(-0.0206378 0.133112 -0.0250932)
(-0.0624646 0.143202 -0.0352914)
(-0.119007 0.152778 -0.0487682)
(-0.17228 0.151493 -0.0560555)
(-0.202015 0.133679 -0.0616571)
(-0.201207 0.103711 -0.060666)
(-0.176506 0.0737832 -0.0528026)
(-0.141528 0.0526466 -0.0430916)
(-0.106 0.0418679 -0.0367429)
(-0.0675373 0.0374318 -0.0324625)
(-0.0289434 0.232176 0.00437001)
(-0.0438987 0.251947 0.0141866)
(-0.10195 0.331095 0.00279625)
(-0.185246 0.342127 -0.0149937)
(-0.198718 0.290784 -0.04094)
(-0.161315 0.231622 -0.0628386)
(-0.11645 0.182282 -0.0653779)
(-0.0794536 0.142606 -0.0562859)
(-0.0574145 0.111451 -0.0398458)
(-0.0422342 0.0792691 -0.0179367)
(0.00324626 0.200184 0.0152944)
(0.0516099 0.148482 0.0430781)
(0.072776 0.286591 0.050448)
(0.0159822 0.353815 0.0409474)
(-0.0377518 0.32117 0.0347693)
(-0.0815725 0.257147 0.0291741)
(-0.103698 0.198068 0.0179359)
(-0.108169 0.15719 -0.0017403)
(-0.0933796 0.121271 -0.0103406)
(-0.0699495 0.0703327 -0.0057931)
(0.0166379 0.0639115 -0.00790995)
(0.0539371 -0.0649487 0.0122698)
(0.118561 0.139486 0.0472925)
(0.122692 0.271355 0.0560641)
(0.0922237 0.263647 0.05444)
(0.0345983 0.194667 0.0532197)
(-0.0408921 0.10582 0.0512371)
(-0.0893451 0.0543263 0.0329239)
(-0.0846686 -0.007669 0.0352049)
(-0.0824755 -0.0664113 0.040466)
(-0.00434922 0.0341126 -0.0368327)
(0.0177987 -0.129639 -0.0135931)
(0.036704 0.0520596 0.0338176)
(0.0798409 0.170527 0.0382106)
(0.0863266 0.188205 0.0350238)
(0.0615211 0.152144 0.0379008)
(0.00130893 0.069159 0.0441338)
(-0.0464622 -0.0152061 0.0471994)
(-0.095868 -0.0815204 0.0432021)
(-0.142826 -0.104545 0.020475)
(-0.00739211 0.0358299 -0.0410424)
(0.0201047 -0.15214 -0.00512803)
(0.010538 -0.0567951 0.0291099)
(0.060478 0.0983312 0.0309142)
(0.0449626 0.136247 0.021626)
(0.0220551 0.122215 0.0245193)
(-0.0335057 0.0297193 0.0399922)
(-0.0964715 -0.0452716 0.0408898)
(-0.149217 -0.0743813 0.00965958)
(-0.164103 -0.0892934 -0.0118264)
(0.0129958 0.0415374 0.00362531)
(0.0576247 -0.17306 0.0208792)
(0.0468748 -0.145812 0.0101154)
(0.0459905 0.0547642 0.0284224)
(-0.00967267 0.121891 0.0176037)
(-0.0396632 0.0916363 0.0268075)
(-0.0972241 0.000243046 0.0440249)
(-0.151332 -0.0336155 0.0168814)
(-0.15959 -0.0473383 -0.0167102)
(-0.146394 -0.0656163 -0.0205913)
(0.0356057 -0.0767139 0.0324223)
(0.0763242 -0.221903 0.00755936)
(0.0499844 -0.171709 -0.00729528)
(0.00265229 0.0653196 0.0220124)
(-0.0654899 0.119765 0.0163071)
(-0.0942904 0.0581903 0.0346321)
(-0.158745 -0.00639085 0.0356846)
(-0.195739 -0.0214122 -0.000869296)
(-0.178123 -0.0395594 -0.0203298)
(-0.160518 -0.0565202 -0.0214605)
(0.037446 -0.178389 -0.025266)
(0.0602753 -0.232935 -0.0365357)
(0.0186647 -0.144324 -0.0304438)
(-0.0241705 0.0737581 0.0168558)
(-0.06347 0.11329 0.0236478)
(-0.106679 0.0450115 0.0429094)
(-0.195843 -0.00265253 0.0335142)
(-0.2239 -0.0184882 -0.00114248)
(-0.203541 -0.0320038 -0.0200377)
(-0.184303 -0.0447031 -0.0273196)
(0.0393538 -0.185731 -0.0548054)
(0.0294613 -0.18131 -0.0496671)
(-0.0217371 -0.0834132 -0.0322244)
(-0.0295722 0.0552185 0.00196709)
(-0.0121337 0.0816111 0.0250054)
(-0.0702963 0.0517488 0.0483978)
(-0.195054 0.00847371 0.0403911)
(-0.239059 -0.00975029 0.00306206)
(-0.223178 -0.0173128 -0.0250231)
(-0.201256 -0.0268432 -0.0349482)
(0.0340203 -0.158449 -0.0600149)
(-0.00411028 -0.114483 -0.0412581)
(-0.0546176 -0.0447802 -0.0141727)
(-0.0491642 -0.00970804 0.00213246)
(-0.0125309 0.0232885 0.0178279)
(-0.0555171 0.0571602 0.0446412)
(-0.184924 0.026683 0.0414963)
(-0.239158 0.00988021 0.00432733)
(-0.231325 0.00568905 -0.0287686)
(-0.207269 -0.00156665 -0.0410646)
(0.0262021 -0.104892 -0.057877)
(-0.0188453 -0.0424737 -0.028219)
(-0.0869295 -0.0201837 -0.000205927)
(-0.0961996 -0.0515855 0.00249193)
(-0.0737464 -0.0158578 0.0122721)
(-0.0714787 0.0487733 0.0392326)
(-0.161804 0.0396813 0.0432812)
(-0.227464 0.03004 0.0143038)
(-0.235241 0.0296997 -0.022005)
(-0.207806 0.0246379 -0.041715)
(-0.00405988 0.00493331 -0.00651511)
(-0.00465427 0.00472498 -0.00988671)
(-0.00105197 0.00126502 -0.0171256)
(-0.000417325 0.00223397 -0.0212898)
(-0.00112499 0.00421389 -0.0180401)
(-0.00283943 0.00359866 -0.0117194)
(-0.00428707 0.00247124 -0.00828352)
(-0.00492455 0.00187305 -0.00723691)
(-0.00500294 0.00153535 -0.00688947)
(-0.00369611 0.000791948 -0.00698787)
(-0.00187023 0.0104548 -0.00416434)
(0.00950377 -0.00574437 0.00617707)
(0.0133383 -0.00325854 0.00412593)
(0.00606892 0.00675812 -0.00388738)
(-0.00244363 0.0123432 -0.0120896)
(-0.00597617 0.0124296 -0.0130903)
(-0.00747675 0.00897908 -0.0102599)
(-0.00766574 0.00553833 -0.00830585)
(-0.00746809 0.00275644 -0.00710269)
(-0.00514628 -1.61914e-05 -0.005158)
(0.00516422 0.00662161 0.00380029)
(0.00879339 -0.0210178 0.0117167)
(0.00975041 -0.0116134 0.0115496)
(-9.53235e-05 0.00770855 0.0083225)
(-0.0113802 0.017673 -0.00048213)
(-0.0131668 0.0192269 -0.00928442)
(-0.0118957 0.0149512 -0.0109065)
(-0.0111892 0.00971062 -0.00841109)
(-0.0119631 0.00643945 -0.0041278)
(-0.00694368 -0.00169851 0.000319344)
(0.0046022 0.00138815 0.00392141)
(0.000702499 -0.0209752 -0.000799824)
(-0.00449777 -0.00649072 0.00658841)
(-0.0137004 0.0135912 0.00902639)
(-0.0220319 0.0201882 0.00385365)
(-0.0218931 0.0217741 -0.00435429)
(-0.0188834 0.019747 -0.00817964)
(-0.0166112 0.0160436 -0.00611989)
(-0.0124384 0.00591283 -0.00125908)
(-0.00255811 -0.0122452 -0.000823983)
(0.0036484 0.0129795 -0.0155662)
(-0.00356572 0.00100582 -0.0231922)
(-0.0153188 0.00468586 -0.00774038)
(-0.0193286 0.0148266 0.00148102)
(-0.0237257 0.0183428 0.000410077)
(-0.0246533 0.0218653 -0.00308947)
(-0.0210936 0.0222182 -0.00567311)
(-0.013141 0.0154134 -0.00600338)
(-0.00264793 0.0018922 -0.00680863)
(0.00371831 -0.00977819 -0.0102726)
(0.00281467 0.037001 -0.0319281)
(-0.00827788 0.0313871 -0.0359185)
(-0.0213555 0.034195 -0.0251288)
(-0.0244846 0.0323168 -0.0149549)
(-0.027429 0.028222 -0.0122071)
(-0.0272905 0.0232892 -0.0121354)
(-0.0218548 0.016033 -0.0134665)
(-0.0115587 0.00649312 -0.0168459)
(-0.00326513 -0.00146022 -0.0221997)
(0.000928124 -0.00502733 -0.0262738)
(-0.00502414 0.0527756 -0.0369124)
(-0.0240875 0.0543252 -0.0403293)
(-0.0350371 0.0556579 -0.0365951)
(-0.0395008 0.0520753 -0.0301093)
(-0.0446407 0.0468732 -0.0288254)
(-0.0452088 0.0404542 -0.03084)
(-0.0409257 0.0321522 -0.0337419)
(-0.03207 0.0228531 -0.0378482)
(-0.0207298 0.0149221 -0.0413711)
(-0.00938876 0.0105997 -0.0414689)
(-0.011038 0.0834006 -0.0335298)
(-0.033351 0.0851738 -0.0291586)
(-0.0472391 0.0848806 -0.0301677)
(-0.0636064 0.0821717 -0.0334222)
(-0.0804576 0.0730231 -0.0401052)
(-0.0870196 0.0582361 -0.045256)
(-0.0794373 0.0406845 -0.047703)
(-0.062404 0.0248118 -0.0483098)
(-0.0438355 0.013925 -0.049172)
(-0.0244092 0.00893769 -0.0485045)
(-0.0374941 0.134971 -0.0474852)
(-0.10013 0.136398 -0.0867063)
(-0.13909 0.140134 -0.110993)
(-0.172168 0.138815 -0.123196)
(-0.196744 0.121058 -0.141272)
(-0.198995 0.0908978 -0.154162)
(-0.176955 0.0600702 -0.15521)
(-0.139856 0.0376581 -0.146094)
(-0.0996243 0.0244955 -0.134751)
(-0.0584572 0.0180686 -0.123529)
(-0.0126196 0.2684 0.0276329)
(-0.0425641 0.301259 0.0409525)
(-0.123766 0.314514 0.0126393)
(-0.195877 0.276555 -0.0295083)
(-0.207993 0.214258 -0.0887511)
(-0.190598 0.156687 -0.12391)
(-0.167219 0.111655 -0.123615)
(-0.138012 0.0797101 -0.109856)
(-0.107499 0.063885 -0.0900818)
(-0.0746143 0.0537443 -0.0554255)
(0.00437669 0.208818 0.0956616)
(0.0643986 0.281296 0.139421)
(0.0584435 0.363185 0.118497)
(0.00897027 0.377019 0.0994719)
(-0.0614494 0.316195 0.0822182)
(-0.135341 0.214591 0.077757)
(-0.179168 0.130477 0.0912189)
(-0.192378 0.0814044 0.0943651)
(-0.17906 0.0487853 0.0979334)
(-0.155157 0.00980603 0.103225)
(-0.0235033 0.0703147 0.0833058)
(0.0661686 0.136808 0.132534)
(0.120464 0.306247 0.136367)
(0.125446 0.372125 0.13165)
(0.0756917 0.32988 0.124621)
(-0.0310242 0.203176 0.130607)
(-0.122847 0.0542687 0.146177)
(-0.16706 -0.0449459 0.143834)
(-0.171184 -0.0924349 0.133583)
(-0.166476 -0.105403 0.110413)
(-0.057034 0.031938 0.0425319)
(-0.022231 0.0431877 0.0637382)
(0.0471277 0.223536 0.0861782)
(0.0938805 0.319404 0.101975)
(0.0806169 0.310861 0.111362)
(0.00719503 0.2014 0.129015)
(-0.0659395 0.0402786 0.149809)
(-0.128997 -0.0617439 0.14072)
(-0.167197 -0.0823844 0.0999256)
(-0.180358 -0.0731972 0.0559928)
(-0.0639778 0.0144188 0.0156771)
(-0.0234033 -0.0758921 0.0496388)
(-0.00613224 0.118422 0.0785854)
(0.0411018 0.250391 0.0733856)
(0.0190772 0.256692 0.0960841)
(-0.0329784 0.150257 0.125716)
(-0.114868 -0.0119813 0.13467)
(-0.156114 -0.0660485 0.0877969)
(-0.15274 -0.0481295 0.0235904)
(-0.14018 -0.0422403 -0.00454076)
(-0.0389261 0.0218382 0.0075175)
(0.0355074 -0.161998 0.0411048)
(-8.38689e-05 0.00759557 0.0877241)
(0.015533 0.196458 0.0740163)
(-0.0440751 0.202544 0.0947568)
(-0.101211 0.0863523 0.121448)
(-0.157303 -0.0401696 0.0999913)
(-0.16143 -0.0725981 0.0289691)
(-0.146927 -0.0671722 -0.019088)
(-0.142895 -0.0508751 -0.032916)
(0.0107851 0.0126049 0.0399075)
(0.0538488 -0.158572 0.0265739)
(-0.0155868 -0.020281 0.0702032)
(-0.045452 0.187452 0.0811987)
(-0.106652 0.163332 0.0911941)
(-0.148153 0.0320056 0.104079)
(-0.179016 -0.0564016 0.0702056)
(-0.172255 -0.079825 0.00453861)
(-0.174452 -0.0728146 -0.0304198)
(-0.169842 -0.0434377 -0.0474579)
(0.0303982 -0.00523624 0.0377395)
(0.0384333 -0.124256 -0.000817725)
(-0.0708488 0.031577 0.0487323)
(-0.0928191 0.175895 0.0811942)
(-0.120698 0.128753 0.0912387)
(-0.153639 0.00860514 0.101788)
(-0.194649 -0.0532567 0.0636991)
(-0.183683 -0.0748855 -0.00431709)
(-0.194534 -0.0633447 -0.0428778)
(-0.192264 -0.0375018 -0.0645776)
(0.050469 -0.0609354 -0.0258243)
(0.0174113 -0.0947097 -0.0263124)
(-0.0717932 0.0425141 0.0113355)
(-0.073263 0.136444 0.0670311)
(-0.0577334 0.109433 0.0949001)
(-0.112598 0.0336105 0.117318)
(-0.190994 -0.031995 0.0737234)
(-0.17262 -0.0528298 -0.00720745)
(-0.185463 -0.0408284 -0.0564705)
(-0.190601 -0.0280842 -0.0830665)
(0.0331618 -0.110579 -0.0575832)
(-0.0421877 -0.0420069 -0.0196273)
(-0.0773627 0.0260678 0.0109907)
(-0.0595466 0.0348831 0.050976)
(-0.0246492 0.0600385 0.0845334)
(-0.0816563 0.054252 0.113775)
(-0.170626 -0.00607824 0.0783646)
(-0.155693 -0.0250665 -0.000647049)
(-0.155449 -0.0112366 -0.0592784)
(-0.164398 -0.0101217 -0.0941657)
(-0.00537987 -0.0823462 -0.0522292)
(-0.113169 -0.000480076 0.00863514)
(-0.143124 -0.0143175 0.0291628)
(-0.13923 -0.0478693 0.0485728)
(-0.105949 -0.0013563 0.0710097)
(-0.0916538 0.042689 0.100639)
(-0.144552 0.00652642 0.0872731)
(-0.150967 -0.0101802 0.0274688)
(-0.131382 0.00434001 -0.040521)
(-0.131794 0.00668162 -0.0872233)
(-0.00809598 0.00681695 -0.00982593)
(-0.0106079 -0.00163219 -0.00766804)
(0.00111221 -0.0131145 -0.0084909)
(0.00718111 -0.0109548 -0.0147122)
(0.00944043 -0.00239095 -0.0186394)
(0.00538704 0.00254265 -0.0160116)
(-0.00080826 0.00251529 -0.0118602)
(-0.00345112 0.00170714 -0.00972446)
(-0.00414898 0.00120716 -0.00887712)
(-0.00346228 0.000564246 -0.00859468)
(-0.0084218 0.0160223 -0.0106516)
(0.00871342 -0.0115312 0.00927324)
(0.0154611 -0.0237015 0.0129632)
(0.0130946 -0.0160514 0.00710539)
(0.00724222 -0.00358197 -0.0054127)
(0.00247298 0.00767911 -0.0151791)
(-0.00339057 0.00907708 -0.0146479)
(-0.0061207 0.00511512 -0.0115045)
(-0.0059846 0.00179805 -0.00989497)
(-0.00413665 -0.00172945 -0.00815057)
(-0.000867271 0.0208011 -0.00508126)
(0.0107677 -0.0173218 0.0112794)
(0.00638183 -0.0275342 0.0144669)
(-0.000599276 -0.0118486 0.0143964)
(-0.00825086 0.00298894 0.00344371)
(-0.00842244 0.0132534 -0.0119608)
(-0.0087463 0.0149737 -0.0163538)
(-0.00802945 0.00878373 -0.013475)
(-0.00777472 0.00375885 -0.00923139)
(-0.00587981 -9.77115e-05 -0.0032668)
(0.00514134 0.0249978 -0.00576748)
(0.00777813 -0.00313939 -0.00714475)
(-0.00719896 -0.0129078 0.00110626)
(-0.0169289 -0.00177868 0.0110492)
(-0.0223359 0.00849107 0.00576956)
(-0.0197878 0.0161169 -0.00814024)
(-0.0154991 0.0171009 -0.0157066)
(-0.0124753 0.0126623 -0.0137677)
(-0.0114556 0.00896714 -0.00840254)
(-0.00518207 -0.0024374 -0.00276456)
(0.00488501 0.0345415 -0.0276829)
(0.00652997 0.0167604 -0.0340301)
(-0.00975761 0.00807251 -0.020771)
(-0.0201538 0.00780511 -0.00545536)
(-0.0257908 0.012379 -0.00164256)
(-0.0263293 0.0197287 -0.00558941)
(-0.0209848 0.0228146 -0.0113343)
(-0.0138239 0.0192222 -0.0130692)
(-0.00755513 0.0114219 -0.0128966)
(0.000440812 -0.00223175 -0.0133188)
(0.00238243 0.041108 -0.0457015)
(-0.0025753 0.0304695 -0.048639)
(-0.015702 0.033159 -0.0418418)
(-0.024989 0.0306597 -0.0320605)
(-0.0313514 0.0255033 -0.0255047)
(-0.0322973 0.0222126 -0.0227346)
(-0.02663 0.0191888 -0.0236544)
(-0.016423 0.0150255 -0.0264414)
(-0.00727537 0.0098392 -0.0301474)
(-0.00113771 0.00236684 -0.0322882)
(-0.00659656 0.0505801 -0.0519363)
(-0.0251469 0.0487888 -0.0596753)
(-0.0371345 0.0510961 -0.0608544)
(-0.0430019 0.0502874 -0.0568361)
(-0.0480238 0.0456924 -0.0539269)
(-0.0493903 0.0379754 -0.0528629)
(-0.0453633 0.0274865 -0.05342)
(-0.0349426 0.0166033 -0.054531)
(-0.0219173 0.008349 -0.0548178)
(-0.0095012 0.00161029 -0.0530968)
(-0.0158055 0.0778446 -0.0422223)
(-0.0451886 0.077632 -0.050092)
(-0.0622603 0.0748474 -0.0609559)
(-0.0760613 0.0698298 -0.0667753)
(-0.0864423 0.0583059 -0.0714497)
(-0.0856186 0.0418032 -0.0754275)
(-0.0742005 0.0255895 -0.0765111)
(-0.0569228 0.0116768 -0.0751085)
(-0.0372706 0.0027879 -0.0731067)
(-0.0160122 -0.0014035 -0.0705214)
(-0.0322599 0.137402 -0.0746015)
(-0.0978669 0.130699 -0.124095)
(-0.142679 0.123393 -0.151454)
(-0.17118 0.114783 -0.163179)
(-0.189542 0.0929198 -0.183873)
(-0.190168 0.062589 -0.204129)
(-0.170716 0.0340339 -0.213165)
(-0.134959 0.012148 -0.208084)
(-0.0934712 6.34267e-05 -0.197583)
(-0.0518464 -0.00471058 -0.18745)
(0.00994468 0.274279 0.0301768)
(-0.0383933 0.291891 0.00887004)
(-0.153245 0.24571 -0.0582992)
(-0.189488 0.193818 -0.0925468)
(-0.196882 0.138485 -0.130572)
(-0.191991 0.0862001 -0.14254)
(-0.181776 0.0368514 -0.138981)
(-0.169693 0.00483119 -0.118904)
(-0.159821 -0.00913692 -0.0825089)
(-0.144599 -0.0180657 -0.0594069)
(0.00798009 0.196593 0.147264)
(0.0637929 0.329099 0.160393)
(0.0163737 0.338642 0.0945348)
(-0.0249675 0.287162 0.0817565)
(-0.0925491 0.182962 0.101616)
(-0.164161 0.056195 0.1417)
(-0.207355 -0.0282377 0.175293)
(-0.217977 -0.0412804 0.1762)
(-0.207701 -0.0328534 0.162726)
(-0.184909 -0.0375939 0.147686)
(-0.0354015 0.0867093 0.13218)
(0.0603408 0.273144 0.183541)
(0.0680446 0.349614 0.146154)
(0.0582416 0.310966 0.144884)
(-0.014914 0.201155 0.171979)
(-0.11501 0.0635026 0.205153)
(-0.179705 -0.0596333 0.219929)
(-0.199731 -0.130283 0.197576)
(-0.186757 -0.14348 0.145161)
(-0.153541 -0.13491 0.0883621)
(-0.0624936 0.0613582 0.0895587)
(-0.0264123 0.197725 0.123086)
(0.0094221 0.296521 0.123494)
(0.0255086 0.288881 0.147121)
(-0.0176071 0.218842 0.187497)
(-0.0856646 0.0981986 0.225736)
(-0.137903 -0.0392908 0.227727)
(-0.162517 -0.106158 0.161691)
(-0.145734 -0.117022 0.0698354)
(-0.113184 -0.118792 0.00433289)
(-0.0702189 0.0576627 0.0641993)
(-0.0572287 0.118324 0.111264)
(-0.0324366 0.22069 0.121144)
(-0.0207357 0.247757 0.137644)
(-0.0550144 0.200425 0.188961)
(-0.104483 0.0717586 0.224768)
(-0.147335 -0.0633353 0.186232)
(-0.137076 -0.112343 0.087015)
(-0.110053 -0.140743 0.00292123)
(-0.0959188 -0.14394 -0.0330191)
(-0.0526502 0.0484132 0.0317891)
(-0.0212417 0.0337755 0.101231)
(-0.0324147 0.160675 0.136816)
(-0.0283413 0.21893 0.134516)
(-0.0753833 0.178241 0.185425)
(-0.117837 0.0438557 0.199865)
(-0.130176 -0.0718207 0.128208)
(-0.108358 -0.115031 0.0330264)
(-0.10483 -0.14338 -0.0188344)
(-0.107413 -0.140146 -0.0474848)
(-0.0189965 0.0345312 0.000700019)
(-0.000713353 -0.00496634 0.059828)
(-0.0492188 0.137876 0.117036)
(-0.0534504 0.213195 0.132031)
(-0.0895715 0.159 0.164874)
(-0.110683 0.0118988 0.151686)
(-0.100306 -0.0800289 0.0785511)
(-0.0837552 -0.101431 0.00196313)
(-0.103439 -0.132678 -0.0294383)
(-0.122785 -0.128359 -0.0582434)
(-0.00871315 0.033139 -0.0124498)
(-0.037321 0.00511515 0.0280973)
(-0.0926023 0.144331 0.0952123)
(-0.0949099 0.195545 0.122975)
(-0.0974966 0.113282 0.133034)
(-0.0920608 -0.0206898 0.114974)
(-0.0764267 -0.0734978 0.0533832)
(-0.0512983 -0.0678326 -0.0205352)
(-0.0818464 -0.111451 -0.0388341)
(-0.121713 -0.1174 -0.0645532)
(0.00868309 0.0552716 -0.0211476)
(-0.0276383 0.00478677 0.0059275)
(-0.102021 0.126428 0.0762997)
(-0.0867435 0.156471 0.114248)
(-0.0629341 0.0808756 0.129195)
(-0.0673178 -0.00885299 0.132604)
(-0.0669661 -0.0532815 0.0617334)
(-0.00940395 -0.0295649 -0.0385923)
(-0.0344475 -0.0753433 -0.0480031)
(-0.0877864 -0.110299 -0.0676134)
(0.0465222 0.00978884 -0.0280369)
(0.00370754 0.0236114 -0.00596221)
(-0.0850016 0.088138 0.0661252)
(-0.0566653 0.0812123 0.108465)
(-0.026947 0.0570049 0.135157)
(-0.0438025 0.0230847 0.150045)
(-0.0533768 -0.0268393 0.0838988)
(0.0252887 -0.0172484 -0.0243054)
(0.0174881 -0.0356886 -0.0458027)
(-0.031558 -0.100828 -0.0627874)
(0.0177414 -0.0494171 -0.0247716)
(-0.0592388 0.064268 0.0213888)
(-0.127613 0.050831 0.0673038)
(-0.119577 0.00119126 0.0961326)
(-0.0907118 0.00812097 0.121148)
(-0.055331 0.0177525 0.135024)
(-0.0375635 -0.0202237 0.101867)
(0.00646231 -0.035701 0.0341283)
(0.0384448 -0.0342281 -0.0183662)
(0.024975 -0.0903886 -0.04935)
(-0.0088906 0.00715614 -0.010849)
(-0.0186966 -0.00187502 -0.00531071)
(-0.00533877 -0.0168017 -0.000407664)
(0.00596198 -0.0163238 -0.00413489)
(0.0125513 -0.00700724 -0.00938304)
(0.00861647 0.000547139 -0.0115884)
(0.000209525 0.00200649 -0.0113149)
(-0.00347557 0.00146768 -0.0104703)
(-0.00423485 0.000924867 -0.00974207)
(-0.00342728 0.000353533 -0.00897636)
(-0.00816814 0.0175997 -0.0158403)
(0.000560466 -0.0053076 0.00247678)
(0.00937356 -0.0276691 0.0138996)
(0.0103078 -0.027755 0.0103879)
(0.0110685 -0.0139871 -0.00362848)
(0.00784653 0.00270321 -0.013028)
(-0.00108477 0.00716973 -0.014137)
(-0.00568225 0.00381676 -0.0123449)
(-0.00557933 0.000561144 -0.0109275)
(-0.00367647 -0.00269071 -0.00970807)
(-0.00409072 0.0232317 -0.0175959)
(0.00952516 -0.00388306 0.000144775)
(0.0062216 -0.0242272 0.0105256)
(-0.00107605 -0.0215884 0.0129242)
(-0.00303645 -0.00872231 -0.000762992)
(-0.00184313 0.00650037 -0.0154496)
(-0.00577528 0.0118058 -0.0182226)
(-0.00758221 0.00606131 -0.0159471)
(-0.00654336 -0.000344597 -0.0131056)
(-0.00452429 -0.00394889 -0.00878716)
(0.00144634 0.0298024 -0.0234316)
(0.0110374 0.0119973 -0.0192929)
(0.00117324 -0.00621451 -0.00641448)
(-0.0125674 -0.00880653 0.0054659)
(-0.0168579 -0.00139847 -0.000392105)
(-0.0138077 0.00909051 -0.0164968)
(-0.0127247 0.013132 -0.022439)
(-0.0120201 0.00715528 -0.0201777)
(-0.0110914 0.00250801 -0.0158238)
(-0.00687966 -0.00155508 -0.0096287)
(0.00346797 0.0321602 -0.0381314)
(0.00895671 0.0206646 -0.0385205)
(-0.00101465 0.0132251 -0.0267833)
(-0.0164156 0.00868637 -0.0132037)
(-0.0248942 0.00946927 -0.00836954)
(-0.0246589 0.0160089 -0.013926)
(-0.0198668 0.0176383 -0.021339)
(-0.0155704 0.0120301 -0.0224985)
(-0.0126341 0.00518715 -0.0214378)
(-0.00612804 -0.00249624 -0.0190103)
(-0.00163451 0.0282311 -0.0504741)
(-0.00693902 0.0214493 -0.0521585)
(-0.0175288 0.0267398 -0.0475748)
(-0.0283677 0.0264474 -0.0406277)
(-0.0366989 0.02183 -0.0342836)
(-0.0369173 0.0205518 -0.0303631)
(-0.0297323 0.0196363 -0.0309369)
(-0.0201534 0.0149189 -0.0328875)
(-0.0136665 0.00775253 -0.0346928)
(-0.00687575 -0.000612722 -0.0350815)
(-0.0121769 0.0430488 -0.0611037)
(-0.0343132 0.0408374 -0.0731844)
(-0.0481567 0.042891 -0.0751912)
(-0.0544633 0.0415199 -0.0712594)
(-0.0593253 0.0336774 -0.0668583)
(-0.0591566 0.0221428 -0.0630126)
(-0.0522664 0.0105758 -0.0603437)
(-0.039969 0.00180434 -0.0584153)
(-0.0261479 -0.00379338 -0.0574517)
(-0.0108534 -0.00919142 -0.0572014)
(-0.0156378 0.070557 -0.0514744)
(-0.0481338 0.0659343 -0.0648955)
(-0.0702948 0.0587888 -0.0804162)
(-0.0847847 0.0490534 -0.087429)
(-0.0904159 0.035071 -0.0928813)
(-0.0860483 0.0212477 -0.0956408)
(-0.0752613 0.00845222 -0.0943664)
(-0.0584176 -0.00355404 -0.0924327)
(-0.0369879 -0.0114396 -0.0904038)
(-0.0131474 -0.0148586 -0.0886882)
(-0.0280004 0.124808 -0.106865)
(-0.0944122 0.111839 -0.147497)
(-0.153364 0.100086 -0.1812)
(-0.18544 0.0833986 -0.19707)
(-0.200026 0.0555235 -0.218283)
(-0.194879 0.0253275 -0.231628)
(-0.169988 -0.00306743 -0.229463)
(-0.130192 -0.0241083 -0.211896)
(-0.0882229 -0.0346852 -0.19464)
(-0.0478876 -0.0377546 -0.182581)
(0.0161691 0.258688 0.0204874)
(-0.0494719 0.267119 0.00659822)
(-0.172671 0.195355 -0.0815822)
(-0.185456 0.133814 -0.103502)
(-0.201505 0.0715297 -0.112191)
(-0.197243 0.00858008 -0.0777535)
(-0.174644 -0.0673414 0.0144277)
(-0.180256 -0.112912 -0.0268641)
(-0.176573 -0.127227 -0.0480131)
(-0.161437 -0.12872 -0.04229)
(0.0146785 0.198613 0.175408)
(0.0599119 0.325172 0.159999)
(-0.0238926 0.291798 0.083443)
(-0.0588525 0.178907 0.11043)
(-0.118741 0.0142129 0.171585)
(-0.168146 -0.0865924 0.210642)
(-0.195238 -0.103707 0.224915)
(-0.200381 -0.0771734 0.219191)
(-0.196479 -0.0582849 0.195809)
(-0.178565 -0.0679625 0.169147)
(-0.0349884 0.105177 0.178445)
(0.0483599 0.303884 0.198401)
(0.0139283 0.306637 0.154573)
(-0.0140613 0.17151 0.185064)
(-0.091357 0.0236239 0.212905)
(-0.154533 -0.0683845 0.235048)
(-0.182603 -0.128927 0.230495)
(-0.177849 -0.145576 0.187683)
(-0.156157 -0.146569 0.129391)
(-0.12017 -0.165706 0.0733764)
(-0.0614793 0.0852362 0.143197)
(-0.0358806 0.241787 0.166358)
(-0.0323001 0.255876 0.163059)
(-0.0402913 0.162307 0.194733)
(-0.0880993 0.0789346 0.234803)
(-0.132432 -0.00207482 0.268004)
(-0.14759 -0.073296 0.234358)
(-0.131638 -0.085778 0.138198)
(-0.105648 -0.0939815 0.0546488)
(-0.0836598 -0.137118 0.0113606)
(-0.0617183 0.087537 0.12315)
(-0.0663751 0.195062 0.157729)
(-0.0569479 0.205511 0.160617)
(-0.0637957 0.161848 0.184685)
(-0.0943096 0.104816 0.236579)
(-0.116922 0.0135668 0.261027)
(-0.114949 -0.0580509 0.188545)
(-0.0891923 -0.0642853 0.0699915)
(-0.0844228 -0.0834258 0.000107204)
(-0.0734084 -0.140344 -0.0229204)
(-0.0515381 0.0830392 0.0931881)
(-0.0458451 0.162598 0.152043)
(-0.0483368 0.189539 0.157919)
(-0.0566357 0.173813 0.169549)
(-0.0801393 0.129666 0.226829)
(-0.0880092 0.0377365 0.232043)
(-0.0740754 -0.0248969 0.133195)
(-0.063158 -0.012374 0.0112572)
(-0.0774573 -0.0488668 -0.0361338)
(-0.0647333 -0.1444 -0.038475)
(-0.0430007 0.0656523 0.0574986)
(-0.0335704 0.128627 0.111943)
(-0.0525335 0.185009 0.134638)
(-0.0545555 0.189952 0.155137)
(-0.0641313 0.14733 0.204307)
(-0.058783 0.0428819 0.186357)
(-0.0420504 -9.47016e-05 0.0848698)
(-0.0454334 0.0436864 -0.0226407)
(-0.0649895 -0.0314952 -0.0311667)
(-0.0582992 -0.165973 -0.0338229)
(-0.0420912 0.0539577 0.0346613)
(-0.061001 0.10479 0.0818862)
(-0.0822073 0.182395 0.118571)
(-0.0747945 0.188545 0.143813)
(-0.0629515 0.125034 0.16428)
(-0.0412909 0.0214359 0.127658)
(-0.0186973 0.0155662 0.0378708)
(-0.0219337 0.0737411 -0.0447788)
(-0.025203 -0.0388881 -0.0348129)
(-0.039009 -0.177932 -0.0274508)
(-0.0163846 0.0616254 0.0176725)
(-0.064947 0.0857985 0.0708075)
(-0.104062 0.166429 0.119707)
(-0.084937 0.159394 0.14025)
(-0.0595357 0.0774382 0.137971)
(-0.035011 -0.00512808 0.0974117)
(0.000187847 0.00961651 -0.00411242)
(0.008431 0.078904 -0.0674855)
(0.0436892 -0.0503639 -0.0553874)
(0.010383 -0.172511 -0.0272788)
(0.0427649 0.0320193 -0.00161861)
(-0.0198104 0.0846896 0.0562812)
(-0.0938859 0.134383 0.123254)
(-0.0671889 0.112231 0.147518)
(-0.0423553 0.0495151 0.146496)
(-0.0222359 0.000868257 0.118948)
(0.0208339 -0.00495774 0.00914239)
(0.0668702 0.0127578 -0.058738)
(0.0983784 -0.055522 -0.0469855)
(0.0721858 -0.149917 -0.0347432)
(0.0255413 -0.0352874 0.00828339)
(-0.031684 0.112797 0.0621221)
(-0.109838 0.114171 0.118134)
(-0.0948956 0.0684044 0.137757)
(-0.0701512 0.0367796 0.141279)
(-0.0249071 0.0159748 0.129615)
(0.0291662 -0.010233 0.0801044)
(0.0842835 -0.0360237 0.0319567)
(0.120022 -0.080458 0.00204787)
(0.119606 -0.130691 -0.0325558)
(-0.00539632 0.00542018 -0.00992962)
(-0.0185298 0.00138577 -0.0022034)
(-0.0121364 -0.00927272 0.00651204)
(-6.66306e-05 -0.0103973 0.00587145)
(0.00676185 -0.00377851 -0.00059445)
(0.00378415 0.000580159 -0.00695251)
(-0.00207503 0.00146632 -0.00989698)
(-0.00447379 0.00109355 -0.0106112)
(-0.00470782 0.000707187 -0.0103586)
(-0.00344948 0.000542216 -0.00965407)
(-0.00472264 0.015073 -0.0168058)
(-0.0104848 0.00461981 -0.00399962)
(-0.000413023 -0.0183354 0.00974305)
(0.00352869 -0.0228312 0.00919425)
(0.00778916 -0.0097575 -0.000605213)
(0.00441667 0.0028398 -0.00872542)
(-0.00284802 0.00437641 -0.0117253)
(-0.00568244 0.00171065 -0.0115972)
(-0.00502765 -0.000551082 -0.0103716)
(-0.0031913 -0.00222511 -0.00892108)
(-0.00109077 0.0196004 -0.0235393)
(0.00200458 0.00771777 -0.0125258)
(0.00423782 -0.0120559 0.0016065)
(0.000114238 -0.0188258 0.00551444)
(0.000898449 -0.00959644 -0.00522946)
(-0.000284523 0.00460318 -0.0141082)
(-0.00596851 0.00690966 -0.016323)
(-0.00803859 0.00133587 -0.0156488)
(-0.00642962 -0.00355387 -0.0141145)
(-0.00364539 -0.00580091 -0.0117125)
(0.00294481 0.021153 -0.0309611)
(0.00824814 0.0164434 -0.0285368)
(0.00622828 0.00298816 -0.0153978)
(-0.00343441 -0.00650389 -0.00419156)
(-0.00785282 -0.00413786 -0.00937202)
(-0.00841312 0.00542306 -0.0199106)
(-0.0116964 0.00747852 -0.0228252)
(-0.0129488 0.000488532 -0.0215342)
(-0.0109255 -0.00481415 -0.0195267)
(-0.0059553 -0.00612471 -0.016841)
(0.00175916 0.0139527 -0.0388828)
(0.0056315 0.0122507 -0.0368493)
(0.0014785 0.0135031 -0.0282601)
(-0.009129 0.0103125 -0.0187393)
(-0.0170909 0.00791858 -0.0160662)
(-0.0178518 0.0101871 -0.0219015)
(-0.0172899 0.00882717 -0.0270011)
(-0.0165204 0.000322654 -0.0272191)
(-0.0148801 -0.00633632 -0.0268093)
(-0.00771188 -0.00786291 -0.0266213)
(-0.00721958 0.00864172 -0.0490444)
(-0.0156315 0.008398 -0.0532333)
(-0.0238475 0.0161859 -0.0490491)
(-0.0311408 0.0183966 -0.0429826)
(-0.0366492 0.0169986 -0.0374873)
(-0.0344614 0.0163234 -0.0339667)
(-0.0278206 0.0124426 -0.0346376)
(-0.021404 0.00296344 -0.0356499)
(-0.0176832 -0.00683883 -0.0375938)
(-0.00886367 -0.0118678 -0.0405723)
(-0.0183302 0.0327729 -0.0660112)
(-0.0458035 0.0299727 -0.0817787)
(-0.0604974 0.0294286 -0.0831413)
(-0.0657125 0.0242613 -0.0781474)
(-0.0675979 0.0141141 -0.0715038)
(-0.0632528 0.00354253 -0.064436)
(-0.0533296 -0.00442596 -0.0593513)
(-0.0406795 -0.0105025 -0.0580476)