/*--------------------------------*- C++ -*----------------------------------*\
| =========                 |                                                 |
| \\      /  F ield         | OpenFOAM: The Open Source CFD Toolbox           |
|  \\    /   O peration     | Version:  2312                                  |
|   \\  /    A nd           | Website:  www.openfoam.com                      |
|    \\/     M anipulation  |                                                 |
\*---------------------------------------------------------------------------*/
FoamFile
{
    version     2.0;
    format      ascii;
    arch        "LSB;label=32;scalar=64";
    class       surfaceScalarField;
    location    "0.88";
    object      phi;
}
// * * * * * * * * * * * * * * * * * * * * * * * * * * * * * * * * * * * * * //

dimensions      [0 3 -1 0 0 0 0];

oriented        oriented;

internalField   nonuniform List<scalar> 
22600
(
-9.23806e-09
2.39401e-08
-1.47021e-08
9.29074e-08
-4.65172e-08
-5.56281e-08
1.84456e-07
-1.95112e-08
-7.20374e-08
2.28393e-07
-3.23606e-11
-4.39045e-08
2.36279e-07
7.21062e-12
-7.89366e-09
2.26044e-07
-1.3317e-09
1.1567e-08
2.0321e-07
-8.27661e-10
2.36623e-08
1.76482e-07
1.07133e-10
2.66201e-08
1.53978e-07
-6.72272e-10
2.31768e-08
-2.5326e-09
1.3884e-08
-3.86205e-08
1.10589e-07
-4.80287e-08
5.8895e-08
-3.92958e-08
-1.04737e-07
1.30324e-07
6.88341e-08
-1.59775e-07
1.58661e-07
1.04409e-07
-1.32777e-07
1.60973e-07
6.25879e-08
-6.48926e-08
1.57472e-07
1.68262e-08
-1.46568e-08
1.54505e-07
-3.30177e-09
5.44063e-09
1.48211e-07
-9.26369e-09
1.56654e-08
1.47088e-07
-2.3337e-08
2.37875e-08
-4.08617e-08
2.38425e-08
5.3638e-08
3.18777e-08
2.50738e-08
1.86148e-07
-2.30173e-07
5.83671e-08
1.84907e-07
1.30265e-07
-6.01901e-08
1.58947e-07
2.68618e-07
-1.38248e-07
1.54121e-07
1.68918e-07
-1.01504e-07
1.57598e-07
4.02488e-08
-2.68992e-08
1.50077e-07
-1.497e-08
1.91893e-08
1.31067e-07
-3.8623e-08
4.8369e-08
1.29539e-07
-1.01143e-07
7.93343e-08
-2.12355e-07
1.13235e-07
2.84426e-07
-4.47751e-07
1.95202e-07
3.81555e-07
-7.35565e-07
4.08263e-07
2.17555e-07
5.95495e-08
2.34716e-07
5.4412e-08
3.70765e-07
6.09956e-08
2.46062e-08
2.09387e-07
-1.06638e-08
5.98388e-08
-1.12475e-08
1.62638e-08
5.28851e-08
-8.2949e-08
7.49327e-08
-8.47974e-09
-1.15227e-07
1.37969e-07
3.35801e-08
-3.85691e-07
2.42488e-07
-7.3065e-07
3.41664e-07
4.59139e-07
-1.35854e-06
4.51648e-07
1.27134e-07
-1.39501e-06
9.91455e-07
-1.80495e-07
-4.04296e-07
7.71475e-07
-3.92972e-07
1.41429e-07
4.41813e-07
-4.12724e-07
-5.64139e-08
2.85553e-07
-2.80831e-07
-3.83395e-07
2.40255e-07
-1.91393e-07
-4.03552e-07
2.31165e-07
-1.59431e-07
-4.35333e-07
2.88143e-07
5.18036e-08
-1.04172e-06
4.44799e-07
-1.43296e-06
5.13344e-07
3.26136e-07
-2.52448e-06
8.39807e-07
-5.25631e-07
-1.80542e-06
1.26217e-06
-9.74166e-07
-1.34449e-06
1.38873e-06
-1.0381e-06
-7.35964e-07
9.41328e-07
-8.67826e-07
-7.95612e-07
5.68923e-07
-4.60595e-07
-1.18287e-06
3.92243e-07
-9.89071e-08
-1.07063e-06
3.05386e-07
9.79255e-08
-8.74643e-07
2.42477e-07
3.4919e-07
-1.52962e-06
2.36628e-07
-1.72532e-06
2.29172e-07
-4.92694e-07
-2.41828e-06
3.86489e-07
-1.21605e-06
2.07448e-07
-1.28951e-06
-1.20563e-06
-1.39546e-06
4.05462e-08
-1.13626e-06
-1.44577e-06
6.40428e-07
-7.41789e-07
-1.65137e-06
4.61291e-07
-2.5737e-07
-1.84627e-06
1.78987e-07
1.72813e-07
-1.69209e-06
1.91286e-07
3.1073e-07
-1.12704e-06
1.14482e-07
4.21336e-07
-1.57963e-06
-6.05946e-08
-1.66881e-06
-1.22282e-07
-2.06558e-06
2.20789e-06
-2.56059e-06
-2.04462e-06
7.43496e-06
-7.24847e-06
-2.87117e-06
6.34828e-06
-6.9172e-06
-5.23999e-06
3.58014e-06
-2.65709e-06
-1.92124e-06
-4.28829e-06
-6.81838e-07
-1.03164e-06
-2.74264e-06
6.77592e-09
-3.79933e-07
-2.6175e-06
2.73691e-07
6.26641e-08
-1.7583e-06
1.88666e-07
-1.25527e-07
-1.40109e-06
9.65643e-09
-1.22275e-06
-1.71092e-07
-1.14319e-06
2.7054e-06
6.45648e-07
1.69588e-06
5.89206e-06
-1.29619e-06
3.88179e-06
6.16298e-06
-2.00061e-06
3.63232e-06
4.39391e-06
-5.64306e-07
-4.46174e-07
1.48478e-06
-1.69457e-06
-2.74851e-06
-1.89916e-06
1.45884e-06
-1.28193e-06
-6.18851e-06
2.10444e-06
-7.80943e-07
-3.78303e-06
1.52374e-06
-2.0218e-06
-1.40756e-06
1.24732e-06
-1.08382e-06
1.04669e-06
4.42958e-07
2.50063e-06
-2.38187e-07
2.94848e-06
3.38604e-06
5.11026e-10
5.88591e-06
3.28752e-06
-6.19715e-08
8.09143e-06
2.18937e-06
-9.93822e-10
7.45974e-06
2.51802e-06
-4.01572e-07
5.25e-06
3.8954e-07
-7.89651e-08
6.78635e-08
-2.98375e-06
1.97738e-06
-3.47292e-06
-2.57949e-06
2.33722e-06
-5.4987e-06
-9.17049e-07
1.53526e-06
-1.64887e-06
1.39973e-06
1.09462e-06
3.01664e-06
-1.61064e-06
2.8464e-06
2.99042e-06
-1.35617e-06
4.8169e-06
2.52725e-06
-1.21023e-06
7.48212e-06
1.00825e-06
-1.48412e-06
9.81723e-06
7.52363e-07
-5.69463e-07
8.87557e-06
1.13631e-06
1.94897e-07
3.21609e-06
6.38452e-07
2.03726e-06
-2.90164e-06
-6.31573e-08
3.6014e-06
-5.73879e-06
-8.02003e-07
2.72208e-06
-2.42795e-06
2.16605e-06
1.25072e-06
3.975e-06
-2.20909e-06
2.55026e-06
3.81194e-06
-2.12105e-06
4.0349e-06
2.81469e-06
-1.77209e-06
6.13883e-06
1.25863e-06
-2.35431e-06
7.4559e-06
8.544e-07
-1.4191e-06
7.12304e-06
1.46694e-06
2.22226e-09
3.47602e-06
1.71785e-06
2.56763e-06
-2.24263e-06
1.31934e-06
4.33615e-06
-5.90546e-06
-9.03908e-08
2.9512e-06
-1.72254e-06
4.86056e-07
1.08037e-06
5.2374e-06
-2.34276e-06
1.69129e-06
4.957e-06
-1.75598e-06
2.79349e-06
3.44648e-06
-1.734e-06
4.86888e-06
2.18743e-06
-3.00417e-06
6.10061e-06
2.31595e-06
-2.6933e-06
5.34663e-06
2.65902e-06
-4.38113e-07
1.34307e-06
2.3085e-06
3.41292e-06
-3.84255e-06
1.86334e-06
4.6416e-06
-7.02624e-06
7.6297e-07
2.33031e-06
-3.60652e-07
-9.76586e-07
5.00242e-07
6.39794e-06
-1.66078e-06
4.97013e-07
5.74088e-06
-7.80663e-07
1.48665e-06
4.26763e-06
-1.81078e-06
3.55671e-06
3.68995e-06
-3.57259e-06
4.97005e-06
4.25638e-06
-3.35378e-06
3.59816e-06
4.0372e-06
-6.28863e-09
-1.33641e-06
2.68616e-06
4.55691e-06
-6.16759e-06
2.31371e-06
4.38081e-06
-8.42134e-06
1.52412e-06
1.4926e-06
5.81793e-07
-1.4381e-06
-3.4502e-07
7.30758e-06
-5.64629e-07
-7.97115e-07
6.62223e-06
-4.29247e-07
3.99429e-07
5.33292e-06
-2.26183e-06
2.46194e-06
5.47229e-06
-3.84484e-06
3.7645e-06
5.96349e-06
-3.00968e-06
1.54276e-06
4.7688e-06
1.49013e-06
-3.76683e-06
3.09352e-06
4.90222e-06
-8.24208e-06
3.15963e-06
3.62934e-06
-9.68368e-06
2.43746e-06
5.28253e-07
8.41961e-07
-1.41392e-06
-1.08608e-06
7.56673e-06
8.26938e-07
-1.79242e-06
7.7245e-06
-3.95921e-07
-4.80937e-07
6.69774e-06
-2.67631e-06
1.55401e-06
7.1591e-06
-3.72177e-06
2.35817e-06
7.09547e-06
-1.93614e-06
-6.54035e-07
4.92017e-06
2.86084e-06
-6.02292e-06
4.09708e-06
4.36532e-06
-9.78218e-06
4.39731e-06
2.52157e-06
-1.0451e-05
3.43707e-06
-3.30789e-07
8.67692e-07
-1.59332e-06
-1.37321e-06
6.77932e-06
2.16062e-06
-2.37822e-06
8.71083e-06
1.8679e-08
-1.21776e-06
8.1797e-06
-2.64242e-06
6.40422e-07
8.58316e-06
-3.28225e-06
7.49346e-07
7.79774e-06
-8.11196e-07
-3.10464e-06
5.29103e-06
3.48313e-06
-7.98791e-06
5.61072e-06
3.36962e-06
-1.07414e-05
6.13447e-06
1.01631e-06
-1.0748e-05
4.87264e-06
-1.42897e-06
1.53791e-06
-2.06663e-06
-1.23485e-06
5.11135e-06
2.90282e-06
-2.56716e-06
9.04979e-06
9.93353e-07
-1.84536e-06
9.43854e-06
-1.98065e-06
-2.18626e-07
9.49438e-06
-2.53794e-06
-7.3304e-07
8.20559e-06
1.06566e-07
-5.08971e-06
6.24209e-06
3.4056e-06
-9.35997e-06
7.50762e-06
2.37335e-06
-1.10704e-05
8.28581e-06
-4.40949e-07
-1.05673e-05
6.86488e-06
-2.4953e-06
2.88695e-06
-2.0576e-06
-1.14833e-06
3.34993e-06
2.90976e-06
-2.43451e-06
8.26763e-06
2.06834e-06
-2.06677e-06
9.52356e-06
-4.52767e-07
-8.64027e-07
9.31351e-06
-1.02188e-06
-1.9525e-06
8.13409e-06
1.15997e-06
-6.28404e-06
7.53367e-06
3.03996e-06
-9.73837e-06
9.16184e-06
1.80012e-06
-1.04749e-05
1.00993e-05
-1.07692e-06
-9.58362e-06
8.53093e-06
-2.55735e-06
3.96176e-06
-1.39534e-06
-1.36939e-06
2.56856e-06
2.15076e-06
-2.13923e-06
3.03717e-06
6.00031e-06
-1.84394e-06
1.94795e-06
7.28032e-06
-1.25719e-06
1.45666e-06
7.2701e-06
-2.71399e-06
2.24884e-06
7.34205e-06
-6.31736e-06
2.84797e-06
8.28906e-06
-8.82039e-06
1.83534e-06
9.82955e-06
-8.71983e-06
-5.00115e-07
1.04988e-05
-7.4251e-06
-1.40961e-06
8.64582e-06
2.88761e-07
3.75676e-06
-5.00523e-08
-5.38059e-08
8.91562e-08
1.13243e-07
-3.28601e-07
1.09677e-07
2.94096e-07
-3.31529e-07
7.86391e-08
3.87478e-07
-2.1686e-07
7.95731e-08
4.09964e-07
-1.28392e-07
9.80129e-08
3.94246e-07
-8.76152e-08
1.14901e-07
3.57817e-07
-6.75125e-08
1.27604e-07
3.0486e-07
-5.45556e-08
1.34133e-07
2.36667e-07
-4.401e-08
1.3538e-07
-4.38918e-08
1.27622e-07
-8.73757e-08
-6.69212e-08
5.24625e-08
1.7186e-07
-8.42431e-07
1.49857e-07
3.79475e-07
-7.78252e-07
7.93342e-08
4.29681e-07
-4.20416e-07
2.0572e-08
4.0118e-07
-2.01572e-07
3.67891e-08
3.63437e-07
-1.40401e-07
7.58715e-08
3.26267e-07
-1.28687e-07
1.03786e-07
2.82308e-07
-1.16968e-07
1.22036e-07
2.29734e-07
-1.05683e-07
1.38035e-07
-1.21253e-07
1.44998e-07
1.05801e-07
-3.16593e-07
1.68945e-07
5.67292e-07
-1.74175e-06
4.962e-07
7.45703e-07
-1.38809e-06
3.71232e-07
6.74571e-07
-6.17257e-07
1.29726e-07
5.52213e-07
-2.0981e-07
2.90918e-08
4.66453e-07
-1.42682e-07
6.11416e-08
4.07662e-07
-1.7051e-07
1.19804e-07
3.47459e-07
-1.76677e-07
1.68282e-07
2.76329e-07
-1.71721e-07
2.16502e-07
-2.25432e-07
2.58617e-07
4.21173e-07
-9.07031e-07
3.64467e-07
8.57498e-07
-2.69433e-06
9.24518e-07
8.96496e-07
-1.96948e-06
7.77116e-07
7.09788e-07
-7.98775e-07
4.29223e-07
5.53553e-07
-2.31688e-07
1.67449e-07
4.8056e-07
-1.67432e-07
1.14006e-07
4.14561e-07
-2.17725e-07
1.88147e-07
3.0444e-07
-2.16695e-07
2.88108e-07
2.25303e-07
-2.57536e-07
4.0744e-07
-4.72037e-07
5.30597e-07
7.24499e-07
-1.53634e-06
3.56455e-07
5.78107e-07
-2.6416e-06
1.08511e-06
3.58462e-07
-2.08851e-06
1.11014e-06
2.16675e-07
-9.99113e-07
7.83938e-07
1.59244e-07
-3.62481e-07
4.73777e-07
2.01615e-07
-3.07043e-07
3.37495e-07
2.1972e-07
-3.88936e-07
3.8427e-07
1.8485e-07
-4.36711e-07
5.43029e-07
2.47666e-07
-6.19641e-07
7.44089e-07
-9.50867e-07
8.80495e-07
1.01256e-06
-1.68244e-06
-2.66561e-08
-2.76729e-08
-4.08245e-07
6.90563e-08
-6.06318e-07
-9.47531e-07
8.26401e-07
-5.24744e-07
-1.03106e-06
8.91702e-07
-3.54696e-07
-6.64646e-07
7.01042e-07
-1.07689e-07
-6.72495e-07
5.10688e-07
2.1735e-07
-8.4466e-07
4.36071e-07
5.81442e-07
-1.0189e-06
4.60577e-07
8.17379e-07
-1.20808e-06
5.8913e-07
-1.20048e-06
7.21338e-07
9.9172e-07
-2.6086e-07
-2.02681e-06
-8.15549e-07
3.91332e-06
-3.80381e-06
-1.68252e-06
1.83797e-06
-1.87798e-06
-1.23292e-06
-3.62222e-07
-4.78008e-07
-5.76269e-07
-9.86458e-07
1.26448e-07
-4.88989e-08
-1.27509e-06
2.54217e-07
5.90871e-07
-1.59189e-06
2.9874e-07
1.09098e-06
-1.67729e-06
2.72762e-07
1.21796e-06
-1.76882e-06
3.73169e-07
-1.35762e-06
4.43279e-07
-5.9093e-07
3.39848e-06
-5.62898e-06
-2.55205e-06
6.94609e-06
-8.32012e-06
-4.54525e-06
5.60287e-06
-8.6889e-06
-5.30224e-06
3.2213e-06
-5.48362e-06
-1.6815e-06
-2.88086e-06
-2.40818e-06
-3.49724e-07
-1.95317e-06
-6.46933e-07
6.40951e-07
-2.27346e-06
-3.54086e-08
8.79206e-07
-1.88304e-06
1.56162e-07
4.20899e-07
-1.45271e-06
1.51855e-07
-1.1886e-06
-4.98613e-09
9.39214e-07
2.94065e-06
1.6424e-07
1.2854e-06
6.23996e-06
-9.36258e-07
2.03145e-06
5.74688e-06
-2.89067e-06
2.55014e-06
3.01578e-06
-8.7748e-07
-4.89985e-08
1.7264e-06
-3.7027e-06
-3.30942e-06
3.22949e-06
-4.63393e-07
-1.13627e-06
-3.12382e-06
7.81646e-07
-7.43117e-07
-2.22558e-06
1.47312e-06
-2.59993e-06
5.90812e-07
1.06062e-06
4.38229e-07
7.0112e-07
9.75341e-07
1.51529e-06
2.11804e-07
2.55995e-06
2.7493e-06
1.90654e-06
4.93024e-06
1.43125e-06
1.88335e-06
6.85712e-06
-8.25821e-07
1.91371e-06
6.22632e-06
1.04769e-06
9.07918e-07
4.30408e-06
4.85391e-06
2.18855e-07
-8.51827e-08
2.3231e-08
3.21957e-06
-4.12873e-06
-1.9791e-06
6.1343e-06
-7.01024e-06
3.04891e-06
1.95866e-06
2.69986e-06
-4.39908e-07
7.0912e-07
1.47853e-06
-2.283e-06
2.04103e-06
9.66083e-07
-9.04863e-07
4.31019e-06
-6.9566e-07
-1.35248e-06
6.57965e-06
-2.44951e-06
-2.12991e-06
7.91946e-06
-5.87805e-07
-2.73774e-07
8.61797e-06
3.49268e-06
8.57607e-07
4.51337e-06
2.8744e-06
3.2907e-06
-2.22517e-06
8.52112e-07
7.50873e-06
-5.98217e-06
3.98857e-06
5.53942e-06
3.13421e-06
2.62301e-06
5.51437e-07
2.18655e-06
-3.46854e-06
1.65477e-06
8.41498e-07
-3.09982e-06
3.16679e-06
-7.05778e-07
-3.274e-06
4.96889e-06
-1.87213e-06
-4.73378e-06
5.73988e-06
4.21893e-07
-3.19979e-06
6.47522e-06
3.54991e-06
-7.90353e-07
5.43703e-06
3.55829e-06
2.92193e-06
1.2296e-07
2.94452e-06
7.55779e-06
-3.47888e-06
4.31854e-06
6.22306e-06
3.71629e-06
1.85191e-06
2.12354e-07
3.11927e-06
-3.48783e-06
7.64907e-07
1.28083e-06
-2.74786e-06
1.68829e-06
1.51164e-07
-3.51434e-06
2.74869e-06
1.01549e-07
-6.03824e-06
2.99293e-06
2.79754e-06
-5.31319e-06
3.68246e-06
4.41704e-06
-1.99478e-06
3.4821e-06
3.90674e-06
3.26482e-06
-7.39934e-07
3.99722e-06
7.81094e-06
-3.80506e-06
4.68667e-06
5.0273e-06
4.43072e-06
-8.69397e-08
-8.25224e-07
3.92159e-06
-1.63789e-06
-1.03743e-06
1.77325e-06
-1.06087e-06
-9.52159e-08
1.43563e-06
-4.03745e-06
2.84413e-07
2.89658e-06
-6.74725e-06
3.75342e-07
5.48962e-06
-6.13679e-06
1.71244e-06
4.6371e-06
-1.56346e-06
8.15022e-07
4.17607e-06
5.185e-06
-3.26695e-06
4.85937e-06
7.60062e-06
-5.61761e-06
5.54095e-06
2.98898e-06
5.24977e-06
-2.12587e-06
-2.22248e-06
5.20158e-06
3.77865e-07
-2.89558e-06
2.78182e-06
-7.64706e-07
-2.1098e-06
3.31753e-06
-4.9295e-06
-1.71168e-06
5.60194e-06
-6.94834e-06
-8.25942e-07
7.29522e-06
-5.70102e-06
3.08204e-07
4.97756e-06
1.55302e-08
-2.10611e-06
4.90578e-06
6.58682e-06
-5.52853e-06
5.95279e-06
5.95833e-06
-6.81719e-06
6.50319e-06
8.54653e-07
5.7234e-06
-3.15497e-06
-3.26458e-06
7.12274e-06
2.17037e-06
-4.44981e-06
4.60541e-06
-1.03428e-06
-4.01331e-06
5.4406e-06
-5.23588e-06
-3.31025e-06
7.73122e-06
-6.55411e-06
-1.8315e-06
8.40248e-06
-4.52213e-06
-1.57809e-06
6.00418e-06
1.58081e-06
-4.44791e-06
6.27909e-06
5.86183e-06
-6.6245e-06
7.40813e-06
3.24284e-06
-6.97292e-06
7.72345e-06
-1.20263e-06
5.84771e-06
-3.62525e-06
-3.39847e-06
8.456e-06
4.22582e-06
-5.45266e-06
6.95863e-06
-2.80341e-07
-5.45652e-06
7.38697e-06
-4.58494e-06
-4.60221e-06
9.38929e-06
-5.79463e-06
-3.12667e-06
9.53513e-06
-3.41939e-06
-3.30682e-06
7.77175e-06
1.89571e-06
-5.54838e-06
8.47746e-06
3.41282e-06
-6.6265e-06
9.70899e-06
-2.06434e-07
-6.48597e-06
9.47841e-06
-3.32447e-06
5.85917e-06
-3.39816e-06
-2.71304e-06
8.03901e-06
6.03286e-06
-5.66206e-06
8.87921e-06
2.0218e-06
-6.25709e-06
8.85099e-06
-2.84963e-06
-5.57511e-06
1.06565e-05
-4.48711e-06
-4.30519e-06
1.08939e-05
-2.52216e-06
-4.51273e-06
1.00291e-05
1.3558e-06
-5.77701e-06
1.11266e-05
9.88523e-07
-6.1486e-06
1.25393e-05
-2.89967e-06
-6.34341e-06
1.14883e-05
-4.31042e-06
5.7963e-06
-1.54586e-06
-2.02982e-06
6.33645e-06
6.64214e-06
-5.37826e-06
1.00238e-05
4.27218e-06
-6.55398e-06
1.01831e-05
-6.0912e-07
-5.94801e-06
1.16041e-05
-2.57544e-06
-4.78117e-06
1.22235e-05
-1.33639e-06
-5.06233e-06
1.2259e-05
1.09122e-06
-5.77374e-06
1.35765e-05
6.1631e-08
-6.05051e-06
1.50326e-05
-3.29346e-06
-7.22636e-06
1.31232e-05
-3.01632e-06
5.48607e-06
1.12675e-06
-2.23377e-06
6.36727e-06
4.77152e-06
-4.88809e-06
5.94294e-06
9.77234e-06
-6.0561e-06
2.67905e-06
1.062e-05
-5.35582e-06
3.00333e-07
1.20601e-05
-4.52554e-06
4.01419e-07
1.32406e-05
-5.13232e-06
1.68144e-06
1.40323e-05
-5.88106e-06
7.31497e-07
1.54291e-05
-6.35299e-06
-1.67332e-06
1.66778e-05
-8.06959e-06
-3.91728e-07
1.38219e-05
3.43852e-06
4.97871e-06
-6.66891e-08
-2.8174e-08
1.84019e-07
8.31072e-08
-3.32737e-07
2.92617e-07
2.71724e-07
-3.78296e-07
2.68318e-07
3.74457e-07
-2.62381e-07
2.39222e-07
3.99287e-07
-1.53362e-07
2.26545e-07
3.84731e-07
-9.88746e-08
2.28331e-07
3.49747e-07
-7.7276e-08
2.39864e-07
2.9685e-07
-6.63407e-08
2.53371e-07
2.25443e-07
-5.99703e-08
2.66757e-07
-7.05925e-08
2.69553e-07
-1.47976e-07
3.69072e-08
1.35357e-07
9.36692e-08
-7.93701e-07
3.69177e-07
3.47447e-07
-8.92797e-07
3.40058e-07
4.29912e-07
-5.65712e-07
2.41438e-07
4.05881e-07
-2.85492e-07
1.9295e-07
3.63136e-07
-1.75167e-07
1.9491e-07
3.24013e-07
-1.51704e-07
2.17336e-07
2.79998e-07
-1.43207e-07
2.42917e-07
2.24895e-07
-1.3926e-07
2.72428e-07
-1.64777e-07
2.91275e-07
-3.45744e-08
4.39351e-08
1.96492e-07
4.28503e-07
-1.46164e-06
7.01063e-07
7.39179e-07
-1.52181e-06
6.89566e-07
7.46413e-07
-8.83353e-07
4.40134e-07
6.10367e-07
-3.7596e-07
2.55605e-07
4.90456e-07
-2.09863e-07
2.15749e-07
4.21991e-07
-2.14676e-07
2.51241e-07
3.66735e-07
-2.17103e-07
2.97434e-07
2.87845e-07
-1.83428e-07
3.39561e-07
-1.98048e-07
3.65814e-07
2.16463e-07
-8.01818e-08
2.72121e-07
7.731e-07
-2.07661e-06
9.82846e-07
1.02519e-06
-2.01227e-06
1.01548e-06
9.52316e-07
-1.08187e-06
7.00612e-07
7.61626e-07
-4.08105e-07
3.90284e-07
6.05145e-07
-2.14868e-07
2.75493e-07
5.07008e-07
-2.46726e-07
3.18334e-07
4.14655e-07
-2.44544e-07
4.07903e-07
3.06491e-07
-1.65641e-07
4.97817e-07
-1.72352e-07
5.50384e-07
5.78907e-07
-4.13501e-07
1.10868e-07
7.40343e-07
-2.03853e-06
8.85598e-07
7.18256e-07
-1.94471e-06
1.06468e-06
6.31635e-07
-1.06667e-06
8.55364e-07
5.48443e-07
-4.2219e-07
5.71055e-07
5.19429e-07
-3.01879e-07
4.53519e-07
5.2695e-07
-4.20596e-07
5.50619e-07
4.54961e-07
-3.21167e-07
6.91642e-07
3.11407e-07
-3.508e-08
7.57081e-07
-8.92033e-08
7.98451e-07
1.16312e-06
-1.23148e-06
-3.71796e-07
4.6624e-07
-1.07136e-06
-2.01234e-07
-1.36962e-07
-8.5986e-07
3.44753e-07
-1.60613e-07
-7.84724e-07
6.33405e-07
4.44549e-09
-5.21446e-07
6.35238e-07
2.23138e-07
-5.77193e-07
5.6731e-07
4.7284e-07
-8.65706e-07
6.31479e-07
6.63323e-07
-8.34144e-07
7.83071e-07
6.96036e-07
-4.46247e-07
9.67584e-07
-2.97381e-07
1.08647e-06
1.52049e-06
-2.89264e-06
-1.88613e-06
-7.40528e-08
1.69751e-07
-3.45038e-06
-1.34733e-06
8.79919e-07
-2.34448e-06
-1.00601e-06
-8.66229e-07
-7.37825e-07
-4.1324e-07
-1.07556e-06
8.77925e-08
1.471e-07
-1.19355e-06
3.10235e-07
6.16437e-07
-1.44246e-06
4.06155e-07
1.00486e-06
-1.50903e-06
5.59223e-07
1.15106e-06
-9.55452e-07
7.3618e-07
-2.77797e-07
8.70328e-07
-8.09092e-07
-2.86973e-07
-7.42557e-06
-2.42963e-06
2.07715e-06
-8.60699e-06
-3.51577e-06
2.30292e-06
-9.02577e-06
-1.7181e-06
-3.43917e-06
-4.70836e-06
-7.31363e-07
-2.21095e-06
-2.25953e-06
1.93479e-08
-1.4154e-06
-1.1758e-06
4.46909e-07
-1.07759e-06
-8.27837e-07
4.79787e-07
-1.13748e-06
-2.48264e-07
3.53847e-07
-7.51331e-07
7.3674e-08
-3.63133e-07
1.41158e-08
2.15096e-06
1.06809e-06
-3.34179e-06
2.77215e-06
2.89508e-06
-2.37536e-06
3.284e-06
2.47028e-06
-3.56989e-06
2.52186e-06
-4.05217e-07
-3.14927e-06
-6.86035e-07
2.67954e-06
-5.3853e-06
-3.69959e-06
5.33197e-06
-4.1972e-06
-5.09466e-07
-1.17878e-06
-2.30729e-06
1.3228e-06
-1.39447e-06
-1.0216e-07
5.47844e-07
2.99478e-07
7.84767e-07
7.8086e-07
9.24618e-07
1.17592e-06
-1.95893e-07
2.9986e-07
2.72132e-06
9.32032e-07
2.32418e-06
5.12208e-06
-1.04895e-06
3.00182e-06
5.53002e-06
-1.47757e-06
2.57811e-06
4.73481e-06
3.28557e-06
1.09709e-06
3.41545e-06
7.32168e-06
-4.51512e-07
-1.22276e-07
3.14474e-06
2.43379e-06
-1.52846e-06
-5.89716e-07
6.73573e-06
-2.79933e-06
4.57851e-06
-1.04951e-06
5.23682e-06
-4.45608e-06
1.78666e-07
1.02407e-07
-2.75997e-06
1.415e-06
-4.12712e-07
-7.96455e-07
3.47683e-06
-2.96045e-06
-1.50283e-06
5.52351e-06
-3.61788e-06
-2.0363e-06
6.84315e-06
1.61888e-06
7.32788e-08
7.41733e-06
6.94087e-06
6.64234e-07
4.07426e-06
6.34169e-06
3.43683e-06
-1.74345e-07
2.15731e-06
9.01031e-06
-3.20158e-06
5.24293e-06
7.90224e-06
5.819e-06
3.8109e-06
1.24688e-07
9.42308e-07
-4.43314e-06
1.18108e-06
-6.80848e-07
-3.88808e-06
2.00153e-06
-2.69718e-06
-4.35773e-06
3.20354e-06
-3.55662e-06
-5.99705e-06
4.57184e-06
1.21771e-06
-4.16692e-06
5.80155e-06
6.50132e-06
-1.58052e-06
5.55985e-06
6.82109e-06
2.68422e-06
2.34647e-06
4.51591e-06
8.41257e-06
-2.2899e-07
5.15627e-06
8.88516e-06
6.02631e-06
4.10247e-06
3.08569e-07
1.6269e-06
-4.481e-06
1.04401e-06
-3.93821e-07
-3.77035e-06
8.64153e-07
-1.34783e-06
-4.68383e-06
2.58862e-07
-1.45633e-06
-7.53325e-06
7.82234e-07
2.58582e-06
-7.20468e-06
1.89494e-06
6.39961e-06
-3.00578e-06
3.87356e-06
5.54427e-06
2.56303e-06
3.04621e-06
4.75041e-06
8.40379e-06
8.83206e-07
5.11224e-06
7.23434e-06
7.41263e-06
1.84297e-06
-4.98569e-07
2.45539e-06
-1.96781e-06
-3.06375e-07
2.34995e-07
-1.88188e-06
-7.15349e-07
9.25197e-08
-5.06884e-06
-2.03459e-06
1.35601e-06
-8.24035e-06
-2.30607e-06
4.78295e-06
-8.06245e-06
-3.95596e-07
6.39951e-06
-3.47383e-06
2.02655e-06
4.52546e-06
3.78165e-06
1.56012e-06
4.71305e-06
8.10441e-06
-1.1665e-06
6.3337e-06
4.49414e-06
8.95741e-06
-9.95121e-07
-1.9957e-06
3.74003e-06
1.08893e-06
-2.76015e-06
1.34493e-06
-1.11018e-06
-3.36725e-06
1.62272e-06
-5.8526e-06
-4.46748e-06
3.8828e-06
-8.3749e-06
-4.50806e-06
6.84447e-06
-7.72197e-06
-1.70962e-06
7.0341e-06
-3.4175e-06
4.31269e-07
5.10688e-06
3.86452e-06
-6.5228e-07
5.9573e-06
5.79763e-06
-3.53307e-06
8.46181e-06
1.60732e-06
9.14582e-06
-3.00538e-06
-3.30237e-06
5.91978e-06
3.29299e-06
-4.97159e-06
3.21426e-06
-1.2344e-06
-5.8663e-06
3.36484e-06
-6.08328e-06
-6.51502e-06
5.90448e-06
-7.92707e-06
-5.95447e-06
8.74892e-06
-6.98713e-06
-2.87389e-06
8.90349e-06
-3.36917e-06
-9.8703e-07
7.68765e-06
1.3942e-06
-2.24507e-06
8.99112e-06
1.46707e-06
-4.05534e-06
1.06345e-05
-1.56508e-06
8.7447e-06
-4.85147e-06
-3.48518e-06
7.91609e-06
5.71469e-06
-6.04726e-06
5.58799e-06
-9.19939e-08
-7.34665e-06
5.30854e-06
-5.22926e-06
-7.88368e-06
7.74928e-06
-7.10239e-06
-6.84815e-06
1.0782e-05
-6.48798e-06
-3.83384e-06
1.17793e-05
-3.99443e-06
-2.03817e-06
1.1593e-05
-2.28818e-06
-2.53941e-06
1.27749e-05
-3.48894e-06
-2.6381e-06
1.25456e-05
-5.1369e-06
9.09482e-06
-5.20345e-06
-2.20898e-06
8.23302e-06
7.92492e-06
-5.34209e-06
7.36853e-06
3.37439e-06
-7.2377e-06
7.17288e-06
-2.81836e-06
-8.24577e-06
9.68313e-06
-5.41289e-06
-7.13247e-06
1.28472e-05
-5.70068e-06
-4.20796e-06
1.46777e-05
-4.46705e-06
-2.18735e-06
1.51005e-05
-4.53962e-06
-1.77716e-06
1.56603e-05
-6.19524e-06
-1.6323e-06
1.42312e-05
-6.14085e-06
1.006e-05
-2.06763e-06
-6.79262e-07
6.76389e-06
8.79053e-06
-4.00468e-06
8.51172e-06
6.45441e-06
-6.33782e-06
8.4317e-06
4.65184e-07
-7.50673e-06
1.14316e-05
-3.15505e-06
-6.68908e-06
1.47599e-05
-4.06675e-06
-4.02565e-06
1.69061e-05
-3.80065e-06
-1.934e-06
1.74582e-05
-4.3877e-06
-1.51736e-06
1.74204e-05
-5.47023e-06
-2.67226e-06
1.5858e-05
-3.48826e-06
1.02318e-05
3.42839e-06
-7.61815e-07
8.87441e-06
5.01856e-06
-3.76139e-06
8.29749e-06
9.15674e-06
-6.0306e-06
3.56416e-06
9.81579e-06
-6.72973e-06
-4.28507e-07
1.28596e-05
-5.92841e-06
-1.73676e-06
1.60968e-05
-3.63996e-06
-2.04411e-06
1.83432e-05
-1.8504e-06
-2.56885e-06
1.8969e-05
-2.18462e-06
-2.79716e-06
1.88784e-05
-4.73046e-06
5.98514e-07
1.74136e-05
7.35524e-06
9.51213e-06
-3.99797e-08
8.79655e-10
2.2312e-07
8.41059e-08
-2.10921e-07
3.79453e-07
2.44225e-07
-2.54752e-07
3.62952e-07
3.42098e-07
-1.86944e-07
3.28292e-07
3.7509e-07
-1.13435e-07
3.06988e-07
3.69369e-07
-7.02783e-08
3.0433e-07
3.39963e-07
-4.6794e-08
3.16064e-07
2.9014e-07
-3.04925e-08
3.33687e-07
2.18495e-07
-1.98295e-08
3.58232e-07
-2.22787e-08
3.68879e-07
-1.26861e-07
1.01793e-07
1.61305e-07
2.67881e-08
-4.19395e-07
4.24002e-07
2.42101e-07
-5.5074e-07
4.20734e-07
3.46926e-07
-3.89099e-07
3.38767e-07
3.60578e-07
-2.18318e-07
2.84181e-07
3.43001e-07
-1.34068e-07
2.76277e-07
3.164e-07
-1.01529e-07
2.98673e-07
2.82023e-07
-8.50268e-08
3.31829e-07
2.31059e-07
-7.41241e-08
3.77686e-07
-7.42631e-08
4.10917e-07
-1.33064e-07
2.45316e-07
1.86033e-07
1.50758e-07
-6.60384e-07
6.5823e-07
4.54241e-07
-8.77742e-07
7.13085e-07
5.53299e-07
-5.90456e-07
5.42433e-07
5.09366e-07
-3.01641e-07
3.82861e-07
4.46851e-07
-1.90129e-07
3.34324e-07
3.99934e-07
-1.63003e-07
3.59632e-07
3.47928e-07
-1.30361e-07
3.94775e-07
2.74168e-07
-8.76293e-08
4.26826e-07
-5.69282e-08
4.29192e-07
2.80577e-08
3.60137e-07
1.29242e-07
4.48167e-07
-8.66015e-07
7.68368e-07
7.48344e-07
-1.08262e-06
9.20178e-07
7.98203e-07
-6.8922e-07
7.49517e-07
6.96375e-07
-3.24201e-07
5.14673e-07
5.83023e-07
-2.07278e-07
4.05995e-07
5.012e-07
-1.9718e-07
4.34334e-07
4.14399e-07
-1.50191e-07
5.14534e-07
3.01475e-07
-4.11639e-08
5.64276e-07
5.46224e-08
5.0415e-07
2.97191e-07
2.77517e-07
-1.03704e-07
6.00309e-07
-9.27689e-07
6.44155e-07
7.35787e-07
-9.95607e-07
8.42191e-07
7.48601e-07
-6.08522e-07
7.61853e-07
7.19704e-07
-3.43432e-07
6.19182e-07
7.28095e-07
-3.40597e-07
5.78448e-07
6.86725e-07
-2.53388e-07
6.48196e-07
5.07251e-07
2.53417e-08
6.95583e-07
2.81228e-07
2.49686e-07
6.92255e-07
2.74623e-07
6.09014e-07
7.82783e-07
-5.14886e-07
-3.62176e-07
4.46069e-07
-9.69209e-07
1.77e-07
1.01413e-07
-6.83295e-07
3.77097e-07
1.30213e-07
-5.01524e-07
4.97606e-07
3.19055e-07
-4.54303e-07
5.57268e-07
5.94173e-07
-6.51123e-07
6.02718e-07
7.71703e-07
-5.40824e-07
7.41386e-07
7.47894e-07
-1.24413e-07
9.56636e-07
5.20654e-07
3.91129e-07
1.05338e-06
5.17401e-07
9.45174e-07
1.15702e-06
-2.67295e-06
-8.85088e-07
2.46002e-08
-1.61613e-06
-1.67104e-06
-7.9588e-07
-1.11801e-06
-1.08928e-06
-6.68457e-07
-1.22573e-06
-1.4104e-07
-1.61708e-07
-1.14895e-06
2.75687e-07
3.88316e-07
-1.19439e-06
3.03479e-07
7.34965e-07
-8.43882e-07
3.62563e-07
9.14871e-07
-3.94914e-07
6.49817e-07
8.77794e-07
2.08108e-07
9.56278e-07
6.56236e-07
1.02676e-06
-3.91086e-07
-2.56913e-06
-7.13831e-06
-1.62659e-06
-5.82423e-07
-8.40519e-06
-1.3678e-06
-4.28387e-06
-6.1187e-06
-7.57323e-07
-3.59325e-06
-2.95132e-06
-3.01739e-07
-2.51062e-06
-1.35344e-06
-3.59095e-07
-1.3633e-06
-9.49531e-07
-5.4637e-07
-5.8831e-07
-8.96134e-07
-3.00993e-07
-7.99844e-07
-8.87114e-08
1.01693e-07
-4.23928e-07
3.03024e-07
9.44384e-08
2.94926e-07
1.18997e-06
-8.20068e-07
-6.28083e-06
2.74108e-06
-1.74632e-07
-4.33428e-06
2.3141e-06
-2.41362e-06
-5.01316e-06
1.59652e-06
-5.56918e-07
-5.46803e-06
-7.82982e-07
1.24389e-06
-6.76031e-06
-2.69942e-06
1.59777e-06
-5.24184e-06
-9.86213e-09
-3.48104e-06
-2.10412e-06
1.47302e-06
-1.41305e-06
-9.71839e-07
1.63399e-06
-2.61288e-07
4.61164e-07
6.02768e-07
1.26262e-06
1.16217e-06
-1.58029e-06
-1.02124e-07
2.93005e-06
-1.18251e-06
1.56417e-06
4.58258e-06
-3.06869e-06
2.00435e-06
5.92891e-06
-6.33443e-07
1.3083e-06
5.65979e-06
4.12287e-06
-1.51276e-06
3.87028e-06
4.77936e-06
-1.84359e-06
-9.85677e-07
2.91479e-06
8.93926e-07
4.36513e-07
2.76424e-06
1.13626e-06
9.15975e-07
-5.84254e-07
-1.20601e-06
-2.86746e-06
-4.91939e-07
-2.77434e-07
-9.52838e-07
-3.10999e-06
4.26281e-07
-1.66274e-06
-1.01995e-06
1.99789e-06
-4.70757e-06
-1.43556e-06
4.55415e-06
-3.7632e-06
-1.46281e-06
6.38139e-06
2.87034e-06
-5.01432e-07
6.48796e-06
6.38217e-06
-1.04516e-06
3.29772e-06
7.44885e-06
2.093e-06
1.67762e-06
4.06385e-06
9.33079e-06
3.45919e-07
2.15423e-06
6.49546e-06
1.07314e-06
1.1529e-06
-4.48314e-07
6.99891e-08
-5.00767e-06
-6.59198e-08
-1.62815e-06
-4.30506e-06
-4.78616e-08
-4.40985e-06
-4.67351e-06
1.2297e-06
-5.05985e-06
-5.97797e-06
3.17794e-06
9.89105e-07
-4.23393e-06
4.37925e-06
6.35063e-06
-2.75029e-06
3.86007e-06
8.43088e-06
2.22138e-06
2.50369e-06
5.14849e-06
8.68432e-06
1.52488e-06
4.30759e-06
7.71059e-06
6.30547e-06
1.17832e-06
1.88649e-07
6.71171e-07
-5.27083e-06
6.53355e-07
-1.25608e-06
-4.60712e-06
-3.62159e-07
-2.86827e-06
-5.2099e-06
-1.55592e-06
-3.65323e-06
-7.74611e-06
-1.02249e-06
8.42649e-07
-7.59165e-06
-9.8909e-08
5.83048e-06
-3.40921e-06
1.56466e-06
6.8853e-06
2.44504e-06
2.07757e-06
5.16616e-06
7.87321e-06
1.61716e-07
7.27719e-06
6.1806e-06
1.04248e-05
4.10628e-08
5.05435e-08
1.62898e-06
-2.97617e-06
4.27982e-07
-7.60237e-07
-2.75516e-06
-8.9996e-07
-1.46021e-06
-5.14896e-06
-3.15675e-06
-1.33986e-06
-8.29693e-06
-3.88401e-06
2.34209e-06
-8.83465e-06
-3.16834e-06
6.41235e-06
-4.77136e-06
-8.01723e-07
6.3449e-06
1.95545e-06
-3.7178e-07
6.63727e-06
6.20335e-06
-2.7593e-06
1.06328e-05
3.52602e-06
1.16202e-05
-1.63218e-06
-1.2692e-06
3.00187e-06
9.85249e-07
-2.01517e-06
-1.16572e-07
-1.00788e-06
-3.19922e-06
-7.27363e-07
-5.40141e-06
-4.93687e-06
4.38938e-07
-8.41605e-06
-5.83262e-06
4.08349e-06
-8.56763e-06
-4.7982e-06
8.10547e-06
-6.14503e-06
-2.7727e-06
8.62716e-06
-4.43245e-07
-3.04745e-06
9.85371e-06
2.85594e-06
-4.26077e-06
1.28104e-05
6.43097e-07
1.00328e-05
-3.63881e-06
-2.46062e-06
5.13344e-06
3.62204e-06
-4.40032e-06
1.70385e-06
-1.11512e-06
-5.65347e-06
1.42131e-07
-5.69962e-06
-6.71931e-06
1.52912e-06
-7.95142e-06
-7.14543e-06
5.29251e-06
-7.77005e-06
-5.70258e-06
9.86346e-06
-6.57001e-06
-3.73819e-06
1.19691e-05
-3.91213e-06
-3.50961e-06
1.3198e-05
-2.10585e-06
-2.25618e-06
1.33152e-05
-3.32334e-06
8.38663e-06
-5.9767e-06
-2.07529e-06
6.80173e-06
6.1217e-06
-4.88308e-06
4.38128e-06
3.83564e-08
-6.37575e-06
1.6781e-06
-5.27256e-06
-7.36376e-06
2.48455e-06
-7.06981e-06
-7.48543e-06
6.05907e-06
-7.13288e-06
-5.52104e-06
1.06097e-05
-6.70509e-06
-2.81871e-06
1.34203e-05
-6.4417e-06
-1.143e-06
1.43767e-05
-6.34337e-06
1.03407e-06
1.30104e-05
-7.00922e-06
8.87509e-06
-6.16836e-06
-2.53046e-07
6.97764e-06
8.00206e-06
-2.49476e-06
6.30746e-06
3.68991e-06
-4.53425e-06
4.34726e-06
-3.44804e-06
-6.34436e-06
4.07564e-06
-5.19388e-06
-6.64244e-06
6.58694e-06
-5.93047e-06
-4.55118e-06
1.02972e-05
-6.24578e-06
-1.44939e-06
1.27587e-05
-6.9798e-06
8.1362e-07
1.355e-05
-7.63151e-06
1.84564e-06
1.27306e-05
-6.89305e-06
1.01638e-05
-1.81362e-06
2.11087e-06
5.3235e-06
8.33381e-06
6.29277e-07
7.2435e-06
6.99997e-06
-8.68377e-07
6.00015e-06
3.09956e-07
-3.06985e-06
6.31839e-06
-3.19634e-06
-4.47841e-06
7.79117e-06
-3.8624e-06
-3.23341e-06
9.99179e-06
-4.74022e-06
-8.89378e-07
1.16252e-05
-5.59821e-06
4.62954e-07
1.23861e-05
-5.65865e-06
-3.46197e-07
1.29482e-05
-2.89674e-06
1.14835e-05
4.57031e-06
1.78795e-06
8.78313e-06
3.62683e-06
9.99613e-07
8.88426e-06
7.44507e-06
7.04623e-07
2.78063e-06
7.07867e-06
-3.30394e-07
-1.25949e-06
8.1844e-06
-1.95895e-06
-2.14797e-06
9.83094e-06
-1.83382e-06
-3.00289e-06
1.08254e-05
-7.43312e-07
-3.55265e-06
1.15185e-05
-8.55768e-07
-2.58664e-06
1.2288e-05
-3.21308e-06
1.68829e-06
1.42157e-05
8.86542e-06
1.20222e-05
-7.57822e-09
1.55092e-08
2.15189e-07
9.97058e-08
-1.13345e-07
3.85514e-07
2.31194e-07
-1.39332e-07
3.70794e-07
3.21752e-07
-1.06549e-07
3.44283e-07
3.63739e-07
-6.63942e-08
3.31395e-07
3.68367e-07
-3.32334e-08
3.32935e-07
3.43658e-07
-5.51109e-09
3.46284e-07
2.94014e-07
2.27236e-08
3.60608e-07
2.15779e-07
4.92382e-08
3.87229e-07
7.46969e-08
3.85107e-07
-6.43655e-08
9.36491e-08
1.47531e-07
3.7794e-08
-1.73421e-07
3.81918e-07
1.92743e-07
-2.53842e-07
3.80295e-07