/*--------------------------------*- C++ -*----------------------------------*\
| =========                 |                                                 |
| \\      /  F ield         | OpenFOAM: The Open Source CFD Toolbox           |
|  \\    /   O peration     | Version:  2312                                  |
|   \\  /    A nd           | Website:  www.openfoam.com                      |
|    \\/     M anipulation  |                                                 |
\*---------------------------------------------------------------------------*/
FoamFile
{
    version     2.0;
    format      ascii;
    arch        "LSB;label=32;scalar=64";
    class       volScalarField;
    location    "0.57";
    object      p;
}
// * * * * * * * * * * * * * * * * * * * * * * * * * * * * * * * * * * * * * //

dimensions      [1 -1 -2 0 0 0 0];

internalField   nonuniform List<scalar> 
8000
(
388.814
388.366
387.327
385.92
384.386
382.909
381.619
380.616
379.947
379.656
340.342
339.887
338.719
337.147
335.462
333.855
332.449
331.342
330.602
330.276
292.498
292.041
290.536
288.6
286.607
284.74
283.112
281.825
280.945
280.529
245.4
244.926
242.667
240.095
237.664
235.451
233.51
231.92
230.817
230.272
198.791
197.91
194.522
191.155
188.279
185.741
183.456
181.466
180.046
179.262
151.732
149.431
145.139
141.362
138.274
135.565
132.848
130.001
128.243
127.101
102.406
98.8489
94.9932
91.6471
88.6588
85.7823
82.4569
79.1027
75.6577
73.5776
53.9274
49.2248
44.4981
41.0043
39.5045
38.7884
36.4582
32.2447
28.023
25.5336
21.5011
13.8649
6.95477
4.78287
4.6042
5.26642
5.36746
4.02895
2.40437
2.57562
0.629987
-0.220998
-0.383338
-0.406152
-0.41295
-0.418849
-0.402319
-0.396761
-0.469711
-0.450131
-0.450743
-0.422915
-0.420994
-0.42978
-0.43846
-0.449005
-0.456515
-0.435902
-0.408224
-0.407038
-0.409926
-0.406874
-0.42276
-0.43966
-0.453874
-0.461854
-0.459742
-0.44933
-0.431604
-0.422376
-0.435396
-0.446484
-0.46631
-0.479419
-0.489882
-0.495305
-0.492913
-0.483025
-0.475623
-0.477251
-0.496708
-0.506567
-0.521608
-0.532982
-0.541715
-0.54506
-0.542713
-0.536799
-0.533015
-0.536594
-0.55969
-0.564762
-0.576292
-0.588911
-0.598377
-0.602527
-0.600378
-0.595329
-0.591474
-0.591568
-0.616633
-0.619524
-0.62832
-0.637015
-0.643381
-0.649776
-0.65255
-0.651436
-0.648887
-0.647084
-0.669453
-0.671668
-0.67746
-0.684245
-0.687979
-0.692747
-0.697548
-0.699946
-0.700504
-0.700046
-0.721881
-0.724011
-0.728168
-0.737194
-0.738547
-0.741116
-0.744709
-0.747384
-0.749279
-0.750083
-0.776579
-0.78067
-0.781198
-0.790882
-0.792871
-0.791991
-0.795051
-0.797349
-0.799294
-0.800591
-0.831427
-0.83918
-0.835312
-0.839714
-0.845168
-0.84294
-0.845799
-0.847972
-0.849962
-0.851601
388.38
387.99
387
385.635
384.143
382.706
381.449
380.466
379.812
379.542
339.907
339.543
338.429
336.887
335.232
333.655
332.277
331.189
330.451
330.143
292.08
291.856
290.4
288.434
286.427
284.571
282.963
281.684
280.821
280.392
245.007
245.11
242.945
240.187
237.604
235.335
233.389
231.8
230.709
230.164
198.16
198.275
195.097
191.513
188.402
185.732
183.413
181.519
180.058
179.26
149.964
149.23
145.192
141.344
138.156
135.371
132.799
130.267
128.193
126.954
99.4481
98.5809
94.2466
90.4928
87.4204
84.4087
81.1955
77.957
74.8418
72.5623
49.5382
46.8231
40.811
38.2545
37.0333
35.6565
32.9905
29.2613
25.6151
22.3968
13.4411
4.88256
3.20207
3.54036
3.75445
3.4342
2.75766
2.39084
1.8184
1.97495
-0.216541
-0.371562
-0.419708
-0.419211
-0.424002
-0.435089
-0.447617
-0.433121
-0.45212
-0.408465
-0.422707
-0.418095
-0.42814
-0.434211
-0.442846
-0.459102
-0.477956
-0.47925
-0.439607
-0.414588
-0.407787
-0.413773
-0.435108
-0.449895
-0.460308
-0.465655
-0.463975
-0.45721
-0.439977
-0.42958
-0.449899
-0.467873
-0.48399
-0.494043
-0.502609
-0.506166
-0.500097
-0.48666
-0.481008
-0.48907
-0.5089
-0.521777
-0.533185
-0.5448
-0.553527
-0.556396
-0.551683
-0.542554
-0.537198
-0.543383
-0.576123
-0.578087
-0.583891
-0.598008
-0.608347
-0.611864
-0.608384
-0.601628
-0.597401
-0.598727
-0.633006
-0.631687
-0.627998
-0.638391
-0.650693
-0.660241
-0.662203
-0.659831
-0.656893
-0.65635
-0.68137
-0.681953
-0.67367
-0.679815
-0.68948
-0.699562
-0.705815
-0.708734
-0.709166
-0.707895
-0.733849
-0.735958
-0.724646
-0.730651
-0.738206
-0.744442
-0.748515
-0.751788
-0.754054
-0.754635
-0.787177
-0.796282
-0.779832
-0.785607
-0.790276
-0.794602
-0.796908
-0.799145
-0.80138
-0.802884
-0.843505
-0.861675
-0.840628
-0.839706
-0.84049
-0.84534
-0.847206
-0.849225
-0.851501
-0.853457
387.36
387.019
386.139
384.904
383.536
382.207
381.037
380.12
379.515
379.27
338.762
338.451
337.486
336.109
334.599
333.145
331.864
330.848
330.16
329.865
290.601
290.427
289.237
287.534
285.732
284.038
282.556
281.366
280.531
280.11
242.77
242.975
241.396
239.113
236.832
234.785
233.028
231.611
230.607
230.166
194.741
195.174
193.182
190.364
187.623
185.22
183.153
181.453
180.141
179.431
145.544
145.407
142.808
139.936
137.255
134.858
132.736
130.672
128.855
127.706
95.3683
94.6042
91.2302
88.3294
85.8296
83.453
81.1045
78.853
76.5869
74.5576
44.8043
41.1803
38.405
36.9153
35.4422
33.9494
31.8511
29.0972
26.0945
22.5635
7.14042
3.14375
3.73551
4.37987
4.11309
3.40294
2.46106
2.20152
1.79549
1.45885
-0.380529
-0.412373
-0.414569
-0.40556
-0.412146
-0.410927
-0.42591
-0.457402
-0.451458
-0.362206
-0.418579
-0.426999
-0.428012
-0.424275
-0.431421
-0.44725
-0.461802
-0.456469
-0.418833
-0.386668
-0.421093
-0.433985
-0.445232
-0.451644
-0.459402
-0.465239
-0.472718
-0.464879
-0.444658
-0.431002
-0.465553
-0.481796
-0.493619
-0.502737
-0.513648
-0.521845
-0.521773
-0.511414
-0.505785
-0.51272
-0.516604
-0.53085
-0.541196
-0.549958
-0.559742
-0.569185
-0.570817
-0.561286
-0.554285
-0.561199
-0.57173
-0.583902
-0.589108
-0.596199
-0.60459
-0.612412
-0.617029
-0.614076
-0.606847
-0.609447
-0.63005
-0.635905
-0.631974
-0.635726
-0.645103
-0.652027
-0.658352
-0.661272
-0.660142
-0.660404
-0.685392
-0.684939
-0.675888
-0.676254
-0.686783
-0.695439
-0.701442
-0.706142
-0.708881
-0.709715
-0.731834
-0.735755
-0.726528
-0.725181
-0.734267
-0.742986
-0.747956
-0.752532
-0.756093
-0.757702
-0.780526
-0.788411
-0.781438
-0.780027
-0.786197
-0.793025
-0.7972
-0.801231
-0.804512
-0.806629
-0.83435
-0.844972
-0.841007
-0.837444
-0.839771
-0.844565
-0.847114
-0.850892
-0.854212
-0.857162
385.977
385.679
384.929
383.864
382.663
381.479
380.424
379.597
379.048
378.844
337.213
336.934
336.134
334.972
333.666
332.381
331.229
330.3
329.668
329.415
288.689
288.488
287.561
286.191
284.676
283.21
281.898
280.819
280.046
279.7
240.217
240.249
239.138
237.426
235.595
233.884
232.374
231.114
230.161
229.72
191.352
191.621
190.396
188.397
186.247
184.296
182.595
181.154
179.984
179.334
141.69
141.603
140.027
138.001
135.901
134.045
132.476
130.926
129.486
128.59
91.9634
90.9714
88.5308
86.1039
84.008
82.2722
80.8695
79.6412
78.4038
77.2603
41.336
38.7047
37.006
34.85
33.0196
31.9706
31.1764
29.7395
28.0844
25.9763
5.1026
3.36982
4.26476
4.11823
3.52325
3.03588
2.60098
2.3613
2.19665
1.80001
-0.408493
-0.418408
-0.410169
-0.389266
-0.379266
-0.367678
-0.376304
-0.415757
-0.42817
-0.361903
-0.428315
-0.435719
-0.434897
-0.424575
-0.41271
-0.418604
-0.43997
-0.448801
-0.424505
-0.396333
-0.440409
-0.450431
-0.459152
-0.458308
-0.45713
-0.47154
-0.49463
-0.497297
-0.473516
-0.450422
-0.479225
-0.492503
-0.503853
-0.510577
-0.518728
-0.537873
-0.555407
-0.548461
-0.530265
-0.536653
-0.530334
-0.542265
-0.549418
-0.555974
-0.567807
-0.587869
-0.604442
-0.603724
-0.580963
-0.580271
-0.582369
-0.592899
-0.597168
-0.600162
-0.608855
-0.624145
-0.638464
-0.644546
-0.629481
-0.626941
-0.630913
-0.637087
-0.638759
-0.640449
-0.6472
-0.657201
-0.667041
-0.676601
-0.674434
-0.672911
-0.679551
-0.682769
-0.683101
-0.683788
-0.690002
-0.698944
-0.705506
-0.713269
-0.718097
-0.718532
-0.727026
-0.731827
-0.733729
-0.732358
-0.738551
-0.746187
-0.751321
-0.757294
-0.762442
-0.764196
-0.775808
-0.782482
-0.785596
-0.785879
-0.791103
-0.795812
-0.799647
-0.804656
-0.809636
-0.812196
-0.827647
-0.835322
-0.842266
-0.841684
-0.844448
-0.845903
-0.848624
-0.853271
-0.85866
-0.863179
384.472
384.216
383.591
382.694
381.662
380.626
379.689
378.942
378.444
378.288
335.558
335.31
334.657
333.698
332.591
331.473
330.439
329.589
328.99
328.776
286.726
286.517
285.796
284.712
283.468
282.217
281.052
280.047
279.27
278.945
237.819
237.713
236.903
235.636
234.209
232.802
231.485
230.291
229.315
228.813
188.5
188.558
187.711
186.295
184.699
183.182
181.784
180.508
179.347
178.729
138.609
138.457
137.431
135.998
134.504
133.193
132.091
130.998
130.008
129.374
89.0069
87.9864
86.2058
84.2249
82.7608
81.8973
81.6162
81.6451
82.0708
82.0288
39.8149
37.6613
35.742
33.1762
31.8347
31.6864
32.3001
32.8709
33.9394
34.2022
4.8523
3.71467
4.13656
3.5987
3.27597
3.25012
3.22779
3.30132
3.85711
3.42813
-0.414716
-0.416291
-0.389799
-0.375439
-0.361332
-0.345535
-0.352189
-0.380336
-0.42623
-0.440981
-0.435309
-0.440639
-0.435817
-0.429975
-0.423318
-0.400718
-0.419942
-0.449561
-0.445781
-0.443083
-0.458473
-0.459667
-0.469087
-0.477436
-0.480669
-0.469097
-0.490727
-0.513389
-0.488191
-0.422122
-0.496193
-0.501974
-0.51108
-0.525954
-0.533918
-0.537388
-0.55704
-0.568613
-0.54801
-0.550867
-0.541928
-0.549536
-0.553654
-0.564378
-0.577738
-0.590719
-0.608283
-0.629687
-0.621085
-0.602162
-0.589552
-0.596713
-0.597836
-0.603864
-0.617143
-0.631519
-0.646871
-0.670126
-0.659154
-0.650444
-0.635352
-0.638966
-0.63987
-0.643687
-0.65519
-0.666844
-0.679828
-0.699053
-0.691758
-0.690261
-0.681592
-0.684499
-0.686237
-0.688243
-0.696685
-0.705556
-0.712842
-0.725149
-0.729815
-0.72992
-0.728926
-0.733427
-0.735318
-0.735998
-0.743261
-0.750392
-0.755878
-0.763463
-0.770886
-0.772257
-0.777401
-0.782206
-0.78594
-0.786646
-0.792212
-0.797216
-0.802324
-0.808705
-0.816384
-0.818401
-0.828745
-0.83314
-0.836837
-0.838191
-0.842071
-0.844977
-0.849401
-0.855816
-0.865156
-0.871626
383.027
382.813
382.297
381.547
380.666
379.764
378.923
378.243
377.776
377.648
333.985
333.771
333.241
332.452
331.514
330.535
329.598
328.807
328.212
328.041
284.898
284.707
284.146
283.29
282.264
281.177
280.099
279.082
278.206
277.804
235.656
235.507
234.917
233.978
232.856
231.65
230.398
229.103
227.824
227.031
186.027
185.976
185.391
184.409
183.246
182.022
180.702
179.15
177.469
176.374
135.968
135.772
135.145
134.237
133.29
132.326
131.306
130.167
128.693
129.284
86.2183
85.135
84.0361
82.7214
82.1392
82.1179
82.3765
82.8439
83.2207
83.9863
39.1646
36.7081
34.7075
32.5277
31.9939
32.4989
33.7457
35.8906
39.0622
39.7172
5.6684
3.66276
3.6413
3.24944
3.37395
3.72928
3.78473
4.0944
6.05128
7.2379
-0.418866
-0.408779
-0.378977
-0.36217
-0.350508
-0.352024
-0.350519
-0.364733
-0.432451
-0.65384
-0.447886
-0.451918
-0.434205
-0.425974
-0.436486
-0.441869
-0.443944
-0.458429
-0.493812
-0.624571
-0.472499
-0.472199
-0.474768
-0.478899
-0.504832
-0.507273
-0.504031
-0.511146
-0.504364
-0.510072
-0.512013
-0.514751
-0.514379
-0.524556
-0.547255
-0.552571
-0.547034
-0.550384
-0.551096
-0.538449
-0.550666
-0.55832
-0.557564
-0.567895
-0.588196
-0.599925
-0.602371
-0.62632
-0.635252
-0.611764
-0.592966
-0.601472
-0.60169
-0.61097
-0.631166
-0.645769
-0.664721
-0.688802
-0.688601
-0.676734
-0.636141
-0.641042
-0.644977
-0.651523
-0.669347
-0.687762
-0.708073
-0.726463
-0.712567
-0.718564
-0.680669
-0.685156
-0.689456
-0.693341
-0.70677
-0.722159
-0.732928
-0.743214
-0.745297
-0.749613
-0.726945
-0.731167
-0.734466
-0.737911
-0.747431
-0.758757
-0.764849
-0.768527
-0.778945
-0.783908
-0.774653
-0.777707
-0.780471
-0.783854
-0.790884
-0.79933
-0.806457
-0.810011
-0.821215
-0.825304
-0.824806
-0.827308
-0.82955
-0.832285
-0.837178
-0.842973
-0.849873
-0.856321
-0.86996
-0.88171
381.769
381.59
381.164
380.535
379.78
378.978
378.209
377.576
377.12
377.005
332.614
332.43
331.999
331.342
330.53
329.656
328.792
328.022
327.423
327.245
283.312
283.144
282.71
282.023
281.155
280.165
279.088
277.971
276.889
276.435
233.773
233.623
233.215
232.517
231.601
230.484
229.176
227.464
225.502
223.804
183.827
183.754
183.397
182.755
181.915
180.78
179.21
176.71
173.707
172.535
133.38
133.312
133.097
132.695
132.22
131.383
130.143
128.179
129.035
130.677
83.1319
82.0534
81.8396
81.3966
81.9256
82.5731
83.0504
83.2015
85.3341
89.2306
37.3568
34.4092
32.9546
31.8337
32.6216
34.0025
35.8731
39.3213
44.5812
47.932
5.97658
3.15201
2.91259
2.89473
3.42189
3.87847
3.84904
5.82484
11.0001
17.1426
-0.420001
-0.418063
-0.396126
-0.361056
-0.325636
-0.33623
-0.372841
-0.307965
-0.457804
3.69815
-0.459438
-0.461993
-0.436735
-0.417442
-0.410571
-0.450028
-0.504697
-0.497196
-0.725246
0.0477006
-0.477784
-0.479537
-0.478994
-0.475505
-0.485739
-0.532817
-0.558646
-0.574619
-0.267109
-0.509432
-0.516816
-0.520348
-0.521575
-0.528117
-0.540939
-0.560953
-0.552135
-0.52418
-0.498659
-0.460034
-0.553722
-0.564143
-0.566675
-0.57641
-0.587336
-0.600114
-0.602758
-0.627085
-0.618248
-0.558139
-0.593044
-0.605508
-0.611054
-0.622019
-0.640554
-0.668781
-0.685938
-0.713491
-0.72034
-0.68455
-0.633931
-0.642797
-0.652529
-0.662812
-0.687387
-0.722314
-0.742496
-0.75485
-0.759616
-0.76876
-0.677008
-0.68288
-0.69131
-0.70106
-0.721582
-0.75004
-0.761136
-0.771676
-0.775943
-0.795973
-0.722357
-0.725933
-0.730978
-0.73857
-0.754052
-0.774416
-0.778269
-0.779095
-0.788761
-0.812806
-0.769031
-0.771112
-0.773961
-0.778622
-0.788678
-0.802928
-0.810896
-0.807037
-0.821272
-0.840354
-0.818352
-0.819637
-0.821363
-0.82404
-0.829881
-0.838859
-0.848896
-0.85283
-0.867911
-0.89553
380.787
380.632
380.279
379.756
379.09
378.373
377.671
377.105
376.728
376.615
331.532
331.37
331.013
330.446
329.74
328.948
328.135
327.427
326.947
326.674
282.054
281.896
281.552
280.983
280.217
279.262
278.128
276.877
276.017
275.414
232.228
232.079
231.828
231.288
230.473
229.323
227.683
225.457
223.572
221.512
181.909
181.905
181.711
181.305
180.674
179.421
177.303
173.885
169.162
165.934
130.713
130.871
131.008
131.062
131.085
130.346
128.348
125.147
118.985
113.619
79.9003
78.9354
79.4507
79.9684
81.7637
83.1926
83.0397
82.8058
85.0823
69.383
33.3613
30.6075
29.637
29.7405
32.6085
36.0943
39.6997
44.5113
49.4957
36.2805
4.8241
2.78988
2.47107
2.40058
3.2314
4.26224
5.69744
12.0702
19.0378
9.53895
-0.404759
-0.407776
-0.3931
-0.362735
-0.308432
-0.282522
-0.328931
-1.27825
10.264
2.51493
-0.452755
-0.454309
-0.425634
-0.403271
-0.376146
-0.407355
-0.515019
-0.788334
5.99432
2.48594
-0.473304
-0.469035
-0.46795
-0.468644
-0.473182
-0.528297
-0.642802
-0.615708
0.880865
0.950616
-0.510194
-0.511456
-0.520017
-0.533096
-0.553887
-0.627767
-0.585176
-0.475811
-0.419736
-0.399603
-0.548412
-0.559692
-0.571222
-0.590932
-0.630557
-0.683148
-0.641498
-0.631175
-0.614484
-0.535663
-0.587304
-0.602129
-0.615643
-0.643449
-0.714746
-0.762801
-0.752115
-0.779808
-0.79495
-0.725664
-0.626698
-0.637652
-0.654142
-0.683159
-0.748251
-0.808905
-0.806557
-0.84007
-0.886251
-0.853569
-0.668918
-0.675188
-0.689613
-0.714121
-0.748144
-0.785055
-0.791071
-0.831555
-0.865895
-0.863506
-0.71317
-0.716272
-0.724764
-0.741074
-0.758992
-0.773458
-0.775957
-0.802653
-0.821235
-0.833949
-0.759319
-0.760356
-0.763422
-0.770752
-0.782428
-0.79362
-0.798081
-0.805485
-0.825708
-0.846289
-0.808717
-0.808664
-0.808997
-0.810839
-0.816536
-0.825758
-0.835384
-0.848502
-0.865057
-0.887019
380.125
379.99
379.692
379.231
378.649
378.004
377.364
376.918
376.672
376.701
330.801
330.646
330.345
329.855
329.208
328.475
327.74
327.207
326.919
326.848
281.183
281.041
280.737
280.241
279.517
278.551
277.282
276.446
275.455
275.221
231.135
230.992
230.819
230.332
229.545
228.288
226.369
224.58
220.974
220.009
180.485
180.444
180.36
180.053
179.503
177.844
174.518
168.122
162.247
159.793
128.877
128.755
129.039
129.366
129.84
128.658
127.631
119.601
105.985
95.4832
76.5712
75.7277
76.8207
78.2973
81.515
83.6717
84.0673
82.6722
60.1007
42.8641
29.0043
26.5838
25.9227
27.2906
32.974
39.3348
45.1033
45.9779
24.7423
17.2311
3.27771
2.30998
2.03487
2.08472
3.55623
6.17923
10.7871
15.75
7.43555
6.19519
-0.336401
-0.348606
-0.317343
-0.318572
-0.291667
-0.318219
-1.07185
2.1635
1.80455
2.20319
-0.438209
-0.431442
-0.400547
-0.373675
-0.358631
-0.361439
-0.812355
0.686633
0.517912
1.08173
-0.457634
-0.449093
-0.444921
-0.45689
-0.481453
-0.54879
-0.0986601
0.899557
0.137295
0.418613
-0.494506
-0.493918
-0.512904
-0.55294
-0.601165
-0.766678
-0.0487491
0.156051
-0.243749
-0.0760163
-0.535281
-0.549632
-0.573465
-0.621232
-0.697228
-0.665039
-0.478986
-0.885165
-0.644625
-0.428568
-0.573992
-0.592418
-0.620138
-0.675414
-0.775391
-0.760926
-0.808605
-0.81833
-0.62508
-0.762302
-0.612258
-0.625758
-0.656379
-0.707744
-0.750535
-0.863029
-0.808493
-0.826538
-0.831464
-0.937847
-0.654109
-0.66098
-0.685435
-0.721026
-0.713641
-0.711204
-0.792986
-0.791679
-0.865434
-0.903667
-0.698376
-0.699745
-0.710615
-0.728628
-0.72372
-0.716628
-0.741195
-0.77926
-0.791125
-0.830065
-0.745574
-0.743789
-0.742726
-0.744917
-0.75577
-0.767558
-0.770959
-0.783713
-0.815995
-0.871168
-0.796804
-0.794315
-0.789579
-0.783622
-0.782981
-0.796018
-0.816368
-0.827611
-0.860716
-0.899909
379.821
379.706
379.436
379.021
378.499
377.902
377.314
376.96
376.968
377.607
330.46
330.321
330.038
329.586
328.981
328.308
327.622
327.179
327.235
328.414
280.755
280.602
280.313
279.851
279.145
278.135
276.931
276.194
275.738
276.599
230.574
230.417
230.299
229.778
228.943
227.447
225.092
223.023
221.17
221.143
179.692
179.608
179.559
179.226
178.771
176.226
173.814
169.247
161.543
158.274
127.729
127.459
127.787
128.217
129.188
130.295
128.178
115.116
96.1387
92.4361
74.4542
73.2775
74.521
76.7262
80.8988
83.9072
83.218
72.286
42.1605
32.0572
26.2741
23.0112
22.0743
24.7287
32.3299
41.4794
45.0842
37.1522
17.2145
13.8369
2.86293
2.10496
1.5601
1.79069
3.6956
8.71742
15.6081
9.09343
7.83069
5.76813
-0.306099
-0.286719
-0.246041
-0.23038
-0.232786
-0.264208
-1.39059
3.28805
2.18697
2.67621
-0.421779
-0.400307
-0.367897
-0.349839
-0.339446
-0.350478
-1.09356
8.95942
0.588582
1.1669
-0.431851
-0.420497
-0.428004
-0.462092
-0.492045
-0.487916
0.0263857
8.22524
0.151913
0.314642
-0.47042
-0.473636
-0.51676
-0.583027
-0.650246
-0.86781
0.660199
1.23457
-0.220598
0.0290775
-0.515617
-0.545646
-0.579685
-0.622604
-0.680938
-0.594172
-0.0372664
-0.970327
-0.71494
-0.326052
-0.54896
-0.590002
-0.632087
-0.653881
-0.717261
-0.35196
-0.925612
-1.17019
-1.14975
-0.812611
-0.586739
-0.614998
-0.675134
-0.746213
-0.813737
-0.621312
-0.91149
-1.02524
-1.04289
-1.01127
-0.633598
-0.646766
-0.69421
-0.78252
-0.752524
-0.806192
-0.88078
-0.881472
-0.838236
-0.845438
-0.68188
-0.682452
-0.696222
-0.715248
-0.726643
-0.79892
-0.81921
-0.816697
-0.815581
-0.762726
-0.732202
-0.725907
-0.71342
-0.68715
-0.681596
-0.70399
-0.776946
-0.797777
-0.864348
-0.899576
-0.786384
-0.780297
-0.765465
-0.736116
-0.702127
-0.703813
-0.766082
-0.821589
-0.883948
-0.937586
379.879
379.769
379.512
379.118
378.629
378.087
377.583
377.296
377.266
377.696
330.52
330.384
330.114
329.687
329.12
328.524
327.987
327.675
327.717
328.325
280.82
280.676
280.406
279.965
279.301
278.395
277.503
276.867
276.38
276.748
230.639
230.49
230.38
229.874
229.025
227.632
226.079
224.446
222.528
221.286
179.763
179.688
179.642
179.297
178.541
175.918
173.888
169.094
161.666
159.271
127.805
127.538
127.96
128.363
129.026
129.968
126.388
113.797
98.4012
98.8145
74.5809
73.3697
74.8087
77.1848
81.2084
83.8248
85.4925
70.5017
43.3061
39.8528
26.7267
23.318
22.5579
25.2341
32.9284
40.7998
50.2171
40.3303
19.9574
15.5068
2.83589
2.08601
1.6803
2.01651
3.5917
7.6893
18.7891
15.096
9.8756
7.67952
-0.378348
-0.300387
-0.241373
-0.204411
-0.200314
-0.466072
9.37188
5.55111
3.18179
2.62562
-0.393647
-0.372094
-0.333295
-0.326771
-0.301615
-0.551428
7.18974
1.00861
0.586216
0.794911
-0.399555
-0.391116
-0.40091
-0.40805
-0.425065
0.723214
-0.304732
0.218711
0.147132
0.304034
-0.440904
-0.449956
-0.49244
-0.557527
-0.197746
-0.362781
-0.229105
-0.193112
-0.235815
-0.0573579
-0.493652
-0.550036
-0.563856
-0.503528
-0.518534
-0.598361
-0.666797
-0.784436
-0.732525
-0.499989
-0.499394
-0.572363
-0.594034
-0.575631
-0.710155
-0.795056
-0.949969
-1.09808
-1.01283
-0.836612
-0.528669
-0.565453
-0.647475
-0.692101
-0.783528
-0.926952
-1.00849
-1.11829
-1.02799
-0.873641
-0.606273
-0.617947
-0.668812
-0.739332
-0.842253
-0.925248
-0.906975
-1.00422
-0.94034
-0.712085
-0.672591
-0.676064
-0.691753
-0.721973
-0.748509
-0.757292
-0.821439
-0.864983
-0.90943
-0.698371
-0.728513
-0.72809
-0.726731
-0.717233
-0.682388
-0.674714
-0.747969
-0.819475
-0.903052
-0.891301
-0.784099
-0.78208
-0.776797
-0.761989
-0.72839
-0.701298
-0.750732
-0.838057
-0.910212
-0.575221
380.294
380.168
379.903
379.495
378.995
378.462
377.963
377.577
377.229
377.056
330.969
330.805
330.554
330.128
329.576
328.996
328.457
328.065
327.725
327.3
281.367
281.26
280.971
280.54
279.946
279.218
278.422
277.685
276.821
275.688
231.315
231.183
231.041
230.618
229.96
229.02
227.696
226.11
223.813
221.876
180.66
180.617
180.535
180.254
179.704
178.269
175.929
173.07
166.427
163.453
129.019
128.838
129.188
129.491
129.858
128.832
128.159
123.929
112.316
108.656
76.6047
75.637
76.8342
78.3661
81.4
82.7047
83.5458
82.0169
68.01
56.7912
29.3318
26.7875
26.5319
27.9973
32.9946
37.7125
43.6025
45.323
32.5248
24.7342
2.99624
2.38216
2.20652
2.28084
3.63595
6.49243
7.73254
20.6269
13.8637
8.84154
-0.3875
-0.345862
-0.304822
-0.236093
-0.122722
-0.425339
2.61661
7.27673
4.91865
2.85273
-0.380087
-0.398388
-0.345729
-0.284582
-0.439293
4.49488
2.11185
0.00289135
0.375157
0.514567
-0.395792
-0.397196
-0.379867
-0.308015
0.474741
-0.532583
-0.385753
-0.102357
0.0350415
0.148642
-0.447762
-0.469509
-0.49236
-0.44637
-0.692361
-0.609661
-0.426364
-0.300301
-0.231018
-0.165529
-0.515063
-0.583623
-0.646084
-0.83659
-0.793406
-0.740826
-0.672126
-0.628965
-0.543798
-0.457294
-0.46112
-0.520408
-0.647007
-0.798219
-0.818512
-0.831754
-0.863109
-0.890033
-0.82007
-0.699807
-0.446483
-0.465705
-0.608527
-0.762703
-0.808839
-0.875601
-0.943428
-1.00052
-0.9326
-0.797686
-0.559794
-0.57623
-0.660107
-0.73662
-0.803313
-0.881074
-0.917886
-0.961794
-0.941662
-0.778591
-0.655672
-0.661491
-0.683656
-0.723178
-0.763946
-0.80377
-0.824568
-0.866667
-0.912011
-0.79058
-0.723521
-0.726512
-0.732906
-0.739164
-0.738698
-0.735375
-0.768382
-0.824874
-0.899488
-0.936754
-0.78366
-0.78359
-0.783205
-0.77971
-0.770158
-0.759807
-0.78046
-0.846435
-0.919715
-1.02367
381.05
380.909
380.59
380.12
379.557
378.967
378.404
377.917
377.368
376.972
331.798
331.647
331.328
330.835
330.227
329.599
328.997
328.445
327.778
327.082
282.33
282.19
281.88
281.39
280.766
280.06
279.302
278.484
277.095
275.231
232.5
232.348
232.129
231.662
231.014
230.19
229.161
227.691
225.013
223.046
182.183
182.179
181.954
181.577
181.041
180.004
178.574
176.416
172.85
172.829
130.947
130.986
131.114
131.134
131.151
130.58
129.799
128.464
129.419
129.045
79.8449
78.799
79.2665
79.7625
81.3498
82.6006
83.0605
83.7518
86.1414
86.5883
33.3935
30.6301
29.8564
29.9893
31.9344
34.4106
37.3841
41.6452
47.4995
44.8454
4.5819
2.76521
2.48566
2.50532
2.93538
3.09403
4.20827
8.54093
16.7364
18.6735
-0.374838
-0.382837
-0.344243
-0.292551
-0.257969
-0.53293
-0.628615
3.11196
13.9219
14.7526
-0.419495
-0.443261
-0.398303
-0.372908
-0.383701
-0.382259
-0.230456
-0.274482
-0.0948969
0.0687785
-0.421943
-0.426406
-0.432629
-0.505433
-0.492556
-0.462471
-0.34028
-0.259642
-0.191202
-0.0840055
-0.481325
-0.511229
-0.551871
-0.64724
-0.615812
-0.563211
-0.459641
-0.372907
-0.308208
-0.260962
-0.549731
-0.639537
-0.766384
-0.776685
-0.723944
-0.694514
-0.651297
-0.595333
-0.52663
-0.464991
-0.545436
-0.634199
-0.787641
-0.842283
-0.807328
-0.807624
-0.811843
-0.777444
-0.71328
-0.634401
-0.54888
-0.582223
-0.657396
-0.755248
-0.809434
-0.862238
-0.897576
-0.879825
-0.814845
-0.720493
-0.615324
-0.628306
-0.664187
-0.722311
-0.777462
-0.835258
-0.874296
-0.860862
-0.838946
-0.747316
-0.678491
-0.688562
-0.703175
-0.725782
-0.756344
-0.789761
-0.815232
-0.81009
-0.825424
-0.782506
-0.73497
-0.739906
-0.747887
-0.755617
-0.762971
-0.768714
-0.779231
-0.797726
-0.832972
-0.845084
-0.790686
-0.792054
-0.794204
-0.795978
-0.796061
-0.796234
-0.803815
-0.832497
-0.868025
-0.903301
382.104
381.938
381.54
380.963
380.292
379.606
378.953
378.386
377.791
377.46
332.954
332.782
332.376
331.771
331.047
330.31
329.615
328.976
328.225
327.801
283.662
283.503
283.089
282.46
281.705
280.911
280.104
279.276
277.924
276.495
234.127
233.975
233.559
232.894
232.096
231.216
230.24
229.016
226.26
224.314
184.18
184.088
183.657
182.98
182.209
181.306
180.229
178.747
176.698
178.392
133.659
133.505
133.152
132.64
132.111
131.486
130.944
130.376
129.771
137.165
83.2772
82.0432
81.438
80.7386
81.0147
81.6186
82.421
83.5559
84.6592
89.5298
37.4963
34.4601
32.4475
31.0098
31.0906
31.9268
33.0528
36.9468
41.9394
47.3186
5.99231
3.06607
2.55759
2.41371
2.6049
1.97198
1.46076
3.87472
9.00298
12.268
-0.388015
-0.399139
-0.345221
-0.28058
-0.242929
-0.339852
-0.431458
0.0120998
3.5997
5.61058
-0.433445
-0.435004
-0.405543
-0.367985
-0.343404
-0.354187
-0.324568
-0.278088
-0.199847
-0.116861
-0.437195
-0.428076
-0.424175
-0.4342
-0.434468
-0.443997
-0.422186
-0.344554
-0.270951
-0.219928
-0.488726
-0.496595
-0.511441
-0.526407
-0.534604
-0.525417
-0.487629
-0.424639
-0.371142
-0.329349
-0.547946
-0.584711
-0.6268
-0.65642
-0.663167
-0.651657
-0.631337
-0.585852
-0.532518
-0.47889
-0.585465
-0.630862
-0.700365
-0.767179
-0.78216
-0.770942
-0.75736
-0.715951
-0.652781
-0.596747
-0.610767
-0.641193
-0.687003
-0.756477
-0.799283
-0.825243
-0.823809
-0.790515
-0.723246
-0.671621
-0.649599
-0.667513
-0.690494
-0.728467
-0.767428
-0.791674
-0.8014
-0.783053
-0.753935
-0.714518
-0.696101
-0.706174
-0.719151
-0.735014
-0.752057
-0.766578
-0.773823
-0.761148
-0.765931
-0.752155
-0.746441
-0.750597
-0.757824
-0.765112
-0.77117
-0.775042
-0.775011
-0.780411
-0.79489
-0.799129
-0.79846
-0.800135
-0.803263
-0.806026
-0.808009
-0.809606
-0.812027
-0.824578
-0.840944
-0.848584
383.414
383.207
382.709
381.994
381.175
380.358
379.605
378.973
378.418
378.19
334.38
334.172
333.655
332.898
332.019
331.132
330.319
329.623
328.928
328.716
285.309
285.119
284.559
283.728
282.775
281.824
280.932
280.123
279.133
278.962
236.089
235.929
235.303
234.352
233.287
232.24
231.25
230.282
228.588
228.003
186.481
186.397
185.707
184.631
183.458
182.369
181.412
180.416
178.97
180.996
136.417
136.122
135.275
134.153
133.087
132.223
131.595
131.228
131.092
132.815
86.7052
85.4069
83.8123
82.0372
81.0767
81.0007
81.3968
82.5333
84.5799
87.3823
39.6854
36.9608
34.5163
31.6254
30.1734
29.9549
31.0835
33.1868
38.4183
43.2054
5.92325
3.59205
3.3708
2.79098
2.565
2.46398
1.82061
2.29556
6.37188
12.0176
-0.385096
-0.385446
-0.351128
-0.306395
-0.271131
-0.280087
-0.417953
-0.501549
-0.0947718
0.390108
-0.416064
-0.408512
-0.384932
-0.356199
-0.349328
-0.367507
-0.391662
-0.390365
-0.332421
-0.287855
-0.432642
-0.421776
-0.401971
-0.391293
-0.402249
-0.419982
-0.443725
-0.438851
-0.430367
-0.412003
-0.474654
-0.477507
-0.480481
-0.47802
-0.489953
-0.492329
-0.484527
-0.456175
-0.431886
-0.421693
-0.528774
-0.546216
-0.567967
-0.583211
-0.598318
-0.598394
-0.578779
-0.546361
-0.513997
-0.490174
-0.579226
-0.604046
-0.634419
-0.671011
-0.699183
-0.694532
-0.66803
-0.631673
-0.593994
-0.564345
-0.617801
-0.640746
-0.6639
-0.698202
-0.733583
-0.740179
-0.724161
-0.691474
-0.65691
-0.628482
-0.657666
-0.672482
-0.688607
-0.7063
-0.730021
-0.73867
-0.732636
-0.714634
-0.700448
-0.681139
-0.703652
-0.710613
-0.721448
-0.73065
-0.739314
-0.743538
-0.739687
-0.73359
-0.738252
-0.731449
-0.753076
-0.756239
-0.762342
-0.766941
-0.770613
-0.772218
-0.770667
-0.774752
-0.783082
-0.787111
-0.803986
-0.806723
-0.809405
-0.811175
-0.812941
-0.813739
-0.814976
-0.822228
-0.834069
-0.846972
384.891
384.639
384.02
383.141
382.145
381.162
380.282
379.571
379.029
378.812
335.989
335.742
335.089
334.142
333.068
332.005
331.044
330.26
329.631
329.413
287.182
286.967
286.23
285.144
283.93
282.754
281.703
280.825
280.041
279.824
238.319
238.19
237.325
236.014
234.588
233.255
232.102
231.152
230.247
230.278
189.064
189.073
188.096
186.551
184.883
183.399
182.207
181.271
180.512
180.356
139.249
139.01
137.735
136.027
134.309
132.91
131.924
131.236
130.952
131.373
89.7705
88.5817
86.3644
83.8745
81.8823
80.6899
80.3415
80.5288
81.4652
82.9186
40.5938
38.2134
36.0426
32.7851
30.2244
29.1334
29.2365
29.6814
31.8755
34.9005
5.22735
3.82797
4.09691
3.35624
2.64345
2.27062
1.88877
1.79748
3.08325
5.81757
-0.367223
-0.365069
-0.345195
-0.314746
-0.295792
-0.288905
-0.339696
-0.465142
-0.619967
-0.463146
-0.394491
-0.386585
-0.364455
-0.353265
-0.351872
-0.371767
-0.404347
-0.443106
-0.469196
-0.474498
-0.416749
-0.413575
-0.390309
-0.386507
-0.389302
-0.400353
-0.424032
-0.461354
-0.515106
-0.549677
-0.458965
-0.46502
-0.464117
-0.461949
-0.467553
-0.469041
-0.46473
-0.458928
-0.459154
-0.466602
-0.511435
-0.524447
-0.531798
-0.539429
-0.548874
-0.545778
-0.531856
-0.515964
-0.501853
-0.492362
-0.564465
-0.584698
-0.59222
-0.605971
-0.613333
-0.61289
-0.597486
-0.577398
-0.561244
-0.546507
-0.608282
-0.62923
-0.637615
-0.646886
-0.658371
-0.660854
-0.648226
-0.631358
-0.619992
-0.60467
-0.651773
-0.664118
-0.674927
-0.679812
-0.687097
-0.691186
-0.683715
-0.674515
-0.672275
-0.662258
-0.702026
-0.707161
-0.715623
-0.71944
-0.721597
-0.723986
-0.719687
-0.717721
-0.721001
-0.717304
-0.753893
-0.75694
-0.761287
-0.762765
-0.764506
-0.766148
-0.764603
-0.76651
-0.771038
-0.772857
-0.806017
-0.809574
-0.810407
-0.807994
-0.812525
-0.813291
-0.813334
-0.816741
-0.82219
-0.827648
386.413
386.114
385.362
384.302
383.116
381.956
380.931
380.122
379.555
379.321
337.663
337.38
336.572
335.407
334.11
332.849
331.73
330.836
330.198
329.942
289.166
288.952
288.004
286.615
285.098
283.655
282.396
281.385
280.635
280.352
240.75
240.742
239.574
237.808
235.944
234.236
232.787
231.651
230.791
230.543
191.988
192.206
190.843
188.7
186.439
184.438
182.802
181.544
180.658
180.463
142.479
142.355
140.551
138.231
135.834
133.733
132.098