/*--------------------------------*- C++ -*----------------------------------*\
| =========                 |                                                 |
| \\      /  F ield         | OpenFOAM: The Open Source CFD Toolbox           |
|  \\    /   O peration     | Version:  2312                                  |
|   \\  /    A nd           | Website:  www.openfoam.com                      |
|    \\/     M anipulation  |                                                 |
\*---------------------------------------------------------------------------*/
FoamFile
{
    version     2.0;
    format      ascii;
    arch        "LSB;label=32;scalar=64";
    class       surfaceScalarField;
    location    "0.78";
    object      phi;
}
// * * * * * * * * * * * * * * * * * * * * * * * * * * * * * * * * * * * * * //

dimensions      [0 3 -1 0 0 0 0];

oriented        oriented;

internalField   nonuniform List<scalar> 
22600
(
7.1598e-08
7.06167e-09
2.67198e-08
3.21352e-08
4.51079e-09
3.49519e-08
-1.00074e-08
-7.02668e-09
4.91693e-08
-5.26446e-08
-2.19862e-08
6.46234e-08
-8.78099e-08
-4.14699e-08
7.66352e-08
-1.07165e-07
-6.67095e-08
8.60649e-08
-1.07273e-07
-9.19877e-08
9.20949e-08
-7.35115e-08
-1.28042e-07
9.42808e-08
-3.1115e-08
-1.45063e-07
1.02666e-07
-1.405e-07
1.09385e-07
8.56552e-08
7.07882e-09
2.46665e-08
5.6513e-08
7.20087e-09
2.64521e-08
2.95014e-08
-1.44017e-08
3.43866e-08
7.8225e-09
-4.61244e-08
4.58171e-08
-1.11969e-08
-7.99691e-08
5.75186e-08
-2.56771e-08
-1.18297e-07
6.60679e-08
-3.06581e-08
-1.52442e-07
6.54358e-08
-1.34661e-08
-2.01801e-07
5.65668e-08
3.6897e-09
-2.30042e-07
6.7823e-08
-2.14513e-07
7.77022e-08
7.49316e-08
-4.90239e-08
9.04604e-08
2.94577e-08
-2.25204e-08
7.51952e-08
-5.5711e-09
-5.18601e-08
7.24872e-08
-3.38735e-08
-9.54599e-08
7.7638e-08
-5.94255e-08
-1.35635e-07
8.12183e-08
-8.3518e-08
-1.73503e-07
7.92985e-08
-9.49605e-08
-2.08515e-07
6.75145e-08
-7.71817e-08
-2.93025e-07
7.34454e-08
-4.31966e-08
-4.09104e-07
1.45077e-07
-4.00744e-07
1.43035e-07
1.13392e-07
-3.33845e-07
2.85421e-07
3.48385e-08
-1.71446e-07
2.27479e-07
-2.78421e-08
-1.73054e-07
1.83874e-07
-8.71009e-08
-1.94033e-07
1.57832e-07
-1.4644e-07
-2.08188e-07
1.31891e-07
-1.8213e-07
-2.46304e-07
1.08491e-07
-1.84125e-07
-3.25785e-07
1.19266e-07
-2.03961e-07
-5.16132e-07
2.42943e-07
-1.77995e-07
-8.93788e-07
4.58718e-07
-8.89996e-07
3.11257e-07
1.43103e-07
-9.94115e-07
5.69528e-07
1.13108e-07
-6.46173e-07
5.04723e-07
4.89106e-08
-5.70103e-07
4.61247e-07
-1.23428e-08
-5.30583e-07
3.97804e-07
-7.17159e-08
-4.53181e-07
3.04367e-07
-1.3956e-07
-4.14585e-07
2.36125e-07
-2.86941e-07
-4.84855e-07
3.06451e-07
-5.37441e-07
-8.72984e-07
6.07353e-07
-5.0696e-07
-1.86853e-06
9.44264e-07
-2.15909e-06
7.62137e-07
-2.67964e-07
-1.38788e-06
5.04472e-07
-1.62334e-07
-1.19602e-06
4.44219e-07
-5.27556e-08
-1.20382e-06
5.24141e-07
1.06421e-07
-1.2842e-06
5.94444e-07
1.46955e-07
-1.05895e-06
5.65238e-07
-3.79652e-08
-7.39755e-07
5.10091e-07
-4.15546e-07
-7.64922e-07
6.57648e-07
-6.78054e-07
-1.60224e-06
9.91768e-07
-6.48101e-07
-3.18001e-06
1.28153e-06
-3.91904e-06
1.11185e-06
-5.05603e-07
-8.84068e-07
-1.16419e-07
-5.4712e-07
-1.04354e-06
-1.10962e-07
-4.79171e-07
-1.4384e-06
1.66628e-07
-2.62008e-07
-1.98363e-06
4.82262e-07
-1.18969e-07
-1.95385e-06
7.51857e-07
-2.87976e-07
-1.42726e-06
8.56516e-07
-5.88243e-07
-1.52569e-06
1.06103e-06
-6.50071e-07
-2.90469e-06
1.36427e-06
-7.28579e-07
-4.40973e-06
1.30823e-06
-5.14128e-06
4.93657e-07
-6.12178e-07
1.4449e-06
-1.87349e-06
-6.45977e-07
8.47487e-07
-1.85723e-06
-3.41057e-07
-8.17837e-08
-1.66154e-06
-5.9372e-09
-1.28178e-06
-1.03697e-06
2.62257e-07
-2.02064e-06
-2.01402e-07
1.52377e-07
-1.94862e-06
6.31238e-07
1.95261e-08
-2.38371e-06
9.90869e-07
-2.36085e-07
-3.88071e-06
1.23163e-06
-7.86809e-07
-5.19264e-06
1.33364e-06
-5.44779e-06
-4.803e-07
-1.60091e-06
4.79299e-06
-2.97019e-06
-1.35998e-06
3.96774e-06
-3.36118e-06
-8.54307e-07
2.66234e-06
-3.2498e-06
-4.62386e-07
1.43148e-06
-3.10518e-06
-8.45112e-08
5.23476e-07
-2.92199e-06
3.00591e-07
-2.0945e-07
-2.12427e-06
6.27383e-07
-1.34602e-06
-1.36448e-06
3.64769e-07
-3.23034e-06
-3.87758e-07
-6.12987e-07
-5.14544e-06
9.30546e-07
-4.98528e-06
-1.07549e-06
-3.02223e-06
4.94503e-06
1.34102e-07
-2.96398e-06
1.07928e-06
2.83021e-06
-2.39506e-06
6.71731e-07
1.4217e-06
-2.13986e-06
3.69017e-07
8.07259e-07
-1.80723e-06
-8.74805e-07
1.06565e-06
-1.58741e-06
-6.33656e-07
2.0438e-07
-3.34706e-07
-2.31705e-06
-2.81663e-07
3.57516e-07
-3.76168e-06
-1.60875e-07
-5.10256e-07
-5.02583e-06
7.48163e-07
-4.91148e-06
-5.84059e-07
-4.53961e-06
5.73742e-06
-1.51375e-06
-5.40074e-06
3.90213e-06
-1.96173e-06
-6.07408e-06
3.56729e-06
-2.22221e-06
-6.86163e-06
2.27673e-06
-1.12016e-06
-7.56003e-06
-3.72487e-07
1.96075e-07
-5.89176e-06
-3.21586e-06
9.13937e-07
-2.57963e-06
-6.69218e-06
1.063e-06
-1.91987e-07
-7.13388e-06
9.84559e-07
-1.83702e-07
-5.54363e-06
5.09516e-07
-4.73589e-06
-3.59291e-07
-6.72668e-06
1.1067e-05
-3.71768e-06
-7.79609e-06
8.79374e-06
-3.82222e-06
-8.05816e-06
8.03524e-06
-4.20588e-06
-8.5172e-06
6.68739e-06
-3.95162e-06
-9.38642e-06
3.39292e-06
-2.89619e-06
-8.93649e-06
-1.65775e-06
-2.00802e-06
-7.14314e-06
-6.04263e-06
-2.44289e-06
-3.10432e-06
-9.97183e-06
-1.20088e-06
-2.12549e-07
-7.95823e-06
-4.77163e-07
-4.7521e-06
-1.96334e-07
-7.36624e-06
1.60193e-05
-2.05217e-06
-8.86495e-06
1.34777e-05
-3.18524e-06
-8.75051e-06
1.2366e-05
-4.44523e-06
-8.13135e-06
1.05312e-05
-4.46296e-06
-7.84743e-06
6.90362e-06
-3.79463e-06
-8.25358e-06
2.434e-06
-3.6856e-06
-7.5024e-06
-1.88357e-06
-4.91023e-06
-5.69912e-06
-5.30906e-06
-6.46605e-06
-1.05388e-06
-9.42722e-06
-3.17625e-06
-6.83215e-06
1.02617e-06
-7.20886e-06
1.78896e-05
1.37939e-06
-9.30686e-06
1.62344e-05
-6.58708e-07
-9.6602e-06
1.53823e-05
-2.66291e-06
-9.58792e-06
1.34231e-05
-2.96419e-06
-9.85296e-06
9.52362e-06
-2.35496e-06
-8.83517e-06
4.67444e-06
-3.25823e-06
-5.8189e-06
1.09089e-06
-5.99073e-06
-3.56575e-06
-1.04495e-06
-6.51725e-06
-4.58709e-07
-1.16184e-05
-9.15877e-07
-8.54756e-06
1.2567e-06
-5.88048e-06
1.58568e-05
4.20403e-06
-7.96526e-06
1.5583e-05
2.73618e-06
-9.17883e-06
1.64448e-05
1.51071e-07
-9.83324e-06
1.46577e-05
-5.80226e-07
-9.71558e-06
1.02056e-05
-7.99671e-07
-7.3275e-06
5.08744e-06
-2.80109e-06
-2.46351e-06
2.06784e-06
-5.84095e-06
4.15899e-06
1.10997e-07
-7.77845e-06
3.30935e-06
-4.14995e-06
-6.61881e-06
-4.58779e-06
-6.50432e-07
-4.34712e-06
1.10854e-05
5.29497e-06
-4.84214e-06
1.13843e-05
4.69374e-06
-6.49901e-06
1.48435e-05
3.2581e-06
-8.40705e-06
1.43428e-05
2.22296e-06
-8.55377e-06
9.78978e-06
5.62589e-07
-4.46799e-06
3.92031e-06
-2.91864e-06
1.57079e-06
1.15238e-06
-5.12331e-06
6.52681e-06
5.58612e-07
-5.40365e-06
4.89722e-06
2.13805e-06
-4.6584e-06
3.54652e-07
-4.52441e-08
-2.83487e-06
6.49108e-06
4.58721e-06
-1.93178e-06
5.91177e-06
4.56945e-06
-3.44964e-06
1.17098e-05
4.65163e-06
-6.55973e-06
1.32391e-05
4.21381e-06
-7.19572e-06
8.70525e-06
1.72053e-06
-2.0533e-06
2.30567e-06
-3.52778e-06
3.78046e-06
3.42822e-07
-5.02421e-06
6.46754e-06
1.86656e-06
-3.99502e-06
5.79798e-06
4.88828e-06
-2.08066e-06
3.58465e-06
2.56797e-06
-1.16254e-07
4.15265e-06
2.66591e-06
-1.8832e-07
3.21768e-06
2.76615e-06
-2.08762e-06
9.65719e-06
3.95187e-06
-5.74846e-06
1.20186e-05
4.88128e-06
-6.18708e-06
7.12709e-06
2.01679e-06
-7.71608e-07
9.39299e-07
-4.04911e-06
4.39348e-06
8.01846e-07
-5.62412e-06
7.17085e-06
3.64151e-06
-4.55233e-06
5.94429e-06
7.03861e-06
-9.23758e-07
6.1186e-06
3.41033e-06
2.0419e-06
3.68126e-06
1.24471e-06
1.01247e-07
3.82421e-06
1.33412e-06
-2.97136e-06
1.02379e-05
2.4919e-06
-6.66791e-06
1.12551e-05
4.46015e-06
-5.35754e-06
5.81787e-06
-1.14216e-09
8.78008e-08
1.15581e-06
-5.66185e-06
4.45283e-06
2.85937e-06
-6.42255e-06
7.50674e-06
6.28318e-06
-5.69559e-06
5.9865e-06
9.54704e-06
-9.88187e-07
8.33155e-06
3.77354e-06
2.63436e-06
1.16733e-06
3.47334e-06
-1.04351e-06
1.44803e-06
6.05406e-06
-4.9174e-06
1.8027e-06
1.23091e-05
-7.72082e-06
2.96014e-06
1.10983e-05
-4.54509e-06
-2.66443e-06
5.30658e-06
3.15389e-07
-6.80746e-06
3.10279e-06
4.26876e-06
-7.1208e-06
6.0268e-06
7.4311e-06
-6.66979e-06
9.79062e-06
5.9529e-06
-1.52655e-06
1.25518e-05
3.89575e-06
1.03887e-05
3.92941e-08
-5.4566e-08
1.56141e-07
-3.421e-08
-4.84677e-08
1.56924e-07
-9.78437e-08
-5.39659e-08
1.66769e-07
-1.44577e-07
-6.72872e-08
1.78644e-07
-1.75465e-07
-8.32911e-08
1.90814e-07
-1.8457e-07
-1.07383e-07
2.02554e-07
-1.66186e-07
-1.40028e-07
2.13739e-07
-9.65899e-08
-1.99336e-07
2.2402e-07
-2.48384e-08
-2.11295e-07
2.4221e-07
-1.37071e-07
2.21617e-07
5.94154e-08
-1.22227e-07
1.50373e-07
-7.07723e-11
-1.01023e-07
1.38494e-07
-5.15944e-08
-1.07754e-07
1.39699e-07
-9.38502e-08
-1.28168e-07
1.48954e-07
-1.24849e-07
-1.56086e-07
1.61312e-07
-1.40693e-07
-1.9686e-07
1.71389e-07
-1.30911e-07
-2.59361e-07
1.74986e-07
-5.64379e-08
-3.96883e-07
1.7964e-07
1.12258e-08
-4.17364e-07
2.06228e-07
-2.15718e-07
1.67575e-07
2.96622e-08
-1.50526e-07
2.11206e-07
-6.02437e-08
-1.15985e-07
1.80063e-07
-1.28936e-07
-1.36049e-07
1.69474e-07
-1.78133e-07
-1.765e-07
1.75167e-07
-2.20344e-07
-2.18178e-07
1.85521e-07
-2.66193e-07
-2.63535e-07
1.91823e-07
-2.8836e-07
-3.74588e-07
2.04908e-07
-1.86183e-07
-6.99315e-07
2.73701e-07
-3.80443e-08
-7.95169e-07
3.74743e-07
-3.66056e-07
2.5533e-07
3.21692e-08
-1.39285e-07
3.64472e-07
-9.53519e-08
-6.88712e-08
3.07887e-07
-2.0391e-07
-1.08765e-07
2.65148e-07
-2.97405e-07
-1.70268e-07
2.45096e-07
-3.82894e-07
-2.44765e-07
2.43966e-07
-4.74761e-07
-3.15474e-07
2.52298e-07
-5.32562e-07
-5.26357e-07
3.28836e-07
-5.02298e-07
-1.08433e-06
5.97698e-07
-2.82162e-07
-1.36376e-06
8.07173e-07
-7.68637e-07
4.31676e-07
1.10644e-07
-1.14084e-07
5.54918e-07
-2.21865e-08
7.58967e-08
4.92785e-07
-1.795e-07
5.05728e-08
4.59222e-07
-3.1527e-07
-6.36066e-08
4.26913e-07
-3.99557e-07
-2.41089e-07
3.84979e-07
-5.08435e-07
-3.44415e-07
3.73943e-07
-7.0408e-07
-5.88817e-07
5.64556e-07
-9.20589e-07
-1.3441e-06
1.08363e-06
-6.63352e-07
-2.04871e-06
1.37198e-06
-1.49858e-06
8.28725e-07
1.31508e-08
-7.28848e-08
5.49441e-07
-3.47883e-08
9.51768e-08
4.72877e-07
-3.84205e-08
3.46201e-09
5.74884e-07
-7.10418e-08
-7.58382e-08
6.39296e-07
-1.85305e-07
-2.44803e-07
6.83215e-07
-3.86033e-07
-3.62897e-07
7.29301e-07
-7.04706e-07
-6.35566e-07
1.02307e-06
-9.77784e-07
-1.64448e-06
1.56522e-06
-7.71737e-07
-2.69548e-06
1.72225e-06
-2.48466e-06
1.32619e-06
-1.82238e-07
3.48095e-07
-6.08846e-08
-5.03663e-07
3.00228e-07
5.4119e-09
-7.65785e-07
1.49982e-07
2.82231e-07
-7.95966e-07
-1.08204e-07
5.44809e-07
-6.4938e-07
-5.32592e-07
8.93061e-07
-6.21342e-07
-7.58233e-07
1.22381e-06
-7.21711e-07
-1.08827e-06
1.61411e-06
-7.74656e-07
-2.17238e-06
1.94511e-06
-5.90429e-07
-3.16883e-06
1.59735e-06
-3.45785e-06
8.76418e-07
-2.67155e-07
1.45324e-06
-3.10624e-06
1.56952e-08
1.05252e-06
-2.89237e-06
4.67292e-08
9.65684e-07
-2.50827e-06
-1.50567e-07
5.84863e-07
-1.53274e-06
-3.19065e-07
-4.28754e-07
-1.36742e-07
-2.21719e-07
-1.25206e-06
1.02772e-06
-2.37599e-07
-1.69307e-06
1.61155e-06
-4.7343e-07
-2.50673e-06
1.80181e-06
-2.34755e-07
-3.46118e-06
1.38732e-06
-3.77535e-06
-3.97551e-07
-1.85341e-06
4.23796e-06
-6.05049e-06
-5.88819e-07
2.98779e-06
-6.56104e-06
4.21484e-07
2.44232e-06
-5.73674e-06
2.74765e-07
1.8443e-06
-4.2179e-06
-1.02748e-07
-5.14626e-08
-2.92177e-06
3.36201e-07
-1.86219e-06
-1.95309e-06
7.07279e-07
-1.79929e-06
-1.62934e-06
3.48465e-07
-1.55073e-06
-9.84942e-07
6.32104e-07
-3.0236e-06
2.09329e-07
-2.67363e-06
-1.54511e-06
-6.08273e-06
1.12546e-05
-4.96861e-06
-6.24608e-06
1.00846e-05
-4.10328e-06
-5.26308e-06
8.33932e-06
-5.45829e-06
-3.83764e-06
4.51821e-06
-3.29208e-06
-2.95383e-06
-1.16233e-06
1.29271e-06
-2.8276e-06
-4.99374e-06
3.2097e-06
-1.26282e-06
-7.07213e-06
3.4264e-06
-3.35093e-07
-5.25233e-06
2.61299e-06
5.66115e-07
-5.33335e-06
2.15671e-06
-1.9543e-06
-7.37265e-07
-4.09909e-06
1.17349e-05
-7.15426e-07
-5.40526e-06
1.04349e-05
-1.00589e-06
-5.16392e-06
8.92701e-06
-3.05124e-06
-4.07668e-06
6.83903e-06
-4.52822e-06
-4.36109e-06
4.07542e-06
-4.75727e-06
-4.8052e-06
1.12205e-06
-4.75774e-06
-2.54194e-06
-1.8867e-06
-6.38569e-06
-1.46189e-06
-9.13681e-06
3.78899e-06
8.31842e-08
-9.574e-06
3.20509e-06
-3.05847e-06
8.28062e-07
-2.01078e-07
1.27261e-05
-3.68316e-06
-1.43197e-06
1.12437e-05
-3.40014e-06
-1.87105e-06
9.62525e-06
-4.46503e-06
-1.55609e-06
8.16916e-06
-5.5967e-06
-2.70065e-07
6.80589e-06
-6.91268e-06
1.4207e-06
5.41335e-06
-7.9901e-06
4.10758e-06
2.44477e-06
-9.46125e-06
3.4252e-06
-2.28538e-06
-7.36992e-06
2.87085e-07
-1.91225e-06
-5.0008e-06
-6.85217e-06
3.88444e-06
1.83926e-06
1.54658e-05
-2.95577e-06
3.4067e-07
1.2934e-05
-3.37687e-06
-1.19887e-06
1.10667e-05
-4.3471e-06
-2.45308e-06
9.95528e-06
-4.99487e-06
-1.83088e-06
8.64697e-06
-6.2579e-06
4.02652e-07
6.88409e-06
-7.38988e-06
3.74936e-06
2.76973e-06
-8.58191e-06
3.65148e-06
3.05146e-06
-1.1705e-05
4.28942e-06
3.17481e-06
-8.90125e-06
-5.71451e-06
4.17793e-06
4.64739e-07
1.86616e-05
1.19851e-06
-2.54639e-06
1.52655e-05
2.09022e-08
-4.69015e-06
1.27649e-05
-2.21741e-06
-5.71055e-06
1.12952e-05
-3.28367e-06
-4.567e-06
8.87911e-06
-3.73065e-06
-1.28175e-06
5.12897e-06
-4.78834e-06
2.49323e-06
-2.99642e-07
-6.69634e-06
3.97057e-06
2.91683e-06
-7.85996e-06
3.72636e-06
6.80022e-06
-4.29707e-06
-3.86649e-06
3.13502e-06
-1.81811e-06
2.00745e-05
6.10347e-06
-5.78908e-06
1.74318e-05
4.54081e-06
-8.49061e-06
1.47685e-05
8.49014e-07
-9.08095e-06
1.17893e-05
-4.83984e-07
-6.77371e-06
6.764e-06
-9.91822e-07
-9.53136e-07
7.00414e-08
-3.56275e-06
4.6783e-06
-4.76696e-06
-7.00508e-06
7.05426e-06
-5.26272e-07
-6.71131e-06
3.40652e-06
8.89432e-06
-5.06516e-06
-3.48198e-06
2.37159e-06
-3.21127e-06
1.83798e-05
9.3147e-06
-6.09411e-06
1.68798e-05
8.12859e-06
-9.13382e-06
1.6445e-05
4.62131e-06
-1.00265e-05
1.23187e-05
2.58623e-06
-6.57399e-06
4.0086e-06
-1.34497e-07
5.30704e-07
-4.21425e-06
-5.73905e-06
5.42967e-06
-6.75519e-06
-8.03405e-06
6.94723e-06
-1.28727e-06
-6.16023e-06
5.36286e-06
9.53486e-06
-3.71457e-06
-1.56416e-07
1.99206e-06
-3.21101e-06
1.46532e-05
9.41807e-06
-3.9669e-06
1.30054e-05
9.19974e-06
-6.55886e-06
1.61802e-05
7.50837e-06
-8.19665e-06
1.28935e-05
5.27679e-06
-4.65482e-06
2.11502e-06
7.22835e-08
1.31101e-06
-5.70146e-06
-8.0064e-06
4.35405e-06
-5.96457e-06
-8.85788e-06
5.19682e-06
7.56618e-07
-6.8817e-06
4.88818e-06
9.73296e-06
-1.97013e-06
4.52738e-06
2.77235e-06
-1.50969e-06
1.10393e-05
6.70218e-06
-1.50698e-06
8.64523e-06
7.12363e-06
-3.65711e-06
1.45436e-05
7.73862e-06
-6.13102e-06
1.38043e-05
6.44439e-06
-3.20454e-06
1.41972e-06
-2.14391e-07
1.07052e-06
-5.26135e-06
-8.76429e-06
2.43039e-06
-3.44532e-06
-9.50324e-06
3.39436e-06
4.01465e-06
-8.77435e-06
3.47138e-06
1.0946e-05
-2.21378e-06
8.15469e-06
3.2544e-06
2.01317e-06
8.15942e-06
4.26611e-06
7.23128e-07
6.7659e-06
4.50348e-06
-1.9274e-06
1.36389e-05
6.04716e-06
-4.20323e-06
1.50107e-05
5.52957e-06
-1.98821e-06
1.98787e-06
-2.78431e-06
2.15592e-07
-3.45735e-06
-9.66966e-06
4.73594e-07
1.62112e-07
-1.0288e-05
1.60957e-06
7.65096e-06
-1.04679e-05
2.35011e-06
1.35531e-05
-4.33583e-06
1.15384e-05
2.73989e-06
5.22876e-06
3.65926e-06
5.45238e-06
2.45456e-06
4.05343e-06
6.93469e-06
-1.3571e-06
4.65748e-06
1.45958e-05
-3.37867e-06
3.60443e-06
1.6388e-05
-1.57058e-06
-6.49398e-06
4.00933e-06
-1.07478e-06
-1.02192e-05
-5.41391e-07
-9.60462e-07
-1.11561e-05
4.08308e-06
-3.98783e-08
-1.14722e-05
1.15328e-05
1.46415e-06
-6.3271e-06
1.68496e-05
2.00713e-06
1.48912e-05
4.62604e-08
-1.07374e-07
3.27387e-07
-1.7187e-08
-9.01027e-08
3.10474e-07
-7.32947e-08
-7.66637e-08
2.9954e-07
-1.14217e-07
-7.49334e-08
2.94499e-07
-1.41618e-07
-7.94581e-08
2.97673e-07
-1.51228e-07
-9.42721e-08
3.06436e-07
-1.37407e-07
-1.20889e-07
3.20808e-07
-7.74944e-08
-1.78168e-07
3.42275e-07
-1.56734e-08
-1.89526e-07
3.69915e-07
-1.06242e-07
3.12186e-07
6.30695e-08
-2.29906e-07
3.25318e-07
1.80548e-08
-1.96056e-07
2.89461e-07
-1.9354e-08
-1.65882e-07
2.66325e-07
-5.37801e-08
-1.50007e-07
2.58453e-07
-8.31265e-08
-1.51153e-07
2.62353e-07
-1.01264e-07
-1.76429e-07
2.71684e-07
-9.59227e-08
-2.36503e-07
2.85259e-07
-3.01389e-08
-3.76655e-07
3.12344e-07
2.42585e-08
-3.83758e-07
3.46063e-07
-1.63947e-07
2.49539e-07
3.96605e-08
-2.93881e-07
3.54517e-07
-2.90445e-08
-2.63623e-07
3.16335e-07
-8.08707e-08
-2.34372e-07
2.8979e-07
-1.22198e-07
-2.19993e-07
2.86481e-07
-1.60155e-07
-2.25282e-07
2.97608e-07
-2.02594e-07
-2.56538e-07
3.1437e-07
-2.21121e-07
-3.67235e-07
3.54166e-07
-1.03867e-07
-6.81842e-07
4.61634e-07
2.12109e-08
-6.74586e-07
5.40493e-07
-2.2516e-07
3.37753e-07
3.30681e-08
-2.4103e-07
3.88174e-07
-6.23164e-08
-2.36185e-07
3.75833e-07
-1.35745e-07
-2.44427e-07
3.48633e-07
-2.08038e-07
-2.42762e-07
3.40157e-07
-3.00308e-07
-2.54733e-07
3.65688e-07
-4.24321e-07
-2.98326e-07
4.181e-07
-4.89466e-07
-5.18445e-07
5.45191e-07
-3.51608e-07
-1.04521e-06
8.23212e-07
-9.95942e-08
-1.02394e-06
9.04511e-07
-3.83602e-07
4.90524e-07
4.0957e-08
-5.79458e-08
4.24469e-07
-9.05543e-08
-5.46368e-08
4.42748e-07
-2.13511e-07
-1.16284e-07
4.54036e-07
-3.22678e-07
-1.52331e-07
4.45649e-07
-4.15083e-07
-2.34847e-07
4.57497e-07
-5.61796e-07
-2.98738e-07
5.21068e-07
-7.18662e-07
-5.52105e-07
7.55081e-07
-7.28221e-07
-1.14414e-06
1.19211e-06
-4.24126e-07
-1.15442e-06
1.19836e-06
-5.55945e-07
5.76943e-07
7.47504e-08
1.10064e-07
4.22767e-07
-3.61318e-08
6.89414e-08
4.60181e-07
-1.49019e-07
-3.18116e-09
5.74668e-07
-2.93127e-07
-1.06028e-08
6.41676e-07
-4.57334e-07
-9.37057e-08
7.06281e-07
-6.60784e-07
-2.03769e-07
8.37783e-07
-8.8639e-07
-4.66196e-07
1.16277e-06
-9.86569e-07
-1.04211e-06
1.56338e-06
-6.7288e-07
-1.10128e-06
1.35543e-06
-8.0349e-07
9.00852e-07
-4.43845e-08
4.96248e-07
-1.20213e-07
-3.8134e-07
3.56286e-07
5.50223e-08
-6.37873e-07
2.15259e-07
3.20324e-07
-7.8411e-07
9.97416e-08
5.80701e-07
-8.26884e-07
-1.60965e-08
8.58226e-07
-9.01651e-07
-1.14688e-07
1.2095e-06
-1.00134e-06
-3.84984e-07
1.63258e-06
-1.01983e-06
-9.87633e-07
1.90913e-06
-7.05445e-07
-1.29632e-06
1.478e-06
-1.64333e-06
1.01081e-06
1.28099e-07
1.84965e-07
-3.35436e-06
5.9938e-07
6.44325e-08
-3.0718e-06
5.60512e-07
4.26101e-07
-2.68025e-06
8.25253e-08
8.2982e-07
-1.78483e-06
-3.77892e-07
6.79473e-07
-3.71894e-07
-5.99856e-07
1.7953e-07
9.55463e-07
-7.20561e-07
-4.64751e-07
1.81202e-06
-7.58363e-07
-1.22208e-06
2.07407e-06
-3.79142e-07
-1.71735e-06
1.42912e-06
-2.14714e-06
-2.72882e-07
-5.03393e-06
1.47485e-06
-6.38172e-06
-3.20005e-06
-1.20535e-06
-7.12513e-06
-7.6117e-07
-1.75362e-06
-5.9959e-06
1.62419e-07
-5.93667e-07
-3.718e-06
6.12809e-08
-7.75359e-08
-2.06363e-06
3.53257e-07
-1.1468e-06
-9.18735e-07
1.10568e-06
-2.3734e-06
-4.73116e-07
1.5439e-06
-2.11577e-06
-5.29468e-07
1.91483e-06
-2.03254e-06
1.53575e-07
-6.76361e-07
-1.10106e-06
-6.92554e-06
3.19825e-06
-5.46383e-06
-7.35624e-06
1.57169e-06
-6.44961e-06
-7.602e-06
8.23065e-07
-7.78922e-06
-5.68994e-06
2.2507e-06
-8.0485e-06
-2.61146e-06
5.55754e-06
-7.42085e-06
-1.70251e-06
5.20715e-06
-4.05321e-06
-1.96212e-06
1.82201e-06
-5.09392e-07
-4.20151e-07
-5.72455e-06
4.67979e-06
8.30795e-07
-6.66528e-06
5.53851e-06
-4.09018e-07
-1.73814e-07
9.55664e-08
5.28689e-06
-3.41319e-06
-3.46314e-07
3.97811e-06
-2.97042e-06
-1.25133e-06
2.7173e-06
-4.04046e-06
-7.68746e-07
2.43148e-06
-5.19159e-06
9.56277e-07
4.85782e-06
-5.78257e-06
1.34116e-06
7.37034e-06
-7.3058e-06
2.60579e-07
4.56021e-06
-8.04331e-06
-8.22231e-07
9.24873e-07
-1.77763e-06
-6.66047e-07
-2.18799e-06
-1.42839e-06
-7.38573e-06
7.13873e-06
5.61832e-06
5.94718e-06
-5.11478e-06
4.96797e-06
4.98225e-06
-3.75393e-06
2.99501e-06
3.85202e-06
-3.62678e-06
7.6606e-07
3.18292e-06
-4.11919e-06
3.42918e-07
3.9449e-06
-5.57662e-06
8.75565e-07
6.07959e-06
-7.23199e-06
2.89541e-06
2.89427e-06
-9.81514e-06
1.70598e-06
4.95758e-06
-1.02132e-05
4.69685e-07
3.47449e-06
-9.42698e-06
-6.02255e-06
2.99095e-06
8.667e-06
7.07721e-06
-4.37656e-06
7.1491e-06
6.43655e-06
-3.31328e-06
3.24634e-06
6.01205e-06
-2.60436e-06
-1.46793e-06
5.54157e-06
-2.63927e-06
-3.74623e-06
4.66603e-06
-4.70073e-06
-1.809e-06
3.564e-06
-6.81152e-06
1.88387e-06
-9.97606e-07
-8.38292e-06
2.73224e-06
2.01119e-06
-9.607e-06
1.03997e-07
7.04674e-06
-9.84527e-06
-3.1111e-06
1.37048e-06
9.12998e-06
9.36449e-06
-4.55655e-07
5.88807e-06
9.39962e-06
2.99733e-07
1.57195e-07
9.16422e-06
3.61297e-07
-4.77169e-06
7.84994e-06
-6.63149e-07
-5.40008e-06
4.90163e-06
-3.33787e-06
-1.19295e-06
8.82127e-07
-6.31361e-06
2.66633e-06
-4.21311e-06
-7.34012e-06
3.08836e-06
-5.33875e-07
-5.7369e-06
9.14433e-07
1.11429e-05
-6.21933e-06
3.16239e-07
6.22121e-07
5.93406e-06
1.25024e-05
5.20099e-06
1.21504e-06
1.29596e-05
5.69987e-06
-4.40245e-06
1.18805e-05
3.75021e-06
-7.11227e-06
8.91159e-06
1.1642e-06
-5.32515e-06
4.08518e-06
-1.96249e-06
1.14922e-06
-2.41695e-06
-6.73804e-06
5.39278e-06
-7.02108e-06
-8.44067e-06
4.86375e-06
-1.46322e-06
-5.25293e-06
1.64269e-06
1.25618e-05
-3.263e-06
3.50608e-06
8.2444e-07
1.76663e-06
1.43708e-05
9.83815e-06
-2.0249e-06
1.47617e-05
1.0118e-05
-6.18473e-06
1.37942e-05
6.86741e-06
-7.0796e-06
9.31963e-06
3.07306e-06
-3.73466e-06
2.43037e-06
-1.82461e-06
2.45278e-06
-5.70774e-06
-8.63571e-06
5.31108e-06
-8.35745e-06
-9.55597e-06
4.28312e-06
-3.88486e-07
-6.20702e-06
1.70916e-06
1.30295e-05
-1.60834e-06
5.9936e-06
1.2137e-06
-1.10382e-06
1.37215e-05
1.09734e-05
-2.02769e-06
1.32478e-05
1.16375e-05
-4.25065e-06
1.40316e-05
9.49401e-06
-5.06931e-06
1.02996e-05
5.11544e-06
-1.92325e-06
1.42578e-06
-2.06919e-06
1.68378e-06
-7.80227e-06
-9.51891e-06
2.0654e-06
-7.50095e-06
-1.0096e-05
9.39295e-07
2.27536e-06
-8.41944e-06
7.21193e-07
1.34415e-05
-2.16398e-06
8.32632e-06
1.16082e-06
-1.00113e-06
1.11895e-05
9.03466e-06
-1.93078e-07
9.93215e-06
9.63118e-06
-8.59167e-07
1.2536e-05
9.90026e-06
-2.01764e-06
1.17244e-05
6.17813e-06
-3.27212e-07
2.38334e-06
-2.86237e-06
6.60067e-10
-7.24552e-06
-9.64891e-06
-1.4315e-06
-5.05746e-06
-1.05146e-05
-2.02623e-06
4.83288e-06
-1.07371e-05
-8.57716e-07
1.48184e-05
-4.75925e-06
1.05002e-05
2.2277e-07
2.92778e-06
8.01884e-06
6.89549e-06
2.63365e-06
7.58188e-06
7.14788e-06
2.18663e-06
1.08137e-05
8.21645e-06
3.79996e-07
1.31737e-05
5.88692e-06
9.99337e-08
4.59137e-06
-4.71229e-06
-1.846e-06
-5.32713e-06
-9.64212e-06
-3.62632e-06
-2.47714e-06
-1.1088e-05
-4.19044e-06
6.66608e-06
-1.1737e-05
-2.48147e-06
1.63111e-05
-7.53751e-06
1.21218e-05
-1.36317e-06
6.78062e-06
5.4253e-06
5.26945e-06
5.65652e-06
6.20599e-06
6.55345e-06
3.48369e-06
6.89535e-06
1.07487e-05
8.15676e-07
4.86567e-06
1.45805e-05
-7.41753e-07
-6.33427e-06
5.98909e-06
-3.64825e-06
-9.64869e-06
-2.99115e-06
-5.19754e-06
-1.19669e-05
-1.17064e-07
-5.31125e-06
-1.26785e-05
7.98608e-06
-3.14613e-06
-9.3335e-06
1.71524e-05
-2.68618e-06
1.3669e-05
3.5512e-08
-4.5985e-08
4.46195e-07
-2.01223e-08
-5.04162e-08
4.16525e-07
-6.37669e-08
-4.61133e-08
3.89298e-07
-9.5457e-08
-4.62903e-08
3.7248e-07
-1.1736e-07
-4.86268e-08
3.68202e-07
-1.24881e-07
-5.7756e-08
3.71713e-07
-1.13847e-07
-7.34441e-08
3.83217e-07
-6.56103e-08
-1.12001e-07
4.06039e-07
-1.33933e-08
-1.18803e-07
4.36501e-07
-5.77439e-08
3.56537e-07
4.30676e-08
-1.08314e-07
4.63516e-07
4.56747e-09
-1.32169e-07
4.09714e-07
-1.2067e-08
-1.22797e-07
3.59643e-07
-2.99344e-08
-1.02898e-07
3.32928e-07
-5.05444e-08
-9.14639e-08
3.258e-07
-6.64405e-08
-1.0163e-07
3.31454e-07
-6.40631e-08
-1.36833e-07
3.46271e-07
-1.93609e-08
-2.21187e-07
3.76827e-07
1.8071e-08
-2.21675e-07
4.11503e-07
-8.52611e-08
2.95127e-07
3.97263e-08
-1.2078e-07
4.48855e-07
-1.962e-08
-1.88205e-07
4.31718e-07
-5.05148e-08
-1.96207e-07
3.94095e-07
-7.5189e-08
-1.64901e-07
3.73157e-07
-9.93264e-08
-1.44751e-07
3.75031e-07
-1.17369e-07
-1.57564e-07
3.88347e-07
-1.15224e-07
-2.07528e-07
4.22715e-07
-3.45649e-08
-3.48977e-07
5.08766e-07
2.6256e-08
-3.11758e-07
5.69755e-07
-9.5422e-08
3.7417e-07
8.0345e-08
-8.82949e-08
4.00249e-07
1.67131e-09
-1.8494e-07
4.51241e-07
-5.2079e-08
-2.40052e-07
4.46228e-07
-1.01344e-07
-2.04914e-07
4.29435e-07
-1.68308e-07
-1.61713e-07
4.49614e-07
-2.4073e-07
-1.7107e-07
5.04029e-07
-2.5887e-07
-2.62388e-07
6.1819e-07
-1.20335e-07
-4.97486e-07
8.33186e-07
8.74162e-09
-4.17864e-07
8.8154e-07
-1.2299e-07
5.26834e-07
1.15741e-07
-3.79095e-08
3.73971e-07
1.17128e-08
-9.37729e-08
4.55609e-07
-9.8058e-08
-1.8364e-07
5.07394e-07
-1.94416e-07
-1.66298e-07
5.03391e-07
-2.66984e-07
-1.59771e-07
5.28123e-07
-3.50367e-07
-1.80574e-07
6.13955e-07
-4.01612e-07
-2.63468e-07
8.07407e-07
-3.10299e-07
-4.96277e-07
1.09959e-06
-1.73448e-07
-3.50767e-07
9.94411e-07
-2.10432e-07
4.90937e-07
1.6775e-07
2.08029e-08
3.03838e-07
5.47992e-08
-1.45968e-08
4.93956e-07
-8.93423e-08
-8.14164e-08
6.16586e-07
-2.41028e-07
-6.18435e-08
6.88907e-07
-4.00001e-07
-2.18141e-08
7.27297e-07
-5.48298e-07
-7.28286e-08
8.78335e-07
-6.46342e-07
-1.58629e-07
1.15597e-06
-5.87598e-07
-3.35448e-07
1.3438e-06
-4.0963e-07
-4.07168e-08
8.67415e-07
-2.12403e-07
4.93193e-07
8.37135e-08
2.95501e-07
-2.64512e-07
-2.48852e-07
2.20109e-07
1.52882e-07
-4.83845e-07
1.01282e-07
3.72618e-07
-5.98869e-07
-4.26442e-08
6.76525e-07
-6.60096e-07
-1.31722e-08
9.10811e-07
-7.63592e-07
1.2144e-07
1.11873e-06
-9.18852e-07
1.74822e-07
1.45439e-06
-9.4032e-07
-4.77262e-08
1.64288e-06
-7.10595e-07
-4.45391e-08
1.2521e-06
-7.72231e-07
8.60046e-07
5.35975e-07
-1.16887e-06
-2.78113e-06
1.11313e-06
-7.38848e-07
-2.69e-06
1.10487e-06
-1.21649e-07
-2.44906e-06
4.59937e-07
4.86054e-07
-1.6686e-06
-1.22576e-07
5.69594e-07
-3.72148e-07
-5.60435e-07
6.73672e-07
8.4109e-07
-8.70105e-07
6.3636e-07
1.66015e-06
-9.27618e-07
3.95001e-08
2.04435e-06
-4.58239e-07
-4.71845e-07
1.38705e-06
-1.01651e-06
-4.86845e-07
-7.35277e-06
9.52604e-08
-7.43977e-06
-6.16386e-06
-1.30901e-06
-7.74387e-06
-3.57816e-06
-2.24143e-06
-6.4618e-06
-1.39757e-06
-2.96298e-06
-2.44955e-06
-7.47312e-07
-1.67305e-06
-4.71245e-07
-1.47889e-07
-1.7781e-06
9.33609e-07
6.98423e-07
-1.77013e-06
1.08707e-06
1.4995e-06
-2.11052e-06
8.19471e-07
1.88307e-06
-2.10435e-06
1.40251e-06
4.48867e-07
-6.83367e-07
-5.46102e-06
3.77483e-07
-6.55549e-06
-4.48251e-06
-2.08629e-06
-6.65085e-06
-4.00196e-06
-2.80836e-06
-7.70283e-06
-3.18847e-06
-2.1722e-06
-9.65277e-06
-7.33643e-07
4.65764e-08
-1.15953e-05
-4.41045e-09
3.05181e-06
-9.61234e-06
-1.08302e-06
3.97415e-06
-5.17506e-06
-7.51256e-07
4.36052e-06
-2.12301e-06
-9.31519e-07
1.03001e-06
2.58442e-06
-1.22148e-06
5.6502e-07
2.9176e-06
7.63645e-07
-5.18378e-06
2.85825e-06
-1.38079e-06
-3.61658e-06
2.33586e-06
-2.31531e-06
-4.01112e-06
2.3219e-06
-2.68214e-06
-4.66769e-06
2.37319e-06
-1.06313e-06
-4.72416e-06
1.23573e-06
3.81619e-06
-6.93273e-06
3.58842e-07
5.27502e-06
-8.4673e-06
1.07587e-06
8.4585e-06
-6.59264e-06
-2.79197e-07
5.17661e-06
-4.21991e-06
2.40834e-06
3.2297e-06
6.02872e-06
1.10392e-06
-5.41687e-06
4.93391e-06
-3.45868e-07
-3.69404e-06
3.35254e-06
-4.26538e-07
-3.93417e-06
1.37795e-06
-2.9001e-07
-4.53672e-06
3.66087e-08
-6.00544e-07
-4.69786e-06
-4.53809e-07
2.62797e-06
-5.55336e-06
1.21242e-06
1.60598e-06
-7.81232e-06
2.51393e-06
4.95242e-06
-8.00863e-06
-5.07938e-07
7.59118e-06
-8.81967e-06
5.81207e-06
-9.20705e-07
7.09796e-06
1.28217e-06
-3.68576e-06
5.19975e-06
6.68476e-07
-2.42941e-06
2.88671e-06
1.83723e-06
-2.55508e-06
2.60104e-07
2.70182e-06
-3.00449e-06
-2.46746e-06
1.52812e-06
-4.10182e-06
-9.30308e-07
1.13525e-06
-6.85595e-06
2.7751e-06
-3.38429e-06
-7.09806e-06
4.37307e-06
-7.09622e-07
-5.54292e-06
8.50649e-07
8.49879e-06
-7.23045e-06
1.15651e-05
-3.53187e-06
7.73727e-06
1.49127e-06
5.88774e-09
5.11051e-06
3.02001e-06
5.74965e-07
1.81373e-06
4.80252e-06
6.92784e-07
-8.62252e-07
4.95195e-06
-2.37292e-07
-2.02341e-06
2.27111e-06
-2.9197e-06
1.90643e-06
-2.33453e-06
-6.77365e-06
5.89108e-06
-7.53351e-06
-7.17556e-06
6.38703e-06
-3.60965e-06
-3.3328e-06
1.45546e-06
9.74402e-06
-2.53299e-06
1.63355e-05
-2.6928e-06
6.15044e-06
3.60238e-06
4.25851e-06
3.31575e-06
6.40585e-06
5.14872e-06
-2.65179e-07
7.66584e-06
4.46782e-06
-2.08674e-06
5.9748e-06
1.96291e-06
-1.28766e-06
1.49538e-06
-1.98584e-06
3.61075e-06
-7.15233e-06
-6.81866e-06
6.64119e-06
-1.08189e-05
-8.18576e-06
5.99798e-06
-3.90142e-06
-4.31795e-06
4.95353e-07
1.1509e-05
4.74689e-07
1.85473e-05
-8.92061e-07
2.46425e-06
5.85241e-06
8.23642e-06
1.16763e-06
8.44974e-06
9.37076e-06
-9.88568e-07
8.97032e-06
7.71915e-06
-1.5928e-06
5.93206e-06
3.72004e-06
1.28489e-07
-1.85995e-07
-1.86453e-06
2.68668e-06
-1.07154e-05
-7.63079e-06
3.33755e-06
-1.17695e-05
-9.25619e-06
1.67023e-06
-1.82071e-06
-6.62041e-06
-2.00642e-06
1.35307e-05
4.66107e-08
1.78077e-05
-5.31289e-08
5.04936e-08
6.53556e-06
9.86387e-06
9.25895e-07
8.2178e-06
1.09941e-05
9.006e-07
8.611e-06
9.87862e-06
5.63956e-07
5.87507e-06
5.50908e-06
1.09156e-06
-7.66489e-07
-2.0163e-06
7.09522e-08
-1.15121e-05
-7.70167e-06
-1.60119e-06
-1.0645e-05
-9.54837e-06
-3.22655e-06
4.16982e-07
-9.03178e-06
-3.75452e-06
1.50289e-05
-3.13421e-06
1.59214e-05
-7.07399e-07
1.65088e-06
5.75323e-06
8.93101e-06
2.72516e-06
6.94255e-06
9.83216e-06
3.47179e-06
7.61027e-06
1.01544e-05
2.0193e-06
6.77279e-06
6.7329e-06
9.44375e-07
3.38781e-07
-2.89272e-06
-2.35094e-06
-1.0409e-05
-7.4567e-06
-4.6336e-06
-9.17018e-06
-9.70675e-06
-6.16099e-06
7.902e-07
-9.58296e-06
-4.56333e-06
1.46636e-05
-5.99164e-06
1.37905e-05
-2.20963e-06
5.62139e-06
4.42835e-06
7.0991e-06
5.5425e-06
5.90423e-06
8.26509e-06
4.92384e-06
7.13721e-06
9.30818e-06
2.06581e-06
8.37064e-06
7.1471e-06
-8.42897e-07
1.93089e-06
-3.39569e-06
-4.41029e-06
-8.90631e-06
-7.57738e-06
-6.33172e-06
-8.04384e-06
-1.02929e-05
-6.9888e-06
-3.02206e-07
-9.98746e-06
-4.33381e-06
1.1468e-05
-6.99694e-06
1.1469e-05
-3.37553e-06
8.3338e-06
5.26737e-06
3.31345e-06
7.68475e-06
7.38127e-06
5.378e-06
5.30878e-06
8.77052e-06
7.63801e-06
1.26004e-06
6.98622e-06
1.02988e-05
-2.40121e-06
-3.27043e-06
2.52831e-06
-6.08919e-06
-7.67386e-06
-7.19314e-06
-7.50189e-06
-1.14774e-05
-7.12063e-06
-6.68841e-06
-1.1818e-05
-1.97622e-06
-3.35056e-06
-8.20392e-06
7.00059e-06
-3.85934e-06
9.29161e-06
1.69023e-08
5.80638e-08
4.77827e-07
-3.92559e-08
1.228e-08
4.60403e-07
-7.17437e-08
-1.05985e-08
4.32385e-07
-9.35782e-08
-2.0022e-08
4.14336e-07
-1.08863e-07
-2.37363e-08
4.07223e-07
-1.12668e-07
-2.95266e-08
4.05045e-07
-1.01055e-07
-3.88717e-08