/*--------------------------------*- C++ -*----------------------------------*\
| =========                 |                                                 |
| \\      /  F ield         | OpenFOAM: The Open Source CFD Toolbox           |
|  \\    /   O peration     | Version:  2312                                  |
|   \\  /    A nd           | Website:  www.openfoam.com                      |
|    \\/     M anipulation  |                                                 |
\*---------------------------------------------------------------------------*/
FoamFile
{
    version     2.0;
    format      ascii;
    arch        "LSB;label=32;scalar=64";
    class       volVectorField;
    location    "0.78";
    object      U;
}
// * * * * * * * * * * * * * * * * * * * * * * * * * * * * * * * * * * * * * //

dimensions      [0 1 -1 0 0 0 0];

internalField   nonuniform List<vector> 
8000
(
(0.00367525 -9.51673e-05 -0.000969132)
(0.00220414 -0.000147868 -0.000680083)
(0.000552067 -0.000304214 -0.000185559)
(-0.00127874 -0.000612017 0.000348009)
(-0.00282553 -0.00109639 0.000751447)
(-0.00398515 -0.00177285 0.00103486)
(-0.00438988 -0.00242501 0.00116082)
(-0.00387409 -0.0032678 0.00113463)
(-0.00213289 -0.00373129 0.00125606)
(-0.000214744 -0.00355212 0.00177958)
(0.00407546 0.00061647 -0.000995316)
(0.00293202 0.000439171 -0.000833309)
(0.0018199 -0.000290422 -0.00054925)
(0.000874699 -0.00130532 -0.000184894)
(-2.59604e-05 -0.00246477 0.00019218)
(-0.000779578 -0.00374777 0.000452131)
(-0.00124441 -0.00504648 0.000452838)
(-0.00101556 -0.00699743 5.94182e-05)
(-0.00017117 -0.00819318 0.000126942)
(0.000676889 -0.00796145 0.000996504)
(0.00390387 -8.00145e-05 0.000797124)
(0.00217735 0.000232333 0.000665707)
(0.000484581 -0.000843356 0.000699554)
(-0.00076894 -0.00229712 0.000840172)
(-0.00182026 -0.00375444 0.000942165)
(-0.00276053 -0.0055288 0.000883257)
(-0.00377032 -0.00715458 0.000368499)
(-0.00348626 -0.00927667 -0.00067841)
(-0.0027791 -0.0107574 -8.36678e-05)
(-0.000444718 -0.00984268 0.00242675)
(0.00551581 -0.00395651 0.00699927)
(0.00316568 -0.00214491 0.00552569)
(5.26514e-05 -0.00360434 0.00431947)
(-0.00217998 -0.00577279 0.00347337)
(-0.00467959 -0.00765097 0.00261168)
(-0.00666962 -0.00899852 0.0016821)
(-0.00761313 -0.0101135 0.000828366)
(-0.00682325 -0.0150041 -0.000225624)
(-0.00907706 -0.0227499 0.00451324)
(-0.00450732 -0.0227902 0.0075465)
(0.00411419 -0.0222828 0.015555)
(0.00655923 -0.011562 0.0142703)
(0.00347491 -0.00979163 0.013459)
(0.000901675 -0.00927693 0.0116378)
(-0.00165409 -0.00895044 0.00886186)
(-0.003934 -0.0106273 0.00620432)
(-0.00721679 -0.01625 0.00497966)
(-0.0154333 -0.0268776 0.00588298)
(-0.0256325 -0.047753 0.0182005)
(-0.0141053 -0.0464513 0.0212341)
(-0.0152931 -0.0550015 0.00755428)
(-0.00702266 -0.0380474 0.00821235)
(-0.00574852 -0.0333811 0.0130048)
(0.00163102 -0.0322998 0.0167616)
(0.00755739 -0.0278899 0.0162249)
(0.00451605 -0.0236821 0.0142803)
(-0.00744862 -0.0227038 0.0142502)
(-0.0243496 -0.0416892 0.0174932)
(-0.0282434 -0.0998736 0.0331457)
(-0.0245149 -0.125078 0.0262483)
(-0.0213926 -0.0676688 -0.0206567)
(-0.0216998 -0.0684781 -0.0210086)
(-0.0230514 -0.0733499 -0.0120372)
(-0.0141133 -0.0783855 0.000512148)
(-0.00474678 -0.060769 0.0138047)
(-0.00475911 -0.0354692 0.0202388)
(-0.0192388 -0.0382824 0.0251853)
(-0.0250351 -0.0900557 0.0316723)
(-0.0275916 -0.160613 0.036504)
(-0.0314797 -0.198854 0.000365106)
(-0.0194508 0.00749142 -0.076379)
(-0.029927 -0.00292616 -0.0821209)
(-0.021691 -0.0297914 -0.080159)
(-0.00745709 -0.0794404 -0.0676027)
(0.0079858 -0.106701 -0.033565)
(0.0125849 -0.088849 0.00401452)
(-0.00382499 -0.0948107 0.0169514)
(0.00700116 -0.153401 0.0208832)
(-0.0293825 -0.20165 0.0357219)
(-0.0283413 -0.22084 -0.0259194)
(-0.0648307 0.0992513 -0.175843)
(-0.0652972 0.0627223 -0.206192)
(-0.0408065 0.020819 -0.205548)
(-0.0231978 -0.017344 -0.190136)
(-0.0129264 -0.0403581 -0.145473)
(0.00616706 -0.0499242 -0.0840138)
(0.0132715 -0.0771632 -0.0558293)
(0.0455143 -0.142502 -0.0254903)
(-0.0234253 -0.21031 0.0226928)
(-0.0170205 -0.206566 -0.0360787)
(-0.119572 0.260236 -0.241472)
(-0.12285 0.238242 -0.284398)
(-0.103769 0.190199 -0.277771)
(-0.0888864 0.139732 -0.225967)
(-0.0799236 0.0906752 -0.148538)
(-0.0659537 0.0353852 -0.103376)
(-0.0586221 -0.0254206 -0.0742432)
(0.0371793 -0.104537 -0.0555871)
(-0.0169889 -0.202045 -0.00336415)
(-0.0143906 -0.193429 -0.021334)
(-0.197028 0.112259 -0.21007)
(-0.20213 -0.0527602 -0.230254)
(-0.227673 -0.0530426 -0.218653)
(-0.25067 -0.0758775 -0.17476)
(-0.321649 -0.131185 -0.112619)
(-0.259711 -0.0664961 -0.112237)
(-0.179802 -0.137529 -0.123119)
(-0.00959973 -0.176768 -0.104093)
(-0.00950605 -0.188503 -0.0452431)
(0.000672921 -0.193567 -0.028022)
(-0.248341 0.341945 -0.18107)
(-0.295109 0.253066 -0.191575)
(-0.318507 0.22644 -0.177922)
(-0.327203 0.173503 -0.135014)
(-0.352829 0.0534961 -0.0712532)
(-0.384204 -0.24747 -0.0845244)
(-0.348147 -0.391279 -0.159248)
(-0.207146 -0.369465 -0.142518)
(-0.0460135 -0.230563 -0.0944729)
(0.0314134 -0.187455 -0.0642062)
(-0.254241 0.5703 -0.116479)
(-0.343376 0.457564 -0.154046)
(-0.357919 0.417481 -0.168093)
(-0.340234 0.358432 -0.135384)
(-0.302554 0.251158 -0.0893684)
(-0.306164 0.104754 -0.109076)
(-0.392592 -0.126134 -0.193187)
(-0.27203 -0.370315 -0.211154)
(-0.106057 -0.362958 -0.161611)
(0.0288266 -0.167654 -0.0770403)
(-0.227821 0.714183 -0.0253032)
(-0.355186 0.620564 -0.0717016)
(-0.392841 0.564695 -0.112948)
(-0.3817 0.484446 -0.09629)
(-0.368532 0.327918 -0.0696717)
(-0.39546 0.122979 -0.127224)
(-0.374139 -0.0260114 -0.223263)
(-0.182847 -0.138493 -0.250929)
(-0.0220615 -0.393095 -0.209465)
(-0.0035837 -0.316275 -0.0546985)
(-0.184298 0.717142 0.0539258)
(-0.284922 0.678894 0.0271778)
(-0.357958 0.665963 -0.0208211)
(-0.386676 0.576426 -0.0405872)
(-0.396917 0.397958 -0.0570522)
(-0.356169 0.214703 -0.123043)
(-0.21693 0.129429 -0.200119)
(0.00313084 0.0526495 -0.271863)
(0.25921 -0.431102 -0.302817)
(0.0754396 -0.366605 -0.115903)
(-0.160335 0.557477 0.0936119)
(-0.171118 0.580806 0.0950176)
(-0.227809 0.657248 0.0648564)
(-0.311569 0.598024 0.0212398)
(-0.368128 0.420096 -0.0194422)
(-0.281521 0.210828 -0.0765853)
(-0.058326 0.0687428 -0.144509)
(0.174395 -0.0268655 -0.182822)
(0.287273 0.020473 -0.181626)
(0.162233 -0.0538833 -0.0657444)
(-0.122247 0.320561 0.0734079)
(-0.0780095 0.325055 0.0856083)
(-0.0867302 0.53369 0.103715)
(-0.212518 0.559127 0.0806708)
(-0.323026 0.379854 0.0483757)
(-0.203492 0.124404 -0.031224)
(0.0485229 0.0103496 -0.112765)
(0.211714 0.0429067 -0.110452)
(0.29443 0.130268 -0.0828456)
(0.205904 0.0736722 0.0187297)
(-0.0026744 0.192459 0.0223498)
(0.0028473 0.134831 0.0261325)
(-0.0214546 0.396761 0.077145)
(-0.169264 0.501817 0.1139)
(-0.301891 0.315281 0.0882315)
(-0.138916 0.0522054 -0.0533637)
(0.0815906 0.0088577 -0.143373)
(0.230679 0.101344 -0.112803)
(0.311218 0.228877 -0.0276308)
(0.21408 0.192678 0.0507014)
(0.111958 0.158998 -0.00128814)
(0.062753 0.1285 0.00492146)
(-0.0506891 0.378621 0.0402132)
(-0.218978 0.461634 0.116437)
(-0.308124 0.258379 0.0525532)
(-0.0751678 0.0229961 -0.15614)
(0.0862055 0.0636345 -0.190634)
(0.232772 0.191764 -0.149521)
(0.324778 0.329401 -0.016687)
(0.2106 0.291603 0.0681974)
(0.148569 0.150239 0.0123077)
(0.0651275 0.199012 0.019814)
(-0.134852 0.448865 0.0316175)
(-0.300308 0.437432 0.0730186)
(-0.283961 0.207755 -0.0538133)
(-0.050264 0.0734105 -0.227992)
(0.0831567 0.172364 -0.225212)
(0.224802 0.317559 -0.185616)
(0.327779 0.440054 -0.0245656)
(0.202899 0.377313 0.0779131)
(0.00323484 -0.000870327 0.00298857)
(7.26669e-05 -0.000951398 0.00332208)
(-0.00271872 -0.00123263 0.00396436)
(-0.00493509 -0.00158915 0.00460183)
(-0.00642979 -0.00202055 0.00515139)
(-0.0073 -0.00268579 0.00561761)
(-0.00719718 -0.00346283 0.00596497)
(-0.00568055 -0.00464597 0.00615893)
(-0.0022174 -0.00491261 0.00667914)
(0.000309529 -0.00353065 0.00665041)
(0.00374495 -0.00353029 0.00284891)
(0.00120173 -0.00301934 0.00281499)
(-0.0010605 -0.00329728 0.00318085)
(-0.0029491 -0.00402015 0.00371848)
(-0.00439213 -0.00490419 0.00427539)
(-0.00533652 -0.00613719 0.00463314)
(-0.00570807 -0.00801541 0.00461033)
(-0.00427263 -0.0115226 0.00427259)
(-0.000430341 -0.0124429 0.00512794)
(0.00154594 -0.00775202 0.00493751)
(0.00326724 -0.00615923 0.00594765)
(-0.000729967 -0.0049205 0.00493323)
(-0.00395509 -0.00510091 0.00472418)
(-0.00615494 -0.00595586 0.00498277)
(-0.00781024 -0.00731117 0.00520962)
(-0.0094399 -0.0094169 0.00513868)
(-0.0115434 -0.0126942 0.00486779)
(-0.010622 -0.0203957 0.00634749)
(-0.00489881 -0.0213946 0.011099)
(0.00201572 -0.00969392 0.00839043)
(0.00385819 -0.00539583 0.0145363)
(-0.00121592 -0.00407701 0.0116055)
(-0.00618137 -0.00591335 0.00951645)
(-0.00993258 -0.00857917 0.00837752)
(-0.0134176 -0.0108153 0.00745122)
(-0.0166272 -0.0124278 0.00663087)
(-0.0208478 -0.0179231 0.00838416)
(-0.0206762 -0.0365166 0.0188404)
(-0.0202978 -0.0438925 0.0305499)
(-0.00141948 -0.0206166 0.0160317)
(0.00637929 -0.00595739 0.0269)
(0.00249963 -0.00209252 0.0231839)
(-0.00417754 -0.00367815 0.0206575)
(-0.0101577 -0.00548063 0.0179198)
(-0.014209 -0.00855659 0.0141096)
(-0.0170393 -0.0124488 0.0116793)
(-0.023685 -0.0243851 0.0183719)
(-0.0324493 -0.0518646 0.0406348)
(-0.0401773 -0.0653402 0.0553648)
(-0.0119869 -0.0380689 0.0378595)
(0.000777052 -0.00109183 0.0284997)
(-1.04095e-05 0.0102481 0.0237957)
(-0.0025026 0.00948451 0.0260616)
(-0.000950059 0.00177296 0.0276242)
(-0.00419487 -0.00883286 0.0267402)
(-0.0101325 -0.0151738 0.0253613)
(-0.0210836 -0.0237243 0.0361868)
(-0.0337933 -0.0557916 0.0593978)
(-0.0411847 -0.0957921 0.0693389)
(-0.024162 -0.0804003 0.0582351)
(-0.00278007 -0.00785156 0.00542772)
(-0.013233 -0.00637881 0.0067788)
(-0.0288281 -0.0107876 0.02105)
(-0.0329969 -0.0100475 0.0304841)
(-0.0272511 -0.0123825 0.0386517)
(-0.0222746 -0.0129247 0.0451262)
(-0.0275077 -0.0241656 0.0592086)
(-0.0284815 -0.0719888 0.0751708)
(-0.0317594 -0.120448 0.0645366)
(-0.0199502 -0.127671 0.0324095)
(-0.0177889 0.0442648 -0.102072)
(-0.00260085 0.0381462 -0.0946268)
(0.00430969 0.0277421 -0.0795302)
(-0.0019569 0.00424523 -0.037533)
(-0.0119166 -0.0305807 0.00740122)
(-0.00899402 -0.056428 0.0349694)
(-0.0103746 -0.0763111 0.0530022)
(-0.00667135 -0.118503 0.06647)
(-0.0330184 -0.147743 0.0610059)
(0.0166065 -0.160433 -0.0201963)
(-0.0914693 0.0416023 -0.14945)
(-0.0541291 0.0219508 -0.151421)
(0.00583811 0.0295881 -0.135684)
(0.0242883 0.0322244 -0.127778)
(-0.00613716 0.00103557 -0.139971)
(0.00287108 -0.0264622 -0.109871)
(0.0196455 -0.0380823 -0.0668757)
(0.0408428 -0.0615667 -0.0133405)
(-0.0193702 -0.11873 0.0410432)
(0.0786276 -0.127534 -0.0611749)
(-0.204666 0.395232 0.0785001)
(-0.267416 0.309089 0.318521)
(-0.236271 0.240532 0.229151)
(-0.181993 0.159568 0.203252)
(-0.127061 0.00446596 0.173578)
(-0.123529 -0.109762 0.0955456)
(-0.0918352 -0.0917706 0.0335402)
(0.00595323 -0.0479946 0.0343921)
(-0.0375464 -0.104739 0.0557802)
(0.0930318 -0.0809141 -0.0351204)
(-0.133794 0.447704 0.109158)
(-0.208965 0.406872 0.105342)
(-0.223656 0.344317 0.0441788)
(-0.178767 0.19669 0.041881)
(-0.108148 -0.050622 0.0672806)
(-0.265206 -0.181746 0.0720043)
(-0.156555 -0.337064 0.0777323)
(-0.0191295 -0.335817 0.141455)
(-0.0980348 -0.28686 0.0761877)
(0.117021 -0.0628346 -0.00741936)
(0.0169757 0.459504 -0.0881008)
(-0.0407463 0.41656 -0.0893007)
(-0.0677221 0.364479 -0.148241)
(-0.0722487 0.297613 -0.190584)
(-0.0438096 0.241416 -0.204793)
(0.0220258 0.196472 -0.142278)
(0.0847179 0.0919837 -0.110743)
(0.189137 -0.334006 -0.0291981)
(-0.026876 -0.346175 0.0178826)
(0.141791 -0.162427 0.0444877)
(0.108129 0.533772 -0.06959)
(0.0357465 0.45783 -0.124449)
(-0.00352101 0.397883 -0.205095)
(-0.0874061 0.360648 -0.239137)
(-0.114234 0.325656 -0.244341)
(-0.0175927 0.275792 -0.224982)
(0.0474189 0.127954 -0.239042)
(0.206517 0.106283 -0.365393)
(0.185214 0.116077 -0.192382)
(0.0648956 -0.359703 0.124792)
(0.0839623 0.694693 0.0924026)
(-0.0516534 0.550863 -0.000810104)
(-0.138227 0.465134 -0.133491)
(-0.229207 0.429852 -0.165897)
(-0.226767 0.370158 -0.142092)
(-0.124513 0.268197 -0.154939)
(0.0100079 0.0835757 -0.24604)
(0.199376 0.150044 -0.288052)
(0.165364 0.113258 0.0998428)
(0.0792122 -0.140592 0.139491)
(0.0129805 0.819261 0.241379)
(-0.164351 0.685272 0.145156)
(-0.304277 0.549546 0.00613995)
(-0.37639 0.461355 -0.0200839)
(-0.337706 0.332648 -0.00966217)
(-0.177496 0.125116 -0.0925671)
(0.0938536 -0.112252 -0.250913)
(0.304654 0.0480428 -0.303266)
(0.189922 0.370206 -0.166484)
(0.126046 -0.1248 0.088571)
(-0.0697806 0.808265 0.320001)
(-0.179431 0.738859 0.255988)
(-0.322973 0.648961 0.157548)
(-0.427 0.481474 0.123143)
(-0.368795 0.198253 0.053089)
(-0.106232 -0.121304 -0.167544)
(0.142385 -0.268512 -0.285443)
(0.277677 -0.0905201 -0.257211)
(0.251361 0.388313 -0.193727)
(0.193372 -0.12292 0.0442003)
(-0.116374 0.661496 0.303516)
(-0.121122 0.619427 0.282276)
(-0.202896 0.678474 0.253006)
(-0.355312 0.509442 0.217811)
(-0.311645 0.113544 0.0541666)
(-0.00494839 -0.227194 -0.293549)
(0.12052 -0.275511 -0.334983)
(0.178917 -0.0278807 -0.260356)
(0.224719 0.368376 -0.122103)
(0.209443 0.0908402 0.131037)
(-0.0660697 0.501184 0.20331)
(-0.039952 0.406009 0.205538)
(-0.0699904 0.619917 0.247039)
(-0.262629 0.534731 0.244094)
(-0.246694 0.0716397 0.0296742)
(0.0394216 -0.222843 -0.330282)
(0.0643947 -0.194507 -0.364735)
(0.0845845 0.0953969 -0.318077)
(0.15623 0.397857 -0.0853244)
(0.185964 0.246996 0.175894)
(0.0838112 0.387869 0.110668)
(0.07597 0.28607 0.113787)
(0.00941748 0.547519 0.178585)
(-0.20485 0.572909 0.207876)
(-0.145458 0.0479799 -0.0739492)
(0.0267764 -0.180785 -0.366348)
(0.00214701 -0.0673671 -0.388624)
(0.0113973 0.238659 -0.377514)
(0.0850521 0.484454 -0.106287)
(0.161714 0.395011 0.183483)
(0.218213 0.275131 0.0921424)
(0.193692 0.269998 0.104405)
(0.0401704 0.545431 0.126816)
(-0.187348 0.627644 0.13228)
(-0.068766 0.122156 -0.21829)
(-0.0259262 -0.0857323 -0.387872)
(-0.0542334 0.0879504 -0.411335)
(-0.0424566 0.387285 -0.414206)
(0.0235736 0.608423 -0.148147)
(0.141057 0.530875 0.184607)
(0.00331809 -0.00168606 0.00959516)
(0.000567679 -0.00155728 0.0092794)
(-0.00185982 -0.00161793 0.00932779)
(-0.00383064 -0.00176697 0.00953725)
(-0.00512586 -0.0019331 0.00990222)
(-0.00592828 -0.00237198 0.0103523)
(-0.00593786 -0.00304078 0.0109226)
(-0.0046862 -0.00415961 0.0116282)
(-0.00166144 -0.00441481 0.0126058)
(0.00044567 -0.00279148 0.0108971)
(0.00368952 -0.00679805 0.00930373)
(0.00160639 -0.00557682 0.0083268)
(4.48642e-06 -0.00464417 0.00799191)
(-0.00147006 -0.0043941 0.00812786)
(-0.00273274 -0.00462684 0.00853801)
(-0.00372036 -0.00536129 0.00897909)
(-0.00425154 -0.00687204 0.00939526)
(-0.00301548 -0.0102401 0.0102238)
(0.000506279 -0.0110198 0.0114892)
(0.00168255 -0.00586624 0.00841713)
(0.00342197 -0.0114882 0.0110685)
(5.10195e-06 -0.00989725 0.00951595)
(-0.00226075 -0.00829093 0.00879239)
(-0.00404446 -0.00728651 0.00898319)
(-0.00552199 -0.00715658 0.00956221)
(-0.00697672 -0.00849938 0.0102105)
(-0.00899063 -0.0118978 0.011621)
(-0.00786001 -0.019871 0.0159583)
(-0.000850081 -0.0195213 0.0194496)
(0.00272699 -0.00695204 0.0118862)
(0.0036585 -0.0118675 0.0148665)
(-0.000760297 -0.0113248 0.0131354)
(-0.00412191 -0.0109274 0.011515)
(-0.00661682 -0.0107792 0.0110188)
(-0.00969355 -0.011446 0.0117993)
(-0.0138473 -0.0126448 0.0134277)
(-0.0195028 -0.0180338 0.018194)
(-0.0181413 -0.0352738 0.0299623)
(-0.0110548 -0.0354357 0.0347755)
(0.0029868 -0.0118707 0.0177626)
(0.00428993 -0.00814236 0.0188696)
(-0.000809802 -0.0083649 0.0175287)
(-0.00627839 -0.00901976 0.0170272)
(-0.0108095 -0.00855679 0.0164664)
(-0.0143415 -0.00847488 0.0160443)
(-0.0180496 -0.0106525 0.0175497)
(-0.0264273 -0.022721 0.0271015)
(-0.0295047 -0.0485772 0.0472016)
(-0.0303602 -0.0470512 0.0526504)
(-0.00245674 -0.0175904 0.0257605)
(0.00482695 0.00431368 0.0181902)
(0.00136713 0.00488444 0.0160499)
(-0.00415868 0.00126726 0.0205781)
(-0.00806171 -0.00210876 0.0237529)
(-0.0145152 -0.00887515 0.0269891)
(-0.0211247 -0.0128711 0.0310866)
(-0.0313163 -0.0229408 0.0447413)
(-0.0376999 -0.0455472 0.0646672)
(-0.0421394 -0.0469584 0.0640465)
(-0.0118117 -0.0270447 0.0461026)
(0.00432205 0.00456848 -0.00589907)
(-0.00791307 0.000756229 -0.00408539)
(-0.0234024 -0.00166001 0.00636652)
(-0.0292647 0.000820401 0.0190532)
(-0.0316177 0.000144253 0.0342324)
(-0.0326034 -0.00248891 0.0494225)
(-0.0380646 -0.0108444 0.0670413)
(-0.0392143 -0.0322557 0.0799844)
(-0.0429603 -0.0372294 0.0637687)
(-0.0176778 -0.0385327 0.0419842)
(-0.00744378 0.0353181 -0.136079)
(0.0174512 0.0277821 -0.125368)
(0.0284626 0.019275 -0.108601)
(0.0153826 0.0088978 -0.0708718)
(-0.00912433 -0.000577691 -0.0123465)
(-0.0203586 -0.00696624 0.0434689)
(-0.027408 -0.0253698 0.0711171)
(-0.0272723 -0.0595895 0.0768469)
(-0.0367867 -0.0811125 0.051276)
(0.0108806 -0.105143 -0.009338)
(-0.210197 -0.0152117 -0.297287)
(-0.193568 -0.0255643 -0.334426)
(-0.0648929 0.00409711 -0.270447)
(0.0079602 0.0414446 -0.163544)
(0.000332991 0.0447999 -0.0868552)
(0.0100862 0.0235891 -0.0686068)
(0.0251711 -0.00330855 -0.070439)
(0.0680154 -0.0191589 -0.060481)
(0.0488639 -0.0339217 -0.0204409)
(0.113325 -0.0499734 -0.057161)
(-0.253983 0.0900006 -0.274343)
(-0.290897 -0.0619184 -0.360261)
(-0.311152 -0.100189 -0.398592)
(-0.272517 -0.046546 -0.313639)
(-0.141503 0.00107625 -0.0543317)
(-0.0730615 -0.0610999 0.13622)
(-0.123142 -0.124016 0.125576)
(0.0151063 -0.132439 0.137671)
(-0.0466427 -0.118167 0.104661)
(0.131848 0.00107997 -0.0256921)
(-0.00380405 0.226797 -0.152722)
(0.00676741 0.176193 -0.170079)
(-0.0342242 0.132807 -0.248751)
(-0.0457794 0.150005 -0.322728)
(-0.0181895 0.287956 -0.299687)
(0.0877275 0.345435 -0.272044)
(0.00586208 0.191257 -0.384)
(0.0250162 -0.272122 0.123583)
(-0.166565 -0.318269 0.079916)
(0.182879 -0.0289038 0.0652441)
(0.220169 0.206284 -0.211301)
(0.229498 0.165139 -0.176446)
(0.178021 0.111532 -0.184718)
(0.0766551 0.0806868 -0.216905)
(-0.0258975 0.168403 -0.294494)
(0.0575246 0.338442 -0.389168)
(0.0179464 0.232088 -0.496837)
(0.183894 0.296673 -0.415875)
(-0.0609825 0.0702962 -0.355361)
(0.111368 -0.395951 0.188535)
(0.353953 0.241284 -0.168095)
(0.342303 0.204146 -0.141887)
(0.250659 0.175324 -0.129021)
(0.0182282 0.166924 -0.138415)
(-0.152022 0.164859 -0.232493)
(-0.124043 0.174521 -0.324782)
(-0.0316393 0.0233053 -0.394296)
(0.182763 0.166845 -0.47749)
(0.00949562 0.223609 -0.40771)
(0.014666 -0.228041 0.190004)
(0.395332 0.308606 0.000858355)
(0.334429 0.292139 0.0111922)
(0.168629 0.298481 -0.0190063)
(-0.155912 0.278395 -0.0734794)
(-0.246415 0.19963 -0.156232)
(-0.168982 0.0861153 -0.241882)
(0.0674428 -0.113062 -0.299719)
(0.162678 0.00426332 -0.295463)
(0.0487806 0.364593 -0.330197)
(0.0439124 -0.0594575 0.136693)
(0.307062 0.446606 0.225249)
(0.169326 0.461692 0.216375)
(-0.0561002 0.427681 0.0879498)
(-0.301246 0.341145 -0.0102763)
(-0.285799 0.188593 -0.0851418)
(-0.0997809 -0.0156735 -0.229092)
(0.181648 -0.239142 -0.332534)
(0.263051 -0.0586164 -0.243597)
(0.0709308 0.466106 -0.23886)
(0.0955082 0.10621 0.118991)
(0.136547 0.575939 0.394636)
(0.0139137 0.601995 0.376204)
(-0.179124 0.528 0.215527)
(-0.333733 0.358392 0.0836882)
(-0.253239 0.11974 -0.075036)
(0.0126961 -0.180388 -0.33495)
(0.173967 -0.336872 -0.379496)
(0.229011 -0.0787228 -0.256965)
(0.0643882 0.507917 -0.135105)
(0.112343 0.186 0.127471)
(-0.028134 0.594763 0.431833)
(-0.0484607 0.601933 0.43583)
(-0.120053 0.590838 0.334348)
(-0.248966 0.390503 0.188631)
(-0.176183 0.0560962 -0.0666428)
(0.0673057 -0.296486 -0.382997)
(0.0763178 -0.335112 -0.401172)
(0.0471126 0.0420068 -0.326685)
(0.00469204 0.531947 -0.0770174)
(0.0841615 0.318717 0.115293)
(-0.0570946 0.506687 0.336585)
(-0.0241646 0.45509 0.356932)
(0.0157837 0.552792 0.361554)
(-0.104397 0.452224 0.251796)
(-0.0606538 0.0795535 -0.0589428)
(0.0511964 -0.305822 -0.38362)
(-0.0451368 -0.246181 -0.414692)
(-0.105909 0.162693 -0.414153)
(-0.0709693 0.573247 -0.117039)
(0.033187 0.396823 0.0857311)
(0.103555 0.382101 0.238051)
(0.117392 0.333217 0.243519)
(0.127399 0.449511 0.293432)
(0.00568258 0.502664 0.239118)
(0.0327862 0.150216 -0.129381)
(-0.00792507 -0.252003 -0.392043)
(-0.136799 -0.143382 -0.439335)
(-0.19304 0.246132 -0.464337)
(-0.145962 0.632215 -0.227756)
(-0.0123726 0.435665 0.0407725)
(0.25701 0.259003 0.199078)
(0.272093 0.276969 0.214642)
(0.205784 0.410993 0.236604)
(0.047869 0.551008 0.179176)
(0.0350655 0.224434 -0.249427)
(-0.0886154 -0.166658 -0.401646)
(-0.204957 -0.0465793 -0.470325)
(-0.23838 0.300066 -0.494434)
(-0.186423 0.678482 -0.325791)
(-0.0368147 0.511241 -0.0125157)
(0.00292258 -0.000337526 0.015926)
(0.000170021 -0.000508738 0.0149512)
(-0.00169483 -0.000722009 0.0140652)
(-0.00324038 -0.000976364 0.0134895)
(-0.00423908 -0.00113838 0.0133764)
(-0.00489537 -0.0014464 0.0135906)
(-0.00489938 -0.00194969 0.0141202)
(-0.00393122 -0.00282492 0.0150652)
(-0.00144697 -0.00297682 0.0162642)
(0.00041901 -0.00166744 0.0134432)
(0.00318264 -0.00332305 0.0160391)
(0.000598818 -0.00348254 0.0142093)
(-0.000133483 -0.00306445 0.0127097)
(-0.000770662 -0.00284037 0.0119713)
(-0.00153787 -0.00292276 0.0118423)
(-0.00235401 -0.00333705 0.0121228)
(-0.00284303 -0.00413738 0.0127245)
(-0.00198549 -0.00630412 0.0139733)
(0.000352271 -0.00682172 0.0153713)
(0.00131256 -0.00318879 0.0109471)
(0.00361743 -0.00543847 0.0166633)
(-6.66212e-05 -0.00699344 0.0151712)
(-0.00145727 -0.00647946 0.013761)
(-0.00247684 -0.00504228 0.0132787)
(-0.0034427 -0.00403503 0.013537)
(-0.00421636 -0.00450749 0.01417)
(-0.00506881 -0.00654335 0.0157794)
(-0.003616 -0.0110641 0.0198163)
(0.000672761 -0.0104353 0.0225492)
(0.00169977 -0.00317313 0.0143833)
(0.00541655 -0.00417177 0.0159181)
(0.00154208 -0.00830981 0.016384)
(-0.00118658 -0.00970272 0.0157387)
(-0.00286085 -0.00868327 0.015425)
(-0.00507101 -0.00810786 0.016554)
(-0.00795163 -0.00863536 0.0189487)
(-0.0110891 -0.0105801 0.02397)
(-0.0086136 -0.0174746 0.0340923)
(-0.00153393 -0.0152606 0.0360719)
(0.00209261 -0.00503355 0.0206559)
(0.00675366 -0.00343239 0.0147148)
(0.00321279 -0.00687911 0.0170993)
(-0.00194618 -0.00904863 0.0186347)
(-0.00590546 -0.00691757 0.018552)
(-0.00920095 -0.00423625 0.0198164)
(-0.0114832 -0.00473636 0.0231895)
(-0.0160683 -0.00993706 0.0318914)
(-0.0149897 -0.0216087 0.0463951)
(-0.0110821 -0.0172848 0.0427901)
(-0.0021336 -0.00430508 0.020383)
(0.0080584 0.000601606 0.0147649)
(0.00599161 0.000128963 0.019798)
(-0.0011913 -0.00511683 0.0243357)
(-0.00632074 -0.00663886 0.0266014)
(-0.0121163 -0.00811459 0.0288929)
(-0.0185087 -0.00883883 0.0351925)
(-0.0246251 -0.01093 0.0467827)
(-0.0257198 -0.0195829 0.0584906)
(-0.023122 -0.012831 0.0431683)
(-0.00914087 -0.0133689 0.0245938)
(0.00900293 0.00148272 -0.006643)
(-0.00316777 -0.00146147 0.00731524)
(-0.0169056 -0.00149881 0.0172998)
(-0.022514 0.00235875 0.0271995)
(-0.0245649 0.00565989 0.035779)
(-0.0268361 0.00148765 0.0469865)
(-0.0333309 -0.00257481 0.0614409)
(-0.0375992 -0.00486251 0.0703539)
(-0.0388512 0.0106456 0.054132)
(-0.0189503 -0.00249386 0.0387254)
(0.00510645 0.0201364 -0.124189)
(0.0370672 0.0175294 -0.114519)
(0.0499594 0.00775344 -0.10265)
(0.035386 -0.0061874 -0.0698262)
(0.00496395 -0.00552032 -0.0123701)
(-0.0142286 0.0119871 0.0396971)
(-0.0315865 0.0190471 0.0753925)
(-0.0353067 -0.000750225 0.0875589)
(-0.0458115 -0.0167746 0.058679)
(0.0170391 -0.0681923 -0.0145227)
(-0.305713 -0.0508082 -0.220785)
(-0.285147 -0.0454486 -0.247027)
(-0.222479 -0.0189698 -0.228739)
(-0.0589329 0.0288085 -0.128372)
(-0.0363489 0.0395235 -0.0480358)
(-0.0132933 0.0379792 0.0185931)
(0.00122255 0.038408 0.0300102)
(0.0606939 0.00904415 0.00854028)
(0.0455543 -0.0112105 0.029546)
(0.125364 -0.00318122 -0.0369066)
(-0.2305 -0.00331987 -0.243989)
(-0.190339 -0.105022 -0.249203)
(-0.167697 -0.14048 -0.299152)
(-0.146898 -0.157074 -0.379075)
(-0.0799341 -0.0911177 -0.463016)
(0.035658 -0.0995672 -0.372936)
(-0.0696058 -0.102581 -0.0569295)
(0.0239398 -0.109133 0.187893)
(-0.16968 -0.0926285 0.224081)
(0.175832 0.0564944 0.00732498)
(0.110513 0.0531493 -0.176537)
(0.131117 -0.0464609 -0.126918)
(0.107101 -0.11015 -0.13859)
(0.0910461 -0.120064 -0.164551)
(0.0817443 0.0218827 -0.206828)
(0.128593 0.216403 -0.340663)
(-0.0622508 0.283793 -0.306462)
(0.119442 0.342078 -0.201167)
(-0.107501 0.113526 -0.12103)
(0.137774 -0.0878955 0.343138)
(0.258012 0.0144113 -0.22782)
(0.232898 -0.047619 -0.158074)
(0.168629 -0.0590641 -0.145286)
(0.104914 -0.0673173 -0.159782)
(-0.0018897 -0.0656368 -0.18956)
(0.00722905 0.151956 -0.232955)
(-0.0530952 0.209086 -0.334185)
(0.171779 0.383196 -0.379477)
(-0.0292016 0.317871 -0.362433)
(0.0201305 0.158931 0.140135)
(0.318432 0.0647322 -0.183749)
(0.258239 0.00768408 -0.123891)
(0.164548 0.0136007 -0.10222)
(0.0726441 0.0394758 -0.105994)
(-0.0537964 0.0258329 -0.173694)
(-0.129893 0.0721023 -0.258752)
(0.0444634 -0.0620268 -0.301112)
(0.204282 0.0691643 -0.293108)
(0.0930715 0.342501 -0.358981)
(0.00650242 0.374037 -0.0359445)
(0.334511 0.0277281 -0.0363404)
(0.277252 0.0376021 0.00999461)
(0.150016 0.118271 0.0312967)
(-0.00597503 0.161296 -8.44824e-05)
(-0.0717968 0.0869759 -0.130714)
(-0.0618276 0.00836382 -0.278621)
(0.195494 -0.221412 -0.294274)
(0.294529 -0.125992 -0.161145)
(0.159623 0.341907 -0.180911)
(0.00273664 0.56798 -0.0814765)
(0.282602 0.0798101 0.188889)
(0.213029 0.191108 0.230643)
(0.062782 0.259761 0.18116)
(-0.0869242 0.226968 0.0757756)
(-0.0953263 0.079411 -0.0894132)
(0.0317455 -0.190859 -0.294885)
(0.222007 -0.397212 -0.342763)
(0.28968 -0.203776 -0.190681)
(0.125206 0.37553 -0.0415116)
(-0.0459351 0.721001 -0.0432344)
(0.120082 0.223535 0.383072)
(0.0868526 0.343022 0.421199)
(-0.00188294 0.35837 0.314154)
(-0.0845209 0.24119 0.143238)
(-0.0473524 0.0175172 -0.0792214)
(0.0735907 -0.397217 -0.333404)
(0.119774 -0.484735 -0.383993)
(0.100896 -0.14375 -0.264421)
(-0.0034993 0.499044 0.00243453)
(-0.0850386 0.733275 -0.00854371)
(-0.0114828 0.284209 0.443582)
(0.0179663 0.368446 0.489376)
(0.0418904 0.383015 0.415445)
(0.00484283 0.2444 0.2262)
(0.0657131 -0.0307828 -0.0731577)
(0.0480234 -0.454006 -0.337896)
(-0.0415781 -0.44762 -0.391253)
(-0.127114 0.00707537 -0.353351)
(-0.130675 0.612287 -0.0735342)
(-0.109227 0.691866 -0.0169459)
(0.0432956 0.249279 0.38753)
(0.0771347 0.295199 0.417143)
(0.139514 0.326898 0.423404)
(0.107045 0.256953 0.271613)
(0.101177 -0.0152098 -0.108583)
(-0.0318804 -0.439391 -0.338249)
(-0.168609 -0.384726 -0.399044)
(-0.24143 0.0504545 -0.406823)
(-0.221521 0.63677 -0.218283)
(-0.118754 0.614918 -0.065081)
(0.205553 0.197919 0.313668)
(0.225168 0.24831 0.331898)
(0.226445 0.279697 0.362801)
(0.156173 0.296808 0.261721)
(0.0489725 0.0520222 -0.181397)
(-0.124157 -0.392088 -0.335974)
(-0.24533 -0.340157 -0.414628)
(-0.280973 0.0256205 -0.42846)
(-0.245285 0.545799 -0.326709)
(-0.103119 0.505268 -0.125668)
(0.312389 0.152367 0.23706)
(0.336633 0.223377 0.288427)
(0.285544 0.286331 0.321417)
(0.150044 0.367159 0.233117)
(-0.0212683 0.0977491 -0.207313)
(-0.200161 -0.31803 -0.332235)
(-0.305231 -0.297215 -0.455858)
(-0.296781 -0.0436505 -0.474688)
(-0.208605 0.372163 -0.376214)
(-0.0761884 0.407907 -0.171358)
(0.00239574 0.00223787 0.0191079)
(-0.000805222 0.00117951 0.0177095)
(-0.00223303 0.000494079 0.0164162)
(-0.00334409 1.29661e-06 0.0156384)
(-0.00400669 -0.000316936 0.0153815)
(-0.00447506 -0.000585207 0.0154535)
(-0.00440462 -0.000971023 0.0158436)
(-0.00348152 -0.00170691 0.0167089)
(-0.00126212 -0.0017622 0.0179323)
(0.000464427 -0.000621529 0.0144991)
(0.00259294 0.00234553 0.0202505)
(-0.000949471 -0.000191633 0.017854)
(-0.00112788 -0.00136095 0.0154172)
(-0.00101746 -0.0016724 0.0139956)
(-0.0011901 -0.00173037 0.0135432)
(-0.00175341 -0.00192816 0.0137298)
(-0.0022544 -0.00231697 0.0143176)
(-0.00165229 -0.00369326 0.0154621)
(0.000139897 -0.00389131 0.0168484)
(0.00119149 -0.00106768 0.0120525)
(0.00375854 0.00391226 0.0183757)
(-0.000141953 -0.00166359 0.0185819)
(-0.00123958 -0.00413889 0.0170143)
(-0.00185863 -0.00356517 0.0158493)
(-0.0025377 -0.00204269 0.0157058)
(-0.00304141 -0.00157492 0.016136)
(-0.00331157 -0.00250601 0.0172408)
(-0.00206411 -0.00533088 0.0199693)
(0.000179835 -0.00490513 0.0221052)
(0.000921083 -5.31322e-05 0.0151466)
(0.00525583 0.00697096 0.0151884)
(0.00207491 -0.00113803 0.0187025)
(0.000362725 -0.00649223 0.0190409)
(-0.000768009 -0.00682182 0.0181322)
(-0.00225747 -0.00575198 0.0185208)
(-0.00420456 -0.00571219 0.0205248)
(-0.00604254 -0.00621001 0.0244111)
(-0.00386685 -0.00860199 0.0311584)
(-0.000167935 -0.00660607 0.0331396)
(0.000509058 -0.00200332 0.0207076)
(0.00652632 0.0136122 0.0148166)
(0.0037135 0.00171325 0.0187836)
(0.000879298 -0.00732061 0.0211662)
(-0.0018243 -0.00607434 0.0208944)
(-0.00460489 -0.00181438 0.0216838)
(-0.00631732 -0.000511107 0.0250592)
(-0.00863944 -0.0021604 0.0314256)
(-0.00723833 -0.00486481 0.0402613)
(-0.00559106 -0.00124431 0.0359535)
(-0.00425205 0.00254774 0.0184389)
(0.00697681 0.0181591 0.00940152)
(0.00398318 1.33862e-05 0.0194291)
(-0.00234541 -0.0108043 0.0248514)
(-0.00363202 -0.0112899 0.0276448)
(-0.00655508 -0.00952358 0.0282264)
(-0.0115787 -0.00781003 0.0344417)
(-0.0164362 -0.00476455 0.0448868)
(-0.0146776 -0.00254904 0.0489223)
(-0.0145902 0.00272767 0.0270945)
(-0.0122022 -0.0110514 0.0145524)
(0.00640471 0.0224833 -0.0134617)
(0.000332622 0.00402222 0.00652513)
(-0.00433389 -0.00382833 0.0142502)
(-0.00688547 -0.00543614 0.028603)
(-0.0150175 -0.00173963 0.0399037)
(-0.0152856 -6.23878e-06 0.0462081)
(-0.0213305 0.000117433 0.0556123)
(-0.0267425 0.00376753 0.0594618)
(-0.0329171 0.0133204 0.0428887)
(-0.0143158 -0.016864 0.0276662)
(0.00167108 -0.00916314 -0.0947484)
(0.0388514 -0.00652956 -0.0984441)
(0.0502994 -0.0133676 -0.0902264)
(0.0391399 -0.025381 -0.0606898)
(0.0128901 -0.0299207 -0.0150761)
(-0.00254417 -0.0198774 0.0334263)
(-0.0115628 0.00798165 0.0647962)
(-0.00842473 0.0146303 0.0827727)
(-0.0196366 0.00868189 0.0518169)