/*--------------------------------*- C++ -*----------------------------------*\
| =========                 |                                                 |
| \\      /  F ield         | OpenFOAM: The Open Source CFD Toolbox           |
|  \\    /   O peration     | Version:  2312                                  |
|   \\  /    A nd           | Website:  www.openfoam.com                      |
|    \\/     M anipulation  |                                                 |
\*---------------------------------------------------------------------------*/
FoamFile
{
    version     2.0;
    format      ascii;
    arch        "LSB;label=32;scalar=64";
    class       volScalarField;
    location    "0.58";
    object      p_rgh;
}
// * * * * * * * * * * * * * * * * * * * * * * * * * * * * * * * * * * * * * //

dimensions      [1 -1 -2 0 0 0 0];

internalField   nonuniform List<scalar> 
8000
(
408.297
408.526
408.801
409.167
409.683
410.367
411.18
412.004
412.613
412.787
408.104
408.328
408.595
408.962
409.491
410.203
411.082
412.011
412.706
412.823
407.715
407.941
408.189
408.513
409.02
409.765
410.77
411.946
412.91
412.882
407.069
407.264
407.442
407.684
408.096
408.79
409.9
411.506
413.135
412.922
406.088
406.229
406.263
406.268
406.342
406.73
407.734
409.79
412.512
412.539
404.56
404.55
404.302
404.023
403.743
403.543
403.978
405.801
409.159
410.203
402.649
402.623
402.281
401.806
400.724
399.046
397.892
398.476
401.909
404.349
326.61
323.608
314.17
318.566
332.386
320.753
304.066
303.54
327.809
378.917
93.19
90.5882
91.494
77.4684
53.2196
31.2506
19.1673
20.5762
41.8987
111.504
1.48786
1.85672
1.36624
0.800044
0.565932
0.390584
0.320226
0.310435
0.317567
0.337245
0.556275
0.857614
0.600267
0.390136
0.335918
0.311521
0.302922
0.318115
0.346027
0.362693
0.225582
0.261275
0.200891
0.191623
0.232433
0.273765
0.298015
0.335602
0.425486
0.414118
0.141944
0.130576
0.138195
0.171491
0.21447
0.249299
0.271489
0.450115
0.505015
0.408821
0.133153
0.132813
0.149886
0.174201
0.198015
0.219502
0.261431
0.475364
0.472186
0.292745
0.149356
0.143023
0.14548
0.158577
0.173048
0.188814
0.409503
0.456403
0.327634
0.241197
0.16011
0.163211
0.160546
0.149607
0.154955
0.165442
0.380278
0.382483
0.220008
0.213036
0.157389
0.1582
0.157337
0.150421
0.147965
0.154783
0.188337
0.183897
0.188345
0.191714
0.127421
0.128383
0.130675
0.138151
0.142285
0.147049
0.15149
0.159218
0.173247
0.178788
0.120522
0.121649
0.124061
0.127964
0.1322
0.135428
0.138376
0.145649
0.159877
0.358378
0.118797
0.119292
0.120558
0.122262
0.123149
0.122461
0.122806
0.133024
0.150969
0.380524
408.38
408.604
408.862
409.209
409.699
410.352
411.137
411.931
412.496
412.596
408.171
408.401
408.661
409.02
409.53
410.231
411.109
412.037
412.692
412.676
407.789
408.035
408.295
408.625
409.139
409.916
410.998
412.279
413.231
412.852
407.154
407.391
407.605
407.866
408.338
409.172
410.546
412.45
413.998
412.994
406.337
406.533
406.581
406.592
406.798
407.436
408.803
411.103
413.41
412.08
404.863
404.94
404.77
404.43
404.176
404.239
404.948
406.819
409.541
408.307
402.869
402.905
402.349
401.498
400.389
398.626
396.621
394.803
397.605
401.154
328.119
330.73
337.946
336.274
328.051
303.486
263.072
217.318
219.299
332.742
90.7228
82.5533
74.1748
53.4046
38.9429
22.6621
5.61288
0.615604
0.636508
45.9087
1.0141
1.86181
0.910273
0.429281
0.287596
0.3116
0.302138
0.297937
0.286309
0.319231
0.334336
2.26119
0.875187
0.153063
0.159238
0.224411
0.261591
0.30228
0.319417
0.334997
0.108114
0.711825
0.434472
0.0669887
0.11182
0.206911
0.265018
0.305172
0.343052
0.40625
0.0674367
0.0296744
0.0536353
0.104886
0.159906
0.213779
0.249404
0.268279
0.407156
0.48131
0.0971417
0.0857
0.10608
0.140723
0.173756
0.202776
0.224088
0.242706
0.267565
0.438564
0.131294
0.116149
0.125447
0.141587
0.157983
0.174433
0.19325
0.216263
0.228881
0.255819
0.144825
0.128159
0.132514
0.137355
0.141966
0.152073
0.173711
0.191535
0.201919
0.205762
0.129027
0.130476
0.134582
0.136679
0.140223
0.148527
0.163121
0.176216
0.195178
0.184958
0.118697
0.1235
0.127617
0.132088
0.13743
0.144207
0.155291
0.16711
0.198388
0.175199
0.1183
0.119584
0.122045
0.125736
0.12958
0.133669
0.146593
0.159709
0.187384
0.199645
0.116715
0.117329
0.118683
0.120516
0.122085
0.128356
0.148573
0.16048
0.151677
0.190305
408.494
408.711
408.921
409.2
409.6
410.146
410.805
411.465
411.917
411.972
408.283
408.504
408.735
409.026
409.446
410.031
410.763
411.518
412.016
411.961
407.96
408.218
408.422
408.677
409.083
409.719
410.6
411.595
412.252
411.856
407.443
407.702
407.829
407.992
408.335
409.006
410.112
411.519
412.41
411.346
406.762
407.001
406.999
406.853
406.953
407.474
408.558
410.025
410.933
409.437
405.684
405.849
405.533
404.838
404.46
404.391
404.684
405.406
406.387
405.216
404.755
404.789
403.77
402.139
400.599
398.878
396.924
394.886
394.359
397.894
342.025
345.714
350.405
344.297
336.025
321.166
296.979
253.509
217.917
303.393
88.2781
93.0542
78.1609
57.0989
46.6499
38.6763
23.6256
5.48036
0.595525
20.6152
1.36712
1.97684
4.03266
0.160743
0.16034
0.256826
0.292662
0.290885
0.275261
0.303602
0.673833
1.76306
0.305519
0.0974019
0.0784188
0.161802
0.236325
0.27113
0.275256
0.309757
0.887792
0.824944
0.479714
0.0641391
0.0647269
0.165174
0.234298
0.281031
0.29785
0.319969
0.146933
0.0208253
0.0395824
0.103925
0.132943
0.188509
0.222669
0.246546
0.279331
0.45656
0.0714849
0.0652236
0.0795422
0.112018
0.15104
0.182998
0.206843
0.231226
0.273536
0.525311
0.0994819
0.0981745
0.106753
0.123926
0.145025
0.16421
0.191092
0.215729
0.251681
0.495842
0.107066
0.11074
0.115442
0.124799
0.139929
0.147619
0.167961
0.213187
0.25649
0.260746
0.112123
0.115592
0.118893
0.125173
0.137762
0.142762
0.154385
0.206443
0.244447
0.18591
0.114254
0.115807
0.118602
0.123536
0.132827
0.136994
0.146112
0.207689
0.20514
0.156237
0.113494
0.114229
0.11612
0.119835
0.124679
0.130116
0.13683
0.187787
0.144413
0.137632
0.111606
0.112263
0.113878
0.11655
0.120173
0.178514
0.160476
0.140291
0.119107
0.129528
408.632
408.836
408.989
409.167
409.438
409.83
410.315
410.795
411.113
411.14
408.411
408.646
408.809
408.994
409.28
409.696
410.223
410.75
411.075
411.022
408.082
408.397
408.554
408.695
408.935
409.351
409.946
410.582
410.947
410.667
407.607
407.992
408.077
408.071
408.201
408.594
409.288
410.093
410.469
409.721
407.027
407.47
407.394
407.063
406.92
407.161
407.809
408.503
408.587
407.413
406.484
406.868
406.391
405.365
404.642
404.369
404.42
404.502
404.471
403.532
406.645
406.686
404.906
402.496
400.728
399.138
397.769
396.525
395.881
397.11
369.933
373.824
368.117
352.065
335.54
323.115
314.279
296.177
262.428
298.147
110.142
114.622
84.7293
50.6257
36.9977
35.0252
32.5838
23.2768
5.90836
16.9506
2.82386
38.3016
17.9664
0.868678
0.129667
0.183957
0.260148
0.277316
0.258135
0.312901
4.26246
0.0268194
0.115248
0.125456
0.0868223
0.108079
0.189007
0.213716
0.22106
0.299387
1.48611
0.179475
-0.0152026
0.0360875
0.0708669
0.129274
0.187831
0.227643
0.25021
0.299909
0.227055
0.0617092
0.0498303
0.107218
0.133522
0.166041
0.194407
0.251583
0.24508
0.277954
0.0522651
0.0575989
0.0689319
0.0955046
0.132402
0.159014
0.184633
0.255887
0.222559
0.298753
0.0792878
0.0778696
0.0893862
0.106231
0.127089
0.147977
0.192157
0.238547
0.225674
0.361336
0.0933765
0.0930158
0.0999925
0.111322
0.127078
0.138353
0.171854
0.229773
0.284794
0.296392
0.10324
0.104589
0.107472
0.113866
0.124189
0.132524
0.15284
0.219637
0.21315
0.18855
0.108048
0.108881
0.109961
0.113753
0.119584
0.127397
0.139405
0.169948
0.146916
0.154889
0.10646
0.107085
0.108112
0.111081
0.115623
0.12352
0.147298
0.134316
0.133022
0.136407
0.102028
0.103773
0.106036
0.109166
0.112742
0.125863
0.158091
0.124036
0.122089
0.127223
408.822
409.013
409.092
409.158
409.285
409.513
409.821
410.13
410.325
410.326
408.563
408.821
408.91
408.973
409.113
409.357
409.686
410.009
410.19
410.141
408.187
408.598
408.713
408.733
408.808
409.01
409.34
409.685
409.848
409.656
407.665
408.248
408.323
408.186
408.115
408.243
408.579
408.957
409.058
408.597
407.072
407.852
407.82
407.35
406.956
406.886
407.134
407.376
407.196
406.379
407.219
408.022
407.434
406.119
404.975
404.43
404.279
404.155
403.783
403.037
409.528
409.899
407.477
403.946
401.932
400.076
398.937
398.318
397.756
398.079
400.193
399.435
394.792
370.933
342.952
326.218
319.411
316.393
298.964
311.435
168.606
198.797
136.534
66.5933
37.2594
30.3308
31.2555
34.8353
21.501
26.4822
32.83
81.9492
28.1456
1.16847
0.17945
0.152444
0.183505
0.22706
0.240993
0.397495
11.9187
0.107282
0.121861
0.146114
0.1437
0.109867
0.115221
0.131864
0.144538
0.305952
0.00125709
0.0229266
0.0508918
0.0755613
0.105452
0.106821
0.12283
0.132075
0.147515
0.259667
-0.00209681
0.0325577
0.0714345
0.125466
0.163637
0.159935
0.171864
0.207528
0.211333
0.250371
0.0422265
0.0516519
0.0655775
0.0918572
0.131667
0.141937
0.156109
0.237559
0.210905
0.225025
0.0632207
0.0658987
0.0719976
0.0859217
0.106986
0.126103
0.154907
0.203159
0.180214
0.194542
0.0812529
0.0827565
0.0818315
0.0891812
0.102363
0.118677
0.147588
0.169452
0.17602
0.174046
0.100041
0.0987894
0.0962618
0.0966064
0.103824
0.114999
0.134842
0.140737
0.164404
0.165318
0.109846
0.104711
0.101416
0.0999339
0.103417
0.111081
0.121087
0.130313
0.140861
0.155613
0.0985709
0.099235
0.0979611
0.0987565
0.102116
0.107095
0.114387
0.12248
0.127499
0.135527
0.0822792
0.0902733
0.0936524
0.0982145
0.102661
0.105385
0.110105
0.11634
0.120064
0.124507
409.09
409.267
409.247
409.191
409.188
409.265
409.418
409.583
409.677
409.653
408.836
409.099
409.085
409.009
408.999
409.092
409.258
409.42
409.493
409.438
408.319
408.859
408.918
408.816
408.761
408.792
408.913
409.044
409.067
408.916
407.502
408.518
408.572
408.333
408.152
408.101
408.174
408.264
408.201
407.904
405.872
407.833
408.027
407.669
407.229
406.957
406.883
406.802
406.503
405.948
377.027
408.21
408.092
406.93
405.762
404.882
404.458
404.111
403.648
403.114
402.12
411.86
409.491
405.987
403.298
402.127
400.657
400.122
399.571
399.731
414.466
401.359
407.281
390.848
364.224
341.316
329.517
327.837
318.562
321.409
261.243
366.234
198.89
99.1416
54.9835
35.3156
29.6688
36.7459
32.4299
41.5007
190.557
100.643
31.9517
9.69024
0.197004
0.164608
0.140699
0.139035
0.207995
0.539146
8.84843
0.285607
0.223273
0.138549
0.167862
0.160848
0.117106
0.0796173
0.0987314
0.333862
0.0507181
0.12944
0.131134
0.129968
0.151444
0.124887
0.0839582
0.00770945
-0.0158051
0.197294
0.0562267
0.0867
0.0929307
0.144212
0.20078
0.162115
0.143072
0.132132
0.115191
0.197622
0.0529162
0.053679
0.0624427
0.113707
0.159991
0.134624
0.141641
0.176296
0.193941
0.210892
0.0579864
0.0570739
0.0567542
0.0858148
0.127088
0.111527
0.135261
0.157579
0.185079
0.188748
0.0852639
0.0862531
0.073124
0.0740198
0.0885536
0.100425
0.122578
0.13898
0.157603
0.164897
0.119932
0.115952
0.0967548
0.0792007
0.0909282
0.0967954
0.111711
0.125542
0.143316
0.150894
0.165438
0.126458
0.0995409
0.0829305
0.0901358
0.0941367
0.104586
0.118694
0.132209
0.142116
0.423525
0.0974814
0.0851392
0.0815379
0.0873123
0.0929154
0.100396
0.11005
0.119925
0.126157
0.690178
0.093246
0.0701974
0.0816579
0.0901967
0.095007
0.099635
0.105431
0.111775
0.115338
409.459
409.595
409.433
409.236
409.121
409.092
409.131
409.188
409.209
409.167
409.271
409.491
409.303
409.064
408.93
408.905
408.958
409.007
409.002
408.937
408.678
409.21
409.106
408.863
408.743
408.686
408.669
408.649
408.572
408.428
407.485
408.828
408.783
408.443
408.226
408.143
408.052
407.936
407.745
407.544
404.369
407.345
407.893
407.93
407.667
407.395
407.094
406.708
406.268
405.857
370.193
407.419
408.229
407.847
407.025
406.156
405.231
404.299
403.729
403.266
322.494
412.049
410.872
408.464
406.236
404.227
402.607
401.91
400.808
400.841
351.124
404.774
391.942
397.411
392.65
371.861
349.469
338.658
325.506
310.896
405.645
404.063
256.496
154.492
99.8269
68.0332
47.8636
48.1027
43.8327
58.1324
331.949
84.1292
32.2413
15.2627
8.19892
2.162
0.24115
0.0864722
0.155721
0.619414
17.8854
0.714496
0.576274
0.283041
0.186876
0.215738
0.182914
0.118201
0.156567
0.452786
0.288732
0.370662
0.44801
0.366325
0.187948
0.187952
0.124622
-0.00308038
-0.0941065
0.181226
0.170285
0.216098
0.296478
0.319855
0.171171
0.172643
0.142135
0.0749957
-0.00514047
0.138659
0.130853
0.0868753
0.0272012
0.0983512
0.130481
0.129588
0.142175
0.141285
0.150269
0.193005
0.101077
0.100494
0.0409514
0.0430682
0.0878316
0.0995854
0.131964
0.157355
0.183425
0.193351
0.133049
0.167565
0.0707783
0.0388115
0.0843579
0.0788214
0.108367
0.135403
0.150367
0.173095
0.0828124
0.155537
0.102012
0.0545681
0.0821998
0.0698022
0.0911314
0.126651
0.123544
0.149649
0.181995
0.235208
0.106458
0.0510394
0.0719914
0.0682496
0.0809638
0.113694
0.116392
0.12569
2.8549
1.3188
0.0846603
0.056945
0.0727323
0.0736813
0.0785475
0.0925199
0.10949
0.112773
4.49487
2.66081
0.0473894
0.0592148
0.0762414
0.079373
0.0838633
0.0911567
0.100507
0.104752
410.011
409.978
409.599
409.245
409.044
408.958
408.941
408.935
408.912
408.865
409.973
409.974
409.452
409.031
408.835
408.762
408.761
408.747
408.695
408.638
409.451
409.623
409.129
408.723
408.668
408.604
408.535
408.437
408.289
408.182
408.198
408.95
408.519
408.027
408.121
408.214
408.094
407.864
407.562
407.351
403.934
404.957
406.932
407.399
407.845
407.895
407.541
406.962
406.35
405.937
401.848
379.174
407.67
408.644
408.378
407.669
406.552
405.356
404.229
403.621
359.261
386.249
412.576
411.443
409.881
407.846
405.297
403.558
401.35
400.984
314.839
392.479
395.734
399.706
411.182
392.878
365.205
345.341
325.008
302.154
205.1
180.909
359.893
247.28
210.142
156.483
104.137
79.9326
71.4985
79.5325
19.9147
4.76018
22.0351
17.2899
10.6398
2.35599
0.384943
0.208904
0.113726
1.16226
2.4221
2.60182
1.34851
0.659247
0.335005
0.327327
0.283698
0.186416
0.229233
0.73093
1.44254
1.51243
1.06502
0.686175
0.292728
0.2758
0.200855
0.0523457
-0.0677404
0.228646
1.81354
0.334431
1.38393
0.830603
0.220379
0.213057
0.173421
0.062148
-0.0977605
0.119102
0.175012
0.118235
1.15827
0.559956
0.13473
0.137729
0.153715
0.127288
0.101147
0.185166
0.0110668
0.172596
0.911753
0.987929
0.0751924
0.0813677
0.11892
0.16024
0.192541
0.215674
0.00373857
1.05167
0.63615
1.01267
0.0417825
0.0383776
0.0722218
0.130596
0.16038
0.183272
0.0321866
2.92744
0.595151
0.465515
0.0494496
0.0192998
0.0378195
0.104
0.111738
0.148412
0.106451
4.92739
0.704306
0.123098
0.0503407
0.0203178
0.0283209
0.066674
0.0856138
0.109603
1.18255
5.82482
1.00644
0.0213723
0.0490186
0.0328148
0.0358578
0.0533637
0.0817497
0.0943194
4.4741
4.67016
0.543365
0.0343008
0.0541754
0.0522019
0.0537765
0.0654508
0.0832861
0.0899609
410.65
410.212
409.452
408.955
408.793
408.766
408.782
408.778
408.745
408.695
410.881
410.286
409.112
408.459
408.418
408.508
408.582
408.584
408.533
408.482
410.361
409.723
408.057
407.115
407.776
408.29
408.362
408.298
408.146
408.059
408.579
408.16
406.602
405.938
406.174
407.715
408.023
407.825
407.462
407.309
402.128
403.933
403.541
406.104
407.086
407.952
407.847
407.193
406.484
406.099
394.384
403.733
342.36
408.229
408.721
408.595
407.481
406.094
404.686
404.096
267.896
318.334
368.012
413.674
412.329
410.47
407.351
404.981
402.067
401.418
141.312
354.075
415.484
415.588
415.322
391.68
359.514
339.112
316.153
304.121
27.6549
77.2134
284.045
318.772
305.692
247.745
167.554
102.525
84.7681
104.241
4.24965
5.40608
4.80588
7.72098
9.49812
6.81055
0.832705
0.75847
0.715401
2.11695
3.05818
4.812
2.49182
1.06934
0.576725
0.465856
0.403786
0.276845
0.302119
1.19861
3.70782
5.16035
1.34854
0.71658
0.469972
0.385679
0.281926
0.109497
-0.0153512
0.356114
3.45498
2.66315
1.87829
0.587861
0.319258
0.258027
0.211465
0.0602572
-0.125687
0.151153
1.23217
3.30053
14.9319
1.5744
0.163259
0.130142
0.183943
0.126721
0.074416
0.202677
0.380942
14.4012
23.1232
5.41337
0.0514804
0.0383574
0.0977009
0.192612
0.211571
0.241838
0.182399
24.8534
25.5453
9.05271
-0.00506009
-0.0250776
0.00683419
0.159305
0.194903
0.198147
0.310605
25.6859
26.5426
9.30417
-0.0182539
-0.0464416
-0.0519819
0.0436522
0.111773
0.13613
0.043628
22.894
18.1728
3.55544
-0.00664251
-0.029672
-0.05112
-0.0226079
0.0520261
0.0908437
0.0872944
1.57937
0.999054
0.598308
0.0167514
0.00479205
-0.0208548
-0.0166029
0.041674
0.0718215
0.709988
0.13644
0.0782269
0.172178
0.0442475
0.0350166
0.0150555
0.021158
0.0562872
0.0696319
410.859
410.328
409.138
408.708
408.602
408.639
408.696
408.711
408.681
408.633
410.34
410.085
408.134
407.819
408.202
408.365
408.486
408.52
408.473
408.433
407.295
409.132
406.424
405.504
407.296
408.052
408.26
408.234
408.091
408.027
405.277
407.283
405.347
399.705
396.901
406.522
408.033
407.845
407.444
407.342
398.945
401.23
401.962
358.741
376.346
407.74
408.076
407.32
406.579
406.239
354.858
380.586
333.92
339.112
401.653
409.005
407.927
406.433
404.989
404.519
198.9
297.71
345.96
396.377
412.857
411.112
407.755
405.189
402.363
402.074
34.4513
229.55
415.523
417.401
415.649
397.18
358.551
328.669
311.927
304.845
10.2901
31.081
194.279
225.62
233.004
208.103
159.479
107.799
75.3046
116.024
4.96919
10.5448
4.56521
1.83351
1.16054
1.10839
1.04495
0.99405
1.2646
3.24756
3.39766
19.7104
1.66647
1.033
0.864785
0.668221
0.500806
0.348439
0.362587
1.24915
2.96422
21.7047
1.3554
0.790766
0.768878
0.613167
0.372008
0.152456
0.00976246
0.38449
4.46123
22.6694
1.42783
0.673326
1.13579
1.07153
0.350984
0.0813971
-0.106979
0.189533
16.9515
23.8503
5.39889
0.696932
1.44386
2.15309
0.537982
0.157325
0.10459
0.241514
25.0064
25.2424
18.8335
1.40952
1.15586
2.58292
1.68518
0.301169
0.263113
0.276345
26.0362
26.6133
26.0825
3.30706
0.522749
2.24789
3.47858
0.441011
0.223919
0.227368
18.5936
27.7588
27.1697
4.97468
0.0880233
0.90891
4.12016
0.878173
0.114555
0.156427
1.83315
11.378
28.3006
5.87112
0.0455394
0.000357575
2.76988
1.35627
0.051577
0.0934346
0.214272
0.0996624
10.1978
4.99885
0.0488316
0.0100147
0.90222
1.49737
0.0283183
0.0572622
0.328775
0.124237
0.103429
1.33576
0.145821
0.0376677
0.191462
1.32481
0.0324741
0.0495042
410.838
410.353
409.094
408.516
408.496
408.612
408.7
408.73
408.707
408.66
410.008
410.332
408.139
407.486
407.787
408.269
408.48
408.544
408.503
408.464
407.238
409.131
405.964
404.683
406.794
408.019
408.252
408.257
408.129
408.066
405.674
405.79
404.106
394.583
394.695
405.75
408.042
407.9
407.503
407.402
397.983
400.76
389.729
349.566
359.869
405.982
408.215
407.452
406.679
406.344
302.243
357.206
331.84
337.284
393.086
408.814
408.103
406.625
405.135
404.721
268.988
335.05
365.142
397.446
410.204
410.133
407.863
405.497
402.611
402.554
39.4871
90.0843
326.152
380.789
408.544
408.615
367.896
325.878
308.013
306.17
8.076
10.1829
42.086
82.6972
124.579
147.162
138.478
118.933
89.3307
133.353
4.50233
4.42115
2.92729
1.8996
1.84499
1.68944
1.0656
0.994911
1.20677
3.67756
2.83727
4.36919
1.36473
1.32611
1.26641
0.880237
0.544734
0.380113
0.356992
1.00915
4.10654
14.8191
0.954324
0.991262
0.969626
0.732256
0.460132
0.180521
0.0361496
0.343157
4.73265
22.211
0.99665
0.761668
5.25941
4.73796
0.579357
0.118504
-0.0455014
0.207771
6.54495
23.4001
4.75778
0.933872
18.7963
19.11
1.03404
0.23508
0.16222
0.262355
19.2833
24.9661
20.1913
12.8509
21.5123
20.7326
8.43717
0.443589
0.335362
0.307345
26.4391
26.5671
26.0271
25.588
24.6311
22.8502
21.5216
1.07191
0.303498
0.267783
27.5502
27.9209
27.2861
26.154
24.1376
23.3322
22.8934
4.30555
0.169332
0.187614
26.5412
19.2828
21.891
20.5519
7.48419
18.241
24.0422
13.8261
0.0991293
0.114541
5.23392
0.17509
2.20424
0.470447
0.0935662
2.02201
22.8701
17.9269
0.178809
0.0652216
0.0560024
0.105099
0.0955097
0.117649
0.13228
0.0808867
4.57195
3.80967
0.167034
0.0466493
410.497
410.147
409.378
408.888
408.75
408.756
408.81
408.836
408.82
408.777
410.67
410.15
408.97
408.348
408.316
408.455
408.596
408.644
408.612
408.57
409.627
408.94
407.298
406.517
407.43
408.122
408.345
408.349
408.235
408.16
405.936
405.226
402.88
404.323
405.456
407.119
407.917
407.871
407.569
407.439
401.374
403.711
364.644
383.389
407.165
407.871
407.94
407.37
406.683
406.317
382.757
359.349
381.573
404.947
408.544
408.519
407.69
406.423
405
404.481
345.205
387.504
403.837
408.755
409.859
410.074
407.768
405.588
402.662
402.145
225.9
179.831
393.08
406.329
410.558
397.215
362.262
342.978
322.221
309.607
49.4625
8.34281
56.8546
97.3742
191.637
236.133
197.867
122.75
90.6497
116.191
2.4731
2.77948
1.68485
1.63119
1.99677
2.25205
0.898818
0.828796
0.683586
1.88216
1.06897
1.11532
0.943355
1.08729
0.986446
0.710708
0.479595
0.33532
0.304702
0.975343
0.869025
0.66743
0.734698
0.789265
0.790309
0.633581
0.380159
0.198223
0.0636132
0.301612
0.204922
0.651263
0.587194
0.550154
1.45567
1.21491
0.368974
0.142217
-0.0171152
0.183078
0.0781572
0.427079
0.951648
2.78393
3.84874
2.38035
0.526634
0.214987
0.155615
0.231464
0.0555292
0.707375
1.15857
5.39489
7.07927
5.14827
1.22121
0.344267
0.290742
0.274569
0.619703
0.962567
0.859758
3.04784
7.62957
15.12
6.63245
0.548614
0.273162
0.248197
1.6247
0.949099
0.285727
0.399304
2.98206
22.3776
18.2514
1.5664
0.166136
0.182401
1.56197
0.434779
0.0164381
0.00953534
0.695404
22.5892
23.4059
4.11856
0.0699021
0.115759
0.844451
0.265226
0.111635
0.113614
0.40265
22.5735
23.6934
5.58101
0.0251181
0.0704145
0.321402
0.194475
0.240599
0.187424
2.0286
8.02269
13.517
4.39271
0.0205373
0.0557978
409.646
409.701
409.393
409.105
408.978
408.962
409.003
409.037
409.038
409.001
409.386
409.491
409.091
408.806
408.712
408.739
408.815
408.854
408.829
408.782
407.95
408.416
408.388
408.296
408.455
408.556
408.594
408.554
408.45
408.344
404.975
405.24
406.502
407.001
407.63
408.074
408.141
408.001
407.72
407.53
397.155
373.307
398.037
407.444
407.945
408.077
407.805
407.243
406.621
406.22
347.694
390.391
408.625
408.917
408.772
408.145
407.038
405.821
404.582
404.02
364.821
408.027
409.248
410.69
410.243
408.758
406.158
404.25
401.653
401.46
413.968
409.681
407.247
403.799
407.502
398.416
373.147
350.026
323.958
304.672
292.341
158.577
159.611
317.566
310.18
209.721
115.49
85.6996
69.5527
83.4429
46.1183
1.53576
1.33602
27.6704
27.0797
10.4968
0.543589
0.304642
0.151112
0.79855
0.243328
0.395603
0.534385
0.565165
0.512607
0.426319
0.356737
0.261487
0.241154
0.509907
0.325191
0.320843
0.432334
0.470093
0.402311
0.358642
0.279938
0.155481
0.0388505
0.211502
0.214503
0.203314
0.26185
0.302089
0.218561
0.231666
0.229249
0.136881
0.0136981
0.149513
0.133882
0.0839608
0.0907801
0.323186
0.0634352
0.123219
0.211315
0.189386
0.144811
0.196077
0.0863606
0.0392524
0.0192506
0.306251
-0.0231499
0.0469459
0.174311
0.221144
0.223849
0.223079
0.0573349
0.0241986
0.0113966
0.206561
-0.0696205
0.0237722
0.141569
0.213115
0.213826
0.203254
0.0377217
0.024652
0.00495906
0.129726
-0.0756652
0.0101355
0.509095
0.148532
0.140012
0.158465
0.075238
0.0661919
0.0497694
0.129598
-0.0321635
-0.0523328
0.778759
0.0306156
0.0689414
0.110411
0.362117
0.123396
0.159756
0.178004
0.0334481
-0.0336484
0.453617
-0.0201101
0.040498
0.0778145
0.565471
0.685411
0.836792
0.331088
0.119273
0.0483625
0.111813
0.024252
0.048417
0.0702313
409.143
409.353
409.253
409.127
409.092
409.14
409.241
409.343
409.392
409.362
408.684
409.074
409.017
408.89
408.866
408.94
409.068
409.168
409.193
409.139
407.145
408.336
408.596
408.548
408.621
408.707
408.784
408.821
408.776
408.65
403.399
406.255
407.578
407.778
407.971
408.124
408.188
408.135
407.954
407.725
361.714
397.897
408.002
408.06
407.92
407.713
407.433
407.037
406.572
406.185
352.279
409.449
409.603
408.831
407.811
406.778
405.778
404.794
404.069
403.635
398.501
413.478
412.25
410.102
407.767
405.506
403.522
402.286
400.684
400.949
420.195
415.799
398.626
395.769
402.32
381.393
355.897
339.532
322.507
312.342
320.905
287.806
366.817
264.357
153.984
83.2855
53.9338
52.0283
40.3182
59.738
24.7855
9.79482
60.8413
64.9853
33.5366
6.68973
0.282698
0.128443
0.308679
0.419886
0.25454
0.160809
0.136432
0.241994
0.29028
0.282795
0.241239
0.179458
0.181905
0.320521
0.298518
0.305324
0.29968
0.281057
0.259075
0.248523
0.194632
0.104049
0.0700373
0.190873
0.230946
0.239898
0.228311
0.198785
0.189824
0.200251
0.190452
0.146463
0.094946
0.166777
0.152772
0.149143
0.128539
0.1097
0.119201
0.147895
0.179918
0.189937
0.167056
0.18753
0.106191
0.0923977
0.0676155
0.0543093
0.0684484
0.0955561
0.153598
0.19534
0.201775
0.193967
0.0820904
0.0774289
0.0464026
0.0291687
0.0312787
0.0389034
0.0990144
0.149167
0.187781
0.178767
0.0638314
0.0808388
0.0517715
0.031381
0.014791
-0.0028008
0.0258513
0.091397
0.138698
0.149338
0.0686278
0.0952315
0.0734841
0.0560501
0.0321017
-0.00114732
-0.0142659
0.0440539
0.0907504
0.116097
0.0997819
0.103228
0.103551
0.0921831
0.0696186
0.0264961
0.0128882
0.0390557
0.07543
0.0932521
0.346226
0.128436
0.132381
0.131468
0.114828
0.0681095
0.0472809
0.0576198
0.0792491
0.0888132
408.928
409.134
409.158
409.164
409.23
409.379
409.592
409.8
409.922
409.91
408.514
408.882
408.954
408.96
409.026
409.21
409.439
409.644
409.745
409.703
407.622
408.494
408.724
408.747
408.823
408.923
409.108
409.282
409.331
409.194
406.058
407.37
408.163
408.184
408.179
408.256
408.409
408.526
408.471
408.187
373.108
408.09
408.541
408.106
407.668
407.35
407.255
407.121
406.787
406.276
399.625
410.04
409.58
408.077
406.58
405.305
404.924
404.412
403.784
403.393
415.214
413.85
411.537
407.962
404.954
403.175
401.418
400.353
399.327
399.831
408.647
406.124
396.943
401.15
375.261
345.164
331.325
327.717
314.656
324.916
301.708
360.263
316.878
143.333
71.9512
37.8001
32.1417
39.8649
27.8565
41.2494
7.98425
28.8297
70.1338
60.3676
26.6959
0.192285
0.102901
0.196816
0.250506
0.365519
0.259916
0.183816
0.16361
0.212249
0.204968
0.189267
0.131276
0.14935
0.184858
0.255701
0.201167
0.25496
0.235111
0.1978
0.174191
0.161106
0.127926
0.121544
0.147811
0.204589
0.189707
0.213231
0.21296
0.171177
0.162858
0.175885
0.180885
0.173625
0.172614
0.196776
0.137887
0.154199
0.149319
0.124945
0.131565
0.161062
0.197508
0.205626
0.184336
0.193817
0.112254
0.108848
0.103828
0.0950583
0.106572
0.132804
0.179088
0.194002
0.1976
0.190095
0.103109
0.0968868
0.0884159
0.0803702
0.0860899
0.104563
0.131037
0.160973
0.18754
0.17843
0.0966108
0.0953802
0.0893768
0.0780619
0.0766347
0.0850006
0.0992271
0.123858
0.153995
0.159944
0.095826
0.0984678
0.0964267
0.0873776
0.0878396
0.0842178
0.0794238
0.101054
0.117242
0.129322
0.101552
0.110049
0.110569
0.106432
0.117061
0.0980657
0.0792067
0.0918751
0.104448
0.110768
0.11148
0.123704
0.126993
0.125955
0.140014
0.120894
0.0877228
0.0931058
0.100803
0.104943
408.81
408.998
409.109
409.226
409.414
409.705
410.067
410.415
410.637
410.65
408.541
408.794
408.927
409.045
409.252
409.561
409.942
410.304
410.513
410.476
408.163
408.561
408.743
408.829
408.974
409.24
409.62
409.999
410.185
410.011
408.059
408.186
408.391
408.321
408.333
408.534
408.906
409.287
409.4
408.973
407.478
408.507
408.43
407.905
407.446
407.343
407.54
407.7
407.503
406.783
409.586
409.448
408.652
407.071
405.492
405.003
404.788
404.394
403.898
403.38
412.325
411.755
409.238
405.599
403.256
401.188
399.69
398.547
397.717
398.498
393.003
387.312
393.589
379.323
345.882
326.216
320.355
313.939
291.395
315.089
239.026
302.329
182.143
80.91
41.5706
29.3798
33.4383
33.1752
15.1663
26.1477
6.10127
24.6193
47.8057
36.6373
6.38574
0.102299
0.150484
0.265889
0.282462
0.304282
0.129631
0.168756
0.192475
0.186253
0.146076
0.0871856
0.0809428
0.18217
0.215502
0.251315
0.138765
0.178993
0.174676
0.138586
0.100495
0.0850625
0.106488
0.167672
0.195759
0.238074
0.194034
0.215522
0.199755
0.1528
0.141233
0.14884
0.180591
0.197588
0.197108
0.223675
0.139986
0.157987
0.158318
0.133764
0.135127
0.15584
0.199062
0.207395
0.192869
0.20955
0.12373
0.113169
0.124847
0.120326
0.125711
0.160376
0.191309
0.189975
0.185765
0.200555
0.131098
0.113361
0.114884
0.111658
0.117306
0.143661
0.155746
0.170488
0.189369
0.18894
0.129312
0.114668
0.114534
0.114042
0.129412
0.144511
0.129353
0.14323
0.161734
0.167988
0.11673
0.114589
0.114575
0.175204
0.302646
0.136615
0.112113
0.124513
0.134005
0.140313
0.116412
0.119092
0.120304
0.235008
0.327518
0.217164
0.101502
0.110804
0.119714
0.124093
0.122764
0.12628
0.127589
0.221306
0.347959
0.334025
0.116648
0.103304
0.111053
0.114981
408.722
408.915
409.095
409.317
409.644
410.093
410.628
411.147
411.491
411.53
408.52
408.738
408.929
409.161
409.502
409.975
410.551
411.117
411.469
411.429
408.24
408.52
408.711
408.893
409.192
409.669
410.309
410.976
411.365
411.107
407.979
408.198
408.309
408.342
408.535
408.982
409.697
410.504
410.9
410.208
408.091
408.113
407.98
407.611
407.436
407.665
408.264
408.894
409.01
407.983
407.953
407.884
407.205
405.992
405.25
405.083
405.023
404.872
404.832
404.141
407.657
407.744
406.017
403.6
401.871
400.146
398.366
396.751
396.231
398.074
362.2
363.917
367.765
353.184
333.148
322.82
314.166
289.172
255.586
304.287
141.359
162.227
99.0661
51.9445
32.8773
33.8352
35.3543
19.1236
2.70413
18.855
0.618103
13.3267
13.9275
7.80428
0.135173
0.133058
0.198147
0.274903
0.274934
0.28194
0.0600538
0.129222
0.190482
0.176551
0.122309
0.0581275
0.107267
0.207083
0.234334
0.267636
0.0776451
0.14346
0.152889
0.113468
0.0673523
0.0499951
0.130496
0.210656
0.23711
0.264301
0.123533
0.147417
0.161633
0.159714
0.153482
0.147299
0.192804
0.219607
0.222533
0.248548
0.131341
0.122633
0.139699
0.153816
0.155686
0.16187
0.207494
0.212821
0.208343
0.232388
0.125751
0.117534
0.131558
0.136633
0.142964
0.180295
0.207062
0.185349
0.198649
0.215257
0.129242
0.124066
0.130294
0.133345
0.140848
0.186744
0.182457
0.177131
0.186013
0.195286
0.130612
0.127954
0.133527
0.167708
0.179067
0.174086
0.154166
0.160454
0.166822
0.171419
0.126344
0.126911
0.135158
0.265749
0.309612
0.145166
0.137521
0.141242
0.147387
0.150231
0.126392
0.12795
0.139619
0.334179
0.343367
0.136473
0.123965
0.125095
0.131194
0.134771
0.129133
0.13058
0.138912
0.331164
0.357083
0.139388
0.114926
0.112515
0.118905
0.122733
408.632
408.843
409.083
409.407
409.863
410.465
411.175
411.874
412.351
412.417
408.447
408.663
408.912
409.248
409.724
410.368
411.153
411.948
412.473
412.429
408.13
408.379
408.619
408.925
409.397
410.097
411.033
412.065
412.744
412.372
407.696
407.91
408.056
408.284
408.709
409.444
410.591