/*--------------------------------*- C++ -*----------------------------------*\
| =========                 |                                                 |
| \\      /  F ield         | OpenFOAM: The Open Source CFD Toolbox           |
|  \\    /   O peration     | Version:  2312                                  |
|   \\  /    A nd           | Website:  www.openfoam.com                      |
|    \\/     M anipulation  |                                                 |
\*---------------------------------------------------------------------------*/
FoamFile
{
    version     2.0;
    format      ascii;
    arch        "LSB;label=32;scalar=64";
    class       surfaceScalarField;
    location    "0.58";
    object      phi;
}
// * * * * * * * * * * * * * * * * * * * * * * * * * * * * * * * * * * * * * //

dimensions      [0 3 -1 0 0 0 0];

oriented        oriented;

internalField   nonuniform List<scalar> 
22600
(
-1.78412e-07
1.13785e-07
8.89468e-08
-3.70854e-07
9.15854e-08
1.00856e-07
-5.34568e-07
4.72559e-08
1.16458e-07
-6.50872e-07
-1.68776e-08
1.33181e-07
-7.04195e-07
-9.58721e-08
1.49195e-07
-6.86798e-07
-1.81432e-07
1.64036e-07
-5.95264e-07
-2.69445e-07
1.77911e-07
-4.28125e-07
-3.59466e-07
1.92327e-07
-2.04911e-07
-4.3225e-07
2.09036e-07
-4.07288e-07
2.02377e-07
-1.7869e-07
2.48014e-07
7.37641e-08
-3.71988e-07
2.00855e-07
8.40288e-08
-5.30487e-07
1.08262e-07
9.74919e-08
-6.41206e-07
-1.99622e-08
1.13804e-07
-6.9338e-07
-1.74945e-07
1.31246e-07
-6.7919e-07
-3.43402e-07
1.47779e-07
-5.91194e-07
-5.20245e-07
1.62804e-07
-4.23674e-07
-7.0498e-07
1.77994e-07
-1.93075e-07
-8.58422e-07
1.95574e-07
-7.91688e-07
1.91325e-07
-2.24791e-07
4.1297e-07
9.219e-08
-4.64442e-07
3.39147e-07
1.01359e-07
-6.64262e-07
1.9164e-07
1.16442e-07
-8.07781e-07
-1.12731e-08
1.3483e-07
-8.80176e-07
-2.56329e-07
1.53779e-07
-8.73727e-07
-5.21739e-07
1.71889e-07
-7.74594e-07
-8.0583e-07
1.86453e-07
-5.62629e-07
-1.12078e-06
2.03832e-07
-2.45346e-07
-1.41459e-06
2.38884e-07
-1.28e-06
2.42964e-07
-2.98723e-07
5.82574e-07
1.66649e-07
-6.06364e-07
4.77116e-07
1.69672e-07
-8.61374e-07
2.72591e-07
1.74058e-07
-1.04545e-06
-1.05576e-08
1.83358e-07
-1.15046e-06
-3.4551e-07
1.94198e-07
-1.16648e-06
-7.09823e-07
2.04104e-07
-1.07703e-06
-1.11929e-06
2.24011e-07
-8.45368e-07
-1.64585e-06
2.93408e-07
-3.94174e-07
-2.28911e-06
4.23325e-07
-2.08004e-06
4.05873e-07
-3.87267e-07
6.3322e-07
3.69207e-07
-7.65013e-07
4.91768e-07
3.63094e-07
-1.07716e-06
2.43261e-07
3.41482e-07
-1.30193e-06
-1.16707e-07
3.30919e-07
-1.44385e-06
-5.23132e-07
3.19539e-07
-1.50618e-06
-9.72394e-07
3.24902e-07
-1.47987e-06
-1.54041e-06
3.94803e-07
-1.2827e-06
-2.42012e-06
5.77104e-07
-6.84209e-07
-3.69424e-06
8.06645e-07
-3.49772e-06
7.33471e-07
-3.81593e-07
6.15734e-07
4.36282e-07
-7.72232e-07
4.33637e-07
4.4877e-07
-1.11331e-06
1.19937e-07
4.64401e-07
-1.33392e-06
-3.96708e-07
5.00608e-07
-1.51858e-06
-8.67719e-07
5.29247e-07
-1.65883e-06
-1.41063e-06
5.78493e-07
-1.68268e-06
-2.22187e-06
7.05309e-07
-1.5148e-06
-3.48799e-06
8.99991e-07
-9.1084e-07
-5.34972e-06
1.05152e-06
-5.32401e-06
9.15447e-07
-4.04136e-07
1.21442e-06
-6.88927e-08
-9.21549e-07
1.02392e-06
-7.28682e-08
-1.35697e-06
5.56401e-07
-1.04318e-09
-1.71924e-06
-2.60857e-07
2.2642e-07
-1.97156e-06
-1.10453e-06
4.89125e-07
-2.04804e-06
-2.03132e-06
6.97171e-07
-1.88186e-06
-3.29819e-06
9.10143e-07
-1.53829e-06
-4.97273e-06
1.14117e-06
-9.57798e-07
-7.11244e-06
1.18222e-06
-7.08029e-06
7.98479e-07
-1.45115e-06
3.14926e-06
-3.60326e-07
-2.67154e-06
2.5414e-06
-2.97096e-07
-3.42655e-06
1.45048e-06
-1.39064e-07
-3.71198e-06
-1.11318e-07
1.35887e-07
-3.81586e-06
-1.4829e-06
4.82259e-07
-3.516e-06
-3.04691e-06
7.15723e-07
-2.91521e-06
-5.00648e-06
1.1075e-06
-2.09012e-06
-7.41452e-06
1.6167e-06
-1.10181e-06
-9.80798e-06
1.70724e-06
-9.07677e-06
8.94673e-07
-4.60988e-06
7.18052e-06
2.17459e-07
-6.48593e-06
4.23207e-06
1.85379e-07
-6.49131e-06
1.43352e-06
2.23416e-08
-5.29044e-06
-1.64139e-06
3.29201e-07
-3.73728e-06
-2.83668e-06
-1.99377e-07
-3.18665e-06
-4.23542e-06
6.37874e-07
-3.10507e-06
-6.39458e-06
1.30651e-06
-2.49752e-06
-9.66165e-06
1.63959e-06
-1.43783e-06
-1.2615e-05
1.74736e-06
-1.20466e-05
1.53197e-06
-3.19329e-06
1.16667e-05
-8.13004e-06
2.83699e-06
1.11103e-05
-1.29085e-05
8.3668e-06
1.19679e-05
-1.60642e-05
1.18455e-05
1.02485e-05
-1.53686e-05
1.2014e-05
7.41437e-06
-1.04195e-05
6.56104e-06
3.16518e-06
-1.94764e-06
1.77161e-06
-2.98981e-06
1.38466e-06
2.80059e-07
-8.23583e-06
6.57341e-08
-1.66051e-07
-1.15582e-05
-6.10725e-07
-1.31496e-05
9.36966e-07
-6.01604e-06
1.35206e-05
-6.75139e-06
2.17397e-06
1.41213e-05
-1.12011e-05
7.73479e-06
1.59591e-05
-9.55194e-06
1.04704e-05
1.52743e-05
-7.76149e-06
1.04796e-05
1.22048e-05
-4.79964e-06
7.58557e-06
6.38845e-06
-3.29236e-07
4.54245e-06
-8.99075e-07
9.52379e-07
3.12699e-06
-5.10808e-06
-1.71229e-06
2.21774e-06
-6.64587e-06
-4.00308e-06
-9.31368e-06
-1.61818e-06
-4.65667e-06
1.26455e-05
-3.22308e-06
9.63695e-07
1.34131e-05
-4.91215e-06
4.26613e-06
1.48491e-05
-2.1925e-06
5.7111e-06
1.43625e-05
-5.33203e-07
6.34056e-06
1.10873e-05
4.88126e-07
5.9207e-06
5.61422e-06
1.19409e-06
4.19176e-06
7.8005e-07
4.9818e-08
3.06543e-06
-1.98577e-06
-1.99598e-06
3.04539e-06
-2.51134e-06
-4.11449e-06
-3.61542e-06
-2.65287e-06
-2.27483e-06
1.05721e-05
-4.58671e-07
2.98795e-07
1.10569e-05
-2.17493e-07
1.6745e-06
1.14532e-05
2.02023e-06
2.66777e-06
1.067e-05
2.69922e-06
3.69097e-06
8.30478e-06
1.75928e-06
3.75618e-06
5.41431e-06
1.3469e-07
2.69207e-06
2.96623e-06
-1.12208e-06
1.99063e-06
2.81414e-07
-1.56575e-06
2.14319e-06
-2.72563e-07
-2.39133e-06
3.20872e-08
-1.50432e-06
-6.42216e-07
8.44404e-06
8.17729e-07
1.20147e-07
8.60883e-06
1.68575e-06
6.45639e-07
8.76324e-06
2.16447e-06
1.35132e-06
8.50098e-06
1.46338e-06
2.12668e-06
7.5713e-06
-4.18754e-08
2.14202e-06
6.87229e-06
-1.47332e-06
1.79417e-06
4.91596e-06
-1.60187e-06
1.3231e-06
2.17525e-06
-1.42276e-06
1.52216e-06
1.55613e-06
-2.02776e-06
2.15489e-06
-6.00642e-07
-6.81638e-08
6.82533e-06
8.58159e-07
1.67803e-07
6.9128e-06
1.46006e-06
2.64808e-07
7.12105e-06
1.54518e-06
6.49559e-07
7.52405e-06
5.92173e-07
1.21746e-06
7.74196e-06
-7.38562e-07
1.29482e-06
8.16165e-06
-1.36672e-06
1.156e-06
5.98193e-06
-9.27159e-07
8.55694e-07
3.55639e-06
-1.08083e-06
1.10251e-06
3.31715e-06
-2.00784e-06
3.35402e-06
-9.66132e-08
-4.74107e-08
5.54402e-06
7.30346e-07
1.79505e-07
5.56585e-06
1.12004e-06
1.78322e-07
5.71452e-06
1.40772e-06
3.8304e-07
6.31063e-06
1.00871e-06
8.17259e-07
7.0421e-06
2.65645e-07
1.12167e-06
7.75292e-06
1.04314e-07
9.91538e-07
5.98352e-06
1.28549e-07
6.28619e-07
4.53297e-06
-6.13658e-07
1.03357e-06
4.80638e-06
-1.89418e-06
4.5127e-06
-1.25103e-07
-1.1273e-07
4.3992e-06
8.41495e-07
4.11339e-08
4.36109e-06
1.0509e-06
4.08998e-08
4.41249e-06
1.30226e-06
2.234e-07
4.89252e-06
1.2356e-06
6.51271e-07
5.58194e-06
1.03229e-06
1.34508e-06
6.0011e-06
1.05802e-06
1.44737e-06
5.14545e-06
7.35767e-07
9.17132e-07
5.06777e-06
-4.5667e-09
1.00972e-06
6.14344e-06
-1.42965e-06
5.43877e-06
8.36496e-08
6.93133e-10
3.38291e-06
8.55018e-07
1.10476e-07
3.3371e-06
9.14203e-07
1.90013e-07
3.37578e-06
9.57175e-07
5.04451e-07
3.68199e-06
8.96089e-07
1.16647e-06
4.14554e-06
7.74383e-07
2.14248e-06
4.23705e-06
7.88043e-07
2.20517e-06
4.45282e-06
6.29936e-07
1.28322e-06
5.83775e-06
1.51972e-07
6.0466e-07
7.79068e-06
-9.6868e-07
5.24571e-06
7.97718e-07
2.83631e-07
2.55336e-06
5.45633e-07
5.09928e-07
2.55935e-06
5.51458e-07
7.69025e-07
2.62568e-06
4.91005e-07
1.24265e-06
2.78547e-06
4.22891e-07
2.07677e-06
2.98904e-06
3.22378e-07
2.8408e-06
3.16618e-06
3.06846e-07
2.27165e-06
4.76269e-06
2.5928e-07
1.05656e-06
7.2325e-06
-1.79665e-07
-2.03718e-08
9.57314e-06
-7.05519e-07
3.80906e-06
1.41628e-06
5.10348e-07
1.9784e-07
1.9651e-06
8.16881e-07
2.58368e-07
1.99446e-06
1.18964e-06
2.24997e-07
2.02793e-06
1.72101e-06
2.65754e-07
1.98835e-06
2.42399e-06
2.63471e-07
2.02258e-06
2.43657e-06
2.1567e-07
2.93793e-06
1.27418e-06
-1.94183e-07
6.11925e-06
3.59232e-07
-8.41924e-07
8.98937e-06
-2.3698e-07
-6.04507e-07
1.07739e-05
1.10849e-06
2.46359e-06
-2.14459e-07
2.72468e-08
3.07702e-07
-4.41915e-07
1.4831e-08
3.13481e-07
-6.2262e-07
-2.45026e-08
3.21666e-07
-7.40764e-07
-8.2439e-08
3.33764e-07
-7.87163e-07
-1.53545e-07
3.4914e-07
-7.57644e-07
-2.34043e-07
3.68559e-07
-6.49733e-07
-3.22095e-07
3.92094e-07
-4.6012e-07
-4.18452e-07
4.21166e-07
-2.11462e-07
-4.92929e-07
4.53307e-07
-4.30788e-07
4.21703e-07
-2.04354e-07
5.57519e-08
2.85369e-07
-4.31157e-07
3.97072e-08
2.85956e-07
-6.13712e-07
-3.55092e-08
2.91054e-07
-7.34754e-07
-1.51837e-07
3.04245e-07
-7.8588e-07
-2.93942e-07
3.22769e-07
-7.62585e-07
-4.56735e-07
3.47177e-07
-6.5777e-07
-6.40892e-07
3.76787e-07
-4.6147e-07
-8.50549e-07
4.13792e-07
-1.98043e-07
-1.01338e-06
4.52596e-07
-8.5472e-07
4.17213e-07
-2.57939e-07
1.35161e-07
3.13004e-07
-5.38962e-07
1.09913e-07
3.12175e-07
-7.68216e-07
-9.42497e-09
3.19613e-07
-9.24182e-07
-2.03267e-07
3.42226e-07
-9.9791e-07
-4.40205e-07
3.7377e-07
-9.85147e-07
-7.10797e-07
4.13188e-07
-8.68926e-07
-1.02993e-06
4.59268e-07
-6.16414e-07
-1.42217e-06
5.22945e-07
-2.42936e-07
-1.75019e-06
6.0222e-07
-1.40797e-06
5.53279e-07
-3.46702e-07
3.20556e-07
3.77941e-07
-7.08738e-07
2.54139e-07
3.87482e-07
-1.00416e-06
6.62665e-08
3.93793e-07
-1.21154e-06
-2.31303e-07
4.18766e-07
-1.32963e-06
-5.83589e-07
4.55676e-07
-1.35801e-06
-9.86283e-07
5.07975e-07
-1.27301e-06
-1.49148e-06
6.00554e-07
-9.86266e-07
-2.20116e-06
7.85651e-07
-4.13998e-07
-2.90145e-06
1.00231e-06
-2.26428e-06
8.48181e-07
-4.77686e-07
6.82867e-07
5.23999e-07
-9.40714e-07
5.24623e-07
5.55637e-07
-1.31525e-06
2.28718e-07
5.53571e-07
-1.59365e-06
-1.94012e-07
5.72019e-07
-1.7731e-06
-7.0239e-07
6.178e-07
-1.87454e-06
-1.27349e-06
7.13548e-07
-1.85722e-06
-2.04942e-06
9.35431e-07
-1.55278e-06
-3.24426e-06
1.31576e-06
-7.54777e-07
-4.53102e-06
1.63821e-06
-3.60149e-06
1.31591e-06
-5.58287e-07
1.17487e-06
5.40275e-07
-1.09867e-06
9.01913e-07
6.11863e-07
-1.5304e-06
4.27405e-07
6.97443e-07
-1.85133e-06
-1.74771e-07
8.02302e-07
-2.09945e-06
-8.35146e-07
9.10123e-07
-2.25111e-06
-1.63334e-06
1.08999e-06
-2.23437e-06
-2.76369e-06
1.40284e-06
-1.88135e-06
-4.47808e-06
1.7808e-06
-9.72821e-07
-6.35289e-06
1.96485e-06
-5.12889e-06
1.47003e-06
-6.54051e-07
1.9068e-06
-2.62981e-08
-1.29159e-06
1.4387e-06
2.78813e-08
-1.79664e-06
7.07606e-07
2.23805e-07
-2.28252e-06
-3.56908e-08
5.73221e-07
-2.63451e-06
-9.71317e-07
9.77282e-07
-2.79011e-06
-2.11063e-06
1.33006e-06
-2.69585e-06
-3.67076e-06
1.72295e-06
-2.24787e-06
-5.91392e-06
2.12903e-06
-1.12362e-06
-8.57021e-06
2.2753e-06
-6.80674e-06
1.3527e-06
-1.2162e-06
3.51807e-06
-6.26343e-07
-2.39638e-06
2.67899e-06
-3.57196e-07
-3.29946e-06
1.46798e-06
3.64096e-09
-3.89094e-06
1.7072e-07
5.20953e-07
-4.23135e-06
-1.19421e-06
1.04556e-06
-4.11252e-06
-2.88205e-06
1.36832e-06
-3.63194e-06
-4.85975e-06
1.81591e-06
-3.10084e-06
-7.25401e-06
2.4257e-06
-1.71343e-06
-1.13053e-05
3.05492e-06
-9.61172e-06
1.98623e-06
-5.01775e-06
8.38069e-06
-1.69681e-07
-6.68261e-06
5.42824e-06
-8.99013e-07
-6.69413e-06
2.72589e-06
-1.22404e-06
-5.78754e-06
2.72356e-07
-6.79031e-07
-3.96543e-06
-1.99408e-06
-1.22162e-06
-2.70481e-06
-3.43391e-06
-7.08956e-08
-2.02264e-06
-4.9718e-06
7.36403e-07
-1.89282e-06
-6.52469e-06
7.80441e-07
-1.84919e-06
-1.11814e-05
1.5798e-06
-1.26323e-05
2.70338e-06
-1.88887e-06
8.27126e-06
-1.03541e-05
2.2367e-06
4.05109e-06
-1.56569e-05
5.83772e-06
1.38485e-06
-1.83242e-05
6.81183e-06
2.48248e-06
-1.85528e-05
6.68416e-06
4.31027e-06
-1.65962e-05
4.88497e-06
4.07516e-06
-7.65751e-06
2.45241e-06
1.20714e-07
-1.2753e-06
1.60973e-06
-4.15437e-06
-1.46191e-06
2.58542e-07
-8.12915e-06
-2.31176e-06
-1.1531e-05
9.42473e-08
-2.49126e-06
8.29723e-06
-1.01871e-05
2.39676e-06
3.65506e-06
-1.5693e-05
6.32362e-06
3.10549e-06
-1.51995e-05
7.24726e-06
5.73305e-06
-1.19357e-05
6.65313e-06
8.0209e-06
-7.91615e-06
5.68913e-06
7.63273e-06
-2.92281e-06
4.25951e-06
3.01871e-06
-5.15995e-07
4.1545e-06
-1.94055e-06
-3.8211e-06
2.71385e-06
-4.20678e-06
-6.4848e-06
-6.84747e-06
-3.58791e-06
8.86647e-07
8.0568e-06
-7.471e-06
3.88813e-06
4.71529e-06
-8.97385e-06
5.26168e-06
4.77941e-06
-5.23997e-06
5.27849e-06
6.89025e-06
-1.70722e-06
4.94959e-06
9.30706e-06
-4.69136e-07
4.58923e-06
8.38391e-06
8.03256e-07
4.14756e-06
3.7027e-06
-1.92497e-07
3.88351e-06
-4.33402e-07
-3.23908e-06
3.04424e-06
-1.626e-06
-5.856e-06
-2.68333e-06
-3.77277e-06
1.68229e-06
6.00618e-06
-1.5471e-06
2.19311e-06
4.43201e-06
-4.45045e-07
2.56242e-06
5.18212e-06
1.24823e-06
3.06598e-06
6.67144e-06
2.41446e-06
3.40171e-06
8.26783e-06
2.46278e-06
3.64107e-06
6.99676e-06
1.28247e-06
3.61976e-06
3.70306e-06
-1.10113e-06
2.87077e-06
1.21373e-06
-2.4639e-06
1.66464e-06
1.10003e-06
-3.91123e-06
-3.49743e-07
-2.17326e-06
5.4797e-07
3.93845e-06
1.60122e-06
2.99349e-07
4.08387e-06
2.28252e-06
7.50402e-08
4.96952e-06
2.60138e-06
6.92735e-07
5.48858e-06
2.02856e-06
1.60048e-06
6.32161e-06
9.96592e-07
2.2256e-06
5.77198e-06
-8.73656e-07
2.34102e-06
4.33347e-06
-2.34769e-06
1.78055e-06
2.74857e-06
-2.39712e-06
1.05448e-06
3.13252e-06
-3.33418e-06
1.09101e-06
-9.86912e-07
-5.18311e-07
2.89262e-06
1.16892e-06
-3.98091e-07
3.49999e-06
1.92373e-06
-6.7299e-07
4.55627e-06
2.23333e-06
-3.73378e-07
4.64712e-06
1.13401e-06
3.64054e-07
5.13029e-06
-2.84666e-07
8.28218e-07
5.58903e-06
-1.64792e-06
8.434e-07
5.38941e-06
-1.99828e-06
4.88026e-07
3.99964e-06
-1.97652e-06
6.81804e-07
3.80722e-06
-2.87633e-06
2.40524e-06
-7.29036e-07
-1.08138e-06
2.63767e-06
5.67137e-07
-6.20201e-07
3.1149e-06
1.04394e-06
-3.85508e-07
3.95832e-06
1.77097e-06
-7.02071e-08
4.09776e-06
1.24277e-06
2.47554e-07
4.38291e-06
6.95271e-07
4.02517e-07
5.28425e-06
2.54135e-07
5.22988e-07
5.75973e-06
-3.62239e-07
1.89988e-07
5.12393e-06
-1.40496e-06
4.66122e-07
4.36466e-06
-2.72775e-06
3.71167e-06
-9.65416e-07
-9.17299e-07
2.62227e-06
5.35247e-07
-5.61611e-07
2.95426e-06
8.55849e-07
-1.66781e-07
3.36723e-06
1.49852e-06
3.49803e-07
3.51065e-06
1.30614e-06
8.21676e-07
3.79876e-06
1.14457e-06
1.17191e-06
4.48383e-06
1.50821e-06
1.40948e-06
5.19306e-06
1.06487e-06
1.13675e-06
5.93025e-06
-5.38154e-07
9.03438e-07
5.47913e-06
-2.31081e-06
5.48445e-06
-7.8569e-07
-2.46912e-07
2.499e-06
5.68484e-07
6.25504e-08
2.70957e-06
8.49425e-07
4.04741e-07
2.89691e-06
1.08531e-06
9.42003e-07
2.97349e-06
8.95986e-07
1.6446e-06
3.27856e-06
5.91985e-07
2.23678e-06
3.7079e-06
9.718e-07
2.39345e-06
4.63949e-06
1.02683e-06
2.15068e-06
6.5654e-06
-2.40404e-07
1.41068e-06
7.10451e-06
-1.85406e-06
7.45895e-06
2.33903e-07
3.67647e-07
2.22651e-06
3.43924e-07
6.82742e-07
2.33597e-06
6.09964e-07
1.03737e-06
2.40504e-06
6.2824e-07
1.55407e-06
2.44033e-06
4.39349e-07
2.23693e-06
2.8492e-06
6.88676e-08
2.81299e-06
3.4073e-06
3.13881e-08
2.74564e-06
4.84945e-06
1.16667e-07
2.55124e-06
7.42195e-06
-8.41814e-07
1.54176e-06
8.92733e-06
-1.51886e-06
8.83092e-06
1.58608e-06
6.10208e-07
1.20357e-07
1.89328e-06
9.14428e-07
3.84852e-07
1.90527e-06
1.31804e-06
3.75613e-07
1.85081e-06
1.85896e-06
2.61136e-07
1.90403e-06
2.4991e-06
-4.88574e-08
2.52139e-06
2.86478e-06
-3.77058e-07
3.63434e-06
2.60939e-06
-9.41307e-07
5.85197e-06
2.496e-06
-1.85366e-06
8.54707e-06
1.35131e-06
-9.96534e-07
1.0464e-05
2.18264e-06
9.10807e-06
-2.04941e-07
-9.09772e-10
5.46803e-07
-4.2674e-07
-4.78011e-10
5.35757e-07
-6.00122e-07
-2.52713e-08
5.2032e-07
-7.09454e-07
-7.10733e-08
5.14169e-07
-7.48458e-07
-1.30361e-07
5.18505e-07
-7.15442e-07
-1.99087e-07
5.3463e-07
-6.09069e-07
-2.74952e-07
5.60673e-07
-4.28026e-07
-3.57658e-07
5.97781e-07
-1.94667e-07
-4.18786e-07
6.38735e-07
-3.58042e-07
5.85077e-07
-1.92488e-07
-1.09509e-08
5.30202e-07
-4.09201e-07
-6.0436e-09
5.08235e-07
-5.80663e-07
-4.8324e-08
4.85568e-07
-6.92756e-07
-1.33974e-07
4.79238e-07
-7.36381e-07
-2.50481e-07
4.86513e-07
-7.08733e-07
-3.88462e-07
5.08904e-07
-6.0574e-07
-5.44965e-07
5.43808e-07
-4.21061e-07
-7.21835e-07
5.93289e-07
-1.7939e-07
-8.52676e-07
6.44816e-07
-7.01412e-07
5.81193e-07
-2.42341e-07
4.06214e-08
5.56804e-07
-5.07352e-07
2.24213e-08
5.48721e-07
-7.17238e-07
-5.12322e-08
5.32406e-07
-8.57698e-07
-1.91085e-07
5.39796e-07
-9.18758e-07
-3.80875e-07
5.65225e-07
-8.96411e-07
-6.07975e-07
6.10355e-07
-7.75951e-07
-8.7847e-07
6.72312e-07
-5.33754e-07
-1.1988e-06
7.57715e-07
-2.04326e-07
-1.42964e-06
8.49755e-07
-1.11392e-06
7.61466e-07
-2.96215e-07
2.10867e-07
5.71677e-07
-6.38259e-07
1.28429e-07
6.23518e-07
-9.10806e-07
-1.0048e-08
6.25156e-07
-1.09828e-06
-2.30211e-07
6.45366e-07
-1.19734e-06
-5.14379e-07
6.88239e-07
-1.20641e-06
-8.50502e-07
7.59571e-07
-1.09503e-06
-1.27e-06
8.80709e-07
-7.91501e-07
-1.80252e-06
1.08584e-06
-2.9278e-07
-2.21025e-06
1.2842e-06
-1.62599e-06
1.06747e-06
-3.93355e-07
6.35581e-07
5.60353e-07
-8.5429e-07
4.40821e-07
7.04179e-07
-1.21977e-06
1.72968e-07
7.36033e-07
-1.47626e-06
-1.7551e-07
7.73808e-07
-1.63089e-06
-5.94247e-07
8.52304e-07
-1.70334e-06
-1.06438e-06
9.99868e-07
-1.63593e-06
-1.68154e-06
1.27955e-06
-1.28473e-06
-2.52123e-06
1.68328e-06
-5.66818e-07
-3.23579e-06
1.94583e-06
-2.3689e-06
1.49199e-06
-5.059e-07
1.25584e-06
4.88342e-07
-1.10126e-06
9.28931e-07
7.19116e-07
-1.57707e-06
4.61551e-07
8.84672e-07
-1.90969e-06
-6.22312e-08
1.02164e-06
-2.11903e-06
-6.44825e-07
1.17004e-06
-2.19384e-06
-1.32172e-06
1.42215e-06
-2.08815e-06
-2.18613e-06
1.80175e-06
-1.68755e-06
-3.33379e-06
2.19275e-06
-8.49522e-07
-4.42501e-06
2.31604e-06
-3.4001e-06
1.65171e-06
-6.3077e-07
2.07204e-06
-8.62055e-08
-1.33128e-06
1.48777e-06
1.69551e-07
-1.88291e-06
7.26032e-07
5.1096e-07
-2.33049e-06
5.71212e-08
9.01442e-07
-2.58291e-06
-7.45087e-07
1.32997e-06
-2.61109e-06
-1.70112e-06
1.73764e-06
-2.42278e-06
-2.81785e-06
2.16637e-06
-1.9657e-06
-4.23307e-06
2.57123e-06
-1.01815e-06
-5.82763e-06
2.73036e-06
-4.86783e-06
1.80229e-06
-1.01588e-06
3.4125e-06
-7.96475e-07
-2.03575e-06
2.60507e-06
-4.54624e-07
-2.76812e-06
1.47063e-06
-8.58521e-09
-3.27513e-06
4.27076e-07
6.58014e-07
-3.46651e-06
-8.66254e-07
1.3581e-06
-3.34477e-06
-2.28355e-06
1.829e-06
-2.9243e-06
-3.74904e-06
2.32663e-06
-2.37733e-06
-5.3096e-06
2.95526e-06
-1.5135e-06
-7.23596e-06
3.59943e-06
-7.37544e-06
2.98034e-06
-2.76307e-06
7.42171e-06
-1.42015e-06
-4.10035e-06
5.2469e-06
-2.20356e-06
-4.1681e-06
2.31509e-06
-2.00076e-06
-3.66573e-06
9.46906e-07
-1.70123e-06
-2.59625e-06
-1.25294e-06
-1.90441e-06
-1.9906e-06
-2.14339e-06
-8.16705e-07
-1.46936e-06
-3.98563e-06
4.51752e-07
-1.71056e-06
-4.91455e-06
6.26605e-07
-2.11185e-06
-6.59407e-06
1.33919e-06
-9.68481e-06
2.9009e-06
-2.04188e-06
6.1386e-06
-1.09335e-05
1.4391e-06
9.44793e-07
-1.48358e-05
5.31469e-06
-3.89966e-06
-1.59851e-05
8.10656e-06
-3.44056e-06
-1.69572e-05
6.77438e-06
2.35544e-07
-1.67525e-05
4.57411e-06
3.94111e-06
-1.15417e-05
2.15934e-06
2.131e-06
-4.97716e-06
-1.17143e-07
-6.94642e-07
-3.40534e-06
-1.7121e-06
-3.47109e-06
-3.83979e-06
-7.48728e-06
-3.81539e-06
-1.38675e-06
4.35243e-06
-1.05279e-05
2.14024e-06
-1.11233e-06
-1.71629e-05
4.75014e-06
-2.73534e-06
-1.89737e-05
5.34372e-06
-1.19555e-06
-1.47743e-05
2.8384e-06
2.17457e-06
-7.34986e-06
1.50359e-06
5.8712e-06
-3.51809e-06
8.16318e-07
3.60189e-06
-1.29962e-06
4.4094e-07
2.49417e-07
-4.38978e-06
-3.06038e-07
-1.61158e-06
-7.59734e-06
-4.64819e-06
-6.73304e-06
3.04752e-06
3.17247e-06
-1.00292e-05
4.47404e-06
-1.03795e-06
-1.04748e-05
4.58516e-06
-1.01137e-06
-7.07505e-06
3.34308e-06
1.47471e-06
-3.1354e-06
6.99949e-07
4.35891e-06
-1.03528e-08
-5.67095e-07
6.80307e-06
1.13842e-06
-3.9607e-07
3.41247e-06
-1.741e-07
6.89744e-07
-6.73015e-07
-3.40246e-06
6.97406e-07
-7.16985e-07
-6.75825e-06
-1.86173e-06
-5.86183e-06
2.25809e-06
1.36826e-06
-2.03182e-06
1.59904e-06
-1.14968e-06
3.25743e-07
1.27775e-06
-1.3749e-06
1.93305e-06
1.45517e-06
1.83204e-06
1.87971e-06
2.51395e-07
5.58488e-06
2.44059e-06
1.85236e-07
6.14317e-06
2.00853e-06
1.03215e-06
2.1136e-06
-6.4917e-07
1.18767e-06
-6.35372e-07
-2.65706e-06
2.10543e-07
1.53527e-06
-5.18635e-06
1.37356e-07
-3.96181e-06
-3.36406e-07
-3.08423e-08
2.38383e-06
-1.32781e-06
-9.1037e-07
3.03462e-06
-2.03799e-06
-6.98768e-07
2.63543e-06
-1.34531e-06
9.18047e-07
2.24987e-06
-3.26543e-07
3.76671e-06
1.79599e-06
6.68323e-07
3.88749e-06
3.87161e-07
4.57056e-07
1.2796e-06
-1.30243e-06
-3.14223e-07
-7.8837e-08
-2.18238e-06
-7.83592e-07
3.16255e-06
-4.4921e-06
1.26379e-06
-2.89694e-06
-9.48335e-07
-1.02338e-07
9.06343e-07
-1.43583e-06
-1.45129e-07
1.64599e-06
-1.97131e-06
1.33796e-07
1.93625e-06
-1.55734e-06
6.76505e-07
9.61584e-07
-3.51486e-07
2.08265e-06
1.93543e-07
6.77541e-08
2.78371e-06
-9.63377e-07
-1.09983e-06
1.89764e-06
-1.44874e-06
-1.88558e-06
6.74746e-07
-1.94435e-06
-1.10116e-06
3.06269e-06
-3.56089e-06
2.20492e-06
-2.77132e-06
-7.65151e-07
3.58237e-07
-1.19791e-07
-8.85982e-07
7.99176e-07
2.20471e-07
-1.07759e-06
9.4973e-07
1.14665e-06
-7.57664e-07
1.04838e-06
5.50974e-07
-1.21617e-07
1.83967e-06
3.02212e-07
-8.59425e-09
2.96492e-06
-4.00932e-08
-1.13877e-06
3.3577e-06
-6.92124e-07
-2.1399e-06
1.86842e-06
-1.5975e-06
-1.18326e-06
2.37499e-06
-2.99668e-06
2.95829e-06
-2.90205e-06
-2.89295e-07
9.02588e-07
-3.51472e-07
-2.18927e-07
1.51481e-06
6.98379e-08
-2.05065e-07
1.67793e-06
7.56459e-07
-2.98419e-08
1.75178e-06
4.27512e-07
2.01137e-07
2.36089e-06
3.92368e-07
3.48963e-07
3.68507e-06
6.4022e-07
-2.11197e-07
4.90445e-06
7.82781e-08
-1.14651e-06
3.69476e-06
-1.42917e-06
-8.7855e-07
2.83194e-06
-3.03572e-06
3.87662e-06
-2.58257e-06
2.56309e-07
1.48942e-06
-4.42912e-07
3.99338e-07
1.91948e-06
3.0173e-07
4.67281e-07
2.07364e-06
6.21661e-07
6.08312e-07
2.12923e-06
3.77501e-07
5.10888e-07
2.83433e-06
2.15964e-07
4.85544e-07
4.32251e-06
3.59703e-07
2.66037e-07
6.12963e-06
2.1158e-08
-2.67633e-07
5.47137e-06
-1.48334e-06
-2.12812e-07
4.19489e-06
-3.27183e-06
5.5816e-06
-1.68389e-06
6.21984e-07
1.87023e-06
-4.68256e-07
7.5088e-07
2.04121e-06
3.59351e-07
8.44359e-07
2.06163e-06
5.46768e-07
9.68323e-07
2.13499e-06
3.09626e-07
6.70145e-07
3.12229e-06
7.90865e-08
4.1809e-07
4.76629e-06
-1.60339e-07
3.01363e-07
6.96283e-06
-5.99807e-07
2.1516e-08
6.76271e-06
-1.8533e-06
5.59573e-08
5.81792e-06
-3.17633e-06
7.35457e-06
-1.30935e-07
7.48137e-07
-2.93614e-07
1.88829e-06
8.71539e-07
4.39709e-07
1.86295e-06
9.87894e-07
5.45051e-07
1.77584e-06
1.09195e-06
2.96453e-07
1.99562e-06
7.59822e-07
1.73203e-08
3.38824e-06
4.02193e-07
-4.5786e-07
5.20472e-06
1.58321e-07
-1.27493e-06
7.54033e-06
-2.35734e-07
-2.296e-06
7.59911e-06
-6.06748e-07
-2.21235e-06
7.40475e-06
1.34027e-06
7.59019e-06
-2.0855e-07
6.67717e-08
7.27086e-07
-4.26048e-07
5.52975e-08
6.97958e-07
-5.88417e-07
2.27521e-08
6.59936e-07
-6.87302e-07
-2.39899e-08
6.37045e-07
-7.17332e-07
-8.05706e-08
6.29105e-07
-6.78784e-07
-1.42132e-07
6.38215e-07
-5.72414e-07
-2.07273e-07
6.61576e-07
-3.98359e-07
-2.76088e-07
6.99814e-07
-1.79732e-07
-3.2333e-07
7.43438e-07
-2.68813e-07
6.74158e-07
-2.0184e-07
1.16428e-07
7.42019e-07
-4.15009e-07
8.19462e-08
6.94755e-07
-5.67551e-07
2.92856e-08
6.31577e-07
-6.62573e-07
-5.08948e-08
6.01165e-07
-6.93745e-07
-1.55493e-07
5.92607e-07
-6.58856e-07
-2.75686e-07
6.0757e-07
-5.55952e-07
-4.06751e-07
6.40382e-07
-3.82655e-07
-5.4833e-07
6.92235e-07
-1.63554e-07
-6.45191e-07
7.47577e-07
-5.18031e-07
6.66857e-07
-2.22385e-07
2.5671e-07
7.13808e-07
-4.91111e-07
1.48119e-07
7.51274e-07
-6.84296e-07
4.51437e-08
7.09733e-07
-8.03956e-07
-7.89163e-08
6.87478e-07
-8.46284e-07
-2.39606e-07
6.91666e-07
-8.10628e-07
-4.29533e-07
7.28546e-07
-6.86931e-07
-6.47566e-07
7.89429e-07
-4.64892e-07
-8.88463e-07
8.75807e-07
-1.84396e-07
-1.04223e-06
9.66293e-07
-8.01623e-07
8.60661e-07
-2.14462e-07
4.8981e-07
6.65806e-07
-5.68677e-07
2.82904e-07
8.42948e-07
-8.32639e-07
9.24951e-08
8.41767e-07
-9.97944e-07
-9.73634e-08
8.29118e-07
-1.06777e-06
-3.29964e-07
8.48425e-07
-1.04314e-06
-6.03863e-07
9.09263e-07
-9.01409e-07
-9.26926e-07
1.01834e-06
-6.12065e-07
-1.28514e-06
1.19317e-06
-2.22428e-07
-1.50587e-06
1.3582e-06
-1.10916e-06
1.15258e-06
-2.41082e-07
8.7547e-07
5.51948e-07
-6.98419e-07
5.62023e-07
8.82397e-07
-1.06503e-06
2.33579e-07
9.61562e-07
-1.29621e-06
-6.32431e-08
9.70866e-07
-1.40308e-06
-3.9449e-07
1.0237e-06
-1.41799e-06
-7.44701e-07
1.15562e-06
-1.29651e-06
-1.17701e-06
1.40815e-06
-9.56596e-07
-1.69089e-06
1.74912e-06
-4.0405e-07
-2.05386e-06
1.94129e-06
-1.52616e-06
1.50495e-06
-3.1352e-07
1.46957e-06
3.22445e-07
-8.89976e-07
1.08036e-06
7.77234e-07
-1.40206e-06
6.0269e-07
1.02765e-06
-1.73325e-06
1.22195e-07
1.16738e-06
-1.90175e-06
-3.68114e-07
1.31217e-06
-1.92838e-06
-8.74327e-07
1.5784e-06
-1.77507e-06
-1.49255e-06
1.96397e-06
-1.38735e-06
-2.186e-06
2.30015e-06
-7.0771e-07
-2.74744e-06
2.32998e-06
-2.22355e-06
1.64138e-06
-4.854e-07
2.0681e-06
-9.31422e-08
-1.17938e-06
1.5773e-06
3.66587e-07
-1.78787e-06
9.63908e-07
7.58235e-07
-2.18556e-06
3.21076e-07
1.10025e-06
-2.33668e-06
-3.86518e-07
1.4995e-06
-2.29019e-06
-1.13717e-06
1.954e-06
-2.03823e-06
-1.97839e-06
2.40024e-06
-1.58989e-06
-2.81272e-06
2.74962e-06
-8.35348e-07
-3.62436e-06
2.85274e-06
-3.30552e-06
2.04891e-06
-7.27062e-07
2.7403e-06
-6.101e-07
-1.48487e-06
2.05198e-06
-1.71488e-07
-2.12115e-06
1.33301e-06
2.58588e-07
-2.65427e-06
6.60872e-07
8.51344e-07
-2.81593e-06
-4.72555e-07
1.60579e-06
-2.6485e-06
-1.64757e-06
2.17197e-06
-2.24037e-06
-2.78754e-06
2.72765e-06
-1.69761e-06
-3.77037e-06
3.37016e-06
-9.63211e-07
-4.85528e-06
4.09595e-06
-4.96919e-06
3.6808e-06
-1.75137e-06
5.58654e-06
-2.05731e-06
-2.5505e-06
2.88254e-06
-2.23498e-06
-2.71793e-06
1.07182e-06
-1.57214e-06
-2.19629e-06
8.45019e-08
-1.6465e-06
-1.21001e-06
-1.45599e-06
-1.90726e-06
-7.9002e-07
-1.71071e-06
-1.17355e-06
-8.49649e-07
-2.518e-06
2.41841e-07
-1.31412e-06
-3.84168e-06
1.16238e-06
-1.76479e-06
-4.82676e-06
1.76134e-06
-5.95375e-06
2.12067e-06
-3.33128e-06
2.34818e-06
-8.58283e-06
1.21235e-06
-5.53133e-06
-1.09655e-05
6.31191e-06
-8.20019e-06
-1.18126e-05
8.89446e-06
-5.44847e-06
-1.40068e-05
9.47472e-06
-3.61736e-06
-1.51714e-05
7.45184e-06
2.1663e-06
-1.33959e-05
5.25188e-06
3.40654e-06
-8.70174e-06
1.13759e-06
2.74605e-06
-5.87877e-06
-2.77143e-06
1.11397e-06
-5.8715e-06
-6.23135e-07
-1.19174e-05
2.64689e-07
-4.43047e-07
-1.04012e-05
2.80186e-06
-6.29915e-06
-1.89323e-05
3.54775e-06
-6.27046e-06
-2.16493e-05
3.0365e-06
-2.77077e-06
-1.69407e-05
9.55688e-07
-9.02735e-07
-7.98367e-06
3.93727e-08
3.91138e-06
-4.34686e-06
1.42407e-08
4.00511e-06
-1.87305e-06
-9.56351e-07
3.35768e-06
-4.03083e-06
-3.24331e-06
3.80154e-06
-7.99795e-06
1.96136e-06
-1.25608e-05
3.08799e-06
-1.06695e-06
-1.24049e-05
3.29793e-06
-4.61304e-06
-1.23708e-05
2.11102e-06
-3.83872e-06
-8.31989e-06
3.65911e-07
2.74012e-07
-4.43507e-06
-3.19621e-06
2.02728e-06
6.21757e-07
-4.39218e-06
4.58643e-06
1.65934e-06
-3.75073e-06
2.67982e-06
5.09732e-07
-2.44093e-06
7.49437e-07
-2.10402e-06
-1.98723e-06
3.07262e-06
-6.48303e-06
2.44421e-06
-8.33191e-06
2.15239e-06
-1.60047e-06
-2.38836e-06
1.24146e-06
-2.35027e-06
-1.0261e-06
2.98309e-07
-2.76258e-06
1.80007e-06
-1.8972e-07
1.30124e-06
1.34051e-06
-2.64622e-06
4.78929e-06
2.13508e-06
-2.84157e-06
4.95186e-06
1.83845e-06
-1.54795e-06
1.2218e-06
-4.84776e-07
-4.46251e-07
-7.73659e-07
-2.23566e-06
-2.89294e-07
3.11584e-06
-5.38653e-06
3.98669e-06
-5.79358e-06
-8.31304e-08
-1.30541e-06
1.80598e-06
-1.56363e-06
-3.69062e-07
2.53391e-06
-2.82771e-06
-2.11523e-06
3.25216e-06
-2.65227e-06
6.46991e-07
2.72868e-06
-1.9022e-06
3.54373e-06
2.29148e-06
-5.42785e-07
2.86037e-06
1.11923e-06
-9.51077e-08
-1.31907e-07
-3.96386e-07
-4.40749e-07
-6.27993e-07
-1.9824e-06
-7.70904e-07
4.0819e-06
-5.128e-06
5.23597e-06
-4.91712e-06
-7.3127e-07
-1.16846e-06
9.27198e-07
-1.67522e-06
6.04148e-07
1.61673e-06
-2.73146e-06
-1.09167e-06
1.96892e-06
-2.51257e-06
7.59489e-08
1.31373e-06
-1.03332e-06
1.60167e-06
6.56358e-07
-3.84665e-07
1.55293e-06
-3.04594e-07
-1.22738e-06
2.09561e-07
-9.47494e-07
-1.76232e-06
-1.88387e-07
-1.84902e-06
-1.40639e-06
4.17799e-06
-4.01289e-06
5.74716e-06
-4.6889e-06
-6.95782e-07
-8.39743e-07
-2.24748e-07
-8.68355e-07
1.09246e-06
-9.52591e-08
-1.2236e-06
1.72053e-07
2.38177e-07
-1.26033e-06
7.65049e-07
-1.01391e-07
-6.21395e-07
1.61124e-06
-3.46308e-07
-7.10434e-07
2.21547e-06
-6.13592e-07
-1.68527e-06
1.54249e-06
-1.05021e-06
-2.36823e-06
5.19347e-07
-1.62228e-06
-1.63566e-06
3.34225e-06
-2.89352e-06
5.35497e-06
-4.14552e-06
-2.5464e-07
-2.45079e-07
-1.02298e-06
-5.74286e-08
1.39063e-06
-4.25547e-07
-1.90266e-07
1.23606e-06
-1.74706e-07
-3.24315e-07
1.75527e-06
-4.28666e-07
-4.47273e-07
2.45391e-06
-3.27343e-07
-8.41895e-07
3.58206e-06
-3.31747e-07
-1.37369e-06
3.13739e-06
-9.8482e-07
-1.94668e-06
1.6873e-06
-2.02413e-06
-1.77348e-06
2.95821e-06
-2.82488e-06
4.09181e-06
-3.09289e-06
2.32196e-07
4.01351e-07
-1.49032e-06
5.41775e-07
1.60045e-06
-2.17674e-07
3.11618e-07
1.87032e-06
2.17557e-07
2.31556e-07
2.30827e-06
-9.54345e-08
-2.41091e-07
3.12977e-06
1.2742e-08
-8.97465e-07
4.74594e-06
-1.47795e-07
-1.18106e-06
4.41466e-06
-9.7253e-07
-1.44866e-06
2.86043e-06
-2.38887e-06
-1.54149e-06
3.08994e-06
-3.31072e-06
3.1707e-06
-2.30427e-06
4.93081e-07
9.86287e-07
-1.54858e-06
7.58499e-07
1.79295e-06
-9.85583e-08
5.80518e-07
2.07251e-06
5.22554e-07
5.09175e-07
2.43309e-06
2.56143e-07
1.47007e-08
3.52984e-06
1.73488e-07
-8.31876e-07
5.50809e-06
-7.59174e-08
-1.21548e-06
5.24285e-06
-1.04439e-06
-1.33536e-06
3.64636e-06
-2.51934e-06
-1.44013e-06
3.40788e-06
-3.38951e-06
3.30152e-06
-1.70189e-06
5.91289e-07
-1.01981e-06
1.29376e-06
8.22189e-07
2.20586e-07
1.78118e-06
7.25616e-07
7.62304e-07
1.95183e-06
6.71452e-07
4.74521e-07
2.30919e-06
2.23017e-07
1.90202e-07
3.8054e-06
-6.84822e-07
-3.08097e-08
5.98887e-06
-1.40044e-06
-1.11294e-06
5.79646e-06
-1.74857e-06
-2.52127e-06
4.21976e-06
-1.72977e-06
-2.75773e-06
3.93446e-06
-6.41823e-07
3.55384e-06
-2.23492e-07
1.89808e-07
8.10402e-07
-4.50834e-07
1.3913e-07
7.8617e-07
-6.04133e-07
8.20823e-08
7.31153e-07
-6.88519e-07
2.53064e-08
6.96125e-07
-7.04244e-07
-3.19864e-08
6.76816e-07
-6.55963e-07
-8.73383e-08
6.77273e-07
-5.45344e-07
-1.43074e-07
6.9403e-07
-3.73791e-07
-2.00836e-07
7.29097e-07
-1.65324e-07
-2.359e-07
7.70871e-07
-1.81382e-07
6.90216e-07
-2.07668e-07
3.32299e-07
8.86231e-07