/*--------------------------------*- C++ -*----------------------------------*\
| =========                 |                                                 |
| \\      /  F ield         | OpenFOAM: The Open Source CFD Toolbox           |
|  \\    /   O peration     | Version:  2312                                  |
|   \\  /    A nd           | Website:  www.openfoam.com                      |
|    \\/     M anipulation  |                                                 |
\*---------------------------------------------------------------------------*/
FoamFile
{
    version     2.0;
    format      ascii;
    arch        "LSB;label=32;scalar=64";
    class       volVectorField;
    location    "0.58";
    object      U;
}
// * * * * * * * * * * * * * * * * * * * * * * * * * * * * * * * * * * * * * //

dimensions      [0 1 -1 0 0 0 0];

internalField   nonuniform List<vector> 
8000
(
(-0.00301345 0.00180681 5.8266e-05)
(-0.0110426 0.00133694 0.000476988)
(-0.0182744 0.000433863 0.00108883)
(-0.0240038 -0.000836457 0.0017172)
(-0.0274248 -0.00239633 0.00227676)
(-0.0281735 -0.0041429 0.00273702)
(-0.02594 -0.00596399 0.00311507)
(-0.0207686 -0.00782549 0.00345565)
(-0.0127487 -0.00932914 0.00381336)
(-0.00389264 -0.00880736 0.00384782)
(-0.00292848 0.00749358 -0.000493493)
(-0.0111481 0.00613452 -0.00010472)
(-0.0182501 0.00343284 0.000428449)
(-0.0236831 -0.000398768 0.0010541)
(-0.0269972 -0.00506449 0.00167979)
(-0.0277908 -0.0102043 0.00222559)
(-0.0257304 -0.0155333 0.00265397)
(-0.020604 -0.0210328 0.00300752)
(-0.0124498 -0.0256472 0.00337318)
(-0.00354719 -0.0241144 0.00352798)
(-0.00376638 0.0128892 -0.00014325)
(-0.0139005 0.010447 0.000366029)
(-0.0227901 0.00560663 0.00100664)
(-0.029765 -0.000986896 0.00164347)
(-0.0341446 -0.00865135 0.00221136)
(-0.0355301 -0.0170765 0.00269224)
(-0.0335091 -0.026008 0.00298595)
(-0.0272675 -0.03559 0.00315995)
(-0.0163564 -0.0438337 0.00374715)
(-0.00443635 -0.0401408 0.00442804)
(-0.00518743 0.0207821 0.00125082)
(-0.0182796 0.0172424 0.00171705)
(-0.0296269 0.0100849 0.00218363)
(-0.03846 0.000326735 0.00268335)
(-0.0443914 -0.0111314 0.00305632)
(-0.0469527 -0.0238652 0.00318673)
(-0.0456151 -0.0377049 0.0031726)
(-0.0391687 -0.053456 0.00389059)
(-0.0257008 -0.0691434 0.00690462)
(-0.00810001 -0.0625878 0.00837101)
(-0.00716053 0.0268325 0.0086463)
(-0.0231919 0.0220155 0.00881266)
(-0.0371247 0.0126461 0.00841232)
(-0.0480111 -0.000873063 0.00790051)
(-0.0554018 -0.0160761 0.00714243)
(-0.0595363 -0.0326761 0.00648548)
(-0.0605362 -0.0513796 0.00675368)
(-0.0564777 -0.0770006 0.00992696)
(-0.0416246 -0.111737 0.0166964)
(-0.0163398 -0.102568 0.0173515)
(-0.00690558 0.0247451 0.0103738)
(-0.0228793 0.0166901 0.0105231)
(-0.0383003 0.00562642 0.0108103)
(-0.048819 -0.00922754 0.0117055)
(-0.0570857 -0.0266235 0.0127157)
(-0.0644087 -0.0462126 0.0133228)
(-0.06822 -0.0726736 0.0149393)
(-0.065501 -0.116543 0.0191256)
(-0.0507343 -0.182173 0.0246573)
(-0.0241832 -0.175029 0.0230421)
(-0.00516435 0.0263592 -0.0110245)
(-0.0258694 0.0203395 -0.0111564)
(-0.0459734 0.00562873 -0.00934753)
(-0.0613292 -0.0190046 -0.00372874)
(-0.0747182 -0.0395357 0.0044549)
(-0.0833535 -0.0640173 0.010839)
(-0.0808045 -0.10383 0.01552)
(-0.0693805 -0.16435 0.021232)
(-0.0499075 -0.250743 0.0238957)
(-0.0254143 -0.256554 0.01872)
(-0.0287759 0.0644589 -0.0232821)
(-0.0873817 0.0578823 -0.0248368)
(-0.123481 0.0374412 -0.0218327)
(-0.143074 -0.00203202 -0.0148226)
(-0.156756 -0.0494834 -0.00600261)
(-0.151 -0.100593 0.00156116)
(-0.130408 -0.163126 0.0129225)
(-0.101253 -0.236694 0.0260373)
(-0.0617785 -0.321656 0.0297967)
(-0.0244685 -0.318163 0.016071)
(-0.141752 0.152097 -0.0141843)
(-0.24024 0.112186 -0.0112684)
(-0.268018 0.0520777 -0.0124958)
(-0.244189 -0.0151634 -0.011112)
(-0.177483 -0.086847 -0.00897252)
(-0.128255 -0.163963 0.0145499)
(-0.129245 -0.263258 0.0320979)
(-0.11949 -0.377661 0.0337172)
(-0.0796305 -0.470947 0.0383486)
(-0.0255644 -0.395318 0.0283532)
(-0.210719 0.410608 -0.331677)
(-0.0178119 0.321715 -0.509951)
(0.217431 0.174155 -0.641311)
(0.425043 0.0231744 -0.634229)
(0.51185 -0.0265701 -0.318823)
(0.409781 -0.0938174 -0.00110313)
(0.135523 -0.224675 0.0577706)
(0.0197941 -0.404396 0.0130389)
(0.0018469 -0.568236 0.00145771)
(-0.00280148 -0.570055 0.0337485)
(-0.339739 0.515411 -0.249185)
(-0.0653716 0.460924 -0.386225)
(0.191828 0.529842 -0.352671)
(0.391517 0.527384 -0.327295)
(0.452624 0.449855 -0.131293)
(0.371722 0.276831 0.0315548)
(0.237193 -0.0288952 0.0338286)
(0.140177 -0.226379 -0.0442139)
(0.117731 -0.319396 -0.110591)
(0.0679088 -0.488706 -0.0351821)
(-0.28846 0.548211 -0.0968893)
(-0.0561592 0.599757 -0.15133)
(0.115789 0.714841 -0.072904)
(0.220671 0.709758 -0.0330422)
(0.256626 0.554598 0.0298728)
(0.250302 0.26118 0.0374734)
(0.208076 -0.0154125 -0.0144978)
(0.130835 -0.142057 -0.0671098)
(0.131738 -0.163853 -0.132167)
(0.109256 -0.235825 -0.0869437)
(-0.15433 0.480726 -0.0144022)
(-0.0313612 0.534082 -0.0036714)
(0.0505981 0.566931 0.0543193)
(0.0915255 0.519021 0.0631875)
(0.130297 0.378313 0.0311234)
(0.163025 0.197776 -0.0274071)
(0.133127 0.0714524 -0.048043)
(0.0798729 -0.0318815 -0.0470014)
(0.0883151 -0.057009 -0.0844931)
(0.0911635 -0.060747 -0.065474)
(-0.0502303 0.384909 0.00126614)
(-0.00486427 0.3953 0.0237984)
(0.0187004 0.385054 0.047164)
(0.0379952 0.348956 0.0267433)
(0.0698583 0.284923 -0.0327901)
(0.0995489 0.227609 -0.0684699)
(0.0806416 0.154481 -0.0363708)
(0.0518825 0.0523125 -0.0220308)
(0.060948 0.0251742 -0.0651525)
(0.0694576 0.0526906 -0.0325441)
(-0.0125664 0.301965 -0.00508345)
(0.00680592 0.305263 0.0105087)
(0.00683322 0.31155 0.0203599)
(0.016704 0.316951 -0.00293711)
(0.0345475 0.305749 -0.0470152)
(0.0617944 0.305769 -0.0461839)
(0.0476705 0.227577 0.00239091)
(0.038058 0.118879 -0.00340828)
(0.0376315 0.101539 -0.0606945)
(0.0493815 0.118507 -0.0108709)
(-0.0107952 0.244952 -0.00226956)
(0.00733604 0.249159 0.00773993)
(0.00587633 0.261513 0.0157198)
(0.0105142 0.28941 0.00479785)
(0.0190081 0.316881 -0.0162019)
(0.0462666 0.347442 0.00178423)
(0.0421837 0.258624 0.0272089)
(0.0320481 0.168714 0.00586079)
(0.029036 0.16479 -0.0536482)
(0.04442 0.156483 -0.00451353)
(-0.0104087 0.200164 0.00999009)
(0.00154311 0.197988 0.0175985)
(0.000722819 0.200561 0.0229268)
(0.00453851 0.22425 0.022111)
(0.0129953 0.258261 0.0161773)
(0.0407167 0.286501 0.0283232)
(0.0617125 0.228407 0.0269535)
(0.0480463 0.193562 0.00371924)
(0.0386643 0.218222 -0.0409999)
(0.0339489 0.204621 0.00810865)
(-0.00330065 0.154256 0.0202047)
(0.0029977 0.150748 0.0237832)
(0.00524279 0.150509 0.0249214)
(0.0122877 0.164713 0.0258468)
(0.0297572 0.187446 0.0260778)
(0.0653897 0.194954 0.0275105)
(0.0994721 0.181743 0.0195139)
(0.0711179 0.210557 -0.00155739)
(0.0428756 0.275322 -0.0316979)
(0.00287491 0.233518 0.035025)
(0.00563834 0.114085 0.0174166)
(0.0160127 0.113961 0.0168674)
(0.0251991 0.116893 0.0148515)
(0.0385348 0.126425 0.0144348)
(0.0630194 0.139276 0.0174321)
(0.10394 0.13847 0.0167191)
(0.115078 0.16954 0.0142785)
(0.065182 0.251875 -0.00769752)
(0.0269523 0.346267 -0.0257582)
(-0.0280346 0.188287 0.0505171)
(0.0128506 0.0874865 0.00700682)
(0.0269149 0.0889791 0.00711289)
(0.0396986 0.0919142 0.00579537)
(0.0571914 0.0950753 0.00770252)
(0.0830726 0.0971239 0.0147316)
(0.108755 0.110523 0.0135025)
(0.07588 0.20386 0.00519501)
(0.0318739 0.320239 -0.0231659)
(-0.0014219 0.411945 -0.0227554)
(-0.0155454 0.113452 0.0139127)
(-0.00357383 0.00047092 0.00726326)
(-0.0133492 -7.6876e-06 0.00778583)
(-0.0216294 -0.0009724 0.00843663)
(-0.0276721 -0.00219575 0.00916354)
(-0.0309593 -0.00365463 0.00989232)
(-0.031301 -0.00530086 0.0106454)
(-0.0284934 -0.00710447 0.011429)
(-0.0225764 -0.00906287 0.012324)
(-0.0134961 -0.010562 0.0133135)
(-0.00385653 -0.00929648 0.0125643)
(-0.00321874 0.00170194 0.00651716)
(-0.0128879 0.00117649 0.00695083)
(-0.0212113 -0.000924548 0.00753404)
(-0.0273568 -0.00429482 0.00825783)
(-0.0308184 -0.00854794 0.00907033)
(-0.0313855 -0.0133945 0.00994384)
(-0.0288147 -0.0187507 0.010866)
(-0.0228102 -0.024718 0.0119044)
(-0.0132494 -0.0294569 0.013015)
(-0.00338611 -0.0255472 0.0122757)
(-0.00414179 0.00296516 0.00756329)
(-0.0161089 0.00218506 0.00781053)
(-0.0265317 -0.00158586 0.00848495)
(-0.0343418 -0.00745496 0.0094626)
(-0.0389488 -0.0146809 0.0105432)
(-0.040214 -0.023014 0.0117129)
(-0.0377684 -0.032606 0.0128949)
(-0.0304333 -0.0437889 0.0145103)
(-0.0173543 -0.0524916 0.0169711)
(-0.00377148 -0.0436147 0.0160841)
(-0.00585542 0.00800855 0.0115662)
(-0.0213713 0.00670683 0.0114396)
(-0.0346947 0.000918497 0.0116025)
(-0.0448506 -0.00838583 0.012299)
(-0.051442 -0.0199834 0.0131431)
(-0.0543975 -0.0332541 0.0142288)
(-0.0534997 -0.0490096 0.0164569)
(-0.046529 -0.0688907 0.02213)
(-0.0294398 -0.0864339 0.0301053)
(-0.00696501 -0.0685098 0.026184)
(-0.00881748 0.0189093 0.020188)
(-0.0286116 0.014782 0.0198782)
(-0.0456573 0.00486125 0.019096)
(-0.058883 -0.00910668 0.0190796)
(-0.0679382 -0.0256854 0.0194839)
(-0.0735187 -0.0445874 0.0211804)
(-0.075903 -0.068737 0.0273665)
(-0.07068 -0.104827 0.0399682)
(-0.0491256 -0.142677 0.0522311)
(-0.016059 -0.110156 0.0438085)
(-0.0104904 0.0372887 0.0224592)
(-0.0333252 0.0279132 0.0235794)
(-0.0531741 0.0135529 0.0253125)
(-0.0679879 -0.00578244 0.0279908)
(-0.0795766 -0.0298306 0.0302868)
(-0.0881222 -0.0567084 0.0346204)
(-0.0918114 -0.094423 0.0441057)
(-0.0855189 -0.153415 0.0565516)
(-0.0599708 -0.218461 0.063285)
(-0.0226901 -0.177066 0.0497259)
(-0.0114656 0.05988 0.00423434)
(-0.0387967 0.0473654 0.00410046)
(-0.0619267 0.0222542 0.00905603)
(-0.0813752 -0.0074101 0.0199352)
(-0.0997126 -0.0348676 0.0326478)
(-0.110992 -0.0705312 0.0436261)
(-0.112728 -0.122956 0.0564661)
(-0.103238 -0.201122 0.0698152)
(-0.0711842 -0.288429 0.0721296)
(-0.0214619 -0.239199 0.0417855)
(-0.0182878 0.0804562 -0.00999594)
(-0.0739644 0.0607656 -0.00260792)
(-0.115644 0.0316665 0.00792875)
(-0.14364 0.00454659 0.0239409)
(-0.16863 -0.0465172 0.0409818)
(-0.171084 -0.107337 0.0503018)
(-0.157927 -0.182805 0.066654)
(-0.138167 -0.287294 0.0890582)
(-0.103258 -0.405241 0.100987)
(-0.0281565 -0.308134 0.0536981)
(-0.167919 0.168509 0.0281712)
(-0.253529 0.12017 0.0192247)
(-0.275568 0.063048 0.0105861)
(-0.268054 -0.000554994 0.0278202)
(-0.182508 -0.0705033 -0.0106892)
(-0.133087 -0.143613 0.0261379)
(-0.0893706 -0.234897 0.0559443)
(-0.0714769 -0.356248 0.0684879)
(-0.0921973 -0.562658 0.0825538)
(-0.0348203 -0.46556 0.086012)
(-0.150209 0.422826 -0.370532)
(-0.00296651 0.290992 -0.611898)
(0.172201 0.149171 -0.751493)
(0.268827 0.0585988 -0.729998)
(0.308306 -0.00585227 -0.618659)
(0.226976 -0.0459475 -0.183329)
(0.126753 -0.132511 0.0313143)
(0.0796383 -0.174175 -0.014144)
(0.0304035 -0.354326 -0.0575864)
(0.0012226 -0.574622 0.0260283)
(-0.174716 0.305878 -0.36863)
(0.000780344 0.0778982 -0.592174)
(0.169904 -0.0169512 -0.533358)
(0.298742 0.0794832 -0.417752)
(0.307278 0.233788 -0.32844)
(0.243425 0.271855 -0.0763139)
(0.187881 0.136338 0.0247438)
(0.171144 -0.0491177 -0.105499)
(0.146476 -0.161831 -0.226258)
(0.0864532 -0.322041 -0.109373)
(-0.0525134 0.335949 -0.213319)
(0.109636 0.16868 -0.317405)
(0.181652 0.202602 -0.168944)
(0.230347 0.313341 -0.0477239)
(0.219805 0.41669 -0.023305)
(0.191757 0.377491 0.0335236)
(0.16676 0.139361 0.00832454)
(0.158285 -0.0740398 -0.104922)
(0.149937 -0.139105 -0.213421)
(0.103273 -0.170162 -0.136181)
(0.0144798 0.306696 -0.047734)
(0.0921319 0.211501 -0.0406234)
(0.0957325 0.247724 0.0551425)
(0.121935 0.325664 0.10472)
(0.137793 0.388869 0.0834386)
(0.141516 0.319726 0.0272491)
(0.142233 0.142901 -0.0552106)
(0.134816 0.0194114 -0.0971639)
(0.0941576 -0.0182475 -0.131496)
(0.0593814 -0.057431 -0.0732541)
(0.00622545 0.205778 0.0492267)
(0.0285948 0.185228 0.0836514)
(0.00162345 0.193238 0.10004)
(0.00907429 0.218973 0.0760004)
(0.0500932 0.268315 0.018644)
(0.0782977 0.228839 -0.0613164)
(0.0982731 0.143382 -0.105413)
(0.087822 0.0786823 -0.103071)
(0.0500687 0.102258 -0.113698)
(0.0442669 0.0152621 -0.0283899)
(-0.035146 0.118643 0.0673691)
(-0.0102508 0.142076 0.0949984)
(-0.0209625 0.187615 0.0898172)
(-0.0293296 0.189796 0.0428329)
(-0.000152934 0.210219 -0.0236311)
(0.0261464 0.211413 -0.0763612)
(0.0446934 0.188875 -0.0862689)
(0.0288741 0.132666 -0.0847716)
(0.0121586 0.147787 -0.11013)
(0.0380505 0.0769716 -0.00213851)
(-0.0549002 0.102707 0.0533912)
(-0.0321264 0.127028 0.0734053)
(-0.0183079 0.174846 0.087425)
(-0.0108331 0.184851 0.0661039)
(0.00389425 0.201655 0.028944)
(0.0127837 0.238169 -0.000241214)
(0.0244751 0.24488 -0.0193098)
(0.0243563 0.187381 -0.0500804)
(-0.00702244 0.156873 -0.106042)
(0.0387234 0.118676 -0.00965306)
(-0.0449392 0.111377 0.0492855)
(-0.0291488 0.124794 0.0596728)
(-0.0158815 0.144711 0.0770641)
(0.00328452 0.151566 0.0721473)
(0.022817 0.165842 0.0612139)
(0.0406751 0.203249 0.05353)
(0.0533892 0.229352 0.0364946)
(0.0675884 0.229129 -0.00249487)
(0.0213706 0.192647 -0.0775614)
(0.0492264 0.177948 -0.00367535)
(-0.0179038 0.104662 0.0442895)
(-0.00260649 0.114188 0.0472387)
(0.00769443 0.122949 0.0522457)
(0.0269689 0.126184 0.0465016)
(0.0490988 0.135432 0.0365524)
(0.0799953 0.153183 0.0364254)
(0.095052 0.185392 0.035263)
(0.106352 0.247497 0.0176176)
(0.0607757 0.249985 -0.0463734)
(0.0544717 0.263076 0.0288489)
(0.0063297 0.0919624 0.0258416)
(0.0218914 0.0989958 0.0280254)
(0.0334257 0.104897 0.0261125)
(0.051398 0.107061 0.02058)
(0.0726012 0.120422 0.00871812)
(0.105505 0.136688 0.00757281)
(0.113166 0.17909 0.00774148)
(0.116743 0.273762 -0.00273848)
(0.0815894 0.317877 -0.0311934)
(0.0463283 0.330552 0.0612679)
(0.0175089 0.0815237 0.00909592)
(0.0307877 0.0842763 0.0140903)
(0.0436824 0.0847741 0.0127207)
(0.0620348 0.085796 0.0129563)
(0.0855024 0.105357 0.00517746)
(0.114878 0.135497 0.00420522)
(0.10855 0.208018 -0.0179917)
(0.108218 0.316405 -0.0453511)
(0.0818116 0.388216 -0.0298898)
(0.0360984 0.367694 0.0693571)
(-0.00325682 0.000131488 0.0174095)
(-0.0128875 -0.00010128 0.0172946)
(-0.0209342 -0.000901785 0.0172006)
(-0.0266123 -0.00196619 0.0173418)
(-0.0295647 -0.00318691 0.0177402)
(-0.0296683 -0.0045941 0.0184531)
(-0.0268165 -0.00614696 0.0194297)
(-0.0211045 -0.00783309 0.0207435)
(-0.0125031 -0.00905962 0.0222179)
(-0.00350074 -0.00778443 0.0204278)
(-0.00287512 -0.000252657 0.0167516)
(-0.0122562 8.36862e-06 0.0162672)
(-0.0201237 -0.00118011 0.015948)
(-0.0258745 -0.00371035 0.0160955)
(-0.0289985 -0.00720057 0.0165862)
(-0.0293044 -0.0112928 0.0174923)
(-0.0266494 -0.0158491 0.0187796)
(-0.0209266 -0.0208933 0.0205207)
(-0.0120632 -0.0247519 0.0223492)
(-0.00301311 -0.0209377 0.0202577)
(-0.00363401 -0.00046385 0.0181721)
(-0.0152896 -0.000335273 0.0177088)
(-0.0248797 -0.0023617 0.0174442)
(-0.0319994 -0.00663505 0.0180271)
(-0.0360453 -0.01254 0.0191851)
(-0.0368382 -0.0196078 0.0208995)
(-0.0340803 -0.027788 0.0231203)
(-0.0268377 -0.037167 0.02621)
(-0.0147057 -0.043937 0.0297156)
(-0.00309467 -0.0354128 0.0267844)
(-0.00404288 0.00382374 0.0200307)
(-0.0190215 0.00217389 0.0206575)
(-0.0315103 -0.00156554 0.0206528)
(-0.0407558 -0.0084016 0.0215559)
(-0.0465399 -0.0176751 0.0232241)
(-0.0487209 -0.0286748 0.0258461)
(-0.0469532 -0.0419464 0.0304535)
(-0.0389845 -0.0577714 0.038741)
(-0.022286 -0.0691733 0.0472286)
(-0.00381657 -0.0529269 0.0389826)
(-0.00550954 0.0137265 0.0232206)
(-0.0251036 0.00864205 0.0256456)
(-0.0422776 0.00109625 0.0258352)
(-0.054762 -0.00912114 0.0270325)
(-0.0627892 -0.022302 0.029774)
(-0.0672681 -0.0378781 0.0351503)
(-0.0680915 -0.0575064 0.0459863)
(-0.0607932 -0.0836649 0.0625593)
(-0.0393323 -0.105118 0.0745131)
(-0.00988836 -0.0757672 0.0573861)
(-0.00757581 0.0384195 0.0228659)
(-0.0319929 0.027058 0.0272944)
(-0.054614 0.0127814 0.0319519)
(-0.0707614 -0.0042188 0.037062)
(-0.0816184 -0.024152 0.0425558)
(-0.0874254 -0.04606 0.0516166)
(-0.087408 -0.0757976 0.066162)
(-0.0783861 -0.116965 0.0824075)
(-0.0536353 -0.152724 0.088895)
(-0.0179805 -0.114157 0.064056)
(-0.00971665 0.0694811 -0.00552413)
(-0.0385923 0.0528765 -0.00113054)
(-0.0653311 0.0271411 0.0108835)
(-0.0853955 0.000887651 0.0284208)
(-0.100211 -0.0257915 0.0467866)
(-0.106013 -0.0583145 0.0624755)
(-0.10269 -0.098589 0.079914)
(-0.0912807 -0.148378 0.0975631)
(-0.0638596 -0.197991 0.104393)
(-0.0168711 -0.159932 0.0642748)
(-0.0152179 0.0824226 -0.0380964)
(-0.0607129 0.0568867 -0.0249376)
(-0.0983325 0.0260602 -0.00699684)
(-0.122292 0.00206453 0.0190314)
(-0.139808 -0.0405982 0.0457969)
(-0.138712 -0.0889091 0.063272)
(-0.127228 -0.139371 0.084)
(-0.108639 -0.204227 0.110338)
(-0.0869296 -0.283181 0.136846)
(-0.020186 -0.232626 0.101333)
(-0.0730512 0.155161 -0.0438797)
(-0.151235 0.125427 -0.0894298)
(-0.172796 0.0748907 -0.0987057)
(-0.169724 0.0212556 -0.0711493)
(-0.113695 -0.0422555 -0.0757449)
(-0.0870472 -0.0979176 -0.0235787)
(-0.0721029 -0.163858 0.0187438)
(-0.0520629 -0.240074 0.0143236)
(-0.103973 -0.35868 0.0543065)
(-0.0371136 -0.376702 0.127602)
(-0.148192 0.353018 -0.440277)
(-0.0100813 0.235172 -0.653893)
(0.117682 0.0700098 -0.694806)
(0.289661 0.0237205 -0.725585)
(0.360708 -0.0219079 -0.706601)
(0.226628 -0.0130099 -0.412861)
(0.113511 -0.08707 -0.114782)
(0.0401654 -0.144452 -0.0972945)
(-0.0600498 -0.175727 -0.115736)
(-0.0427721 -0.397012 -0.0271674)
(-0.112879 0.206866 -0.420806)
(0.0186529 -0.114581 -0.661322)
(0.149469 -0.323385 -0.676428)
(0.214134 -0.24834 -0.52211)
(0.186322 0.00677856 -0.33084)
(0.0916761 0.229038 -0.152397)
(0.0285114 0.188813 -0.047732)
(0.028075 0.0838305 -0.181901)
(-0.0170941 -0.00576259 -0.292334)
(0.00194877 -0.196944 -0.186616)
(0.0310879 0.159258 -0.35427)
(0.176679 0.0132849 -0.403503)
(0.187313 0.0443289 -0.258467)
(0.179551 0.107254 -0.0816065)
(0.0946632 0.179235 -0.0153924)
(-0.00984357 0.297196 0.032643)
(-0.0366907 0.146185 -0.0132911)
(0.00433759 -0.0522158 -0.138632)
(0.0316158 -0.0834 -0.256013)
(0.038712 -0.13252 -0.182245)
(0.0597369 0.100681 -0.0542669)
(0.0951356 -0.0674001 0.0245636)
(0.0467105 -0.0870053 0.0636936)
(0.0730108 0.073883 0.0896916)
(0.047258 0.238209 0.103554)
(-0.0122996 0.283984 0.0735389)
(0.0178789 0.111056 -0.0317355)
(0.0534123 -0.0265091 -0.105681)
(0.0316146 0.00193055 -0.18751)
(-0.00216544 -0.0217027 -0.102554)
(-0.0109999 0.0162057 0.0833236)
(-0.0232423 -0.0460504 0.105554)
(-0.0797413 -0.0466624 0.107081)
(-0.0722038 0.045074 0.0802088)
(-0.0264578 0.187665 0.0588767)
(0.00193482 0.188095 -0.00461123)
(0.0459922 0.051179 -0.0753716)
(-0.0072888 -0.0245932 -0.0952856)
(-0.0213492 0.110481 -0.162454)
(-0.0302114 0.0285735 -0.05266)
(-0.0414011 -0.0159449 0.0277394)
(-0.0429866 -0.0280749 0.0599686)
(-0.0705374 -0.0115127 0.0935814)
(-0.0803939 0.0192458 0.051131)
(-0.0366149 0.0915344 0.00784669)
(0.00789372 0.106747 -0.044105)
(0.000850238 0.0449102 -0.065854)
(-0.088613 0.0134098 -0.0819597)
(-0.0631943 0.149521 -0.127914)
(-0.0228045 0.0776021 -0.0613776)
(-0.0329979 0.00498091 -0.00431349)
(-0.0293985 0.0132285 0.0154772)
(-0.0415411 0.0178361 0.0614676)
(-0.0415797 0.0306762 0.0400171)
(-0.0164776 0.0732019 0.0366897)
(0.00549724 0.116326 0.0269675)
(-0.00297198 0.108099 -0.00785857)
(-0.0831847 0.0435291 -0.0678347)
(-0.0871308 0.0995135 -0.116872)
(-0.0140069 0.107731 -0.0771729)
(-0.0158639 0.024976 -0.000895535)
(-0.00726284 0.048186 0.0136772)
(-0.0116296 0.054492 0.0444935)
(-0.00353179 0.0565248 0.0320861)
(0.000232238 0.0825014 0.0319541)
(0.0130311 0.132484 0.0656751)
(0.0181223 0.169575 0.0450363)
(-0.0322073 0.110417 -0.0432908)
(-0.0662724 0.0918333 -0.114138)
(-0.00765605 0.124187 -0.0684352)
(0.00462887 0.0482492 0.00336253)
(0.0146 0.0698189 0.0212825)
(0.0150255 0.0774337 0.0322247)
(0.0256375 0.0796747 0.0233248)
(0.0214293 0.103262 0.00948986)
(0.0167924 0.157947 0.0390443)
(0.023778 0.220164 0.044975)
(0.00530919 0.186777 -0.0358193)
(-0.0317527 0.135864 -0.112599)
(0.013595 0.176837 -0.0185772)
(0.0189385 0.0685356 0.000753244)
(0.0292002 0.0807862 0.019166)
(0.0299542 0.0845883 0.0226005)
(0.0388059 0.0866347 0.0143009)
(0.0366835 0.119009 -0.0029507)
(0.0181252 0.183064 -0.003402)
(0.0145329 0.264626 0.00228762)
(0.0184832 0.249196 -0.0587845)
(-0.0212038 0.191642 -0.103892)
(0.0285874 0.264843 0.048293)
(0.0246497 0.0771993 0.00105088)
(0.0339635 0.0796133 0.0165553)
(0.0353905 0.0777065 0.0177135)
(0.0431113 0.0822318 0.00919976)
(0.0415596 0.129084 -0.00687017)
(0.0229649 0.19939 -0.0290524)
(0.00877858 0.292096 -0.0497453)
(0.00989952 0.287653 -0.0934255)
(-0.039583 0.266645 -0.0604932)
(0.00632194 0.326121 0.0983619)
(-0.00329752 0.00171049 0.0261415)
(-0.0130779 0.00134844 0.025364)
(-0.0207099 0.000412423 0.0242028)
(-0.0259574 -0.000800302 0.0234517)
(-0.0284897 -0.00206587 0.02331)
(-0.0282934 -0.0033723 0.0237968)
(-0.0253469 -0.00473583 0.0247772)
(-0.0197824 -0.00616967 0.0262843)
(-0.0115864 -0.00712643 0.0279876)
(-0.00314611 -0.00595412 0.0254785)
(-0.00282032 0.0034347 0.025611)
(-0.0129079 0.00286042 0.0242606)
(-0.0200123 0.00126401 0.0226847)
(-0.0249538 -0.00122787 0.0219981)
(-0.0275247 -0.00441188 0.0219543)
(-0.0274228 -0.00797449 0.0226658)
(-0.024617 -0.0117967 0.0240199)
(-0.0191414 -0.0159067 0.0260754)
(-0.0109838 -0.0188242 0.0282497)
(-0.0026483 -0.0154694 0.0252748)
(-0.00223679 0.00612282 0.0268386)
(-0.0148903 0.00396616 0.0265506)
(-0.0240675 0.00126656 0.0252978)
(-0.0302706 -0.00252199 0.0249959)
(-0.0335123 -0.00764319 0.0256156)
(-0.0336377 -0.0137955 0.0272663)
(-0.0304946 -0.0206249 0.0297745)
(-0.0235526 -0.0280028 0.033271)
(-0.012911 -0.032883 0.036964)
(-0.00288553 -0.0258779 0.0329626)
(-0.000134925 0.0147108 0.0263871)
(-0.0161431 0.00808966 0.0298882)
(-0.0289472 0.00231555 0.0297365)
(-0.0373071 -0.0038422 0.0300331)
(-0.0419995 -0.0115105 0.0313383)
(-0.0429145 -0.0204538 0.0340664)
(-0.039718 -0.0309223 0.0387921)
(-0.0311421 -0.0424839 0.0464989)
(-0.0166817 -0.0495636 0.0537028)
(-0.00293542 -0.0373916 0.0450421)
(0.000373231 0.0245791 0.0226964)
(-0.0185052 0.0148241 0.031867)
(-0.0365534 0.00534334 0.0338022)
(-0.0484105 -0.00342308 0.0349807)
(-0.054807 -0.013893 0.0379185)
(-0.0570229 -0.0264699 0.0438662)
(-0.0554061 -0.04131 0.0549745)
(-0.0468257 -0.0580832 0.0702288)
(-0.0283837 -0.0691715 0.0792511)
(-0.00656506 -0.0508189 0.0605819)
(-0.00140239 0.047127 0.0166495)
(-0.0224707 0.0309483 0.0307565)
(-0.0473398 0.0141426 0.0389314)
(-0.0644861 -0.000859995 0.0445681)
(-0.0739841 -0.0160458 0.0505381)
(-0.0776941 -0.0312155 0.0612884)
(-0.0756067 -0.051041 0.0770458)
(-0.0653869 -0.0759617 0.0919444)
(-0.0442284 -0.0943902 0.0953133)
(-0.01475 -0.072197 0.0672308)
(-0.00545983 0.0778778 -0.00215022)
(-0.0314803 0.0604566 0.0132921)
(-0.0615648 0.0365911 0.0274259)
(-0.0818559 0.012357 0.0409802)
(-0.0920356 -0.0111589 0.0576629)
(-0.094663 -0.0366097 0.0752717)
(-0.0880864 -0.0677783 0.0928357)
(-0.0745263 -0.0986602 0.108366)
(-0.0521776 -0.122221 0.114765)
(-0.0127952 -0.103939 0.079477)
(-0.0107741 0.0765122 -0.0258585)
(-0.0422381 0.0587211 -0.0141415)
(-0.0739029 0.0358185 0.0053936)
(-0.0976746 0.00886834 0.0305125)
(-0.115078 -0.0270323 0.0589224)
(-0.11171 -0.0662189 0.0799125)
(-0.0982482 -0.10387 0.100968)
(-0.0796557 -0.139544 0.128158)
(-0.0616061 -0.180905 0.15678)
(-0.00728749 -0.165567 0.135111)
(-0.029205 0.11932 -0.0802323)
(-0.0917583 0.0829091 -0.0961144)
(-0.121579 0.0537018 -0.0735893)
(-0.107733 0.030591 -0.078059)
(-0.0600718 -0.0235683 -0.08645)
(-0.0295321 -0.0707328 -0.0455171)
(-0.0308397 -0.113189 0.0162648)
(-0.035215 -0.162147 0.0430101)
(-0.0850041 -0.231304 0.0530513)
(-0.0411169 -0.25474 0.104868)
(-0.175779 0.247133 -0.433145)
(-0.0300582 0.171016 -0.497807)
(0.115598 0.0482756 -0.552376)
(0.324524 -0.0321531 -0.608637)
(0.414108 -0.11162 -0.627183)
(0.372592 -0.0466785 -0.526763)
(0.251138 -0.0333481 -0.257155)
(0.145145 -0.0786124 -0.145729)
(-0.0805897 -0.126264 -0.186296)
(-0.0831333 -0.180458 -0.293928)
(-0.0885707 0.00505849 -0.42752)
(0.105902 -0.51481 -0.734653)
(0.141982 -0.590361 -0.832969)
(0.144319 -0.353491 -0.623789)
(0.0517827 -0.158395 -0.255826)
(0.0348759 0.169507 -0.156577)
(-0.0140284 0.221306 -0.042753)
(0.00907965 0.217672 -0.156203)
(-0.114482 0.196624 -0.312496)
(-0.0900273 0.0992309 -0.358711)
(0.0264101 -0.0225338 -0.467346)
(0.185197 -0.116241 -0.463285)
(0.11332 -0.0558183 -0.317094)
(0.0702954 0.0628757 -0.140712)
(-0.0577396 0.0692254 0.0196604)
(-0.176295 0.201171 0.0590232)
(-0.178169 0.15045 0.00501488)
(-0.116946 0.101392 -0.11134)
(-0.0988634 0.155274 -0.256986)
(-0.034877 0.0710042 -0.267426)
(0.0842929 -0.0626824 -0.133015)
(0.0960702 -0.176871 0.00220017)
(0.0093182 -0.165593 0.105357)
(0.0337259 -0.00513232 0.078972)
(-0.0543406 0.151535 0.0971246)
(-0.148528 0.203396 0.0842329)
(-0.0902522 0.0699122 -0.022789)
(-0.0241345 -0.0409664 -0.0928073)
(-0.0163421 0.0824216 -0.215324)
(0.000458557 0.115485 -0.211513)
(0.00446007 -0.0673979 0.10367)
(-0.00733368 -0.0414117 0.139846)
(-0.114839 -0.0889048 0.103308)
(-0.104482 0.0692471 0.0941372)
(-0.0898537 0.187391 0.0825336)
(-0.0641338 0.160581 0.0351184)
(0.0157645 0.0106213 -0.0309566)
(-0.0210953 -0.0386767 -0.0815574)
(-0.0213776 0.139858 -0.20331)
(-0.0251717 0.18293 -0.167006)
(-0.0260389 -0.0512252 0.041286)
(-0.0392218 0.00967457 0.0644679)
(-0.0884085 -0.0719723 0.0558339)
(-0.122403 -0.00637039 0.0255964)
(-0.0705019 0.0835966 0.00745622)
(-0.0124714 0.0592025 -0.0297957)
(-0.0175233 -0.0172718 -0.0486197)
(-0.0845661 -0.0109186 -0.0768574)
(-0.0652159 0.192418 -0.158337)
(-0.0341049 0.231919 -0.147144)
(-0.0270214 -0.0456647 -0.00952013)
(-0.0345606 0.0400125 -0.000622487)
(-0.0320495 -0.0187539 0.0269585)
(-0.0612779 0.0109875 0.00620724)
(-0.0365672 0.0495021 -0.0108834)
(-0.0141306 0.0668836 -0.027634)
(-0.0400463 0.0321159 -0.0452618)
(-0.0971947 0.0010474 -0.064965)
(-0.0956103 0.153332 -0.117949)
(-0.0291314 0.2414 -0.140075)
(-0.0162612 -0.0224882 -0.0340956)
(-0.00495744 0.0474255 -0.00934753)
(4.17358e-05 0.0308588 0.013982)
(-0.0138221 0.0514405 0.00424847)
(-0.0133287 0.0806432 0.00131783)
(-0.0219238 0.115844 -0.0101392)
(-0.041597 0.0951248 -0.0381895)
(-0.0671111 0.0433619 -0.0782862)
(-0.0956598 0.117732 -0.122051)
(-0.0380609 0.187943 -0.122299)
(-0.00469975 0.00371529 -0.0451722)
(0.0221413 0.0575078 0.000288898)
(0.0172145 0.0641163 0.0171802)
(0.0108138 0.0834302 0.00805176)
(0.00536128 0.11269 0.00888236)
(-0.0243661 0.167619 -0.0080326)
(-0.0426671 0.153607 -0.0408703)
(-0.0491714 0.0924246 -0.0914209)
(-0.0746619 0.114592 -0.140126)
(-0.0411825 0.129815 -0.0996518)
(0.00311879 0.0272508 -0.0419854)
(0.033122 0.0680209 0.00796979)
(0.0257425 0.0805077 0.0210479)
(0.0208967 0.096588 0.0108703)
(0.0191148 0.133746 0.00928147)
(-0.0185881 0.207115 -0.0106106)
(-0.0436166 0.195773 -0.0506419)
(-0.0501738 0.131307 -0.0991696)
(-0.0668658 0.126261 -0.135634)
(-0.0385524 0.120793 -0.0545289)
(0.0110384 0.0460416 -0.0243186)
(0.0345889 0.0719813 0.0185894)
(0.0298192 0.0816546 0.0268761)
(0.0272552 0.0954959 0.0141799)
(0.0261006 0.146838 0.00715482)
(-0.00757926 0.231521 -0.0123657)
(-0.0442607 0.221624 -0.0578103)
(-0.0674274 0.155912 -0.100103)
(-0.0824373 0.145213 -0.100777)
(-0.0434971 0.144697 0.0154826)
(-0.00328373 0.00471123 0.0315741)
(-0.0142057 0.00348309 0.0300544)
(-0.0216173 0.00210192 0.0282377)
(-0.0263169 0.000658191 0.0271393)
(-0.028257 -0.000818033 0.0265372)
(-0.0275508 -0.00213785 0.0267024)
(-0.0243319 -0.00338679 0.0274996)
(-0.0187418 -0.00463633 0.0289664)
(-0.0107659 -0.00534415 0.0306771)
(-0.00275564 -0.00414864 0.0276267)
(-0.00191994 0.00998097 0.0331814)
(-0.0141342 0.00719825 0.0309254)
(-0.0212962 0.00410542 0.0275308)
(-0.0253123 0.00117626 0.0257075)
(-0.0270649 -0.00186961 0.0250049)
(-0.0263562 -0.00489873 0.0254061)
(-0.0232264 -0.00802929 0.0265588)
(-0.0177821 -0.0113899 0.0285746)
(-0.0100111 -0.013492 0.0307607)
(-0.00219654 -0.0101728 0.027274)
(0.000949044 0.0167818 0.03065)
(-0.0135796 0.010973 0.0337427)
(-0.0240719 0.00568973 0.0315526)
(-0.0298716 0.00158273 0.0298406)
(-0.0322138 -0.00295618 0.029334)
(-0.031472 -0.00819779 0.0304368)
(-0.0278818 -0.0139213 0.0326774)
(-0.0211766 -0.0198825 0.0359942)
(-0.0116557 -0.023299 0.0394909)
(-0.00257595 -0.0170235 0.0350228)
(0.00341219 0.0234833 0.0282881)
(-0.0130895 0.0171816 0.0383286)
(-0.0275847 0.00841753 0.0382272)
(-0.035798 0.00152481 0.0364549)
(-0.0395399 -0.00525227 0.0361724)
(-0.0391914 -0.0125721 0.0380512)
(-0.0348998 -0.0207281 0.0418568)
(-0.0263271 -0.029365 0.0480903)
(-0.0142169 -0.0338837 0.0541732)
(-0.00296268 -0.0236723 0.0464134)
(0.00414397 0.0304343 0.0243599)
(-0.0134039 0.0220959 0.0408139)
(-0.0329286 0.0117904 0.0445709)
(-0.0446472 0.00387176 0.0432557)
(-0.0493645 -0.00466362 0.0437023)
(-0.049181 -0.0151494 0.0478078)
(-0.045294 -0.0269987 0.0566325)
(-0.0365659 -0.0387673 0.0687584)
(-0.0220132 -0.0451149 0.0755634)
(-0.00624195 -0.0327163 0.0593846)
(0.00196123 0.0462844 0.0116129)
(-0.0145406 0.0339953 0.0338742)
(-0.0382437 0.0181757 0.0447626)
(-0.0547133 0.00458416 0.0493079)
(-0.0634493 -0.00798901 0.054237)
(-0.0658282 -0.0188618 0.0643165)
(-0.0629376 -0.0313366 0.0791707)
(-0.0533044 -0.0459696 0.0915457)
(-0.0359515 -0.0565813 0.0911371)
(-0.0131471 -0.0466611 0.0638908)
(0.00111403 0.0558974 -0.00384198)
(-0.0194216 0.0516588 0.0193293)
(-0.0485981 0.0384342 0.0367244)
(-0.0692864 0.02227 0.0490146)
(-0.0785526 0.004655 0.063034)
(-0.0796277 -0.0142578 0.0806921)
(-0.0737706 -0.0361443 0.0987437)
(-0.0610642 -0.0581602 0.111506)
(-0.0424879 -0.0713565 0.113979)
(-0.00901335 -0.0657055 0.0844414)
(-0.00811268 0.0545676 -0.0170672)
(-0.0347685 0.0605102 0.00391421)
(-0.053282 0.0450692 0.0193605)
(-0.0746894 0.0239186 0.0410971)
(-0.0908607 -0.00979775 0.0710939)
(-0.0880181 -0.0392591 0.0930522)
(-0.0762665 -0.0666671 0.11542)
(-0.058901 -0.0904498 0.139782)
(-0.0457643 -0.109903 0.170577)
(0.00218868 -0.107465 0.159226)
(-0.0206029 0.0778341 -0.0652814)
(-0.0490898 0.0204882 -0.0707293)
(-0.0852982 0.0297712 -0.0475304)
(-0.0562068 0.0277193 -0.0499582)
(-0.0148909 -0.00610299 -0.0632806)