/*--------------------------------*- C++ -*----------------------------------*\
| =========                 |                                                 |
| \\      /  F ield         | OpenFOAM: The Open Source CFD Toolbox           |
|  \\    /   O peration     | Version:  2312                                  |
|   \\  /    A nd           | Website:  www.openfoam.com                      |
|    \\/     M anipulation  |                                                 |
\*---------------------------------------------------------------------------*/
FoamFile
{
    version     2.0;
    format      ascii;
    arch        "LSB;label=32;scalar=64";
    class       surfaceScalarField;
    location    "0.385";
    object      alphaPhi0.water;
}
// * * * * * * * * * * * * * * * * * * * * * * * * * * * * * * * * * * * * * //

dimensions      [0 3 -1 0 0 0 0];

oriented        oriented;

internalField   nonuniform List<scalar> 
22600
(
6.00056e-08
1.43944e-07
-1.91876e-07
9.45902e-08
1.39933e-07
-1.74518e-07
1.11704e-07
1.33767e-07
-1.50881e-07
1.1466e-07
1.24529e-07
-1.27485e-07
1.05e-07
1.14463e-07
-1.04803e-07
9.20934e-08
1.00351e-07
-8.74442e-08
7.60254e-08
8.92893e-08
-7.32214e-08
6.28586e-08
7.3227e-08
-6.00603e-08
5.83046e-08
5.27732e-08
-4.82193e-08
1.1337e-07
-5.50651e-08
7.53615e-08
3.21098e-07
-2.38718e-07
1.22721e-07
3.13003e-07
-2.2043e-07
1.48642e-07
3.01109e-07
-1.93263e-07
1.5401e-07
2.84968e-07
-1.65807e-07
1.43176e-07
2.62553e-07
-1.37256e-07
1.2065e-07
2.3434e-07
-1.11463e-07
9.66762e-08
2.05532e-07
-9.2269e-08
7.92984e-08
1.67594e-07
-7.69895e-08
6.91811e-08
1.2574e-07
-6.28498e-08
2.50066e-07
-6.75152e-08
7.49362e-08
5.31656e-07
-2.73467e-07
1.21221e-07
5.196e-07
-2.52881e-07
1.40755e-07
5.01335e-07
-2.19759e-07
1.35941e-07
4.73869e-07
-1.84087e-07
1.16301e-07
4.31761e-07
-1.49568e-07
9.29726e-08
3.76428e-07
-1.1876e-07
7.46533e-08
3.22882e-07
-9.90307e-08
7.09634e-08
2.55208e-07
-8.39242e-08
6.24273e-08
1.96884e-07
-6.26072e-08
3.76323e-07
-6.38301e-08
7.36494e-08
7.8986e-07
-3.22253e-07
1.20303e-07
7.7585e-07
-3.02904e-07
1.35661e-07
7.5426e-07
-2.68283e-07
1.19649e-07
7.17429e-07
-2.27548e-07
8.50213e-08
6.53002e-07
-1.86613e-07
5.01513e-08
5.54346e-07
-1.43048e-07
3.1578e-08
4.43999e-07
-1.02543e-07
5.94533e-09
3.37283e-07
-5.64419e-08
-3.36883e-08
2.12587e-07
2.39306e-08
3.15064e-07
2.75714e-08
8.46824e-08
9.98417e-07
-2.88584e-07
1.39001e-07
9.91849e-07
-2.70317e-07
1.4108e-07
9.97758e-07
-2.45577e-07
9.7954e-08
9.61411e-07
-2.00856e-07
4.31024e-08
8.42095e-07
-1.34241e-07
2.54836e-08
6.37054e-07
-6.50886e-08
1.12001e-08
4.51143e-07
7.13928e-09
-1.10978e-07
2.8279e-07
1.76671e-07
-2.37689e-07
-8.51801e-08
4.24477e-07
-1.62147e-07
2.39521e-07
1.66455e-07
1.04205e-06
-2.69978e-07
3.64314e-07
1.05003e-06
-2.56041e-07
4.7799e-07
1.09929e-06
-2.15209e-07
4.63263e-07
1.0967e-06
-1.20558e-07
3.93912e-07
9.2617e-07
-1.4724e-08
4.18789e-07
4.90285e-07
1.21891e-07
5.48847e-07
-3.42625e-09
3.18245e-07
4.4461e-07
-9.55203e-08
4.57267e-07
8.51604e-08
-6.32225e-09
2.6075e-07
7.20003e-09
-5.30072e-08
2.73776e-07
1.50692e-06
-8.07374e-07
5.8464e-07
1.47942e-06
-7.40253e-07
7.47851e-07
1.47053e-06
-5.34451e-07
6.27693e-07
1.15184e-06
-2.15837e-07
2.5396e-07
7.15038e-07
1.22209e-07
7.52352e-08
1.04288e-07
2.91678e-07
1.20121e-07
-1.08336e-07
2.00482e-07
1.4483e-07
-2.23557e-08
-2.76691e-08
6.06253e-08
-1.02768e-08
-1.69138e-07
2.57997e-10
-9.18489e-08
4.45476e-07
2.14718e-06
-1.92307e-06
5.94339e-07
1.94299e-06
-1.75872e-06
4.72113e-07
1.40312e-06
-1.35941e-06
3.41469e-07
4.76152e-07
-7.84075e-07
2.60676e-07
-7.45226e-09
-3.65269e-07
1.09305e-07
-2.83127e-08
-1.42285e-07
1.75811e-08
-1.24557e-09
-2.01517e-08
5.5227e-10
3.32484e-11
-6.15377e-09
8.6782e-10
8.36646e-10
-1.52017e-08
2.95737e-09
-6.53721e-09
3.74452e-07
3.54121e-07
-1.61291e-06
5.18902e-07
1.53311e-07
-1.40201e-06
4.5152e-07
-4.05013e-08
-9.21131e-07
1.8934e-07
-3.99796e-08
-4.20491e-07
2.24052e-08
-9.61983e-09
-9.4375e-08
2.06437e-09
-9.75821e-10
-9.04968e-09
1.10063e-10
1.61711e-10
-7.87291e-11
-3.31115e-10
1.53596e-10
-1.2808e-12
-2.40915e-10
-2.00743e-10
-2.53149e-10
2.2222e-10
-3.76008e-11
3.29019e-08
6.19992e-10
-5.96552e-08
4.27692e-08
-8.3827e-10
-4.92794e-08
3.58932e-08
-2.23005e-09
-3.69613e-08
9.13956e-09
-2.58368e-09
-1.20489e-08
1.32295e-09
-2.73465e-10
-3.34857e-09
4.23479e-11
6.18661e-11
-1.22355e-10
-8.392e-11
2.2048e-12
1.17831e-10
-1.48928e-10
5.16708e-10
5.0998e-11
-1.24891e-10
6.15288e-10
3.63648e-13
5.51721e-10
3.1253e-11
2.98094e-09
6.8663e-10
-3.95846e-09
3.88521e-09
3.13854e-10
-2.57735e-09
2.69049e-09
-8.04949e-11
-1.12542e-09
4.84473e-10
-1.21239e-10
-2.11394e-10
8.61501e-11
1.14609e-10
-6.61553e-11
-1.75006e-11
7.42047e-11
4.21618e-11
-2.00098e-10
4.31063e-11
4.43402e-11
-3.81816e-10
6.74703e-10
1.22989e-10
-2.63877e-10
7.31114e-10
-4.77618e-11
5.50454e-10
-3.38596e-11
3.17256e-10
4.34484e-10
-1.40465e-10
4.1973e-10
3.23159e-10
-8.51636e-11
2.18573e-10
2.11673e-10
-2.32232e-11
4.52444e-11
8.41056e-11
1.26899e-11
1.20431e-11
1.00209e-10
3.53271e-11
-2.64835e-12
5.17696e-11
2.26083e-11
-8.2818e-11
4.10629e-11
1.97593e-11
-5.20353e-10
2.86993e-10
6.37169e-11
-2.79897e-10
6.89086e-10
-2.24932e-11
5.56548e-10
-1.20321e-10
3.01574e-11
1.11903e-10
2.5015e-10
4.03426e-11
5.6585e-11
1.81746e-10
2.01773e-11
8.0652e-11
1.01687e-10
8.61898e-12
4.82269e-11
4.1983e-11
4.86468e-12
6.26509e-11
2.89414e-11
2.35729e-14
3.37318e-11
1.07889e-11
-1.28866e-11
3.62226e-11
5.57489e-12
-1.56701e-10
2.16442e-11
1.5713e-11
-1.74731e-10
3.34311e-10
-2.41071e-11
7.4375e-10
-2.11331e-11
8.26575e-12
3.09391e-11
1.3851e-10
1.08237e-11
-1.30814e-11
8.56004e-11
5.26033e-12
3.01276e-11
3.66047e-11
7.56575e-12
1.69056e-11
2.26298e-11
6.76251e-12
4.26049e-11
1.78658e-11
1.00126e-11
1.08523e-10
2.80531e-11
4.54274e-13
1.84061e-10
1.78057e-11
-5.67656e-12
2.17213e-11
2.52448e-12
-1.52998e-10
2.2612e-10
4.42863e-12
1.14809e-09
-5.9707e-12
4.39612e-12
1.34366e-11
5.29631e-11
7.34101e-12
3.61982e-12
3.32654e-11
7.62395e-12
4.66537e-12
1.02863e-11
2.11267e-11
1.82733e-11
1.44595e-11
3.32354e-11
3.75892e-11
2.66768e-11
3.68168e-11
9.6379e-11
5.08805e-11
8.49296e-12
2.138e-10
3.74633e-11
-2.39474e-11
4.87942e-11
1.80858e-12
-1.71888e-10
3.54017e-10
4.452e-12
1.35382e-09
-3.08731e-10
2.44192e-12
1.27345e-11
1.40804e-11
3.01091e-12
1.30207e-11
1.19227e-11
1.83031e-12
6.59438e-12
3.88439e-12
5.34437e-12
5.71697e-12
5.67627e-12
1.18469e-11
2.97464e-13
6.5106e-12
1.67578e-11
7.67917e-12
1.79245e-11
1.53192e-11
2.04298e-10
5.02843e-11
-2.99013e-11
8.77722e-11
5.57167e-13
-2.37455e-10
5.47703e-10
-3.52216e-11
1.69193e-09
-5.4969e-10
1.40535e-13
1.11652e-14
2.15276e-12
4.8898e-13
5.61684e-14
3.9047e-12
2.81387e-13
1.54382e-14
1.80603e-12
1.70622e-13
-3.80705e-15
3.90353e-13
3.61438e-13
-1.36575e-15
1.08428e-13
7.67031e-12
3.72426e-14
3.26475e-13
1.79365e-11
4.22324e-11
2.34018e-11
-2.20414e-14
9.28251e-10
5.45653e-12
-1.70277e-10
9.21997e-10
-1.58299e-10
2.05017e-09
-5.0327e-10
4.12229e-15
3.73584e-17
1.81307e-14
6.97503e-15
1.30077e-16
5.17985e-14
6.8586e-15
1.01402e-17
1.18673e-14
1.02327e-15
-5.75886e-19
2.0333e-15
3.85434e-16
-3.0789e-16
9.31517e-17
1.43188e-13
-1.07648e-13
2.50092e-15
2.72095e-12
2.6213e-11
1.01723e-11
-1.7523e-11
1.11337e-09
2.941e-11
-9.04433e-11
1.1763e-09
-1.25485e-10
4.01035e-10
-3.05533e-10
1.03724e-17
-2.95353e-22
6.7851e-17
3.54358e-19
-9.64107e-21
1.40108e-16
-1.95638e-20
-1.20768e-18
1.14563e-17
2.79691e-20
-6.63822e-18
4.52976e-19
1.53445e-15
-2.28207e-15
4.44194e-16
-3.4748e-14
-1.61606e-13
9.39341e-14
-1.15831e-10
2.94256e-11
1.43579e-11
-1.56453e-10
7.04331e-10
6.04526e-11
-5.59189e-11
6.9034e-10
3.41513e-11
1.89401e-11
4.44025e-13
-2.86246e-22
1.39644e-21
-1.18778e-20
-1.85019e-20
1.45094e-21
-3.11491e-21
-1.13563e-18
1.53991e-20
-9.81954e-21
-1.06292e-17
4.04357e-18
-1.45199e-18
-3.03576e-15
9.24505e-16
-2.79687e-16
-3.4795e-13
1.90239e-13
-2.04474e-14
-4.76024e-11
6.35593e-12
6.4246e-13
-9.38523e-11
5.16935e-11
-2.82529e-13
-9.87053e-12
1.15738e-10
1.52885e-11
7.73998e-12
4.84727e-13
7.64961e-09
1.38526e-08
-1.98434e-07
6.34582e-09
1.42735e-08
-1.87488e-07
9.98068e-09
1.25206e-08
-1.67037e-07
1.55784e-08
1.18022e-08
-1.44885e-07
1.98174e-08
1.21066e-08
-1.21149e-07
2.02251e-08
9.68677e-09
-9.75388e-08
1.9398e-08
1.31395e-09
-7.37084e-08
2.92714e-08
-2.07665e-08
-4.91673e-08
5.17172e-08
-4.55948e-08
-2.50702e-08
5.1455e-08
-5.48028e-08
4.01207e-08
3.04315e-08
-2.77991e-07
5.81e-08
4.51371e-08
-2.69273e-07
7.29699e-08
5.13355e-08
-2.46948e-07
7.54348e-08
5.90896e-08
-2.15559e-07
6.87966e-08
6.07848e-08
-1.79296e-07
5.98136e-08
5.17963e-08
-1.4459e-07
4.56065e-08
3.23466e-08
-1.09095e-07
4.87153e-08
-2.55492e-08
-7.53155e-08
6.41456e-08
-8.0568e-08
-4.33068e-08
1.21988e-07
-7.39028e-08
3.25645e-08
8.58225e-08
-3.44999e-07
3.8301e-08
1.15772e-07
-3.29253e-07
3.75051e-08
1.30262e-07
-2.9789e-07
3.11213e-08
1.35643e-07
-2.54256e-07
2.05421e-08
1.27186e-07
-2.05389e-07
6.45091e-09
1.02007e-07
-1.5488e-07
-1.02779e-09
4.92265e-08
-1.08432e-07
1.9517e-08
-6.28507e-08
-6.71676e-08
5.86357e-08
-1.56875e-07
-2.54188e-08
1.88015e-07
-7.12208e-08
2.53179e-08
1.83875e-07
-4.30403e-07
2.29965e-08
2.28347e-07
-4.13158e-07
1.71834e-08
2.45075e-07
-3.77283e-07
-4.736e-09
2.48994e-07
-3.1898e-07
-4.3427e-08
2.30273e-07
-2.5101e-07
-7.6137e-08
1.717e-07
-1.80031e-07
-1.01189e-07
8.59607e-08
-1.14226e-07
-9.23649e-08
-9.77802e-08
-3.03361e-08
-2.84696e-08
-2.83495e-07
8.6655e-08
1.99707e-07
-1.25906e-08
-6.68165e-09
4.4903e-07
-5.41686e-07
-3.04004e-08
4.99853e-07
-5.18104e-07
-7.57493e-08
5.27539e-07
-4.82691e-07
-1.3975e-07
5.16297e-07
-4.04158e-07
-2.14313e-07
4.55657e-07
-2.85063e-07
-2.73374e-07
3.24722e-07
-1.59049e-07
-2.98079e-07
1.31509e-07
-1.37042e-08
-3.58075e-07
-7.88885e-08
2.1776e-07
-3.91429e-07
-2.90835e-07
4.65045e-07
-9.53811e-08
1.4318e-07
-1.428e-08
8.10186e-07
-6.63541e-07
8.97636e-09
8.40188e-07
-6.19632e-07
-1.83202e-08
8.59339e-07
-5.19713e-07
-1.08674e-07
8.56133e-07
-3.70041e-07
-2.10137e-07
7.48156e-07
-2.05759e-07
-1.4585e-07
3.91827e-07
-9.50164e-09
5.16859e-08
2.0755e-08
2.24917e-07
2.65623e-08
5.80459e-08
3.13939e-07
-2.44177e-07
1.4938e-07
1.2121e-08
-3.53399e-08
-3.35568e-07
6.08043e-08
1.43067e-06
-1.52082e-06
1.5339e-07
1.39645e-06
-1.3891e-06
1.69435e-07
1.40119e-06
-1.09235e-06
8.20677e-08
1.2154e-06
-7.2526e-07
1.28069e-09
8.13282e-07
-3.02576e-07
1.39394e-07
1.77843e-07
7.00921e-09
2.5121e-07
-2.64744e-08
-2.1996e-08
2.21357e-07
-8.58778e-09
-2.84908e-07
8.29023e-08
8.61721e-09
-4.17786e-07
-5.45382e-09
-2.77098e-07
2.61199e-07
1.33805e-06
-2.87084e-06
4.78778e-07
1.20635e-06
-2.6644e-06
6.12575e-07
8.92344e-07
-2.21896e-06
5.36252e-07
3.26045e-07
-1.45259e-06
3.39729e-07
-1.19521e-08
-6.5271e-07
1.39883e-07
-6.93826e-08
-3.23049e-07
1.36088e-08
-2.81312e-09
-9.76429e-08
1.29346e-08
-1.20558e-11
-1.51877e-08
1.13568e-08
5.93314e-10
-8.83722e-09
5.07751e-10
-3.76993e-09
1.91396e-07
7.37516e-08
-1.68721e-06
3.64641e-07
5.77222e-08
-1.5468e-06
3.93619e-07
3.33226e-08
-1.15525e-06
1.87435e-07
2.20315e-09
-6.10435e-07
5.90716e-08
1.28528e-09
-1.60611e-07
2.92328e-09
-1.05264e-10
-2.29484e-08
5.63261e-10
9.37744e-11
-1.18153e-09
1.78819e-10
1.33735e-10
-2.22927e-10
6.20514e-11
1.28984e-10
-1.3617e-10
1.75705e-10
-1.11462e-10
1.07574e-08
4.41914e-09
-5.87814e-09
1.67573e-08
2.67032e-09
-2.14028e-10
1.2195e-08
9.60815e-10
-1.30334e-11
2.26156e-09
9.06443e-11
-1.28374e-12
1.49833e-10
4.79098e-11
-4.54318e-12
-9.46e-11
2.08618e-11
-1.0479e-10
-3.95099e-11
6.52109e-12
7.55229e-11
-3.38686e-11
3.11344e-11
8.76027e-12
-2.45456e-11
5.89181e-11
-1.49194e-12
5.71652e-11
-3.25497e-12
2.27396e-10
2.74031e-10
-5.52013e-11
2.28007e-10
1.53954e-10
-6.05576e-11
5.18369e-11
3.18908e-11
-1.95391e-11
-4.41471e-11
-2.11047e-11
-3.73853e-12
-3.63138e-11
7.68483e-12
-2.5877e-11
-3.27944e-11
3.44012e-11
4.24133e-12
-3.43427e-11
1.40083e-11
1.26852e-11
-8.61697e-12
5.58457e-11
4.47409e-12
-1.24288e-11
3.82225e-11
-7.02465e-13
6.74872e-11
-4.83201e-12
1.08159e-11
2.04395e-10
-9.0551e-11
5.04752e-13
1.78272e-10
-5.47548e-11
-4.69805e-12
8.17206e-11
-3.03162e-12
-1.42918e-11
2.81087e-11
-4.97122e-13
-1.15612e-11
3.26727e-11
3.41391e-12
-9.47122e-12
3.0193e-11
1.26045e-11
-1.96092e-11
2.31756e-11
9.01171e-12
-3.1189e-12
3.66869e-11
7.1e-12
-3.04299e-12
1.23539e-11
-1.36143e-12
3.11025e-11
-4.02294e-12
1.49568e-11
2.52922e-10
4.32315e-11
2.49037e-12
1.62869e-10
4.43032e-11
-1.46132e-11
1.12582e-10
2.25466e-11
-7.7827e-12
8.2544e-11
1.52336e-11
-3.4975e-12
2.94552e-11
1.57757e-11
-1.93422e-12
1.80091e-11
9.20955e-12
-1.88768e-12
1.37848e-11
4.04112e-12
-1.76754e-12
1.74165e-11
4.35433e-12
-8.64526e-13
1.61426e-11
-2.78727e-11
1.07806e-11
-2.9153e-12
1.04405e-11
2.71033e-11
1.49194e-10
1.79606e-12
6.50489e-11
1.07932e-10
5.02101e-13
1.70848e-11
5.05722e-11
7.21361e-13
1.22748e-11
2.06477e-11
7.26773e-12
6.29562e-11
2.92016e-11
1.52543e-11
1.44614e-10
3.54196e-11
1.19278e-11
1.75889e-10
2.01212e-11
1.88959e-13
2.44748e-11
4.16409e-12
-5.17243e-13
8.66344e-11
-1.06792e-10
1.00479e-11
-5.38473e-12
2.38928e-13
1.43491e-12
9.83604e-11
1.20169e-12
7.83786e-12
6.32105e-11
1.45512e-12
2.20411e-12
1.13438e-11
1.71124e-11
1.04278e-11
1.28307e-11
5.36491e-11
3.2847e-11
2.40248e-11
9.73319e-11
1.16087e-10
8.30333e-11
6.04703e-11
2.3792e-10
5.46124e-11
4.56522e-12
6.07894e-11
1.3505e-11
-1.06752e-12
1.67749e-10
-1.57995e-10
1.27744e-09
-1.4221e-10
-2.24817e-12
-2.27368e-12
1.39723e-11
-1.64964e-12
-8.83693e-13
5.28482e-12
-5.66749e-13
1.3638e-12
9.74143e-13
2.73644e-12
7.5026e-13
1.75488e-12
1.25678e-11
-5.56838e-14
2.57789e-12
5.75901e-11
1.62133e-12
1.59433e-11
8.57842e-11
9.2976e-11
3.72468e-11
2.38851e-11
1.07177e-10
1.21079e-11
5.48244e-11
1.1834e-09
-2.17104e-10
1.98248e-09
-6.62639e-10
-2.7551e-14
-2.14291e-14
9.38497e-14
-7.07331e-14
-7.07173e-14
7.35675e-14
8.73048e-14
-1.21267e-14
2.496e-14
3.18958e-14
-2.31527e-15
2.23271e-14
7.44768e-14
-1.44479e-15
1.13954e-14
1.81055e-12
5.76707e-14
1.40079e-13
3.17086e-11
1.31493e-11
5.43195e-12
1.54496e-10
5.10261e-10
1.03979e-11
1.35923e-10
2.19126e-09
-2.99333e-10
2.20053e-09
-5.5591e-10
1.60885e-16
-5.56002e-17
7.56737e-16
9.41151e-17
-1.39731e-16
2.33083e-15
2.49142e-17
-2.41394e-17
7.31116e-16
7.57874e-18
-5.83197e-17
5.08007e-17
6.64394e-17
-2.96728e-15
1.4155e-15
4.92446e-14
3.18897e-15
7.59161e-15
2.16061e-11
1.31044e-12
4.4031e-13
1.47544e-10
1.09649e-09
3.14909e-12
1.5747e-10
2.17899e-09
-8.87427e-11
2.25294e-09
-1.65459e-10
-3.56579e-20
-5.60906e-20
1.18921e-18
-2.60489e-19
-9.56125e-20
1.02127e-18
-1.24435e-17
-3.28313e-18
9.17066e-19
4.8379e-16
-6.13319e-16
5.57566e-17
3.42833e-14
-3.92474e-14
3.27359e-15
1.36916e-12
1.38331e-13
3.19881e-13
6.60302e-12
2.06477e-11
6.44206e-13
8.87917e-11
8.28195e-10
-1.0851e-11
3.99272e-11
2.03308e-09
-7.5109e-12
2.20487e-09
1.15415e-10
-9.04853e-21
7.60066e-20
-6.26407e-20
-3.55823e-20
8.25767e-20
-4.19612e-20
-5.53605e-18
2.81915e-18
-1.13312e-18
-7.59781e-16
3.5603e-16
-1.79338e-16
-5.16712e-14
2.73427e-14
-1.22483e-14
3.32924e-12
1.8228e-12
4.08129e-13
1.35734e-11
5.44706e-12
1.7699e-11
-9.91111e-11
3.72137e-11
1.67906e-10
-1.11608e-10
1.76572e-10
4.28979e-10
1.31118e-10
1.25929e-11
2.67062e-08
-6.14673e-08
-1.46917e-07
3.12929e-08
-4.36448e-08
-1.4843e-07
4.09755e-08
-2.77756e-08
-1.48944e-07
5.28838e-08
-1.54274e-08
-1.41365e-07
6.00861e-08
-3.14332e-09
-1.25208e-07
5.94506e-08
6.80961e-09
-1.03713e-07
5.41264e-08
8.44791e-09
-7.6832e-08
5.52113e-08
-6.11233e-09
-4.41398e-08
6.36809e-08
-2.29187e-08
-1.0621e-08
6.95358e-08
-6.06578e-08
7.22517e-08
-1.35722e-07
-2.56511e-07
1.05653e-07
-8.15611e-08
-2.64758e-07
1.26337e-07
-3.58909e-08
-2.59518e-07
1.35001e-07
7.07187e-10
-2.40357e-07
1.30909e-07
3.1751e-08
-2.10098e-07
1.13474e-07
4.99441e-08
-1.70289e-07
9.11225e-08
5.05419e-08
-1.28837e-07
8.01443e-08
1.0816e-08
-8.12656e-08
7.90176e-08
-3.39751e-08
-3.11237e-08
1.59735e-07
-8.50848e-08
6.4711e-08
-1.85505e-07
-3.38629e-07
9.50974e-08
-9.6469e-08
-3.44731e-07
1.09209e-07
-2.20486e-08
-3.25844e-07
1.10912e-07
3.44673e-08
-2.89719e-07
1.01141e-07
7.67341e-08
-2.40602e-07
7.87921e-08
9.71017e-08
-1.79688e-07
5.98896e-08
8.07588e-08
-1.19747e-07
6.50791e-08
-6.24921e-09
-5.5292e-08
8.31501e-08
-8.23008e-08
4.83575e-09
2.37732e-07
-6.60668e-08
7.17564e-08
-1.92635e-07
-4.74505e-07
1.12462e-07
-9.04854e-08
-4.59847e-07
1.30882e-07
1.09075e-08
-4.2866e-07
1.20483e-07
9.90467e-08
-3.7316e-07
8.64363e-08
1.58222e-07
-2.9845e-07
3.97662e-08
1.71435e-07
-2.07694e-07
8.08897e-09
1.17767e-07
-1.19558e-07
1.65281e-08
-3.5464e-08
-9.56037e-09
4.90651e-08
-1.454e-07
1.17217e-07
3.00382e-07
-2.61757e-08
6.21726e-08
-4.86402e-08
-7.30368e-07
9.28182e-08
4.37625e-08
-6.82998e-07
9.03903e-08
1.66089e-07
-6.35445e-07
5.4399e-08
2.75944e-07
-5.45064e-07
-6.31198e-09
3.51275e-07
-4.17405e-07
-1.04064e-07
3.52673e-07
-2.42536e-07
-2.03875e-07
2.23053e-07
-1.91788e-08
-2.18425e-07
-7.6116e-08
2.72958e-07
-1.97849e-07
-1.50511e-07
4.49557e-07
2.01691e-07
4.40216e-08
2.07927e-08
2.75635e-07
-1.00812e-06
3.34557e-08
3.28575e-07
-9.17107e-07
1.93878e-08
4.52702e-07
-7.92257e-07
-4.16001e-08
5.94387e-07
-6.27495e-07
-1.33271e-07
6.72827e-07
-4.3564e-07
-1.7466e-07
5.4847e-07
-1.6391e-07
-1.86414e-07
2.77648e-07
1.61396e-07
-2.95267e-07
3.22917e-08
3.3979e-07
-4.69e-07
-7.77432e-08
1.50995e-07
-2.04372e-07
-3.64475e-07
7.09094e-08
7.1683e-07
-2.01108e-06
1.06782e-07
7.39318e-07
-1.83572e-06
1.66013e-07
8.55191e-07
-1.55407e-06
1.82848e-07
1.07921e-06
-1.22692e-06
1.64418e-07
8.40195e-07
-8.58094e-07
2.30369e-07
3.64693e-07
-3.85107e-07
3.07829e-07
5.8521e-08
-2.69756e-07
2.4118e-07
-1.1908e-08
-4.21421e-07
4.35127e-08
-4.6544e-08
-4.95459e-07
-4.10366e-08
-2.88311e-07
3.8947e-07
3.56308e-07
-3.17296e-06
6.16398e-07
3.54163e-07
-2.94411e-06
7.82628e-07
2.82153e-07
-2.52286e-06
7.78963e-07
1.4088e-07
-1.83203e-06
5.24399e-07
1.51324e-09
-1.04613e-06
2.93512e-07
-6.68745e-08
-5.38504e-07
7.84709e-08
-2.15986e-08
-2.55646e-07
2.91655e-08
-8.11526e-10
-5.9511e-08
6.64654e-09
-1.97875e-10
-3.35762e-08
-3.24505e-10
-3.85217e-08
1.93595e-07
5.50272e-09
-1.69621e-06
3.82498e-07
-5.47794e-10
-1.54442e-06
4.13027e-07
-1.04397e-10
-1.15255e-06
2.75836e-07
-6.28702e-12
-6.48433e-07
7.30134e-08
-5.38974e-11
-2.37066e-07
1.64877e-08
1.11222e-10
-3.38341e-08
7.6682e-10
-9.39724e-11
-7.07237e-09
2.24126e-10
1.38031e-11
-6.42667e-10
4.83805e-11
2.97547e-11
-2.84644e-10
2.34384e-11
-5.13787e-10
4.12869e-10
-1.32775e-11
-9.2729e-10
1.63792e-11
-2.77501e-12
-3.58079e-10
2.32924e-12
-8.96543e-13
-1.00765e-10
4.80588e-14
-4.909e-13
-4.90983e-12
-4.79939e-11
-7.68202e-12
-1.20079e-12
-7.75716e-12
-3.05445e-11
-1.80691e-12
-3.24677e-12
-2.10677e-11
-4.65486e-13
-1.51602e-12
1.62612e-11
2.65021e-12
-9.08034e-12
1.99836e-11
4.33169e-12
2.18119e-11
-2.59691e-11
4.42513e-13
-6.43004e-11
-4.89431e-12
3.75679e-13
-5.78995e-11
-1.27158e-12
7.2001e-15
-1.92471e-11
-1.45871e-13
-3.48554e-12
-4.70596e-13
-2.6264e-13
-1.9915e-11
-7.15877e-14
-5.31256e-12
-1.9759e-11
1.27298e-11
-3.57862e-13
-3.88497e-12
1.08663e-11
2.13387e-11
-1.82067e-12
8.34445e-12
6.288e-12
-2.41255e-12
1.3514e-11
2.9842e-12
1.56938e-11
-3.97255e-12
1.183e-12
-1.35055e-10
-5.04822e-11
3.19368e-12
-9.34852e-11
-2.76207e-11
-7.12379e-13
-1.43352e-11
-1.72703e-12
-5.77963e-12
-1.62564e-12
1.34994e-13
-1.29038e-11
1.22504e-11
6.1677e-12
-1.33234e-11
3.36517e-11
3.51214e-11
-2.17591e-12
1.56869e-11
2.12843e-11
-1.36705e-12
4.37105e-12
7.01239e-12
-8.05712e-13
8.34791e-12
6.76686e-13
1.16438e-11
-2.07901e-12
-1.66442e-11
-2.52277e-10
1.61706e-11
-7.35627e-13
-8.33517e-11
3.22737e-11
-1.79576e-12
-8.94473e-12
3.08496e-13
5.42779e-14
1.44408e-12
-1.60512e-12
-6.50137e-12
1.41506e-11
2.77728e-11
-5.53243e-12
5.94072e-11
5.09766e-11
-1.25436e-12
4.02946e-11
1.533e-11
-2.59262e-11
4.85421e-12
2.45093e-11
-4.32801e-13
3.47456e-10
-1.31269e-10
9.10212e-12
-2.05783e-12
-1.66785e-11
-1.17968e-10
2.21291e-11
-6.68626e-12
-2.71631e-11
7.22971e-12
-1.19279e-12
-2.14979e-12
1.15325e-12
3.44365e-12
2.5647e-13
6.40809e-13
1.21699e-11
7.05323e-12
3.13296e-11
3.28642e-11
5.14724e-11
9.13637e-11
9.78042e-12
4.8589e-11
3.48213e-11
-3.25314e-11
3.36603e-11
2.99967e-11
-1.5462e-13
8.26366e-10
-3.09369e-10
7.25048e-11
-7.01818e-11
-6.94092e-12
-1.00459e-11
7.51839e-12
-2.87415e-12
-2.21482e-12
1.92545e-12
-1.10711e-12
-2.55899e-13
3.07175e-13
9.25223e-14
-1.77701e-13
2.85223e-13
9.57402e-12
-8.07791e-14
1.15203e-12
4.10498e-11
1.11002e-11
3.75853e-12
4.17213e-11
4.55219e-11
8.71795e-12
5.72555e-11
2.19635e-10
4.30258e-11
4.37319e-11
9.28013e-10
-2.97504e-10
1.52439e-09
-3.91817e-10
-8.06149e-14
-9.60014e-14
1.70306e-13
-5.55874e-14
-7.26817e-14
1.07461e-13
-6.28611e-14
-2.10654e-14
2.07612e-14
1.5229e-14
-2.33301e-14
2.94784e-14
2.42824e-13
-4.13464e-14
2.98788e-14
4.82162e-12
-5.21798e-13
1.54563e-13
4.15884e-11
7.86193e-12
1.00909e-12
6.48544e-11
4.09006e-10
2.7711e-12
2.36758e-11
1.0684e-09
-3.08853e-10
1.69809e-09
-7.6701e-10
8.01286e-17
-9.43882e-16
4.53749e-15
-3.00608e-15
-2.28019e-15
6.15123e-15
-4.41747e-16
-7.95588e-16
1.73099e-15
-2.40347e-16
-6.73166e-16
2.30114e-16
4.8658e-15
-3.49125e-14
1.47672e-14
1.73784e-13
-5.04934e-14
1.04844e-14
1.18348e-11
1.34859e-12
6.64467e-14
-2.31972e-12
3.81286e-10
-4.80663e-12
-7.18093e-11
5.98771e-10
-1.60186e-10
1.28331e-09
-1.74209e-10
2.18925e-18
-1.80293e-19
2.0167e-17
-5.22382e-18
-2.95334e-18
6.13827e-17
-1.70249e-17
-4.24756e-18
1.18887e-17
-9.95672e-16
-3.58702e-16
3.19762e-16
-3.2069e-14
-4.33052e-14
3.72842e-14
3.75552e-14
9.59644e-13
5.14852e-14
1.54737e-12
1.81684e-13
1.7349e-14
-2.88277e-12
1.25686e-10
-2.37673e-12
-5.61938e-11
6.9673e-11
-9.83985e-12
1.712e-10
-2.08532e-11
-1.46262e-20
-2.24659e-19
2.80246e-19
-7.85258e-19
-1.49955e-19
4.05591e-19
-3.39747e-18
-4.19341e-18
3.40176e-18
-1.1146e-17
-9.47493e-16
6.37591e-16
-5.56723e-13
-2.53394e-14
4.29435e-14
6.62942e-14
1.7069e-12
4.70861e-13
3.78883e-13
1.17833e-11
2.27717e-15
-5.37332e-13
6.18669e-11
-1.82811e-12
-1.70028e-11
8.67504e-11
-5.99737e-13
1.37389e-11
-4.16486e-14
-2.18775e-20
2.69572e-19
-1.88264e-19
-9.65406e-20
3.10678e-19
-1.19877e-19
-2.77683e-18
4.82815e-18
-3.0848e-18
-7.3018e-16
6.51911e-16
-4.93527e-16
-8.49183e-15
4.02096e-14
-2.89901e-14
-1.02983e-13
1.68162e-12
1.15409e-12
-2.24638e-12
4.13056e-12
3.12289e-11
-1.52255e-11
-2.22577e-12
8.42471e-11
-1.10486e-11
-1.9481e-11
1.6089e-10
4.49447e-13
1.68737e-12
3.35944e-08
-6.42571e-08
-9.64478e-08
5.19957e-08
-5.46798e-08
-1.12152e-07
7.18339e-08
-4.35316e-08
-1.25251e-07
8.94075e-08
-2.69263e-08
-1.32013e-07
1.00873e-07
-1.16673e-08
-1.25007e-07
9.97744e-08
4.29797e-09
-1.06912e-07
8.98096e-08
1.3248e-08
-8.01151e-08
8.05142e-08
6.99171e-09
-4.18359e-08
7.67473e-08
-3.56117e-09
-3.29301e-09
8.54256e-08
-6.93361e-08
7.23087e-08
-1.52095e-07
-2.09746e-07
1.26814e-07
-1.30988e-07
-2.42955e-07
1.67759e-07
-8.21143e-08
-2.61881e-07
1.87566e-07
-2.99492e-08
-2.57141e-07
1.87223e-07
1.26493e-08
-2.34072e-07
1.68285e-07
4.69954e-08
-1.94049e-07
1.39341e-07
6.25222e-08
-1.49167e-07
1.13723e-07
4.527e-08
-9.39263e-08
9.55682e-08
1.76975e-08
-3.42277e-08
1.95135e-07
-9.92257e-08
7.76939e-08
-1.92246e-07
-3.39052e-07
1.29196e-07
-1.91735e-07
-3.35486e-07
1.69673e-07
-1.12372e-07
-3.36064e-07
1.85546e-07
-2.57279e-08
-3.09813e-07
1.81656e-07
4.40732e-08
-2.68136e-07
1.56943e-07
9.79004e-08
-2.0588e-07
1.25764e-07
1.13577e-07
-1.39622e-07
1.08931e-07
6.90732e-08
-6.22621e-08
1.00694e-07
1.6548e-08
1.42219e-08
3.0045e-07
-7.06873e-08
1.11478e-07
-1.81808e-07
-5.59637e-07
1.73821e-07
-2.28339e-07
-4.85587e-07
2.19706e-07
-1.22556e-07
-4.64361e-07
2.29275e-07
5.91706e-09
-4.14374e-07
2.06597e-07
1.11701e-07
-3.43401e-07
1.64806e-07
1.84093e-07
-2.52096e-07
1.16938e-07
1.91258e-07
-1.4937e-07
1.0475e-07
1.00242e-07
-2.85411e-08
9.84305e-08
3.65555e-08
1.03529e-07
4.02657e-07
-2.99527e-08
1.78242e-07
-1.60035e-07
-8.9027e-07
2.43251e-07
-2.40908e-07
-7.35438e-07
2.81858e-07
-1.09569e-07
-6.87039e-07
2.86901e-07
6.80514e-08
-6.12242e-07
2.41499e-07
2.40998e-07
-5.013e-07
1.34607e-07
3.92492e-07
-3.44042e-07
1.37455e-08
4.05452e-07
-1.12512e-07
-3.56634e-08
2.31153e-07
1.91456e-07
-2.89109e-08
5.77102e-08
4.21649e-07
3.73109e-07
4.46592e-08
2.28796e-07
-3.39408e-08
-1.32851e-06
2.76951e-07
-1.05115e-07
-1.10105e-06
3.01946e-07
5.19101e-08
-9.78731e-07
2.70175e-07
3.02136e-07
-8.29809e-07
1.67808e-07
5.39667e-07
-6.31942e-07
3.91035e-08
6.9727e-07
-3.39983e-07
-1.13549e-07
6.76553e-07
4.29472e-08
-2.86414e-07
3.35144e-07
3.7985e-07
-3.99355e-07
-5.23693e-08
3.7987e-07
-1.36768e-07
-2.47136e-07
3.27099e-07
-1.32317e-08
-2.2882e-06
3.65899e-07
-1.74404e-08
-1.96219e-06
4.47232e-07
1.30226e-07
-1.71372e-06
4.98935e-07
5.02402e-07
-1.47889e-06
4.81839e-07
8.60376e-07
-1.16171e-06
4.18929e-07
5.74237e-07
-7.10546e-07
3.53486e-07
2.22689e-07
-3.64934e-07
1.27296e-07
4.00725e-08
-3.44237e-07
-1.10415e-07
-1.27312e-07
-3.32992e-07
-1.63638e-07
-1.8773e-07
6.38818e-07
-6.33857e-07
-3.17235e-06
9.26907e-07
-5.40532e-07
-2.89838e-06
1.06966e-06
-3.79515e-07
-2.55963e-06
1.12201e-06
-2.0065e-07
-2.04922e-06
8.98426e-07
-1.87299e-08
-1.48387e-06
5.21984e-07
-5.80969e-08
-8.89998e-07
2.6272e-07
-5.5689e-08
-4.95814e-07
8.10921e-08
-1.5857e-08
-2.90912e-07
3.17357e-08
-1.35126e-09
-1.26746e-07
-2.01731e-09
-1.71627e-07
3.02065e-07
-1.11969e-08
-2.02152e-06
5.76441e-07
-4.66963e-09
-1.86253e-06
5.90863e-07
-1.30996e-09
-1.41168e-06
3.82071e-07
-7.61155e-11
-8.03452e-07
1.1077e-07
-7.96385e-12
-3.37637e-07
3.70717e-08
-4.04251e-11
-5.00004e-08
6.51318e-09
-3.43924e-11
-3.21639e-08
9.60801e-10
1.88615e-12
-1.10178e-08
5.1563e-10
4.75895e-11
-1.4699e-09
3.29807e-11
-2.48717e-09
9.77946e-11
-8.77022e-11
-1.21525e-08
5.1041e-11
-3.3108e-11
-4.94719e-09
8.04112e-12
-4.03414e-12
-1.36355e-09
-3.99724e-14
-2.66339e-12
-7.03106e-11
-1.0098e-12
-6.1307e-12
-1.60066e-12
-1.03084e-12
-3.90958e-11
-2.12625e-12
-5.61446e-13
-3.39312e-11
-4.33563e-13
4.0729e-12
1.24375e-12
2.82901e-12
5.76692e-12
2.35981e-11
8.78716e-12
3.47832e-11
-9.40287e-11
-7.82965e-14
-6.30132e-11
-2.92739e-11
-2.77996e-14
-3.38619e-11
-4.24259e-13
-6.19866e-14
-4.10416e-12
-1.98972e-14
1.82838e-13
-3.26067e-12
-1.89013e-14
-2.34228e-12
-1.7963e-11
1.17367e-13
-3.51818e-11
-3.38583e-11
1.06294e-11
-3.52545e-11
-4.11815e-11
5.9267e-11
-2.2975e-12
-8.51887e-12
7.59465e-11
-5.77569e-12
1.38527e-11
1.21998e-11
2.54408e-11
-1.14044e-11
-2.30894e-12
-1.17892e-10
3.68777e-12
-7.40349e-13
-5.0846e-11
-5.27677e-13
-2.49239e-13
-2.96487e-12
-3.73311e-14
2.68017e-13
-3.00617e-12
8.63946e-14
-4.55259e-12
-2.49946e-11
4.83043e-12
-5.0337e-12
-3.40527e-11
3.40856e-11
-9.60232e-11
-1.55056e-11
6.22597e-11
-1.82098e-12
-1.1262e-10
1.52196e-10
-3.27565e-12
9.54021e-12
3.17941e-12
2.05271e-11
-3.40398e-12
-6.8084e-12
-7.86579e-11
2.63398e-12
-2.01763e-12
-9.73055e-12
-1.00976e-12
-4.22472e-13
-1.12161e-12
1.47083e-13
-1.08029e-12
-7.67418e-13
7.53933e-14
-1.7416e-12
-1.5462e-11
4.62137e-12
1.20363e-12
-2.45277e-11
1.17729e-11
-3.27534e-11
-5.37399e-12
9.15185e-12
-1.75956e-10
-1.18934e-10
9.69199e-11
-4.93723e-12
6.02423e-10
-2.02679e-11
1.4289e-11
-2.05956e-12
-5.89056e-13
-7.68869e-12
9.46038e-13
-2.50433e-13
-1.2687e-12
7.72365e-13
-1.04638e-13
-2.3548e-13
6.20085e-14
2.8694e-14
-3.16524e-13
1.98925e-14
-2.83235e-13
-1.26534e-12
2.01348e-13
7.04376e-13
-2.8296e-12
4.95423e-12
1.19257e-11
8.6438e-13
3.70989e-12
-2.45455e-10
3.12463e-11
-1.59049e-11
-7.26101e-11
6.63315e-10
-5.02091e-10
8.28901e-10
-2.0266e-12
-4.71161e-14
-1.69457e-13
8.44872e-14
-4.1366e-14
-7.42722e-14
6.74471e-13
-3.51963e-14
-1.65354e-14
1.91493e-14
-6.41729e-14
-3.26935e-14
1.47019e-14
-1.85506e-13
-5.25903e-14
2.4083e-14
3.2008e-13
1.8414e-14
1.43175e-13
1.1335e-12
3.74194e-12
2.13014e-12
-3.5323e-10
1.22702e-10
-2.30736e-11
-9.77629e-11
6.90851e-10
-6.34717e-10
8.88625e-10
-5.0829e-10
-3.21101e-17
-4.42728e-15
1.80808e-14
-1.73653e-15
-6.16271e-15
3.86246e-14
-3.75678e-15
-1.78497e-15
7.23803e-15
-4.67869e-15
-4.21817e-15
5.13243e-16
-1.81008e-14
-1.1416e-14
1.6161e-17
1.29432e-13
-4.81821e-15
4.8181e-15
3.9707e-12
3.15913e-13
3.03418e-13
-8.68599e-11
2.67989e-12
-4.01712e-12
-1.7528e-10
1.41587e-10
-2.4464e-10
4.21152e-10
-5.43915e-10
6.26463e-18
-1.8514e-17
2.73477e-16
-1.04994e-16
-5.66474e-17
1.51047e-16
-2.07344e-16
-2.2354e-17
5.51818e-17
-7.868e-15
-3.19458e-16
9.48486e-16
-2.49403e-15
-2.4297e-14
1.19179e-14
1.59628e-15
9.50275e-14
1.28701e-15
-1.48586e-13
2.65555e-13
5.78833e-15
-4.62351e-12
2.4271e-12
-2.14295e-13
-2.72475e-11
9.62276e-12
-6.22625e-12
2.17956e-11
-2.32409e-11
4.69548e-21
-1.3574e-18
1.42718e-18
-9.79615e-19
-1.08996e-18
4.32451e-18
-1.70639e-17
-2.80869e-18
2.74066e-18
1.36219e-17
-3.01472e-16
2.54276e-16
-7.42124e-14
-2.74394e-14
2.45375e-14
-6.143e-15
4.80382e-13
5.52842e-14
-2.25765e-14
3.10032e-13
5.25395e-15
-2.2082e-13
1.8397e-13
-1.0949e-14
-6.56997e-13
2.01811e-13
-1.84993e-15
1.28604e-13
-2.20506e-13
-3.75409e-20
-1.9051e-19
3.96556e-18
-3.44331e-19
-8.72927e-19
1.4128e-18
-1.72932e-18
-2.18211e-18
2.23573e-18
4.94435e-16
-3.73437e-16
1.94365e-16
-3.61155e-13
-1.30192e-14
1.14463e-14
-1.78231e-13
2.04031e-13
1.532e-13
7.03401e-14
8.82236e-12
2.4447e-13
-6.19e-13
5.89481e-12
-4.74161e-15
-2.58097e-13
2.44361e-12
-1.0324e-14
-1.65378e-13
3.25478e-15
-5.3486e-20
8.11289e-18
-7.33023e-20
-2.74146e-19
1.67914e-18
-4.28941e-19
-4.29973e-19
1.39273e-18
-1.13199e-18
2.73106e-16
1.64922e-16
-1.63314e-16
3.3026e-14
5.64934e-15
-1.14973e-14
-3.20752e-12
4.54708e-13
-1.10799e-13
-2.36049e-12
1.2176e-12
8.89441e-12
-1.94623e-12
-8.67814e-13
1.73223e-11
-2.64739e-13
6.27904e-15
2.52691e-12
1.42463e-14
-3.80897e-14
1.36299e-08
-4.95623e-08
-3.09363e-08
3.6706e-08
-6.57695e-08
-6.94584e-08
7.26098e-08
-6.6715e-08
-9.44396e-08
1.04234e-07
-5.49205e-08
-1.08716e-07
1.23133e-07
-3.52383e-08
-1.08667e-07
1.26942e-07
-1.30918e-08
-9.76289e-08
1.16996e-07
5.4365e-09
-7.56058e-08
1.03772e-07
5.57076e-09
-3.41822e-08
9.08049e-08
6.07393e-09
3.59965e-09
9.94442e-08
-7.79754e-08
5.42008e-08
-1.46076e-07
-1.16712e-07
1.09164e-07
-1.85767e-07
-1.77921e-07
1.7693e-07
-1.64442e-07
-2.31919e-07
2.18745e-07
-1.07756e-07