/*--------------------------------*- C++ -*----------------------------------*\
| =========                 |                                                 |
| \\      /  F ield         | OpenFOAM: The Open Source CFD Toolbox           |
|  \\    /   O peration     | Version:  2312                                  |
|   \\  /    A nd           | Website:  www.openfoam.com                      |
|    \\/     M anipulation  |                                                 |
\*---------------------------------------------------------------------------*/
FoamFile
{
    version     2.0;
    format      ascii;
    arch        "LSB;label=32;scalar=64";
    class       volVectorField;
    location    "0.385";
    object      U;
}
// * * * * * * * * * * * * * * * * * * * * * * * * * * * * * * * * * * * * * //

dimensions      [0 1 -1 0 0 0 0];

internalField   nonuniform List<vector> 
8000
(
(0.00174441 0.00247288 -0.00583879)
(0.00380253 0.00237734 -0.00538763)
(0.00519713 0.00224193 -0.00464327)
(0.00576505 0.00206222 -0.00388654)
(0.00573799 0.00189311 -0.00322103)
(0.00530223 0.00168685 -0.00274073)
(0.00455201 0.00158364 -0.00238713)
(0.00352818 0.00135822 -0.0021316)
(0.00335687 0.00105234 -0.00192162)
(0.00192064 0.00242008 -0.00185764)
(0.00212079 0.00889353 -0.00682507)
(0.00472879 0.00874256 -0.00635652)
(0.00660489 0.00854885 -0.00558416)
(0.00750168 0.00827235 -0.00475922)
(0.00747753 0.00790626 -0.00397026)
(0.00680451 0.00737149 -0.00331978)
(0.00576023 0.00695055 -0.00289359)
(0.00440401 0.00622659 -0.00260869)
(0.00399355 0.00528789 -0.00237596)
(0.00225603 0.00898285 -0.00222978)
(0.00213883 0.0160388 -0.00760549)
(0.00485699 0.015719 -0.00699274)
(0.00669998 0.0153236 -0.00613949)
(0.00729815 0.014841 -0.00518884)
(0.0068504 0.0141439 -0.00433701)
(0.00601536 0.0131836 -0.00367845)
(0.00511735 0.0121296 -0.00332023)
(0.00407714 0.0106577 -0.00312632)
(0.00386498 0.00926235 -0.00281651)
(0.00234401 0.0151623 -0.00239367)
(0.0021326 0.0265337 -0.00934247)
(0.00505191 0.0261912 -0.00857059)
(0.00699918 0.0257027 -0.00763216)
(0.00741315 0.0248341 -0.00653894)
(0.00646894 0.0231862 -0.00543098)
(0.00500354 0.0206963 -0.00448383)
(0.00391202 0.0178674 -0.00370968)
(0.0030536 0.0140712 -0.00284079)
(0.000443305 0.0105413 -0.000764887)
(-0.00085497 0.0189109 0.000539679)
(0.00236058 0.0316693 -0.00630076)
(0.00613597 0.0312602 -0.00542737)
(0.0080833 0.0310079 -0.004994)
(0.00760792 0.0305643 -0.00439107)
(0.00558588 0.0291405 -0.00320019)
(0.00405079 0.0258878 -0.00152364)
(0.00386685 0.0244523 0.000145201)
(0.00166952 0.0248708 0.00382296)
(-0.00821249 0.0233848 0.0101608)
(-0.00773785 0.0265574 0.00672998)
(0.00272885 0.0463818 -0.00317865)
(0.0126842 0.046819 -0.00281007)
(0.0203932 0.0486429 -0.0023256)
(0.0230266 0.0483662 -0.000582036)
(0.0204004 0.0436861 0.00180703)
(0.0204136 0.0347082 0.00556659)
(0.0232609 0.0204977 0.0098336)
(0.0298695 0.0040196 0.0128489)
(0.0141037 -0.024288 0.00975952)
(0.00230981 -0.0374368 -0.000411883)
(0.00484176 0.0353204 -0.0189912)
(0.0200062 0.0346373 -0.0181127)
(0.0317894 0.0356314 -0.0128499)
(0.0346822 0.0364581 -0.00358144)
(0.0269708 0.028576 0.00578276)
(0.00778404 0.00241887 0.00970382)
(0.0161795 -0.0174265 0.00873529)
(0.0367676 -0.0143598 0.00313504)
(0.0640435 0.0364808 -0.0411869)
(0.0412122 0.0527443 -0.0384756)
(0.0128991 0.0804809 -0.0630246)
(0.0282121 0.0788654 -0.0575747)
(0.0331176 0.0764825 -0.0462044)
(0.0313449 0.0675744 -0.0356562)
(0.0506048 0.0497551 -0.0379946)
(0.149781 0.0209776 -0.0681274)
(0.308613 0.0209376 -0.0881341)
(0.170245 0.0201025 -0.0470101)
(0.0262181 0.211107 -0.118295)
(0.0127842 0.271913 -0.0536932)
(0.0200187 0.147788 -0.14389)
(0.0508935 0.147473 -0.139179)
(0.080023 0.143979 -0.134313)
(0.147912 0.128198 -0.168396)
(0.316925 0.0361927 -0.249354)
(0.372978 -0.0322682 -0.240834)
(0.172068 0.232852 -0.0127295)
(-0.0420961 0.324202 0.0347303)
(-0.0821225 0.384943 -0.0188761)
(-0.0104106 0.309885 0.0101803)
(0.0245223 0.308637 -0.201429)
(0.0692442 0.320335 -0.210198)
(0.12039 0.344156 -0.244676)
(0.138935 0.279509 -0.238619)
(0.129316 0.369316 -0.214694)
(0.183575 0.394821 -0.150276)
(-0.0659336 0.407196 0.079801)
(-0.172349 0.364072 0.0551209)
(-0.104675 0.300722 -0.00195693)
(-0.0162862 0.202771 -0.00831247)
(0.0174449 0.539926 -0.1999)
(0.0461217 0.534483 -0.197606)
(0.0868057 0.508701 -0.19215)
(0.0972394 0.44437 -0.169353)
(0.0687102 0.525868 -0.155398)
(0.0698902 0.521452 -0.0378551)
(-0.163908 0.383517 0.104256)
(-0.184977 0.254695 0.0246078)
(-0.0986082 0.203593 -0.0529281)
(-0.0254313 0.155569 -0.0531888)
(0.0106407 0.634814 -0.135374)
(0.0292351 0.622033 -0.128584)
(0.0573763 0.591378 -0.11615)
(0.0538848 0.545297 -0.0938953)
(0.0422722 0.555514 -0.0561509)
(0.0130486 0.481937 0.0606901)
(-0.119882 0.322494 0.0933098)
(-0.147764 0.194081 0.00526663)
(-0.104096 0.172134 -0.0810349)
(-0.0329195 0.134518 -0.0736711)
(0.00456432 0.592712 -0.0465802)
(0.015855 0.574976 -0.0374974)
(0.0327512 0.542283 -0.0240447)
(0.0306506 0.492061 0.000989106)
(0.0380003 0.447721 0.0503324)
(0.01247 0.376606 0.106117)
(-0.0310846 0.282441 0.0791329)
(-0.100402 0.189218 0.00560772)
(-0.105664 0.183903 -0.0819119)
(-0.0318457 0.134401 -0.081302)
(0.00437215 0.43973 0.0370228)
(0.0182873 0.413747 0.0445796)
(0.0311515 0.372785 0.0554445)
(0.038631 0.313216 0.0712033)
(0.0487306 0.269817 0.0883565)
(0.0395588 0.255623 0.087088)
(0.0306466 0.251291 0.0564234)
(-0.059 0.214853 0.00202311)
(-0.0981098 0.220075 -0.0784982)
(-0.0250133 0.150746 -0.0854319)
(0.00505002 0.256478 0.0711323)
(0.0315058 0.232665 0.0691262)
(0.0408492 0.198857 0.067249)
(0.0364795 0.161689 0.0592736)
(0.0350164 0.147091 0.0466556)
(0.0400088 0.167448 0.038361)
(0.0467493 0.238212 0.02743)
(-0.0321268 0.26274 -0.00891074)
(-0.0845489 0.267479 -0.074932)
(-0.0155838 0.183917 -0.0866271)
(0.00334188 0.133901 0.0375761)
(0.0209673 0.131119 0.0332587)
(0.0231844 0.127326 0.0302268)
(0.0172142 0.10627 0.0254117)
(0.0270438 0.0844754 0.0208168)
(0.0430301 0.0912766 0.0229835)
(0.0412306 0.223537 0.0173315)
(-0.0146764 0.315791 -0.0176616)
(-0.0665115 0.316725 -0.0687046)
(-0.00586948 0.229338 -0.082282)
(0.00459545 0.0793164 0.0173914)
(0.0024234 0.0807948 0.0189713)
(0.0107522 0.0731301 0.0217324)
(0.0254977 0.047521 0.020646)
(0.0495797 0.0232653 0.0189657)
(0.0625155 0.0291881 0.0278619)
(0.0386666 0.190866 0.0256693)
(-0.000258868 0.354461 -0.0185203)
(-0.0493736 0.360086 -0.0575017)
(0.000443746 0.282725 -0.0717803)
(0.00540863 0.0337927 0.0204981)
(0.00472666 0.0266043 0.0208843)
(0.0128209 0.0158293 0.0187064)
(0.0210306 -0.000333112 0.0131772)
(0.0413246 -0.0282161 0.0141631)
(0.0326031 -0.0150484 0.0270012)
(0.00888641 0.166634 0.029348)
(-0.00089014 0.376929 -0.0130328)
(-0.0462918 0.400601 -0.040343)
(-0.00524365 0.329061 -0.047187)
(0.00340469 0.00437397 0.0129112)
(0.00169854 0.000161916 0.0119588)
(3.65399e-05 -0.00787705 0.00984186)
(0.00101113 -0.0255647 0.0071654)
(0.00572797 -0.0553082 0.0104169)
(-0.0323536 -0.0401841 0.025786)
(-0.055387 0.150469 0.0354041)
(-0.0362593 0.384219 0.00274542)
(-0.0702752 0.428603 -0.0080471)
(-0.0302971 0.327336 -0.00234933)
(-0.000344979 -0.00891927 0.00711441)
(-0.00513198 -0.0127963 0.00704176)
(-0.0114309 -0.0193018 0.00595389)
(-0.0168568 -0.0319947 0.00388698)
(-0.0300145 -0.0558967 0.00325958)
(-0.082456 -0.0518048 0.0166689)
(-0.120028 0.106249 0.0468573)
(-0.092153 0.344683 0.0387936)
(-0.0913026 0.389078 0.0339778)
(-0.0404937 0.227662 0.0307238)
(0.000680726 -4.30428e-05 -0.00959161)
(0.000764466 -0.000199115 -0.00872687)
(0.00113354 -0.000363652 -0.00763806)
(0.00158811 -0.000442292 -0.00657044)
(0.00199173 -0.000406828 -0.00551962)
(0.00214009 -0.0003655 -0.00465395)
(0.00204362 -0.000361104 -0.00388309)
(0.00170556 -0.000624015 -0.00316684)
(0.00263706 -0.00098459 -0.00244967)
(0.00198439 0.00101112 -0.00316421)
(0.00146994 0.000631768 -0.012436)
(0.00260443 0.000983328 -0.0114768)
(0.0036874 0.00121374 -0.0101493)
(0.00434616 0.00156763 -0.00878725)
(0.00446216 0.00187462 -0.00738589)
(0.00407916 0.0019426 -0.00610894)
(0.00340128 0.00174673 -0.00505005)
(0.00259816 0.000799789 -0.00411967)
(0.00333024 -0.000417015 -0.00323348)
(0.00240114 0.00518029 -0.00386185)
(0.00144341 0.000739356 -0.0144748)
(0.00218645 0.00171464 -0.0134979)
(0.00279656 0.00234804 -0.0117581)
(0.00308844 0.00310269 -0.0100039)
(0.00282108 0.00371544 -0.00826319)
(0.00220173 0.00377959 -0.00662495)
(0.00154108 0.00318764 -0.00536147)
(0.00118793 0.000963822 -0.00431175)
(0.00286693 -0.00153734 -0.00312529)
(0.00275086 0.00906108 -0.00395345)
(0.00133559 0.00548316 -0.0166011)
(0.00201087 0.00726465 -0.0159228)
(0.00237206 0.00825782 -0.014221)
(0.00223925 0.00878702 -0.0121343)
(0.0011256 0.00868647 -0.00994753)
(-0.000374213 0.0076203 -0.00768329)
(-0.00172094 0.00471545 -0.00576953)
(-0.00263225 -0.000932611 -0.00318162)
(-0.00192706 -0.00527857 0.00169147)
(0.000428687 0.00980192 -0.000739382)
(0.000392381 0.00534051 -0.0170351)
(0.000520484 0.00737094 -0.0165669)
(-0.000280026 0.00865272 -0.0153182)
(-0.00206421 0.0100239 -0.0129032)
(-0.00455865 0.010437 -0.00924098)
(-0.00715651 0.00910467 -0.00550432)
(-0.00881544 0.00761901 -0.0016616)
(-0.0107809 0.00530256 0.00763498)
(-0.0174206 0.00418598 0.0205822)
(-0.0106076 0.0226598 0.00954547)
(-0.000951598 0.0288638 -0.0183689)
(0.00160298 0.0312622 -0.0177687)
(0.00276539 0.0331946 -0.0153404)
(0.00082214 0.0332583 -0.0103533)
(-0.00312522 0.0316714 -0.00462463)
(-0.00334915 0.02566 0.00184034)
(0.00189961 0.0125151 0.0117692)
(0.0123399 -0.00565528 0.0184806)
(-0.00363252 -0.0289134 0.00317241)
(-0.00849891 -0.0251496 -0.0127932)
(0.000954487 0.0372575 -0.0446123)
(0.00649 0.0365664 -0.0407465)
(0.010665 0.0356348 -0.0308562)
(0.0103602 0.0339447 -0.0164051)
(0.00594094 0.0251162 0.000563412)
(0.00347405 0.00472366 0.0138313)
(0.0264041 -0.00777878 0.0135079)
(0.0571398 0.0178418 -0.0187418)
(0.0596504 0.0644309 -0.11609)
(0.023701 0.0296734 -0.116586)
(0.00790788 0.0766395 -0.112124)
(0.0189109 0.074211 -0.106834)
(0.0321469 0.0724387 -0.0957951)
(0.0470657 0.0722998 -0.0799285)
(0.0752644 0.0665582 -0.0693131)
(0.147847 0.032254 -0.101705)
(0.292671 0.0251501 -0.187276)
(0.31821 0.0498563 -0.231546)
(0.22524 0.153629 -0.22746)
(0.0761413 0.177719 -0.2065)
(0.0151541 0.0728805 -0.254563)
(0.050273 0.0740769 -0.252658)
(0.0963074 0.0762754 -0.257744)
(0.182712 0.0694731 -0.300519)
(0.330956 0.0347076 -0.367935)
(0.343515 -0.0813297 -0.338909)
(0.111547 0.14511 -0.0461207)
(0.120381 0.273239 -0.0451873)
(0.0562592 0.380901 -0.095035)
(-0.00794475 0.417292 -0.0455698)
(0.0184688 0.163943 -0.25632)
(0.0659322 0.14879 -0.258297)
(0.107918 0.11195 -0.274631)
(0.118121 0.0364782 -0.260524)
(0.0894836 0.109753 -0.213814)
(-0.00795356 0.259687 -0.0299985)
(-0.127021 0.419251 0.162146)
(-0.0732692 0.414883 0.0924472)
(-0.0538313 0.458021 0.0117471)
(-0.0385503 0.457377 0.0428546)
(0.0132336 0.242138 -0.200811)
(0.035602 0.215531 -0.18459)
(0.0473472 0.184931 -0.145028)
(-0.00728844 0.163244 -0.0737326)
(-0.116802 0.258483 -0.0139591)
(-0.183473 0.428985 0.122417)
(-0.215462 0.446862 0.17862)
(-0.128554 0.372734 0.0918264)
(-0.0606997 0.396604 0.00174506)
(-0.0355656 0.391506 -0.00250358)
(0.00455569 0.216014 -0.0110008)
(0.010844 0.21001 0.00480236)
(-0.0113328 0.214225 0.0371209)
(-0.0931917 0.265886 0.0761055)
(-0.182128 0.380091 0.113354)
(-0.195156 0.453008 0.159835)
(-0.163342 0.381895 0.124614)
(-0.101247 0.290142 0.0550568)
(-0.0472534 0.305905 -0.0393545)
(-0.0200109 0.334658 -0.0679527)
(-0.00350141 0.246932 0.140936)
(0.0143498 0.26259 0.145845)
(-0.00465898 0.287634 0.154546)
(-0.0569599 0.332451 0.168379)
(-0.0984478 0.398312 0.186401)
(-0.0941622 0.413331 0.170353)
(-0.0433545 0.340581 0.0922666)
(-0.0465017 0.257086 0.0440389)
(-0.0435047 0.252178 -0.0500923)
(-0.00629713 0.304398 -0.0982416)
(-0.00706081 0.177345 0.195091)
(0.026678 0.208591 0.20021)
(0.0304435 0.241642 0.203683)
(0.0220041 0.266033 0.202173)
(0.0258878 0.309375 0.195616)
(0.043793 0.340053 0.153868)
(0.0730498 0.324434 0.0826642)
(0.0228836 0.275126 0.0373251)
(-0.0317951 0.243348 -0.0429043)
(0.00105053 0.287563 -0.107077)
(-0.00885393 0.0786856 0.153233)
(0.0104046 0.114584 0.16221)
(0.0214918 0.149734 0.166406)
(0.025357 0.164352 0.156063)
(0.0536348 0.19038 0.140349)
(0.0955901 0.237703 0.116788)
(0.124157 0.306136 0.074194)
(0.0693678 0.312779 0.0257159)
(-0.0137308 0.263034 -0.0344788)
(0.00834215 0.284217 -0.108815)
(-0.000354926 0.0534313 0.097831)
(-0.0179624 0.0760401 0.103648)
(-0.0119459 0.0952322 0.106043)
(0.00431576 0.0800316 0.0972489)
(0.04072 0.0655278 0.0873873)
(0.0891454 0.0948967 0.0955788)
(0.115854 0.264988 0.0767981)
(0.0787409 0.341374 0.0207418)
(0.00549728 0.287232 -0.0287832)
(0.0193138 0.296214 -0.101641)
(0.00681535 0.0377809 0.0788306)
(-0.00938609 0.0354407 0.0799667)
(0.00138256 0.0238106 0.0747411)
(0.0191065 0.00556767 0.0588586)
(0.0451043 -0.0103971 0.0543575)
(0.0710624 0.0279754 0.0775207)
(0.0843897 0.232304 0.0827955)
(0.0668992 0.356556 0.0266943)
(0.0166904 0.311615 -0.0220163)
(0.0265749 0.315583 -0.0858512)
(0.00760996 -0.00176589 0.0586669)
(0.00374045 -0.00697852 0.0553642)
(0.00075333 -0.0109664 0.0464132)
(0.00364379 -0.0310388 0.0360457)
(0.0131858 -0.0483353 0.0425243)
(0.0188483 0.0154048 0.0644256)
(0.0377523 0.224616 0.0690459)
(0.0521254 0.366451 0.030511)
(0.0186725 0.331917 -0.00702047)
(0.0304438 0.339732 -0.0559341)
(0.00322294 -0.0124062 0.033681)
(-0.00516233 -0.015859 0.0331065)
(-0.0135065 -0.0253137 0.028883)
(-0.0186733 -0.0478249 0.0242884)
(-0.0331992 -0.0597493 0.0369907)
(-0.0500323 0.0185339 0.0631445)
(-0.0229703 0.2202 0.0622424)
(0.0399564 0.380172 0.0346955)
(0.00208865 0.361116 0.0184289)
(0.0167843 0.372291 -0.00465204)
(-0.000435897 -0.0197616 0.0213945)
(-0.0104512 -0.0226968 0.0226508)
(-0.0232896 -0.0286606 0.020364)
(-0.0387027 -0.0450499 0.0170104)
(-0.0734855 -0.0541872 0.0267476)
(-0.113589 0.0228428 0.0636254)
(-0.0926704 0.217481 0.0860238)
(-0.0110575 0.404136 0.0668554)
(-0.0486041 0.413499 0.059427)
(-0.0248371 0.335932 0.0517927)
(0.00124729 -0.00136699 -0.00731936)
(0.00171385 -0.00125555 -0.00729668)
(0.00226345 -0.00117338 -0.00678304)
(0.0030236 -0.00102064 -0.0061715)
(0.00362325 -0.000763079 -0.00543663)
(0.00377662 -0.000505244 -0.0045646)
(0.00352116 -0.00033448 -0.00363944)
(0.0028795 -0.00045752 -0.00253229)
(0.00335567 -0.000672479 -0.00131543)
(0.00219851 0.00128863 -0.00313089)
(0.00228959 -0.00402047 -0.0108066)
(0.00429136 -0.00256772 -0.0110272)
(0.00565365 -0.00121293 -0.010619)
(0.00651416 -6.90135e-05 -0.00959268)
(0.00677335 0.000964877 -0.0083187)
(0.0063333 0.00174441 -0.00688005)
(0.00539901 0.00206872 -0.00539976)
(0.00416043 0.00150951 -0.00384675)
(0.00424772 0.000611568 -0.00229529)
(0.00265599 0.00599327 -0.00403061)
(0.00214122 -0.00796846 -0.0138984)
(0.00407512 -0.00495671 -0.0137226)
(0.00535998 -0.00228665 -0.0130791)
(0.00596089 0.000146944 -0.0115121)
(0.00601425 0.00212259 -0.00958875)
(0.00535852 0.00346998 -0.00740546)
(0.00428696 0.00385792 -0.00532843)
(0.0033006 0.00240969 -0.00333218)
(0.00423245 0.000423803 -0.0012954)
(0.00313451 0.0101984 -0.00389014)
(0.00226179 -0.00800223 -0.0185326)
(0.00475081 -0.0036801 -0.0178336)
(0.0065947 -3.11368e-05 -0.0168288)
(0.00706883 0.00298886 -0.0146086)
(0.00634418 0.00555385 -0.0118146)
(0.00479012 0.00720223 -0.00868645)
(0.00282259 0.00615119 -0.0057064)
(0.00143232 0.00157958 -0.00185539)
(0.00260908 -0.00206021 0.00287471)
(0.00283628 0.0127278 -0.0031043)
(0.00216234 -0.0100213 -0.0271514)
(0.004491 -0.00572421 -0.0258441)
(0.00582138 -0.000680674 -0.0243542)
(0.00569961 0.00418897 -0.0207832)
(0.00404793 0.00752425 -0.0156173)
(0.000399287 0.00862804 -0.00935867)
(-0.00394199 0.00756141 -0.00169544)
(-0.00700567 0.00362508 0.00897788)
(-0.0092359 0.00322838 0.0167136)
(-0.00418734 0.0236348 9.57659e-05)
(0.00107922 0.00378328 -0.0356323)
(0.0027199 0.00742538 -0.0328203)
(0.00385867 0.0130865 -0.02782)
(0.00274422 0.0188539 -0.0214466)
(-0.000181622 0.0252698 -0.0146239)
(-0.00250324 0.0278915 -0.00559261)
(-0.00327088 0.0201511 0.00513658)
(-0.00580436 0.00274086 0.00893034)
(-0.0199675 -0.0103743 -0.00671934)
(-0.0125322 -0.000674511 -0.0230555)
(0.00370246 0.0184618 -0.0760371)
(0.00489703 0.0195077 -0.069534)
(0.00857382 0.0247789 -0.0568134)
(0.0117499 0.0302548 -0.0430266)
(0.0113634 0.0268023 -0.0294566)
(0.0126758 0.0135258 -0.0166613)
(0.024706 0.00490361 -0.0221405)
(0.0453385 0.00470483 -0.0578028)
(0.023382 0.0046074 -0.101402)
(-0.000203032 -0.0258673 -0.0714333)
(0.0137519 0.0429356 -0.137332)
(0.0258109 0.0423025 -0.134463)
(0.0405458 0.042657 -0.129806)
(0.0614337 0.0494079 -0.122904)
(0.09461 0.057885 -0.118923)
(0.152435 0.0476597 -0.152499)
(0.239532 0.0271518 -0.227736)
(0.335429 0.0240054 -0.315526)
(0.318519 0.0113033 -0.341296)
(0.137686 0.00521766 -0.353515)
(0.0182785 -0.0132018 -0.316066)
(0.0609687 -0.00698869 -0.315328)
(0.113426 -0.00130017 -0.324619)
(0.194099 0.00147478 -0.348873)
(0.321442 0.00495415 -0.387111)
(0.384185 -0.0561966 -0.40572)
(0.265998 -0.126061 -0.294251)
(0.186778 0.0487461 -0.168672)
(0.113394 0.206134 -0.126652)
(0.0159114 0.315337 -0.180973)
(0.0129129 0.0210544 -0.268014)
(0.0581454 0.000375026 -0.242806)
(0.0758965 -0.0524332 -0.253634)
(0.043985 -0.16601 -0.219133)
(-0.0393993 -0.109117 -0.194645)
(-0.0222755 0.105411 -0.172776)
(-0.0297685 0.2589 -0.0255231)
(-0.0108385 0.289684 0.0187313)
(-0.035176 0.357891 0.0112314)
(-0.0525855 0.444723 -0.0457644)
(0.00224113 -0.064796 -0.193154)
(0.017689 -0.078245 -0.186443)
(0.0183068 -0.0712473 -0.165228)
(-0.0223082 -0.0519165 -0.125936)
(-0.114934 -0.0302765 -0.114014)
(-0.14784 0.0986333 -0.0486464)
(-0.110207 0.218146 0.0496897)
(-0.0567698 0.226704 0.0423008)
(-0.0437 0.304088 0.0268931)
(-0.0493566 0.43921 -0.0153385)
(-0.0112345 -0.203315 -0.0884438)
(0.010538 -0.174776 -0.0720448)
(0.00366685 -0.132703 -0.044284)
(-0.0274684 -0.0778214 0.00114883)
(-0.101354 0.0278546 0.0472521)
(-0.137035 0.114709 0.0791)
(-0.0962258 0.141363 0.0832697)
(-0.0613257 0.150046 0.0517199)
(-0.03629 0.197431 -0.00251069)
(-0.0214935 0.382658 -0.0439945)
(-0.0222897 -0.149519 0.0741085)
(-0.0016012 -0.0972932 0.104496)
(-0.00709308 -0.0344394 0.137515)
(-0.0263539 0.0332901 0.173239)
(-0.0394414 0.110419 0.19102)
(-0.0312736 0.148176 0.161425)
(-0.0334497 0.1311 0.104704)
(-0.0537549 0.119959 0.0615497)
(-0.0386597 0.125687 -0.0362105)
(0.00349764 0.325465 -0.0727239)
(-0.0242611 -0.131581 0.146015)
(-0.0213865 -0.0829405 0.178811)
(-0.0185643 -0.0289562 0.206242)
(-0.00325187 0.0199745 0.224791)
(0.0323484 0.0859269 0.229988)
(0.0724571 0.146218 0.192864)
(0.0486942 0.155862 0.124051)
(-0.00526722 0.121553 0.0715125)
(-0.0212878 0.103181 -0.0415835)
(0.0167422 0.280777 -0.0879288)
(-0.0132364 -0.0896624 0.142438)
(-0.037775 -0.0559982 0.167519)
(-0.037467 -0.02022 0.181788)
(-0.0193462 0.00228747 0.183937)
(0.0229709 0.0219705 0.182133)
(0.0822908 0.0866685 0.180579)
(0.0830194 0.173804 0.134552)
(0.0369732 0.147668 0.0724328)
(-0.00338544 0.128918 -0.0295648)
(0.0202783 0.259419 -0.0968759)
(0.00302118 -0.0421828 0.126914)
(-0.0273909 -0.0324721 0.137806)
(-0.0277685 -0.0254954 0.135552)
(-0.00990279 -0.0285444 0.12251)
(0.0176718 -0.0250631 0.111081)
(0.0507264 0.0381202 0.130428)
(0.0730906 0.192049 0.131154)
(0.0384613 0.187563 0.0538157)
(-0.00944682 0.175893 -0.045546)
(0.0170993 0.261627 -0.0955881)
(0.00684192 -0.0314828 0.11171)
(-0.00537159 -0.0361752 0.108094)
(-0.0075356 -0.0386768 0.0947238)
(-0.00502492 -0.0421915 0.0770446)
(0.00584948 -0.0342184 0.0650595)
(0.0153484 0.0529849 0.0643691)
(0.0482661 0.220477 0.108682)
(0.0218687 0.243282 0.01957)
(-0.0270184 0.226898 -0.07148)
(0.00601053 0.251324 -0.0878097)
(0.00654851 -0.0352753 0.0735048)
(-0.00100944 -0.0339981 0.0710132)
(-0.0123575 -0.0347199 0.0620879)
(-0.016005 -0.0505372 0.0536943)
(-0.0178791 -0.0408626 0.0463653)
(-0.0103371 0.0655325 0.0284938)
(0.0297219 0.250559 0.052979)
(0.0190838 0.299137 -0.0185741)
(-0.0312971 0.278936 -0.0700777)
(-0.00259732 0.236568 -0.0566575)
(0.00240398 -0.0267603 0.044833)
(-0.00745615 -0.0285291 0.0476833)
(-0.0191243 -0.0358729 0.0444275)
(-0.0295646 -0.0531696 0.0418696)
(-0.0471257 -0.0465023 0.0421904)
(-0.0420033 0.0629524 0.0284812)
(0.0133359 0.259627 -0.000955074)
(0.0273616 0.332588 -0.0457862)
(-0.0331199 0.317528 -0.0357213)
(-0.0123205 0.228771 0.0228665)
(-0.000136781 -0.0262084 0.0307622)
(-0.00994969 -0.0272105 0.0358162)
(-0.0251033 -0.031693 0.0343494)
(-0.0431115 -0.0456569 0.0349388)
(-0.0770892 -0.0455667 0.0421584)
(-0.0909451 0.0516215 0.0475924)
(-0.0322746 0.246071 0.0145715)
(0.00694173 0.352555 -0.0123467)
(-0.0624428 0.328922 0.0503927)
(-0.0359551 0.174493 0.108179)
(0.00125299 -0.00111231 -0.00530155)
(0.00217892 -0.00114256 -0.00553461)
(0.00333324 -0.00125187 -0.00618577)
(0.00430531 -0.00116564 -0.00634836)
(0.00507113 -0.000898345 -0.00596772)
(0.0052627 -0.000587833 -0.00526589)
(0.00487684 -0.00030444 -0.00428359)
(0.00402685 -0.0003367 -0.00287225)
(0.00411017 -0.000453928 -0.00137839)
(0.00245321 0.00150049 -0.00388176)
(0.00209115 -0.00465301 -0.0103627)
(0.00446581 -0.00380181 -0.0109853)
(0.00696622 -0.00260747 -0.0111262)
(0.00837671 -0.00112497 -0.0108282)
(0.00885468 0.000215365 -0.00984494)
(0.00846482 0.00141818 -0.00836177)
(0.00735474 0.00219998 -0.0066808)
(0.00571536 0.00198113 -0.00472209)
(0.00520374 0.0014578 -0.00270327)
(0.00296868 0.0066696 -0.00499357)
(0.00242957 -0.00867946 -0.0140178)
(0.00470005 -0.00766189 -0.0147062)
(0.00719629 -0.00473675 -0.014045)
(0.00861187 -0.00153841 -0.0129977)
(0.0089743 0.00108899 -0.0112801)
(0.0083901 0.00317873 -0.00897761)
(0.00702257 0.00427543 -0.00649012)
(0.00542151 0.00362568 -0.00378179)
(0.0054 0.00257115 -0.000974709)
(0.00337973 0.0116133 -0.00435222)
(0.00349318 -0.00834179 -0.0206303)
(0.00660263 -0.00913806 -0.020218)
(0.00933395 -0.0052123 -0.0189174)
(0.0109099 -0.000776779 -0.0169003)
(0.0108486 0.0031988 -0.0141927)
(0.00945053 0.00676968 -0.010708)
(0.00729722 0.00800027 -0.00710066)
(0.00533305 0.00551162 -0.00251406)
(0.00545813 0.0030733 0.00261207)
(0.00373205 0.0166228 -0.00324864)
(0.00604551 -0.00852115 -0.0328177)
(0.00982298 -0.0115442 -0.030227)
(0.0121775 -0.00637396 -0.0282839)
(0.0138187 0.000425829 -0.0249891)
(0.0135279 0.00577161 -0.020336)
(0.0105418 0.00894553 -0.0137972)
(0.00511205 0.00978902 -0.00444259)
(0.000537114 0.00706779 0.00746176)
(-0.000710276 0.00607651 0.0150224)
(7.26854e-05 0.0226808 -0.00132423)
(0.00850624 -0.00612088 -0.0476946)
(0.012067 -0.00993441 -0.042891)
(0.0138515 -0.004357 -0.0378365)
(0.0150101 0.00462648 -0.0315281)
(0.0125979 0.0155157 -0.0238809)
(0.0077409 0.0289955 -0.0124822)
(0.00192535 0.0328753 0.00155991)
(-0.00540335 0.0214553 0.0121055)
(-0.017005 0.00896715 0.00851679)
(-0.0108545 0.0147477 -0.0155968)
(0.0135449 -0.000136008 -0.0879498)
(0.0163624 -0.00173218 -0.0794352)
(0.0180158 0.00728906 -0.0688373)
(0.023703 0.0208368 -0.0566628)
(0.0233897 0.0274906 -0.0419)
(0.0225748 0.0235805 -0.0271927)
(0.0259844 0.0166365 -0.0230256)
(0.0275042 0.00807011 -0.0360103)
(-0.00142205 -0.010923 -0.0517292)
(-0.00719405 -0.0273939 -0.0327407)
(0.0201156 -0.00322249 -0.135988)
(0.0389662 -0.00204181 -0.131)
(0.0515638 0.00318663 -0.126079)
(0.0707323 0.0165776 -0.122808)
(0.100979 0.0341077 -0.124754)
(0.146749 0.0428237 -0.141885)
(0.199014 0.0339099 -0.188772)
(0.258365 0.0219678 -0.266055)
(0.250181 0.00840749 -0.337698)
(0.146613 -0.000870539 -0.346375)
(0.0189566 -0.0793652 -0.279167)
(0.0656112 -0.07148 -0.277273)
(0.117269 -0.0650058 -0.285617)
(0.191178 -0.0671567 -0.308215)
(0.305817 -0.0485865 -0.350973)
(0.39708 -0.0514216 -0.383775)
(0.362088 -0.114366 -0.353988)
(0.304245 -0.105425 -0.261888)
(0.177722 0.079114 -0.146852)
(0.153259 0.1902 -0.270749)
(0.0125408 -0.200442 -0.304594)
(0.037654 -0.207296 -0.234598)
(0.0309126 -0.21683 -0.201302)
(0.0122131 -0.264769 -0.150468)
(-0.039503 -0.21488 -0.114271)
(-0.0680279 -0.0365982 -0.0662939)
(-0.0453515 0.0460583 0.00380638)
(0.0272298 0.202861 0.0262407)
(-0.0115319 0.32493 0.0568678)
(0.0677667 0.414932 -0.141012)
(-0.0024146 -0.109653 -0.093407)
(-0.0120466 -0.140625 -0.0825374)
(-0.0271401 -0.176539 -0.071189)
(-0.0423303 -0.198041 -0.0442805)
(-0.0726485 -0.200684 -0.0010232)
(-0.109732 -0.150374 0.0412274)
(-0.106857 -0.119289 0.0762508)
(-0.0388464 -0.0215756 0.0939305)
(-0.0400484 0.263575 0.110747)
(-0.00266212 0.472006 -0.0620999)
(-0.00839864 -0.270234 -0.0615514)
(-0.012201 -0.273891 -0.0456594)
(-0.0220087 -0.277974 -0.0146)
(-0.0217913 -0.270408 0.0238137)
(-0.0322938 -0.209933 0.0685008)
(-0.0548216 -0.125147 0.102675)
(-0.0834057 -0.0982106 0.106322)
(-0.0634087 -0.0500561 0.102221)
(-0.0522033 0.153001 0.0758378)
(-0.0387938 0.429173 -0.034383)
(-0.0137837 -0.239137 0.012285)
(-0.0225278 -0.226658 0.0487128)
(-0.0351291 -0.215358 0.0828701)
(-0.0324869 -0.193255 0.120475)
(-0.0222318 -0.150124 0.157041)
(-0.00690626 -0.0802937 0.169919)
(-0.0548315 -0.0735197 0.125075)
(-0.0635992 -0.0638357 0.0740194)
(-0.0542206 0.102011 -0.0281441)
(-0.036691 0.357197 -0.0337153)
(-0.0102636 -0.199322 0.0840947)
(-0.029167 -0.188021 0.125236)
(-0.047318 -0.177917 0.147442)
(-0.0387315 -0.16077 0.168494)
(-0.0191629 -0.124934 0.184983)
(0.0170103 -0.0445715 0.197448)
(-0.0308625 -0.0186262 0.125034)
(-0.0706632 -0.0187452 0.0299938)
(-0.0597404 0.108254 -0.0896251)
(-0.0184759 0.283034 -0.0560887)
(-0.000585007 -0.132215 0.113353)
(-0.0219186 -0.131004 0.143451)
(-0.0426322 -0.124826 0.146243)
(-0.0401055 -0.114999 0.14441)
(-0.0327497 -0.0922467 0.145052)
(-0.0107297 -0.0169801 0.16414)
(-0.0473638 0.0505698 0.0978758)
(-0.100078 0.0561577 -0.0159933)
(-0.0692216 0.141689 -0.106469)
(-0.00571674 0.225729 -0.0857787)
(0.00588345 -0.0830975 0.119965)
(-0.0085489 -0.0912563 0.13072)
(-0.0251603 -0.0896721 0.119897)
(-0.0299667 -0.0845007 0.105306)
(-0.0361116 -0.0526309 0.0890102)
(-0.0418834 0.051604 0.0924828)
(-0.0662909 0.117744 0.0651594)
(-0.124686 0.102317 -0.0502832)
(-0.0803883 0.147095 -0.112638)
(-0.0115114 0.17691 -0.0868749)
(0.00582984 -0.0650169 0.104756)
(-0.0032477 -0.0686473 0.103341)
(-0.0180162 -0.0650159 0.090394)
(-0.0284084 -0.0652092 0.077636)
(-0.0385012 -0.0374232 0.0573611)
(-0.0422095 0.0846044 0.0330414)
(-0.0475507 0.184805 0.0345799)
(-0.111035 0.135015 -0.0502986)
(-0.0875413 0.106164 -0.108985)
(-0.0295016 0.102549 -0.0833945)
(0.0043723 -0.0528371 0.064214)
(-0.00385864 -0.0500445 0.0733603)
(-0.0192138 -0.0512978 0.0671913)
(-0.0279474 -0.0585671 0.0611668)
(-0.0377437 -0.041626 0.0468197)
(-0.0327392 0.0646842 0.0148336)
(0.00169349 0.22336 0.00217486)
(-0.0500404 0.176486 -0.0242082)
(-0.0776255 0.0887723 -0.0519421)
(-0.0318685 0.0337337 -0.0432536)
(0.00123127 -0.0408628 0.043857)
(-0.00548349 -0.0414586 0.0566401)
(-0.0206271 -0.0450458 0.0533489)
(-0.0313453 -0.0535397 0.0517126)
(-0.0452438 -0.0493982 0.0471679)
(-0.0405141 0.0273752 0.0303265)
(0.0182419 0.190463 0.0005431)
(-9.03047e-05 0.193077 0.00773263)
(-0.0720833 0.0984804 0.0315839)
(-0.0295227 -0.000830518 0.0449039)
(-0.000641187 -0.0338952 0.0308667)
(-0.00596858 -0.0348767 0.0460577)
(-0.0236821 -0.037423 0.0439725)
(-0.0379564 -0.0444098 0.0462429)
(-0.0607512 -0.0486297 0.0514403)
(-0.0718633 0.000210883 0.0596727)
(-0.0269808 0.131843 0.0495054)
(-0.0138361 0.190368 0.0595784)
(-0.0793138 0.115332 0.111265)
(-0.0208777 -0.0290583 0.106173)
(0.000665259 -0.000436564 -0.00405487)
(0.00117213 -0.000864408 -0.00488585)
(0.00297396 -0.00115938 -0.00540928)
(0.00454096 -0.00140388 -0.005823)
(0.00576009 -0.00129726 -0.00584734)
(0.00614833 -0.00089602 -0.00524848)
(0.00591804 -0.000537149 -0.00435171)
(0.0049822 -0.000507825 -0.00285375)
(0.00484925 -0.000406513 -0.00121182)
(0.00280367 0.00168239 -0.0043306)
(0.00198743 -0.00421867 -0.00829285)
(0.00324329 -0.00508012 -0.00992687)
(0.00671107 -0.00477426 -0.01131)
(0.0091626 -0.00339155 -0.011276)
(0.0102938 -0.00162079 -0.0106263)
(0.0101693 0.000142232 -0.00915471)
(0.00904186 0.00146227 -0.00749471)
(0.00722654 0.00168539 -0.00534762)
(0.00631184 0.00178756 -0.0030273)
(0.0034187 0.00725177 -0.00572052)
(0.00470172 -0.00854103 -0.014676)
(0.00550343 -0.0110186 -0.0135996)
(0.00804462 -0.00934256 -0.0144343)
(0.0103454 -0.00571236 -0.0135961)
(0.0112607 -0.00195358 -0.0121781)
(0.0109741 0.00110902 -0.00997905)
(0.00957746 0.00306981 -0.00741078)
(0.00765005 0.00322677 -0.00435364)
(0.00677836 0.00330456 -0.00107875)
(0.00377167 0.0127755 -0.00477756)
(0.00845597 -0.00670977 -0.0254435)
(0.00927648 -0.0138191 -0.0200869)
(0.0113519 -0.0124779 -0.0198494)
(0.0139222 -0.00758356 -0.0182964)
(0.0143917 -0.00219719 -0.0158249)
(0.0133534 0.00307784 -0.0124348)
(0.0110739 0.00667327 -0.00857968)
(0.00866114 0.00658888 -0.00386238)
(0.00764819 0.00641138 0.00171115)
(0.00455341 0.0199022 -0.00368702)
(0.0125914 -0.00771339 -0.0396495)
(0.0153473 -0.017894 -0.0299661)
(0.0164656 -0.0164818 -0.0283195)
(0.0189109 -0.00839885 -0.0262415)
(0.0198571 0.000251819 -0.0227615)
(0.0185231 0.00587829 -0.0174919)
(0.0138391 0.00850545 -0.00918944)
(0.00815252 0.00776594 0.00277516)
(0.00418273 0.00778686 0.0122156)
(0.00158907 0.0240474 -0.00107514)
(0.0169194 -0.0125481 -0.0596729)
(0.0240646 -0.0233411 -0.0465896)
(0.0245392 -0.0219706 -0.0424117)
(0.0269605 -0.0120474 -0.0377593)
(0.0255579 -0.000339337 -0.0307356)
(0.0206172 0.0148338 -0.0197622)
(0.0127038 0.0298827 -0.00435166)
(0.00337516 0.0306793 0.0104361)
(-0.00669244 0.0260843 0.012874)
(-0.00610348 0.0322893 -0.0130442)
(0.0215161 -0.0237384 -0.0950645)
(0.0325307 -0.0277941 -0.0780651)
(0.0316051 -0.0209806 -0.0699414)
(0.0381812 -0.00337375 -0.0640439)
(0.04258 0.0185492 -0.0538742)
(0.0380387 0.0281325 -0.0351178)
(0.0311486 0.0256371 -0.0194979)
(0.0205467 0.0184703 -0.0135925)
(-0.0116101 0.00524417 -0.00789138)
(-0.0137295 -0.00371941 -0.00781448)
(0.0231843 -0.0440262 -0.125125)
(0.0472795 -0.0416562 -0.113694)