/*--------------------------------*- C++ -*----------------------------------*\
| =========                 |                                                 |
| \\      /  F ield         | OpenFOAM: The Open Source CFD Toolbox           |
|  \\    /   O peration     | Version:  2312                                  |
|   \\  /    A nd           | Website:  www.openfoam.com                      |
|    \\/     M anipulation  |                                                 |
\*---------------------------------------------------------------------------*/
FoamFile
{
    version     2.0;
    format      ascii;
    arch        "LSB;label=32;scalar=64";
    class       surfaceScalarField;
    location    "0.785";
    object      alphaPhi0.water;
}
// * * * * * * * * * * * * * * * * * * * * * * * * * * * * * * * * * * * * * //

dimensions      [0 3 -1 0 0 0 0];

oriented        oriented;

internalField   nonuniform List<scalar> 
22600
(
6.56027e-08
4.96982e-09
3.71887e-08
1.86174e-08
2.19747e-09
4.47878e-08
-3.00408e-08
-9.92604e-09
5.85842e-08
-7.70233e-08
-2.67958e-08
7.37783e-08
-1.13828e-07
-4.89292e-08
8.57338e-08
-1.32503e-07
-7.6396e-08
9.50708e-08
-1.29199e-07
-1.0441e-07
1.01107e-07
-8.94379e-08
-1.43197e-07
1.03436e-07
-3.96704e-08
-1.62081e-07
1.12313e-07
-1.59584e-07
1.19914e-07
7.97102e-08
1.54185e-09
3.687e-08
4.1969e-08
2.04615e-09
3.78925e-08
8.97525e-09
-2.18459e-08
4.49136e-08
-1.73056e-08
-5.68096e-08
5.62945e-08
-3.99191e-08
-9.45288e-08
6.8213e-08
-5.43195e-08
-1.38322e-07
7.63264e-08
-5.58781e-08
-1.78377e-07
7.55252e-08
-3.18279e-08
-2.33859e-07
6.66117e-08
-4.38736e-09
-2.685e-07
7.89789e-08
-2.54915e-07
9.09442e-08
6.88164e-08
-6.06583e-08
1.0625e-07
1.37676e-08
-3.25082e-08
8.9603e-08
-2.98125e-08
-6.44544e-08
8.61884e-08
-6.49184e-08
-1.12505e-07
9.08014e-08
-9.39258e-08
-1.59425e-07
9.39034e-08
-1.18322e-07
-2.05436e-07
9.15107e-08
-1.26319e-07
-2.49993e-07
7.96134e-08
-1.01308e-07
-3.4606e-07
8.71905e-08
-5.61717e-08
-4.7615e-07
1.62513e-07
-4.71417e-07
1.6033e-07
1.08309e-07
-3.58474e-07
3.08258e-07
1.82351e-08
-1.90034e-07
2.476e-07
-5.65317e-08
-1.93016e-07
2.03328e-07
-1.24264e-07
-2.21169e-07
1.76396e-07
-1.88159e-07
-2.45093e-07
1.49563e-07
-2.24982e-07
-2.93785e-07
1.25172e-07
-2.26441e-07
-3.85793e-07
1.3726e-07
-2.44558e-07
-5.95398e-07
2.67455e-07
-2.00998e-07
-1.00799e-06
4.88278e-07
-1.01608e-06
3.43667e-07
1.30279e-07
-1.03543e-06
6.01574e-07
9.0373e-08
-6.8484e-07
5.34712e-07
1.40183e-08
-6.06976e-07
4.90315e-07
-5.54401e-08
-5.77661e-07
4.2595e-07
-1.20489e-07
-5.11104e-07
3.3106e-07
-1.93268e-07
-4.82189e-07
2.61183e-07
-3.47964e-07
-5.67184e-07
3.36086e-07
-5.89014e-07
-9.98031e-07
6.43683e-07
-5.29605e-07
-2.05286e-06
9.87111e-07
-2.34116e-06
8.09481e-07
-2.78441e-07
-1.44243e-06
5.40659e-07
-1.95453e-07
-1.24718e-06
4.79358e-07
-1.11136e-07
-1.24794e-06
5.56661e-07
2.99818e-08
-1.34944e-06
6.3068e-07
7.09538e-08
-1.16116e-06
6.09095e-07
-1.17404e-07
-8.46032e-07
5.52202e-07
-4.97256e-07
-8.88263e-07
7.00931e-07
-7.33251e-07
-1.80423e-06
1.0422e-06
-6.67854e-07
-3.43012e-06
1.32183e-06
-4.12363e-06
1.11289e-06
-4.74991e-07
-9.94717e-07
-6.38475e-08
-5.39899e-07
-1.09146e-06
-6.73693e-08
-5.1513e-07
-1.37402e-06
2.08295e-07
-3.30256e-07
-1.94266e-06
5.0532e-07
-1.92063e-07
-2.07416e-06
7.99171e-07
-3.56389e-07
-1.60893e-06
9.25232e-07
-6.44077e-07
-1.72269e-06
1.12215e-06
-6.90718e-07
-3.17611e-06
1.41867e-06
-7.56847e-07
-4.72127e-06
1.35934e-06
-5.3528e-06
4.70585e-07
-4.80634e-07
6.52275e-07
-1.48885e-06
-4.65471e-07
2.84053e-07
-1.4521e-06
-2.55447e-07
-2.00975e-07
-1.30441e-06
-5.85859e-08
-1.23924e-06
-8.45601e-07
1.57419e-07
-2.05969e-06
-1.62368e-07
8.53751e-08
-2.1503e-06
5.88546e-07
1.39608e-09
-2.63892e-06
9.42023e-07
-2.52729e-07
-4.13718e-06
1.21581e-06
-8.01434e-07
-5.55142e-06
1.37608e-06
-5.701e-06
-4.61076e-07
-8.53046e-07
9.16448e-07
-6.24023e-07
-7.19736e-07
6.59773e-07
-6.33244e-07
-4.55232e-07
5.13325e-07
-7.51223e-07
-3.14205e-07
2.52176e-07
-8.75644e-07
-1.59369e-07
5.22382e-09
-1.15623e-06
1.16057e-07
-5.68249e-07
-1.43937e-06
4.68768e-07
-1.57246e-06
-1.08025e-06
3.2137e-07
-3.55426e-06
-3.22371e-07
-6.20506e-07
-5.58809e-06
9.77793e-07
-5.39742e-06
-9.17155e-07
-5.63351e-07
-4.64434e-09
6.62034e-08
-6.20137e-07
1.73023e-08
-2.49518e-08
-6.89216e-07
6.48044e-09
2.43293e-07
-7.56214e-07
-6.12971e-08
2.33702e-07
-7.47446e-07
-2.82077e-07
3.80963e-07
-7.63425e-07
-4.42458e-07
3.87599e-07
-2.69395e-07
-1.08801e-06
2.65608e-08
2.70826e-07
-2.81406e-06
2.54612e-08
-4.93553e-07
-5.55296e-06
7.33437e-07
-5.40914e-06
-4.52547e-07
-4.12264e-08
-1.66818e-09
-1.49334e-09
-1.626e-08
4.4241e-10
-1.06e-09
-4.34195e-08
-1.16931e-09
-1.19567e-09
-5.4786e-08
8.56003e-11
-2.73248e-10
-1.5227e-07
-1.90432e-09
5.18835e-09
-2.06349e-07
-1.80861e-08
3.07749e-08
-1.41948e-07
-1.22805e-07
9.50033e-08
-3.35199e-07
-9.34043e-07
2.90688e-07
-1.79384e-07
-4.99821e-06
4.28565e-07
-5.15277e-06
-2.85339e-07
-2.14207e-09
-4.58536e-10
-5.0353e-10
-8.20114e-10
-1.27069e-11
-2.88533e-10
-8.26668e-10
-3.29579e-11
-3.67202e-10
-2.75134e-10
-2.18319e-12
-2.12156e-10
-2.09188e-09
2.82894e-12
-1.97968e-11
-1.9717e-08
-3.26666e-10
-1.86283e-11
-1.35099e-07
-7.40125e-09
-3.59664e-11
-3.36395e-07
-6.78195e-08
-1.49943e-11
-2.56298e-07
-2.28108e-06
-3.88631e-12
-5.07496e-06
-2.33917e-08
-3.26335e-10
7.94482e-11
-1.34484e-10
-1.40376e-10
2.28729e-11
-5.51055e-11
-7.4374e-11
2.18624e-11
-4.12309e-11
-2.98809e-11
2.74887e-11
-1.90284e-11
-4.17918e-11
3.19172e-11
-6.50782e-12
-3.79798e-10
5.70724e-11
-1.44531e-11
-7.64436e-09
-8.7385e-11
-4.59696e-11
-7.15617e-08
-3.87354e-09
-3.52331e-11
-5.56979e-07
-4.09351e-07
-1.64742e-11
-1.65537e-06
5.80223e-07
-6.2611e-11
1.35621e-10
3.79193e-11
-4.22127e-11
3.42249e-11
-5.38028e-12
-2.81858e-11
1.50712e-11
-6.83507e-12
-1.77316e-11
3.25351e-11
-6.83406e-12
-2.60231e-11
4.4018e-11
-4.2333e-12
-7.40815e-11
1.10154e-10
-6.67326e-12
-1.51385e-10
7.04674e-12
-1.74692e-11
-3.95558e-09
-8.32733e-10
-2.21414e-11
5.76518e-09
-3.39374e-09
-5.93211e-12
-5.52349e-09
1.20216e-08
-1.34414e-11
7.75649e-11
1.09226e-10
-1.65281e-11
2.78133e-11
1.24935e-11
-2.10733e-11
2.2683e-11
-7.2894e-13
-1.09005e-10
1.20354e-10
-1.26713e-12
-2.17308e-09
7.7473e-10
-9.00148e-12
-5.08064e-09
2.41531e-09
-9.95812e-11
-1.09671e-09
1.004e-09
-7.70794e-11
3.26639e-09
-3.22906e-11
-1.64389e-10
8.03872e-11
-2.06008e-10
-1.65178e-11
-8.20073e-10
-8.90959e-09
-4.50385e-12
1.60989e-11
6.16383e-11
-9.36012e-12
1.0621e-11
2.20687e-11
-1.05718e-11
2.0659e-11
5.22285e-12
5.93299e-12
8.97496e-11
1.08804e-11
-2.09395e-09
7.22127e-10
7.31075e-12
-1.85756e-09
4.07159e-10
-3.39791e-10
6.39366e-10
2.88055e-11
-9.9862e-10
2.60407e-10
-1.06541e-11
-3.02553e-10
-6.72771e-11
3.40928e-11
-1.33363e-11
1.02183e-11
4.57579e-11
-1.98294e-12
4.39782e-12
1.16197e-11
-2.75438e-12
4.02774e-12
7.15391e-12
-2.50403e-12
1.15025e-11
8.16739e-12
-2.09948e-10
6.83643e-11
2.68004e-11
-4.46822e-10
7.1862e-11
4.82223e-11
-7.50801e-11
-1.67414e-11
-3.24938e-11
8.54442e-11
-5.08752e-11
-2.52598e-10
1.21459e-10
-4.07619e-12
-1.24651e-10
1.54091e-10
2.79472e-11
-1.67862e-11
2.11141e-11
1.51726e-10
-3.74774e-13
2.49628e-12
1.89111e-12
-2.76386e-13
1.90714e-12
1.94629e-12
-3.43269e-12
6.70762e-12
7.55685e-12
-1.376e-11
1.92882e-11
1.26536e-11
-1.75591e-11
4.24029e-11
2.22647e-11
-2.12044e-11
-1.70301e-11
-3.0027e-10
1.53959e-10
-5.73761e-12
-4.60923e-10
2.3632e-11
1.45542e-10
-1.99594e-10
1.75472e-11
3.79354e-11
-9.87732e-13
8.52166e-12
3.42274e-11
9.47605e-13
1.88539e-12
9.03681e-13
6.94562e-14
1.97021e-12
7.5958e-13
-4.39962e-12
8.70161e-12
2.37435e-12
-8.28457e-12
1.61589e-11
6.5481e-12
-3.33176e-10
1.00687e-10
-4.24628e-12
9.89133e-12
1.5968e-11
-4.74603e-10
1.74602e-10
1.49785e-10
-4.38011e-10
6.27555e-11
2.35293e-10
-3.47184e-10
1.29563e-11
5.73379e-11
1.14644e-12
1.93166e-11
2.13899e-11
2.94921e-12
6.49104e-12
3.06797e-12
-1.43095e-12
6.65248e-12
1.10633e-10
-1.80755e-12
2.9437e-12
1.23452e-10
-4.03896e-11
7.6221e-12
3.94398e-11
-1.55689e-10
-5.16525e-11
1.60175e-10
1.82186e-11
-4.07093e-10
2.62518e-10
1.29205e-10
-3.43157e-10
3.70565e-10
3.48413e-11
-2.40074e-10
2.18682e-10
4.52874e-12
2.31931e-12
6.30346e-11
2.1709e-11
3.02822e-11
3.30259e-08
-5.48526e-08
1.75273e-07
-4.8357e-08
-4.88682e-08
1.75039e-07
-1.17952e-07
-5.60843e-08
1.84263e-07
-1.68897e-07
-7.09771e-08
1.957e-07
-2.01502e-07
-8.94339e-08
2.07773e-07
-2.09797e-07
-1.16315e-07
2.19681e-07
-1.87724e-07
-1.52302e-07
2.31336e-07
-1.11858e-07
-2.14699e-07
2.42269e-07
-3.26468e-08
-2.28084e-07
2.61185e-07
-1.54409e-07
2.41676e-07
5.29285e-08
-1.23198e-07
1.72206e-07
-1.41052e-08
-1.02828e-07
1.58886e-07
-7.34818e-08
-1.11364e-07
1.59569e-07
-1.20728e-07
-1.35667e-07
1.6823e-07
-1.5391e-07
-1.68543e-07
1.80504e-07
-1.69462e-07
-2.15147e-07
1.90711e-07
-1.55996e-07
-2.85099e-07
1.94856e-07
-7.39736e-08
-4.30643e-07
2.00533e-07
3.4595e-09
-4.55277e-07
2.28739e-07
-2.51758e-07
1.91752e-07
2.256e-08
-1.53002e-07
2.38978e-07
-7.78023e-08
-1.1868e-07
2.05817e-07
-1.5468e-07
-1.42224e-07
1.93926e-07
-2.1008e-07
-1.88246e-07
1.98781e-07
-2.55901e-07
-2.37613e-07
2.08795e-07
-3.02765e-07
-2.91982e-07
2.15209e-07
-3.20774e-07
-4.17046e-07
2.29568e-07
-2.11118e-07
-7.55715e-07
3.02607e-07
-5.10247e-08
-8.60456e-07
4.07599e-07
-4.29568e-07
2.87116e-07
2.57771e-08
-1.45438e-07
4.025e-07
-1.1472e-07
-7.30564e-08
3.42472e-07
-2.34257e-07
-1.17223e-07
2.97865e-07
-3.36484e-07
-1.86041e-07
2.76418e-07
-4.2697e-07
-2.71684e-07
2.7412e-07
-5.19981e-07
-3.56133e-07
2.82334e-07
-5.76178e-07
-5.87217e-07
3.63628e-07
-5.43774e-07
-1.16453e-06
6.43873e-07
-3.04288e-07
-1.47335e-06
8.61684e-07
-8.73509e-07
4.83319e-07
1.05196e-07
-1.25416e-07
6.04909e-07
-4.43776e-08
7.41344e-08
5.37096e-07
-2.16766e-07
4.38761e-08
5.01604e-07
-3.61259e-07
-8.42631e-08
4.68666e-07
-4.50948e-07
-2.77291e-07
4.26355e-07
-5.62213e-07
-4.01098e-07
4.17413e-07
-7.6227e-07
-6.70757e-07
6.19684e-07
-9.72169e-07
-1.46449e-06
1.15411e-06
-6.87623e-07
-2.22366e-06
1.45395e-06
-1.66383e-06
9.14701e-07
-4.57141e-09
-8.00507e-08
6.09462e-07
-6.85769e-08
8.94516e-08
5.28162e-07
-8.65706e-08
-9.58209e-09
6.28241e-07
-1.34994e-07
-9.6212e-08
6.91174e-07
-2.56606e-07
-2.85634e-07
7.39053e-07
-4.60123e-07
-4.39106e-07
7.93727e-07
-7.81778e-07
-7.5439e-07
1.10622e-06
-1.02092e-06
-1.84445e-06
1.66112e-06
-7.80264e-07
-2.95722e-06
1.81786e-06
-2.71942e-06
1.39582e-06
-1.95935e-07
3.3364e-07
4.43076e-08
-5.48557e-07
3.01655e-07
7.30501e-08
-8.23385e-07
1.36449e-07
3.37096e-07
-8.76473e-07
-1.22305e-07
5.92554e-07
-7.46864e-07
-5.58771e-07
9.4509e-07
-7.07517e-07
-8.61341e-07
1.30813e-06
-7.92349e-07
-1.26204e-06
1.71466e-06
-8.15308e-07
-2.44548e-06
2.04374e-06
-5.8385e-07
-3.51859e-06
1.69044e-06
-3.72165e-06
8.90899e-07
-1.9468e-07
8.00044e-07
-2.5714e-06
1.98702e-08
6.02475e-07
-2.3922e-06
2.41673e-08
5.72766e-07
-2.11368e-06
-1.94723e-07
3.7667e-07
-1.34474e-06
-4.11895e-07
-2.69696e-07
-5.73327e-08
-2.83368e-07
-1.2982e-06
1.03816e-06
-2.57603e-07
-1.99881e-06
1.61215e-06
-4.79496e-07
-2.7903e-06
1.78411e-06
-1.97541e-07
-3.84725e-06
1.42904e-06
-4.00766e-06
-3.59286e-07
-1.24593e-07
-6.59641e-08
-7.78896e-08
-6.16377e-08
-4.82277e-08
-7.46184e-08
1.22759e-08
-3.88903e-08
-2.05318e-07
-5.86237e-09
-2.73426e-08
-3.56846e-07
-1.36267e-07
-2.17419e-08
-4.47131e-07
3.045e-08
-5.36405e-07
-5.19392e-07
5.03333e-07
-1.10539e-06
-7.89146e-07
2.54302e-07
-1.72371e-06
-6.76458e-07
5.92672e-07
-3.55957e-06
3.92727e-07
-2.97957e-06
-1.29859e-06
-2.70184e-08
2.13714e-09
-4.21597e-09
-4.02091e-08
-3.46386e-10
-1.54484e-10
-7.86512e-08
2.26415e-09
-6.56118e-10
-1.50229e-07
3.69377e-09
-4.50496e-09
-1.16907e-07
-7.54959e-09
7.22681e-09
-1.67129e-07
-3.55802e-08
6.22538e-08
-3.47451e-07
-1.07639e-07
2.12777e-07
-2.54256e-07
-5.09177e-07
5.29791e-07
3.52048e-07
-1.57178e-06
8.16189e-07
-2.22382e-06
-4.02475e-07
-2.55865e-09
7.24351e-10
-9.71083e-11
-4.59903e-09
1.9733e-10
-5.01465e-11
-3.8481e-09
3.75521e-10
-7.10459e-11
-3.34335e-10
1.61126e-10
-3.40897e-10
-1.92525e-09
-4.04592e-11
-7.04094e-10
-4.90102e-09
-6.58754e-11
-1.68108e-09
-1.29449e-08
-1.98378e-10
-4.40649e-09
-4.44945e-08
-6.50514e-11
1.19076e-08
-9.67961e-08
-4.79423e-11
8.71614e-08
-1.77034e-06
2.62371e-07
-8.01097e-11
8.22953e-10
-4.57482e-10
-1.16355e-10
7.43444e-11
-1.67955e-10
-9.69011e-11
2.40248e-11
-4.25293e-11
-1.09292e-11
2.44528e-12
-6.1914e-11
-3.75106e-13
8.81221e-12
-8.14592e-11
7.99795e-12
4.03016e-12
-1.26214e-10
1.61405e-11
6.4007e-12
-2.44747e-10
8.4769e-12
-3.06717e-12
-7.27805e-11
5.94319e-13
-6.01597e-12
-5.05718e-11
-8.04849e-07
2.96348e-07
1.56745e-11
1.52471e-09
-4.50052e-10
4.17727e-12
1.42755e-10
-2.10259e-10
-5.1491e-12
3.05371e-11
-2.67763e-11
-5.70803e-12
2.3325e-11
-2.09467e-11
-3.49517e-12
1.49362e-11
-1.54425e-11
9.83711e-13
9.80781e-12
-2.68852e-11
9.94999e-12
6.50981e-12
-5.15761e-11
1.40785e-11
8.32104e-12
-4.64697e-11
2.48574e-11
1.02392e-11
-5.15658e-11
-4.67843e-07
1.66598e-08
5.28324e-11
2.58894e-09
3.08104e-11
-1.2656e-11
2.21576e-10
-1.87687e-11
-1.07128e-11
3.12446e-11
-1.04437e-11
-8.43537e-12
1.90326e-11
-5.97035e-12
-4.94127e-12
1.4428e-11
-7.48485e-12
-2.41623e-12
8.6233e-12
-8.46071e-12
7.54447e-12
-1.02315e-11
-1.23473e-11
1.97937e-11
6.19663e-12
-4.10036e-11
1.07197e-11
1.86737e-11
-2.1958e-11
-2.16221e-07
1.31644e-07
-9.80149e-11
2.57827e-09
6.856e-10
-1.90256e-11
5.20029e-10
1.92647e-10
-1.31088e-11
2.05383e-11
4.74694e-13
-1.40186e-11
1.64939e-11
-1.207e-12
-9.97876e-12
1.0325e-11
-4.60332e-12
-5.8718e-12
-4.79712e-12
-8.81742e-11
6.73931e-11
-6.89602e-11
-2.8847e-10
3.24726e-11
-6.93424e-12
-1.30834e-10
1.60308e-11
2.41387e-11
-2.02182e-11
-4.01324e-11
2.92336e-08
-3.19476e-10
1.86429e-09
1.2603e-09
-2.75261e-11
6.77509e-10
6.77435e-10
-2.8319e-11
2.0962e-11
5.40016e-12
-2.59112e-11
2.12827e-11
2.38329e-12
-3.50571e-11
1.38119e-11
-8.88941e-12
8.32509e-12
-7.64671e-11
-3.24856e-10
8.83842e-11
-4.23713e-10
-7.94646e-10
3.56592e-11
-4.6302e-11
-2.23508e-10
1.59782e-11
2.77791e-11
-1.20347e-11
1.34052e-13
8.99584e-12
-2.12836e-10
7.84615e-11
7.44508e-10
-5.97761e-11
1.54533e-10
6.80076e-10
-2.3683e-11
4.36169e-11
5.73994e-11
-1.82604e-11
2.75737e-11
7.64843e-12
-3.83953e-12
8.3518e-12
-1.08882e-11
6.08392e-11
-4.70078e-10
1.29188e-10
2.38708e-10
-2.3168e-10
-5.99217e-10
7.01581e-11
1.11569e-11
-2.27271e-10
2.21123e-11
5.16446e-11
-5.71682e-12
2.08179e-11
2.02098e-10
-9.05465e-12
2.98829e-11
4.4906e-11
-1.09544e-11
2.20941e-11
5.03491e-11
-3.96687e-12
5.65889e-11
1.30498e-10
-2.86986e-11
2.7511e-11
1.10272e-11
-2.30395e-10
5.69317e-12
-8.21302e-12
1.05017e-10
-3.80319e-10
-5.13148e-10
6.40082e-11
-3.6743e-10
-7.18673e-11
3.32706e-11
1.17421e-10
-2.04791e-10
3.39281e-11
1.69391e-10
-1.05202e-10
3.69883e-11
9.97029e-11
2.06547e-12
2.08706e-11
9.76295e-12
2.79705e-13
1.87033e-11
5.87796e-12
6.77772e-13
2.25237e-11
1.81429e-11
-2.35875e-11
3.1213e-11
1.3396e-11
-7.04261e-11
3.17937e-11
-2.36476e-11
-1.00144e-11
-3.49063e-10
1.25669e-10
3.3085e-12
-2.49285e-11
3.33563e-11
1.53737e-11
6.64171e-11
-2.905e-10
2.89739e-11
3.37865e-10
-2.52026e-10
5.38772e-11
3.58001e-11
2.8147e-11
5.77064e-11
4.70642e-11
7.22164e-12
2.45886e-11
8.77538e-11
-9.47277e-13
5.87105e-12
3.56104e-11
2.58328e-12
5.48469e-12
2.90715e-11
-3.81517e-11
-1.13769e-11
5.43618e-11
-4.82018e-11
1.671e-10
-4.62629e-11
-3.65917e-11
-1.31121e-10
6.08031e-11
-7.17119e-12
-3.03747e-10
1.17376e-10
2.67581e-11
-2.85669e-10
3.37589e-10
1.61968e-11
8.23133e-11
3.88298e-08
-1.05481e-07
3.53132e-07
-3.21939e-08
-8.86446e-08
3.34707e-07
-9.4154e-08
-7.66815e-08
3.22905e-07
-1.39029e-07
-7.67485e-08
3.17324e-07
-1.67919e-07
-8.37402e-08
3.20402e-07
-1.76404e-07
-1.01413e-07
3.2958e-07
-1.58599e-07
-1.31354e-07
3.44885e-07
-9.21041e-08
-1.91748e-07
3.67521e-07
-2.2786e-08
-2.04074e-07
3.95941e-07
-1.20161e-07
3.39052e-07
5.51229e-08
-2.26014e-07
3.5434e-07
2.04059e-09
-1.93286e-07
3.1661e-07
-4.22083e-08
-1.65329e-07
2.92466e-07
-8.12609e-08
-1.53462e-07
2.83996e-07
-1.12552e-07
-1.59775e-07
2.8783e-07
-1.29907e-07
-1.91058e-07
2.9771e-07
-1.20348e-07
-2.58693e-07
3.12636e-07
-4.61764e-08
-4.07099e-07
3.41713e-07
1.7612e-08
-4.16107e-07
3.76984e-07
-1.91952e-07
2.81155e-07
3.05259e-08
-2.8742e-07
3.9051e-07
-4.83259e-08
-2.58241e-07
3.49624e-07
-1.07942e-07
-2.32967e-07
3.2118e-07
-1.55011e-07
-2.24494e-07
3.16882e-07
-1.9619e-07
-2.37683e-07
3.27882e-07
-2.39486e-07
-2.78188e-07
3.45635e-07
-2.53604e-07
-4.03524e-07
3.88517e-07
-1.2588e-07
-7.33245e-07
5.01029e-07
1.26639e-08
-7.28855e-07
5.81803e-07
-2.69756e-07
3.77585e-07
2.28327e-08
-2.31574e-07
4.35867e-07
-8.53575e-08
-2.27076e-07
4.19498e-07
-1.69425e-07
-2.39374e-07
3.88339e-07
-2.49763e-07
-2.46383e-07
3.78645e-07
-3.46746e-07
-2.70239e-07
4.03659e-07
-4.72168e-07
-3.27567e-07
4.57136e-07
-5.32848e-07
-5.69794e-07
5.90579e-07
-3.87586e-07
-1.11265e-06
8.78013e-07
-1.17514e-07
-1.10067e-06
9.63422e-07
-4.48885e-07
5.44933e-07
3.08142e-08
-4.69358e-08
4.87763e-07
-1.16593e-07
-4.14937e-08
4.98921e-07
-2.5398e-07
-1.05058e-07
5.04675e-07
-3.7355e-07
-1.53233e-07
4.95086e-07
-4.71962e-07
-2.52121e-07
5.06649e-07
-6.21061e-07
-3.34278e-07
5.73222e-07
-7.76178e-07
-6.14273e-07
8.19278e-07
-7.78602e-07
-1.22636e-06
1.27063e-06
-4.48276e-07
-1.26106e-06
1.28483e-06
-6.42602e-07
6.60142e-07
6.2666e-08
1.15949e-07
5.06696e-07
-6.71445e-08
8.431e-08
5.3217e-07
-1.97007e-07
1.14038e-08
6.41643e-07
-3.54009e-07
-1.2435e-08
7.07381e-07
-5.24434e-07
-1.12632e-07
7.69988e-07
-7.30353e-07
-2.38781e-07
9.0415e-07
-9.53426e-07
-5.3235e-07
1.24738e-06
-1.03323e-06
-1.15242e-06
1.66756e-06
-6.88983e-07
-1.26411e-06
1.47648e-06
-9.44404e-07
1.00866e-06
-4.87131e-08
5.34448e-07
-3.5929e-08
-4.19733e-07
3.90037e-07
1.38344e-07
-7.03498e-07
2.36766e-07
3.95499e-07
-8.62011e-07
8.59124e-08
6.52722e-07
-9.10062e-07
-5.08315e-08
9.31341e-07
-9.8353e-07
-1.5254e-07
1.29536e-06
-1.07039e-06
-4.74227e-07
1.74341e-06
-1.05794e-06
-1.15529e-06
2.03429e-06
-7.07103e-07
-1.52795e-06
1.60401e-06
-1.82411e-06
1.07595e-06
1.23447e-07
1.01715e-07
-2.4303e-06
4.92143e-07
6.17218e-08
-2.31854e-06
4.5002e-07
2.54899e-07
-2.18228e-06
2.109e-08
4.93476e-07
-1.5606e-06
-4.29687e-07
4.96203e-07
-3.10279e-07
-6.5385e-07
1.15885e-07
9.93939e-07
-7.38406e-07
-5.27402e-07
1.83049e-06
-7.30782e-07
-1.47324e-06
2.09526e-06
-2.88609e-07
-2.06366e-06
1.47491e-06
-2.32129e-06
-1.60983e-07
-6.82839e-09
4.74188e-09
-7.79795e-11
-1.5426e-08
-1.01667e-12
-3.7825e-10
-3.39412e-08
-3.12765e-10
-7.60957e-09
-1.62937e-08
-3.52416e-09
-1.32041e-07
-2.97499e-08
-2.97288e-09
-1.89328e-07
2.41464e-08
-6.54511e-08
-1.51897e-07
5.14449e-07
-2.78953e-07
-1.08355e-07
1.20836e-06
-7.99133e-07
-1.45455e-07
1.64187e-06
-1.47351e-06
3.72751e-07
-8.54158e-07
-7.39179e-07
-5.57377e-11
1.11395e-10
-8.66048e-11
-1.44653e-10
1.3174e-11
-1.07049e-10
-9.93987e-10
1.48103e-11
-1.52881e-10
-9.03176e-09
2.28159e-11
-1.28205e-10
-5.47318e-09
5.78919e-10
-1.10373e-10
-1.05061e-08
1.70561e-09
-1.02033e-10
-8.12908e-08
4.37774e-09
-5.72621e-11
-7.77368e-08
-1.51961e-08
1.87043e-07
1.94273e-07
-2.87519e-07
1.7843e-07
-5.33591e-07
2.37789e-08
-3.38013e-12
1.13632e-10
-1.38847e-10
-6.52551e-12
4.74095e-11
-9.99101e-11
-1.7368e-11
1.70613e-11
-7.03594e-11
-7.06363e-11
2.84713e-11
-3.12072e-10
1.6107e-10
-1.52689e-10
-3.13629e-10
2.63985e-10
8.67977e-11
-2.43393e-10
1.97847e-10
1.96051e-10
-2.75989e-10
-2.10578e-09
-3.53504e-11
-8.59887e-10
-1.9939e-07
-4.95395e-10
-2.57093e-09
-3.40193e-07
2.03408e-07
3.29619e-10
8.54177e-10
-8.29076e-10
5.96846e-11
3.90395e-10
-3.19288e-10
1.89969e-11
2.27311e-11
-2.31195e-11
2.70776e-11
4.62089e-11
-1.94092e-10
1.86905e-11
3.69892e-11
-4.68254e-10
1.30442e-11
1.78016e-11
-5.79077e-11
4.21843e-11
1.00521e-11
-1.03008e-10
2.55495e-11
1.55627e-11
-1.47243e-10
2.8717e-11
1.49387e-11
-5.0815e-10
-4.43991e-08
5.90289e-10
6.90895e-10
8.21373e-10
-1.38464e-10
5.502e-11
5.176e-10
-4.56889e-11
-3.03352e-12
2.3539e-11
-3.34762e-12
-8.69333e-12
1.02373e-11
-1.986e-11
-1.16744e-11
1.35564e-11
-6.81563e-11
-7.46625e-12
9.87319e-12
-1.5465e-11
1.0827e-11
-9.81044e-12
-4.57677e-11
1.95097e-11
9.49e-12
-5.26971e-11
3.11941e-11
3.39754e-11
-9.55668e-11
-2.79979e-08
2.78925e-10
5.13001e-10
1.08536e-09
-5.03504e-11
3.07621e-11
7.52362e-10
-1.80452e-12
1.02628e-12
3.55506e-11
9.52974e-13
-8.44973e-12
1.06392e-11
-9.60758e-13
-1.05844e-11
1.1955e-11
-6.90141e-12
-7.75844e-12
2.77929e-12
-8.05274e-12
4.65932e-11
-6.74012e-11
-2.60998e-11
4.39634e-11
-1.47581e-11
-2.9795e-11
1.52791e-10
4.94461e-11
-1.61263e-10
-3.2446e-09
-1.41316e-10
5.27097e-10
1.44414e-09
1.62917e-10
2.89328e-11
1.45571e-09
3.13279e-10
-9.02468e-12
7.92412e-11
1.90918e-11
-1.78917e-11
1.34313e-11
1.37617e-12
-3.24814e-11
1.57794e-11
-1.20192e-11
3.18311e-11
-2.40507e-10
2.26926e-11
2.09816e-10
-5.05788e-10
-1.49013e-09
1.39126e-10
-4.14948e-11
-4.30453e-10
1.61428e-10
5.45343e-11
-6.22636e-11
1.86837e-08
8.35331e-10
2.19486e-10
1.68355e-09
1.05595e-09
-1.53901e-10
1.13672e-09
7.53331e-10
-2.91183e-11
2.05352e-10
6.89433e-11
-4.03762e-11
1.92989e-11
5.05756e-12
-3.64014e-10
2.46403e-11
-8.86908e-12
3.34783e-10
-1.15601e-09
-4.07517e-09
1.02359e-10
-8.19384e-10
-1.07892e-09
1.34986e-10
-2.5065e-11
-1.36483e-10
1.33618e-10
5.572e-11
-2.49917e-11
1.94828e-08
6.8126e-09
-8.80919e-11
1.60187e-10
5.47212e-10
-2.57474e-10
2.35782e-10
7.89967e-10
-4.18612e-11
3.31481e-10
2.24236e-10
-4.54021e-11
2.177e-11
8.6263e-12
-2.66948e-10
3.81476e-12
-5.27426e-12
2.15591e-10
-1.34553e-09
-1.95941e-09
-8.11782e-12
-4.16691e-10
-3.21567e-10
2.98738e-11
5.60731e-11
-2.47395e-10
1.20815e-10
6.80745e-11
-1.18776e-10
1.10804e-08
5.95189e-09
-1.20238e-11
3.54389e-11
9.57419e-11
-2.23571e-11
9.65288e-12
1.15968e-10
-1.20201e-11
8.50606e-11
1.82665e-10
-8.573e-12
1.65351e-11
9.99377e-12
-4.7905e-11
5.90403e-12
-4.44441e-12
-2.61818e-11
-5.01912e-10
-2.15742e-10
-3.67668e-11
-2.67727e-10
-3.86982e-10
-1.82054e-10
9.21977e-11
-3.08253e-10
-1.51515e-09
1.28456e-09
-4.13059e-10
2.04664e-10
1.06355e-09
4.20963e-12
4.80503e-11
2.69198e-11
3.35599e-12
4.44613e-12
2.71524e-11
3.58502e-12
4.63894e-12
2.41866e-11
1.0885e-13
2.10549e-11
9.18142e-12
-1.08909e-11
8.45469e-12
-1.80371e-11
-1.03787e-10
-3.95816e-10
-1.30298e-10
-7.3587e-11
-1.90514e-10
-5.91243e-10
-3.10306e-10
1.25102e-10
-3.07334e-10
-3.036e-10
9.05795e-10
-4.93539e-10
1.54212e-10
-2.18594e-10
4.24933e-11
7.66428e-11
5.78055e-11
7.40615e-12
2.96719e-11
3.78887e-11
2.45626e-12
6.99859e-12
1.1227e-11
1.59533e-12
6.49226e-12
2.51156e-11
-9.97077e-11
-3.6943e-11
4.03262e-11
-3.43136e-10
-2.27891e-09
-3.62867e-10
-1.40029e-10
-1.9195e-09
-1.08429e-10
-3.91208e-10
-2.48948e-10
1.27836e-10
-1.11906e-10
-1.9587e-10
2.22771e-10
-3.43006e-11
8.61748e-11
2.68638e-08
-4.16689e-08
4.75944e-07
-3.59889e-08
-4.67149e-08
4.44275e-07
-8.5113e-08
-4.38488e-08
4.15878e-07
-1.20241e-07
-4.57324e-08
3.98185e-07
-1.43052e-07
-5.04235e-08
3.93636e-07
-1.48947e-07
-6.21604e-08
3.97635e-07
-1.33761e-07
-8.06222e-08
4.10321e-07
-7.92603e-08
-1.21636e-07
4.34656e-07
-2.01305e-08
-1.29248e-07
4.66059e-07
-6.77911e-08
3.86712e-07
3.37698e-08
-9.97234e-08
4.97143e-07
-1.23039e-08
-1.24671e-07
4.40639e-07
-3.53662e-08
-1.17684e-07
3.89363e-07
-5.7181e-08
-1.01513e-07
3.61591e-07
-7.90894e-08
-9.50016e-08
3.54316e-07
-9.3274e-08
-1.10849e-07
3.60584e-07
-8.62385e-08
-1.52002e-07
3.76981e-07
-3.37314e-08
-2.42279e-07
4.09849e-07
1.19249e-08
-2.43959e-07
4.46039e-07
-1.04635e-07
3.29923e-07
2.86988e-08
-1.07532e-07
4.90792e-07
-4.02228e-08
-1.75606e-07
4.69481e-07
-7.80319e-08
-1.88303e-07
4.29608e-07
-1.07556e-07
-1.62234e-07
4.07127e-07
-1.33442e-07
-1.49748e-07
4.08514e-07
-1.50434e-07
-1.71143e-07
4.22921e-07
-1.43065e-07
-2.31438e-07
4.60584e-07
-5.16344e-08
-3.84468e-07
5.51788e-07
2.02487e-08
-3.48699e-07
6.1466e-07
-1.23957e-07
4.17155e-07
6.71132e-08
-7.02353e-08
4.55284e-07
-2.18007e-08
-1.67554e-07
5.00359e-07
-8.58508e-08
-2.27317e-07
4.91404e-07
-1.4221e-07
-1.99669e-07
4.72439e-07
-2.12152e-07
-1.68264e-07
4.92118e-07
-2.84038e-07
-1.8991e-07
5.47788e-07
-2.95718e-07
-2.9688e-07
6.67701e-07
-1.44713e-07
-5.48615e-07
8.91154e-07
-1.62116e-09
-4.69318e-07
9.4095e-07
-1.63957e-07
5.83312e-07
9.94784e-08
-1.33498e-08
4.4596e-07
-1.65433e-08
-7.09963e-08
5.18386e-07
-1.40593e-07
-1.65701e-07
5.67108e-07
-2.46264e-07
-1.58655e-07
5.59743e-07
-3.22605e-07
-1.68692e-07
5.83418e-07
-4.06238e-07
-2.04167e-07
6.71112e-07
-4.51035e-07
-3.07318e-07
8.74514e-07
-3.47755e-07
-5.58216e-07
1.17696e-06
-1.89388e-07
-4.1703e-07
1.07418e-06
-2.57354e-07
5.64152e-07
1.46389e-07
5.17294e-08
4.0056e-07
1.75375e-08
1.00263e-08
5.79999e-07
-1.43313e-07
-6.16078e-08
6.98401e-07
-3.09717e-07
-5.36572e-08
7.68787e-07
-4.70734e-07
-4.14911e-08
8.03804e-07
-6.14761e-07
-1.07391e-07
9.514e-07
-7.04851e-07
-2.07465e-07
1.23762e-06
-6.34197e-07
-3.94718e-07
1.43346e-06
-4.31369e-07
-1.16035e-07
9.72654e-07
-2.81143e-07
6.01084e-07
5.67416e-08
3.27369e-07
-1.48833e-07
-2.9551e-07
2.47309e-07
2.53313e-07
-5.519e-07
1.16296e-07
4.73984e-07
-6.81864e-07
-4.95985e-08
7.78627e-07
-7.44123e-07
-5.77318e-08
1.00984e-06
-8.45944e-07
7.38149e-08
1.21597e-06
-9.8658e-07
1.0868e-07
1.56791e-06
-9.8241e-07
-1.35733e-07
1.77113e-06
-7.17242e-07
-1.69815e-07
1.39405e-06
-8.62548e-07
9.54106e-07
3.40974e-07
-5.89624e-10
-1.68236e-06
7.8495e-07
-6.91987e-09
-1.78571e-06
8.41919e-07
-2.11031e-08
-1.76766e-06
3.41368e-07
1.88022e-07
-1.2637e-06
-2.0244e-07
2.9212e-07
-2.25687e-07
-6.09122e-07
5.36103e-07
9.38334e-07
-9.10847e-07
4.90337e-07
1.75057e-06
-9.6925e-07
-8.89589e-08
2.12473e-06
-3.93034e-07
-6.71429e-07
1.47555e-06
-1.13352e-06
-2.84501e-07
-7.4756e-10
9.40635e-12
-6.39497e-11
-7.90289e-09
-3.73037e-11
-1.5446e-10
-3.58534e-08
-2.99481e-10
-5.07691e-10
-6.70158e-08
-5.23836e-10
-2.76536e-09
-1.32453e-07
-1.90918e-10
-4.96718e-09
-6.40475e-08
-1.11255e-09
1.95424e-07
2.28692e-07
-6.27928e-09
2.48425e-07
7.18709e-07
-1.85632e-07
2.39883e-07
1.18188e-06
-4.2376e-07
5.08459e-07
6.79332e-08
-3.59129e-07
-5.69387e-11
1.21713e-11
-1.01661e-10
-5.92556e-11
-1.15864e-11
-1.71945e-10
-7.52284e-11
-5.21185e-11
-4.60921e-10
-6.98196e-11
-1.59674e-10
-5.428e-10
-2.07367e-11
-1.47814e-11
-4.60372e-10
1.4121e-12
-1.32756e-11
-1.46035e-09
-5.74612e-09
6.58468e-11
-7.90771e-10
-5.06801e-09
8.77496e-10
-3.73944e-10
-2.2536e-07
5.50421e-10
2.34253e-08
-1.6471e-07
7.73571e-08
8.57278e-11
4.77474e-11
-1.60612e-10
5.94371e-11
-6.35739e-11
-7.45069e-11
9.09376e-11
-1.98995e-11
-1.06756e-10
1.53962e-10
-1.46922e-10
-2.98917e-10
1.09234e-10
-3.70307e-11
-5.28843e-10
3.83241e-11
6.54843e-11
-5.16946e-10
1.08144e-11
7.88082e-11
-4.06945e-10
1.48286e-10
1.94403e-10
-3.11353e-10
-8.25505e-10
-1.42425e-10
-6.70153e-10
3.72309e-11
3.44791e-08
6.59403e-10
2.10625e-10
-6.42657e-10
1.18388e-10
4.95425e-12
-1.28637e-10
7.62555e-11
-6.86461e-14
-6.52929e-12
8.69442e-11
8.40998e-13
-2.01978e-10
5.38743e-12
-8.77714e-12
-3.49302e-10
-7.37694e-12
2.2847e-11
-1.35501e-10
1.96298e-11
2.204e-11
-1.93983e-10
9.28404e-11
3.94407e-11
-3.89857e-11
-2.20433e-10
7.18324e-12
-3.06205e-10
2.40177e-10
-1.23689e-10
5.07231e-11
7.67076e-12
-2.37144e-11
1.08841e-11
1.22043e-12
-5.07108e-12
4.15033e-12
3.12491e-12
-3.62052e-12
1.57941e-12
4.40134e-12
-4.34902e-12
-1.48455e-11
2.05512e-12
-1.0999e-10
-1.41277e-11
7.68412e-12
-1.79933e-11
6.46277e-11
-3.14277e-10
-1.26819e-10
6.8289e-11
-5.97156e-11
-2.58279e-11
1.27162e-11
1.02622e-10
1.11177e-11
9.56e-10
-2.24172e-10
1.40219e-11
6.24709e-12
-2.58086e-12
9.79388e-12
3.09989e-11
4.74059e-13
2.5729e-12
2.12448e-11
2.13778e-12
-1.41257e-12
5.41277e-12
-1.34771e-13
-7.94541e-12
3.51359e-12
-3.66267e-12
1.13148e-10
-8.40878e-11
-4.87415e-11
9.88717e-10
-1.7699e-09
-2.34452e-09
3.8658e-10
-5.94622e-10
-1.05053e-09
3.84976e-11
2.49079e-10
-1.44558e-10
9.84926e-10
-1.44745e-10
7.37198e-11
6.89976e-11
4.31395e-13
6.67338e-11
3.74657e-10
4.00526e-11
-1.32274e-12
8.39304e-11
4.16068e-11
-8.22677e-12
8.95221e-12
3.41953e-12
-2.12899e-10
6.84269e-12
-2.86151e-12
8.06743e-10
-4.6322e-09
-2.69812e-09
1.24582e-09
-1.8766e-09
-1.5263e-09
2.60632e-10
-3.63506e-10
-5.44286e-10
7.03048e-12
3.12178e-10
9.27157e-11
1.18948e-09
-2.03812e-11
1.52618e-10
1.73107e-10
4.88501e-11
4.21809e-11
5.13156e-10
1.93914e-10
-4.76381e-12
1.63842e-10
1.19893e-10
-5.23087e-12
8.43097e-12
5.03552e-12
-1.01673e-10
-1.45402e-12
-4.89052e-12
1.10368e-09
-6.88148e-09
-3.66909e-09
-6.62732e-11
-7.17918e-10
-4.07956e-10
8.20789e-11
-6.58215e-11
-1.35282e-10
-5.46183e-10
7.13065e-10
4.66572e-11
6.41387e-09
-3.85213e-12
2.74122e-12
7.20392e-11
1.28519e-10
8.13103e-12
8.47214e-11
1.09411e-10
-6.04606e-12
1.40624e-10
1.42156e-10
5.92634e-14
9.72084e-12
9.2248e-12
2.4641e-11
-5.58303e-12
-2.83161e-11
-1.56483e-10
-3.26301e-09
-4.09335e-09
-6.41257e-11
-5.88715e-10
-6.62204e-10
-1.96357e-10
1.59248e-12
-2.02776e-10
-1.643e-09
1.50745e-09
-5.14104e-11
6.72117e-09
-2.62163e-11
1.98467e-12
2.23901e-11
1.33908e-10
9.36957e-12
3.26235e-11
1.45242e-10
1.96223e-11
1.02879e-11
7.40933e-11
3.79588e-12
1.11221e-11
1.2292e-11
-3.35954e-12
-5.23841e-12
-1.27522e-11
-4.089e-10
-1.10767e-09
-3.34396e-10
-1.62055e-10
-1.21034e-09
-2.98752e-09
-3.00478e-10
4.87655e-12
-3.4985e-10
-1.34832e-09
1.16765e-09
-4.82294e-11
2.62272e-09
-5.78846e-11
6.31177e-12
7.72196e-12
4.86743e-11
4.78614e-12
5.33556e-12
5.11997e-11
9.35813e-12
5.24366e-12
2.13087e-11
6.53761e-12
1.21375e-11
1.09637e-11
-1.40195e-10
2.20976e-11
-1.37403e-10
-1.43126e-09
-2.83999e-09
-3.44659e-09
-7.55351e-10
-2.3298e-09
-3.74914e-09
-3.79808e-10
-2.95289e-11
-8.46339e-10
-4.25304e-10
2.81672e-10
-1.40882e-11
1.20725e-10
-4.03054e-11
5.03065e-12
7.21223e-11
1.12787e-11
4.21086e-12
2.9757e-11
1.83481e-12
5.47117e-12
6.50415e-12
3.47485e-12
4.07648e-11
1.35614e-11
2.08965e-11
-8.78958e-10
-3.04661e-10
1.27243e-10
-2.85505e-09
-3.5305e-09
-3.70465e-09
-1.66291e-09
-4.81825e-09
-3.2752e-09
-8.67616e-11
-2.29775e-09
-1.6712e-10
-3.74654e-11
-5.80496e-11
4.24114e-11
-3.50525e-12
4.9738e-11
6.63982e-09
6.58538e-08
5.07882e-07
-5.6332e-08
1.90862e-08
4.8816e-07
-9.39096e-08
-5.21572e-09
4.58671e-07
-1.18553e-07
-1.66378e-08
4.39466e-07
-1.34049e-07
-2.27422e-08
4.31874e-07
-1.35574e-07