/*--------------------------------*- C++ -*----------------------------------*\
| =========                 |                                                 |
| \\      /  F ield         | OpenFOAM: The Open Source CFD Toolbox           |
|  \\    /   O peration     | Version:  2312                                  |
|   \\  /    A nd           | Website:  www.openfoam.com                      |
|    \\/     M anipulation  |                                                 |
\*---------------------------------------------------------------------------*/
FoamFile
{
    version     2.0;
    format      ascii;
    arch        "LSB;label=32;scalar=64";
    class       volVectorField;
    location    "0.785";
    object      U;
}
// * * * * * * * * * * * * * * * * * * * * * * * * * * * * * * * * * * * * * //

dimensions      [0 1 -1 0 0 0 0];

internalField   nonuniform List<vector> 
8000
(
(0.00357646 -0.000150399 -0.000642153)
(0.00161091 -0.00019973 -0.000372463)
(-0.000470461 -0.000384057 0.000107424)
(-0.00262067 -0.000746626 0.000634596)
(-0.0043526 -0.00130379 0.0010334)
(-0.00554725 -0.00205621 0.00131282)
(-0.00583438 -0.00279576 0.00143916)
(-0.00502499 -0.00372617 0.00141935)
(-0.00287263 -0.00424857 0.00156)
(-0.00047753 -0.00412252 0.00210221)
(0.00399039 0.000402657 -0.000617699)
(0.00231396 0.000226303 -0.000481088)
(0.000712732 -0.00059 -0.000224745)
(-0.000599743 -0.00174744 0.000140848)
(-0.00171148 -0.00310108 0.000516707)
(-0.00252155 -0.00462328 0.000767684)
(-0.00288938 -0.00618731 0.000762349)
(-0.00234815 -0.00840198 0.000368629)
(-0.00105599 -0.00981343 0.000462405)
(0.00034764 -0.00969142 0.00139546)
(0.00384431 -0.00055623 0.00129758)
(0.00149671 -0.00021356 0.00111998)
(-0.00077082 -0.0014197 0.00113265)
(-0.00245797 -0.00310143 0.00125514)
(-0.00380473 -0.00488962 0.00133737)
(-0.00486942 -0.00706567 0.00126193)
(-0.00579656 -0.00913379 0.000724544)
(-0.0051759 -0.0117732 -0.000321061)
(-0.00391781 -0.0138655 0.000402237)
(-0.000860697 -0.0132083 0.00298443)
(0.00556531 -0.00486035 0.00778986)
(0.00249943 -0.00288367 0.00620035)
(-0.00135479 -0.00449518 0.00496808)
(-0.0041608 -0.00701656 0.00408909)
(-0.00706955 -0.00937118 0.00318001)
(-0.00924375 -0.0112779 0.00221099)
(-0.0101634 -0.013138 0.00131486)
(-0.00933757 -0.0189439 0.000377)
(-0.0111743 -0.0277485 0.00551542)
(-0.00527619 -0.0278314 0.0087662)
(0.00365505 -0.0243843 0.0165436)
(0.00553382 -0.0130369 0.0152597)
(0.00161078 -0.0111507 0.0144885)
(-0.00150732 -0.0110753 0.0126771)
(-0.00440472 -0.0116372 0.00978202)
(-0.00699407 -0.0141121 0.00702114)
(-0.0106414 -0.0204833 0.00578265)
(-0.0192522 -0.0323986 0.00707244)
(-0.0276872 -0.0561956 0.0199754)
(-0.0151505 -0.0562722 0.0227005)
(-0.0153038 -0.0579966 0.00843049)
(-0.00826177 -0.0411383 0.00911928)
(-0.00849575 -0.0362251 0.0138456)
(-0.00256568 -0.0356962 0.0179269)
(0.002872 -0.0317288 0.0177912)
(-5.64057e-05 -0.0279182 0.0156119)
(-0.0125348 -0.0277865 0.0155273)
(-0.0287589 -0.0508119 0.0196221)
(-0.0302424 -0.113718 0.034224)
(-0.0256367 -0.139149 0.0245523)
(-0.02005 -0.0714207 -0.0174802)
(-0.021565 -0.0713394 -0.0185193)
(-0.0247847 -0.0755699 -0.0109012)
(-0.0180059 -0.082762 0.000980632)
(-0.00912542 -0.0694938 0.0151275)
(-0.00898256 -0.0447977 0.0223244)
(-0.0236078 -0.0490264 0.0268193)
(-0.0266913 -0.106675 0.0330308)
(-0.030827 -0.17883 0.0373301)
(-0.0318037 -0.21265 -0.00146951)
(-0.0177849 -0.0012141 -0.0663554)
(-0.0281229 -0.00850156 -0.0724391)
(-0.0219042 -0.0334189 -0.0721194)
(-0.0108183 -0.0837763 -0.064743)
(0.00204746 -0.115497 -0.0346034)
(0.00837874 -0.101052 0.00352557)
(-0.00680102 -0.1079 0.0150487)
(0.00744283 -0.169032 0.0196219)
(-0.0321728 -0.221833 0.0358568)
(-0.0271967 -0.234887 -0.0243308)
(-0.0585945 0.0735169 -0.155554)
(-0.0606502 0.0400969 -0.183272)
(-0.0394144 0.00134148 -0.183364)
(-0.0251373 -0.0342523 -0.173304)
(-0.020156 -0.0575975 -0.135731)
(-0.00249419 -0.066127 -0.0793459)
(0.00245346 -0.091065 -0.0524886)
(0.0420107 -0.156947 -0.0250769)
(-0.0246425 -0.234842 0.0206445)
(-0.0173162 -0.227346 -0.0288232)
(-0.114865 0.201347 -0.228304)
(-0.119095 0.183514 -0.265508)
(-0.101647 0.144497 -0.259659)
(-0.087999 0.101097 -0.207966)
(-0.0796637 0.0528277 -0.133722)
(-0.0721424 0.00614268 -0.0928939)
(-0.0737098 -0.054639 -0.0671954)
(0.0294705 -0.134092 -0.0556169)
(-0.0166314 -0.230437 -0.00800221)
(-0.0140751 -0.224477 -0.016743)
(-0.204121 0.0115051 -0.220295)
(-0.224522 -0.0622546 -0.228824)
(-0.244559 -0.104465 -0.19813)
(-0.294388 -0.146516 -0.143045)
(-0.386484 -0.17717 -0.0847489)
(-0.293145 -0.151614 -0.104675)
(-0.213202 -0.201505 -0.121824)
(-0.0482577 -0.238033 -0.105301)
(-0.01777 -0.231324 -0.0529575)
(0.00571216 -0.231566 -0.0324281)
(-0.231981 0.254736 -0.180493)
(-0.277401 0.210503 -0.181277)
(-0.304854 0.191055 -0.163961)
(-0.335972 0.13801 -0.113978)
(-0.385383 -0.00923376 -0.0596305)
(-0.412314 -0.295398 -0.113691)
(-0.347821 -0.408492 -0.18003)
(-0.234882 -0.447444 -0.165133)
(-0.0642158 -0.313122 -0.111925)
(0.031379 -0.225399 -0.0657271)
(-0.243082 0.442731 -0.128337)
(-0.310875 0.378303 -0.15578)
(-0.326538 0.343984 -0.158926)
(-0.320301 0.282964 -0.12337)
(-0.296722 0.191398 -0.0905262)
(-0.30197 0.0733006 -0.135768)
(-0.334765 -0.121837 -0.216561)
(-0.225615 -0.384513 -0.229985)
(-0.0963526 -0.463982 -0.181694)
(0.0181038 -0.226805 -0.0668408)
(-0.252027 0.601877 -0.046354)
(-0.354514 0.52562 -0.0971492)
(-0.37334 0.478717 -0.122769)
(-0.365399 0.404205 -0.093066)
(-0.355876 0.262855 -0.0767573)
(-0.346627 0.0891298 -0.147907)
(-0.251716 -0.0245064 -0.237844)
(-0.0411654 -0.0864327 -0.273676)
(0.0776593 -0.432786 -0.241431)
(0.0257709 -0.453761 -0.0704825)
(-0.223826 0.657918 0.036073)
(-0.334429 0.613976 -0.00586465)
(-0.388716 0.592528 -0.0472999)
(-0.402387 0.496964 -0.0510282)
(-0.401863 0.324957 -0.0713576)
(-0.331482 0.163052 -0.138436)
(-0.160068 0.081182 -0.206868)
(0.0568693 0.0431783 -0.264682)
(0.260677 -0.25228 -0.26825)
(0.118345 -0.282285 -0.112204)
(-0.181672 0.569437 0.0865187)
(-0.226423 0.581853 0.0767776)
(-0.293635 0.6192 0.0382425)
(-0.360698 0.52893 0.00223711)
(-0.390169 0.343862 -0.0388768)
(-0.264285 0.143303 -0.0911315)
(-0.0340905 0.0172246 -0.141887)
(0.177509 -0.0453061 -0.156957)
(0.284186 0.0216312 -0.149672)
(0.176449 -0.0347186 -0.0300032)
(-0.142324 0.352802 0.0781651)
(-0.106099 0.382596 0.0937115)
(-0.137632 0.538778 0.096686)
(-0.261882 0.497856 0.0682874)
(-0.340664 0.29963 0.032254)
(-0.184004 0.0508772 -0.0459384)
(0.0628284 -0.0382513 -0.106747)
(0.207823 0.0130679 -0.0854803)
(0.278514 0.119768 -0.0594867)
(0.197926 0.0736937 0.0301065)
(-0.0420807 0.190646 0.0262312)
(-0.0185963 0.157966 0.0363509)
(-0.032428 0.403537 0.0907776)
(-0.19002 0.43886 0.11477)
(-0.304167 0.229058 0.0806881)
(-0.122904 -0.0200695 -0.0651058)
(0.0853489 -0.0462178 -0.139165)
(0.224594 0.0476838 -0.0981481)
(0.295967 0.189703 -0.0104896)
(0.204157 0.171247 0.0579293)
(0.0885378 0.148402 -0.004876)
(0.0486401 0.115899 0.00202383)
(-0.0355172 0.349842 0.0526645)
(-0.213964 0.388606 0.126872)
(-0.301966 0.170917 0.0482435)
(-0.0680332 -0.042389 -0.1672)
(0.082995 0.00654696 -0.187412)
(0.223837 0.128896 -0.146758)
(0.312904 0.271481 -0.00915982)
(0.204328 0.25293 0.0725479)
(0.14049 0.143298 0.0029747)
(0.0606876 0.17687 0.0115643)
(-0.111413 0.397131 0.0369024)
(-0.285895 0.355351 0.0859863)
(-0.277163 0.131418 -0.0587824)
(-0.05645 0.0200488 -0.232467)
(0.0739818 0.117491 -0.223314)
(0.212745 0.252068 -0.193023)
(0.318303 0.373831 -0.0283572)
(0.202417 0.329169 0.0784317)
(0.00311457 -0.000875084 0.00389021)
(-0.000543292 -0.000958939 0.0041729)
(-0.00375306 -0.00128306 0.00477869)
(-0.00628022 -0.00168998 0.00539698)
(-0.00796102 -0.00219579 0.00593877)
(-0.00886399 -0.00294785 0.00640556)
(-0.00863222 -0.00382619 0.00676466)
(-0.00679729 -0.00510444 0.00697957)
(-0.00291183 -0.00541642 0.00753603)
(6.58709e-05 -0.00405577 0.00756633)
(0.00362738 -0.00356875 0.00388584)
(0.000532123 -0.00308161 0.0037857)
(-0.00219742 -0.00345749 0.00409453)
(-0.0044264 -0.00434021 0.00461989)
(-0.0060892 -0.00544275 0.00517066)
(-0.00709654 -0.00694142 0.00552073)
(-0.00736492 -0.00913139 0.00550118)
(-0.00558999 -0.0129358 0.0051879)
(-0.00122537 -0.0139778 0.00613794)
(0.00127886 -0.00931681 0.0060609)
(0.0031638 -0.0062465 0.00729122)
(-0.00147566 -0.00504019 0.00616568)
(-0.00526255 -0.00537733 0.00589389)
(-0.00789952 -0.00651665 0.00610639)
(-0.00985758 -0.00825506 0.00629889)
(-0.0116419 -0.0107941 0.00620648)
(-0.013684 -0.0146496 0.00595827)
(-0.0123468 -0.0230218 0.00767412)
(-0.00613559 -0.0245111 0.0127186)
(0.00166663 -0.0126476 0.00987904)
(0.00386778 -0.00551071 0.0164154)
(-0.00198111 -0.00413061 0.0132863)
(-0.00767825 -0.00621796 0.011125)
(-0.0120388 -0.00933227 0.00991645)
(-0.0159461 -0.0121286 0.00890216)
(-0.0193758 -0.0144094 0.00803241)
(-0.0234722 -0.0210375 0.0100387)
(-0.0233408 -0.0406785 0.0212242)
(-0.0224373 -0.0486423 0.0332212)
(-0.00213282 -0.0252987 0.0187312)
(0.00642407 -0.00670522 0.029526)
(0.00173513 -0.00256586 0.0255528)
(-0.00597788 -0.00436282 0.0229265)
(-0.0126929 -0.0065587 0.0201106)
(-0.0171364 -0.010421 0.0162138)
(-0.0202332 -0.0153655 0.0138103)
(-0.0269575 -0.0286828 0.0211107)
(-0.0362187 -0.0572944 0.0439229)
(-0.0421491 -0.0733916 0.0590865)
(-0.0134004 -0.0454696 0.0423012)
(0.000371869 -0.00162357 0.0316745)
(-0.00141473 0.0101917 0.0267666)
(-0.00496578 0.00905236 0.0288114)
(-0.00435473 0.000815599 0.0304329)
(-0.00828273 -0.0107459 0.0298357)
(-0.0144682 -0.0184272 0.0287254)
(-0.0257571 -0.0285671 0.0402053)
(-0.0382181 -0.0640409 0.0635915)
(-0.0418693 -0.108815 0.0731748)
(-0.0249214 -0.0934449 0.0603079)
(-0.00227209 -0.00850823 0.0108779)
(-0.0148472 -0.00648128 0.0116945)
(-0.031942 -0.0118371 0.0246881)
(-0.0372679 -0.0121451 0.0336322)
(-0.0326319 -0.0155465 0.042696)
(-0.0278404 -0.0184839 0.0500709)
(-0.0323843 -0.0336968 0.0639857)
(-0.0316119 -0.0892053 0.0792447)
(-0.0336496 -0.141372 0.0689728)
(-0.0168617 -0.144765 0.0314806)
(-0.014212 0.0425744 -0.0904705)
(-0.0011111 0.037148 -0.0839925)
(0.00419603 0.0272833 -0.0698767)
(-0.00364562 0.00483978 -0.0295782)
(-0.017379 -0.0315411 0.0131075)
(-0.0142054 -0.0632931 0.0349378)
(-0.0130359 -0.0886376 0.0509285)
(-0.00600886 -0.135575 0.0654837)
(-0.0352699 -0.169618 0.0655916)
(0.0239105 -0.174288 -0.0190266)
(-0.0778745 0.0495156 -0.0657245)
(-0.0608312 0.032329 -0.0669484)
(-0.0112099 0.0353088 -0.0646369)
(0.00697853 0.0352099 -0.064105)
(-0.0291148 -0.00019587 -0.0936326)
(-0.0168574 -0.0371071 -0.0812919)
(0.00464187 -0.052498 -0.052442)
(0.0343313 -0.0746 -0.00453403)
(-0.0245973 -0.140451 0.0498874)
(0.0787335 -0.14317 -0.0489901)
(-0.217058 0.283804 0.195031)
(-0.257766 0.227579 0.261648)
(-0.217811 0.18211 0.20562)
(-0.174444 0.115571 0.221915)
(-0.133871 -0.012965 0.180663)
(-0.169813 -0.140871 0.150758)
(-0.122479 -0.144966 0.0774912)
(-0.0101492 -0.0988923 0.0647646)
(-0.0535306 -0.153471 0.0689003)
(0.0902784 -0.106015 -0.022305)
(-0.175437 0.402939 0.134553)
(-0.243585 0.346171 0.108245)
(-0.233115 0.24175 0.0905074)
(-0.169557 0.0501921 0.0968595)
(-0.153402 -0.190882 0.0596276)
(-0.254002 -0.208166 0.0478179)
(-0.183849 -0.407469 0.0416997)
(-0.0181597 -0.464039 0.100916)
(-0.129942 -0.367165 0.0857336)
(0.116132 -0.104555 0.00410068)
(-0.0170427 0.443007 -0.0308518)
(-0.071664 0.392273 -0.0447436)
(-0.0841101 0.325245 -0.119654)
(-0.0609884 0.23238 -0.171339)
(-0.0314131 0.185759 -0.204964)
(0.0320949 0.18436 -0.183735)
(0.0732802 0.0729043 -0.173448)
(0.19904 -0.163932 -0.0465782)
(-0.0771498 -0.350371 0.0486877)
(0.127971 -0.24844 0.0664974)
(0.115701 0.495094 -0.0786273)
(0.0570233 0.437307 -0.106842)
(0.0220779 0.364385 -0.184317)
(-0.0609506 0.311989 -0.228529)
(-0.101302 0.278247 -0.251989)
(-0.0131316 0.238563 -0.255006)
(0.045707 0.0972883 -0.276407)
(0.210086 0.1227 -0.372699)
(0.250024 0.129982 -0.147054)
(0.0550585 -0.379944 0.140567)
(0.112482 0.626011 0.0438794)
(0.00149115 0.510347 -0.0265407)
(-0.0736667 0.434275 -0.144839)
(-0.191976 0.397136 -0.173186)
(-0.206467 0.339477 -0.159239)
(-0.107048 0.23842 -0.179866)
(0.0379163 0.0542391 -0.252665)
(0.201527 0.132642 -0.320012)
(0.19386 0.17144 -0.0145809)
(0.0839684 -0.18061 0.124648)
(0.0185746 0.764933 0.192493)
(-0.155226 0.615032 0.0916698)
(-0.271875 0.502407 -0.0397761)
(-0.352966 0.445983 -0.0471872)
(-0.31384 0.320026 -0.0313141)
(-0.149023 0.101779 -0.110925)
(0.12171 -0.150412 -0.234029)
(0.310984 -0.00380373 -0.259458)
(0.20336 0.347857 -0.138427)
(0.139128 -0.187592 0.0703761)
(-0.0800369 0.803828 0.289172)
(-0.224948 0.694789 0.205103)
(-0.364182 0.588931 0.10759)
(-0.438482 0.439304 0.0919185)
(-0.345539 0.157685 0.0225261)
(-0.0673765 -0.159565 -0.193064)
(0.155248 -0.296552 -0.264686)
(0.286424 -0.126182 -0.195818)
(0.248019 0.368593 -0.142277)
(0.211388 -0.11905 0.0652678)
(-0.135777 0.693226 0.30043)
(-0.171871 0.643003 0.264418)
(-0.27805 0.64137 0.229558)
(-0.39236 0.438494 0.196215)
(-0.299382 0.0455039 0.0246831)
(0.0105724 -0.266713 -0.295109)
(0.119448 -0.300473 -0.313304)
(0.1804 -0.0579363 -0.212584)
(0.210545 0.350335 -0.0797603)
(0.201752 0.102993 0.141489)
(-0.105022 0.520956 0.221113)
(-0.0757871 0.457303 0.220966)
(-0.130395 0.613768 0.259385)
(-0.297979 0.450063 0.24332)
(-0.24297 -0.00316056 0.012678)
(0.0263243 -0.272738 -0.330147)
(0.0515241 -0.226061 -0.345363)
(0.080825 0.0589942 -0.2844)
(0.139744 0.367342 -0.0520207)
(0.175492 0.231466 0.184612)
(0.0286298 0.403491 0.117394)
(0.0326963 0.300967 0.123113)
(-0.0260809 0.55279 0.203894)
(-0.227312 0.479743 0.222193)
(-0.143302 -0.0215703 -0.0864207)
(-0.00946614 -0.227295 -0.365928)
(-0.0188828 -0.105509 -0.375492)
(0.00331063 0.193134 -0.360277)
(0.0695006 0.438237 -0.0833721)
(0.154555 0.356182 0.189096)
(0.179751 0.303132 0.0772179)
(0.152681 0.267064 0.0896923)
(0.0221087 0.533107 0.137997)
(-0.198873 0.533996 0.146776)
(-0.0723063 0.069242 -0.227942)
(-0.0695409 -0.125183 -0.384048)
(-0.081913 0.0408489 -0.408303)
(-0.0532468 0.329079 -0.41098)
(0.0107281 0.551523 -0.142981)
(0.139281 0.477559 0.183992)
(0.00312934 -0.00162511 0.0109498)
(-0.000113763 -0.00150533 0.0105547)
(-0.00294829 -0.00161467 0.0105571)
(-0.00521588 -0.00181444 0.0107375)
(-0.00668173 -0.0020557 0.0110963)
(-0.00749964 -0.0025827 0.0115643)
(-0.00736151 -0.00334891 0.0121756)
(-0.00577458 -0.00455867 0.0129327)
(-0.00231319 -0.00484601 0.0139526)
(0.000228392 -0.0032127 0.012307)
(0.00349332 -0.00662803 0.010846)
(0.000854429 -0.00545119 0.009767)
(-0.0011942 -0.00462465 0.0093806)
(-0.00299107 -0.00454295 0.00948158)
(-0.00446089 -0.00499773 0.00988591)
(-0.00548777 -0.0059984 0.010347)
(-0.00588342 -0.00782496 0.0108232)
(-0.0042719 -0.0115033 0.0117507)
(-0.000184246 -0.0123549 0.0131117)
(0.00146293 -0.00711182 0.0101013)
(0.00319694 -0.0111723 0.0130107)
(-0.000864665 -0.00965145 0.0113138)
(-0.00366461 -0.00821594 0.0104898)
(-0.00585774 -0.00751634 0.010621)
(-0.00760872 -0.00779131 0.0111844)
(-0.00919747 -0.00959224 0.0118672)
(-0.0111492 -0.013582 0.0134264)
(-0.00955312 -0.0222243 0.0180432)
(-0.00182628 -0.02204 0.0216904)
(0.00252504 -0.00908607 0.0140654)
(0.00342481 -0.0113389 0.0174948)
(-0.00177216 -0.01084 0.0155372)
(-0.00583409 -0.0107063 0.0137417)
(-0.0089079 -0.0110021 0.0131577)
(-0.0123692 -0.0122247 0.0138757)
(-0.016743 -0.0140727 0.0155288)
(-0.02229 -0.0206179 0.0206632)
(-0.0205488 -0.0389674 0.0330709)
(-0.0129979 -0.0393916 0.0383932)
(0.00263661 -0.0151157 0.0209436)
(0.00413858 -0.0075335 0.0223993)
(-0.00189394 -0.0077541 0.0206407)
(-0.0082913 -0.00870914 0.0199075)
(-0.0135903 -0.00883178 0.0192742)
(-0.0175969 -0.00958475 0.0188206)
(-0.0216198 -0.0126961 0.0204886)
(-0.0298527 -0.0262905 0.0308568)
(-0.0330418 -0.0530156 0.0521205)
(-0.0327417 -0.0522532 0.0582864)
(-0.00322814 -0.0219518 0.0311806)
(0.00460006 0.0048492 0.0227279)
(5.32693e-05 0.00580135 0.0200436)
(-0.00655287 0.00207566 0.0243717)
(-0.0113445 -0.00203552 0.0274129)
(-0.0184055 -0.00974928 0.030654)
(-0.0253068 -0.0148438 0.0351535)
(-0.0354258 -0.0265251 0.0501264)
(-0.0416191 -0.0504254 0.0714442)
(-0.0435303 -0.0540199 0.0715681)
(-0.0128504 -0.0327325 0.0524028)
(0.00433198 0.00617393 -0.00137602)
(-0.00928151 0.00229027 -0.000305053)
(-0.026545 -0.000526093 0.0100199)
(-0.0336576 0.00028283 0.0225948)
(-0.0365373 -0.0018153 0.0382582)
(-0.0376944 -0.00439962 0.0548502)
(-0.0425945 -0.0148503 0.0739597)
(-0.0427209 -0.0410592 0.0874047)
(-0.0437933 -0.0510133 0.0705672)
(-0.0169973 -0.0517097 0.0447864)
(-0.00475975 0.0351745 -0.128449)
(0.0180718 0.0281433 -0.119702)
(0.0270468 0.0195143 -0.104082)
(0.012131 0.00812383 -0.0683512)
(-0.0126617 -0.00177912 -0.0106263)
(-0.0241612 -0.0101024 0.0470207)
(-0.0301024 -0.0327084 0.0728348)
(-0.0266596 -0.0718896 0.0751813)
(-0.033541 -0.0955053 0.0527283)
(0.0168255 -0.115279 -0.00578956)
(-0.126106 0.00764625 -0.167544)
(-0.162256 0.00287458 -0.214082)
(-0.0766876 0.0168778 -0.19888)
(-0.0124029 0.0425921 -0.1238)
(-0.0206738 0.0431386 -0.0595589)
(-0.00888251 0.0209243 -0.0423842)
(0.0043376 -0.0129231 -0.0460381)
(0.0555715 -0.0342543 -0.0395752)
(0.0387144 -0.0526304 -0.00308973)
(0.109612 -0.0626731 -0.0432658)
(-0.270104 0.127519 -0.298913)
(-0.311167 0.00658669 -0.371693)
(-0.339812 -0.0699525 -0.361408)
(-0.274265 -0.0201814 -0.152997)
(-0.128517 0.0123451 0.172303)
(-0.0983221 -0.0608604 0.201507)
(-0.13084 -0.126785 0.160418)
(-0.018622 -0.168596 0.196888)
(-0.0817622 -0.160577 0.135036)
(0.123816 -0.0241049 -0.00893468)
(-0.0433915 0.258357 -0.167493)
(-0.0242474 0.201934 -0.203227)
(-0.0571452 0.161841 -0.281684)
(-0.0542899 0.200837 -0.333018)
(-0.00641772 0.341602 -0.259493)
(0.111339 0.372067 -0.256709)
(0.0235527 0.257973 -0.382717)
(0.0575679 -0.279953 0.00648175)
(-0.0850664 -0.277294 0.0357443)
(0.172615 -0.0852497 0.0804307)
(0.172154 0.24473 -0.204119)
(0.194891 0.194635 -0.176532)
(0.155212 0.1423 -0.196861)
(0.0777553 0.107727 -0.238273)
(-0.00989815 0.184477 -0.317781)
(0.0796737 0.346585 -0.404141)
(0.0187774 0.244599 -0.519922)
(0.178205 0.292047 -0.454385)
(-0.0551942 0.114039 -0.393373)
(0.0899558 -0.439902 0.197262)
(0.315027 0.275812 -0.197063)
(0.311667 0.227616 -0.147092)
(0.238372 0.18382 -0.128253)
(0.0354435 0.164029 -0.138155)
(-0.138881 0.164445 -0.243977)
(-0.109549 0.179211 -0.345916)
(-0.0146883 0.0179986 -0.394272)
(0.186766 0.161218 -0.467961)
(0.00571384 0.237613 -0.442023)
(0.0292746 -0.25686 0.240909)
(0.381004 0.327649 -0.059166)
(0.335893 0.295146 -0.0174754)
(0.192696 0.284468 -0.0213448)
(-0.134163 0.272032 -0.0663409)
(-0.236764 0.195688 -0.164858)
(-0.151213 0.0752025 -0.260672)
(0.101169 -0.128052 -0.28679)
(0.197855 -0.0135627 -0.258226)
(0.0636441 0.34853 -0.337261)
(0.082795 -0.101486 0.155132)
(0.317261 0.449218 0.170308)
(0.186382 0.432345 0.168347)
(-0.036717 0.40694 0.0643629)
(-0.297532 0.340326 -0.0149275)
(-0.273418 0.179297 -0.0972674)
(-0.0650222 -0.0599908 -0.245338)
(0.19256 -0.271328 -0.30962)
(0.297944 -0.0937906 -0.183346)
(0.089249 0.435473 -0.201363)
(0.0961597 0.0442578 0.117406)
(0.157401 0.583226 0.362846)
(0.00154536 0.570489 0.322448)
(-0.216126 0.492311 0.162211)
(-0.355334 0.342106 0.0522714)
(-0.236388 0.0865698 -0.10137)
(0.0374649 -0.262448 -0.331526)
(0.16193 -0.375573 -0.349732)
(0.242077 -0.108513 -0.199506)
(0.0769874 0.482358 -0.0890726)
(0.111304 0.128483 0.124596)
(-0.00671549 0.62476 0.436486)
(-0.0742188 0.618307 0.407337)
(-0.203525 0.55818 0.283494)
(-0.30237 0.335244 0.147)
(-0.166409 -0.0112123 -0.108615)
(0.047977 -0.370613 -0.370032)
(0.046436 -0.371889 -0.373978)
(0.0477154 0.015373 -0.278228)
(4.19872e-05 0.504383 -0.031155)
(0.0866626 0.249992 0.120868)
(-0.080244 0.551814 0.365708)
(-0.0538042 0.512771 0.375303)
(-0.064753 0.568974 0.349607)
(-0.181088 0.38125 0.225647)
(-0.0722261 -0.00549605 -0.102403)
(-0.00546683 -0.381303 -0.382562)
(-0.0845866 -0.292543 -0.402659)
(-0.115401 0.127303 -0.377718)
(-0.0783007 0.525358 -0.0695023)
(0.0351953 0.322186 0.0984212)
(0.0286717 0.436354 0.244927)
(0.0532969 0.369088 0.257065)
(0.0739422 0.490569 0.310599)
(-0.0589553 0.445533 0.237588)
(0.0106092 0.0690086 -0.165666)
(-0.080624 -0.323323 -0.390625)
(-0.179041 -0.200683 -0.440698)
(-0.207122 0.199074 -0.444712)
(-0.147679 0.569104 -0.192987)
(-0.00952289 0.349286 0.0552882)
(0.206193 0.308318 0.188535)
(0.214785 0.296923 0.200619)
(0.16804 0.428715 0.242118)
(0.0132875 0.50071 0.185374)
(0.0135358 0.145279 -0.259569)
(-0.154779 -0.230978 -0.395531)
(-0.248681 -0.115557 -0.480438)
(-0.249582 0.232143 -0.493793)
(-0.179186 0.603588 -0.312907)
(-0.0298794 0.427412 -0.00513438)
(0.00264445 -0.000207129 0.0176106)
(-0.000584612 -0.000397661 0.0165196)
(-0.00282347 -0.000652158 0.015577)
(-0.00464109 -0.00095789 0.0149616)
(-0.0057768 -0.00118902 0.0148399)
(-0.00641447 -0.00157848 0.0150822)
(-0.00624734 -0.00216345 0.0156771)
(-0.00495168 -0.0031113 0.0167045)
(-0.0020608 -0.00328524 0.0179544)
(0.000213236 -0.00196478 0.0151692)
(0.00287847 -0.00292473 0.0179377)
(-0.000228616 -0.00313695 0.0159637)
(-0.0013654 -0.00283195 0.0144088)
(-0.00230364 -0.00277417 0.0136196)
(-0.00323546 -0.0030709 0.0134856)
(-0.00404187 -0.00372761 0.0138003)
(-0.00434966 -0.0047848 0.0144926)
(-0.00311011 -0.007196 0.0158759)
(-0.000279876 -0.00777615 0.0173633)
(0.00110397 -0.00407563 0.0129565)
(0.00324898 -0.00476407 0.019012)
(-0.00104649 -0.00637062 0.0173164)
(-0.00291175 -0.00606247 0.0157913)
(-0.00429147 -0.00490639 0.0152358)
(-0.00546359 -0.00428785 0.0154788)
(-0.00626412 -0.00519577 0.0161783)
(-0.00695505 -0.00769557 0.0179922)
(-0.00503098 -0.012675 0.0223556)
(-2.01019e-05 -0.0121254 0.0251931)
(0.00152057 -0.00459175 0.0168853)
(0.0049708 -0.00318025 0.0190151)
(0.00033576 -0.00737496 0.0191922)
(-0.00299975 -0.00904549 0.0183058)
(-0.0051325 -0.00842024 0.0178937)
(-0.00765081 -0.00839879 0.0190007)
(-0.0106104 -0.00952408 0.0214687)
(-0.0135717 -0.0122452 0.0268744)
(-0.0105314 -0.0200321 0.0375106)
(-0.00263045 -0.0179315 0.0395703)
(0.00195422 -0.00704945 0.0239697)
(0.0062262 -0.00209466 0.0187824)
(0.00170511 -0.00567714 0.0206963)
(-0.00422421 -0.00813618 0.02197)
(-0.00879322 -0.00656672 0.0217525)
(-0.0124647 -0.00476639 0.0229716)
(-0.0148878 -0.00610925 0.0264949)
(-0.0192713 -0.0123569 0.0358593)
(-0.0177145 -0.0251639 0.0510165)
(-0.0129151 -0.0208383 0.047678)
(-0.00237403 -0.00708919 0.0249178)
(0.00739425 0.00231694 0.0201192)
(0.00418873 0.00163949 0.0244814)
(-0.00399789 -0.00389118 0.0287736)
(-0.0100622 -0.0061347 0.0309379)
(-0.016418 -0.00865288 0.0330915)
(-0.0227068 -0.0102215 0.0393612)
(-0.028423 -0.0137367 0.0517998)
(-0.0290823 -0.0233825 0.0642912)
(-0.0252796 -0.0167844 0.0500998)
(-0.00958749 -0.0158389 0.0311814)
(0.008452 0.0041538 0.000110564)
(-0.00540811 0.000675042 0.01296)
(-0.0204445 0.000166267 0.0226355)
(-0.0270484 0.00268944 0.0323034)
(-0.0296325 0.0034184 0.0408683)
(-0.0319669 -0.00177769 0.0524248)
(-0.0380336 -0.00555958 0.0683159)
(-0.0411332 -0.00793889 0.0781091)
(-0.0403134 0.00562203 0.0624695)
(-0.0187001 -0.00864453 0.0440572)
(0.00594519 0.0192257 -0.114413)
(0.0358813 0.0170753 -0.107792)
(0.0474043 0.00759906 -0.097654)
(0.0314434 -0.00698454 -0.0646369)
(9.65128e-06 -0.00783917 -0.00792289)
(-0.0182836 0.00833972 0.043019)
(-0.034292 0.0128169 0.0796049)
(-0.0385656 -0.00952411 0.0918682)
(-0.0459762 -0.0275691 0.063452)
(0.018322 -0.0739625 -0.006479)
(-0.304623 -0.0414866 -0.165257)
(-0.299886 -0.0294428 -0.181326)
(-0.2325 -0.00181596 -0.131363)
(-0.0775195 0.0249194 -0.096507)
(-0.0586713 0.032567 -0.0296644)
(-0.0253008 0.0296209 0.0277597)
(-0.00790291 0.0309599 0.0404762)
(0.0532124 -0.00177963 0.0269361)
(0.0322625 -0.0248267 0.0493603)
(0.117103 -0.0159529 -0.0219874)
(-0.245176 0.0625599 -0.2016)
(-0.222556 -0.0342077 -0.217226)
(-0.209378 -0.0738821 -0.273786)
(-0.180869 -0.16594 -0.353577)
(-0.0895885 -0.0908711 -0.427445)
(0.0458087 -0.10845 -0.334258)
(-0.0589129 -0.103579 -0.0812954)
(0.000719658 -0.110231 0.219906)
(-0.145844 -0.0775573 0.17163)
(0.165379 0.027767 0.0279503)
(0.0728053 0.0826684 -0.161452)
(0.10719 -0.0165147 -0.124245)
(0.092325 -0.0647575 -0.138214)
(0.0859278 -0.062377 -0.163184)
(0.0764172 0.0793836 -0.202626)
(0.135067 0.240304 -0.351129)
(-0.0493409 0.287019 -0.349784)
(0.106967 0.364439 -0.244351)
(-0.139756 0.190756 -0.162329)
(0.143721 -0.119641 0.337089)
(0.227642 0.0517231 -0.233137)
(0.209418 -0.0213424 -0.159566)
(0.151348 -0.0296502 -0.145048)
(0.0950644 -0.0432557 -0.162306)
(-0.00239334 -0.0518443 -0.193297)
(0.0134259 0.167849 -0.253126)
(-0.0417377 0.195189 -0.347388)
(0.169052 0.388235 -0.401493)
(-0.034389 0.348358 -0.359955)
(0.0100432 0.105039 0.127626)
(0.29888 0.108344 -0.217984)
(0.23795 0.0446177 -0.130604)
(0.146167 0.0384162 -0.0983997)
(0.061759 0.0549164 -0.103279)
(-0.0667131 0.0427131 -0.172825)
(-0.128041 0.0730411 -0.270356)
(0.0713108 -0.0953677 -0.285246)
(0.224025 0.0452387 -0.260941)
(0.0993943 0.349622 -0.335318)
(-0.0111381 0.31248 -0.00859772)
(0.322688 0.0893742 -0.0879712)
(0.266075 0.0689507 -0.0124583)
(0.140507 0.133057 0.0273088)
(-0.0159205 0.178619 0.00118054)
(-0.0950916 0.09365 -0.131993)
(-0.0443546 -0.0471515 -0.279356)
(0.2034 -0.277456 -0.281287)
(0.323465 -0.156087 -0.115722)
(0.176892 0.32936 -0.143327)
(-0.0145313 0.512296 -0.050377)
(0.305618 0.108871 0.139099)
(0.229173 0.196676 0.192878)
(0.0566346 0.271618 0.161121)
(-0.11376 0.252993 0.065946)
(-0.116955 0.0707103 -0.102351)
(0.0477242 -0.306705 -0.283434)
(0.200152 -0.460732 -0.319583)
(0.293003 -0.22948 -0.148885)
(0.139091 0.352434 0.00767039)
(-0.0645052 0.673875 -0.012284)
(0.169678 0.246182 0.358972)
(0.100587 0.354783 0.383373)
(-0.0417197 0.371195 0.267441)
(-0.140688 0.260437 0.107385)
(-0.0686452 -0.011109 -0.106895)
(0.0507676 -0.49466 -0.314349)
(0.0755774 -0.536252 -0.355848)
(0.0895695 -0.15729 -0.22371)
(-0.003135 0.471122 0.0548091)
(-0.0954293 0.669495 0.0175435)
(0.00635741 0.339217 0.457566)
(0.00861605 0.423738 0.482689)
(-0.0260384 0.412584 0.368495)
(-0.0795054 0.241824 0.175515)
(0.0316777 -0.080939 -0.116102)
(-0.0148236 -0.538135 -0.326647)
(-0.0915779 -0.499023 -0.377637)
(-0.139747 -0.0151013 -0.313795)
(-0.136452 0.57348 -0.0181021)
(-0.109238 0.61282 0.00744964)
(-0.0186513 0.318132 0.411943)
(0.0238133 0.362466 0.445535)
(0.0740258 0.382819 0.417133)
(0.0290284 0.243739 0.240737)
(0.0571844 -0.0776272 -0.145883)
(-0.112513 -0.526133 -0.332981)
(-0.217408 -0.4495 -0.400307)
(-0.262388 0.0201973 -0.377389)
(-0.222856 0.59704 -0.169191)
(-0.115492 0.540275 -0.0429167)
(0.12991 0.253448 0.326054)
(0.154759 0.287877 0.345105)
(0.178729 0.318616 0.377345)
(0.112386 0.277309 0.253765)
(0.0171625 -0.0254011 -0.187574)
(-0.191774 -0.469009 -0.33019)
(-0.289863 -0.404558 -0.429818)
(-0.300508 -0.015828 -0.419339)
(-0.239669 0.509772 -0.297005)
(-0.0981794 0.443672 -0.112666)
(0.273713 0.192005 0.247794)
(0.294639 0.24949 0.285996)
(0.255969 0.301074 0.326657)
(0.136731 0.341107 0.23361)
(-0.0470952 0.0100228 -0.188838)
(-0.244847 -0.389676 -0.331889)
(-0.332389 -0.372035 -0.479956)
(-0.301894 -0.116986 -0.487522)
(-0.190797 0.325359 -0.364765)
(-0.0645846 0.36213 -0.166816)
(0.00198821 0.00246692 0.0209284)
(-0.00166608 0.00138049 0.0193972)
(-0.00342032 0.000651936 0.0180234)
(-0.00477509 0.000100662 0.0171792)
(-0.00553499 -0.000282402 0.0168975)
(-0.00594241 -0.000626642 0.0169977)
(-0.00566903 -0.00108018 0.0174609)
(-0.00442641 -0.00186325 0.018422)
(-0.00183955 -0.00192802 0.0197075)
(0.000265458 -0.000787229 0.0163017)
(0.00212938 0.00306986 0.0223119)
(-0.00191133 0.000453114 0.0197384)
(-0.00242698 -0.000848055 0.0172047)
(-0.0025793 -0.00134742 0.0157106)
(-0.00286697 -0.0016297 0.0152414)
(-0.0033693 -0.00205392 0.0154602)
(-0.00363631 -0.00263719 0.0161375)
(-0.0026571 -0.00416729 0.01742)
(-0.000452865 -0.00440863 0.0188969)
(0.000984641 -0.00159009 0.0141249)
(0.00317186 0.00516102 0.0209848)
(-0.00132813 -0.000500049 0.0208897)
(-0.00280556 -0.00323473 0.0191646)
(-0.00372616 -0.00295517 0.0178809)
(-0.00452682 -0.00182453 0.0176838)
(-0.00493558 -0.00178257 0.0181663)
(-0.0049272 -0.00306654 0.0194513)
(-0.00320869 -0.00613274 0.022459)
(-0.000437372 -0.00573868 0.0247229)
(0.000705488 -0.000808154 0.0176556)
(0.00458864 0.00880786 0.0186132)
(0.000625677 0.000510051 0.0216957)
(-0.00159174 -0.00514033 0.0217752)
(-0.00306767 -0.00588373 0.0207053)
(-0.00477312 -0.00537749 0.0210406)
(-0.00661526 -0.00592349 0.0230983)
(-0.00803861 -0.00690051 0.0272756)
(-0.00521574 -0.00962932 0.0345145)
(-0.000769089 -0.00764668 0.0366154)
(0.000348206 -0.00301261 0.0240272)
(0.00568479 0.0160113 0.0193355)
(0.00196861 0.00392999 0.0228137)
(-0.00155624 -0.00539064 0.0249035)
(-0.00480847 -0.00465826 0.0243351)
(-0.00782942 -0.00131724 0.0250029)
(-0.00935502 -0.00103385 0.0284542)
(-0.0111293 -0.00333252 0.0352756)
(-0.00888324 -0.00655911 0.0447136)
(-0.0063918 -0.00278218 0.0404614)
(-0.00450619 0.00122345 0.0226536)
(0.00604264 0.020728 0.015764)
(0.00197555 0.00243055 0.0251446)
(-0.00524948 -0.00823116 0.0302903)
(-0.00755173 -0.00909077 0.0326388)
(-0.0111595 -0.00853922 0.0329537)
(-0.0157813 -0.00815715 0.0388879)
(-0.0195181 -0.00578315 0.0495492)
(-0.0166614 -0.00405643 0.0540395)
(-0.0153352 0.00132926 0.0330555)
(-0.0125191 -0.0122816 0.0208502)
(0.00505669 0.0253609 -0.0056306)
(-0.00186416 0.00619499 0.01377)
(-0.00646421 -0.00121269 0.0214836)
(-0.0107833 -0.00225849 0.0354164)
(-0.0202162 -0.000993369 0.0461696)
(-0.0201881 -0.0028502 0.052197)
(-0.0250863 -0.00269102 0.0620315)
(-0.0294227 0.00189789 0.0666474)
(-0.0340993 0.011339 0.0518396)
(-0.0140932 -0.0190186 0.0343014)
(-0.00444332 -0.0105351 -0.084152)
(0.0310812 -0.00852824 -0.0909882)
(0.0442597 -0.0131616 -0.0824552)
(0.0335066 -0.021614 -0.0507597)
(0.00539228 -0.0286793 -0.00554004)
(-0.00811481 -0.0216266 0.0411848)
(-0.015051 0.0054748 0.07169)
(-0.0125833 0.0101158 0.0889976)
(-0.0242645 0.00310352 0.0603367)
(0.0515447 -0.0464826 -0.0142358)
(-0.455433 -0.0247069 -0.299694)