/*--------------------------------*- C++ -*----------------------------------*\
| =========                 |                                                 |
| \\      /  F ield         | OpenFOAM: The Open Source CFD Toolbox           |
|  \\    /   O peration     | Version:  2312                                  |
|   \\  /    A nd           | Website:  www.openfoam.com                      |
|    \\/     M anipulation  |                                                 |
\*---------------------------------------------------------------------------*/
FoamFile
{
    version     2.0;
    format      ascii;
    arch        "LSB;label=32;scalar=64";
    class       surfaceScalarField;
    location    "0.97";
    object      alphaPhi0.water;
}
// * * * * * * * * * * * * * * * * * * * * * * * * * * * * * * * * * * * * * //

dimensions      [0 3 -1 0 0 0 0];

oriented        oriented;

internalField   nonuniform List<scalar> 
22600
(
2.76864e-08
7.63078e-08
-1.91803e-07
1.1599e-07
9.63529e-08
-1.84657e-07
1.7069e-07
1.16228e-07
-1.70928e-07
1.93611e-07
1.36912e-07
-1.59833e-07
1.91442e-07
1.58582e-07
-1.56412e-07
1.70187e-07
1.85928e-07
-1.64673e-07
1.41382e-07
2.2556e-07
-1.96755e-07
1.42006e-07
2.49836e-07
-2.50459e-07
1.1661e-07
2.44051e-07
-2.18656e-07
2.60629e-07
-1.44018e-07
5.86239e-08
1.35248e-07
-2.05088e-07
1.72684e-07
1.92878e-07
-2.10585e-07
2.52611e-07
2.41473e-07
-2.05173e-07
2.96278e-07
2.91703e-07
-1.98458e-07
3.03216e-07
3.51812e-07
-2.00168e-07
2.74168e-07
4.41392e-07
-2.26416e-07
2.21779e-07
5.74417e-07
-2.96467e-07
1.7094e-07
6.06599e-07
-3.05924e-07
1.25449e-07
4.17599e-07
-1.28057e-07
5.29802e-07
-1.43724e-07
1.02703e-07
7.73327e-08
-1.41129e-07
2.17015e-07
2.73075e-07
-1.94509e-07
2.94333e-07
3.78883e-07
-2.14727e-07
3.43889e-07
4.63379e-07
-2.21232e-07
3.64766e-07
5.71968e-07
-2.41033e-07
3.53291e-07
7.37785e-07
-2.84918e-07
2.22675e-07
9.37575e-07
-2.32542e-07
2.6583e-08
7.47067e-07
5.56244e-08
1.59479e-09
4.59674e-08
3.9662e-07
4.64332e-07
6.70651e-08
1.66826e-07
-2.18222e-07
-3.84454e-09
3.56935e-07
2.11713e-07
-1.28747e-07
4.42278e-07
5.00585e-07
-2.07045e-07
4.83896e-07
6.64531e-07
-2.42769e-07
5.1736e-07
8.10975e-07
-2.72471e-07
4.82459e-07
1.02065e-06
-2.47963e-07
8.26456e-08
1.25333e-06
8.40582e-08
-4.42216e-07
7.80166e-07
4.91755e-07
-3.84902e-07
-7.30874e-07
7.19527e-07
-3.6529e-07
4.4472e-07
1.71591e-07
-4.12543e-07
-1.04867e-07
4.3512e-07
2.51444e-08
-7.69604e-08
6.15209e-07
4.18456e-07
-9.79604e-08
7.3477e-07
6.58036e-07
-1.13066e-07
8.39601e-07
8.29383e-07
-1.23239e-07
8.11731e-07
1.11415e-06
-6.56329e-08
3.25943e-07
1.41205e-06
3.27068e-07
-3.49296e-07
8.2796e-07
6.28324e-07
-5.17582e-07
-6.09393e-07
5.50313e-08
-1.04319e-06
1.83525e-07
7.30941e-08
-5.07285e-08
-5.75556e-07
3.93133e-07
1.64515e-07
-4.5941e-07
7.13363e-07
4.70983e-07
-3.72756e-07
1.00132e-06
6.99258e-07
-3.29179e-07
1.21828e-06
8.57417e-07
-2.44991e-07
1.27111e-06
1.08901e-06
-2.76969e-08
1.00637e-06
1.26857e-06
4.08218e-07
5.35371e-07
6.62747e-07
6.36213e-07
1.73839e-07
1.47091e-07
-3.98902e-07
-4.24671e-07
-4.58535e-07
1.803e-08
5.67801e-07
-1.09417e-06
5.31114e-07
6.47972e-07
-1.02034e-06
1.08148e-06
8.5505e-07
-9.34429e-07
1.54862e-06
1.09895e-06
-8.66827e-07
1.79835e-06
1.35571e-06
-7.48029e-07
1.76585e-06
1.53114e-06
-4.09629e-07
1.41847e-06
1.4641e-06
1.51854e-07
7.9248e-07
9.12049e-07
3.76687e-07
4.50204e-07
1.07222e-06
-5.94209e-07
9.08039e-07
-8.94102e-07
-1.15304e-07
7.90143e-07
-1.45639e-06
6.84348e-07
8.67419e-07
-1.4058e-06
1.47902e-06
1.02057e-06
-1.40361e-06
2.10805e-06
1.26955e-06
-1.34319e-06
2.34768e-06
1.68274e-06
-1.23255e-06
2.23447e-06
2.19064e-06
-1.07082e-06
1.67119e-06
2.42048e-06
-6.52351e-07
9.478e-07
2.18939e-06
-5.53949e-07
5.80474e-07
2.49508e-06
-1.08199e-06
2.30775e-06
-8.47002e-07
-9.83221e-08
-4.12902e-09
-2.03506e-07
3.13399e-07
-4.75373e-09
-2.4758e-07
7.33163e-07
-7.37146e-09
-3.26548e-07
1.10949e-06
-3.7195e-09
-4.52245e-07
1.36494e-06
1.16884e-07
-6.65059e-07
1.30124e-06
8.19229e-07
-8.92766e-07
9.08556e-07
1.81829e-06
-8.37796e-07
6.03233e-07
2.36233e-06
-7.59935e-07
5.13405e-07
3.09767e-06
-8.32664e-07
2.75969e-06
-3.32647e-09
-2.2097e-09
5.30927e-10
-4.55604e-09
3.36583e-11
7.20327e-10
-6.09722e-09
-3.42871e-11
7.51188e-10
-1.03401e-08
-6.36327e-09
1.29811e-09
-1.89518e-08
-2.61873e-08
-1.53959e-09
-3.70268e-08
-1.17764e-07
-1.59456e-08
-4.75005e-08
-3.69362e-07
-4.26679e-08
5.08021e-08
-5.0347e-07
2.31414e-07
1.57392e-07
1.32913e-08
8.056e-07
1.45745e-07
1.43023e-06
7.43412e-07
-1.19948e-10
-1.57586e-10
5.56164e-10
8.3561e-11
-2.94109e-11
7.2015e-10
3.1443e-10
1.8407e-10
6.52594e-10
9.24145e-10
4.71546e-10
1.56673e-10
8.06524e-10
1.13092e-09
-1.15793e-09
-6.96576e-09
1.54845e-09
-1.09089e-08
-3.31849e-08
1.60743e-09
-1.47263e-08
-2.39404e-07
-6.83815e-09
-2.9634e-09
-3.45104e-07
-3.09717e-09
1.68832e-07
-6.15664e-10
5.07098e-07
-5.41868e-10
-7.04835e-10
6.28024e-10
-9.92815e-11
-2.53781e-10
6.78407e-10
-2.1512e-11
-6.2553e-11
2.33386e-10
2.11399e-10
-3.94149e-11
3.85522e-10
5.26501e-10
2.36467e-10
7.35246e-10
5.74992e-10
8.03462e-10
-2.09279e-10
2.83308e-09
-1.02227e-09
-2.09618e-09
2.69099e-09
-5.13031e-10
-5.42077e-09
-4.28246e-11
-2.69458e-11
-3.66225e-10
-1.29434e-10
-1.50487e-10
-2.14176e-10
-1.77556e-10
4.22599e-10
-1.22569e-10
-3.86814e-10
1.05958e-10
-1.0431e-10
-1.85425e-10
8.28011e-11
-1.99737e-11
-1.17522e-10
1.2605e-10
8.71122e-11
-2.32558e-11
2.47751e-10
3.48392e-10
4.34895e-10
4.46511e-10
2.21057e-10
3.05792e-10
-2.68498e-10
2.52857e-10
-2.21897e-11
-5.15549e-10
1.00405e-11
3.96257e-10
-2.74228e-10
8.61437e-10
-1.08668e-09
-1.21669e-09
-2.14042e-09
1.98907e-10
-3.83321e-10
-1.26564e-09
1.1762e-10
-2.04888e-10
-3.5579e-10
4.20114e-11
-2.72212e-10
-1.74065e-10
5.63787e-11
-4.63266e-11
-1.70355e-10
2.14143e-10
8.34025e-11
1.08519e-10
2.15495e-10
8.96969e-11
2.81742e-10
2.18082e-10
5.21544e-11
3.97469e-10
-1.00827e-10
3.11939e-11
6.20715e-10
-2.77226e-10
1.0392e-09
-1.30707e-09
-3.57227e-09
-2.0939e-09
1.6721e-11
-2.21738e-09
-1.91661e-09
-1.07896e-10
-4.54955e-10
-3.92938e-10
-5.14503e-11
-2.37376e-10
-3.83082e-10
-5.37646e-11
-9.49373e-11
-2.91803e-10
1.01799e-11
2.27114e-12
-6.50778e-11
1.02659e-10
5.29428e-11
1.15428e-10
1.33863e-10
4.22043e-11
4.19722e-10
5.99373e-11
2.99829e-11
7.22377e-10
-2.12143e-10
2.03707e-10
-7.05751e-11
-4.70236e-09
-1.56312e-09
-2.59356e-10
-3.54959e-09
-2.08193e-09
-8.21648e-10
-1.10891e-09
-7.81408e-10
-7.77857e-10
-3.9344e-10
-6.92742e-10
-4.69593e-10
-1.11047e-10
-3.59846e-10
-1.93908e-10
-2.53561e-11
-1.2638e-10
-6.16366e-12
1.65416e-11
-2.0866e-12
8.53837e-11
3.06013e-11
1.82158e-10
2.24764e-10
4.48162e-11
4.2493e-10
2.22067e-11
2.97531e-11
1.12006e-10
-5.44815e-09
-4.78484e-10
-5.82463e-10
-4.30456e-09
-6.02071e-10
-1.58701e-09
-3.17185e-09
-8.48108e-10
-4.77954e-09
-1.52997e-09
-1.2743e-09
-5.25355e-09
-3.56917e-10
-1.48679e-09
-1.70297e-09
-1.04834e-11
-6.68637e-10
-1.07195e-10
4.61429e-13
-4.1655e-11
2.98844e-11
1.25457e-11
5.45885e-11
1.08597e-10
3.37822e-11
1.78695e-10
1.75529e-10
1.01399e-11
6.54438e-11
-3.25216e-09
1.79497e-10
-1.25466e-09
-2.23765e-09
5.89805e-11
-2.29695e-09
-2.10464e-09
-2.92301e-11
-4.19955e-09
-2.57966e-09
-5.90051e-10
-4.64752e-09
-2.003e-09
-4.9814e-10
-3.19037e-09
-5.56032e-11
-1.16827e-09
-1.18612e-09
1.97502e-11
-3.61758e-10
-5.34728e-11
2.17659e-12
2.03957e-11
4.64265e-11
1.29654e-11
6.16481e-11
1.06516e-10
2.89687e-12
4.85754e-11
-1.31591e-09
2.91225e-11
-7.17593e-10
-3.97465e-10
1.31704e-10
-1.26641e-09
-6.75504e-10
1.81523e-10
-5.75875e-10
-1.39297e-09
-7.42293e-11
-9.07239e-10
-1.26678e-09
-1.00439e-09
-1.03678e-09
-4.43249e-10
-1.22167e-09
-1.07169e-09
1.10217e-10
-8.06768e-10
-4.60511e-10
2.49166e-12
4.88523e-11
3.56918e-11
-3.26502e-12
2.75951e-11
4.00232e-11
1.70892e-11
2.24668e-11
-2.49892e-10
-2.77314e-10
5.18781e-11
-1.51037e-10
-2.09233e-10
9.83956e-11
-1.12702e-09
-2.31261e-10
4.15811e-10
-1.29429e-09
-6.95162e-10
4.57735e-10
-9.56325e-10
-8.18402e-10
-4.00784e-10
-6.51283e-10
-5.07023e-10
-1.21249e-09
-9.20141e-11
-5.95065e-10
-8.91067e-10
-6.33168e-13
-4.52641e-11
1.21627e-10
-1.88347e-12
1.10958e-11
2.34553e-11
7.20451e-12
8.73744e-12
1.85878e-09
9.57649e-09
-2.67453e-07
4.34013e-08
3.70643e-08
-2.63263e-07
6.48572e-08
5.7461e-08
-2.49845e-07
6.72937e-08
7.78015e-08
-2.4007e-07
5.05674e-08
9.54737e-08
-2.3516e-07
2.68162e-08
1.01853e-07
-2.42775e-07
3.31617e-08
7.25643e-08
-2.75665e-07
1.47416e-07
-5.05203e-08
-3.14193e-07
1.85339e-07
-6.04379e-09
-2.50536e-07
2.74195e-07
-2.32874e-07
3.68684e-08
-3.03263e-09
-2.91685e-07
1.07883e-07
5.94456e-08
-3.0398e-07
1.46278e-07
1.17283e-07
-3.0339e-07
1.48703e-07
1.76511e-07
-2.99593e-07
1.02411e-07
2.45762e-07
-3.04164e-07
-3.14809e-09
3.16084e-07
-3.35089e-07
-1.08357e-07
2.47376e-07
-3.66069e-07
6.13921e-09
-2.84426e-07
-1.86515e-07
1.73351e-07
-2.99494e-07
-1.81817e-09
5.97854e-07
-2.94033e-07
6.14954e-08
-8.95863e-10
-2.57798e-07
1.03966e-07
1.49878e-07
-3.27413e-07
1.34129e-07
2.21471e-07
-3.49077e-07
1.32953e-07
3.15186e-07
-3.58731e-07
4.76405e-08
4.77367e-07
-3.87326e-07
-1.58429e-07
6.47484e-07
-4.10248e-07
-4.5076e-07
4.76925e-07
-1.69752e-07
-4.97293e-07
-6.28972e-07
4.46885e-07
-1.74381e-07
-8.97217e-07
6.71432e-07
6.45529e-07
-1.54998e-07
1.52877e-07
-1.18332e-07
-1.2348e-07
2.3366e-07
2.21913e-07
-2.81565e-07
2.44992e-07
3.84591e-07
-3.81497e-07
2.35604e-07
5.24952e-07
-4.43148e-07
1.86811e-07
7.53417e-07
-4.99727e-07
-1.84972e-08
9.95941e-07
-3.91113e-07
-3.65299e-07
7.66789e-07
1.40996e-07
-6.91432e-07
-4.44466e-07
6.34963e-07
-4.45679e-07
-1.03805e-06
6.23667e-07
4.70568e-07
1.73989e-07
2.06541e-07
-2.64892e-07
-2.02258e-07
3.99396e-07
2.48456e-07
-2.96358e-07
4.83104e-07
5.58076e-07
-3.55154e-07
5.50114e-07
7.59578e-07
-4.14703e-07
6.43047e-07
1.02115e-06
-4.83904e-07
6.68132e-07
1.26968e-06
-3.64461e-07
5.07487e-07
1.1447e-06
1.09798e-07
7.74168e-08
2.22118e-07
3.91918e-07
-2.00323e-07
-3.12491e-07
-4.02531e-07
5.47301e-07
-9.29281e-08
5.13207e-08
-7.31806e-08
-7.64736e-07
3.0894e-07
2.17071e-07
-6.85644e-07
6.38709e-07
4.61972e-07
-6.06421e-07
9.22538e-07
7.15299e-07
-5.68728e-07
1.13023e-06
1.10328e-06
-5.34814e-07
1.24904e-06
1.47762e-06
-3.54442e-07
1.2524e-06
1.42508e-06
1.24481e-07
9.26218e-07
8.897e-07
2.91632e-07
2.85932e-07
7.29661e-07
-8.13777e-07
1.08776e-06
-7.11471e-07
1.70306e-08
4.8892e-07
-1.81842e-06
3.84254e-07
5.0395e-07
-1.67444e-06
8.45812e-07
6.10317e-07
-1.54433e-06
1.26375e-06
8.14302e-07
-1.38376e-06
1.49735e-06
1.20635e-06
-1.08469e-06
1.58208e-06
1.64568e-06
-6.62417e-07
1.57086e-06
1.79128e-06
-2.03123e-07
1.26655e-06
1.8026e-06
-2.31908e-07
5.28415e-07
2.00233e-06
-1.12874e-06
2.08371e-06
-1.36166e-06
8.98177e-08
5.93864e-07
-2.53072e-06
7.7792e-07
6.12277e-07
-2.48968e-06
1.3487e-06
7.49596e-07
-2.48708e-06
1.70371e-06
9.79674e-07
-2.4031e-06
1.8313e-06
1.34051e-06
-2.19181e-06
1.79352e-06
1.81661e-06
-1.87726e-06
1.73491e-06
2.46525e-06
-1.47415e-06
1.38654e-06
2.98979e-06
-1.39281e-06
6.73518e-07
3.33813e-06
-1.70521e-06
3.27702e-06
-1.36683e-06
-6.75771e-08
4.17667e-09
-6.26782e-08
2.42629e-08
6.89726e-09
-1.2466e-07
1.66202e-07
1.25322e-08
-2.43633e-07
3.75735e-07
1.56995e-08
-4.2689e-07
6.34265e-07
1.77496e-08
-6.85337e-07
8.89209e-07
4.98847e-08
-9.92382e-07
1.2411e-06
4.27388e-07
-1.1427e-06
1.26946e-06
1.24883e-06
-9.64671e-07
6.58399e-07
1.92135e-06
-4.8866e-07
2.48623e-06
3.66835e-07
-8.53419e-09
-5.43312e-10
-1.54935e-09
-6.03181e-09
-4.97037e-10
-1.51064e-09
-2.35596e-09
9.07745e-10
-3.98841e-09
4.93371e-09
3.40464e-11
-1.26984e-08
9.91444e-09
4.99851e-10
-2.96105e-08
2.66489e-08
1.11193e-08
-3.87728e-08
7.27775e-08
2.28021e-08
-5.29141e-08
1.3512e-07
-1.71527e-08
1.98089e-08
8.84782e-08
-1.03079e-07
1.99121e-07
-1.4134e-07
1.10056e-06
-2.33966e-10
-6.13518e-10
1.57215e-10
-1.53677e-10
-9.19587e-10
2.93864e-10
2.15939e-10
-1.79203e-10
6.47318e-10
7.27277e-10
-4.48587e-10
3.94304e-10
2.13273e-10
-9.13634e-10
3.2134e-11
1.64657e-09
-6.77591e-10
-1.99148e-09
1.32835e-08
1.69043e-09
-7.00518e-09
7.46222e-10
5.0657e-09
-8.27421e-09
-4.71024e-08
-3.78063e-09
9.75236e-09
-2.06938e-09
7.45024e-09
-1.0384e-09
-8.67015e-10
1.07717e-09
-9.48596e-10
-7.81339e-10
3.29871e-10
-2.88444e-10
-9.20144e-11
9.18285e-10
6.19226e-11
-8.80978e-11
6.02265e-10
2.29035e-10
-1.02508e-10
1.13938e-10
2.41015e-11
-1.84211e-10
7.2543e-14
6.00968e-10
-3.91879e-10
-6.67883e-10
1.76025e-09
1.07754e-09
-2.32728e-09
1.10194e-10
2.11697e-10
-1.60974e-09
-2.88687e-10
-1.4139e-09
-1.02469e-09
-1.0495e-09
7.73424e-10
-1.57173e-10
-1.23461e-10
2.93675e-10
-1.31823e-10
-1.33306e-10
6.9441e-11
-7.68724e-11
-1.40768e-10
9.79061e-11
9.41122e-11
-3.63103e-11
1.66951e-10
2.59051e-10
2.40442e-10
1.28286e-10
1.54623e-11
7.03048e-10
-1.05907e-10
1.41373e-11
7.19082e-10
-3.37577e-10
-4.20857e-11
3.12993e-10
-4.25098e-10
3.91968e-10
-4.09144e-10
-2.39068e-10
-1.58811e-10
1.08491e-10
-2.09573e-10
-8.65747e-11
5.1207e-12
-1.83845e-10
-1.36001e-10
-1.69826e-12
-1.43322e-10
-1.99668e-10
2.86385e-11
-2.0983e-11
-6.68414e-11
6.33582e-11
4.17555e-10
7.27181e-11
1.95857e-10
1.33245e-10
1.02986e-09
2.54816e-10
-5.37718e-11
9.17601e-10
-8.51975e-11
-3.44506e-10
1.00597e-09
-3.02121e-10
1.46646e-09
-1.8623e-09
-2.75846e-10
-8.88246e-11
-5.78785e-11
-2.74e-10
-6.75509e-11
-1.61766e-10
-3.41399e-10
-8.74151e-11
-7.87547e-11
-3.04841e-10
-2.60353e-10
-1.16278e-10
-8.62936e-11
-2.25401e-10
-7.98858e-11
3.71797e-11
-3.05896e-11
5.76044e-11
5.87645e-10
2.66973e-10
2.63388e-10
-1.91851e-11
3.17514e-09
1.11319e-10
-2.67131e-10
2.44104e-09
-5.60819e-10
8.72332e-10
-6.91049e-10
-1.62051e-09
2.24651e-10
-2.33846e-10
-2.08665e-09
-6.46063e-11
-2.57811e-10
-2.43229e-09
-1.83364e-09
-7.01015e-10
-1.38939e-09
-3.49842e-09
-1.25084e-09
-2.95284e-10
-1.45383e-09
-1.13797e-09
-1.5837e-11
-1.1144e-10
-1.56733e-10
1.7593e-10
1.04207e-10
1.08378e-10
2.73496e-10
2.50385e-09
1.00215e-09
-7.86166e-11
3.22144e-09
-1.67359e-10
5.05223e-12
6.94804e-12
-2.2568e-09
8.86686e-10
-2.07303e-10
-9.85419e-09
1.34265e-09
-2.21986e-09
-8.98837e-09
-9.54117e-10
-6.62256e-09
-5.75174e-09
-3.72587e-09
-8.41473e-09
-2.54746e-09
-3.97632e-09
-6.66132e-09
-7.07861e-11
-1.15565e-09
-1.88395e-09
2.98021e-13
6.9444e-11
3.32948e-12
1.90163e-10
5.01176e-10
9.66263e-10
6.4808e-11
3.00176e-09
7.32508e-10
1.24281e-10
9.49914e-11
-4.72508e-09
1.90874e-09
-3.21494e-10
-7.24751e-09
1.62198e-09
-1.72913e-09
-6.66898e-09
2.11332e-10
-6.53579e-09
-4.96417e-09
-1.40613e-09
-8.9136e-09
-3.80814e-09
-2.28042e-09
-6.25656e-09
-1.17156e-09
-1.83111e-09
-2.97235e-09
-8.42697e-11
2.99766e-10
-3.63052e-10
-1.23328e-10
2.3469e-10
2.12724e-10
2.965e-11
6.64284e-10
1.22512e-09
1.01526e-10
7.88726e-11
-2.90123e-09
1.22094e-09
-2.0999e-10
-2.73358e-09
4.85646e-10
-1.35407e-09
-1.75838e-09
1.435e-11
-2.45981e-09
-8.51215e-10
-3.58022e-10
-7.07368e-09
-1.53159e-09
-1.03675e-09
-4.16406e-09
-1.94881e-09
-1.70382e-09
-7.41381e-10
-1.58099e-10
-8.55148e-11
-1.75147e-10
-1.55053e-10
1.62713e-10
6.47929e-11
-2.50528e-11
2.14355e-10
1.87706e-10
5.92786e-11
3.76514e-11
-9.37636e-10
-3.80189e-11
8.11228e-11
-2.09534e-10
-5.54086e-10
-4.42773e-11
-2.88673e-10
-2.31704e-10
4.26817e-11
-2.00191e-10
-2.39824e-09
3.00616e-11
-1.76199e-10
-2.40391e-09
-1.91224e-10
-1.40002e-09
-2.42203e-10
-7.33626e-10
-1.47764e-09
-1.45454e-10
-4.51462e-10
-1.37988e-10
2.91018e-11
3.90739e-10
-4.25641e-11
4.29665e-11
8.50514e-11
3.4629e-12
1.82017e-11
5.18392e-09
-6.94377e-08
-2.71992e-07
5.5373e-08
-3.49777e-08
-2.78475e-07
8.17108e-08
2.92451e-09
-2.79107e-07
8.58137e-08
3.23075e-08
-2.76481e-07
6.45635e-08
5.34149e-08
-2.67325e-07
3.10407e-08
4.79676e-08
-2.5722e-07
4.27931e-08
-4.75562e-08
-2.39861e-07
1.97881e-07
-2.71261e-07
-1.9802e-07
2.15116e-07
-1.01038e-07
-1.66733e-07
2.45901e-07
-2.63659e-07
3.4873e-08
-1.52617e-07
-3.06865e-07
1.13704e-07
-8.68537e-08
-3.30935e-07
1.62933e-07
-8.70405e-09
-3.4099e-07
1.64355e-07
7.79698e-08
-3.46677e-07
1.03216e-07
1.54199e-07
-3.43808e-07
-3.49465e-08
1.86916e-07
-3.35875e-07
-1.51151e-07
-4.67085e-08
-2.50713e-07
9.30842e-08
-7.04671e-07
2.66041e-09
3.02558e-07
-3.26756e-07
1.44265e-08
6.25346e-07
-3.7092e-07
4.22326e-08
-1.65735e-07
-3.43765e-07
1.04485e-07
-7.45715e-08
-4.01947e-07
1.46739e-07
3.0664e-08
-4.307e-07
1.332e-07
1.66281e-07
-4.33503e-07
-1.08232e-08
3.42939e-07
-4.32042e-07
-2.98653e-07
4.54075e-07
-3.89577e-07
-4.83947e-07
1.77718e-08
-4.89384e-08
-2.57247e-07
-1.05572e-06
5.71256e-07
7.38964e-08
-5.3197e-07
5.45653e-07
9.51496e-07
-4.0725e-07
9.7686e-08
-1.09655e-07
-3.55035e-07
1.76319e-07
2.71055e-09
-4.3748e-07
2.22939e-07
1.06438e-07
-5.03892e-07
2.1138e-07
2.89662e-07
-5.54968e-07
7.40352e-08
5.56577e-07
-5.76021e-07
-1.39037e-07
7.27925e-07
-4.51891e-07
-1.5799e-07
1.81719e-07
-3.99986e-09
-2.05449e-07
-9.16191e-07
5.43044e-07
-2.30304e-07
-2.83876e-07
4.02031e-07
1.27462e-06
-3.79476e-07
1.81459e-07
-7.17789e-08
-5.24007e-07
3.40532e-07
1.61518e-07
-6.14239e-07
3.92338e-07
3.56196e-07
-6.56717e-07
4.36076e-07
5.43301e-07
-7.1208e-07
4.62257e-07
7.88997e-07
-7.42504e-07
4.79386e-07
9.56332e-07
-6.09996e-07
5.78341e-07
5.00577e-07
-3.08016e-07
3.51845e-07
-2.19568e-07
-7.73531e-08
-2.07147e-07
3.75056e-07
-5.02389e-07
1.66711e-06
-6.92553e-07
1.37545e-07
1.22426e-08
-1.03777e-06
4.03617e-07
1.97946e-07
-9.88143e-07
6.34784e-07
4.06683e-07
-8.88076e-07
8.29872e-07
6.19358e-07
-8.39872e-07
9.75392e-07
9.09679e-07
-8.01016e-07
1.06752e-06
1.17867e-06
-6.68909e-07
1.04253e-06
1.02849e-06
-3.78443e-07
6.90805e-07
8.27433e-07
-4.11705e-07
-6.32125e-08
1.4057e-06
-1.09039e-06
2.0915e-06
-1.19908e-06
1.60251e-07
-6.10297e-08
-2.03048e-06
4.70689e-07
6.45785e-08
-1.85582e-06
7.56431e-07
3.27237e-07
-1.75063e-06
1.02698e-06
6.25135e-07
-1.66009e-06
1.22302e-06
9.85045e-07
-1.35611e-06
1.36474e-06
1.34858e-06
-9.74051e-07
1.32167e-06
1.60157e-06
-7.33132e-07
9.80559e-07
1.88059e-06
-9.43955e-07
2.2632e-07
2.51579e-06
-1.4846e-06
2.86522e-06
-1.90905e-06
1.33545e-07
6.59468e-08
-2.70782e-06
7.70842e-07
6.53455e-08
-2.73025e-06
1.31841e-06
1.79404e-07
-2.74055e-06
1.64678e-06
4.28162e-07
-2.72383e-06
1.71882e-06
7.96904e-07
-2.58702e-06
1.67358e-06
1.18252e-06
-2.31549e-06
1.5668e-06
1.57297e-06
-1.93838e-06
1.25523e-06
2.02041e-06
-1.85264e-06
6.52516e-07
2.52421e-06
-2.01695e-06
2.77846e-06
-1.7029e-06
-1.77231e-08
1.68656e-09
-1.46898e-08
-9.12769e-09
1.07417e-09
-3.4012e-08
4.74548e-08
4.26613e-09
-1.246e-07
1.90346e-07
1.70187e-08
-2.42823e-07
4.3157e-07
3.71971e-08
-4.46055e-07
7.27564e-07
4.63809e-08
-7.61654e-07
9.98376e-07
5.40673e-08
-9.09847e-07
9.44663e-07
8.03068e-08
-7.40804e-07
4.55257e-07
2.77261e-07
-2.79039e-07
5.46532e-07
2.71206e-07
-2.11016e-09
-2.25493e-10
-2.98775e-12
-2.49127e-09
-5.21202e-11
-3.31434e-12
-2.20071e-09
-1.11938e-11
-7.5199e-12
2.36778e-09
-2.4237e-10
-1.52303e-11
1.27971e-08
-7.77075e-10
-2.83779e-09
3.51007e-08
1.93638e-09
-1.91782e-08
5.19319e-08
1.0091e-08
-3.1538e-08
7.86113e-08
1.78659e-08
-1.19064e-08
1.38679e-08
5.74001e-09
9.27207e-08
-3.03806e-09
9.73784e-08
-9.5797e-11
-2.10455e-10
2.32735e-11
-2.36031e-10
-6.44386e-10
1.78127e-10
-2.30661e-10
-1.38199e-09
3.6814e-10
-7.12223e-11
-1.02666e-09
3.0524e-10
-4.25444e-11
-4.04782e-10
7.23277e-11
2.23708e-10
-3.4884e-10
1.78231e-11
3.40977e-09
2.78873e-10
-5.34351e-10
5.44684e-09
2.90106e-09
1.34843e-09
6.09449e-10
1.99864e-09
1.68555e-08
5.91466e-10
8.54632e-09
-6.47378e-10
-4.27508e-10
1.74134e-10
-8.65867e-10
-7.18317e-10
3.33038e-10
-7.45857e-10
-1.1442e-09
3.64406e-10
-2.71329e-10
-1.07271e-10
2.36321e-10
-4.1911e-11
-1.20651e-10
7.83006e-11
4.07697e-12
-7.20346e-11
-8.53989e-13
1.44906e-11
-2.45828e-14
-7.44975e-11
2.59636e-10
3.58308e-10
-2.66501e-10
4.53867e-10
4.84151e-10
-5.65767e-10
5.27873e-10
-1.07338e-09
-9.24871e-10
-2.491e-10
1.84542e-10
-1.15507e-09
-6.44496e-10
2.83661e-10
-1.07796e-10
-4.84835e-10
1.3604e-10
-7.93737e-11
-1.01373e-10
3.39905e-11
-5.62713e-12
-1.10761e-10
5.67803e-11
5.03191e-11
-6.2389e-11
8.91633e-12
5.94016e-11
5.55719e-11
-2.20265e-11
3.79599e-11
1.66592e-10
-1.21872e-10
5.04389e-12
6.64826e-11
-2.02676e-10
7.87879e-11
-3.44817e-10
-6.19396e-10
-2.05137e-13
3.14498e-11
-6.42537e-10
-1.49429e-10
-5.44469e-11
-1.74333e-10
-4.50269e-11
-7.00875e-11
-1.19936e-10
-7.09321e-11
-8.60963e-11
-4.39458e-11
-1.74133e-10
4.88419e-13
6.2219e-11
6.57361e-12
9.85777e-12
1.98855e-10
6.8762e-11
1.25099e-11
8.91588e-11
2.8008e-10
-1.09752e-10
-3.28733e-11
8.7456e-10
-1.20578e-09
6.45853e-10
-1.10584e-09
-2.76356e-10
3.57535e-11
-4.56491e-11
-2.45194e-10
9.25624e-11
-2.53566e-12
-2.6885e-10
8.25296e-12
-2.06104e-10
-2.93618e-10
-1.06461e-10
-1.24791e-10
-1.48534e-10
-3.85803e-10
-2.67899e-10
-6.52422e-14
-4.37693e-11
-8.68574e-11
2.09527e-10
5.4924e-11
-7.13225e-12
7.46916e-10
1.14297e-09
-2.04495e-11
5.19447e-10
1.61206e-09
-7.09349e-10
6.33589e-10
-2.3149e-09
-1.1521e-10
9.22848e-11
-6.05444e-11
-3.50262e-10
5.12095e-10
-9.85612e-11
-2.86991e-09
7.27634e-11
-6.68269e-10
-4.05075e-09
-3.37398e-09
-3.31592e-09
-2.19433e-09
-4.15764e-09
-4.02292e-09
-1.22703e-10
-1.03863e-09
-2.59445e-09
2.684e-10
9.75286e-11
-2.76963e-10
7.58979e-10
1.70129e-09
3.1687e-10
1.91628e-10
2.44618e-09
-1.06183e-10
-8.15639e-12
-4.33713e-10
-4.0096e-10
2.83689e-10
-1.04038e-10
-7.70418e-09
1.95913e-09
-2.53797e-09
-7.22992e-09
-1.30467e-10
-7.04648e-09
-5.58388e-09
-4.70418e-09
-8.97241e-09
-4.15489e-09
-5.43337e-09
-6.96743e-09
-1.12265e-09
-3.23314e-09
-4.99951e-09
-2.80606e-12
3.05072e-10
-1.0187e-09
3.26078e-10
4.6499e-10
5.08541e-10
1.1581e-10
3.09303e-09
5.33747e-10
1.18687e-10
9.39875e-11
-1.34491e-10
1.5259e-10
-9.46992e-11
-2.14311e-09
5.2745e-10
-1.42541e-09
-4.11195e-09
2.94668e-11
-6.95368e-09
-3.22694e-09
-4.74744e-09
-9.91774e-09
-3.84097e-09
-5.09952e-09
-6.24631e-09
-3.00038e-09
-3.37746e-09
-3.88339e-09
-3.94578e-10
4.76469e-10
-8.92011e-10
9.59464e-13
3.92999e-10
1.60503e-10
-5.2087e-12
1.99526e-09
1.10623e-09
1.12379e-10
7.62967e-11
-7.29493e-11
5.29696e-11
-4.35107e-11
-2.15453e-11
3.28173e-10
-2.46676e-10
-1.55158e-09
1.28379e-10
-2.40082e-09
-1.963e-09
-2.92801e-09
-9.04213e-09
-2.73737e-09
-4.10988e-09
-4.45536e-09
-3.61149e-09
-2.20461e-09
-9.59645e-10
-2.86159e-10
2.40035e-10
-8.59771e-11
-2.49019e-10
2.4245e-10
5.46195e-11
-2.44861e-11
3.74838e-10
3.59874e-10
8.5033e-11
3.84646e-11
1.14538e-11
-1.45171e-11
2.1222e-11
1.00169e-10
-9.02325e-11
4.69511e-10
2.28109e-10
-5.96184e-10
1.43306e-10
-2.60818e-10
-7.95297e-09
-1.08264e-09
-1.7385e-09
-3.29166e-09
-2.86629e-09
-3.29684e-09
1.58772e-10
-8.50655e-10
-1.55015e-09
1.64174e-10
2.04153e-10
-2.12441e-10
1.90839e-11
4.75935e-10
-3.41098e-11
6.14198e-11
1.76006e-10
2.15889e-12
5.00737e-11
4.48795e-09
-8.65695e-08
-2.59189e-07
6.48288e-08
-6.46807e-08
-2.74135e-07
1.03394e-07
-2.86549e-08
-2.89017e-07
1.16903e-07
5.80837e-09
-2.95798e-07
1.05867e-07
3.12285e-08
-2.87517e-07
8.27888e-08
3.45785e-08
-2.6872e-07
9.12779e-08
-1.7291e-08
-2.31059e-07
1.93366e-07
-1.29426e-07
-1.70682e-07
1.69736e-07
1.72957e-08
-1.60399e-07
2.07856e-07
-3.01778e-07
2.83818e-08
-2.07975e-07
-2.72818e-07
1.14312e-07
-1.69522e-07
-3.12024e-07
1.80602e-07
-8.85683e-08
-3.47367e-07
2.02479e-07
4.40812e-09
-3.67154e-07
1.71998e-07
8.56106e-08
-3.67709e-07
9.66652e-08
1.20166e-07
-3.4613e-07
6.26315e-08
3.24606e-08
-2.6643e-07
2.59617e-07
-2.4842e-07
-7.53305e-08
2.76772e-07
1.36783e-07
-1.22216e-07
5.35723e-07
-4.22015e-07
4.32888e-08
-2.81646e-07
-3.70224e-07
1.28878e-07
-2.51409e-07
-4.0565e-07
1.98578e-07
-1.42912e-07
-4.46056e-07
2.04817e-07
2.9094e-08
-4.64429e-07
1.16226e-07
1.9147e-07
-4.4931e-07
-6.73782e-08
3.00338e-07
-3.86145e-07
-1.56973e-07
2.00326e-07
-1.2721e-07
1.36814e-07
-2.97552e-07
3.26601e-07
2.81586e-07
3.7455e-07
1.63124e-07
9.29452e-07
-5.19393e-07
1.10221e-07
-2.83556e-07
-5.36784e-07
2.17656e-07
-2.63637e-07
-5.32687e-07
2.87369e-07
-1.52832e-07
-5.63685e-07
2.89535e-07
6.47631e-08
-5.92803e-07
1.6575e-07
3.27375e-07
-5.88141e-07
-2.01293e-08
5.13044e-07
-4.78718e-07
1.03749e-08
3.09839e-07
-1.44018e-07
9.42541e-08
-1.68166e-07
3.29776e-07
6.76714e-08
7.00573e-07
1.02544e-07
1.32083e-06
-7.0318e-07
1.98552e-07
-3.02361e-07
-8.33327e-07
3.76369e-07
-2.58394e-07
-7.97296e-07
4.44443e-07
-7.93939e-08
-7.98229e-07
4.5416e-07
1.88465e-07
-8.45499e-07
4.15441e-07
4.63537e-07
-8.39948e-07
3.84521e-07
6.53719e-07
-7.19753e-07
4.29254e-07
4.37894e-07
-4.80804e-07
2.76399e-07
2.04771e-07
-2.9743e-07
-8.42595e-08
1.21918e-06
-6.60345e-07
1.68545e-06
-1.14144e-06
2.80943e-07
-4.86593e-07
-1.23179e-06
5.47974e-07
-3.94506e-07
-1.11906e-06
6.91998e-07
-9.74108e-08
-1.01408e-06
7.84223e-07
2.40614e-07
-9.84245e-07
8.23239e-07
5.59598e-07
-9.36093e-07
8.31266e-07
8.20338e-07
-8.43555e-07
7.42709e-07
8.42923e-07
-6.94913e-07
4.43534e-07
9.49594e-07
-8.57354e-07
-1.15569e-07
2.03151e-06
-1.34361e-06
2.01689e-06
-1.64608e-06
3.27007e-07
-9.77157e-07
-1.97831e-06
6.19983e-07
-8.0792e-07
-1.73551e-06
8.17503e-07
-4.54835e-07
-1.59079e-06
9.87876e-07
-5.35413e-08
-1.53516e-06
1.06384e-06
5.07611e-07
-1.38009e-06
1.07876e-06
9.52508e-07
-1.12113e-06
9.7185e-07
1.21208e-06
-9.95385e-07
7.78353e-07
1.50326e-06
-1.30413e-06
3.85769e-07
2.66334e-06
-1.72385e-06
2.91806e-06
-2.42445e-06
1.36755e-07
-1.61834e-07
-2.46572e-06
7.33382e-07
-3.14223e-07
-2.46992e-06
1.28864e-06
-3.69531e-07
-2.5128e-06
1.62014e-06
-1.72211e-07
-2.57428e-06
1.69163e-06
1.86876e-07
-2.54614e-06
1.57992e-06
6.01718e-07
-2.30351e-06
1.40108e-06
8.52273e-07
-1.98794e-06
1.17762e-06
9.8217e-07
-1.95896e-06
8.61681e-07
1.35218e-06
-2.01065e-06
1.59182e-06
-1.80126e-06
-1.37189e-08
-2.18387e-11
-1.77228e-07
8.50658e-10
-3.74291e-11
-2.0833e-07
4.84708e-08
-1.00949e-10
-1.92835e-07
1.67624e-07
-1.46773e-10
-3.04256e-07
3.91901e-07
4.92192e-09
-4.66215e-07
6.48681e-07
3.63581e-08
-6.22402e-07
7.34966e-07
3.79282e-08
-6.38083e-07
6.40052e-07
1.22134e-08
-4.79379e-07
4.02033e-07
-6.25573e-08
-2.00428e-07
3.02507e-08
9.37655e-08
-6.32564e-12
-1.50637e-11
-5.37314e-12
-4.55467e-12
-3.2131e-11
-6.17595e-12
-1.38002e-12
-1.01043e-10
-7.07134e-12
2.94132e-12
-1.53851e-10
-6.82621e-12
2.65923e-09
-5.60728e-10
-6.18548e-12
2.0034e-08
-1.83126e-10
-1.06504e-11
3.59904e-08
5.50072e-10
-1.03034e-08
3.3105e-08
-1.64901e-09
2.07193e-09
-2.29394e-08
-6.92317e-09
8.03765e-08
4.97886e-09
7.10358e-08
-2.17271e-11
-6.5532e-12
6.04017e-12
-6.00254e-11
-3.87437e-11
4.36427e-12
-1.37208e-10
-1.37454e-10
1.17147e-11
-1.04134e-10
-1.96916e-10
2.48954e-11
-1.73474e-11
-3.35627e-10
5.43614e-11
-4.74406e-12
-1.93885e-10
7.54056e-12
-1.91877e-10
6.89072e-11
1.0467e-10
-1.72973e-09
1.66948e-10
8.6377e-10
-1.54429e-09
1.43235e-09
6.70824e-09
1.39132e-09
7.93352e-09
-7.89565e-11
9.63625e-12
1.58428e-11
-2.40368e-10
-2.6583e-11
1.6839e-11
-2.48629e-10
-1.50624e-10
4.51295e-11
-1.91182e-10
-2.67799e-10
4.5445e-11
-1.28919e-10
-4.5382e-10
9.21674e-11
-3.95756e-11
-2.51298e-10
4.67844e-11
-7.49355e-11
-7.70154e-12
4.91232e-12
-2.06781e-10
-1.7061e-11
1.1142e-11
1.27483e-10
3.73972e-10
-1.2363e-11
4.71847e-10
-4.16224e-10
-1.21012e-10
4.34715e-11
8.3247e-12
-1.89654e-10
1.32791e-11
1.24346e-11
-2.17714e-10
-1.43877e-10
1.1045e-11
-2.9695e-10
-3.15827e-10
2.1399e-11
-1.92146e-10
-1.39643e-10
2.37149e-11
-5.90006e-12
-8.52097e-11
-2.14676e-12
5.42394e-12
-3.69511e-11
-2.22244e-11
1.26808e-11
-5.48696e-12
-1.25463e-10
4.69429e-12
8.58371e-11
-1.01741e-10
8.62933e-11
-1.75201e-10
-5.11268e-11
2.39981e-11
-1.06452e-11
-8.80204e-11
4.3184e-12
-1.13148e-11
-2.05778e-10
-3.01045e-11
-7.93827e-11
-2.58854e-10
5.02494e-12
-1.48869e-10
-8.34498e-11
-2.2125e-13
-3.36236e-11
-1.50953e-12
-1.71049e-10
-3.16087e-11
1.31973e-10
-1.14728e-10
-5.68769e-11
5.5114e-10
1.18271e-11
-2.02237e-11
7.00025e-12
4.36549e-10
-7.67188e-10
1.61448e-11
-1.13916e-10
-6.35502e-11
4.16162e-11
-6.2183e-11
-5.19549e-10
1.29452e-10
-8.54315e-11
-5.87314e-10
-5.46468e-11
-2.5254e-10
-5.93476e-10
-8.70681e-10
-2.33182e-10
-4.28796e-10
-1.56582e-09
-2.57254e-10
-1.2624e-10
-7.32664e-10
-6.30301e-10
1.3179e-10
-3.45153e-10
-4.43741e-10
3.69998e-10
4.11255e-11
-6.78862e-10
4.60371e-10
6.38283e-10
-1.21673e-09
2.55201e-10
-1.48665e-09
-9.01973e-11
7.25917e-11
-6.4652e-11
-8.65069e-10
7.53108e-10
-6.38393e-10
-3.67318e-09
-1.06639e-09
-3.59844e-09
-4.67014e-09
-4.79046e-09
-5.16613e-09
-5.19302e-09
-5.17019e-09
-5.18997e-09
-2.16175e-09
-2.98801e-09
-4.30256e-09
5.90064e-12
-1.00387e-09
-2.21018e-09
5.77441e-10
2.80127e-10
-9.51805e-10
8.43183e-10
1.06859e-10
-1.39789e-10
6.62912e-10
-8.67423e-10
-3.66597e-10
1.67588e-10
-5.33453e-11
-4.82283e-09
1.62475e-09
-2.24586e-09
-4.26726e-09
-1.37908e-09
-7.25479e-09
-3.31506e-09
-6.4323e-09
-8.37595e-09
-3.6438e-09
-6.02699e-09
-5.74732e-09
-3.96376e-09
-5.02721e-09
-2.42609e-09
-1.01304e-09
-1.23896e-09
-2.12004e-09
4.44301e-11
4.20754e-10
-9.28671e-10
1.00285e-10
1.91479e-10
2.50786e-12
2.07208e-10
9.70652e-11
-2.08183e-13
5.02907e-11
-1.73136e-11
-1.17447e-10
3.28539e-11
-7.76178e-10
-1.35272e-09
-1.3774e-09
-6.47858e-09
-1.8557e-09
-6.64077e-09
-9.39309e-09
-3.75466e-09
-5.99874e-09
-4.46852e-09
-4.6606e-09
-6.60337e-09
-7.43273e-10
-1.63353e-09
-3.14156e-10
-5.08421e-10
-2.26962e-10
2.28259e-10
-4.90403e-10
4.31176e-12
3.16308e-10
2.79727e-10
7.66672e-11
2.01583e-10
2.13032e-11
3.40633e-11
-1.28125e-11
2.3106e-10
1.38894e-10
-6.51269e-11
2.86683e-10
-5.33799e-10
-6.14965e-09
-1.6132e-09
-4.99725e-09
-8.90916e-09
-4.13717e-09
-4.98161e-09
-3.12851e-09
-2.80562e-09
-4.32407e-09
-1.24278e-10
-1.06064e-09
-3.09555e-11
-6.15202e-11
-2.34923e-10
1.97758e-10
-9.41409e-11
-4.03883e-11
1.56785e-10
9.96992e-11
1.35943e-10
4.99894e-11
2.84322e-11
-2.70091e-11
2.53223e-11
3.47131e-10
-3.63329e-10
9.26835e-11
1.36991e-09
-6.45212e-09
3.87519e-10
-5.43046e-10
-7.92998e-09
-3.06723e-09
-3.15938e-09
-1.98196e-09
-3.75673e-09
-5.33986e-10
9.63901e-10
-9.86146e-10
-3.18612e-10
3.55788e-11
-2.45929e-11
-1.62793e-10
-1.58602e-11
1.12249e-10
-3.9968e-11
-3.25049e-11
1.44635e-10
1.16711e-11
8.7261e-11
-4.51492e-09
-5.68485e-08
-2.68862e-07
6.07372e-08
-6.77781e-08
-2.71609e-07
1.11442e-07
-5.10463e-08
-2.88676e-07
1.37294e-07
-2.47231e-08
-2.96927e-07
1.38097e-07
4.33841e-09
-2.92658e-07
1.25371e-07
2.30114e-08
-2.79005e-07