/*--------------------------------*- C++ -*----------------------------------*\
| =========                 |                                                 |
| \\      /  F ield         | OpenFOAM: The Open Source CFD Toolbox           |
|  \\    /   O peration     | Version:  2312                                  |
|   \\  /    A nd           | Website:  www.openfoam.com                      |
|    \\/     M anipulation  |                                                 |
\*---------------------------------------------------------------------------*/
FoamFile
{
    version     2.0;
    format      ascii;
    arch        "LSB;label=32;scalar=64";
    class       volScalarField;
    location    "0.435";
    object      p_rgh;
}
// * * * * * * * * * * * * * * * * * * * * * * * * * * * * * * * * * * * * * //

dimensions      [1 -1 -2 0 0 0 0];

internalField   nonuniform List<scalar> 
8000
(
416.399
416.817
417.433
418.252
419.26
420.413
421.624
422.756
423.678
424.225
416.315
416.739
417.368
418.221
419.298
420.56
421.919
423.211
424.276
424.943
416.119
416.557
417.222
418.145
419.337
420.769
422.358
423.931
425.257
426.093
416.046
416.489
417.174
418.15
419.459
421.107
422.998
424.923
426.562
427.647
416.078
416.504
417.192
418.194
419.565
421.389
423.603
426.035
428.153
429.707
417.144
417.461
417.999
418.775
419.8
421.55
424.237
427.816
431.512
434.292
419.633
419.646
419.582
419.982
419.824
420.749
423.212
427.919
434.004
438.794
424.088
423.372
419.014
408.977
392.498
366.007
345.22
352.636
384.807
410.887
383.026
371.998
350.329
313.83
257.248
196.161
131.941
91.7988
132.727
220.988
111.967
96.0415
67.7193
38.5255
17.4269
3.71023
1.12487
2.40886
5.55105
20.3619
0.0407757
0.0353886
0.0207285
-0.00461283
-0.0326213
-0.0284787
0.0352614
0.342475
1.64206
3.94717
0.0453936
0.0371483
0.0207971
-0.00563663
-0.0325929
-0.0621391
-0.103299
0.00108697
0.478869
1.35466
0.0677054
0.0579397
0.0438191
0.0234745
-0.00217737
-0.0450984
-0.0992454
-0.0486556
0.20354
0.417307
0.0757195
0.0699554
0.0616678
0.0499514
0.0347728
0.0054224
-0.00809291
0.0641123
0.158953
0.226782
0.0954776
0.0947826
0.0915497
0.0857761
0.0860392
0.0852429
0.0845402
0.107325
0.159596
0.189859
0.121311
0.1203
0.117135
0.119017
0.1262
0.147426
0.152751
0.153486
0.195388
0.281703
0.131326
0.131992
0.129914
0.131625
0.138506
0.159011
0.185535
0.178765
0.227312
0.365702
0.13318
0.133535
0.134624
0.137301
0.143759
0.153936
0.182931
0.17412
0.210036
0.388028
0.136092
0.13633
0.137355
0.138635
0.140732
0.143252
0.156108
0.16118
0.26652
0.394761
0.137595
0.137518
0.138422
0.138575
0.137939
0.133848
0.155521
0.217485
0.397573
0.399672
416.081
416.504
417.117
417.923
418.907
420.027
421.204
422.302
423.202
423.744
415.899
416.331
416.957
417.793
418.843
420.072
421.389
422.639
423.675
424.34
415.512
415.951
416.612
417.525
418.701
420.107
421.656
423.18
424.476
425.319
415.008
415.464
416.149
417.131
418.458
420.117
421.99
423.879
425.507
426.628
414.264
414.677
415.372
416.404
417.873
419.807
422.091
424.561
426.713
428.232
413.808
414.076
414.532
415.363
416.774
418.939
421.861
425.561
429.288
431.726
413.783
413.841
413.821
414.024
414.903
416.864
419.92
424.722
430.546
434.384
414.295
413.971
413.207
409.027
399.741
381.401
354.054
343.132
363.439
381.387
221.816
213.019
192.366
167.829
139.757
108.976
86.8406
77.1443
101.856
128.644
28.4426
24.7606
17.2498
6.67878
0.248683
0.385041
0.702984
1.50772
3.6206
5.56396
-0.0633871
-0.0558857
-0.0564004
-0.042623
-0.0218769
-0.0112153
0.01642
0.237698
1.24216
1.61056
0.00338746
-0.0128568
-0.0283395
-0.0397583
-0.0566082
-0.0922029
-0.13581
-0.0607483
0.27974
0.549774
0.0613673
0.0321244
0.00428442
-0.0192751
-0.039463
-0.0916596
-0.159407
-0.0168014
0.0887808
0.144588
0.0880551
0.0697011
0.0409221
0.032021
0.0174382
-0.0282597
-0.0572709
0.0988274
0.106304
0.11021
0.11841
0.108264
0.0944459
0.0930407
0.0879452
0.0832331
0.0895233
0.136307
0.159726
0.127598
0.120175
0.122782
0.123476
0.126137
0.141583
0.172753
0.198264
0.207157
0.201907
0.150982
0.130089
0.131502
0.133162
0.13783
0.150769
0.181781
0.213535
0.211791
0.225039
0.172403
0.135364
0.135664
0.137828
0.141473
0.148228
0.159275
0.188999
0.183304
0.203758
0.280687
0.137747
0.137665
0.139073
0.14004
0.141047
0.142478
0.150105
0.156459
0.242229
0.390361
0.138559
0.138403
0.139228
0.138696
0.136055
0.131599
0.134853
0.145628
0.391023
0.395453
415.632
416.065
416.66
417.426
418.357
419.417
420.532
421.576
422.436
422.956
415.316
415.757
416.37
417.167
418.159
419.322
420.577
421.773
422.77
423.406
414.637
415.094
415.745
416.626
417.754
419.104
420.593
422.054
423.307
424.12
413.56
414.029
414.742
415.719
417.024
418.664
420.523
422.381
423.995
425.099
411.996
412.399
413.113
414.175
415.667
417.65
419.97
422.433
424.664
426.176
409.857
410.103
410.67
411.616
413.148
415.477
418.553
422.237
425.8
428.094
407.675
407.888
408.153
408.854
410.193
412.498
415.773
420.341
425.19
428.472
394.633
389.877
382.234
376.675
373.48
367.323
354.368
342.268
341.663
345.582
68.6113
69.7068
69.0239
66.9899
66.2582
65.6157
64.4434
67.3453
75.5896
87.0737
0.26078
0.164944
0.151496
0.151019
0.149692
0.212016
0.30814
0.686124
1.42073
2.52202
0.0795411
0.0646271
0.0481016
0.0405718
0.0221866
-0.0128525
-0.0323118
0.0555041
0.182058
0.406798
0.0860656
0.0594537
0.0320388
-0.000169199
-0.047955
-0.109109
-0.155112
-0.132678
-0.0635913
0.0419316
0.103007
0.0666045
0.0317824
0.0017205
-0.0400107
-0.0982998
-0.132748
-0.0846431
-0.097296
-0.0507495
0.10546
0.10026
0.0754999
0.0566171
0.0293803
-0.00550927
-0.00142801
0.0639174
-0.0115885
-0.00401437
0.110855
0.11942
0.115785
0.112053
0.106316
0.10437
0.139132
0.189766
0.173293
0.0933375
0.122781
0.127332
0.131675
0.137354
0.149331
0.175394
0.20198
0.26809
0.391345
0.167652
0.134222
0.134722
0.137806
0.142859
0.152391
0.172838
0.196711
0.231051
0.382083
0.19765
0.138459
0.13785
0.140089
0.143041
0.147564
0.153664
0.167501
0.207182
0.352369
0.326528
0.139549
0.138634
0.140245
0.141064
0.141994
0.141665
0.146561
0.215626
0.271706
0.338913
0.139796
0.138925
0.140006
0.139272
0.13712
0.135241
0.136481
0.180218
0.160312
0.269958
415.244
415.691
416.258
416.952
417.789
418.749
419.771
420.738
421.542
422.026
414.8
415.253
415.836
416.556
417.45
418.507
419.666
420.784
421.723
422.316
413.838
414.287
414.909
415.715
416.761
418.015
419.414
420.795
421.982
422.742
412.185
412.606
413.302
414.243
415.504
417.082
418.895
420.72
422.298
423.357
409.529
409.836
410.645
411.797
413.302
415.311
417.687
420.161
422.377
423.889
405.149
405.175
406.333
407.492
409.267
411.822
415.095
418.813
422.284
424.604
400.177
400.915
401.584
402.966
404.717
407.602
411.44
416.173
420.619
423.713
308.967
313.471
316.925
320.274
329.658
343.118
352.073
356.815
357.48
342.905
10.5356
10.671
13.2701
17.3333
24.9516
36.4498
49.689
65.3863
87.5149
128.067
0.288177
0.265473
0.239491
0.211285
0.170065
0.139934
0.128635
0.272351
0.637795
1.18833
0.186642
0.157138
0.124139
0.090285
0.0512535
0.00480387
-0.0488709
-0.0476412
-0.0206461
0.0538804
0.131761
0.111155
0.0819895
0.0467366
0.0030327
-0.0612419
-0.135484
-0.171083
-0.162243
-0.0787814
0.107424
0.0944706
0.0750582
0.0463903
0.010747
-0.0268808
-0.0729317
-0.144288
-0.162983
-0.0816697
0.108895
0.104613
0.0981486
0.0820464
0.0596508
0.0427908
0.066781
0.0271269
-0.0512075
-0.0227553
0.119969
0.119149
0.120088
0.117391
0.111758
0.10728
0.161569
0.271459
0.213511
0.0795409
0.133172
0.131275
0.133685
0.136475
0.139417
0.146599
0.173265
0.328027
0.342217
0.241032
0.140525
0.137371
0.139737
0.142245
0.146055
0.153267
0.16758
0.234369
0.301639
0.250534
0.142442
0.139288
0.141411
0.143091
0.145772
0.149364
0.157943
0.163165
0.16435
0.155616
0.1414
0.139276
0.141247
0.142053
0.144178
0.145206
0.147656
0.149553
0.14206
0.140985
0.141038
0.139227
0.140844
0.140518
0.140027
0.140711
0.138976
0.139029
0.129737
0.131289
415.068
415.539
416.072
416.655
417.34
418.152
419.045
419.91
420.642
421.085
414.573
415.028
415.561
416.163
416.885
417.784
418.804
419.816
420.684
421.228
413.48
413.863
414.399
415.081
415.956
417.05
418.311
419.59
420.705
421.416
411.384
411.651
412.253
413.094
414.207
415.662
417.376
419.141
420.695
421.722
407.523
407.707
408.554
409.677
411.222
413.214
415.603
418.116
420.355
421.92
400.559
401.117
402.613
403.961
405.928
408.671
412.145
415.996
419.549
422.086
380.761
389.932
395.333
398.147
399.922
403.402
408.032
413.207
417.696
421.322
152.014
202.703
249.549
270.302
286.538
315.347
345.393
370.242
384.514
369.912
0.380647
0.346046
0.347991
0.885083
5.55723
17.3371
38.3121
68.1432
110.122
195.528
0.260935
0.255542
0.243684
0.219923
0.181092
0.153579
0.138403
0.199718
0.36269
3.3848
0.214481
0.198139
0.174638
0.144509
0.109626
0.0771442
0.036784
0.0127871
-0.0260744
-0.026344
0.165747
0.151218
0.130322
0.100466
0.0675374
0.0334575
-0.00683881
-0.0777956
-0.12413
-0.065716
0.139461
0.12761
0.111423
0.0872236
0.0616588
0.0311861
0.00708079
-0.0374049
-0.116836
-0.0526538
0.13389
0.123526
0.11521
0.100079
0.0819882
0.0661239
0.0793384
0.0957644
-0.0238042
0.00398576
0.138421
0.129229
0.126738
0.120514
0.111627
0.104779
0.125426
0.204217
0.155009
0.0771377
0.145209
0.135864
0.136017
0.134328
0.133325
0.133256
0.137533
0.175046
0.260017
0.230476
0.147447
0.139252
0.140714
0.140634
0.142115
0.145383
0.147834
0.151482
0.186239
0.208503
0.146891
0.139764
0.142051
0.1426
0.145025
0.148094
0.147732
0.145672
0.146237
0.144502
0.144645
0.139089
0.14177
0.142174
0.14389
0.145573
0.144839
0.140187
0.138742
0.13906
0.142596
0.138623
0.141421
0.141184
0.141215
0.140271
0.139874
0.135198
0.132319
0.134865
415.247
415.734
416.232
416.677
417.154
417.757
418.48
419.22
419.869
420.268
414.846
415.263
415.724
416.15
416.645
417.306
418.144
419.021
419.802
420.299
413.817
414.065
414.484
414.926
415.525
416.384
417.457
418.607
419.64
420.31
411.518
411.576
412.062
412.6
413.411
414.657
416.206
417.864
419.367
420.382
406.995
406.883
407.718
408.537
409.746
411.631
413.982
416.482
418.734
420.378
397.426
398.328
400.504
401.998
403.626
406.365
409.981
413.966
417.596
420.486
310.725
352.49
383.282
391.888
396.413
400.493
405.598
411.204
415.825
420.43
38.1176
85.2074
172.11
228.55
254.849
289.112
333.841
376.948
403.237
397.75
0.544563
0.319229
0.288954
0.295367
0.313678
6.92506
28.4119
70.9406
143.397
260.155
0.270484
0.233787
0.234621
0.230771
0.215223
0.174128
0.161912
0.174788
0.279752
18.2659
0.219066
0.200418
0.193363
0.175668
0.15161
0.119735
0.0966565
0.0712822
-0.00301434
-0.0187548
0.180367
0.161682
0.155041
0.134808
0.111383
0.0824906
0.05742
0.0236183
-0.0543975
-0.0407164
0.154238
0.137754
0.133482
0.116156
0.0961402
0.0724776
0.0471168
0.019701
-0.0582323
-0.0174801
0.147334
0.130778
0.129533
0.116527
0.102156
0.0860898
0.0704573
0.0527973
0.0040966
0.0282792
0.154109
0.134089
0.133848
0.125786
0.118347
0.109151
0.0996408
0.0894369
0.0709265
0.076816
0.161377
0.138789
0.138923
0.134619
0.132175
0.129309
0.123488
0.122847
0.140108
0.138711
0.159437
0.139931
0.1417
0.13986
0.139807
0.140002
0.137571
0.13685
0.159429
0.170513
0.148816
0.137843
0.142074
0.141885
0.142817
0.143709
0.142013
0.140129
0.140184
0.139192
0.139694
0.135505
0.14143
0.141983
0.142902
0.143257
0.142163
0.13939
0.137773
0.136832
0.137178
0.1343
0.141246
0.14167
0.142008
0.141166
0.139873
0.137258
0.136351
0.137272
415.743
416.268
416.74
417.045
417.28
417.628
418.139
418.733
419.293
419.65
415.502
415.914
416.367
416.582
416.779
417.158
417.757
418.478
419.16
419.61
414.678
414.895
415.315
415.405
415.591
416.111
416.929
417.932
418.87
419.5
412.741
412.722
413.122
413.05
413.291
414.152
415.505
417.013
418.434
419.435
409.425
408.867
409.062
408.763
409.212
410.705
412.971
415.418
417.63
419.33
400.896
400.229
401.038
401.336
402.576
404.896
408.66
412.787
416.459
419.618
276.448
315.978
360.663
383.513
392.535
399.352
404.235
410.13
415.058
420.3
29.919
37.2991
97.4914
178.995
231.161
275.461
325.766
379.954
412.013
411.658
1.04766
0.351989
0.236965
0.29161
0.287734
2.6517
21.4226
72.7632
175.518
318.626
0.250805
0.169084
0.202651
0.224647
0.225934
0.201935
0.199701
0.180252
5.51459
41.472
0.177922
0.164
0.189011
0.185847
0.174578
0.149695
0.125147
0.0912641
-0.0124898
0.00662835
0.160056
0.147303
0.158805
0.150591
0.137116
0.115651
0.0839311
0.0482914
-0.013446
0.00209932
0.143639
0.138862
0.138157
0.129677
0.116959
0.0983921
0.0684339
0.0362296
-0.00460019
0.0166367
0.142448
0.13073
0.132008
0.124408
0.11434
0.0992041
0.0766482
0.051548
0.0205471
0.0440096
0.156305
0.131844
0.134366
0.12837
0.121684
0.111289
0.0966118
0.0798489
0.0629827
0.0781298
0.159323
0.139977
0.138521
0.13471
0.130962
0.125598
0.116649
0.122061
0.120632
0.116894
0.145414
0.137951
0.140453
0.139165
0.137553
0.135305
0.131696
0.134991
0.156298
0.15847
0.131508
0.15099
0.140654
0.141229
0.141008
0.140021
0.138282
0.136797
0.138153
0.134938
0.120961
0.160466
0.140064
0.14181
0.142268
0.14161
0.140322
0.138698
0.137341
0.135289
0.120547
0.161001
0.140218
0.142127
0.142711
0.141894
0.140616
0.139131
0.138284
0.137339
416.218
416.982
417.53
417.672
417.66
417.747
418.037
418.473
418.938
419.254
415.993
416.749
417.376
417.366
417.239
417.298
417.649
418.197
418.777
419.181
415.334
416.031
416.765
416.456
416.147
416.238
416.771
417.577
418.412
419
414.134
414.668
415.424
414.464
413.873
414.184
415.209
416.568
417.902
418.871
412.594
412.883
412.98
410.51
409.571
410.499
412.518
414.871
417.024
418.727
405.731
407.178
405.268
401.853
402.042
404.415
408.086
412.268
415.975
419.209
381.548
358.635
336.117
358.684
384.95
397.106
403.162
409.592
415.024
420.338
243.399
110.46
58.2432
100.104
182.463
263.271
324.507
384.568
414.313
419.807
58.9056
0.269067
0.183626
0.238607
0.276192
1.30164
17.64
74.7095
201.1
354.2
4.45008
0.12155
0.152181
0.205513
0.229638
0.225642
0.236126
0.177272
16.4882
71.6806
0.0999982
0.13228
0.175976
0.188258
0.190438
0.169174
0.144824
0.0825064
-0.0234882
0.0370759
0.0864934
0.125805
0.153898
0.154993
0.15205
0.135425
0.103561
0.0617124
-0.0111827
0.0336117
0.0948034
0.118548
0.135736
0.131813
0.12617
0.111683
0.0838783
0.0543921
0.0193808
0.0441055
0.0944722
0.200726
0.128687
0.123864
0.117058
0.104575
0.0857905
0.0611266
0.0323768
0.0537694
0.110771
0.337676
0.130755
0.126551
0.120581
0.11023
0.101846
0.0886537
0.0620117
0.0792079
0.125591
0.36149
0.135573
0.133178
0.129275
0.12249
0.120955
0.126061
0.111747
0.107711
0.189093
0.319988
0.138653
0.138615
0.136542
0.132662
0.12866
0.144086
0.153431
0.152134
0.123685
0.169339
0.139885
0.141628
0.14074
0.138472
0.13641
0.136269
0.1411
0.136554
1.61455
0.155425
0.139264
0.142947
0.142785
0.141263
0.139684
0.138311
0.1369
0.134678
4.59961
0.141864
0.137858
0.143913
0.144089
0.142822
0.141311
0.139951
0.138752
0.137224
416.596
417.703
418.203
418.372
418.13
417.99
418.096
418.4
418.782
419.063
415.995
417.543
418.387
418.32
417.891
417.611
417.723
418.12
418.613
418.978
414.71
417.061
418.53
417.942
417.084
416.672
416.863
417.486
418.218
418.765
412.454
415.889
418.625
416.716
415.056
414.68
415.274
416.427
417.691
418.613
407.643
413.504
418.322
413.709
410.659
410.854
412.511
414.705
416.772
418.458
394.469
405.478
410.667
402.583
401.276
404.057
407.82
412.177
415.885
419.144
372.556
386.621
323.755
303.733
358.341
393.82
402.538
409.385
415.226
420.669
384.023
300.902
65.4797
31.434
104.475
236.605
326.75
390.667
415.113
423.807
413.084
62.4931
0.131959
0.257813
0.269817
0.337328
14.6875
76.4466
220.846
374.038
237.804
1.77093
0.103393
0.156497
0.228945
0.237885
0.241987
0.154659
24.3095
99.5375
50.9403
0.151003
0.155466
0.176644
0.195758
0.185619
0.161233
0.0770268
-0.0372607
0.0488445
28.1425
0.127743
0.134263
0.149089
0.148156
0.14509
0.116853
0.0732469
-0.00310527
0.0504989
31.7389
0.116866
0.117923
0.125483
0.116717
0.114233
0.0888276
0.0687834
0.0317328
0.0588755
33.0917
0.103616
0.111055
0.115703
0.106423
0.100415
0.0844444
0.0790636
0.0389244
0.0613995
27.0349
0.115682
0.117266
0.121195
0.112141
0.104791
0.0989193
0.0971444
0.0696305
0.0802645
27.1505
0.129056
0.129818
0.132741
0.125276
0.118604
0.113424
0.123109
0.116003
0.106276
47.5082
0.14531
0.141184
0.142378
0.136168
0.130942
0.126016
0.128463
0.131927
0.129073
72.0542
0.156976
0.146858
0.147034
0.141792
0.138213
0.135409
0.133665
0.132922
0.13442
72.3018
0.161678
0.148795
0.148736
0.14442
0.141854
0.139624
0.138146
0.136403
0.133982
20.8198
0.159765
0.14708
0.149923
0.146464
0.144219
0.141962
0.1403
0.138884
0.137207
414.372
418.953
419.558
419.399
418.713
418.293
418.247
418.459
418.785
419.041
408.6
418.496
420.001
419.692
418.695
418.002
417.895
418.18
418.612
418.951
401.633
418.241
420.854
419.922
418.254
417.231
417.089
417.552
418.219
418.728
396.041
417.273
422.682
419.578
416.594
415.407
415.547
416.484
417.67
418.564
388.896
413.114
425.129
417.849
412.143
411.488
412.815
414.779
416.759
418.399
362.506
401.953
417.495
403.876
400.278
403.793
408.058
412.316
415.956
419.116
314.154
386.436
337.798
233.482
317.846
389.299
401.951
409.229
415.361
421.035
321.833
387.024
120.979
7.88446
49.7015
207.26
329.981
394.838
415.421
424.62
423.185
376.65
25.0853
0.87828
0.399644
0.613632
13.4902
75.8681
230.155
383.937
489.236
178.767
1.66424
0.215471
0.262155
0.247716
0.265763
0.22954
28.2363
115.679
506.23
56.9252
0.145689
0.161584
0.228073
0.203046
0.17959
0.081674
-0.0413946
0.0485508
536.864
22.2601
0.0997375
0.135655
0.365364
0.200719
0.126728
0.0767815
-0.0108067
0.0506123
487.734
3.90177
0.0810729
0.154428
0.478805
0.252094
0.0943766
0.077696
0.0262059
0.0594906
172.043
0.0986189
0.0902315
0.11977
0.442476
0.236388
0.0810355
0.0778356
0.0406075
0.0631575
79.9517
0.147784
0.114127
0.129156
0.272119
0.166486
0.0938062
0.0925293
0.077487
0.0800271
125.796
0.169104
0.139879
0.161167
0.170544
0.134044
0.106808
0.11418
0.117699
0.10552
196.742
0.180867
0.158078
0.161132
0.14033
0.132968
0.123656
0.123053
0.125735
0.123639
204.559
0.167552
0.15251
0.148416
0.142752
0.138724
0.134121
0.13224
0.130192
0.129539
97.5259
0.175365
0.153787
0.15024
0.145478
0.141898
0.139185
0.137337
0.13563
0.133359
1.98511
0.198931
0.155225
0.153957
0.148195
0.144826
0.14203
0.140049
0.138434
0.136801
414.597
417.617
419.213
419.379
418.784
418.402
418.367
418.575
418.896
419.149
408.847
417.079
419.723
419.732
418.792
418.114
418.019
418.299
418.723
419.059
402.069
418.731
420.85
420.084
418.451
417.378
417.22
417.677
418.334
418.837
394.837
417.949
422.91
419.929
416.933
415.635
415.712
416.626
417.786
418.672
387.37
413.546
424.999
418.407
412.682
411.82
413.032
414.931
416.867
418.509
362.87
400.71
415.73
403.772
400.434
404.032
408.237
412.459
416.09
419.217
314.201
383.218
342.699
226.96
306.489
386.822
401.924
409.285
415.451
421.159
326.414
384.058
115.629
7.09345
40.3749
190.197
324.428
394.628
415.337
424.631
433.08
304.405
13.4248
0.827077
0.392715
0.672726
12.5873
72.7132
227.92
383.757
475.768
76.9272
0.153611
0.252942
0.279368
0.254499
0.272543
0.251104
27.9964
116.294
408.016
18.4371
0.156487
0.225489
0.289665
0.220197
0.181333
0.0780527
-0.0438431
0.044096
360.855
21.553
0.186666
1.22209
1.22212
0.272339
0.123114
0.0706784
-0.0147572
0.0459044
403.589
33.2234
0.206371
1.46487
1.61137
0.436436
0.0888406
0.0745273
0.0247507
0.0587064
474.291
35.9998
0.143981
0.177296
1.73413
0.461304
0.0813761
0.080221
0.0498006
0.064393
512.269
15.7636
0.0964912
0.130092
1.21423
0.355018
0.0910026
0.0955057
0.0844147
0.081772
541.03
0.446148
0.130729
0.149838
0.123537
0.250185
0.108634
0.1129
0.12258
0.106526
426.012
2.27876
0.177634
0.163842
0.14278
0.176457
0.124235
0.123288
0.130498
0.126958
57.1137
10.3423
0.157921
0.158532
0.147758
0.139249
0.1339
0.131386
0.129468
0.129455
1.15791
3.61107
0.176225
0.151741
0.147125
0.144451
0.138875
0.13659
0.134802
0.132633
59.6926
1.81178
0.144893
0.153234
0.149426
0.14571
0.1419
0.139407
0.137522
0.135993
417.373
418.928
419.1
419.063
418.67
418.447
418.498
418.762
419.118
419.388
417.132
418.733
419.286
419.023
418.442
418.074
418.13
418.484
418.949
419.3
416.977
418.603
419.594
418.717
417.686
417.154
417.282
417.859
418.559
419.089
415.498
418.402
420.065
417.669
415.732
415.2
415.708
416.801
418.022
418.926
410.881
417.4
420.376
414.977
411.406
411.381
412.98
415.08
417.092
418.755
397.479
409.14
412.676
403.483
401.753
404.432
408.38
412.547
416.199
419.392
380.525
385.306
316.133
298.128
353.805
392.912
402.269
409.454
415.463
421.014
386.266
258.813
53.639
29.6484
97.8433
226.312
323.212
390.888
415.128
423.588
331.759
31.8284
0.199212
0.256773
0.275681
0.341756
13.3808
74.7581
220.052
373.316
80.8908
0.144315
0.133097
0.170357
0.231078
0.243021
0.243032
0.145825
24.2928
99.2336
3.48616
0.171966
0.184769
0.195255
0.208071
0.186893
0.149955
0.0617918
-0.0491302
0.0342978
5.2154
0.164865
0.174415
0.194823
0.182088
0.141901
0.105455
0.0578343
-0.0180777
0.0363772
16.7834
0.145628
0.171375
0.199688
0.148554
0.111128
0.0898993
0.0562801
0.019009
0.0587668
39.3601
0.126271
0.164925
0.226425
0.147929
0.103852
0.0959754
0.0879309
0.0412957
0.0633614
70.7296
0.136094
0.150146
0.249153
0.13677
0.111841
0.105966
0.110383
0.0919293
0.0836617
96.9175
0.177509
0.162755
0.262932
0.186531
0.122557
0.115153
0.126792
0.126523
0.107812
98.5266
0.190055
0.204517
0.154221
0.20397
0.131195
0.126433
0.125082
0.128029
0.125949
38.0331
0.158788
0.20066
0.145856
0.147529
0.137124
0.133558
0.131222
0.128883
0.127881
0.107712
0.155659
0.150572
0.14546
0.142743
0.140021
0.137351
0.135371
0.133575
0.131438
0.108006
0.166451
0.142871
0.147003
0.144983
0.142355
0.139872
0.137852
0.136167
0.134691
417.895
418.43
418.789
418.709
418.52
418.48
418.68
419.055
419.481
419.779
418.202
418.566
418.81
418.497
418.141
418.049
418.301
418.782
419.319
419.703
418.539
418.595
418.601
417.767
417.122
417.021
417.441
418.172
418.959
419.524
419.136
418.462
417.827
416.002
414.926
414.986
415.873
417.154
418.436
419.38
419.641
418.31
415.98
412.218
410.659
411.302
413.168
415.44
417.542
419.218
412.026
411.972
407.577
402.98
402.838
405.111
408.721
412.834
416.478
419.657
366.427
328.996
325.237
356.388
384.655
397.021
403.279
409.842
415.45
420.791
158.041
65.4219
48.877
96.5511
182.193
262.741
324.52
385.161
414.525
419.218
18.1169
0.188683
0.188834
0.246718
0.280217
0.655588
17.3099
75.3399
201.779
352.364
0.19906
0.135897
0.16233
0.210104
0.228346
0.216634
0.228281
0.139114
16.7684
69.469
0.209331
0.201697
0.192253
0.193954
0.185468
0.160663
0.122978
0.0515291
-0.0505647
0.0132687
0.945988
0.259487
0.170277
0.161443
0.147284
0.126104
0.0864766
0.0396437
-0.0408665
0.0143561
4.42549
0.135655
0.152983
0.137708
0.125084
0.107006
0.0770378
0.0448211
0.00576575
0.0436754
5.45955
0.125991
0.14299
0.12963
0.118653
0.105121
0.0887411
0.0668992
0.0395041
0.0583855
2.17068
0.13295
0.141522
0.131339
0.122556
0.113147
0.105652
0.107917
0.0796039
0.0833209
0.233744
0.145715
0.152736
0.136727
0.129936
0.123838
0.118055
0.121839
0.120104
0.108629
0.164727
0.175922
0.276054
0.139927
0.135723
0.131623
0.128176
0.125213
0.123258
0.123133
0.266421
0.298493
0.293859
0.139722
0.138234
0.135792
0.133387
0.131313
0.128364
0.125298
0.415552
0.658967
0.25847
0.138916
0.139225
0.137798
0.13583
0.134027
0.13228
0.129874
0.140759
0.582049
0.134222
0.139847
0.140757
0.139482
0.137604
0.135917
0.134483
0.133103
417.774
418.084
418.296
418.352
418.386
418.584
418.987
419.508
420.022
420.356
417.815
417.928
418.045
417.96
417.921
418.132
418.612
419.253
419.887
420.314
417.642
417.376
417.251
416.909
416.797
417.12
417.809
418.716
419.599
420.205
416.706
415.922
415.406
414.696
414.547
415.174
416.37
417.788
419.151
420.124
414.45
412.85
411.583
410.459
410.479
411.732
413.821
416.174
418.332
420.001
403.554
403.039
402.827
402.593
403.661
405.927
409.549
413.546
417.139
420.224
254.104
303.271
356.527
383.543
392.82
399.573
404.617
410.581
415.665
420.775
10.5237
28.5245
92.6546
178.712
235.43
279.953
328.409
381.04
411.409
410.305
0.666054
0.225613
0.22373
0.268578
0.286971
3.12337
22.7551
75.1846
178.205
315.222
0.170824
0.16476
0.192369
0.212913
0.212656
0.184788
0.175921
0.132363
6.03662
38.6648
0.175457
0.189371
0.188499
0.182209
0.162465
0.129211
0.089486
0.0394583
-0.0610789
-0.0249808
0.169897
0.163707
0.167315
0.153539
0.131678
0.102398
0.0606131
0.00738529
-0.0512112
-0.0202578
0.159314
0.149937
0.150259
0.134147
0.119391
0.0973962
0.067252
0.0298798
-0.0134712
0.0219999
0.161204
0.139391
0.141459
0.130115
0.120055
0.104314
0.0852675
0.0617031
0.038039
0.0550115
0.480956
0.165401
0.14039
0.131285
0.125876
0.116298
0.1047
0.0910527
0.0791246
0.0829235
0.637368
0.225898
0.139565
0.133571
0.131365
0.126781
0.120786
0.119851
0.127214
0.128845
0.26221
0.23995
0.170946
0.134687
0.13452
0.132631
0.13009
0.129402
0.1304
0.12439
0.107454
0.221235
0.274832
0.134761
0.135781
0.135011
0.133392
0.131105
0.127996
0.123873
0.113171
0.434643
0.291857
0.134773
0.136297
0.135753
0.134236
0.132405
0.13045
0.128028
0.127506
0.250907
0.185375
0.136054
0.137211
0.13639
0.134797
0.133267
0.131985
0.130879
417.211
417.556
417.862
418.107
418.405
418.865
419.483
420.151
420.756
421.135
417.003
417.224
417.442
417.629
417.923
418.429
419.152
419.952
420.687
421.164
416.341
416.299
416.358
416.486
416.85
417.534
418.481
419.544
420.526
421.175
414.602
414.179
414.107
414.226
414.763
415.817
417.231
418.793
420.242
421.232
410.441
409.768
409.837
410.164
411.096
412.789
414.989
417.395
419.595
421.215
400.445
400.909
402.3
403.415
404.968
407.597
411.033
414.86
418.412
421.215
319.011
354.778
384.163
392.704
397.011
401.112
406.23
411.817
416.524
420.859
44.9622
91.2825
174.23
232.858
263.119
296.083
337.947
378.273
402.481
396.437
0.312817
0.247264
0.269028
0.282243
0.313431
8.46553
31.0423
74.5625
147.864
255.899
0.209206
0.207581
0.215733
0.212614
0.188169
0.142905
0.120361
0.107947
0.224838
16.3392
0.187476
0.191166
0.182584
0.167906
0.135996
0.0897089
0.0354059
-0.0176773
-0.0725445
-0.062109
0.156196
0.159138
0.156187
0.137784
0.108155
0.0679763
0.0106681
-0.0656983
-0.0951631
-0.0590815
0.137355
0.139118
0.135518
0.122356
0.106068
0.0831754
0.0584796
0.0184123
-0.0266952
0.000359226
0.132318
0.130364
0.129943
0.123126
0.115327
0.104042
0.0951903
0.119678
0.0782814
0.050268
0.138173
0.129237
0.132087
0.127879
0.125409
0.121203
0.113436
0.116354
0.102941
0.0848622
0.165571
0.126464
0.134041
0.131779
0.132106
0.131756
0.128135
0.120633
0.12761
0.132929
0.371704
0.131032
0.132992
0.133231
0.134836
0.135581
0.134423
0.131187
0.13006
0.124098
0.440758
0.147837
0.130872
0.133304
0.135219
0.135891
0.134852
0.131264
0.128037
0.123948
0.288319
0.186465
0.130092
0.133191
0.134719
0.134658
0.133091
0.130025
0.127416
0.125954
0.116839
0.125839
0.131813
0.133932
0.134618
0.133641
0.131345
0.129204
0.127635
0.128211
416.926
417.311
417.706
418.132
418.67
419.363
420.165
420.967
421.662
422.087
416.536
416.878
417.245
417.668
418.231
419.002
419.926
420.872
421.702
422.232
415.631
415.854
416.169
416.637
417.331
418.284
419.441
420.65
421.727
422.425
413.787
413.817
414.1
414.682
415.612
416.909
418.504
420.192
421.71
422.725
410.176
410.028
410.428
411.242
412.577
414.434
416.711
419.147
421.361
422.929
403.245
403.379
404.339
405.456
407.378
409.984
413.267
416.979
420.472
422.965
387.967
392.952
396.758
399.215
400.842
404.243
408.788
413.884
418.359
421.883
188.405
219.976
254.849
275.176
293.21
321.128
348.412
371.291
383.939
370.463
0.307647
0.310282
0.373143
3.08595
8.24867
20.5797
42.0125
72.5333
114.358
192.348
0.230891
0.235708
0.217984
0.186708
0.145016
0.111507
0.0704407
0.122109
0.305025
2.62543
0.187145
0.178415
0.156544
0.133223
0.0898768
0.0278758
-0.0647354
-0.112421
-0.110948
-0.0721209
0.155654
0.143463
0.127543
0.105809
0.0657787
0.00592072
-0.051507
-0.14496
-0.144629
-0.0876216
0.138271
0.124813
0.114704
0.10286
0.0839782
0.0576278
0.065754
0.0534569
-0.061753
-0.0243754
0.124713
0.118418
0.11539
0.112058
0.109539
0.109321
0.124563
0.203261
0.138723
0.0453781
0.125405
0.120203
0.122104
0.122837
0.12665
0.132032
0.137272
0.177766
0.258084
0.101418
0.127831
0.123627
0.128561
0.130164
0.135122
0.141175
0.14388
0.142357
0.163165
0.142358
0.130518
0.124316
0.130805
0.132842
0.136881
0.141074
0.142568
0.136984
0.128789
0.128604
0.181907
0.125789
0.130414
0.132814
0.1357
0.138264
0.138596
0.132844
0.128204
0.124491
0.210595
0.124522
0.129758
0.132102
0.133624
0.133992
0.133102
0.129406
0.124037
0.121264
0.121694
0.126746
0.130614
0.132037
0.132164
0.130448
0.128075
0.125866
0.121342
0.120392
416.985
417.387
417.857
418.434
419.159
420.026
420.975
421.892
422.667
423.139
416.598
416.989
417.46
418.052
418.826
419.786
420.871
421.939
422.853
423.437
415.724
416.09
416.575
417.236
418.15
419.299
420.621
421.953
423.118
423.876
414.17
414.479
414.992
415.794
416.897
418.359
420.089
421.865
423.436
424.502
411.593
411.785
412.307
413.247
414.644
416.556
418.851
421.284
423.519
425.071
407.161
407.324
407.928
408.972
410.665
413.089
416.22
419.853
423.332
425.696
401.601
401.89
402.682
404.013
405.68
408.446
412.166
416.806
421.236
424.425
321.476
319.96
319.029
322.468
332.398
344.839
352.638
355.982
355.317
346.5
11.6816
12.4894
15.6396
21.2674
29.7367
41.2501
54.1837
68.0264
87.1545
127.206
0.234084
0.220662
0.213484
0.181843
0.129995
0.0796904
0.0178372
0.134569
0.51627
1.07007
0.153887
0.140147
0.1198
0.0922763
0.0306805
-0.0787302
-0.186241
-0.185969
-0.110252
-0.00400116
0.13696
0.110681
0.0899741
0.0587646
-0.0099452
-0.0955763
-0.11487
-0.155203
-0.165659
-0.08255
0.116213
0.106897
0.0845932
0.0714948
0.0440933
0.0177818
0.115327
0.150549
-0.0669702
-0.0242771
0.117972
0.117222
0.0979115
0.0991952
0.112042
0.13124
0.182217
0.219169
0.125798
0.0426845
0.120963
0.120042
0.111903
0.114571
0.131652
0.155333
0.180358
0.215125
0.320225
0.281274
0.121523
0.121308
0.122212
0.127068
0.138923
0.153338
0.16567
0.172368
0.231093
0.251663
0.12626
0.124484
0.128463
0.132008
0.139241
0.1471
0.151899
0.148217
0.137095
0.135985
0.126296
0.125776
0.129791
0.132274
0.136099
0.140281
0.141224
0.136057
0.128845
0.124563
0.123922
0.126117
0.129601
0.131151
0.132409
0.133561
0.131773
0.126402
0.11982
0.117758
0.125559