/*--------------------------------*- C++ -*----------------------------------*\
| =========                 |                                                 |
| \\      /  F ield         | OpenFOAM: The Open Source CFD Toolbox           |
|  \\    /   O peration     | Version:  2312                                  |
|   \\  /    A nd           | Website:  www.openfoam.com                      |
|    \\/     M anipulation  |                                                 |
\*---------------------------------------------------------------------------*/
FoamFile
{
    version     2.0;
    format      ascii;
    arch        "LSB;label=32;scalar=64";
    class       surfaceScalarField;
    location    "0.435";
    object      phi;
}
// * * * * * * * * * * * * * * * * * * * * * * * * * * * * * * * * * * * * * //

dimensions      [0 3 -1 0 0 0 0];

oriented        oriented;

internalField   nonuniform List<scalar> 
22600
(
2.17901e-07
7.70705e-08
-2.84938e-07
4.03601e-07
8.92904e-08
-2.7499e-07
5.48955e-07
1.15091e-07
-2.60444e-07
6.42114e-07
1.53495e-07
-2.46655e-07
6.74306e-07
2.027e-07
-2.34892e-07
6.43863e-07
2.57943e-07
-2.275e-07
5.51027e-07
3.15958e-07
-2.23122e-07
4.06183e-07
3.64343e-07
-2.19499e-07
2.27497e-07
3.93869e-07
-2.15183e-07
4.53072e-07
-2.25575e-07
2.5292e-07
1.71014e-07
-3.34625e-07
4.71524e-07
1.96464e-07
-3.25776e-07
6.48467e-07
2.49748e-07
-3.11601e-07
7.67471e-07
3.3091e-07
-2.96418e-07
8.16517e-07
4.36954e-07
-2.833e-07
7.88304e-07
5.60573e-07
-2.74417e-07
6.83029e-07
6.91459e-07
-2.70226e-07
5.10014e-07
8.04747e-07
-2.67389e-07
2.82083e-07
8.84969e-07
-2.63169e-07
1.0136e-06
-2.78442e-07
2.79675e-07
2.61686e-07
-3.59639e-07
5.24471e-07
3.01353e-07
-3.49685e-07
7.23759e-07
3.83462e-07
-3.33002e-07
8.60452e-07
5.12228e-07
-3.1801e-07
9.20406e-07
6.84095e-07
-3.07096e-07
8.93304e-07
8.88477e-07
-3.00802e-07
7.76213e-07
1.10964e-06
-3.0109e-07
5.83666e-07
1.30174e-06
-3.04448e-07
3.24512e-07
1.45e-06
-3.05877e-07
1.65886e-06
-3.20749e-07
3.211e-07
3.24965e-07
-3.75372e-07
6.13673e-07
3.81651e-07
-3.72871e-07
8.61495e-07
4.99907e-07
-3.64267e-07
1.03937e-06
6.89021e-07
-3.54665e-07
1.12533e-06
9.50594e-07
-3.52465e-07
1.10911e-06
1.26135e-06
-3.56643e-07
9.86413e-07
1.59857e-06
-3.66241e-07
7.52106e-07
1.91283e-06
-3.76786e-07
3.90727e-07
2.1687e-06
-3.57323e-07
2.4357e-06
-3.86115e-07
3.81958e-07
2.47382e-07
-2.97634e-07
7.37967e-07
3.26868e-07
-3.01226e-07
1.04462e-06
5.0753e-07
-3.14279e-07
1.27763e-06
7.87058e-07
-3.31044e-07
1.40812e-06
1.16984e-06
-3.49731e-07
1.40405e-06
1.63933e-06
-3.73905e-07
1.21597e-06
2.19441e-06
-4.07758e-07
8.32633e-07
2.67597e-06
-3.79793e-07
3.23538e-07
2.90481e-06
-2.27016e-07
3.07323e-06
-3.13993e-07
5.06522e-07
-2.05974e-07
-9.43201e-08
1.04922e-06
-1.16551e-07
-9.92784e-08
1.53723e-06
1.30762e-07
-1.11239e-07
1.91636e-06
5.47216e-07
-1.39292e-07
2.14313e-06
1.15807e-06
-2.15002e-07
2.20382e-06
1.88519e-06
-3.06554e-07
1.96641e-06
2.7824e-06
-3.50586e-07
1.34082e-06
3.59809e-06
-2.9654e-07
5.07779e-07
3.90784e-06
-1.69984e-07
3.94927e-06
-3.68264e-07
6.65453e-07
-6.75867e-07
-2.52112e-07
1.40912e-06
-6.2092e-07
-2.39302e-07
2.14004e-06
-4.39437e-07
-1.60714e-07
2.79168e-06
-3.65702e-08
-6.78577e-08
3.13706e-06
8.49518e-07
-3.68233e-08
3.1637e-06
1.93532e-06
-7.67725e-08
2.85264e-06
3.32019e-06
-2.26729e-07
2.02743e-06
4.87863e-06
-4.55319e-07
9.36052e-07
5.77997e-06
-7.80757e-07
5.81923e-06
-9.33907e-07
8.40067e-07
-7.49402e-07
-7.12042e-07
1.65973e-06
-7.10918e-07
-7.29665e-07
2.50428e-06
-5.87095e-07
-6.96894e-07
3.32039e-06
-2.19185e-07
-6.33495e-07
4.3362e-06
3.8997e-07
-5.56263e-07
5.27872e-06
1.66386e-06
-6.7106e-07
5.47043e-06
4.21293e-06
-1.08446e-06
4.19607e-06
7.72064e-06
-1.56765e-06
2.18058e-06
9.88156e-06
-2.0861e-06
1.0387e-05
-2.3872e-06
1.0004e-06
-2.28624e-07
-1.47752e-06
2.02656e-06
-2.85504e-07
-1.45158e-06
3.23275e-06
-3.37789e-07
-1.45549e-06
4.78107e-06
-2.29425e-07
-1.53808e-06
6.78105e-06
2.06722e-07
-1.81674e-06
8.63392e-06
2.17305e-06
-2.36205e-06
8.68417e-06
6.89196e-06
-2.72929e-06
6.96499e-06
1.21776e-05
-2.73777e-06
3.75241e-06
1.61004e-05
-3.00625e-06
1.79998e-05
-3.86039e-06
1.31401e-06
-2.63855e-06
1.16193e-06
2.75714e-06
-2.93158e-06
1.20295e-06
4.53684e-06
-3.38132e-06
1.26382e-06
6.8481e-06
-3.83858e-06
1.2979e-06
8.72829e-06
-2.64526e-06
9.71799e-07
8.28051e-06
2.51235e-06
1.08474e-07
8.13559e-06
7.79251e-06
-7.55625e-07
8.1286e-06
1.38066e-05
-1.62201e-06
4.43615e-06
2.19602e-05
-2.16731e-06
2.6682e-05
-4.246e-06
1.7868e-06
-1.22861e-06
-2.63054e-06
3.36934e-06
-1.45507e-06
-3.05904e-06
5.0087e-06
-1.72043e-06
-3.30025e-06
5.90294e-06
-1.82467e-06
-2.90815e-06
6.94513e-06
-7.05782e-07
-2.98167e-06
8.06995e-06
3.18237e-06
-1.79483e-06
8.07634e-06
8.54218e-06
-7.56058e-07
6.95815e-06
1.54815e-05
-5.56747e-07
2.18007e-06
2.76461e-05
-9.07835e-07
3.13044e-05
-2.44234e-06
1.9206e-06
2.2286e-06
-4.37462e-06
2.78561e-06
1.89423e-06
-4.21431e-06
3.46037e-06
1.58091e-06
-3.97611e-06
3.74651e-06
1.5181e-06
-3.6289e-06
3.60563e-06
1.12287e-06
-1.68776e-06
3.92675e-06
1.32301e-06
1.53823e-06
3.53074e-06
5.76272e-06
3.17548e-06
1.15523e-06
1.5443e-05
2.41405e-06
-2.08634e-06
2.99136e-05
9.74046e-07
2.84211e-05
7.96921e-07
1.50684e-06
4.36223e-06
-2.38009e-06
1.71232e-06
3.78398e-06
-2.09522e-06
1.71482e-06
3.19753e-06
-1.61912e-06
1.08225e-06
2.58589e-06
-4.35232e-07
-6.90446e-07
5.90559e-07
2.305e-06
-2.49731e-06
-1.38146e-06
4.51134e-06
-4.05391e-06
1.95405e-06
5.36527e-06
-5.64639e-06
1.23418e-05
4.69367e-06
-4.24922e-06
2.48918e-05
3.62466e-06
2.06192e-05
3.55273e-06
8.1126e-07
4.88817e-06
-2.93201e-07
5.67828e-07
4.27285e-06
-2.45458e-07
2.96829e-07
3.49681e-06
-2.82894e-08
-5.47892e-07
2.15322e-06
1.27739e-06
-2.66441e-06
8.06153e-08
2.62647e-06
-5.64897e-06
-1.64449e-06
3.24758e-06
-8.12264e-06
5.80287e-07
3.84745e-06
-8.41078e-06
7.88547e-06
4.74448e-06
-4.49946e-06
1.57097e-05
5.27072e-06
1.14037e-05
4.71603e-06
1.02277e-07
4.03004e-06
1.34581e-06
-2.58979e-07
3.4414e-06
1.19272e-06
-3.72729e-07
2.62853e-06
9.82011e-07
-7.38926e-07
1.30071e-06
1.2187e-06
-2.19248e-06
7.09178e-08
1.46324e-06
-4.78817e-06
-3.1504e-07
1.26624e-06
-6.91006e-06
1.8124e-06
8.89778e-07
-6.60747e-06
5.85477e-06
1.72811e-06
-3.10966e-06
8.91625e-06
3.29569e-06
5.1328e-06
3.16121e-06
-5.29268e-08
2.49225e-06
1.80624e-06
-2.06133e-07
2.02238e-06
1.57222e-06
-2.77128e-07
1.55282e-06
1.14672e-06
-5.31876e-07
8.29857e-07
7.25597e-07
-1.33156e-06
3.6325e-07
5.07366e-07
-2.86278e-06
8.67793e-07
3.48394e-07
-4.38069e-06
3.68794e-06
-3.57632e-07
-3.81955e-06
6.51993e-06
-1.22629e-06
-1.4481e-06
7.05748e-06
-5.12672e-07
3.53539e-06
1.49306e-07
1.0046e-07
1.20072e-06
1.19926e-06
1.01594e-07
9.99096e-07
1.02215e-06
1.30407e-08
8.63006e-07
7.78359e-07
-1.38923e-07
6.13091e-07
3.68719e-07
-3.72419e-07
4.46769e-07
1.4998e-07
-1.13781e-06
1.35697e-06
2.76227e-07
-2.50078e-06
4.96812e-06
8.27878e-08
-2.4554e-06
7.90572e-06
-1.43117e-06
-8.03138e-07
7.56961e-06
-2.16438e-06
4.15489e-06
-1.42263e-06
1.36697e-07
5.04033e-07
6.178e-07
1.5672e-07
4.06012e-07
5.7307e-07
2.64781e-07
3.20371e-07
4.34577e-07
4.54837e-07
1.55015e-07
2.68029e-07
6.3912e-07
-6.67673e-08
3.29272e-07
3.43925e-08
1.23842e-06
7.23273e-07
-1.4305e-06
5.60224e-06
8.30775e-07
-1.96025e-06
8.91998e-06
-4.84498e-07
-8.34758e-07
8.16201e-06
-1.71789e-06
4.95806e-06
-1.63793e-06
1.35279e-07
1.05315e-07
3.39444e-07
1.53188e-07
6.69173e-09
3.81412e-07
2.97555e-07
-1.23151e-07
2.99148e-07
5.8391e-07
-3.97676e-07
2.66339e-07
6.92619e-07
-7.90052e-07
6.14577e-07
3.42302e-08
8.23752e-07
1.07306e-06
-1.2339e-06
5.67303e-06
1.19734e-06
-1.63936e-06
9.23608e-06
8.93618e-08
-8.24257e-07
8.36826e-06
-1.02135e-06
5.31088e-06
-1.17708e-06
2.46305e-08
1.82368e-07
-1.03138e-07
-7.61655e-10
2.52412e-07
-2.20333e-07
5.26814e-08
2.03753e-07
-3.80356e-07
1.38337e-07
2.68773e-07
-7.52107e-07
-2.25225e-07
7.56275e-07
-1.18276e-06
-9.43351e-07
1.21925e-06
3.22623e-07
-1.59822e-06
1.16805e-06
5.15985e-06
-1.48535e-06
2.93137e-07
8.83007e-06
-8.90895e-07
-3.13127e-07
8.08693e-06
-3.5746e-07
4.77745e-06
1.75301e-07
-5.02888e-08
-3.97942e-07
3.28816e-07
-3.03247e-08
-3.9818e-07
4.59674e-07
3.82075e-09
-3.95122e-07
5.53158e-07
5.11903e-08
-3.91329e-07
5.94759e-07
1.10974e-07
-3.87467e-07
5.76419e-07
1.75819e-07
-3.84979e-07
4.98039e-07
2.38789e-07
-3.83531e-07
3.72868e-07
2.85662e-07
-3.79989e-07
2.17096e-07
3.11157e-07
-3.70567e-07
3.94224e-07
-4.02704e-07
2.21645e-07
-1.07764e-07
-4.85523e-07
4.11871e-07
-5.62239e-08
-4.90102e-07
5.73087e-07
1.86109e-08
-4.87607e-07
6.83982e-07
1.26009e-07
-4.82131e-07
7.3283e-07
2.54583e-07
-4.75758e-07
7.11824e-07
3.9469e-07
-4.72281e-07
6.17865e-07
5.34138e-07
-4.71616e-07
4.66012e-07
6.40281e-07
-4.70155e-07
2.66317e-07
7.08752e-07
-4.61069e-07
8.86306e-07
-5.04207e-07
2.46858e-07
-1.47477e-07
-5.54272e-07
4.57586e-07
-5.71309e-08
-5.59505e-07
6.33172e-07
6.52222e-08
-5.552e-07
7.61771e-07
2.22681e-07
-5.43281e-07
8.22715e-07
4.21349e-07
-5.34805e-07
8.00143e-07
6.46541e-07
-5.30081e-07
6.94005e-07
8.70477e-07
-5.31291e-07
5.28107e-07
1.03592e-06
-5.34188e-07
3.07161e-07
1.15118e-06
-5.27364e-07
1.45022e-06
-5.77501e-07
2.83607e-07
-1.73195e-07
-6.22562e-07
5.42116e-07
-6.24668e-08
-6.26043e-07
7.65912e-07
1.04491e-07
-6.27332e-07
9.2549e-07
3.31205e-07
-6.22768e-07
1.00395e-06
6.14378e-07
-6.23951e-07
9.87463e-07
9.40086e-07
-6.33704e-07
8.72738e-07
1.27627e-06
-6.57309e-07
6.68179e-07
1.54198e-06
-6.78287e-07
3.59678e-07
1.76678e-06
-6.64423e-07
2.16873e-06
-7.4495e-07
3.16884e-07
-6.43244e-08
-7.23368e-07
6.16353e-07
5.81782e-08
-7.2134e-07
8.80492e-07
2.59937e-07
-7.33864e-07
1.088e-06
5.3549e-07
-7.42837e-07
1.20624e-06
8.9693e-07
-7.5052e-07
1.18423e-06
1.35627e-06
-7.68087e-07
9.80159e-07
1.85933e-06
-7.86742e-07
6.34015e-07
2.22282e-06
-7.14494e-07
2.60002e-07
2.45803e-06
-5.44246e-07
2.91634e-06
-8.01598e-07
3.72809e-07
1.58369e-07
-7.34633e-07
7.82246e-07
2.54302e-07
-7.04839e-07
1.13622e-06
4.64238e-07
-6.69514e-07
1.42231e-06
7.69624e-07
-6.5952e-07
1.62241e-06
1.19885e-06
-7.17019e-07
1.67165e-06
1.81228e-06
-8.11809e-07
1.45199e-06
2.57797e-06
-8.49564e-07
9.05967e-07
3.21133e-06
-7.39021e-07
2.89446e-07
3.5843e-06
-6.79733e-07
3.97004e-06
-1.13251e-06
4.84175e-07
6.83362e-07
-1.28708e-06
9.94436e-07
7.23513e-07
-1.21877e-06
1.48539e-06
8.69485e-07
-1.05692e-06
1.91511e-06
1.1552e-06
-8.83152e-07
2.2419e-06
1.63517e-06
-7.99926e-07
2.43918e-06
2.37936e-06
-8.4114e-07
2.35255e-06
3.47479e-06
-1.03692e-06
1.76802e-06
4.66276e-06
-1.32222e-06
7.9598e-07
5.52347e-06
-1.7479e-06
5.88482e-06
-2.05271e-06
7.15397e-07
1.15933e-06
-1.88891e-06
1.38009e-06
1.22828e-06
-1.89913e-06
2.06325e-06
1.3873e-06
-1.89786e-06
2.78557e-06
1.66783e-06
-1.86844e-06
3.57138e-06
2.18113e-06
-1.88804e-06
4.29811e-06
3.09106e-06
-2.10948e-06
4.58534e-06
4.68212e-06
-2.57902e-06
3.91603e-06
6.94378e-06
-3.17936e-06
2.20488e-06
8.98427e-06
-3.83575e-06
1.01928e-05
-4.49034e-06
9.7762e-07
1.00257e-06
-2.30253e-06
1.95194e-06
9.51942e-07
-2.14956e-06
3.01629e-06
1.11909e-06
-2.25163e-06
4.13079e-06
1.59677e-06
-2.58151e-06
5.11429e-06
2.44322e-06
-3.06233e-06
5.89941e-06
3.58822e-06
-3.64432e-06
6.20308e-06
5.93879e-06
-4.28964e-06
5.70119e-06
9.49471e-06
-4.78681e-06
3.28395e-06
1.38346e-05
-5.43935e-06
1.66868e-05
-7.07042e-06
1.63883e-06
-4.93047e-06
5.48745e-06
3.4432e-06
-5.249e-06
5.59953e-06
5.59892e-06
-4.14353e-06
4.37072e-06
7.17782e-06
2.05185e-07
1.11058e-06
7.85643e-06
4.22059e-06
-1.48418e-06
6.88367e-06
6.21231e-06
-1.54286e-06
6.03374e-06
8.3929e-06
-2.3598e-06
5.34027e-06
1.22448e-05
-3.6786e-06
1.94004e-06
2.06327e-05
-5.56519e-06
2.21913e-05
-7.81043e-06
1.71578e-06
-2.444e-06
-6.56592e-06
2.89358e-06
-2.70813e-06
-6.77772e-06
4.35689e-06
-1.9622e-06
-6.9449e-06
5.7995e-06
1.86764e-06
-6.01321e-06
7.39674e-06
4.5821e-06
-4.94043e-06
8.60605e-06
6.72652e-06
-3.51835e-06
8.55064e-06
1.01821e-05
-2.48981e-06
5.26409e-06
1.77446e-05
-2.77003e-06
3.45051e-07
2.98947e-05
-5.25078e-06
2.61904e-05
-6.09642e-06
1.54778e-06
-4.92338e-08
-7.90239e-06
2.07015e-06
-6.63608e-08
-7.37845e-06
2.12204e-06
3.99382e-07
-6.38959e-06
3.16569e-06
2.0134e-06
-4.81831e-06
4.84459e-06
3.15991e-06
-1.94447e-06
6.59965e-06
5.14953e-06
1.36015e-06
5.99617e-06
1.15805e-05
2.38054e-06
1.35055e-06
2.39397e-05
8.64614e-07
-2.21275e-06
3.66478e-05
-2.21575e-06
2.70781e-05
-2.30345e-06
1.76194e-07
1.05168e-06
-3.1204e-06
-3.91552e-07
9.93793e-07
-2.58764e-06
-1.2856e-06
1.35942e-06
-1.68512e-06
-2.10731e-06
2.0128e-06
3.87085e-07
-2.013e-06
2.10185e-06
3.26874e-06
-1.5941e-06
3.89622e-06
5.34574e-06
-2.48406e-06
1.22036e-05
5.63214e-06
-4.83827e-06
2.63986e-05
4.58891e-06
-4.23256e-06
3.66019e-05
3.06491e-06
2.34369e-05
2.96132e-06
-1.17386e-06
1.82405e-06
5.21685e-07
-2.84757e-06
1.7959e-06
6.26146e-07
-4.66328e-06
2.12799e-06
1.01884e-06
-6.30369e-06
2.50544e-06
2.42515e-06
-7.67808e-06
2.14228e-06
3.96043e-06
-8.71681e-06
3.67747e-06
4.50505e-06
-9.56786e-06
1.16149e-05
5.2872e-06
-9.072e-06
2.40521e-05
6.59515e-06
-5.24332e-06
3.05359e-05
7.50804e-06
1.62397e-05
6.66996e-06
-1.31071e-06
2.00065e-06
2.40145e-06
-2.76874e-06
2.15564e-06
2.29099e-06
-4.36938e-06
2.51499e-06
2.19565e-06
-6.06011e-06
2.76579e-06
2.64908e-06
-8.41129e-06
2.80971e-06
3.147e-06
-1.05282e-05
4.10757e-06
2.95306e-06
-1.10845e-05
9.8632e-06
3.1977e-06
-8.9152e-06
1.85423e-05
5.06869e-06
-3.76979e-06
2.18121e-05
6.87407e-06
1.02471e-05
5.38403e-06
-6.63106e-07
1.3495e-06
2.83408e-06
-1.25611e-06
1.60651e-06
2.71434e-06
-2.05228e-06
2.00047e-06
2.45741e-06
-2.93144e-06
2.1502e-06
2.22034e-06
-4.62492e-06
2.63236e-06
2.37819e-06
-6.84109e-06
4.07351e-06
2.59863e-06
-7.74783e-06
8.31198e-06
2.10033e-06
-5.59706e-06
1.31654e-05
1.99979e-06
-9.77558e-07
1.42126e-05
2.46729e-06
7.8492e-06
1.56961e-06
-1.6863e-07
6.93887e-07
2.02044e-06
-3.88464e-07
8.20208e-07
2.02828e-06
-4.89584e-07
1.03739e-06
1.84255e-06
-4.77113e-07
1.00023e-06
1.50623e-06
-5.92913e-07
1.3485e-06
1.54964e-06
-1.53408e-06
3.01298e-06
2.27791e-06
-2.82374e-06
7.42371e-06
2.26072e-06
-2.40418e-06
1.04335e-05
8.8125e-07
1.92427e-07
9.79824e-06
-3.46593e-07
7.39266e-06
-7.73652e-07
1.20853e-07
1.96829e-07
1.25416e-06
2.30861e-10
1.75731e-07
1.33817e-06
1.36138e-07
1.44922e-07
1.19115e-06
5.03716e-07
-9.75101e-08
9.98189e-07
1.06658e-06
5.96942e-08
1.05522e-06
1.15757e-06
2.01023e-06
1.63504e-06
2.97668e-07
6.92937e-06
2.18502e-06
-5.94104e-07
9.98887e-06
8.51874e-07
3.89729e-08
8.35188e-06
-9.04603e-07
7.10036e-06
-1.30666e-06
1.33347e-07
-1.25164e-07
6.96684e-07
1.13611e-08
-1.96277e-07
8.75402e-07
8.88466e-08
-3.94724e-07
7.61308e-07
3.8867e-07
-8.31067e-07
7.0007e-07
8.24572e-07
-5.70062e-07
8.08431e-07
1.21899e-06
1.81798e-06
8.70888e-07
8.8686e-07
6.8292e-06
1.62964e-06
5.71883e-08
1.00956e-05
8.12345e-07
2.51017e-09
7.95599e-06
-5.70794e-07
6.81407e-06
-8.88278e-07
-2.85921e-08
3.82215e-07
-2.68103e-07
-2.01672e-07
6.19243e-07
-3.90035e-07
-2.83829e-07
5.33262e-07
-6.42073e-07
-3.42513e-07
6.04698e-07
-1.1083e-06
-3.39751e-07
8.75617e-07
-6.92167e-07
-4.59557e-08
7.05933e-07
2.0375e-06
2.46264e-07
8.63008e-07
6.84202e-06
1.34047e-07
6.06744e-07
9.89417e-06
6.20147e-08
-1.52476e-08
7.73014e-06
1.52628e-07
6.36599e-06
1.84908e-07
-1.17581e-07
-4.55796e-07
3.43403e-07
-8.51795e-08
-4.71495e-07
4.78482e-07
-3.96759e-08
-4.90526e-07
5.74666e-07
1.72447e-08
-5.04757e-07
6.16491e-07
8.26539e-08
-5.11945e-07
5.95363e-07
1.51111e-07
-5.14962e-07
5.12958e-07
2.14684e-07
-5.1581e-07
3.82793e-07
2.60518e-07
-5.10342e-07
2.21397e-07
2.85652e-07
-4.94823e-07
3.65509e-07
-5.46816e-07
2.36453e-07
-2.44361e-07
-5.82541e-07
4.38343e-07
-1.69416e-07
-6.07755e-07
6.02931e-07
-6.59444e-08
-6.25927e-07
7.1506e-07
5.63681e-08
-6.33384e-07
7.62402e-07
1.95125e-07
-6.3557e-07
7.35499e-07
3.40454e-07
-6.34722e-07
6.34907e-07
4.78641e-07
-6.34981e-07
4.75032e-07
5.799e-07
-6.29662e-07
2.70849e-07
6.40288e-07
-6.11522e-07
8.07944e-07
-6.75794e-07
2.58101e-07
-3.38215e-07
-7.04384e-07
4.8686e-07
-2.3649e-07
-7.2119e-07
6.73357e-07
-7.68237e-08
-7.30818e-07
8.00701e-07
1.13839e-07
-7.28095e-07
8.57933e-07
3.25844e-07
-7.22757e-07
8.29239e-07
5.56379e-07
-7.17312e-07
7.15178e-07
7.76591e-07
-7.1518e-07
5.3841e-07
9.33058e-07
-7.10578e-07
3.0862e-07
1.03301e-06
-6.90297e-07
1.30624e-06
-7.67174e-07
3.0876e-07
-3.44585e-07
-9.1427e-07
5.87357e-07
-2.54442e-07
-8.86689e-07
8.21399e-07
-5.85849e-08
-8.79612e-07
9.80725e-07
1.99687e-07
-8.67942e-07
1.04803e-06
4.94087e-07
-8.59501e-07
1.01712e-06
8.1181e-07
-8.58228e-07
8.88054e-07
1.12203e-06
-8.73679e-07
6.83152e-07
1.34631e-06
-8.86636e-07
3.82041e-07
1.53853e-06
-8.68831e-07
1.92178e-06
-9.78454e-07
3.81145e-07
-2.07109e-07
-1.23973e-06
7.08293e-07
-1.5648e-07
-1.14645e-06
9.82806e-07
5.06581e-08
-1.11762e-06
1.188e-06
3.61369e-07
-1.10972e-06
1.29067e-06
7.38944e-07
-1.09805e-06
1.24785e-06
1.18122e-06
-1.09468e-06
1.03645e-06
1.63033e-06
-1.08364e-06
7.34681e-07
1.9321e-06
-9.98514e-07
3.84765e-07
2.22769e-06
-8.83495e-07
2.69072e-06
-1.18577e-06
4.61622e-07
2.12606e-07
-1.62724e-06
8.36854e-07
2.15444e-07
-1.45199e-06
1.15246e-06
3.93229e-07
-1.32769e-06
1.3939e-06
7.20263e-07
-1.25985e-06
1.53924e-06
1.11818e-06
-1.2416e-06
1.52664e-06
1.63771e-06
-1.2557e-06
1.26485e-06
2.28314e-06
-1.24058e-06
7.77892e-07
2.81668e-06
-1.13664e-06
2.82229e-07
3.24625e-06
-1.20263e-06
3.62865e-06
-1.78822e-06
6.02634e-07
8.25613e-07
-2.49062e-06
1.03661e-06
8.40813e-07
-2.27812e-06
1.41611e-06
1.00501e-06
-2.0482e-06
1.73519e-06
1.34928e-06
-1.83125e-06
1.96719e-06
1.75695e-06
-1.6707e-06
2.09306e-06
2.26681e-06
-1.59611e-06
1.98424e-06
3.02061e-06
-1.66557e-06
1.43426e-06
3.92142e-06
-1.87698e-06
5.21153e-07
4.7189e-06
-2.30744e-06
4.94317e-06
-2.84608e-06
8.30562e-07
1.47159e-06
-3.34969e-06
1.52588e-06
1.43514e-06
-3.18878e-06
2.15482e-06
1.58814e-06
-3.10993e-06
2.73877e-06
1.89403e-06
-2.99715e-06
3.30119e-06
2.23556e-06
-2.92907e-06
3.76698e-06
2.69266e-06
-3.00111e-06
3.96766e-06
3.52322e-06
-3.28232e-06
3.49115e-06
5.00127e-06
-3.7827e-06
1.90941e-06
7.03571e-06
-4.57082e-06
8.06799e-06
-5.70574e-06
8.8915e-07
1.77032e-06
-3.41869e-06
1.74297e-06
1.22151e-06
-2.78975e-06
2.58664e-06
1.43249e-06
-2.93964e-06
3.42854e-06
1.73814e-06
-3.26752e-06
4.30579e-06
1.90934e-06
-3.61335e-06
5.11217e-06
2.32836e-06
-4.0864e-06
5.596e-06
3.43518e-06
-4.68543e-06
5.18859e-06
5.98557e-06
-5.36369e-06
3.15645e-06
9.67476e-06
-6.04626e-06
1.28701e-05
-8.71612e-06
1.94867e-06
6.0506e-06
-7.63994e-07
3.20455e-06
4.9375e-06
6.27651e-07
4.09124e-06
4.12577e-06
7.90744e-07
4.34079e-06
3.96788e-06
-1.36871e-06
4.43685e-06
3.70242e-06
-3.37332e-06
4.91312e-06
4.76588e-06
-4.45664e-06
4.55213e-06
6.52419e-06
-5.08782e-06
3.06371e-06
9.09709e-06
-5.3017e-06
1.3682e-06
1.18995e-05
-6.09445e-06
1.46437e-05
-8.21579e-06
1.98877e-06
1.64966e-06
-4.05244e-06
2.92945e-06
1.35312e-06
-4.13403e-06
3.4791e-06
1.15523e-06
-4.524e-06
4.26106e-06
1.70109e-06
-4.5284e-06
4.78178e-06
2.98422e-06
-4.74296e-06
5.44302e-06
5.36079e-06
-4.7745e-06
4.86362e-06
8.84765e-06
-4.23386e-06
2.5316e-06
1.39449e-05
-5.28582e-06
4.38683e-07
1.66423e-05
-7.90066e-06
1.64363e-05
-7.45038e-06
1.11624e-06
-2.80137e-06
-4.75075e-06
1.36688e-06
-1.99896e-06
-4.27701e-06
6.92414e-07
-9.61523e-07
-3.59838e-06
1.48538e-07
4.24607e-07
-2.99794e-06
1.19674e-06
2.06959e-06
-2.07804e-06
2.94359e-06
5.01325e-06
-3.9158e-08
2.25741e-06
1.10138e-05
9.00579e-07
-7.28604e-07
1.92633e-05
-1.46778e-06
-2.68459e-06
2.21114e-05
-5.72887e-06
1.5726e-05
-4.27771e-06
-1.21438e-06
-3.62066e-06
-2.07408e-06
-2.61526e-06
-2.17494e-06
-1.01077e-06
-4.84677e-06
-2.15849e-07
-1.99292e-07
-5.85917e-06
9.65218e-07
8.5887e-07
-4.95134e-06
1.94128e-06
2.4892e-06
-3.41203e-06
4.88859e-06
3.9311e-06
-3.51916e-06
1.21103e-05
4.64277e-06
-4.9931e-06
2.16701e-05
3.65609e-06
-4.97675e-06
2.44879e-05
6.72087e-07
1.29317e-05
7.78913e-07
-2.3528e-06
-2.79814e-06
7.61932e-07
-4.45877e-06
-1.22452e-06
1.78168e-06
-7.00726e-06
6.8406e-07
2.66741e-06
-9.26104e-06
2.06192e-06
3.58222e-06
-1.02322e-05
2.62064e-06
4.2522e-06
-9.93697e-06
4.49642e-06
4.60202e-06
-8.9864e-06
1.0556e-05
5.89088e-06
-7.48612e-06
1.91497e-05
7.61522e-06
-4.71227e-06
2.18298e-05
7.39228e-06
9.57763e-06
5.31173e-06
-1.80978e-06
-1.93374e-06
2.3361e-06
-3.28374e-06
-6.37419e-07
3.17785e-06
-5.13177e-06
9.49238e-07
3.7785e-06
-7.19058e-06
2.35326e-06
4.41656e-06
-9.42143e-06
3.19784e-06
4.80066e-06
-1.09148e-05
4.31769e-06
4.62511e-06
-1.02016e-05
7.97354e-06
5.06703e-06
-6.55653e-06
1.33345e-05
7.23882e-06
-1.59421e-06
1.49267e-05
8.81493e-06
7.55221e-06
5.81525e-06
-9.20997e-07
-1.10568e-06
2.5517e-06
-1.65853e-06
-3.54776e-07
3.16923e-06
-2.22542e-06
5.46956e-07
3.42659e-06
-2.66644e-06
1.33015e-06
3.68446e-06
-3.68233e-06
2.37989e-06
4.21203e-06
-5.44314e-06
3.98947e-06
4.68767e-06
-6.16837e-06
6.77283e-06
4.02626e-06
-3.39292e-06
8.6107e-06
3.94816e-06
1.15116e-06
8.18978e-06
4.66009e-06
7.07498e-06
3.198e-06
-1.92505e-07
-6.22794e-07
2.00406e-06
-6.4773e-07
-3.26999e-07
2.45574e-06
-6.38305e-07
-3.82358e-08
2.41832e-06
-2.85822e-07
1.51453e-07
2.33244e-06
1.13302e-07
9.41842e-07
2.58857e-06
-3.11202e-07
3.08199e-06
3.6099e-06
-1.24772e-06
6.70224e-06
3.26784e-06
-8.73098e-07
7.39445e-06
1.72288e-06
8.03809e-07
5.57472e-06
5.91568e-07
6.33068e-06
7.74463e-07
1.53835e-07
-4.92084e-07
1.21785e-06
-1.10311e-07
-3.98212e-07
1.67353e-06
-1.26311e-07
-4.04965e-07
1.57387e-06
1.50623e-07
-5.30796e-07
1.40351e-06
7.28071e-07
2.28462e-07
1.19116e-06
1.04858e-06
2.71396e-06
1.68256e-06
7.15196e-07
6.82691e-06
2.39373e-06
1.77585e-07
7.90735e-06
8.76582e-07
1.41326e-08
5.86927e-06
-1.03569e-06
5.66486e-06
-6.26712e-07
1.03553e-07
-4.17357e-07
6.20639e-07
-1.29891e-07
-4.35235e-07
1.14587e-06
-1.99033e-07
-6.40084e-07
1.06557e-06
-8.36003e-08
-9.25965e-07
9.79812e-07
3.00742e-07
3.72383e-09
6.48833e-07
7.4656e-07
2.96404e-06
1.74978e-07
7.97106e-07
7.07846e-06
1.32754e-06
4.79887e-07
8.47535e-06
5.6156e-07
-3.9186e-08
6.76366e-06
-9.46109e-07
5.37839e-06
-6.40993e-07
-1.07148e-08
3.13998e-07
-3.49358e-07
-2.46853e-07
8.78022e-07
-4.5786e-07
-4.52765e-07
8.10947e-07
-7.11867e-07
-5.62743e-07
8.46679e-07
-1.05797e-06
-3.28968e-07
7.00897e-07
-5.53309e-08
1.66078e-07
-6.77237e-08
3.24266e-06
5.40515e-07
2.62909e-07
7.30413e-06
6.25853e-07
3.14918e-07
8.68184e-06
1.34074e-07
-3.2978e-08
7.27317e-06
7.62443e-07
4.90265e-06
1.72987e-07
-1.28276e-07
-4.92707e-07
3.39387e-07
-1.0967e-07
-5.28225e-07
4.83848e-07
-7.33313e-08
-5.61656e-07
5.84446e-07
-2.01558e-08
-5.85199e-07
6.27412e-07
4.35165e-08
-5.98427e-07
6.04391e-07
1.11064e-07
-6.03006e-07
5.18886e-07
1.7292e-07
-6.03225e-07
3.86933e-07
2.15552e-07
-5.93941e-07
2.25591e-07
2.39535e-07
-5.73016e-07
3.1815e-07
-6.39375e-07
2.17036e-07
-2.6521e-07
-6.42376e-07
4.27153e-07
-2.38498e-07
-6.89044e-07
6.09717e-07
-1.51246e-07
-7.30575e-07
7.30026e-07
-2.6312e-08
-7.47537e-07
7.77009e-07
1.11685e-07
-7.50722e-07
7.4578e-07
2.5395e-07
-7.46378e-07
6.4024e-07
3.85821e-07
-7.42343e-07
4.76931e-07
4.80248e-07
-7.31047e-07
2.74031e-07
5.35854e-07
-7.04942e-07
6.97161e-07
-7.80773e-07
2.64469e-07
-3.18142e-07
-8.92437e-07
4.91056e-07
-3.30072e-07
-8.56203e-07
6.90404e-07
-2.13736e-07
-8.67676e-07
8.23551e-07
-1.90247e-08
-8.68528e-07
8.77566e-07
1.94325e-07
-8.59411e-07
8.42464e-07
4.18636e-07
-8.46897e-07
7.21313e-07
6.29471e-07
-8.37678e-07
5.37721e-07
7.77357e-07
-8.24096e-07
3.06918e-07
8.69837e-07
-7.93476e-07
1.11993e-06
-8.8303e-07
3.68517e-07
-2.77824e-07
-1.30067e-06
6.28042e-07
-3.50498e-07
-1.12579e-06
8.53039e-07
-2.3703e-07
-1.08132e-06
1.00858e-06
2.15418e-08
-1.06405e-06
1.06619e-06
3.17316e-07
-1.0401e-06
1.0215e-06
6.25747e-07
-1.02064e-06
8.80293e-07
9.13055e-07
-1.01606e-06
6.67978e-07
1.11807e-06
-1.01503e-06
3.75057e-07
1.27702e-06
-9.83093e-07
1.61748e-06
-1.10094e-06
5.2671e-07
-1.67415e-07
-1.85877e-06
8.35851e-07
-2.67665e-07
-1.53842e-06
1.0759e-06
-1.87953e-07
-1.40674e-06
1.26502e-06
8.35307e-08
-1.36083e-06
1.35199e-06
4.65658e-07
-1.33336e-06
1.30081e-06
8.92147e-07
-1.30989e-06
1.09049e-06
1.32857e-06
-1.28885e-06
7.88068e-07
1.63618e-06
-1.21421e-06
4.17491e-07
1.87551e-06
-1.11141e-06
2.22403e-06
-1.37483e-06
6.89043e-07
1.41683e-07
-2.61947e-06
1.07302e-06
8.00289e-08
-2.18367e-06
1.34636e-06
1.19014e-07
-1.908e-06
1.5474e-06
3.8498e-07
-1.76234e-06
1.61776e-06
8.14945e-07
-1.66125e-06
1.53123e-06
1.30782e-06
-1.58484e-06
1.2499e-06
1.87169e-06
-1.50238e-06
8.10609e-07
2.32925e-06
-1.39042e-06
3.281e-07
2.62569e-06
-1.47029e-06
2.8417e-06
-2.07779e-06
7.86627e-07
3.48276e-07
-3.48386e-06
1.31779e-06
3.11436e-07
-3.04068e-06
1.69349e-06
3.82267e-07
-2.68716e-06
1.95259e-06
7.56208e-07
-2.46158e-06
2.05965e-06
1.3117e-06
-2.27452e-06
2.00049e-06
1.85809e-06
-2.08723e-06
1.7363e-06
2.42892e-06
-1.95861e-06
1.11419e-06
3.06037e-06
-1.98599e-06
2.65282e-07
3.50722e-06
-2.34006e-06
3.36595e-06
-3.10506e-06
7.52686e-07
1.02831e-06
-4.73482e-06
1.49521e-06
5.9993e-07
-4.21979e-06
2.26629e-06
3.9615e-07
-3.8949e-06
2.87553e-06
7.67092e-07
-3.61727e-06
3.29859e-06
1.36233e-06
-3.40276e-06
3.52941e-06
1.92406e-06
-3.29789e-06
3.48242e-06
2.54741e-06
-3.35382e-06
2.85483e-06
3.52027e-06
-3.61501e-06
1.36461e-06
4.68387e-06
-4.25725e-06
4.40428e-06
-5.37946e-06
8.26727e-07
7.63969e-07
-3.92908e-06
1.43685e-06
-1.39797e-06
-1.40197e-06
2.17479e-06
-2.24679e-06
-1.03464e-06
2.97965e-06
-1.33167e-06
-1.97362e-06
3.76011e-06
-3.12118e-07
-2.71937e-06
4.46928e-06
8.12762e-07
-3.68427e-06
4.89293e-06
1.82822e-06
-4.38989e-06
4.62103e-06
3.40535e-06
-4.97686e-06
3.0208e-06
6.02402e-06
-5.78619e-06
7.39447e-06
-8.6855e-06
2.22442e-06
1.3909e-06
-3.64361e-06
3.5403e-06
-3.44087e-07
-1.74211e-06
4.11691e-06
-8.66553e-07
-1.1661e-06
4.06225e-06
-8.09085e-07
-1.83663e-06
3.71913e-06
-6.00494e-07
-2.74183e-06
3.96887e-06
3.55492e-07
-4.24912e-06
3.79932e-06
2.49879e-06
-5.58884e-06
1.73761e-06
5.67196e-06
-5.5066e-06
5.45075e-07
7.98419e-06
-6.86209e-06
8.05148e-06
-8.32773e-06
1.82665e-06
-2.3277e-06
-2.11782e-06
2.16606e-06
-2.60483e-06
-2.21269e-06
2.30423e-06
-2.71306e-06
-2.81565e-06
2.27655e-06
-2.31287e-06
-2.99693e-06
2.11292e-06
-1.79632e-06
-3.38351e-06
2.51936e-06
-6.60215e-07
-4.16524e-06
2.87634e-06
2.50929e-06
-4.60134e-06
2.04211e-06
7.18317e-06
-5.9628e-06
7.80054e-07
9.59686e-06
-8.25127e-06
9.62791e-06
-8.24675e-06
6.4989e-07
-5.3201e-06
-2.86387e-06
6.18832e-07
-4.83692e-06
-2.01386e-06
-3.25559e-08
-3.99987e-06
-1.66019e-06
-1.30246e-06
-2.85197e-06
-1.18895e-06
-1.81494e-06
-2.2095e-06
-1.15238e-06
-9.56062e-07
-1.02562e-06
-5.32628e-07
-4.46e-07
2.77512e-06
1.24696e-07
-1.62496e-06
8.28607e-06
-1.39173e-06
-2.56229e-06
1.05624e-05
-5.75712e-06
8.16234e-06
-5.37443e-06
-7.03475e-07
-6.05909e-06
-1.68406e-06
-1.68136e-06
-5.07012e-06
2.00319e-07
-3.42948e-06
-3.50982e-06
1.05877e-06
-5.41707e-06
-1.78111e-06
1.7756e-06
-6.2333e-06
-1.11149e-06
2.20743e-06
-5.479e-06
-7.06082e-07
2.85728e-06
-4.39958e-06
2.36905e-06
3.96941e-06
-4.80397e-06
8.33958e-06
4.00697e-06
-5.04032e-06
1.05929e-05
8.7797e-07
4.77975e-06
-8.78804e-07
-1.46009e-06
-5.26298e-06
2.47008e-07
-2.83744e-06
-4.09941e-06
2.18832e-06
-4.41985e-06
-2.47702e-06
3.21702e-06
-6.04727e-06
-7.4923e-07
4.17776e-06
-7.44693e-06
1.72683e-07
4.36767e-06
-7.99064e-06
1.87952e-07
4.2517e-06
-6.7655e-06
1.49667e-06
5.53813e-06
-4.88276e-06
5.95808e-06
8.11398e-06
-3.44074e-06
8.98029e-06
7.56288e-06
3.51602e-06
3.13473e-06
-1.17034e-06
-3.89084e-06
1.46866e-06
-2.23411e-06
-2.94474e-06
3.08696e-06
-2.9677e-06
-1.78106e-06
3.81613e-06
-3.50679e-06
-5.44113e-07
4.75053e-06
-4.46363e-06
6.16018e-07
5.31417e-06
-5.94449e-06
1.41937e-06
4.87457e-06
-5.82624e-06
1.83409e-06
4.61136e-06
-3.01715e-06
3.58696e-06
6.80085e-06
-3.46384e-07
6.31391e-06
8.81055e-06
4.06156e-06
4.92333e-06
-5.10307e-07
-2.52437e-06
1.73949e-06
-1.28655e-06
-1.93053e-06
2.93126e-06
-1.4872e-06
-1.37047e-06
3.21666e-06
-1.22716e-06
-7.55697e-07
3.63601e-06
-1.14551e-06
4.4295e-07
4.30345e-06
-2.32428e-06
2.49881e-06
4.78701e-06
-3.36815e-06
3.43962e-06
3.4646e-06
-1.92467e-06
3.22437e-06
2.86726e-06
7.84457e-08
4.52893e-06
4.44196e-06
4.06999e-06
3.26802e-06
5.47265e-09
-1.5852e-06
1.27899e-06
-4.71172e-07
-1.29492e-06
2.29677e-06
-6.59497e-07
-1.09848e-06
2.33465e-06
-5.71395e-07
-8.5385e-07
2.34249e-06
-4.01652e-07
4.24764e-07
2.43702e-06
-1.00825e-06
3.3112e-06
3.40411e-06
-2.05862e-06
5.03499e-06
2.72283e-06
-1.68615e-06
4.08845e-06
4.86334e-07
-5.84179e-07
3.81609e-06
2.02448e-07
3.33526e-06
9.25012e-07
2.24228e-07
-1.0026e-06
4.68334e-07
-1.42297e-07
-8.85255e-07
1.63039e-06
-4.28948e-07
-9.08731e-07
1.67077e-06
-5.92919e-07
-9.06141e-07
1.61978e-06
-6.23868e-07
3.37694e-07
1.30918e-06
-1.06787e-06
3.83148e-06
1.60629e-06
-1.73619e-06
6.22323e-06
1.87381e-06
-1.58141e-06
4.93534e-06
-1.25081e-07
-9.0024e-07
3.48577e-06
-1.38654e-06
2.49739e-06
-6.89083e-07
1.81809e-07
-6.5232e-07
1.32435e-08
-1.01785e-07
-6.75969e-07
1.22019e-06
-3.81529e-07
-8.24799e-07
1.26137e-06
-6.03162e-07
-9.64053e-07
1.25936e-06
-6.09457e-07
4.8608e-08
9.44216e-07
-7.355e-07
3.61864e-06
5.13855e-07
-1.13345e-06
7.01045e-06
9.38266e-07
-1.13119e-06
5.62361e-06
-1.28959e-07
-9.29449e-07
3.46228e-06
-1.12437e-06
1.72482e-06
-7.97868e-07
1.20531e-07
-2.51864e-07
-4.06153e-07
-1.49505e-07
1.01215e-06
-5.40068e-07
-4.44617e-07
1.02497e-06
-7.43717e-07
-6.54629e-07
1.08926e-06
-9.96613e-07
-5.24055e-07
8.94928e-07
-2.75996e-07
-1.32555e-07
3.58853e-07
2.80056e-06
-2.89872e-08
2.75748e-07
6.89404e-06
-4.27648e-07
2.13621e-07
6.12357e-06
-9.46944e-07
3.13793e-07
3.63481e-06
5.5662e-07
9.83696e-07
1.46571e-07
-1.32801e-07
-4.95162e-07
3.0763e-07
-1.54746e-07
-5.34537e-07
4.64398e-07
-1.35557e-07
-5.82866e-07
5.7705e-07
-8.59384e-08
-6.11912e-07
6.25868e-07
-2.1498e-08
-6.25747e-07
6.04522e-07
4.90648e-08
-6.30725e-07
5.19243e-07
1.12366e-07
-6.30311e-07
3.89146e-07
1.53114e-07
-6.16958e-07
2.30199e-07
1.78431e-07
-5.925e-07
2.62177e-07
-6.71353e-07
2.14311e-07
-3.12393e-07
-6.50951e-07
4.08318e-07
-3.54923e-07
-6.82874e-07
5.9904e-07
-3.05155e-07
-7.51699e-07
7.32689e-07
-1.80806e-07
-7.86318e-07
7.83521e-07
-2.80415e-08
-7.9501e-07
7.50016e-07