/*--------------------------------*- C++ -*----------------------------------*\
| =========                 |                                                 |
| \\      /  F ield         | OpenFOAM: The Open Source CFD Toolbox           |
|  \\    /   O peration     | Version:  2312                                  |
|   \\  /    A nd           | Website:  www.openfoam.com                      |
|    \\/     M anipulation  |                                                 |
\*---------------------------------------------------------------------------*/
FoamFile
{
    version     2.0;
    format      ascii;
    arch        "LSB;label=32;scalar=64";
    class       volVectorField;
    location    "0.015";
    object      U;
}
// * * * * * * * * * * * * * * * * * * * * * * * * * * * * * * * * * * * * * //

dimensions      [0 1 -1 0 0 0 0];

internalField   nonuniform List<vector> 
8000
(
(1.73554e-09 -6.76279e-09 7.59559e-10)
(4.41101e-10 -4.67019e-09 2.82861e-09)
(9.43985e-09 -5.30172e-09 1.16959e-09)
(8.79995e-09 -4.88651e-09 1.56162e-09)
(1.04388e-08 -3.95423e-09 1.77763e-09)
(1.00164e-08 -3.14845e-09 1.94538e-09)
(8.53041e-09 -2.63888e-09 1.98307e-09)
(6.3957e-09 -2.51316e-09 1.9328e-09)
(5.12647e-09 -2.98587e-09 1.52822e-09)
(1.29429e-09 -1.89403e-09 1.57401e-09)
(-2.73125e-09 -2.21288e-08 2.03688e-09)
(-4.85212e-09 -1.94441e-08 3.03453e-09)
(1.3634e-09 -1.84396e-08 5.54942e-10)
(7.65095e-10 -1.69543e-08 1.51605e-09)
(2.3316e-09 -1.45284e-08 1.65049e-09)
(2.07052e-09 -1.24848e-08 1.84319e-09)
(1.612e-09 -1.09208e-08 1.78431e-09)
(9.79746e-10 -1.01828e-08 1.62575e-09)
(1.02506e-09 -1.01029e-08 1.50202e-09)
(-8.65566e-10 -7.04123e-09 1.76179e-09)
(-1.31878e-09 -3.54469e-08 1.98534e-09)
(-2.9084e-09 -3.20147e-08 2.37012e-09)
(3.41766e-09 -2.94122e-08 -7.64263e-10)
(2.29203e-09 -2.85528e-08 1.0855e-09)
(4.19811e-09 -2.67793e-08 1.49743e-09)
(3.75679e-09 -2.53831e-08 2.03801e-09)
(2.68049e-09 -2.38315e-08 2.21599e-09)
(1.336e-09 -2.30359e-08 2.52301e-09)
(-3.32469e-10 -2.27508e-08 2.79072e-09)
(-2.12102e-09 -2.05736e-08 3.02864e-09)
(-3.75627e-10 -4.74288e-08 1.00177e-09)
(-1.93758e-09 -4.01238e-08 2.40499e-10)
(5.50604e-09 -3.7763e-08 -3.30529e-09)
(3.33516e-09 -3.66711e-08 -4.18155e-10)
(5.41121e-09 -3.48536e-08 4.16362e-10)
(4.93745e-09 -3.36204e-08 1.74804e-09)
(3.88818e-09 -3.25101e-08 2.49806e-09)
(1.99753e-09 -3.17658e-08 3.15234e-09)
(-1.35382e-09 -3.14289e-08 3.3084e-09)
(-2.91236e-09 -3.25278e-08 3.42579e-09)
(-1.51908e-09 -5.39448e-08 -2.33453e-10)
(5.15399e-10 -4.13271e-08 -2.20607e-09)
(7.80491e-09 -4.02588e-08 -4.93759e-09)
(5.04922e-09 -3.94709e-08 -1.55279e-09)
(7.04107e-09 -3.87111e-08 -1.07254e-10)
(5.94978e-09 -3.80418e-08 1.82415e-09)
(4.43943e-09 -3.76721e-08 3.0452e-09)
(2.36557e-09 -3.73519e-08 3.82772e-09)
(-1.34218e-09 -3.69576e-08 3.91119e-09)
(-2.95522e-09 -4.32478e-08 3.94129e-09)
(-3.71728e-09 -8.18197e-08 -3.10993e-09)
(4.1937e-09 -4.90202e-08 -4.06956e-09)
(8.41499e-09 -5.08121e-08 -5.26116e-09)
(4.69762e-09 -4.80837e-08 -2.5235e-09)
(6.57439e-09 -4.74277e-08 -1.07663e-09)
(5.7977e-09 -4.62765e-08 5.04009e-10)
(4.48337e-09 -4.5327e-08 1.49025e-09)
(2.67457e-09 -4.43763e-08 1.93785e-09)
(1.78023e-10 -4.30427e-08 2.2174e-09)
(-1.44001e-09 -5.26331e-08 1.93249e-09)
(-3.34623e-08 -4.58116e-08 7.45375e-11)
(2.51584e-08 -3.06176e-08 -3.33394e-09)
(9.56069e-09 -1.6976e-08 -3.23978e-09)
(8.27277e-09 -2.83348e-08 -2.25532e-09)
(8.62203e-09 -3.36806e-08 -1.53845e-09)
(7.89698e-09 -3.69827e-08 -9.22437e-10)
(6.24973e-09 -3.98486e-08 -9.06472e-10)
(4.56946e-09 -4.15198e-08 -9.21268e-10)
(3.36747e-09 -4.1956e-08 -1.2809e-09)
(1.30715e-09 -5.21765e-08 -1.3236e-09)
(1.38007e-07 -1.77173e-07 -1.57383e-08)
(-1.52385e-07 -6.11238e-08 7.04815e-09)
(-3.78824e-09 -4.45187e-08 1.07766e-09)
(-2.20978e-08 -4.595e-08 2.89456e-09)
(-1.44753e-08 -4.2834e-08 2.57194e-09)
(-1.30249e-08 -3.97821e-08 1.93358e-09)
(-1.17875e-08 -3.70453e-08 1.83236e-09)
(-8.75082e-09 -3.41027e-08 1.80083e-09)
(-3.6724e-09 -3.19213e-08 2.21553e-09)
(-4.49232e-10 -3.65416e-08 2.52599e-09)
(-3.48047e-06 -1.48676e-06 -1.73814e-06)
(2.62966e-06 -5.07961e-07 -7.95479e-07)
(4.25207e-07 -1.48107e-07 -1.72555e-07)
(7.88766e-07 -2.14031e-07 -5.12459e-07)
(3.32977e-07 -1.83548e-07 -4.72393e-07)
(4.89224e-07 -1.96355e-07 -4.9934e-07)
(4.64074e-07 -1.90724e-07 -5.05611e-07)
(4.80303e-07 -1.86889e-07 -5.06317e-07)
(6.19134e-07 -1.889e-07 -5.03303e-07)
(3.1079e-07 -2.03315e-07 -5.23884e-07)
(-7.30078e-07 -3.61934e-06 -1.55461e-06)
(-2.66511e-06 -9.81026e-07 -8.3355e-07)
(-5.34671e-07 2.30904e-06 -6.20155e-07)
(-1.19443e-06 1.06327e-06 -6.25478e-07)
(-5.1103e-07 1.01408e-06 -6.41539e-07)
(-4.07794e-07 7.49281e-07 -6.03198e-07)
(-1.52705e-07 5.93731e-07 -5.92129e-07)
(1.87571e-08 5.00174e-07 -5.93608e-07)
(5.09579e-07 4.38763e-07 -6.11194e-07)
(3.20216e-07 1.62295e-06 -5.91893e-07)
(-3.56901e-07 -1.10313e-06 -6.92347e-07)
(-1.61267e-06 9.0889e-07 -8.57947e-07)
(-7.07118e-07 2.87564e-07 -6.69526e-07)
(-6.38072e-07 7.23406e-07 -7.46449e-07)
(-3.44932e-07 6.67365e-07 -7.17628e-07)
(-2.30504e-07 7.17689e-07 -6.88277e-07)
(-4.41331e-08 7.26946e-07 -6.42215e-07)
(1.19058e-07 7.38476e-07 -5.98305e-07)
(5.06893e-07 8.0045e-07 -5.83641e-07)
(2.91635e-07 2.81065e-06 -5.72934e-07)
(-6.30696e-07 1.2578e-06 -5.66743e-07)
(-1.49161e-06 1.67792e-06 -4.25571e-07)
(-7.44066e-07 1.69163e-06 -4.23915e-07)
(-8.26128e-07 1.61453e-06 -4.65124e-07)
(-5.28831e-07 1.43541e-06 -4.32121e-07)
(-3.60429e-07 1.30381e-06 -4.29529e-07)
(-1.44117e-07 1.19797e-06 -4.45667e-07)
(4.66184e-08 1.10206e-06 -4.75024e-07)
(4.58417e-07 1.07455e-06 -5.11054e-07)
(3.22109e-07 3.9287e-06 -5.07383e-07)
(-7.97467e-07 1.79822e-06 -5.57164e-07)
(-1.17998e-06 2.37519e-06 -5.52083e-07)
(-7.70484e-07 2.13718e-06 -5.61945e-07)
(-8.94235e-07 2.13437e-06 -5.03223e-07)
(-6.55629e-07 1.99888e-06 -4.58922e-07)
(-4.67959e-07 1.89842e-06 -4.47786e-07)
(-2.46109e-07 1.80694e-06 -4.48658e-07)
(-3.60928e-08 1.72074e-06 -4.30835e-07)
(3.63086e-07 1.69997e-06 -4.16358e-07)
(2.36822e-07 5.20234e-06 -3.97648e-07)
(-9.38443e-07 2.74823e-06 -5.06156e-07)
(-1.15248e-06 3.02282e-06 -4.31948e-07)
(-9.84772e-07 2.72449e-06 -3.54874e-07)
(-9.64303e-07 2.70257e-06 -3.26366e-07)
(-7.64677e-07 2.59487e-06 -3.46483e-07)
(-5.52293e-07 2.49952e-06 -3.65387e-07)
(-3.21917e-07 2.40559e-06 -3.68877e-07)
(-9.47039e-08 2.32088e-06 -3.46103e-07)
(2.79355e-07 2.29162e-06 -3.2465e-07)
(2.01552e-07 6.35069e-06 -2.97585e-07)
(-9.78847e-07 3.36359e-06 -2.09279e-07)
(-1.20357e-06 3.47419e-06 -9.4894e-08)
(-1.09063e-06 3.40846e-06 -9.86272e-08)
(-1.02377e-06 3.39566e-06 -1.42879e-07)
(-8.58611e-07 3.3244e-06 -1.90119e-07)
(-6.57188e-07 3.2315e-06 -2.20513e-07)
(-4.24913e-07 3.1304e-06 -2.35251e-07)
(-1.88328e-07 3.03024e-06 -2.35191e-07)
(1.62861e-07 2.96802e-06 -2.3382e-07)
(1.44375e-07 7.41778e-06 -2.03898e-07)
(-9.1613e-07 3.52225e-06 -1.45028e-08)
(-1.10752e-06 3.67622e-06 -4.37428e-08)
(-1.06325e-06 3.71488e-06 -1.24241e-07)
(-1.04831e-06 3.74564e-06 -1.82397e-07)
(-9.28809e-07 3.74881e-06 -2.06676e-07)
(-7.46298e-07 3.72202e-06 -2.06409e-07)
(-5.23399e-07 3.67185e-06 -1.92336e-07)
(-2.98821e-07 3.59459e-06 -1.70469e-07)
(3.94597e-09 3.54592e-06 -1.48251e-07)
(5.172e-08 8.25351e-06 -1.04451e-07)
(-8.07651e-07 3.56138e-06 2.24418e-08)
(-1.0109e-06 3.72321e-06 -6.16397e-08)
(-1.0212e-06 3.79969e-06 -1.11774e-07)
(-9.89831e-07 3.90605e-06 -1.12598e-07)
(-8.82245e-07 3.99815e-06 -9.74415e-08)
(-7.34192e-07 4.05676e-06 -7.33652e-08)
(-5.52626e-07 4.07432e-06 -4.93571e-08)
(-3.58604e-07 4.04627e-06 -3.09405e-08)
(-1.46915e-07 4.0422e-06 -1.49702e-08)
(-3.50501e-08 8.8488e-06 1.93919e-08)
(-6.97607e-07 3.57086e-06 1.26828e-08)
(-8.69206e-07 3.76388e-06 1.33719e-08)
(-8.80404e-07 3.93372e-06 4.15127e-08)
(-8.49866e-07 4.10813e-06 7.67075e-08)
(-7.78137e-07 4.24858e-06 1.07018e-07)
(-6.70201e-07 4.35214e-06 1.25826e-07)
(-5.34195e-07 4.41288e-06 1.32447e-07)
(-3.75998e-07 4.427e-06 1.27463e-07)
(-2.47037e-07 4.45137e-06 1.2177e-07)
(-8.70741e-08 9.20388e-06 1.18502e-07)
(-5.18646e-07 3.54259e-06 5.33013e-08)
(-6.48021e-07 3.77096e-06 1.14076e-07)
(-6.76934e-07 3.98776e-06 1.63822e-07)
(-6.74975e-07 4.18333e-06 1.9727e-07)
(-6.38262e-07 4.34858e-06 2.08464e-07)
(-5.69952e-07 4.47715e-06 2.08884e-07)
(-4.78054e-07 4.5681e-06 2.00247e-07)
(-3.64064e-07 4.61176e-06 1.84728e-07)
(-2.97694e-07 4.65244e-06 1.72679e-07)
(-1.16707e-07 9.24244e-06 1.68311e-07)
(-3.14615e-07 3.48697e-06 1.73503e-07)
(-4.24018e-07 3.68049e-06 2.10436e-07)
(-4.67995e-07 3.86706e-06 2.25385e-07)
(-4.89016e-07 4.05001e-06 2.24887e-07)
(-4.84302e-07 4.21851e-06 2.14995e-07)
(-4.50709e-07 4.36262e-06 2.07114e-07)
(-3.99836e-07 4.47502e-06 1.97055e-07)
(-3.33741e-07 4.54363e-06 1.89872e-07)
(-3.30385e-07 4.5989e-06 1.85126e-07)
(-1.48809e-07 8.94782e-06 1.92476e-07)
(-3.58202e-09 -6.55991e-09 -5.98909e-10)
(-4.19412e-09 -4.06534e-09 1.69415e-09)
(-5.24447e-10 -5.63024e-09 7.08881e-10)
(-7.85847e-10 -5.0025e-09 1.22672e-09)
(2.55335e-10 -4.53905e-09 1.82217e-09)
(4.97944e-10 -3.97406e-09 2.32103e-09)
(4.70019e-10 -3.72245e-09 2.61114e-09)
(2.32587e-10 -4.02121e-09 2.72101e-09)
(1.16377e-09 -4.53205e-09 2.49852e-09)
(-4.07623e-10 -3.21837e-09 3.08594e-09)
(-8.26388e-09 -2.04715e-08 1.49767e-09)
(-9.96669e-09 -1.66086e-08 2.14061e-09)
(-9.90657e-09 -1.78105e-08 8.33304e-10)
(-9.47849e-09 -1.62108e-08 1.54775e-09)
(-8.86438e-09 -1.50046e-08 1.96636e-09)
(-7.96989e-09 -1.37726e-08 2.26576e-09)
(-6.86326e-09 -1.29173e-08 2.49086e-09)
(-5.56405e-09 -1.28537e-08 2.59452e-09)
(-3.70303e-09 -1.31055e-08 2.62422e-09)
(-2.8321e-09 -1.01995e-08 2.82998e-09)
(-8.76981e-09 -2.92748e-08 -7.61975e-10)
(-7.40792e-09 -2.78433e-08 4.88763e-10)
(-9.52981e-09 -2.74325e-08 -1.17821e-09)
(-8.75923e-09 -2.68051e-08 8.90023e-10)
(-8.27671e-09 -2.67527e-08 1.8941e-09)
(-7.48893e-09 -2.64583e-08 2.79989e-09)
(-6.89145e-09 -2.59689e-08 3.53313e-09)
(-5.99297e-09 -2.58853e-08 4.23929e-09)
(-5.2128e-09 -2.60796e-08 4.57557e-09)
(-3.68032e-09 -2.34312e-08 4.32225e-09)
(-1.02082e-08 -3.83848e-08 -5.43616e-09)
(-5.69423e-09 -3.76409e-08 -3.19023e-09)
(-9.16315e-09 -3.59751e-08 -4.8833e-09)
(-9.01853e-09 -3.51753e-08 -1.18693e-09)
(-8.66993e-09 -3.44942e-08 3.6024e-10)
(-7.31102e-09 -3.36261e-08 2.3623e-09)
(-6.37915e-09 -3.26336e-08 3.78753e-09)
(-5.72719e-09 -3.18031e-08 4.79085e-09)
(-6.31882e-09 -3.12633e-08 4.84018e-09)
(-4.60292e-09 -3.20695e-08 5.14624e-09)
(-1.27921e-08 -4.68139e-08 -1.01672e-08)
(-4.05511e-09 -4.57973e-08 -6.52101e-09)
(-7.3353e-09 -4.17797e-08 -7.91089e-09)
(-7.63396e-09 -4.03732e-08 -3.18861e-09)
(-6.98319e-09 -3.8328e-08 -7.3239e-10)
(-5.80064e-09 -3.6421e-08 1.94338e-09)
(-5.15663e-09 -3.47787e-08 3.82828e-09)
(-4.63924e-09 -3.34386e-08 4.98741e-09)
(-5.44252e-09 -3.18771e-08 5.48082e-09)
(-3.93757e-09 -3.84217e-08 4.61463e-09)
(-1.59341e-08 -8.07456e-08 -1.12292e-08)
(-1.98352e-09 -6.2945e-08 -8.06563e-09)
(-3.81331e-09 -5.79395e-08 -8.42877e-09)
(-5.92677e-09 -5.36458e-08 -4.52464e-09)
(-5.00276e-09 -4.91575e-08 -2.28652e-09)
(-3.93752e-09 -4.49619e-08 -1.36647e-10)
(-3.47087e-09 -4.1696e-08 1.3216e-09)
(-2.83401e-09 -3.88595e-08 2.23123e-09)
(-2.74001e-09 -3.65436e-08 2.59763e-09)
(-2.08122e-09 -4.45797e-08 2.22551e-09)
(-3.36862e-08 -5.92298e-08 -2.90664e-09)
(1.59368e-08 -5.30696e-08 -5.69275e-09)
(2.02735e-09 -3.50014e-08 -5.28554e-09)
(9.0982e-10 -4.07132e-08 -3.57541e-09)
(1.48272e-09 -4.02278e-08 -2.43117e-09)
(1.51013e-09 -3.86442e-08 -1.46038e-09)
(8.49687e-10 -3.73055e-08 -1.04341e-09)
(4.22108e-10 -3.57807e-08 -8.58083e-10)
(1.47212e-09 -3.43245e-08 -1.34752e-09)
(7.92353e-10 -4.3629e-08 -1.38221e-09)
(1.15513e-07 -1.6388e-07 -2.84731e-08)
(-1.37468e-07 -7.93973e-08 6.79296e-09)
(-8.09074e-09 -5.69903e-08 -1.95083e-10)
(-2.07359e-08 -5.54657e-08 1.71565e-09)
(-1.55979e-08 -4.92513e-08 1.34309e-09)
(-1.3936e-08 -4.3047e-08 7.65868e-10)
(-1.21202e-08 -3.73344e-08 7.56194e-10)
(-8.6628e-09 -3.33233e-08 5.91054e-10)
(-3.55938e-09 -3.11112e-08 7.75835e-10)
(-4.63012e-10 -3.51906e-08 2.33348e-09)
(-1.3817e-06 -3.91739e-07 -2.13712e-06)
(9.55415e-08 -3.24174e-07 -1.51589e-06)
(4.38022e-07 -2.44693e-07 -9.3819e-07)
(2.20148e-07 -2.79508e-07 -1.32017e-06)
(1.17318e-07 -2.38622e-07 -1.25945e-06)
(2.1498e-07 -2.27838e-07 -1.28261e-06)
(2.23422e-07 -2.22154e-07 -1.27273e-06)
(2.85214e-07 -2.14057e-07 -1.25984e-06)
(5.60614e-07 -2.10546e-07 -1.24427e-06)
(3.40165e-07 -2.1446e-07 -1.29926e-06)
(-7.12528e-07 -4.00235e-06 -2.74173e-06)
(-2.70813e-06 -1.39579e-06 -1.7666e-06)
(-6.84184e-07 1.149e-07 -1.50932e-06)
(-1.45193e-06 -5.65033e-07 -1.47212e-06)
(-7.49542e-07 -5.86988e-07 -1.47044e-06)
(-6.59266e-07 -7.67882e-07 -1.42951e-06)
(-3.78524e-07 -8.43531e-07 -1.4153e-06)
(-1.36253e-07 -8.80575e-07 -1.40392e-06)
(4.28436e-07 -9.33121e-07 -1.39486e-06)
(3.1827e-07 4.27506e-07 -1.39527e-06)
(8.52447e-08 -3.50891e-06 -1.71655e-06)
(-1.70341e-06 -1.55812e-06 -1.66774e-06)
(-6.66597e-07 -2.11485e-06 -1.39654e-06)
(-8.15601e-07 -1.63812e-06 -1.43979e-06)
(-5.16838e-07 -1.64093e-06 -1.39366e-06)
(-4.22646e-07 -1.55553e-06 -1.35666e-06)
(-2.1764e-07 -1.45287e-06 -1.30497e-06)
(-5.56601e-08 -1.39045e-06 -1.26215e-06)
(3.69371e-07 -1.30263e-06 -1.23491e-06)
(2.49088e-07 8.96156e-07 -1.23557e-06)
(-8.21454e-07 -1.94622e-06 -1.33956e-06)
(-1.50206e-06 -1.19249e-06 -1.10049e-06)
(-7.85357e-07 -1.39568e-06 -1.06267e-06)
(-9.90362e-07 -1.41888e-06 -1.06986e-06)
(-6.80152e-07 -1.58233e-06 -1.02817e-06)
(-4.84341e-07 -1.66107e-06 -1.01432e-06)
(-2.25767e-07 -1.7369e-06 -1.01654e-06)
(-3.22884e-08 -1.80178e-06 -1.02928e-06)
(4.15665e-07 -1.81075e-06 -1.03894e-06)
(3.03207e-07 1.20224e-06 -1.03246e-06)
(-7.79729e-07 -1.76974e-06 -1.0886e-06)
(-1.154e-06 -1.16721e-06 -1.01522e-06)
(-8.93042e-07 -1.51727e-06 -1.01419e-06)
(-1.00232e-06 -1.47422e-06 -9.4375e-07)
(-7.59103e-07 -1.57969e-06 -9.0187e-07)
(-5.77293e-07 -1.63403e-06 -8.83683e-07)
(-3.58611e-07 -1.71897e-06 -8.65926e-07)
(-1.62589e-07 -1.81098e-06 -8.26616e-07)
(2.55138e-07 -1.83803e-06 -7.90187e-07)
(1.96345e-07 1.80428e-06 -7.72934e-07)
(-9.7054e-07 -1.43341e-06 -7.78727e-07)
(-1.24957e-06 -1.29326e-06 -6.68445e-07)
(-1.09235e-06 -1.56916e-06 -6.16072e-07)
(-1.05275e-06 -1.56481e-06 -5.8602e-07)
(-8.39934e-07 -1.6492e-06 -6.09431e-07)
(-6.23603e-07 -1.72273e-06 -6.26977e-07)
(-4.02881e-07 -1.80156e-06 -6.23366e-07)
(-1.86927e-07 -1.8788e-06 -5.92001e-07)
(2.22869e-07 -1.88561e-06 -5.58528e-07)
(1.90141e-07 2.37881e-06 -5.31923e-07)
(-1.06082e-06 -1.30675e-06 -3.33524e-07)
(-1.28972e-06 -1.16247e-06 -2.43492e-07)
(-1.16458e-06 -1.19392e-06 -2.63829e-07)
(-1.08234e-06 -1.19497e-06 -3.07963e-07)
(-9.17014e-07 -1.25945e-06 -3.46749e-07)
(-7.29656e-07 -1.36173e-06 -3.65061e-07)
(-5.14884e-07 -1.46868e-06 -3.66308e-07)
(-2.86281e-07 -1.56932e-06 -3.54851e-07)
(1.08751e-07 -1.61496e-06 -3.41341e-07)
(1.29509e-07 3.03001e-06 -3.06839e-07)
(-9.6283e-07 -1.43045e-06 -1.90484e-08)
(-1.13671e-06 -1.25582e-06 -8.22966e-08)
(-1.12485e-06 -1.21206e-06 -1.85251e-07)
(-1.11828e-06 -1.17812e-06 -2.36345e-07)
(-1.0067e-06 -1.18097e-06 -2.47526e-07)
(-8.32857e-07 -1.21121e-06 -2.31033e-07)
(-6.10723e-07 -1.2515e-06 -2.03268e-07)
(-3.76501e-07 -1.30991e-06 -1.70339e-07)
(-4.30227e-08 -1.32711e-06 -1.38409e-07)
(3.73954e-08 3.57552e-06 -9.71045e-08)
(-8.78646e-07 -1.48895e-06 9.79038e-08)
(-1.07132e-06 -1.38205e-06 1.48208e-08)
(-1.08688e-06 -1.32066e-06 -3.24547e-08)
(-1.05126e-06 -1.21076e-06 -2.6866e-08)
(-9.50134e-07 -1.10265e-06 -7.09262e-09)
(-8.0023e-07 -1.01718e-06 2.10801e-08)
(-6.13857e-07 -9.64664e-07 4.71366e-08)
(-4.07664e-07 -9.58577e-07 6.69114e-08)
(-1.70029e-07 -9.26611e-07 8.09212e-08)
(-3.25318e-08 4.06224e-06 1.02951e-07)
(-8.12565e-07 -1.5191e-06 1.36816e-07)
(-9.6842e-07 -1.3645e-06 1.52631e-07)
(-9.53557e-07 -1.19305e-06 1.87721e-07)
(-9.00297e-07 -1.0082e-06 2.25645e-07)
(-8.13169e-07 -8.42228e-07 2.53459e-07)
(-6.94934e-07 -6.99474e-07 2.68664e-07)
(-5.52413e-07 -5.93269e-07 2.7043e-07)
(-3.84751e-07 -5.34432e-07 2.60836e-07)
(-2.5065e-07 -4.69404e-07 2.49623e-07)
(-8.43166e-08 4.4691e-06 2.39373e-07)
(-6.41007e-07 -1.55368e-06 2.08664e-07)
(-7.45273e-07 -1.2941e-06 2.71737e-07)
(-7.30574e-07 -1.04274e-06 3.21066e-07)
(-7.00444e-07 -8.11596e-07 3.47063e-07)
(-6.41439e-07 -6.08964e-07 3.54297e-07)
(-5.51329e-07 -4.33332e-07 3.50977e-07)
(-4.49106e-07 -2.95326e-07 3.36929e-07)
(-3.2899e-07 -2.03679e-07 3.21527e-07)
(-2.66386e-07 -1.26004e-07 3.05922e-07)
(-1.03035e-07 4.66324e-06 3.01307e-07)
(-3.9145e-07 -1.5249e-06 3.59888e-07)
(-4.575e-07 -1.25588e-06 3.87841e-07)
(-4.71052e-07 -9.83919e-07 3.86884e-07)
(-4.66518e-07 -7.26424e-07 3.74892e-07)
(-4.34914e-07 -4.85876e-07 3.52708e-07)
(-3.81321e-07 -2.79199e-07 3.36287e-07)
(-3.23013e-07 -1.16886e-07 3.22162e-07)
(-2.58875e-07 -9.55134e-09 3.15737e-07)
(-2.8164e-07 7.2196e-08 3.08296e-07)
(-1.34364e-07 4.59889e-06 3.23656e-07)
(-2.88221e-09 -7.70994e-09 -1.54505e-09)
(-4.59559e-09 -5.31767e-09 -2.30092e-10)
(-6.25806e-11 -5.92207e-09 -5.59432e-10)
(-5.7983e-10 -5.24637e-09 -1.21508e-10)
(7.77953e-10 -4.47166e-09 3.42672e-10)
(9.3235e-10 -3.81992e-09 8.08896e-10)
(7.97365e-10 -3.52023e-09 1.23883e-09)
(4.41741e-10 -3.73711e-09 1.50999e-09)
(1.00472e-09 -4.00253e-09 1.64539e-09)
(-6.16102e-10 -2.77911e-09 1.93197e-09)
(-7.28998e-09 -2.24436e-08 2.31187e-09)
(-1.15492e-08 -1.82168e-08 -9.24825e-11)
(-9.22487e-09 -1.85466e-08 8.21675e-10)
(-9.63851e-09 -1.67413e-08 5.08976e-10)
(-8.58777e-09 -1.517e-08 8.77001e-10)
(-7.88755e-09 -1.37332e-08 1.02927e-09)
(-6.78396e-09 -1.2629e-08 1.14292e-09)
(-5.51953e-09 -1.2318e-08 1.20513e-09)
(-3.62081e-09 -1.23033e-08 1.25307e-09)
(-2.57297e-09 -9.86175e-09 1.09504e-09)
(-7.23787e-09 -3.14625e-08 1.03908e-09)
(-9.39112e-09 -2.90115e-08 -1.4948e-09)
(-8.37801e-09 -2.86901e-08 -1.29188e-10)
(-8.46853e-09 -2.76994e-08 2.63118e-11)
(-7.68197e-09 -2.76485e-08 6.96912e-10)
(-7.05719e-09 -2.69832e-08 1.03126e-09)
(-6.43117e-09 -2.61369e-08 1.46314e-09)
(-5.59641e-09 -2.58104e-08 1.85588e-09)
(-4.96111e-09 -2.59596e-08 2.12429e-09)
(-3.63236e-09 -2.30277e-08 1.70227e-09)
(-7.32798e-09 -4.07672e-08 1.92183e-10)
(-8.42618e-09 -3.86344e-08 -3.10898e-09)
(-8.14317e-09 -3.75662e-08 -1.87188e-09)
(-8.78058e-09 -3.61868e-08 -1.55964e-09)
(-8.0161e-09 -3.53819e-08 -9.26666e-10)
(-6.49086e-09 -3.42338e-08 -5.34395e-11)
(-5.67553e-09 -3.30268e-08 5.6339e-10)
(-5.36461e-09 -3.21171e-08 1.08557e-09)
(-6.16603e-09 -3.13362e-08 1.10162e-09)
(-4.66292e-09 -3.25163e-08 1.5083e-09)
(-9.64509e-09 -4.89846e-08 -2.60244e-09)
(-5.59967e-09 -4.62327e-08 -4.08916e-09)
(-6.36043e-09 -4.27314e-08 -3.37574e-09)
(-6.57755e-09 -4.07741e-08 -2.28584e-09)
(-5.92358e-09 -3.85129e-08 -1.14953e-09)
(-4.829e-09 -3.66608e-08 -1.65342e-10)
(-4.36462e-09 -3.51175e-08 6.26739e-10)
(-3.90421e-09 -3.37252e-08 1.10499e-09)
(-4.94568e-09 -3.22351e-08 1.9347e-09)
(-3.43012e-09 -3.88492e-08 8.19991e-10)
(-1.2834e-08 -7.94021e-08 -3.9816e-09)
(-2.29773e-09 -6.29287e-08 -3.96866e-09)
(-3.00471e-09 -5.81479e-08 -3.73392e-09)
(-4.84419e-09 -5.3776e-08 -2.56782e-09)
(-4.0949e-09 -4.95263e-08 -1.62323e-09)
(-3.20976e-09 -4.55772e-08 -7.89292e-10)
(-2.78939e-09 -4.24534e-08 -2.30135e-10)
(-2.4954e-09 -3.97774e-08 3.54512e-10)
(-2.51842e-09 -3.78586e-08 3.60543e-10)
(-2.15611e-09 -4.57252e-08 5.78643e-10)
(-2.901e-08 -5.45408e-08 -2.07238e-09)
(1.45265e-08 -5.08299e-08 -3.8139e-09)
(2.67315e-09 -3.53149e-08 -3.75955e-09)
(1.88478e-09 -4.05887e-08 -2.62438e-09)
(2.14224e-09 -4.03761e-08 -1.92974e-09)
(2.13785e-09 -3.92512e-08 -1.41852e-09)
(1.34019e-09 -3.83594e-08 -8.98956e-10)
(5.82441e-10 -3.70366e-08 -6.88957e-10)
(1.15897e-09 -3.53808e-08 -5.17658e-10)
(2.19512e-10 -4.53808e-08 -9.69729e-10)
(1.01495e-07 -1.50907e-07 -2.40723e-08)
(-1.25713e-07 -7.48817e-08 1.75793e-09)
(-8.98816e-09 -5.58263e-08 -2.21944e-11)
(-2.07251e-08 -5.37072e-08 2.76512e-10)
(-1.5585e-08 -4.72848e-08 3.87392e-10)
(-1.37789e-08 -4.12135e-08 4.9978e-10)
(-1.21413e-08 -3.54765e-08 5.81677e-10)
(-8.96824e-09 -3.12015e-08 3.82134e-10)
(-2.38657e-09 -2.92491e-08 -5.08187e-10)
(9.14914e-10 -3.48474e-08 3.05745e-10)
(-1.4575e-06 -4.35412e-07 -1.56842e-06)
(1.67794e-07 -3.46357e-07 -1.37621e-06)
(3.12848e-07 -2.64068e-07 -1.45452e-06)
(2.053e-07 -2.79903e-07 -1.5023e-06)
(1.23728e-07 -2.40995e-07 -1.48065e-06)
(2.22509e-07 -2.21488e-07 -1.48619e-06)
(2.4995e-07 -2.06604e-07 -1.46493e-06)
(3.15585e-07 -1.95157e-07 -1.44841e-06)
(5.67178e-07 -1.86541e-07 -1.4256e-06)
(3.66269e-07 -1.85237e-07 -1.43771e-06)
(-5.81878e-07 -3.21518e-06 -2.09199e-06)
(-2.51159e-06 -1.31653e-06 -1.61678e-06)
(-5.89658e-07 9.15495e-08 -1.56453e-06)
(-1.41259e-06 -5.24311e-07 -1.48099e-06)
(-7.41841e-07 -5.38416e-07 -1.459e-06)
(-6.53678e-07 -6.95591e-07 -1.45739e-06)
(-3.85146e-07 -7.58193e-07 -1.44262e-06)
(-1.4758e-07 -7.86365e-07 -1.43301e-06)
(4.7436e-07 -8.23891e-07 -1.42909e-06)
(3.57882e-07 5.13176e-07 -1.46107e-06)
(-2.06683e-08 -3.21783e-06 -1.80037e-06)
(-1.53586e-06 -1.29697e-06 -1.56743e-06)
(-6.04163e-07 -1.92264e-06 -1.49041e-06)
(-7.94311e-07 -1.4623e-06 -1.43332e-06)
(-4.87562e-07 -1.46133e-06 -1.41421e-06)
(-3.69411e-07 -1.36845e-06 -1.38149e-06)
(-1.53418e-07 -1.27658e-06 -1.33698e-06)
(-1.77982e-09 -1.21076e-06 -1.29269e-06)
(4.19267e-07 -1.12658e-06 -1.26039e-06)
(2.71046e-07 1.06499e-06 -1.27559e-06)
(-7.67438e-07 -1.53489e-06 -1.3028e-06)
(-1.38873e-06 -8.92831e-07 -1.08703e-06)
(-7.74915e-07 -1.15224e-06 -1.0928e-06)
(-9.64476e-07 -1.16276e-06 -1.04371e-06)
(-6.61376e-07 -1.31967e-06 -1.02415e-06)
(-4.81797e-07 -1.40102e-06 -9.991e-07)
(-2.39676e-07 -1.49456e-06 -9.89249e-07)
(-4.45372e-08 -1.57348e-06 -9.79504e-07)
(4.23685e-07 -1.591e-06 -9.67879e-07)
(3.16441e-07 1.4233e-06 -9.98856e-07)
(-7.94549e-07 -1.47973e-06 -9.43662e-07)
(-1.15426e-06 -9.8035e-07 -8.81586e-07)
(-8.7415e-07 -1.32875e-06 -8.89265e-07)
(-9.61807e-07 -1.28151e-06 -8.31806e-07)
(-7.25904e-07 -1.39263e-06 -8.03445e-07)
(-5.44371e-07 -1.4504e-06 -7.68348e-07)
(-3.26139e-07 -1.52309e-06 -7.35214e-07)
(-1.31498e-07 -1.59726e-06 -7.03589e-07)
(2.90508e-07 -1.61146e-06 -6.76777e-07)
(2.12383e-07 2.04334e-06 -6.9543e-07)
(-9.78538e-07 -1.14478e-06 -5.60444e-07)
(-1.23775e-06 -9.89966e-07 -5.11758e-07)
(-1.07606e-06 -1.25709e-06 -5.13518e-07)
(-1.02833e-06 -1.2773e-06 -4.77807e-07)
(-8.3024e-07 -1.38063e-06 -4.54748e-07)
(-6.12243e-07 -1.47231e-06 -4.41892e-07)
(-3.86714e-07 -1.56655e-06 -4.23599e-07)
(-1.68704e-07 -1.65825e-06 -4.04532e-07)
(2.38866e-07 -1.67776e-06 -3.88286e-07)
(1.90065e-07 2.58693e-06 -4.08366e-07)
(-1.04945e-06 -1.07247e-06 -2.299e-07)
(-1.26655e-06 -9.56021e-07 -2.01963e-07)
(-1.16147e-06 -1.01152e-06 -1.97266e-07)
(-1.08534e-06 -1.03509e-06 -1.89664e-07)
(-9.20903e-07 -1.10239e-06 -1.8232e-07)
(-7.30292e-07 -1.20106e-06 -1.73631e-07)
(-5.1229e-07 -1.30736e-06 -1.61525e-07)
(-2.82602e-07 -1.40927e-06 -1.49576e-07)
(1.05567e-07 -1.45727e-06 -1.43444e-07)
(1.22983e-07 3.18986e-06 -1.64838e-07)
(-9.83557e-07 -1.28405e-06 4.64412e-08)
(-1.17678e-06 -1.14781e-06 2.37017e-08)
(-1.15513e-06 -1.12089e-06 -2.16763e-08)
(-1.1192e-06 -1.08823e-06 -2.5967e-08)
(-9.96216e-07 -1.08594e-06 -1.46147e-08)
(-8.17237e-07 -1.10787e-06 6.68532e-09)
(-5.95167e-07 -1.14188e-06 2.56782e-08)
(-3.62034e-07 -1.19439e-06 4.03129e-08)
(-4.19065e-08 -1.20966e-06 5.33832e-08)
(3.53744e-08 3.6942e-06 3.20009e-08)
(-9.06282e-07 -1.43653e-06 2.10982e-07)
(-1.10338e-06 -1.32369e-06 1.73782e-07)
(-1.1019e-06 -1.23788e-06 1.49119e-07)
(-1.05041e-06 -1.12329e-06 1.49486e-07)
(-9.40571e-07 -1.01697e-06 1.59689e-07)
(-7.86267e-07 -9.36726e-07 1.74477e-07)
(-5.99078e-07 -8.89748e-07 1.87786e-07)
(-3.96137e-07 -8.8929e-07 1.98234e-07)
(-1.68146e-07 -8.63364e-07 2.01902e-07)
(-3.12892e-08 4.13074e-06 1.77104e-07)
(-8.2933e-07 -1.53067e-06 2.83569e-07)
(-9.78137e-07 -1.35714e-06 2.63457e-07)
(-9.54732e-07 -1.17012e-06 2.59783e-07)
(-8.98314e-07 -9.86424e-07 2.62934e-07)
(-8.09688e-07 -8.22316e-07 2.67739e-07)
(-6.90064e-07 -6.85367e-07 2.71375e-07)
(-5.48014e-07 -5.87943e-07 2.72136e-07)
(-3.81899e-07 -5.33873e-07 2.71592e-07)
(-2.45067e-07 -4.73832e-07 2.6758e-07)
(-7.87896e-08 4.47381e-06 2.51471e-07)
(-6.4295e-07 -1.59202e-06 2.83117e-07)
(-7.42843e-07 -1.32127e-06 2.87726e-07)
(-7.31166e-07 -1.07377e-06 2.89382e-07)
(-7.02598e-07 -8.48298e-07 2.88214e-07)
(-6.39534e-07 -6.54162e-07 2.88472e-07)
(-5.51937e-07 -4.86747e-07 2.81673e-07)
(-4.47862e-07 -3.53638e-07 2.75785e-07)
(-3.27259e-07 -2.62975e-07 2.71701e-07)
(-2.65763e-07 -1.87686e-07 2.63058e-07)
(-1.01845e-07 4.61258e-06 2.5514e-07)
(-3.83086e-07 -1.56632e-06 2.78816e-07)
(-4.59887e-07 -1.29033e-06 2.77564e-07)
(-4.81757e-07 -1.03232e-06 2.64743e-07)
(-4.78705e-07 -7.81513e-07 2.55001e-07)
(-4.48142e-07 -5.54225e-07 2.40793e-07)
(-3.89555e-07 -3.64707e-07 2.2553e-07)
(-3.24487e-07 -2.09925e-07 2.14766e-07)
(-2.59549e-07 -1.07968e-07 2.08064e-07)
(-2.85448e-07 -2.93312e-08 1.95863e-07)
(-1.35752e-07 4.50951e-06 2.04453e-07)
(-3.20104e-09 -8.08692e-09 -3.02288e-09)
(-3.00121e-09 -6.73798e-09 7.31274e-10)
(-4.24952e-10 -6.07067e-09 -1.00898e-09)
(9.89912e-11 -5.39455e-09 -1.19838e-10)
(1.17718e-09 -4.34188e-09 1.43089e-10)
(1.38683e-09 -3.58717e-09 5.05114e-10)
(1.16565e-09 -3.33465e-09 8.88565e-10)
(6.35262e-10 -3.46752e-09 1.18497e-09)
(1.10323e-09 -3.54736e-09 1.34416e-09)
(-5.20319e-10 -2.58612e-09 1.49675e-09)
(-7.82447e-09 -2.46015e-08 3.70018e-10)
(-1.16382e-08 -2.02043e-08 7.85489e-10)
(-9.32037e-09 -1.92387e-08 3.1668e-10)
(-9.43756e-09 -1.74278e-08 5.90202e-10)
(-8.35155e-09 -1.5543e-08 7.50112e-10)
(-7.71093e-09 -1.40193e-08 9.27695e-10)
(-6.69338e-09 -1.28415e-08 1.051e-09)
(-5.45819e-09 -1.23482e-08 1.06185e-09)
(-3.26995e-09 -1.21781e-08 1.1595e-09)
(-2.18219e-09 -1.00715e-08 9.41341e-10)
(-7.43678e-09 -3.53427e-08 -1.08964e-09)
(-8.65475e-09 -3.07326e-08 -7.39208e-10)
(-8.00674e-09 -3.01824e-08 -3.31258e-10)
(-7.93765e-09 -2.89986e-08 2.43146e-11)
(-7.28089e-09 -2.86871e-08 3.91788e-10)
(-6.73099e-09 -2.76912e-08 6.04269e-10)
(-6.07466e-09 -2.67184e-08 9.00823e-10)
(-5.33798e-09 -2.62075e-08 1.2015e-09)
(-4.6156e-09 -2.6454e-08 1.37707e-09)
(-3.59633e-09 -2.32294e-08 1.11809e-09)
(-7.24851e-09 -4.33297e-08 -2.19591e-09)
(-7.82621e-09 -4.03144e-08 -2.49152e-09)
(-7.61869e-09 -3.9236e-08 -1.89955e-09)
(-8.07951e-09 -3.75982e-08 -1.64724e-09)
(-7.17481e-09 -3.65201e-08 -1.03384e-09)
(-5.83156e-09 -3.5059e-08 -3.67608e-10)
(-5.25005e-09 -3.37467e-08 -3.0663e-11)
(-5.19726e-09 -3.28561e-08 3.79627e-10)
(-6.143e-09 -3.17592e-08 3.10309e-10)
(-4.7513e-09 -3.32075e-08 6.34324e-10)
(-8.85748e-09 -4.97137e-08 -3.82243e-09)
(-4.80406e-09 -4.69391e-08 -3.80419e-09)
(-5.54293e-09 -4.36888e-08 -3.17792e-09)
(-5.41898e-09 -4.15128e-08 -2.41106e-09)
(-4.87445e-09 -3.92625e-08 -1.54156e-09)
(-4.03674e-09 -3.74654e-08 -8.36546e-10)
(-3.89715e-09 -3.59169e-08 -3.46593e-10)
(-3.33847e-09 -3.45153e-08 -9.44396e-11)
(-4.40949e-09 -3.29504e-08 5.73869e-10)
(-2.78388e-09 -3.95861e-08 5.6122e-11)
(-1.12944e-08 -7.76183e-08 -4.32494e-09)
(-1.69742e-09 -6.29711e-08 -3.84983e-09)
(-2.42886e-09 -5.84055e-08 -3.6757e-09)
(-3.82556e-09 -5.41352e-08 -2.84334e-09)
(-3.2341e-09 -5.01821e-08 -2.1769e-09)
(-2.55369e-09 -4.65128e-08 -1.51215e-09)
(-2.33364e-09 -4.35281e-08 -1.09014e-09)
(-2.24711e-09 -4.094e-08 -7.08599e-10)
(-2.22073e-09 -3.92579e-08 -5.90951e-10)
(-2.13269e-09 -4.65284e-08 -5.2553e-10)
(-2.60554e-08 -5.09634e-08 -3.46608e-09)
(1.42549e-08 -4.88199e-08 -4.11725e-09)
(3.21212e-09 -3.52253e-08 -4.01594e-09)
(2.73391e-09 -4.02773e-08 -3.15448e-09)
(2.68376e-09 -4.03405e-08 -2.62267e-09)
(2.53744e-09 -3.96434e-08 -2.24001e-09)
(1.57735e-09 -3.90313e-08 -1.84958e-09)
(8.03294e-10 -3.78439e-08 -1.66392e-09)
(1.44058e-09 -3.58601e-08 -1.38875e-09)
(2.3282e-10 -4.57526e-08 -1.33868e-09)
(9.00132e-08 -1.42662e-07 -1.62079e-08)
(-1.13424e-07 -7.37968e-08 3.2648e-09)
(-9.57281e-09 -5.65623e-08 2.19499e-09)
(-2.03261e-08 -5.38743e-08 2.6006e-09)
(-1.53747e-08 -4.74436e-08 2.85441e-09)
(-1.37419e-08 -4.16838e-08 2.85043e-09)
(-1.22383e-08 -3.6189e-08 2.67969e-09)
(-9.75373e-09 -3.20503e-08 2.48505e-09)
(-3.61437e-09 -2.98257e-08 1.65678e-09)
(3.85892e-10 -3.4635e-08 1.08149e-09)
(-1.48563e-06 -3.61636e-07 -1.78698e-06)
(1.82739e-07 -2.87252e-07 -1.69544e-06)
(3.10176e-07 -2.4576e-07 -1.69724e-06)
(1.91776e-07 -2.4115e-07 -1.70704e-06)
(1.3114e-07 -2.11152e-07 -1.69202e-06)
(2.2817e-07 -2.02049e-07 -1.68721e-06)
(2.58315e-07 -1.67505e-07 -1.66533e-06)
(3.20704e-07 -1.51547e-07 -1.64128e-06)
(5.98459e-07 -1.41681e-07 -1.62197e-06)
(3.81742e-07 -1.31988e-07 -1.62976e-06)
(-7.00263e-07 -2.58878e-06 -2.23827e-06)
(-2.1863e-06 -9.70768e-07 -1.7528e-06)
(-5.50607e-07 1.31495e-07 -1.77492e-06)
(-1.34849e-06 -3.94877e-07 -1.68286e-06)
(-7.28386e-07 -4.11459e-07 -1.65036e-06)
(-6.45581e-07 -5.54131e-07 -1.65185e-06)
(-3.56354e-07 -6.09731e-07 -1.63758e-06)
(-1.22807e-07 -6.28915e-07 -1.60211e-06)
(4.97532e-07 -6.38906e-07 -1.5803e-06)
(3.75821e-07 7.05204e-07 -1.61174e-06)
(-6.42211e-08 -2.73433e-06 -1.86967e-06)
(-1.39411e-06 -1.06552e-06 -1.63941e-06)
(-5.33203e-07 -1.68264e-06 -1.62325e-06)
(-7.40785e-07 -1.23903e-06 -1.52852e-06)
(-4.67087e-07 -1.24387e-06 -1.5095e-06)
(-3.47491e-07 -1.13455e-06 -1.47678e-06)
(-1.30608e-07 -1.03609e-06 -1.44696e-06)
(2.04331e-08 -9.72745e-07 -1.408e-06)
(4.58424e-07 -8.76026e-07 -1.37576e-06)
(3.02623e-07 1.3239e-06 -1.39764e-06)
(-8.13654e-07 -1.12228e-06 -1.431e-06)
(-1.29316e-06 -5.38912e-07 -1.23084e-06)
(-7.42482e-07 -8.27167e-07 -1.25343e-06)
(-9.23264e-07 -8.5049e-07 -1.17889e-06)
(-6.37284e-07 -1.00445e-06 -1.16213e-06)
(-4.5069e-07 -1.0802e-06 -1.13205e-06)
(-2.06909e-07 -1.16701e-06 -1.10192e-06)
(-1.0727e-08 -1.24443e-06 -1.06456e-06)
(4.60167e-07 -1.25912e-06 -1.03577e-06)
(3.35385e-07 1.75084e-06 -1.07309e-06)
(-8.02654e-07 -1.06219e-06 -1.03368e-06)
(-1.09996e-06 -6.26622e-07 -9.2333e-07)
(-8.44834e-07 -9.73877e-07 -9.27374e-07)
(-9.18144e-07 -9.44124e-07 -8.64432e-07)
(-6.9687e-07 -1.04529e-06 -8.34241e-07)
(-5.10126e-07 -1.11115e-06 -7.9777e-07)
(-2.95105e-07 -1.18753e-06 -7.62106e-07)
(-1.05145e-07 -1.2705e-06 -7.32188e-07)
(3.12323e-07 -1.29337e-06 -7.07388e-07)
(2.19036e-07 2.36041e-06 -7.36124e-07)