/*--------------------------------*- C++ -*----------------------------------*\
| =========                 |                                                 |
| \\      /  F ield         | OpenFOAM: The Open Source CFD Toolbox           |
|  \\    /   O peration     | Version:  2312                                  |
|   \\  /    A nd           | Website:  www.openfoam.com                      |
|    \\/     M anipulation  |                                                 |
\*---------------------------------------------------------------------------*/
FoamFile
{
    version     2.0;
    format      ascii;
    arch        "LSB;label=32;scalar=64";
    class       surfaceScalarField;
    location    "0.565";
    object      alphaPhi0.water;
}
// * * * * * * * * * * * * * * * * * * * * * * * * * * * * * * * * * * * * * //

dimensions      [0 3 -1 0 0 0 0];

oriented        oriented;

internalField   nonuniform List<scalar> 
22600
(
-1.44243e-07
9.11737e-08
8.64547e-08
-3.13404e-07
7.16317e-08
9.75295e-08
-4.57011e-07
3.24205e-08
1.11187e-07
-5.57913e-07
-2.49441e-08
1.25846e-07
-6.03688e-07
-9.31768e-08
1.38952e-07
-5.8747e-07
-1.66679e-07
1.50462e-07
-5.08791e-07
-2.39694e-07
1.61014e-07
-3.68124e-07
-3.12713e-07
1.72047e-07
-1.8188e-07
-3.70706e-07
1.84462e-07
-3.5941e-07
1.77529e-07
-1.40416e-07
2.00268e-07
6.9417e-08
-3.07502e-07
1.59238e-07
7.94792e-08
-4.44156e-07
7.7441e-08
9.1634e-08
-5.36957e-07
-3.80133e-08
1.0587e-07
-5.77182e-07
-1.72863e-07
1.19911e-07
-5.59501e-07
-3.17299e-07
1.32939e-07
-4.82193e-07
-4.61679e-07
1.44676e-07
-3.4652e-07
-6.05572e-07
1.57185e-07
-1.66423e-07
-7.2169e-07
1.70887e-07
-6.88377e-07
1.62545e-07
-1.8253e-07
3.33097e-07
9.10867e-08
-3.92391e-07
2.68338e-07
1.00761e-07
-5.66283e-07
1.37778e-07
1.13556e-07
-6.86257e-07
-4.70424e-08
1.29003e-07
-7.40506e-07
-2.63159e-07
1.44544e-07
-7.23933e-07
-4.94283e-07
1.60411e-07
-6.31258e-07
-7.28794e-07
1.7444e-07
-4.55566e-07
-9.69371e-07
1.88107e-07
-2.13088e-07
-1.17254e-06
2.0837e-07
-1.10842e-06
2.06953e-07
-2.49533e-07
4.52729e-07
1.75564e-07
-5.21245e-07
3.60934e-07
1.79116e-07
-7.44017e-07
1.82672e-07
1.77878e-07
-8.9869e-07
-7.41586e-08
1.81789e-07
-9.76817e-07
-3.72714e-07
1.87682e-07
-9.67733e-07
-6.99542e-07
1.96175e-07
-8.59149e-07
-1.04632e-06
2.08945e-07
-6.52309e-07
-1.42235e-06
2.46137e-07
-3.22952e-07
-1.83012e-06
3.2822e-07
-1.74812e-06
3.1675e-07
-3.27585e-07
4.16491e-07
4.02704e-07
-6.64224e-07
2.99211e-07
3.98361e-07
-9.45184e-07
9.25156e-08
3.71117e-07
-1.1521e-06
-2.09174e-07
3.41929e-07
-1.2724e-06
-5.65881e-07
3.13472e-07
-1.29364e-06
-9.78245e-07
2.99942e-07
-1.2116e-06
-1.45968e-06
3.31317e-07
-1.02414e-06
-2.06848e-06
4.58675e-07
-5.74286e-07
-2.93759e-06
6.57625e-07
-2.92629e-06
6.03882e-07
-3.07098e-07
2.9766e-07
4.66815e-07
-6.53468e-07
1.58581e-07
4.87001e-07
-9.68521e-07
-1.0201e-07
5.0958e-07
-1.19244e-06
-5.23645e-07
5.3839e-07
-1.37422e-06
-9.31156e-07
5.47052e-07
-1.49375e-06
-1.41217e-06
5.53466e-07
-1.49794e-06
-2.08879e-06
6.33302e-07
-1.36179e-06
-3.01387e-06
8.0925e-07
-8.42817e-07
-4.456e-06
9.9947e-07
-4.65734e-06
8.88255e-07
-3.05487e-07
6.79113e-07
-1.11467e-07
-7.25911e-07
5.66869e-07
-9.78321e-08
-1.07449e-06
2.39152e-07
-3.05372e-08
-1.36932e-06
-4.07657e-07
1.78819e-07
-1.57835e-06
-1.15979e-06
4.37683e-07
-1.66288e-06
-1.98228e-06
6.54779e-07
-1.56799e-06
-3.02365e-06
8.40351e-07
-1.35872e-06
-4.23124e-06
1.00861e-06
-9.42348e-07
-5.92902e-06
1.05749e-06
-6.44906e-06
8.49763e-07
-7.8243e-07
4.02327e-07
-2.47305e-07
-1.45997e-06
3.71227e-07
-2.20444e-07
-1.99481e-06
2.67285e-07
-1.9431e-07
-2.45635e-06
-6.65705e-08
-1.32407e-07
-2.78437e-06
-8.5062e-07
4.71241e-08
-2.64112e-06
-2.04589e-06
3.682e-07
-1.98826e-06
-3.82755e-06
7.00898e-07
-1.20525e-06
-5.92239e-06
9.47304e-07
-7.6417e-07
-7.26709e-06
9.11347e-07
-7.73281e-06
5.26027e-07
-3.25434e-07
8.95303e-09
5.42292e-08
-6.84357e-07
1.61203e-08
7.97175e-08
-1.16782e-06
-3.0821e-09
1.19391e-07
-1.48837e-06
-4.30952e-09
1.21251e-07
-1.55643e-06
-2.31856e-10
8.97397e-08
-1.53685e-06
-3.84737e-09
1.7055e-07
-1.66374e-06
-7.63751e-08
3.50824e-07
-1.38096e-06
-1.33005e-06
6.9031e-07
-6.8353e-07
-4.9161e-06
9.34886e-07
-7.49337e-06
4.70791e-07
-3.22114e-08
8.04673e-10
1.11509e-09
-1.39882e-08
3.56341e-10
-4.59852e-09
-2.12865e-10
-1.91244e-10
-1.71803e-08
-3.71811e-12
-1.02384e-10
-4.27077e-09
-1.00216e-10
-2.1218e-12
-1.44152e-10
-3.97176e-09
-6.1416e-12
2.99579e-11
-8.15958e-08
-8.62877e-13
1.25012e-09
-3.52946e-07
-1.89818e-10
2.44603e-08
-4.42747e-07
-4.15885e-10
2.91375e-07
-1.01218e-09
4.52464e-07
-9.5556e-10
2.35458e-10
-6.2683e-10
-2.59102e-10
3.35331e-11
-7.6341e-10
1.30546e-11
1.11039e-11
-6.74965e-10
3.3879e-13
2.55822e-11
-3.33687e-10
5.77962e-12
1.6513e-12
-1.0494e-11
3.74185e-13
-1.44278e-13
-3.48817e-13
7.13407e-14
-4.95143e-13
-4.72376e-14
-6.67831e-13
-1.8786e-10
-9.44051e-13
-1.18441e-11
-4.03198e-10
-1.7084e-12
-4.65419e-10
1.94656e-11
-3.90116e-11
1.21675e-10
-8.23451e-11
1.68305e-11
9.44046e-12
-6.89691e-11
8.50152e-12
5.35298e-12
-1.0534e-11
2.89385e-12
1.31318e-12
-9.32285e-12
1.43597e-12
1.72994e-12
-1.06991e-11
1.30916e-12
1.13428e-13
-7.0695e-13
1.05437e-12
-1.47563e-13
-3.28702e-13
8.09953e-11
-4.81812e-10
-4.37524e-11
5.98739e-11
-6.63065e-10
-1.61647e-10
-2.83918e-10
-3.91104e-11
5.63651e-13
7.41719e-11
-5.18987e-12
2.92432e-12
2.32403e-11
-7.71179e-12
8.36197e-13
8.60815e-12
-3.12288e-12
7.29947e-13
1.93057e-12
-1.37428e-12
1.18369e-12
6.30175e-13
-4.47531e-12
7.45013e-13
4.6695e-13
-1.19674e-12
3.79488e-13
1.5214e-13
-2.71264e-13
1.01254e-09
-4.51495e-10
-9.46204e-10
2.80784e-10
-5.95556e-10
-1.26334e-09
-9.51369e-11
-1.90046e-10
4.93777e-12
2.49941e-10
-6.64994e-13
5.60433e-13
3.21326e-11
2.20279e-14
2.78235e-13
8.3783e-12
-1.45566e-13
1.88034e-13
2.07633e-12
-3.99104e-13
5.25127e-13
4.96314e-13
-3.78318e-13
8.96672e-13
4.25274e-13
-2.5309e-13
4.84584e-10
1.60396e-09
-2.90318e-11
7.16306e-10
4.07843e-10
-5.9044e-11
1.49176e-10
5.6982e-14
-4.80568e-10
-3.48082e-12
5.38581e-12
7.65229e-12
2.25395e-10
1.9533e-13
1.27397e-11
2.10109e-10
8.44333e-12
3.72856e-13
1.51455e-10
6.35386e-12
-4.10641e-13
3.08435e-11
9.77866e-15
2.89311e-13
6.79446e-13
-8.6093e-13
3.53754e-13
4.16753e-13
-5.42008e-14
7.41242e-10
1.11713e-09
-2.23252e-11
3.76435e-10
6.68795e-10
-1.0926e-10
-2.10185e-11
-4.30876e-12
-3.30582e-11
1.14234e-11
1.94046e-13
7.96877e-12
1.99912e-10
1.0734e-11
2.46892e-11
1.81314e-10
2.19118e-11
1.93405e-11
1.44955e-10
2.70693e-11
-2.31694e-12
5.77315e-11
8.55007e-12
4.52145e-13
2.24911e-12
2.1685e-13
5.44259e-13
3.55896e-13
5.13232e-14
3.52736e-10
2.87063e-11
5.36831e-11
4.65569e-11
-7.72067e-12
-9.0937e-12
1.7632e-12
6.14877e-12
-4.83059e-12
5.1771e-11
-2.7044e-13
4.73055e-12
1.66675e-11
1.13099e-11
7.18164e-12
8.8744e-12
1.15214e-11
3.98913e-12
3.0441e-13
1.08848e-11
1.25898e-12
1.5129e-11
5.9128e-12
4.46144e-13
7.82279e-12
1.96246e-12
5.42343e-13
3.66101e-13
8.81027e-14
2.21468e-11
2.579e-12
3.20206e-12
5.00243e-12
6.94623e-12
3.25192e-13
2.19066e-12
7.24918e-12
-3.41237e-12
4.66501e-11
3.32714e-13
2.43978e-13
4.32618e-14
8.57191e-13
4.80898e-13
2.26949e-14
4.09862e-13
3.74452e-13
1.99844e-14
2.25557e-13
1.27343e-12
1.92656e-14
3.08303e-13
1.56914e-12
1.49697e-14
2.59466e-13
3.88808e-13
3.77118e-13
5.13216e-14
8.8575e-13
4.05878e-13
1.52276e-12
1.57115e-12
3.36919e-12
-3.02364e-13
1.0714e-11
7.79272e-12
-1.41124e-11
9.29715e-10
7.0925e-11
2.26288e-14
7.62769e-16
7.7189e-15
2.54016e-14
1.54847e-16
1.07378e-14
3.5428e-14
2.16943e-16
4.10264e-15
4.20546e-14
9.06155e-16
3.02138e-15
4.83441e-14
1.2799e-16
1.3476e-15
1.48033e-14
1.3519e-14
3.69916e-13
1.26528e-13
1.09032e-13
1.44048e-13
2.69701e-12
1.09091e-11
-8.87582e-12
-2.45863e-11
7.88803e-11
-2.10191e-11
7.16119e-10
2.12729e-10
5.06044e-16
-4.27259e-18
2.044e-17
5.67811e-16
3.68277e-17
9.90227e-18
5.93681e-16
4.77132e-18
9.90078e-18
9.75913e-16
1.1255e-16
-5.63926e-17
2.06011e-15
2.4864e-16
-6.24739e-17
5.01094e-16
1.09621e-14
8.8185e-16
-4.87562e-14
-3.70637e-13
5.23168e-13
3.3182e-12
-2.36364e-11
1.94608e-11
-6.99726e-11
-7.17045e-12
1.54691e-10
1.50823e-10
5.18445e-10
-1.76689e-07
-1.91959e-09
3.05582e-07
-3.78386e-07
-1.03918e-08
3.09619e-07
-5.38084e-07
-4.16707e-08
3.12556e-07
-6.4106e-07
-8.87115e-08
3.17533e-07
-6.79426e-07
-1.46889e-07
3.24207e-07
-6.50974e-07
-2.1176e-07
3.33771e-07
-5.57037e-07
-2.79676e-07
3.46753e-07
-3.96767e-07
-3.53176e-07
3.64952e-07
-1.88629e-07
-4.11203e-07
3.87527e-07
-3.70424e-07
3.59325e-07
-1.63566e-07
-4.77194e-09
2.80694e-07
-3.61894e-07
-1.26255e-08
2.80041e-07
-5.20243e-07
-7.21649e-08
2.80478e-07
-6.22547e-07
-1.66297e-07
2.8576e-07
-6.61028e-07
-2.82395e-07
2.93898e-07
-6.34272e-07
-4.11764e-07
3.06186e-07
-5.42293e-07
-5.49047e-07
3.22068e-07
-3.82865e-07
-7.00606e-07
3.45189e-07
-1.75274e-07
-8.20019e-07
3.72112e-07
-7.2082e-07
3.37666e-07
-2.08123e-07
3.49296e-08
3.11079e-07
-4.54921e-07
2.36383e-08
3.11295e-07
-6.54785e-07
-7.14903e-08
3.12745e-07
-7.85348e-07
-2.32059e-07
3.25328e-07
-8.38134e-07
-4.28199e-07
3.43135e-07
-8.12332e-07
-6.44507e-07
3.67354e-07
-7.0238e-07
-8.79655e-07
3.95096e-07
-4.95344e-07
-1.15025e-06
4.30717e-07
-2.16279e-07
-1.36682e-06
4.76103e-07
-1.17269e-06
4.42548e-07
-2.82889e-07
1.65555e-07
3.86103e-07
-6.00711e-07
1.20138e-07
4.00438e-07
-8.55261e-07
-3.6504e-08
3.97441e-07
-1.0263e-06
-2.8511e-07
4.05879e-07
-1.10701e-06
-5.83128e-07
4.23317e-07
-1.09343e-06
-9.13854e-07
4.51939e-07
-9.77837e-07
-1.28373e-06
4.97427e-07
-7.36205e-07
-1.7391e-06
5.93353e-07
-3.34131e-07
-2.16856e-06
7.27886e-07
-1.82851e-06
6.38433e-07
-3.90347e-07
4.59948e-07
5.45144e-07
-7.93672e-07
3.33682e-07
5.88143e-07
-1.12883e-06
9.26673e-08
5.77099e-07
-1.36877e-06
-2.66797e-07
5.63561e-07
-1.49987e-06
-7.09507e-07
5.70955e-07
-1.53472e-06
-1.19251e-06
6.13437e-07
-1.46951e-06
-1.75837e-06
7.40759e-07
-1.23008e-06
-2.53363e-06
1.01377e-06
-6.33965e-07
-3.39892e-06
1.29187e-06
-2.90854e-06
1.04995e-06
-4.51442e-07
8.59738e-07
5.61031e-07
-9.21504e-07
6.42939e-07
6.47805e-07
-1.313e-06
2.58399e-07
7.35338e-07
-1.60878e-06
-2.49531e-07
8.16913e-07
-1.82187e-06
-8.27634e-07
8.78267e-07
-1.93083e-06
-1.5014e-06
9.71321e-07
-1.9047e-06
-2.33968e-06
1.1885e-06
-1.65531e-06
-3.49766e-06
1.52394e-06
-9.43691e-07
-4.85929e-06
1.74832e-06
-4.34868e-06
1.38474e-06
-5.28573e-07
1.4369e-06
-4.34533e-08
-1.09249e-06
1.07678e-06
3.22427e-08
-1.50559e-06
4.41288e-07
1.99675e-07
-1.90936e-06
-1.60747e-07
4.93801e-07
-2.15219e-06
-9.69609e-07
8.22526e-07
-2.19779e-06
-1.9325e-06
1.13174e-06
-2.05968e-06
-3.08682e-06
1.4501e-06
-1.70769e-06
-4.56305e-06
1.7235e-06
-9.93944e-07
-6.25178e-06
1.73833e-06
-5.70502e-06
1.21292e-06
-5.74943e-07
2.83965e-07
-3.87378e-07
-1.34147e-06
3.52402e-07
-2.39547e-07
-2.17641e-06
3.29215e-07
-1.26756e-07
-2.73765e-06
-5.30115e-08
1.08466e-07
-3.08154e-06
-7.29121e-07
4.9419e-07
-3.01407e-06
-1.77722e-06
8.97516e-07
-2.63059e-06
-3.22511e-06
1.41193e-06
-1.89718e-06
-5.39079e-06
1.87758e-06
-8.42993e-07
-8.11282e-06
1.91143e-06
-6.99483e-06
9.85955e-07
-3.05113e-07
6.71527e-09
3.01793e-08
-5.2362e-07
4.03895e-09
2.47282e-08
-7.10329e-07
-3.29901e-08
-6.82251e-09
-9.49187e-07
-1.84167e-08
-1.77697e-08
-1.13849e-06
-3.07412e-09
3.09662e-08
-1.28053e-06
-2.10464e-10
2.06419e-07
-1.34107e-06
-5.24298e-09
4.44094e-07
-1.24484e-06
-9.86371e-08
8.11858e-07
-9.09452e-07
-2.26169e-06
1.23317e-06
-4.85746e-06
1.3128e-06
-1.72179e-08
1.19917e-10
6.15024e-10
-1.66137e-09
-1.61441e-09
-2.53406e-08
9.18118e-09
-7.3162e-09
-5.94123e-08
1.64992e-09
-7.68502e-10
-1.92434e-08
2.94374e-11
-4.13446e-11
-1.40276e-09
-1.39063e-10
3.11757e-13
-2.02135e-11
-4.14276e-09
-6.58191e-12
1.75576e-11
-7.99837e-08
-3.84524e-11
1.70531e-09
-2.98619e-07
-2.03552e-10
7.44947e-08
-3.77604e-10
4.31947e-07
-1.54274e-09
3.20978e-10
-1.52763e-09
1.23334e-09
7.33998e-10
-1.06929e-08
1.54193e-09
3.74083e-11
-1.64084e-08
-6.49061e-11
2.08707e-10
-1.1064e-09
7.30613e-12
4.56519e-11
-7.7651e-11
6.15724e-12
3.70743e-12
-3.14259e-12
6.19375e-13
-8.80796e-14
-7.06301e-13
1.51765e-12
-3.86343e-11
-1.52583e-12
9.00215e-13
-1.9866e-10
-3.27267e-12
-3.4111e-10
2.16977e-12
-1.19066e-11
1.46049e-10
-1.30646e-10
8.03113e-10
3.40899e-10
-6.39131e-09
1.80232e-10
-3.1146e-12
-1.18998e-09
6.42155e-11
4.40237e-12
-4.23278e-11
2.59707e-12
4.31027e-11
-4.25542e-12
4.19737e-12
1.68326e-12
-8.12444e-13
4.19854e-12
4.64372e-14
-4.47285e-13
1.11226e-10
-1.83856e-10
-9.38775e-12
1.33521e-10
-5.78014e-10
-1.53737e-10
-6.3758e-10
-4.14766e-11
1.28891e-12
3.34481e-11
-3.43923e-12
3.2479e-11
1.40947e-11
-1.63453e-11
1.15717e-11
5.32982e-12
4.68516e-13
5.85047e-12
4.38104e-12
4.34091e-13
7.5115e-12
6.45911e-15
-2.61576e-12
2.70354e-12
9.50514e-13
-6.87772e-13
2.35702e-12
1.91103e-13
-4.15297e-13
6.97437e-10
-9.55496e-12
-7.55385e-11
1.09904e-09
-2.72994e-11
-1.07293e-09
-5.80827e-10
-8.25386e-10
-2.40646e-12
6.2582e-11
1.37983e-12
1.66986e-13
3.94201e-12
8.27312e-13
2.3204e-13
3.10057e-12
1.8258e-13
2.84397e-13
3.58454e-12
-5.16782e-13
3.40431e-13
-3.838e-13
-5.36902e-13
4.46746e-13
1.53797e-13
-2.3931e-13
3.43572e-12
1.70555e-12
-3.41189e-11
1.69489e-10
3.92327e-11
-1.19769e-10
3.1804e-10
-8.79999e-12
-3.7752e-10
-4.86832e-11
-6.55174e-10
-1.65939e-11
7.6508e-11
-2.45034e-12
-1.39957e-13
1.65069e-11
2.00491e-13
6.05801e-13
1.45557e-11
4.51877e-13
1.03762e-12
1.28615e-11
3.41981e-13
3.11615e-13
4.70928e-12
-7.13471e-14
1.42016e-13
2.91807e-13
-8.67804e-14
8.78758e-13
1.17494e-12
-2.25288e-11
2.95259e-12
3.91867e-12
-7.64362e-11
1.48584e-11
7.65473e-12
-8.32151e-11
8.66363e-13
-1.93728e-10
-2.80851e-11
4.26677e-11
-1.54048e-12
-4.66097e-12
2.8633e-11
-1.36793e-14
1.13935e-12
2.23945e-11
-1.75108e-12
1.30075e-13
9.96994e-12
3.21149e-13
2.76075e-13
9.46087e-13
2.66945e-12
2.64863e-13
3.02788e-13
2.64792e-13
1.01652e-11
2.64901e-11
-1.83907e-13
8.58476e-12
2.49634e-11
-2.18475e-11
1.38934e-11
7.90433e-11
-6.63331e-11
2.27886e-11
-1.19772e-11
-5.39821e-12
-7.52598e-13
-2.77999e-14
1.57647e-13
8.95593e-12
-1.87039e-13
1.73765e-12
8.65995e-12
-9.30142e-14
-2.23293e-13
2.05935e-12
-3.19531e-13
4.41134e-13
9.59129e-14
9.06363e-14
5.23457e-12
7.98722e-13
7.29741e-13
2.58556e-11
6.22515e-11
5.17602e-12
2.1797e-11
6.35892e-11
-2.9825e-12
4.08159e-11
1.94274e-10
-1.83836e-10
7.85049e-11
-3.45287e-12
2.80138e-14
-2.61607e-15
2.03662e-15
4.86694e-13
1.18519e-14
1.35131e-13
8.64519e-13
1.72038e-14
2.81862e-13
8.46667e-14
-2.31692e-14
1.65493e-14
6.28301e-13
5.64764e-14
-5.8908e-13
2.52197e-11
4.50452e-12
9.85286e-15
7.71642e-11
1.40671e-10
3.73083e-12
5.47915e-11
1.96984e-10
-2.355e-11
4.77206e-11
1.46879e-10
-8.85246e-11
2.4167e-10
-2.28892e-12
4.22165e-15
3.75217e-17
-2.6649e-17
2.07305e-14
3.89386e-16
1.48673e-15
3.56481e-14
5.97226e-16
1.06624e-15
1.52827e-14
-4.18506e-16
-2.75702e-17
1.08954e-13
3.11868e-15
-3.64706e-14
7.40823e-11
2.74316e-11
-1.21463e-11
1.16846e-10
1.73938e-10
-1.5e-12
1.16041e-10
2.67339e-10
-4.9281e-11
4.88326e-11
5.39349e-11
-1.97347e-11
4.52516e-10
1.33597e-12
8.29212e-17
-1.9085e-17
5.14758e-18
3.99383e-16
1.90488e-18
6.32585e-18
8.03962e-16
-2.07802e-18
6.12697e-17
4.90037e-16
-4.6281e-19
-6.33626e-18
7.64435e-15
-9.17684e-16
2.13765e-16
7.45261e-11
-2.39031e-11
4.5999e-11
7.18096e-11
-7.89624e-11
2.04464e-10
3.59187e-11
-5.31616e-11
1.68042e-10
4.53201e-12
-1.20872e-12
3.4916e-11
4.32768e-11
3.37269e-10
-1.68335e-07
-2.55798e-08
5.4293e-07
-3.67973e-07
-2.05367e-08
5.29794e-07
-5.23524e-07
-3.8338e-08
5.06445e-07
-6.20303e-07
-7.49322e-08
4.89244e-07
-6.53029e-07
-1.23453e-07
4.80386e-07
-6.21918e-07
-1.79418e-07
4.82078e-07
-5.28762e-07
-2.39193e-07
4.9279e-07
-3.74322e-07
-3.04319e-07
5.14831e-07
-1.76151e-07
-3.54127e-07
5.43483e-07
-3.12995e-07
4.96169e-07
-1.53209e-07
-5.99603e-08
5.21383e-07
-3.44713e-07
-4.84152e-08
4.99424e-07
-4.95431e-07
-7.57396e-08
4.68597e-07
-5.91738e-07
-1.43079e-07
4.50214e-07
-6.25351e-07
-2.38408e-07
4.42465e-07
-5.96053e-07
-3.49811e-07
4.47281e-07
-5.06114e-07
-4.69067e-07
4.62002e-07
-3.55173e-07
-6.01192e-07
4.91121e-07
-1.60892e-07
-7.03764e-07
5.27467e-07
-6.06013e-07
4.69793e-07
-1.92371e-07
-3.82866e-08
5.47628e-07
-4.28972e-07
-4.68195e-08
5.463e-07
-6.15205e-07
-9.85379e-08
5.21777e-07
-7.3581e-07
-2.1065e-07
5.13504e-07
-7.80705e-07
-3.67971e-07
5.17593e-07
-7.50111e-07
-5.51174e-07
5.38123e-07
-6.41214e-07
-7.53966e-07
5.71097e-07
-4.44984e-07
-9.86862e-07
6.20157e-07
-1.92042e-07
-1.1596e-06
6.78994e-07
-9.70952e-07
6.15444e-07
-2.31653e-07
1.02771e-07
5.5818e-07
-5.39295e-07
3.02251e-08
6.31035e-07
-7.79673e-07
-8.86311e-08
6.27913e-07
-9.38521e-07
-2.71084e-07
6.25161e-07
-1.00724e-06
-5.14501e-07
6.38569e-07
-9.85246e-07
-7.93034e-07
6.71802e-07
-8.60778e-07
-1.11047e-06
7.29462e-07
-6.10593e-07
-1.4813e-06
8.37608e-07
-2.51539e-07
-1.75625e-06
9.65487e-07
-1.42309e-06
8.39033e-07
-3.02977e-07
4.87772e-07
5.45157e-07
-7.17318e-07
3.09024e-07
7.23685e-07
-1.05552e-06
7.20146e-08
7.54658e-07
-1.27164e-06
-2.49153e-07
7.57744e-07
-1.37255e-06
-6.25719e-07
7.83083e-07
-1.38562e-06
-1.02314e-06
8.56607e-07
-1.29458e-06
-1.48356e-06
1.02281e-06
-1.01489e-06
-2.05904e-06
1.31182e-06
-4.6724e-07
-2.55023e-06
1.5382e-06
-2.05804e-06
1.21765e-06
-3.8847e-07
9.96328e-07
5.13593e-07
-9.29184e-07
7.26871e-07
7.70671e-07
-1.38678e-06
3.28135e-07
9.36812e-07
-1.69103e-06
-1.59717e-07
1.03172e-06
-1.85969e-06
-6.81936e-07
1.10314e-06
-1.90238e-06
-1.25608e-06
1.24696e-06
-1.80748e-06
-1.91496e-06
1.52502e-06
-1.49369e-06
-2.72215e-06
1.87328e-06
-8.09235e-07
-3.49629e-06
2.00998e-06
-2.99268e-06
1.51016e-06
-4.98037e-07
1.58236e-06
-2.95381e-09
-1.15405e-06
1.15474e-06
2.60388e-07
-1.67441e-06
4.7987e-07
5.68294e-07
-2.08201e-06
-1.19527e-07
8.6121e-07
-2.26759e-06
-8.32945e-07
1.15914e-06
-2.2322e-06
-1.63513e-06
1.47555e-06
-2.01938e-06
-2.50853e-06
1.83125e-06
-1.64321e-06
-3.47282e-06
2.09884e-06
-9.53244e-07
-4.52646e-06
2.08003e-06
-4.19743e-06
1.46492e-06
-4.64109e-07
3.51103e-07
-3.79372e-07
-1.24052e-06
4.43803e-07
-1.8419e-07
-2.02599e-06
3.99092e-07
-2.10043e-08
-2.4603e-06
-3.77327e-08
3.28998e-07
-2.70107e-06
-6.18007e-07
8.69104e-07
-2.62329e-06
-1.48971e-06
1.33219e-06
-2.30147e-06
-2.52999e-06
1.88441e-06
-1.7369e-06
-3.73314e-06
2.40418e-06
-8.14191e-07
-5.29872e-06
2.6256e-06
-5.84686e-06
1.88631e-06
-1.27043e-07
2.56268e-09
-2.43042e-08
-3.43696e-07
1.52136e-08
-3.94029e-08
-5.03428e-07
-8.77729e-08
-9.88351e-08
-6.41756e-07
-1.60301e-08
-1.50639e-07
-7.44955e-07
-1.10284e-08
-7.10293e-08
-9.12119e-07
-9.00416e-10
1.95354e-07
-1.0098e-06
-1.19414e-10
5.15931e-07
-8.08418e-07
-4.09066e-09
9.31007e-07
-6.13944e-07
-9.2001e-08
1.2678e-06
-1.05881e-06
1.59884e-06
-1.39008e-08
-8.17536e-10
3.60869e-10
1.14672e-08
-1.1805e-09
-7.11087e-08
1.97862e-08
-3.38142e-09
-1.83952e-07
8.91726e-09
-1.55985e-09
-2.27897e-08
7.00985e-10
-1.40814e-11
-4.24777e-09
1.14083e-11
-1.21807e-12
-1.98612e-10
-8.26984e-11
-1.51236e-14
-6.65818e-12
-2.46431e-09
-3.301e-12
-3.00813e-13
-2.27364e-08
-5.4519e-11
2.819e-09
-1.04066e-10
6.71562e-08
-6.28763e-09
3.43429e-10
-1.13442e-09
1.3625e-08
1.24101e-08
-1.19531e-07
-7.2577e-10
2.14602e-09
-2.18998e-08
1.03057e-10
4.61567e-11
-4.22443e-10
4.74677e-12
2.72088e-11
-2.50154e-11
2.22098e-13
3.77186e-12
-2.64789e-12
7.0568e-13
2.61766e-13
-6.08938e-13
8.97682e-13
-1.75605e-12
-2.99231e-12
6.50035e-13
-4.9591e-11
-7.82076e-12
-1.0237e-10
-1.27757e-12
3.76426e-10
1.279e-10
-2.01261e-09
5.46318e-09
1.31973e-10
-1.13307e-08
4.45526e-10
-6.83924e-11
-2.07418e-09
-1.14006e-10
1.66363e-10
8.69162e-12
-1.86968e-12
1.59596e-11
7.82516e-12
7.12477e-13
1.35507e-12
8.83464e-14
1.50981e-12
2.37661e-13
-5.71273e-13
9.11697e-12
-1.07526e-12
-1.25464e-11
3.58747e-11
-2.5422e-10
-2.0678e-11
-1.41077e-10
-4.95332e-12
5.27003e-12
6.19819e-12
-3.09694e-10
9.87787e-11
6.5724e-12
5.55907e-12
1.43182e-11
3.39075e-13
1.59356e-11
7.73364e-12
-2.76744e-13
1.12092e-11
1.78113e-12
4.2553e-12
7.04993e-12
6.10231e-13
1.03657e-12
7.57139e-15
5.43357e-13
6.78526e-14
-3.72376e-13
1.01085e-10
-2.142e-11
-1.55438e-10
6.44159e-10
1.67477e-11
-1.75817e-10
-6.38943e-10
-4.48484e-12
-9.4416e-13
8.69366e-14
1.8224e-13
-2.41396e-13
1.03224e-13
7.85217e-13
-2.05227e-13
-2.41079e-14
2.78609e-13
1.22142e-13
-5.23338e-14
1.05764e-13
6.50816e-13
5.92648e-13
3.10624e-14
1.60466e-12
1.28462e-13
-3.49247e-13
3.51487e-11
2.105e-12
-5.31793e-11
6.48386e-11
-2.22375e-11
-2.02093e-10
1.10675e-11
7.02381e-11
-1.71243e-10
-5.6998e-11
-6.67052e-10
-3.72202e-12
1.40387e-14
-2.78768e-14
-4.64231e-13
1.62439e-12
-4.28082e-13
-2.08713e-13
3.70315e-14
3.78657e-14
3.33728e-14
4.61736e-14
-3.25925e-14
9.15468e-14
5.70683e-13
-1.71666e-13
7.74083e-14
9.70425e-14
-1.05382e-13
6.11907e-12
1.55327e-11
-6.69903e-11
1.82266e-13
3.23521e-13
-1.52204e-10
-1.00931e-10
7.696e-11
-2.23397e-10
3.91906e-11
-8.45817e-10
-2.12315e-12
9.56836e-15
-3.56706e-15
-7.30784e-13
3.22937e-12
-2.31917e-13
-6.95168e-15
1.33636e-12
4.88071e-15
3.00211e-13
1.76563e-14
-3.95056e-16
4.42392e-12
6.8148e-12
-6.90002e-13
3.02544e-12
3.0537e-12
-2.37793e-15
8.57782e-12
5.44101e-12
-1.79325e-11
-6.27652e-11
1.05609e-10
-8.96073e-11
-4.11113e-11
1.17031e-10
-7.95541e-11
-1.24221e-11
-3.03529e-10
-8.89741e-17
3.34358e-14
-1.46731e-14
4.78096e-13
3.58029e-13
-1.28523e-13
4.22413e-13
5.07246e-13
-1.17457e-14
1.31868e-13
2.24092e-13
-2.55743e-15
7.86055e-12
1.48663e-11
-7.53082e-13
2.8711e-12
6.77358e-12
9.47623e-14
1.31378e-11
5.45404e-12
-1.04033e-12
-1.37298e-11
1.9404e-10
-1.03478e-10
-6.80525e-12
2.08066e-10
-2.32377e-10
1.70818e-11
-7.50746e-11
1.34306e-15
2.04987e-15
-1.06966e-16
3.43839e-14
2.37928e-17
-7.7482e-16
8.81155e-14
1.13762e-16
-1.21171e-15
3.2236e-13
6.00039e-15
-2.66871e-16
2.76636e-12
3.49437e-12
-1.8811e-13
1.4992e-12
3.8877e-11
-6.9573e-13
2.18873e-11
1.84677e-11
-9.84098e-12
2.98147e-11
1.65302e-10
-1.16379e-10
5.82426e-12
7.7242e-11
-4.18266e-11
1.20466e-11
-6.15333e-12
1.6564e-16
2.1147e-16
-1.82119e-15
1.10092e-15
1.66086e-16
-2.19904e-17
1.9655e-15
4.2776e-17
-2.70663e-17
7.80118e-15
1.7148e-16
-4.91135e-17
3.26169e-12
2.05008e-13
-1.66715e-15
2.88466e-11
4.4367e-10
-2.11939e-11
5.21829e-12
3.81444e-10
-7.03023e-11
8.5992e-12
5.74749e-11
-1.71774e-11
-3.07644e-13
1.58297e-11
-1.28695e-12
1.24329e-11
1.962e-14
8.04309e-17
-5.52132e-16
2.07914e-16
1.8407e-17
-3.83013e-19
2.10267e-17
3.81697e-17
-1.34202e-18
8.79776e-18
2.07932e-16
-3.02758e-18
5.83393e-18
1.95368e-13
-8.03597e-17
8.99645e-15
9.08081e-11
-8.75106e-11
5.52302e-10
2.25724e-11
-2.1134e-10
7.62106e-10
-1.48536e-12
-1.65578e-12
5.47696e-11
-1.4724e-12
-1.25737e-14
1.45005e-11
1.3945e-12
5.26738e-11
-1.75535e-07
4.9397e-08
7.20412e-07
-3.76233e-07
4.1653e-08
6.88839e-07
-5.24062e-07
1.3893e-08
6.40381e-07
-6.12668e-07
-2.67742e-08
6.04625e-07
-6.37857e-07
-7.6213e-08
5.81787e-07
-6.01592e-07
-1.28987e-07
5.74801e-07
-5.07217e-07
-1.83076e-07
5.8149e-07
-3.55302e-07
-2.40745e-07
6.03661e-07
-1.64424e-07
-2.8201e-07
6.34615e-07
-2.4113e-07
5.72874e-07
-1.63685e-07
8.7192e-08
7.21594e-07
-3.59613e-07
5.84945e-08
6.78511e-07
-4.96852e-07
1.34034e-08
6.06326e-07
-5.78931e-07
-5.78884e-08
5.63407e-07
-6.02708e-07
-1.48354e-07
5.38384e-07
-5.6791e-07
-2.5111e-07
5.34607e-07
-4.77128e-07
-3.5822e-07
5.46363e-07
-3.30909e-07
-4.72764e-07
5.7692e-07
-1.47722e-07
-5.55013e-07
6.17284e-07
-4.64019e-07
5.4496e-07
-1.6978e-07
2.18419e-07
6.79536e-07
-4.21959e-07
1.16429e-07
7.40545e-07
-6.00689e-07
2.01038e-08
6.93807e-07
-7.0728e-07
-9.20222e-08
6.54228e-07
-7.38333e-07
-2.34476e-07
6.34768e-07
-6.99008e-07
-3.96896e-07
6.44583e-07
-5.89037e-07
-5.71837e-07
6.74745e-07
-4.04748e-07
-7.64044e-07
7.27147e-07
-1.76093e-07
-8.95507e-07
7.90833e-07
-7.33394e-07
7.08726e-07
-1.42245e-07
4.41882e-07
6.14064e-07
-4.78738e-07
2.46271e-07
8.37687e-07
-7.30869e-07
6.13736e-08
8.38774e-07
-8.79503e-07
-1.22415e-07
8.04189e-07
-9.31047e-07
-3.348e-07
7.90437e-07
-8.9208e-07
-5.75217e-07
8.11158e-07
-7.54617e-07
-8.42449e-07
8.6261e-07
-5.12458e-07
-1.1289e-06
9.60309e-07
-2.1084e-07
-1.30903e-06
1.07739e-06
-1.05333e-06
9.48131e-07
-1.4593e-07
8.32561e-07
4.59145e-07
-5.76598e-07
5.30415e-07
8.70209e-07
-9.36635e-07
1.97082e-07
9.78987e-07
-1.14572e-06
-1.19216e-07
9.63625e-07
-1.21244e-06
-4.46597e-07
9.61599e-07
-1.18464e-06
-7.625e-07
1.0161e-06
-1.05543e-06
-1.10934e-06
1.16048e-06
-7.76899e-07
-1.49927e-06
1.40366e-06
-3.46012e-07
-1.78154e-06
1.57982e-06
-1.46846e-06
1.28677e-06
-2.00846e-07
1.38188e-06
2.91529e-07
-7.38703e-07
1.03651e-06
8.0243e-07
-1.25045e-06
5.69396e-07
1.07625e-06
-1.55957e-06
3.64246e-08
1.1852e-06
-1.6867e-06
-4.64119e-07
1.2478e-06
-1.68569e-06
-9.14683e-07
1.39813e-06
-1.55117e-06
-1.4009e-06
1.68206e-06
-1.23217e-06
-1.92471e-06
1.97973e-06
-6.64066e-07
-2.35517e-06
2.01552e-06
-2.11498e-06
1.49263e-06
-3.77805e-07
1.80186e-06
8.92488e-08
-1.075e-06
1.45468e-06
5.39423e-07
-1.69591e-06
8.69057e-07
8.89542e-07
-2.04482e-06
1.07267e-07
1.13928e-06
-2.12807e-06
-6.20215e-07
1.39849e-06
-2.04401e-06
-1.23308e-06
1.70996e-06
-1.80332e-06
-1.88793e-06
2.07778e-06
-1.42639e-06
-2.52018e-06
2.31779e-06
-8.39385e-07
-3.08654e-06
2.22513e-06
-3.0774e-06
1.58837e-06
-3.5713e-07
5.8352e-07
-6.99661e-08
-1.13815e-06
7.04493e-07
1.99789e-07
-1.81367e-06
4.96185e-07
4.35594e-07
-2.16241e-06
-6.14968e-09
7.47743e-07
-2.29931e-06
-4.98909e-07
1.28822e-06
-2.13141e-06
-1.12703e-06
1.7375e-06
-1.78109e-06
-1.82296e-06
2.21328e-06
-1.29026e-06
-2.53035e-06
2.71033e-06
-6.12463e-07
-3.17971e-06
3.01729e-06
-3.78213e-06
2.61162e-06
-6.75877e-08
5.2658e-09
-1.04635e-07
-3.76131e-07
-1.00093e-07
-8.13235e-08
-5.14038e-07
-6.27101e-08
-1.3246e-07
-4.70712e-07
-5.63873e-08
-1.28455e-07
-4.33313e-07
-1.96477e-08
-5.47085e-08
-4.70174e-07
-2.87383e-09
1.42777e-07
-5.7239e-07
-2.91249e-10
3.83845e-07
-4.32574e-07
-1.74914e-10
7.6457e-07
-2.84549e-07
-4.0777e-09
1.14758e-06
-6.32424e-08
1.43184e-06
-8.60442e-09
-2.47116e-09
-1.60026e-09
2.58121e-08
2.234e-08
-5.61378e-07
6.64882e-08
-2.29157e-08
-3.88411e-07
1.31515e-08
-1.88044e-09
-3.02483e-08
1.65661e-09
-5.49297e-11
-1.2281e-08
1.15926e-10
-4.63592e-12
-1.52361e-09
2.67635e-14
-5.00574e-12
-1.76047e-10
-6.74225e-11
1.07875e-13
-1.0432e-10
-1.30045e-09
-2.24841e-11
-8.97084e-12
-8.66908e-12
2.61878e-09
-8.91026e-09
4.47386e-09
-9.51801e-09
1.66181e-08
3.68515e-09
-1.23584e-07
2.06541e-09
-1.72299e-09
-1.35741e-09
5.00088e-11
-1.21961e-10
-1.00762e-10
2.96974e-12
2.52525e-12
-1.70266e-11
1.83339e-13
-1.18882e-12
-4.37211e-12
-3.37337e-14
8.95447e-14
-4.46036e-12
4.69561e-13
2.19604e-12
-7.21884e-12
1.06458e-13
2.97944e-15
-2.79534e-11
-3.83786e-12
-4.85705e-12
5.97186e-09
6.04694e-09
-3.96512e-08
3.07581e-09
-6.53303e-10
-6.46899e-09
9.50975e-11
2.46127e-11
-5.66275e-10
1.55311e-11
1.9827e-11
-9.78607e-12
-1.18759e-13
8.68381e-12
1.98498e-11
-1.97511e-13
2.00607e-12
1.9039e-12
-3.8773e-13
5.85357e-13
-7.15765e-13
3.19683e-12
6.24517e-13
-4.10654e-12
2.42332e-12
-3.76106e-13
-5.74565e-12
-5.10392e-13
-8.91857e-12
6.20914e-10
1.1208e-11
-1.36091e-10
1.05309e-11
5.73023e-13
-2.10001e-11
5.40538e-12
-6.78419e-13
4.146e-12
2.89884e-12
1.03246e-12
3.6843e-12
1.03075e-14
1.53422e-12
1.88876e-11
2.68425e-13
1.14876e-12
6.18299e-12
1.81122e-12
1.40034e-13
-1.17484e-12
8.97468e-11
-1.08739e-10
-1.4537e-10
3.01836e-12
6.20458e-12
-9.73209e-11
2.72242e-12
-7.38027e-12
-4.78333e-13
4.58779e-14
1.74575e-12
-1.17884e-13
3.7383e-13
1.23684e-12
-1.31658e-13
-3.06806e-13
5.40058e-13
-9.63185e-14
-2.6176e-14
5.20004e-13
1.23104e-13
4.67947e-13
3.2984e-12
5.04796e-12
1.93425e-13
-4.36391e-12
6.10773e-11
-2.90416e-11
-1.87746e-11
8.00749e-11
-1.34934e-10
-1.87337e-10
-9.72653e-11
1.25763e-10
-1.52259e-10
1.08916e-09
-1.66229e-11
-1.9677e-14
-1.6019e-15
-5.81797e-15
-1.80013e-13
7.49508e-14
-2.22024e-15
-9.022e-14
-2.74538e-16
2.93274e-13
-1.09136e-13
1.61539e-14
7.69576e-15
2.83941e-13
1.58491e-12
5.38905e-14
6.56355e-13
4.74215e-14
-3.96265e-13
-2.04735e-11
-5.31475e-12
-5.62463e-11
1.02986e-11
-1.10691e-10
-2.06931e-10
-3.78414e-10
1.94043e-10
-8.13316e-11
1.26772e-09
-4.65571e-12
-1.70081e-15
-2.02129e-15
-2.66829e-14
5.52312e-17
7.4896e-15
-2.05695e-13
6.46729e-18
4.7998e-16
-3.8928e-15
2.67965e-14
1.0591e-15
-5.15735e-14
3.41552e-12
4.85641e-12
-1.41231e-12
3.57093e-12
1.5118e-13
-6.14705e-14
-1.3138e-11
2.22029e-11
-3.80499e-11
-2.26913e-12
-1.76732e-11
-1.88242e-10
-1.34653e-10
2.68309e-11
-4.2978e-10
-5.29599e-11
-4.20904e-12
5.94569e-16
2.99723e-16
-4.3065e-14
2.32998e-15
4.08316e-15
-1.29226e-13
3.89561e-16
2.28312e-16
-8.77182e-15
7.30273e-14
1.78125e-15
-7.82943e-14
1.29932e-12
1.39891e-12
-6.71725e-13
1.77575e-13
1.38912e-12
-3.22711e-14
-2.06827e-11
2.15752e-11
-1.09207e-11
-7.70852e-11
4.74969e-11
-1.08025e-10
-7.49547e-11
3.22556e-11
-1.48308e-10
-1.07191e-11
-1.10392e-10
3.41955e-15
3.57161e-15
-8.11195e-15
6.32341e-16
1.28911e-15
6.22529e-15
1.06835e-16
6.97491e-17
-5.71602e-16
5.95783e-15
4.36511e-16
-2.89189e-15
3.61347e-13
1.84898e-13
-3.60692e-14
8.7204e-15
2.94198e-11
-6.93415e-14
-1.5638e-11
2.01222e-10
-2.07496e-12
-4.36163e-12
2.80578e-11
-1.22266e-11
-8.55064e-12
1.10425e-12
-6.78882e-12
5.19911e-13
-2.43452e-11
2.34167e-15
4.90664e-15
-7.55598e-15
5.95213e-17
4.69961e-16
2.85694e-15
2.88049e-17
4.206e-17
-2.20635e-17
1.10171e-15
5.8247e-17
-8.72497e-17
1.81051e-13
8.5423e-15
-4.51777e-15
-4.85834e-12
1.89186e-10
-2.20424e-14
-1.62819e-11
3.41467e-10
-8.90926e-13
-2.42765e-13
2.93375e-12
-7.93513e-12
-2.92795e-13
1.00627e-13
-3.5342e-13
4.6834e-13
-3.90614e-13
6.07474e-15
-2.46834e-14
2.03523e-14
3.80577e-17
2.08961e-15
5.17686e-16
7.49646e-18
5.68298e-18
3.12085e-17
6.79511e-17
5.78305e-18
3.16211e-18
9.90483e-15
-1.58988e-15
5.15605e-16
-8.80096e-12
-4.05648e-15
5.33082e-10
-7.58322e-12
-3.98998e-13
3.00233e-10
-1.57563e-14
-6.92664e-12
5.17135e-13
-5.59682e-14
-2.6352e-14
5.32879e-14
-9.58743e-15
1.75023e-12
-1.9241e-07
1.79075e-07
8.00522e-07
-4.11071e-07
1.30832e-07
7.76667e-07
-5.53906e-07
7.49818e-08
7.08234e-07
-6.29913e-07
2.17903e-08
6.58842e-07
-6.41552e-07
-3.13295e-08
6.24755e-07
-5.95587e-07
-8.13133e-08
6.10149e-07
-4.95218e-07
-1.3008e-07
6.11202e-07
-3.41101e-07
-1.8182e-07
6.31364e-07
-1.53176e-07
-2.15085e-07
6.61775e-07
-1.68866e-07