/*--------------------------------*- C++ -*----------------------------------*\
| =========                 |                                                 |
| \\      /  F ield         | OpenFOAM: The Open Source CFD Toolbox           |
|  \\    /   O peration     | Version:  2312                                  |
|   \\  /    A nd           | Website:  www.openfoam.com                      |
|    \\/     M anipulation  |                                                 |
\*---------------------------------------------------------------------------*/
FoamFile
{
    version     2.0;
    format      ascii;
    arch        "LSB;label=32;scalar=64";
    class       volScalarField;
    location    "0.335";
    object      p_rgh;
}
// * * * * * * * * * * * * * * * * * * * * * * * * * * * * * * * * * * * * * //

dimensions      [1 -1 -2 0 0 0 0];

internalField   nonuniform List<scalar> 
8000
(
373.027
373.075
372.989
372.914
372.915
373.011
373.196
373.419
373.624
373.776
372.785
372.81
372.63
372.447
372.349
372.351
372.466
372.634
372.872
373.026
372.341
372.304
371.881
371.446
371.125
370.949
370.924
370.979
371.098
371.282
371.85
371.612
370.661
369.747
369.01
368.485
368.283
368.172
368.14
368.239
371.247
370.151
368.398
366.956
365.651
364.299
363.446
362.663
362.611
362.852
370.242
366.985
364.301
362.49
360.917
359.942
358.844
356.063
355.559
355.931
369.775
346.482
347.354
339.272
322.947
304.208
287.273
275.186
271.646
275.254
209.742
104.538
115.723
103.897
78.6078
57.074
42.9973
36.3645
36.2654
39.5228
1.10978
0.00323141
0.0311494
0.0407355
0.067314
0.113959
0.218567
0.369017
0.521329
0.629585
0.118394
0.0352266
0.0302117
0.0206046
0.0373853
0.0582253
0.0878101
0.105511
0.122681
0.133157
0.336894
0.260819
0.0361628
0.0173296
0.0177205
0.0218607
0.0148008
0.00679327
0.00488165
0.00555126
0.467111
0.168981
0.0133264
-0.00493242
-0.014538
-0.0155053
-0.0208492
-0.0247449
-0.0178147
-0.0108845
0.47163
0.168718
-0.0058412
-0.0241559
-0.0343732
-0.0374717
-0.0380512
-0.0339661
-0.026234
-0.0204722
0.344755
0.224231
-0.0182577
-0.0127541
-0.016681
-0.017344
-0.0216032
-0.0315969
-0.03019
-0.0284844
0.0459284
0.237132
0.0808567
0.0879756
0.0940269
0.0235237
0.0113779
-0.0241038
-0.0310202
-0.0263331
-0.0114881
0.148606
0.131758
0.0408867
-0.0125521
-0.0198594
-0.0230212
-0.0261048
-0.0279536
-0.0282427
-0.0293782
0.0175515
0.0717647
-0.0681546
-0.049921
-0.0412966
-0.038186
-0.0372782
-0.0362494
-0.0372825
-0.0386897
-0.0481699
-0.0811597
-0.0870379
-0.0604559
-0.0506942
-0.0458487
-0.0432618
-0.0417788
-0.0418041
-0.0403297
-0.0595528
-0.0820971
-0.0796647
-0.0619908
-0.0532076
-0.0496135
-0.0475727
-0.0463773
-0.0458859
-0.0378046
-0.0429268
-0.0583502
-0.062052
-0.056581
-0.0529546
-0.0513551
-0.050308
-0.04953
-0.0490571
373.072
373.211
373.235
373.298
373.453
373.703
374.028
374.383
374.708
374.872
372.806
372.946
372.902
372.883
372.963
373.144
373.407
373.706
373.976
374.132
372.296
372.439
372.212
371.995
371.902
371.95
372.12
372.312
372.639
372.731
371.59
371.728
371.102
370.491
370.055
369.818
369.868
370.399
370.277
370.421
370.076
370.279
369.151
368.074
367.15
366.256
365.37
365.156
365.576
365.963
366.908
365.944
364.389
363.34
362.499
362.32
362.482
360.311
360.314
360.936
346.133
330.076
334.689
331.472
322.989
313.381
304.005
301.46
305.363
311.49
103.28
76.5828
90.8068
83.4146
71.7085
62.1547
53.6363
50.6166
55.919
65.0332
0.0377865
-0.0317333
0.027422
0.0218377
0.0417946
0.0641421
0.0965771
0.126881
0.155035
0.169949
0.0741762
0.0159296
0.0159468
0.0143739
0.0670095
0.0834196
0.0417228
-0.0101815
-0.0316888
-0.0436484
0.460249
0.0652995
0.0114445
-0.000877067
0.0220543
0.0613359
0.0144114
-0.0470827
-0.057529
-0.0568768
0.42961
0.0117461
-0.0108683
-0.0287228
-0.0406461
-0.0282669
-0.0302558
-0.0531279
-0.0536911
-0.0413462
0.432716
-0.00236282
0.0128813
-0.0121011
-0.0147895
-0.0253021
-0.0642497
-0.0576424
-0.0511851
-0.0333954
0.295973
0.0219861
0.118543
0.0962705
-0.0375722
-0.0409216
-0.0435201
-0.0442265
-0.0384335
-0.0161293
0.0233261
0.162041
0.152211
0.0360768
-0.0336403
-0.0323595
-0.0288057
-0.0311624
-0.0353478
-0.0249033
-0.00434803
0.15919
0.118285
-0.0566255
-0.0464621
-0.0397102
-0.0357518
-0.0335152
-0.0362718
-0.0405013
-0.0155974
0.144808
0.00574201
-0.0792377
-0.0629972
-0.0489898
-0.0427679
-0.0401546
-0.0396663
-0.0409412
-0.0290518
0.133567
-0.0746588
-0.0991371
-0.0721187
-0.0553677
-0.048508
-0.0454738
-0.0438147
-0.0436976
-0.0360579
0.0654375
-0.0597744
-0.0906686
-0.0698098
-0.0559257
-0.0509972
-0.048905
-0.0476653
-0.0471142
-0.035813
-0.0453866
-0.0508171
-0.0629536
-0.0574777
-0.0532247
-0.0518067
-0.0509921
-0.0502555
-0.0497339
372.984
373.232
373.449
373.758
374.175
374.678
375.224
375.754
376.184
376.421
372.622
372.897
373.102
373.389
373.789
374.277
374.808
375.323
375.732
375.943
371.866
372.202
372.363
372.596
372.955
373.431
373.978
374.514
374.976
375.115
370.622
371.073
371.132
371.254
371.534
371.965
372.558
373.423
373.763
374.204
368.278
369.06
369.091
369.119
369.303
369.6
369.901
370.441
371.341
371.975
364.225
364.321
364.557
365.048
365.661
366.533
367.579
367.628
368.696
369.716
347.054
333.103
337.311
339.617
342.77
344.129
343.026
348.286
356.854
363.693
113.036
86.1953
96.6351
96.7853
104.924
111.415
111.452
115.991
132.9
152.965
0.0318619
0.0256765
0.0347008
0.0272385
0.0350912
0.0311361
-0.00454281
0.138231
0.292365
0.505033
0.0240246
0.000706213
0.0182922
0.0105806
0.05673
0.0651613
0.0222666
-0.035782
-0.0463777
-0.047762
0.142461
0.0688423
0.0562152
-0.0167428
-0.0175992
-0.0213297
-0.0474996
-0.0663531
-0.0697734
-0.0672702
0.0364895
0.00880707
0.011256
-0.0340265
-0.0424769
-0.0500747
-0.0574401
-0.062429
-0.0626417
-0.0574461
-0.0147239
-0.018934
0.0295687
-0.0337348
-0.0502327
-0.054035
-0.0591187
-0.0615919
-0.0598207
-0.0375425
-0.0133884
0.0119948
0.0212172
-0.0223458
-0.0483731
-0.0532703
-0.0541364
-0.0519792
-0.0468533
-0.0217088
0.0954518
0.0877223
0.0277834
-0.0324437
-0.0497383
-0.04832
-0.0458868
-0.0437164
-0.0439835
-0.041063
0.0864338
0.0759162
0.0188174
-0.0489073
-0.0562264
-0.0484997
-0.0449557
-0.0429304
-0.0431045
-0.0435331
-0.0404602
-0.0289048
-0.0302503
-0.0717563
-0.0675432
-0.0551455
-0.0488499
-0.0460314
-0.0449082
-0.0448876
-0.0783588
-0.070974
-0.0729912
-0.0880895
-0.0740362
-0.0590123
-0.0520555
-0.0493351
-0.0477792
-0.0470554
-0.0608493
-0.0436071
-0.0649954
-0.0812403
-0.0686616
-0.0575477
-0.0529882
-0.0512268
-0.0500043
-0.0491842
-0.0470378
-0.0380163
-0.0433526
-0.0549989
-0.055079
-0.0536844
-0.0529402
-0.052401
-0.0516441
-0.0509333
372.908
373.294
373.756
374.385
375.15
375.994
376.848
377.629
378.227
378.559
372.439
372.876
373.386
374.065
374.883
375.777
376.671
377.486
378.106
378.451
371.429
371.98
372.589
373.373
374.309
375.334
376.365
377.301
378.019
378.411
369.709
370.454
371.237
372.211
373.352
374.578
375.812
376.993
377.879
378.437
366.836
367.95
369.067
370.343
371.825
373.419
374.93
376.336
377.578
378.404
362.371
363.131
364.945
367.046
369.284
371.558
373.692
375.581
377.348
378.594
339.219
330.057
338.532
348.942
359.551
366.351
371.115
374.047
376.916
379.366
102.524
81.3405
95.0296
111.659
141.902
168.623
191.873
221.545
253.452
280.106
0.0306105
0.010835
0.0120744
0.0313396
0.0409626
0.00568793
1.02576
17.5987
34.8722
46.2606
-0.00324928
-0.0171929
0.0177264
0.0239282
0.0129704
0.00469994
-0.0077847
-0.0568617
-0.10061
-0.115923
-0.00751428
-0.0185736
0.0439801
0.00395358
-0.0252293
-0.0415993
-0.0622254
-0.0768559
-0.0793757
-0.0811946
-0.0173869
-0.0212069
-0.0284829
-0.0409633
-0.0330525
-0.0409935
-0.0512927
-0.0649489
-0.0678653
-0.0694521
-0.0274244
-0.0212352
-0.0268095
-0.0415382
-0.0367583
-0.042618
-0.0487372
-0.0624743
-0.0632805
-0.059304
-0.0232584
-0.0443295
-0.0489715
-0.039868
-0.041545
-0.0462551
-0.0523357
-0.0555879
-0.0549609
-0.0509236
-0.0190784
-0.048561
-0.0458419
-0.0386211
-0.0466926
-0.0497511
-0.0499935
-0.0499252
-0.0491146
-0.0473185
-0.0416701
-0.0567579
-0.0562009
-0.0471487
-0.0525042
-0.0520287
-0.0503054
-0.048783
-0.0469596
-0.043279
-0.0748908
-0.08346
-0.0770331
-0.0624171
-0.0616798
-0.0567242
-0.0531258
-0.0509584
-0.0494097
-0.0478361
-0.0928534
-0.103235
-0.0916564
-0.0766963
-0.0677624
-0.0594594
-0.0551756
-0.0529406
-0.0513294
-0.0499623
-0.0769634
-0.0907408
-0.0813292
-0.0723228
-0.0638495
-0.0580138
-0.0554309
-0.0539079
-0.0524747
-0.0512344
-0.0582419
-0.0593794
-0.0546086
-0.053911
-0.0547804
-0.0550472
-0.0549198
-0.0543498
-0.0533106
-0.0522362
372.912
373.45
374.174
375.15
376.298
377.523
378.722
379.783
380.561
380.989
372.344
372.958
373.786
374.883
376.152
377.488
378.771
379.906
380.744
381.185
371.116
371.891
372.949
374.308
375.854
377.464
379.005
380.34
381.325
381.871
368.996
370.035
371.521
373.347
375.351
377.389
379.323
381.027
382.285
383.014
365.603
367.081
369.256
371.799
374.604
377.414
379.99
382.19
383.862
384.856
360.811
362.325
365.541
369.207
373.09
376.999
380.65
383.832
386.302
387.793
322.825
321.969
341.483
358.832
370.669
377.407
382.297
386.827
390.718
392.686
78.9785
71.8086
102.372
136.558
197.604
269.123
306.746
334.559
364.445
386.928
0.0492427
0.0192734
0.0106991
0.0403535
0.0559307
2.56904
40.648
103.502
159.774
190.836
0.0103772
-0.0124319
0.00546904
0.0458055
0.0281389
0.000856234
-0.0861027
-0.0756053
0.0333923
0.153014
-0.00778368
-0.0375188
0.0351738
0.0690008
-0.0184957
-0.0674241
-0.0750019
-0.0554952
-0.0478143
-0.0514383
-0.0237042
-0.0603127
-0.0642266
-0.0525152
-0.043582
-0.0621574
-0.0727102
-0.0685288
-0.0703617
-0.0789707
-0.0355324
-0.0606662
-0.0647228
-0.0545743
-0.0455648
-0.0488036
-0.0596993
-0.0657465
-0.0654504
-0.0660826
-0.0243667
-0.0466073
-0.0550914
-0.0512268
-0.0475053
-0.0481765
-0.0552786
-0.0601095
-0.059444
-0.0582832
-0.0219678
-0.0366127
-0.0490735
-0.0515435
-0.0523984
-0.0553609
-0.0561963
-0.0554505
-0.0533411
-0.0478452
-0.0373631
-0.0476288
-0.0574341
-0.0564495
-0.0566615
-0.0568877
-0.0561282
-0.054249
-0.0498936
-0.0377138
-0.0589249
-0.0675596
-0.069203
-0.0640764
-0.0617308
-0.0597651
-0.0582847
-0.0567399
-0.0549527
-0.0521658
-0.0674883
-0.0763117
-0.075523
-0.0687564
-0.0638471
-0.0610477
-0.0597162
-0.0581624
-0.0561062
-0.0530726
-0.0650362
-0.0720783
-0.069775
-0.0641804
-0.0607567
-0.0596136
-0.0594546
-0.0584129
-0.0561543
-0.0534814
-0.056997
-0.0580022
-0.0558221
-0.0550229
-0.0560371
-0.0571844
-0.058188
-0.0579926
-0.0560069
-0.0536465
373.014
373.705
374.68
375.998
377.526
379.136
380.68
382.013
382.963
383.509
372.354
373.145
374.279
375.781
377.492
379.265
380.946
382.419
383.467
384.109
370.955
371.947
373.43
375.34
377.471
379.641
381.66
383.392
384.628
385.367
368.499
369.819
371.967
374.582
377.392
380.189
382.803
385.01
386.596
387.518
364.349
366.276
369.613
373.429
377.426
381.313
384.753
387.629
389.677
390.829
359.848
362.175
366.407
371.459
376.926
382.371
387.259
391.295
394.132
395.765
303.971
312.488
343.349
366.2
377.338
385.07
391.765
397.385
401.273
403.335
57.8428
63.4087
110.83
166.001
264.841
341.595
383.797
407.266
412.234
414.916
0.11572
0.0476029
0.00826031
0.0298062
2.32671
43.7107
133.576
245.661
325.446
365.435
0.055074
0.00716083
0.00735439
0.0927956
0.0305364
-0.138176
1.39271
28.5564
76.7645
112.586
0.00837825
-0.0310915
0.00087174
0.171933
0.082464
-0.0785823
-0.0693439
-0.0677185
-0.0576082
-0.0928317
-0.0209901
-0.0627702
-0.0685987
-0.0614494
-0.0581262
-0.0866407
-0.100099
-0.0895559
-0.0789772
-0.0810408
-0.0351418
-0.056666
-0.0673473
-0.0612788
-0.0627832
-0.0779976
-0.0854804
-0.079189
-0.0754108
-0.0681016
-0.031395
-0.0382763
-0.0534802
-0.0551009
-0.057428
-0.0671062
-0.0733795
-0.0715224
-0.067154
-0.0620961
-0.0269825
-0.0325222
-0.0467518
-0.0519829
-0.0568301
-0.0622278
-0.0643444
-0.0639014
-0.0586245
-0.0539513
-0.0370117
-0.0426504
-0.0510673
-0.0542882
-0.0575257
-0.0607986
-0.0617279
-0.0613087
-0.0553669
-0.040994
-0.0494615
-0.0539549
-0.0575917
-0.058488
-0.0599716
-0.0620751
-0.0634187
-0.063876
-0.0648194
-0.0591793
-0.0553854
-0.059152
-0.0609843
-0.0607215
-0.0610219
-0.0621712
-0.0640748
-0.0642563
-0.0633257
-0.058596
-0.0560567
-0.0582901
-0.0589514
-0.0587141
-0.0593623
-0.0607851
-0.0626615
-0.0636176
-0.0613185
-0.0569622
-0.0544737
-0.054501
-0.0546386
-0.0553867
-0.0567618
-0.0583639
-0.0604444
-0.0620802
-0.0596152
-0.0557959
373.208
374.037
375.232
376.857
378.731
380.688
382.533
384.116
385.236
385.81
372.477
373.413
374.815
376.682
378.784
380.956
383.028
384.822
386.098
386.897
370.945
372.118
373.982
376.386
379.025
381.672
384.128
386.197
387.601
388.519
368.309
369.862
372.562
375.848
379.348
382.817
385.977
388.581
390.356
391.367
363.582
365.496
370.003
375.015
380.046
384.776
388.934
392.302
394.599
395.701
358.8
362.469
367.504
373.719
380.646
387.254
392.975
397.501
400.568
402.081
287.155
303.403
343.25
371.473
382.323
391.705
399.52
405.674
409.739
411.838
44.6123
53.9637
112.83
193.983
305.443
383.272
410.047
418.022
423.226
425.834
0.259032
0.116323
0.0157644
2.34387
37.1418
129.321
273.844
378.351
424.412
444.477
0.107955
0.0323748
0.0777644
0.132462
0.0156896
2.39861
59.7371
178.159
295.461
361.557
0.0256757
-0.0234596
0.0843918
0.288928
0.150121
-0.0696715
-0.104867
0.0161396
17.5337
60.2914
-0.0175759
-0.0614079
-0.0683292
-0.0692968
-0.0745328
-0.106146
-0.11833
-0.110166
-0.101956
-0.0989083
-0.034983
-0.0608333
-0.0670874
-0.0643625
-0.0608108
-0.0674606
-0.0923969
-0.0964442
-0.0906315
-0.0950379
-0.0332901
-0.0425929
-0.0546312
-0.0568827
-0.0610241
-0.0717419
-0.0859569
-0.0719777
-0.0367041
-0.0773856
-0.0287027
-0.0344346
-0.0478409
-0.0539793
-0.0597095
-0.0670012
-0.0714966
-0.0479785
0.128176
-0.0548137
-0.0358927
-0.0430488
-0.0500795
-0.0552525
-0.0597724
-0.0656044
-0.0659881
-0.0234676
0.120099
-0.0577463
-0.0455006
-0.048995
-0.053958
-0.0576065
-0.0586184
-0.0685855
-0.0708004
-0.0344515
-0.0829566
-0.0640906
-0.0513177
-0.0535836
-0.0562853
-0.0588663
-0.0552278
-0.0710721
-0.0766818
-0.0535225
-0.0571193
-0.0604587
-0.053333
-0.0544462
-0.0558728
-0.0578518
-0.0566186
-0.0596291
-0.0789735
-0.0711866
-0.062233
-0.0564589
-0.053848
-0.0540641
-0.0547888
-0.0562445
-0.0582263
-0.0533854
-0.0770585
-0.0690631
-0.0631724
-0.0541418
373.442
374.401
375.769
377.645
379.798
382.027
384.12
385.936
387.14
387.715
372.661
373.719
375.333
377.505
379.926
382.438
384.831
386.944
388.465
389.264
371.026
372.287
374.509
377.331
380.372
383.417
386.21
388.49
390.134
391.089
368.227
370.287
373.315
377.038
381.076
385.045
388.598
391.412
393.408
394.504
362.908
365.603
370.838
376.54
382.307
387.69
392.329
395.894
398.448
399.707
356.334
360.61
367.901
375.801
383.931
391.338
397.536
402.253
405.62
407.299
275.838
302.648
350.847
374.554
386.992
397.365
405.689
411.954
416.101
418.131
38.4995
51.6691
119.035
224.955
336.85
407.149
418.025
425.949
431.013
433.47
0.403221
0.243529
0.256717
17.8997
98.9959
242.723
379.281
444.927
450.673
453.949
0.154676
0.122367
0.359101
0.154597
0.246436
32.4928
177.587
356.952
469.834
483.233
0.0517321
0.153636
0.300341
0.540257
0.64668
-0.0788181
-0.0646513
66.7722
347.397
418.387
-0.00793513
-0.00916218
-0.0104371
0.145313
0.569847
0.199203
-0.108522
-0.148938
37.4972
58.3495
-0.0397338
-0.0755607
-0.0643239
-0.0176482
0.196008
0.414282
-0.0516874
-0.0860385
-0.121791
8.27676
-0.0397018
-0.0542525
-0.0562573
-0.0435099
0.155563
0.302315
0.164874
-0.0747713
-0.094966
25.3659
-0.0344443
-0.0473628
-0.0525096
-0.0550791
0.0718323
0.15133
0.20995
-0.072812
-0.0849739
75.9646
-0.034019
-0.0456475
-0.0516059
-0.0555447
-0.00534119
0.309817
0.0191088
-0.0768127
4.51794
18.4051
-0.0436518
-0.0479908
-0.0528718
-0.0573175
-0.0158819
0.451002
-0.0794185
0.179995
0.55333
-0.126044
-0.0484965
-0.0512864
-0.0545588
-0.0584632
0.0375785
0.58018
-0.052923
-0.0519034
-0.106368
-0.0899015
-0.0518033
-0.0531928
-0.0548663
-0.0573606
0.0498162
0.723107
-0.00906027
-0.0891545
-0.0881128
-0.0660182
-0.0534908
-0.0540575
-0.054748
-0.0558123
-0.0119691
0.5802
0.146906
-0.096669
-0.0840594
-0.0429181
373.665
374.734
376.207
378.25
380.582
382.986
385.25
387.175
388.665
388.504
372.933
374.007
375.752
378.138
380.775
383.497
386.117
388.431
390.353
391.127
371.235
372.655
375.033
378.079
381.375
384.665
387.621
390.095
392.176
393.426
368.278
370.387
373.851
377.975
382.359
386.639
390.346
393.307
395.674
396.897
362.918
365.948
371.667
377.811
384.003
389.754
394.578
398.296
401.03
402.448
356.025
360.844
369.117
377.669
386.408
394.207
400.563
405.433
408.873
410.326
274.89
309.309
360.651
377.701
390.623
401.257
409.721
415.972
420.153
421.403
36.036
57.2249
136.684
258.671
368.169
412.354
423.268
430.897
435.621
436.064
0.613151
0.422407
0.610461
33.4987
156.594
323.941
425.74
450.614
456.607
454.746
0.258565
0.246221
0.551541
0.19669
0.269374
86.0408
295.191
468.138
484.589
467.267
0.158581
0.588673
0.575036
0.366302
0.23194
0.0111768
19.6522
344.104
522.222
487.746
0.0408897
0.0417742
0.363172
0.441575
0.257355
-0.0317069
-0.100011
39.6681
463.378
533.406
-0.0391445
-0.063182
-0.0581716
0.411233
0.45415
0.0394923
-0.0829931
-0.11624
82.393
574.881
-0.0428003
-0.0498942
-0.0546992
0.156706
0.516719
0.148737
-0.016255
-0.0379356
82.2455
620.984
-0.0321764
-0.0531518
-0.0514142
-0.0529914
0.566415
0.907044
0.15454
-0.012792
122.148
553.809
-0.0333152
-0.0501072
-0.0513474
-0.052908
0.219032
1.6704
0.644744
-0.0383546
9.65137
100.285
-0.0446068
-0.0491607
-0.0524337
-0.0561154
0.0574674
1.78389
1.78712
0.0860503
-0.132507
4.30309
-0.0481097
-0.0505664
-0.053963
-0.0583335
0.0227554
1.85642
1.90554
1.1613
-0.0621856
14.6215
-0.0511547
-0.0527525
-0.0549162
-0.0584267
-0.0470695
1.26543
2.02692
1.40078
-0.0819129
2.20804
-0.0532669
-0.054124
-0.0554051
-0.0575672
-0.0618748
0.772922
2.11131
0.320093
-0.0868976
-0.118235
373.871
374.868
376.439
378.579
381.003
383.519
385.799
387.781
387.903
385.749
373.097
374.172
375.979
378.487
381.207
384.118
386.863
389.097
389.486
376.287
371.381
372.814
375.219
378.481
381.909
385.392
388.492
390.979
393.532
365.06
368.371
370.584
374.309
378.538
383.078
387.574
391.319
394.404
396.838
354.536
363.131
366.305
372.269
378.616
384.976
390.969
395.714
399.672
402.202
349.953
356.395
361.53
370.116
378.885
387.855
396.058
402.138
407.076
410.061
359.758
279.319
315.547
366.56
379.931
392.932
403.544
411.842
417.817
420.597
359.144
36.3303
65.2365
156.023
285.391
389.396
415.433
425.941
433.056
431.696
309.213
0.748923
0.51261
1.12302
50.6326
194.058
366.447
445.624
453.764
437.646
268.187
0.300757
0.31625
0.211282
-0.0651564
0.223055
126.622
368.169
482.982
440.3
274.835
0.186672
0.499779
0.223774
-0.080331
-0.0684087
-0.0298772
70.9915
435.846
461.387
289.28
0.0579129
0.0562196
0.155135
-0.0439014
-0.103429
-0.104691
-0.103857
87.9017
518.559
310.503
-0.0323271
-0.0550915
-0.056848
0.0410159
-0.0896187
-0.0854954
-0.0817267
17.855
578.269
335.797
-0.0391841
-0.0391377
-0.0529684
-0.0407825
-0.0400485
-0.0488341
-0.0246642
26.8621
644.002
362.229
-0.0253536
-0.0372035
-0.0478268
-0.0520473
-0.0527782
-0.0425943
0.0622923
78.1958
488.306
615.068
-0.0338634
-0.0494109
-0.0499126
-0.0504288
-0.0531829
-0.0655793
6.64784
23.7045
33.3578
709.634
-0.0447605
-0.0488647
-0.0507937
-0.0535512
-0.0390658
0.13399
4.85383
5.10586
-0.0822131
718.808
-0.0474002
-0.0497114
-0.0526053
-0.0570652
-0.0414438
-0.0107729
0.991182
0.0365784
-0.107523
662.229
-0.0504355
-0.0520463
-0.054208
-0.0579038
-0.0514374
-0.0734625
-0.0447611
0.253085
-0.0999241
414.02
-0.0528923
-0.053834
-0.0553828
-0.0577663
-0.0577623
-0.0688382
-0.0595863
-0.0261407
5.45063
105.694
373.863
374.86
376.43
378.567
380.983
383.49
385.731
387.721
387.502
385.263
373.092
374.166
375.971
378.476
381.192
384.08
386.793
389.007
388.446
376.024
371.381
372.812
375.22
378.472
381.889
385.336
388.394
390.876
392.207
364.237
368.382
370.59
374.301
378.532
383.064
387.535
391.249
394.299
396.326
353.841
363.179
366.345
372.278
378.621
384.982
390.947
395.655
399.605
401.287
345.836
356.48
361.608
370.147
378.909
387.907
396.004
402.093
407.001
408.229
346.443
279.897
316.102
366.436
379.977
392.989
403.564
411.866
417.837
417.44
352.053
37.0438
67.0593
157.37
284.842
389.476
415.392
426.033
433.184
428.901
337.655
0.69699
0.334794
1.32389
52.5777
195.577
368.378
445.53
453.92
439.624
278.766
0.215621
0.118364
-0.0112755
-0.131027
0.20066
122.437
367.474
483.334
449.682
276.75
0.0884087
0.0756633
-0.0615495
-0.0978873
-0.0721038
-0.0161523
69.57
452.833
475.867
290.502
0.0402163
-0.00311067
-0.0564197
-0.0872866
-0.0957346
-0.0905269
-0.0337806
114.017
535.589
308.572
-0.0202778
-0.0466723
-0.0500887
-0.0647811
-0.0804954
-0.083322
-0.0834876
24.3523
593.983
394.303
-0.0340023
-0.0328795
-0.0342447
-0.0614379
-0.0713318
-0.057466
-0.066897
23.7863
642.467
629.09
-0.0214195
-0.0311931
-0.0330157
-0.0500369
-0.0521852
-0.058511
-0.0158159
55.6679
621.375
683.191
-0.032391
-0.0417305
-0.0489618
-0.0521859
-0.0568889
-0.0674951
-0.0927457
-0.238801
124.459
719.746
-0.0433193
-0.0473994
-0.0500565
-0.0538194
-0.0571268
-0.0705112
-0.0705866
-0.136001
72.3613
762.26
-0.0463214
-0.0484715
-0.0514636
-0.0549772
-0.0566794
-0.0623901
-0.062307
-0.0617129
96.0202
798.729
-0.0495254
-0.0509808
-0.0530736
-0.0556708
-0.0564951
-0.0587819
-0.0520821
-0.0210298
93.1443
811.051
-0.0522102
-0.0530918
-0.0545655
-0.056551
-0.0577409
-0.063017
-0.0501267
-0.0192337
58.7438
629.87
373.642
374.704
376.176
378.215
380.542
382.939
385.203
387.123
388.665
389.18
372.914
373.982
375.722
378.105
380.736
383.444
386.058
388.348
390.315
391.548
371.227
372.638
375.01
378.049
381.334
384.597
387.547
390.01
392.171
393.388
368.3
370.395
373.835
377.952
382.322
386.544
390.247
393.202
395.719
397.009
363.035
366.04
371.678
377.808
383.992
389.695
394.476
398.181
401.101
402.719
356.24
361.003
369.149
377.7
386.435
394.222
400.46
405.304
408.904
410.799
277.815
310.854
360.212
377.793
390.733
401.376
409.677
415.851
420.051
421.934
37.1701
59.7528
139.002
257.625
368.003
412.433
423.138
430.725
435.37
437.101
0.561966
0.231994
0.501776
37.3313
157.833
323.778
426.744
450.441
456.078
458.021
0.153127
0.0439215
-0.0259948
-0.145852
0.0647381
73.8891
282.499
465.354
484.959
485.516
0.0426419
-0.00597673
-0.0653191
-0.112658
-0.0519557
-0.0552477
8.26529
311.52
523.182
512.933
0.00658286
-0.0129853
-0.0576061
-0.084476
-0.0834195
-0.0776659
-0.049117
8.22578
414.691
557.127
-0.0179918
-0.0347326
-0.0458985
-0.0662962
-0.0716091
-0.076043
-0.08387
-0.081033
60.5017
581.801
-0.0305166
-0.0320193
-0.0331822
-0.0548181
-0.0614631
-0.0615203
-0.0338327
-0.0792719
67.2289
610.024
-0.02122
-0.034941
-0.0437362
-0.0509912
-0.0541317
-0.0453922
-0.0316238
-0.0322255
73.8668
520.243
-0.029316
-0.0447806
-0.04789
-0.0515178
-0.0571119
-0.0672791
-0.0775916
-0.112811
-0.194116
51.1354
-0.041346
-0.0450978
-0.04865
-0.0523212
-0.0567265
-0.0652601
-0.0756966
-0.0883634
-0.187801
28.683
-0.0450575
-0.0470134
-0.0500681
-0.0529368
-0.0559825
-0.0601653
-0.0656254
-0.0630463
-0.0893824
66.8111
-0.0485724
-0.0498015
-0.0516659
-0.0535842
-0.0554657
-0.0575442
-0.0604499
-0.0307482
-0.0703097
5.04071
-0.0512814
-0.0519778
-0.0531994
-0.0545875
-0.0561046
-0.0583963
-0.0614642
-0.0276535
-0.0827183
-0.0953187
373.399
374.35
375.714
377.584
379.73
381.948
384.027
385.828
387.004
387.595
372.624
373.666
375.277
377.443
379.855
382.355
384.737
386.839
388.365
389.311
370.998
372.223
374.45
377.271
380.303
383.331
386.116
388.385
390.066
391.015
368.229
370.257
373.265
376.988
381.019
384.964
388.509
391.312
393.395
394.46
363.022
365.704
370.824
376.514
382.281
387.644
392.255
395.791
398.436
399.625
356.461
360.652
367.863
375.795
383.94
391.338
397.477
402.151
405.503
407.128
277.92
302.947
350.274
374.576
387.14
397.529
405.712
411.85
415.972
418.152
39.0768
52.9408
119.697
223.459
337.182
407.409
418.041
425.827
430.936
433.64
0.391427
0.172762
0.140822
19.8462
102.442
246.229
381.337
444.801
450.877
454.286
0.122077
0.0128961
-0.0504498
-0.101374
-0.0485253
24.9995
166.978
350.58
466.906
483.567
0.0212324
-0.0322017
-0.0919955
-0.116556
-0.0617181
-0.0489145
-0.0392046
48.0504
319.709
409.223
-0.00936303
-0.0430296
-0.062905
-0.082403
-0.0767515
-0.0813064
-0.0659239
-0.080081
9.79108
41.2716
-0.0220425
-0.0336906
-0.0481013
-0.0650685
-0.0660576
-0.0660538
-0.0679427
-0.0777952
-0.0718519
5.72072
-0.0271828
-0.0307971
-0.0451136
-0.0542461
-0.0567363
-0.0571294
-0.0595426
-0.0658054
-0.0561198
14.6282
-0.0250252
-0.0383677
-0.0446821
-0.0491242
-0.0508408
-0.0494892
-0.0435065
-0.0453751
0.00586113
47.5176
-0.0294803
-0.0396158
-0.0454096
-0.0490616
-0.051536
-0.0545044
-0.0596035
-0.0741084
-0.0696863
-0.152056
-0.0392178
-0.0425954
-0.0470309
-0.0502337
-0.0527014
-0.0560985
-0.060798
-0.0704469
-0.0922865
-0.167397
-0.0443012
-0.0463194
-0.0491638
-0.0514325
-0.0532843
-0.0554532
-0.0585308
-0.0599255
-0.0880765
4.49505
-0.0479363
-0.0489628
-0.050632
-0.0522894
-0.0538398
-0.0549889
-0.0561882
-0.0507902
-0.0743412
4.92542
-0.0504025
-0.0509316
-0.0520293
-0.0533509
-0.0548507
-0.056167
-0.0576942
-0.0571331
-0.0745969
-0.0740537
373.145
373.966
375.154
376.771
378.643
380.577
382.409
383.983
385.105
385.741
372.417
373.341
374.735
376.591
378.675
380.839
382.897
384.678
385.952
386.822
370.892
372.047
373.901
376.297
378.924
381.554
383.996
386.053
387.477
388.411
368.266
369.806
372.482
375.766
379.256
382.704
385.841
388.415
390.211
391.203
363.586
365.484
369.897
374.943
379.983
384.688
388.795
392.103
394.389
395.464
358.611
362.311
367.331
373.676
380.615
387.19
392.826
397.257
400.28
401.815
287.457
301.815
342.45
371.517
382.445
391.834
399.434
405.394
409.427
411.627
43.8044
53.2027
110.955
192.543
304.859
385.191
409.93
417.666
422.951
425.671
0.241681
0.125489
0.115638
4.52185
41.1586
132.068
271.937
375.138
423.594
442.153
0.0886828
0.017776
-0.00655036
-0.0587624
-0.0829751
0.734692
52.433
165.718
287.105
350.602
0.0113154
-0.0306601
-0.0830493
-0.110506
-0.0715444
-0.0406072
-0.0806472
-0.0480101
10.031
46.1437
-0.0120975
-0.0433965
-0.0691139
-0.0803054
-0.0681899
-0.0695622
-0.0785793
-0.0727707
-0.0721095
-0.0607608
-0.0193013
-0.0344996
-0.0502943
-0.061694
-0.0596573
-0.060098
-0.0625198
-0.0709211
-0.0762958
-0.0846764
-0.0218751
-0.0262292
-0.0419825
-0.050348
-0.0527035
-0.0540968
-0.0556002
-0.0618174
-0.047985
0.0371032
-0.0199705
-0.0270663
-0.0396221
-0.0466087
-0.0494321
-0.0501646
-0.0477731
-0.0424814
-0.0272968
-0.02798
-0.0300069
-0.0359258
-0.0430791
-0.0479241
-0.0504976
-0.0524187
-0.0539385
-0.0563585
-0.0541289
-0.0671844
-0.0395577
-0.042647
-0.0471632
-0.0501004
-0.0518963
-0.053475
-0.0551972
-0.0571051
-0.0575036
-0.0299456
-0.0454946
-0.0471611
-0.0495918
-0.0513964
-0.0526268
-0.0535435
-0.0545326
-0.0543938
-0.0522918
0.0365477
-0.0480495
-0.0488026
-0.0502632
-0.0517006
-0.0528888
-0.0535785
-0.0540311
-0.0526872
-0.0434332
0.357093
-0.0496518
-0.0498879
-0.0508732
-0.052182
-0.0534866
-0.0543603
-0.0551278
-0.0553203
-0.0593898
-0.0570484
372.932
373.615
374.579
375.883
377.397
378.989
380.516
381.834
382.774
383.328
372.274
373.055
374.176
375.664
377.358
379.111
380.774
382.229
383.266
383.913
370.878
371.857
373.325
375.222
377.336
379.484
381.48
383.191
384.414
385.125
368.428
369.735
371.86
374.467
377.261
380.03
382.613
384.785
386.346
387.232
364.288
366.192
369.49
373.323
377.314
381.162
384.541
387.359
389.372
390.49
359.551
361.907
366.224
371.405
376.835
382.197
386.997
390.949
393.769
395.361
303.29
311.553
342.733
366.192
377.507
385.052
391.495
396.963
400.889
402.973
54.5723
61.8776
111.471
167.643
264.751
339.842
381.68
405.636
411.88
414.642
0.114421
0.0616971
0.0367855
0.0272089
2.655
41.4049
124.896
233.472
318.497
361.253
0.042779
0.00779916
-0.0171883
-0.0270201
-0.00625889
-0.125969
0.482781
24.2857
72.6735
107.785
0.000294794
-0.0314604
-0.0677073
-0.0848954
-0.06197
-0.064264
-0.0492417
-0.0666406
-0.0758629
-0.0513913
-0.0137911
-0.0423192
-0.0655288
-0.0705453
-0.0540676
-0.05675
-0.0710461
-0.0815611
-0.0806625
-0.0683785
-0.0183662
-0.0325583
-0.0504547
-0.0566194
-0.0476867
-0.0487426
-0.0581342
-0.062757
-0.0699934
-0.0605767
-0.00802194
-0.0194578
-0.0397546
-0.0477197
-0.048833
-0.0503473
-0.0518148
-0.05348
-0.0549334
-0.0278482
-0.0204533
-0.0252964
-0.0388193
-0.0456785
-0.0478232
-0.0487033
-0.0479641
-0.0446076
-0.0309945
-0.0240293
-0.0346546
-0.0382623
-0.0448324
-0.0487782
-0.0500168
-0.0503345
-0.0504504
-0.050684
-0.0513643
-0.0583238
-0.0441297
-0.0481004
-0.0516529
-0.0525731
-0.0522862
-0.0517937
-0.0517757
-0.0521546
-0.0544302
-0.0631174
-0.0490812
-0.0522346
-0.0540484
-0.0538196
-0.0530695
-0.0523555
-0.0520454
-0.0516024
-0.0539197
-0.0567981
-0.0496794
-0.0510258
-0.0519165
-0.052263
-0.0525015
-0.0523923
-0.0521653
-0.051229
-0.052132
-0.0514699
-0.0492143
-0.0490689
-0.0498642
-0.0511221
-0.0522545
-0.0528439
-0.0531435
-0.0532102
-0.0544157
-0.0557237
372.816
373.344
374.053
375.011
376.138
377.341
378.519
379.563
380.329
380.755
372.25
372.852
373.664
374.741
375.988
377.3
378.56
379.675
380.497
380.937
371.027
371.786
372.824
374.163
375.686
377.268
378.78
380.093
381.06
381.605
368.913
369.933
371.39
373.199
375.182
377.184
379.083
380.752
381.987
382.71
365.496
366.943
369.094
371.653
374.443
377.208
379.729
381.876
383.514
384.494
360.543
362.068
365.295
369.104
372.951
376.712
380.316
383.438
385.886
387.37
322.124
321.591
341.113
359.108
370.877
377.474
382.038
386.39
390.26
392.236
75.2352
70.8897
103.134
140.159
197.872
266.844
303.112
328.765
359.178
383.34
0.0525414
0.032601
0.0319863
0.0391256
0.057745
2.19157
35.649
96.1618
153.817
187.668
0.0136046
-0.00589091
-0.0271928
-0.0176885
0.0133196
-0.00149085
-0.0923682
-0.064498
0.0520169
0.165719
-0.00131282
-0.0320781
-0.0591074
-0.0608943
-0.0379696
-0.0546466
-0.0663042
-0.0587017
-0.0476932
-0.045649
0.044458
-0.0401593
-0.0514931
-0.0530949
-0.0304244
-0.045785
-0.059405
-0.0676451
-0.068598
-0.0698965
0.101428
-0.00599108
-0.0321044
-0.0478503
-0.0334456
-0.0400315
-0.052657
-0.0570563
-0.0586679
-0.0561512
0.0118179
-0.0164359
-0.041389