/*--------------------------------*- C++ -*----------------------------------*\
| =========                 |                                                 |
| \\      /  F ield         | OpenFOAM: The Open Source CFD Toolbox           |
|  \\    /   O peration     | Version:  2312                                  |
|   \\  /    A nd           | Website:  www.openfoam.com                      |
|    \\/     M anipulation  |                                                 |
\*---------------------------------------------------------------------------*/
FoamFile
{
    version     2.0;
    format      ascii;
    arch        "LSB;label=32;scalar=64";
    class       volScalarField;
    location    "1.32";
    object      p_rgh;
}
// * * * * * * * * * * * * * * * * * * * * * * * * * * * * * * * * * * * * * //

dimensions      [1 -1 -2 0 0 0 0];

internalField   nonuniform List<scalar> 
8000
(
401.162
400.928
400.438
399.713
398.941
398.137
397.449
396.942
396.669
396.671
401.701
401.387
400.662
399.903
399.173
398.371
397.65
397.107
396.818
396.823
402.8
402.494
401.635
400.662
399.732
398.869
398.09
397.483
397.142
397.082
404.145
403.815
402.968
402.02
400.932
399.852
398.873
398.072
397.562
397.43
405.638
405.465
404.796
403.829
402.59
401.243
399.939
398.853
398.09
397.838
407.2
407.186
406.802
405.903
404.545
402.943
401.302
399.839
398.799
398.43
408.813
408.768
408.853
408.331
406.96
405.072
403.038
401.137
399.805
399.291
411.571
412.322
413.609
413.493
410.897
405.812
399.324
391.91
385.575
383.454
233.216
240.858
257.938
256.489
233.29
200.508
170.036
148.699
137.486
133.8
0.147866
0.148156
0.146586
1.55076
1.14986
0.047079
0.0485449
0.0595805
0.0644121
0.0710747
0.14987
0.132357
0.10122
0.0750426
0.0574894
0.0539808
0.0523806
0.0514857
0.0578564
0.0691095
0.187382
0.211109
0.167292
0.086492
0.0749353
0.0730563
0.0657457
0.0603786
0.0634605
0.0716549
0.241963
0.34537
0.193505
0.0947995
0.113644
0.113636
0.0661614
0.0626362
0.0639909
0.069187
0.202815
0.365491
0.237288
0.0966076
0.146235
0.157062
0.0580854
0.0577866
0.0598366
0.0656726
0.186554
0.466186
0.226825
0.0811307
0.0948001
0.0879808
0.0578338
0.0559137
0.0611343
0.0724958
0.241821
0.489407
0.298709
0.0783026
0.0755353
0.0708254
0.0646281
0.0583046
0.0743343
0.18694
0.511522
0.50416
0.420955
0.108407
0.125103
0.0674175
0.0606955
0.0547294
0.148624
0.202042
0.522844
0.51519
0.35873
0.105702
0.173216
0.0962474
0.0500709
0.0437589
0.0406253
0.0767546
0.536251
0.349527
0.181852
0.166945
0.170345
0.154376
0.0415394
0.0352281
0.0316735
0.0351517
0.546978
0.0514359
0.0946422
0.165385
0.16503
0.162645
0.132149
0.0293498
0.0254241
0.0298244
400.797
400.553
400.026
399.284
398.501
397.733
397.032
396.504
396.214
396.212
401.311
400.969
400.274
399.451
398.654
397.911
397.183
396.614
396.296
396.293
402.378
401.908
400.935
399.968
399.123
398.316
397.534
396.891
396.515
396.453
403.493
403.025
402.133
401.205
400.218
399.199
398.217
397.373
396.747
396.523
404.481
404.244
403.795
402.979
401.827
400.505
399.155
397.956
397.033
396.669
405.887
405.816
405.548
404.77
403.476
401.899
400.221
398.677
397.523
397.102
408.147
407.775
407.728
407.197
405.778
403.811
401.704
399.808
398.51
398.009
410.682
411.392
412.751
412.07
408.591
403.64
398.561
394.187
391.432
390.917
219.691
231.994
244.054
238.728
217.477
191.861
164.655
141.723
128.902
123.283
0.154732
0.152766
0.14812
1.28852
2.09995
0.0401473
0.0460844
0.0594143
0.0592212
0.0639499
0.158338
0.133895
0.0973157
0.0679253
0.048595
0.0453211
0.0450439
0.0454539
0.0514532
0.0618736
0.256309
0.202963
0.127671
0.107627
0.0973497
0.0687822
0.0648574
0.0583791
0.0525641
0.0590124
0.322974
0.294082
0.137299
0.177727
0.172389
0.131231
0.0601903
0.0532866
0.0534809
0.0566976
0.315084
0.239288
0.11352
0.154382
0.171219
0.158927
0.0917225
0.0495869
0.0548837
0.0612213
0.252834
0.27335
0.104965
0.0928334
0.175075
0.158174
0.102306
0.0511355
0.0612597
0.0802693
0.152201
0.318609
0.125104
0.0799337
0.0789046
0.0878222
0.0603177
0.056036
0.0878024
0.199161
0.16125
0.460011
0.200431
0.0945734
0.078085
0.0643158
0.0668901
0.178761
0.189501
0.187515
0.520152
0.522463
0.207692
0.150517
0.100282
0.054815
0.0457175
0.0543545
0.0683175
0.0659688
0.540492
0.536846
0.168886
0.168532
0.123718
0.0447952
0.0362815
0.0258558
0.018768
0.0246369
0.550984
0.251315
0.104037
0.155764
0.162892
0.0972157
0.0314392
0.0207722
0.0195919
0.0365683
400.121
399.966
399.773
399.121
398.049
397.056
396.255
395.663
395.334
395.321
400.426
400.181
399.743
398.914
397.991
397.108
396.299
395.656
395.284
395.253
401.305
400.756
400.08
399.008
398.059
397.234
396.414
395.687
395.221
395.147
402.31
401.689
400.983
399.895
398.779
397.746
396.718
395.791
395.113
394.88
403.484
402.996
402.399
401.36
400.067
398.684
397.242
395.906
394.956
394.581
405.232
404.701
403.937
402.819
401.354
399.659
397.848
396.214
395.024
394.557
407.659
406.903
406.365
405.348
403.569
401.323
398.893
396.783
395.312
394.644
409.419
410.069
410.885
409.188
405.959
402.956
399.396
396.455
393.932
391.74
209.341
219.074
229.269
221.018
200.503
173.752
137.362
108.855
91.5104
82.0293
0.151685
0.145921
0.142308
1.71885
1.18992
0.0276342
0.0662271
0.0692571
0.0680602
0.0785365
0.15296
0.126062
0.090942
0.0659962
0.0455232
0.0389348
0.0518783
0.0652229
0.0593665
0.0624153
0.254679
0.178998
0.0968865
0.0826599
0.0696326
0.079072
0.0884989
0.0859253
0.0647732
0.0728563
0.331416
0.224735
0.110219
0.137075
0.104634
0.0751158
0.0688829
0.0609295
0.0569194
0.12061
0.329708
0.185344
0.125702
0.187792
0.17424
0.079033
0.0493672
0.049614
0.0625552
0.158086
0.311891
0.138919
0.1192
0.186654
0.171553
0.14824
0.048715
0.0524276
0.0636577
0.158411
0.153218
0.140036
0.112974
0.12176
0.175801
0.0840216
0.0478194
0.0496966
0.0619083
0.108736
0.102017
0.137381
0.122131
0.0907467
0.0681763
0.054437
0.0591547
0.123185
0.125097
0.0458276
0.422197
0.165327
0.151899
0.15148
0.0596503
0.0470003
0.0372722
0.0429313
0.0532052
0.0980147
0.546076
0.326574
0.125494
0.111925
0.049036
0.0378998
0.0250229
0.0105613
0.0596117
0.15089
0.552428
0.300496
0.0599475
0.0712298
0.0853482
0.036084
0.0221227
0.00929752
0.048322
0.137889
399.253
399.04
399.107
398.394
397.166
396.04
395.146
394.485
394.117
394.101
399.421
399.174
398.924
398.252
397.131
396.01
395.057
394.328
393.905
393.861
400.009
399.536
399
398.072
396.979
395.913
394.909
394.048
393.5
393.393
401.041
400.381
399.646
398.52
397.229
395.966
394.732
393.629
392.869
392.626
402.384
401.723
400.771
399.527
397.967
396.301
394.6
393.076
391.983
391.548
404.076
403.185
401.976
400.493
398.715
396.655
394.465
392.494
390.974
390.267
406.431
405.505
404.431
402.788
400.451
397.515
394.414
391.597
389.505
388.524
407.496
407.676
407.798
406.159
404.089
400.558
389.589
370.113
350.163
337.729
200.219
203.338
210.439
197.864
171.154
127.827
81.8398
52.6954
37.6946
30.666
0.139167
0.130052
0.125308
0.121919
0.0099394
0.0444181
0.0776435
0.0599841
0.0476897
0.0567359
0.137187
0.112467
0.0886527
0.0705932
0.0474758
0.0438177
0.0593642
0.074166
0.0792516
0.0913343
0.198653
0.125713
0.0935653
0.0760295
0.0799431
0.0930943
0.0884748
0.0853711
0.0922277
0.0997507
0.314373
0.175348
0.105286
0.0931984
0.0761484
0.0664739
0.0529139
0.0473936
0.0698629
0.0910479
0.324802
0.216628
0.106037
0.107876
0.0910135
0.0522271
0.0481904
0.0496711
0.0528254
0.0690527
0.316207
0.211687
0.115844
0.181426
0.171175
0.11095
0.0488891
0.0483136
0.0480165
0.079816
0.153932
0.0992085
0.126089
0.185526
0.172946
0.094348
0.0415093
0.0400085
0.0445599
0.103702
0.101057
0.0889086
0.0864563
0.0824219
0.0651654
0.0511642
0.0346878
0.0271348
0.0630125
0.172655
0.415822
0.172677
0.0910916
0.108205
0.0510675
0.0358734
0.0225128
0.0158165
0.111754
0.182965
0.543967
0.356296
0.0636537
0.052488
0.0398041
0.0283369
0.0162658
0.00602295
0.0280835
0.18652
0.548604
0.284401
0.0420533
0.0333103
0.0280636
0.021787
0.0151898
0.0063751
0.00175863
0.0421668
398.235
397.97
397.763
396.985
395.854
394.744
393.798
393.089
392.698
392.686
398.39
398.065
397.694
396.993
395.815
394.603
393.558
392.763
392.304
392.259
398.785
398.338
397.647
396.838
395.643
394.328
393.107
392.121
391.504
391.371
399.678
399.083
398.075
396.93
395.522
393.952
392.407
391.095
390.212
389.926
400.837
400.102
398.911
397.412
395.575
393.523
391.427
389.601
388.295
387.768
402.253
401.09
399.59
397.749
395.485
392.765
389.95
387.423
385.548
384.709
404.556
403.404
401.808
399.548
396.389
392.293
388.327
384.644
381.909
380.581
401.837
403.439
404.15
403.736
393.604
365.988
329.019
293.783
267.395
251.442
190.014
186.804
185.952
166.232
127.231
76.4766
37.7193
20.2897
10.0284
6.66497
0.1237
0.114912
0.105654
0.0695519
0.00165804
0.0398581
0.0339232
-0.00150353
-0.00179067
0.0310231
0.123584
0.106279
0.0905103
0.0682651
0.0407603
0.0297595
0.0231944
0.0255688
0.0631929
0.0986734
0.144136
0.107788
0.093406
0.0790365
0.075029
0.0756324
0.0471623
0.0428671
0.0561781
0.0690844
0.257019
0.129822
0.0995392
0.085648
0.0880664
0.0797327
0.0476358
0.0511366
0.0562293
0.0604463
0.299745
0.201618
0.10081
0.088171
0.0725818
0.0621724
0.0517119
0.0520055
0.0680594
0.0865369
0.289936
0.260537
0.221663
0.097615
0.0876735
0.0610802
0.0478033
0.0460601
0.0778597
0.15967
0.134027
0.1143
0.153613
0.181794
0.142658
0.0420135
0.035832
0.0344625
0.0748637
0.1856
0.103197
0.0897124
0.0906026
0.0819844
0.0775319
0.0397652
0.0261327
0.0220466
0.0738123
0.182418
0.464092
0.327452
0.0713232
0.0599077
0.0433691
0.0310242
0.0190819
0.0143132
0.0797097
0.185072
0.537578
0.52985
0.0591714
0.0457307
0.0344356
0.0244193
0.0164142
0.0113377
0.0229485
0.18996
0.381848
0.332309
0.0429831
0.0309892
0.0243196
0.0180995
0.0131139
0.0104436
0.0102097
0.0492587
397.14
396.843
396.363
395.525
394.462
393.362
392.382
391.643
391.238
391.236
397.285
396.936
396.363
395.468
394.297
393.078
391.986
391.143
390.658
390.62
397.625
397.149
396.325
395.303
393.977
392.536
391.189
390.106
389.426
389.28
398.276
397.687
396.515
395.1
393.489
391.672
389.901
388.416
387.414
387.088
399.08
398.232
396.862
395.104
392.923
390.472
388.014
385.871
384.335
383.722
400.067
398.702
396.995
394.749
391.848
388.555
385.133
382.061
379.812
378.883
402.16
400.779
398.752
395.837
391.731
386.823
381.712
377.075
373.59
372.074
388.283
392.116
397.614
386.291
354.015
309.084
261.28
220.496
189.345
173.609
175.484
167.743
159.127
131.159
85.5107
44.5806
21.8107
8.15844
1.59054
0.809192
0.111896
0.104155
0.0881536
0.18041
0.0149744
0.0262029
0.0184065
-0.0187459
0.0227515
0.0540763
0.115143
0.104024
0.0859597
0.0555282
0.0258506
0.0136596
0.00681378
0.0188116
0.0439649
0.0663544
0.138499
0.115331
0.0956803
0.085889
0.0736264
0.0366674
0.0334204
0.0423225
0.0540768
0.0639668
0.16586
0.113935
0.101324
0.0942549
0.0878816
0.0609106
0.0453827
0.0495994
0.0554345
0.0611142
0.155476
0.151915
0.0984392
0.0851218
0.0917712
0.0655635
0.048223
0.05007
0.0582449
0.0800107
0.155795
0.248562
0.240766
0.104701
0.0577616
0.0453207
0.0407651
0.0437785
0.0631942
0.174581
0.130463
0.143985
0.200948
0.161798
0.0516114
0.0348131
0.0295291
0.0353945
0.0489641
0.190702
0.149714
0.0867684
0.093585
0.0780963
0.0632289
0.0302518
0.0228162
0.0225515
0.0913223
0.190158
0.524193
0.441789
0.247234
0.0552709
0.0412699
0.0272442
0.0202292
0.0181612
0.151165
0.190259
0.532205
0.530074
0.230767
0.0438133
0.0340527
0.0302355
0.0192815
0.0159044
0.13888
0.194472
0.133949
0.326059
0.128668
0.0341265
0.0311411
0.0710488
0.0143144
0.0121532
0.0330083
0.198841
396.132
395.803
395.2
394.301
393.214
392.091
391.081
390.316
389.9
389.906
396.223
395.848
395.151
394.14
392.932
391.68
390.541
389.657
389.151
389.121
396.49
395.995
395.065
393.837
392.384
390.845
389.406
388.241
387.511
387.365
396.875
396.241
394.979
393.369
391.502
389.488
387.544
385.904
384.798
384.453
397.291
396.306
394.79
392.755
390.296
387.549
384.771
382.303
380.539
379.832
397.848
396.372
394.496
391.807
388.511
384.695
380.725
377.137
374.524
373.418
399.629
398.004
395.536
391.946
387.3
381.693
375.622
369.807
364.356
356.775
373.572
377.51
381.254
356.389
313.455
263.188
208.397
157.239
118.627
107.178
158.878
147.834
128.468
92.0267
54.7528
28.4104
10.996
1.16167
0.439488
0.379032
0.1022
0.0921038
0.0651833
0.0323662
0.0293208
0.00621666
-0.00660459
0.0482011
0.0996571
0.109937
0.109012
0.0946012
0.0718916
0.0446245
0.0257045
0.00804201
0.0124424
0.0383273
0.0677479
0.0883964
0.151508
0.156885
0.09247
0.0692384
0.0525913
0.033177
0.0384043
0.0526707
0.0661114
0.077243
0.131439
0.120052
0.101934
0.0890077
0.0856589
0.0488811
0.0481643
0.0531568
0.0594504
0.0651092
0.190033
0.10583
0.0967031
0.0974794
0.0927105
0.0627629
0.0481793
0.0504499
0.0537894
0.0569782
0.125455
0.147211
0.144573
0.128419
0.0793528
0.0436181
0.0389057
0.0420947
0.0459694
0.0565807
0.125304
0.113044
0.135042
0.120868
0.0473337
0.0319572
0.0265424
0.0313819
0.0438469
0.126984
0.392559
0.0826578
0.0785172
0.0692871
0.0439582
0.028345
0.0212184
0.0247524
0.108524
0.195638
0.508531
0.268691
0.417835
0.0691028
0.040372
0.029076
0.022894
0.0254211
0.175733
0.199627
0.216052
0.505198
0.483236
0.243089
0.0417428
0.0286818
0.023702
0.099061
0.184198
0.191528
0.114143
0.180051
0.350524
0.309561
0.154888
0.0370895
0.0510491
0.171049
0.184536
0.170673
395.316
394.962
394.29
393.338
392.22
391.074
390.041
389.257
388.839
388.851
395.329
394.923
394.17
393.101
391.849
390.559
389.383
388.469
387.956
387.933
395.491
394.984
393.967
392.64
391.096
389.473
387.956
386.731
385.976
385.848
395.624
394.918
393.593
391.881
389.866
387.694
385.598
383.833
382.662
382.335
395.681
394.592
392.976
390.785
388.12
385.1
382.009
379.238
377.287
376.567
395.907
394.376
392.349
389.357
385.701
381.464
377.056
372.931
369.855
368.606
397.309
395.343
392.491
388.454
383.295
377.114
370.055
358.404
340.081
329.935
361.657
361.444
359.06
325.123
280.455
223.482
159.339
101.809
77.076
71.2641
141.823
125.365
94.4442
59.7111
35.0476
15.9651
2.10886
0.709863
0.588866
0.51117
0.090047
0.072845
0.0660946
0.0633297
0.0450146
0.00538364
0.0756547
0.15341
0.17092
0.168723
0.101602
0.0844689
0.0652846
0.0494881
0.0396924
0.0190717
0.0396191
0.0704586
0.0941099
0.114297
0.153435
0.222995
0.0897418
0.0690493
0.0478901
0.0402894
0.0507341
0.0636335
0.075317
0.0949303
0.135693
0.272241
0.109509
0.0890714
0.062199
0.0528242
0.0535019
0.0564131
0.0597887
0.0665583
0.350932
0.117474
0.103452
0.121645
0.08475
0.0522725
0.051566
0.0523323
0.0545281
0.0557875
0.391426
0.0873115
0.0870346
0.12314
0.0877611
0.0420618
0.0421261
0.0456279
0.0492129
0.0510494
0.327692
0.0798147
0.075178
0.0716934
0.0496795
0.0321326
0.0305568
0.0370682
0.0461443
0.0473018
0.4556
0.0765357
0.0656306
0.0570959
0.0440671
0.0317852
0.0622865
0.0980718
0.0735144
0.0434712
0.364478
0.124933
0.240741
0.146965
0.0433585
0.0360915
0.106938
0.191565
0.115069
0.0398652
0.127359
0.118027
0.36736
0.362965
0.168192
0.0830911
0.173686
0.197536
0.135015
0.0402381
0.146704
0.0859833
0.208404
0.293778
0.200159
0.101445
0.145945
0.143843
0.075684
0.0443898
394.747
394.387
393.68
392.7
391.566
390.408
389.362
388.572
388.162
388.205
394.724
394.311
393.511
392.409
391.131
389.819
388.62
387.694
387.195
387.205
394.757
394.246
393.197
391.822
390.225
388.546
386.975
385.719
384.987
384.866
394.689
393.929
392.583
390.834
388.734
386.455
384.249
382.405
381.237
380.902
394.468
393.34
391.654
389.394
386.578
383.348
380.006
377.04
375.034
374.264
394.451
392.845
390.605
387.468
383.573
379.064
374.317
369.757
366.453
365.19
395.456
393.04
389.766
385.442
380.05
373.449
365.437
340.297
319.16
309.339
352.577
344.293
333.966
298.165
252.33
190.834
116.623
76.384
59.9144
56.072
123.23
101.521
68.4825
40.3426
22.3867
6.51798
0.849294
0.81648
0.655857
0.602175
0.0891818
0.089166
0.0970095
0.0894728
0.033976
0.0798828
0.166213
0.217861
0.202571
0.196631
0.0982499
0.0862782
0.0805299
0.0684657
0.0393118
0.0414908
0.0682809
0.0948309
0.110745
0.12754
0.143253
0.188728
0.0933575
0.0732439
0.055101
0.0521718
0.0596156
0.0679258
0.0776166
0.0966159
0.134887
0.278309
0.132502
0.0959167
0.0684435
0.0590983
0.057126
0.0555132
0.0545411
0.0618599
0.188846
0.277908
0.128255
0.115601
0.0738044
0.0565843
0.0554211
0.0524797
0.0500718
0.0498035
0.41993
0.119987
0.0867058
0.0855323
0.0628681
0.0450128
0.0492022
0.0497467
0.0505982
0.0483399
0.429929
0.0691031
0.0673277
0.0570264
0.0454095
0.0389108
0.0470768
0.0446167
0.0479184
0.0475217
0.444652
0.0915163
0.0600833
0.0534897
0.0450264
0.117128
0.192946
0.0750861
0.0446833
0.0446645
0.138329
0.0878044
0.112277
0.20965
0.129359
0.19896
0.226327
0.184787
0.0508774
0.0423752
0.139039
0.0669852
0.103325
0.220664
0.238773
0.24431
0.24286
0.197573
0.060493
0.090659
0.116463
0.0521527
0.0589225
0.0838308
0.246563
0.262344
0.254869
0.120687
0.0854378
0.166953
394.506
394.143
393.424
392.437
391.303
390.148
389.105
388.313
387.926
387.896
394.471
394.05
393.226
392.113
390.833
389.523
388.325
387.399
386.926
386.68
394.388
393.888
392.839
391.451
389.839
388.146
386.566
385.319
384.615
384.017
394.188
393.4
392.057
390.309
388.191
385.886
383.647
381.8
380.642
379.602
393.81
392.69
390.957
388.656
385.782
382.489
379.058
376.044
374.011
372.814
393.611
391.993
389.653
386.414
382.401
377.832
372.894
368.14
364.629
363.498
394.252
391.546
388.02
383.426
378.054
371.405
357.844
327.542
299.978
292.234
344.78
331.239
314.208
277.101
232.421
170.464
101.923
67.5289
50.0079
46.5535
107.319
84.3422
54.1779
31.4018
15.5671
2.66447
0.993095
0.886426
0.790593
0.761585
0.105697
0.108818
0.114327
0.0929984
0.0136963
0.148435
0.250759
0.270717
0.24758
0.227591
0.100354
0.0903181
0.0911394
0.117185
0.0556815
0.0608237
0.0892115
0.113733
0.125909
0.13234
0.118851
0.107678
0.10512
0.111993
0.0673152
0.060816
0.0632202
0.0687589
0.0782911
0.0926629
0.126869
0.281078
0.126115
0.0989828
0.0785625
0.0627945
0.0572361
0.052725
0.049176
0.0563111
0.112592
0.286398
0.158047
0.100515
0.0746662
0.060102
0.055239
0.0499618
0.0450288
0.0432329
0.420267
0.281248
0.103498
0.0681033
0.052429
0.0493715
0.0510147
0.0497156
0.0485304
0.0441082
0.425278
0.143822
0.060897
0.0553498
0.0436307
0.073664
0.0475186
0.0487331
0.0508672
0.0467366
0.296886
0.111876
0.0998347
0.0902256
0.0948095
0.213689
0.127316
0.0485512
0.0491649
0.049763
0.141254
0.0744393
0.132106
0.222034
0.226611
0.226965
0.225023
0.0695731
0.0833691
0.145624
0.134344
0.0698009
0.0583335
0.120109
0.24307
0.2491
0.215638
0.0856808
0.188169
0.214616
0.0316694
0.0453922
0.0645324
0.147753
0.275628
0.190175
0.176845
0.212493
0.219525
0.219333
394.636
394.275
393.562
392.58
391.454
390.311
389.279
388.498
388.111
388.095
394.601
394.205
393.372
392.254
390.984
389.692
388.512
387.601
387.128
386.967
394.488
393.997
392.976
391.587
389.987
388.32
386.773
385.557
384.868
384.652
394.246
393.474
392.136
390.394
388.318
386.072
383.897
382.101
380.972
380.467
393.83
392.761
390.993
388.652
385.841
382.664
379.352
376.408
374.429
373.536
393.539
391.967
389.568
386.223
382.353
377.994
373.201
368.509
365.068
364.011
393.986
391.28
387.474
382.791
377.679
371.494
357.748
325.216
297.292
289.836
342.362
328.224
305.111
266.753
226.624
170.686
108.005
74.9432
56.1793
50.9521
100.575
77.2733
49.4291
30.7284
14.508
2.61465
1.25062
1.07028
1.0265
1.04217
0.108299
0.116385
0.131784
0.097572
0.12863
0.223054
0.345297
0.346406
0.319137
0.288498
0.089892
0.0840397
0.0980189
0.110251
0.0816519
0.0744191
0.104522
0.129115
0.141054
0.141994
0.106938
0.100876
0.0963748
0.0893408
0.0742869
0.0615806
0.063637
0.0703475
0.0820469
0.0957124
0.11536
0.158272
0.112697
0.0965416
0.077589
0.0580502
0.0531103
0.0509486
0.0503986
0.0558785
0.0998224
0.280036
0.144492
0.0874172
0.0726586
0.0557422
0.0499032
0.0465824
0.0441892
0.0394928
0.132773
0.282104
0.146495
0.0682587
0.0570987
0.0605019
0.0477525
0.046338
0.046726
0.0431762
0.293876
0.27111
0.0994052
0.0575633
0.0943078
0.121228
0.0547006
0.0489759
0.0540268
0.0505196
0.140206
0.0990486
0.196641
0.207562
0.21206
0.208762
0.0842709
0.0527607
0.0681752
0.099386
0.136033
0.0611796
0.114157
0.22244
0.218531
0.222073
0.0886613
0.112971
0.208046
0.209614
0.085925
0.0432528
0.0526963
0.221185
0.243607
0.182122
0.111587
0.224515
0.212347
0.205317
0.0320015
0.06021
0.119256
0.178161
0.14892
0.0927864
0.23706
0.21872
0.209525
0.205028
395.13
394.777
394.079
393.115
392.006
390.88
389.869
389.107
388.717
388.768
395.126
394.729
393.913
392.821
391.574
390.307
389.158
388.274
387.803
387.835
395.085
394.619
393.593
392.219
390.66
389.051
387.565
386.385
385.705
385.668
394.928
394.199
392.862
391.151
389.138
387.007
384.97
383.269
382.183
381.952
394.57
393.515
391.818
389.555
386.86
383.896
380.869
378.144
376.314
375.789
394.347
392.826
390.49
387.271
383.596
379.629
375.312
371.021
367.972
367.061
394.829
392.377
388.693
383.961
379.1
373.78
364.741
335.909
312.754
307.204
345.86
337.477
311.764
269.616
234.145
188.913
132.629
99.9241
82.9631
75.9334
104.814
81.8141
53.4506
35.5665
18.979
5.89292
1.87806
1.55063
1.43313
1.47232
0.0861699
0.0998027
0.128636
0.186519
0.190624
0.248171
0.399934
0.436076
0.40936
0.371543
0.0638794
0.0519959
0.0581025
0.0783664
0.0907541
0.0854557
0.106353
0.135929
0.158392
0.150605
0.0916132
0.076941
0.0663599
0.0611121
0.0567324
0.0565855
0.061591
0.0764836
0.0972646
0.101397
0.100409
0.0960004
0.0900445
0.073965
0.0553087
0.042805
0.0430055
0.0536797
0.0923675
0.0586133
0.0911283
0.156665
0.0983015
0.0724211
0.0531655
0.0403361
0.0381939
0.0430064
0.104104
0.0743855
0.0839058
0.246387
0.12606
0.0602823
0.114146
0.0748392
0.0382072
0.0456067
0.0626749
0.0504061
0.0769975
0.178873
0.115614
0.115516
0.201031
0.198914
0.0650867
0.0507693
0.0516788
0.0527227
0.102236
0.101947
0.10494
0.213911
0.204539
0.201988
0.0758425
0.0539539
0.0724867
0.109803
0.121323
0.0698757
0.0551226
0.189588
0.213423
0.208155
0.0598658
0.130174
0.206525
0.198737
0.0667317
0.0353766
0.0475127
0.22313
0.238445
0.0877007
0.176289
0.19945
0.18556
0.168506
0.0416621
0.0625825
0.125143
0.136021
0.068475
0.0452202
0.193852
0.1773
0.163202
0.150735
395.951
395.612
394.953
394.028
392.947
391.846
390.857
390.113
389.719
389.748
395.994
395.599
394.839
393.797
392.589
391.358
390.245
389.389
388.914
388.922
396.076
395.609
394.625
393.326
391.838
390.307
388.899
387.771
387.091
387.021
396.085
395.37
394.134
392.504
390.589
388.604
386.736
385.175
384.148
383.88
395.945
394.883
393.358
391.263
388.735
386.034
383.367
380.993
379.337
378.766
395.972
394.493
392.389
389.398
385.956
382.459
378.912
375.417
372.716
371.675
396.792
394.596
391.341
386.777
382.068
377.581
372.943
356.465
335.694
330.047
356.797
354.319
334.089
288.09
249.043
214.102
172.383
138.833
122.635
112.528
121.693
101.4
68.463
43.9018
28.1451
15.0011
4.60232
2.18561
1.70124
1.56641
0.0465342
1.21247
0.988754
0.133417
0.172727
0.202023
0.266407
0.379031
0.374713
0.323686
0.0190942
-0.0154392
-0.0181492
0.0150988
0.054228
0.0744973
0.083781
0.111326
0.148737
0.134947
0.060705
0.0305289
0.00817733
0.00734602
0.0217067
0.0413073
0.0559364
0.0802183
0.12366
0.112472
0.0833994
0.0642158
0.0429865
0.0239095
0.0147844
0.0193141
0.0306716
0.0559457
0.189429
0.101526
0.0859299
0.0694038
0.0564688
0.0367798
0.020247
0.0159065
0.0236418
0.0452927
0.196386
0.187868
0.08228
0.0762799
0.0627348
0.0427196
0.057348
0.0356191
0.0270344
0.0524028
0.17201
0.147851
0.0741724
0.0654904
0.0578703
0.0833477
0.187281
0.151091
0.0444669
0.0466274
0.0643709
0.0419126
0.0928738
0.0699839
0.0499307
0.0925777
0.199864
0.187838
0.0451093
0.0395304
0.0497233
0.0456209
0.107575
0.0609832
0.0452952
0.0512434
0.202124
0.134074
0.0354015
0.0341297
0.049362
0.11707
0.0726566
0.0310877
0.0474932
0.100741
0.151463
0.0483062
0.0289796
0.0362448
0.133715
0.108549
0.05084
0.0321414
0.0709371
0.0790772
0.0236531
-0.00412029
-0.0262356
0.0332184
0.0797774
-0.0226667
397.042
396.723
396.128
395.261
394.215
393.138
392.171
391.441
391.045
391.049
397.141
396.778
396.097
395.124
393.961
392.766
391.687
390.857
390.387
390.364
397.369
396.895
396.018
394.837
393.44
391.986
390.649
389.578
388.916
388.801
397.636
397.011
395.853
394.335
392.559
390.713
388.983
387.552
386.595
386.299
397.884
396.87
395.563
393.656
391.322
388.855
386.478
384.409
382.901
382.269
398.23
396.848
395.256
392.533
389.312
386.102
383.084
380.31
378.008
376.817
399.517
397.517
394.893
390.97
386.509
382.382
378.629
375.078
364.532
355.913
376.227
374.031
363.023
323.721
281.294
247.496
218.363
185.42
161.614
146.932
143.6
126.94
97.5025
67.9517
43.7032
28.412
15.6165
5.68724
2.47406
1.52137
0.555782
2.01693
2.48192
0.165945
0.104105
0.145683
0.129033
0.161234
0.192216
0.139506
-0.00903664
-0.0488123
-0.0597307
-0.0450372
0.01247
0.043996
0.0724088
0.0924434
0.117549
0.0639862
0.0349757
-0.00390834
-0.0296598
-0.0281168
0.0112711
0.0294443
0.0621147
0.0955914
0.151167
0.0818996
0.0706027
0.0363332
0.00324047
-0.0166352
-0.00958634
0.0118845
0.0443029
0.0845849
0.194262
0.150377
0.0839051
0.0584058
0.0309328
0.00653419
-0.0024978
0.00656204
0.0219638
0.124014
0.201355
0.185403
0.0869161
0.0659236
0.0463398
0.0302084
0.0193246
0.0199216
0.0290402
0.118718
0.209114
0.182199
0.0852765
0.0635664
0.0539705
0.0438759
0.0536032
0.0319841
0.0368497
0.0582851
0.175477
0.104448
0.0613509
0.0528098
0.0542078
0.0486862
0.074089
0.0432288
0.0307959
0.034218
0.040629
0.0173239
0.0723425
0.0385756
0.0500309
0.0470374
0.0578873
0.0321371
0.0217192
0.018534
0.0092394
-0.0131737
0.0752587
0.0271613
0.0469
0.0363603
0.0328268
0.025379
-0.00574908
-0.0250795
-0.0358782
-0.0466094
0.0710243
0.027954
0.0302099
0.0229255
0.00569022
-0.0257581
-0.0609739
-0.0886562
-0.105729
-0.107319
398.317
398.028
397.534
396.735
395.718
394.657
393.706
392.984
392.577
392.544
398.479
398.151
397.606
396.741
395.608
394.426
393.371
392.559
392.084
392.017
398.815
398.369
397.612
396.633
395.349
393.957
392.677
391.657
391.01
390.841
399.385
398.8
397.685
396.423
394.887
393.17
391.548
390.207
389.291
388.96
400.117
399.262
398.103
396.448
394.385
392.117
389.928
388.05
386.659
386.031
400.889
399.695
398.57
396.339
393.437
390.376
387.507
385.004
383.024
381.975
402.514
400.821
398.999
395.756
391.945
387.898
384.222
380.978
378.182
376.528
397.617
395.773
392.17
365.401
325.068
289.359
261.164
235.611
210.409
193.515
166.225
152.997
137.741
108.301
76.5902
49.3798
30.8115
17.6667
7.92573
4.43624
-0.00287011
-0.0122352
-0.0354766
0.335743
-0.0186052
0.0527342
0.0368949
0.0537048
0.0384028
0.00130911
-0.0028946
-0.0235427
-0.0399
-0.0465845
-0.0227254
0.0127019
0.0428846
0.061646
0.0825862
0.0173937
0.0315079
-0.00634791
-0.0289258
-0.00491215
0.0321877
0.0438437
0.0624192
0.0759463
0.113684
0.0499197
0.0687606
0.0358617
-0.000206066
-0.0149147
0.00154537
0.0409882
0.0990999
0.131367
0.178118
0.116685
0.0809341
0.0597418
0.0310475
0.0114311
0.0104953
0.0280573
0.095862
0.198217
0.209995
0.141044
0.080336
0.0681193
0.0524602
0.040095
0.035343
0.0577299
0.131466
0.179851
0.221573
0.154031
0.103797
0.0682284
0.0645394
0.0584311
0.0602034
0.150839
0.161631
0.128377
0.219299
0.159822
0.0821996
0.141982
0.0783861
0.0774355
0.131851
0.142032
0.123084
0.074539
0.159727
0.0627051
0.0736086
0.230657
0.112265
0.103659
0.0752459
0.0428049
0.033269
0.0251081
0.0167193
-0.0157914
0.0609929
0.117243
0.0788667
0.0507714
0.0260675
0.0144073
0.00329227
-0.00690998
-0.0211584
-0.0348833
0.0516416
0.0304441
0.0323805
0.0238981
0.0065926
-0.0178119
-0.0367155
-0.045253
-0.0478066
-0.0474887
399.672
399.409
399.122
398.388
397.339
396.26
395.313
394.592
394.169
394.093
399.895
399.558
399.209
398.548
397.414
396.197
395.139
394.334
393.845
393.731
400.287
399.853
399.186
398.516
397.377
396.038
394.798
393.813
393.175
392.963
401.138
400.542
399.521
398.574
397.291
395.734
394.228
392.959
392.071
391.705
402.307
401.642
400.611
399.281
397.54
395.525
393.502
391.732
390.373
389.717
403.608
402.73
401.841
400.203
397.847
395.061
392.26
389.801
387.926
386.857
405.347
404.162
403.122
400.97
397.808
394.018
390.161
386.799
384.202
382.772
405.414
404.229
405.834
404.677
377.292
340.284
305.87
279.88
258.442
246.472
191.614
183.681
182.473
163.717
132.227
91.8998
54.204
32.2823
19.5093
14.2162
0.012252
0.00954848
-0.00570305
-0.0178319
-0.0279261
-0.000327336
0.0470034
0.0056667
-0.0400266
-0.0582114
0.017998
0.00452291
-0.00754721
-0.0159256
-0.00774834
0.00844727
0.0424681
0.0553519
0.0820897
0.0256267
0.0438104
0.0190617
0.00033028
0.0195347
0.0329551
0.0553988
0.0932497
0.0977484
0.121834
0.0666623
0.162245
0.0505554
0.0244116
0.0157251
0.0350188
0.133287
0.145999
0.111425
0.180035
0.0906976
0.231162
0.101264
0.0487728
0.0394743
0.0671644
0.144111
0.15184
0.126426
0.217498
0.0839511
0.189161
0.136591
0.0780969
0.061513
0.115185
0.165257
0.15448
0.181062
0.222451
0.104266
0.181325
0.205917
0.0935099
0.132394
0.180778
0.181064
0.139931
0.204705
0.218048
0.121493
0.152405
0.249716
0.101681
0.191518
0.183254
0.183438
0.12211
0.152991
0.204027
0.169805
0.117873
0.243937
0.0886719
0.112314
0.128618
0.146775
0.0868818
0.0518785
0.119478
0.0836151
0.0632999
0.151131
0.066567
0.0501084
0.0395838
0.0351809
0.0374973
0.0167454
0.00395138
0.00262508
0.045944
0.0370603
0.0470889
0.0421953
0.0306883
0.016075
0.00566989
0.000756018
-0.00262039
-0.00086156
400.985
400.7
400.673
399.998
398.878
397.76
396.82
396.106
395.668
395.557
401.237
400.938
400.686
400.167
399.068
397.855
396.806
396.009
395.512
395.362
401.811
401.363
400.806
400.169
399.128
397.966
396.784
395.837
395.206
394.971
402.923
402.234
401.422
400.557
399.36
398
396.729
395.553
394.704
394.321
404.384
403.813
402.97
401.844
400.321
398.62
396.859
395.212
393.937
393.244
406.083
405.593
404.795
403.481
401.673
399.469
397.007
394.643
392.851
391.748
407.968
407.263
406.63
405.348
403.155
400.109
396.558
393.159
390.642
389.231
410.882
409.945
410.322
409.92
407.927
397.776
371.41
344.155
322.046
309.405
221.926
214.363
225.267
223.141
200.611
158.887
107.28
60.8946
35.8309
26.7518
0.0350347
0.0265761
0.0243913
0.0726716
0.0754165
0.0039901
0.0266261
0.0370667
0.0111138
-0.0149898
0.0442729
0.0323009
0.0239793
0.0283927
0.0303994
0.0216431
0.0227276
0.0842208