/*--------------------------------*- C++ -*----------------------------------*\
| =========                 |                                                 |
| \\      /  F ield         | OpenFOAM: The Open Source CFD Toolbox           |
|  \\    /   O peration     | Version:  2312                                  |
|   \\  /    A nd           | Website:  www.openfoam.com                      |
|    \\/     M anipulation  |                                                 |
\*---------------------------------------------------------------------------*/
FoamFile
{
    version     2.0;
    format      ascii;
    arch        "LSB;label=32;scalar=64";
    class       volVectorField;
    location    "0.92";
    object      U;
}
// * * * * * * * * * * * * * * * * * * * * * * * * * * * * * * * * * * * * * //

dimensions      [0 1 -1 0 0 0 0];

internalField   nonuniform List<vector> 
8000
(
(-0.0053479 0.00799934 -0.00622857)
(-0.0108 0.00630313 -0.008022)
(-0.012315 0.00550107 -0.00792935)
(-0.013779 0.00447152 -0.00647888)
(-0.0146244 0.00337605 -0.00504786)
(-0.0144873 0.00241576 -0.00420451)
(-0.0131686 0.00170634 -0.00380714)
(-0.0109401 0.00113276 -0.00377143)
(-0.0078481 0.000661395 -0.00387596)
(-0.0035369 0.000389347 -0.00413679)
(-0.00731606 0.0291243 -0.00841653)
(-0.0139999 0.0246127 -0.0126294)
(-0.0167053 0.0217618 -0.0128886)
(-0.0190684 0.0176602 -0.00978066)
(-0.0201321 0.0126713 -0.00681108)
(-0.019442 0.00859604 -0.00533964)
(-0.017061 0.0058449 -0.0047331)
(-0.0135835 0.00396584 -0.00449567)
(-0.00933763 0.00246631 -0.0042265)
(-0.00369877 0.00104534 -0.00424568)
(-0.00639915 0.0532349 -0.00807824)
(-0.0122926 0.0446454 -0.0130812)
(-0.0194787 0.0413308 -0.0161467)
(-0.0245931 0.0343016 -0.0132636)
(-0.0257712 0.0243435 -0.00888834)
(-0.0236573 0.0156135 -0.00607498)
(-0.0201297 0.00987072 -0.00477647)
(-0.0162705 0.00587414 -0.00413867)
(-0.0122567 0.00219101 -0.00317517)
(-0.00505944 -0.000341807 -0.00192197)
(-0.00140721 0.0668045 -0.00591888)
(-0.00964288 0.0532882 -0.00660577)
(-0.0247758 0.0587255 -0.011876)
(-0.0365911 0.0518168 -0.0104251)
(-0.0389432 0.0362252 -0.00767879)
(-0.0341352 0.0220626 -0.00512663)
(-0.0284662 0.013591 -0.00374394)
(-0.0251896 0.00897509 -0.00216035)
(-0.0206312 0.00139363 0.00162421)
(-0.00700311 -0.0109745 0.00364524)
(0.00710784 0.0978215 -0.00179908)
(-0.0166253 0.075054 0.00817083)
(-0.044409 0.0799831 -0.00248)
(-0.0630168 0.0665358 -0.00210491)
(-0.0667212 0.0436837 -0.000172136)
(-0.0568012 0.0246559 0.000392765)
(-0.043835 0.0154828 -0.000236342)
(-0.035669 0.00651988 0.000233597)
(-0.0224425 -0.0169387 0.000965541)
(-0.000986274 -0.0363904 -0.00282153)
(-0.0116374 0.0793968 0.0115626)
(-0.0772767 0.0727341 0.0201483)
(-0.100124 0.08754 0.0105861)
(-0.104569 0.0734929 0.0034978)
(-0.0961161 0.0381428 -0.00127779)
(-0.0733175 0.00934792 -0.004731)
(-0.0476964 0.00185679 -0.00437716)
(-0.0279423 -0.0045 -0.00549121)
(-0.0103727 -0.0314447 -0.0165646)
(0.00579627 -0.0415781 -0.0237464)
(-0.0697017 0.1953 -0.0348123)
(-0.133663 0.146508 -0.0500332)
(-0.145083 0.0658203 -0.00624148)
(-0.134584 0.0224144 -0.000236952)
(-0.120016 0.000352225 -0.0138388)
(-0.0912799 -0.018313 -0.0199978)
(-0.0583578 -0.0210263 -0.0194174)
(-0.0260276 -0.0146369 -0.0211387)
(-0.00871422 -0.0207433 -0.034597)
(-0.00677415 -0.0198265 -0.0429437)
(-0.0910407 0.446492 -0.15719)
(-0.151542 0.30184 -0.168221)
(-0.184863 0.166055 -0.132267)
(-0.185759 0.0791057 -0.0941456)
(-0.152364 0.0324064 -0.0584836)
(-0.135528 -0.0123117 -0.0262452)
(-0.108049 -0.0326652 -0.0108558)
(-0.0794122 -0.0213989 -0.0173968)
(-0.0492313 0.00625673 -0.0328938)
(-0.0619954 0.018672 -0.0497098)
(-0.025444 0.826648 -0.212871)
(-0.000327192 0.624515 -0.261256)
(0.0223087 0.47351 -0.226056)
(-0.0273472 0.335635 -0.203216)
(0.0238092 0.186269 -0.12119)
(-0.0839789 0.0408487 -0.00111264)
(-0.227682 0.00302725 0.0699143)
(-0.237077 0.0201549 0.0473023)
(-0.161204 0.0496761 0.0248749)
(-0.144777 0.0739756 -0.004594)
(0.0247048 0.952461 -0.148567)
(0.0738738 0.941644 -0.21614)
(0.0922661 0.719854 -0.170817)
(0.0739406 0.524524 -0.132391)
(0.135917 0.309817 -0.0909761)
(0.157408 0.175038 -0.0615514)
(0.144175 0.05333 0.00773598)
(-0.0637149 0.0155438 0.106476)
(-0.186728 -0.0193959 0.068795)
(-0.190747 0.177299 0.0405541)
(0.0499424 0.848675 -0.0572291)
(0.11894 0.98605 -0.119323)
(0.162809 0.73377 -0.0769667)
(0.189277 0.487008 -0.0421592)
(0.251469 0.269024 -0.0238413)
(0.284728 0.146446 -0.0154838)
(0.273533 0.0809068 0.0192543)
(0.109158 0.0410374 0.062225)
(-0.104757 0.0127647 0.0727723)
(-0.163156 0.0495079 0.0605434)
(0.0450217 0.610551 0.0228492)
(0.130377 0.785424 -0.0146377)
(0.207513 0.570157 0.000107312)
(0.269781 0.340412 0.0115058)
(0.314039 0.170577 0.0247302)
(0.302221 0.0912845 0.0448079)
(0.241733 0.0706239 0.0619229)
(0.0946076 0.0671437 0.0586202)
(-0.085809 0.0231928 0.0337317)
(-0.157819 -0.0117987 0.0378222)
(0.0257545 0.405108 0.0422788)
(0.115774 0.545484 0.0308743)
(0.201894 0.400227 0.0225614)
(0.263207 0.239953 0.0186201)
(0.298727 0.138462 0.028296)
(0.269549 0.0926329 0.055057)
(0.170193 0.0791922 0.0770463)
(-0.00378079 0.0866647 0.0573606)
(-0.141507 0.0241847 0.044124)
(-0.174238 -0.0567776 0.0540816)
(0.013358 0.324703 0.0100888)
(0.0793863 0.408249 0.00920292)
(0.141171 0.309471 0.0112874)
(0.195644 0.200236 -0.00234701)
(0.23833 0.150788 0.00161218)
(0.21759 0.122901 0.0406433)
(0.0786718 0.0944654 0.0740942)
(-0.117357 0.0860997 0.069348)
(-0.188073 -0.0132493 0.0751073)
(-0.186908 -0.134289 0.0473865)
(0.00510393 0.297469 -0.019763)
(0.0370133 0.338604 -0.0107912)
(0.0721788 0.256889 0.0030453)
(0.139423 0.209027 -0.0314918)
(0.179369 0.197096 -0.0200069)
(0.156257 0.154431 0.0343816)
(-0.035907 0.0983205 0.0785358)
(-0.19606 0.0416576 0.0880712)
(-0.230432 -0.0980017 0.0562859)
(-0.238266 -0.199586 0.00563518)
(-0.00574652 0.287936 -0.0258358)
(-0.00226141 0.300704 -0.00387574)
(0.0318389 0.253906 -0.0149125)
(0.101095 0.25895 -0.0516349)
(0.127511 0.251679 -0.0155312)
(0.0793524 0.160837 0.0459289)
(-0.142484 0.084504 0.0876585)
(-0.257379 -0.0225112 0.0654751)
(-0.292746 -0.149157 0.00895516)
(-0.330455 -0.202016 -0.013302)
(-0.0145305 0.288718 -0.00953843)
(-0.0287894 0.303553 0.00429042)
(0.00938404 0.294105 -0.035513)
(0.0676038 0.318042 -0.051461)
(0.0796756 0.285631 0.00163574)
(-0.0201593 0.145366 0.0654977)
(-0.233295 0.0696967 0.0707847)
(-0.321127 -0.051284 0.0191716)
(-0.358253 -0.143122 -0.0130421)
(-0.411917 -0.166389 -0.00167854)
(-0.0144388 0.289662 0.014979)
(-0.0398741 0.340077 0.00853871)
(-0.008512 0.345159 -0.0402463)
(0.0329449 0.362015 -0.0370365)
(0.0315875 0.273134 0.026148)
(-0.126439 0.142052 0.0661186)
(-0.311144 0.0842879 0.0313958)
(-0.367329 -0.0264901 -0.0234714)
(-0.387103 -0.0995323 -0.0174295)
(-0.4546 -0.121427 0.0174508)
(-0.00473035 0.268262 0.0332837)
(-0.0358862 0.378099 0.0186732)
(-0.0264499 0.386151 -0.0300608)
(0.000477535 0.37903 -0.0164643)
(-0.0239703 0.238401 0.0460297)
(-0.219585 0.172562 0.041966)
(-0.35627 0.136826 -0.0222717)
(-0.367196 0.036243 -0.0662189)
(-0.384553 -0.041324 -0.0226914)
(-0.45051 -0.0735269 0.0391628)
(-0.00270899 0.217184 0.0369854)
(-0.0255545 0.387047 0.0354705)
(-0.0357395 0.412652 -0.00653)
(-0.0199225 0.353821 0.0125956)
(-0.0811325 0.216804 0.0521041)
(-0.274269 0.230568 0.00896955)
(-0.355717 0.218121 -0.0704462)
(-0.341451 0.118075 -0.0975615)
(-0.351507 0.0140175 -0.0229634)
(-0.417208 -0.0453396 0.0596533)
(-0.00713387 0.00612538 -0.0130176)
(-0.0120746 0.00142127 -0.0143671)
(-0.0092783 -0.000162379 -0.0148658)
(-0.00780786 0.000277656 -0.0126438)
(-0.00764045 0.00067517 -0.00997469)
(-0.00754672 0.000465183 -0.00812142)
(-0.00662555 7.30389e-05 -0.00698381)
(-0.00504844 -0.000285656 -0.00644822)
(-0.00336252 -0.00039398 -0.00623994)
(-0.00127444 -0.000488685 -0.00651403)
(-0.0115054 0.023938 -0.0168262)
(-0.0122903 0.00626081 -0.015989)
(-0.00648913 0.00193006 -0.0184642)
(-0.00682423 0.00475814 -0.0178754)
(-0.00930914 0.00509623 -0.0139498)
(-0.0105315 0.00326735 -0.0106112)
(-0.00956892 0.00121214 -0.00877918)
(-0.00733466 -0.000381611 -0.00777419)
(-0.00480367 -0.0014243 -0.00700123)
(-0.00145826 -0.00286812 -0.00671498)
(-0.0110955 0.0428035 -0.0167003)
(0.000507371 -0.00485179 -0.00501379)
(0.00385177 -0.00556195 -0.0103328)
(-0.00104105 0.00986927 -0.0174574)
(-0.00749555 0.0129123 -0.0176936)
(-0.0102526 0.008095 -0.0137094)
(-0.00931094 0.00265391 -0.0101846)
(-0.00682868 -0.000949134 -0.00800825)
(-0.00470124 -0.00333656 -0.00578068)
(-0.00101119 -0.00600746 -0.00322058)
(-0.00175681 0.049367 -0.0157622)
(0.00794305 -0.0172414 0.0116213)
(-0.00287653 -0.0125168 0.00576758)
(-0.0112455 0.0149559 -0.0071246)
(-0.0189072 0.0222281 -0.0148063)
(-0.0182928 0.0143645 -0.0144138)
(-0.0147231 0.0050512 -0.0104992)
(-0.0122094 6.68607e-05 -0.00626254)
(-0.0112219 -0.00163877 -0.000372238)
(-0.00382503 -0.00904164 0.00561815)
(0.0104042 0.0722131 -0.0139036)
(-0.00635563 0.00450386 0.0177161)
(-0.0425816 0.0104888 0.0186041)
(-0.0490249 0.0291816 0.00484513)
(-0.0509541 0.0304071 -0.00509815)
(-0.0426376 0.0191599 -0.00858083)
(-0.0316062 0.00862085 -0.00809506)
(-0.0224891 0.00270622 -0.00479956)
(-0.0134206 -0.00683446 0.00231479)
(0.00448853 -0.0265199 0.00584423)
(0.00235703 0.0841157 -0.0497679)
(-0.0621095 0.0604478 -0.0333388)
(-0.108325 0.0455531 0.00986744)
(-0.095579 0.0458578 0.00626674)
(-0.0847505 0.0356642 -0.00453914)
(-0.0645845 0.0156344 -0.0118586)
(-0.040474 -0.000723814 -0.0153479)
(-0.0127768 -0.0120076 -0.0183866)
(0.0104247 -0.0237391 -0.0184156)
(0.0243659 -0.0344006 -0.0177741)
(-0.0237582 0.184412 -0.146109)
(-0.0990995 0.159906 -0.154174)
(-0.145942 0.0793574 -0.0775199)
(-0.127981 0.0266351 -0.0383125)
(-0.105359 0.00706891 -0.033678)
(-0.071802 -0.0141961 -0.0324598)
(-0.0369001 -0.0299927 -0.0243482)
(-0.00122539 -0.0377029 -0.0248782)
(0.0153372 -0.0421706 -0.0331278)
(0.0201345 -0.0371406 -0.0382657)
(-0.0530377 0.320785 -0.270346)
(-0.127553 0.252751 -0.257856)
(-0.171464 0.151567 -0.208704)
(-0.178685 0.0780427 -0.178175)
(-0.155953 0.0126272 -0.124722)
(-0.118754 -0.0222839 -0.0494688)
(-0.0852936 -0.0316296 -0.0206289)
(-0.0578199 -0.0284761 -0.0262712)
(-0.0425222 -0.0199913 -0.0587244)
(-0.0389639 -0.0119657 -0.0806519)
(-0.0250689 0.561571 -0.262078)
(-0.0795314 0.352654 -0.305063)
(-0.110097 0.215485 -0.264283)
(-0.129914 0.143416 -0.236459)
(-0.145559 0.0589841 -0.118765)
(-0.252649 0.0495913 0.0186191)
(-0.31157 0.0622455 -0.0636468)
(-0.224289 0.0396999 -0.120843)
(-0.131201 0.0256588 -0.159354)
(-0.0889725 -0.00783829 -0.254927)
(0.00781832 0.764631 -0.0534437)
(-0.0212865 0.54794 -0.161543)
(-0.0809282 0.33228 -0.122239)
(-0.0624574 0.210637 -0.0851126)
(0.0472908 0.147186 -0.0573787)
(0.00522853 0.172958 0.0176213)
(0.00969485 0.105201 0.156655)
(-0.178341 -0.0202179 0.18643)
(-0.182614 0.0347126 0.0429151)
(-0.159066 0.181869 -0.00311968)
(0.0609686 0.726832 0.1021)
(0.104091 0.693213 0.0676345)
(0.0898633 0.38425 0.0570666)
(0.141863 0.116701 0.0568722)
(0.237368 -0.00763745 0.0467563)
(0.260583 0.0638507 0.0512223)
(0.281818 0.11844 0.132634)
(0.0522182 0.0494283 0.212193)
(-0.204587 0.0922988 0.206582)
(-0.22042 0.192533 0.180244)
(0.0694306 0.442671 0.166907)
(0.166788 0.518837 0.177374)
(0.21858 0.267814 0.14309)
(0.264519 0.0408497 0.0763352)
(0.302412 -0.00921661 0.0506137)
(0.307425 0.0491694 0.082469)
(0.30432 0.114333 0.136787)
(0.141357 0.11192 0.188149)
(-0.174017 0.11754 0.198459)
(-0.236538 0.123186 0.170107)
(0.034527 0.282268 0.115856)
(0.124964 0.33534 0.141838)
(0.195972 0.185482 0.108327)
(0.222583 0.0332366 0.00441534)
(0.247621 0.0128756 -0.0165544)
(0.241971 0.084967 0.0652512)
(0.221932 0.141744 0.155447)
(0.0810399 0.172156 0.1916)
(-0.168709 0.159503 0.158506)
(-0.215572 0.105965 0.102843)
(0.0107418 0.262618 0.0393418)
(0.0450972 0.265362 0.0864453)
(0.110738 0.145427 0.0370137)
(0.144821 0.0590761 -0.0991312)
(0.167587 0.0911087 -0.0805015)
(0.142361 0.157265 0.0709722)
(0.126149 0.173273 0.196547)
(-0.0735407 0.210154 0.199953)
(-0.200681 0.182696 0.130256)
(-0.199794 0.103096 0.0690643)
(-0.013732 0.237761 0.0306587)
(-0.0294629 0.194305 0.0571855)
(0.039556 0.129705 -0.0775483)
(0.0644895 0.131731 -0.16968)
(0.0691534 0.187983 -0.0853946)
(0.075678 0.206917 0.12887)
(-0.0237809 0.193122 0.228157)
(-0.220328 0.216347 0.191264)
(-0.238233 0.15778 0.111226)
(-0.181929 0.0613739 0.0681995)
(-0.0498593 0.219306 0.0467161)
(-0.0799521 0.168722 -0.0141473)
(-0.0316082 0.178663 -0.161162)
(-0.0153662 0.219357 -0.172799)
(-0.0127869 0.251746 -0.028489)
(0.0248781 0.223836 0.187936)
(-0.191693 0.213648 0.221849)
(-0.303406 0.193608 0.158517)
(-0.252786 0.092761 0.0930458)
(-0.164382 -0.0240938 0.0594269)
(-0.0762878 0.247275 0.0532848)
(-0.119019 0.212975 -0.0737276)
(-0.100203 0.24891 -0.181562)
(-0.0877058 0.287895 -0.125952)
(-0.0525371 0.279712 0.0630364)
(-0.0708941 0.235637 0.208642)
(-0.303426 0.23087 0.178788)
(-0.322934 0.146779 0.105222)
(-0.24442 0.00780456 0.0513114)
(-0.205723 -0.0815974 0.00785027)
(-0.082182 0.304873 0.066113)
(-0.147391 0.283144 -0.0779674)
(-0.156194 0.318247 -0.147148)
(-0.137638 0.335029 -0.0480583)
(-0.0819998 0.300416 0.140743)
(-0.174736 0.259163 0.19324)
(-0.340792 0.243555 0.112815)
(-0.309459 0.109311 0.032338)
(-0.282858 -0.0275764 -0.00538647)
(-0.308637 -0.0566711 -0.00936887)
(-0.0659109 0.353211 0.0927247)
(-0.158187 0.354917 -0.0356994)
(-0.192338 0.373556 -0.0760701)
(-0.166197 0.366998 0.0426338)
(-0.121846 0.326353 0.18428)
(-0.241703 0.30609 0.1562)
(-0.331038 0.270895 0.0343162)
(-0.323159 0.122302 -0.0420821)
(-0.365692 -0.0112599 -0.0185496)
(-0.434125 -0.0143579 0.0279814)
(-0.0417365 0.360004 0.115837)
(-0.150578 0.419416 0.0305433)
(-0.203559 0.410257 0.0131349)
(-0.174463 0.397166 0.121305)
(-0.162494 0.360711 0.198416)
(-0.270621 0.375797 0.111907)
(-0.309762 0.336065 -0.0360242)
(-0.355683 0.177595 -0.0806239)
(-0.445455 0.0160804 0.011145)
(-0.504116 0.0233094 0.087461)
(-0.00711771 0.00507788 -0.0154192)
(-0.0126149 -0.000412811 -0.0124021)
(-0.00943642 -0.00224257 -0.0126381)
(-0.00713101 -0.00147282 -0.0119104)
(-0.00686907 -0.000532604 -0.0103823)
(-0.00703184 -0.000429943 -0.00879572)
(-0.00635847 -0.000818884 -0.00741887)
(-0.00491624 -0.00112102 -0.00649198)
(-0.00341423 -0.00121471 -0.00582391)
(-0.00158152 -0.00147291 -0.00562143)
(-0.0118374 0.0205607 -0.0205069)
(-0.0153193 0.00053095 -0.0112591)
(-0.00676907 -0.00747199 -0.0114521)
(-0.0049065 -0.00256037 -0.0142468)
(-0.00730946 0.00076905 -0.0139448)
(-0.00930801 0.000488227 -0.0118068)
(-0.0089205 -0.00122746 -0.00981119)
(-0.00689344 -0.00295754 -0.00828402)
(-0.00454514 -0.00434726 -0.00701987)
(-0.00147185 -0.00639146 -0.00615837)
(-0.0152492 0.0389716 -0.0242941)
(-0.00622533 -0.0100366 -0.00249273)
(0.00490626 -0.0228033 -0.00209378)
(0.0056041 -0.00679925 -0.0109564)
(-0.0013863 0.00306773 -0.015942)
(-0.00696683 0.00227247 -0.0148727)
(-0.00778092 -0.00207972 -0.0118686)
(-0.00554978 -0.00582645 -0.00922272)
(-0.00323571 -0.00832117 -0.00683713)
(-0.00039714 -0.011182 -0.00458012)
(-0.0120463 0.0545857 -0.0304281)
(0.0041069 -0.0185976 0.00116383)
(0.00287377 -0.0333993 0.00342823)
(0.00263878 -0.00817604 -0.00777442)
(-0.00461796 0.00807748 -0.0166903)
(-0.00950523 0.00616203 -0.0179196)
(-0.00951926 -0.0019939 -0.0137054)
(-0.00686808 -0.00703058 -0.00870213)
(-0.00541469 -0.00740716 -0.00394627)
(-0.00193418 -0.00992445 0.000870197)
(-0.0017833 0.0801678 -0.0430438)
(0.00645396 0.00529756 -0.0201316)
(-0.0251228 -0.0161825 -0.00631987)
(-0.0281842 0.00286625 -0.00823154)
(-0.0303905 0.0136112 -0.0153994)
(-0.02756 0.00807124 -0.0167581)
(-0.0194706 -0.00196974 -0.0114312)
(-0.010058 -0.00700137 -0.00493238)
(-0.00746094 -0.00860517 0.000702036)
(-0.00100577 -0.0155349 0.00572676)
(0.00598355 0.107395 -0.0896501)
(-0.0087324 0.0685417 -0.093467)
(-0.0700393 0.042407 -0.0492819)
(-0.0726705 0.0358559 -0.0238437)
(-0.0651025 0.0269014 -0.0213657)
(-0.0500569 0.0050017 -0.0221927)
(-0.0299596 -0.0157787 -0.0222261)
(-0.0121157 -0.0169897 -0.0226598)
(0.00146649 -0.00633152 -0.0183757)
(0.0131683 -0.0125731 -0.0117582)
(0.00508286 0.110045 -0.191272)
(-0.0471271 0.0978806 -0.19671)
(-0.114823 0.0781964 -0.128798)
(-0.115496 0.0405845 -0.0825835)
(-0.0968904 0.00741247 -0.0622707)
(-0.0660658 -0.0278891 -0.0617537)
(-0.0386189 -0.0438854 -0.0649861)
(-0.0194573 -0.0474606 -0.0652443)
(-0.00264573 -0.0457756 -0.0586579)
(0.0155502 -0.0425883 -0.050967)
(-0.0190373 0.168352 -0.341655)
(-0.0880743 0.168176 -0.307854)
(-0.1396 0.124203 -0.243863)
(-0.15472 0.0615514 -0.210808)
(-0.146264 -0.00434353 -0.176844)
(-0.117764 -0.0345833 -0.139034)
(-0.0845614 -0.0343499 -0.122069)
(-0.0490048 -0.0326442 -0.105506)
(-0.0277809 -0.0351483 -0.100037)
(-0.012257 -0.0238431 -0.104268)
(-0.017877 0.303697 -0.301132)
(-0.0654942 0.246851 -0.317415)
(-0.0865082 0.177126 -0.280713)
(-0.0800153 0.114375 -0.251787)
(-0.10055 0.0269341 -0.189593)
(-0.189706 0.00412149 -0.126819)
(-0.205209 -0.0030852 -0.0813191)
(-0.113945 -0.044098 -0.0914171)
(-0.0370911 -0.082945 -0.161806)
(-0.0395656 -0.119978 -0.209723)
(0.0245094 0.436828 -0.118792)
(0.0071076 0.354718 -0.203333)
(-0.00438727 0.207833 -0.145419)
(0.0434848 0.113872 -0.0653528)
(0.0970827 0.15177 -0.0227794)
(0.0192208 0.188226 -0.0136307)
(-0.0187071 0.140915 0.214974)
(-0.113385 -0.153403 0.254672)
(-0.119589 -0.121387 -0.0296198)
(-0.148804 -0.194004 -0.173597)
(0.0511575 0.177532 0.0936862)
(0.098627 0.180411 0.0537362)
(0.118192 0.00829159 0.043076)
(0.168795 -0.115738 -0.000397107)
(0.255615 -0.0286915 0.0433693)
(0.22765 0.184909 0.072557)
(0.204877 0.19842 0.222978)
(0.0445655 0.0409059 0.339718)
(-0.182408 0.0713205 0.23628)
(-0.230678 0.102273 0.118594)
(0.0292459 0.0914515 0.153333)
(0.0989496 0.10656 0.16605)
(0.164258 0.00938359 0.0832968)
(0.191332 -0.0831042 -0.0380646)
(0.237475 -0.0179302 -0.0137356)
(0.263505 0.159103 0.0801108)
(0.261786 0.22814 0.198689)
(0.151782 0.138135 0.319905)
(-0.184393 0.144303 0.292501)
(-0.265453 0.15709 0.19231)
(0.00580423 0.137896 0.0718229)
(0.0609257 0.128071 0.0988358)
(0.145837 0.0351007 0.0454788)
(0.15379 -0.0704094 -0.0951397)
(0.163056 0.00302278 -0.0871755)
(0.197201 0.16996 0.042295)
(0.208904 0.25211 0.185896)
(0.156247 0.227387 0.312216)
(-0.137153 0.236222 0.277794)
(-0.236632 0.21527 0.150998)
(0.00234469 0.174036 0.0351293)
(0.0190102 0.125698 0.0819455)
(0.104547 0.0458191 -0.017975)
(0.0744381 -0.0147396 -0.185326)
(0.0621618 0.0672889 -0.148422)
(0.0841279 0.216998 0.0310463)
(0.134044 0.257998 0.224966)
(0.0702106 0.282418 0.32504)
(-0.120838 0.303631 0.234224)
(-0.197871 0.256564 0.0818325)
(-0.01969 0.171609 0.0747498)
(-0.0295099 0.0969631 0.0405137)
(0.00602038 0.0579728 -0.145545)
(-0.0345945 0.0646492 -0.236401)
(-0.0490384 0.136918 -0.137901)
(-0.0122746 0.229208 0.101598)
(0.0539059 0.249031 0.305027)
(-0.0713547 0.315774 0.307257)
(-0.140437 0.321401 0.168384)
(-0.183219 0.270101 0.0212083)
(-0.0571646 0.171997 0.0988664)
(-0.0908658 0.115729 -0.0572349)
(-0.112682 0.100666 -0.217456)
(-0.138528 0.131632 -0.22491)
(-0.125789 0.178208 -0.0657797)
(-0.0413746 0.21378 0.222459)
(-0.0795463 0.2628 0.327962)
(-0.176389 0.319698 0.236703)
(-0.178101 0.306533 0.0909252)
(-0.174952 0.255236 -0.0126102)
(-0.0887055 0.214187 0.104139)
(-0.154763 0.16622 -0.105045)
(-0.206927 0.146985 -0.223895)
(-0.221942 0.18288 -0.185854)
(-0.170035 0.213346 0.0160158)
(-0.0761612 0.222425 0.281094)
(-0.167798 0.271223 0.280094)
(-0.208164 0.295085 0.139199)
(-0.20151 0.277811 0.0202938)
(-0.136029 0.208083 -0.0202299)
(-0.102964 0.284054 0.130296)
(-0.198381 0.231072 -0.0804622)
(-0.275174 0.201436 -0.186407)
(-0.283584 0.238229 -0.134894)
(-0.201854 0.271066 0.0558219)
(-0.111586 0.273595 0.24428)
(-0.158968 0.292927 0.185352)
(-0.183556 0.293017 0.037114)
(-0.177271 0.25279 -0.0267002)
(-0.0400032 0.144176 -0.00514044)
(-0.0910574 0.349956 0.180839)
(-0.216011 0.301143 -0.00323276)
(-0.31027 0.274673 -0.119017)
(-0.315057 0.30364 -0.0814656)
(-0.220564 0.34822 0.0596437)
(-0.129254 0.365699 0.13915)
(-0.11299 0.3733 0.0497733)
(-0.143279 0.345378 -0.0494316)
(-0.129737 0.230237 -0.0293286)
(-0.0667086 0.0862872 0.0657066)
(-0.0576473 0.378819 0.22614)
(-0.215802 0.359682 0.0800645)
(-0.325265 0.347835 -0.0418496)
(-0.314326 0.375859 -0.0247758)
(-0.222867 0.42441 0.0568888)
(-0.13538 0.455901 0.0393861)
(-0.101204 0.463482 -0.0597332)
(-0.142992 0.400552 -0.0737555)
(-0.164298 0.202033 0.0322198)
(-0.241051 0.0912833 0.108236)
(-0.00566954 0.00387418 -0.0174651)
(-0.0104112 -0.000200713 -0.0113821)
(-0.00871289 -0.00163916 -0.0107922)
(-0.00702005 -0.00118587 -0.010764)
(-0.00665948 -0.000661448 -0.0100823)
(-0.00660067 -0.00066529 -0.00875727)
(-0.0059454 -0.000945625 -0.00712167)
(-0.00457153 -0.00104782 -0.0055827)
(-0.00315631 -0.0010029 -0.00414894)
(-0.00155308 -0.00113933 -0.00332535)
(-0.00878913 0.0159085 -0.0233134)
(-0.0151578 0.00328897 -0.0113193)
(-0.0104053 -0.00308469 -0.0094595)
(-0.00781287 -0.00175673 -0.0119555)
(-0.00839316 -0.000170709 -0.0129638)
(-0.0091407 -0.000548625 -0.0116876)
(-0.00847275 -0.00190782 -0.00952518)
(-0.00641642 -0.00331287 -0.00753909)
(-0.00385242 -0.00459418 -0.0054318)
(-0.00102129 -0.00608046 -0.00396409)
(-0.0121788 0.0313311 -0.0296656)
(-0.0142023 0.00529442 -0.00767384)
(-0.00485761 -0.0084539 -0.00202754)
(-0.00189998 -0.00345175 -0.00812718)
(-0.00467441 0.000110601 -0.0133551)
(-0.00763726 -0.00105104 -0.0136166)
(-0.00783242 -0.00431462 -0.0111337)
(-0.00573907 -0.00772425 -0.00859242)
(-0.00343123 -0.00999374 -0.00633422)
(-0.000487165 -0.0115062 -0.004886)
(-0.0115136 0.047599 -0.0425999)
(-0.00569227 0.00855779 -0.0136424)
(-0.000541522 -0.0111704 -0.00377914)
(0.000812843 -0.00305264 -0.00937311)
(-0.00366328 0.00298802 -0.01553)
(-0.0072697 -9.03628e-05 -0.0167062)
(-0.0079156 -0.00526532 -0.0135283)
(-0.00603569 -0.00880456 -0.0095425)
(-0.00479528 -0.00993208 -0.0061436)
(-0.00164539 -0.0110707 -0.00491387)
(-0.00510158 0.0649847 -0.0668478)
(0.00094464 0.025462 -0.0375061)
(-0.0111628 0.000959334 -0.0223598)
(-0.0144364 0.00331543 -0.0214073)
(-0.01748 0.00489119 -0.0220602)
(-0.0148239 -0.00080599 -0.0183498)
(-0.00793791 -0.00772108 -0.0117887)
(-0.00442367 -0.0135096 -0.00719235)
(-0.00747995 -0.0147127 -0.00626445)
(-0.00555917 -0.0144742 -0.00627655)
(0.00344494 0.0879874 -0.10467)
(-0.00107706 0.0576649 -0.0808285)
(-0.0422677 0.0412681 -0.0575153)
(-0.051538 0.0324901 -0.0427368)
(-0.0469014 0.0149259 -0.0324583)
(-0.0331494 -0.00703941 -0.0257434)
(-0.017514 -0.0109682 -0.0212443)
(-0.0070539 -0.00120082 -0.0163915)
(-0.00429522 0.00451136 -0.0111074)
(0.00104416 -0.00504826 -0.00724874)
(0.0111837 0.0553716 -0.177676)
(-0.0257069 0.0508955 -0.167272)
(-0.0860904 0.0530284 -0.122057)
(-0.0954789 0.0310231 -0.0871054)
(-0.082058 -0.00374579 -0.0657557)
(-0.0600167 -0.0321155 -0.0614871)
(-0.045674 -0.0367125 -0.0590959)
(-0.0254773 -0.0382935 -0.0499647)
(-0.00784472 -0.0338447 -0.0383)
(0.00464867 -0.0308543 -0.0321828)
(-0.0177308 0.0327704 -0.357234)
(-0.0653481 0.0702295 -0.307671)
(-0.111556 0.0672031 -0.2411)
(-0.128335 0.0192001 -0.202609)
(-0.132368 -0.0242525 -0.16172)
(-0.130579 -0.0351436 -0.140098)
(-0.10692 -0.0374811 -0.127185)
(-0.0694703 -0.0494299 -0.106991)
(-0.0327529 -0.050687 -0.0791732)
(-0.00628341 -0.0436487 -0.064751)
(-0.0293729 0.0600018 -0.26837)
(-0.0458618 0.0985217 -0.298511)
(-0.0601246 0.114086 -0.281448)
(-0.0228265 0.0612801 -0.258686)
(-0.171583 -0.00865865 -0.245497)
(-0.222311 -0.0615069 -0.216805)
(-0.161423 -0.122207 -0.147539)
(-0.100765 -0.118999 -0.14952)
(-0.0425333 -0.132036 -0.153891)
(-0.00322497 -0.125886 -0.12999)
(0.0216769 0.123114 0.0168716)
(0.0131996 0.138257 -0.0225398)
(0.0171036 0.072756 6.79535e-05)
(0.10911 0.126258 0.03919)
(0.164707 0.187956 -0.0104431)
(0.102393 0.16266 -0.0569609)
(0.0515533 -0.0752487 0.225433)
(-0.0600594 -0.119485 0.187067)
(-0.145597 -0.221282 -0.0788663)
(-0.102287 -0.256793 -0.239715)
(0.00357552 -0.11777 0.0821818)
(0.0512536 -0.0801089 0.11748)
(0.0974188 -0.124215 0.0418089)
(0.151071 -0.104497 0.00560653)
(0.266783 0.0978593 0.0904824)
(0.278096 0.227669 0.0871723)
(0.228454 0.169443 0.225994)
(0.10672 0.0711305 0.388289)
(-0.11367 0.0336114 0.234034)
(-0.184727 -0.141123 0.0905736)
(-0.0162424 0.0382907 0.0396346)
(0.0156862 0.0181903 0.0436708)
(0.10814 -0.0825236 -0.023313)
(0.112354 -0.125417 -0.0976471)
(0.202805 0.0629612 0.00458534)
(0.270203 0.24022 0.084268)
(0.272542 0.287832 0.206189)
(0.205818 0.185476 0.393072)
(-0.0829681 0.136206 0.362427)
(-0.140895 0.102794 0.167837)
(-0.0108244 0.0969504 -0.00763786)
(0.0288573 0.0439464 0.0194547)
(0.111558 -0.0650105 -0.0247777)
(0.0659099 -0.125836 -0.155337)
(0.102262 0.0631256 -0.113737)
(0.178363 0.251156 -0.000105559)
(0.223157 0.34537 0.173696)
(0.224514 0.288503 0.369435)
(-0.0237162 0.24625 0.377694)
(-0.0987549 0.198721 0.184147)
(-0.00174779 0.116477 0.00735331)
(0.0246258 0.0552103 0.0671266)
(0.0742323 -0.0258175 -0.0575808)
(-0.0120447 -0.072508 -0.230049)
(-0.00624528 0.0673566 -0.195381)
(0.0542176 0.25356 -0.0231892)
(0.132326 0.344689 0.188322)
(0.173708 0.335067 0.368896)
(0.0146111 0.319376 0.342037)
(-0.0717777 0.26562 0.146739)
(-0.0165571 0.130355 0.0990368)
(-0.0254711 0.0429572 0.0459958)
(-0.0439899 -0.00738792 -0.16174)
(-0.107101 -0.0082893 -0.268324)
(-0.11028 0.0891254 -0.195255)
(-0.0524917 0.217645 0.0383025)
(0.0741194 0.283564 0.278897)
(0.0772122 0.331449 0.368437)
(0.00435928 0.347341 0.265535)
(-0.0888761 0.317627 0.0717893)
(-0.051762 0.152935 0.14635)
(-0.111169 0.0670515 -0.0482725)
(-0.1666 0.0139943 -0.220663)
(-0.200368 0.0360468 -0.2603)
(-0.193213 0.121698 -0.156692)
(-0.0958839 0.184041 0.122427)
(0.0178712 0.235665 0.345014)
(-0.00839068 0.310432 0.305938)
(-0.0529234 0.370175 0.157186)
(-0.117842 0.331839 -0.0116194)
(-0.0833492 0.210526 0.165195)
(-0.17202 0.112206 -0.0816785)
(-0.246132 0.0334906 -0.224719)
(-0.272538 0.066233 -0.243578)
(-0.248282 0.163593 -0.149113)
(-0.117064 0.220241 0.101841)
(-0.0192157 0.237858 0.28221)
(-0.0435005 0.312224 0.188599)
(-0.100238 0.389907 0.0518334)
(-0.0664356 0.307981 -0.0810187)
(-0.0950174 0.287523 0.205252)
(-0.189308 0.178865 -0.0419929)
(-0.289539 0.0636938 -0.195098)
(-0.321866 0.0954749 -0.21751)
(-0.279114 0.20245 -0.176515)
(-0.141796 0.300771 -0.0440276)
(-0.0206275 0.335235 0.0731709)
(-0.0226356 0.383894 0.0396518)
(-0.0710636 0.418418 -0.0416469)
(0.0366009 0.288501 -0.101465)
(-0.0722405 0.356337 0.272483)
(-0.160913 0.268537 0.0602498)
(-0.260541 0.142577 -0.123603)
(-0.323197 0.122361 -0.176607)
(-0.276706 0.217173 -0.181043)
(-0.151143 0.328891 -0.162783)
(-0.0232817 0.408119 -0.12297)
(0.0111011 0.45681 -0.0871723)
(-0.00778538 0.430328 -0.0831121)
(0.110457 0.281933 0.0152781)
(-0.0136687 0.381343 0.337744)
(-0.117189 0.32788 0.175548)
(-0.206886 0.23119 -0.0244183)
(-0.253162 0.17503 -0.130943)
(-0.237335 0.22056 -0.152373)
(-0.136865 0.306791 -0.17962)
(-0.0442513 0.408669 -0.171988)
(-0.0112201 0.486222 -0.0969281)
(-0.00383224 0.431043 0.0140972)
(0.0242348 0.227876 0.172039)
(-0.00425782 0.00265982 -0.0185755)
(-0.00777067 4.95248e-05 -0.0115213)
(-0.00717364 -0.00089525 -0.0107993)
(-0.00629365 -0.000843567 -0.0106224)
(-0.00589027 -0.00073807 -0.00989942)
(-0.00549003 -0.000770329 -0.00845831)
(-0.00482031 -0.000725599 -0.00672564)
(-0.00363375 -0.000487286 -0.00516841)
(-0.00245777 -9.91758e-05 -0.00339517)
(-0.00139568 0.000344312 -0.00236422)
(-0.00591071 0.0104426 -0.0246407)
(-0.0113035 0.00329531 -0.0137247)
(-0.0102449 -0.000219959 -0.0118715)
(-0.0087874 -0.000669019 -0.0128386)
(-0.00839979 -0.000795463 -0.0128803)
(-0.00807919 -0.00148614 -0.0113728)
(-0.00696177 -0.00232712 -0.00903841)
(-0.00461122 -0.00322299 -0.00663265)
(-0.00202107 -0.00356841 -0.00376435)
(0.000104695 -0.00327395 -0.00160754)
(-0.00775187 0.0204061 -0.0312352)
(-0.0145253 0.00889298 -0.0135387)
(-0.0113116 0.00103077 -0.00797114)
(-0.00843058 -0.000679812 -0.0104258)
(-0.00786501 -0.00172091 -0.0130837)
(-0.00769685 -0.00371004 -0.0123861)
(-0.00697859 -0.0062371 -0.00976408)
(-0.00519544 -0.00853049 -0.00733877)
(-0.0031057 -0.00898323 -0.00531005)
(-0.000571444 -0.0071352 -0.00491457)
(-0.00750621 0.0309054 -0.0460814)
(-0.0118617 0.0161823 -0.0247267)
(-0.00957538 0.00437055 -0.0132258)
(-0.00767562 0.00160873 -0.0129677)
(-0.0078599 -0.00138068 -0.0153058)
(-0.00794786 -0.00493404 -0.0150925)
(-0.00722171 -0.00765741 -0.0118951)
(-0.00548583 -0.0105967 -0.00814133)
(-0.00488868 -0.0110302 -0.00623842)
(-0.00147606 -0.0084943 -0.00910989)
(-0.00248747 0.0377294 -0.0751638)
(-0.00527441 0.024472 -0.0507469)
(-0.00952847 0.0103975 -0.0347298)
(-0.0116325 0.00333864 -0.0283637)
(-0.012065 -0.00300997 -0.0233393)
(-0.00767833 -0.00953271 -0.0171668)
(-0.00473818 -0.0150934 -0.0120279)
(-0.00530065 -0.0187682 -0.00961714)
(-0.00895926 -0.0172339 -0.00999861)
(-0.00404769 -0.0123814 -0.0148907)
(0.0002902 0.0397832 -0.10518)
(-0.00585449 0.0375691 -0.0758562)
(-0.0254595 0.0261742 -0.0603777)
(-0.0324596 0.013595 -0.0489136)
(-0.0295504 -0.00355107 -0.0369543)
(-0.018615 -0.0145053 -0.0285291)
(-0.00762042 -0.0113739 -0.0204077)
(-0.000706565 -0.00878792 -0.0118404)
(-0.00439306 -0.0131067 -0.00642441)
(-0.00277802 -0.0171577 -0.0123109)
(0.00354279 0.0218327 -0.144036)
(-0.0196038 0.0327055 -0.124925)
(-0.062236 0.0288872 -0.10158)
(-0.0702915 0.00644302 -0.0788241)
(-0.061216 -0.0201713 -0.0666057)
(-0.0493069 -0.0344763 -0.0676145)
(-0.0303799 -0.0418793 -0.0598184)
(-0.0126434 -0.0420405 -0.0421627)
(-0.00662143 -0.0322162 -0.0255469)
(-0.00235483 -0.0236773 -0.0232457)
(-0.0140662 -0.0373966 -0.277798)
(-0.0448863 -0.00306492 -0.242913)
(-0.0839013 0.00292127 -0.193968)
(-0.101853 -0.0190396 -0.153373)
(-0.123442 -0.0324156 -0.133331)
(-0.12524 -0.0372529 -0.127298)
(-0.0982758 -0.0554368 -0.111257)
(-0.0637666 -0.066599 -0.0842533)
(-0.0397239 -0.0592911 -0.0560815)
(-0.0131227 -0.057614 -0.0460458)