/*--------------------------------*- C++ -*----------------------------------*\
| =========                 |                                                 |
| \\      /  F ield         | OpenFOAM: The Open Source CFD Toolbox           |
|  \\    /   O peration     | Version:  2312                                  |
|   \\  /    A nd           | Website:  www.openfoam.com                      |
|    \\/     M anipulation  |                                                 |
\*---------------------------------------------------------------------------*/
FoamFile
{
    version     2.0;
    format      ascii;
    arch        "LSB;label=32;scalar=64";
    class       volScalarField;
    location    "0.72";
    object      p_rgh;
}
// * * * * * * * * * * * * * * * * * * * * * * * * * * * * * * * * * * * * * //

dimensions      [1 -1 -2 0 0 0 0];

internalField   nonuniform List<scalar> 
8000
(
395.542
395.067
395.097
395.56
396.339
397.298
398.294
399.187
399.867
400.324
395.181
394.773
394.935
395.58
396.573
397.758
398.968
400.039
400.832
401.412
394.367
394.116
394.587
395.625
397.057
398.694
400.32
401.742
402.757
403.582
392.933
392.836
393.846
395.528
397.693
400.113
402.447
404.425
405.771
406.99
390.925
391.1
392.729
395.332
398.628
402.229
405.637
408.504
410.695
412.328
386.275
387.012
390.095
394.228
398.911
404.384
409.936
414.707
418.572
419.803
373.446
377.681
383.698
390.476
397.777
406.31
415.3
423.056
428.533
427.789
194.065
220.119
258.917
292.872
308.023
347.127
401.564
434.941
444.784
447.82
18.7215
18.4294
24.5655
41.1978
85.6608
178.279
322.712
445.492
470.91
483.775
0.0989258
0.201512
0.383262
0.648561
1.16447
13.4031
103.695
348.592
490.78
509.221
-0.0311903
0.0160517
0.0630679
0.214597
0.459705
0.838321
3.89955
145.703
417.206
501.891
-0.172289
-0.130531
-0.108999
-0.0915261
0.0332133
0.230618
0.556378
4.57053
147.574
460.951
-0.225873
-0.190578
-0.176816
-0.200513
-0.13989
0.00745551
0.151244
0.310214
6.07092
250.083
-0.203266
-0.184616
-0.175884
-0.189256
-0.111087
-0.0561283
0.0353236
0.0792255
0.174056
8.64494
-0.177465
-0.176146
-0.174505
-0.156827
-0.0967445
-0.0659556
0.00587213
0.000684461
0.00343402
0.337289
-0.178309
-0.177358
-0.172932
-0.164659
-0.157129
-0.0650699
-0.0120042
-0.0265398
-0.0655108
0.0962615
-0.19067
-0.184003
-0.164816
-0.188988
-0.195775
-0.0760971
-0.053466
-0.0850319
-0.13412
-0.0498782
-0.212457
-0.212692
-0.193171
-0.215003
-0.231136
-0.129285
-0.135168
-0.170472
-0.206398
-0.0655791
-0.24277
-0.267862
-0.291605
-0.28307
-0.282214
-0.219432
-0.239923
-0.253461
-0.16456
0.0608625
-0.278619
-0.368297
-0.433955
-0.352494
-0.338431
-0.322063
-0.343096
-0.334039
0.196007
0.108791
395.332
394.823
394.793
395.178
395.865
396.726
397.627
398.443
399.071
399.516
394.949
394.508
394.607
395.172
396.063
397.133
398.226
399.203
399.906
400.47
394.064
393.792
394.23
395.189
396.503
397.994
399.464
400.807
401.715
402.378
392.464
392.405
393.319
395.002
397.085
399.318
401.357
403.417
404.429
405.363
389.893
390.218
392.12
394.856
398.098
401.394
404.272
406.922
408.429
410.167
385.296
386.248
389.258
393.488
398.494
403.688
408.368
412.85
416.007
417.471
368.492
373.72
382.07
390.507
398.701
406.712
414.116
421.123
426.496
427.001
163.034
187.237
244.138
315.146
370.554
409.944
420.921
432.417
439.798
442.35
0.290989
0.352442
0.555823
14.4483
59.2449
140.857
274.486
406.737
459.336
468.98
-0.0325961
0.00957641
0.0855061
0.102415
0.280149
0.903519
17.3187
117.904
319.21
388.148
-0.210227
-0.215264
-0.219534
-0.156092
-0.00919139
0.175606
0.419103
1.27717
44.2947
157.042
-0.315367
-0.312841
-0.329463
-0.325155
-0.203894
-0.0514839
0.0690864
0.225363
0.661307
8.12372
-0.353917
-0.307133
-0.314896
-0.365961
-0.295717
-0.116623
-0.0146126
0.0504918
0.1359
3.00677
-0.306493
-0.254192
-0.248847
-0.298833
-0.29671
-0.127286
-0.0552979
-0.0203527
-0.0521917
0.734782
-0.231235
-0.211527
-0.210277
-0.24153
-0.24704
-0.142338
-0.0909661
-0.0814952
-0.124438
0.131308
-0.198273
-0.197489
-0.20026
-0.234623
-0.250359
-0.146396
-0.125196
-0.142278
-0.194152
-0.0672142
-0.196717
-0.210256
-0.208338
-0.257742
-0.248785
-0.159617
-0.180533
-0.214159
-0.27539
-0.168226
-0.221317
-0.249983
-0.255599
-0.286046
-0.22783
-0.219699
-0.266798
-0.296469
-0.366211
-0.0346254
-0.267401
-0.324555
-0.373022
-0.326753
-0.239256
-0.308214
-0.371102
-0.410458
-0.455751
0.228545
-0.345257
-0.468661
-0.527721
-0.406582
-0.301325
-0.411366
-0.482922
-0.531777
-0.425976
0.361168
394.993
394.413
394.265
394.5
395.022
395.72
396.479
397.184
397.738
398.133
394.664
394.15
394.119
394.505
395.204
396.081
397.004
397.853
398.478
398.958
393.909
393.559
393.823
394.581
395.641
396.872
398.12
399.304
400.047
400.618
392.561
392.458
393.18
394.529
396.263
398.135
399.907
401.819
402.571
403.218
390.411
390.708
392.276
394.688
397.472
400.278
402.752
405.246
406.044
407.182
387.092
387.82
390.063
393.945
398.479
402.772
406.384
410.357
411.667
412.737
379.669
381.676
385.934
393.14
400.727
407.097
412.268
417.299
419.256
419.824
221.265
235.853
272.934
330.733
374.917
405.965
419.603
426.787
428.11
402.957
0.0600499
0.067662
4.75208
31.9267
76.1007
135.726
206.803
298.215
362.148
341.92
-0.0762302
-0.0340513
0.0333725
0.0457926
0.140231
0.507567
2.68073
17.0825
52.6574
97.6593
-0.219437
-0.211689
-0.220386
-0.197548
-0.130366
-0.0199181
0.140947
0.417074
0.860295
3.43019
-0.311934
-0.309529
-0.310773
-0.286626
-0.209725
-0.112838
-0.0351646
0.0579441
0.155382
0.971525
-0.33575
-0.325828
-0.3335
-0.33467
-0.253436
-0.130926
-0.0558859
-0.0251263
-0.0313663
0.256299
-0.314101
-0.2859
-0.283338
-0.292301
-0.242352
-0.142761
-0.0972763
-0.099264
-0.145112
0.0231663
-0.259745
-0.249984
-0.249214
-0.250298
-0.216754
-0.141604
-0.13664
-0.187243
-0.248514
-0.12924
-0.22237
-0.245477
-0.244859
-0.233672
-0.184926
-0.110621
-0.179279
-0.255953
-0.338816
-0.198338
-0.235852
-0.269353
-0.263864
-0.228823
-0.105856
-0.114984
-0.249102
-0.336964
-0.392253
-0.229188
-0.276189
-0.314819
-0.308814
-0.23084
-0.0196386
-0.189363
-0.338171
-0.41746
-0.436598
-0.243623
-0.348156
-0.403333
-0.417087
-0.244566
-0.0956666
-0.286774
-0.437484
-0.505619
-0.463922
-0.213506
-0.433113
-0.536596
-0.511547
-0.32686
-0.214694
-0.35168
-0.538225
-0.619022
-0.417875
0.0153795
394.468
393.785
393.486
393.514
393.809
394.287
394.856
395.415
395.877
396.212
394.192
393.584
393.378
393.524
393.948
394.56
395.254
395.919
396.441
396.848
393.602
393.156
393.193
393.635
394.328
395.203
396.133
397.003
397.63
398.145
392.632
392.437
392.856
393.734
394.909
396.248
397.561
398.749
399.443
400.164
391.228
391.48
392.613
394.294
396.264
398.223
399.967
401.517
402.366
403.251
389.109
389.9
391.826
394.436
397.479
400.41
402.935
405.03
406.067
406.836
384.919
386.984
391.116
396.182
401.091
405.15
408.273
410.576
410.742
411.425
296.687
304.941
323.99
343.036
362.663
382.367
399.221
417.061
414.852
349.85
5.54094
19.65
54.7811
94.286
128.457
153.351
167.238
189.599
181.061
201.902
-0.101425
-0.0349861
0.00312267
0.0141695
0.00685206
0.0508044
0.390938
1.05219
1.65495
9.2085
-0.182478
-0.115706
-0.125826
-0.170753
-0.161266
-0.114812
-0.0313645
0.0929789
0.232617
1.12295
-0.285891
-0.218944
-0.211457
-0.217862
-0.19592
-0.143821
-0.0895198
-0.0278878
0.0112989
0.286628
-0.299838
-0.226815
-0.233003
-0.250347
-0.20404
-0.133215
-0.0990505
-0.114715
-0.149215
0.0318306
-0.282958
-0.19623
-0.216246
-0.2432
-0.19168
-0.128791
-0.121093
-0.187504
-0.255387
-0.101273
-0.242066
-0.192579
-0.236061
-0.227117
-0.165384
-0.0993939
-0.131844
-0.2557
-0.290788
-0.178597
-0.216144
-0.250669
-0.274087
-0.20945
-0.110157
-0.0472829
-0.176157
-0.328097
-0.332923
-0.21832
-0.239141
-0.296693
-0.290652
-0.19179
-0.0313767
-0.0723053
-0.244305
-0.351443
-0.327926
-0.209343
-0.333543
-0.364911
-0.328686
-0.181347
-0.0481141
-0.103088
-0.237789
-0.391586
-0.303446
-0.171491
-0.409774
-0.454914
-0.407533
-0.227841
-0.16229
-0.127433
-0.240593
-0.394688
-0.293845
-0.141019
-0.480732
-0.543865
-0.479176
-0.343191
-0.256039
-0.113997
-0.242505
-0.436252
-0.299976
-0.108857
393.804
392.975
392.454
392.228
392.245
392.468
392.829
393.241
393.613
393.89
393.59
392.827
392.373
392.217
392.302
392.601
393.047
393.539
393.965
394.305
393.168
392.548
392.262
392.282
392.535
393.009
393.61
394.244
394.763
395.194
392.505
392.168
392.186
392.453
392.887
393.643
394.498
395.356
395.975
396.531
391.693
391.882
392.513
393.328
394.455
395.345
396.423
397.498
398.176
398.679
389.492
391.604
392.941
393.932
395.229
396.847
398.399
399.804
400.17
400.533
389.334
392.354
395.944
398.281
400.119
401.775
403.266
403.671
401.824
400.534
323.266
325.792
341.298
346.865
350.666
359.483
375.126
387.77
371.33
308.022
41.5536
95.7802
160.026
194.747
195.024
186.391
171.405
142.555
89.6058
115.623
-0.0915836
-0.00968628
-0.10619
-0.163056
-0.128593
-0.0642541
0.0161614
0.17952
0.518563
2.28843
-0.166478
-0.100026
-0.18424
-0.211123
-0.185789
-0.115691
-0.0677698
0.0193771
0.0832975
0.403235
-0.176933
-0.116925
-0.173996
-0.253755
-0.22973
-0.149454
-0.0517617
-0.0362672
-0.0622016
0.120836
-0.209602
-0.172521
-0.181266
-0.234195
-0.202185
-0.13494
-0.107095
-0.148833
-0.200502
0.000346116
-0.227518
-0.180887
-0.16604
-0.179201
-0.155438
-0.11315
-0.0998036
-0.188451
-0.210958
-0.100996
-0.252959
-0.18528
-0.17111
-0.171161
-0.129833
-0.0720747
-0.100471
-0.222117
-0.195991
-0.158168
-0.274858
-0.214075
-0.208008
-0.191185
-0.0982255
-0.0472432
-0.14
-0.271075
-0.247044
-0.163582
-0.297946
-0.323193
-0.292493
-0.202542
-0.0997306
-0.105743
-0.183276
-0.25623
-0.208889
-0.130148
-0.333398
-0.399518
-0.354918
-0.237055
-0.199089
-0.10367
-0.0869974
-0.240888
-0.165865
-0.11161
-0.408951
-0.482695
-0.417875
-0.329948
-0.313227
-0.125112
-0.0722397
-0.184491
-0.204893
-0.144761
-0.459462
-0.483815
-0.47179
-0.440744
-0.435376
-0.309127
-0.106404
-0.177599
-0.252147
-0.187824
393.026
392.006
391.234
390.731
390.394
390.338
390.505
390.801
391.105
391.345
392.881
391.896
391.143
390.618
390.292
390.265
390.474
390.848
391.21
391.521
392.596
391.706
391.028
390.527
390.211
390.27
390.615
391.108
391.594
391.986
392.31
391.619
391.075
390.586
390.206
390.244
390.672
391.375
391.98
392.617
391.782
391.661
391.505
391.156
390.82
391.063
391.861
392.714
393.355
393.85
383.571
391.668
392.747
392.094
391.526
391.614
392.463
393.624
393.96
394.675
387.861
395.039
396.998
396.9
396.198
395.787
396.765
396.797
393.957
394.404
323.949
310.621
346.929
383.774
380.488
376.797
374.109
369.278
333.066
275.689
100.683
179.315
222.097
224.468
187.232
142.113
122.951
98.9896
55.1802
80.8277
-0.0421926
-0.0678759
-0.30854
-0.335484
-0.222907
-0.120774
-0.00632391
0.127226
0.195624
0.819427
-0.120746
-0.190291
-0.388325
-0.429304
-0.31962
-0.130124
-0.0708883
-0.013466
-0.00215322
0.167324
-0.164816
-0.152245
-0.286225
-0.346746
-0.272201
0.0537685
0.145216
-0.010839
-0.136983
0.0330167
-0.19662
-0.178883
-0.205421
-0.270521
-0.220209
-0.117683
-0.0759789
-0.123639
-0.233651
-0.0323116
-0.269901
-0.189986
-0.172067
-0.205894
-0.169038
-0.12232
-0.0824713
-0.158201
-0.168284
-0.074106
-0.273352
-0.258632
-0.178549
-0.177502
-0.13849
-0.102609
-0.0880131
-0.164102
-0.147139
-0.0926945
-0.278271
-0.283339
-0.219653
-0.188727
-0.132513
-0.114678
-0.136899
-0.182334
-0.152359
-0.113065
-0.268207
-0.316463
-0.261644
-0.211633
-0.172445
-0.160166
-0.145234
-0.184195
-0.158046
-0.123747
-0.29527
-0.387945
-0.324627
-0.262786
-0.259044
-0.227109
-0.13671
-0.099876
-0.160109
-0.133564
-0.394294
-0.418978
-0.366269
-0.334624
-0.315233
-0.287939
-0.223863
-0.105472
-0.18393
-0.156302
-0.397355
-0.400967
-0.382285
-0.391924
-0.386633
-0.353119
-0.300456
-0.187159
-0.226396
-0.191761
392.141
390.899
389.797
388.869
388.266
387.989
388.017
388.26
388.543
388.781
392.058
390.813
389.628
388.638
387.922
387.652
387.713
388.037
388.398
388.716
391.918
390.605
389.33
388.156
387.167
386.965
387.161
387.693
388.235
388.717
391.965
390.749
389.183
387.649
386.287
385.909
386.226
387.076
387.873
388.711
392.123
391.111
389.271
387.131
384.816
384.818
385.698
387.154
388.271
389.046
393.398
392.062
390.253
386.782
383.69
382.946
384.274
386.41
387.549
388.89
389.11
395.045
394.894
391.245
385.642
383.982
385.743
388.595
387.327
387.791
355.59
365.185
389.381
399.111
363.451
373.601
390.314
375.322
319.269
256.263
196.469
209.823
188.255
112.16
42.4293
22.0831
34.7019
47.2429
33.2851
62.7285
-0.0314074
-0.215687
-0.398666
-0.203534
-0.09265
-0.0904959
-0.016746
0.120323
0.131482
0.36586
-0.152332
-0.404025
-0.589792
-0.480923
-0.188639
-0.0426756
-0.0320844
0.0124175
-0.0470761
0.0657958
-0.174452
-0.275783
-0.406771
-0.381056
-0.104957
0.120413
0.0786197
-0.0366923
-0.183413
-0.0366006
-0.239416
-0.259826
-0.295763
-0.280436
-0.183048
-0.0749853
-0.0458936
-0.100993
-0.234674
-0.0640848
-0.271663
-0.262529
-0.24825
-0.251499
-0.188546
-0.128272
-0.0897106
-0.12519
-0.124285
-0.026738
-0.264655
-0.27019
-0.245834
-0.214483
-0.159598
-0.125096
-0.100297
-0.130862
-0.0769399
0.0149794
-0.255085
-0.291668
-0.255575
-0.195517
-0.127929
-0.115969
-0.0976532
-0.130703
-0.110024
-0.0430824
-0.239439
-0.323926
-0.243477
-0.180074
-0.109018
-0.101172
-0.10242
-0.133304
-0.131091
-0.105854
-0.295298
-0.335036
-0.249459
-0.173931
-0.0963425
-0.108307
-0.144288
-0.161353
-0.15829
-0.137737
-0.366107
-0.342441
-0.254453
-0.174454
-0.0897783
-0.147339
-0.19317
-0.204919
-0.188945
-0.167207
-0.339362
-0.309646
-0.254476
-0.229771
-0.0251212
-0.101015
-0.208121
-0.255861
-0.219348
-0.1972
391.227
389.778
388.347
387.145
386.227
385.713
385.609
385.87
386.165
386.431
391.137
389.672
387.977
386.673
385.736
385.092
384.956
385.323
385.75
386.131
390.986
389.269
387.335
385.729
384.467
383.64
383.572
384.27
384.986
385.629
391.048
389.239
386.645
384.362
382.177
381.328
381.336
382.661
383.949
384.96
391.394
388.628
385.55
382.264
378.646
377.539
378.407
380.864
383.016
384.456
392.276
386.902
384.11
379.263
372.616
370.273
372.898
377.673
380.952
383.359
391.386
389.882
383.23
378.473
356.795
357.126
369.287
378.332
380.693
381.992
398.558
391.313
383.897
309.084
123.233
126.628
249.83
369.884
341.197
251.789
252.337
146.268
49.9072
2.7359
1.70128
0.946518
0.807402
9.74047
10.132
52.5921
-0.0472774
-0.222449
-0.0255582
0.476085
0.76711
0.222983
0.163411
0.198143
0.140399
0.375955
-0.343104
-0.4418
-0.137475
0.225305
0.356628
-0.0292712
0.0268106
0.0686093
-0.0290763
-0.00792112
-0.264117
-0.4436
-0.294212
-0.0818632
-0.173433
-0.0745506
-0.0426239
-0.0305406
-0.194345
-0.100318
-0.24136
-0.312662
-0.308396
-0.201103
-0.161462
-0.119185
-0.0854269
-0.0871288
-0.204197
-0.0872364
-0.266199
-0.287711
-0.248355
-0.177707
-0.164519
-0.130995
-0.115036
-0.109966
-0.134845
-0.0194382
-0.265417
-0.284683
-0.252342
-0.203295
-0.144797
-0.088934
-0.107253
-0.106075
-0.0584454
0.0262055
-0.26205
-0.302439
-0.250175
-0.163601
-0.0719757
0.0611941
-0.0474892
-0.112089
-0.0835119
0.0138813
-0.267706
-0.329234
-0.245999
-0.110623
0.0389786
0.328122
0.0506112
-0.152635
-0.123794
-0.0752378
-0.313053
-0.33629
-0.22394
-0.0770247
0.0338041
0.335527
0.0854932
-0.196606
-0.166975
-0.139704
-0.324744
-0.321889
-0.201235
-0.0183224
0.296757
0.0362251
0.285483
-0.220781
-0.197022
-0.161309
-0.277953
-0.287256
-0.20333
0.358249
0.51196
0.41629
0.538306
-0.227054
-0.215881
-0.185671
390.319
388.683
386.984
385.439
384.107
383.435
383.416
383.819
384.229
384.556
390.182
388.431
386.444
384.558
382.786
381.825
382.247
382.933
383.545
384.048
389.85
387.764
385.257
382.81
380.351
379.567
379.859
381.132
382.187
383.102
389.67
387.028
383.256
380.587
376.106
373.736
375.565
378.163
380.354
381.815
389.78
385.431
380.009
374.448
368.043
365.524
369.065
374.034
377.945
380.456
390.832
379.555
367.663
362.648
348.981
350.179
356.878
367.345
374.077
378.317
393.418
372.966
356.322
331.485
262.688
208.991
311.639
361.923
372.178
376.812
399.445
382.645
340.939
114.66
9.44495
2.68643
13.6359
182.133
334.27
265.705
220.374
38.2786
2.33137
2.08792
1.80069
1.35514
0.8853
0.800401
0.842215
55.4819
-0.0172834
0.2244
1.17648
1.53687
1.25647
0.662161
0.400971
0.323327
0.222525
0.157209
-0.387916
0.0644049
0.820973
0.989381
0.841086
0.196216
0.11603
0.101084
-0.00155808
-0.0309525
-0.424735
-0.265123
0.381827
0.529223
0.554655
0.0991459
-0.00842132
-0.0297257
-0.20391
-0.153117
-0.285197
-0.289883
-0.0999414
0.160304
0.463665
0.428493
-0.081283
-0.103245
-0.245083
-0.148036
-0.239082
-0.24728
-0.250472
-0.255348
-0.0357747
0.610333
-0.108604
-0.135785
-0.196799
-0.107159
-0.246583
-0.254626
-0.26219
-0.240596
0.142697
0.628223
-0.0863419
-0.133375
-0.120688
-0.0137348
-0.263007
-0.282866
-0.270093
-0.198903
0.475336
0.677133
-0.0616739
-0.143873
-0.0984274
0.00654349
-0.28194
-0.315575
-0.271501
-0.161338
0.208483
0.704931
0.144085
-0.182538
-0.135007
-0.0706384
-0.292505
-0.332092
-0.254121
-0.0213975
-0.0155906
0.293273
0.677247
-0.208633
-0.173488
-0.135905
-0.276424
-0.320533
-0.15451
0.382288
-0.043609
-0.0479032
0.667492
-0.203173
-0.199057
-0.157274
-0.243946
-0.294771
-0.0671538
0.447948
-0.0902859
-0.101616
0.68089
-0.176355
-0.209515
-0.170528
389.278
387.85
386.004
384.372
382.994
382.197
382.107
382.572
383.056
383.439
388.802
387.46
385.238
383.205
381.629
380.612
380.609
381.416
382.169
382.782
386.876
386.458
383.704
380.884
378.505
377.035
377.294
378.973
380.352
381.522
385.21
385.289
381.508
377.229
372.311
367.923
370.993
374.776
377.735
379.686
384.064
383.287
377.334
369.644
352.873
350.297
362.035
368.244
373.959
377.567
385.975
380.962
369
338.584
316.011
312.57
340.501
357.113
367.502
373.979
388.854
380.344
357.294
308.69
191.907
66.0813
153.779
327.493
361.812
371.527
380.618
348.722
210.54
63.7825
6.07599
2.36843
2.39175
30.8786
237.306
279.529
58.8258
5.23818
2.06131
1.78009
1.5157
1.39676
1.20955
0.828744
0.803156
75.9053
0.104206
0.700415
1.47077
1.1756
1.10739
0.851166
0.588242
0.432116
0.253006
0.0896494
-0.118097
0.421259
0.982805
0.878143
0.73706
0.447988
0.229188
0.143274
0.00853536
-0.0209002
-0.287245
0.351886
0.710681
0.5412
0.458395
0.180378
-0.00359904
-0.0367162
-0.214323
-0.179922
-0.251298
0.244218
0.43836
0.160758
0.378146
0.450322
-0.115894
-0.100101
-0.339453
-0.210702
-0.19785
0.199321
0.0148946
-0.13105
0.19755
0.541423
-0.13557
-0.142526
-0.317513
-0.166595
-0.2079
-0.163696
-0.262559
-0.197914
-0.0608017
0.565155
-0.120756
-0.175923
-0.194565
-0.0939972
-0.254918
-0.334784
-0.280823
-0.205758
-0.0870016
0.408696
0.0961923
-0.183464
-0.136626
-0.034444
-0.285627
-0.268708
0.297731
-0.110093
-0.0808425
-0.0635378
0.582929
-0.202999
-0.174741
-0.129039
-0.291237
-0.191223
0.626749
0.482275
-0.0588144
0.0290137
0.602044
-0.215876
-0.210597
-0.168581
-0.273523
-0.136924
0.687282
0.785507
0.00449487
0.0728591
0.631278
-0.212697
-0.20711
-0.185059
-0.236215
0.0769385
0.769085
0.846062
0.138676
-0.103766
0.660403
-0.182853
-0.209538
-0.193169
388.868
387.543
385.719
384.066
382.623
381.826
381.816
382.326
382.86
383.274
387.884
387.165
384.932
382.931
381.236
380.095
380.175
381.078
381.911
382.582
386.348
386.064
383.289
380.499
378.106
376.284
376.451
378.352
379.928
381.251
384.305
384.331
380.552
376.483
371.83
367.619
369.662
373.596
376.986
379.234
382.305
381.619
375.23
369.392
356.7
344.673
357.285
365.579
372.401
376.637
384.2
378.288
369.672
345.75
314.532
308.308
326.73
351.105
364.091
372.153
385.311
373.652
354.864
306.226
159.66
68.8998
85.1938
238.127
353.566
369.793
339.639
218.325
132.373
35.7637
3.02149
2.22488
2.11776
7.18934
145.341
298.678
12.8524
2.6611
2.11293
1.99546
1.83492
1.46398
1.16892
0.857098
0.721082
107.388
0.493386
1.24293
1.74334
1.68219
1.36945
0.858227
0.687797
0.483139
0.307793
0.127364
0.274096
0.507654
0.727859
1.25224
1.14377
0.462204
0.386954
0.211496
0.0425514
0.0400175
-0.0315831
0.115987
0.241489
0.20271
0.281484
0.147972
0.0830439
0.1279
-0.183807
-0.167435
-0.246847
0.0768084
-0.00740115
-0.0149189
-0.0222913
-0.0508518
-0.128066
-0.0220072
-0.359473
-0.252766
-0.201062
0.16887
-0.148392
-0.133362
-0.130056
-0.142572
-0.186951
-0.238593
-0.373674
-0.226073
-0.128496
0.080965
-0.215029
-0.187792
-0.0495543
-0.0212869
-0.218197
-0.233599
-0.260392
-0.164709
-0.190848
-0.132769
-0.259267
-0.204509
0.155977
0.194586
-0.260553
-0.231129
-0.211181
-0.148828
-0.290835
-0.386096
-0.302619
-0.221503
-0.0282239
0.264059
-0.205567
-0.268585
-0.225913
-0.19571
-0.284902
-0.371329
-0.297188
-0.180415
-0.138495
0.319716
0.232973
-0.314021
-0.167675
-0.245974
-0.254907
-0.309634
0.167106
-0.0245814
-0.143258
0.0194133
0.50533
-0.33764
-0.0793739
-0.26571
-0.205075
-0.161374
0.92428
0.0489707
-0.154415
-0.165084
0.54372
-0.300134
-0.045408
-0.248077
389.425
387.84
386.16
384.685
383.449
382.698
382.742
383.216
383.727
384.127
389.105
387.317
385.392
383.648
382.096
381.156
381.386
382.152
382.919
383.543
388.512
386.18
383.774
381.397
379.137
377.946
378.444
379.874
381.276
382.442
387.49
383.96
380.162
377.218
373.604
371.211
372.928
375.933
378.858
380.827
385.694
376.866
368.952
369.288
366.273
360.064
364.331
370.061
375.665
379.063
384.875
371.541
365.511
361.357
344.828
339.395
347.825
360.488
369.681
375.911
382.958
367.779
357.537
321.712
209.371
134.083
200.006
323.909
363.505
374.389
274.019
165.855
142.658
46.2372
4.66797
2.48946
4.30422
33.2296
241.821
305.51
2.36179
2.2602
2.56532
2.52019
2.20307
1.45458
0.965717
0.467156
0.463755
109.569
0.982282
1.49538
1.76263
1.87648
1.7073
0.784244
0.492521
0.348702
0.266227
0.35085
0.700829
0.555714
0.671175
1.44193
1.19698
0.528479
0.295553
0.112811
0.0581694
0.0836756
0.200178
0.125342
0.215765
0.606421
0.954455
0.207244
0.196428
0.136777
-0.147767
-0.143084
-0.219546
-0.105832
-0.0352625
-0.0969322
-0.115878
-0.144457
0.0926076
0.0467311
-0.288895
-0.263468
-0.247155
-0.209959
-0.144439
-0.170361
-0.201886
-0.231041
0.0230564
0.0490372
-0.398292
-0.264111
-0.227929
-0.251006
-0.200045
-0.145045
-0.18041
-0.268688
-0.238661
0.0584537
-0.303476
-0.206791
-0.243365
-0.293752
-0.237659
-0.010604
0.258538
-0.260683
-0.338812
-0.109995
-0.274926
-0.208513
-0.266195
-0.331387
-0.27427
0.0237772
0.460672
0.0255442
-0.413846
-0.365253
-0.32602
-0.285976
-0.242028
-0.310088
-0.284086
-0.0262842
0.501337
0.219814
-0.470475
-0.453979
-0.178988
-0.304874
-0.200781
-0.256221
-0.194752
-0.0560678
-0.0877063
0.22917
-0.466851
-0.483143
-0.188849
-0.262005
-0.133266
-0.147699
0.632331
-0.0355841
-0.169228
0.0917082
-0.166967
-0.423441
-0.131165
-0.285522
389.846
388.581
387.106
385.948
385.051
384.67
384.629
385.063
385.516
385.876
389.561
388.075
386.556
385.205
384.149
383.649
383.711
384.349
384.993
385.52
389.014
387.155
385.489
383.734
382.181
381.49
381.759
382.936
384.03
384.911
388.057
384.651
383.18
381.121
378.688
377.795
378.415
380.542
382.535
384.029
386.241
376.248
379.243
377.372
373.367
372.25
373.68
377.591
381.385
383.535
386.411
377.871
376.676
370.907
363.044
360.016
364.599
372.984
378.771
382.376
373.008
372.68
374.017
362.527
326.241
332.391
354.432
364.655
375.666
382.676
320.187
203.428
221.065
154.942
34.0004
29.9676
48.9185
197.374
359.733
305.322
24.9286
2.20927
2.34648
2.28706
2.00347
1.38207
0.443246
0.326341
2.79262
116.817
0.904879
1.27435
1.47178
1.7012
1.25509
0.417484
0.153939
0.160119
0.249788
0.423577
0.661826
0.660333
0.76912
0.533117
0.342917
0.071869
-0.0767132
-0.0247128
0.0589205
0.129338
0.0521414
0.103669
0.137053
-0.0616829
-0.203131
-0.207612
-0.193484
-0.179029
-0.144848
-0.112417
-0.126946
-0.0914674
-0.0791177
-0.189945
-0.253546
-0.282907
-0.262074
-0.188052
-0.261748
-0.239921
-0.176288
-0.175998
-0.117707
-0.233008
-0.276873
-0.303862
-0.144072
0.017865
-0.369848
-0.275737
-0.203191
-0.206582
0.464759
0.227109
-0.308101
-0.338085
-0.105515
-0.000966128
-0.337224
-0.244093
-0.212506
-0.138659
0.658722
0.599454
-0.310797
-0.406536
-0.346464
-0.170079
-0.33731
-0.270027
-0.183168
-0.104198
0.717441
0.646526
0.00663083
-0.475098
-0.497573
-0.429257
-0.415558
-0.36078
-0.0116043
-0.163637
0.784771
0.701477
0.494047
-0.554426
-0.553488
-0.555517
-0.390241
-0.221152
-0.0714337
-0.196417
0.115356
0.779253
0.602282
-0.569032
-0.564248
-0.55537
-0.320899
-0.199123
-0.142495
-0.182711
-0.146436
0.844532
0.683201
-0.397386
-0.521184
-0.481075
-0.189668
-0.0954954
390.665
389.522
388.443
387.599
387.036
386.863
387.029
387.471
387.93
388.262
390.376
389.168
388.053
387.042
386.415
386.24
386.504
387.115
387.708
388.177
389.875
388.614
387.29
386.065
385.056
384.957
385.492
386.545
387.486
388.159
389.067
387.411
386.159
384.576
383.199
382.783
383.63
385.497
386.938
388.139
387.805
385.13
384.741
382.57
380.486
379.98
381.538
384.913
387.494
388.886
375.295
383.943
382.896
379.447
375.629
374.709
377.566
384.12
387.107
389.005
351.533
381.47
384.66
380.073
371.498
369.921
372.394
382.691
387.374
390.146
345.915
287.318
301.028
329.91
212.243
175.723
242.9
384.722
380.06
284.745
87.6476
8.29874
2.22025
1.8649
2.73053
1.75925
8.18623
22.7047
33.4057
144.642
0.873245
1.2342
1.12709
0.807068
0.324714
0.070116
-0.0689229
0.0682004
0.265335
1.58263
0.438735
0.64136
0.582562
0.163623
-0.191156
-0.236644
-0.18163
-0.052441
0.0559701
0.154176
0.147456
0.113793
0.0116657
-0.189795
-0.295966
-0.323577
-0.295753
-0.205394
-0.147155
-0.087775
-0.0503883
-0.100883
-0.180219
-0.296563
-0.332911
-0.352515
-0.338085
-0.26391
-0.265358
-0.218621
0.295223
0.0733823
-0.148626
-0.290467
-0.340455
-0.354938
-0.358297
-0.275491
-0.353435
-0.274467
0.86166
0.32599
0.248452
-0.281288
-0.355706
-0.363475
-0.382448
-0.315176
-0.382932
-0.280702
0.590483
0.00547956
0.319403
-0.294077
-0.395975
-0.399798
-0.42389
-0.423819
-0.41491
-0.336204
-0.175255
-0.21863
0.107596
-0.320453
-0.43288
-0.455461
-0.487745
-0.547963
-0.507321
-0.435878
-0.201337
-0.205866
0.113079
-0.313584
-0.45336
-0.514589
-0.537637
-0.603345
-0.584274
-0.3235
-0.169788
-0.206831
0.114832
-0.292729
-0.476742
-0.551904
-0.551795
-0.57483
-0.542705
-0.252589
-0.165108
-0.0607234
-0.108991
-0.316902
-0.501397
-0.554212
-0.521967
-0.48824
-0.423365
-0.113224
391.555
390.678
389.953
389.5
389.264
389.337
389.672
390.172
390.645
390.974
391.271
390.389
389.71
389.295
388.986
389.083
389.528
390.157
390.748
391.182
390.656
389.963
389.221
388.753
388.463
388.692
389.369
390.334
391.156
391.74
389.691
389.254
388.572
388.028
387.714
387.918
388.921
390.458
391.703
392.585
380.793
388.352
387.784
387.169
386.998
387.585
389.231
391.72
393.498
394.548
357.276
383.927
386.978
385.906
385.36
386.357
388.852
393.032
395.17
395.894
354.55
382.3
388.729
387.128
386.429
386.709
390.331
396.554
398.255
398.79
363.615
334.839
315.483
342.022
380.893
386.929
401.641
406.981
389.004
304.628
87.8396
40.8415
10.4104
11.7717
29.8019
56.0666
91.3554
100.283
96.5367
162.794
1.67002
1.47555
0.715056
0.337863
0.0707852
-0.19719
-0.0698297
0.261068
0.461823
3.18728
0.887813
0.821479
0.254195
-0.1599
-0.282544
-0.245124
-0.139652
-0.00304913
0.0698603
0.205423
0.71539
0.352453
-0.0632576
-0.289939
-0.316108
-0.332626
-0.27181
-0.187027
-0.14231
-0.0547245
-0.125927
-0.221885
-0.332245
-0.37099
-0.365863
-0.355721
-0.324698
-0.26881
-0.257002
-0.192329
0.397877
-0.136594
-0.357867
-0.38868
-0.382812
-0.370938
-0.355014
-0.310845
-0.354071
-0.269776
0.726941
0.581197
-0.297727
-0.366558
-0.392141
-0.386255
-0.372963
-0.369613
-0.404488
-0.310392
0.837052
0.76102
-0.261994
-0.372483
-0.416146
-0.409275
-0.396416
-0.426595
-0.448284
-0.379414
0.900033
0.824489
-0.264149
-0.395433
-0.438767
-0.436156
-0.450983
-0.513586
-0.543599
-0.503424
0.961561
0.527716
-0.276027
-0.395221
-0.454958
-0.474744
-0.507632
-0.57952
-0.600093
-0.586072
0.866814
0.562911
-0.249169
-0.394413
-0.469984
-0.508772
-0.531312
-0.594411
-0.58841
-0.548826
0.173222
0.60542
-0.204381
-0.400299
-0.489091
-0.529347
-0.518744
-0.523509
-0.508297
-0.374644
392.503
391.874
391.449
391.307
391.408
391.749
392.262
392.846
393.364
393.722
392.263
391.663
391.301
391.22
391.365
391.788
392.428
393.146
393.766
394.21
391.492
391.251
391.004
391.046
391.371
392.021
392.896
393.885
394.702
395.286
390.333
390.592
390.653
390.85
391.343
392.251
393.587
395.073
396.22
396.999
381.797
389.227
390.316
390.862
391.972
393.555
395.426
397.617
399.095
400.022
370.933
386.981
389.974
390.392
391.797
394.268
397.305
400.618
402.464
403.239
376.729
390.461
391.571
392.36
395.231
399.07
402.939
406.308
407.432
408.191
370.784
345.115
312.079
320.492
362.784
394.346
407.535
409.916
409.333
357.131
69.9157
56.0333
42.0945
53.3718
94.9075
144.55
169.36
163.911
158.746
193.982
1.69817
0.84386
0.151011
-0.0466811
-0.104698
0.0702105
0.44016
0.782698
0.978103
6.1845
0.980426
0.453128
-0.225674
-0.343945
-0.244314
-0.168814
-0.0392421
0.0934218
0.150195
0.517467
0.946655
0.387777
-0.299735
-0.334581
-0.286737
-0.290113
-0.222009
-0.154552
-0.117216
0.0250009
0.195008
-0.396996
-0.435905
-0.404017
-0.367779
-0.337156
-0.302029
-0.256627
-0.243824
-0.151725
-0.369722
-0.412921
-0.465016
-0.43459
-0.409194
-0.389851
-0.360315
-0.308176
-0.350167
-0.257536
-0.21239
-0.277214
-0.447148
-0.433454
-0.431481
-0.420477
-0.374804
-0.342904
-0.402514
-0.321325
0.236786
-0.1337
-0.412569
-0.422247
-0.437409
-0.437082
-0.386552
-0.37362
-0.436198
-0.384525
0.680312
-0.0298349
-0.377144
-0.413912
-0.447392
-0.458766
-0.433967
-0.452421
-0.518497
-0.490213
0.560479
0.0312877
-0.342621
-0.400792
-0.458382
-0.485041
-0.48886
-0.54481
-0.593728
-0.578824
0.041312
0.0552871
-0.323624
-0.385082
-0.456316
-0.50059
-0.503289
-0.570141
-0.60697
-0.580799
-0.0639682
0.0410217
-0.316662
-0.377484
-0.439538
-0.506217
-0.458331
-0.518954
-0.527307
-0.502553
393.473
393.013
392.819
392.954
393.324
393.893
394.578
395.269
395.847
396.248
393.252
392.862
392.765
392.978
393.454
394.152
394.984
395.812
396.487
396.98
392.743
392.556
392.635
393.069
393.803
394.782
395.893
396.999
397.861
398.498
392.025
392.073
392.447
393.19
394.262
395.728
397.346
398.908
400.001
400.917
390.785
391.433
392.319
393.681
395.586
397.71
399.973
402.313
403.724
404.803
390.177
390.765
392.015
393.704
396.239
399.504
403.003
406.577
408.584
409.821
390.918
391.298
392.494