/*--------------------------------*- C++ -*----------------------------------*\
| =========                 |                                                 |
| \\      /  F ield         | OpenFOAM: The Open Source CFD Toolbox           |
|  \\    /   O peration     | Version:  2312                                  |
|   \\  /    A nd           | Website:  www.openfoam.com                      |
|    \\/     M anipulation  |                                                 |
\*---------------------------------------------------------------------------*/
FoamFile
{
    version     2.0;
    format      ascii;
    arch        "LSB;label=32;scalar=64";
    class       volScalarField;
    location    "0.48";
    object      p;
}
// * * * * * * * * * * * * * * * * * * * * * * * * * * * * * * * * * * * * * //

dimensions      [1 -1 -2 0 0 0 0];

internalField   nonuniform List<scalar> 
8000
(
364.369
364.662
365.553
366.97
368.774
370.782
372.778
374.525
375.837
376.586
315.7
316.016
316.966
318.482
320.422
322.594
324.766
326.677
328.104
328.944
267.36
267.73
268.816
270.543
272.774
275.286
277.807
280.038
281.698
282.689
219.694
220.112
221.378
223.391
226.023
229.044
232.097
234.826
236.838
238.055
172.485
173.148
174.652
176.98
180.193
184.004
187.836
191.274
193.739
195.231
126.098
126.827
128.649
131.661
135.46
140.273
145.298
149.848
153.154
155.025
79.6726
80.5522
82.6437
86.2187
91.5768
97.8395
104.72
110.924
115.471
117.704
35.5836
36.1311
37.5711
40.7512
47.1813
56.0952
65.744
74.7926
81.5919
84.8463
7.08229
7.16472
7.55795
8.71003
11.4395
18.1858
29.9774
42.966
53.4718
58.9914
-0.225098
-0.213008
-0.186063
-0.139634
-0.111569
0.257131
4.49543
15.2586
28.7978
37.9926
-0.269297
-0.262877
-0.249878
-0.235599
-0.232552
-0.258746
-0.27146
0.232748
9.30965
21.3963
-0.337494
-0.336867
-0.333153
-0.327008
-0.32765
-0.338535
-0.413747
-0.658073
0.915341
17.2718
-0.420303
-0.420887
-0.421116
-0.418321
-0.417024
-0.427534
-0.454529
-0.484904
0.138628
10.9952
-0.488311
-0.488267
-0.488639
-0.488861
-0.492218
-0.509942
-0.539353
-0.588889
-0.635065
-0.59323
-0.544978
-0.544559
-0.546219
-0.551368
-0.566439
-0.604656
-0.653626
-0.667497
-0.631698
-0.646449
-0.598015
-0.599311
-0.603741
-0.613578
-0.635033
-0.674632
-0.741146
-0.722651
-0.658956
-0.651256
-0.651057
-0.653608
-0.659667
-0.67156
-0.691426
-0.725644
-0.754493
-0.718803
-0.684048
-0.685545
-0.703617
-0.706104
-0.711719
-0.722742
-0.740408
-0.76516
-0.772209
-0.738344
-0.728119
-0.743682
-0.754607
-0.756545
-0.760578
-0.768616
-0.781327
-0.800946
-0.818587
-0.803824
-0.798663
-0.797341
-0.804743
-0.805949
-0.808194
-0.812995
-0.820557
-0.830255
-0.849587
-0.857405
-0.854061
-0.843442
363.305
363.59
364.498
365.955
367.81
369.872
371.922
373.708
375.051
375.824
314.504
314.811
315.786
317.361
319.354
321.589
323.819
325.772
327.225
328.093
265.976
266.327
267.433
269.208
271.522
274.117
276.71
278.991
280.676
281.696
217.888
218.328
219.641
221.769
224.505
227.631
230.779
233.57
235.601
236.862
170.292
170.963
172.509
174.867
178.388
182.311
186.269
189.781
192.123
193.791
123.864
124.513
126.3
129.491
133.569
138.516
143.584
148.156
151.401
153.253
76.9606
77.9086
80.1335
83.7917
89.5639
96.3707
103.236
109.254
113.632
115.635
36.1017
36.646
38.0448
40.5274
47.0325
55.8086
65.3769
73.6631
79.6404
81.8696
9.59055
9.92517
10.9152
12.695
15.9829
21.3844
30.9529
41.5414
50.0795
54.0485
-0.265013
-0.255985
-0.238594
-0.203834
-0.0790647
1.31644
6.74521
15.4804
25.0748
29.8358
-0.29259
-0.287523
-0.277246
-0.269453
-0.277922
-0.24469
-0.270456
1.1026
9.75283
10.2687
-0.358538
-0.359111
-0.356352
-0.355236
-0.367239
-0.35724
-0.431113
-0.60084
-0.153076
1.01854
-0.433879
-0.436628
-0.441342
-0.439293
-0.435647
-0.441508
-0.484254
-0.578266
-0.504121
0.115907
-0.49433
-0.497561
-0.500979
-0.500765
-0.500509
-0.508378
-0.539698
-0.576741
-0.595017
-0.635563
-0.550895
-0.552283
-0.555248
-0.559838
-0.57822
-0.607457
-0.638214
-0.637201
-0.626257
-0.639887
-0.602203
-0.604587
-0.609443
-0.622269
-0.652971
-0.705758
-0.737854
-0.720951
-0.671159
-0.663115
-0.651941
-0.655047
-0.662298
-0.678348
-0.704915
-0.762983
-0.799728
-0.766615
-0.713906
-0.689563
-0.702734
-0.705622
-0.711491
-0.72431
-0.745368
-0.790176
-0.83426
-0.793431
-0.763402
-0.739204
-0.753161
-0.755259
-0.758735
-0.766802
-0.777525
-0.800587
-0.843617
-0.839349
-0.831775
-0.803265
-0.80335
-0.804334
-0.806086
-0.810081
-0.812571
-0.813178
-0.832512
-0.859459
-0.866008
-0.855168
361.296
361.563
362.51
364.049
366.019
368.209
370.379
372.264
373.677
374.48
312.303
312.586
313.605
315.264
317.395
319.779
322.149
324.213
325.744
326.639
263.415
263.727
264.886
266.79
269.255
272.027
274.789
277.201
278.971
280.017
214.805
215.151
216.525
218.798
221.746
225.109
228.479
231.439
233.568
234.844
166.717
167.087
168.806
171.566
175.111
179.307
183.502
187.228
189.809
191.34
119.351
119.943
121.364
124.685
129.278
134.782
140.104
144.993
148.278
150.008
71.0956
72.3702
75.0838
79.2346
85.1151
91.9999
99.1367
105.318
109.468
111.261
33.4422
33.4828
33.7719
37.3088
43.9848
51.8063
60.38
68.4998
73.9485
75.406
6.47029
6.85241
7.78596
9.78171
13.1153
18.2256
26.3704
35.6448
42.1287
44.205
-0.303038
-0.295265
-0.280184
-0.259844
-0.173291
0.923306
4.70909
11.1933
16.3176
16.7862
-0.328803
-0.323619
-0.314889
-0.312178
-0.324525
-0.322918
-0.334802
-0.358088
1.41106
0.561793
-0.365609
-0.365828
-0.365875
-0.369539
-0.381021
-0.393778
-0.428947
-0.533027
-0.597669
-0.681596
-0.428777
-0.432635
-0.439083
-0.447497
-0.454096
-0.466386
-0.494412
-0.531386
-0.58435
-0.483577
-0.48361
-0.48603
-0.490832
-0.49821
-0.50961
-0.518189
-0.542057
-0.552814
-0.575499
-0.581041
-0.539244
-0.541346
-0.547526
-0.558259
-0.57696
-0.593243
-0.605221
-0.606843
-0.63296
-0.653702
-0.594002
-0.597286
-0.603988
-0.617873
-0.645699
-0.678484
-0.686612
-0.684507
-0.70899
-0.702021
-0.647016
-0.650993
-0.657398
-0.671726
-0.700796
-0.744899
-0.762636
-0.754164
-0.754452
-0.711896
-0.699091
-0.70289
-0.706963
-0.719895
-0.74612
-0.78566
-0.812362
-0.79826
-0.792901
-0.747767
-0.750326
-0.752751
-0.755033
-0.761866
-0.772945
-0.796995
-0.817025
-0.814228
-0.821693
-0.811849
-0.800908
-0.801964
-0.802499
-0.804477
-0.802529
-0.801657
-0.806568
-0.825022
-0.835118
-0.851888
358.573
358.798
359.806
361.466
363.598
365.965
368.302
370.324
371.836
372.679
309.253
309.479
310.563
312.372
314.703
317.301
319.872
322.098
323.741
324.68
259.7
259.912
261.147
263.26
266.007
269.08
272.12
274.744
276.649
277.749
210.021
210.149
211.594
214.19
217.581
221.4
225.185
228.451
230.752
232.101
160.192
160.257
162.011
165.335
169.681
174.551
179.351
183.491
186.291
187.931
109.876
110.115
112.668
116.83
122.265
128.334
134.571
140.094
143.68
145.568
59.0748
61.3626
64.132
69.0405
76.1738
84.2499
91.8388
98.8808
103.568
105.344
20.8043
20.6859
21.651
25.4987
32.9033
41.9575
51.7971
60.6105
66.033
66.6974
1.92936
2.07092
2.42965
3.53207
5.72686
10.2592
17.6375
26.7603
32.0331
31.8818
-0.402811
-0.377132
-0.346882
-0.301233
-0.230284
-0.0813768
1.30804
4.97289
7.61755
5.43866
-0.359762
-0.361818
-0.352136
-0.342915
-0.323617
-0.324868
-0.355676
-0.335208
-0.280272
-0.29451
-0.358461
-0.353004
-0.348469
-0.358362
-0.371007
-0.383228
-0.40926
-0.43447
-0.443619
-0.430655
-0.415905
-0.416155
-0.422364
-0.43776
-0.454798
-0.470109
-0.492201
-0.506253
-0.503134
-0.458709
-0.469857
-0.470806
-0.476433
-0.488818
-0.509646
-0.534909
-0.551703
-0.553906
-0.548708
-0.531746
-0.526855
-0.529205
-0.534708
-0.545895
-0.564803
-0.587744
-0.605419
-0.611481
-0.627276
-0.629964
-0.58309
-0.587228
-0.593169
-0.604256
-0.624815
-0.650331
-0.67173
-0.68782
-0.71488
-0.704354
-0.638889
-0.643572
-0.648976
-0.660477
-0.682126
-0.715074
-0.739562
-0.758984
-0.770976
-0.723246
-0.693658
-0.698129
-0.700331
-0.711167
-0.729833
-0.762434
-0.789255
-0.797926
-0.793489
-0.761058
-0.746418
-0.749205
-0.7499
-0.755863
-0.762782
-0.782624
-0.808302
-0.814983
-0.802339
-0.805674
-0.797747
-0.798832
-0.798372
-0.800234
-0.799298
-0.79958
-0.816124
-0.832313
-0.831401
-0.840991
355.347
355.513
356.612
358.428
360.762
363.346
365.886
368.075
369.708
370.603
305.606
305.723
306.939
308.945
311.532
314.401
317.223
319.648
321.433
322.432
255.18
255.237
256.61
259.013
262.128
265.599
268.999
271.903
273.984
275.161
203.811
203.827
205.52
208.534
212.51
216.97
221.324
225.008
227.549
229.008
151.001
151.352
153.598
157.487
162.762
168.755
174.499
179.256
182.318
184.121
95.679
97.439
100.677
105.791
112.773
120.74
128.351
134.843
138.726
140.675
46.131
47.553
49.4493
54.744
63.4832
74.159
84.4785
92.2356
96.9747
98.7552
11.2046
11.5872
10.8059
12.9787
19.4178
30.1236
42.1902
52.4242
56.8454
57.4023
-0.30417
-0.189702
0.0765711
0.309142
1.53129
4.40217
10.339
19.0364
22.9099
20.6225
-0.4351
-0.423873
-0.346603
-0.309302
-0.260231
-0.212047
-0.0716504
1.24809
1.91856
0.869085
-0.298798
-0.326062
-0.307288
-0.313425
-0.32393
-0.288812
-0.324263
-0.309911
-0.245769
-0.249876
-0.331729
-0.32261
-0.315214
-0.330629
-0.345872
-0.354811
-0.375107
-0.398101
-0.363824
-0.3299
-0.399229
-0.387577
-0.388996
-0.399577
-0.420295
-0.440156
-0.462156
-0.483475
-0.472672
-0.434921
-0.454325
-0.448835
-0.452666
-0.46421
-0.482295
-0.503367
-0.521097
-0.540605
-0.537251
-0.511631
-0.511195
-0.512746
-0.517337
-0.528992
-0.545109
-0.563962
-0.578341
-0.594212
-0.602777
-0.584583
-0.567956
-0.574472
-0.578778
-0.589442
-0.604956
-0.630664
-0.644316
-0.658588
-0.670824
-0.644264
-0.627142
-0.635126
-0.637148
-0.647615
-0.661818
-0.690712
-0.715016
-0.715721
-0.714187
-0.695611
-0.687132
-0.693261
-0.692177
-0.700702
-0.711876
-0.73605
-0.764194
-0.76671
-0.753659
-0.744893
-0.743592
-0.746797
-0.743741
-0.748481
-0.753133
-0.766472
-0.792101
-0.79739
-0.786968
-0.788305
-0.79591
-0.79607
-0.793443
-0.795108
-0.795547
-0.796851
-0.813918
-0.824354
-0.826055
-0.829264
352.074
352.102
353.355
355.323
357.874
360.678
363.424
365.782
367.539
368.489
301.873
301.862
303.225
305.396
308.276
311.436
314.519
317.154
319.089
320.152
250.277
249.938
251.75
254.591
258.097
262.004
265.799
269.006
271.272
272.538
196.422
196.283
198.637
202.38
207.116
212.335
217.345
221.493
224.301
225.892
139.84
140.225
143.549
148.665
155.263
162.538
169.458
174.896
178.253
180.319
68.4254
74.9367
85.1037
93.0866
102.487
112.494
122.188
129.22
133.745
135.942
14.6897
20.603
32.4042
38.7252
49.7164
63.5774
76.2756
85.3708
90.2878
92.5599
1.64976
2.26632
4.40026
5.11558
9.84794
19.4658
33.2279
44.6746
48.338
49.4003
0.0797807
-0.237132
0.0262418
0.0704535
0.125031
1.5186
5.87409
13.7514
17.8324
13.7737
-0.10767
-0.236349
-0.21252
-0.197624
-0.261436
-0.254796
-0.213209
-0.0980878
0.102749
-0.0355363
-0.199081
-0.244429
-0.245963
-0.258084
-0.297979
-0.323524
-0.315622
-0.320205
-0.288723
-0.232226
-0.302804
-0.282465
-0.281437
-0.292753
-0.315685
-0.336456
-0.354522
-0.380446
-0.378394
-0.334733
-0.38369
-0.358093
-0.355707
-0.364214
-0.38416
-0.40911
-0.430589
-0.45278
-0.464188
-0.432174
-0.438716
-0.428433
-0.4287
-0.437553
-0.455068
-0.474483
-0.492496
-0.510801
-0.527376
-0.500472
-0.496488
-0.495785
-0.497836
-0.506925
-0.521135
-0.537974
-0.553894
-0.567398
-0.573829
-0.556977
-0.558897
-0.56247
-0.562713
-0.571126
-0.583283
-0.597492
-0.613814
-0.623333
-0.624823
-0.615011
-0.628846
-0.628496
-0.624715
-0.632385
-0.641264
-0.658788
-0.671818
-0.679269
-0.681407
-0.673939
-0.696969
-0.691522
-0.684079
-0.68824
-0.695389
-0.708463
-0.724513
-0.727611
-0.728464
-0.726167
-0.753596
-0.746333
-0.738119
-0.739446
-0.743561
-0.750693
-0.765405
-0.770878
-0.771252
-0.772334
-0.79987
-0.7919
-0.78755
-0.787842
-0.790231
-0.792988
-0.801954
-0.810744
-0.814437
-0.816479
349.141
349.069
350.571
352.639
355.297
358.276
361.19
363.691
365.553
366.551
298.565
298.459
300.028
302.328
305.335
308.769
312.07
314.889
316.953
318.069
245.795
245.13
247.341
250.429
254.479
258.749
262.889
266.376
268.799
270.145
191.912
188.763
191.722
196.295
202.028
208.05
213.688
218.3
221.374
223.062
134.575
133.373
133.729
139.386
147.905
156.702
164.722
171
174.627
176.83
43.4912
39.69
62.7011
78.1249
92.1589
104.663
116.267
124.248
129.407
131.887
7.44959
3.12943
12.4546
24.4479
38.1048
54.2507
68.6958
79.1595
84.449
87.2129
1.36347
0.637999
1.26374
1.99129
4.92809
12.4943
25.3807
37.7708
41.7777
43.136
0.278458
0.0566973
0.124775
0.146224
0.0604481
0.168125
3.57126
10.5968
14.8046
10.7832
-7.07806e-05
-0.0584893
-0.0628997
-0.104764
-0.188605
-0.294209
-0.281047
-0.249597
-0.181247
-0.144106
-0.191534
-0.126722
-0.170732
-0.212131
-0.26656
-0.30915
-0.334858
-0.304763
-0.273978
-0.236604
-0.307005
-0.222292
-0.249403
-0.266584
-0.297634
-0.324979
-0.345975
-0.3595
-0.357805
-0.325078
-0.376292
-0.322293
-0.332129
-0.338618
-0.362258
-0.390457
-0.415682
-0.432359
-0.443238
-0.419728
-0.421736
-0.403828
-0.408271
-0.415249
-0.434303
-0.455913
-0.47675
-0.491708
-0.517815
-0.495444
-0.489146
-0.47639
-0.478227
-0.485729
-0.501919
-0.520082
-0.538537
-0.554398
-0.569634
-0.549998
-0.565594
-0.546818
-0.545568
-0.55216
-0.565373
-0.580915
-0.597685
-0.612192
-0.616357
-0.602897
-0.643551
-0.615763
-0.613372
-0.615419
-0.625051
-0.63677
-0.651315
-0.660671
-0.663839
-0.657568
-0.724331
-0.684731
-0.678409
-0.675183
-0.681541
-0.689711
-0.702263
-0.708334
-0.711465
-0.710535
-0.776036
-0.743867
-0.734807
-0.729153
-0.733632
-0.739111
-0.74908
-0.755028
-0.758056
-0.759254
-0.803143
-0.781914
-0.780176
-0.777797
-0.782897
-0.787664
-0.794587
-0.801327
-0.804887
-0.806603
346.748
346.971
348.727
350.721
353.416
356.42
359.429
362.018
363.945
364.979
295.715
295.77
297.907
300.084
303.262
306.768
310.152
313.083
315.215
316.382
242.658
241.298
244.144
247.192
251.632
256.275
260.622
264.311
266.818
268.216
188.615
184.915
185.896
191.002
197.868
204.704
210.778
215.717
218.95
220.785
123.221
123.758
126.257
130.015
140.995
151.914
160.809
167.908
171.662
174.128
41.074
25.2843
36.454
60.4843
81.7765
98.2303
110.924
120.237
125.826
128.585
7.05751
2.09812
4.17516
13.3656
28.5576
47.5371
62.8039
74.3023
80.3306
83.3671
1.13503
0.413714
0.463901
0.788426
2.97348
8.98873
20.7644
33.2117
38.9849
39.6026
0.17638
0.0118661
0.0656511
-0.00945937
0.0214594
-0.0355679
1.96052
8.29263
12.6052
9.45371
0.104861
-0.026568
-0.0471124
-0.128009
-0.201605
-0.280343
-0.314097
-0.259934
-0.226636
-0.176914
0.314683
-0.0740928
-0.136011
-0.20641
-0.277447
-0.308079
-0.347162
-0.308749
-0.274534
-0.24519
0.00628005
-0.18619
-0.23101
-0.261683
-0.300252
-0.324823
-0.344968
-0.352195
-0.345943
-0.319225
-0.294615
-0.290855
-0.314665
-0.32528
-0.356636
-0.384425
-0.409642
-0.422778
-0.427884
-0.40725
-0.374454
-0.371056
-0.389653
-0.398057
-0.422757
-0.446665
-0.470383
-0.481783
-0.497128
-0.486291
-0.430664
-0.43608
-0.45565
-0.46594
-0.488672
-0.508185
-0.530671
-0.541993
-0.55875
-0.544745
-0.51959
-0.504572
-0.523595
-0.532373
-0.551119
-0.567328
-0.584553
-0.597694
-0.607388
-0.594806
-0.644589
-0.584574
-0.598447
-0.597865
-0.61156
-0.624073
-0.635958
-0.64529
-0.650666
-0.64653
-0.761925
-0.667915
-0.672933
-0.661046
-0.67032
-0.678119
-0.687376
-0.694516
-0.698925
-0.698878
-0.803817
-0.735658
-0.732771
-0.717253
-0.724612
-0.729978
-0.737892
-0.743911
-0.747905
-0.749408
-0.8093
-0.749474
-0.77107
-0.764248
-0.774549
-0.780358
-0.787753
-0.793417
-0.79699
-0.798817
345.084
345.369
347.81
349.94
352.468
355.36
358.316
360.917
362.867
363.915
292.99
293.504
297.09
299.349
302.338
305.573
308.934
311.889
314.055
315.244
237.565
237.233
242.577
246.128
250.304
255.041
259.285
262.917
265.488
266.909
176.204
176.908
182.281
188.294
195.725
202.782
209.01
214.065
217.364
219.251
100.44
109.484
111.583
119.883
134.563
148.282
158.155
165.65
169.802
172.336
47.504
31.2529
20.4298
34.6714
70.6056
92.7307
106.88
117.578
123.493
126.396
45.0779
2.96007
1.98783
4.63923
20.0591
42.376
58.6843
70.8008
77.6226
80.9015
7.97411
0.283047
0.0849716
0.090115
2.68707
8.53561
18.1003
32.3861
37.2688
37.6572
1.02629
-0.165695
0.0377023
-0.112561
-0.0701884
0.0219592
1.09095
7.08301
11.4774
8.90515
0.720479
-0.0865408
-0.0137862
-0.152821
-0.288896
-0.275951
-0.294619
-0.258571
-0.237939
-0.20707
2.34968
-0.0548591
-0.130383
-0.232899
-0.318796
-0.329326
-0.344381
-0.322378
-0.285561
-0.260261
1.98856
-0.137039
-0.212187
-0.265697
-0.3165
-0.345451
-0.359481
-0.356514
-0.345683
-0.322631
0.503744
-0.24038
-0.287837
-0.318745
-0.357204
-0.386148
-0.407951
-0.417426
-0.420078
-0.402808
-0.419489
-0.337551
-0.366201
-0.383895
-0.415014
-0.440932
-0.463964
-0.474765
-0.485916
-0.47751
-0.446177
-0.404942
-0.426667
-0.445746
-0.475785
-0.49927
-0.521838
-0.53194
-0.545988
-0.53863
0.438587
-0.437321
-0.49007
-0.508426
-0.534948
-0.556286
-0.574895
-0.586553
-0.596787
-0.588715
1.74448
-0.507035
-0.569966
-0.574625
-0.597576
-0.612128
-0.625627
-0.63594
-0.642308
-0.63918
0.200589
-0.63485
-0.664309
-0.64336
-0.659924
-0.667638
-0.677501
-0.685323
-0.690476
-0.691329
-0.639229
-0.663641
-0.729615
-0.702122
-0.716101
-0.720373
-0.729554
-0.736124
-0.740806
-0.742796
-0.754729
-0.605174
-0.743529
-0.741739
-0.763968
-0.771133
-0.781129
-0.786859
-0.79127
-0.79338
345.358
345.97
349.128
351.005
352.814
355.245
357.973
360.483
362.402
363.441
293.901
292.628
298.81
300.824
302.968
305.627
308.551
311.417
313.55
314.732
239.519
232.247
243.717
249.161
251.301
254.946
258.945
262.382
264.911
266.312
181.344
163.237
173.63
186.831
195.537
202.142
208.389
213.392
216.656
218.538
120.513
96.8295
89.7052
88.6342
123.615
145.171
156.585
164.596
168.916
171.471
86.0487
44.5249
21.0957
23.6195
54.7465
86.0242
103.717
116.255
122.379
125.346
88.0722
12.7513
2.75132
5.56139
9.72427
38.4307
56.2083
69.2125
76.324
79.7109
33.9179
1.06075
0.0476611
0.535605
2.26324
9.47653
17.7341
31.9064
36.4573
36.7593
2.59955
0.0934508
0.0804493
0.173412
0.0415316
0.291527
1.14634
6.61057
11.0481
8.73076
-0.184095
-0.080495
0.0505633
0.0311941
-0.214156
-0.210467
-0.230731
-0.238311
-0.234843
-0.219353
1.33321
-0.0622924
-0.214318
-0.193534
-0.274179
-0.29602
-0.318794
-0.321638
-0.292583
-0.271281
1.53893
-0.118741
-0.240166
-0.259643
-0.308244
-0.346818
-0.366277
-0.367097
-0.354241
-0.333283
1.41519
-0.186683
-0.292535
-0.317245
-0.355509
-0.387287
-0.412689
-0.42194
-0.423028
-0.407512
-0.278016
-0.276191
-0.346798
-0.374968
-0.411266
-0.439905
-0.464598
-0.473791
-0.483259
-0.476728
0.227547
-0.330261
-0.38895
-0.429594
-0.468687
-0.494328
-0.518222
-0.527724
-0.541597
-0.536477
3.18925
-0.307834
-0.433737
-0.487874
-0.527654
-0.550792
-0.570338
-0.582393
-0.59278
-0.586588
4.45679
-0.415698
-0.525814
-0.562953
-0.588661
-0.606732
-0.621968
-0.632223
-0.638554
-0.636357
2.61883
-0.732412
-0.677231
-0.647147
-0.653352
-0.663289
-0.673963
-0.681815
-0.686812
-0.687938
1.26628
-0.883355
-0.799416
-0.708907
-0.710657
-0.718049
-0.726824
-0.733078
-0.737713
-0.739473
-0.168235
-0.747365
-0.807713
-0.751888
-0.761409
-0.770324
-0.779451
-0.784534
-0.788555
-0.790501
346.044
345.712
348.836
350.954
352.835
355.348
358.138
360.634
362.537
363.567
294.796
293.161
298.722
300.73
303.015
305.755
308.753
311.57
313.682
314.854
240.811
235.985
246.274
249.397
251.395
255.126
259.04
262.517
265.037
266.429
184.389
169.02
182.173
190.071
196.142
202.495
208.593
213.534
216.782
218.646
129.13
106.303
99.4044
87.7278
123.647
145.601
156.821
164.795
169.074
171.576
113.796
64.1106
26.6687
25.225
51.4757
86.1948
103.725
116.597
122.51
125.424
117.992
21.9807
3.95707
5.89202
9.94032
38.2274
56.2887
69.4339
76.4231
79.7758
54.1272
1.84736
0.265917
0.658303
2.56336
10.8263
18.6394
32.2516
36.4685
36.8286
5.18807
0.29265
0.163744
0.388062
0.135056
0.482926
1.57366
6.7419
11.1246
8.72075
0.243125
0.148427
0.139516
0.141284
-0.168314
-0.193452
-0.225676
-0.245119
-0.239459
-0.224044
-0.0139268
0.0824357
-0.158622
-0.150787
-0.250655
-0.292087
-0.324511
-0.325802
-0.298466
-0.278488
-0.416995
0.113949
-0.280696
-0.277007
-0.307052
-0.347201
-0.373593
-0.371972
-0.358184
-0.336888
-0.254611
-0.0760114
-0.357386
-0.343809
-0.363926
-0.391734
-0.419378
-0.428808
-0.42759
-0.411172
1.96391
-0.257662
-0.362912
-0.380897
-0.414497
-0.443256
-0.46887
-0.479937
-0.48859
-0.481409
3.88756
-0.228792
-0.34413
-0.412325
-0.461757
-0.494662
-0.520377
-0.531423
-0.544673
-0.539356
1.63941
-0.0431221
-0.412338
-0.476928
-0.517712
-0.547795
-0.569975
-0.583442
-0.594688
-0.588245
1.57802
0.0340327
-0.595567
-0.590373
-0.58948
-0.605257
-0.620664
-0.631965
-0.639079
-0.63725
1.41387
0.212072
-0.745609
-0.678509
-0.655419
-0.661749
-0.672279
-0.680985
-0.686676
-0.687884
1.55969
1.38464
-0.715139
-0.691426
-0.690002
-0.710308
-0.722672
-0.731154
-0.736748
-0.738846
0.229496
3.68481
-0.284867
-0.691692
-0.720033
-0.754849
-0.772203
-0.78174
-0.787253
-0.789618
346.719
347.541
349.471
351.309
353.452
356.109
358.914
361.397
363.273
364.288
294.764
296.086
299.154
300.892
303.378
306.326
309.547
312.366
314.453
315.606
239.555
242.395
246.761
248.449
251.594
255.911
259.881
263.382
265.87
267.254
176.652
186.609
192.554
192.712
197.455
203.777
209.65
214.539
217.71
219.558
110.452
118.976
124.345
126.413
135.941
149.173
158.744
166.158
170.049
172.597
75.0748
35.8985
19.3475
30.7114
69.9205
92.3052
107.002
117.895
123.683
126.57
38.8659
0.833037
1.22273
3.03772
18.985
41.8756
58.8258
71.0971
77.8157
81.0235
4.39505
-0.409717
-0.272571
0.0126523
2.86147
8.95568
19.1055
32.6103
37.3365
37.6288
0.985186
0.024748
0.0563984
-0.0801305
-0.0759436
0.0997113
1.45269
7.28132
11.537
8.79739
1.88499
0.121788
0.0284331
-0.151245
-0.341573
-0.314877
-0.311199
-0.263386
-0.246847
-0.217224
0.0106307
-0.0683652
-0.155159
-0.227797
-0.319725
-0.33217
-0.354373
-0.331202
-0.297775
-0.274992
-0.312052
-0.231403
-0.2507
-0.274166
-0.32451
-0.357787
-0.376431
-0.37201
-0.359933
-0.33778
-0.359068
-0.330647
-0.315706
-0.330224
-0.370219
-0.40031
-0.424387
-0.435037
-0.438776
-0.419606
-0.335455
-0.372885
-0.368548
-0.391796
-0.425352
-0.45217
-0.474935
-0.488093
-0.500961
-0.490863
-0.352648
-0.438737
-0.418586
-0.45042
-0.480763
-0.506167
-0.529339
-0.542375
-0.554498
-0.544955
-0.500013
-0.550297
-0.494852
-0.519539
-0.539366
-0.560621
-0.578299
-0.591626
-0.601959
-0.593249
-0.505721
-0.637042
-0.605836
-0.597563
-0.601754
-0.614224
-0.62687
-0.63733
-0.64429
-0.642029
-0.503086
-0.678134
-0.721671
-0.664714
-0.663015
-0.667776
-0.676684
-0.684773
-0.69062
-0.691488
-0.669651
-0.680507
-0.812071
-0.709786
-0.71314
-0.71799
-0.727002
-0.734107
-0.739235
-0.741242
-0.775189
-0.66517
-0.814058
-0.745437
-0.757532
-0.767542
-0.777804
-0.78445
-0.789186
-0.791311
349.629
349.883
351.224
352.754
354.964
357.6
360.355
362.768
364.587
365.571
299.514
299.57
301.081
302.512
304.965
307.966
311.09
313.824
315.843
316.958
249.125
248.077
249.014
250.594
253.729
257.698
261.599
265.015
267.422
268.765
195.923
197.236
194.357
195.726
200.463
206.252
211.776
216.465
219.514
221.279
121.326
134.744
138.221
136.454
143.871
153.422
161.693
168.508
172.169
174.565
41.0213
22.4369
37.5807
66.1011
83.4398
98.7655
111.313
120.623
126.116
128.85
4.8404
1.16426
3.94961
13.0394
28.1325
47.3109
62.8834
74.5617
80.5938
83.5336
0.62509
-0.310865
0.112642
0.763103
2.86422
8.67047
20.7478
33.3437
39.1289
39.4349
0.0212059
-0.0207029
0.0283729
-0.0395005
-0.0172976
-0.0500864
1.97036
8.3095
12.5901
9.24428
-0.142424
-0.047124
-0.076451
-0.16857
-0.242503
-0.308788
-0.340189
-0.273166
-0.244025
-0.193861
-0.304632
-0.174056
-0.200371
-0.242065
-0.301004
-0.330311
-0.36951
-0.326265
-0.292405
-0.266164
-0.380167
-0.259718
-0.27997
-0.288248
-0.317415
-0.343381
-0.363725
-0.371339
-0.365399
-0.34199
-0.387698
-0.329703
-0.344642
-0.347459
-0.37284
-0.400516
-0.424075
-0.441309
-0.454728
-0.430738
-0.412074
-0.395211
-0.405849
-0.413496
-0.435381
-0.461919
-0.481563
-0.497107
-0.513809
-0.497269
-0.456185
-0.464854
-0.464847
-0.476479
-0.496786
-0.52008
-0.541436
-0.554922
-0.56366
-0.549087
-0.52778
-0.543484
-0.533986
-0.540873
-0.554799
-0.572382
-0.590129
-0.603908
-0.610059
-0.600226
-0.582602
-0.615062
-0.608753
-0.606073
-0.611892
-0.622462
-0.634886
-0.646199
-0.652785
-0.649795
-0.627288
-0.669455
-0.679771
-0.666969
-0.667457
-0.672699
-0.68136
-0.690261
-0.69687
-0.697632
-0.661785
-0.705998
-0.733585
-0.718926
-0.719525
-0.723148
-0.730319
-0.737924
-0.743573
-0.745723
-0.716571
-0.73544
-0.776496
-0.768094
-0.77064
-0.774866
-0.781598
-0.788082
-0.792608
-0.794706
352.136
352.277
353.312
354.944
357.143
359.725
362.35
364.649
366.385
367.325
302.082
302.097
303.221
304.919
307.345
310.274
313.242
315.838
317.768
318.823
251.066
250.441
251.683
253.628
256.711
260.365
264.08
267.304
269.585
270.864
200.368
197.194
197.569
200.345
204.618
209.747
214.847
219.182
222.089
223.706
127.577
139.898
140.826
143.956
150.552
158.288
165.677
171.74
175.249
177.386
34.7128
42.6269
69.3728
80.508
93.3447
105.563
116.598
124.686
129.798
132.247
6.18277
3.61158
15.3572
23.428
37.5691
53.9894
68.7312
79.3807
84.767
87.4489
0.468541
0.0704425
1.22937
1.54768
4.38096
11.9183
24.9512
37.7735
42.0866
42.9915
0.0860305
-0.0833749
0.0765276
0.109333
0.0331741
0.0554476
3.37412
10.3854
14.6492
10.5979
-0.0166218
-0.186941
-0.13155
-0.137577
-0.20658
-0.315934
-0.312505
-0.269968
-0.200156
-0.152362
-0.209772
-0.240905
-0.222801
-0.239319
-0.285299
-0.328404
-0.362082
-0.324625
-0.291779
-0.260814
-0.316781
-0.269364
-0.272549
-0.285262
-0.310755
-0.339205
-0.363648
-0.381743
-0.378221
-0.346697
-0.369494
-0.32786
-0.341829
-0.355301
-0.380165
-0.406553
-0.431961
-0.456108
-0.467306
-0.435699
-0.422836
-0.404113
-0.41287
-0.42774
-0.448465
-0.471186
-0.491984
-0.512059
-0.519679
-0.497471
-0.480553
-0.478235
-0.479944
-0.494395
-0.512135
-0.533618
-0.552963
-0.568121
-0.569934
-0.556063
-0.544468
-0.547147
-0.544858
-0.555246
-0.569505
-0.587681
-0.60486
-0.616386
-0.620342
-0.610255
-0.602107
-0.608468
-0.609074
-0.613737
-0.621189
-0.632614
-0.645145
-0.656532
-0.664662
-0.660633
-0.654674
-0.662999
-0.669088
-0.668977
-0.671441
-0.676827
-0.685776
-0.69652
-0.704565
-0.706128
-0.703632
-0.718079
-0.724502
-0.721471
-0.722644
-0.725822
-0.732234
-0.741656
-0.748858
-0.751875
-0.76302
-0.764961
-0.774387
-0.772794
-0.775324
-0.778585
-0.783574
-0.791597
-0.797087
-0.799527
354.538
354.864
355.928
357.594
359.769
362.232
364.711
366.877
368.51
369.402
304.912
305.023
306.093
307.868
310.266
313.024
315.807
318.236
320.041
321.042
254.066
254.091
255.277
257.352
260.23
263.64
267.077
270.054
272.187
273.385
201.498
201.306
202.807
205.545
209.382
213.962
218.553
222.466
225.147
226.647
141.087
145.348
148.214
151.961
157.419
163.965
170.443
175.716
179.043
180.909
67.3422
80.371
88.3318
94.8757
103.667
113.309
122.738
129.78
134.287
136.404
11.7862
24.6119
31.7104
38.3238
49.5366
63.124
76.7752
85.697
90.6824
92.9365
2.08154
4.03481
3.67018
4.67466
9.3341
18.8394
32.8771
44.6252
48.7078
49.5563
-0.18658
-0.223476
-0.0340585
0.00833546
0.0656316
1.31356
5.52449
13.5391
17.7717
13.7349
-0.319626
-0.351088
-0.235657
-0.229658
-0.283988
-0.279484
-0.229388
-0.13456
0.0987053
-0.0486377
-0.323635
-0.307118
-0.276943
-0.285395
-0.318715
-0.345337
-0.333385
-0.335314
-0.304027
-0.264179
-0.335441
-0.302437
-0.299794
-0.309165
-0.329682
-0.357029
-0.381574
-0.403524
-0.389473
-0.349371
-0.382208
-0.36046
-0.367232
-0.382512
-0.406304
-0.435803
-0.463368
-0.481216
-0.467302
-0.435194
-0.438411
-0.432431
-0.437435
-0.452599
-0.476116
-0.505152
-0.527238
-0.542418
-0.529353
-0.502732
-0.49643
-0.500469
-0.503144
-0.517922
-0.539881
-0.568768
-0.588098
-0.600526
-0.594794
-0.573565
-0.558441
-0.564189
-0.5641
-0.574827
-0.593881
-0.620097
-0.638879
-0.646063
-0.64402
-0.629754
-0.618239
-0.622281
-0.62103
-0.625139
-0.633847
-0.650115
-0.666521
-0.672766
-0.681263
-0.67612
-0.673734
-0.675621
-0.675342
-0.674597
-0.674704
-0.678508
-0.690172
-0.70312
-0.714993
-0.717077
-0.722747
-0.726676
-0.727894
-0.725982
-0.723953
-0.722856
-0.72812
-0.743408
-0.755291
-0.759642
-0.77656
-0.77834
-0.780206
-0.779452
-0.778542
-0.778988
-0.78209
-0.793515
-0.802721
-0.80553
357.381
357.773
358.825
360.481
362.566
364.896
367.22
369.247
370.772
371.616
307.859
308.179
309.302
311.098
313.381
315.962
318.548
320.802
322.477
323.423
257.788
258.189
259.374
261.343
264.044
267.162
270.294
273.015
274.987
276.109
206.617
207.057
208.483
210.975
214.433
218.478
222.534
226.033
228.479
229.877
153.014
154.461
156.567
159.838
164.506
170.046
175.503
180.123
183.153
184.899
96.5745
98.9376
102.331
107.266
113.88
121.614
129.052
135.486
139.426
141.335
44.9968
46.5774
50.0391
55.2761
63.5581
74.4977
84.721
92.6526
97.4804
99.2839
11.144
11.0669
10.3845
12.6317
19.1343
29.8283
42.0231
52.444
57.2627
57.8314
-0.283226
-0.15351
-0.0620919
0.218005
1.39773
4.10507
10.0265
18.6928
22.9768
20.8657
-0.459777
-0.412263
-0.356756
-0.338185
-0.290192
-0.225721
-0.075746
1.14595
1.85466
0.937473
-0.372406
-0.35286
-0.335377
-0.343783
-0.347839
-0.299236
-0.330255
-0.325585
-0.262959
-0.258119
-0.343697
-0.335595
-0.335137
-0.346611
-0.362471
-0.378108
-0.401476
-0.409344
-0.363076
-0.336695
-0.400385
-0.394577
-0.400492
-0.417445
-0.447356
-0.485143
-0.504727
-0.495774
-0.467664
-0.438372
-0.458389
-0.458185
-0.464583
-0.483853
-0.517256
-0.56138
-0.585325
-0.580904
-0.560544
-0.52458
-0.517719
-0.520954
-0.526103
-0.54664
-0.583169
-0.622766
-0.652933
-0.665005
-0.643586
-0.596541
-0.574653
-0.577833
-0.581309
-0.59748
-0.629206
-0.663872
-0.693102
-0.70703
-0.688837
-0.660557
-0.628774
-0.630575
-0.631156
-0.63639
-0.647977
-0.670197
-0.695977
-0.70878
-0.707971
-0.697006
-0.681747
-0.682103
-0.680676
-0.678533
-0.673055
-0.673407
-0.695636
-0.713442
-0.731544
-0.731144
-0.735274
-0.733631
-0.732002
-0.728385
-0.720904
-0.71211
-0.720912
-0.744565
-0.763921
-0.769388
-0.786977
-0.785863
-0.78482
-0.782463
-0.778056
-0.774058
-0.776234
-0.793702
-0.809282
-0.814687
360.219
360.666
361.71
363.291
365.269
367.461
369.638
371.533
372.958
373.758
310.965
311.428
312.537
314.237
316.388
318.794
321.193
323.286
324.843
325.74
261.525
262.026
263.251
265.187
267.701
270.549
273.4
275.888
277.711
278.77
211.825
212.325