/*--------------------------------*- C++ -*----------------------------------*\
| =========                 |                                                 |
| \\      /  F ield         | OpenFOAM: The Open Source CFD Toolbox           |
|  \\    /   O peration     | Version:  2312                                  |
|   \\  /    A nd           | Website:  www.openfoam.com                      |
|    \\/     M anipulation  |                                                 |
\*---------------------------------------------------------------------------*/
FoamFile
{
    version     2.0;
    format      ascii;
    arch        "LSB;label=32;scalar=64";
    class       volScalarField;
    location    "0.985";
    object      alpha.water;
}
// * * * * * * * * * * * * * * * * * * * * * * * * * * * * * * * * * * * * * //

dimensions      [0 0 0 0 0 0 0];

internalField   nonuniform List<scalar> 
8000
(
1
1
1
1
1
1
1
1
1
1
1
1
1
1
1
1
1
1
1
1
1
1
1
1
1
1
1
1
1
1
1
1
1
1
1
1
1
1
1
1
1
1
1
1
1
1
1
1
1
1
1
1
1
1
1
1
1
1
1
1
0.999871
0.999997
1
1
1
1
1
1
1
0.995437
0.999997
0.999999
1
1
1
1
0.979364
0.94372
0.924589
0.92507
0.999997
0.999999
0.986352
0.94517
0.834765
0.642825
0.484571
0.412521
0.392021
0.384314
0.999966
0.912808
0.691667
0.49054
0.217273
0.0478804
0.00657682
0.000929002
0.000297366
0.000326932
0.380755
0.278872
0.120243
0.0286603
0.00171153
0.000356941
5.78675e-05
1.22746e-05
1.70078e-05
0.000112562
7.3745e-05
7.71252e-05
0.000290797
0.000930851
0.000293131
4.57411e-05
1.23009e-05
1.04069e-05
1.22999e-05
0.000100615
7.2466e-05
0.000141902
0.000161928
0.000194172
6.01595e-05
1.61387e-05
3.91493e-05
2.75995e-05
0.000118093
0.000121803
2.72648e-05
6.93448e-05
8.18185e-05
5.59366e-05
1.30556e-05
6.06834e-06
5.78879e-05
0.00012451
0.000362322
0.000358478
8.30407e-06
1.61342e-05
2.75956e-05
1.65732e-05
7.00107e-06
1.91392e-05
4.74401e-05
0.000247419
0.000396713
0.000417088
8.20999e-06
8.83032e-06
1.14909e-05
5.26277e-06
5.37337e-06
3.11513e-05
6.99871e-05
0.000308961
0.00041549
0.000444252
8.30407e-06
8.65211e-06
4.51356e-06
1.97143e-06
5.42858e-06
2.70109e-05
0.000136239
0.000361238
0.000328856
0.000195513
3.36291e-05
6.15297e-06
1.9308e-06
1.5355e-06
4.91387e-06
2.08988e-05
0.000222198
0.000362127
0.000361238
0.000337104
4.30133e-05
6.59969e-06
1.29156e-06
1.4471e-06
5.75155e-06
5.66946e-05
0.000162868
0.000361238
0.000359096
0.000196845
4.29738e-05
7.53468e-06
1.22953e-06
1.29157e-06
5.79512e-05
0.000104829
5.68221e-05
0.000104359
0.000127762
4.13546e-05
1
1
1
1
1
1
1
1
1
1
1
1
1
1
1
1
1
1
1
1
1
1
1
1
1
1
1
1
1
1
1
1
1
1
1
1
1
1
1
1
1
0.999947
1
1
1
1
1
1
1
1
0.999785
0.995558
0.999939
1
1
1
1
1
1
1
0.999969
0.99934
1
1
1
1
1
1
1
1
0.999998
0.999999
1
1
0.990744
0.95254
0.917563
0.890636
0.870898
0.86474
0.999995
0.998896
0.913686
0.761134
0.574832
0.383236
0.265541
0.207363
0.173852
0.153723
0.679336
0.510926
0.312199
0.160669
0.0637883
0.00378749
0.000286802
4.84276e-05
4.39975e-05
7.14561e-05
0.125703
0.056268
0.00520305
0.00107095
0.000837734
0.000158586
1.78984e-05
2.19807e-05
2.8114e-05
8.75492e-05
6.80137e-05
0.000155404
0.00020926
0.000161359
0.000137031
1.50899e-05
1.03524e-05
9.79744e-06
1.91363e-05
0.000195914
5.06803e-05
3.58623e-05
5.03902e-05
3.14785e-05
1.9207e-05
4.48816e-06
2.8105e-05
2.4766e-05
0.000124827
0.000211279
9.4232e-06
1.07942e-05
0.000100484
2.96811e-05
4.10405e-06
2.50468e-06
4.62304e-05
0.000110479
0.000314019
9.17785e-05
8.20999e-06
0.000112656
0.000238851
8.20098e-05
3.6775e-06
4.73251e-06
5.22758e-05
0.000238258
0.000270439
3.91669e-05
8.21004e-06
0.000241651
0.000242229
0.000127385
2.59488e-06
1.54417e-05
0.00011349
0.000275871
0.000103839
5.23755e-05
8.21004e-06
0.000132317
0.000197117
6.61716e-05
2.81447e-06
4.17108e-05
0.00013686
0.000125246
2.22675e-05
0.000114192
3.10552e-05
3.00309e-06
1.10023e-05
3.33105e-06
5.47566e-06
8.0684e-05
0.000127656
5.59651e-05
1.12756e-05
0.000115583
4.24994e-05
1.2587e-06
1.462e-06
1.5355e-06
7.1321e-06
8.32959e-05
3.17163e-05
3.0677e-05
2.19743e-06
0.000129337
4.30067e-05
1.11072e-06
1.22687e-06
3.87494e-06
6.06296e-05
6.37659e-05
2.66184e-06
1.63853e-05
3.41506e-05
0.000218504
1
1
1
1
1
1
1
1
1
1
1
1
1
1
1
1
1
1
1
1
1
1
1
1
1
1
1
1
1
1
1
1
1
0.999999
1
1
1
1
1
1
1
1
1
1
1
1
1
1
1
0.999998
1
0.998776
0.998717
1
1
1
1
1
1
1
1
0.99993
0.999983
1
1
1
1
1
1
1
1
0.999989
0.999986
1
0.932559
0.844569
0.760433
0.697549
0.658345
0.639656
0.852354
0.81989
0.67718
0.450285
0.284379
0.158624
0.0829126
0.0496238
0.0311206
0.0223682
0.280662
0.179113
0.0654734
0.00990706
0.00231355
0.000632949
4.9961e-05
1.7411e-05
1.31124e-06
1.44858e-06
0.00374115
0.000576994
0.000434375
0.000311267
0.000266269
3.94197e-05
3.5041e-05
2.53408e-05
2.19587e-05
1.70075e-05
0.000116182
6.39277e-05
5.03892e-05
3.02727e-05
1.80257e-05
7.55226e-06
5.81506e-06
8.78712e-06
1.89638e-05
0.000199966
1.44555e-05
1.24199e-05
1.70016e-05
1.20283e-05
3.64738e-06
2.50439e-06
2.54105e-06
1.58292e-05
6.11325e-05
0.000215253
7.55037e-06
7.79449e-06
2.34961e-05
3.95931e-05
8.86478e-06
2.12447e-06
4.60185e-06
3.48203e-05
0.000144874
0.000135764
8.43096e-06
4.12114e-05
8.60764e-05
3.90791e-05
2.21687e-06
2.08183e-06
1.70697e-05
9.18596e-05
0.000133622
5.02918e-05
9.44384e-06
7.11478e-05
5.71275e-05
1.61134e-05
2.07208e-06
2.19221e-06
0.000108621
0.000156944
3.65126e-05
1.25204e-05
1.52753e-05
2.35309e-05
8.51507e-06
5.26432e-06
2.4762e-06
6.81709e-05
0.000129921
6.83329e-05
2.66758e-06
5.83534e-06
1.83857e-05
1.29116e-06
1.65673e-06
2.64954e-06
1.86355e-05
8.59922e-05
8.37579e-05
2.66768e-06
2.03252e-06
2.52807e-06
1.14313e-05
1.22419e-06
1.29116e-06
1.0723e-05
8.23885e-05
8.59922e-05
3.66559e-06
2.03253e-06
1.9451e-06
2.01681e-06
2.27725e-06
1.15261e-06
1.22419e-06
1.36289e-05
6.40444e-05
2.26545e-05
2.11693e-06
1.95104e-06
1.94004e-06
1.94509e-06
1
1
1
1
1
1
1
1
1
1
1
1
1
1
1
1
1
1
1
1
1
1
1
1
1
1
1
1
1
1
1
1
0.999999
1
1
1
1
1
1
0.999997
1
1
0.999999
1
1
1
1
1
0.999998
0.999982
1
1
1
1
1
1
1
1
1
1
1
1
1
1
1
1
1
0.999176
0.995565
0.99492
1
1
1
0.945414
0.851974
0.715125
0.573181
0.474463
0.436519
0.433023
0.607244
0.533642
0.380189
0.214528
0.111255
0.0507121
0.0124316
0.000648501
1.3362e-06
1.48473e-06
0.0570188
0.0207668
0.00134612
0.000500012
0.000254721
0.000126118
1.89078e-05
1.23748e-06
1.21121e-06
1.29973e-06
0.000661157
0.000329783
8.50798e-05
3.49876e-05
1.80398e-05
1.20287e-05
4.83255e-06
2.87772e-05
3.61767e-05
1.08177e-05
6.52576e-05
3.37038e-05
1.55008e-05
8.45185e-06
3.87279e-06
2.73094e-06
2.54105e-06
1.38416e-05
3.561e-05
6.2848e-05
8.14372e-06
7.79449e-06
1.3451e-05
1.46872e-05
3.43478e-06
2.12447e-06
2.33051e-06
8.22507e-06
3.05431e-05
6.27933e-05
5.07937e-06
6.71041e-06
3.82856e-05
1.64279e-05
2.12447e-06
2.08183e-06
2.12447e-06
2.33193e-06
1.61916e-05
2.61077e-05
1.20136e-05
7.18054e-06
7.60292e-05
6.62472e-06
2.07074e-06
2.07825e-06
2.08176e-06
2.76624e-06
6.49859e-06
1.37104e-05
1.00909e-05
3.80163e-05
2.45454e-05
2.07208e-06
2.05609e-06
2.07074e-06
1.71288e-05
1.62679e-05
7.56051e-06
7.03771e-06
1.70243e-05
1.74635e-05
2.47022e-06
2.08842e-06
3.5467e-06
6.0842e-05
0.000106554
2.12317e-05
2.07322e-06
2.78869e-06
3.55134e-06
1.55478e-06
1.61302e-06
8.16155e-06
7.77211e-05
8.59922e-05
7.42985e-05
7.94656e-06
1.98476e-06
2.14643e-06
1.22037e-06
1.27987e-06
1.60093e-06
3.18935e-05
8.0087e-05
7.7701e-05
4.7013e-06
1.98476e-06
1.95664e-06
1.98475e-06
1.07529e-06
3.11379e-06
2.15947e-05
3.15717e-05
2.40128e-05
8.1668e-06
2.02827e-06
1.95664e-06
1.9451e-06
1.95661e-06
1
1
1
1
1
1
1
1
1
1
1
1
1
1
1
1
1
1
1
1
1
1
1
1
1
1
1
1
0.999999
1
1
1
1
1
1
1
1
0.999999
0.999993
0.999999
1
1
1
1
1
1
1
1
0.999991
0.999997
1
1
1
1
1
1
0.999999
1
0.999997
0.999996
1
1
1
1
1
0.999999
0.995487
0.988543
0.985927
0.988351
0.937226
0.967113
0.935819
0.853543
0.745235
0.596817
0.463699
0.390064
0.368998
0.387925
0.346728
0.266392
0.198805
0.113005
0.0406046
0.00875722
5.02653e-05
1.45089e-05
1.21216e-06
1.29982e-06
0.00330933
0.000808879
0.000242033
8.6381e-05
8.55529e-06
2.12628e-05
1.25103e-05
1.85669e-05
1.14574e-06
1.20609e-06
0.000353496
8.39819e-05
1.8923e-05
1.06223e-05
7.93649e-06
6.26857e-06
1.9431e-05
1.97004e-05
5.82519e-06
1.89757e-06
3.46947e-05
1.26686e-05
1.03461e-05
8.29545e-06
7.05536e-06
3.81447e-06
7.37033e-06
2.15917e-05
2.16547e-05
2.60644e-06
5.07666e-06
7.82239e-06
2.91418e-05
2.2067e-05
5.80404e-06
2.1878e-06
2.16369e-06
7.75542e-06
2.04401e-05
6.5478e-06
3.31207e-06
1.9428e-05
6.435e-05
2.22165e-05
2.07971e-06
2.07874e-06
2.11431e-06
2.16342e-06
3.12617e-06
6.74403e-06
1.35951e-05
6.29306e-05
6.06372e-05
2.021e-05
2.05771e-06
2.06765e-06
2.07826e-06
2.15685e-06
2.11168e-06
3.69494e-06
5.50118e-05
5.46156e-05
2.29459e-05
2.51505e-06
2.06053e-06
2.06053e-06
2.13029e-06
2.01362e-06
1.8403e-06
2.35509e-06
2.50426e-05
1.24364e-06
1.30478e-06
1.86176e-06
1.22899e-05
1.83078e-05
1.68176e-05
3.03113e-06
1.88023e-06
2.31215e-06
1.2799e-06
1.31946e-06
1.37686e-06
3.84734e-06
3.17299e-05
4.60159e-05
1.19518e-05
2.86532e-06
2.00362e-06
2.09629e-06
1.0746e-06
4.90516e-06
2.30663e-05
2.25852e-05
1.83693e-05
1.47046e-05
3.03289e-06
2.05063e-06
1.98467e-06
2.12522e-06
9.08829e-07
2.15157e-06
3.42571e-05
4.3973e-05
1.15933e-05
3.78464e-06
2.09403e-06
2.0282e-06
1.9566e-06
2.07667e-06
1
1
1
1
1
1
1
1
1
1
1
1
1
1
1
1
1
1
1
1
1
1
1
1
1
1
1
1
0.999999
1
1
1
1
1
1
1
1
0.999996
0.999955
0.99998
1
1
1
1
1
1
1
1
0.99994
0.999772
1
1
1
0.999999
1
1
0.999999
0.999997
0.999961
0.999811
1
1
1
0.999999
0.999756
0.998277
0.994674
0.991858
0.991701
0.994394
0.835933
0.878184
0.847845
0.754097
0.64826
0.541725
0.467308
0.44093
0.44189
0.471838
0.174255
0.1286
0.104142
0.0640413
0.0116858
1.26448e-05
1.18222e-05
3.39905e-06
1.14572e-06
1.20605e-06
0.00125276
0.000294136
5.08528e-05
6.26714e-06
5.35248e-06
3.13088e-06
2.14792e-06
1.69419e-06
1.11967e-06
1.14575e-06
0.000146472
3.06023e-05
1.13012e-05
8.95655e-06
3.31228e-05
8.17384e-06
1.01333e-05
2.6988e-06
1.14574e-06
1.20604e-06
1.51886e-05
9.36921e-06
1.0075e-05
1.05623e-05
3.47225e-05
3.21551e-05
8.10587e-06
1.02162e-05
3.58461e-06
7.81763e-06
3.3104e-06
8.10257e-06
2.00931e-05
1.06825e-05
2.86759e-05
3.08398e-05
9.79978e-06
3.20266e-06
3.05129e-06
2.23721e-05
2.72504e-06
4.77994e-05
6.58783e-05
1.73913e-05
3.08479e-06
1.67427e-05
4.74811e-06
2.12903e-06
1.75209e-06
3.37363e-06
1.27621e-05
6.70636e-05
6.77624e-05
4.13204e-05
2.07971e-06
3.62019e-06
3.76134e-06
1.95551e-06
1.74875e-06
1.97125e-06
5.51239e-05
3.9619e-05
1.61482e-05
5.0877e-06
2.06053e-06
2.60947e-06
3.94134e-06
1.77388e-06
1.74066e-06
2.15298e-06
4.60271e-05
1.24364e-06
1.23039e-06
1.30478e-06
2.46727e-06
2.38384e-06
1.92774e-06
2.08921e-06
1.84449e-06
1.89315e-06
1.63179e-06
1.51574e-06
3.59954e-06
3.11967e-06
2.62562e-06
3.86578e-06
2.52694e-06
2.95205e-06
2.1876e-06
2.87785e-06
1.02819e-06
1.19509e-06
2.5296e-05
4.87582e-05
2.93702e-05
1.29388e-05
1.06872e-05
2.73046e-06
9.88908e-06
6.85151e-06
8.86266e-07
1.02763e-06
5.79698e-06
0.000181897
0.000290689
0.000135988
3.04324e-05
2.09411e-06
3.03471e-06
3.39259e-05
1
1
1
1
1
1
1
1
1
1
1
1
1
1
1
1
0.999999
0.999999
0.999999
1
1
1
1
1
1
1
0.999999
0.999996
0.999997
1
1
1
1
1
1
1
1
1
0.999973
0.999911
1
1
1
1
1
1
1
1
0.999958
0.999254
1
1
1
1
1
0.999999
0.999998
0.999996
0.999959
0.999539
1
1
1
0.999963
0.999777
0.999023
0.99862
0.998793
0.998995
0.999005
0.716138
0.777097
0.757507
0.682874
0.609978
0.549149
0.539827
0.551261
0.564539
0.59326
0.0726263
0.0530764
0.0483769
0.0367917
0.000371903
2.28831e-06
2.17234e-06
1.28257e-06
1.11965e-06
1.20296e-06
0.000431663
7.72688e-05
6.59914e-06
2.93274e-06
1.37916e-06
1.1571e-06
1.162e-06
1.11307e-06
1.1126e-06
1.11967e-06
4.48643e-05
3.81507e-05
4.8251e-05
8.78302e-06
1.74482e-06
1.6874e-06
1.23806e-06
1.17254e-06
1.11967e-06
1.25855e-06
5.70373e-06
3.46244e-05
5.42602e-05
6.47054e-05
1.92729e-05
1.82463e-06
1.8478e-06
1.36416e-06
1.2281e-06
3.36427e-06
2.72504e-06
2.51204e-05
1.18302e-05
1.06825e-05
1.09574e-05
2.51261e-06
5.28337e-06
3.16264e-06
1.45139e-06
5.64062e-06
2.47047e-06
6.37494e-05
3.42225e-05
1.8211e-05
4.28826e-06
1.1113e-05
1.83823e-05
3.81053e-06
1.53147e-06
3.0024e-06
3.78927e-06
6.51164e-05
6.80364e-05
4.88413e-05
2.14257e-06
8.05229e-06
1.52454e-05
1.77365e-06
1.63606e-06
1.74875e-06
5.48414e-05
1.63834e-05
3.50577e-05
1.40187e-05
2.10801e-06
1.99235e-06
1.77249e-06
1.7446e-06
1.74875e-06
1.74131e-06
5.31787e-05
1.22971e-06
1.30478e-06
1.44733e-06
1.8483e-06
2.45699e-06
1.8019e-06
1.77178e-06
1.79951e-06
2.2551e-05
2.87746e-05
1.31094e-06
7.63762e-06
0.000122576
0.000205031
0.000190336
0.000158359
0.000154962
0.000135609
0.000130093
1.00417e-06
2.20111e-06
1.75935e-05
0.000321426
0.000378286
0.000384446
0.000173848
2.62901e-06
6.71174e-05
0.000120098
8.10416e-07
1.00532e-06
3.25611e-06
0.000186955
0.000378286
0.00037141
8.84481e-05
2.19386e-06
1.42728e-05
0.000107008
1
1
1
1
1
1
1
0.999999
0.999999
1
1
1
1
1
1
1
0.999999
0.999982
0.999982
0.999999
1
1
1
1
1
1
0.999997
0.999982
0.999982
1
1
1
1
1
1
1
1
0.999994
0.999984
0.999896
1
1
1
1
1
1
1
0.999981
0.999934
0.999384
1
1
1
1
1
1
0.999998
0.999982
0.999928
0.999578
1
1
0.999964
0.999972
0.999894
0.999694
0.999881
0.999813
0.999721
0.999321
0.590803
0.675563
0.683181
0.644283
0.595418
0.575214
0.614097
0.661932
0.691956
0.712859
0.0216554
0.0141799
0.0165608
0.0156722
1.37916e-06
1.1571e-06
1.16201e-06
1.11306e-06
0.00430507
0.0170305
0.00014327
1.29184e-05
2.93282e-06
1.37916e-06
1.1571e-06
1.12196e-06
1.11036e-06
1.10783e-06
1.11308e-06
1.11547e-06
2.83378e-05
8.88096e-05
8.91305e-05
6.2392e-05
4.66265e-06
1.15708e-06
1.162e-06
1.11308e-06
1.1126e-06
1.12491e-06
1.6378e-05
8.69597e-05
8.14915e-05
0.000107553
1.34497e-05
1.43071e-06
2.15351e-06
1.17256e-06
1.12482e-06
1.20485e-06
1.40966e-05
1.71614e-05
2.57284e-05
0.000171324
1.7651e-06
1.74202e-06
1.28407e-05
4.35024e-06
1.23813e-06
1.42254e-06
2.39322e-06
3.14826e-05
6.57072e-05
6.18395e-05
1.88279e-06
6.20741e-06
1.87833e-05
1.71381e-06
1.45582e-06
2.4095e-06
3.90811e-06
5.99075e-05
6.80016e-05
3.33966e-05
2.16542e-06
4.46995e-06
3.84133e-06
1.84282e-06
1.56752e-06
1.85856e-06
4.56187e-05
2.42626e-05
6.38097e-05
3.59729e-05
5.17923e-05
0.000197481
0.000229776
0.000144855
0.000110852
1.31367e-05
5.16471e-05
9.5275e-06
2.20986e-06
6.68681e-05
0.000358606
0.000405531
0.000397359
0.000388041
0.000377504
0.000126796
5.05974e-05
2.73698e-06
1.79178e-06
0.000167727
0.00039246
0.000399259
0.000388126
0.000235986
0.000220165
0.000222612
4.36015e-05
2.29799e-06
9.74147e-07
6.99245e-05
0.000340075
0.000382075
7.95431e-05
3.27336e-06
1.88643e-05
0.000128176
1.16779e-05
2.20299e-06
1.7971e-06
1.5515e-05
3.24066e-05
3.22834e-05
2.19244e-06
2.38331e-06
2.43317e-05
3.40301e-05
1
1
1
1
1
1
1
1
0.999999
0.999968
1
1
1
1
1
1
1
0.999988
0.999986
0.999992
1
1
1
1
1
1
1
0.999985
0.999982
0.999988
1
1
1
1
1
1
0.999999
0.99997
0.999952
0.999933
1
1
1
1
1
1
0.999956
0.999415
0.999346
0.999497
1
1
1
1
1
1
0.999958
0.999711
0.999515
0.99941
0.99542
1
0.999994
0.999986
0.999922
0.999952
0.999856
0.999546
0.999364
0.999204
0.512719
0.604059
0.642303
0.622139
0.585446
0.593553
0.645675
0.708591
0.759379
0.801432
0.00495815
0.000478941
0.000705137
0.00142482
1.59435e-06
1.12196e-06
1.11036e-06
0.00907272
0.0375569
0.0657142
3.70504e-05
1.03079e-05
5.60813e-06
1.59411e-06
1.12186e-06
1.11036e-06
1.10783e-06
1.11036e-06
1.11036e-06
1.1362e-06
2.56473e-05
9.46419e-05
0.000102975
8.61122e-05
1.9119e-05
1.12158e-06
1.11033e-06
1.10819e-06
1.12252e-06
1.13913e-06
4.26377e-05
6.7938e-05
0.000175182
0.000265016
1.70536e-05
1.76639e-06
1.20052e-05
3.03725e-06
1.13912e-06
5.82665e-06
1.00052e-05
6.65785e-06
0.000115346
0.000276204
1.88279e-06
8.59393e-06
1.57962e-05
3.09991e-06
1.20485e-06
0.000131083
1.62643e-06
5.85157e-06
0.000106319
0.000109845
2.16542e-06
5.23195e-06
1.1331e-05
1.89641e-06
6.89486e-05
0.000168498
8.78585e-06
2.68461e-05
6.40164e-05
3.16193e-05
3.17299e-05
0.000157012
0.000220844
0.000195746
0.000199907
0.000146501
9.56521e-06
1.95617e-05
2.71164e-05
7.30309e-05
0.000344285
0.00041692
0.000411424
0.000382096
7.68573e-05
1.26972e-05
4.34942e-05
1.19574e-05
2.93866e-06
0.000112675
0.000405531
0.000411424
0.000380471
1.0919e-05
5.47064e-06
5.33473e-05
4.99233e-05
7.70885e-06
8.85877e-07
1.99741e-05
0.000257347
0.000395719
6.76085e-05
3.62293e-06
3.88116e-06
3.71322e-05
4.94546e-05
1.20364e-05
8.42388e-07
8.09439e-07
1.03958e-05
2.32832e-05
2.85399e-06
3.19095e-06
3.62466e-06
3.62074e-05
4.91033e-05
1.33153e-05
1.0057e-06
7.98986e-07
9.10429e-07
1.07276e-06
1.79829e-06
1.69805e-05
6.52277e-06
4.27338e-05
1
1
1
1
1
1
1
1
0.999941
0.992183
1
1
1
1
1
1
1
1
0.999974
0.992446
1
1
1
1
1
1
1
0.999998
0.999953
0.995621
1
1
1
1
1
1
0.999998
0.999987
0.999977
0.996356
1
1
1
1
1
1
0.999957
0.99974
0.999455
0.990225
0.999999
1
1
1
1
0.999999
0.999956
0.999747
0.999431
0.99061
0.993373
0.999736
0.999993
0.999996
0.99986
0.999853
0.999812
0.99953
0.999194
0.994172
0.489703
0.58181
0.620973
0.607126
0.575124
0.589134
0.635118
0.706902
0.78624
0.858967
0.00204413
1.52933e-05
1.34029e-05
7.75206e-06
2.65228e-06
1.22196e-06
1.13639e-06
0.0106951
0.0536487
0.110865
1.90934e-05
2.01706e-05
6.88822e-05
1.99257e-05
1.21981e-06
1.12196e-06
1.11036e-06
1.11036e-06
1.12088e-06
1.25489e-06
1.53695e-05
9.15036e-05
0.000295958
0.000246129
3.15088e-05
1.22148e-06
1.13638e-06
1.12088e-06
1.13748e-06
1.66398e-06
1.64134e-05
6.80101e-05
0.000296226
0.000295067
1.64258e-05
5.69239e-06
1.20786e-05
1.34116e-06
1.20482e-06
2.69877e-05
1.9363e-06
1.46918e-05
0.000295507
0.000291264
2.10872e-05
5.90198e-06
9.58123e-06
2.7309e-06
6.8566e-05
7.33922e-05
8.99361e-07
4.77099e-06
0.000166968
0.000282276
2.98633e-05
7.05447e-05
0.000139434
0.000156869
0.000152014
4.65909e-05
2.69085e-06
4.46217e-06
6.7355e-05
0.000123359
0.000168776
0.000416931
0.000410834
0.000398898
5.46454e-05
6.6766e-06
7.10176e-07
9.70892e-06
1.64945e-05
2.39376e-05
0.000383855
0.000416926
0.00041692
0.000203219
2.29802e-05
8.38632e-05
5.45285e-06
7.5298e-06
2.78566e-06
1.14891e-05
0.000230234
0.00041692
0.00033756
4.73209e-06
9.89919e-06
0.000197268
2.45116e-05
8.38308e-06
8.30794e-07
8.09439e-07
1.16951e-05
9.92679e-05
3.39092e-05
3.85771e-06
4.87643e-06
9.40606e-05
3.85083e-05
1.44031e-05
8.09439e-07
7.98986e-07
4.19786e-06
4.01264e-06
3.20528e-06
3.79102e-06
5.11298e-06
7.01941e-05
2.98648e-05
1.95372e-05
1.47257e-06
7.98986e-07
7.74326e-06
1.85679e-05
4.72628e-06
3.13668e-05
1.66921e-05
7.16454e-05
1
1
1
1
1
1
1
1
0.99993
0.991629
1
1
1
1
1
1
1
1
1
0.995551
1
1
1
1
1
1
1
0.999998
0.999999
0.998457
1
1
1
0.999998
0.999999
1
1
0.999995
0.999983
0.996429
1
1
1
0.99998
0.999974
0.999995
0.999998
0.999936
0.999689
0.990639
0.999999
1
1
0.999998
0.99999
0.999995
0.999996
0.999931
0.999667
0.990841
0.995503
0.99993
0.999995
0.999964
0.999527
0.99951
0.99983
0.999713
0.999477
0.993837
0.512471
0.598985
0.628347
0.600805
0.558865
0.567736
0.617533
0.701776
0.79054
0.872865
0.00269827
1.44801e-05
1.15138e-05
8.62921e-06
3.57957e-06
1.32884e-06
1.167e-06
0.00572281
0.0572445
0.129698
1.13664e-05
3.43671e-05
0.00011033
3.81797e-05
1.32529e-06
1.15257e-06
1.13639e-06
1.12086e-06
1.14954e-06
1.25197e-06
1.61988e-06
0.000137082
0.000296183
0.000211175
1.32207e-05
1.32856e-06
1.16699e-06
1.14949e-06
1.23982e-06
1.45361e-06
7.90476e-07
0.000120872
0.000296171
0.000278885
7.37875e-06
6.96971e-06
2.08371e-06
1.27134e-06
3.43549e-06
3.43539e-06
6.85845e-07
1.40108e-05
0.000296116
0.000295452
3.49651e-05
6.29981e-06
7.08522e-06
2.59293e-06
3.72743e-05
3.16516e-06
6.58859e-07
2.42533e-05
0.000295453
0.000291654
0.000242119
7.02874e-05
0.000268946
0.000115426
4.25604e-05
3.20195e-06
6.61215e-07
1.16547e-05
0.000240744
0.000288534
0.000289549
0.000401517
0.000406213
0.000357404
4.02827e-05
4.72396e-05
6.61435e-07
2.42662e-06
4.52563e-05
0.00024987
7.51012e-05
0.000408749
0.000411128
0.000335791
3.78727e-05
0.000132512
6.74315e-07
7.16592e-07
5.58458e-06
5.25101e-05
2.2035e-05
0.000121474
0.000349921
3.39556e-05
1.2086e-05
0.000102858
7.35587e-07
3.04396e-06
8.03847e-07
8.03848e-07
1.97305e-05
2.28754e-05
5.79071e-06
4.73209e-06
1.08139e-05
2.36955e-05
1.89935e-06
7.01798e-06
8.72606e-07
8.07511e-07
2.37273e-05
3.12473e-05
1.63314e-05
5.27514e-06
2.88091e-05
2.23083e-05
7.82371e-06
1.05185e-05
1.55578e-06
7.98986e-07
2.65878e-05
5.45797e-05
7.77678e-05
2.44586e-05
3.29071e-05
8.37572e-05
1
1
1
1
1
1
1
1
1
1
1
1
1
1
1
1
1
0.999992
0.999993
1
1
1
1
1
1
1
1
0.999984
0.999979
0.999999
1
1
1
0.999999
0.999991
0.999998
0.999999
0.999991
0.999986
0.999989
1
1
1
0.999987
0.999897
0.999939
0.999999
0.999938
0.999946
0.999989
1
1
1
1
0.999999
0.999953
0.999995
0.999932
0.99994
0.999982
0.999995
1
1
0.999977
0.999554
0.999034
0.9995
0.999633
0.999684
0.999834
0.577997
0.659482
0.667081
0.620035
0.561789
0.548425
0.587669
0.672144
0.763391
0.848874
0.00899834
0.00696547
0.00713539
7.42737e-06
2.34539e-06
1.27719e-06
1.18951e-06
1.19468e-06
0.0440899
0.110252
7.95255e-05
0.000105342
1.23218e-05
7.34686e-06
1.27453e-06
1.18948e-06
1.16701e-06
1.14954e-06
1.19468e-06
1.28054e-06
0.00013475
0.000233707
0.000154875
0.00012749
2.28898e-05
1.27586e-06
1.18945e-06
1.19361e-06
1.27994e-06
1.41549e-06
0.000171836
0.000285497
0.000283835
0.000105233
5.28755e-05
7.69473e-06
1.37268e-06
1.41596e-06
1.67118e-06
1.7276e-06
5.66857e-06
0.000184012
0.000295452
0.000150735
4.51556e-05
8.14028e-06
3.68575e-06
4.6881e-06
4.8868e-05
2.10335e-06
6.60842e-07
1.75697e-05
0.000293221
0.000290382
9.93346e-05
3.38146e-05
0.000221791
0.000211849
0.00010328
2.4007e-06
6.58672e-07
6.61215e-07
0.000287811
0.000286207
0.000285752
0.000105165
0.000405912
0.000399842
9.61517e-05
8.2182e-05
6.60069e-07
6.61435e-07
5.17286e-05
0.000277629
0.000242857
6.07432e-05
0.000292593
0.000165752
2.16439e-05
0.000135666
6.61435e-07
6.74315e-07
7.12914e-07
2.56113e-05
1.8639e-05
2.48894e-05
4.59144e-05
2.55382e-05
8.78573e-06
1.1424e-05
6.74315e-07
7.12915e-07
7.79984e-07
8.00088e-07
8.39229e-06
2.81243e-05
6.34592e-06
5.79071e-06
9.037e-06
1.0015e-05
7.53516e-07
7.85384e-07
8.08096e-07
8.03848e-07
2.80733e-06
2.9734e-05
2.1421e-05
7.29616e-06
6.13113e-05
1.16674e-05
6.36937e-06
1.1477e-06
8.18717e-07
8.14254e-07
1.03507e-06
9.66042e-06
0.000101273
2.85927e-05
7.61388e-05
9.65878e-05
1
1
1
1
1
1
1
1
1
1
1
1
1
1
1
1
0.999999
0.999981
0.999984
0.999999
1
1
1
1
1
1
0.999995
0.999978
0.999978
0.999994
1
1
1
1
0.999998
1
0.999998
0.999992
0.99999
0.999995
1
1
1
0.999997
0.99998
0.999997
0.999998
0.999992
0.99999
0.999997
1
1
1
1
1
0.999997
0.999994
0.999982
0.999978
0.99999
1
1
1
0.999989
0.999875
0.999446
0.999443
0.999621
0.999611
0.999754
0.702243
0.755558
0.735673
0.665202
0.597211
0.562597
0.573392
0.63086
0.718173
0.803825
0.0389223
0.040171
0.0326522
0.00962559
4.56462e-06
1.34729e-06
1.21639e-06
1.46222e-06
0.0247812
0.0774837
8.13587e-05
3.51589e-05
2.1631e-05
6.23928e-06
3.05076e-06
1.216e-06
1.18952e-06
1.19469e-06
1.28055e-06
1.41558e-06
0.000264164
0.000170634
2.45995e-05
8.02709e-06
1.97968e-06
1.30174e-06
1.2163e-06
1.30018e-06
1.46589e-06
1.50552e-06
0.000273286
0.000287186
0.000138324
4.66943e-05
5.19165e-05
1.54093e-05
1.30229e-06
1.45305e-05
1.14784e-05
1.85888e-06
0.000157902
0.000290918
0.000293221
0.000148237
0.000110594
4.53573e-05
9.44574e-06
0.000135663
0.00014207
1.91729e-06
6.60842e-07
7.98377e-05
0.000290918
0.000286723
0.000110867
2.69705e-05
5.9071e-05
0.000219577
0.000209721
7.77547e-05
6.61215e-07
6.67229e-07
0.000165417
0.000265687
0.000138936
3.96642e-05
0.000112406
0.00022654
0.000185071
0.000173906
6.61435e-07
7.20652e-07
8.34838e-07
6.0427e-06
2.22744e-05
7.09718e-05
6.23022e-05
9.91676e-06
9.28725e-06
1.55844e-05
6.90311e-07
8.05624e-07
1.70198e-06
1.24783e-05
2.08413e-05
1.07683e-05
1.4988e-05
8.99918e-06
8.35293e-06
9.28725e-06
7.25361e-07
8.19647e-07
4.29588e-06
2.75472e-05
2.74287e-05
6.92033e-06
6.75358e-06
6.34592e-06
7.15298e-06
1.03697e-05
9.53239e-07
1.02101e-06
2.03308e-06
1.64875e-05
1.88002e-05
6.51609e-06
6.67978e-06
1.01938e-05
7.83478e-05
4.20601e-05
1.23339e-06
1.09399e-06
8.7341e-07
2.33028e-06
6.27101e-06
4.49506e-06
8.68776e-06
8.19124e-05
0.000132483
0.000101435
1
1
1
1
1
1
1
1
1
1
1
1
1
1
1
1
0.999999
0.999999
0.999999
1
1
1
1
1
1
1
0.999999
0.999997
0.999997
0.999999
1
1
1
1
1
1
1
0.999999
0.999999
0.999999
1
1
1
1
1
1
1
0.999999
0.999999
0.999999
1
1
1
1
1
0.999999
0.999997
0.999992
0.999988
0.999992
1
1
1
1
0.999995
0.999948
0.99985
0.999713
0.999648
0.999744
0.841447
0.867275
0.832448
0.742716
0.668902
0.621408
0.607792
0.626312
0.684852
0.761257
0.109856
0.110079
0.0892127
0.0365286
0.00495838
2.44045e-06
1.26135e-06
1.83918e-06
0.0122159
0.0503848
0.000122741
5.69393e-05
3.47653e-05
2.28971e-05
2.42681e-06
1.2598e-06
1.21639e-06
1.25919e-06
1.40191e-06
1.5022e-06
9.92488e-05
5.00248e-05
3.65509e-05
1.2977e-05
2.21005e-06
1.35923e-06
1.26102e-06
1.36226e-06
7.59543e-06
1.56688e-06
0.000270466
0.000263933
4.43913e-05
2.1645e-05
2.18394e-05
4.71977e-06
1.36293e-06
6.52269e-05
0.000124495
1.58679e-06
0.000271885
0.000280933
0.000214942
5.77166e-05
8.39914e-05
7.60132e-05
1.91936e-05
0.000195471
0.000185018
4.45249e-05
0.000169758
0.000229002
0.000234396
0.000148103
0.000125663
7.94775e-05
1.95123e-05
0.000201572
0.000195599
0.000170401
6.67229e-07
7.54406e-07
3.72724e-05
7.27127e-05
4.91685e-05
9.13614e-05
3.54574e-05
0.000117748
0.000185513
0.000105264
1.73109e-06
4.85954e-06
2.66399e-05
2.51411e-05
1.63637e-05
1.86466e-05
0.000207138
0.000168725
1.03289e-05
1.34717e-05
2.15306e-05
4.67892e-05
9.83104e-05
9.08219e-05
3.62524e-05
1.03656e-05
7.71069e-06
8.10277e-06
8.72737e-06
9.55535e-06
5.64863e-05
6.9044e-05
0.000118713
0.000124184
0.000115931
1.69575e-05
6.75358e-06
7.08609e-06
2.27419e-05
7.299e-05
1.01036e-05
5.2942e-05
9.54429e-05
0.000127307
0.000121607
1.41921e-05
7.00072e-06
1.6256e-05
0.000149891
0.000123526
1.32191e-06
1.53334e-05
5.58925e-05
9.35833e-05
5.81533e-05
5.64177e-06
6.83021e-06
0.000137481
0.000166954
3.53403e-05
1
1
1
1
1
1
1
1
1
1
1
1
1
1
1
1
1
1
1
1
1
1
1
1
1
1
1
0.999999
0.999996
1
1
1
1
1
1
1
1
0.999995
0.999957
1
1
1
1
1
1
1
1
0.999998
0.999994
0.999987
1
1
1
1
1
1
0.999999
0.999996
0.999988
0.998335
1
1
1
1
0.999999
0.999987
0.999939
0.999863
0.999803
0.998905
0.955116
0.964326
0.925497
0.842212
0.753618
0.702007
0.667069
0.646314
0.670659
0.732296
0.24136
0.244092
0.192009
0.0919636
0.0295121
0.00759232
0.000782634
2.09459e-06
0.00364957
0.025753
0.000562014
0.000349469
0.000197967
0.000127289
1.75451e-05
1.34955e-06
1.25987e-06
1.35094e-06
1.45753e-06
1.50935e-06
0.00012423
5.72427e-05
2.98794e-05
1.84493e-05
6.99025e-06
1.69958e-06
1.35091e-06
5.742e-06
5.04858e-05
1.50957e-06
0.000270466
9.35973e-05
2.28664e-05
2.03369e-05
2.08802e-05
6.58628e-06
1.70267e-06
5.20942e-05
0.000168977
3.79737e-05
0.000269208
0.000237017
2.86654e-05
1.68861e-05
3.40474e-05
4.61708e-05
1.11497e-05
0.00012072
0.000176837
0.000124892
0.000127878
0.000130959
3.44122e-05
1.09238e-05
4.98506e-05
9.16021e-05
1.96037e-05
5.91762e-05
0.000181394
0.00017884
3.54892e-05
4.81161e-05
2.16592e-05
6.46167e-06
5.26315e-05
9.22196e-05
5.56709e-05
2.79601e-05
6.80154e-05
0.000134288
2.08874e-05
5.44534e-05
1.61541e-05
5.40939e-06
1.30695e-05
0.000216852
0.000250047
0.000252506
0.000257882
3.08885e-05
0.000104028
0.000125928
7.61685e-05
7.01709e-06
1.26625e-05
6.23117e-05
0.000146974
0.00021276
0.000284182
0.000213658
0.00015111
0.00015111
0.000133129
8.25356e-05
3.76313e-05
8.70597e-06
7.66727e-06
8.10277e-06
0.000224597
0.000304614
0.000136866
0.000146591
0.000141723
0.000135466
7.02376e-05
4.27511e-06
6.32294e-06
2.08615e-05
0.000283305
0.000178653
2.34102e-05
0.000139323
0.000138001
0.00013506
5.76347e-05
5.47552e-06
5.96934e-06
0.00013786
0.00016909
2.61355e-05
1
1
1
1
1
1
1
1
1
1
1
1
1
1
1
1
1
1
1
1
1
1
1
1
1
1
1
0.999999
0.999999
1
1
1
1
1
1
1
1
0.999987
0.999895
0.999923
1
1
1
1
1
1
1
1
0.999556
0.996815
1
1
1
1
1
0.999998
1
0.999999
0.999748
0.996559
1
1
1
1
1
0.999999
0.99999
0.999965
0.999776
0.998638
1
1
0.995785
0.929194
0.849251
0.772646
0.715555
0.669236
0.649711
0.68253
0.526731
0.497091
0.355197
0.191379
0.0855025
0.0368396
0.0157661
0.00395203
5.28678e-06
1.61004e-06
0.0206357
0.00914921
0.000776569
0.00047582
0.00019454
1.26695e-06
1.35162e-06
1.50902e-06
1.60724e-06
1.50956e-06
0.000288267
0.000159545
7.58181e-05
5.85772e-05
4.37019e-05
1.96522e-06
1.50618e-06
2.01235e-05
8.45745e-05
1.55092e-06
8.15815e-05
4.06677e-05
1.78556e-05
2.15483e-05
3.73034e-05
7.8005e-06
2.11384e-06
3.11871e-05
0.000165368
8.24048e-05
5.40872e-05
2.74949e-05
1.10542e-05
1.72136e-05
4.59747e-05
3.19316e-05
3.38215e-06
1.52049e-05
0.000170457
0.000174601
2.14705e-05
1.18445e-05
9.07269e-06
2.4346e-05
2.8743e-05
3.26185e-05
5.89237e-06
5.60681e-06
0.000121779
0.000184332
9.4068e-06
8.64987e-06
8.79751e-06
1.6302e-05
1.05798e-05
2.61866e-05
1.26449e-05
4.4948e-06
5.95568e-06
8.94577e-05
2.0721e-05
6.00949e-06
6.2534e-06
4.06624e-06
1.43244e-05
8.56312e-05
0.000111399
0.000196041
0.000244507
0.000301161
0.000164632
4.56037e-06
4.06633e-06
3.76432e-06
2.303e-05
5.38891e-05
0.000290748
0.000297572
0.000301179
0.000306273
0.000159868
1.32932e-05
3.76433e-06
3.71205e-06
4.15107e-06
4.1837e-06
8.75103e-05
0.000292683
0.000304614
0.000307354
0.000150161
0.000113702
2.74671e-05
3.95056e-06
3.69052e-06
3.77443e-06
4.26667e-06
0.000110789
0.000300647
0.000304823
0.000122536
0.00013593
0.000122095
2.32188e-05
4.10084e-06
4.27495e-06
5.33723e-06
7.41443e-05
0.000257981
0.000171986
1
1
1
1
1
1
1
1
1
1
1
1
1
1
1
1
1
1
1
1
1
1
1
1
1
1
1
1
0.999995
0.999983
1
1
1
1
1
1
1
0.999999
0.999951
0.999842
1
1
1
1
1
1
1
1
0.999862
0.999332
1
1
1
1
1
1
1
1
0.999945
0.999219
1
1
1
1
1
1
1
0.999996
0.999956
0.999736
1
1
1
0.987172
0.929461
0.861925
0.785
0.709988
0.662678
0.642519
0.856073
0.776908
0.575151
0.336951
0.187726
0.0974331
0.0462081
0.0166997
0.00145029
1.11261e-05
0.201322
0.103246
0.022827
0.00126524
0.000540131
0.000151782
7.50464e-07
2.50567e-06
5.27713e-06
1.60854e-06
0.000628953
0.000382889
0.000262462
0.000208709
9.19966e-05
2.16727e-05
1.8277e-06
2.10341e-05
4.43016e-05
2.83542e-06
0.000128669
6.68887e-05
5.00928e-05
5.92348e-05
2.94223e-05
6.76783e-06
3.10943e-06
5.71432e-05
0.000162469
5.53235e-05
7.27493e-05