/*--------------------------------*- C++ -*----------------------------------*\
| =========                 |                                                 |
| \\      /  F ield         | OpenFOAM: The Open Source CFD Toolbox           |
|  \\    /   O peration     | Version:  2312                                  |
|   \\  /    A nd           | Website:  www.openfoam.com                      |
|    \\/     M anipulation  |                                                 |
\*---------------------------------------------------------------------------*/
FoamFile
{
    version     2.0;
    format      ascii;
    arch        "LSB;label=32;scalar=64";
    class       volScalarField;
    location    "0.155";
    object      alpha.water;
}
// * * * * * * * * * * * * * * * * * * * * * * * * * * * * * * * * * * * * * //

dimensions      [0 0 0 0 0 0 0];

internalField   nonuniform List<scalar> 
8000
(
1
1
1
1
1
1
1
1
1
1
1
1
1
1
1
1
1
1
1
1
1
1
1
1
1
1
1
1
1
1
1
1
1
1
1
1
1
1
1
1
1
1
1
1
1
1
1
1
1
1
1
1
1
1
1
1
1
1
1
1
1
1
1
1
1
1
1
1
1
1
1
1
1
1
1
1
1
1
1
1
0.389017
0.397691
0.414256
0.437838
0.466692
0.498049
0.529314
0.558989
0.58369
0.597252
0.000321302
0.000420073
0.000633199
0.0014391
0.00310897
0.00602395
0.010107
0.0151224
0.0201765
0.0230276
1.51172e-05
1.74431e-05
2.18759e-05
2.7242e-05
4.24071e-05
7.08595e-05
0.000112017
0.0001681
0.000239039
0.000299486
7.95083e-07
9.49974e-07
1.22325e-06
1.75159e-06
2.95532e-06
5.74114e-06
1.09733e-05
1.99484e-05
3.22368e-05
4.22559e-05
4.04025e-08
4.97578e-08
6.49514e-08
9.71092e-08
1.75964e-07
3.76116e-07
8.1949e-07
1.74017e-06
3.28858e-06
4.7673e-06
1.94421e-09
2.51561e-09
3.28678e-09
4.9746e-09
9.27059e-09
2.0539e-08
4.73445e-08
1.10893e-07
2.34126e-07
3.69684e-07
1.09011e-10
1.45798e-10
1.84793e-10
2.66753e-10
4.69109e-10
9.88357e-10
2.31185e-09
5.57596e-09
1.23012e-08
2.02399e-08
7.09329e-12
1.02316e-11
1.31224e-11
1.8817e-11
3.27283e-11
6.3706e-11
1.25336e-10
2.49724e-10
5.40157e-10
8.95571e-10
1.07118e-12
1.40744e-12
1.43305e-12
1.03718e-12
1.79901e-12
3.82812e-12
8.26656e-12
1.66704e-11
3.19262e-11
4.75654e-11
8.56772e-14
1.34361e-13
1.7374e-13
2.4581e-13
4.22539e-13
8.06207e-13
1.30856e-12
8.73116e-13
1.6835e-12
2.68653e-12
3.26726e-15
5.88046e-15
8.36761e-15
1.50512e-14
2.8228e-14
5.90791e-14
1.2431e-13
2.35136e-13
4.43028e-13
6.84683e-13
1.0733e-16
2.0767e-16
2.892e-16
4.69941e-16
9.05167e-16
2.04782e-15
5.13091e-15
1.49638e-14
3.67537e-14
9.18854e-14
1
1
1
1
1
1
1
1
1
1
1
1
1
1
1
1
1
1
1
1
1
1
1
1
1
1
1
1
1
1
1
1
1
1
1
1
1
1
1
1
1
1
1
1
1
1
1
1
1
1
1
1
1
1
1
1
1
1
1
1
1
1
1
1
1
1
1
1
1
1
1
1
1
1
1
1
1
1
1
1
0.397798
0.407507
0.426094
0.452633
0.484934
0.521719
0.563626
0.608386
0.646588
0.667447
0.000422137
0.000522377
0.000942767
0.00190841
0.00383452
0.00717532
0.0132647
0.023883
0.0395676
0.0550309
1.74686e-05
1.90923e-05
2.14907e-05
2.55016e-05
2.98932e-05
3.90228e-05
6.3208e-05
0.000120396
0.000209915
0.000313039
9.52177e-07
1.07204e-06
1.34541e-06
1.74515e-06
2.28199e-06
3.20975e-06
5.36738e-06
9.83681e-06
1.77344e-05
2.68871e-05
4.98727e-08
5.81869e-08
7.46442e-08
9.92989e-08
1.29933e-07
1.97595e-07
3.58879e-07
7.70444e-07
1.51181e-06
2.32896e-06
2.52063e-09
3.07633e-09
3.96382e-09
5.35286e-09
7.27108e-09
1.16035e-08
2.30015e-08
5.08707e-08
1.07486e-07
1.74373e-07
1.46018e-10
1.85908e-10
2.32179e-10
3.09344e-10
4.24191e-10
6.10819e-10
1.23702e-09
2.88303e-09
6.21384e-09
1.04004e-08
1.02481e-11
1.39624e-11
1.74838e-11
2.31129e-11
3.19108e-11
4.7407e-11
8.11327e-11
1.55428e-10
3.08444e-10
5.19741e-10
1.40772e-12
1.77817e-12
1.6264e-12
1.36451e-12
1.94164e-12
3.08129e-12
5.71516e-12
1.18722e-11
2.31113e-11
3.51926e-11
1.34548e-13
2.04678e-13
2.57356e-13
3.55936e-13
5.5126e-13
9.14752e-13
1.59903e-12
2.64987e-12
3.1479e-12
3.00434e-12
5.89296e-15
1.03278e-14
1.46249e-14
2.51735e-14
4.37172e-14
8.05703e-14
1.5782e-13
3.31558e-13
6.98881e-13
1.041e-12
2.08174e-16
3.93185e-16
5.39239e-16
8.63339e-16
1.54177e-15
3.0237e-15
8.5433e-15
4.02061e-14
1.74749e-13
3.1527e-13
1
1
1
1
1
1
1
1
1
1
1
1
1
1
1
1
1
1
1
1
1
1
1
1
1
1
1
1
1
1
1
1
1
1
1
1
1
1
1
1
1
1
1
1
1
1
1
1
1
1
1
1
1
1
1
1
1
1
1
1
1
1
1
1
1
1
1
1
1
1
1
1
1
1
1
1
1
1
1
1
0.414576
0.426302
0.449022
0.481392
0.523146
0.57718
0.643214
0.710366
0.768421
0.808958
0.00063419
0.000944531
0.00178701
0.00359242
0.00735516
0.0161198
0.0363899
0.0833126
0.177724
0.286522
2.17487e-05
2.13401e-05
2.49186e-05
2.55771e-05
3.00375e-05
5.29563e-05
0.00012248
0.000214787
0.000341836
0.00216348
1.21419e-06
1.33359e-06
1.58602e-06
1.71054e-06
1.90033e-06
3.19293e-06
6.7639e-06
1.10515e-05
1.69364e-05
2.3602e-05
6.43599e-08
7.39156e-08
8.76227e-08
9.17478e-08
1.08958e-07
1.63262e-07
3.52279e-07
5.54806e-07
8.36424e-07
1.11967e-06
3.25612e-09
3.92363e-09
4.61895e-09
4.79997e-09
5.63329e-09
9.07774e-09
1.64926e-08
2.68354e-08
4.12735e-08
5.75119e-08
1.83529e-10
2.30307e-10
2.6489e-10
2.86814e-10
2.86048e-10
4.23667e-10
8.29579e-10
1.22738e-09
1.91826e-09
2.86319e-09
1.3037e-11
1.73539e-11
1.94984e-11
2.08039e-11
2.22267e-11
2.84351e-11
4.57671e-11
6.94598e-11
1.05522e-10
1.50257e-10
1.44614e-12
1.65111e-12
1.19997e-12
1.24071e-12
1.39671e-12
1.86521e-12
3.25825e-12
5.75187e-12
9.9863e-12
1.191e-11
1.74002e-13
2.57028e-13
3.03603e-13
3.83822e-13
5.04636e-13
6.96245e-13
1.19437e-12
2.47674e-12
4.87937e-12
4.24062e-12
8.3724e-15
1.45457e-14
2.04987e-14
3.00792e-14
4.62895e-14
8.47976e-14
2.81413e-13
9.2172e-13
2.33582e-12
1.23366e-12
2.90042e-16
5.38077e-16
7.05495e-16
1.03021e-15
1.81639e-15
1.2103e-14
1.39977e-13
6.13425e-13
1.71332e-12
5.43337e-13
1
1
1
1
1
1
1
1
1
1
1
1
1
1
1
1
1
1
1
1
1
1
1
1
1
1
1
1
1
0.999999
1
1
1
1
1
1
1
1
1
0.999998
1
1
1
1
1
1
1
1
0.999999
0.999997
1
1
1
1
1
1
1
1
0.999999
0.999996
1
1
1
1
1
1
1
1
0.999999
0.999995
1
1
1
1
1
1
1
1
1
0.999999
0.438481
0.453169
0.48173
0.525019
0.587818
0.671596
0.763143
0.854809
0.939925
0.985839
0.00144371
0.00191987
0.00362578
0.00764407
0.0190415
0.0510781
0.133772
0.29128
0.467153
0.600498
2.65303e-05
2.52465e-05
2.58318e-05
2.96877e-05
6.18355e-05
0.000179481
0.000315708
0.000332679
0.00416979
0.0178368
1.70647e-06
1.71918e-06
1.71532e-06
1.83329e-06
3.61142e-06
9.66194e-06
1.50002e-05
1.22354e-05
1.18164e-05
3.80016e-06
9.41279e-08
9.75831e-08
9.24082e-08
1.01647e-07
1.62949e-07
4.59237e-07
6.14042e-07
4.17915e-07
3.05936e-07
2.32239e-07
4.81912e-09
5.25729e-09
4.82981e-09
5.08296e-09
8.87898e-09
1.6733e-08
2.38297e-08
1.43474e-08
9.93774e-09
8.02513e-09
2.60252e-10
3.04759e-10
2.87706e-10
2.47431e-10
3.87026e-10
8.46195e-10
8.91918e-10
5.25355e-10
3.66826e-10
3.23982e-10
1.83624e-11
2.27859e-11
2.08801e-11
1.92474e-11
2.39009e-11
4.04457e-11
4.14067e-11
4.13837e-11
3.03076e-11
2.84327e-11
1.02122e-12
1.35218e-12
1.24512e-12
1.19481e-12
1.52191e-12
2.66554e-12
4.97802e-12
1.08226e-11
6.73038e-12
2.85363e-12
2.44498e-13
3.53788e-13
3.83894e-13
4.31275e-13
5.35893e-13
8.86607e-13
2.91744e-12
9.44923e-12
5.46728e-12
1.50894e-12
1.50275e-14
2.5019e-14
3.00603e-14
3.91599e-14
6.88483e-14
3.33902e-13
1.88876e-12
8.02999e-12
3.17886e-12
4.89898e-13
4.69759e-16
8.58971e-16
1.03071e-15
1.65963e-15
1.58217e-14
2.34573e-13
1.58528e-12
7.39406e-12
2.0997e-12
4.84708e-13
1
1
1
1
1
1
1
1
1
1
1
1
1
1
1
1
1
1
0.999999
0.999997
1
1
1
1
1
1
1
1
0.999995
0.999981
1
1
1
1
1
1
1
0.999998
0.999983
0.999939
1
1
1
1
1
1
1
0.999997
0.99997
0.999889
1
1
1
1
1
1
1
0.999996
0.999963
0.99985
1
1
1
1
1
1
1
0.999996
0.999949
0.999814
1
1
1
1
1
1
1
0.999999
0.99999
0.999943
0.467782
0.485928
0.523951
0.588327
0.682685
0.791867
0.905138
0.99165
0.999592
0.998016
0.00314155
0.00389718
0.00747238
0.0191456
0.0591264
0.180725
0.381071
0.507166
0.591382
0.617733
4.1275e-05
2.97884e-05
3.06139e-05
6.22232e-05
0.000212225
0.000438526
0.0013399
0.00348806
0.00793279
0.0147442
2.87264e-06
2.24567e-06
1.93405e-06
3.63499e-06
1.17146e-05
2.25329e-05
1.8156e-05
5.86645e-06
1.50686e-06
1.11326e-06
1.69306e-07
1.27628e-07
1.10597e-07
1.62786e-07
5.59486e-07
9.25536e-07
5.81991e-07
1.16531e-07
4.27853e-07
1.44407e-06
8.9115e-09
7.16356e-09
5.70689e-09
8.91756e-09
1.87163e-08
3.46453e-08
1.79504e-08
3.17309e-09
2.32808e-08
6.27902e-08
4.53795e-10
4.18122e-10
2.89269e-10
3.88706e-10
9.67162e-10
1.2076e-09
5.78337e-10
1.06315e-10
3.16509e-11
8.63318e-11
3.17985e-11
3.15036e-11
2.24653e-11
2.40555e-11
4.41273e-11
4.80198e-11
2.03501e-11
1.29888e-11
3.24507e-12
5.64404e-11
1.75192e-12
1.92105e-12
1.41027e-12
1.55198e-12
3.69456e-12
1.78607e-12
9.8715e-13
1.3223e-11
5.20024e-12
1.30513e-10
4.18529e-13
5.47538e-13
5.05701e-13
5.61916e-13
1.72846e-12
1.93011e-13
2.68566e-13
1.46378e-11
4.05286e-12
1.37843e-10
2.81829e-14
4.35419e-14
4.63145e-14
8.5862e-14
1.02011e-12
1.30157e-13
2.23886e-13
1.02734e-11
1.837e-12
1.87985e-10
9.04792e-16
1.53796e-15
1.83825e-15
2.70629e-14
7.68448e-13
1.22265e-13
1.68904e-13
7.0715e-12
1.52231e-10
3.08099e-10
1
1
1
1
1
1
1
1
0.999999
0.999996
1
1
1
1
1
1
1
0.999998
0.999986
0.99994
1
1
1
1
1
1
0.999999
0.999986
0.999885
0.999559
1
1
1
1
1
1
0.999996
0.999949
0.999538
0.996536
1
1
1
1
1
1
0.999994
0.999909
0.997655
0.958015
1
1
1
1
1
1
0.999993
0.99988
0.980037
0.897134
1
1
1
1
1
1
0.999992
0.999844
0.949906
0.837567
1
1
1
1
1
1
0.999999
0.99997
0.992304
0.916933
0.499732
0.523318
0.578719
0.672897
0.792493
0.92193
0.999953
0.999421
0.938502
0.779386
0.00617093
0.00736051
0.016458
0.0514538
0.180384
0.431857
0.575839
0.502295
0.237745
0.0983735
7.07828e-05
3.93872e-05
5.419e-05
0.000180051
0.000434366
0.00347916
0.00876728
0.00174843
2.16329e-07
1.11057e-07
5.70937e-06
3.19343e-06
3.26295e-06
9.65661e-06
2.21475e-05
2.50699e-05
1.03404e-05
1.13487e-05
8.8888e-06
6.45305e-07
3.73295e-07
1.97421e-07
1.63968e-07
4.52429e-07
9.04159e-07
8.01874e-07
1.85577e-07
1.14332e-06
3.11865e-08
6.35205e-07
2.03752e-08
1.15834e-08
9.20749e-09
1.63704e-08
3.36774e-08
2.46337e-08
4.53953e-09
8.57538e-09
4.00231e-11
7.16791e-10
9.82042e-10
6.11753e-10
4.29727e-10
8.4035e-10
1.19298e-09
1.03703e-09
1.51976e-10
1.43026e-11
3.24515e-12
1.75223e-09
6.35943e-11
4.74793e-11
2.88792e-11
4.00552e-11
7.26792e-11
2.55886e-10
1.33281e-11
2.27292e-12
1.57848e-12
3.63122e-09
3.83485e-12
3.0945e-12
1.89241e-12
2.79715e-12
2.94036e-11
8.61043e-10
2.26161e-12
1.52694e-12
1.43918e-12
4.28866e-09
8.13664e-13
9.17712e-13
6.98385e-13
9.6267e-13
2.8068e-11
9.98656e-10
9.87215e-13
1.26556e-12
1.25689e-12
4.11757e-09
5.99677e-14
8.10707e-14
8.32695e-14
3.3538e-13
2.32354e-11
8.74364e-10
2.68566e-13
1.06906e-12
1.19982e-12
2.82495e-09
2.08665e-15
3.05514e-15
1.08845e-14
2.43497e-13
1.84922e-11
6.92802e-10
2.03443e-13
8.41326e-13
1.13275e-11
6.08941e-10
1
1
1
1
1
1
1
0.999998
0.999986
0.999936
1
1
1
1
1
1
0.999997
0.999974
0.999784
0.999103
1
1
1
1
1
0.999999
0.999976
0.999726
0.985001
0.893591
1
1
1
1
1
0.999996
0.99992
0.996988
0.820496
0.569947
1
1
1
1
1
0.999994
0.999851
0.968378
0.597868
0.318308
1
1
1
1
1
0.999993
0.999803
0.909168
0.419573
0.187795
1
1
1
1
1
0.999991
0.999758
0.841569
0.300391
0.136884
1
1
1
1
1
0.999999
0.999953
0.960988
0.52817
0.167714
0.531821
0.566244
0.646103
0.765438
0.906266
0.999952
0.999462
0.794437
0.161336
2.48834e-05
0.0105112
0.0137491
0.0374985
0.135007
0.380291
0.574689
0.493843
0.100883
1.42524e-06
1.11049e-07
0.000115251
6.51033e-05
0.000126267
0.000316178
0.00124588
0.0085331
0.00276123
1.42529e-06
1.07035e-07
7.67352e-08
1.13584e-05
5.46477e-06
6.94847e-06
1.48909e-05
1.73634e-05
9.39747e-06
1.71249e-06
2.04623e-06
1.99202e-07
4.97354e-08
8.52156e-07
3.65635e-07
3.50005e-07
5.96152e-07
5.45943e-07
1.65752e-07
3.95773e-07
1.49963e-08
3.55945e-08
3.56801e-09
4.93938e-08
2.36021e-08
1.6551e-08
2.26692e-08
1.66373e-08
4.24307e-09
2.4565e-08
1.23896e-08
9.51117e-08
4.88798e-10
2.42254e-09
1.27427e-09
8.41932e-10
8.58337e-10
5.33479e-10
1.74313e-10
3.31122e-07
2.56822e-08
3.31316e-07
2.22261e-10
1.30968e-10
8.36112e-11
4.63193e-11
3.68359e-11
1.99613e-11
4.37668e-11
6.0788e-07
1.43064e-11
3.24472e-12
5.68654e-11
8.70393e-12
5.92787e-12
3.30802e-12
2.42615e-12
1.18722e-12
1.18291e-09
6.36494e-07
2.27296e-12
1.52694e-12
5.31116e-11
1.33946e-12
1.64499e-12
1.20545e-12
9.54627e-13
3.08354e-13
8.52196e-09
5.59259e-07
1.53703e-12
1.30589e-12
5.32023e-11
1.30855e-13
1.64179e-13
2.74164e-13
2.78445e-13
1.61664e-13
9.45299e-09
4.88491e-07
1.27589e-12
1.25689e-12
1.07907e-10
5.50026e-15
9.68558e-15
1.33924e-13
1.62047e-13
1.47641e-13
7.96323e-09
4.50222e-07
1.02446e-12
7.61545e-11
7.79551e-11
1
1
1
1
1
1
0.999998
0.999755
0.998421
0.99658
1
1
1
1
1
0.999998
0.999974
0.99574
0.940733
0.804622
1
1
1
1
1
0.999986
0.999723
0.945446
0.520538
0.220766
1
1
1
1
0.999998
0.999948
0.996821
0.712952
0.127361
0.00464112
1
1
1
1
0.999997
0.999907
0.967709
0.440563
0.00562148
0.00126019
1
1
1
1
0.999996
0.999876
0.907125
0.243843
0.000532601
0.000146402
1
1
1
1
0.999995
0.999835
0.836822
0.145983
0.000116318
7.11021e-05
1
1
1
1
0.999999
0.999968
0.958885
0.371316
9.59118e-05
4.48752e-05
0.562733
0.612826
0.715238
0.858371
0.992706
0.999476
0.789232
0.0621136
4.63809e-05
2.41225e-05
0.015949
0.0253149
0.0872731
0.296352
0.508369
0.498562
0.0980017
5.41099e-05
4.56032e-05
1.70724e-07
0.000177633
0.000128284
0.000224853
0.000336596
0.00351279
0.00165534
1.72824e-06
9.39775e-05
6.01176e-05
1.11056e-07
2.16493e-05
1.0495e-05
1.14784e-05
1.21996e-05
5.34508e-06
1.19387e-05
1.0406e-06
9.21077e-05
1.9944e-07
7.01217e-08
1.90999e-06
8.14858e-07
5.59064e-07
4.0365e-07
9.95978e-08
9.75836e-07
1.84447e-09
4.52443e-05
8.28037e-07
1.96644e-08
1.23425e-07
5.46718e-08
2.63751e-08
1.3225e-08
2.69867e-09
7.36939e-09
2.96879e-10
3.78693e-05
2.3849e-06
9.0654e-10
6.26389e-09
3.12451e-09
1.26226e-09
4.78293e-10
8.10581e-11
4.95417e-11
2.32794e-08
4.50463e-05
1.48117e-06
5.55552e-10
2.77661e-10
1.6848e-10
7.2183e-11
3.3305e-11
3.06651e-12
3.87192e-11
4.95417e-11
4.19381e-05
6.34451e-10
4.08846e-05
1.86665e-11
1.30069e-11
5.91435e-12
3.4821e-12
3.08352e-13
3.54586e-12
6.67889e-07
3.71316e-05
5.78507e-11
0.000334461
9.63401e-13
2.81531e-12
2.46878e-12
2.38139e-12
1.61664e-13
3.08355e-13
1.30498e-06
3.16657e-05
3.3537e-06
0.000499722
2.61412e-13
3.70203e-13
8.58889e-13
1.01098e-12
1.47641e-13
1.61664e-13
1.36467e-06
1.93187e-05
0.000307697
0.000514038
1.72924e-14
5.31924e-14
5.69322e-13
5.59656e-13
1.42803e-13
1.47641e-13
1.16041e-06
1.94024e-05
0.000530351
0.000527158
1
1
1
1
1
0.999999
0.999986
0.998396
0.974616
0.906509
1
1
1
1
0.999999
0.999986
0.999784
0.939265
0.510788
0.227169
1
1
1
1
0.999995
0.999882
0.983917
0.514813
0.0421544
0.0421215
1
1
1
1
0.999982
0.999525
0.815262
0.125086
0.0269665
0.0433287
1
1
1
0.999999
0.999969
0.997261
0.590493
0.00518843
0.0258265
0.0820485
1
1
1
0.999999
0.999962
0.977846
0.408464
0.000400022
0.0151048
0.0584751
1
1
1
0.999999
0.999944
0.942288
0.281798
7.72069e-05
0.00267831
0.000132861
1
1
1
1
0.999989
0.989934
0.503373
4.27469e-05
0.000429675
8.52355e-05
0.588988
0.653181
0.776144
0.94529
0.999542
0.93034
0.152467
3.84717e-05
0.000193281
4.63808e-05
0.0215749
0.0432183
0.189903
0.476374
0.590031
0.224824
2.95944e-06
6.29548e-05
5.84546e-05
5.62682e-05
0.000258117
0.000226471
0.00035353
0.00456271
0.00799338
8.7674e-08
1.63339e-06
0.000131971
0.00166297
0.000415556
3.60172e-05
1.92289e-05
1.72301e-05
1.11449e-05
1.11114e-06
7.3375e-06
2.12424e-08
1.28182e-05
0.0107589
0.00666462
3.76698e-06
1.64326e-06
8.3413e-07
2.70467e-07
1.7336e-07
1.37812e-08
2.96868e-10
8.89127e-07
0.0128201
0.00836293
2.76512e-07
1.17931e-07
3.95713e-08
8.75426e-09
2.38113e-08
1.04835e-09
1.77184e-10
5.18071e-06
0.0128494
0.000504663
1.48129e-08
6.99432e-09
1.96867e-09
3.42047e-10
8.44883e-11
5.55122e-11
8.0952e-11
1.4791e-05
0.0127982
0.000185375
6.59173e-10
3.51953e-10
1.10291e-10
7.09091e-11
5.43319e-10
5.72636e-11
4.4697e-11
3.88603e-05
0.0125244
0.000553344
3.81267e-11
2.62831e-11
1.09578e-11
4.66892e-11
5.34421e-10
1.44779e-11
2.13452e-11
0.000180217
0.00858698
0.000631638
2.07111e-12
3.06471e-12
5.55589e-12
4.51084e-11
2.96554e-10
7.854e-12
1.1938e-11
0.000538977
0.000325969
0.000290923
5.27322e-13
7.5521e-13
2.96059e-12
3.95117e-11
1.18425e-10
3.16919e-12
1.20127e-08
0.000764167
8.28762e-05
5.73648e-05
4.44738e-14
1.57975e-13
2.36386e-12
3.23136e-11
7.43033e-11
4.29934e-12
6.16841e-12
0.000767151
9.7309e-05
2.74986e-05
1
1
1
1
1
0.999996
0.999936
0.996538
0.90575
0.774089
1
1
1
1
0.999997
0.999938
0.999097
0.79919
0.223491
0.0972177
1
1
1
0.999999
0.99998
0.999541
0.887964
0.212544
0.0423987
0.0513773
1
1
1
0.999998
0.999937
0.996083
0.55918
0.00437747
0.041099
0.079195
1
1
1
0.999997
0.999886
0.955238
0.309765
0.00117665
0.0812261
0.0804551
1
1
1
0.999996
0.999844
0.88959
0.176294
7.72069e-05
0.0573416
0.0176157
1
1
1
0.999995
0.999797
0.819889
0.12066
4.2747e-05
7.72069e-05
0.000136616
1
1
1
0.999999
0.999939
0.9053
0.148957
3.84079e-05
4.27467e-05
0.000100761
0.603651
0.675455
0.820316
0.991584
0.997821
0.766054
1.92045e-05
2.56992e-05
3.84713e-05
0.000111818
0.0247734
0.0620585
0.30747
0.602784
0.600504
0.0835689
3.93111e-08
2.90559e-07
4.20273e-05
0.00049533
0.000327027
0.000334683
0.0024194
0.017206
0.0117969
3.93485e-08
2.84951e-08
9.15577e-08
2.0558e-05
0.00137172
4.73664e-05
2.881e-05
2.21793e-05
2.87464e-06
4.88139e-07
1.30926e-07
1.29653e-08
1.79271e-08
0.00581009
0.00131451
5.5646e-06
2.52543e-06
1.0307e-06
1.66443e-07
8.29712e-07
4.58901e-07
3.09658e-09
1.15282e-08
0.0106076
0.00050096
4.50183e-07
1.94424e-07
5.23064e-08
6.18773e-09
5.16057e-08
1.57571e-09
2.96546e-10
2.82905e-09
0.00127833
0.000177589
2.53781e-08
1.17781e-08
2.89076e-09
2.73279e-10
2.08403e-10
2.18579e-09
8.2273e-09
1.97682e-05
0.000107814
4.09633e-05
1.14294e-09
6.00069e-10
1.54505e-10
3.27489e-11
2.60841e-10
1.92491e-11
3.83016e-07
0.000471172
0.000646209
1.34657e-05
5.88326e-11
4.08073e-11
1.23921e-11
1.02149e-11
3.14942e-10
1.52604e-11
7.16177e-07
0.000765097
0.000760652
1.13216e-05
3.46866e-12
3.44634e-12
4.52519e-12
9.17969e-12
2.9243e-10
1.14614e-11
5.87217e-07
0.000764046
0.000339725
6.15475e-06
8.44855e-13
1.25853e-12
1.43103e-12
3.05627e-12
2.71009e-10
8.97595e-12
1.59063e-11
0.000764341
5.47332e-05
3.73619e-06
1.17071e-13
4.00893e-13
6.73575e-13
1.88498e-12
3.13177e-10
5.83856e-12
9.99858e-12
0.000405036
2.39105e-05
2.17953e-06
1
1
1
1
1
0.999997
0.999939
0.996732
0.909947
0.782629
1
1
1
1
0.999997
0.99994
0.999138
0.803743
0.231532
0.104117
1
1
1
0.999999
0.999981
0.99955
0.890329
0.216489
0.0422569
0.0520444
1
1
1
0.999998
0.999937
0.99614
0.560475
0.00402758
0.0411097
0.0829787
1
1
1
0.999997
0.999886
0.955249
0.310044
0.0010688
0.083179
0.0786967
1
1
1
0.999996
0.999843
0.889397
0.175521
7.2883e-05
0.0529393
0.0180579
1
1
1
0.999995
0.999798
0.82073
0.119401
4.89055e-05
7.28829e-05
0.000136332
1
1
1
0.999999
0.999938
0.902798
0.140481
4.2747e-05
4.89054e-05
9.0561e-05
0.603661
0.675529
0.820849
0.992526
0.99778
0.761896
2.71488e-05
1.94632e-05
4.63025e-05
0.000116762
0.024813
0.0630398
0.313255
0.60765
0.597884
0.0760596
4.7315e-08
3.09294e-07
3.49443e-05
0.000532127
0.000330331
0.000342763
0.00276547
0.018188
0.0116205
4.73697e-08
3.72783e-08
1.51919e-08
5.60926e-08
0.00139266
4.78148e-05
2.95428e-05
2.31829e-05
2.99922e-06
7.36106e-07
3.87383e-07
1.52696e-08
1.89816e-08
0.00286221
0.00116338
5.59921e-06
2.5811e-06
1.07372e-06
1.76177e-07
9.6644e-07
3.88123e-07
1.16074e-09
2.05669e-09
0.0112416
0.000516759
4.51031e-07
1.97467e-07
5.40331e-08
6.45729e-09
5.62535e-08
6.91068e-10
1.02201e-09
7.62957e-10
0.00829095
0.000254366
2.53399e-08
1.19724e-08
2.93908e-09
2.78257e-10
9.48994e-11
1.24347e-09
5.77313e-10
4.16102e-05
0.000394126
0.000105887
1.13921e-09
6.08884e-10
1.59187e-10
2.53201e-11
6.84743e-11
1.80478e-09
5.42437e-10
0.00022007
0.000678331
3.86632e-05
5.85842e-11
4.12144e-11
1.29711e-11
2.53741e-12
1.12422e-10
2.30823e-09
1.19327e-09
0.000309136
0.000919103
2.85305e-05
3.44826e-12
3.45126e-12
4.85129e-12
7.06445e-13
1.99465e-10
2.53433e-09
1.18978e-09
0.000328509
0.000448776
1.49873e-05
8.41914e-13
1.26979e-12
1.46177e-12
5.78735e-13
3.53522e-10
4.86376e-09
3.05883e-10
0.000299181
4.47802e-05
4.72495e-06
1.1895e-13
4.13973e-13
6.81142e-13
5.75446e-13
1.99295e-10
8.47125e-09
9.86707e-10
0.000111067
4.41419e-06
2.11819e-06
1
1
1
1
1
0.999999
0.999987
0.998536
0.977394
0.914427
1
1
1
1
0.999999
0.999987
0.999798
0.943323
0.528986
0.244533
1
1
1
1
0.999995
0.999886
0.985524
0.528052
0.0458194
0.0439594
1
1
1
1
0.999983
0.999537
0.821256
0.130925
0.0261496
0.0474
1
1
1
0.999999
0.99997
0.997462
0.595883
0.0075839
0.0252131
0.0865843
1
1
1
0.999999
0.999962
0.978338
0.410729
0.00027325
0.0140639
0.0627236
1
1
1
0.999999
0.999945
0.944041
0.285331
7.28829e-05
0.00232856
7.63147e-05
1
1
1
1
0.999989
0.990237
0.503975
4.89055e-05
0.000312222
5.00554e-05
0.588592
0.652541
0.77479
0.944331
0.999548
0.927994
0.149075
4.63023e-05
0.000146901
5.09756e-05
0.0215992
0.0434102
0.191822
0.47812
0.588402
0.217526
3.45685e-06
9.23031e-05
8.61038e-05
5.65306e-05
0.000260047
0.000230832
0.000367926
0.00484495
0.00804669
1.11326e-07
4.28816e-08
0.000205756
0.00293401
0.000671607
3.60571e-05
1.95967e-05
1.80572e-05
1.20476e-05
1.31447e-06
7.32643e-06
1.75813e-08
7.43222e-06
0.0118267
0.00688091
3.74206e-06
1.6548e-06
8.68166e-07
2.89263e-07
2.54055e-07
1.84212e-09
1.33322e-09
1.46631e-06
0.011864
0.0084612
2.71725e-07
1.18755e-07
4.07732e-08
9.18441e-09
2.64687e-08
3.87348e-10
6.63342e-10
1.10252e-05
0.0118953
0.000167932
1.44496e-08
6.95897e-09
1.99946e-09
3.16137e-10
4.04666e-11
1.44266e-11
4.43061e-11
4.11855e-05
0.0118549
0.000180056
6.39383e-10
3.4818e-10
1.12473e-10
2.92468e-11
1.4031e-11
1.18643e-11
1.44266e-11
0.000121978
0.0116513
0.00053665
3.69764e-11
2.58806e-11
1.11822e-11
5.64874e-12
4.34469e-11
1.00709e-11
1.18643e-11
0.000184349
0.0102908
0.000626809
1.99202e-12
2.99265e-12
5.73457e-12
4.48801e-12
3.11492e-11
8.51057e-12
1.07962e-11
0.000263023
0.00157892
0.000313154
5.09374e-13
6.99177e-13
2.9926e-12
2.13081e-12
2.91546e-11
5.9427e-12
9.36928e-12
0.000345332
3.47256e-06
4.49297e-05
4.23673e-14
1.32441e-13
2.34495e-12
1.76301e-12
2.80473e-11
4.48131e-12
5.22756e-08
0.00035707
3.43475e-05
7.97986e-06
1
1
1
1
1
1
0.999999
0.999779
0.998607
0.997177
1
1
1
1
1
0.999999
0.999976
0.996125
0.94677
0.82023
1
1
1
1
1
0.999987
0.999736
0.949882
0.541015
0.23909
1
1
1
1
0.999998
0.999949
0.997312
0.724754
0.135658
0.00446312
1
1
1
1
0.999997
0.999909
0.970096
0.451462
0.00621601
0.000908411
1
1
1
1
0.999996
0.999878
0.911155
0.252136
0.000355598
7.63147e-05
1
1
1
1
0.999996
0.999841
0.845616
0.156896
7.63147e-05
5.00554e-05
1
1
1
1
0.999999
0.999969
0.962657
0.383645
5.00554e-05
4.91598e-05
0.561891
0.611403
0.713157
0.855616
0.991228
0.998929
0.786805
0.0564636
5.10956e-05
2.8565e-05
0.0158604
0.0249762
0.085534
0.290909
0.502127
0.492063
0.094544
8.40028e-05
7.1642e-05
1.84709e-07
0.000176548
0.000127172
0.000224679
0.000347388
0.00319491
0.00142248
2.34433e-06
0.000125558
0.000105002
1.42738e-07
2.11954e-05
1.03484e-05
1.14808e-05
1.26185e-05
5.39887e-06
1.16816e-05
1.49847e-06
8.47304e-05
1.53811e-06
9.90855e-08
1.84331e-06
7.95133e-07
5.54605e-07
4.13849e-07
9.84417e-08
6.1172e-07
2.42709e-07
3.90049e-05
9.44773e-07
3.84485e-08
1.17719e-07
5.25006e-08
2.62169e-08
1.35324e-08
2.64524e-09
2.83973e-10
9.54044e-10
3.58936e-05
1.62104e-06
1.83596e-09
5.91273e-09
2.97875e-09
1.20781e-09
4.85306e-10
8.06459e-11
4.43061e-11
2.23395e-06
4.49164e-05
3.19249e-07
3.31867e-07
2.63911e-10
1.61289e-10
6.94092e-11
2.56372e-11
3.09393e-12
1.14594e-11
4.19884e-06
4.37253e-05
4.67088e-07
1.67634e-05
1.75132e-11
1.23144e-11
5.20887e-12
2.50517e-12
1.93948e-13
3.35608e-12
5.52122e-06
3.99318e-05
8.55114e-08
9.38357e-05
9.09545e-13
2.71432e-12
1.90589e-12
1.60795e-12
5.50842e-14
1.93948e-13
5.94388e-06
3.67494e-05
1.98965e-09
0.000187233
2.45457e-13
3.32376e-13
3.68196e-13
3.63747e-13
4.50403e-14
5.50842e-14
5.90218e-06
2.48476e-05
1.16241e-06
0.000203951
1.56957e-14
3.08561e-14
1.32318e-13
1.48736e-13
4.23868e-14
4.50403e-14
5.21598e-06
2.07842e-05
7.32583e-05
0.000197493
1
1
1
1
1
1
1
0.999999
0.999987
0.999941
1
1
1
1
1
1
0.999997
0.999976
0.9998
0.999166
1
1
1
1
1
0.999999
0.999977
0.999742
0.987664
0.903694
1
1
1
1
1
0.999996
0.999923
0.997477
0.831167
0.584093
1
1
1
1
1
0.999994
0.999856
0.970889
0.609298
0.327767
1
1
1
1
1
0.999993
0.99981
0.914343
0.430671
0.197045
1
1
1
1
1
0.999992
0.999773
0.853375
0.318745
0.147712
1
1
1
1
1
0.999999
0.999956
0.965695
0.545815
0.174049
0.530826
0.56468
0.643685
0.762408
0.903006
0.999955
0.998852
0.796011
0.159502
2.64158e-05
0.0103431
0.0134687
0.0363335
0.129702
0.370209
0.567084
0.493605
0.100277
2.54993e-06
1.27948e-07
0.00011279
6.34721e-05
0.000121599
0.000310999
0.000980698
0.0078538
0.00260389
2.39665e-06
1.34693e-07
1.14847e-07
1.08988e-05
5.25067e-06
6.67491e-06
1.45775e-05
1.7128e-05
8.77012e-06
1.82409e-06
1.86239e-06
1.86956e-07
9.38888e-08
8.02485e-07
3.47044e-07
3.35527e-07
5.81002e-07
5.32377e-07
1.51517e-07
5.30606e-07
1.2369e-08
4.88591e-08
3.51798e-08
4.58604e-08
2.21234e-08
1.55122e-08
2.19998e-08
1.61063e-08
3.98795e-09
3.85541e-08
6.60753e-09
2.44108e-09
1.27696e-09
2.22309e-09
1.18087e-09
7.86195e-10
8.00714e-10
5.15803e-10
2.83791e-10
4.18318e-07
9.21952e-10
2.9329e-07
9.49236e-10
1.20773e-10
7.80551e-11
3.84902e-11
3.37748e-11
1.86327e-11
2.27635e-08
6.88565e-07
1.56896e-11
7.30749e-07
5.5322e-10
7.91629e-12
5.45475e-12
2.90281e-12
1.86467e-12
1.03244e-12
3.52973e-08
7.46436e-07
1.53669e-12
1.4286e-07
3.31113e-10
1.29512e-12
1.53795e-12
1.05886e-12
7.02828e-13
1.93948e-13
3.56728e-08
7.18881e-07
7.18708e-13
4.89842e-13
1.99356e-10
1.20001e-13
1.5059e-13
1.64594e-13
1.30476e-13
5.33258e-14
3.21849e-08
6.5093e-07
5.19574e-13
4.31916e-13
6.20536e-10
4.8565e-15
7.01171e-15
4.14288e-14
3.68554e-14
3.82137e-14
2.69916e-08
5.71142e-07
3.77119e-13
3.97985e-13
1.14075e-10
1
1
1
1
1
1
1
1
0.999999
0.999997
1
1
1
1
1
1
1
0.999999
0.999987
0.999944
1
1
1
1
1
1
0.999999
0.999987
0.999893
0.99959
1
1
1
1
1
1
0.999997
0.999951
0.99956
0.997093
1
1
1
1
1
1
0.999994
0.999912
0.998133
0.960909
1
1
1
1
1
1
0.999993
0.999884
0.982175
0.903864
1
1
1
1
1
1
0.999992
0.999855
0.956625
0.851142
1
1
1
1
1
1
0.999999
0.999972
0.994007
0.923099
0.498598
0.521972
0.576622
0.66986
0.789021
0.918287
0.999956
0.999024
0.941527
0.783683
0.00598758
0.00720466
0.0159687
0.049365
0.173242
0.424279
0.57278
0.506958
0.246052
0.105149
6.76748e-05
3.8749e-05
5.26167e-05
0.000171996
0.000425514
0.00314679
0.00870542
0.00196243
2.6033e-07
1.45663e-07
5.33571e-06
3.0637e-06
3.1601e-06
9.18966e-06
2.16138e-05
2.50196e-05
1.08617e-05
7.16383e-06
1.00549e-05
8.97612e-07
3.42777e-07
1.88258e-07
1.57492e-07
4.29012e-07
8.77844e-07
7.95834e-07
1.92988e-07
1.2381e-06
1.4473e-08
6.07139e-07
1.84422e-08
1.08929e-08
8.76136e-09
1.5174e-08
3.2289e-08
2.43416e-08
4.71604e-09
1.28689e-08
1.16429e-09
2.87457e-09
8.77906e-10
5.74117e-10
4.04859e-10
7.8006e-10
1.10572e-09
1.04642e-09
1.62064e-10
1.56895e-11
2.84972e-12
2.78927e-09
5.72966e-11
4.41407e-11
2.73514e-11
3.14194e-11
6.99671e-11
2.90267e-10
1.56896e-11
1.53668e-12
6.81063e-13
5.38105e-09
3.38173e-12
2.83327e-12
1.77247e-12
2.24182e-12
2.93821e-11
1.17649e-09
1.53669e-12
6.81062e-13
4.89842e-13
6.72819e-09
7.39645e-13
8.45766e-13
6.59804e-13
6.1389e-13
2.85219e-11
1.31005e-09
5.01616e-13
4.87228e-13
4.31916e-13
4.99172e-09
5.34833e-14
7.37726e-14
7.04531e-14
5.22861e-14
2.25163e-11
1.13642e-09
6.62495e-14
3.30723e-13
3.97985e-13
5.73663e-09
1.81416e-15
2.69303e-15
3.53097e-15
5.65887e-15
1.68053e-11
8.80808e-10
3.55532e-14
2.22594e-13
3.45805e-13
4.63596e-09
1
1
1
1
1
1
1
1
1
1
1
1
1
1
1
1
1
1
0.999999
0.999998
1
1
1
1
1
1
1
1
0.999996
0.999982
1
1
1
1
1
1
1
0.999998
0.999983
0.999941
1
1
1
1
1
1
1
0.999997
0.999971
0.999892
1
1
1
1
1
1
1
0.999997
0.999965
0.999855
1
1
1
1
1
1
1
0.999996
0.999953
0.999827
1
1
1
1
1
1
1
0.999999
0.999991
0.999946
0.466508
0.484618
0.52232
0.585892
0.679324
0.788028
0.901071
0.989204
0.999626
0.998091
0.00300641
0.00378789
0.007271
0.018483
0.0567278
0.174955
0.375258
0.504959
0.591059
0.626862
3.90076e-05
2.93427e-05
3.04742e-05
5.98443e-05
0.000204644
0.000436384
0.00127776
0.00348685
0.0078204
0.0165654
2.67289e-06
2.16169e-06
1.9147e-06
3.48965e-06
1.12843e-05
2.25742e-05
1.90193e-05
6.39877e-06
1.86604e-06
1.37523e-06
1.54763e-07
1.2189e-07
1.08522e-07
1.55649e-07
5.35718e-07
9.27748e-07
6.12923e-07
1.2951e-07
6.88867e-07
1.64781e-06
8.01482e-09
6.76466e-09
5.54303e-09
8.45884e-09
1.76994e-08
3.44167e-08
1.88789e-08
3.52303e-09
2.83858e-08
7.12733e-08
4.08284e-10
3.91643e-10
2.80365e-10
3.66468e-10
9.09925e-10
1.1713e-09
6.01286e-10
1.06713e-10
3.54244e-11
9.22498e-11
2.8405e-11
2.92356e-11
2.15037e-11
2.27739e-11
3.7692e-11
4.43762e-11
2.00315e-11
5.97919e-12
2.84972e-12
5.52491e-11
1.53957e-12
1.75777e-12
1.33218e-12
1.45317e-12
2.548e-12
1.58883e-12
7.79967e-13
3.58866e-12
3.22607e-12
4.70759e-11
3.76149e-13
5.02686e-13
4.76545e-13
5.11014e-13
1.13147e-12
8.33994e-14
6.62495e-14
3.01915e-12
2.08474e-12
6.79646e-11
2.50163e-14
3.93728e-14
4.26395e-14
5.63988e-14
4.77758e-13
2.82243e-14
3.55532e-14
1.7273e-12
1.32818e-12
9.47275e-11
7.87194e-16
1.36877e-15
1.4812e-15
6.00888e-15
2.77161e-13
2.41485e-14
3.04881e-14
1.04597e-12
1.22042e-12
1.67943e-10
1
1
1
1
1
1
1
1
1
1
1
1
1
1
1
1
1
1
1
1
1
1
1
1
1
1
1
1
1
1
1
1
1
1
1
1
1
1
1
0.999998
1
1
1
1
1
1
1
1
0.999999
0.999997
1
1
1
1
1
1
1
1
0.999999
0.999996
1
1
1
1
1
1
1
1
0.999999
0.999996
1
1
1
1
1
1
1
1
1
0.999999
0.437136
0.45178
0.480204
0.523142
0.585163
0.66793
0.758706
0.849527
0.934121
0.981503
0.00137076
0.00184756
0.00351187
0.00739471
0.0183553
0.0490778
0.128576
0.281356
0.456856
0.598141
2.53968e-05
2.47804e-05
2.57494e-05
2.92666e-05
5.9559e-05
0.000174303
0.000313368
0.000336418
0.00381775
0.0184343
1.61063e-06
1.65878e-06
1.68757e-06
1.80087e-06
3.4773e-06
9.42343e-06
1.50714e-05
1.26276e-05
1.26137e-05
4.792e-06
8.77175e-08
9.30526e-08
9.04883e-08
9.926e-08
1.56899e-07
4.47474e-07
6.23869e-07
4.37904e-07
3.35056e-07
2.76408e-07
4.43774e-09
4.95742e-09
4.68066e-09
4.92374e-09
8.46989e-09
1.62488e-08
2.40091e-08
1.51377e-08
1.20217e-08
9.35357e-09
2.39055e-10
2.85865e-10
2.75875e-10
2.38993e-10
3.67997e-10
8.10837e-10
8.94348e-10
5.3984e-10
3.99972e-10
3.6576e-10
1.67256e-11
2.11657e-11