/*--------------------------------*- C++ -*----------------------------------*\
| =========                 |                                                 |
| \\      /  F ield         | OpenFOAM: The Open Source CFD Toolbox           |
|  \\    /   O peration     | Version:  2312                                  |
|   \\  /    A nd           | Website:  www.openfoam.com                      |
|    \\/     M anipulation  |                                                 |
\*---------------------------------------------------------------------------*/
FoamFile
{
    version     2.0;
    format      ascii;
    arch        "LSB;label=32;scalar=64";
    class       volScalarField;
    location    "1.29";
    object      p_rgh;
}
// * * * * * * * * * * * * * * * * * * * * * * * * * * * * * * * * * * * * * //

dimensions      [1 -1 -2 0 0 0 0];

internalField   nonuniform List<scalar> 
8000
(
397.636
397.218
396.459
395.444
394.276
393.084
391.925
391.006
390.402
390.149
398.545
398.001
397.139
396.064
394.878
393.644
392.479
391.504
390.76
390.522
400.596
400.016
398.836
397.414
396.072
394.795
393.579
392.501
391.786
391.382
403.631
402.972
401.66
400.127
398.344
396.694
395.259
394.047
393.211
392.781
407.666
406.965
405.572
403.864
401.748
399.843
398.018
396.506
395.431
394.932
413.207
412.517
410.89
408.722
406.279
403.926
401.802
400.068
398.873
398.474
420.39
419.441
417.476
414.937
412.116
409.468
407.198
405.369
404.261
403.618
430.131
428.632
426.098
423.178
419.757
417.092
414.913
411.642
407.315
405.545
429.727
415.098
385.089
354.989
323.316
295.185
277.946
271.306
272.407
273.668
133.391
114.615
89.054
63.6663
41.3225
27.7413
20.6746
17.1652
15.7248
14.9736
0.0674271
0.055776
0.0338525
0.0187268
0.0241873
0.0347638
0.0394783
0.0344303
0.0279058
0.0359275
0.104771
0.168719
0.183496
0.0956947
0.037961
0.0442094
0.0416712
0.0404061
0.0407316
0.0461345
0.152389
0.25857
0.216207
0.0577179
0.0579461
0.0732103
0.0593086
0.0490725
0.0543672
0.0592662
0.142387
0.239427
0.253922
0.098855
0.07827
0.164369
0.107998
0.0374967
0.0419764
0.0514493
0.142587
0.43613
0.26552
0.0569047
0.0809983
0.170413
0.106111
0.0400822
0.044835
0.0582406
0.307625
0.457671
0.282175
0.0562451
0.0577987
0.0573129
0.051133
0.0489764
0.0509653
0.0615058
0.480732
0.473563
0.326802
0.0648745
0.0972246
0.0534015
0.045147
0.0430382
0.0445597
0.133378
0.495397
0.486667
0.25065
0.0708223
0.158341
0.122329
0.0395572
0.0349596
0.0341369
0.0439592
0.514215
0.176584
0.109016
0.160182
0.158782
0.156649
0.0643544
0.0283588
0.0262565
0.0300912
0.47346
0.0260105
0.0534609
0.151272
0.153767
0.154611
0.153028
0.0579937
0.0226511
0.0262861
397.042
396.489
395.702
394.693
393.528
392.239
391.109
390.165
389.528
389.222
397.865
397.235
396.276
395.159
393.998
392.75
391.517
390.486
389.771
389.539
399.844
399.053
397.774
396.382
395.052
393.765
392.45
391.38
390.653
390.253
402.729
401.909
400.406
398.791
397.108
395.407
393.997
392.739
391.755
391.225
406.354
405.609
404.267
402.429
400.389
398.475
396.479
394.796
393.476
392.781
411.458
410.821
409.268
407.012
404.48
401.964
399.672
397.695
396.13
395.121
418.596
417.569
415.596
412.918
409.942
406.837
404.314
402.118
400.353
399.388
428.296
426.642
424.135
420.671
417.119
413.893
411.082
408.733
406.37
405.366
408.551
396.621
366.516
328.428
290.41
260.576
238.466
220.59
206.724
195.184
114.369
98.1493
74.264
49.4889
30.1885
18.1504
9.79158
6.07939
5.17482
5.33407
0.0758273
0.0625811
0.0361516
0.0229276
0.0283268
0.0258929
0.0248208
0.0223407
0.0162779
0.0218599
0.121108
0.163739
0.16256
0.0623158
0.0567055
0.0558332
0.0468161
0.0403333
0.0367824
0.0435378
0.19681
0.269864
0.0931096
0.108909
0.157021
0.159112
0.0756212
0.0421307
0.0441501
0.0530815
0.201226
0.289298
0.129022
0.0766565
0.164407
0.159233
0.151544
0.0728372
0.0397496
0.0524939
0.150823
0.300581
0.11085
0.0558493
0.122064
0.169113
0.15699
0.117199
0.0411333
0.0571949
0.101664
0.284955
0.126838
0.0561559
0.0627786
0.13309
0.142635
0.0415239
0.0447987
0.0634304
0.36873
0.42951
0.138646
0.0705216
0.0980891
0.049573
0.0396669
0.0355333
0.0773886
0.208784
0.499156
0.494964
0.110132
0.130134
0.153647
0.0446729
0.0356066
0.0272391
0.0241016
0.059093
0.514844
0.402112
0.121718
0.159855
0.155992
0.0517048
0.0281598
0.0197262
0.0147875
0.0169206
0.509023
0.057808
0.0688372
0.141143
0.148486
0.116054
0.0343598
0.016531
0.0112426
0.0144419
395.925
395.464
394.979
393.916
392.452
390.991
389.711
388.678
387.975
387.68
396.46
396.038
395.308
394.128
392.756
391.342
389.999
388.891
388.133
387.816
398.259
397.492
396.492
394.932
393.443
391.995
390.617
389.417
388.559
388.164
401.01
399.99
398.745
396.892
395.049
393.289
391.713
390.298
389.235
388.697
404.511
403.513
402.141
400.025
397.756
395.646
393.488
391.681
390.327
389.592
409.479
408.378
406.484
403.891
401.052
398.215
395.799
393.728
392.129
391.12
416.259
414.778
412.296
409.051
405.345
401.773
399.163
396.954
395.185
394.002
425.36
423.538
420.509
416.526
412.18
409.227
406.064
403.517
401.619
398.078
375.589
363.401
328.698
283.384
240.016
200.438
163.039
132.534
110.782
98.183
85.0338
70.5545
51.4717
31.0171
17.2242
4.66702
0.315208
0.187123
0.158094
0.133824
0.0790907
0.0611043
0.0351893
0.0203638
0.0047168
0.0339803
0.062333
0.0727024
0.0706923
0.062356
0.115661
0.137562
0.0864431
0.0492892
0.0532008
0.0571163
0.0564904
0.0660117
0.079682
0.0767412
0.20042
0.26425
0.0693571
0.0579118
0.0933984
0.0729242
0.052732
0.0489169
0.0620997
0.0755983
0.300815
0.272353
0.0961203
0.0755479
0.168543
0.149015
0.0440599
0.0437978
0.0540515
0.0696472
0.201999
0.254191
0.0709695
0.109529
0.174561
0.168073
0.153306
0.0449408
0.0495362
0.0652707
0.0977258
0.131725
0.0623621
0.0667989
0.169678
0.180581
0.140106
0.0351578
0.0452546
0.0557058
0.263368
0.101216
0.0702449
0.0840496
0.0690692
0.0448501
0.0343644
0.0282817
0.0553756
0.0834301
0.50438
0.227158
0.083728
0.142501
0.104156
0.0350661
0.0236433
0.0152245
0.0146497
0.0205291
0.51885
0.326626
0.0918734
0.135274
0.0504237
0.0246722
0.0164976
0.00637121
0.00980026
0.0332667
0.525049
0.169938
0.0692591
0.0408069
0.0379498
0.0251815
0.0155787
0.00612835
0.0273437
0.0735123
394.49
394.005
393.589
392.427
390.77
389.155
387.748
386.605
385.833
385.519
395
394.48
393.847
392.706
391.053
389.385
387.869
386.634
385.791
385.434
396.136
395.612
394.683
393.229
391.503
389.77
388.13
386.737
385.755
385.301
398.888
397.769
396.482
394.606
392.525
390.495
388.61
386.961
385.755
385.151
402.243
401.027
399.311
397.015
394.41
391.855
389.46
387.408
385.896
385.066
406.809
405.318
402.969
400.025
396.808
393.676
390.772
388.285
386.409
385.235
412.963
411.305
408.296
404.498
400.318
396.757
393.305
390.256
387.889
386.063
421.416
419.596
416.065
411.556
407.238
402.638
390.253
375.035
359.826
347.964
333.467
319.484
281.401
229.189
172.823
115.79
75.6934
50.8222
34.9854
24.5355
57.3866
44.9304
30.6168
17.6879
4.48746
0.258944
0.222561
0.174199
0.137125
0.141524
0.0770824
0.0607562
0.0350954
0.00491741
0.0310359
0.0933294
0.0960567
0.114779
0.130844
0.13322
0.0941085
0.0721341
0.0442881
0.0351514
0.0490083
0.0605203
0.101868
0.126152
0.131514
0.142661
0.151694
0.164056
0.0746763
0.0560643
0.0624438
0.0559066
0.0501176
0.0525028
0.0583546
0.093034
0.232615
0.271634
0.134148
0.0665294
0.071619
0.0712573
0.055195
0.051257
0.0571772
0.0663739
0.201087
0.267621
0.22857
0.109621
0.163509
0.171249
0.130706
0.0450995
0.0510245
0.0579633
0.100507
0.089939
0.0686981
0.0909471
0.18052
0.172889
0.0939227
0.0438542
0.0359691
0.0445525
0.273272
0.0897064
0.0692151
0.0552685
0.0523716
0.0407275
0.0220317
0.0139631
0.0196132
0.0456707
0.505118
0.389718
0.06247
0.0770322
0.0490748
0.0206051
0.00816485
0.000922036
0.0293109
0.103327
0.519108
0.396741
0.0507058
0.037094
0.0211436
0.012925
0.00377135
-0.00353823
0.0317517
0.192593
0.417831
0.141888
0.0343756
0.0131691
0.00963435
0.00685158
0.00355438
-0.00159951
0.000106107
0.194908
392.758
392.181
391.546
390.235
388.585
386.899
385.361
384.103
383.254
382.914
393.283
392.605
391.854
390.53
388.752
386.931
385.264
383.895
382.957
382.559
394.378
393.577
392.438
390.965
389.025
386.991
385.086
383.49
382.364
381.841
396.343
395.33
393.749
391.825
389.51
387.126
384.84
382.894
381.484
380.767
399.15
397.973
396.01
393.447
390.556
387.454
384.57
382.126
380.331
379.296
403.116
401.432
398.753
395.398
391.687
387.894
384.306
381.219
378.931
377.33
408.618
406.826
403.294
398.987
394.397
389.43
384.816
380.707
377.537
375.196
413.556
414.655
410.631
406.182
388.881
357.311
322.755
287.72
255.733
231.807
286.664
268.576
224.471
161.079
93.5221
46.5366
21.2068
5.60182
0.291519
0.27731
35.0813
26.2132
16.9061
5.30353
0.228897
0.202243
0.141946
0.133547
0.147418
0.167787
0.0750972
0.0628543
0.0286026
0.0395525
0.0919272
0.108091
0.109732
0.111664
0.131951
0.189761
0.102068
0.0711683
0.0498836
0.0538509
0.0662793
0.110355
0.122438
0.110576
0.106086
0.143764
0.151999
0.0861256
0.0711455
0.0672509
0.0633749
0.0889486
0.0989214
0.0620308
0.0707999
0.0825557
0.141194
0.242649
0.11823
0.0721692
0.0680297
0.0598155
0.0555228
0.0537624
0.059333
0.0777629
0.132735
0.262277
0.246163
0.232628
0.109435
0.0749601
0.0390389
0.0373228
0.0471203
0.0765352
0.105566
0.081423
0.0775203
0.102162
0.14348
0.0640689
0.0162917
0.0158073
0.0300746
0.0940924
0.377732
0.124215
0.0891332
0.0498915
0.0441095
0.0291468
0.00691533
0.00215264
0.0210461
0.1664
0.506286
0.493825
0.254879
0.0390939
0.0269961
0.0133868
0.00169204
-0.00443028
0.0546752
0.186791
0.516297
0.512472
0.141817
0.0259569
0.0167421
0.00870199
0.00181691
-0.00252486
0.104433
0.19514
0.187786
0.172603
0.0519203
0.0408003
0.00699423
0.00314557
0.000881618
-5.69993e-05
0.0149721
0.164594
390.885
390.235
389.345
387.929
386.226
384.437
382.769
381.394
380.46
380.088
391.319
390.608
389.631
388.076
386.209
384.257
382.433
380.919
379.874
379.433
392.248
391.388
390.069
388.307
386.164
383.895
381.749
379.945
378.663
378.067
393.808
392.751
390.932
388.736
386.115
383.33
380.676
378.418
376.766
375.925
395.98
394.671
392.533
389.612
386.186
382.577
379.166
376.264
374.081
372.821
398.998
397.212
394.3
390.512
386.146
381.449
377.028
373.298
370.491
368.928
404.035
401.751
397.934
393.229
387.311
380.822
374.562
369.325
363.272
358.421
398.941
401.707
401.037
379.87
337.01
279.093
217.324
168.321
138.543
123.195
236.157
214.485
164.425
97.6859
43.8613
14.8153
1.62224
0.26326
0.242443
0.247704
18.7702
13.7769
4.84417
0.263013
0.196939
0.129174
0.131444
0.150146
0.161503
0.172945
0.0725865
0.0532523
0.0462154
0.0894522
0.109194
0.104963
0.106747
0.117326
0.129419
0.145929
0.0997303
0.0742151
0.0703678
0.0707999
0.105802
0.119383
0.0921609
0.0886455
0.099676
0.112435
0.148041
0.0882087
0.0791919
0.0718496
0.0969121
0.107108
0.0700938
0.0675137
0.0758245
0.0878859
0.162777
0.0955329
0.0787559
0.0830477
0.105728
0.083827
0.0460184
0.0475884
0.0629851
0.0788835
0.133975
0.0941588
0.142284
0.178911
0.0968274
0.0339892
0.0266357
0.0346183
0.0742216
0.157723
0.215326
0.0760496
0.0767063
0.0971273
0.0507979
0.0206248
0.012281
0.0206979
0.0474882
0.18987
0.489395
0.0703761
0.075228
0.0443044
0.034306
0.0179196
0.00933309
0.00720967
0.0924406
0.191038
0.50131
0.481985
0.462706
0.122004
0.0328963
0.0144651
0.00586557
0.00389336
0.178089
0.194228
0.307646
0.475675
0.465347
0.226511
0.0953742
0.0506479
0.00559226
0.0692307
0.192503
0.201214
0.0476273
0.0920336
0.129226
0.159229
0.129461
0.120908
0.0131957
0.0256825
0.156185
0.145812
388.997
388.381
387.306
385.768
383.941
382.021
380.214
378.713
377.689
377.278
389.326
388.644
387.448
385.752
383.742
381.63
379.637
377.97
376.813
376.325
390.052
389.217
387.738
385.72
383.341
380.827
378.441
376.417
374.977
374.317
391.146
390.161
388.254
385.709
382.717
379.551
376.53
373.937
372.032
371.098
392.922
391.448
389.106
385.806
381.915
377.765
373.785
370.37
367.686
366.323
395.432
393.269
390.156
385.89
380.714
375.128
369.867
365.519
362.326
360.68
399.58
397.159
393.113
387.519
380.124
371.92
362.857
348.725
334.449
323.289
382.386
384.585
379.846
343.469
274.613
192.402
126.351
89.983
69.2477
59.3256
188.128
162.5
112.797
56.3534
19.4354
2.47686
0.284348
0.277019
0.26142
0.257325
8.42022
3.1509
0.23189
0.194627
0.13747
0.137396
0.171658
0.170673
0.169877
0.181951
0.0716942
0.0718422
0.0879031
0.105726
0.0998754
0.100226
0.117605
0.128229
0.138833
0.150669
0.102448
0.285021
0.079244
0.0809306
0.112291
0.086956
0.0877657
0.0968039
0.106348
0.118275
0.107066
0.162134
0.0810756
0.0790039
0.105737
0.0885742
0.0649019
0.0732896
0.0809142
0.0914771
0.376077
0.0764038
0.0739614
0.09034
0.101312
0.0778413
0.0464931
0.0545429
0.0661648
0.086825
0.414708
0.0691951
0.0656543
0.0630959
0.0724857
0.0326817
0.0302489
0.036285
0.0621249
0.160915
0.457915
0.0706201
0.0608518
0.0595989
0.0315517
0.0221234
0.0215404
0.0263802
0.099224
0.200952
0.483741
0.0754031
0.0643985
0.106926
0.0317084
0.0225431
0.0183314
0.0497313
0.193129
0.204923
0.391622
0.257706
0.332053
0.274794
0.0731669
0.0207375
0.0172584
0.149631
0.198555
0.209548
0.0868591
0.16975
0.320898
0.288922
0.135864
0.0299565
0.0865098
0.196829
0.20214
0.213182
0.0778349
0.0651835
0.0927194
0.108882
0.0965237
0.0307069
0.17188
0.201391
0.206464
0.139852
387.365
386.722
385.536
383.881
381.93
379.878
377.934
376.306
375.194
374.73
387.602
386.88
385.563
383.732
381.571
379.295
377.134
375.317
374.055
373.522
388.154
387.264
385.642
383.44
380.839
378.086
375.46
373.221
371.632
370.905
388.98
387.826
385.787
383.011
379.696
376.164
372.771
369.824
367.7
366.66
390.23
388.632
386.076
382.49
378.145
373.433
368.866
364.734
361.827
360.352
392.241
389.998
386.643
381.822
375.881
369.453
363.328
358.397
354.991
353.42
395.897
393.29
388.852
382.297
373.632
364.023
341.693
316.462
291.052
274.102
367.233
366.376
356.008
303.553
217.214
125.828
71.2863
42.8723
26.455
18.8782
149.069
121.558
76.035
33.466
7.38068
0.285003
0.284458
0.258704
0.249561
0.250788
1.31959
0.244512
0.185361
0.134406
0.106889
0.152098
0.176461
0.172622
0.173876
0.186373
0.103457
0.158692
0.108629
0.101155
0.0955951
0.108923
0.123188
0.133899
0.141375
0.155346
0.108462
0.35328
0.0948058
0.102792
0.0893571
0.0839209
0.0942064
0.102151
0.109397
0.124809
0.109762
0.366998
0.0858104
0.0996323
0.0991628
0.0630235
0.0715689
0.0791328
0.0856193
0.096435
0.332319
0.111652
0.0750048
0.0733712
0.0930685
0.0445327
0.0513741
0.0593163
0.0680745
0.0734696
0.430834
0.069989
0.0607752
0.0470536
0.0348448
0.030004
0.0347867
0.0429815
0.0526423
0.0599101
0.447912
0.0776509
0.0568797
0.0519273
0.0298856
0.0269409
0.0286164
0.0367093
0.0555468
0.0596257
0.447437
0.127918
0.166334
0.176404
0.0662157
0.115795
0.130314
0.0922183
0.0769189
0.0796068
0.114361
0.0770261
0.121486
0.235768
0.212581
0.19491
0.21842
0.163306
0.078263
0.0717897
0.0763059
0.0637272
0.0537877
0.0912987
0.153878
0.153758
0.184665
0.138215
0.0783019
0.0627286
0.154565
0.0529365
0.0448582
0.0459673
0.0488322
0.0447017
0.0537972
0.0660267
0.0452353
0.0632111
386.112
385.436
384.175
382.428
380.37
378.204
376.145
374.381
373.193
372.659
386.292
385.518
384.113
382.173
379.882
377.461
375.153
373.196
371.852
371.297
386.662
385.739
384.016
381.671
378.884
375.918
373.082
370.661
368.941
368.089
387.24
385.987
383.849
380.897
377.312
373.455
369.737
366.525
364.163
362.879
388.118
386.455
383.754
379.91
375.139
369.893
364.776
360.318
356.954
354.888
389.757
387.493
383.923
378.611
372.018
364.813
358.116
352.71
349.007
346.862
392.943
390.237
385.394
378.065
368.531
351.429
318.298
279.8
246.49
227.137
351.863
348.432
332.009
269.699
175.694
84.1523
39.0986
15.0605
1.91569
0.377887
118.875
94.9663
54.6726
21.4353
2.06391
0.272492
0.259063
0.245685
0.259964
0.271166
0.235929
0.201032
0.146846
0.100289
0.12532
0.167026
0.171235
0.175593
0.191441
0.212873
0.137529
0.145381
0.107465
0.0931697
0.0965652
0.114158
0.12224
0.129391
0.140528
0.168601
0.107865
0.184922
0.0957547
0.0982424
0.0921816
0.0865205
0.09393
0.0993643
0.104075
0.127155
0.104306
0.373743
0.0949463
0.091887
0.0990001
0.0627127
0.0721497
0.0773998
0.0812803
0.0950487
0.106534
0.378156
0.0836987
0.0554668
0.0530264
0.0412793
0.0533922
0.0607436
0.0663692
0.072194
0.429866
0.131382
0.055563
0.0422204
0.0262375
0.0278078
0.0397185
0.0493255
0.0563052
0.0608823
0.43713
0.107366
0.116912
0.119402
0.0486416
0.0705315
0.0383107
0.0433163
0.0504366
0.0554903
0.155227
0.0855947
0.21085
0.202813
0.19917
0.208663
0.155769
0.0492949
0.0483684
0.0525066
0.0944382
0.0766308
0.0708544
0.167561
0.215137
0.222852
0.230929
0.0991077
0.0466443
0.0499238
0.142905
0.0632211
0.0526685
0.0638481
0.23513
0.242728
0.242431
0.0715188
0.0462575
0.0665233
0.139507
0.0367344
0.0555964
0.0998152
0.248404
0.256432
0.10458
0.0554313
0.0504447
0.147283
385.338
384.634
383.334
381.526
379.393
377.154
375.062
373.081
371.897
371.238
385.431
384.666
383.208
381.199
378.817
376.293
373.884
371.814
370.408
369.456
385.697
384.775
382.999
380.561
377.638
374.518
371.538
368.999
367.162
365.725
386.126
384.81
382.605
379.54
375.772
371.681
367.749
364.407
361.8
359.912
386.79
385.092
382.256
378.23
373.158
367.527
362.074
357.396
353.768
351.42
388.153
385.895
382.109
376.397
369.461
361.721
354.685
349.325
344.668
341.27
390.956
388.197
383.055
375.081
364.974
340.603
299.059
251.816
209.956
186.945
337.498
335.999
315.218
244.935
146.401
61.5878
21.726
2.55804
0.381243
0.368595
100.266
80.0996
43.2925
14.5012
0.502886
0.275065
0.236378
0.246811
0.266141
0.283221
0.214755
0.15729
0.118456
0.0861667
0.137769
0.174733
0.168168
0.179925
0.19879
0.23326
0.136539
0.121765
0.0974493
0.0898894
0.101141
0.11417
0.116513
0.122539
0.132798
0.177096
0.10267
0.102413
0.0841052
0.0865935
0.102864
0.0845981
0.0860338
0.0888431
0.0917354
0.110237
0.0939283
0.1717
0.0850959
0.0632032
0.0968879
0.0585611
0.0637727
0.0678828
0.0693132
0.0791207
0.089704
0.286152
0.0836138
0.0542565
0.0575009
0.0348601
0.0468733
0.0537799
0.0588762
0.0683899
0.132023
0.194168
0.0683091
0.0771098
0.0332152
0.0234205
0.0377136
0.0483937
0.0539736
0.0608715
0.116731
0.0757027
0.159378
0.195457
0.173294
0.0766159
0.034327
0.0462011
0.0514787
0.0542473
0.109849
0.0710004
0.124154
0.202626
0.199763
0.191539
0.0540254
0.0468164
0.0503769
0.0519815
0.141023
0.0713362
0.0546468
0.178523
0.222614
0.228427
0.117318
0.0503082
0.0546203
0.0545191
0.135245
0.0510607
0.0580547
0.212739
0.256059
0.2534
0.0911461
0.0559881
0.109128
0.11762
0.0505548
0.029797
0.112596
0.235142
0.242491
0.113147
0.0949796
0.0854035
0.208887
0.234158
385.129
384.426
383.105
381.261
379.087
376.802
374.655
372.656
371.44
370.823
385.22
384.46
382.959
380.903
378.478
375.902
373.435
371.312
369.86
369.004
385.446
384.516
382.714
380.2
377.225
374.035
370.974
368.347
366.455
365.414
385.821
384.503
382.218
379.069
375.229
371.045
366.988
363.412
360.801
359.225
386.411
384.728
381.779
377.559
372.386
366.647
361.071
356.026
352.178
349.833
387.614
385.395
381.512
375.655
368.513
360.422
353.304
347.791
341.996
337.788
390.222
387.508
382.135
373.933
363.254
335.737
290.41
236.361
181.68
156.746
330.65
332.287
308.867
232.742
132.76
54.3799
15.0149
0.45079
0.42804
0.434048
92.6716
73.5578
37.7459
11.4743
0.419231
0.27625
0.220025
0.253841
0.288088
0.307502
0.193356
0.147311
0.109716
0.0755782
0.157831
0.17178
0.160449
0.177802
0.203451
0.255404
0.127756
0.110874
0.0905738
0.0906696
0.106518
0.104259
0.103744
0.114838
0.127812
0.198078
0.095651
0.0898694
0.0747738
0.0768753
0.0861426
0.074579
0.0720877
0.0789855
0.0833806
0.0988777
0.084599
0.0758334
0.061091
0.0554328
0.0879969
0.0502781
0.0501922
0.0581112
0.0615343
0.0697009
0.0815587
0.0738869
0.060295
0.0513634
0.090452
0.0337243
0.0348504
0.0448976
0.0517745
0.0582689
0.0745593
0.0938695
0.0632438
0.176152
0.173725
0.0390216
0.0279251
0.0405933
0.0487678
0.0502461
0.0706454
0.0660914
0.0748632
0.191413
0.183505
0.0904675
0.0299026
0.0432744
0.0494406
0.0485049
0.125595
0.064346
0.0498084
0.189363
0.199905
0.140278
0.0409545
0.0509149
0.0524612
0.0508976
0.135097
0.0544008
0.0554297
0.183476
0.235305
0.161885
0.0609188
0.0601483
0.0658046
0.0547108
0.0806278
0.0352127
0.0823895
0.23734
0.251736
0.10238
0.0811219
0.144364
0.228955
0.167863
0.0380999
0.0602182
0.145169
0.166183
0.097409
0.0996714
0.177375
0.247541
0.237172
0.239224
385.51
384.811
383.487
381.649
379.479
377.187
375.002
373.128
371.86
371.32
385.661
384.867
383.376
381.33
378.908
376.336
373.87
371.765
370.3
369.68
385.954
385.025
383.2
380.693
377.725
374.546
371.484
368.851
366.948
366.035
386.381
385.068
382.804
379.671
375.838
371.668
367.6
364.064
361.365
359.866
387.03
385.337
382.451
378.303
373.126
367.396
361.652
356.604
352.579
350.474
388.299
386.014
382.266
376.536
369.358
361.555
354.434
348.814
342.646
337.474
390.956
388.274
383.045
375.09
364.127
338.564
296.495
242.483
180.425
150.366
335.683
338.413
316.279
239.285
140.173
62.7926
20.7129
3.24198
0.651137
0.491391
96.2332
74.5971
38.1468
11.9494
0.538182
0.346842
0.222867
0.233597
0.289374
0.329915
0.188537
0.149765
0.106842
0.0820228
0.156698
0.170117
0.159682
0.173371
0.202923
0.288156
0.113023
0.0938442
0.0732759
0.0748104
0.0845234
0.0816179
0.0912701
0.113866
0.137272
0.220006
0.0834952
0.0708502
0.0572778
0.0610493
0.0654159
0.0526339
0.0585004
0.0789482
0.0891911
0.101372
0.0768886
0.0618702
0.0478737
0.0452293
0.0506614
0.0350081
0.0394068
0.0633706
0.0699599
0.070506
0.0767416
0.0619897
0.0457469
0.0408161
0.0469913
0.0264589
0.0272999
0.0499733
0.0544178
0.057028
0.0774791
0.0638014
0.0477905
0.113296
0.116832
0.0420839
0.022671
0.0498514
0.0505046
0.0518702
0.0998701
0.0762668
0.0485355
0.115873
0.184887
0.0804505
0.0307703
0.052418
0.054973
0.050191
0.112266
0.0954669
0.051436
0.0738863
0.191026
0.0925849
0.0476068
0.0593146
0.0620757
0.0537223
0.0956937
0.0466404
0.0563973
0.14364
0.193817
0.0903389
0.0703565
0.0756567
0.0704293
0.0595987
0.0699831
0.0328039
0.132239
0.202361
0.123805
0.0931235
0.107018
0.20574
0.202421
0.194885
0.0572597
0.0564013
0.099198
0.0921627
0.0797553
0.0992263
0.229398
0.238947
0.228736
0.223859
386.437
385.75
384.467
382.68
380.561
378.32
376.183
374.382
373.14
372.614
386.606
385.853
384.432
382.45
380.091
377.585
375.187
373.148
371.716
371.099
387.087
386.189
384.403
381.985
379.112
376.039
373.077
370.518
368.678
367.811
387.713
386.367
384.273
381.253
377.553
373.554
369.663
366.296
363.697
362.35
388.628
386.856
384.202
380.277
375.323
369.865
364.394
359.44
355.143
353.567
390.253
387.704
384.399
378.976
372.218
364.861
358.022
352.13
347.695
342.938
393.303
390.314
385.728
378.135
368.09
348.296
314.397
268.876
217.677
182.361
354.059
352.364
332.293
263.116
169.154
89.251
40.8191
16.1132
5.43391
1.97842
113.022
84.2212
45.201
16.951
2.85448
0.426613
0.334859
0.266719
0.278724
0.301498
0.209441
0.154046
0.0826797
0.055288
0.118019
0.165326
0.174076
0.185
0.203968
0.254027
0.0833153
0.0602755
0.0283893
0.0139885
0.0370005
0.065003
0.0938309
0.125387
0.158941
0.198186
0.0583914
0.0399574
0.0237309
0.01669
0.0222799
0.0278032
0.0626842
0.104103
0.179677
0.118793
0.0646702
0.0456631
0.031422
0.0261218
0.0256066
0.0248922
0.0405535
0.082753
0.155499
0.0985701
0.0689022
0.0551629
0.0393219
0.0318412
0.0266092
0.024329
0.0351171
0.0901444
0.0937976
0.08884
0.0979718
0.0609701
0.0488893
0.0401737
0.0321318
0.026879
0.0405383
0.0954619
0.0649098
0.0533692
0.0992907
0.0850963
0.0543842
0.0489669
0.0525388
0.0398293
0.0558554
0.0717529
0.0607503
0.0507723
0.0701538
0.0693889
0.0573571
0.0574588
0.0613685
0.0545356
0.0585711
0.0655078
0.0675728
0.054064
0.0945187
0.0339372
0.0635757
0.0687608
0.0699214
0.0679569
0.0706499
0.0721048
0.0630868
0.0686082
0.0745708
0.0294454
0.0633219
0.074771
0.0828713
0.0775571
0.0639358
0.0759073
0.129676
0.184098
0.0671203
0.0351074
0.0436599
0.0530655
0.049395
0.0401415
0.0325843
0.146206
0.174273
0.156212
387.81
387.161
385.96
384.26
382.228
380.079
378.036
376.326
375.148
374.675
388.045
387.348
386.048
384.17
381.919
379.53
377.247
375.318
373.967
373.38
388.784
387.883
386.238
383.975
381.268
378.373
375.582
373.179
371.464
370.651
389.811
388.606
386.535
383.675
380.228
376.518
372.909
369.804
367.447
366.127
391.209
389.411
386.952
383.328
378.783
373.809
368.86
364.355
360.753
358.655
393.369
390.844
387.65
382.769
376.664
370.069
363.827
358.251
353.579
350.112
397.085
394.007
389.74
383.042
374.302
364.067
341.17
309.379
274.34
249.98
381.154
374.396
355.989
300.818
216.918
135.569
80.2897
44.6124
24.6813
15.0855
152.162
112.421
65.0324
27.5911
9.81232
1.32493
0.431854
0.365115
0.329375
0.294259
0.703763
0.1676
0.0880513
0.0804193
0.104535
0.167561
0.190598
0.203058
0.229663
0.232916
0.00812521
-0.00293251
-0.00538598
0.00602626
0.0416253
0.0983584
0.117971
0.14038
0.209064
0.18225
0.0244484
0.00335595
-0.00408358
-0.00708376
0.0488058
0.100431
0.119939
0.139994
0.235549
0.204176
0.0494409
0.0313148
0.0181886
0.0155033
0.0284619
0.0743031
0.121138
0.129219
0.214035
0.194971
0.0562353
0.0476944
0.0376142
0.0363796
0.0386206
0.0641403
0.163042
0.158049
0.182442
0.193866
0.0937075
0.055358
0.054926
0.0545409
0.0817074
0.110433
0.154226
0.128562
0.142894
0.132479
0.0697211
0.0606468
0.0849953
0.148813
0.120306
0.0645508
0.0806626
0.0791687
0.0666895
0.0387381
0.0531466
0.0517342
0.0923903
0.0984347
0.0677381
0.0587299
0.062771
0.0608564
0.0514853
0.0357194
0.0727069
0.0367144
0.0482598
0.0468991
0.0536198
0.0567408
0.0577882
0.0544574
0.0391227
0.0130518
0.0750591
0.0326379
0.0381864
0.0460168
0.0572739
0.0522997
0.035322
0.0177234
-0.00922008
-0.0368619
0.0783205
0.0327591
0.0289641
0.0240762
0.0153408
-0.00352057
-0.0265108
-0.0510235
-0.0590433
-0.0733421
389.533
388.889
387.835
386.241
384.321
382.286
380.361
378.759
377.657
377.206
389.945
389.173
388.11
386.35
384.219
381.969
379.836
378.044
376.792
376.247
390.847
389.963
388.501
386.469
383.978
381.299
378.733
376.542
374.968
374.218
392.342
391.294
389.234
386.667
383.581
380.226
376.97
374.146
372.03
370.888
394.453
393.019
390.461
387.157
383.14
378.741
374.423
370.572
367.544
365.679
397.158
394.896
392.121
387.751
382.334
376.559
370.989
366.172
362.275
359.572
401.655
398.801
394.984
389.469
382.163
373.972
365.82
351.093
332.536
317.733
406.19
401.225
387.957
349.698
284.263
208.312
143.731
99.3397
69.9665
53.7149
210.454
165.405
110.438
59.9165
24.4289
9.00215
1.26055
0.419187
0.397041
0.36656
11.6436
6.80426
1.36995
0.116245
0.166185
0.148049
0.172915
0.20636
0.227884
0.22822
-0.082745
-0.0920322
-0.0454602
0.0230825
0.0815655
0.0995814
0.128558
0.144822
0.206421
0.216207
-0.00783983
-0.0242
-0.0101635
0.0473334
0.0621714
0.080861
0.127159
0.160906
0.237081
0.227217
0.0302707
0.0214639
0.0178335
0.0304198
0.0449455
0.1321
0.182195
0.185366
0.205786
0.201325
0.078086
0.0430335
0.0460875
0.0466725
0.111642
0.170431
0.185325
0.149111
0.227936
0.190571
0.0910598
0.0724267
0.0697415
0.137702
0.17746
0.183603
0.195124
0.118275
0.219327
0.183507
0.118844
0.209662
0.103139
0.186767
0.18245
0.191811
0.180257
0.0739741
0.158478
0.10782
0.0719399
0.243595
0.0920564
0.150974
0.0989648
0.10371
0.0909394
0.0490069
0.0321435
0.0177888
0.0515912
0.129375
0.0746488
0.0458645
0.0431349
0.0436193
0.0419693
0.0328929
0.0129397
-0.00705896
0.0487613
0.0310576
0.0438638
0.0382371
0.0337953
0.0265626
0.0140096
0.000815945
-0.0246814
-0.0476962
0.0512484
0.0282017
0.0215381
0.00956449
-0.00382495
-0.0201441
-0.0389525
-0.0567624
-0.0765113
-0.0871093
391.45
390.768
389.934
388.456
386.618
384.693
382.893
381.406
380.387
379.965
392.077
391.275
390.317
388.785
386.763
384.634
382.653
381.01
379.865
379.362
393.059
392.103
390.87
389.212
386.954
384.493
382.161
380.196
378.793
378.128
394.937
393.839
392.026
389.895
387.223
384.268
381.396
378.922
377.1
376.202
397.863
396.468
394.212
391.353
387.891
384.117
380.41
377.161
374.667
373.37
401.544
399.621
397.124
393.378
388.743
383.732
378.918
374.772
371.57
369.566
406.794
404.462
401.059
396.649
390.884
384.213
377.524
371.534
367.114
363.596
415.005
412.185
409.241
399.949
360.715
305.277
246.4
195.383
158.118
135.056
283.708
244.645
190.373
127.143
72.228
32.4828
13.829
3.24056
0.475871
0.366561
32.3031
22.6875
12.1969
3.34619
0.223117
0.167154
0.148176
0.145618
0.158569
0.168677
-0.0513749
-0.0731446
-0.0740941
-0.0235641
0.0425599
0.0791174
0.102324
0.118913
0.163174
0.245632
0.0331572
-0.0123203
0.0236702
0.0188496
0.0436156
0.0667369
0.134456
0.129636
0.188233
0.230701
0.200591
0.138372
0.0581034
0.0278117
0.0799374
0.149811
0.166063
0.113456
0.191176
0.204001
0.290473
0.223872
0.0853445
0.0448373
0.160159
0.156865
0.127654
0.110305
0.216958
0.184246
0.236897
0.267796
0.0933372
0.118395
0.170337
0.164606
0.0850607
0.122857
0.206995
0.179722
0.159938
0.285412
0.083628
0.169941
0.174463
0.188775
0.0703894
0.0934968
0.194092
0.178615
0.153817
0.290691
0.0562055
0.104043
0.136672
0.180506
0.0608996
0.0422734
0.093056
0.103392
0.0766855
0.165878
0.0466085
0.0487687
0.0465724
0.0553027
0.0430454
0.0193204
0.000175934
-0.00495284
0.0400039
0.0326988
0.0442109
0.0430374
0.0352716
0.0223307
0.0129874
0.00220075
-0.0137165
-0.0241472
0.0378775
0.0282769
0.0267426
0.0203998
0.00715051
-0.00828047
-0.0187029
-0.0255478
-0.034794
-0.0387899
393.239
392.595
391.961
390.639
388.858
387.027
385.349
383.975
383.038
382.656
393.916
393.152
392.364
391.115
389.225
387.22
385.387
383.885
382.846
382.388
395.131
394.328
393.215
391.77
389.756
387.554
385.476
383.728
382.493
381.914
397.664
396.472
394.913
393.017
390.643
388.109
385.67
383.545
381.989
381.228
401.253
399.921
397.965
395.442
392.395
389.233
386.168
383.459
381.395
380.291
405.935
404.534
402.162
398.893
394.991
390.846
386.832
383.376
380.789
379.256
412.023
410.3
407.524
403.519
398.935
393.904
388.752
384.123
380.689
378.656
421.059
418.67
415.656
412.209
406.651
389.068
358.458
327.149
300.777
281.166
353.372
327.576
282.747
230.009
169.686
105.333
60.3137
32.0892
17.7577
10.3973
64.227
52.7672
36.5524
21.5474
8.06644
1.10538
0.175114
0.14803
0.125151
0.105616
-0.00999708
-0.0152749
-0.0318727
-0.0447524
-0.0284587
0.0287846
0.0748384
0.0778811
0.112225
0.180611
0.194405
0.159324