/*--------------------------------*- C++ -*----------------------------------*\
| =========                 |                                                 |
| \\      /  F ield         | OpenFOAM: The Open Source CFD Toolbox           |
|  \\    /   O peration     | Version:  2312                                  |
|   \\  /    A nd           | Website:  www.openfoam.com                      |
|    \\/     M anipulation  |                                                 |
\*---------------------------------------------------------------------------*/
FoamFile
{
    version     2.0;
    format      ascii;
    arch        "LSB;label=32;scalar=64";
    class       volScalarField;
    location    "0.5";
    object      p;
}
// * * * * * * * * * * * * * * * * * * * * * * * * * * * * * * * * * * * * * //

dimensions      [1 -1 -2 0 0 0 0];

internalField   nonuniform List<scalar> 
8000
(
368.267
367.458
366.124
364.24
361.75
359.362
357.085
355.17
353.712
352.915
320.764
319.893
318.471
316.446
313.936
311.362
308.976
306.846
305.279
304.432
274.64
273.709
272.101
269.757
266.948
264.009
261.216
259.034
257.367
256.445
230.116
229.08
227.227
224.401
221.163
217.954
214.74
212.012
210.069
209.016
186.931
185.632
183.725
180.31
176.26
172.313
168.764
165.656
163.401
162.185
147.598
145.999
142.767
138.316
133.677
128.234
123.337
119.295
116.441
114.934
109.931
107.86
104.269
98.3957
91.3433
83.9071
77.1449
71.8148
68.23
66.3873
76.0009
72.9342
66.0811
59.1162
49.7117
39.6173
30.9352
25.5705
22.5711
21.1708
49.1158
45.0702
37.7127
26.9718
16.6477
8.06406
4.18495
2.45011
1.56458
1.22662
29.302
22.1837
14.1884
5.37769
0.424211
-0.193207
-0.180128
-0.167354
-0.185756
-0.189491
11.1573
7.15704
1.20835
-0.261323
-0.359324
-0.282264
-0.255429
-0.236357
-0.237675
-0.240956
8.57664
2.55889
-0.517349
-0.367773
-0.37827
-0.356353
-0.333237
-0.315396
-0.315851
-0.323801
13.7654
3.45902
-0.479722
-0.446192
-0.405522
-0.419769
-0.413509
-0.402109
-0.400812
-0.403875
-0.633589
-0.740386
-0.650011
-0.545638
-0.49141
-0.489425
-0.485131
-0.477488
-0.471508
-0.469507
-0.612111
-0.633715
-0.615721
-0.609578
-0.571887
-0.550042
-0.541598
-0.536715
-0.531617
-0.527976
-0.614278
-0.58492
-0.610454
-0.667285
-0.649048
-0.614317
-0.596533
-0.589216
-0.584883
-0.582264
-0.66618
-0.645318
-0.67192
-0.7242
-0.716916
-0.676485
-0.655208
-0.645277
-0.639824
-0.637124
-0.725458
-0.71369
-0.722308
-0.739633
-0.749868
-0.728873
-0.712746
-0.702529
-0.696415
-0.69372
-0.781983
-0.771479
-0.761425
-0.764016
-0.781854
-0.776255
-0.765095
-0.756955
-0.752042
-0.749841
-0.829588
-0.829624
-0.817942
-0.820453
-0.828745
-0.822039
-0.814516
-0.809073
-0.805687
-0.804313
367.377
366.642
365.264
363.291
360.876
358.354
355.937
353.901
352.396
351.568
319.815
318.967
317.548
315.434
312.88
310.166
307.63
305.482
303.873
303.004
273.633
272.705
271.144
268.705
265.762
262.782
259.978
257.644
255.91
254.955
228.996
227.889
226.182
223.292
219.958
216.53
213.321
210.601
208.61
207.526
185.69
184.652
182.594
179.378
175.483
171.347
167.478
164.304
162.006
160.761
145.811
144.215
141.276
137.178
132.58
127.373
122.536
118.486
115.597
114.046
107.767
106.057
102.483
97.4932
91.0694
83.5621
77.1152
72.1006
68.7192
66.936
72.8493
71.0105
66.2103
58.1879
48.6702
41.4589
34.6876
30.4077
28.2318
27.2374
44.9453
41.9352
35.6357
27.4996
19.8937
11.7585
7.09995
4.70003
3.49049
2.98555
22.0394
17.629
11.1235
5.65086
0.580856
-0.24197
-0.233117
-0.211462
-0.227043
-0.228028
6.64804
8.1943
3.84176
-0.530485
-0.418275
-0.31887
-0.287519
-0.271217
-0.273229
-0.275648
2.31923
-0.678672
-0.480931
-0.441627
-0.411682
-0.389557
-0.357897
-0.340711
-0.338809
-0.343202
2.97221
-0.340718
-0.499172
-0.469421
-0.448999
-0.448773
-0.434607
-0.42326
-0.421644
-0.420377
-0.785909
-0.75715
-0.569024
-0.534958
-0.51819
-0.511563
-0.500751
-0.48939
-0.482355
-0.477128
-0.660113
-0.616004
-0.570352
-0.579768
-0.571871
-0.563328
-0.558777
-0.552579
-0.542556
-0.535509
-0.627884
-0.630224
-0.610019
-0.633122
-0.634525
-0.622657
-0.609348
-0.603052
-0.595959
-0.589817
-0.682591
-0.722903
-0.689138
-0.706045
-0.707941
-0.690854
-0.666409
-0.65231
-0.644803
-0.640575
-0.743791
-0.780275
-0.761105
-0.762846
-0.769084
-0.745571
-0.719575
-0.70566
-0.69795
-0.694386
-0.800828
-0.810153
-0.814034
-0.80642
-0.809849
-0.786235
-0.767492
-0.757747
-0.752198
-0.749679
-0.846815
-0.851916
-0.857658
-0.844395
-0.832336
-0.821213
-0.814028
-0.808631
-0.805306
-0.804068
365.917
365.118
363.664
361.591
359.06
356.377
353.801
351.592
349.92
348.994
318.249
317.399
315.927
313.726
310.968
308.094
305.378
303.069
301.287
300.315
271.877
270.998
269.448
266.828
263.793
260.609
257.624
255.091
253.183
252.101
226.991
226.005
224.244
221.304
217.795
214.125
210.724
207.837
205.707
204.508
183.56
182.451
180.449
177.449
173.403
168.89
164.784
161.385
158.96
157.618
142.488
141.085
138.439
134.37
129.927
125.093
119.99
115.911
113.038
111.445
103.973
102.228
99.0433
94.2583
88.2468
81.4203
75.7579
70.9197
67.4531
65.5886
65.3114
65.8093
62.4781
56.4512
48.6269
41.0183
35.3283
31.2826
28.9244
27.9386
37.1946
35.5973
31.8634
25.3993
18.4539
11.8001
7.18983
4.52988
3.18641
2.6735
13.4075
11.4706
12.1352
7.20683
1.19131
-0.309808
-0.270992
-0.240756
-0.258848
-0.254995
1.33711
3.26693
0.685971
-0.351536
-0.385582
-0.356209
-0.330135
-0.3134
-0.313465
-0.31423
-0.489037
-0.432976
-0.455156
-0.429257
-0.432245
-0.401872
-0.37586
-0.357556
-0.353444
-0.357839
-0.411466
-0.453584
-0.468597
-0.453244
-0.457253
-0.450456
-0.433477
-0.421989
-0.418214
-0.418116
-0.629206
-0.57436
-0.518073
-0.517808
-0.521334
-0.508021
-0.489103
-0.477062
-0.475105
-0.472008
-0.592231
-0.580639
-0.563051
-0.569412
-0.572144
-0.562736
-0.547791
-0.535431
-0.531666
-0.527091
-0.615226
-0.634078
-0.62051
-0.618393
-0.623677
-0.618638
-0.603972
-0.593884
-0.587075
-0.58245
-0.692622
-0.7393
-0.7078
-0.6857
-0.688405
-0.679219
-0.660932
-0.648461
-0.640703
-0.636675
-0.756906
-0.821253
-0.797143
-0.758423
-0.75408
-0.738404
-0.714467
-0.702795
-0.695252
-0.69159
-0.814155
-0.857537
-0.853331
-0.815959
-0.80271
-0.785796
-0.765583
-0.756206
-0.750238
-0.747637
-0.857102
-0.874267
-0.881113
-0.84973
-0.832137
-0.823547
-0.813605
-0.807722
-0.804235
-0.803072
363.777
362.92
361.369
359.154
356.441
353.522
350.666
348.201
346.269
345.197
315.98
315.053
313.508
311.123
308.241
305.098
302.089
299.526
297.386
296.268
269.315
268.323
266.564
264.227
260.941
257.304
253.984
251.158
248.985
247.645
223.966
223.007
221.162
218.268
214.7
210.471
206.632
203.378
200.962
199.424
179.954
179.08
177.183
173.861
169.711
164.986
160.197
156.324
153.581
151.83
137.818
136.76
134.227
130.566
125.898
120.586
114.815
110.039
106.568
104.328
97.5875
96.8145
94.0415
89.6511
83.9972
77.4836
70.9891
65.4075
61.024
58.3744
57.8666
57.8218
56.4942
51.7679
45.0457
37.2263
31.0004
26.7993
24.1653
23.4217
26.8348
27.2564
25.3992
20.7103
15.0935
9.14528
5.49035
3.62198
2.49385
2.12921
5.22566
5.36983
6.66884
4.71477
0.940005
-0.351623
-0.288812
-0.247788
-0.255106
-0.258724
-0.266425
-0.461527
-0.351606
-0.35059
-0.435378
-0.401926
-0.358844
-0.338394
-0.346059
-0.344456
-0.338168
-0.352417
-0.420254
-0.4382
-0.466908
-0.419237
-0.386368
-0.366312
-0.36364
-0.372836
-0.376959
-0.36526
-0.434444
-0.45027
-0.45467
-0.441585
-0.425058
-0.412729
-0.408071
-0.415347
-0.491055
-0.483819
-0.502491
-0.516631
-0.512262
-0.49329
-0.477566
-0.468147
-0.464283
-0.465581
-0.55973
-0.558057
-0.561104
-0.570495
-0.564331
-0.548083
-0.535342
-0.528102
-0.524083
-0.521686
-0.599793
-0.616008
-0.619089
-0.618472
-0.615934
-0.605633
-0.593329
-0.583453
-0.578461
-0.575325
-0.679808
-0.70954
-0.703306
-0.681871
-0.677715
-0.667103
-0.651641
-0.640822
-0.633526
-0.629769
-0.749779
-0.790522
-0.791588
-0.761013
-0.745115
-0.72801
-0.708462
-0.697352
-0.689913
-0.686151
-0.811755
-0.840992
-0.856402
-0.830628
-0.802861
-0.780746
-0.762136
-0.75255
-0.746626
-0.744187
-0.854141
-0.867448
-0.887662
-0.8666
-0.840515
-0.824006
-0.812249
-0.80593
-0.802428
-0.801636
361.054
360.226
358.542
356.132
353.097
349.841
346.662
343.86
341.592
340.332
313.194
312.199
310.43
307.943
304.57
301.177
297.846
294.917
292.261
290.969
266.222
265.093
263.264
260.578
257.274
253.054
249.216
245.927
243.092
241.459
220.446
219.321
217.276
214.407
210.365
205.721
201.061
197.251
194.194
191.944
175.772
175.025
173.048
169.405
164.791
159.427
153.414
148.686
145.164
141.835
132.713
131.802
129.232
125.568
120.455
114.196
106.71
100.113
95.5297
91.3615
90.3488
90.2833
87.7037
83.745
78.1868
71.1071
63.395
56.3882
50.6691
45.5866
48.7186
48.2034
47.9245
44.8105
39.1303
32.3175
26.2338
21.5586
18.6642
18.4275
16.15
19.078
18.2443
15.0861
11.3404
6.8016
3.98168
2.46279
1.42538
1.11307
0.472107
0.541632
0.951902
0.784106
-0.128326
-0.335623
-0.28607
-0.267808
-0.308148
-0.353753
-0.384614
-0.386168
-0.394344
-0.43095
-0.475256
-0.413343
-0.360151
-0.34768
-0.371118
-0.367952
-0.393282
-0.399179
-0.431895
-0.467752
-0.46211
-0.416548
-0.38256
-0.365544
-0.373016
-0.383393
-0.387757
-0.421213
-0.444659
-0.457175
-0.45014
-0.42541
-0.405774
-0.393324
-0.387806
-0.407022
-0.474153
-0.493198
-0.502747
-0.510809
-0.496721
-0.474338
-0.456474
-0.44561
-0.441199
-0.453178
-0.545773
-0.55317
-0.556431
-0.560475
-0.54841
-0.531651
-0.518379
-0.509764
-0.504481
-0.509015
-0.598943
-0.611921
-0.613151
-0.611244
-0.602236
-0.590648
-0.57933
-0.570464
-0.564523
-0.562624
-0.671759
-0.690948
-0.691441
-0.6739
-0.665853
-0.652694
-0.640394
-0.630361
-0.622499
-0.617527
-0.737729
-0.759757
-0.762585
-0.744053
-0.733079
-0.714338
-0.700049
-0.689469
-0.681402
-0.676411
-0.795084
-0.807777
-0.816663
-0.805106
-0.789642
-0.76983
-0.756272
-0.746893
-0.740624
-0.737883
-0.842867
-0.849652
-0.857932
-0.850997
-0.831256
-0.817611
-0.808711
-0.802621
-0.799421
-0.799793
358.342
357.373
355.493
352.805
349.425
345.685
342.047
338.843
336.199
334.684
310.294
309.166
307.19
304.356
300.795
296.589
292.768
289.381
286.387
284.74
262.968
261.815
259.699
256.543
252.551
248.01
243.516
239.575
235.903
233.683
216.87
215.514
213.194
209.645
205.198
199.702
194.051
189.029
185.63
181.77
171.287
170.193
167.956
164.163
158.866
152.01
144.624
137.362
131.191
125.029
127.105
126.296
124.046
119.797
113.605
105.054
95.0544
85.1433
75.3536
69.6453
82.737
82.6174
80.8537
76.9786
70.8002
62.0719
51.1185
39.2675
28.0068
17.7134
38.5243
40.4551
40.3466
36.9264
32.2962
25.9686
18.8237
12.6093
8.48762
3.86069
7.57364
10.8117
11.2395
9.10801
6.91826
4.63419
2.31873
0.830808
-0.334177
0.123824
-0.200601
-0.225572
-0.247205
-0.259581
-0.244481
-0.266543
-0.266775
-0.336274
-0.470986
-0.467094
-0.310366
-0.320618
-0.354042
-0.399833
-0.410329
-0.381687
-0.329722
-0.327434
-0.393108
-0.336341
-0.380564
-0.390515
-0.403169
-0.424243
-0.427411
-0.404021
-0.364913
-0.335762
-0.354615
-0.360263
-0.421257
-0.440558
-0.444911
-0.448488
-0.435373
-0.408005
-0.380606
-0.35937
-0.346687
-0.38339
-0.480313
-0.499322
-0.49887
-0.498889
-0.482065
-0.453148
-0.428077
-0.415079
-0.404529
-0.437386
-0.538668
-0.54903
-0.550698
-0.549522
-0.537035
-0.51784
-0.500264
-0.486869
-0.482592
-0.499987
-0.597244
-0.605652
-0.606317
-0.601603
-0.59308
-0.579791
-0.566188
-0.554794
-0.548607
-0.55096
-0.662114
-0.673668
-0.672378
-0.664586
-0.654697
-0.642587
-0.630043
-0.618708
-0.610262
-0.605063
-0.72359
-0.734144
-0.736337
-0.727188
-0.715584
-0.702769
-0.691026
-0.680622
-0.67234
-0.666514
-0.779408
-0.786372
-0.78883
-0.783667
-0.769825
-0.759324
-0.748988
-0.740607
-0.734729
-0.732971
-0.829767
-0.833935
-0.834865
-0.830881
-0.81703
-0.811251
-0.803597
-0.799024
-0.797243
-0.80041
355.699
354.583
352.485
349.465
345.683
341.447
337.259
333.597
330.542
328.728
307.542
306.242
304.033
300.845
296.78
292.085
287.366
283.487
280.023
277.752
259.815
258.61
256.235
252.632
248.022
242.597
236.456
231.712
227.993
224.902
213.285
211.896
209.304
205.237
199.807
193.03
185.749
180.048
176.139
170.368
167.355
166.061
163.376
158.814
152.135
143.545
133.021
122.102
113.763
104.757
121.955
121.154
118.684
113.662
105.674
94.0381
77.5966
58.8985
46.3187
29.4555
75.8057
75.9714
74.7291
70.1765
62.6689
50.3012
32.1892
16.338
11.5036
8.92333
29.7233
33.5674
34.6411
30.8822
26.4104
18.9633
10.4419
4.61059
0.983803
2.38968
3.78021
6.38111
6.7407
5.52402
4.33782
2.57318
0.823334
-0.0172603
0.0600461
0.685187
-0.184852
-0.209817
-0.207986
-0.201492
-0.207552
-0.25108
-0.291466
-0.37792
-0.309763
0.0529769
-0.273012
-0.304899
-0.327846
-0.357846
-0.371664
-0.378942
-0.340123
-0.289018
-0.310963
-0.162918
-0.364463
-0.37828
-0.387615
-0.403619
-0.421323
-0.413686
-0.35829
-0.270465
-0.285659
-0.275244
-0.430243
-0.447655
-0.441327
-0.441156
-0.427516
-0.397481
-0.359409
-0.307928
-0.285173
-0.325869
-0.483815
-0.500854
-0.493529
-0.491687
-0.474545
-0.438425
-0.405589
-0.381302
-0.358533
-0.40515
-0.536224
-0.545637
-0.545345
-0.542129
-0.529863
-0.50553
-0.484515
-0.467292
-0.458647
-0.491852
-0.593396
-0.60034
-0.600672
-0.595035
-0.587431
-0.573034
-0.556268
-0.542217
-0.533458
-0.542023
-0.654236
-0.661343
-0.658768
-0.652458
-0.646245
-0.637273
-0.621403
-0.607995
-0.597417
-0.593488
-0.712532
-0.717092
-0.716362
-0.711337
-0.704181
-0.698075
-0.682792
-0.672066
-0.661923
-0.659374
-0.767479
-0.770435
-0.770695
-0.766857
-0.759526
-0.754264
-0.741755
-0.734074
-0.728147
-0.730025
-0.818836
-0.820346
-0.819923
-0.816659
-0.809997
-0.80715
-0.798739
-0.794786
-0.796091
-0.802133
353.439
352.107
349.805
346.451
342.247
337.531
332.863
328.825
325.491
323.637
305.06
303.666
301.222
297.663
293.166
287.893
282.636
278.18
274.309
271.964
257.26
255.784
253.156
249.118
243.863
237.57
231.05
225.734
220.878
216.707
210.197
208.721
205.832
201.19
195.035
186.261
178.457
173.252
164.721
156.608
163.871
162.449
159.372
154.061
146.207
134.724
121.557
108.093
89.3435
83.7857
117.649
116.773
114.154
108.08
97.9886
82.0688
56.6483
35.9334
18.2963
17.3572
70.2689
70.7959
69.7606
64.1937
54.6936
36.2282
12.9373
7.94601
1.60922
4.77209
24.2366
29.2371
30.7022
26.9371
21.9928
13.0631
4.77361
1.58121
1.3389
1.68437
2.19463
4.15681
4.27606
3.91427
2.9346
1.11235
0.443242
0.898329
0.878184
0.712666
-0.160576
-0.191064
-0.202455
-0.190688
-0.205541
-0.254283
-0.318978
-0.159783
0.0876762
0.0450022
-0.254022
-0.294513
-0.316318
-0.319956
-0.332757
-0.357479
-0.416916
-0.359989
-0.212647
-0.113677
-0.350374
-0.370625
-0.382288
-0.391305
-0.395276
-0.392658
-0.399659
-0.352217
-0.245483
-0.180359
-0.426396
-0.44449
-0.437106
-0.439267
-0.435182
-0.38028
-0.350122
-0.310621
-0.257966
-0.245562
-0.482863
-0.498479
-0.489419
-0.487302
-0.481662
-0.426303
-0.382692
-0.350735
-0.341807
-0.349293
-0.533957
-0.543542
-0.541499
-0.535651
-0.530798
-0.497729
-0.463323
-0.447598
-0.447012
-0.455491
-0.589589
-0.595467
-0.59554
-0.588009
-0.582839
-0.565738
-0.5565
-0.532787
-0.525071
-0.514805
-0.647798
-0.651943
-0.650504
-0.645421
-0.639098
-0.631135
-0.62576
-0.60317
-0.585385
-0.588713
-0.70492
-0.707104
-0.706668
-0.703918
-0.696813
-0.689313
-0.682236
-0.667761
-0.652706
-0.674188
-0.759378
-0.760666
-0.76089
-0.758818
-0.753559
-0.746644
-0.736644
-0.730503
-0.727009
-0.755425
-0.811361
-0.81173
-0.811331
-0.810207
-0.806629
-0.806702
-0.791983
-0.79257
-0.802123
-0.836804
351.621
350.239
347.688
343.973
339.296
334.1
329.006
324.599
320.999
319.069
303.148
301.681
298.976
294.932
289.694
283.847
278.139
273.287
268.9
266.39
255.211
253.646
250.709
246.161
240.124
232.51
224.958
219.484
212.632
209.541
207.889
206.287
203.076
197.753
190.192
180.462
172.764
165.313
147.799
145.425
161.262
159.686
156.239
150.117
140.437
125.652
112.142
90.0318
65.389
75.4385
114.552
113.557
110.686
103.261
90.0143
64.8208
32.631
13.3232
9.68846
27.2054
66.5728
67.2352
66.1079
59.145
46.4484
17.4603
7.16415
0.514476
18.4966
26.7594
21.4092
27.0245
28.5127
25.2113
19.403
9.07811
1.31438
1.10983
1.69958
2.69738
1.40227
3.15093
3.1941
3.07718
2.17495
0.756102
0.754458
1.04622
0.900789
0.971624
-0.181893
-0.211404
-0.219709
-0.219726
-0.19528
-0.140471
-0.0626735
0.121146
0.210641
0.134286
-0.253702
-0.295662
-0.318923
-0.319665
-0.307144
-0.305199
-0.367099
-0.317058
-0.197496
-0.137524
-0.341268
-0.363068
-0.37814
-0.379895
-0.376976
-0.377154
-0.410372
-0.393148
-0.275879
-0.192272
-0.420227
-0.433625
-0.431143
-0.428093
-0.417891
-0.400867
-0.379285
-0.349154
-0.283385
-0.275976
-0.480618
-0.491883
-0.481311
-0.476215
-0.465606
-0.444448
-0.411819
-0.376762
-0.352675
-0.37971
-0.532283
-0.541031
-0.532502
-0.526104
-0.516505
-0.49442
-0.479384
-0.455702
-0.448641
-0.467232
-0.586794
-0.591039
-0.585766
-0.579835
-0.571294
-0.551574
-0.546496
-0.53091
-0.525557
-0.529238
-0.643247
-0.644812
-0.641742
-0.636847
-0.629448
-0.61392
-0.605791
-0.597681
-0.593265
-0.60509
-0.6994
-0.699881
-0.697501
-0.694268
-0.690053
-0.675198
-0.660759
-0.661423
-0.66317
-0.692662
-0.7538
-0.75402
-0.752907
-0.75113
-0.750931
-0.734248
-0.720011
-0.722162
-0.732095
-0.767374
-0.806438
-0.806558
-0.805916
-0.804583
-0.809275
-0.790346
-0.780323
-0.781784
-0.795487
-0.833329
350.531
349.104
346.398
342.448
337.451
331.896
326.483
321.794
318.327
317.326
302.013
300.491
297.615
293.307
287.659
281.329
275.165
269.705
265.763
265.065
253.989
252.363
249.205
244.282
237.162
228.702
220.577
213.836
209.243
208.44
206.546
204.839
201.356
195.333
186.151
173.608
163.38
154.861
147.65
149.343
159.781
158.072
154.275
147.129
134.465
115.167
99.7049
85.5191
78.7905
93.8193
112.868
111.784
108.613
99.5359
81.5829
55.7327
24.3894
11.9416
24.4577
57.4337
64.6867
65.3354
64.0871
55.8992
37.6399
13.6755
5.9834
1.54803
34.06
45.8088
20.134
26.0675
27.732
24.9724
19.2628
3.8582
2.33319
1.60625
2.45318
5.06173
1.08205
2.83572
2.82858
2.76781
1.759
1.5239
1.65918
1.38911
1.04788
1.39965
-0.188135
-0.205591
-0.222349
-0.246474
-0.243314
-0.172453
0.198525
0.36849
0.366058
0.351995
-0.254263
-0.292372
-0.320304
-0.323156
-0.314083
-0.294166
-0.255927
-0.199433
-0.105527
0.036623
-0.336246
-0.357744
-0.375802
-0.377892
-0.370206
-0.353581
-0.316071
-0.28421
-0.24048
-0.0688771
-0.413101
-0.425399
-0.426708
-0.42135
-0.40626
-0.380925
-0.34536
-0.311309
-0.272283
-0.15315
-0.476969
-0.484083
-0.475886
-0.467775
-0.454293
-0.433434
-0.406245
-0.378492
-0.351323
-0.317087
-0.531877
-0.537818
-0.526258
-0.517204
-0.507607
-0.495214
-0.479926
-0.465146
-0.470142
-0.492431
-0.58582
-0.589122
-0.580758
-0.572972
-0.566541
-0.559885
-0.550352
-0.542424
-0.561141
-0.611773
-0.641121
-0.641736
-0.637119
-0.631296
-0.62703
-0.623806
-0.614529
-0.604773
-0.612613
-0.616057
-0.696154
-0.696272
-0.693434
-0.689383
-0.687852
-0.686741
-0.675817
-0.662063
-0.660447
-0.643475
-0.750488
-0.750325
-0.748832
-0.746197
-0.747255
-0.747106
-0.736519
-0.720019
-0.71875
-0.710727
-0.803477
-0.803266
-0.802533
-0.800537
-0.802686
-0.801725
-0.794405
-0.779014
-0.774268
-0.753708
350.277
348.813
346.043
342.009
336.852
331.093
325.378
320.186
316.697
315.153
301.763
300.206
297.268
292.867
287.015
280.449
274.014
268.19
263.769
262.237
253.744
252.08
248.868
243.915
236.383
227.803
219.159
211.905
206.275
204.841
206.314
204.572
201.004
194.849
185.496
172.501
161.708
151.681
143.356
145.334
159.575
157.842
154.001
146.844
134.616
116.31
98.9301
81.7425
69.9237
87.9713
112.69
111.6
108.41
99.2236
82.9
53.5227
19.369
7.6872
23.4417
48.5246
64.5801
65.2041
63.899
55.6038
37.0936
10.0297
4.99291
0.754728
15.3929
17.544
20.0967
26.1422
27.7673
25.0064
19.3016
2.73423
1.86376
1.62889
1.87268
2.52458
1.05006
2.80458
2.81785
2.76937
1.46611
1.00448
0.801889
1.26508
1.0532
1.19226
-0.188701
-0.212518
-0.229654
-0.269955
-0.359399
-0.482196
-0.155536
0.378921
0.46347
0.491701
-0.253217
-0.290364
-0.32566
-0.350599
-0.382315
-0.411028
-0.316515
-0.0797534
0.0642889
0.198037
-0.335294
-0.356514
-0.376289
-0.386632
-0.391422
-0.378512
-0.305165
-0.200023
-0.148193
-0.0903287
-0.411343
-0.426139
-0.428838
-0.424269
-0.405661
-0.371297
-0.319807
-0.270603
-0.277752
-0.168489
-0.475965
-0.483987
-0.477184
-0.468417
-0.44951
-0.420366
-0.388094
-0.374815
-0.395949
-0.311016
-0.532455
-0.53644
-0.525677
-0.515988
-0.502816
-0.488212
-0.475042
-0.476019
-0.501635
-0.564027
-0.586096
-0.588924
-0.579612
-0.572118
-0.563526
-0.558004
-0.552218
-0.551249
-0.564756
-0.580811
-0.640564
-0.641796
-0.636644
-0.631995
-0.625898
-0.624702
-0.619292
-0.610224
-0.603248
-0.561987
-0.695123
-0.695822
-0.692768
-0.690246
-0.686473
-0.687485
-0.679739
-0.664333
-0.651576
-0.57873
-0.749221
-0.749355
-0.747728
-0.746264
-0.745086
-0.74558
-0.737525
-0.719074
-0.7082
-0.631563
-0.802327
-0.802284
-0.801193
-0.800337
-0.800363
-0.799739
-0.793364
-0.778395
-0.776866
-0.744506
350.889
349.395
346.65
342.697
337.638
331.882
326.074
320.853
316.758
314.539
302.432
300.857
297.974
293.651
287.969
281.389
274.737
268.688
263.497
259.738
254.51
252.809
249.693
244.775
237.938
229.44
220.659
212.444
204.346
196.75
207.209
205.501
202.054
196.249
188.044
175.485
162.422
152.648
139.194
124.984
160.652
158.977
155.303
148.695
138.428
122.377
107.549
84.3759
63.5386
60.3247
114.03
112.953
109.95
102.321
89.3744
67.1619
32.045
6.14195
5.14143
18.5574
66.2589
66.8645
65.6093
58.5508
46.5042
19.8115
3.71363
2.85746
2.48236
3.65155
21.2911
27.1657
28.4443
24.8065
19.1437
8.07755
1.69344
2.0974
2.05446
2.39185
1.30132
3.16336
3.18986
2.80253
1.60347
-0.236403
-0.0826105
1.04083
1.10106
1.23796
-0.186303
-0.215046
-0.23407
-0.265196
-0.352796
-0.532593
-0.470251
0.0938227
0.33809
0.300861
-0.252375
-0.287509
-0.32697
-0.365089
-0.409812
-0.445745
-0.411608
-0.231583
-0.0260671
-0.0573543
-0.336269
-0.356061
-0.375134
-0.38618
-0.382634
-0.359721
-0.304608
-0.243488
-0.185726
-0.232176
-0.412247
-0.428322
-0.431341
-0.424957
-0.393653
-0.339896
-0.282874
-0.26229
-0.289473
-0.354008
-0.477657
-0.488796
-0.480411
-0.472009
-0.448406
-0.407189
-0.366289
-0.352372
-0.387698
-0.444953
-0.53438
-0.539812
-0.529712
-0.519525
-0.505423
-0.486786
-0.46545
-0.459759
-0.481128
-0.520496
-0.587051
-0.590878
-0.584649
-0.576792
-0.566725
-0.558194
-0.548409
-0.544235
-0.556959
-0.581765
-0.641125
-0.64376
-0.640593
-0.635456
-0.628594
-0.623994
-0.61879
-0.614653
-0.622942
-0.635589
-0.695871
-0.696916
-0.694699
-0.691758
-0.687923
-0.68499
-0.681119
-0.678272
-0.688693
-0.708757
-0.749882
-0.750096
-0.748586
-0.746726
-0.744479
-0.742618
-0.739498
-0.735266
-0.743127
-0.723107
-0.802882
-0.802669
-0.801443
-0.800173
-0.798644
-0.797003
-0.794993
-0.789617
-0.789129
-0.75099
352.289
350.828
348.322
344.537
339.764
334.32
328.644
323.555
319.557
317.744
303.972
302.405
299.695
295.663
290.453
284.375
277.918
271.929
266.902
264.043
256.042
254.564
251.632
247.097
240.933
233.465
225.017
216.352
208.633
203.375
209.128
207.536
204.323
199.022
191.648
181.978
169.426
155.64
143.973
128.357
162.936
161.383
157.998
152.077
143.211
130.595
114.826
97.6448
68.9783
44.0591
116.875
115.873
113.008
106.533
95.8865
79.7428
55.6007
24.9459
5.74062
1.5207
69.8063
70.2344
69.0012
63.104
53.0556
35.3868
11.71
2.39126
2.89618
3.11022
24.1627
29.3585
30.4488
26.3429
20.1814
10.8145
4.04383
1.91235
2.17366
3.00689
2.05643
4.23956
4.35769
3.62012
2.31441
0.427316
0.112388
0.655265
1.17201
1.57925
-0.171672
-0.20441
-0.227427
-0.23502
-0.288194
-0.368969
-0.317388
-0.0751004
0.348471
0.370614
-0.249432
-0.283961
-0.324509
-0.357804
-0.376247
-0.339449
-0.285641
-0.235059
-0.0916055
-0.0373756
-0.337712
-0.355355
-0.371353
-0.383477
-0.376984
-0.327026
-0.272661
-0.274631
-0.256365
-0.23569
-0.413118
-0.429456
-0.432152
-0.426722
-0.401006
-0.356703
-0.322759
-0.325317
-0.319535
-0.32711
-0.478967
-0.493062
-0.47983
-0.474774
-0.455521
-0.425468
-0.400666
-0.396639
-0.389296
-0.396925
-0.535897
-0.543607
-0.531436
-0.523996
-0.513797
-0.498397
-0.479105
-0.469891
-0.468984
-0.474921
-0.588809
-0.594651
-0.590654
-0.582792
-0.574111
-0.56363
-0.551515
-0.545329
-0.552786
-0.560377
-0.643462
-0.647561
-0.647331
-0.641641
-0.634288
-0.626947
-0.620498
-0.619398
-0.639325
-0.663258
-0.698761
-0.700514
-0.700641
-0.697599
-0.692093
-0.687501
-0.68452
-0.687054
-0.713161
-0.795367
-0.752566
-0.753089
-0.75239
-0.750598
-0.747601
-0.744887
-0.743637
-0.746534
-0.771202
-0.837885
-0.805048
-0.804789
-0.803565
-0.802615
-0.800965
-0.799375
-0.79881
-0.799809
-0.816546
-0.847771
354.22
352.969
350.607
347.153
342.782
337.802
332.599
328.042
324.148
322.79
306.033
304.631
302.144
298.471
293.757
288.277
282.287
276.968
272.829
270.885
258.373
257.06
254.384
250.283
244.834
238.478
230.733
223.664
217.885
216.096
211.959
210.437
207.519
202.868
196.394
188.521
177.965
166.596
158.587
154.233
166.197
164.767
161.772
156.635
149.113
138.91
125.174
107.287
91.3043
66.4749
121.025
120.086
117.348
111.812
103.208
90.603
73.7959
50.4989
26.837
20.7155
75.2618
75.2886
73.8126
68.7671
60.5861
47.7672
30.8797
12.6037
0.954312
4.60213
29.732
33.5565
34.2729
29.8123
24.5988
16.0508
8.59857
4.48926
1.58137
2.35013
3.72868
6.49917
6.89351
5.40561
3.70668
1.92362
0.48194
0.113626
0.258859
0.47649
-0.184183
-0.230992
-0.239982
-0.242831
-0.266568
-0.297986
-0.285714
-0.276669
-0.13685
0.0224227
-0.270359
-0.300767
-0.331073
-0.351131
-0.364717
-0.352054
-0.311492
-0.299777
-0.254711
-0.123883
-0.35005
-0.366381
-0.381101
-0.391701
-0.390903
-0.365199
-0.325785
-0.325972
-0.333354
-0.285978
-0.413071
-0.427645
-0.429916
-0.429184
-0.41369
-0.384215
-0.356981
-0.354517
-0.359461
-0.347008
-0.475772
-0.493258
-0.474748
-0.474942
-0.462933
-0.440872
-0.419964
-0.4123
-0.411532
-0.397188
-0.534747
-0.544437
-0.530224
-0.527748
-0.520785
-0.507829
-0.491591
-0.482936
-0.481806
-0.46683
-0.589162
-0.59699
-0.594802
-0.588058
-0.581859
-0.571856
-0.559142
-0.553295
-0.5566
-0.551026
-0.646246
-0.652668
-0.653148
-0.647231
-0.641819
-0.633788
-0.625492
-0.623061
-0.632622
-0.641416
-0.703791
-0.706832
-0.708
-0.704717
-0.699868
-0.693753
-0.688432
-0.68753
-0.699292
-0.711619
-0.757483
-0.758609
-0.759466
-0.757773
-0.754255
-0.749818
-0.74626
-0.745327
-0.753528
-0.759052
-0.809128
-0.808662
-0.808079
-0.807278
-0.805312
-0.802568
-0.800333
-0.798359
-0.803191
-0.803249
356.613
355.512
353.375
350.288
346.388
341.962
337.477
333.571
330.163
328.968
308.575
307.328
305.101
301.854
297.767
292.855
287.894
283.511
280.203
278.602
261.328
260.066
257.68
254.106
249.638
244.094
237.93
232.456
228.375
226.583
215.366
213.886
211.283
207.376
202.255
195.675
187.895
180.673
175.297
174.074
169.984
168.771
166.274
162.003
155.821
147.966
139.088
127.905
118.899
110.899
126.081
125.145
122.67
117.906
111.021
101.81
90.6574
77.7237
63.5835
46.21
82.1065
81.8403
79.677
75.5317
68.7591
59.2846
47.9957
36.38
25.5232
17.6467
38.5239
40.2948
39.9065
36.1641
30.9244
23.597
15.8723
10.7814
7.92608
8.16099
7.81381
10.9869
11.385
9.06041
6.60274
3.85279
1.70421
0.317126
-0.389272
-0.724343
-0.171
-0.234626
-0.250892
-0.280888
-0.292585
-0.311614
-0.292315
-0.342586
-0.399146
-0.475584
-0.316014
-0.328004
-0.347053
-0.380442
-0.390699
-0.371521
-0.334575
-0.323758
-0.339287
-0.319397
-0.383609
-0.391911
-0.398074
-0.407929
-0.410196
-0.383794
-0.347328
-0.340885
-0.362207
-0.35713
-0.409073
-0.416322
-0.423083
-0.430436
-0.423335
-0.401657
-0.378714
-0.37366
-0.387848
-0.378244
-0.47512
-0.477733
-0.467435
-0.477523
-0.471741
-0.45473
-0.438658
-0.432061
-0.433143
-0.4221
-0.536032
-0.54284
-0.528062
-0.533487
-0.529479
-0.518432
-0.504406
-0.497609
-0.494329
-0.483821
-0.59169
-0.602713
-0.602412
-0.596199
-0.589763
-0.581472
-0.568801
-0.563442
-0.561788
-0.554665
-0.652758
-0.664835
-0.667724
-0.658516
-0.652197
-0.643895
-0.631539
-0.628155
-0.630006
-0.629712
-0.713202
-0.720666
-0.725446
-0.717329
-0.7115
-0.702554
-0.692915
-0.689939
-0.693806
-0.700019
-0.766725
-0.768636
-0.772663
-0.770207
-0.764885
-0.757455
-0.749983
-0.747127
-0.749655
-0.753554
-0.816065
-0.814249
-0.814342
-0.813543
-0.811296
-0.807077
-0.803082
-0.800565
-0.802165
-0.802378
359.166
358.218
356.309
353.548
350.055
346.202
342.348
339.048
336.092
335.192
311.331
310.227
308.268
305.421
301.584
297.52
293.297
289.643
286.828
285.496
264.433
263.255
261.2
258.165
254.187
249.252
244.431
240.193
237.097
235.539
218.827
217.607
215.225
211.956
207.416
202.025
196.112
191.007
187.407
185.705
174.386
173.549
171.38
167.259
162.029
155.779
148.986
142.541
138.113
134.461
131.614
130.611
127.824
123.75
118.073
110.993
103.223
94.9401
88.2522
81.1316
89.6272
89.4473
86.6915
82.4436
76.4519
68.7216
60.4714
52.8149
46.8139
42.518
48.5547
48.0155
47.4882
44.1855
38.1529
30.7834
24.1492
19.3704
16.9261
16.0188
16.5303
19.1825
18.2216
14.871
11.2218
6.48264
3.41148
1.91869
0.683967
0.104597
0.669331
0.580062
1.00699
0.87986
0.019921
-0.32329
-0.292913
-0.290528
-0.340168
-0.361614
-0.410223
-0.400099
-0.38921
-0.420002
-0.442478
-0.393943
-0.347448
-0.337724
-0.345586
-0.357771
-0.419395
-0.407211
-0.421989
-0.448375
-0.453777
-0.396645
-0.358287
-0.342985
-0.352826
-0.36888
-0.380625
-0.395669
-0.415785
-0.436192
-0.438559
-0.414069
-0.395892
-0.388124
-0.395545
-0.396061
-0.485358
-0.473514
-0.464575
-0.482088
-0.482506
-0.466494
-0.453944
-0.447776
-0.44691
-0.443718
-0.550749
-0.555843
-0.532627
-0.538549
-0.539437
-0.529112
-0.517166
-0.511648
-0.509511
-0.503367
-0.606702
-0.62735
-0.615774
-0.604186
-0.600073
-0.592853
-0.579659
-0.574222
-0.571232
-0.566122
-0.666764
-0.69637
-0.698309
-0.675239
-0.664572
-0.656398
-0.64033
-0.634731
-0.632614
-0.630117
-0.727591
-0.749418
-0.755009
-0.739695
-0.728379
-0.714542
-0.699211
-0.692955
-0.691502
-0.691004
-0.7811
-0.784409
-0.796388
-0.790681
-0.779955
-0.766062
-0.754391
-0.748659
-0.747138
-0.746693
-0.82505
-0.819066
-0.82751
-0.82365
-0.818785
-0.811676
-0.80564
-0.801713
-0.800332
-0.798724
361.801
360.837
359.083
356.559
353.449
350.033
346.698
343.847
341.384
340.525
314.046
313.027
311.281
308.587
305.316
301.603
298.025
294.963
292.617
291.539
267.5
266.401
264.432
261.739
258.014
253.895
249.906
246.455
243.941
242.601
222.291
221.301
219.197
215.959
211.919
207.271
202.61
198.622
195.73
194.151
178.522
177.566
175.432
171.824
167.274