/*--------------------------------*- C++ -*----------------------------------*\
| =========                 |                                                 |
| \\      /  F ield         | OpenFOAM: The Open Source CFD Toolbox           |
|  \\    /   O peration     | Version:  2312                                  |
|   \\  /    A nd           | Website:  www.openfoam.com                      |
|    \\/     M anipulation  |                                                 |
\*---------------------------------------------------------------------------*/
FoamFile
{
    version     2.0;
    format      ascii;
    arch        "LSB;label=32;scalar=64";
    class       surfaceScalarField;
    location    "0.025";
    object      alphaPhi0.water;
}
// * * * * * * * * * * * * * * * * * * * * * * * * * * * * * * * * * * * * * //

dimensions      [0 3 -1 0 0 0 0];

oriented        oriented;

internalField   nonuniform List<scalar> 
22600
(
7.65261e-14
-2.92072e-13
2.38921e-14
1.40441e-13
-2.49176e-13
4.43191e-14
2.24585e-13
-2.46512e-13
1.47617e-14
2.72108e-13
-2.2438e-13
3.20653e-14
2.7247e-13
-1.83671e-13
4.30046e-14
2.41155e-13
-1.54814e-13
5.13663e-14
1.89296e-13
-1.32463e-13
5.57711e-14
1.30708e-13
-1.21236e-13
5.75422e-14
9.18622e-14
-1.23832e-13
4.59608e-14
-7.60126e-14
5.52651e-14
-5.4414e-14
-7.36325e-13
7.39126e-14
-2.39245e-14
-6.0108e-13
6.03149e-14
3.49124e-14
-5.81137e-13
1.45565e-14
5.20795e-14
-5.4166e-13
4.63392e-14
5.95923e-14
-4.82174e-13
4.66287e-14
4.67573e-14
-4.30995e-13
5.51747e-14
3.19336e-14
-3.98288e-13
5.74453e-14
2.04317e-14
-3.78908e-13
5.54961e-14
2.55824e-15
-3.67752e-13
5.53008e-14
-3.01151e-13
6.05859e-14
-1.50869e-14
-1.15135e-12
5.99664e-14
1.74013e-14
-8.77885e-13
2.19813e-14
8.39008e-14
-8.46668e-13
-2.32144e-14
1.01984e-13
-8.11191e-13
3.5397e-14
1.06045e-13
-7.4466e-13
4.99164e-14
8.49726e-14
-6.81517e-13
7.12425e-14
5.21144e-14
-6.41981e-13
8.41826e-14
1.10524e-14
-6.22203e-13
9.89061e-14
-3.73796e-14
-6.06571e-13
1.06854e-13
-5.90563e-13
1.05359e-13
1.06443e-14
-1.49137e-12
-8.62262e-15
5.13434e-14
-1.05706e-12
-6.04694e-14
1.28939e-13
-1.02646e-12
-9.62447e-14
1.34083e-13
-9.96558e-13
-1.28511e-14
1.38543e-13
-9.54505e-13
1.8335e-14
1.20232e-13
-9.11792e-13
6.75537e-14
7.8645e-14
-8.74146e-13
9.81784e-14
1.04218e-14
-8.47956e-13
1.22825e-13
-6.36398e-14
-8.25833e-13
1.25267e-13
-9.18282e-13
1.28159e-13
3.22799e-14
-1.82837e-12
-7.87852e-14
1.16135e-13
-1.16686e-12
-1.40883e-13
1.83433e-13
-1.10009e-12
-1.59397e-13
1.7952e-13
-1.10321e-12
-5.07861e-14
1.79049e-13
-1.10873e-12
-2.42616e-15
1.46637e-13
-1.09703e-12
6.40911e-14
9.52089e-14
-1.08098e-12
1.07382e-13
2.12167e-14
-1.05892e-12
1.35895e-13
-6.16561e-14
-1.03355e-12
1.42752e-13
-1.22606e-12
1.27593e-13
5.36184e-14
-2.22424e-12
-1.52968e-13
2.038e-13
-1.27687e-12
-1.64942e-13
1.54669e-13
-9.98216e-13
-1.75808e-13
1.64184e-13
-1.15008e-12
-8.25034e-14
1.74025e-13
-1.20215e-12
-3.396e-14
1.49816e-13
-1.20606e-12
1.6848e-14
1.0769e-13
-1.20519e-12
5.00982e-14
5.19188e-14
-1.18903e-12
6.92979e-14
-1.25527e-14
-1.16203e-12
7.61614e-14
-1.39391e-12
6.34664e-14
1.24505e-14
-3.86274e-12
6.60321e-14
5.7162e-13
-1.83394e-12
-7.64843e-14
2.08402e-13
-6.28849e-13
-7.84751e-14
2.40831e-13
-1.19843e-12
-5.45533e-14
2.46371e-13
-1.2442e-12
-3.34756e-14
2.17167e-13
-1.22838e-12
-1.92917e-14
1.72194e-13
-1.21517e-12
-1.74984e-14
1.20432e-13
-1.19219e-12
-1.91884e-14
8.41994e-14
-1.16452e-12
-3.62906e-14
-1.31939e-12
-4.64146e-14
6.36626e-14
-2.77262e-13
-1.33618e-13
-1.16321e-12
-2.5075e-13
3.57725e-13
-4.2123e-13
-1.23006e-17
2.45416e-14
-4.42809e-13
-8.20742e-24
1.00638e-13
-2.7182e-13
-4.89453e-30
7.16644e-14
-2.6399e-13
-2.55428e-36
3.90624e-14
-2.1813e-13
-1.23385e-42
2.58679e-14
-1.3252e-13
2.99851e-49
1.80055e-14
-6.70428e-15
1.45666e-49
1.95582e-14
-4.14483e-34
2.73359e-14
1.36989e-17
-1.57679e-29
-1.19305e-18
1.23006e-17
-2.56762e-30
-6.55101e-19
8.20742e-24
3.95715e-30
-3.18848e-25
4.89454e-30
-3.70138e-31
-3.93257e-31
2.55428e-36
-1.14205e-37
-1.74349e-37
1.23385e-42
4.65587e-43
-7.69096e-44
5.27198e-49
1.93087e-49
-2.96587e-50
-5.89668e-48
-2.32736e-48
6.31768e-42
-2.19588e-48
-9.56009e-49
2.72047e-42
-4.14483e-34
3.68787e-48
-4.85152e-37
-5.92822e-36
-6.35351e-37
-2.56762e-30
-2.53739e-38
-6.96056e-38
3.70139e-31
1.17644e-33
-2.02373e-31
1.14206e-37
3.01095e-40
-8.2504e-39
4.19924e-43
1.08136e-43
-7.53863e-46
-3.09348e-46
-3.3414e-46
-1.34669e-52
-3.69793e-44
-3.36433e-44
1.58617e-49
-6.24451e-48
-4.91736e-48
-3.55333e-54
1.35306e-52
2.09298e-49
-1.1461e-52
1.84541e-33
5.51923e-51
-1.31746e-43
2.82948e-40
-6.0392e-43
-4.12758e-37
8.02506e-43
-1.36736e-50
2.61912e-37
7.49253e-40
-5.13856e-52
1.2939e-43
1.14843e-42
-3.87049e-52
1.63627e-43
4.75991e-43
-3.17142e-48
2.55854e-43
4.21499e-43
-9.01679e-48
4.70753e-44
2.86335e-43
-7.83033e-48
3.68046e-44
9.87036e-44
-7.6666e-48
1.32983e-40
9.32247e-41
-9.29293e-46
4.63531e-40
-7.95777e-45
-3.95918e-42
9.02932e-48
-1.27933e-47
-1.70281e-42
3.69426e-41
-1.83133e-49
2.25205e-42
5.15593e-44
-8.20869e-49
1.27078e-41
5.60255e-41
-2.70199e-48
1.90682e-41
6.66203e-41
-6.93108e-48
2.42386e-41
6.74868e-41
-1.30922e-47
2.21268e-41
5.76402e-41
-3.05714e-47
1.73939e-41
4.36495e-41
-1.50746e-46
1.58956e-41
9.07548e-42
-8.35109e-46
3.39539e-42
-1.46427e-41
-1.26577e-47
5.86675e-54
-2.37415e-54
6.92991e-48
2.46128e-49
-6.62734e-62
5.41583e-48
3.84419e-50
-1.48167e-64
6.77459e-47
2.55487e-49
-1.11534e-57
9.32518e-47
2.81155e-49
-1.24284e-56
1.12575e-46
2.74669e-49
-5.69201e-56
1.04902e-46
2.31853e-49
-1.67559e-55
8.2117e-47
1.80213e-49
-3.28545e-55
5.35355e-47
9.97346e-50
-4.83691e-55
1.0112e-48
-7.19223e-47
-3.02832e-54
5.62475e-60
-1.0182e-62
7.41118e-54
1.65843e-55
-2.48823e-68
3.23311e-54
3.94163e-56
-1.5945e-68
3.04531e-53
1.89037e-55
-1.23582e-66
4.32129e-53
2.05623e-55
-2.70088e-65
5.35501e-53
1.98723e-55
-1.8181e-64
5.11617e-53
1.68759e-55
-6.89152e-64
4.08858e-53
1.31503e-55
-1.51644e-63
3.15674e-53
8.70052e-56
-2.27659e-63
3.36392e-54
-3.12909e-53
2.31567e-64
7.68432e-66
-6.48536e-70
1.33439e-59
2.35155e-61
-1.63813e-78
4.49805e-60
5.86334e-62
-3.64411e-86
3.64668e-59
2.86714e-61
-2.83813e-75
4.85653e-59
3.14766e-61
-7.65759e-74
5.70525e-59
3.04813e-61
-6.29825e-73
5.33664e-59
2.59118e-61
-2.27253e-72
4.18163e-59
1.99894e-61
-4.91753e-72
3.29557e-59
1.36525e-61
-7.24976e-72
1.18397e-59
-2.83105e-59
8.42968e-70
1.15047e-71
-1.28472e-76
3.29412e-65
3.6289e-67
-1.12063e-80
9.14312e-66
9.54132e-68
-1.80666e-89
5.39121e-65
4.94802e-67
-1.77292e-83
6.26427e-65
5.44504e-67
-3.98622e-80
6.70582e-65
5.23867e-67
-4.03042e-81
5.63958e-65
4.41132e-67
-1.64033e-80
4.11851e-65
3.32121e-67
-1.11734e-80
3.00594e-65
2.28932e-67
-6.21678e-80
4.22722e-65
-2.67016e-65
1.46033e-75
1.79586e-77
8.82442e-76
5.55262e-71
5.81574e-73
6.84881e-72
1.67274e-71
1.60698e-73
-2.40626e-86
1.0504e-70
8.99125e-73
-4.56952e-85
1.05801e-70
9.81264e-73
-1.75639e-78
8.90783e-71
9.30644e-73
-6.28742e-78
5.86492e-71
7.69944e-73
-1.07752e-77
3.13377e-71
5.62834e-73
-1.31829e-77
1.62096e-71
3.86989e-73
-8.47117e-77
1.48523e-70
-2.61861e-71
1.78841e-81
2.79698e-83
1.44375e-81
9.73278e-77
9.06782e-79
4.09592e-77
3.25764e-77
2.60446e-79
1.39188e-77
2.08596e-76
1.60211e-78
9.52621e-77
1.72549e-76
1.71236e-78
1.00884e-76
1.03099e-76
1.58774e-78
7.9506e-77
3.45839e-77
1.2851e-78
4.23232e-77
-6.63044e-78
9.14801e-79
7.87187e-78
-1.0321e-74
6.31262e-79
-2.66386e-82
4.98053e-76
-2.8099e-77
3.27979e-87
4.12222e-89
2.16108e-87
1.73619e-82
1.31258e-84
1.00442e-82
5.89741e-83
3.85135e-85
3.58375e-83
3.88698e-82
2.69461e-84
2.74133e-82
2.63183e-82
2.77931e-84
2.65505e-82
8.58575e-83
2.49427e-84
1.99456e-82
-4.37215e-83
1.96987e-84
1.04887e-82
-8.12469e-83
1.36772e-84
2.9785e-83
-8.85268e-80
9.67495e-85
-5.6018e-88
1.55582e-81
-3.44981e-83
5.42433e-93
5.14875e-93
5.62084e-95
2.69565e-88
1.78715e-88
1.71436e-90
8.72971e-89
5.86797e-89
5.04127e-91
6.27795e-88
4.87671e-88
4.27308e-90
3.39732e-88
4.11257e-88
4.17622e-90
-1.96437e-89
2.74247e-88
3.58643e-90
-2.10421e-88
1.28378e-88
2.74471e-90
-2.39342e-88
2.65259e-89
1.85681e-90
-4.2567e-85
-1.17092e-93
1.40667e-90
-3.62937e-89
4.44961e-87
-7.01955e-14
-2.71115e-13
-6.92038e-14
-3.93194e-14
-2.3019e-13
-2.10971e-14
-5.46385e-15
-2.53953e-13
-3.03637e-14
8.78391e-15
-2.22997e-13
-1.68778e-14
1.52826e-14
-2.09333e-13
-2.19455e-15
1.22333e-14
-1.89735e-13
7.05973e-15
6.5806e-15
-1.78685e-13
1.42394e-14
1.10603e-14
-1.82279e-13
1.96806e-14
1.40879e-14
-1.84072e-13
1.92126e-14
-1.29072e-13
3.06667e-14
-2.46074e-13
-5.54874e-13
1.3307e-14
-2.11871e-13
-5.39478e-13
-4.92256e-16
-2.31196e-13
-5.47138e-13
-4.62108e-15
-2.16821e-13
-5.1308e-13
8.46015e-16
-2.09481e-13
-4.85199e-13
6.60304e-15
-1.87545e-13
-4.62227e-13
1.09349e-14
-1.56499e-13
-4.47796e-13
1.41777e-14
-1.2252e-13
-4.46327e-13
1.57941e-14
-8.94724e-14
-4.40771e-13
1.73599e-14
-3.7199e-13
1.9049e-14
-2.20581e-13
-8.46465e-13
2.92153e-16
-1.79374e-13
-8.26393e-13
-2.59224e-14
-2.16749e-13
-7.96866e-13
-2.58874e-14
-2.02416e-13
-7.69953e-13
-3.1047e-15
-1.93523e-13
-7.26863e-13
1.16801e-14
-1.76391e-13
-6.92949e-13
2.427e-14
-1.5727e-13
-6.69767e-13
3.62982e-14
-1.40298e-13
-6.55111e-13
4.81465e-14
-1.24628e-13
-6.41924e-13
5.54356e-14
-6.1437e-13
4.83777e-14
-2.06125e-13
-1.2007e-12
-4.80882e-14
-1.65349e-13
-1.11021e-12
-7.60669e-14
-2.09513e-13
-1.02987e-12
-7.39755e-14
-2.0454e-13
-9.97606e-13
-3.78515e-14
-1.88172e-13
-9.51584e-13
-1.35082e-14
-1.61681e-13
-9.0206e-13
1.70355e-14
-1.44913e-13
-8.53551e-13
3.81344e-14
-1.41899e-13
-8.12517e-13
5.48966e-14
-1.56759e-13
-7.76258e-13
5.54666e-14
-8.66336e-13
6.39241e-14
-1.58367e-13
-1.6735e-12
-1.06656e-13
-1.28699e-13
-1.37698e-12
-1.14211e-13
-1.77118e-13
-1.23173e-12
-1.159e-13
-1.61137e-13
-1.20822e-12
-5.74807e-14
-1.48783e-13
-1.14273e-12
-2.03447e-14
-1.29067e-13
-1.07036e-12
1.93707e-14
-1.12544e-13
-1.00216e-12
4.83734e-14
-1.12179e-13
-9.33401e-13
6.67178e-14
-1.34432e-13
-8.80745e-13
8.10059e-14
-1.0659e-12
5.84623e-14
-1.52372e-13
-2.25579e-12
-1.21703e-13
-1.13502e-14
-1.71539e-12
-1.16569e-13
-1.28545e-13
-1.31302e-12
-1.22977e-13
-1.17934e-13
-1.37537e-12
-6.81728e-14
-9.43271e-14
-1.30379e-12
-3.69515e-14
-7.35254e-14
-1.2118e-12
-2.87978e-15
-5.99447e-14
-1.12642e-12
1.94227e-14
-5.96056e-14
-1.04305e-12
3.61061e-14
-6.47355e-14
-9.82231e-13
3.99962e-14
-1.20091e-12
3.62946e-14
-1.02464e-13
-3.43413e-12
1.8578e-14
3.65578e-13
-2.26556e-12
-7.2026e-14
4.21669e-14
-1.05626e-12
-8.69317e-14
3.92158e-14
-1.44975e-12
-5.10473e-14
6.04429e-14
-1.40252e-12
-3.05207e-14
6.14044e-14
-1.2938e-12
-1.50748e-14
4.64075e-14
-1.20266e-12
-5.98521e-15
4.20387e-14
-1.13862e-12
-1.35598e-15
4.25043e-14
-1.09669e-12
-5.3175e-15
-1.24012e-12
-1.51321e-14
-1.32463e-13
-1.37625e-13
-5.46188e-13
-1.22052e-12
-2.54095e-13
1.60851e-13
-4.88974e-13
-2.82196e-18
-3.037e-14
-4.62942e-13
-1.61164e-24
3.32483e-14
-3.15222e-13
-8.22833e-31
4.13834e-14
-2.94816e-13
-3.86821e-37
3.53384e-14
-2.37291e-13
-1.69702e-43
3.52019e-14
-1.44272e-13
7.05747e-43
3.3544e-14
-1.49161e-14
3.2028e-43
2.57654e-14
3.9843e-49
4.73538e-14
2.87738e-18
-6.56615e-31
-1.3052e-18
2.82196e-18
-1.20013e-31
-7.93169e-19
1.61164e-24
2.16276e-31
-4.14198e-25
8.22836e-31
-4.63586e-33
-2.60377e-31
3.86825e-37
-1.93933e-39
1.08156e-36
1.69705e-43
-4.62899e-46
1.80939e-42
6.62084e-50
5.80832e-50
1.55041e-48
-1.33294e-41
-1.55851e-54
8.11297e-36
-4.92241e-42
-7.68759e-52
3.70336e-36
-2.1759e-48
3.83266e-42
-1.55957e-38
-2.04815e-37
-1.8812e-37
-1.20013e-31
-5.17123e-44
-1.82921e-38
4.63586e-33
-7.08195e-48
-1.10746e-31
1.93933e-39
-1.07667e-51
-8.25636e-39
4.53317e-46
-2.34813e-48
-1.2455e-45
1.14107e-52
-7.32137e-48
4.98829e-49
-1.60463e-49
-9.5329e-48
1.25801e-43
1.70098e-51
-4.8923e-49
-6.2299e-49
1.727e-51
-1.51065e-45
-1.73746e-48
-5.12655e-51
1.4017e-48
5.15692e-44
-4.79659e-47
-2.33261e-40
-8.9473e-53
-1.68607e-49
-5.96996e-47
1.11997e-52
-1.07213e-48
-3.78775e-52
2.49321e-52
-3.00651e-48
-3.17986e-48
4.14279e-48
-9.66026e-48
-6.76617e-48
7.947e-48
-2.54133e-47
-6.5859e-48
8.35608e-48
-5.8157e-47
-2.29299e-43
9.06195e-48
-3.66304e-46
-4.34837e-43
1.90575e-45
-2.03503e-45
-1.02575e-42
2.67257e-44
-5.12823e-43
-6.27966e-50
-8.9856e-54
-1.56904e-46
-4.67457e-50
-1.16175e-61
-3.08213e-49
2.19698e-49
-9.29272e-63
-9.61385e-49
1.64847e-48
-3.43028e-57
-2.34139e-48
6.53887e-48
-4.78279e-56
-5.25534e-48
1.84998e-47
-2.26172e-55
-1.05916e-47
4.47695e-47
-7.23015e-55
-1.72024e-47
3.16e-46
-1.6417e-54
-3.92087e-46
1.86779e-45
-2.59418e-54
-8.48052e-46
4.36933e-41
-1.06808e-41
-3.72516e-64
-4.24505e-62
-1.19265e-53
7.98833e-66
-4.9474e-72
-7.62796e-62
1.68584e-64
-1.65283e-73
-1.31501e-64
7.11837e-58
-6.01557e-66
-1.45707e-57
1.17753e-56
-1.37748e-64
-1.06223e-56
5.86697e-56
-8.80169e-64
-3.70892e-56
1.74667e-55
-3.33065e-63
-9.12812e-56
3.71043e-55
-8.31328e-63
-1.63346e-55
6.36575e-55
-1.3307e-62
-2.15593e-55
1.88988e-49
-4.58736e-47
-1.78398e-69
-4.8707e-69
-2.47574e-61
1.62062e-75
-7.78226e-78
-5.10794e-71
4.41551e-75
-9.86533e-79
-2.62212e-74
1.04496e-66
-1.49218e-74
-1.54049e-66
3.11075e-65
-6.32664e-73
-2.05927e-65
2.20172e-64
-3.65673e-72
-9.8713e-65
8.27646e-64
-1.28218e-71
-3.02156e-64
1.87999e-63
-2.96204e-71
-5.9502e-64
3.33186e-63
-4.40281e-71
-8.21325e-64
1.3813e-55
-1.93374e-53
2.21126e-74
-4.10373e-75
-1.21031e-69
1.04722e-78
-3.94336e-83
-4.78104e-78
6.15131e-80
-2.63538e-85
-8.15459e-82
2.79577e-75
-5.72316e-83
-2.63415e-75
1.19226e-73
-1.21672e-81
-4.5403e-74
8.51106e-73
-1.1792e-80
-2.70948e-73
2.85378e-72
-4.53816e-80
-9.02066e-73
5.98086e-72
-5.02211e-80
-1.84169e-72
9.94035e-72
-6.25436e-80
-2.64079e-72
2.03103e-61
-2.26106e-59
1.51062e-79
-3.67408e-81
3.13793e-79
4.4232e-87
-2.61979e-78
3.51797e-87
1.25569e-83
-1.77305e-88
-1.35589e-90
1.30389e-83
-2.06098e-84
-1.25736e-83
2.43225e-81
-7.75837e-78
-2.36183e-82
5.64944e-81
-2.63487e-77
-1.56952e-81
1.31749e-80
-4.20382e-77
-4.89544e-81
1.34396e-80
-5.05087e-77
-8.17459e-81
3.40024e-79
-5.68725e-76
-1.29468e-80
3.19151e-67
-4.0224e-65
3.27967e-82
-3.9222e-87
4.84345e-85
7.99804e-79
-2.36915e-82
4.31881e-82
4.62794e-86
-1.32636e-82
1.71251e-86
1.62939e-84
-6.1749e-82
-8.35729e-93
5.18077e-78
-1.60482e-81
-2.78102e-88
1.08659e-77
-3.05845e-81
-1.98942e-87
9.55295e-78
-3.10388e-81
-4.68649e-87
5.98285e-78
-2.4435e-81
-2.71983e-86
6.66075e-77
-7.42555e-81
-2.33808e-76
5.07015e-73
-7.55396e-71
1.00521e-88
-1.48288e-92
5.24132e-91
4.04499e-83
-3.14486e-87
1.95692e-86
6.50345e-83
-2.93205e-87
1.38032e-86
4.04454e-82
-3.4022e-86
2.93599e-86
4.4287e-82
-3.15038e-86
-2.4645e-92
3.92512e-82
-2.44281e-86
-1.34182e-91
5.79894e-83
-1.82242e-86
-2.16656e-91
-1.58946e-82
-1.25982e-86
-2.85742e-89
-5.22433e-77
-2.64407e-86
-1.95914e-81
7.78559e-79
-1.42311e-76
4.71054e-94
-1.24862e-97
7.02464e-97
4.61838e-88
-1.43908e-92
8.36505e-92
6.22242e-88
-7.26213e-93
4.75727e-92
8.09159e-87
-1.81097e-91
-4.08181e-97
5.70721e-87
-1.30381e-91
-1.8706e-96
1.33759e-87
-8.97812e-92
-2.16258e-96
-6.78478e-88
-6.14744e-92
-1.93606e-96
-1.94629e-87
-4.13402e-92
-1.95486e-94
-1.54541e-82
-9.42812e-92
-6.41025e-87
1.12489e-84
-2.34933e-82
1.02142e-98
1.0542e-102
-6.47202e-103
2.35575e-93
-3.00391e-104
-3.1421e-98
1.47341e-93
-2.33527e-103
-1.25832e-98
3.48382e-92
-9.57386e-102
-6.95991e-97
1.44474e-92
-1.07332e-101
-5.29056e-97
1.30701e-93
-9.25566e-102
-3.76067e-97
-3.76203e-93
-6.80698e-102
-2.56344e-97
-7.36521e-93
-8.29791e-100
-1.65926e-97
-3.43278e-88
-1.82561e-92
-3.34906e-97
-3.31786e-88
1.52116e-90
-5.16653e-14
-3.24884e-13
-9.75528e-14
-3.5303e-14
-2.36832e-13
-4.16348e-14
8.09814e-15
-2.53039e-13
-6.20626e-14
1.87693e-14
-2.23611e-13
-3.80428e-14
2.72015e-14
-2.05916e-13
-2.94699e-14
2.24368e-14
-1.83444e-13
-1.8854e-14
1.4095e-14
-1.70056e-13
-1.05759e-14
1.28903e-14
-1.70221e-13
-2.21237e-15
1.0006e-14
-1.67256e-13
3.6159e-15
-1.18838e-13
9.35144e-15
-2.43097e-13
-6.20866e-13
-1.50117e-14
-2.29746e-13
-5.46577e-13
-2.21844e-14
-2.25436e-13
-5.56508e-13
-1.9009e-14
-2.1608e-13
-5.17539e-13
-1.74529e-14
-2.07005e-13
-4.86019e-13
-1.23746e-14
-1.86391e-13
-4.60379e-13
-8.82298e-15
-1.5543e-13
-4.43473e-13
-5.91407e-15
-1.22248e-13
-4.34357e-13
-4.30186e-15
-8.25122e-14
-4.31608e-13
-1.04039e-15
-3.58032e-13
-3.96664e-15
-2.24467e-13
-8.97913e-13
-2.10745e-14
-1.91233e-13
-8.40167e-13
-4.35649e-14
-2.04131e-13
-8.14771e-13
-2.84833e-14
-1.93876e-13
-7.74825e-13
-2.08713e-14
-1.8604e-13
-7.27714e-13
-9.05468e-15
-1.69957e-13
-6.94288e-13
-1.98265e-15
-1.51593e-13
-6.67808e-13
7.96268e-15
-1.33218e-13
-6.48748e-13
1.78614e-14
-1.19916e-13
-6.34843e-13
2.45748e-14
-6.09289e-13
1.76531e-14
-2.103e-13
-1.21492e-12
-2.30768e-14
-1.82625e-13
-1.11839e-12
-7.01534e-14
-2.04086e-13
-1.05062e-12
-5.70755e-14
-1.9647e-13
-1.00364e-12
-4.96268e-14
-1.73344e-13
-9.55494e-13
-3.42848e-14
-1.49651e-13
-9.05122e-13
-1.42894e-14
-1.34377e-13
-8.56734e-13
-8.22897e-16
-1.35553e-13
-8.13807e-13
1.29927e-14
-1.54599e-13
-7.78657e-13
1.33421e-14
-8.7271e-13
2.39897e-14
-1.66071e-13
-1.63583e-12
-6.25928e-14
-1.3205e-13
-1.37754e-12
-8.74187e-14
-1.62789e-13
-1.24991e-12
-8.01109e-14
-1.42065e-13
-1.21385e-12
-5.67063e-14
-1.26743e-13
-1.1443e-12
-3.10987e-14
-1.09569e-13
-1.07502e-12
-9.04479e-15
-9.65991e-14
-1.01019e-12
9.54953e-15
-9.85688e-14
-9.44536e-13
2.11693e-14
-1.2013e-13
-8.9342e-13
4.01457e-14
-1.0807e-12
2.03043e-14
-1.36982e-13
-2.14107e-12
-7.51713e-14
-1.15522e-14
-1.67807e-12
-8.08209e-14
-1.09779e-13
-1.32523e-12
-8.52593e-14
-1.00537e-13
-1.36728e-12
-5.65835e-14
-7.92516e-14
-1.29762e-12
-3.61643e-14
-6.05676e-14
-1.21342e-12
-1.48022e-14
-4.92985e-14
-1.13493e-12
-1.82295e-16
-5.29318e-14
-1.05325e-12
1.39108e-14
-6.43362e-14
-9.93776e-13
1.68758e-14
-1.22123e-12
2.02938e-14
-7.82848e-14
-3.16035e-12
-2.59749e-14
3.35836e-13
-2.15604e-12
-7.94553e-14
5.86361e-14
-1.11001e-12
-9.39478e-14
6.05453e-14
-1.43136e-12
-5.71659e-14
7.69369e-14
-1.37441e-12
-3.97613e-14
7.32344e-14
-1.27253e-12
-2.47657e-14
5.46599e-14
-1.18695e-12
-1.11856e-14
4.06509e-14
-1.11491e-12
-4.03017e-15
2.70029e-14
-1.0686e-12
3.93805e-15
-1.2585e-12
4.28056e-16
-1.81235e-13
-2.11507e-13
-4.83448e-13
-1.15934e-12
-2.85895e-13
9.88896e-14
-4.84034e-13
-1.88376e-18
6.40692e-16
-4.50858e-13
-1.01925e-24
4.44405e-14
-3.13354e-13
9.88189e-38
6.11798e-14
-2.95431e-13
1.61101e-43
6.6243e-14
-2.31551e-13
1.57911e-49
6.83717e-14
-1.29088e-13
9.19948e-37
6.71339e-14
4.31607e-15
4.54574e-37
5.60281e-14
4.55266e-43
6.33318e-14
1.59914e-18
-2.27645e-31
-9.79816e-19
1.88376e-18
-3.48373e-32
-5.70841e-19
1.01925e-24
1.0029e-31
-3.64218e-25
5.40845e-31
-4.35273e-33
-1.88477e-31
-2.37002e-36
-1.24492e-46
-9.06317e-38
-4.17555e-42
1.44148e-49
-4.10244e-44
-3.70724e-48
5.11366e-44
2.11857e-44
-1.81711e-35
-3.11931e-49
1.84138e-42
-7.14259e-36
-1.06508e-48
1.4846e-42
-2.54679e-42
1.77563e-48
-1.87667e-39
-4.96257e-38
-4.76953e-38
-3.48373e-32
-1.17211e-40
-7.25218e-40
1.02265e-32
-8.86438e-46
-5.552e-32
1.64301e-39
-1.19466e-48
-8.05571e-39
1.04373e-45
-4.54896e-48
-7.42163e-46
-5.0814e-49
-5.77387e-48
1.9785e-43
-1.53521e-43
-3.10647e-43
6.16414e-38
2.58979e-48
-8.27631e-43
5.69675e-44
2.6052e-48
-2.05986e-42
-7.49868e-49
-1.6e-48
2.44006e-53
1.15607e-40
-4.46649e-46
-1.78745e-39
1.14701e-50
-4.04313e-49
-2.88447e-46
8.48829e-53
-1.03216e-48
4.94565e-48
3.64018e-48
-2.31112e-48
-2.65614e-48
6.70637e-48
-7.23752e-48
-2.27575e-48
7.19457e-48
-1.94859e-47
-3.94115e-48
4.94496e-43
-9.16856e-47
-1.58624e-43
6.96152e-43
-2.47996e-45
-3.82087e-43
1.51038e-42
-2.92123e-45
-3.56862e-43
1.14364e-42
-3.38111e-43
-5.43423e-50
-3.43614e-53
-2.00073e-46
1.36815e-50
-2.36071e-61
-8.36727e-49
4.07175e-49
-1.09644e-62
-1.29855e-48
1.87158e-48
-6.36836e-57
-2.00578e-48
6.22419e-48
-4.57273e-56
-3.74732e-48
1.6368e-47
-1.90022e-55
-6.65619e-48
3.95943e-47
-5.82501e-55
-2.72649e-47
1.05917e-45
-1.29402e-54
-1.56716e-46
1.57671e-45
-1.97909e-54
-3.83073e-46
4.68637e-41
-5.19243e-42
4.64723e-58
-1.05294e-60
-1.04445e-53
2.71834e-64
-3.5764e-70
-1.12767e-61
4.01379e-64
-4.66779e-72
-2.64298e-58
2.02719e-57
-1.45085e-65
-2.59959e-57
1.42365e-56
-1.47178e-64
-8.15032e-57
5.95401e-56
-7.635e-64
-2.19122e-56
1.65249e-55
-2.60181e-63
-4.32079e-56
3.20446e-55
-6.03071e-63
-6.5957e-56
5.15475e-55
-9.12186e-63
-7.39272e-56
1.89479e-49
-1.98635e-47
-2.02423e-72
-1.8551e-68
-1.69827e-61
1.53256e-73
-8.42481e-77
-7.34606e-71
2.42364e-73
-1.455e-80
-1.61411e-67
3.18423e-66
-5.6398e-74
-3.28074e-66
3.77421e-65
-5.64494e-73
-1.33302e-65
2.08961e-64
-2.8427e-72
-4.71556e-65
6.88054e-64
-9.0225e-72
-1.08871e-64
1.39691e-63
-1.8762e-71
-1.80834e-64
2.2307e-63
-2.61087e-71
-2.23894e-64
1.33573e-55
-9.10982e-54
1.51544e-73
-1.39448e-78
-5.61082e-70
2.85483e-81
-7.7943e-87
5.87726e-82
7.74308e-82
-1.39998e-88
-6.34947e-77
1.03492e-74
-2.60135e-82
-1.911e-75
1.22801e-73
-2.22482e-81
-1.85865e-74
6.51788e-73
-9.75123e-81
-9.94164e-74
1.86341e-72
-2.65558e-80
-3.0071e-73
3.41225e-72
-4.95598e-80
-6.10471e-73
4.78167e-72
-4.83529e-80
-8.71925e-73
1.90002e-61
-1.62301e-59
3.82082e-83
-1.74443e-85
2.61329e-79
1.20488e-89
-7.07265e-86
9.02958e-89
1.02912e-89
-6.92618e-93
9.01977e-90
4.11425e-83
-1.01302e-90
1.64687e-84
3.84756e-82
-2.17254e-87
-8.86274e-83
1.68842e-81
-8.86398e-87
-5.66511e-82
4.00582e-81
-1.63751e-86
-1.71106e-81
6.46653e-81
-1.60291e-85
-3.11096e-81
4.33241e-80
-6.679e-76
-9.49117e-81
2.88813e-67
-3.83684e-65
1.4011e-87
-7.81396e-92
6.34729e-86
2.22637e-86
-7.7099e-90
1.71346e-89
1.31266e-93
-5.30932e-90
1.61694e-93
3.06835e-91
-5.45441e-90
1.62425e-92
3.7127e-88
-3.71025e-91
-9.45726e-91
8.57757e-88
-6.04006e-91
-5.15192e-90
9.25475e-88
-6.13872e-91
-1.31929e-89
5.58936e-87
-1.39001e-88
-4.26061e-85
3.00583e-77
-7.41196e-81
-2.43226e-76
4.49778e-73
-8.37027e-71
-2.54617e-91
-7.00332e-98
2.06998e-92
4.57161e-91
-4.83283e-95
5.37959e-94
5.44726e-91
-2.62987e-95
1.25926e-94
1.2221e-90
-1.50476e-95
-1.91448e-98
2.99238e-92
-1.25505e-95
-2.32852e-97
8.03723e-93
-7.96602e-96
-9.60022e-97
-2.98891e-92
-4.62848e-96
-3.87886e-96
-2.88786e-85
-7.99547e-94
-5.48036e-89
-5.06783e-77
-2.27796e-86
-2.36812e-81
6.89828e-79
-1.65045e-76
2.21692e-100
-7.77098e-104
4.3586e-99
4.008e-96
-1.09352e-101
2.65033e-100
2.21698e-96
-5.35761e-102
-1.1311e-104
1.81333e-96
-8.88219e-101
-3.13161e-103
8.13182e-97
-5.47808e-101
-6.0653e-103
-5.76073e-98
-3.22857e-101
-1.08376e-102
-5.17155e-97
-1.78327e-101
-2.60105e-101
-1.68622e-90
-3.78259e-99
-3.69753e-94
-1.42397e-82
-7.70804e-92
-9.56516e-87
1.0121e-84
-2.86844e-82
4.25782e-105
-6.68127e-105
-7.88181e-110
1.25336e-102
-1.16296e-109
-2.66516e-107
7.62608e-103
-8.14506e-110
-1.03068e-107
1.09738e-101
-2.18587e-108
-3.69111e-106
2.8097e-102
-1.96273e-108
-2.27974e-106
-4.54429e-103
-1.88687e-108
-1.26722e-106
-2.37199e-102
-1.19087e-106
-6.88489e-107
-6.75445e-96
-1.47077e-99
-1.57632e-104
-3.04967e-88
-2.96031e-92
-2.60392e-97
-4.34678e-88
1.39271e-90
-3.31588e-14
-3.91386e-13
-9.43018e-14
-8.91194e-15
-2.64565e-13
-4.26371e-14
1.84314e-14
-2.58558e-13
-7.20963e-14
3.14927e-14
-2.3751e-13
-4.69781e-14
3.68441e-14
-2.13617e-13
-4.44532e-14
3.17614e-14
-1.88043e-13
-3.75107e-14
2.09656e-14
-1.70495e-13
-2.94127e-14
1.76236e-14
-1.67129e-13
-2.14187e-14
1.41835e-14
-1.60965e-13
-1.37591e-14
-1.17581e-13
-5.09884e-15
-2.34983e-13
-6.98138e-13
-5.13307e-14
-2.45976e-13
-5.69148e-13
-2.57334e-14
-2.18865e-13
-5.77515e-13
-4.09479e-14
-2.10655e-13
-5.34239e-13
-3.09972e-14
-2.01714e-13
-4.94778e-13
-2.82061e-14
-1.82315e-13
-4.64679e-13
-2.46235e-14
-1.51114e-13
-4.44521e-13
-2.17218e-14
-1.16201e-13
-4.32624e-13
-2.02909e-14
-7.08424e-14
-4.28782e-13
-1.68839e-14
-3.5234e-13
-1.57325e-14
-2.15097e-13
-9.90305e-13
-5.33696e-14
-1.91494e-13
-8.69706e-13
-4.49544e-14
-1.87124e-13
-8.43524e-13
-4.00873e-14
-1.80609e-13
-7.91175e-13
-3.38104e-14
-1.73873e-13
-7.35739e-13
-2.71088e-14
-1.60447e-13
-6.9848e-13
-2.26572e-14
-1.43084e-13
-6.68258e-13
-1.64642e-14
-1.26035e-13
-6.46473e-13
-7.91607e-15
-1.14291e-13
-6.30198e-13
-2.8112e-15
-6.05674e-13
-2.32679e-15
-2.05343e-13
-1.24891e-12
-5.44003e-14
-1.8054e-13
-1.1412e-12
-6.72084e-14
-1.88664e-13
-1.07553e-12
-5.5592e-14
-1.81329e-13
-1.02363e-12
-5.50045e-14
-1.59011e-13
-9.72075e-13
-4.27047e-14
-1.37653e-13
-9.18851e-13
-3.04906e-14
-1.27722e-13
-8.66527e-13
-2.18129e-14
-1.32022e-13
-8.23022e-13
-1.11453e-14
-1.54476e-13
-7.86284e-13
-1.01334e-14
-8.83587e-13
1.06326e-15
-1.58545e-13
-1.6045e-12
-6.73762e-14
-1.18292e-13
-1.38646e-12
-7.82155e-14
-1.31588e-13
-1.26573e-12
-6.76613e-14
-1.16447e-13
-1.22383e-12
-5.68277e-14
-1.0194e-13
-1.15833e-12
-4.00349e-14
-9.01936e-14
-1.09096e-12
-2.64948e-14
-8.11437e-14
-1.02871e-12
-1.36814e-14
-8.67571e-14
-9.65239e-13
-6.69296e-15
-1.03177e-13
-9.11771e-13
7.14611e-15
-1.09274e-12
2.1162e-15
-1.19304e-13
-2.04541e-12
-6.70745e-14
-2.47427e-15
-1.64712e-12
-7.22294e-14
-8.52326e-14
-1.33038e-12
-6.93415e-14
-7.78121e-14
-1.36199e-12
-5.42857e-14
-6.04514e-14
-1.29934e-12
-4.00828e-14
-4.54039e-14
-1.22391e-12
-2.5501e-14
-3.88489e-14
-1.15188e-12
-1.42275e-14
-4.3758e-14
-1.07492e-12
-4.07868e-15
-5.97499e-14
-1.01243e-12
3.82716e-16
-1.22608e-12
3.14952e-15
-5.48053e-14
-3.00037e-12
-5.85556e-14
3.24872e-13
-2.09482e-12
-7.74889e-14
8.0031e-14
-1.16206e-12
-8.16265e-14
8.54039e-14
-1.43005e-12
-5.87389e-14
9.32301e-14
-1.36862e-12
-4.48201e-14
8.30421e-14
-1.27635e-12
-3.23204e-14
6.36476e-14
-1.19725e-12
-2.05001e-14
4.90109e-14
-1.12765e-12
-1.36159e-14
3.3207e-14
-1.06394e-12
-6.65375e-15
-1.23548e-12
-4.57877e-15
-1.70897e-13
-2.67999e-13
-2.78366e-13
-1.06642e-12
-3.01738e-13
9.08478e-14
-4.66602e-13
-1.23691e-18
5.26467e-14
-4.31735e-13
-6.98712e-25
7.25876e-14
-3.07321e-13
-3.95875e-31
8.29462e-14
-2.93762e-13
-2.13155e-37
8.67742e-14
-2.39396e-13
2.38745e-45
8.65244e-14
-1.45364e-13
2.45139e-43
8.3139e-14
-9.11435e-15
2.27111e-43
7.07073e-14
2.70717e-49
6.63643e-14
1.07379e-18
-6.74412e-32
-1.28219e-18
1.23691e-18
-1.45413e-33
-5.17365e-19
6.98712e-25
3.47939e-32
-3.12066e-25
3.95875e-31
-3.32671e-33
-1.58729e-31
2.13163e-37
-3.1163e-39
-8.0043e-38
1.0713e-43
5.99614e-44
2.68598e-42
-5.99994e-44
2.72047e-38
1.79264e-42
-5.13188e-42
3.3954e-44
2.59829e-36
-3.73338e-42
-3.44344e-49
2.07172e-36
-1.81233e-48
2.16593e-42
1.40937e-39
-1.20938e-38
-3.71614e-38
-1.45413e-33
-4.12336e-41
-2.39194e-45
1.03187e-32
6.00176e-49
-3.22669e-32
3.98861e-39
-7.9271e-49
-9.39052e-39
2.06502e-45
-9.77308e-49
-1.2099e-45
-2.66694e-43
-3.83679e-48
-7.83304e-52
-1.00858e-37
-1.73456e-43
-6.73014e-52
-1.11051e-43
-8.25754e-43
-4.9708e-52
9.71048e-49
-9.24665e-43
-2.95558e-52
-4.26633e-53
3.69538e-47
2.62551e-40
-3.45638e-46
-1.57123e-39
9.60264e-47
-5.75054e-49
-3.25591e-46
-3.06095e-48
-9.21372e-49
-1.46794e-43
2.55945e-48
-1.55805e-48
-4.24077e-48
2.8334e-48
-4.61361e-48
-1.9227e-48
9.29745e-48
-1.25151e-47
-3.10276e-48
3.75853e-43
-1.8115e-46
-1.14255e-45
8.70651e-43
-9.14574e-46
-6.12763e-46
7.91162e-43
-2.93864e-45
-2.2558e-46
1.85642e-42
-8.28324e-44
9.13556e-50
-1.79697e-53
-1.5461e-46
2.55636e-49
-2.10006e-61
-1.06643e-48
7.18052e-49
-1.4048e-57
-1.20112e-48
2.00881e-48
-7.60629e-57
-1.43158e-48
5.573e-48
-3.58196e-56
-2.21019e-48
1.49095e-47
-1.29386e-55
-3.36475e-48
1.07573e-46
-3.73269e-55
-5.284e-48
4.64055e-46
-8.02918e-55
-5.88174e-48
1.51541e-45
-1.18884e-54
-5.2442e-48
3.73564e-41
-2.57734e-42
7.84956e-58
-4.80062e-61
-4.11459e-54
6.95094e-62
-3.40547e-69
-1.16864e-58
5.43701e-58
-2.21406e-66
-1.23928e-57
3.53294e-57
-2.07126e-65
-2.07389e-57
1.50602e-56
-1.23167e-64
-4.95601e-57
5.04786e-56
-5.06909e-64
-9.2347e-57
1.26476e-55
-1.53877e-63
-1.30251e-56
2.23772e-55
-3.27958e-63
-1.3003e-56
3.30689e-55
-4.64815e-63
-7.62943e-57
1.46976e-49
-7.86698e-48
1.02518e-65
-1.51194e-68
-3.3239e-62
4.34614e-70
-3.55287e-77
-7.33724e-69
4.72043e-67
-7.5955e-75
-8.74919e-67
6.18647e-66
-7.57056e-74
-2.14487e-66
3.73595e-65
-4.29226e-73
-6.41041e-66
1.57869e-64
-1.67958e-72
-1.22799e-65
4.3828e-64
-4.51362e-72
-1.79526e-65
7.74344e-64
-8.22804e-72
-2.06189e-65
1.0888e-63
-1.09064e-71
-2.09149e-65
9.86115e-56
-5.04646e-54
9.62763e-74
-2.50571e-78
3.69459e-70
2.48422e-78
-5.44487e-88
2.14004e-78
8.31325e-76
-3.32277e-83
1.38638e-76
1.40225e-74
-2.96403e-82
-1.29064e-76
9.10295e-74
-1.4224e-81
-4.54175e-75
3.64343e-73
-4.77238e-81
-2.47521e-74
8.62564e-73
-1.08534e-80
-7.07033e-74
1.30108e-72
-1.74338e-80
-1.37551e-73
1.72748e-72
-4.03406e-80
-1.79765e-73
1.34542e-61
-1.43791e-59
-1.41469e-90
-5.45763e-85
1.36164e-78
1.08534e-89
-1.01792e-92
1.79409e-88
7.63373e-85
-2.1181e-91
4.81546e-84
1.76999e-83
-1.58253e-90
7.72735e-84
1.28828e-82
-6.44812e-90
-2.80025e-83
4.85342e-82
-1.88215e-89
-1.5815e-82
9.9396e-82
-3.841e-89
-3.88262e-82
1.62195e-81
-5.18783e-84
-3.28777e-82
5.24044e-81
-5.17483e-76
-1.28936e-80
1.99765e-67
-3.74959e-65
-9.91029e-94
-3.34773e-91
2.576e-85
-1.57713e-93
-4.70659e-97
2.85378e-93
-6.90286e-93
-1.51909e-97
3.08826e-92
4.67566e-94
-3.00934e-97
-1.36594e-92
-2.30439e-92
-1.04763e-96
-3.8114e-91
-2.20345e-91
-2.53562e-96
-1.48415e-90
-3.50151e-89
-1.17973e-95
-3.05759e-90
-7.91408e-81
-1.83738e-88
-2.09294e-84
-1.13668e-72
-6.51744e-81
-2.30112e-76
3.11948e-73
-8.29841e-71
-9.34275e-98
-2.85556e-97
7.52684e-92
-4.58796e-99
-5.39391e-103
8.22893e-99
7.88961e-100
-1.96053e-103
7.19407e-100
2.04109e-100
-1.48967e-102
-3.14409e-98
-5.81705e-98
-1.70449e-102
-1.88834e-97
-2.0854e-97
-2.20303e-102
-5.62281e-97
-8.2882e-93
-7.1319e-101
-5.26718e-96
-3.25969e-85
-1.0169e-93
-7.46776e-89
-3.91748e-77
-2.33391e-86
-2.31458e-81
4.95924e-79
-1.6621e-76
-3.41573e-104
-3.06047e-103
1.50935e-98
5.58954e-105
-1.20041e-108
-2.30183e-106
1.04055e-104
-5.01287e-109
-1.09603e-104
6.23922e-104
-7.61808e-108
-5.40905e-104
-3.64502e-104
-4.79474e-108
-1.90097e-103
-2.11164e-103
-3.57813e-108
-4.22734e-103
-7.15808e-98
-3.4975e-106
-4.16738e-101
-1.93255e-90
-4.2546e-99
-5.29436e-94
-1.06956e-82
-7.71669e-92
-1.1569e-86
7.79625e-85
-3.02799e-82
3.99452e-108
-5.30025e-105
-3.40677e-109
4.23633e-110
-1.04568e-110
-2.58837e-114
4.63967e-110
-2.1184e-110
-8.65937e-115
5.11159e-109
-6.04249e-110
-2.77578e-113
2.43915e-110
-1.77492e-109
-1.58776e-113
-2.95482e-109
-3.40109e-109
-9.1804e-114