/*--------------------------------*- C++ -*----------------------------------*\
| =========                 |                                                 |
| \\      /  F ield         | OpenFOAM: The Open Source CFD Toolbox           |
|  \\    /   O peration     | Version:  2312                                  |
|   \\  /    A nd           | Website:  www.openfoam.com                      |
|    \\/     M anipulation  |                                                 |
\*---------------------------------------------------------------------------*/
FoamFile
{
    version     2.0;
    format      ascii;
    arch        "LSB;label=32;scalar=64";
    class       surfaceScalarField;
    location    "1.02";
    object      alphaPhi0.water;
}
// * * * * * * * * * * * * * * * * * * * * * * * * * * * * * * * * * * * * * //

dimensions      [0 3 -1 0 0 0 0];

oriented        oriented;

internalField   nonuniform List<scalar> 
22600
(
-3.4561e-08
7.40929e-08
-3.9532e-08
-3.22452e-08
8.38118e-08
-8.61275e-08
-5.73348e-10
7.58836e-08
-1.07555e-07
1.69958e-09
6.94019e-08
-7.16747e-08
-1.9941e-08
6.85417e-08
-4.69011e-08
-5.5928e-08
7.58572e-08
-3.98704e-08
-9.56766e-08
8.31046e-08
-4.33561e-08
-1.25036e-07
8.30925e-08
-5.37329e-08
-1.33361e-07
7.34375e-08
-6.51121e-08
5.89997e-08
-7.94291e-08
-7.21224e-08
2.39637e-07
-9.34219e-08
-1.01761e-07
2.42657e-07
-1.29207e-07
-8.71945e-08
2.36112e-07
-1.74795e-07
-8.61471e-08
2.22444e-07
-1.54089e-07
-1.06585e-07
1.9008e-07
-1.01101e-07
-1.34898e-07
1.77791e-07
-7.36205e-08
-1.59514e-07
1.75016e-07
-6.72947e-08
-1.70156e-07
1.63171e-07
-6.94365e-08
-1.56668e-07
1.28914e-07
-6.8965e-08
8.70948e-08
-7.20768e-08
1.09189e-08
2.58204e-07
-2.94859e-08
-3.03525e-08
2.23223e-07
6.07059e-08
-8.42994e-08
3.33942e-07
-4.38835e-08
-8.70054e-08
3.63694e-07
-1.38544e-07
-9.17986e-08
3.23877e-07
-1.29004e-07
-1.16086e-07
2.85519e-07
-8.34405e-08
-1.56984e-07
2.70076e-07
-5.41626e-08
-2.02155e-07
2.42608e-07
-3.42651e-08
-2.01669e-07
1.26984e-07
1.44383e-09
-5.66062e-08
5.2016e-08
1.8031e-07
1.30129e-08
6.48815e-08
9.05736e-08
-5.26487e-08
3.65607e-07
-8.51122e-08
2.45205e-07
2.64423e-07
-1.28089e-07
3.76678e-07
2.99926e-08
-1.18446e-07
3.85211e-07
-7.09766e-08
-1.59225e-07
3.7872e-07
-5.24226e-08
-2.60951e-07
3.69405e-07
2.39686e-09
-3.40936e-07
2.36251e-07
8.63423e-08
-2.77626e-07
-1.48962e-07
2.12635e-07
-4.89155e-07
2.88384e-07
4.53801e-07
-6.81369e-07
2.40581e-07
3.23535e-07
-5.36519e-07
6.14135e-07
-6.13188e-08
1.11417e-07
5.18642e-07
-2.55696e-07
2.78288e-07
2.92768e-07
-2.83067e-07
3.04533e-07
1.0805e-07
-3.26935e-07
3.24135e-07
9.8453e-08
-3.93093e-07
2.72523e-07
1.63039e-07
-3.40785e-07
-6.85838e-08
2.52526e-07
-2.1272e-07
-5.64308e-07
2.87281e-07
-7.98361e-07
2.23189e-07
3.30459e-07
-1.58326e-06
5.71464e-07
1.20756e-07
-1.08237e-06
7.55559e-07
-2.23803e-07
-2.40153e-07
6.96128e-07
-3.86526e-07
-1.04301e-07
5.45312e-07
-3.63011e-07
-7.67642e-08
3.57782e-07
-3.01006e-07
-2.98663e-08
2.91996e-07
-2.20932e-07
-5.88485e-08
2.51298e-07
-1.22936e-07
-3.36924e-07
1.70343e-07
-7.66651e-08
-6.82136e-07
7.15573e-08
-7.42317e-07
1.42313e-08
-1.29561e-07
-2.10989e-06
6.56009e-07
-2.47889e-07
-1.53657e-06
5.72537e-07
-4.14395e-07
-8.84932e-07
8.11285e-07
-4.23416e-07
-6.8974e-07
5.9446e-07
-2.44252e-07
-4.43188e-07
1.87259e-07
-6.866e-08
-1.58245e-07
-4.72132e-08
2.20738e-08
-2.56447e-08
-1.23937e-07
-3.27746e-08
-1.22564e-07
-1.59511e-07
-2.05919e-07
-3.23672e-07
-1.85321e-07
-4.40795e-07
-1.92539e-07
-1.73519e-07
-2.10279e-06
1.66963e-07
-2.23183e-07
-1.5661e-06
7.92247e-08
-3.72263e-07
-1.14467e-06
4.08834e-07
-2.75129e-07
-8.03154e-07
1.62889e-08
-1.92892e-07
-2.10626e-07
-3.14791e-07
-3.26337e-07
2.63664e-07
-2.88464e-07
-6.10646e-07
4.50358e-07
-1.91693e-07
-8.26221e-07
3.3225e-07
-2.39221e-07
-8.38062e-07
9.81613e-08
-4.16194e-07
-5.99345e-08
-5.61063e-07
9.21564e-08
-2.06581e-06
-1.26765e-07
2.77696e-07
-1.40086e-06
-3.49839e-07
1.79135e-07
-9.47322e-07
-9.79742e-08
-1.62959e-07
-4.28359e-07
-3.21479e-08
-6.55667e-07
7.69449e-08
1.98846e-07
-1.12134e-06
1.85536e-07
4.92125e-07
-1.12819e-06
3.79081e-08
4.78831e-07
-8.00198e-07
-7.64365e-08
3.47215e-07
-5.01198e-07
-2.45652e-08
2.51643e-07
-2.34946e-10
2.36487e-07
2.79255e-07
-1.28745e-06
2.58059e-07
9.99406e-07
-1.09541e-06
-3.37744e-08
1.26874e-06
-8.7804e-07
2.59843e-07
1.05445e-06
-5.84847e-07
6.37184e-07
5.77977e-07
-4.14812e-07
7.21816e-07
1.83309e-07
-1.76468e-07
4.21767e-07
4.68564e-08
-1.64801e-08
1.30237e-07
2.50483e-08
-7.47657e-11
9.92028e-09
2.6259e-10
-5.84574e-11
1.40322e-10
-4.32456e-12
2.24787e-11
7.12644e-08
-3.10433e-10
2.10894e-07
2.76787e-07
-4.87238e-10
2.02532e-07
4.33381e-07
-4.38866e-10
1.87611e-07
3.86337e-07
-3.36718e-10
1.82938e-07
1.93897e-07
-5.65367e-10
9.51705e-08
1.68036e-08
3.74357e-10
5.98882e-09
-2.11453e-11
-1.23077e-10
4.78709e-10
-9.55284e-11
6.90791e-13
1.6875e-11
-1.84977e-10
-2.17362e-12
2.57323e-11
-1.61299e-10
1.68369e-10
-1.81934e-11
-2.6862e-10
4.262e-12
-2.54552e-11
-4.39967e-10
-4.4607e-12
-3.03047e-11
-3.68598e-10
-7.46097e-12
-5.78982e-11
-2.00409e-10
-8.71259e-12
-5.96678e-10
-1.93858e-11
-6.25142e-12
-1.25605e-10
-2.68323e-11
2.01257e-11
-1.63539e-10
-6.44182e-12
1.55889e-11
-1.23082e-10
-5.70677e-11
3.33486e-11
-1.69154e-10
-7.42403e-11
1.33709e-10
-1.70875e-10
3.56675e-10
-1.08477e-10
-7.91862e-12
-5.18031e-11
-2.16562e-10
2.68324e-11
-5.47181e-11
-3.45984e-10
1.20624e-10
-1.11981e-10
-9.39088e-11
9.1102e-11
-3.75829e-11
-1.08201e-10
1.27062e-11
-1.50067e-11
-3.19348e-10
8.20077e-13
-5.49541e-12
-9.26164e-10
-2.53649e-10
1.14913e-10
-6.20979e-10
-1.12859e-09
3.62885e-10
-7.32571e-10
2.73552e-11
2.94408e-10
-2.11835e-10
1.4446e-10
-1.45218e-10
1.1759e-10
-5.81832e-11
-1.97536e-10
3.21353e-10
-4.81461e-11
-2.07945e-10
3.84211e-10
-5.63289e-11
-1.0377e-10
1.32899e-10
-2.97232e-11
-1.17522e-10
3.11434e-11
-1.12551e-11
-3.88141e-10
-5.14991e-12
1.27256e-11
-4.60773e-09
-8.67408e-10
6.55605e-10
-4.52206e-09
-2.37169e-09
1.15965e-09
-1.92721e-09
-1.07979e-09
3.13806e-10
-7.30478e-10
-9.75886e-11
-1.31953e-10
4.54028e-11
-2.67936e-12
-1.60809e-10
5.62993e-10
-2.01063e-11
-1.05497e-10
3.28214e-10
-5.82903e-11
-3.22047e-11
4.56914e-11
-4.89382e-12
-6.24265e-11
4.79631e-11
-1.47298e-12
-1.21501e-09
-2.7664e-12
8.23689e-11
-6.99551e-09
-1.0606e-09
9.47925e-10
-8.70618e-09
-2.08781e-09
1.52934e-09
-8.1231e-09
-2.32691e-09
-1.19542e-11
-2.90306e-09
-1.19193e-09
-5.03786e-11
3.44332e-11
1.09155e-11
-1.33623e-10
2.36714e-10
-5.59819e-11
-2.11972e-11
1.67078e-10
-8.48771e-11
-2.53607e-11
3.38625e-11
-6.50023e-13
-3.94542e-11
3.70146e-11
7.89298e-12
-1.3794e-09
8.99508e-12
1.31396e-10
-8.06941e-09
-6.75564e-10
1.01854e-09
-9.9356e-09
-1.33966e-09
1.22672e-09
-1.01726e-08
-1.81447e-09
-1.43387e-10
-2.50993e-09
-1.49807e-09
-1.79881e-11
5.13373e-11
8.58968e-12
-3.72353e-11
1.22155e-10
-8.4667e-11
-7.94102e-12
1.22971e-10
-2.97994e-11
-1.9216e-11
2.75371e-11
2.77213e-12
-3.12886e-11
2.26024e-11
9.84271e-12
-7.11759e-10
1.68151e-11
1.11476e-10
-7.35752e-09
-1.14529e-10
1.04415e-09
-9.09692e-09
-3.52403e-10
8.59084e-10
-9.39674e-09
-1.00233e-09
-3.85194e-10
-1.83697e-09
-1.74408e-09
-6.9257e-12
6.2591e-11
4.25936e-12
-1.21734e-11
9.13005e-11
-1.4243e-11
-4.94524e-12
7.75399e-11
6.36799e-12
-2.28077e-11
2.38128e-11
8.83309e-12
-5.33727e-11
2.31411e-11
1.53949e-11
-3.13121e-10
9.05051e-11
4.02789e-10
-1.85372e-09
4.99095e-11
5.06991e-10
-5.74888e-09
4.74743e-11
2.89508e-10
-7.85534e-09
-8.6517e-11
-8.95477e-10
-4.42885e-10
-1.67023e-09
-6.72155e-12
1.52493e-10
1.44988e-12
-2.06023e-12
6.29263e-11
1.93837e-11
-2.29198e-12
4.288e-11
6.0195e-12
-2.09522e-11
1.93462e-11
1.32676e-11
-1.76494e-10
4.61763e-11
2.88406e-11
-1.50669e-09
1.8549e-10
5.27952e-10
-3.22113e-09
1.82925e-10
6.17931e-10
-2.10094e-09
9.43597e-12
1.16012e-10
-2.49958e-09
-3.28069e-11
-1.92013e-10
-1.06988e-11
-7.45385e-10
-1.59059e-12
-8.26639e-12
2.01654e-10
5.95563e-13
3.91953e-12
6.05788e-11
-4.9304e-13
1.82979e-11
2.30476e-11
-9.8318e-12
5.53081e-12
1.66093e-11
-2.78896e-10
4.05754e-11
1.04231e-10
-1.64742e-09
3.86933e-10
1.17794e-10
-1.25903e-09
3.72829e-10
9.51411e-11
-3.72191e-10
1.11788e-11
-3.14688e-13
-4.58361e-10
-8.365e-11
4.4668e-13
-3.28426e-10
8.65862e-12
-7.82462e-08
7.87676e-08
-4.00533e-08
-4.56966e-08
-5.86558e-08
-6.00213e-08
6.48451e-08
-1.24377e-07
-9.37202e-08
1.06216e-07
-4.54244e-08
-6.7621e-08
9.61116e-08
3.20779e-09
-4.00051e-08
5.96207e-08
2.9351e-08
-3.27306e-08
1.27141e-08
4.11305e-08
-3.75796e-08
-3.43387e-08
4.3364e-08
-5.00439e-08
-7.72999e-08
3.97204e-08
-6.18717e-08
2.02842e-08
-7.72211e-08
-9.89327e-08
2.20659e-07
-1.36381e-07
2.8202e-08
-2.8559e-07
-2.94072e-08
1.41079e-07
-3.38901e-07
-7.31473e-08
1.30073e-07
-4.94639e-08
-1.39044e-07
7.35507e-08
7.26847e-08
-1.14056e-07
1.59131e-08
9.68986e-08
-8.35303e-08
-2.9846e-08
9.51658e-08
-7.55709e-08
-6.93224e-08
9.03977e-08
-7.69942e-08
-9.67553e-08
7.46833e-08
-7.64952e-08
2.53088e-08
-7.54685e-08
1.38423e-07
1.48738e-07
-9.59884e-08
3.85823e-07
-7.415e-07
2.69215e-07
4.34303e-07
-6.58038e-07
2.26774e-07
3.31287e-07
-6.20609e-08
-2.29323e-08
1.97316e-07
2.04116e-07
-1.26465e-07
1.03085e-07
2.08721e-07
-1.01031e-07
3.61402e-08
1.75418e-07
-6.747e-08
-2.71672e-08
1.70169e-07
-5.07293e-08
-9.01422e-08
1.59818e-07
-2.07159e-08
4.63561e-08
2.77732e-08
4.18272e-07
-2.03231e-07
-1.4215e-09
5.93984e-07
-1.13621e-06
5.84603e-07
4.38227e-07
-7.68178e-07
5.30348e-07
2.93678e-07
-5.15335e-08
1.64014e-07
2.05897e-07
2.85373e-07
-6.44512e-08
1.2351e-07
3.20269e-07
-8.15845e-08
8.8511e-09
3.11839e-07
-1.93649e-08
-1.28369e-07
3.4336e-07
5.03715e-08
-2.03486e-07
2.90788e-07
1.56782e-07
-2.0715e-08
2.68929e-07
5.26582e-07
-6.68635e-07
1.79473e-07
4.5362e-07
-1.26152e-06
8.15514e-07
9.56707e-08
-5.72161e-07
6.80821e-07
-9.51453e-09
2.03831e-08
3.26036e-07
-9.4115e-09
3.07414e-07
8.59053e-08
-3.38587e-08
3.61465e-07
8.17044e-08
-9.6994e-08
3.61767e-07
1.76246e-07
-1.26774e-07
3.67548e-07
2.58118e-07
-9.18752e-08
2.38928e-07
3.04241e-07
-1.3399e-07
3.32617e-07
2.79666e-07
-8.71642e-07
4.94634e-07
-2.63234e-08
-1.06178e-06
8.55906e-07
-2.41531e-07
-4.68257e-07
8.07258e-07
-2.71364e-07
1.19865e-08
5.83542e-07
-1.64092e-07
2.00955e-07
3.5697e-07
-3.60444e-08
2.19157e-07
3.06256e-07
1.06375e-07
2.25588e-07
2.45058e-07
2.43634e-07
2.21319e-07
1.79313e-07
2.48065e-07
1.39624e-07
1.6643e-07
-2.68531e-08
1.60699e-07
1.01808e-07
-7.77554e-07
4.60063e-07
-2.07776e-07
-6.94549e-07
5.14076e-07
-2.71197e-07
-4.0011e-07
8.06559e-07
-1.72167e-07
-4.25598e-08
5.49977e-07
2.21818e-09
1.57237e-07
5.65923e-08
1.21846e-07
3.15201e-07
-2.62885e-07
1.94416e-07
3.90092e-07
-3.61012e-07
2.03389e-07
3.44263e-07
-2.91429e-07
1.03139e-07
2.25334e-07
-1.7078e-07
1.31084e-07
-1.29305e-07
1.82568e-07
-5.95501e-07
-1.97659e-07
-1.77078e-07
-2.68622e-07
1.29497e-08
-3.45711e-07
-3.47692e-08
2.12132e-07
-3.52091e-07
2.67289e-07
-2.87179e-07
-3.20558e-07
5.47963e-07
-7.37049e-07
-4.11737e-07
8.48195e-07
-7.30279e-07
-5.26299e-07
8.87631e-07
-5.7467e-07
-5.56216e-07
5.8997e-07
-5.9091e-07
-4.87124e-07
3.30864e-07
-6.84752e-07
1.93263e-07
-7.86492e-07
1.95209e-07
-5.28796e-07
-3.88167e-07
-1.44263e-07
6.36498e-08
-3.42612e-07
-2.23355e-07
2.70122e-07
-3.23749e-07
-2.11977e-07
4.25033e-07
-2.90088e-07
-3.21184e-07
4.28129e-07
1.61653e-07
-5.29831e-07
3.32019e-07
5.8715e-07
-5.44491e-07
9.34836e-08
6.03912e-07
-4.19317e-07
-8.93369e-09
4.86031e-07
-2.91407e-07
-1.36086e-08
4.22046e-07
-5.42976e-11
4.06307e-07
4.97095e-07
-8.54431e-07
8.79254e-07
5.59226e-07
-6.20914e-07
8.32354e-07
5.82963e-07
-4.67803e-07
7.12416e-07
6.43742e-07
-4.06921e-07
8.11988e-07
4.94498e-07
-3.50974e-07
8.36438e-07
2.05311e-07
-5.90176e-08
5.19678e-07
5.40263e-08
-2.50444e-09
1.5249e-07
1.39298e-08
1.05788e-09
1.18964e-08
-1.83492e-11
-1.19178e-10
4.80897e-10
-1.04753e-10
4.10334e-11
9.1354e-08
-8.51257e-11
2.08979e-07
2.43009e-07
-8.40279e-11
2.48445e-07
3.24223e-07
-1.54555e-10
2.15962e-07
2.40918e-07
-1.87735e-10
1.60635e-07
5.74338e-08
-5.30114e-11
2.62577e-08
1.07694e-09
-1.46743e-10
3.60054e-09
-9.58989e-10
-5.57726e-11
1.3599e-10
-1.61654e-10
-4.16722e-11
3.04609e-10
-4.81849e-10
-5.55531e-11
1.05148e-10
-2.83259e-10
3.64317e-10
-4.36932e-12
-5.33991e-11
-2.99772e-12
-1.69425e-11
-3.51243e-11
-1.29027e-11
-3.01549e-11
-6.63959e-11
-4.68596e-11
-3.30157e-11
-1.98299e-11
-1.62519e-10
-6.1908e-11
3.44541e-12
-3.10234e-11
-1.19835e-10
-3.24041e-12
-3.01334e-12
-5.79801e-11
1.24696e-11
7.1651e-12
-1.78062e-10
8.95874e-12
9.05837e-11
-6.88852e-10
-1.428e-10
4.65616e-10
-1.53292e-10
5.37248e-10
-4.78903e-12
-5.14066e-12
-2.8266e-11
-1.90975e-11
-2.77926e-12
-4.87423e-11
-2.36578e-11
-1.52279e-12
-8.78854e-11
-3.09115e-11
1.13424e-11
-5.87091e-11
-2.63998e-11
1.91077e-11
-2.36489e-11
-1.49993e-10
3.50366e-11
-5.8254e-12
-9.44816e-10
-1.15557e-10
1.07239e-10
-1.37462e-09
-1.73553e-10
5.25934e-10
-6.54115e-10
-2.87249e-12
4.66026e-10
-7.19296e-11
3.43262e-11
1.54462e-13
7.72265e-12
-2.62455e-11
-7.70566e-12
2.13934e-11
-4.06102e-11
-1.96448e-11
4.29486e-11
-8.13622e-11
-8.54063e-12
2.98425e-11
-4.18918e-11
-6.00013e-12
3.20511e-11
-1.04868e-11
-5.64744e-10
8.11443e-11
1.46918e-11
-3.19646e-09
-1.29696e-10
4.81501e-10
-1.47273e-09
2.75237e-10
1.67177e-10
-1.30922e-09
1.72788e-10
9.47641e-11
1.23217e-10
-2.69189e-10
2.7271e-12
2.3629e-11
-2.35361e-11
-1.58088e-11
6.00243e-11
-3.67508e-11
-2.18062e-11
5.46265e-10
-1.81308e-10
-1.53105e-12
5.40302e-11
-5.00675e-11
-1.18424e-11
4.09101e-11
1.64933e-13
-1.22154e-09
1.18421e-10
1.22542e-10
-3.75379e-09
1.57867e-10
3.87518e-10
-1.78192e-09
6.88456e-10
4.19631e-11
-1.97403e-09
3.46597e-10
-3.04464e-11
5.81669e-10
-7.66432e-10
1.28797e-11
2.53011e-11
-1.4626e-12
-6.92918e-11
6.00283e-10
-1.19467e-10
-3.78503e-11
1.19179e-09
-2.05511e-10
-3.1353e-11
4.03473e-11
-1.06137e-11
-3.89367e-11
3.99315e-11
8.83545e-12
-1.3197e-09
1.26632e-10
2.33161e-10
-3.86324e-09
4.08711e-10
1.72217e-10
-1.32997e-09
5.93929e-10
3.24013e-11
-2.13344e-09
4.52944e-10
-6.22037e-11
6.88455e-10
-1.14713e-09
1.05753e-11
2.65588e-11
7.16287e-13
-4.24049e-11
1.17982e-09
-1.31319e-10
-1.06254e-10
1.47612e-09
-1.20545e-11
-4.77865e-11
6.34533e-10
2.75373e-11
-5.96984e-11
4.41401e-11
1.74197e-11
-9.201e-10
1.92505e-10
3.58151e-10
-2.06684e-09
3.7946e-10
2.26727e-10
-1.88924e-09
3.94263e-10
-2.0203e-11
-3.62756e-09
8.33451e-10
-8.44951e-11
5.97176e-10
-4.61616e-10
8.59355e-12
3.4494e-11
-4.29528e-12
4.21667e-11
1.38203e-09
-1.17971e-11
-1.07673e-10
1.7599e-09
1.10664e-10
-8.61316e-11
8.2509e-10
1.64723e-10
-1.81236e-10
6.96706e-11
4.46604e-11
-9.54837e-10
4.34569e-10
7.56894e-10
-8.01613e-10
3.85319e-10
2.56671e-10
-9.89885e-10
9.21072e-11
-9.44989e-12
-2.13821e-09
6.11564e-10
-3.90628e-11
4.1531e-10
-8.05908e-11
1.96586e-11
1.59234e-10
-1.81249e-11
1.18323e-10
3.52419e-10
-1.30534e-11
1.43369e-12
1.83801e-09
2.83032e-10
-1.62232e-11
2.97825e-10
2.22898e-10
-3.82438e-10
1.3206e-10
1.09909e-10
-1.42841e-09
3.87431e-10
3.24292e-10
-4.5064e-10
3.06849e-10
7.18887e-11
-2.99764e-10
4.66289e-11
1.47169e-13
-1.72401e-09
4.29248e-10
-1.6295e-11
7.05086e-10
-8.17637e-12
1.02109e-11
-2.2145e-11
2.02206e-10
3.74982e-11
-5.69198e-13
-1.74499e-12
4.04272e-11
2.02408e-10
1.21354e-10
5.8295e-12
7.8751e-11
3.00951e-11
-3.36707e-10
1.60362e-10
1.5736e-10
-6.99768e-10
1.14282e-10
1.0765e-10
-1.34783e-10
9.27038e-12
8.24041e-11
5.08864e-11
-6.34566e-12
5.06977e-11
-5.4371e-10
-1.20244e-11
2.15352e-10
-1.71024e-11
3.91283e-10
-1.03358e-07
6.64668e-08
-3.16242e-09
-7.70297e-08
-1.4909e-07
6.27412e-08
5.46105e-08
-2.70648e-07
4.52877e-08
9.35387e-08
-1.21457e-07
1.49077e-08
7.10359e-08
-1.994e-08
2.43768e-09
2.81443e-08
2.01719e-08
-1.00106e-08
-1.74559e-08
3.01943e-08
-2.21735e-08
-6.12898e-08
2.6699e-08
-3.29093e-08
-9.91685e-08
1.3238e-08
-3.72314e-08
-1.9507e-08
-4.27037e-08
-1.58355e-07
1.99528e-07
-1.11087e-07
-1.72989e-08
-4.36278e-07
1.16724e-07
1.76939e-07
-6.75621e-07
1.37588e-07
1.569e-07
-2.4953e-07
9.06763e-09
6.60017e-08
3.05899e-09
-4.61565e-08
-4.60439e-09
6.92814e-08
-6.20335e-08
-5.62837e-08
7.34517e-08
-6.71491e-08
-8.96401e-08
5.30072e-08
-6.99461e-08
-1.08128e-07
1.72389e-08
-6.20079e-08
-3.9278e-08
-5.45863e-08
-2.41947e-08
2.53308e-07
-1.25573e-07
2.99894e-07
-8.38287e-07
3.47136e-07
5.14967e-07
-1.08508e-06
4.21156e-07
4.41132e-07
-3.70488e-07
1.71861e-07
2.42288e-07
8.30415e-08
-7.60307e-09
9.65025e-08
1.70837e-07
-5.68009e-08
1.41599e-08
1.51816e-07
-6.34912e-08
-4.26332e-08
1.26852e-07
-6.77808e-08
-9.24925e-08
1.06263e-07
-5.98816e-08
4.51162e-08
-4.4245e-08
2.05406e-07
1.64844e-07
-1.18363e-07
5.14112e-07
-1.03326e-06
4.70867e-07
5.84986e-07
-1.16352e-06
5.37918e-07
5.12223e-07
-3.73433e-07
2.39723e-07
3.43177e-07
1.60849e-07
2.67872e-08
1.74179e-07
3.04257e-07
-4.60062e-08
4.07168e-08
3.11136e-07
-4.52238e-08
-7.81166e-08
3.20146e-07
-2.40898e-08
-1.53512e-07
3.3536e-07
3.0822e-09
2.56356e-07
2.34464e-08
3.55546e-07
1.17106e-07
-1.28336e-07
4.94086e-07
-7.56392e-07
4.01508e-07
3.57622e-07
-8.12503e-07
4.66981e-07
3.01839e-07
-1.82489e-07
1.90892e-07
2.31071e-07
2.48768e-07
6.87548e-08
1.5846e-07
3.92815e-07
6.57576e-08
6.58383e-08
4.74918e-07
1.05086e-07
-7.39783e-08
6.18471e-07
9.961e-08
-1.85707e-07
7.00964e-07
5.03657e-08
5.43675e-07
2.41927e-08
3.91086e-07
2.25218e-07
-4.56441e-09
3.67256e-07
-2.76171e-07
4.01004e-07
1.6394e-07
-2.90614e-07
4.88389e-07
1.58727e-07
1.12752e-07
2.93561e-07
1.97253e-07
3.50989e-07
2.16224e-07
2.25756e-07
5.26965e-07
1.43604e-07
1.68746e-07
7.3058e-07
4.64057e-08
4.9852e-08
9.3628e-07
-1.96002e-08
-5.99819e-08
1.04386e-06
-6.66313e-08
9.17937e-07
-1.31805e-07
4.42033e-07
1.93408e-07
4.98449e-08
2.14896e-07
9.98852e-08
3.65202e-07
3.01179e-08
2.25158e-07
4.75411e-07
1.35878e-07
4.15401e-07
1.41567e-07
1.79415e-07
6.1067e-07
-2.46627e-07
8.70967e-08
9.26891e-07
-5.70493e-07
-4.94683e-08
1.18442e-06
-6.78285e-07
-1.19029e-07
1.29294e-06
-5.78528e-07
-1.30127e-07
1.3124e-06
-4.28221e-07
1.23217e-06
-3.98493e-07
2.50789e-07
1.20264e-07
-3.75306e-07
-8.16366e-08
3.91838e-07
5.34213e-08
-3.65051e-07
7.8022e-07
-5.95097e-08
-5.68547e-07
1.0656e-06
-7.33883e-07
-7.59883e-07
1.20163e-06
-1.13668e-06
-9.37435e-07
1.20154e-06
-1.05338e-06
-9.70497e-07
1.06933e-06
-8.56336e-07
-8.61158e-07
8.20284e-07
-8.22396e-07
-6.70382e-07
5.95313e-07
-8.39147e-07
4.82528e-07
-8.78024e-07
-1.85352e-07
1.58952e-07
-2.65753e-07
-3.90495e-07
3.17615e-07
-1.32046e-07
-4.14728e-07
5.36746e-07
-3.02624e-07
-3.81631e-07
5.1129e-07
-2.36757e-07
-3.54439e-07
3.26645e-07
1.66172e-07
-3.23237e-07
1.29316e-07
4.11973e-07
-2.61758e-07
1.10112e-08
3.93669e-07
-2.02104e-07
-1.27278e-08
3.48185e-07
-1.54586e-07
-3.27198e-10
3.41678e-07
-1.63866e-10
3.28929e-07
3.49351e-07
-4.49683e-07
1.05506e-06
3.65865e-07
-4.03277e-07
9.12154e-07
3.26019e-07
-2.30573e-07
5.62114e-07
2.76001e-07
-2.06032e-07
5.09742e-07
2.20013e-07
-5.1933e-08
3.8266e-07
1.20372e-07
-6.66045e-09
1.93545e-07
1.30517e-08
2.37339e-09
2.96119e-08
-2.4353e-11
5.6336e-10
1.10227e-08
-9.50904e-11
-2.87918e-11
1.38074e-10
-2.59695e-10
9.49585e-11
5.30013e-08
-5.583e-11
1.0979e-07
8.20732e-08
-1.75707e-10
1.65089e-07
8.09707e-08
-5.13817e-10
8.94275e-08
2.64245e-08
9.3828e-12
1.02869e-08
1.10638e-09
-4.77248e-10
6.36595e-10
-2.22029e-09
-9.06124e-12
2.91204e-10
-6.98682e-10
8.30962e-11
1.08838e-09
-1.66703e-10
-9.91981e-12
2.61721e-10
-3.4497e-10
-1.39741e-10
1.0804e-10
-2.66379e-10
1.54189e-10
-9.11958e-12
-2.72085e-11
-8.88131e-12
-4.58456e-11
-2.24481e-11
-1.09338e-10
-1.3733e-10
-2.40496e-11
-3.94852e-10
-4.34624e-11
-1.51312e-12
-1.90474e-10
-3.89144e-11
-6.9254e-12
-6.89062e-11
-1.39262e-10
2.13156e-11
-5.10998e-11
-8.47917e-11
-6.93615e-12
3.86364e-11
-6.93122e-10
4.03256e-11
2.11064e-10
-9.67407e-10
-3.36047e-11
7.27983e-10
-4.4757e-11
4.57007e-10
-4.50244e-12
-5.51694e-12
-3.28735e-11
-1.89341e-11
-2.519e-12
-4.06214e-11
-1.49124e-11
-4.67514e-13
-8.7349e-11
-9.9644e-12
-4.57609e-13
-4.45926e-11
-8.27987e-12
5.65197e-12
-1.35315e-11
-2.46986e-11
1.74006e-11
-9.15881e-12
-1.1607e-10
4.92881e-11
9.22483e-12
-7.30671e-10
3.97216e-10
1.70583e-10
-1.03514e-09
3.69151e-10
5.52526e-10
2.29773e-10
-6.26182e-11
3.77836e-12
-2.55319e-12
-2.59952e-11
2.72454e-12
7.24124e-13
-3.45007e-11
-5.44481e-12
-3.50996e-11
-1.8953e-10
-1.4948e-11
3.37016e-11
-5.71827e-11
4.57449e-13
8.03822e-12
-2.64297e-12
-2.24329e-11
2.60681e-11
2.92832e-12
-3.74823e-10
3.38608e-10
3.3463e-11
-8.37018e-10
7.85905e-10
-5.82762e-11
-5.95449e-10
2.32095e-10
1.53464e-10
4.43245e-10
-2.89836e-10
8.35198e-12
-1.01988e-12
-2.58171e-11
5.70888e-12
1.13641e-11
-4.00465e-11
2.66896e-11
6.18376e-11
-1.78687e-10
-1.01186e-11
7.88776e-11
-3.60294e-11
-1.00018e-11
8.66713e-12
8.04056e-13
-1.17356e-10
7.81616e-11
1.22449e-11
-4.91328e-10
6.4237e-10
8.17318e-11
-6.5426e-10
9.11381e-10
1.32425e-11
1.35944e-11
2.57511e-10
1.60329e-11
6.56015e-10
-5.66838e-10
1.34916e-11
3.84742e-12
-6.74315e-12
7.42954e-11
6.17146e-11
-1.57174e-10
3.38192e-11
7.46281e-11
-9.88017e-12
-5.55665e-12
1.06506e-10
-7.23387e-12
-6.28052e-12
1.51184e-11
3.12843e-12
-2.82674e-10
1.60199e-10
4.54587e-11
-7.64212e-10
9.07597e-10
1.01804e-10
-3.7297e-10
8.69141e-10
3.85988e-11
-2.90062e-10
1.38075e-10
-2.71898e-11
4.10623e-10
-6.30699e-10
7.72793e-12
1.88634e-11
-6.22619e-12
5.30143e-11
2.31384e-11
-4.46888e-12
3.95879e-11
7.10759e-11
-2.19121e-12
-4.97312e-13
1.51126e-10
1.13517e-11
1.39109e-11
2.44907e-11
9.33424e-12
-3.11157e-10
3.42121e-10
2.44972e-10
-8.81178e-10
4.66297e-10
1.49121e-10
-8.78056e-11
1.76397e-10
3.94455e-11
-6.04331e-11
4.98812e-11
-2.33381e-11
7.49414e-11
-1.39043e-10
7.75865e-12
3.54246e-11
-7.5924e-12
1.30807e-11
8.22678e-12
-5.07314e-12
4.5206e-11
9.37758e-11
-1.33198e-12
2.21331e-13
2.01412e-10
2.45084e-11
-9.70004e-11
6.28381e-11
5.46527e-11
-4.05473e-10
2.50108e-10
7.46064e-10
-1.53215e-10
2.4503e-11
3.81333e-10
-1.05184e-11
1.87415e-11
5.83796e-12
-9.64256e-12
2.18894e-11
-1.00891e-11
2.25653e-11
-3.07491e-11
6.46049e-12
2.26248e-11
-8.38196e-12
4.74374e-12
5.09082e-12
-7.26394e-12
2.57862e-11
1.4391e-10
2.21761e-12
3.4305e-12
1.90461e-10
5.6084e-12
-1.49989e-10
8.77697e-11
1.86038e-10
-1.14515e-10
9.50444e-11
2.81028e-10
-1.70486e-11
1.83617e-11
2.31439e-11
-3.58939e-12
1.08648e-11
-3.47955e-12
-1.48567e-12
1.52735e-11
-9.1348e-12
1.49802e-11
-2.20862e-11
1.22264e-12
-8.44326e-12
1.02855e-11
1.39782e-12
-1.38079e-12
6.16815e-12
-3.11216e-12
-8.68193e-12
5.32568e-11
-2.72851e-11
6.26312e-11
6.53948e-11
-6.51703e-11
1.09531e-10
2.02174e-10
-1.97086e-11
3.22473e-11
2.71907e-11
-4.11027e-12
1.75694e-12
1.24238e-11
2.52383e-13
-7.18643e-12
9.14898e-12
3.03402e-12
-9.82451e-12
1.27055e-11
-1.73511e-11
1.33378e-11
-6.49647e-08
5.89684e-08
2.8339e-09
-5.36481e-08
-5.79312e-08
1.09356e-07
2.32141e-08
-1.20964e-07
8.93896e-08
4.66396e-08
-5.08058e-08
4.22878e-08
2.93669e-08
6.4477e-09
1.3263e-08
-7.31663e-09
3.48511e-08
-8.17798e-09
-4.78172e-08
4.25106e-08
-2.41837e-08
-8.30911e-08
3.75733e-08
-3.52092e-08
-1.13569e-07
2.47337e-08
-3.14867e-08
3.73607e-09
-3.17541e-08
-1.36475e-07
1.826e-07
-9.82445e-08
-1.10957e-07
-8.8409e-08
1.21683e-07
2.28092e-08
-2.5479e-07
1.37647e-07
3.91184e-08
-8.7311e-08
2.92637e-08
7.11014e-10
3.25876e-08
-3.38887e-08
-4.80414e-08
8.23171e-08
-6.0747e-08
-8.63712e-08
8.43931e-08
-7.07017e-08
-1.0375e-07
5.68487e-08
-7.18425e-08
-1.12357e-07
2.39873e-08
-5.26543e-08
-9.49067e-09
-3.38585e-08
-1.20828e-07
2.84529e-07
-1.06674e-07
2.52723e-08
-1.59007e-07
2.71634e-07
2.23858e-07
-3.94266e-07
3.62047e-07
2.16526e-07
-8.73121e-08
1.79194e-07
1.16886e-07
1.04187e-07
2.04377e-08
1.78857e-08
1.67589e-07
-4.30722e-08
-5.1878e-08
1.6287e-07
-7.22046e-08
-9.64886e-08
1.24309e-07
-9.06306e-08
-1.24024e-07
9.62103e-08
-1.04569e-07
6.92763e-08
-1.22234e-07
1.27732e-08
3.06661e-07
-1.53268e-07
2.2336e-07
-1.61989e-07
2.63262e-07
3.91776e-07
-4.24192e-07
3.99429e-07
3.73353e-07
-5.84826e-08
2.29316e-07
2.4699e-07
1.9795e-07
5.93873e-08
9.75124e-08
3.03173e-07
-3.21125e-08
-3.27874e-08
3.20204e-07
-7.22582e-08
-1.35289e-07
2.95436e-07
-9.27155e-08
-1.87638e-07
2.99897e-07
-1.48254e-07
2.91716e-07
-2.48639e-07
1.98073e-07
3.15776e-07
-3.35524e-07
3.73572e-07
2.67197e-09
6.13483e-08
4.14966e-07
-2.03093e-07
2.04535e-07
3.80403e-07
7.60353e-08
9.09384e-08
3.23576e-07
2.80622e-07
4.2911e-08
2.26451e-07
4.37522e-07
2.85339e-08
6.09647e-08
6.05471e-07
-1.4695e-08
-1.53276e-07
6.9356e-07
-8.42732e-08
-2.82554e-07
7.02633e-07
-2.23093e-07
6.47511e-07
-4.188e-07
2.94277e-07
3.36425e-07
-3.19491e-07
3.76136e-07
2.29619e-07
9.22003e-08
3.33707e-07
1.56701e-07
1.71394e-07
3.45639e-07
3.14274e-07
4.34032e-08
3.73832e-07
4.87295e-07
-1.86429e-08
3.06945e-07
7.84216e-07
-1.36204e-07
1.36453e-07
1.06695e-06
-2.4458e-07
-8.61905e-08
1.22415e-06
-3.27544e-07
-2.27903e-07
1.23931e-06
-4.61594e-07
1.14748e-06
-6.91327e-07
2.55065e-07
3.31098e-07
-1.99893e-07
1.05373e-07
4.99427e-07
2.45092e-07
1.96323e-08
5.86575e-07
1.31298e-07
5.11849e-08
6.80905e-07
-2.56617e-07
1.22798e-08
9.47453e-07
-6.67879e-07
-1.71463e-07
1.38622e-06
-9.8875e-07
-3.47538e-07
1.67736e-06
-1.11262e-06
-4.17273e-07
1.80438e-06
-1.08903e-06
-3.68648e-07
1.81257e-06
-1.0501e-06
1.71169e-06
-1.0705e-06
-1.1309e-07
4.45779e-07
-3.76897e-07
-4.00017e-07
8.79523e-07
-3.9756e-08
-6.95651e-07
1.30768e-06
-4.84981e-07
-1.01982e-06
1.4465e-06
-1.17531e-06
-1.20772e-06
1.18071e-06
-1.44676e-06
-1.21383e-06
9.48695e-07
-1.15289e-06
-1.1152e-06
7.5109e-07
-9.60855e-07
-9.58198e-07
5.29177e-07
-9.08051e-07
-7.42809e-07
3.40536e-07
-9.2496e-07
2.34684e-07
-9.43841e-07
-4.06196e-07
3.4886e-07
5.96645e-08
-4.17021e-07
3.3688e-07
5.36016e-08
-4.33161e-07
3.8405e-07
-1.81736e-07
-4.19627e-07
2.00708e-07
-1.0832e-07
-2.95148e-07
2.85445e-08
1.06223e-07
-1.73155e-07
-1.61444e-08
2.13462e-07
-9.87562e-08
-2.03374e-08
2.37429e-07
-7.73454e-08
-1.0043e-08
2.11833e-07
-6.256e-08
-1.22802e-09
1.32751e-07
8.73586e-10
1.17593e-07
2.56182e-07
-2.47995e-07
8.24988e-07
2.20715e-07
-1.46347e-07
5.25683e-07
1.24745e-07
-8.6634e-08
2.51149e-07
7.56867e-08
-1.8113e-08
7.77775e-08
4.69604e-08
-3.50173e-09
4.84718e-08
8.95785e-09
3.46094e-10
3.62574e-08
-6.39512e-11
-9.6905e-10
5.65199e-09
-1.41608e-10
2.67892e-11
7.62456e-10
-1.74641e-09
6.53925e-11
1.95717e-10
-3.17386e-10
1.21706e-09
8.48408e-09
-7.76535e-11
4.8218e-08
7.01057e-09
-3.07591e-10
2.24408e-08
3.71491e-09
-6.74729e-10
7.3772e-09
1.29862e-10
-5.70995e-10
3.13248e-10
-6.19744e-10
-2.7135e-10
2.18169e-10
-6.71695e-10
5.36113e-11
1.06037e-09
-2.51566e-10
1.65116e-11
1.4983e-10
-2.03808e-10
3.45979e-11
1.05018e-10
-3.82068e-10
4.20758e-11
1.02974e-10
-3.28407e-12
1.68946e-10
-5.41246e-11
-3.36017e-12
-1.36791e-11
-2.0899e-10
-1.68871e-11
-1.45412e-10
-1.27952e-10
-9.77366e-12
-1.33032e-09
-3.4939e-11
-7.71079e-12
-8.27955e-10
-4.43673e-11
-3.54018e-12
-1.93766e-10
-2.39688e-11
1.76413e-11
-8.36212e-12
-3.16683e-11
2.08153e-11
1.97756e-11
-8.11504e-10
1.0647e-10
2.26755e-10
-8.67572e-10
2.3101e-10
7.47556e-10
2.69463e-10
3.72042e-10
-6.97973e-12
1.44888e-12
-2.2662e-11
-2.33502e-11
3.06753e-12
-3.35274e-11
-3.90176e-12
-4.96484e-11
-1.13886e-10
1.34861e-12
8.12389e-12
-8.11889e-11
2.99591e-13
2.97824e-12
-1.30977e-11
-5.97109e-13
1.23029e-11
-1.19475e-12
-6.69679e-12
2.15615e-11
7.42869e-12
-4.87402e-10
1.22382e-10
4.5227e-11
-7.40794e-10
6.47108e-10
6.10342e-10
5.44693e-10
-1.55358e-11
2.86799e-12
-9.65517e-13
-1.98807e-11
1.72125e-11
-3.45174e-11
-5.43643e-11
5.23198e-11
-9.48586e-11
-1.94435e-10
5.61614e-12
3.14358e-11
-1.38552e-10
-3.24964e-13
6.87683e-12
-1.8746e-12
-6.93873e-13
1.04228e-11
4.19955e-12
6.02492e-13
3.81837e-11
1.27858e-11
-7.18209e-11
8.23422e-11
1.21759e-11
8.28965e-11
2.37032e-10
1.06217e-10
8.30635e-10
-3.13469e-10
1.1855e-11
-1.16946e-11
-4.0289e-11
5.23405e-11
-8.05851e-11
-1.64325e-10
1.85856e-11
-1.00277e-12
-2.36464e-10
-4.39551e-12
1.07134e-11
-6.27968e-11
-3.47046e-12
7.99966e-12
4.32213e-13
-4.46196e-12
1.65062e-11
7.32065e-12
3.54607e-12
8.24457e-11
2.52381e-11
-9.98128e-12
9.00584e-11
1.35961e-11
-6.21852e-11
1.66493e-10
4.62453e-11
5.75035e-10
-6.20215e-10
1.66849e-13
-1.22635e-11
-8.05573e-11
6.00644e-12
-1.48056e-12
-1.02678e-10
-1.45114e-12
1.97602e-12
-5.64546e-12
-2.58491e-12
4.65704e-12
-3.58475e-12
-3.29656e-12
1.02841e-11
1.78071e-12
-4.6956e-12
5.17215e-11
1.16624e-11
6.1859e-12
4.21217e-10
3.55512e-11
-1.02874e-11
1.50253e-10
1.62394e-11
-2.75528e-10
1.61451e-10
2.81762e-11
2.37916e-13
-3.86428e-10
-1.8165e-13
2.62007e-12
-2.964e-11
-2.67817e-13
1.08389e-13
-6.22801e-12
-1.67989e-12
3.62664e-12
-2.66597e-12
-9.86238e-13
1.16913e-11
9.78954e-13
-5.59399e-12
1.84946e-11
6.3758e-12
-1.50156e-11
3.61093e-10
1.10425e-10
-9.45427e-12
7.30157e-10
1.19196e-10
-1.96282e-11
2.3023e-10
8.80739e-12
-2.13992e-11
3.09004e-11
-3.58185e-12
4.0906e-11
-4.75926e-11
-6.11207e-13
4.0775e-12
-6.18066e-12
-9.69465e-13
1.41259e-12
-6.26084e-12
-2.76958e-12
4.51983e-12
-6.6913e-13
-3.53216e-12
3.07344e-11
6.02509e-12
-7.8168e-11
1.40866e-10
5.65623e-11
-8.26287e-11
3.43824e-10
4.89755e-10
-4.88071e-11
2.91132e-10
4.01526e-10
-8.2988e-13
1.15e-10
2.85249e-11
7.0244e-13
2.27937e-11
-5.11635e-12
2.12509e-11
-2.61355e-11
-1.64716e-12
3.41111e-12
-6.85485e-12
-1.04437e-12
3.87118e-12
-9.73035e-12
-6.82297e-12
8.98396e-12
3.32927e-12
-1.86651e-11
1.41876e-10
7.43475e-11
-1.21266e-10
2.43786e-10
6.06598e-10
-7.23771e-11
6.36047e-11
3.51382e-10
-4.67894e-12
1.62545e-11
7.02656e-11
3.79486e-12
1.77542e-11
-5.5211e-12
5.61614e-12
1.89361e-11
-5.24629e-12
2.27312e-11
-4.08864e-11
-2.63191e-12
-1.12106e-11
6.53476e-12
-5.13995e-12
-4.55604e-12
1.04912e-11
-9.3941e-12
6.05127e-11
3.14858e-11
-1.94108e-10
3.83739e-10
1.41008e-10
-6.26685e-11
3.49036e-10
2.3237e-10
-8.73862e-12
4.43458e-11
3.73807e-11
1.34801e-12
-6.01273e-12
1.37209e-11
6.27082e-12
-7.96862e-12
1.51422e-11
1.11054e-11
-1.01848e-11
1.71101e-11
-2.85646e-11
2.01036e-11
-4.50263e-08
5.70229e-08
-9.1627e-09
-3.39993e-08
-9.07102e-09
1.074e-07
7.40068e-09
-2.85302e-08
7.65197e-08
1.55969e-08
-7.09073e-10
3.48006e-08
-1.5667e-09
2.63838e-08
4.0429e-09
-3.50815e-08
4.40976e-08
-1.87609e-08
-7.07476e-08
4.94676e-08
-3.79855e-08
-9.8756e-08
4.62148e-08
-5.34156e-08
-1.26765e-07
4.86511e-08