/*--------------------------------*- C++ -*----------------------------------*\
| =========                 |                                                 |
| \\      /  F ield         | OpenFOAM: The Open Source CFD Toolbox           |
|  \\    /   O peration     | Version:  2312                                  |
|   \\  /    A nd           | Website:  www.openfoam.com                      |
|    \\/     M anipulation  |                                                 |
\*---------------------------------------------------------------------------*/
FoamFile
{
    version     2.0;
    format      ascii;
    arch        "LSB;label=32;scalar=64";
    class       volScalarField;
    location    "0.925";
    object      p_rgh;
}
// * * * * * * * * * * * * * * * * * * * * * * * * * * * * * * * * * * * * * //

dimensions      [1 -1 -2 0 0 0 0];

internalField   nonuniform List<scalar> 
8000
(
395.002
395.45
395.637
395.619
395.476
395.272
395.062
394.924
394.894
395.003
394.72
395.195
395.368
395.314
395.136
394.911
394.658
394.427
394.48
394.883
394.136
394.638
394.765
394.618
394.34
394.022
393.559
393.386
394.037
394.952
393.138
393.743
393.797
393.41
392.887
392.444
391.976
392.382
394.609
395.821
391.433
391.967
391.96
391.2
390.256
389.795
389.664
390.932
395.159
396.194
389.369
390.474
389.928
388.204
386.16
385.407
386.85
391.727
391.357
397.918
371.789
376.019
375.814
372.152
367.18
359.947
362.219
367.333
376.569
396.892
252.506
268.67
266.852
247.25
202.124
144.845
141.334
196.016
281.297
360.218
35.7485
32.2387
25.154
10.7274
1.53823
1.24037
3.29379
15.8659
86.9823
209.108
0.218994
0.257668
0.223984
0.17081
0.200597
0.351825
0.834564
1.60787
2.64516
16.1719
0.145657
0.190058
0.183131
0.147858
0.136078
0.148404
0.258645
0.351339
0.542527
1.1489
0.141043
0.19734
0.20778
0.164122
0.160296
0.142585
0.149696
0.166974
0.214318
0.762868
0.251465
0.255207
0.261926
0.265958
0.177732
0.185788
0.166535
0.179819
0.321152
0.297146
0.245201
0.238456
0.177009
0.164743
0.240905
0.281692
0.277539
0.263879
0.264341
0.12153
0.177303
0.0967338
0.108913
0.119997
0.129428
0.167377
0.242351
0.225867
0.187953
0.125585
0.0767122
0.0877728
0.167136
0.244378
0.172184
0.114161
0.12975
0.173974
0.164477
0.143394
0.0652497
0.156592
0.308374
0.345177
0.246947
0.105342
0.109006
0.120999
0.13889
0.146195
0.0651043
0.259556
0.322378
0.346297
0.161604
0.147924
0.136505
0.113577
0.113104
0.130942
0.0471221
0.19602
0.294822
0.187738
0.169274
0.216077
0.196604
0.130996
0.0894243
0.104766
0.0536993
0.0150953
0.0406075
0.069505
0.258262
0.474224
0.390471
0.213134
0.0895838
0.0841223
395.503
395.922
396.069
396
395.798
395.517
395.217
395.073
394.989
395.041
395.28
395.735
395.859
395.74
395.483
395.155
394.792
394.671
394.414
394.597
394.854
395.321
395.393
395.167
394.78
394.253
393.417
393.169
393.181
393.851
394.264
394.801
394.723
394.215
393.472
392.582
390.559
391.354
392.967
393.734
393.066
393.641
393.394
392.485
391.205
389.87
387.966
390.384
390.873
393.806
391.706
392.618
391.993
390.278
387.936
386.33
386.581
390.671
390.502
398.776
389.352
390.532
389.147
385.984
379.617
374.235
372.651
373.064
370.837
376.703
311.258
324.756
306.933
259.649
203.776
156.547
135.18
160.48
168.802
165.715
23.1182
19.9004
12.7936
7.98007
4.02334
1.02262
1.34419
2.5314
4.63116
10.1708
0.153483
0.149981
0.135592
0.114519
0.130346
0.225968
0.332717
0.420081
0.586259
1.06026
0.102719
0.103866
0.108728
0.107474
0.148104
0.182831
0.181517
0.139463
0.210138
0.660029
0.105507
0.12148
0.180114
0.20686
0.192511
0.143191
0.163537
0.0533883
0.102213
0.811194
0.107637
0.192157
0.234138
0.243077
0.163057
0.119436
0.133034
0.153907
0.169054
0.532215
0.131832
0.213348
0.222166
0.170393
0.117471
0.150401
0.171945
0.180195
0.248252
0.0923106
0.153145
0.199916
0.115869
0.0959065
0.102707
0.115629
0.121143
0.157997
0.169323
0.083664
0.139018
0.088194
0.110232
0.149397
0.173823
0.0749978
0.0648279
0.13722
0.152543
0.11784
0.0612319
0.0633393
0.178772
0.348172
0.206024
0.0530613
0.0398242
0.0570942
0.120085
0.126545
0.0266091
0.0268219
0.233461
0.395327
0.157143
0.0968143
0.0981625
0.0814192
0.0882027
0.115067
0.0137131
0.0415812
0.0552117
0.0515446
0.0740265
0.262653
0.444686
0.19449
0.074297
0.0885981
0.064905
0.0538807
0.0529035
0.00128166
0.0291271
0.26896
0.567395
0.552526
0.0416192
0.0574811
396.477
396.838
396.909
396.755
396.476
396.049
395.713
395.667
395.424
395.406
396.386
396.768
396.808
396.584
396.221
395.773
395.444
395.44
395.088
394.996
396.232
396.619
396.557
396.219
395.707
394.987
394.414
394.553
393.877
394.01
396.12
396.553
396.355
395.671
394.758
393.44
391.905
392.403
391.925
393.109
395.851
396.252
395.719
394.518
393.007
391.229
389.353
390.504
391.041
392
395.66
396.214
395.25
393.233
390.939
388.737
388.079
388.485
392.179
391.307
395.743
396.303
394.164
390.422
386.27
381.245
378.154
372.835
371.762
359.489
363.447
370.33
352.081
310.866
256.964
198.883
165.48
166.287
121.119
84.7539
66.0688
62.3817
41.0345
20.7118
9.63094
2.06631
0.838778
1.18847
0.54659
0.923283
0.0545032
0.0749786
0.101375
0.115088
0.129264
0.21329
0.284044
0.279375
0.306564
1.056
0.0604417
0.0660051
0.0777482
0.0949049
0.177226
0.243503
0.260501
0.18442
0.233179
0.729251
0.0788678
0.0816321
0.0918654
0.144032
0.223395
0.222075
0.208939
0.117396
0.161855
0.463084
0.0609167
0.0634453
0.108464
0.186537
0.217976
0.187003
0.115327
0.0964252
0.0950331
0.207642
0.0471305
0.0610775
0.132849
0.19631
0.0966632
0.105497
0.0857501
0.106507
0.0879616
0.162605
0.0412824
0.0844507
0.173444
0.140408
0.0954361
0.101228
0.082449
0.118369
0.0771156
0.0846049
0.0407722
0.122594
0.150993
0.0804512
0.0889174
0.0841963
0.0696674
0.104261
0.115915
0.114052
0.0531714
0.108047
0.12703
0.242466
0.250545
0.0762564
0.0762059
0.0918476
0.12808
0.132742
0.0467369
0.0209269
0.0853762
0.382203
0.41797
0.373845
0.181243
0.158941
0.135709
0.137237
-0.000354986
-0.0300689
-0.0162704
0.0124934
-0.000420437
0.147072
0.566352
0.538161
0.117076
0.114628
-0.0349751
-0.059799
-0.0742598
-0.0797158
-0.0596326
-0.0129235
0.518628
0.555463
0.0532654
0.0701942
397.798
398.085
398.066
397.803
397.39
396.886
396.442
396.259
396.006
395.981
397.873
398.17
398.101
397.755
397.245
396.661
396.132
396.08
395.704
395.7
398.091
398.378
398.19
397.65
396.953
396.09
395.514
395.408
394.755
394.947
398.552
398.821
398.437
397.558
396.404
394.978
393.723
393.361
392.492
393.905
399.287
399.487
398.655
397.08
395.224
393.266
391.44
390.893
390.576
392.508
400.632
400.791
399.387
396.911
394.003
391.254
389.717
389.829
389.129
389.645
403.283
403.268
400.618
396.075
391.29
387.59
383.154
378.138
374.336
370.484
401.225
400.439
387.044
350.772
300.745
258.168
222.019
195.593
127.057
109.9
178.805
172.301
129.138
72.7591
29.6702
6.83099
1.252
0.664992
0.253648
0.262975
0.0691609
0.0813442
0.105884
0.157013
0.171963
0.169007
0.196494
0.209243
0.246993
0.307927
0.0562039
0.0715339
0.0833772
0.0939552
0.117698
0.133764
0.152895
0.163048
0.296572
0.57375
0.0514268
0.0638473
0.0736962
0.0808483
0.106876
0.128815
0.115744
0.135901
0.214647
0.202428
0.0485403
0.0544691
0.0634566
0.0756802
0.174322
0.163223
0.12273
0.124201
0.105678
0.131405
0.0445075
0.0520828
0.0653709
0.158421
0.130526
0.102179
0.110891
0.325104
0.519649
0.517542
0.0453873
0.0564415
0.11597
0.15137
0.0835634
0.100453
0.105021
0.160011
0.266016
0.543711
0.0447888
0.0785514
0.152146
0.0814006
0.0938187
0.112569
0.118609
0.120471
0.122806
0.362855
0.0436726
0.136964
0.15199
0.110455
0.201341
0.22073
0.166682
0.175014
0.175836
0.293801
0.0508538
0.113211
0.0454379
0.118789
0.430791
0.487001
0.573475
0.378299
0.212742
0.22143
0.0177044
0.0276672
-0.0464932
-0.0244773
-0.010631
0.0578411
0.538197
0.603414
0.122477
0.110637
-0.0227798
-0.0510353
-0.0831586
-0.110727
-0.0895137
-0.0502328
0.389607
0.499908
0.311664
0.0429752
399.31
399.53
399.416
399.042
398.512
397.852
397.305
396.972
396.716
396.649
399.517
399.773
399.601
399.123
398.458
397.726
397.085
396.75
396.441
396.429
400.134
400.333
400.021
399.314
398.381
397.413
396.638
396.289
395.844
395.95
401.228
401.336
400.764
399.661
398.272
396.782
395.545
394.744
394.424
395.058
402.993
402.93
401.86
400.018
397.777
395.637
393.865
392.853
392.582
393.61
405.678
405.578
403.801
400.876
397.452
394.085
391.981
390.86
389.684
390.237
410.486
409.847
406.749
401.793
396.253
392.09
388.884
386.685
380.97
378.491
418.148
416.832
411.226
387.323
342.047
294.702
272.408
241.325
180.687
170.016
338.601
316.281
239.611
146.468
67.6561
23.0559
3.8683
0.199792
0.215108
0.222956
19.5202
7.77905
0.0790113
0.0835632
0.149246
0.165744
0.170994
0.185461
0.197926
0.202883
0.0327188
0.0451949
0.0600526
0.0728198
0.0880051
0.104752
0.124591
0.146208
0.214282
0.180955
0.0125021
0.0240206
0.0395671
0.0550531
0.0693938
0.0835326
0.0993251
0.121462
0.129651
0.149167
0.0211818
0.0254093
0.0399161
0.0607725
0.0796659
0.0930884
0.110429
0.129088
0.118778
0.137899
0.0377983
0.0368145
0.0579569
0.140696
0.101792
0.102584
0.154623
0.312052
0.16955
0.144469
0.0482319
0.0553537
0.120487
0.144758
0.071817
0.0885208
0.120889
0.368388
0.565176
0.577226
0.049476
0.0894086
0.161972
0.089857
0.112157
0.155337
0.176386
0.193656
0.559833
0.600735
0.0561701
0.109523
0.127591
0.423774
0.608905
0.627763
0.622025
0.41155
0.479522
0.617519
0.0426004
0.128632
0.0802751
0.0498245
0.134873
0.507971
0.652952
0.744464
0.279833
0.203534
0.0324049
0.106175
0.0280187
-0.0112959
0.034734
0.0690814
0.487545
0.60058
0.359408
0.0947609
0.0188771
0.0625948
-0.0195916
-0.0410645
0.0196469
0.053708
0.504713
0.47717
0.458641
0.0171026
400.925
401.05
400.83
400.344
399.655
398.919
398.256
397.793
397.474
397.36
401.473
401.469
401.156
400.558
399.748
398.891
398.125
397.604
397.247
397.173
402.211
402.316
401.872
401.025
399.929
398.8
397.823
397.221
396.798
396.811
403.896
403.83
403.095
401.802
400.201
398.577
397.213
396.35
395.845
396.132
406.51
406.186
404.922
402.874
400.419
398.007
395.933
394.906
394.255
394.634
410.167
409.692
407.763
404.532
400.803
397.352
394.514
392.938
390.673
391.409
416.471
415.286
411.904
406.772
400.781
395.598
390.919
388.546
383.435
381.948
425.735
423.571
418.286
408.084
374.619
333.559
293.717
271.355
228.064
208.332
423.887
395.057
321.875
216.696
116.865
55.0293
20.576
3.74724
0.192206
0.257359
131.156
92.8174
28.7375
0.0985005
0.0946196
0.157497
0.193734
0.19782
0.18586
0.204109
0.00682282
0.0144622
0.0349866
0.0464977
0.0521167
0.0867199
0.121762
0.142683
0.156709
0.180551
0.00065378
0.0121197
0.0126794
0.0223988
0.0332886
0.0657631
0.0929599
0.11761
0.1393
0.16766
0.0185023
0.0311467
0.0250179
0.0376881
0.056132
0.0725506
0.0950542
0.124562
0.139967
0.155196
0.0364829
0.0420376
0.0506634
0.0909989
0.0866067
0.107534
0.123198
0.133597
0.124008
0.145346
0.0570776
0.064111
0.1394
0.150158
0.0880997
0.0707071
0.12389
0.262965
0.259901
0.163036
0.072823
0.0978379
0.175555
0.231112
0.205987
0.180849
0.313681
0.618489
0.664301
0.333857
0.0627567
0.0730201
0.104695
0.484715
0.677174
0.685004
0.729919
0.784786
0.74623
0.457926
0.0379162
0.108577
0.0673567
0.100953
0.179598
0.240019
0.714175
0.772363
0.531588
0.259308
0.0547164
0.157299
0.131737
0.158053
0.332415
0.180115
0.579973
0.653114
0.616832
0.127894
0.138946
0.178838
0.223323
0.548013
0.72013
0.592514
0.492339
0.478517
0.38377
0.0641461
402.374
402.438
402.135
401.547
400.76
399.941
399.186
398.616
398.222
398.06
403.053
403.038
402.614
401.906
400.966
400.01
399.121
398.489
398.055
397.916
404.202
404.188
403.575
402.609
401.366
400.133
398.99
398.221
397.712
397.633
406.395
406.134
405.237
403.793
402.038
400.273
398.693
397.698
397.013
397.151
409.853
409.13
407.639
405.438
402.891
400.312
398.072
396.838
395.792
395.851
413.768
413.218
411.317
407.706
403.913
400.404
397.163
395.466
392.358
392.879
421.233
419.583
416.213
411.202
405.05
399.941
394.804
392.549
386.811
385.788
431.396
428.755
423.183
415.939
402.97
376.17
341.717
321.684
283.61
257.187
444.077
427.567
367.281
274.516
175.003
103.075
58.4705
36.8914
6.0799
3.66915
216.501
157.569
73.6857
4.09087
0.0733241
0.0976286
0.175874
0.202156
0.194963
0.200837
0.0369492
0.0508429
0.0546934
0.0693389
0.0406865
0.0506214
0.102957
0.135097
0.144861
0.17194
0.0194394
0.0404778
0.0375335
0.0347704
0.0276527
0.0324918
0.076809
0.109021
0.153722
0.180602
0.0140322
0.0606311
0.0584137
0.0505974
0.0506314
0.0546823
0.0748017
0.123709
0.183338
0.193233
0.0228763
0.0788285
0.077898
0.0796791
0.0970986
0.0733642
0.0855921
0.10975
0.147751
0.152276
0.0451481
0.0683777
0.0832256
0.128215
0.19982
0.061241
0.0837559
0.124432
0.134311
0.154886
0.0676043
0.0696292
0.0915324
0.167799
0.349792
0.253562
0.356638
0.684826
0.321417
0.186386
0.0558122
0.0628185
0.0938771
0.155846
0.373819
0.6999
0.74263
0.808318
0.54134
0.212872
0.0522496
0.0938833
0.128268
0.379698
0.588523
0.303645
0.399682
0.780224
0.462034
0.191136
0.118982
0.229257
0.282122
0.852965
0.858421
0.444404
0.374569
0.428203
0.63332
0.171663
0.219044
0.351867
0.841353
0.890063
0.827089
0.783011
0.146073
0.111559
0.660813
0.169516
403.562
403.607
403.218
402.571
401.716
400.83
400.014
399.365
398.893
398.69
404.426
404.336
403.843
403.04
402.029
400.982
400.04
399.305
398.788
398.595
405.813
405.695
405.031
403.946
402.623
401.282
400.087
399.168
398.57
398.411
408.435
408.088
407.101
405.54
403.639
401.746
400.119
398.914
398.169
398.079
412.406
411.553
410.084
407.698
405.012
402.375
400.076
398.469
397.088
397.044
416.851
416.114
414.094
410.698
406.878
403.253
399.881
397.758
394.181
394.468
424.937
422.954
419.659
414.875
409.534
404.424
399.286
396.902
390.56
389.458
435.641
432.566
427.076
420.016
412.808
402.059
381.557
365.217
329.409
299.172
450.863
444.498
395.781
314.492
232.025
161.996
108.865
82.9509
38.7725
23.8999
268.298
199.704
100.361
26.2681
0.23239
0.0457066
0.131032
0.193544
0.193847
0.195241
0.0825766
0.0873491
0.0960897
0.108639
0.0918376
0.046369
0.0750136
0.124099
0.138198
0.168777
0.0460883
0.0681629
0.0692591
0.0686751
0.0932711
0.0530973
0.0617864
0.103918
0.144448
0.180658
0.0309862
0.0634216
0.0663071
0.0608552
0.121184
0.0384006
0.0541511
0.091785
0.177372
0.173029
0.0242635
0.0889302
0.100323
0.0687542
0.0460257
0.103924
0.0270537
0.105528
0.167854
0.164959
0.0365941
0.0434955
0.0994407
0.0812853
0.0791579
0.349069
0.0858114
0.0995771
0.175784
0.21459
0.0352712
0.0361167
0.063562
0.10394
0.162699
0.513977
0.564873
0.37343
0.212555
0.254946
0.0230204
0.0587721
0.0867313
0.461467
0.39662
0.476348
0.672595
0.698013
0.305383
0.277877
0.0509379
0.110972
0.352337
0.729814
0.784211
0.248602
0.351034
0.695252
0.386367
0.173811
0.307751
0.489512
0.758942
0.779
0.793123
0.490124
0.256915
0.373975
0.629447
0.153054
0.806835
0.861845
0.828953
0.761366
0.458491
0.291208
0.130115
0.148498
0.716721
0.297121
404.472
404.464
404.061
403.296
402.381
401.471
400.629
399.954
399.381
399.169
405.33
405.259
404.777
403.862
402.811
401.681
400.71
399.939
399.318
399.109
406.964
406.75
405.973
404.747
403.355
402.071
400.876
399.888
399.211
399.013
409.872
409.434
408.325
406.562
404.561
402.67
401.129
399.841
399
398.755
414.114
413.228
411.577
409.016
406.19
403.619
401.504
399.72
398.034
397.93
419.385
418.034
415.712
412.331
408.488
405.047
401.96
399.577
395.61
395.432
427.38
425.068
421.642
416.76
411.451
407.01
402.599
400.132
393.755
392.171
438.589
434.817
429.107
421.899
415.564
410.893
399.914
389.053
361.172
326
454.756
449.768
412.286
338.029
262.58
211.002
156.182
128.738
72.0942
45.4231
324.003
235.467
120.101
42.2106
7.50986
0.0869271
0.101118
0.171338
0.181689
0.184813
0.168594
0.110383
0.106564
0.122207
0.120868
0.0689487
0.0663258
0.114353
0.129932
0.164303
0.0702297
0.0780316
0.0787957
0.075997
0.0966999
0.0987349
0.0875494
0.0981541
0.130853
0.169376
0.0658385
0.0669521
0.0717631
0.0715551
0.111898
0.130225
0.0634372
0.0798276
0.12849
0.143218
0.0774713
0.105281
0.10044
0.0711505
0.00911176
0.121501
0.0384036
0.0654562
0.0967114
0.164481
0.0628424
0.112417
0.100283
0.0353436
0.0169266
0.215455
0.242351
0.144538
0.154636
0.190003
0.0477519
0.0560403
0.084433
0.0325444
0.0441489
0.335216
0.479259
0.177864
0.161455
0.219826
0.0279619
0.0311085
0.11372
0.267395
0.216813
0.186333
0.514585
0.344257
0.218874
0.242709
0.118692
0.017612
0.162629
0.549049
0.497852
0.123454
0.240185
0.548582
0.482003
0.129133
0.284601
0.00933902
0.0986535
0.235166
0.274568
0.24383
0.211198
0.497105
0.5358
0.100175
0.163406
0.0271608
0.024526
-0.0328912
0.0090822
0.19198
0.16871
0.391761
0.370111
0.104502
404.748
404.913
404.401
403.668
402.754
401.824
400.962
400.25
399.688
399.443
405.506
405.763
405.248
404.271
403.202
402.05
401.055
400.277
399.613
399.39
407.295
407.255
406.368
405.199
403.873
402.518
401.287
400.271
399.542
399.32
409.255
410.125
408.886
407.093
405.122
403.27
401.568
400.34
399.374
399.083
412.984
414.143
412.403
409.715
406.879
403.504
402.1
400.432
398.441
398.368
418.478
419.42
416.683
412.733
408.555
405.084
402.857
400.71
396.481
395.214
426.997
426.382
422.298
417.31
412.06
407.782
404.088
401.792
395.908
392.306
441.212
435.815
429.731
423.598
417.719
413.09
407.59
398.203
375.626
338.352
457.327
452.836
416.958
346.216
277.13
235.216
188.084
158.649
94.1785
58.6322
380.117
261.162
127.208
44.1504
13.7417
0.932898
0.11547
0.16783
0.161779
0.176985
7.72033
0.106413
0.101178
0.127869
0.121976
0.0780051
0.075544
0.10911
0.119726
0.158179
0.0422442
0.0476639
0.0671954
0.134415
0.102595
0.130802
0.111579
0.0947538
0.125205
0.161445
0.0538181
0.0448231
0.0760762
0.151729
0.130998
0.130812
0.137542
0.0809482
0.104597
0.136946
0.0698646
0.0444132
0.0490024
0.115543
0.00415631
0.0559015
0.0477037
0.0534258
0.0667279
0.0953791
0.066057
0.047813
0.0410441
0.0183266
0.0121384
0.020448
0.106844
0.083939
0.103841
0.121443
0.0427643
0.0403457
0.032219
0.0154044
0.0193004
0.0596517
0.167526
0.0865028
0.146055
0.182653
0.0224069
0.0188536
0.000613042
-0.00631094
0.0224984
0.0332479
0.0989711
0.0890246
0.118322
0.194032
0.0100912
-0.00227421
-0.0317075
-0.0554978
-0.00841573
0.0320247
0.135862
0.346862
0.222468
0.0822186
0.0124532
-0.00932066
-0.0366618
-0.0620283
-0.0446584
0.0925336
0.0863328
0.439955
0.425429
0.0210613
0.00292522
5.05723e-05
-0.0167766
-0.0274482
0.0363418
0.477532
0.313407
0.436571
0.411522
0.00662652
404.711
404.914
404.45
403.741
402.839
401.886
401.008
400.283
399.719
399.469
405.232
405.794
405.209
404.312
403.206
402.091
401.094
400.304
399.623
399.401
406.498
407.331
406.46
405.263
403.929
402.547
401.287
400.27
399.525
399.312
409.201
410.052
408.782
407.078
405.194
403.336
401.644
400.324
399.306
399.036
412.902
413.735
411.85
409.619
407
403.855
401.671
400.375
398.215
398.18
418.315
418.744
415.886
412.511
409.383
405.031
402.241
400.653
396.347
394.804
426.579
426.3
422.217
417.458
412.574
407.633
403.664
401.266
396.148
392.451
440.944
436.475
430.319
423.688
417.627
412.754
408.167
399.374
376.245
336.752
456.591
451.651
417.601
347.585
273.648
228.538
188.428
159.403
94.3498
57.2939
383.542
264.415
125.365
41.4781
12.9035
2.61357
0.132298
0.178363
0.153558
0.172094
16.5642
0.077563
0.0915627
0.123878
0.10761
0.0536407
0.0712248
0.108105
0.113451
0.151671
0.00289127
0.0151642
0.0482521
0.136969
0.126797
0.123889
0.100454
0.107672
0.117776
0.152035
0.0188861
0.0158089
0.098184
0.135694
0.126574
0.120356
0.124177
0.0820644
0.104285
0.13718
0.0313761
0.016707
0.0378503
0.148692
0.146698
0.0179299
0.0374271
0.0589754
0.0733421
0.100865
0.0228718
0.0234643
0.0338387
0.123752
0.102625
0.0410557
0.047876
0.0595455
0.0784804
0.0703282
0.0195074
0.0214578
0.0309096
0.0406604
0.0459004
0.0468582
0.0487799
0.0590894
0.121592
0.134428
0.0519801
0.0179139
-0.000684657
-0.00689679
0.00575452
0.0262906
0.0228833
0.0327349
0.0728487
0.158976
0.137635
0.00910716
-0.017375
-0.0324556
-0.0313783
-0.00702459
0.00475324
0.0179864
0.0257452
0.0674285
0.154171
-6.29422e-05
-0.014375
-0.0297091
-0.0319576
-0.0175423
-0.0258606
0.0581101
0.0341265
0.00449241
0.0733199
0.00956081
0.0127231
0.0152926
0.130192
0.299946
0.0643441
0.0444001
0.196883
-0.0124332
404.542
404.573
404.131
403.456
402.592
401.633
400.759
400.029
399.495
399.25
405.391
405.32
404.824
404.003
402.916
401.815
400.821
399.992
399.383
399.145
407.007
406.77
406.007
404.908
403.545
402.184
400.942
399.9
399.15
398.97
409.817
409.252
408.2
406.582
404.575
402.683
401.111
399.771
398.81
398.551
413.805
411.347
409.697
408.657
406.161
403.445
401.327
399.568
397.52
397.462
419.279
415.781
413.399
411.952
408.341
404.808
401.663
399.548
395.334
395.438
427.734
423.561
420.254
416.346
410.899
406.151
401.854
399.895
393.839
391.746
439.345
434.784
428.426
421.649
415.497
410.248
401.321
388.781
357.443
315.382
455.571
450.778
406.328
325.833
250.442
198.459
156.155
124.163
67.1841
40.6259
356.363
241.463
113.366
38.1859
12.2823
2.00047
0.133365
0.19084
0.163263
0.175372
12.5026
0.00996659
0.0545338
0.0862887
0.0508688
0.0064214
0.0647633
0.115988
0.121207
0.151937
-0.0338604
-0.0160469
0.014753
0.118335
0.118732
0.0943566
0.0567605
0.115896
0.131749
0.141823
-0.02153
-0.0130986
0.0169779
0.119071
0.119138
0.061498
0.0589416
0.103559
0.115677
0.135412
-0.0154409
-0.010557
-0.00667425
0.00589551
0.157524
0.050157
0.0553123
0.0779778
0.086885
0.109683
-0.00124814
0.00150243
0.00986901
0.0273953
0.105618
0.159596
0.10325
0.0797223
0.0616993
0.0741741
0.136975
0.00706328
0.0137422
0.0406378
0.135192
0.138375
0.0551009
0.0552654
0.0849585
0.072209
0.178579
0.138348
0.00529918
0.0325251
0.0943508
0.0638759
0.0353857
0.0333828
0.0845989
0.140895
0.175023
0.179569
-0.00198297
0.00971033
0.0167888
0.0147033
0.00143014
0.00434734
0.0224673
0.130949
0.182944
0.026722
0.0097252
0.0178491
0.0092139
-0.0158257
-0.0217429
-0.0173106
-0.00589678
0.0242877
0.0851742
0.0172468
0.0464167
0.057962
0.0466385
-0.00433859
-0.0319317
-0.0336368
-0.0252351
-0.0176118
403.702
403.811
403.478
402.84
401.973
401.109
400.27
399.567
399.073
398.841
404.452
404.473
404.059
403.279
402.271
401.232
400.266
399.46
398.905
398.669
405.904
405.799
405.21
404.157
402.82
401.482
400.267
399.217
398.54
398.306
408.375
407.981
407.033
405.56
403.67
401.834
400.19
398.853
397.916
397.691
411.927
410.02
409.679
407.583
404.864
402.348
399.975
398.25
396.455
396.144
417.167
413.776
413.481
410.423
406.59
403.239
399.737
397.605
393.7
393.57
425.454
422.341
418.572
414.152
408.579
404.048
399.193
396.613
389.73
388.255
434.743
431.313
425.864
419.279
412.284
404.302
385.233
364.427
314.352
277.782
451.754
436.834
378.604
294.481
215.666
153.834
105.633
75.23
31.3562
19.0901
277.873
185.825
90.2356
33.9844
9.05847
-0.023168
0.13956
0.197517
0.189641
0.193693
-0.0134946
-0.0211035
0.0205209
0.0350574
0.00196254
-0.00767814
0.0674407
0.125128
0.147589
0.167921
-0.0309951
-0.0215454
0.00271572
0.0752218
0.0588085
0.00754512
0.0447736
0.101304
0.171914
0.189594
-0.028697
-0.0241158
-0.0228397
0.0268861
0.1098
0.0367042
0.0666377
0.104428
0.119519
0.155034
-0.0300973
-0.0294969
-0.0308852
-0.0203003
0.0535367
0.15121
0.148274
0.136106
0.0988088
0.11461
0.0532178
-0.0165099
-0.0147813
0.00335897
0.0381602
0.178061
0.189448
0.167779
0.0709479
0.0742949
0.159306
0.0415376
-0.00422462
0.0157248
0.0558527
0.0934098
0.11087
0.0531424
0.033574
0.0343723
0.146059
0.180252
0.0219311
0.0177131
0.0532164
0.0815486
0.049773
0.0432796
0.0725482
0.105016
0.133214
0.155872
0.0649496
0.0131427
0.0380735
0.0487619
0.0274983
0.0293061
0.0448717
0.124047
0.0710054
-0.0158358
0.014562
0.0240215
0.0294255
0.0173965
0.000118543
0.00278319
0.00530151
0.0490357
-0.0243875
0.00421387
0.0440673
0.0638136
0.0426787
0.00182985
-0.022019
-0.0215365
-0.000773819
0.035472
402.598
402.79
402.558
402.008
401.239
400.411
399.638
398.969
398.539
398.337
403.21
403.33
403.056
402.34
401.433
400.415
399.536
398.802
398.304
398.096
404.418
404.456
403.969
402.991
401.773
400.462
399.333
398.414
397.792
397.575
406.487
406.32
405.479
404.075
402.289
400.493
398.968
397.758
396.848
396.672
409.685
409.008
407.62
405.55
403.006
400.453
398.121
396.619
395.145
394.745
413.989
412.886
410.746
407.78
404.227
400.663
397.137
395.061
392.108
391.602
421.519
419.045
415.325
410.763
405.46
400.256
394.607
392.125
386.327
384.846
429.367
427.152
421.982
415.074
405.091
382.998
346.927
315.254
262.66
237.664
440.81
411.146
348.222
259.155
169.506
98.2134
54.8383
32.1168
1.81335
0.395578
159.042
107.879
49.521
13.9808
0.0386804
0.0239901
0.155909
0.201901
0.222836
0.234413
-0.0296289
-0.0108029
0.00988879
0.0159461
0.00282126
0.0147798
0.0837334
0.135888
0.171437
0.221186
-0.0251142
-0.0165091
0.00373709
0.019579
0.00449176
0.00833228
0.0650285
0.109492
0.182647
0.259839
-0.0263993
-0.0284399
-0.0211129
0.00384258
0.0694307
0.0810344
0.0842927
0.117032
0.117
0.224291
-0.0334956
-0.0379999
-0.0407967
-0.0211931
0.0229493
0.15012
0.198153
0.220299
0.145868
0.112698
0.041761
-0.0249218
-0.0304188
-0.0158812
0.014698
0.043985
0.181125
0.187782
0.0900344
0.0630659
0.137512
0.051817
-0.0189687
-0.00603091
0.0219433
0.0540616
0.0993675
0.160092
0.0381028
0.0279692
0.0471568
0.122474
0.0390452
0.0192491
0.0283088
0.0532565
0.0418847
0.074776
0.0335512
0.0292654
-0.0492427
-0.0527786
0.0154703
0.0448659
0.0420936
0.0394131
0.0297445
0.0555088
0.0366835
0.0660032
-0.0235897
-0.0576412
-0.0355134
-0.000406439
0.0194924
0.0172169
0.00720466
0.0207035
0.0371054
0.0229143
-0.0156047
-0.0248184
0.00975411
0.0276835
0.0167821
-0.00108059
-0.0160355
-0.0109607
0.0252145
0.00306558
401.287
401.58
401.446
401.028
400.381
399.62
398.946
398.381
398.001
397.835
401.734
401.97
401.753
401.204
400.449
399.579
398.774
398.128
397.704
397.548
402.623
402.83
402.434
401.656
400.59
399.43
398.385
397.574
397.073
396.923
404.196
404.233
403.528
402.33
400.777
399.177
397.811
396.711
395.911
395.791
406.781
406.315
405.097
403.206
400.777
398.306
396.129
394.936
393.906
393.698
409.901
409.152
407.423
404.592
401.061
397.737
394.735
392.723
390.61
390.059
416.481
414.331
410.761
406.155
400.544
395.381
391.154
388.662
384.989
381.934
423.275
421.383
416.299
405.788
382.056
340.313
292.878
270.035
232.119
198.154
410.303
371.521
297.381
198.955
106.005
45.4461
16.7398
3.33916
0.292515
0.313812
61.6994
34.3863
0.160839
0.0362449
0.0428028
0.0915367
0.160862
0.207958
0.224059
0.248018
-0.00324685
0.0171243
0.0387742
0.0288374
0.0274975
0.0557669
0.11386
0.155975
0.210177
0.269006
-0.0124354
-0.00686259
0.00980658
0.034695
0.0452095
0.0460381
0.0952534
0.123451
0.210736
0.275895
-0.0172987
-0.0262436
-0.00915494
0.0215252
0.0469862
0.112586
0.151234
0.137605
0.113516
0.255964
-0.0303772
-0.0363284
-0.0325392
-0.00154751
0.0273291
0.0828086
0.185425
0.19818
0.107329
0.148963
-0.0286083
-0.0347762
-0.0333552
0.00116334
0.0287352
0.0276879
0.144309
0.160806
0.0339957
0.0558076
-0.0159209
-0.0225631
-0.0352859
-0.0137498
0.0437435
0.0372552
0.0294323
0.12204
0.00566728
0.0163387
-0.0577294
-0.0484056
-0.0349308
0.0113511
0.0627833
0.0387486
0.0317991
0.123376
0.0104498
0.0118884
-0.0609998
-0.0736693
-0.0263358
0.0743118
0.0825087
0.0117011
0.0113004
0.103472
0.021924
0.00928486
0.0437833
0.0494039
-0.0333285
-0.0254396
-0.0079963
-0.018666
-0.00889661
0.0390904
0.0269717
0.00337887
-0.0268277
-0.0356543
-0.0166374
-0.013122
-0.0233686
-0.0361791
-0.0280517
-0.00719428
0.0365143
-0.00546018
399.839
400.231
400.306
400.012
399.509
398.897
398.313
397.842
397.519
397.4
400.154
400.553
400.506
400.119
399.49
398.759
398.073
397.542
397.185
397.09
400.773
401.133
400.928
400.327
399.425
398.425
397.542
396.894
396.438
396.388
401.883
402.078
401.614
400.623
399.319
397.973
396.765
395.679
394.977
395.156
403.689
403.556
402.572
400.862
398.622
396.32
394.634
393.429
392.697
393.156
404.68
404.914
404.018
401.394
398.146
395.131
392.198
391.016
389.66
389.453
409.586
408.764
405.814
401.267
395.907
391.601
388.922
386.528
383.87
380.525
416.639
414.259
407.004
385.253
341.669
286.144
242.505
227.302
197.931
169.256
340.807
294.244
210.425
120.17
47.9042
6.54572
0.889536
0.33817
0.322832
0.353949
0.161438
0.0965595
0.0647838
0.0589987
0.0792208
0.112307
0.178032
0.227226
0.25399
0.28008
0.0521742
0.0538319
0.0489258
0.0446321
0.0553051
0.0962544
0.14307
0.222289
0.284763
0.274279
0.0183905
0.0245358
0.0363597
0.0571998
0.0777091
0.0986786
0.114613
0.159567
0.246728
0.295928
0.00305255
-0.000182747
0.0173972
0.0454489
0.054107
0.0781268
0.16605
0.101695
0.156927
0.259959
-0.0169531
-0.0147011
0.00122695
0.045065
0.0394665
0.0443071
0.146118
0.0872165
0.0427667
0.207747
-0.0204027
-0.02286
0.0158303
0.131533
0.0821798
0.0310674
0.0190108
0.0091422
-0.0217029
0.153144
-0.0417775
-0.0304738
0.0316592
0.129591
0.140491
0.0420737
0.0119683
-0.00464307
-0.03633
0.10658
-0.0599897
-0.0479369
0.0231906
0.116676
0.13308
0.0409468
0.0104823
0.0127235
-0.024117
0.0182535
-0.0854465
-0.0599915
0.0421173
0.0826423
0.044979
0.00868264
0.00181226
0.0159108
-0.00564652
-0.00581894
0.0183849
0.0015591
-0.0365999
-0.0423426
-0.03439
-0.0148418
0.000407766
0.0448911
0.00635775
-0.00525163
-0.0508206
-0.0317173
-0.0197751
-0.0284813
-0.0281562
-0.0246966
-0.00559763
0.0255776
0.0022095
-0.00975148
398.557
399.127
399.286
399.136
398.764
398.286
397.818
397.441
397.151
397.072
398.75
399.296
399.387
399.152
398.678
398.102
397.563
397.154
396.802
396.743
399.127
399.625
399.592
399.17
398.454
397.692
397.057
396.507
395.884
395.922
399.753
400.121
399.885
399.162
398.199
396.831
395.873
394.915
393.897
394.731
400.546
400.777
400.19
398.806
397.001
395.043
393.223
391.956
391.631
392.981
401.43
401.663
400.549
398.335
395.535
392.844
390.871
390.554
389.466
389.595
403.67
403.323
400.648
396.34
391.662
388.079
380.201
375.798
375.855
374.046
405.339
401.176
385.557
347.539
282.255
224.596
178.454
169.658
153.766
131.414
197.549
174.11
119.397
55.4299
4.96795
0.238441
0.471288
0.750507
0.39336
0.405839
0.102221
0.0773883
0.0853648
0.0848364
0.105769
0.133449
0.218322
0.28727
0.291973
0.329763
0.0658435
0.0676058
0.0661783
0.061857
0.0822938
0.142697
0.203194
0.262709
0.278309
0.273405
0.0525299
0.06113
0.0703882
0.0670279
0.0912937
0.109996
0.124648
0.195304
0.272438
0.252585