/*--------------------------------*- C++ -*----------------------------------*\
| =========                 |                                                 |
| \\      /  F ield         | OpenFOAM: The Open Source CFD Toolbox           |
|  \\    /   O peration     | Version:  2312                                  |
|   \\  /    A nd           | Website:  www.openfoam.com                      |
|    \\/     M anipulation  |                                                 |
\*---------------------------------------------------------------------------*/
FoamFile
{
    version     2.0;
    format      ascii;
    arch        "LSB;label=32;scalar=64";
    class       surfaceScalarField;
    location    "1";
    object      alphaPhi0.water;
}
// * * * * * * * * * * * * * * * * * * * * * * * * * * * * * * * * * * * * * //

dimensions      [0 3 -1 0 0 0 0];

oriented        oriented;

internalField   nonuniform List<scalar> 
22600
(
-2.38183e-08
7.82932e-08
-1.46722e-07
2.5555e-08
9.25136e-08
-1.41887e-07
5.23456e-08
1.0198e-07
-1.28771e-07
5.98168e-08
1.08744e-07
-1.16215e-07
5.50437e-08
1.1402e-07
-1.09247e-07
4.61996e-08
1.23404e-07
-1.1456e-07
3.89836e-08
1.48757e-07
-1.41541e-07
6.68275e-08
1.7021e-07
-1.98053e-07
7.07123e-08
1.4657e-07
-1.50455e-07
1.4593e-07
-7.52174e-08
5.70371e-10
1.3627e-07
-1.50931e-07
7.14582e-08
1.82321e-07
-1.60696e-07
1.20236e-07
2.09871e-07
-1.56669e-07
1.45928e-07
2.31725e-07
-1.48673e-07
1.48514e-07
2.58154e-07
-1.4672e-07
1.33751e-07
3.09031e-07
-1.70864e-07
1.107e-07
4.06874e-07
-2.35065e-07
7.91498e-08
4.15689e-07
-2.1393e-07
7.15548e-08
1.86016e-07
-3.18512e-08
2.83635e-07
-6.61501e-08
3.62826e-08
6.65024e-08
-6.15222e-08
9.44431e-08
2.44592e-07
-1.20431e-07
1.31961e-07
3.16801e-07
-1.44448e-07
1.59797e-07
3.54376e-07
-1.50487e-07
1.78907e-07
4.07061e-07
-1.68018e-07
1.9277e-07
5.035e-07
-2.08333e-07
9.67445e-08
6.32464e-07
-1.29564e-07
-8.57129e-08
4.00919e-07
1.97228e-07
-6.97548e-08
-3.41651e-07
5.11709e-07
3.68684e-08
1.77011e-07
7.51161e-08
-2.57992e-07
1.224e-07
1.94671e-07
1.39844e-07
-1.48077e-08
2.27733e-07
3.79496e-07
-9.57569e-08
2.38852e-07
4.80328e-07
-1.37071e-07
2.64855e-07
5.49722e-07
-1.68664e-07
2.60559e-07
6.536e-07
-1.45803e-07
-1.0944e-07
7.73652e-07
2.28811e-07
-5.70864e-07
2.45992e-07
6.16348e-07
-4.63807e-07
-1.24388e-06
7.95179e-07
-9.63125e-07
5.36291e-07
5.23253e-08
-5.06381e-07
7.27734e-08
2.29483e-07
-1.42158e-07
1.04845e-07
3.31949e-07
2.08964e-07
6.80648e-08
3.92182e-07
3.82784e-07
3.7311e-08
4.70169e-07
4.62603e-07
9.1328e-09
4.70929e-07
5.91784e-07
6.10551e-08
4.31801e-08
7.23006e-07
4.78396e-07
-4.99165e-07
3.48503e-08
7.54474e-07
-5.38404e-07
-1.35271e-06
1.68539e-07
-1.79156e-06
3.23096e-07
-6.26001e-08
-3.97173e-07
-1.88428e-07
1.15073e-07
-2.31461e-07
-8.83706e-08
3.29541e-07
9.65633e-09
-1.51598e-08
5.2567e-07
1.76106e-07
1.05482e-08
6.92441e-07
2.38188e-07
5.76432e-08
7.66302e-07
2.84244e-07
2.33679e-07
5.83099e-07
2.8333e-07
6.22878e-07
2.30707e-07
-4.53533e-07
8.40775e-07
2.49915e-08
-1.1305e-06
-1.87862e-08
-1.61656e-06
-1.55671e-07
-1.29183e-07
-3.89312e-08
-5.70285e-07
1.66986e-07
-3.01447e-08
-4.97485e-07
5.16503e-07
6.89838e-08
-4.08844e-07
8.30284e-07
1.912e-07
-3.28875e-07
1.02927e-06
2.45553e-07
-2.06353e-07
1.0771e-06
1.94878e-07
4.15408e-08
8.47773e-07
-7.66524e-08
5.89307e-07
3.54593e-07
-8.3359e-07
8.73237e-07
1.51308e-07
-9.6972e-07
2.56871e-08
-1.08443e-06
-3.86147e-07
-1.63146e-07
2.04916e-07
-8.80593e-07
3.50668e-07
2.06283e-07
-8.12207e-07
8.25173e-07
3.18086e-07
-7.97633e-07
1.18036e-06
5.64607e-07
-7.28594e-07
1.36799e-06
6.33338e-07
-5.75413e-07
1.39212e-06
4.56174e-07
-2.85429e-07
1.08934e-06
6.59199e-08
1.60207e-07
4.12444e-07
-5.15558e-07
3.58864e-07
1.3264e-07
-4.70742e-07
-2.23263e-07
-6.77108e-07
-2.978e-07
-1.027e-07
-2.48308e-09
2.08595e-07
2.12986e-07
-1.61408e-08
1.70224e-07
5.75411e-07
-3.38995e-08
7.34001e-09
8.76008e-07
8.77416e-08
-1.63618e-07
1.04725e-06
3.38708e-07
-3.38966e-07
1.1219e-06
4.91182e-07
-3.79379e-07
8.7155e-07
3.61323e-07
-1.1978e-07
3.14857e-07
5.45747e-08
-8.28222e-09
1.84847e-07
-5.97376e-08
-2.82698e-07
-7.47998e-07
2.38263e-07
-6.25643e-10
-1.45126e-10
-9.71969e-11
-1.32181e-08
-8.94492e-11
-2.76098e-09
-2.67815e-08
-1.62571e-10
-1.64538e-09
-1.15133e-07
-3.10961e-09
4.74193e-08
-2.84395e-07
-2.55689e-08
1.63232e-07
-4.53193e-07
-1.10836e-07
3.29635e-07
-6.59454e-07
-2.39998e-07
5.86201e-07
-6.93545e-07
-4.45262e-07
6.43515e-07
-1.30645e-07
-6.23018e-07
5.00946e-07
-8.26818e-07
7.17227e-07
-3.02952e-11
-2.91602e-10
2.03537e-10
2.14013e-11
-7.30748e-11
7.11085e-11
4.80991e-11
7.10755e-11
-3.14288e-10
-1.1513e-09
1.38167e-10
-1.4752e-09
-2.63805e-08
-2.471e-11
8.87258e-12
-1.00669e-07
-4.47077e-10
-5.34788e-11
-1.8355e-07
-7.64288e-10
2.79269e-08
-2.30316e-07
-5.28687e-10
7.64666e-08
-1.61996e-07
-5.9891e-10
1.83374e-07
-7.22798e-10
2.92563e-07
-2.71796e-10
-2.0116e-10
4.03079e-10
-5.31119e-11
-1.93444e-10
1.22336e-10
2.45627e-11
-1.12176e-10
6.84619e-11
7.98786e-11
2.40631e-11
8.10985e-12
1.64945e-10
6.40657e-11
-1.13341e-10
3.33828e-10
-3.76457e-11
-1.77927e-10
2.83507e-11
-4.18211e-12
-4.6334e-10
-9.95557e-12
-2.47527e-10
-9.55426e-11
-4.5878e-11
-3.69963e-10
-4.02302e-11
-5.31506e-10
-9.22988e-11
-2.9145e-10
-3.31706e-10
7.19837e-11
-2.16566e-10
-4.0397e-10
4.92362e-11
-1.06482e-10
-3.52949e-10
5.18661e-11
2.0389e-11
-1.41672e-10
5.01317e-11
8.60468e-11
1.30769e-11
8.91363e-12
1.01885e-10
1.1393e-10
-2.8809e-11
8.85498e-11
9.87615e-11
-1.45262e-10
4.58721e-11
1.25363e-10
-2.00819e-10
-2.98769e-11
4.10252e-11
-1.54107e-10
-1.75573e-11
-3.74551e-10
-7.49253e-10
-4.9738e-10
-2.9926e-11
-6.65486e-10
-4.59769e-10
-1.43703e-10
-3.16243e-10
-5.35927e-10
-2.08893e-10
-7.88406e-11
-2.44132e-10
-4.81082e-11
3.15139e-11
-2.33967e-11
4.05201e-11
6.0298e-11
7.48449e-11
1.56381e-11
3.29315e-11
1.49692e-10
-2.23817e-11
1.78611e-13
3.31714e-10
-1.05889e-10
-9.8966e-11
3.21864e-10
-1.51305e-10
1.19434e-09
-1.40377e-09
-2.77041e-09
-3.02497e-09
-2.41924e-10
-3.03662e-09
-5.53069e-09
-1.85939e-09
-1.25015e-09
-6.0011e-09
-3.58254e-09
-8.87962e-11
-1.55666e-09
-1.32045e-09
2.36661e-11
-9.77385e-11
-3.27768e-11
4.05103e-11
1.16304e-11
4.09075e-11
2.69425e-11
1.17614e-10
3.41977e-11
4.71235e-12
1.7956e-10
-1.96715e-11
-1.37097e-10
6.27358e-10
-1.29295e-10
2.38786e-09
-1.34881e-09
-1.00257e-08
-2.69821e-09
-2.13318e-09
-7.24135e-09
-4.02182e-09
-4.15708e-09
-3.04593e-09
-5.03986e-09
-5.04457e-09
-4.42914e-10
-4.56343e-09
-4.09428e-09
4.14461e-11
-7.37579e-10
-1.11608e-09
4.02758e-11
-2.99029e-11
3.11978e-11
2.73943e-11
6.28242e-11
5.32194e-11
1.52267e-11
1.58497e-10
2.6136e-11
-6.73179e-12
7.86612e-10
-2.73895e-10
4.28081e-10
-3.914e-10
-9.40111e-09
-1.09122e-09
-2.88336e-09
-6.76377e-09
-2.35522e-09
-4.19581e-09
-3.36966e-09
-3.36793e-09
-4.94849e-09
-4.67494e-10
-3.80228e-09
-3.53558e-09
1.11795e-10
-1.30863e-09
-1.33104e-09
5.83153e-11
-4.66554e-10
1.03605e-10
1.88082e-11
2.07783e-11
7.44589e-11
1.64343e-11
1.09763e-10
8.83927e-11
2.88307e-11
4.65753e-10
-1.62433e-11
8.56222e-11
1.16301e-10
-8.06862e-09
1.23029e-10
-3.73732e-09
-6.0895e-09
-2.8234e-10
-3.91728e-09
-3.44897e-09
-1.16975e-09
-4.73069e-09
-7.85603e-10
-3.10357e-09
-3.2802e-09
4.84452e-11
-2.4534e-09
-4.31962e-10
1.74865e-10
-2.18664e-09
5.56951e-10
6.4373e-12
-7.46635e-10
4.62067e-10
-6.10225e-12
4.94438e-11
1.25451e-10
1.52819e-11
1.91893e-10
1.08419e-10
4.70966e-11
5.20142e-11
-1.85159e-09
-3.82704e-11
-1.33967e-09
-1.46274e-09
-2.01794e-11
-1.12826e-09
-1.70231e-09
-3.93445e-10
-1.07605e-09
-6.02985e-10
-2.71308e-09
-2.73944e-09
-1.7167e-11
-3.62935e-09
-3.04127e-10
-1.3891e-10
-3.27038e-09
6.96276e-10
-4.41536e-11
-1.99453e-09
8.41608e-10
-3.39906e-11
6.73198e-12
4.52187e-11
-4.33029e-12
5.20489e-11
1.09023e-10
1.41856e-11
2.81995e-11
-1.31489e-10
-3.24248e-10
1.81471e-11
-2.03428e-10
-1.64269e-10
7.40443e-11
-3.08132e-10
-3.18323e-10
-1.76748e-11
-4.44805e-10
-1.04964e-09
-1.58361e-09
-2.08622e-10
-7.3246e-10
-3.30121e-09
-7.56233e-10
1.39687e-10
-3.2554e-09
-7.96734e-10
3.44767e-10
-1.36025e-09
-4.27403e-11
8.56847e-11
-9.7998e-12
-1.73457e-11
1.85426e-11
7.73064e-12
2.15624e-12
-5.69743e-12
-5.04604e-08
2.41305e-08
-1.95134e-07
-4.30114e-08
4.48171e-08
-1.94153e-07
-4.57619e-08
5.52722e-08
-1.81292e-07
-5.59038e-08
6.25567e-08
-1.6863e-07
-7.18241e-08
6.53694e-08
-1.58697e-07
-8.24683e-08
5.66979e-08
-1.60614e-07
-5.49752e-08
2.10764e-08
-1.90111e-07
8.81764e-08
-1.07264e-07
-2.33941e-07
1.41588e-07
-4.79756e-08
-1.5589e-07
1.91714e-07
-1.25344e-07
-2.20258e-08
2.82149e-08
-2.0653e-07
9.86893e-09
7.65306e-08
-2.24304e-07
2.17303e-08
1.11613e-07
-2.24871e-07
9.84195e-09
1.44591e-07
-2.1882e-07
-3.46486e-08
1.81736e-07
-2.18596e-07
-1.2559e-07
2.20407e-07
-2.43631e-07
-1.99591e-07
1.21962e-07
-2.61949e-07
-7.8353e-08
-4.11582e-07
-3.08502e-08
1.03579e-07
-3.95846e-07
1.34087e-07
3.92276e-07
-1.63132e-07
-1.20213e-08
5.4912e-08
-1.41101e-07
-1.57445e-08
1.79254e-07
-2.19432e-07
-1.72331e-08
2.13979e-07
-2.45326e-07
-3.19513e-08
2.5946e-07
-2.50638e-07
-1.11366e-07
3.66781e-07
-2.73649e-07
-2.93798e-07
4.75665e-07
-2.81159e-07
-5.54467e-07
2.33118e-07
1.99989e-08
-6.10446e-07
-7.86711e-07
6.28812e-07
-2.60583e-07
-1.04896e-06
8.15026e-07
3.08541e-07
1.57525e-10
5.79384e-08
-1.50722e-08
3.8531e-08
6.80414e-08
2.79013e-07
-1.24669e-07
3.84601e-08
3.7467e-07
-2.26866e-07
1.28654e-08
4.34238e-07
-2.86255e-07
-1.99279e-08
5.64717e-07
-3.33807e-07
-1.84381e-07
7.08756e-07
-2.14443e-07
-5.19661e-07
4.4131e-07
3.55899e-07
-8.18712e-07
-6.67963e-07
7.98896e-07
-5.317e-07
-1.3038e-06
7.70551e-07
-9.85089e-08
4.11669e-07
6.27955e-08
-1.08501e-07
3.72381e-08
1.75641e-07
3.36586e-07
-6.55737e-08
1.87972e-07
5.62449e-07
-1.32046e-07
2.02205e-07
6.50836e-07
-1.93519e-07
2.73827e-07
7.59866e-07
-2.57639e-07
3.23027e-07
8.55065e-07
-1.34454e-07
2.01843e-07
6.71952e-07
3.68937e-07
-1.23256e-07
-2.58858e-07
6.71871e-07
-2.67982e-07
-9.3677e-07
-6.12965e-08
-3.17466e-07
2.76477e-07
-1.11493e-07
1.08613e-07
-2.7732e-07
2.16036e-08
3.28065e-07
-2.12946e-07
2.227e-07
4.95019e-07
-1.48827e-07
4.06167e-07
6.08035e-07
-1.30118e-07
5.77279e-07
7.67927e-07
-1.21529e-07
7.32916e-07
9.18125e-07
1.49821e-08
7.88603e-07
7.29068e-07
5.10075e-07
6.10619e-07
-3.23407e-08
7.91295e-07
1.97771e-07
-3.79155e-07
-1.69461e-07
-1.39815e-07
-1.34708e-07
-1.42106e-07
5.04684e-07
-9.52839e-07
1.96608e-08
5.2159e-07
-8.52777e-07
2.77636e-07
5.8021e-07
-7.5201e-07
5.43988e-07
6.35135e-07
-6.22326e-07
7.47968e-07
7.12518e-07
-3.54925e-07
8.63964e-07
8.12085e-07
3.15855e-08
9.27424e-07
6.87281e-07
5.67634e-07
7.6784e-07
2.6063e-07
7.39824e-07
2.63739e-07
2.20961e-07
-7.03274e-08
1.39169e-07
-4.01393e-07
-4.50262e-08
6.43572e-07
-1.62858e-06
3.49252e-07
6.901e-07
-1.62844e-06
6.88475e-07
8.39325e-07
-1.66044e-06
8.72482e-07
1.03481e-06
-1.58704e-06
9.37942e-07
1.34281e-06
-1.27116e-06
9.13264e-07
1.30954e-06
-7.58208e-07
8.64892e-07
9.90518e-07
-9.46579e-08
6.30995e-07
7.47311e-07
1.06072e-07
1.42325e-07
8.35695e-07
-3.4933e-07
4.21228e-07
-4.37534e-07
-1.14226e-07
-3.98675e-09
1.69813e-07
-2.131e-08
-1.72548e-09
7.54005e-08
8.49266e-08
-1.10557e-08
-5.2922e-08
2.21932e-07
7.77379e-09
-3.0342e-07
3.99533e-07
2.15997e-07
-6.27332e-07
5.56952e-07
5.69679e-07
-8.1066e-07
7.51917e-07
6.53228e-07
-5.4344e-07
6.95802e-07
6.57768e-07
-1.2508e-07
2.7748e-07
7.46191e-07
5.70663e-08
1.80754e-07
7.17567e-07
-3.78502e-09
-2.29023e-10
-4.6527e-11
-7.59389e-09
9.18401e-11
-1.98603e-10
-1.83527e-08
6.95366e-10
-2.92678e-09
-5.51871e-08
5.16363e-10
-4.71154e-09
-1.51706e-07
-8.55169e-09
3.44914e-08
-2.79136e-07
-5.91616e-09
2.36974e-07
-3.73469e-07
-5.25459e-08
4.48118e-07
-4.52727e-07
-2.66649e-07
7.83074e-07
-3.79819e-07
-4.78918e-07
1.25241e-06
-6.27563e-07
1.756e-06
-1.37881e-10
-6.6813e-10
2.02118e-10
-1.06063e-10
-4.78993e-11
2.79669e-10
8.94789e-12
6.11915e-11
1.68006e-10
4.01434e-10
3.90493e-10
-2.9262e-10
-1.26042e-11
-1.1334e-10
-4.30103e-09
-3.34477e-09
-3.89536e-11
-2.48974e-09
-2.80941e-08
-4.69528e-10
1.3533e-09
-2.02239e-08
-9.2441e-10
2.34011e-09
-8.74723e-09
-7.76366e-10
2.96234e-08
-5.45913e-10
3.35357e-08
-1.99927e-10
-1.43407e-10
5.14702e-10
-1.40806e-10
-1.52798e-10
1.06165e-10
1.37429e-11
-1.30563e-10
1.12878e-10
2.67518e-10
5.57673e-11
1.0481e-10
3.58874e-10
8.97017e-11
-1.10158e-10
3.33959e-10
5.70076e-11
-9.29489e-10
5.23391e-10
2.6042e-12
-1.03254e-09
1.42971e-10
9.50616e-12
-5.71449e-10
2.87462e-11
-2.02105e-10
-3.17139e-10
-2.39187e-10
-1.27239e-10
-3.71753e-10
-1.19838e-10
4.12656e-11
-3.38495e-10
-2.17852e-10
3.03004e-12
-1.71416e-10
-3.77445e-10
1.45932e-11
1.47418e-11
-9.26406e-11
3.39354e-11
1.10295e-10
4.07182e-11
7.83459e-12
7.65223e-11
8.48786e-11
-3.95674e-11
1.1679e-10
4.02096e-13
-1.42123e-10
1.07011e-10
8.29651e-11
-2.50535e-10
5.32593e-11
3.22975e-11
-1.32662e-10
-6.61537e-13
-4.32248e-10
-6.90257e-10
-5.91354e-11
-8.77431e-11
-1.34327e-09
-5.00182e-10
-2.0415e-10
-9.1589e-10
-3.92503e-09
-6.19495e-10
-1.35412e-10
-1.36342e-09
-6.40149e-10
5.19201e-11
1.33658e-11
-2.79683e-11
1.16918e-10
8.89294e-11
-1.74689e-11
1.64653e-10
3.05508e-10
1.02869e-11
4.43375e-11
2.08906e-10
-2.26016e-10
-2.06913e-11
2.38597e-10
-3.21991e-10
5.27709e-10
-4.3717e-10
-2.0201e-09
9.78763e-11
-2.85148e-10
-6.8477e-09
-2.83513e-09
-2.45156e-09
-4.90418e-09
-5.65784e-09
-5.32173e-09
-1.58521e-09
-5.4589e-09
-4.63939e-09
-2.7668e-12
-1.05061e-09
-1.54616e-09
1.04008e-11
1.04439e-10
-3.15466e-12
2.11513e-10
3.35551e-10
6.66239e-12
3.8005e-11
3.11679e-10
-1.08761e-10
-6.21348e-11
6.06454e-10
-8.2724e-11
1.31831e-09
-2.59446e-09
-8.11798e-09
2.5603e-10
-1.89508e-09
-6.72518e-09
-2.90979e-09
-5.48333e-09
-4.56905e-09
-6.12122e-09
-6.67378e-09
-2.54257e-09
-6.35028e-09
-5.10201e-09
-1.96064e-10
-2.98943e-09
-3.12843e-09
6.03753e-13
1.79839e-10
-4.20635e-10
1.81866e-10
1.65043e-10
8.97409e-11
2.41692e-10
8.25417e-10
1.07211e-10
-4.7651e-11
1.86287e-09
-2.19739e-10
1.38685e-09
-1.22236e-09
-5.98654e-09
4.5137e-10
-2.53362e-09
-4.98134e-09
-2.44067e-09
-5.526e-09
-3.27566e-09
-5.44423e-09
-7.20414e-09
-2.33201e-09
-6.25421e-09
-4.44837e-09
-3.73963e-10
-4.45755e-09
-1.69394e-09
1.42513e-10
1.48635e-10
5.83411e-11
1.09143e-10
1.38533e-10
1.08882e-10
2.35227e-10
1.03968e-09
6.19879e-10
-5.08381e-11
2.22321e-09
9.1239e-11
1.55531e-10
6.49451e-11
-3.48489e-09
3.65391e-10
-8.26777e-10
-3.00257e-09
-8.54105e-10
-2.88803e-09
-2.22498e-09
-2.87403e-09
-7.94754e-09
-1.57359e-09
-5.59221e-09
-4.46655e-09
-1.54716e-09
-4.08494e-09
-4.9028e-10
-4.13842e-13
-1.05509e-09
6.35481e-10
-8.80595e-12
2.12602e-10
1.89145e-10
2.84753e-11
3.72808e-10
9.60218e-10
-1.45423e-11
2.15112e-09
5.58599e-10
9.86244e-11
8.43768e-11
-1.58138e-09
4.45328e-10
-1.00219e-10
-4.99673e-10
-2.10304e-11
-3.20094e-10
-1.22628e-09
-5.60838e-10
-2.76183e-09
-3.88143e-10
-4.41463e-09
-4.62401e-09
-7.47142e-10
-1.74593e-09
-4.25939e-10
-4.50704e-10
-1.68178e-09
9.01949e-10
-1.43985e-10
2.42855e-10
2.12359e-10
-3.53387e-10
1.713e-10
4.52783e-10
-3.36131e-11
5.27026e-10
7.09085e-10
4.25145e-11
5.00127e-11
-2.16512e-10
-2.56894e-11
4.65079e-11
-8.59259e-12
-6.13933e-11
2.23682e-11
-3.71186e-10
-1.02249e-09
1.00553e-11
-2.88608e-10
-3.84965e-09
-2.91145e-09
-4.02934e-10
-9.74048e-10
-1.16431e-09
-1.25227e-09
2.11215e-10
-6.37256e-10
-3.58726e-10
6.7823e-11
8.33123e-11
-2.53218e-10
7.61041e-11
7.27009e-11
-3.18428e-11
1.5817e-10
8.99028e-11
6.70413e-12
5.74262e-12
-4.96673e-08
-4.0221e-08
-1.9033e-07
-3.02418e-08
-1.20872e-08
-2.01492e-07
-2.45797e-08
1.49875e-08
-2.01942e-07
-3.10846e-08
3.17562e-08
-1.93882e-07
-5.25509e-08
3.74787e-08
-1.7471e-07
-8.02397e-08
1.86016e-08
-1.51527e-07
-5.23661e-08
-9.88622e-08
-1.19122e-07
1.46222e-07
-3.66129e-07
-6.64003e-08
1.8267e-07
-1.55613e-07
-3.6725e-08
1.75883e-07
-1.18558e-07
-2.86543e-08
-8.41721e-08
-2.14401e-07
1.57955e-08
-3.70204e-08
-2.43821e-07
4.27048e-08
1.77602e-08
-2.54554e-07
3.2991e-08
7.76005e-08
-2.54951e-07
-3.06912e-08
1.22654e-07
-2.40089e-07
-1.707e-07
1.30332e-07
-2.15353e-07
-2.80796e-07
-1.45896e-07
-1.0482e-07
-8.55358e-09
-8.6549e-07
1.96268e-07
2.41029e-07
-4.43819e-07
1.7271e-07
4.61818e-07
-2.08038e-07
-3.42592e-08
-3.72299e-08
-2.30909e-07
-1.52562e-08
1.96246e-08
-2.9508e-07
2.54052e-09
7.71586e-08
-3.22521e-07
-1.92364e-08
1.68185e-07
-3.19445e-07
-1.66958e-07
2.95018e-07
-2.98292e-07
-4.37281e-07
3.56018e-07
-2.36522e-07
-5.78642e-07
-1.20223e-07
1.35687e-07
-3.75636e-07
-1.21255e-06
7.72971e-07
-2.18988e-08
-7.13742e-07
7.31672e-07
6.46686e-07
-2.0661e-07
6.89436e-10
1.09136e-07
-2.03103e-07
2.36921e-08
1.60829e-07
-2.88876e-07
3.319e-08
1.96756e-07
-3.55962e-07
1.37763e-08
2.98106e-07
-3.96762e-07
-1.03675e-07
4.73302e-07
-3.9464e-07
-2.84553e-07
5.72377e-07
-2.49925e-07
-2.54489e-07
1.03412e-08
1.95265e-07
-3.14121e-07
-1.09945e-06
7.46124e-07
-3.17079e-07
-5.79522e-07
6.41627e-07
8.13533e-07
-7.22942e-08
3.80045e-08
2.86831e-07
-3.19243e-07
1.24341e-07
4.13847e-07
-4.04928e-07
1.27419e-07
5.11266e-07
-4.49634e-07
1.32591e-07
5.91428e-07
-4.92013e-07
1.43428e-07
7.01808e-07
-4.96982e-07
1.70677e-07
7.47013e-07
-3.36338e-07
3.47592e-07
2.21723e-07
-1.93602e-08
2.02017e-07
-6.00462e-07
3.19995e-07
-2.55435e-07
-2.04088e-07
2.08117e-08
1.00166e-06
-1.67126e-07
-3.45623e-08
6.13709e-07
-6.81029e-07
9.91581e-08
6.87862e-07
-6.20681e-07
2.19823e-07
7.73467e-07
-5.31693e-07
3.35537e-07
8.31308e-07
-4.85712e-07
4.50229e-07
8.98776e-07
-4.33189e-07
5.54298e-07
9.30356e-07
-2.7243e-07
6.33949e-07
5.83807e-07
6.83398e-08
4.20287e-07
1.41632e-07
2.59277e-07
-1.52502e-07
4.60333e-07
-2.6056e-07
1.10281e-06
-3.88355e-07
-3.71476e-08
9.20747e-07
-1.39428e-06
9.40067e-08
9.55608e-07
-1.25168e-06
2.39135e-07
9.96987e-07
-1.12066e-06
3.87823e-07
1.06264e-06
-1.00234e-06
5.19382e-07
1.11576e-06
-7.03468e-07
6.52848e-07
1.09938e-06
-2.70908e-07
7.03353e-07
9.63507e-07
1.37429e-07
5.16422e-07
8.672e-07
2.01407e-07
-5.85368e-08
1.1797e-06
-2.1468e-07
1.30423e-06
-6.6135e-07
-1.71473e-07
3.78525e-07
-1.71455e-06
1.73548e-07
4.71213e-07
-1.83578e-06
5.23207e-07
6.75207e-07
-2.07122e-06
7.51159e-07
9.80422e-07
-2.1769e-06
8.20793e-07
1.31072e-06
-2.00616e-06
8.07973e-07
1.78104e-06
-1.42704e-06
6.87396e-07
1.66192e-06
-6.72495e-07
4.57385e-07
1.45735e-06
-2.54066e-07
8.32479e-08
1.60273e-06
-3.98251e-07
1.58008e-06
-6.30143e-07
-5.33392e-08
-1.72964e-09
7.13871e-08
-4.32418e-08
-4.87501e-09
6.07927e-08
-1.71141e-08
-2.09963e-10
7.95249e-09
8.0642e-08
-1.0669e-08
-1.50844e-07
3.27105e-07
-4.25551e-08
-5.02486e-07
6.71464e-07
5.66517e-08
-8.87836e-07
9.04372e-07
4.52373e-07
-8.83863e-07
7.08633e-07
8.26093e-07
-3.81928e-07
1.58734e-07
1.11767e-06
2.16047e-07
8.16952e-07
9.62017e-07
-3.89143e-10
-3.7587e-10
-1.92623e-09
-3.15751e-09
-7.97495e-10
-2.23634e-09
-4.48544e-09
-8.55258e-11
-2.36664e-09
-1.37678e-08
-1.52875e-10
-5.51003e-11
-2.99501e-08
1.71265e-09
-2.31747e-09
-6.13299e-08
1.13709e-08
2.23467e-08
-1.10768e-07
-6.61043e-09
8.00031e-08
-2.51119e-07
-9.91871e-09
4.0819e-07
-3.69705e-07
-2.69738e-08
1.10197e-06
-3.22296e-08
1.6551e-06
-1.962e-10
-4.17229e-10
2.41479e-10
-5.07752e-10
-6.97063e-10
5.98865e-10
-2.57868e-10
-1.26474e-10
3.75106e-10
-5.2846e-10
-5.29441e-11
7.80789e-11
-3.69553e-09
-5.6814e-11
2.54598e-11
3.70831e-09
1.24269e-09
3.2726e-09
2.36424e-09
3.74862e-10
1.75135e-09
-9.94563e-10
-3.26104e-10
6.90799e-10
-4.6264e-10
-3.16242e-10
2.80208e-09
-6.54823e-10
1.70675e-09
-7.28621e-10
-4.31904e-10
5.03315e-10
-2.00483e-10
-1.23857e-10
1.63437e-10
-1.29316e-10
-1.73771e-10
5.95934e-11
-5.12455e-11
-6.00307e-11
3.42008e-11
6.2426e-11
-3.15072e-11
-1.33132e-11
4.95677e-10
-1.65379e-11
-1.08311e-10
6.53818e-10
1.05926e-11
-7.93444e-10
4.51216e-10
6.86423e-11
-2.22675e-09
2.26236e-10
1.614e-11
-6.10429e-10
9.83577e-12
-3.41133e-10
-3.36483e-10
-7.94911e-12
-2.83159e-11
-3.59873e-10
-1.41304e-10
-7.3207e-11
-2.18357e-10
-3.03241e-10
-6.99608e-11
-6.70119e-11
-1.78881e-10
-2.77882e-11
2.22085e-11
-9.47997e-11
-2.28911e-11
6.5515e-11
-2.52957e-11
-5.89841e-11
1.13338e-10
-6.46071e-12
-1.77691e-10
1.61698e-10
5.83183e-11
-2.36744e-10
1.57298e-10
1.65125e-10
-1.45132e-10
1.06153e-10
-2.11321e-10
-5.50218e-10
1.06733e-10
-1.95758e-10
-1.58166e-09
-1.72779e-10
-4.29066e-10
-1.63338e-09
-3.39534e-09
-1.29366e-09
-3.99124e-10
-3.9184e-09
-9.15342e-10
-1.75662e-11
-3.98382e-10
-1.69496e-10
8.9776e-11
-1.19154e-11
-1.18589e-10
2.16561e-10
9.83465e-11
-4.77719e-10
1.86205e-10
1.6443e-10
-3.54424e-10
1.14522e-10
5.94938e-10
-5.06456e-10
2.28401e-10
-3.77998e-10
-1.51472e-09
4.89568e-10
-4.69659e-10
-6.20495e-09
-1.29907e-09
-3.68728e-09
-4.80916e-09
-4.55948e-09
-5.53698e-09
-2.24191e-09
-6.19149e-09
-4.78688e-09
-4.76844e-10
-3.38493e-09
-2.60699e-09
5.5709e-11
-3.05844e-11
-1.21672e-09
2.3481e-10
2.45225e-10
-6.23756e-10
3.0926e-10
3.00449e-10
-4.14984e-10
3.34483e-10
1.05658e-09
-4.92631e-10
1.05587e-09
-2.03421e-09
-4.33878e-09
8.73821e-10
-1.30108e-09
-4.2801e-09
-1.73833e-09
-4.91489e-09
-3.58356e-09
-5.8816e-09
-5.89881e-09
-2.81316e-09
-7.09912e-09
-4.82541e-09
-1.04928e-09
-4.47518e-09
-3.65388e-09
-3.34873e-13
-2.52329e-10
-1.389e-09
1.52032e-10
2.25283e-10
-1.68157e-10
2.66972e-10
4.20975e-10
-1.80242e-10
4.50687e-10
1.71963e-09
-3.57381e-10
9.40868e-10
-1.54079e-09
-9.43149e-10
7.69013e-10
-5.95845e-10
-1.84061e-09
-3.07928e-10
-4.81857e-10
-2.67734e-09
-6.2863e-09
-5.42042e-09
-2.84946e-09
-7.10082e-09
-4.14752e-09
-2.1568e-09
-5.15948e-09
-1.56284e-09
-4.18162e-11
-5.51182e-10
-2.62337e-10
-1.51667e-11
1.68106e-10
4.35551e-11
4.62995e-10
7.29481e-10
5.67319e-10
2.24796e-10
1.91869e-09
2.9291e-10
1.23456e-10
-2.94136e-11
-1.19087e-10
9.50496e-11
-5.4176e-11
-6.3417e-10
1.63029e-11
-2.51237e-10
-1.74195e-09
-5.11243e-09
-6.9564e-09
-2.66799e-09
-6.81811e-09
-3.68375e-09
-2.12281e-09
-5.83095e-09
-1.8619e-10
-4.37117e-11
-1.04409e-10
3.77701e-10
2.14112e-12
1.51599e-10
9.78267e-11
1.37409e-10
1.36562e-09
1.55653e-09
-1.32278e-11
2.00897e-09
8.37711e-10
9.40692e-11
9.54487e-11
1.58016e-12
2.307e-11
-2.74915e-11
1.27059e-10
4.35544e-11
-4.36151e-10
-4.37545e-10
-2.64212e-09
-6.97611e-09
-1.93146e-09
-6.09248e-09
-3.68015e-09
-7.88859e-10
-4.85862e-09
1.50373e-10
-1.26594e-10
-4.76142e-11
1.44633e-10
-1.10568e-10
1.66773e-10
1.26558e-10
-3.4675e-10
7.7521e-10
1.06673e-09
-3.38078e-11
1.84208e-09
9.47997e-10
5.2833e-11
4.58048e-11
1.00297e-11
-2.48968e-11
1.7471e-11
3.77073e-10
-4.81378e-10
9.98473e-11
4.87095e-10
-5.39412e-09
-1.96127e-10
-1.45499e-09
-2.9935e-09
-4.74359e-09
-5.42436e-10
-6.07866e-11
-3.17807e-09
-4.71979e-10
9.47184e-11
-2.83725e-11
-1.54518e-10
1.81531e-10
2.10732e-10
-5.35475e-10
3.51118e-10
1.60548e-10
-3.43115e-11
4.73684e-10
2.35774e-10
6.43045e-12
1.81115e-11
-5.4642e-08
-4.34694e-08
-1.8539e-07
-2.04413e-08
-3.13473e-08
-2.04345e-07
2.15339e-09
-5.90366e-09
-2.18634e-07
9.26559e-09
1.62311e-08
-2.17225e-07
4.51282e-10
2.8633e-08
-1.94528e-07
-1.39372e-08
1.97692e-08
-1.56908e-07
1.07817e-08
-3.91505e-08
-1.04691e-07
1.46939e-07
-1.85528e-07
-1.70303e-08
1.41474e-07
-2.57503e-08
-5.50992e-09
1.55142e-07
-1.32225e-07
-4.05457e-08
-1.09165e-07
-1.92753e-07
1.48568e-08
-9.30118e-08
-2.37559e-07
6.47654e-08
-3.81396e-08
-2.72227e-07
8.208e-08
2.68799e-08
-2.82915e-07
5.52721e-08
8.19039e-08
-2.66552e-07
-1.63981e-08
9.70792e-08
-2.20992e-07
-4.01613e-08
1.58717e-09
-1.21794e-07
1.9975e-07
-3.47354e-07
1.18183e-07
2.53451e-07
3.48489e-08
5.84101e-08
4.27094e-07
-2.26539e-07
-3.76347e-08
-1.05177e-07
-2.84996e-07
1.0546e-08
-1.11367e-07
-3.24906e-07
5.89755e-08
-4.69945e-08
-3.62096e-07
6.26295e-08
7.06787e-08
-3.66898e-07
-1.64388e-08
1.90979e-07
-3.28299e-07
-1.92416e-07
2.71497e-07
-2.34963e-07
-2.64714e-07
1.70355e-07
3.92167e-08
4.16831e-08
-4.43579e-07
5.62804e-07
2.2787e-07
1.82621e-07
3.97778e-07
7.19969e-07
-2.71613e-07
6.7469e-09
2.94741e-08
-4.4943e-07
6.83957e-08
-1.74449e-08
-4.44448e-07
1.08165e-07
2.47841e-08
-4.6751e-07
1.12221e-07
1.4584e-07
-4.7598e-07
1.86881e-08
3.27748e-07
-4.37876e-07
-1.3603e-07
4.7091e-07
-2.9462e-07
-7.66765e-08
2.68525e-07
3.77397e-08
7.72519e-10
-3.32568e-07
5.57651e-07
3.41813e-09
4.22926e-07
3.98676e-07
9.95536e-07
-3.44442e-07
5.92396e-08
2.05696e-07
-7.21962e-07
1.70445e-07
1.34066e-07
-6.67641e-07
2.10097e-07
1.83804e-07
-6.48306e-07
2.06563e-07
3.33075e-07
-6.75715e-07
1.79088e-07
4.97954e-07
-6.39714e-07
1.768e-07
6.12592e-07
-4.75733e-07
2.64036e-07
3.59852e-07
-1.97923e-07
1.4447e-07
-1.46645e-08
1.21806e-07
-1.45634e-07
8.05182e-07
-7.13375e-08
1.23903e-06
-5.56256e-07
9.66431e-08
4.44817e-07
-1.15237e-06
2.22993e-07
3.89261e-07
-1.00223e-06
2.88533e-07
4.57247e-07
-8.70675e-07
3.57983e-07
5.7184e-07
-7.93927e-07
4.16112e-07
6.97048e-07
-6.90413e-07
4.68747e-07
8.04248e-07
-5.16721e-07
4.42687e-07
7.02242e-07
-2.47988e-07
2.09767e-07
6.24906e-07
-1.46738e-07
-2.32199e-07
1.42691e-06
-4.40323e-07
1.38327e-06
-7.64796e-07
6.2132e-08
3.92673e-07
-1.71168e-06
2.19843e-07
4.35354e-07
-1.49381e-06
3.42899e-07
5.65779e-07
-1.35225e-06
4.43562e-07
7.54455e-07
-1.28562e-06
5.20859e-07
9.52203e-07
-1.03592e-06
5.79911e-07
1.09402e-06
-6.19732e-07
5.27265e-07
1.10629e-06
-2.13972e-07
3.22072e-07
1.20194e-06
-1.70435e-07
4.92338e-09
1.92027e-06
-3.90888e-07
1.75978e-06
-1.03293e-06
-1.77013e-07
7.93098e-09
-1.44414e-06
7.22357e-08
5.13282e-08
-1.64648e-06
4.16868e-07
1.68162e-07
-1.97242e-06
7.58267e-07
4.02875e-07
-2.34881e-06
9.76596e-07
7.44961e-07
-2.372e-06
1.05642e-06
1.1327e-06
-2.01624e-06
9.21028e-07
1.47121e-06
-1.30521e-06
5.98086e-07
1.63011e-06
-7.2606e-07
3.81131e-07
2.15142e-06
-5.26514e-07
2.23677e-06
-9.60578e-07
-1.52222e-08
3.86496e-09
-9.0097e-13
-1.27196e-08
4.22062e-09
-2.86465e-12
-1.29842e-08
4.17e-09
-2.55916e-11
1.47244e-08
-4.04337e-10
-1.04447e-09
1.92889e-07
5.00602e-09
-1.74002e-07
6.09864e-07
-1.50273e-08
-5.25499e-07
1.07668e-06
-5.15007e-08
-7.95803e-07
1.07679e-06
2.39119e-07
-6.42003e-07
6.54041e-07
8.47306e-07
3.58313e-08
1.37478e-06
8.11841e-07
-4.07019e-09
-1.08444e-09
5.37254e-10
-2.07316e-09
-8.47365e-10
4.38525e-10
-9.19272e-12
-4.26611e-10
6.2814e-11
-4.59341e-10
-1.76631e-10
5.21713e-12
9.94914e-10
-3.09543e-10
1.18388e-09
1.93606e-09
-1.77392e-09
2.04837e-09
-1.46634e-08
1.40402e-08
9.19817e-09
-7.83108e-08
6.14736e-09
3.88012e-08
-1.58983e-07
-5.99699e-09
3.40398e-07
2.42066e-08
8.80237e-07
-5.12818e-10
-2.50096e-10
3.54966e-10
-4.58364e-10
-4.19805e-10
3.91382e-10
-2.22104e-10
-5.19191e-10
2.71709e-10
-6.52693e-11
-2.64986e-10
7.41442e-11
-1.79436e-10
-1.7029e-10
4.8164e-11
9.60918e-10
-2.48845e-11
2.60099e-10
9.36517e-09
1.26555e-09
4.49322e-09
1.21773e-08
4.05904e-09
1.56726e-08
1.73976e-09
-2.28407e-09
1.63127e-08
-1.18188e-09
3.12464e-08
-9.32868e-10
-3.24259e-11
2.97371e-10
-5.21391e-10
-4.58721e-11
1.05094e-10
-4.02381e-10
5.00087e-11
4.18935e-11
-1.7983e-10
-1.76327e-11
2.32585e-11
-7.05053e-11
-2.73767e-11
-5.18886e-12
-1.24412e-10
-1.64467e-10
-4.71534e-11
4.92013e-10
-2.24359e-10
-1.00742e-10
2.80129e-09
-3.41608e-10
-3.54028e-10
7.96383e-10
-3.05828e-10
-2.70673e-10
-7.58581e-11
-4.70732e-10
-3.87933e-10
1.27281e-10
-5.68176e-12
-2.91569e-10
-1.35391e-10
-7.40673e-11
-1.52553e-10
-5.63449e-11
-7.67041e-11
-1.08596e-10
4.01465e-12
-5.63624e-11
-9.51752e-11
-1.34086e-11
-1.00299e-10
-6.61428e-11
-3.58527e-10
-3.74956e-10
1.2301e-10
-8.79812e-10
-8.62213e-10
2.97271e-10
-1.26434e-10
-7.01586e-10
1.53719e-10
1.64165e-10
-4.31727e-10
2.55756e-10
-3.21678e-10
-1.26414e-09
3.29781e-10
-4.40292e-10
-2.29039e-09
-1.29692e-09
-1.49796e-09
-1.56202e-09
-2.88621e-09
-1.36028e-09
-3.96085e-10
-2.36771e-09
-2.39509e-10
-3.73236e-10
-2.56683e-10
-5.26238e-10
-3.29425e-10
-1.1126e-09
-2.13585e-09
4.59784e-10
-1.75484e-09
-3.21772e-09
5.04942e-10
-3.01153e-10
-3.12003e-09
1.55202e-10
1.06331e-09
-5.33595e-10
3.15439e-10
-3.16571e-10
-3.95383e-09
6.25396e-10
-1.13668e-09
-3.72471e-09
-1.44894e-09
-4.32491e-09
-3.72851e-09
-4.1909e-09
-4.29879e-09
-2.42153e-09
-5.19552e-09
-3.24988e-09
-1.53481e-09
-2.81581e-09
-1.53943e-09
-7.47372e-10
-1.79612e-09
-2.11854e-09
-2.10854e-10
-1.09916e-09
-2.84236e-09
2.41436e-10
-2.49976e-10
-2.73863e-09
3.47836e-11
1.85264e-09
-1.42795e-09
1.37106e-09
-2.65009e-10
-9.14096e-10
2.03789e-10
-8.42471e-10
-1.01302e-09
-8.05526e-11
-1.05042e-10
-2.31233e-09
-1.71256e-09
-1.40092e-09
-2.23038e-09
-6.77329e-09
-3.18125e-09
-1.51423e-09
-5.27173e-09
-1.48895e-09
-4.83305e-10
-2.01107e-10
-2.5904e-10
-1.78265e-10
-1.54379e-10
-5.2561e-10
-2.55569e-10
3.73073e-10
-1.67507e-09
-1.25373e-10
8.79634e-10
-1.23825e-09
2.20397e-10
-1.30939e-09
-1.74297e-11
4.34013e-11
-6.10721e-11
-3.94101e-10
-2.51849e-11
-1.91908e-10
-1.85264e-09
-2.38959e-09
-1.8739e-09
-2.79862e-09
-6.938e-09
-2.89736e-09
-4.96045e-10
-3.85439e-09
-1.95389e-10
-2.98505e-10
-8.36171e-11
-1.59659e-10
-4.10791e-10
8.17909e-11
-1.64845e-10
-2.83647e-10
5.39783e-10
-2.13131e-10
-1.83312e-10
1.82586e-10
-2.61126e-10
1.1029e-10
-2.668e-10
5.50183e-12
1.78269e-11
-3.96128e-11
-7.2245e-11
7.44597e-13
-2.79186e-10
-1.4683e-09
-5.28367e-09
-6.76463e-09
-3.05383e-09
-6.72812e-09
-2.13277e-09
-5.78988e-10
-1.6957e-09
1.74168e-11
-2.63743e-10
-2.11455e-11
-2.07631e-11
-4.93905e-10
1.42628e-10
4.39762e-11
-4.95172e-10
2.76791e-10
5.04031e-10
-8.85501e-11
3.08382e-10
4.35509e-10
3.1881e-11
7.89309e-11
3.18215e-11
2.02998e-11
-5.50411e-11
2.97925e-10
1.18796e-10
-1.06151e-09
-1.02215e-09
-4.50701e-09
-6.44218e-09
-3.21501e-09
-6.67153e-09
-1.5054e-09
-3.01762e-10
-1.04225e-09
2.76208e-10
-2.75766e-10
3.39262e-12
7.3637e-11
-3.04525e-10
1.42155e-10
1.17535e-10
-4.54135e-10
2.45984e-10
6.63325e-10
-3.81665e-11
3.25761e-10
4.37361e-10
1.63327e-11
1.72266e-11
7.80394e-11
-9.34429e-11
2.74409e-11
8.71129e-10
-2.8871e-09
3.76829e-10
-6.09531e-10
-5.51082e-09
-2.84108e-09
-2.50664e-09
-1.47577e-09
-6.06213e-09
-2.74294e-10
5.09338e-10
-7.63408e-10
-3.07853e-10
1.08013e-10
1.06839e-12
-2.77182e-10
1.29972e-10
1.42362e-10
-2.46096e-10
3.1593e-10
1.99859e-10
-2.61927e-11
3.24925e-10
1.25359e-10
1.79028e-11
-2.23906e-11
-6.79782e-08
-5.39913e-09
-2.15955e-07
-2.36368e-08
-2.92388e-08
-2.19448e-07
1.74497e-08
-2.51558e-08
-2.34564e-07
4.31323e-08
-9.98743e-09
-2.32921e-07
5.06022e-08
1.02725e-08
-2.12271e-07
5.01027e-08