/*--------------------------------*- C++ -*----------------------------------*\
| =========                 |                                                 |
| \\      /  F ield         | OpenFOAM: The Open Source CFD Toolbox           |
|  \\    /   O peration     | Version:  2312                                  |
|   \\  /    A nd           | Website:  www.openfoam.com                      |
|    \\/     M anipulation  |                                                 |
\*---------------------------------------------------------------------------*/
FoamFile
{
    version     2.0;
    format      ascii;
    arch        "LSB;label=32;scalar=64";
    class       volScalarField;
    location    "1";
    object      alpha.water;
}
// * * * * * * * * * * * * * * * * * * * * * * * * * * * * * * * * * * * * * //

dimensions      [0 0 0 0 0 0 0];

internalField   nonuniform List<scalar> 
8000
(
1
1
1
1
1
1
1
1
1
1
1
1
1
1
1
1
1
1
1
1
1
1
1
1
1
1
1
1
1
1
1
1
1
1
1
1
1
0.999997
0.999999
0.999998
1
1
1
1
1
1
1
0.99961
0.992463
0.988961
1
1
1
1
1
1
1
1
0.979371
0.978163
0.99664
1
1
1
1
1
1
1
0.994173
0.978319
0.963117
0.979593
0.996336
1
1
1
1
1
0.998771
0.986081
0.37414
0.395162
0.455177
0.573902
0.726408
0.861686
0.947497
0.997085
0.998692
0.989682
3.97853e-05
6.63803e-05
0.00448195
0.0334964
0.122731
0.300331
0.500375
0.683647
0.86029
0.948944
0.000163047
7.46205e-05
3.41756e-05
3.36867e-05
5.17153e-05
0.00440848
0.0243858
0.0481853
0.0904252
0.130006
0.00013275
3.9774e-05
3.30928e-05
3.24592e-05
3.17657e-05
2.91291e-05
3.75803e-05
3.93798e-05
4.14336e-05
4.38399e-05
3.06832e-05
3.12551e-05
3.23108e-05
3.11827e-05
2.86772e-05
1.84456e-05
3.82405e-05
5.23919e-05
4.02722e-05
8.55053e-05
3.12551e-05
3.33241e-05
3.33167e-05
2.90444e-05
2.79354e-05
1.57607e-05
1.81648e-05
5.36433e-05
5.07407e-05
0.000327329
0.000119865
0.000288141
0.000319614
8.49184e-05
1.57607e-05
1.54175e-05
1.51439e-05
3.24366e-05
6.14888e-05
0.000395226
0.000792814
0.000793858
0.00079544
0.000628088
0.000124428
1.51329e-05
1.51123e-05
1.47846e-05
8.59872e-05
0.000280164
0.000793858
0.000795423
0.000796572
0.000797723
0.000482098
0.000116737
1.47846e-05
1.37817e-05
6.93752e-05
2.06999e-05
0.000791369
0.000793858
0.000795424
0.000795847
0.00064594
0.000520204
0.000146028
1.30917e-05
2.12602e-05
1.21694e-05
0.000205834
0.000273571
0.000379397
0.000654947
0.000645242
0.000622515
0.00051897
1.26954e-05
1.2093e-05
1.20235e-05
2.8408e-05
6.27108e-05
0.000254629
0.000440916
0.000576048
0.000611282
0.000533897
3.29711e-05
1.20235e-05
1.20235e-05
1
1
1
1
1
1
1
1
1
1
1
1
1
1
1
1
1
1
1
1
1
1
1
1
1
1
0.999993
0.999894
0.999998
0.999993
1
1
1
1
1
1
1
0.999223
0.994813
0.999998
1
1
1
1
1
1
1
0.999862
0.989991
0.999592
1
1
1
1
1
1
1
0.999856
0.993812
0.999328
1
1
1
1
1
1
1
0.999989
1
1
0.91099
0.932668
0.957581
0.983911
1
1
1
1
1
1
0.229576
0.245602
0.288912
0.381717
0.523699
0.692293
0.822214
0.924874
0.978697
0.992426
5.44858e-05
6.64886e-05
0.000256617
0.00398662
0.0417226
0.135779
0.277646
0.44613
0.595051
0.753484
0.000153336
3.19435e-05
3.81536e-05
6.64666e-05
0.000111702
7.79274e-05
0.000105758
0.00119083
0.0019121
4.68658e-05
0.00010326
3.14104e-05
3.19814e-05
3.3202e-05
3.53098e-05
5.82474e-05
0.000115884
3.3422e-05
3.69736e-05
4.22456e-05
3.08651e-05
3.07822e-05
3.2513e-05
2.91518e-05
2.30491e-05
2.1313e-05
3.85745e-05
3.19546e-05
3.46957e-05
6.45037e-05
3.06766e-05
5.17135e-05
0.000134407
7.81482e-05
2.28588e-05
1.72979e-05
4.87843e-05
3.12778e-05
4.20466e-05
0.000137731
5.2366e-05
0.000577298
0.000790353
0.000657586
9.93159e-05
2.05291e-05
5.77271e-05
3.13677e-05
3.66622e-05
0.000405874
0.000494529
0.000793132
0.000795439
0.000797725
0.000710539
2.87841e-05
1.61593e-05
4.07442e-05
0.000186244
0.000415515
0.000791388
0.000795008
0.000797721
0.000797722
0.00079772
0.00014726
1.66521e-05
9.70402e-05
0.000227334
0.000132966
0.000708262
0.00070099
0.000794866
0.00079772
0.00079067
0.000307836
3.05096e-05
6.96262e-05
0.000226651
1.29882e-05
0.000638003
0.000173835
0.000221955
0.000794861
0.000200348
0.000473879
8.85165e-05
2.1071e-05
0.000176674
1.20636e-05
0.000209691
2.89677e-05
7.34522e-05
0.00048437
0.000172281
0.000167163
0.000320474
1.2736e-05
1.39578e-05
1.20235e-05
1
1
1
1
1
1
1
1
1
1
1
1
1
1
1
1
1
1
1
1
1
1
1
1
1
1
0.999999
0.999985
0.999899
1
1
1
1
1
1
0.999999
0.999993
0.999887
0.99921
0.999984
0.999999
1
1
1
1
1
1
0.999452
0.999964
0.999992
1
1
1
1
1
1
1
0.997396
0.999927
1
1
1
1
1
1
1
1
0.999918
0.999999
1
0.674412
0.732225
0.814028
0.891455
0.958337
1
1
1
1
1
0.0656509
0.0742585
0.0983893
0.143659
0.233154
0.393386
0.584802
0.751294
0.870829
0.9033
4.84849e-05
5.09998e-05
7.56102e-05
1.46393e-05
0.000830529
0.0125957
0.0758912
0.208246
0.383688
0.514953
9.60671e-05
0.000257913
0.000260227
3.53199e-05
3.19493e-05
0.00010576
0.000168004
0.0001341
9.43343e-05
5.61337e-05
0.000191427
4.97172e-05
3.46144e-05
4.0149e-05
2.97924e-05
2.60013e-05
3.08216e-05
7.68708e-05
0.00010041
4.68762e-05
0.000101874
3.2513e-05
3.07726e-05
2.60428e-05
2.60013e-05
2.42026e-05
2.60013e-05
3.04443e-05
4.13118e-05
4.77331e-05
3.50775e-05
7.10792e-05
0.000235364
0.000237705
2.80937e-05
1.95989e-05
3.59836e-05
3.25395e-05
0.000110345
5.09626e-05
6.00835e-05
0.000550165
0.000779637
0.000793016
0.000483623
6.94058e-05
4.86476e-05
3.15305e-05
0.000144359
0.000366929
0.00024082
0.000787487
0.000793019
0.000795879
0.000792985
0.000356325
4.02568e-05
3.79859e-05
0.00018549
0.000439298
0.000164295
0.000460738
0.000787831
0.00079772
0.000795877
0.000655507
2.12054e-05
3.70502e-05
0.000230125
0.000203381
3.14753e-06
1.80194e-05
0.000715234
0.000795877
0.000792452
0.000343469
2.18576e-05
0.000105608
0.000228054
1.36433e-05
2.2619e-06
3.14715e-06
0.000642711
0.000792452
0.000657608
2.38524e-05
2.22234e-05
0.000123248
0.000225521
1.28278e-05
2.06562e-06
2.26011e-06
0.000482584
0.000787037
0.000411477
2.33403e-05
3.41433e-05
4.65094e-05
0.000131781
1.20636e-05
1
1
1
1
1
1
1
1
1
1
1
1
1
1
1
1
1
1
1
1
1
1
1
1
1
1
0.999999
0.999993
0.999989
1
0.999998
1
1
1
1
1
0.999983
0.999985
1
1
0.99998
0.999998
1
1
1
0.999999
0.999987
0.999985
1
1
1
1
1
1
1
1
1
0.999963
1
1
0.996277
0.999999
1
1
1
1
1
1
1
1
0.395915
0.467532
0.59292
0.740021
0.854678
0.934633
0.989046
0.998784
1
0.997229
0.00310708
0.00526133
0.0121833
0.0275845
0.0677455
0.150517
0.281748
0.457648
0.661379
0.801432
2.52526e-05
1.52716e-05
6.1974e-06
6.82964e-06
1.02644e-05
0.000368231
0.00182188
0.0322807
0.16152
0.290312
3.54808e-05
0.000155863
0.00016706
6.76019e-05
5.3338e-06
1.79928e-05
0.000144875
0.000315155
0.000345452
0.000139039
0.000161032
8.9196e-05
7.50809e-05
7.29867e-05
2.59291e-05
2.54508e-05
2.94086e-05
8.01269e-05
6.85615e-05
5.61508e-05
5.54052e-05
3.35332e-05
2.9584e-05
2.27859e-05
2.67091e-05
3.95997e-05
7.63656e-05
5.65549e-05
5.1496e-05
5.09552e-05
8.63277e-05
0.000266154
0.000317434
0.000129507
6.00401e-05
0.000250958
0.000378748
0.0003367
0.000109269
5.29577e-05
0.000270795
0.00071697
0.000765411
0.000779694
0.000480687
0.000377547
0.000396544
0.000400042
0.000445178
0.000171259
0.000182325
0.000279222
0.000426787
0.000792985
0.000775258
0.000162908
8.58344e-05
0.00033105
0.000505119
0.000454049
7.44204e-06
7.34636e-06
8.87213e-05
0.000795877
0.000570318
2.6586e-05
7.3469e-05
0.000306993
0.000237582
0.000256583
2.8952e-06
5.6727e-06
0.000605979
0.000792477
0.00029045
2.47933e-05
5.10557e-05
0.000239622
0.000117072
1.25337e-05
2.40273e-06
1.57847e-05
0.000815593
0.000799899
0.000145452
2.35121e-05
2.38524e-05
8.71094e-05
0.000132141
1.23399e-05
2.24766e-06
8.3814e-05
0.000820007
0.000802393
0.000114662
2.32013e-05
2.35121e-05
2.58181e-05
3.42324e-05
1.21436e-05
1
1
1
1
1
1
1
1
1
1
1
1
1
1
1
1
1
1
1
1
1
1
1
1
1
1
1
0.999999
1
1
1
1
1
1
1
1
0.999998
0.999994
0.999999
1
0.999976
0.999994
1
1
1
1
0.999997
0.999998
1
1
0.999999
0.999999
1
1
1
1
1
1
1
1
0.972655
0.982929
0.995587
0.999913
1
1
1
1
1
1
0.286918
0.343811
0.44748
0.610129
0.753169
0.844097
0.905677
0.932987
0.949601
0.953946
1.59658e-06
1.56587e-06
1.67328e-06
4.5199e-06
0.0152325
0.0604971
0.127308
0.21127
0.400442
0.62613
1.5627e-05
1.4033e-05
4.37487e-06
2.35295e-06
2.45508e-06
5.788e-06
0.000201624
0.00155481
0.0165574
0.0977853
2.37566e-05
2.1517e-05
1.51746e-05
1.22285e-05
2.96109e-06
5.32975e-06
2.26139e-05
0.000158514
0.000513766
0.000500419
2.36254e-05
2.13848e-05
1.89989e-05
2.45052e-05
1.75188e-05
1.84671e-05
3.04666e-05
4.19807e-05
9.46511e-05
9.12294e-05
2.98429e-05
6.10944e-05
3.54905e-05
1.73971e-05
5.67344e-05
0.00026017
0.000369992
0.000285305
8.09349e-05
5.76167e-05
0.000320188
0.000455056
0.000255724
2.24515e-05
0.000144488
0.000508908
0.000518858
0.000516833
0.00013275
5.48486e-05
0.000433711
0.000446149
0.000241557
0.000160923
6.09579e-05
0.000153235
0.000456582
0.000519875
0.000515915
5.78825e-05
6.42941e-05
5.09198e-06
6.38195e-06
0.000336457
2.90341e-05
2.0458e-05
5.5746e-05
0.000512094
0.000509195
0.000231166
4.52045e-06
5.99836e-06
8.36015e-05
0.000346202
2.39376e-05
2.20675e-05
3.27251e-05
0.000350268
0.000505358
0.000506404
3.55954e-06
4.69838e-05
0.0007977
0.000666159
2.75297e-05
2.53401e-05
3.04617e-05
0.000219537
0.000495406
0.00021579
2.97814e-06
0.000422007
0.000820007
0.00077248
2.79913e-05
2.47933e-05
3.96921e-05
0.000205706
0.00017133
1.35727e-05
3.1491e-06
0.00072461
0.000822008
0.000820894
0.000167657
2.35121e-05
2.58181e-05
0.000124652
0.00020265
0.000162896
1
1
1
1
1
1
1
1
1
1
1
1
1
1
1
1
1
1
1
1
1
1
1
1
1
1
1
1
1
1
1
1
1
1
1
1
1
1
1
1
0.999987
1
1
1
1
1
1
1
1
1
0.99999
0.999997
0.999998
0.999999
1
1
1
1
1
1
0.966641
0.977172
0.991894
0.999511
0.999989
0.999984
1
1
1
1
0.288092
0.334704
0.43018
0.569229
0.713427
0.785387
0.824881
0.851553
0.866115
0.885194
1.47433e-06
1.59658e-06
1.91883e-06
2.25732e-06
0.00274067
0.031619
0.063276
0.097402
0.202932
0.399278
1.59658e-06
1.91883e-06
2.24042e-06
2.33605e-06
2.35294e-06
2.45403e-06
5.61988e-06
0.000199449
0.00186142
0.00971773
2.10501e-06
2.29444e-06
2.336e-06
2.35293e-06
2.45529e-06
2.96069e-06
6.10932e-06
2.3471e-05
0.000225159
0.000428923
2.58575e-05
2.17585e-05
4.85922e-06
2.91114e-06
1.07207e-05
3.68891e-05
5.77955e-05
6.68306e-05
8.39249e-05
9.37359e-05
0.000306204
0.000309909
0.000114656
4.35842e-06
7.23922e-05
0.000383379
0.000462218
0.000367412
7.46606e-05
6.74534e-05
0.000339893
0.000414763
0.000217692
3.67768e-05
7.89893e-05
0.00038738
0.000514818
0.00054161
0.000229617
5.95257e-05
3.38055e-05
2.42332e-05
1.12112e-05
2.31211e-05
1.98394e-05
2.03671e-05
4.20447e-05
0.000372556
0.000512044
6.93673e-05
2.94687e-06
3.6134e-06
5.09198e-06
1.27809e-05
1.94608e-05
1.98789e-05
2.0458e-05
6.6557e-05
0.000507948
6.03179e-05
2.88724e-06
5.09191e-06
3.50736e-05
7.6042e-05
1.98789e-05
2.0458e-05
2.20675e-05
6.81218e-05
0.000282327
0.000147648
1.06276e-05
0.000123172
0.000590527
0.000755069
4.23973e-05
2.21124e-05
2.81939e-05
7.04295e-05
0.000187319
0.000304862
4.96681e-05
0.000818819
0.000821953
0.000819248
0.000408479
2.53401e-05
4.0061e-05
0.000263156
0.00030486
0.000305392
0.000142015
0.000821953
0.000822375
0.000823628
0.000742436
2.62071e-05
4.39907e-05
0.000302964
0.000303046
0.00030486
1
1
1
1
1
1
1
1
1
1
1
1
0.999999
0.999999
1
1
1
1
1
1
1
1
0.999995
1
1
1
1
1
1
1
0.999999
1
0.999999
1
1
1
1
1
1
1
0.999999
1
0.999999
1
1
1
1
1
1
1
0.99999
0.99999
0.999992
0.999997
0.999999
1
1
1
1
1
0.974385
0.981735
0.993586
0.99979
0.999947
0.999989
1
1
1
1
0.334405
0.374267
0.463521
0.599929
0.728387
0.773949
0.771006
0.774071
0.775736
0.800308
1.45884e-06
1.85606e-06
3.12606e-06
2.36222e-06
0.00841513
0.0266783
0.034459
0.0461113
0.106819
0.218757
1.90821e-06
2.29444e-06
2.33605e-06
2.35295e-06
2.35461e-06
2.41417e-06
2.77911e-06
6.41302e-06
0.000933095
0.00234473
2.78807e-05
1.91278e-05
2.99677e-06
2.3622e-06
2.41409e-06
2.78095e-06
1.07096e-05
0.000154909
0.000163802
0.000258595
0.000134528
0.0002146
0.000102558
3.00566e-06
2.5171e-05
6.20703e-05
6.37346e-05
0.000174197
7.74248e-05
7.03643e-05
0.000131412
0.000288387
0.000257355
5.15924e-05
9.24521e-05
0.000404791
0.000392851
0.000218906
7.02675e-05
5.94667e-05
2.98365e-06
7.69878e-05
9.77474e-05
8.54851e-05
7.28364e-05
0.000325173
0.000538623
0.000577855
0.000369986
6.74714e-05
2.42738e-06
2.98365e-06
7.9547e-06
1.55674e-05
2.92966e-05
2.29482e-05
4.05772e-05
0.000132355
0.000523252
0.00010551
2.61022e-06
4.91522e-06
1.2528e-05
2.06372e-05
1.98789e-05
2.0458e-05
2.38361e-05
3.36365e-05
8.84143e-05
6.06754e-05
2.38465e-05
1.13761e-05
2.46442e-05
0.00015932
0.000111985
3.21824e-05
4.78041e-05
0.000254876
6.47827e-05
6.2148e-05
5.59898e-05
6.55931e-05
0.000165944
0.000698384
0.000431581
0.00011475
0.000219493
0.000296247
0.000218338
0.000158664
0.000172015
0.000561411
0.000627991
0.000614936
0.000509036
0.000193102
0.000296234
0.000299466
0.000302262
0.00030486
0.000226108
0.00081307
0.000821955
0.000161398
0.000132988
6.99226e-05
0.000263977
0.000301129
0.000302964
0.00018695
1
1
1
1
1
1
1
1
1
1
1
0.999993
0.999985
1
1
1
1
1
1
1
1
0.999995
0.999982
0.999997
0.999998
0.999991
0.999999
1
1
1
0.999995
0.999997
0.999992
0.999999
0.999985
0.999963
1
1
1
1
0.999992
0.999997
0.999992
0.999999
0.999998
1
1
1
1
1
0.999976
0.999981
0.999979
0.999994
0.999997
0.999998
1
1
1
1
0.985646
0.990185
0.996976
0.999786
0.999911
0.999965
0.999998
1
1
1
0.399
0.436151
0.516093
0.652999
0.762294
0.783633
0.754734
0.720898
0.697245
0.732079
1.60604e-06
3.51458e-06
1.3795e-05
5.12421e-06
0.0243068
0.0330173
0.0252422
0.0200531
0.054186
0.12546
3.07728e-06
4.45905e-06
3.41179e-06
2.36219e-06
2.41417e-06
2.78124e-06
3.83009e-06
6.53553e-06
0.000301749
0.00139465
2.42795e-05
0.000197131
0.000192146
1.91765e-05
2.79052e-06
3.83012e-06
2.42174e-05
0.000335588
0.00023714
0.000177718
3.13928e-05
0.000342407
0.000370159
0.000104689
1.39422e-05
4.27535e-05
7.76103e-05
0.000207513
7.37884e-05
5.94631e-05
3.601e-06
0.000112877
0.000211625
0.000120565
0.000142906
0.000444524
0.00042903
0.000208001
6.40558e-05
5.17885e-05
3.47854e-06
1.33691e-05
2.15035e-05
3.92814e-05
0.000140842
0.000519308
0.000577855
0.00059304
0.00053742
6.36909e-05
2.56434e-06
9.62326e-05
7.80808e-05
6.8874e-05
3.82018e-05
6.85448e-05
0.000273554
0.000461912
0.000535562
0.000132953
6.41832e-05
0.00017414
0.000131604
0.000131177
0.000211005
9.76342e-05
3.36365e-05
5.15209e-05
7.11081e-05
0.000114733
0.000182306
4.91167e-05
3.74552e-05
0.000148624
0.000385561
0.000360027
0.000135316
5.61064e-05
7.46299e-05
0.00020406
9.51716e-05
2.28809e-05
2.72571e-05
0.000115407
0.000424982
0.000365657
0.000173401
0.000127607
8.757e-05
0.000555142
1.84653e-05
1.96233e-05
4.73064e-05
6.73241e-05
5.68311e-05
7.69013e-05
2.44967e-05
0.000296072
4.90234e-05
7.15295e-05
1.91869e-05
8.7741e-05
5.35605e-05
5.64688e-05
3.7636e-05
2.44967e-05
2.43152e-05
0.000194569
2.23503e-05
2.12672e-05
0.999956
1
1
1
1
1
1
1
1
1
0.999993
0.999994
0.999989
1
1
1
1
1
1
1
1
0.999985
0.999983
0.999993
0.999989
0.999974
0.999969
0.999998
1
1
0.99979
0.999995
0.999997
0.999999
0.999829
0.999702
0.999794
0.99999
1
1
0.999601
0.999964
0.999949
0.999998
0.99996
0.999429
0.999873
0.999996
0.999964
0.999998
0.999605
0.99995
0.999932
0.999991
0.999957
0.999176
0.999848
1
0.999999
0.999883
0.994927
0.997224
0.999335
0.999773
0.999863
0.999508
0.999963
0.999999
1
0.999998
0.488184
0.523353
0.590431
0.706079
0.798706
0.813703
0.766381
0.694895
0.64786
0.701124
2.14285e-06
6.1543e-06
3.65186e-05
0.0115774
0.0471555
0.0491765
0.0262632
0.00524129
0.0252278
0.0871338
1.61309e-06
6.30098e-06
1.77106e-05
4.93921e-06
2.79051e-06
3.83012e-06
5.57853e-06
1.55288e-05
0.000210971
0.000877172
1.17857e-05
0.000201579
0.000303227
9.12199e-05
5.31599e-06
5.57853e-06
1.20971e-05
0.000183149
0.000149591
0.000136189
4.44318e-05
0.0002474
0.000399738
0.00043079
0.000125143
6.71932e-05
5.51483e-05
6.24559e-05
7.10012e-05
5.17818e-05
5.70995e-05
2.35668e-05
0.000162698
0.000206795
0.000345667
0.00049102
0.000481785
0.000279302
8.69929e-05
4.70064e-05
1.90719e-05
1.61517e-05
4.02523e-05
0.000102295
8.52917e-05
0.000314765
0.00059304
0.000593484
0.00059304
8.44036e-05
1.92467e-05
0.000144088
0.000358118
0.00039783
6.37656e-05
4.5533e-05
0.000280261
0.00059304
0.00059168
0.000119004
0.000256953
0.000385797
0.000395417
0.000397958
0.000287157
4.42883e-05
3.78374e-05
0.000489483
0.000533045
0.000109676
0.00033852
0.000179465
0.000143258
0.000355385
0.000360027
0.000252211
3.53864e-05
3.78375e-05
0.000157469
0.000252131
0.000229021
2.03828e-05
2.36404e-05
0.000136841
0.000382526
0.000347878
3.1735e-05
3.51308e-05
0.000119107
0.000575563
1.85409e-05
1.84495e-05
3.60123e-05
0.000187096
0.00031947
0.000125079
2.84725e-05
3.22319e-05
6.56282e-05
0.0005567
1.53061e-05
1.89551e-05
6.32937e-05
0.000120497
0.000122704
2.87933e-05
2.53174e-05
2.45029e-05
3.34921e-05
0.000152067
0.990101
1
1
1
1
1
1
1
1
1
0.994042
1
0.999999
1
1
1
1
1
1
1
0.996947
0.999985
0.999999
0.999998
0.999998
1
0.999931
0.999987
1
1
0.991749
0.999988
0.999999
0.999996
0.999998
0.9999
0.998953
0.999902
0.999997
1
0.990327
0.999779
0.999999
0.999876
0.999997
0.996057
0.997636
0.999968
0.999878
0.999789
0.992105
0.999755
0.999992
0.999883
0.997614
0.995767
0.997314
0.999937
0.999999
0.997021
0.992405
0.999473
0.999721
0.999696
0.998588
0.9985
0.999942
0.999996
0.999998
0.999997
0.584414
0.623088
0.679423
0.754975
0.832497
0.848104
0.798384
0.702591
0.634332
0.69949
4.01261e-06
1.64898e-05
0.00295643
0.0320021
0.0713252
0.0713172
0.0327457
5.99476e-05
0.0160442
0.0788685
1.99588e-06
4.01173e-06
1.64874e-05
1.92288e-05
5.31598e-06
5.57853e-06
8.21171e-06
1.4705e-05
5.97678e-05
0.000609127
4.89093e-06
0.000105962
0.000272451
0.000210909
9.46483e-05
1.0238e-05
1.04736e-05
2.56796e-05
5.52807e-05
0.000109197
1.76433e-05
0.00011254
0.000426233
0.000450116
0.000466104
0.000283726
0.000172803
4.07465e-05
4.5175e-05
4.70051e-05
1.68936e-05
3.19336e-06
5.87894e-05
0.000349298
0.00051523
0.000558974
0.000575089
0.000430183
5.55185e-05
3.99951e-05
3.53605e-06
5.00787e-06
5.69652e-05
0.000198742
0.000321307
0.000151899
0.000593585
0.00059304
0.000590669
5.53815e-05
3.81485e-05
0.000164284
0.000395853
0.000397958
6.59352e-05
4.67103e-05
0.000306183
0.000593716
0.000591794
9.67459e-05
0.000349939
0.000395417
0.000398034
0.000397958
0.000185478
4.55325e-05
4.42883e-05
0.00058846
0.000589536
7.76123e-05
0.000357634
0.000387743
0.000397364
0.000397958
8.50281e-05
5.21086e-05
5.55477e-05
0.00022175
0.00057356
6.45476e-05
0.000277729
9.21197e-05
0.000278567
0.000392726
4.3373e-05
4.20076e-05
0.000143157
0.000107393
0.00057196
0.000573818
1.85085e-05
1.98013e-05
0.000169641
0.00038336
3.80572e-05
3.96821e-05
0.00023005
0.000221401
0.000364828
0.000579278
1.89551e-05
2.23503e-05
0.000231346
0.000373081
0.000163075
3.50184e-05
0.000264304
0.000296741
6.46784e-05
0.000449837
0.989194
0.998658
1
1
1
1
1
1
1
1
0.9892
1
1
1
1
1
1
0.999999
1
1
0.989207
1
1
1
0.999999
1
1
0.999998
1
1
0.991104
0.999963
0.999853
0.999972
0.999985
0.999986
0.999684
0.999947
0.999991
1
0.990673
0.998563
0.99849
0.998696
0.999895
0.998276
0.996309
0.999607
0.99984
0.999413
0.991748
0.99884
0.998539
0.997926
0.99915
0.996458
0.996111
0.999244
0.999989
0.996644
0.992657
0.998737
0.99876
0.998603
0.999396
0.998783
0.999944
0.999995
0.999998
1
0.614927
0.670508
0.721687
0.788632
0.848483
0.85876
0.813259
0.733161
0.664284
0.719508
3.22867e-06
0.000240248
0.0184985
0.047699
0.0844141
0.0830517
0.0432271
0.000717814
0.0194522
0.0886003
1.55094e-06
4.80877e-06
1.43961e-05
4.01658e-05
1.8308e-05
8.86292e-06
1.04736e-05
1.11228e-05
7.28202e-05
0.000731727
2.34146e-06
0.000102459
0.000285067
0.000297798
0.000220494
9.27572e-05
1.11248e-05
2.42783e-05
3.53901e-05
0.000123619
2.6473e-06
0.000114646
0.000438241
0.000465779
0.000480252
0.000523084
0.000205515
3.35648e-05
3.35568e-05
3.99937e-05
2.34821e-06
2.64961e-06
2.03969e-05
0.000256528
0.000445217
0.000557738
0.000571446
0.000368367
3.35562e-05
2.94461e-05
2.68951e-06
2.66045e-06
5.82398e-06
3.1922e-05
6.50679e-05
0.000265533
0.000588802
0.000593669
0.000271527
2.37451e-05
7.20291e-06
2.3604e-05
0.000199666
0.000366023
0.000303137
6.01958e-05
0.00014943
0.000591794
0.000589536
6.61227e-05
0.000180504
0.000292415
0.000397615
0.000397958
0.000397615
0.00038717
4.45637e-05
0.000296266
0.000589871
3.72617e-05
0.000294131
0.000396709
0.000396961
0.000397615
0.00035864
0.000369986
0.000338514
5.91812e-05
0.000582972
6.32081e-06
7.90318e-05
0.000278298
0.000396709
0.000396961
4.19272e-05
0.000172229
0.000456395
0.000172521
0.000396294
0.000125654
2.3421e-05
2.30966e-05
0.000390805
0.000391377
2.65246e-05
4.5691e-05
0.000480994
0.000535324
0.000574438
0.000575997
1.81236e-05
2.02272e-05
0.000174979
0.000209261
2.18567e-05
0.000115659
0.000494674
0.000573672
0.000576475
0.000579266
0.999803
1
1
1
1
1
1
1
1
1
1
0.999995
0.999997
1
1
1
1
1
1
1
1
1
0.999999
1
0.999988
0.999996
0.999987
0.999999
1
1
0.999979
0.999097
0.99871
0.999485
0.999856
0.999646
0.999855
0.999999
0.999999
1
0.998931
0.992339
0.992353
0.99775
0.999996
0.999502
0.999392
0.999937
0.999979
0.999992
0.999155
0.993909
0.993284
0.998322
0.999983
0.99994
0.999672
0.999934
1
0.99999
0.998303
0.995121
0.995259
0.998892
0.999891
0.999902
0.999956
0.999998
1
1
0.575676
0.651403
0.712394
0.774394
0.833807
0.846392
0.804063
0.738245
0.715463
0.761884
3.34096e-06
1.36607e-05
0.0134734
0.0418957
0.0757775
0.0772467
0.0465621
0.0139409
0.0405953
0.12576
1.52242e-06
3.33848e-06
1.36202e-05
3.96692e-05
1.84118e-05
1.0044e-05
1.11248e-05
1.16134e-05
0.000181259
0.00144667
2.22585e-06
7.96293e-05
0.000360014
0.000452319
0.000258674
8.15427e-05
1.16166e-05
1.82756e-05
6.21131e-05
0.000259883
2.31717e-06
0.000143094
0.000455268
0.00046434
0.000472466
0.000485157
4.34407e-05
2.91241e-05
3.35648e-05
5.14732e-05
2.19828e-06
2.32069e-06
3.95071e-05
0.000316731
0.000485157
0.000523084
0.000414588
6.44045e-05
2.94467e-05
2.1663e-05
2.45135e-06
2.56736e-06
2.66046e-06
3.81657e-06
8.68563e-05
0.000322521
0.000542077
0.000504656
2.36008e-05
1.55635e-05
2.83699e-05
2.66046e-06
4.92824e-06
2.42177e-05
1.0805e-05
1.74992e-05
0.000252187
0.000559822
0.000331108
1.7723e-05
5.51246e-05
3.99171e-05
0.000223963
0.000337775
0.000263659
5.3153e-05
3.21251e-05
0.000418865
0.00058352
8.33006e-06
8.90578e-06
0.000262633
0.000396711
0.000396961
0.000394583
0.00034203
4.29239e-05
4.67999e-05
0.000557135
5.39489e-06
1.24853e-05
0.000267682
0.000393428
0.000394583
0.000388878
0.00037969
0.000213249
4.7446e-05
8.27489e-05
5.36741e-06
8.99154e-05
3.2752e-05
0.000383653
0.000385551
0.00034846
0.000369916
0.000224826
4.33148e-05
0.000137378
0.000151524
0.000109952
2.9911e-05
0.000289915
8.03864e-05
5.80637e-05
0.000360715
0.00011775
9.8419e-06
0.000330355
0.00047707
1
1
1
1
1
1
1
1
1
1
1
0.999997
0.999999
1
1
1
1
1
1
1
1
1
0.999915
0.999996
0.999997
0.999995
0.999998
1
1
1
0.999873
0.999341
0.999514
0.99997
0.999992
0.999967
0.999996
1
1
1
0.999323
0.993477
0.999256
0.999957
0.999998
1
1
1
1
1
0.999372
0.993992
0.999442
0.999947
0.999996
0.999998
1
1
1
1
0.996767
0.994541
0.999158
0.999758
0.999909
0.999962
0.999994
1
1
1
0.521986
0.597483
0.660413
0.729096
0.802177
0.828791
0.805627
0.764988
0.790255
0.821637
2.71249e-06
9.40752e-06
3.53905e-05
0.0250561
0.0568203
0.0668095
0.053123
0.039469
0.0960954
0.200104
1.45838e-06
2.70839e-06
9.39776e-06
2.39336e-05
1.04496e-05
7.12076e-06
9.7425e-06
2.22415e-05
0.000728913
0.00155416
1.87624e-06
2.63381e-05
0.000307122
0.000394918
0.000198682
1.03767e-05
2.05916e-05
0.000236731
0.000356724
0.000294967
2.04854e-06
4.12317e-05
0.00037683
0.000455268
0.00046434
0.000138347
3.32582e-05
4.72393e-05
7.91821e-05
4.87855e-05
1.9524e-06
2.2965e-06
1.41561e-05
0.000299677
0.000455357
0.00022403
4.66281e-05
4.28279e-05
2.41936e-05
1.48388e-05
2.74327e-06
2.50177e-06
2.56957e-06
2.78216e-06
0.000105876
0.000283816
0.000152581
5.50747e-05
1.43017e-05
9.21362e-06
5.0664e-05
5.14907e-06
2.65946e-06
2.70232e-06
2.82502e-06
5.89394e-05
0.000296053
0.000336733
1.41472e-05
6.2789e-06
6.39161e-05
6.43579e-05
3.12477e-06
3.40044e-06
3.64543e-06
4.34046e-06
0.000121898
0.000399687
0.000129355
6.22152e-06
9.42441e-06
3.59365e-05
6.98227e-05
0.000212329
5.26325e-05
4.97486e-06
6.95557e-06
9.32705e-05
0.000228528
5.11836e-06
1.0524e-05
1.5044e-05
0.000274657
0.000385553
0.000365475
4.41676e-05
5.99758e-06
4.63611e-05
0.000133207
5.04095e-06
9.08938e-05
7.1191e-05
0.000366862
0.000376314
0.000366591
0.000256731
8.31878e-06
8.76673e-06
9.15981e-06
7.6811e-06
0.000156757
0.000123249
0.000249646
0.000365285
0.000359916
0.000317409
3.18902e-05
5.37522e-06
1.89415e-05
6.40282e-05
1
1
1
1
1
1
1
1
1
1
1
1
0.999999
1
1
1
1
1
1
1
1
1
0.999994
0.999999
1
1
1
1
1
1
0.999953
0.99983
0.999986
1
1
1
1
1
1
1
0.99963
0.998998
0.999974
1
1
1
1
1
1
1
0.999736
0.999418
0.999961
0.999996
0.999999
1
1
1
1
1
0.995735
0.997677
0.9997
0.99984
0.999933
0.99998
1
1
1
1
0.493017
0.546835
0.59952
0.681004
0.765564
0.817797
0.823423
0.824742
0.867137
0.890399
1.78488e-06
4.10553e-06
1.39056e-05
0.00746718
0.036801
0.0589001
0.0622385
0.0803675
0.182232
0.325902
1.3721e-06
1.78304e-06
3.66901e-06
7.79141e-06
7.12069e-06
6.24664e-06
7.12029e-06
9.7282e-06
0.00130855
0.00198285
1.52194e-06
9.60882e-06
9.04458e-05
0.000144206
6.97523e-05
7.04525e-06
3.72051e-05
0.00034041
0.000273255
0.000244463
1.70631e-06
2.9327e-06
0.000138342
0.000296798
0.000168363
1.33105e-05
0.000172869
0.000469011
4.89412e-05
3.30045e-05
1.79811e-06
2.13192e-06
1.59293e-05
5.49853e-05
9.41923e-05
1.86676e-05
4.62596e-05
6.929e-05
1.91045e-05
9.73066e-06
2.54335e-06
2.41762e-06
2.5253e-06
7.14755e-06
5.39517e-05
6.32949e-05
2.40716e-05
1.54438e-05
9.06202e-06
6.20019e-06
4.2633e-05
1.54656e-05
2.61243e-06
2.77333e-06
1.25981e-05
3.91352e-05
4.17575e-05
1.80395e-05
6.20023e-06
5.45326e-06
1.12713e-05
5.85047e-05
3.02795e-05
3.63244e-06
3.81783e-06
6.74133e-06
4.9395e-05
4.38622e-05
5.45326e-06
5.11836e-06
1.03389e-05
1.24195e-05
2.45378e-05
3.26914e-05
4.34747e-06
5.17298e-06
1.23961e-05
4.04931e-05
5.11836e-06
5.03324e-06
4.4738e-05
1.37268e-05
1.36008e-05
7.80116e-05
2.62977e-05
5.5095e-06
5.01332e-06
2.23922e-05
3.81098e-05
5.04794e-06
5.4758e-05
3.49315e-05
4.75514e-05
2.47795e-05
4.97703e-05
9.34374e-06
4.59196e-06
1.43236e-05
4.41098e-05
5.0863e-06
0.000144182
0.00022003
0.000240459
0.000163358
5.32842e-05
4.59221e-06
4.34518e-06
4.79386e-06
3.71066e-05
7.16064e-05
1
1
1
1
1
1
1
1
1
1
1
1
1
1
1
1
1
1
1
1
1
0.999999
0.999999
1
1
1
1
1
1
1
0.999999
0.999999
0.999996
1
1
1
1
1
1
1
0.999978
0.999997
0.999998
1
1
1
1
1
1
1
0.999974
0.999986
0.999996
0.999999
1
1
1
1
1
1
0.996569
0.998199
0.999511
0.99994
0.999982
0.999998
1
1
1
1
0.496228
0.529257
0.574888
0.656088
0.745419
0.825975
0.866384
0.89615
0.935755
0.951415
1.58374e-06
1.94532e-06
3.7082e-06
7.79305e-06
0.0252598
0.0549049
0.0831395
0.138686
0.321291
0.521336
1.4568e-06
1.5836e-06
1.94513e-06
3.70802e-06
5.73045e-06
6.32965e-06
6.22332e-06
0.000205272
0.00247486
0.0292855
1.62459e-06
2.95235e-06
9.29824e-06
8.42933e-06
6.58044e-06
6.32739e-06
7.02494e-06
2.20476e-05
0.000308537
0.000280158
1.8886e-06
2.1755e-06
2.34476e-05
5.85861e-05
2.06648e-05
7.05036e-06
0.000132902
0.00036273
4.60516e-05
2.41137e-05
1.95721e-06
2.14231e-06
1.62552e-05
5.79479e-05
5.20908e-05
8.59233e-06
6.34659e-05
0.000100592
1.51816e-05
8.93275e-06
2.14232e-06
6.82529e-06
6.79419e-06
2.22409e-05
8.04833e-05
4.82303e-05
2.27868e-05
1.33062e-05
8.9952e-06
7.32323e-06
1.78104e-05
8.17206e-06
3.11899e-05
7.90402e-06
6.11283e-05
0.000106363
4.62914e-05
2.24885e-05
1.61688e-05
6.82347e-06
1.27402e-05
1.22142e-05
4.48435e-05
5.0465e-05
1.12354e-05
4.66963e-05
5.43527e-05
1.19679e-05
1.98132e-05
1.59204e-05
0.000162183
1.58739e-05
1.36008e-05
3.7328e-05
1.34475e-05
5.52796e-06
1.72142e-05
8.16424e-06
7.23413e-06
6.86536e-06
0.000206878
2.11483e-05
1.27166e-05
1.20101e-05
2.45578e-05
2.79357e-05
1.49618e-05
7.43811e-06
5.19128e-06
4.86706e-06
4.60726e-05
3.04889e-05
1.20101e-05
1.19323e-05
5.00628e-05
0.000124775
4.78376e-05
1.02825e-05
4.37198e-05
4.62584e-06
3.34917e-05
3.78047e-05
1.05721e-05
1.19323e-05
3.20592e-05
0.000127939
0.000104842
9.02327e-06
6.30304e-05
6.47048e-05
1
1
1
1
1
1
1
1
1
1
1
1
1
1
1
1
1
1
1
1
1
1
0.999999
1
1
1
1
0.999999
1
1
1
1
0.999993
0.999999
1
1
0.999998
0.999996
0.999999
1
0.999812
0.999759
0.999982
1
1
1
0.999998
0.999999
1
1
0.997263
0.998253
0.999997
1
0.999999
1
1
1
1
1
0.997661
0.999237
0.999828
0.999897
0.999999
1
1
1
1
1
0.51904
0.545225
0.603194
0.684316
0.782032
0.878526
0.940692
0.967648
0.987189
0.992464
2.47647e-06
5.42088e-06
1.19402e-05
0.012599
0.0456582
0.0904725
0.151417
0.275585
0.5358
0.713335
7.02812e-06
2.89495e-06
3.70792e-06
5.61229e-06
6.40825e-06
5.67529e-06
0.000206214
0.00226478
0.0607107
0.163515
7.41237e-06
1.18499e-05
5.35292e-06
5.49064e-06
5.75052e-06
6.48556e-06
2.14528e-05
0.000288446
0.000442698
0.000216124
2.17551e-06
9.62054e-06
2.18998e-05
1.97187e-05
1.23034e-05
8.11921e-06
9.09473e-06
3.19384e-05
6.99252e-05
2.55536e-05
2.33666e-06
4.36537e-06
7.30808e-05
5.86961e-05
3.52945e-05
8.93217e-06
1.04187e-05
1.53127e-05
2.63384e-05
1.05805e-05
9.37885e-05
7.77074e-05
1.22666e-05
5.46229e-05
8.04833e-05
1.93265e-05
2.35117e-05
2.35886e-05
2.84165e-05
8.93301e-06
0.000186776
0.000169412
8.80852e-05
8.43046e-06
2.60197e-05
0.000111684
0.000119364
0.000102107
0.000105045
1.41353e-05
0.000280153
0.000201257
0.000111573
3.45153e-05
1.27558e-05
7.17243e-05
0.000137018
0.000131917
9.33597e-05
1.40586e-05
0.000302206
0.000303422
0.000215178
3.26702e-05
1.40303e-05
4.62727e-05
0.000141987
0.000120627
2.75966e-05
5.11523e-06
0.000299727
0.000286204
0.000206688
4.74259e-05
2.91656e-05
0.000100586
0.000150971
9.16595e-05
5.12176e-06
4.62584e-06
0.000222105
3.89348e-05
4.68073e-05
8.182e-05
0.000140567
0.000194536
0.000155587
4.71092e-05
8.12417e-06
4.42331e-06
2.86583e-05
1.33717e-05
8.06331e-06
2.83592e-05
7.51005e-05
0.000109486
9.16145e-05
7.89787e-06
1.96084e-05
1.2318e-05
1
1
1
1
1
1
1
1
1
1
1
1
1
1
1
1
1
1
1
1
1
1
1
1
1
1
0.999999
0.999996
0.999999
1
0.999988
0.999981
0.999998
1
1
0.999999
0.999989
0.999989
0.999999
1
0.99949
0.999851
0.999999
1
1
0.999998
0.999989
0.999996
1
1
0.998297
0.999381
1
1
1
1
0.999999
1
1
1
0.999991
0.999996
0.999999
1
1
1
1
1
1
1
0.5931