/*--------------------------------*- C++ -*----------------------------------*\
| =========                 |                                                 |
| \\      /  F ield         | OpenFOAM: The Open Source CFD Toolbox           |
|  \\    /   O peration     | Version:  2312                                  |
|   \\  /    A nd           | Website:  www.openfoam.com                      |
|    \\/     M anipulation  |                                                 |
\*---------------------------------------------------------------------------*/
FoamFile
{
    version     2.0;
    format      ascii;
    arch        "LSB;label=32;scalar=64";
    class       volScalarField;
    location    "1";
    object      p;
}
// * * * * * * * * * * * * * * * * * * * * * * * * * * * * * * * * * * * * * //

dimensions      [1 -1 -2 0 0 0 0];

internalField   nonuniform List<scalar> 
8000
(
369.652
370.305
371.31
372.594
374.048
375.54
376.922
378.069
378.892
379.436
320.63
321.347
322.41
323.788
325.359
326.978
328.468
329.582
330.567
331.269
271.734
272.456
273.657
275.234
277.031
278.876
280.446
281.853
283.39
284.084
222.927
223.834
225.245
227.108
229.244
231.446
233.37
235.426
237.177
238.096
174.279
175.272
177.11
179.44
182.146
185.01
187.605
189.317
191.513
193.053
126.428
127.627
129.892
132.757
136.135
139.783
143.168
145.384
148.746
150.979
80.5307
81.7581
84.2209
87.9204
92.2215
96.7262
101.443
105.37
109.372
112.128
38.0162
39.1078
41.9902
46.2806
51.517
56.8556
61.8537
68.1001
73.4271
77.1397
9.30653
9.68091
11.0815
14.3562
20.3365
26.6744
31.7205
36.1045
40.3955
44.9196
-0.304594
-0.298088
-0.262909
0.225259
2.55419
7.43778
13.6312
19.2006
24.0442
25.7176
-0.385315
-0.384106
-0.387366
-0.385554
-0.379998
-0.391574
-0.013516
0.727288
1.84245
2.8533
-0.430191
-0.431536
-0.44088
-0.464253
-0.500265
-0.538328
-0.530859
-0.495922
-0.486289
-0.486467
-0.493372
-0.490569
-0.489816
-0.503736
-0.522428
-0.537823
-0.539755
-0.521141
-0.512607
-0.504492
-0.56535
-0.547463
-0.528475
-0.534611
-0.554958
-0.57142
-0.582963
-0.569453
-0.555127
-0.545054
-0.637869
-0.594803
-0.555934
-0.566641
-0.603313
-0.62743
-0.645668
-0.645897
-0.633602
-0.628562
-0.714204
-0.649684
-0.597317
-0.622413
-0.674743
-0.703
-0.713245
-0.722889
-0.717623
-0.71913
-0.805801
-0.733678
-0.677797
-0.703121
-0.758973
-0.781352
-0.78456
-0.786379
-0.781526
-0.778103
-0.886883
-0.825113
-0.773363
-0.783225
-0.833326
-0.85131
-0.855287
-0.841984
-0.821802
-0.812383
-0.955429
-0.916795
-0.872134
-0.856834
-0.889465
-0.912076
-0.911677
-0.892491
-0.85687
-0.847665
-1.00211
-0.977899
-0.943212
-0.916805
-0.931704
-0.959044
-0.95972
-0.935425
-0.898443
-0.88987
369.137
369.813
370.846
372.146
373.604
375.088
376.438
377.568
378.257
378.799
320.011
320.74
321.849
323.25
324.832
326.439
327.882
328.849
329.498
330.364
270.777
271.591
272.878
274.501
276.334
278.119
279.567
280.707
281.697
282.802
221.615
222.497
224.044
226.001
228.194
230.278
231.757
233.527
235.552
236.822
172.344
173.419
175.378
177.856
180.586
183.354
185.386
187.675
190.554
191.447
122.565
124.011
126.572
129.986
133.696
137.456
140.847
144.183
147.538
148.455
75.5217
77.1615
80.0294
83.8978
88.2791
93.1239
98.099
103.177
107.379
109.566
32.4126
33.5614
36.0732
40.1035
45.5561
51.8141
58.0108
64.0803
69.7235
74.4412
5.44364
5.7811
6.72068
8.96589
13.1119
19.4643
25.8709
31.6364
36.8671
39.7698
-0.312934
-0.313382
-0.312245
-0.302964
0.081278
2.75514
6.79767
11.5496
16.3932
20.4552
-0.390047
-0.387446
-0.38983
-0.421033
-0.50163
-0.495581
-0.499367
-0.539392
-0.374641
-0.306776
-0.447038
-0.445986
-0.446783
-0.465045
-0.505348
-0.562318
-0.571011
-0.559182
-0.531437
-0.504638
-0.535128
-0.522392
-0.503811
-0.503076
-0.528743
-0.551119
-0.547429
-0.545714
-0.544111
-0.53371
-0.621931
-0.590214
-0.555187
-0.541785
-0.556209
-0.584038
-0.607569
-0.605835
-0.594153
-0.582274
-0.699057
-0.661505
-0.607163
-0.594744
-0.619962
-0.646595
-0.676981
-0.683029
-0.667893
-0.653964
-0.797442
-0.752958
-0.680385
-0.67125
-0.704266
-0.735801
-0.752003
-0.763167
-0.748872
-0.739355
-0.892828
-0.84287
-0.769286
-0.761097
-0.796126
-0.819933
-0.828371
-0.825192
-0.813439
-0.802739
-0.951699
-0.914336
-0.859005
-0.842855
-0.874397
-0.892207
-0.901778
-0.870244
-0.846664
-0.826706
-0.987252
-0.970718
-0.933493
-0.910206
-0.933716
-0.960186
-0.960894
-0.9157
-0.868431
-0.84946
-1.02752
-1.01232
-0.987313
-0.957377
-0.966406
-1.00403
-1.00055
-0.952876
-0.897366
-0.88369
368.272
368.986
370.056
371.385
372.865
374.393
375.86
377.238
377.704
378.135
319.001
319.782
320.934
322.376
323.998
325.694
327.359
328.756
329.141
329.607
269.427
270.335
271.69
273.368
275.279
277.144
278.761
280.424
280.851
281.57
219.635
220.728
222.339
224.375
226.716
228.835
230.319
232.425
233.348
234.95
169.478
170.865
172.912
175.472
178.324
181.152
183.14
186.191
187.837
189.574
117.786
119.598
122.449
126.06
130.055
134.049
137.546
141.786
144.575
145.943
67.2366
69.8498
73.7937
78.3149
83.1021
88.216
93.1579
98.9281
103.024
105.523
20.6397
22.6284
26.1051
30.6403
36.3325
43.2622
50.0578
57.7267
63.8581
68.9271
1.11591
1.40922
1.997
3.02204
5.04515
9.43493
15.7481
24.0369
31.2377
36.3595
-0.344543
-0.325634
-0.300958
-0.283482
-0.25424
-0.161677
0.827111
4.57561
9.58203
13.0937
-0.388536
-0.380504
-0.370937
-0.363152
-0.37813
-0.438848
-0.584782
-0.587578
-0.57118
-0.561428
-0.447517
-0.441932
-0.431125
-0.424107
-0.428782
-0.467485
-0.535816
-0.587327
-0.591383
-0.564713
-0.532697
-0.507839
-0.484045
-0.476134
-0.482848
-0.50328
-0.529396
-0.551595
-0.556667
-0.550153
-0.614254
-0.585399
-0.553572
-0.535997
-0.542725
-0.567274
-0.6038
-0.620271
-0.615239
-0.602669
-0.70983
-0.684653
-0.63224
-0.609998
-0.625116
-0.651887
-0.693939
-0.708187
-0.691479
-0.668029
-0.829998
-0.807285
-0.735639
-0.707985
-0.727547
-0.762632
-0.797173
-0.798323
-0.764988
-0.742161
-0.927207
-0.908083
-0.838087
-0.803814
-0.824133
-0.863028
-0.883489
-0.864849
-0.81764
-0.800545
-0.981643
-0.966406
-0.921314
-0.886651
-0.902583
-0.940414
-0.941671
-0.900598
-0.849521
-0.830299
-1.013
-1.0045
-0.982323
-0.951127
-0.968599
-0.990067
-0.979168
-0.918372
-0.863036
-0.846578
-1.03899
-1.03705
-1.02341
-0.984164
-0.997287
-1.01674
-0.999853
-0.930379
-0.877285
-0.870284
367.207
367.977
369.083
370.434
371.892
373.44
374.749
376.228
376.734
377.134
317.78
318.616
319.833
321.304
322.921
324.59
326.131
327.756
328.179
328.591
267.869
268.837
270.284
272.026
273.937
275.908
277.728
279.367
279.832
280.353
217.394
218.522
220.401
222.558
224.86
227.249
228.974
230.76
231.512
232.994
166.173
167.876
170.007
172.782
175.735
178.676
181.09
183.478
184.99
186.825
112.694
114.791
117.898
121.795
126.021
130.107
133.863
137.625
140.1
142.084
57.7492
61.3197
66.5621
72.2295
77.3
82.2622
87.268
92.4271
96.4244
100.049
8.92719
10.9283
14.8164
20.241
26.7267
33.736
40.5149
47.6637
54.9972
61.2798
-0.0709047
-0.0582152
0.00915263
0.236426
1.32959
3.0909
6.09857
12.5302
21.7118
29.8072
-0.288546
-0.287882
-0.292729
-0.28361
-0.237873
-0.207603
-0.135005
0.249612
3.39077
7.30446
-0.344484
-0.339864
-0.34085
-0.346626
-0.337006
-0.326942
-0.385886
-0.514663
-0.571013
-0.532325
-0.430357
-0.42187
-0.413099
-0.410643
-0.406635
-0.400543
-0.435469
-0.497215
-0.555194
-0.552934
-0.51523
-0.493593
-0.477334
-0.474494
-0.472772
-0.470982
-0.486024
-0.513929
-0.549391
-0.551898
-0.599623
-0.579089
-0.553456
-0.544416
-0.548984
-0.558387
-0.58721
-0.61975
-0.626647
-0.607611
-0.721302
-0.703378
-0.648693
-0.625647
-0.643703
-0.671961
-0.713442
-0.74179
-0.720165
-0.678775
-0.850592
-0.836632
-0.763475
-0.728027
-0.747354
-0.793691
-0.831739
-0.846094
-0.791115
-0.753658
-0.932798
-0.908071
-0.842431
-0.820656
-0.847618
-0.896482
-0.924184
-0.905161
-0.839188
-0.811668
-0.979457
-0.96038
-0.919144
-0.89904
-0.92929
-0.966379
-0.973308
-0.920613
-0.85733
-0.833101
-1.0085
-0.999846
-0.982366
-0.958568
-0.978146
-1.00076
-0.985823
-0.90907
-0.855619
-0.843387
-1.04331
-1.0488
-1.03098
-0.982764
-0.987751
-1.01104
-0.977047
-0.888096
-0.84635
-0.861605
366.108
366.945
368.098
369.455
370.91
372.369
373.668
374.848
375.513
375.923
316.566
317.465
318.733
320.216
321.805
323.395
324.833
326.183
326.827
327.256
266.366
267.442
268.951
270.708
272.588
274.464
276.159
277.704
278.412
278.904
215.399
216.756
218.648
220.881
223.188
225.449
227.366
228.954
230.099
230.955
163.202
164.916
167.337
170.338
173.358
176.253
178.72
180.795
182.542
183.791
108.824
111.064
114.273
118.058
122.557
126.578
130.06
133.176
135.57
137.48
54.1712
57.3939
62.5514
68.2739
72.661
77.3216
81.5673
85.815
89.6962
93.2428
6.20215
7.4691
9.87694
13.8922
19.7129
26.6775
32.7177
38.3485
45.4185
52.503
-0.143027
-0.145857
-0.137629
-0.124
0.0651896
1.20977
2.67213
4.73036
11.1441
20.8737
-0.280052
-0.273794
-0.271598
-0.272883
-0.285073
-0.251018
-0.213352
-0.10151
0.221089
2.21669
-0.344155
-0.334967
-0.330566
-0.33006
-0.343393
-0.337568
-0.342587
-0.377339
-0.424985
-0.427872
-0.414352
-0.403355
-0.399428
-0.401612
-0.399267
-0.385223
-0.377699
-0.399994
-0.47619
-0.507535
-0.494784
-0.479066
-0.469067
-0.469615
-0.469618
-0.459138
-0.45396
-0.465186
-0.517817
-0.534001
-0.601398
-0.584633
-0.555822
-0.546209
-0.560107
-0.562403
-0.573448
-0.611032
-0.628365
-0.602877
-0.748701
-0.731294
-0.663591
-0.638107
-0.656279
-0.676044
-0.712629
-0.765043
-0.746644
-0.684543
-0.856066
-0.819802
-0.749472
-0.729647
-0.741506
-0.771505
-0.829377
-0.866217
-0.807747
-0.752651
-0.90437
-0.861958
-0.808427
-0.803463
-0.821303
-0.870594
-0.924185
-0.920207
-0.842709
-0.790079
-0.935482
-0.905564
-0.87219
-0.865897
-0.891458
-0.950622
-0.978025
-0.927843
-0.855912
-0.824017
-0.974431
-0.963993
-0.95566
-0.93158
-0.945636
-0.993109
-0.988211
-0.901582
-0.842084
-0.836342
-1.03422
-1.04861
-1.03274
-0.97596
-0.967977
-1.00463
-0.985859
-0.89476
-0.841571
-0.86304
365.149
366.036
367.223
368.571
369.98
371.356
372.59
373.63
374.303
374.68
315.517
316.486
317.797
319.264
320.789
322.275
323.608
324.751
325.457
325.858
265.193
266.326
267.914
269.636
271.411
273.136
274.67
276.007
276.786
277.212
214.051
215.416
217.368
219.564
221.776
223.853
225.634
227.181
228.185
228.821
161.542
163.258
165.772
168.659
171.539
174.22
176.442
178.329
179.712
180.635
107.549
109.681
112.965
116.77
120.587
123.962
126.797
129.216
130.994
132.76
50.6917
53.6503
58.4472
64.1969
69.592
74.0124
77.0065
80.0338
83.0669
86.4203
6.64432
7.66804
9.89405
13.3288
18.3734
23.3142
27.0347
30.7278
36.4886
43.5218
-0.192224
-0.188816
-0.182345
-0.182144
-0.107766
0.533653
1.32255
2.23879
4.88762
11.6602
-0.289641
-0.28412
-0.282831
-0.288935
-0.299708
-0.30783
-0.316468
-0.274089
-0.225595
0.0950347
-0.350291
-0.338735
-0.335961
-0.339703
-0.348532
-0.355808
-0.376195
-0.410116
-0.417329
-0.380942
-0.414655
-0.399801
-0.392965
-0.392982
-0.390776
-0.384867
-0.382482
-0.379185
-0.432422
-0.460511
-0.515573
-0.493558
-0.467143
-0.459543
-0.465303
-0.457188
-0.439466
-0.435404
-0.480958
-0.506511
-0.650898
-0.620871
-0.563685
-0.545358
-0.56385
-0.569606
-0.556481
-0.575291
-0.599422
-0.591755
-0.758608
-0.721137
-0.663471
-0.644206
-0.659501
-0.669287
-0.679792
-0.719593
-0.739396
-0.697208
-0.809849
-0.77119
-0.735957
-0.733593
-0.738856
-0.749048
-0.77436
-0.802732
-0.806891
-0.751755
-0.831417
-0.805434
-0.794235
-0.803858
-0.816886
-0.840194
-0.86673
-0.854278
-0.818856
-0.768794
-0.872393
-0.857487
-0.86315
-0.870809
-0.889243
-0.929404
-0.949177
-0.894959
-0.82784
-0.78831
-0.942614
-0.937356
-0.948312
-0.938675
-0.948836
-0.990729
-0.995397
-0.924063
-0.857973
-0.836351
-1.03297
-1.05617
-1.04375
-1.00143
-0.985915
-1.01618
-1.00682
-0.942094
-0.904839
-0.899063
364.396
365.332
366.541
367.864
369.212
370.501
371.643
372.579
373.214
373.558
314.753
315.771
317.107
318.537
319.98
321.351
322.559
323.554
324.222
324.593
264.432
265.581
267.252
268.885
270.531
272.08
273.429
274.535
275.245
275.649
213.272
214.665
216.681
218.765
220.788
222.624
224.162
225.397
226.249
226.783
160.888
162.557
165.13
167.895
170.514
172.789
174.621
176.052
176.947
177.723
107.139
109.214
112.497
116.204
119.708
122.463
124.455
126.01
126.92
128.431
50.4253
53.0318
57.46
63.0163
68.3816
71.8699
73.889
75.5119
77.4325
80.2649
7.88423
8.77282
10.9565
14.6592
20.3452
22.8275
23.76
24.7408
29.0283
35.146
-0.202757
-0.190496
-0.177814
-0.165562
-0.0417304
0.382383
0.571553
0.904803
2.392
5.72438
-0.283368
-0.275014
-0.277378
-0.297673
-0.325729
-0.348035
-0.39303
-0.428084
-0.466698
-0.290652
-0.356054
-0.340576
-0.340151
-0.349026
-0.359397
-0.37657
-0.415998
-0.458195
-0.465215
-0.402503
-0.445108
-0.420847
-0.399987
-0.389543
-0.388637
-0.386335
-0.382577
-0.378418
-0.417471
-0.436351
-0.556916
-0.525228
-0.47624
-0.452112
-0.459493
-0.451187
-0.425331
-0.406956
-0.44221
-0.481487
-0.649741
-0.616961
-0.568846
-0.545612
-0.563129
-0.570668
-0.54359
-0.526226
-0.553607
-0.579315
-0.700529
-0.674138
-0.657084
-0.655117
-0.670365
-0.679317
-0.669033
-0.66021
-0.704442
-0.699117
-0.726897
-0.728181
-0.735261
-0.749801
-0.758796
-0.759847
-0.758492
-0.752928
-0.795005
-0.744833
-0.773609
-0.785696
-0.801182
-0.823981
-0.827775
-0.831153
-0.834398
-0.817788
-0.809343
-0.756532
-0.843956
-0.849531
-0.867678
-0.883831
-0.89101
-0.901764
-0.901047
-0.869442
-0.83518
-0.797366
-0.932423
-0.932596
-0.946
-0.954605
-0.952067
-0.965367
-0.963663
-0.930501
-0.903222
-0.8669
-1.03635
-1.04304
-1.04007
-1.0211
-1.01048
-1.01254
-1.01252
-0.987254
-0.982362
-0.952541
363.913
364.893
366.097
367.386
368.673
369.882
370.937
371.789
372.371
372.688
314.282
315.342
316.673
318.074
319.437
320.695
321.79
322.668
323.27
323.607
264.002
265.24
266.846
268.478
270.004
271.364
272.532
273.469
274.057
274.433
212.914
214.416
216.44
218.495
220.325
221.848
223.098
224.078
224.705
225.151
160.707
162.419
165.156
167.869
170.204
172.033
173.402
174.357
174.755
175.48
107.287
109.378
112.744
116.49
119.601
121.757
123.019
123.713
123.797
125.108
51.6416
54.2213
58.5639
64.3405
68.8696
71.2843
72.3926
72.3963
73.009
75.4796
9.49428
10.3288
12.3708
17.8619
22.6872
23.6217
22.4864
20.4561
22.5522
28.7507
-0.206971
-0.176375
-0.134451
-0.0808314
0.301907
0.541367
0.29883
0.106465
0.80648
3.14435
-0.285277
-0.260472
-0.258663
-0.293296
-0.332537
-0.357937
-0.427936
-0.488862
-0.605148
-0.342578
-0.367704
-0.339343
-0.338214
-0.349384
-0.361135
-0.378261
-0.420588
-0.444441
-0.442156
-0.393253
-0.462207
-0.432136
-0.410516
-0.388521
-0.382442
-0.368846
-0.351779
-0.348389
-0.387011
-0.418592
-0.546696
-0.523397
-0.491787
-0.45451
-0.449342
-0.426259
-0.39458
-0.37662
-0.401953
-0.458445
-0.596959
-0.578649
-0.562122
-0.545623
-0.551433
-0.541737
-0.521755
-0.499002
-0.520785
-0.567667
-0.625728
-0.631234
-0.642146
-0.651316
-0.658026
-0.662896
-0.65544
-0.637314
-0.698811
-0.69358
-0.687508
-0.712259
-0.729595
-0.745181
-0.752649
-0.755681
-0.74764
-0.742429
-0.793048
-0.737955
-0.76826
-0.78879
-0.801241
-0.819855
-0.828943
-0.830456
-0.826391
-0.817435
-0.811902
-0.758045
-0.845775
-0.851675
-0.864724
-0.885377
-0.896543
-0.901489
-0.904072
-0.890608
-0.864227
-0.810715
-0.926336
-0.92627
-0.937834
-0.948949
-0.960879
-0.968201
-0.973076
-0.960834
-0.946647
-0.90474
-1.02293
-1.0187
-1.01896
-1.01589
-1.01575
-1.02155
-1.03272
-1.025
-1.01515
-0.980784
363.679
364.68
365.861
367.125
368.371
369.524
370.522
371.32
371.855
372.155
314.066
315.154
316.458
317.824
319.132
320.312
321.332
322.148
322.687
322.999
263.837
265.135
266.702
268.237
269.615
270.895
271.984
272.821
273.316
273.673
212.91
214.506
216.466
218.362
219.914
221.25
222.429
223.294
223.729
224.063
160.943
162.803
165.424
168.006
169.976
171.479
172.66
173.377
173.47
174.211
107.947
110.024
113.422
117.124
119.82
121.536
122.383
122.411
122.07
123.258
53.9839
56.4744
60.6326
66.221
69.9543
71.6145
71.6958
70.6929
70.3316
72.844
11.8925
12.6012
14.3618
21.1736
24.9253
25.3416
22.9541
17.6062
18.1603
25.4869
-0.210601
-0.17283
-0.0845609
0.122986
0.888103
0.975919
0.30221
-0.171461
0.0769907
1.99999
-0.284967
-0.258901
-0.242528
-0.280264
-0.317559
-0.336231
-0.417105
-0.445113
-0.463693
-0.340745
-0.363801
-0.342286
-0.337491
-0.340483
-0.347361
-0.361381
-0.397814
-0.380207
-0.354688
-0.360526
-0.449013
-0.442035
-0.437653
-0.401349
-0.380437
-0.358795
-0.332851
-0.313564
-0.34072
-0.393097
-0.520137
-0.521005
-0.518756
-0.478264
-0.452477
-0.427434
-0.392784
-0.363518
-0.378843
-0.439779
-0.565436
-0.562951
-0.565296
-0.55466
-0.551139
-0.55085
-0.532881
-0.493092
-0.50325
-0.559692
-0.611547
-0.618055
-0.626294
-0.635885
-0.644677
-0.658474
-0.662181
-0.621387
-0.685755
-0.691092
-0.685066
-0.702417
-0.715875
-0.725262
-0.735068
-0.743788
-0.744545
-0.733808
-0.794976
-0.739503
-0.769657
-0.790998
-0.798808
-0.808946
-0.819394
-0.823858
-0.814204
-0.82388
-0.823299
-0.762355
-0.846895
-0.856313
-0.864874
-0.878988
-0.896124
-0.8993
-0.889757
-0.901823
-0.880307
-0.817777
-0.92285
-0.924881
-0.935084
-0.947195
-0.965155
-0.976335
-0.969519
-0.968886
-0.961953
-0.913588
-1.00735
-1.00627
-1.01236
-1.01466
-1.02494
-1.03674
-1.0425
-1.03101
-1.0312
-1.00184
363.696
364.716
365.861
367.132
368.366
369.484
370.441
371.208
371.713
372.004
314.163
315.228
316.515
317.862
319.158
320.301
321.244
322.021
322.526
322.825
263.988
265.282
266.812
268.337
269.743
270.959
271.918
272.673
273.107
273.463
213.388
214.856
216.752
218.545
220.089
221.428
222.459
223.142
223.478
223.828
161.821
163.717
166.128
168.401
170.285
171.865
172.765
173.222
173.223
173.784
109.684
111.734
114.821
117.94
120.502
122.222
122.648
122.215
121.792
122.918
57.2718
59.9481
63.812
67.9153
71.2814
72.7089
72.1787
70.6316
69.7356
72.4242
14.8198
16.4628
19.8826
23.4205
26.947
27.3484
24.2628
17.0206
17.058
24.9503
-0.193298
-0.15968
-0.0169671
0.620235
1.60179
1.58698
0.545745
-0.152925
0.019063
1.70517
-0.291846
-0.287261
-0.265369
-0.269162
-0.285925
-0.307484
-0.375285
-0.371577
-0.306032
-0.307663
-0.3715
-0.370214
-0.362439
-0.354063
-0.341066
-0.34485
-0.371964
-0.335673
-0.303355
-0.331677
-0.450213
-0.464778
-0.47992
-0.459055
-0.408603
-0.368328
-0.337148
-0.309834
-0.327137
-0.380499
-0.519292
-0.534156
-0.553763
-0.545113
-0.497414
-0.449298
-0.404087
-0.371827
-0.381972
-0.437849
-0.570941
-0.572598
-0.583534
-0.594914
-0.589422
-0.575551
-0.54547
-0.503146
-0.507888
-0.55824
-0.623819
-0.624445
-0.627509
-0.644495
-0.665215
-0.677026
-0.67408
-0.619813
-0.675537
-0.691111
-0.698722
-0.701044
-0.704799
-0.720654
-0.745202
-0.762431
-0.755079
-0.714315
-0.787811
-0.752868
-0.777096
-0.784629
-0.787993
-0.803968
-0.827071
-0.842016
-0.823666
-0.803415
-0.829557
-0.776674
-0.844037
-0.853592
-0.864748
-0.882517
-0.907246
-0.918595
-0.902646
-0.888607
-0.887049
-0.83122
-0.911879
-0.921729
-0.939855
-0.958585
-0.985047
-0.993832
-0.986454
-0.971598
-0.978269
-0.930115
-0.98981
-1.00192
-1.01989
-1.03188
-1.05611
-1.06193
-1.06082
-1.04005
-1.04736
-1.0207
363.978
365.008
366.07
367.371
368.608
369.729
370.683
371.446
371.945
372.237
314.579
315.508
316.77
318.124
319.412
320.564
321.51
322.283
322.789
323.086
264.555
265.589
267.099
268.637
270.085
271.309
272.238
272.976
273.404
273.783
213.821
215.231
217.137
218.964
220.614
221.959
222.898
223.566
223.89
224.252
162.555
164.492
166.833
169.114
171.024
172.494
173.405
173.745
173.777
174.312
110.935
113.411
116.266
119.059
121.38
122.898
123.412
122.943
122.603
123.807
58.8284
62.4299
66.0714
69.4874
72.2099
73.5043
73.134
71.4156
71.0865
73.8352
16.0602
18.9812
21.6595
24.843
27.7172
28.0126
25.4235
18.1752
18.5943
26.3982
-0.164313
-0.160843
0.221577
0.992236
1.94762
1.90704
0.814296
-0.0569728
0.286755
2.0164
-0.29932
-0.306502
-0.299585
-0.2882
-0.290097
-0.302206
-0.364118
-0.347797
-0.21208
-0.249568
-0.387111
-0.396178
-0.396702
-0.391425
-0.373637
-0.363852
-0.379173
-0.330102
-0.297184
-0.328669
-0.463627
-0.487835
-0.516691
-0.526171
-0.484992
-0.421126
-0.379594
-0.336078
-0.34579
-0.396169
-0.528754
-0.554148
-0.592021
-0.619943
-0.598489
-0.517796
-0.455396
-0.408872
-0.41134
-0.461624
-0.58101
-0.594916
-0.619888
-0.653769
-0.660433
-0.631456
-0.58527
-0.536716
-0.530728
-0.568829
-0.638627
-0.638868
-0.646377
-0.674943
-0.703484
-0.705532
-0.701159
-0.654093
-0.670915
-0.694851
-0.712189
-0.708317
-0.706317
-0.727276
-0.76129
-0.777155
-0.772392
-0.741586
-0.7832
-0.77141
-0.785943
-0.787545
-0.785395
-0.811363
-0.849359
-0.857459
-0.840789
-0.807085
-0.839542
-0.80434
-0.847122
-0.852336
-0.86132
-0.903792
-0.938327
-0.945151
-0.914247
-0.884374
-0.896521
-0.855649
-0.901266
-0.916108
-0.940928
-1.00081
-1.0254
-1.02403
-1.00284
-0.967168
-0.978639
-0.949345
-0.972726
-0.99478
-1.03588
-1.09137
-1.10368
-1.09786
-1.08177
-1.04882
-1.05266
-1.03648
364.492
365.451
366.591
367.844
369.085
370.227
371.21
371.993
372.521
372.823
314.934
315.979
317.249
318.612
319.913
321.086
322.085
322.879
323.419
323.737
264.864
266.056
267.542
269.126
270.574
271.837
272.871
273.677
274.18
274.571
214.247
215.633
217.409
219.421
221.159
222.486
223.55
224.376
224.849
225.279
163.053
164.918
167.05
169.477
171.619
173.097
174.066
174.768
174.982
175.603
111.299
113.81
116.432
119.262
121.916
123.607
124.202
124.242
124.308
125.46
58.0421
62.4095
65.9196
69.2144
72.3314
74.0417
74.0221
73.2288
73.7622
76.4026
14.5033
18.2498
20.9763
23.9048
26.7795
27.4152
25.586
20.6304
22.2687
29.6775
-0.134413
-0.188181
-0.0185473
0.723164
1.63133
1.70113
0.862773
0.090666
0.511315
2.94787
-0.286197
-0.306352
-0.32145
-0.325357
-0.331758
-0.338526
-0.388083
-0.350925
-0.304958
-0.392814
-0.384862
-0.400452
-0.409184
-0.416992
-0.413426
-0.409592
-0.417503
-0.351616
-0.312388
-0.407704
-0.462265
-0.488199
-0.518284
-0.540473
-0.528792
-0.487184
-0.437519
-0.377399
-0.379886
-0.453087
-0.527457
-0.560191
-0.603892
-0.643794
-0.649463
-0.603997
-0.535691
-0.468363
-0.461957
-0.514894
-0.584673
-0.605851
-0.638282
-0.683591
-0.712339
-0.702619
-0.658604
-0.600521
-0.576836
-0.597171
-0.644225
-0.648219
-0.657632
-0.69216
-0.735572
-0.75844
-0.755768
-0.710982
-0.695447
-0.700742
-0.714679
-0.715164
-0.709339
-0.725179
-0.767609
-0.803789
-0.811324
-0.793305
-0.798442
-0.783281
-0.786928
-0.795332
-0.792821
-0.803312
-0.832677
-0.864112
-0.865797
-0.856699
-0.861472
-0.833724
-0.84795
-0.859006
-0.870863
-0.9022
-0.925169
-0.944097
-0.942078
-0.923756
-0.918089
-0.886303
-0.900916
-0.914472
-0.950867
-1.0184
-1.04229
-1.03934
-1.02862
-1.00275
-0.989459
-0.964556
-0.966963
-0.989328
-1.05545
-1.13301
-1.14631
-1.13029
-1.10872
-1.07727
-1.06823
-1.04855
365.165
366.112
367.279
368.536
369.79
370.966
371.993
372.824
373.4
373.72
315.666
316.674
317.96
319.315
320.639
321.867
322.929
323.788
324.389
324.735
265.672
266.776
268.309
269.9
271.393
272.721
273.843
274.743
275.363
275.755
215.133
216.291
218.166
220.202
222.007
223.516
224.725
225.689
226.366
226.837
163.992
165.352
167.403
170.089
172.373
174.168
175.451
176.439
177.05
177.707
111.783
113.871
116.255
119.584
122.539
124.593
125.755
126.493
127.12
128.195
57.135
60.9606
64.6707
68.5896
72.4124
74.7886
75.7776
76.1624
77.7049
80.3257
12.7965
15.3145
18.9992
21.8614
25.2653
26.7486
26.322
24.4295
28.0921
34.6916
-0.121311
-0.107057
-0.178499
0.229531
1.08061
1.36395
0.953764
0.386518
1.64783
5.1311
-0.272884
-0.28383
-0.297969
-0.33397
-0.362768
-0.388483
-0.444671
-0.478413
-0.610787
-0.482343
-0.376864
-0.385492
-0.389801
-0.410572
-0.433553
-0.456101
-0.483949
-0.448091
-0.472879
-0.500315
-0.45637
-0.466515
-0.480025
-0.500339
-0.515038
-0.512599
-0.484032
-0.461145
-0.502212
-0.541722
-0.520999
-0.542813
-0.568134
-0.59542
-0.613326
-0.601822
-0.557868
-0.519144
-0.54652
-0.58221
-0.58146
-0.600613
-0.623475
-0.653069
-0.686083
-0.688929
-0.660479
-0.622601
-0.619538
-0.630703
-0.644543
-0.651886
-0.665766
-0.688241
-0.728018
-0.757797
-0.749181
-0.720644
-0.708935
-0.702601
-0.715288
-0.713864
-0.713797
-0.715545
-0.75389
-0.81057
-0.825934
-0.80572
-0.800532
-0.778939
-0.787846
-0.793322
-0.790068
-0.781443
-0.795086
-0.846679
-0.883256
-0.87955
-0.871183
-0.84386
-0.851624
-0.862037
-0.879193
-0.894929
-0.890992
-0.905673
-0.935894
-0.937256
-0.931494
-0.902835
-0.907744
-0.922976
-0.95964
-1.01875
-1.04053
-1.01729
-1.00919
-1.00358
-0.996996
-0.96955
-0.971832
-1.00196
-1.0669
-1.14164
-1.16043
-1.13255
-1.09134
-1.07215
-1.06377
-1.04254
366.019
366.902
368.054
369.324
370.62
371.862
372.968
373.873
374.51
374.862
316.553
317.501
318.753
320.119
321.5
322.815
323.979
324.935
325.612
325.999
266.631
267.685
269.144
270.727
272.292
273.758
275.035
276.086
276.842
277.276
216.19
217.309
219.091
221.059
222.946
224.666
226.131
227.328
228.221
228.782
165.02
166.285
168.43
170.973
173.308
175.368
177.076
178.491
179.594
180.299
112.594
114.469
117.087
120.47
123.453
125.828
127.563
129.208
130.703
131.944
56.9238
60.1398
63.8921
68.7616
72.9244
76.08
78.3119
79.8575
82.3226
85.18
11.9204
13.3105
15.0911
19.633
23.5147
26.437
27.9704
29.565
34.7185
40.9109
-0.146622
-0.105284
-0.0767606
-0.0118422
0.611274
1.14566
1.1948
1.39312
3.73471
8.61938
-0.276587
-0.272133
-0.275934
-0.306067
-0.355083
-0.405031
-0.465496
-0.561084
-0.699267
-0.354925
-0.375465
-0.375211
-0.376786
-0.395941
-0.436848
-0.485459
-0.541035
-0.574706
-0.583675
-0.530673
-0.457601
-0.456566
-0.456684
-0.467873
-0.49824
-0.523719
-0.538481
-0.554274
-0.606979
-0.600918
-0.525142
-0.535921
-0.544025
-0.550817
-0.565759
-0.572663
-0.569815
-0.577395
-0.619478
-0.626306
-0.588354
-0.601064
-0.614644
-0.623716
-0.631606
-0.638131
-0.63319
-0.629331
-0.647762
-0.651545
-0.655088
-0.655383
-0.670967
-0.682002
-0.69343
-0.705339
-0.705728
-0.699457
-0.704149
-0.698581
-0.730623
-0.72138
-0.726772
-0.734697
-0.754155
-0.771571
-0.778966
-0.774672
-0.776613
-0.76316
-0.801081
-0.794976
-0.802031
-0.804637
-0.818954
-0.837788
-0.848388
-0.84663
-0.848604
-0.832697
-0.864149
-0.864528
-0.881477
-0.900037
-0.904707
-0.914014
-0.914589
-0.911227
-0.914282
-0.898115
-0.921213
-0.93182
-0.959166
-0.992256
-1.00332
-0.999234
-0.989314
-0.979336
-0.980173
-0.960548
-0.979068
-1.00672
-1.06182
-1.09965
-1.10149
-1.0809
-1.06439
-1.04781
-1.04396
-1.02514
366.964
367.789
368.905
370.191
371.542
372.871
374.077
375.075
375.769
376.158
317.522
318.411
319.625
321.01
322.461
323.889
325.186
326.264
326.986
327.434
267.643
268.656
270.063
271.664
273.326
274.955
276.43
277.683
278.517
279.012
217.267
218.417
220.11
222.059
224.085
226.038
227.73
229.218
230.279
230.962
166.273
167.576
169.538
171.964
174.488
176.918
179.028
180.791
182.323
183.305
113.95
115.776
118.252
121.322
124.509
127.458
130.004
132.352
134.595
136.162
58.6375
61.4902
65.5234
70.3289
74.6303
78.4658
81.3086
84.2076
87.788
90.836
11.8966
12.5342
13.6334
17.2264
22.1056
26.9695
30.5388
35.1416
42.0857
48.5602
-0.16504
-0.13051
-0.059116
0.0318611
0.436203
1.12763
1.762
2.98525
7.74398
15.6954
-0.283505
-0.277125
-0.27045
-0.279763
-0.322773
-0.363129
-0.398071
-0.409546
-0.241972
0.528883
-0.380703
-0.378715
-0.378982
-0.391203
-0.426752
-0.476965
-0.531786
-0.573682
-0.55679
-0.523423
-0.4651
-0.46116
-0.459155
-0.464481
-0.49027
-0.528712
-0.568601
-0.591359
-0.635304
-0.632946
-0.540321
-0.543301
-0.545177
-0.536149
-0.543568
-0.563775
-0.585426
-0.601622
-0.635047
-0.634641
-0.604952
-0.608395
-0.620048
-0.621779
-0.61064
-0.610444
-0.623903
-0.63504
-0.657174
-0.656103
-0.675621
-0.667164
-0.677809
-0.692638
-0.692905
-0.679413
-0.681145
-0.689056
-0.70121
-0.695517
-0.752841
-0.737973
-0.743198
-0.757524
-0.770545
-0.762527
-0.751637
-0.750557
-0.758892
-0.749155
-0.824822
-0.811685
-0.814557
-0.8243
-0.838872
-0.839573
-0.82806
-0.81775
-0.824446
-0.815372
-0.890309
-0.88474
-0.891741
-0.899784
-0.906949
-0.91074
-0.898935
-0.883721
-0.890125
-0.883897
-0.947413
-0.954489
-0.971789
-0.98603
-0.986358
-0.97991
-0.965293
-0.949134
-0.956619
-0.948033
-0.995258
-1.02336
-1.05239
-1.07305
-1.07544
-1.05518
-1.03257
-1.01737
-1.02151
-1.01014
367.934
368.703
369.788
371.09
372.5
373.919
375.232
376.327
377.07
377.495
318.528
319.357
320.536
321.943
323.475
325.022
326.47
327.7
328.475
328.926
268.699
269.661
271.031
272.665
274.45
276.271
277.981
279.355
280.216
280.786
218.347
219.534
221.192
223.196
225.362
227.588
229.639
231.142
232.315
233.195
167.807
168.926
170.827
173.337
176.129
178.849
181.304
183.4
185.098
186.438
115.393
116.932
119.172
122.001
125.832
129.585
132.915
135.898
138.589
140.49
62.4179
65.1079
69.2333
73.5161
77.2685
81.5258
85.4084
89.3686
93.7159
96.7864
12.1096
12.5135
13.7968
18.0161
24.4208
30.4614
36.101
42.5494
50.626
56.7369
-0.150683
-0.139649
-0.0512891
0.22044
0.98379
2.05387
3.40398
6.34893
15.9026
24.7237
-0.278907
-0.279878
-0.283928
-0.287781
-0.292933
-0.281054
-0.199966
-0.0141893
0.992587
4.07337
-0.376393
-0.379204
-0.38395
-0.3965
-0.414681
-0.443959
-0.47248
-0.517084
-0.575012
-0.576203
-0.463679
-0.460951
-0.463246
-0.473069
-0.49054
-0.525447
-0.577089
-0.613488
-0.674784
-0.657312
-0.54577
-0.541262
-0.542267
-0.536034
-0.53891
-0.567679
-0.599554
-0.604908
-0.635044
-0.628753
-0.618958
-0.609248
-0.612659
-0.618537
-0.605217
-0.597781
-0.624365
-0.635508
-0.656924
-0.655836
-0.696939
-0.675667
-0.674899
-0.686236
-0.690606
-0.672536
-0.67033
-0.685941
-0.698121
-0.691879
-0.777778
-0.754512
-0.74793
-0.757053
-0.769352
-0.763039
-0.741675
-0.739758
-0.746702
-0.73774
-0.858912
-0.833909
-0.824084
-0.828596
-0.840877
-0.842921
-0.820594
-0.803958
-0.806224
-0.798046
-0.929837
-0.910688
-0.902525
-0.898867
-0.906192
-0.913091
-0.89497
-0.871878
-0.871
-0.865824
-0.983861
-0.979419
-0.981118
-0.981743
-0.982583
-0.9794
-0.962913
-0.939374
-0.938618
-0.933298
-1.03353
-1.04402
-1.05642
-1.0677
-1.06804
-1.05236
-1.03067
-1.00651
-1.00649
-0.996633
368.886
369.595
370.649
371.961
373.423
374.918
376.318
377.552
378.262
378.736
319.537
320.297
321.44
322.865
324.463
326.096
327.675
329.121
329.803
330.292
269.831
270.702
272.029
273.694
275.596
277.591
279.496
280.941
281.742
282.328
219.68
220.722
222.323
224.351
226.737
229.087
231.192
232.877
234.083
235.271
169.425
170.584
172.54
175.014
177.812
180.812
183.39
185.798