/*--------------------------------*- C++ -*----------------------------------*\
| =========                 |                                                 |
| \\      /  F ield         | OpenFOAM: The Open Source CFD Toolbox           |
|  \\    /   O peration     | Version:  2312                                  |
|   \\  /    A nd           | Website:  www.openfoam.com                      |
|    \\/     M anipulation  |                                                 |
\*---------------------------------------------------------------------------*/
FoamFile
{
    version     2.0;
    format      ascii;
    arch        "LSB;label=32;scalar=64";
    class       volScalarField;
    location    "1";
    object      p_rgh;
}
// * * * * * * * * * * * * * * * * * * * * * * * * * * * * * * * * * * * * * //

dimensions      [1 -1 -2 0 0 0 0];

internalField   nonuniform List<scalar> 
8000
(
394.177
394.83
395.835
397.119
398.573
400.065
401.447
402.594
403.417
403.961
394.205
394.922
395.985
397.363
398.934
400.553
402.043
403.157
404.142
404.844
394.359
395.081
396.282
397.859
399.656
401.501
403.071
404.478
406.015
406.709
394.602
395.509
396.92
398.783
400.919
403.121
405.045
407.101
408.851
409.771
395.004
395.997
397.835
400.165
402.871
405.735
408.33
409.956
410.576
411.344
396.203
397.402
399.667
402.532
405.91
409.558
412.943
415.159
412.961
414.868
398.285
400.583
403.046
406.745
411.047
415.551
420.268
424.195
426.341
424.048
392.336
399.483
408.519
414.156
419.392
424.731
429.729
435.975
440.85
439.899
165.556
174.686
201.083
253.808
323.308
385.991
426.778
451.815
456.776
457.547
0.179901
0.198787
2.28946
16.2841
60.1524
147.711
247.026
337.91
424.983
467.926
0.213599
0.169312
0.145243
0.146803
0.161635
2.39166
13.0483
26.0341
48.8821
70.2576
0.20869
0.154952
0.141844
0.118113
0.0817106
0.0421612
0.0543927
0.0903441
0.101134
0.102312
0.138546
0.1417
0.143099
0.128489
0.108262
0.0866006
0.0967924
0.124074
0.125186
0.161006
0.117501
0.136757
0.15574
0.146777
0.125697
0.101181
0.0912278
0.128208
0.140614
0.333654
0.158522
0.32115
0.382381
0.204919
0.11911
0.0947494
0.0763167
0.0883745
0.121312
0.363477
0.648224
0.713538
0.767106
0.614905
0.180036
0.0687682
0.0585076
0.0486154
0.107961
0.253933
0.64537
0.718759
0.775569
0.751175
0.440136
0.122357
0.0367186
0.0340889
0.0838901
0.0479583
0.650104
0.714008
0.767101
0.757602
0.578954
0.453149
0.128309
0.0276168
0.0548042
0.0564271
0.138588
0.238627
0.379222
0.644311
0.602883
0.55967
0.466203
0.0264431
0.0615173
0.070659
-0.0184869
0.038497
0.256566
0.460973
0.575196
0.581523
0.506904
0.0525544
0.0695207
0.078094
393.662
394.338
395.371
396.671
398.129
399.613
400.963
402.093
402.782
403.324
393.586
394.315
395.424
396.825
398.407
400.014
401.457
402.424
403.073
403.939
393.402
394.216
395.503
397.126
398.959
400.744
402.191
403.319
404.322
405.426
393.29
394.172
395.719
397.676
399.869
401.953
403.432
405.068
406.338
408.496
393.069
394.144
396.103
398.581
401.311
404.079
406.111
408.37
409.072
412.082
392.34
393.786
396.347
399.761
403.471
407.231
410.622
413.919
415.645
418.049
394.347
395.986
398.854
402.723
407.104
411.949
416.924
421.999
426.204
428.391
367.576
376.691
388.359
402.066
413.431
419.689
425.886
431.955
437.598
442.316
101.481
108.493
127.472
168.371
231.654
308.227
368.747
417.271
444.919
453.54
0.178404
0.183544
0.273187
2.01882
19.9695
66.4274
136.51
219.693
293.861
371.675
0.203871
0.144014
0.144825
0.12819
0.0708673
0.0595381
0.070072
0.588328
1.12418
0.232362
0.175225
0.13579
0.135314
0.11774
0.0786249
0.0345803
0.0583663
0.0237267
0.053473
0.0832433
0.0969024
0.109588
0.129228
0.127905
0.0984995
0.0750605
0.0893234
0.0869838
0.090266
0.118924
0.0605371
0.10617
0.1959
0.172086
0.121087
0.0895799
0.0868776
0.077031
0.0958364
0.171012
0.0493752
0.459898
0.665619
0.583705
0.161829
0.0792161
0.0752597
0.0504831
0.0693806
0.34564
0.338435
0.609713
0.684038
0.694909
0.595674
0.0463364
0.0205454
0.0280539
0.152858
0.33651
0.556346
0.609231
0.685009
0.693199
0.658169
0.108454
-0.00558222
0.0625919
0.179689
0.11409
0.514022
0.54515
0.680981
0.699579
0.661991
0.230142
-0.0172402
0.0478367
0.206067
0.0428062
0.498534
0.0942908
0.175139
0.717775
0.155328
0.376819
0.0267728
0.0108263
0.199153
0.0689011
0.129316
-0.0281707
0.0393468
0.461922
0.154686
0.11217
0.262143
0.0157683
0.0724463
0.0842736
392.797
393.511
394.581
395.91
397.39
398.918
400.385
401.763
402.229
402.66
392.576
393.357
394.509
395.951
397.573
399.269
400.934
402.331
402.716
403.182
392.052
392.96
394.315
395.993
397.904
399.769
401.386
403.048
403.463
404.195
391.31
392.403
394.014
396.05
398.391
400.51
401.993
404.08
404.887
406.623
390.203
391.59
393.637
396.197
399.049
401.877
403.865
406.795
408.554
410.298
387.561
389.373
392.224
395.835
399.83
403.824
407.321
410.859
414.33
415.718
386.062
388.675
392.619
397.14
401.927
407.041
411.983
417.727
421.848
424.348
268.859
292.094
325.634
358.624
388.896
411.137
417.933
425.602
431.733
436.802
28.8769
32.7554
43.3939
63.2741
102.573
173.7
259.74
337.374
394.362
413.008
0.144002
0.164082
0.200214
0.189307
0.598354
6.16769
36.6211
101.982
188.658
253.275
0.175916
0.26722
0.277977
0.170045
0.153333
0.130592
0.0166827
-0.00355663
-0.00761939
-0.0175215
0.224429
0.15016
0.152456
0.162592
0.152081
0.111242
0.0456272
0.0200659
0.0292746
0.0257775
0.142827
0.1252
0.147928
0.152942
0.146204
0.124669
0.0996554
0.0801777
0.0817622
0.0922096
0.0711251
0.123796
0.2643
0.283423
0.138034
0.107866
0.0821785
0.0634289
0.119931
0.0932187
0.0440855
0.417471
0.632928
0.664675
0.42973
0.108652
0.0518506
0.0254412
0.122314
0.303904
0.113183
0.551098
0.626946
0.656772
0.635012
0.268277
-0.00632274
-0.0091976
0.136169
0.351767
0.0149529
0.273756
0.608212
0.65048
0.628671
0.476285
-0.0570192
-0.0255688
0.177745
0.173216
-0.120569
-0.0925791
0.550387
0.654201
0.635334
0.212492
-0.0645527
0.0483375
0.204414
0.0397755
-0.103527
-0.0942173
0.507731
0.674669
0.534959
-0.0610195
-0.0515967
0.10078
0.248828
0.0724759
-0.0805423
-0.0784198
0.394186
0.72434
0.352361
-0.0379611
-0.0107539
0.0705368
0.205109
0.0977181
391.732
392.502
393.608
394.959
396.417
397.965
399.274
400.753
401.259
401.659
391.355
392.191
393.408
394.879
396.496
398.165
399.706
401.331
401.754
402.166
390.494
391.462
392.909
394.651
396.562
398.533
400.353
401.991
402.456
402.978
389.068
390.197
392.076
394.233
396.535
398.924
400.646
402.432
403.187
404.669
386.893
388.601
390.732
393.507
396.46
399.401
401.812
404.2
405.715
407.55
382.469
384.566
387.673
391.57
395.796
399.882
403.638
407.39
409.875
411.859
375.388
380.144
385.387
391.055
396.125
401.087
406.093
411.252
415.249
418.874
154.797
183.118
233.087
292.572
341.195
377.588
404.364
415.092
422.872
428.137
1.64014
2.5501
5.50053
12.1425
29.9631
66.1992
123.866
203.561
297.599
364.027
0.189184
0.185203
0.176131
0.185545
0.23288
0.429787
1.17907
15.7426
79.0457
142.913
0.188797
0.255354
0.260129
0.20318
0.180763
0.197341
0.203679
0.162513
0.121751
0.0542374
0.224461
0.192468
0.193285
0.194561
0.172052
0.177874
0.145178
0.112013
0.0475165
0.0427824
0.131831
0.140072
0.153911
0.152588
0.156712
0.166398
0.173876
0.133837
0.0952758
0.0924377
0.119659
0.25915
0.318706
0.20343
0.152908
0.2698
0.325511
0.265156
0.107811
0.0895967
0.182327
0.517265
0.606367
0.639561
0.409057
0.307516
0.279533
0.25367
0.307364
0.154131
0.0481615
0.135716
0.320951
0.634531
0.601741
0.0903149
-0.00627175
0.165618
0.352806
0.351474
-0.117456
-0.0928065
0.0386269
0.632148
0.422818
-0.0656615
-0.0554582
0.152372
0.162226
0.205109
-0.118599
-0.0971404
0.458868
0.638897
0.17815
-0.0867428
-0.0711522
0.143242
0.101437
0.0360214
-0.0989002
-0.0781122
0.664409
0.673979
0.0611338
-0.0720221
-0.056775
0.0773209
0.171594
0.0752247
-0.0846865
-0.0122409
0.709032
0.740413
0.0782862
-0.0323984
0.00189401
0.0930487
0.142834
0.106474
390.633
391.47
392.623
393.98
395.435
396.894
398.193
399.373
400.038
400.448
390.141
391.04
392.308
393.791
395.38
396.97
398.408
399.758
400.402
400.831
388.991
390.067
391.576
393.333
395.213
397.089
398.784
400.329
401.037
401.529
387.074
388.431
390.323
392.556
394.863
397.124
399.041
400.628
401.773
402.63
383.922
385.64
388.062
391.063
394.083
396.978
399.445
401.519
403.267
404.516
378.599
380.839
384.048
387.832
392.332
396.353
399.835
402.951
405.345
407.255
364.287
370.782
379.971
387.071
391.486
396.147
400.392
404.64
408.521
412.068
112.015
134.19
174.697
238.487
296.876
337.257
365.928
381.596
394.772
403.453
0.274563
0.271721
0.279993
0.294808
6.82657
26.8242
56.1139
93.1429
178.348
282.079
0.193198
0.198713
0.196413
0.194187
0.182045
0.217651
0.346481
1.08824
8.39468
48.2026
0.183093
0.191129
0.192267
0.191257
0.173155
0.1802
0.184073
0.219243
0.354378
0.344624
0.163036
0.172771
0.175353
0.176272
0.17468
0.189258
0.203544
0.187738
0.141222
0.107949
0.13662
0.17148
0.165796
0.154166
0.178258
0.313344
0.385789
0.322691
0.144881
0.114415
0.272585
0.378567
0.275517
0.130818
0.197649
0.436421
0.431958
0.393035
0.121626
0.0955807
0.270681
0.296926
0.219263
0.187456
0.0982577
0.144057
0.323004
0.315561
0.331146
0.0678084
-0.0469592
-0.0556596
0.0156502
0.286172
0.0408212
0.00430852
-0.0267619
0.283001
0.339269
0.183198
-0.0913905
-0.0477833
0.0684915
0.285772
0.0073759
-0.0434268
-0.0884014
0.172315
0.375206
0.428682
-0.0740546
-0.00689918
0.670226
0.563721
-0.00947601
-0.0705174
-0.0935286
0.118789
0.427282
0.219402
-0.0643066
0.325988
0.695115
0.676112
-0.0128368
-0.0632086
-0.0448039
0.19232
0.220655
0.0833872
-0.074735
0.600246
0.709181
0.764894
0.148697
-0.0256923
-0.00471421
0.180823
0.30854
0.249085
389.674
390.561
391.748
393.096
394.505
395.881
397.115
398.155
398.828
399.205
389.092
390.061
391.372
392.839
394.364
395.85
397.183
398.326
399.032
399.433
387.818
388.951
390.539
392.261
394.036
395.761
397.295
398.632
399.411
399.837
385.726
387.091
389.043
391.239
393.451
395.528
397.309
398.856
399.86
400.496
382.264
383.983
386.497
389.384
392.264
394.945
397.167
399.054
400.437
401.36
377.321
379.455
382.739
386.545
390.362
393.737
396.572
398.991
400.769
402.535
358.892
365.204
374.69
382.866
388.413
392.832
395.832
398.859
401.892
405.245
112.888
131.042
168.356
222.892
280.931
312.317
330.552
344.048
355.16
369.205
0.225315
0.228774
0.23538
0.235721
1.45067
14.1202
28.0944
43.2244
89.8273
178.38
0.177077
0.182748
0.184187
0.178127
0.167363
0.159287
0.152123
0.284731
1.10689
5.0847
0.165817
0.177471
0.180266
0.176533
0.167756
0.16074
0.141973
0.116985
0.213543
0.354768
0.163991
0.176535
0.173848
0.172734
0.17934
0.199996
0.214161
0.22255
0.178946
0.156385
0.285106
0.30939
0.21621
0.156252
0.192163
0.390761
0.456773
0.402766
0.177897
0.14793
0.23612
0.315675
0.242496
0.141145
0.150578
0.348826
0.446252
0.445166
0.214647
0.109797
-0.023364
0.00730592
0.0557194
0.0834472
0.0658206
0.0564088
0.0613064
0.256339
0.335643
0.0633037
-0.0473361
-0.00817034
0.0281852
0.0363891
0.0362
0.0263256
0.00145339
0.00809382
0.339177
0.0543328
-0.0197579
0.00800768
0.0434478
0.0669485
0.00851115
-0.0143284
-0.039563
0.010125
0.218736
0.159907
-0.00490512
0.10651
0.501612
0.635051
0.00548887
-0.0520675
-0.0666248
0.0238109
0.191164
0.331489
0.00983629
0.712343
0.704227
0.711413
0.328882
-0.0603323
-0.0516564
0.221918
0.325813
0.347918
0.0592014
0.685695
0.698517
0.742038
0.679972
-0.0346671
-0.00830966
0.303868
0.341202
0.348712
388.921
389.857
391.066
392.389
393.737
395.026
396.168
397.104
397.739
398.083
388.328
389.346
390.682
392.112
393.555
394.926
396.134
397.129
397.797
398.168
387.057
388.206
389.876
391.51
393.156
394.705
396.054
397.16
397.87
398.274
384.947
386.34
388.356
390.44
392.463
394.299
395.837
397.072
397.924
398.458
381.612
383.282
385.854
388.62
391.239
393.514
395.346
396.777
397.672
398.448
376.912
378.986
382.27
385.978
389.482
392.238
394.23
395.785
396.695
398.206
361.092
366.039
374.242
381.774
387.19
390.692
392.714
394.337
396.258
399.09
131.148
146.686
181.672
235.505
288.401
307.627
307.478
309.585
314.485
329.633
0.214776
0.227202
0.240413
0.252347
3.88016
11.911
15.3409
20.5275
47.2998
97.2554
0.183496
0.192029
0.189685
0.169398
0.141342
0.119064
0.0742388
0.040876
0.433642
1.26682
0.173316
0.184291
0.176416
0.167215
0.15687
0.139886
0.104537
0.136532
0.134088
0.245572
0.194775
0.264158
0.221881
0.176226
0.189622
0.212717
0.217413
0.283819
0.190233
0.167375
0.136701
0.264538
0.294517
0.192614
0.21026
0.409877
0.42842
0.340252
0.213955
0.168062
0.0144078
0.0961422
0.157991
0.173112
0.147228
0.306614
0.47489
0.518207
0.353318
0.127493
0.0124211
0.0392073
0.0597931
0.0671689
0.0616752
0.0482131
0.0710223
0.145055
0.378561
0.0870741
0.0353607
0.0358267
0.0345289
0.0261482
0.0165776
0.0159658
0.0198871
0.0328945
0.0324223
0.0615262
0.0549964
0.0328271
0.0280686
0.114157
0.0720917
0.00419245
0.0135773
0.197608
0.0523597
0.10304
0.0624307
0.0650908
0.132996
0.57342
0.337453
0.055011
0.145546
0.24297
0.210424
0.197066
0.130937
0.483758
0.53071
0.510271
0.416808
0.117108
0.212303
0.248395
0.278209
0.316886
0.136173
0.690336
0.701797
0.0895945
0.073066
0.0107481
0.196194
0.256955
0.263601
0.182568
388.438
389.418
390.622
391.911
393.198
394.407
395.462
396.314
396.896
397.213
387.857
388.916
390.247
391.649
393.012
394.27
395.365
396.243
396.845
397.182
386.627
387.864
389.469
391.103
392.629
393.988
395.157
396.094
396.682
397.058
384.588
386.091
388.114
390.17
391.998
393.516
394.773
395.753
396.38
396.826
381.43
383.143
385.879
388.594
390.928
392.758
394.127
395.082
395.48
396.205
377.055
379.148
382.513
386.263
389.375
391.532
392.794
393.488
393.572
394.883
365.895
369.92
376.426
383.097
387.666
390.098
391.217
391.221
391.834
394.304
156.497
170.985
202.407
258.212
303.204
311.98
300.224
285.759
279.162
298.163
0.210623
0.242014
0.28822
0.338228
10.8428
14.7103
11.2293
8.87566
23.7923
55.8166
0.18213
0.207578
0.2089
0.173779
0.134562
0.109333
0.0398223
-0.0198442
0.00129328
0.772619
0.159813
0.277108
0.275672
0.175507
0.155326
0.138734
0.106898
0.243247
0.19488
0.213209
0.119558
0.324889
0.362147
0.234547
0.18949
0.219321
0.25603
0.332622
0.218644
0.178991
0.0686347
0.158867
0.25096
0.232463
0.251314
0.459143
0.481331
0.363908
0.250407
0.186401
0.0675172
0.0923695
0.114278
0.142537
0.203911
0.463967
0.522678
0.555477
0.4969
0.13664
0.0873194
0.148366
0.124557
0.108845
0.0803418
0.0970313
0.250148
0.402106
0.392938
0.11211
0.121515
0.180277
0.130636
0.114725
0.167887
0.0787489
0.0381826
0.0569769
0.0212343
0.109462
0.188462
0.0602464
0.0383674
0.109634
0.292115
0.269957
0.0923393
0.0372529
0.0577627
0.216265
0.0942107
0.0263207
0.0170243
0.0719612
0.326262
0.270443
0.102997
0.0771921
0.0692411
0.523704
-0.00217202
-0.00105599
0.0124753
0.0195067
-0.00193515
0.00893636
-0.0434439
0.214985
0.0052186
0.067528
-0.0481173
0.0216159
-0.0113052
-0.00545596
-0.0233104
-0.0416699
-0.0530152
0.117386
-0.0373143
-0.00398764
388.203
389.205
390.386
391.65
392.896
394.049
395.047
395.845
396.38
396.68
387.64
388.729
390.032
391.399
392.707
393.887
394.907
395.723
396.262
396.574
386.462
387.758
389.325
390.861
392.239
393.517
394.605
395.446
395.941
396.298
384.549
386.18
388.14
390.037
391.56
392.874
394.069
394.967
395.404
395.738
381.58
383.52
386.138
388.73
390.692
392.078
393.357
394.101
394.187
394.936
377.615
379.785
383.178
386.897
389.583
391.089
392.117
392.186
391.845
393.001
371.193
374.415
379.246
384.974
388.736
390.283
390.509
389.517
389.156
391.669
191.671
205.305
231.717
281.031
318.823
324.751
304.972
273.353
256.622
283.523
0.207216
0.246658
0.347574
5.36197
20.9457
21.8753
11.658
2.4285
11.0015
38.7088
0.181759
0.210007
0.231691
0.188011
0.149715
0.131527
0.0514668
0.0280904
0.100491
0.533561
0.157288
0.276453
0.333547
0.221476
0.1704
0.156514
0.123435
0.229051
0.237303
0.224569
0.140099
0.261452
0.351679
0.405481
0.254157
0.243144
0.262301
0.285705
0.263365
0.200158
0.127963
0.106555
0.194023
0.261526
0.372373
0.486446
0.51544
0.420683
0.287566
0.202138
0.109355
0.109908
0.123507
0.175184
0.167458
0.319546
0.521598
0.561681
0.551229
0.158317
0.113353
0.195546
0.339378
0.358004
0.111854
0.0851031
0.248173
0.511202
0.445867
0.104687
0.270369
0.350876
0.344726
0.337268
0.243307
0.0501247
0.0444678
0.398237
0.370154
0.104073
0.313367
0.163427
0.126343
0.287713
0.281019
0.189383
0.0237316
0.0160377
0.113343
0.250822
0.207869
0.0195402
0.0137732
0.0967311
0.290274
0.257386
-0.00416847
-0.0133226
0.0802039
0.534153
0.0013822
-0.000730881
0.00498679
0.129836
0.231875
0.0444761
-0.0362832
-0.0322423
0.00496494
0.498495
-0.0362536
-0.0316799
0.00459551
0.0569522
0.0487844
-0.0527541
-0.0618349
-0.051125
-0.0427275
0.0999381
387.978
389.241
390.386
391.657
392.891
394.009
394.966
395.733
396.238
396.529
387.301
388.803
390.09
391.437
392.733
393.876
394.819
395.596
396.101
396.4
386.239
387.906
389.437
390.962
392.368
393.584
394.534
395.297
395.732
396.088
383.648
386.529
388.427
390.219
391.764
393.086
393.955
394.8
395.153
395.503
380.413
384.394
386.852
389.099
391.01
391.721
392.968
393.94
393.921
394.463
377.331
381.443
384.594
387.684
389.634
390.856
391.699
391.973
391.567
391.89
373.678
378.605
382.548
386.643
389.657
391.056
390.985
389.455
388.56
391.248
229.964
245.82
269.943
301.247
333.263
339.401
318.042
275.596
250.547
282.386
0.225299
0.264113
1.63133
14.3663
31.7263
31.7081
14.6015
0.288969
7.11853
34.9714
0.175058
0.180581
0.208281
0.205764
0.182525
0.161088
0.0945129
0.101243
0.187765
0.441866
0.146041
0.19933
0.292765
0.269477
0.222657
0.175442
0.14845
0.192564
0.240113
0.239532
0.123804
0.162714
0.324342
0.358665
0.418126
0.355629
0.324303
0.277202
0.262394
0.210064
0.10418
0.0809252
0.0953714
0.281961
0.431295
0.506205
0.561287
0.50479
0.265158
0.199773
0.0935735
0.0928895
0.116325
0.198731
0.285302
0.187107
0.509369
0.551332
0.545022
0.140571
0.114511
0.203506
0.364975
0.349484
0.0928574
0.0673877
0.254692
0.513255
0.456165
0.0888537
0.327337
0.359556
0.357789
0.341876
0.155946
0.0324263
0.0388333
0.492904
0.420226
0.0663548
0.321381
0.338192
0.342607
0.327112
0.0510006
0.00943977
0.0305701
0.185198
0.443501
0.084839
0.252495
0.0837776
0.232504
0.312627
-0.0116782
-0.0241978
0.0784887
0.0618591
0.461791
0.519213
0.0123247
0.00364634
0.121352
0.296362
-0.043123
-0.0504348
0.129515
0.136531
0.259879
0.502436
-0.0152234
-0.0240901
0.157641
0.281078
0.0561904
-0.0719953
0.148198
0.199968
-0.0290787
0.365605
388.239
389.5
390.595
391.896
393.133
394.254
395.208
395.971
396.47
396.762
387.36
389.083
390.345
391.699
392.987
394.139
395.085
395.858
396.364
396.661
385.858
388.214
389.724
391.262
392.71
393.934
394.863
395.601
396.029
396.408
383.97
386.899
388.787
390.634
392.286
393.631
394.519
395.232
395.564
395.927
381.223
384.9
387.225
389.551
391.726
392.838
393.316
394.384
394.467
394.908
378.486
382.873
385.647
388.275
390.926
391.718
392.139
392.514
392.375
392.678
375.314
380.853
384.502
387.867
390.843
391.942
391.941
390.239
389.911
392.66
242.418
265.765
287.252
315.039
339.909
343.981
324.67
287.985
263.091
291.19
0.253957
0.356147
8.34326
21.2762
37.5237
36.9157
19.2357
0.658927
8.80566
39.336
0.167377
0.161711
0.173091
0.196473
0.1844
0.167895
0.106733
0.123356
0.287793
0.557032
0.129119
0.171563
0.264992
0.27682
0.254834
0.198898
0.141576
0.197415
0.236049
0.249959
0.10194
0.140845
0.294338
0.300375
0.34971
0.437713
0.300291
0.246911
0.237195
0.190443
0.0858095
0.0606002
0.0335972
0.150309
0.287336
0.43695
0.507747
0.429882
0.222339
0.169537
0.0829443
0.069019
0.0461398
0.029523
0.0447851
0.206373
0.466405
0.518179
0.311065
0.109054
0.0777156
0.0891279
0.206714
0.296346
0.223124
0.0484625
0.116239
0.477609
0.459184
0.0633556
0.185181
0.274052
0.355952
0.335253
0.300979
0.277182
0.02173
0.243707
0.425091
0.0171656
0.261191
0.342525
0.344879
0.31944
0.249932
0.251005
0.24223
0.0500891
0.441125
0.0100959
0.0790245
0.244684
0.33724
0.294983
-0.0439985
0.0609131
0.335494
0.121941
0.301683
0.110477
0.0273901
0.0122548
0.320768
0.261405
-0.0939339
-0.07519
0.340613
0.425538
0.449524
0.480231
0.00106622
-0.0189776
0.0877957
0.0650549
-0.126318
-0.0308728
0.347377
0.455807
0.454648
0.47349
389.013
389.976
391.116
392.369
393.61
394.752
395.735
396.518
397.046
397.348
388.509
389.553
390.824
392.187
393.488
394.661
395.66
396.454
396.994
397.312
387.489
388.681
390.167
391.751
393.197
394.462
395.494
396.302
396.805
397.196
385.919
387.153
388.862
391.008
392.81
394.1
395.201
396.051
396.524
396.954
383.542
383.954
386.089
389.706
392.343
393.712
394.657
395.479
395.702
396.326
380.847
381.943
384.397
388.585
391.687
393.366
393.888
393.999
394.083
395.232
376.326
379.68
383.235
387.687
391.122
392.836
392.833
392.053
392.587
395.228
226.436
258.013
283.154
308.868
333.578
338.838
321.453
292.309
285.574
310.043
0.283904
0.234434
6.01018
18.59
33.6102
34.2919
20.6732
6.3141
17.8365
55.7447
0.180487
0.161177
0.150865
0.159084
0.142788
0.132125
0.0830703
0.120456
0.245394
0.746601
0.131309
0.155544
0.291071
0.330755
0.234689
0.147387
0.103499
0.172812
0.234595
0.241033
0.103116
0.156511
0.30234
0.285263
0.301522
0.350282
0.151035
0.203088
0.203103
0.139993
0.0870146
0.0543554
0.0334318
0.163333
0.260827
0.329523
0.331374
0.18421
0.169204
0.1115
0.079124
0.0580228
0.0256526
-0.0188913
0.00729225
0.172908
0.362162
0.395491
0.100952
0.0752992
0.0871574
0.0648959
0.0570942
0.0362723
-0.01667
-0.0347816
0.13464
0.398004
0.251035
0.0230756
0.0874637
0.0754286
0.221039
0.29164
0.192919
-0.00314391
-0.0266491
0.285104
0.405025
-0.0166791
0.029597
0.226335
0.337251
0.326961
0.295675
0.22175
-0.0217672
-0.00953508
0.398306
-0.0200371
0.0211317
0.22891
0.324883
0.294537
0.266675
0.239869
0.0991614
-0.0246952
0.0112449
-0.0233258
0.0880186
0.0226436
0.304346
0.23853
0.181023
0.20342
0.0826182
-0.056063
0.0425011
0.0802283
0.0945735
-0.00427212
0.178042
-0.0997197
-0.134355
0.170852
-0.039735
-0.111387
0.203907
0.363774
389.69
390.637
391.804
393.061
394.315
395.491
396.518
397.349
397.925
398.245
389.241
390.249
391.535
392.89
394.214
395.442
396.504
397.363
397.964
398.31
388.297
389.401
390.924
392.524
394.017
395.345
396.468
397.368
397.988
398.38
386.787
387.853
389.758
391.872
393.681
395.185
396.399
397.364
398.041
398.512
384.568
384.638
387.964
390.805
393.098
394.893
396.176
397.164
397.775
398.432
381.389
382.026
385.88
389.345
392.313
394.367
395.53
396.268
396.895
397.97
374.93
378.047
383.227
387.338
391.208
393.601
394.601
394.987
396.53
399.151
204.998
235.262
262.074
290.177
320.439
331.703
322.763
305.936
318.884
337.017
0.296744
0.313787
0.253167
11.0825
25.1637
29.6076
23.4968
17.2426
42.0893
88.893
0.19377
0.183406
0.172381
0.143146
0.108072
0.0808063
0.0258389
-0.00208486
0.194503
0.707108
0.139127
0.143084
0.283241
0.307642
0.183696
0.0642625
0.041671
0.188735
0.225684
0.166473
0.108859
0.120795
0.296398
0.320285
0.310698
0.129436
0.0987845
0.12955
0.106483
0.0498444
0.0933214
0.0717185
0.0536618
0.201261
0.27871
0.148524
0.0838174
0.120214
0.0814238
0.0400043
0.0825302
0.0632174
0.0404002
0.010946
0.0461302
0.160994
0.10263
0.0760062
0.0520979
0.0375667
0.10268
0.0629972
0.0473486
0.0249039
-0.0147861
-0.00469434
0.172394
0.229835
0.012342
0.0130852
0.0935326
0.0952917
0.0488511
0.0473123
0.00915366
-0.0469982
0.0269248
0.258123
0.0579899
-0.013939
0.0290989
0.0450585
0.07571
0.199554
0.0567936
-0.0333318
-0.0683077
0.00518523
0.12291
-0.0303963
0.0157754
0.00923868
0.214705
0.294064
0.280783
-0.00942398
-0.0723762
-0.0391254
0.0411083
-0.0401368
0.0820773
0.0489845
0.280352
0.229811
0.199215
0.122865
-0.0942203
-0.088203
-0.0812675
-0.0551624
0.134427
0.0722819
0.128114
0.163869
0.139953
0.127215
-0.10439
-0.110542
-0.0891936
-0.0248874
390.544
391.427
392.579
393.849
395.145
396.387
397.493
398.398
399.035
399.387
390.128
391.076
392.328
393.694
395.075
396.39
397.554
398.51
399.187
399.574
389.256
390.31
391.768
393.352
394.917
396.383
397.66
398.711
399.467
399.901
387.857
388.955
390.764
392.734
394.621
396.341
397.806
399.003
399.896
400.457
385.664
386.789
389.149
391.698
394.033
396.093
397.801
399.216
400.319
401.024
382.298
384.087
386.851
390.244
393.228
395.602
397.337
398.983
400.478
401.719
374.39
378.225
382.621
387.536
391.728
394.899
397.137
398.683
401.148
404.005
193.476
214.644
235.787
270.275
305.233
327.351
330.952
333.031
353.765
368.507
0.271046
0.313351
0.345956
3.51523
16.3561
26.095
27.5346
35.2838
80.0528
144.777
0.190026
0.194672
0.191749
0.163535
0.114207
0.0638515
0.00379322
-0.0905803
0.375848
1.03408
0.140343
0.144758
0.184774
0.193279
0.114065
0.0331909
-0.00686737
0.115463
0.0719418
0.11013
0.107436
0.109162
0.185348
0.263451
0.160709
0.0478562
0.123008
0.274094
-0.0153252
-0.0182441
0.0890844
0.0785096
0.0788567
0.0959867
0.105059
0.0518965
0.0716444
0.0781714
0.0053483
-0.00722109
0.0755034
0.0627101
0.0492019
0.0431875
0.0662592
0.0659142
0.0449088
0.0430601
0.0204079
0.0147312
0.0864282
0.0668304
0.0421138
0.0311939
0.0267457
0.0336926
0.035166
0.0245853
0.0114813
0.0165182
0.0382124
0.0833303
0.0565011
0.0283365
0.00901979
-0.00617622
0.0188254
0.0189166
-0.0121959
0.00100203
0.0166036
0.0243901
0.0271336
0.0311193
-0.00611382
-0.0242802
-0.0290409
-0.00456577
-0.0351412
-0.0193021
0.0325898
0.00561828
-0.0114394
0.0252346
-0.0237808
-0.0509147
-0.0519149
-0.0336506
-0.0232276
-0.0354116
0.0358512
0.00727077
-0.00863494
-0.0623675
-0.0507795
-0.0833386
-0.0777259
-0.0589266
-0.0327615
-0.0485121
0.115175
0.159997
0.12442
0.0129125
-0.0941037
-0.120036
-0.103762
-0.0867533
-0.0520319
-0.000246544
391.489
392.314
393.43
394.716
396.067
397.396
398.602
399.6
400.294
400.683
391.097
391.986
393.2
394.585
396.036
397.464
398.761
399.839
400.561
401.009
390.268
391.281
392.688
394.289
395.951
397.58
399.055
400.308
401.142
401.637
388.942
390.092
391.784
393.734
395.76
397.713
399.405
400.893
401.954
402.637
386.993
388.3
390.263
392.689
395.213
397.643
399.753
401.516
403.048
404.03
383.718
385.547
388.026
391.097
394.284
397.233
399.779
402.127
404.37
405.937
376.37
379.742
384.193
389.135
393.449
397.29
400.134
403.033
406.613
409.661
194.632
207.408
225.277
258.711
296.42
330.889
349.309
364.851
386.35
398.58
0.252545
0.287226
0.359353
0.452032
11.374
24.4129
36.8072
61.1661
141.981
233.253
0.183148
0.189587
0.19643
0.187938
0.14587
0.105793
0.0708008
0.151985
1.37607
14.6275
0.135158
0.137829
0.140827
0.128159
0.0916588
0.0413153
-0.0131464
-0.0473135
0.116981
0.135746
0.100039
0.104141
0.118133
0.132608
0.0854501
0.0393355
0.070366
0.177118
-0.0452786
-0.055283
0.0740028
0.0711363
0.0779042
0.11247
0.101463
0.0546131
0.0665726
0.0731166
-0.0126226
-0.0160443
0.0586399
0.0582953
0.0466214
0.055109
0.104776
0.0836359
0.0533459
0.0359377
0.0109516
0.0109163
0.048259
0.0498673
0.0555766
0.0242026
0.0617526
0.107384
0.0629706
0.0381473
0.0215027
0.0205559
0.0171104
0.0315786
0.0511366
0.0410797
-0.00173686
0.033215
0.04992
0.0188083
0.0164315
0.0232113
0.11563
0.0104741
0.00576492
0.0152053
-0.0186741
-0.0257781
-0.00481746
-0.00182369
-0.00927234
-0.000496262
0.145468
-0.00823032
-0.0224617
-0.0311104
-0.0275149
-0.0284094
-0.0277297
-0.0189678
-0.0272984
-0.0213484
0.0017777
-0.0194255
-0.0534762
-0.0677886
-0.0335502
0.0406259
-0.0145024
-0.0323878
-0.00956094
-0.036415
-0.00678069
-0.0307664
-0.0858173
-0.105173
-0.088336
0.0235463
0.0240806
-0.052276
-0.00480339
0.00815976
392.459
393.228
394.313
395.615
397.025
398.444
399.757
400.852
401.595
402.02
392.103
392.932
394.111
395.518
397.05
398.597
400.045
401.275
402.05
402.501
391.324
392.286
393.656
395.29
397.075
398.896
400.606
401.98
402.841
403.411
390.022
391.209
392.866
394.871
397.037
399.263
401.314
402.816
403.99
404.87
388.491
389.598
391.548
394.062
396.854
399.574
402.028
404.125
405.823
407.163
384.43
386.236
388.946
391.775
395.607
399.36
402.69
405.673
408.364
410.265
380.498
383.69
388.003
392.308
396.093
400.351
404.233
408.194
412.541
415.611
203.228
213.255
235.843
269.875
312.191
353.694
382.18
398.535
413.793
421.843
0.267274
0.279534
0.370609
5.88496
20.4177
40.1533
66.8872
121.549
239.484
322.25
0.190339
0.187445
0.183773
0.180807
0.176025
0.187563
0.362004
1.50606
29.7199
80.6572
0.142446
0.141917
0.133829
0.12135
0.103302
0.0744026
0.053583
0.146349
0.167785
0.0500199
0.101622
0.108545
0.11317
0.102118
0.0804682
0.0432035
-0.00788908
-0.0314158
-0.0713056
-0.078837
0.0687861
0.0745365
0.115621
0.113043
0.0958334
0.0509173
0.0199529
0.0175963
-0.005786
-0.00914694
0.10526
0.104331
0.0576301
0.0797719
0.110199
0.0771784
0.0533631
0.0422716
0.0240488
0.0122479
0.146993
0.155927
0.0989113
0.0309794
0.0391059
0.118042
0.125705
0.0978327
0.08774
0.0293892
0.195278
0.15862
0.0970862
0.0294365
0.000611104
0.0517115
0.122668
0.12071
0.0844813
0.0332123
0.194752
0.220737
0.159216
0.00714355
-0.0202086
0.00381671
0.10353
0.102896
0.0254134
0.015415
0.185559
0.193112
0.133088
0.000176279
-0.0228068
0.031538
0.0928656
0.0650964
-0.00823278
-0.00348273
0.124907
-0.0366987
-0.031261
-0.000146616
0.0522686
0.104376
0.0855544
0.0107567
-0.0238287
-0.0218629
-0.0496719
-0.0747642
-0.0922433
-0.08413
-0.0398099
0.00872597
0.0133403
-0.0424905
-0.0312749
-0.028388
393.411
394.12
395.174
396.486
397.948
399.443
400.843
402.077
402.787
403.261
393.112
393.872
395.015
396.44
398.038
399.671
401.25
402.696
403.378
403.867
392.456
393.327
394.654
396.319
398.221
400.216
402.121
403.566
404.367
404.953
391.353
392.394
393.998
396.026
398.412
400.762
402.865
404.55
405.758
406.946
390.038
391.276
393.265
395.739
398.537
401.536
404.112
406.522
408.288
410.151
386.538
388.362
390.989
394.205
398.04
402.07
405.694
408.887
411.923
414.018
383.991
386.34
390.062
394.325
398.989
404.017
408.552
413.173
418.073
420.942
231.846
249.102
279.023
312.824
350.213
386.039
411.947
419.688
427.057
432.438
0.376271
3.32032
11.8349
27.2711
52.9311
91.2335
151.044
246.781
342.821
390.264
0.181075
0.163916
0.14865
0.140011
0.25679
0.542228
1.52137
30.9085
114.958
199.257
0.145723
0.141784
0.124117
0.10632
0.102754
0.117071
0.21773
0.653536
1.21409
0.594512
0.110371
0.136904
0.123168
0.0968824
0.0781578
0.0507611
0.0105345
-0.00977393
-0.13502
-0.0785039
0.0799814
0.0895587
0.134271
0.0968244
0.0840273
0.0756605
0.0208585