/*--------------------------------*- C++ -*----------------------------------*\
| =========                 |                                                 |
| \\      /  F ield         | OpenFOAM: The Open Source CFD Toolbox           |
|  \\    /   O peration     | Version:  2312                                  |
|   \\  /    A nd           | Website:  www.openfoam.com                      |
|    \\/     M anipulation  |                                                 |
\*---------------------------------------------------------------------------*/
FoamFile
{
    version     2.0;
    format      ascii;
    arch        "LSB;label=32;scalar=64";
    class       surfaceScalarField;
    location    "1";
    object      phi;
}
// * * * * * * * * * * * * * * * * * * * * * * * * * * * * * * * * * * * * * //

dimensions      [0 3 -1 0 0 0 0];

oriented        oriented;

internalField   nonuniform List<scalar> 
22600
(
-3.19322e-08
7.7745e-08
-1.40461e-07
1.27792e-08
9.11355e-08
-1.35847e-07
3.59787e-08
9.98491e-08
-1.23049e-07
4.13153e-08
1.05387e-07
-1.10724e-07
3.60709e-08
1.09156e-07
-1.03912e-07
2.85285e-08
1.16876e-07
-1.09333e-07
2.42328e-08
1.40827e-07
-1.36532e-07
5.59986e-08
1.61646e-07
-1.93412e-07
6.48551e-08
1.35658e-07
-1.44515e-07
1.34224e-07
-6.93692e-08
-7.2315e-09
1.34159e-07
-1.43762e-07
5.78217e-08
1.79658e-07
-1.53576e-07
1.02509e-07
2.05272e-07
-1.50111e-07
1.25712e-07
2.24624e-07
-1.4244e-07
1.27611e-07
2.48048e-07
-1.40791e-07
1.14144e-07
2.95449e-07
-1.65107e-07
9.44687e-08
3.89799e-07
-2.29296e-07
6.64839e-08
3.94878e-07
-2.05247e-07
6.48751e-08
1.60772e-07
-2.35054e-08
2.58331e-07
-5.92315e-08
2.70388e-08
6.25896e-08
-5.20709e-08
7.89499e-08
2.39044e-07
-1.11297e-07
1.11673e-07
3.08374e-07
-1.35824e-07
1.36729e-07
3.41927e-07
-1.42359e-07
1.556e-07
3.89795e-07
-1.60619e-07
1.71023e-07
4.80529e-07
-2.00502e-07
7.75996e-08
6.03297e-07
-1.20075e-07
-1.02361e-07
3.65394e-07
2.09444e-07
-7.83012e-08
-3.85322e-07
5.22034e-07
-7.00178e-09
1.87031e-07
6.34655e-08
-2.65828e-07
1.37211e-07
1.76083e-07
1.30215e-07
-3.78864e-09
2.03194e-07
3.6521e-07
-8.39477e-08
2.10664e-07
4.60601e-07
-1.26144e-07
2.36194e-07
5.2353e-07
-1.59266e-07
2.32953e-07
6.18747e-07
-1.34977e-07
-1.34562e-07
7.28629e-07
2.42183e-07
-5.86435e-07
1.89306e-07
6.27961e-07
-4.74328e-07
-1.29747e-06
8.00039e-07
-1.02528e-06
5.43948e-07
3.86014e-08
-5.22507e-07
9.3945e-08
2.06116e-07
-1.62204e-07
1.24905e-07
3.01618e-07
1.83086e-07
8.66219e-08
3.5623e-07
3.52136e-07
5.38531e-08
4.32024e-07
4.23907e-07
2.38288e-08
4.34129e-07
5.41567e-07
7.50745e-08
9.22887e-09
6.6092e-07
4.9261e-07
-5.13736e-07
-5.23287e-08
7.646e-07
-5.45708e-07
-1.44243e-06
1.76933e-07
-1.90202e-06
3.31036e-07
-7.81592e-08
-4.31175e-07
-1.55506e-07
8.66765e-08
-2.69358e-07
-5.76823e-08
2.92147e-07
-3.13357e-08
8.95124e-09
4.79957e-07
1.2432e-07
4.0005e-08
6.42687e-07
1.75994e-07
8.51838e-08
7.1882e-07
2.11456e-07
2.53978e-07
5.46024e-07
1.95868e-07
6.37847e-07
2.02018e-07
-5.58942e-07
8.50619e-07
1.18658e-08
-1.25886e-06
6.58504e-09
-1.74596e-06
-1.44194e-07
-1.4463e-07
-1.00403e-07
-5.21969e-07
1.33825e-07
-9.49028e-08
-4.5291e-07
4.64508e-07
7.39096e-09
-3.6941e-07
7.68967e-07
1.11086e-07
-2.91225e-07
9.67705e-07
1.48236e-07
-1.70981e-07
1.01593e-06
8.40845e-08
7.91463e-08
7.96782e-07
-1.96883e-07
6.119e-07
3.15464e-07
-9.70406e-07
8.92781e-07
1.2583e-07
-1.12807e-06
5.88443e-08
-1.26107e-06
-3.59063e-07
-1.77871e-07
2.13927e-07
-8.6976e-07
3.15712e-07
2.02652e-07
-7.91138e-07
7.65624e-07
3.19918e-07
-7.62438e-07
1.10375e-06
4.69879e-07
-6.96923e-07
1.29394e-06
4.86606e-07
-5.28556e-07
1.33033e-06
2.91178e-07
-2.43482e-07
1.01893e-06
-8.72107e-08
2.01722e-07
3.62717e-07
-7.22408e-07
4.0822e-07
9.89183e-08
-6.83969e-07
-1.80304e-07
-8.96592e-07
-2.65561e-07
-2.83073e-07
-1.24995e-06
6.99877e-07
4.29582e-07
-1.07612e-06
5.66116e-07
9.51706e-07
-3.03515e-07
1.0131e-07
1.13996e-06
4.98916e-07
-2.1729e-07
1.16273e-06
8.56147e-07
-3.92317e-07
1.14639e-06
6.83651e-07
-3.76127e-07
8.38013e-07
2.92749e-07
-7.15848e-08
2.6444e-07
-1.91602e-07
4.27659e-08
1.48936e-07
-3.24606e-07
-2.43858e-07
-1.04148e-06
2.93828e-07
-1.79536e-06
-5.20026e-07
-5.31688e-07
-2.5641e-06
5.20281e-07
-8.2769e-07
-2.99323e-06
2.79588e-07
-1.53975e-07
-2.76032e-06
-1.30239e-06
1.56839e-06
-2.09215e-06
-1.28105e-06
1.46903e-06
-1.59616e-06
-1.10433e-06
1.29199e-06
-1.42422e-06
-1.32512e-06
1.44593e-06
-1.01649e-06
-1.72686e-06
1.12753e-06
-1.6114e-07
-1.87447e-06
6.94509e-07
-2.03049e-06
8.2787e-07
-3.97216e-07
-2.38071e-06
1.31547e-06
2.67121e-07
-9.00577e-07
7.56499e-07
2.82776e-07
9.33969e-07
-6.70034e-07
-2.3326e-06
1.84198e-06
-5.29002e-07
-5.58885e-06
1.90401e-06
7.11906e-08
-7.10719e-06
7.41411e-07
-3.274e-07
-5.49494e-06
-3.90782e-06
9.70455e-07
-3.3792e-06
-5.25477e-06
1.41217e-06
-1.27684e-06
-5.95669e-06
1.97986e-06
-5.58585e-06
2.27852e-06
-2.95606e-06
-5.52168e-06
2.86302e-06
-1.19117e-06
-5.35232e-06
2.68683e-06
1.02154e-06
-3.17769e-06
1.89894e-06
2.34545e-06
5.4433e-07
-2.62747e-08
1.99647e-06
3.35805e-06
-1.10506e-06
1.14493e-06
3.86387e-06
-2.27094e-06
6.19607e-07
5.94282e-08
-3.44193e-06
-1.52428e-07
-2.5797e-06
-1.90304e-06
-8.5446e-07
-4.23725e-06
-1.01741e-06
-4.37995e-06
-2.06035e-06
-8.3126e-06
-7.33055e-06
1.97075e-06
-6.26403e-06
-8.54921e-06
1.1483e-06
-2.5207e-06
-8.07355e-06
1.15252e-06
1.28119e-06
-4.64441e-06
1.38684e-06
3.15215e-06
1.35615e-06
1.3092e-07
2.6091e-06
5.77059e-06
-1.36366e-06
1.37151e-06
4.89653e-06
-3.59951e-06
5.22081e-07
2.53483e-06
-4.26509e-06
-4.20448e-07
8.24445e-07
-4.11916e-06
-3.29293e-07
-4.47111e-06
-1.18708e-05
-6.71711e-06
-1.08428e-06
-9.36401e-06
-8.59436e-06
-2.46158e-06
-5.40859e-06
-9.41075e-06
-2.61821e-06
-1.17539e-06
-7.69113e-06
-1.18649e-06
1.90705e-06
-2.88344e-06
1.15716e-06
2.83887e-06
4.30025e-06
5.38501e-07
1.12328e-06
7.75765e-06
-1.14554e-06
-3.10068e-07
6.91588e-06
-2.94767e-06
-6.39056e-07
4.99584e-06
-3.84243e-06
3.24598e-06
-4.21435e-06
-1.25751e-05
-5.2552e-06
-2.945e-06
-9.44368e-06
-7.14605e-06
-4.57969e-06
-5.15675e-06
-8.19787e-06
-5.4998e-06
-1.24233e-06
-7.1826e-06
-4.42295e-06
1.21425e-06
-3.87169e-06
-1.46832e-06
2.57141e-06
8.44239e-07
2.09883e-06
1.38442e-06
7.44871e-06
1.49596e-06
-4.4054e-07
9.8931e-06
-1.15226e-06
-4.55512e-07
8.19828e-06
-3.18747e-06
6.31239e-06
-3.52192e-06
-1.21787e-05
-3.65238e-06
-3.63932e-06
-8.67836e-06
-5.30184e-06
-5.34456e-06
-4.26982e-06
-6.39528e-06
-6.21114e-06
-6.0783e-07
-5.96413e-06
-4.88044e-06
1.52733e-06
-3.40648e-06
-2.60038e-06
2.05988e-06
-1.04278e-06
1.35447e-06
1.78585e-06
4.24161e-06
3.48114e-06
1.74024e-07
1.0315e-05
1.18995e-06
-1.28056e-07
1.0431e-05
-1.93062e-06
7.58238e-06
-1.39804e-06
-1.14232e-05
-1.79376e-06
-3.8732e-06
-7.96631e-06
-3.1869e-06
-5.57182e-06
-3.74022e-06
-4.45106e-06
-6.1703e-06
-6.2149e-07
-5.04768e-06
-4.03518e-06
1.35749e-06
-3.90176e-06
-1.4837e-06
1.67476e-06
-2.28494e-06
9.24897e-07
1.36623e-06
3.97204e-07
4.1529e-06
7.05195e-07
7.59002e-06
3.38599e-06
3.21703e-07
1.10595e-05
-2.45039e-07
6.3216e-06
1.58247e-06
-1.0607e-05
7.57521e-08
-3.58292e-06
-7.50395e-06
-9.21027e-07
-5.36892e-06
-3.71295e-06
-2.29192e-06
-5.95014e-06
-7.41282e-07
-4.17128e-06
-3.84806e-06
4.835e-07
-4.64265e-06
-4.83895e-07
8.47544e-07
-4.2636e-06
1.61461e-06
5.0803e-08
-2.5093e-06
3.70326e-06
-2.04756e-07
3.61452e-06
4.23108e-06
4.89966e-07
8.42677e-06
1.93803e-06
3.73483e-06
3.07674e-06
-1.03074e-05
1.43469e-06
-2.52152e-06
-7.96483e-06
5.28958e-07
-3.7926e-06
-4.50623e-06
-1.09365e-06
-4.65688e-06
-1.07964e-06
-3.4631e-06
-4.13477e-06
6.25875e-08
-5.0975e-06
-6.87394e-07
-3.0517e-07
-5.45587e-06
1.56002e-06
-1.61766e-06
-3.87866e-06
2.68186e-06
-2.00461e-06
5.93242e-07
3.40821e-06
-3.58757e-07
3.86543e-06
2.91549e-06
1.08486e-06
2.29124e-06
-9.88951e-06
-1.73385e-06
2.35379e-06
-8.09633e-06
-2.67026e-06
1.40604e-06
-5.12943e-06
-3.75319e-06
-3.07353e-07
-1.65703e-06
-4.29169e-06
-2.64381e-06
-3.59906e-07
-1.90476e-06
-4.48987e-06
-1.15743e-06
5.54839e-07
-5.21317e-06
-2.7836e-06
1.53451e-06
-3.787e-06
-3.30724e-06
1.93799e-06
-8.21118e-07
-1.48236e-06
1.44922e-06
5.91365e-07
1.66821e-07
-5.64332e-07
-5.88215e-08
2.49156e-08
-1.84284e-07
-5.58705e-08
4.49926e-08
-1.83791e-07
-6.19707e-08
5.44834e-08
-1.71432e-07
-7.40675e-08
6.04807e-08
-1.59108e-07
-9.02894e-08
6.16987e-08
-1.49389e-07
-9.94434e-08
5.16197e-08
-1.51799e-07
-6.89967e-08
1.51359e-08
-1.82115e-07
7.82895e-08
-1.14012e-07
-2.26687e-07
1.35787e-07
-5.45404e-08
-1.47472e-07
1.82337e-07
-1.15919e-07
-3.11341e-08
2.98441e-08
-1.94063e-07
-4.07778e-09
7.6907e-08
-2.12547e-07
4.10036e-09
1.09851e-07
-2.13657e-07
-9.9823e-09
1.40236e-07
-2.08113e-07
-5.50064e-08
1.74171e-07
-2.0824e-07
-1.44389e-07
2.09961e-07
-2.34067e-07
-2.13659e-07
1.06465e-07
-2.51356e-07
-9.12377e-08
-4.2782e-07
-1.38606e-08
9.52503e-08
-4.1089e-07
1.46356e-07
3.69972e-07
-1.51617e-07
-2.22213e-08
5.69203e-08
-1.2464e-07
-3.18563e-08
1.79593e-07
-2.04348e-07
-3.74745e-08
2.10766e-07
-2.31121e-07
-5.46184e-08
2.51918e-07
-2.36898e-07
-1.34391e-07
3.53899e-07
-2.60575e-07
-3.14777e-07
4.57599e-07
-2.67754e-07
-5.71281e-07
2.06139e-07
3.67545e-08
-6.26216e-07
-8.08721e-07
6.4528e-07
-2.69646e-07
-1.07249e-06
8.27066e-07
2.71767e-07
1.55909e-08
4.65186e-08
-1.33019e-08
6.25818e-08
4.80362e-08
2.7798e-07
-1.03694e-07
1.34319e-08
3.68154e-07
-2.06731e-07
-1.46546e-08
4.20824e-07
-2.66963e-07
-4.83775e-08
5.44042e-07
-3.15686e-07
-2.0806e-07
6.78385e-07
-1.9608e-07
-5.41574e-07
4.05507e-07
3.76328e-07
-8.37528e-07
-6.99192e-07
8.14387e-07
-5.41018e-07
-1.35255e-06
7.83586e-07
-1.55114e-07
4.29812e-07
4.82041e-08
-1.08546e-07
7.20226e-08
1.51771e-07
3.33918e-07
-3.46e-08
1.55906e-07
5.54353e-07
-1.03712e-07
1.65358e-07
6.32298e-07
-1.67073e-07
2.36605e-07
7.29287e-07
-2.32663e-07
2.87965e-07
8.13093e-07
-1.10994e-07
1.69533e-07
6.22164e-07
3.94384e-07
-1.46975e-07
-3.13536e-07
6.95452e-07
-2.76689e-07
-1.00803e-06
-3.78798e-08
-4.00655e-07
2.99887e-07
-1.28296e-07
9.8602e-08
-2.20771e-07
-7.7945e-09
3.15544e-07
-1.5981e-07
1.79073e-07
4.76678e-07
-1.00241e-07
3.5596e-07
5.80342e-07
-8.49258e-08
5.26393e-07
7.25516e-07
-8.14797e-08
6.85748e-07
8.5849e-07
4.92263e-08
7.45297e-07
6.5605e-07
5.44412e-07
5.78905e-07
-1.24248e-07
8.27723e-07
1.86432e-07
-4.82534e-07
-1.26433e-07
-2.57774e-07
-1.00642e-07
-1.61238e-07
4.61452e-07
-8.50712e-07
-1.78281e-08
4.78185e-07
-7.5896e-07
2.24543e-07
5.3401e-07
-6.69113e-07
4.82377e-07
5.80298e-07
-5.49015e-07
6.82648e-07
6.44642e-07
-2.90378e-07
8.03896e-07
7.27016e-07
8.93716e-08
8.69726e-07
5.77462e-07
6.24658e-07
7.20798e-07
1.16147e-07
8.01314e-07
2.38547e-07
7.2549e-08
-1.39868e-08
-2.47362e-08
-3.53554e-07
-6.80372e-08
9.8758e-07
-1.75581e-06
3.27421e-07
9.9757e-07
-1.70598e-06
6.47676e-07
1.13999e-06
-1.68867e-06
8.14607e-07
1.27617e-06
-1.55972e-06
8.58653e-07
1.3003e-06
-1.22826e-06
8.37767e-07
1.16583e-06
-6.61413e-07
7.96114e-07
8.25436e-07
-4.5986e-09
5.66628e-07
5.57784e-07
1.96069e-07
9.97346e-08
6.33985e-07
-2.74847e-07
1.92338e-07
-3.829e-07
-4.92484e-07
-2.26109e-07
1.57844e-06
-1.0939e-07
3.92011e-07
7.8858e-07
1.67988e-07
1.08744e-06
-1.23517e-07
3.53084e-07
1.70474e-06
-8.30959e-07
4.97733e-07
1.98926e-06
-1.22592e-06
6.04863e-07
1.80278e-06
-1.1202e-06
7.5794e-07
1.15392e-06
-5.53142e-07
6.58613e-07
7.58809e-07
-5.89326e-08
2.57645e-07
6.87165e-07
1.0393e-07
5.19298e-09
7.38618e-07
-1.7845e-06
-8.29584e-07
-4.68346e-07
-2.15426e-06
1.16292e-06
-1.22887e-06
-2.87807e-06
3.19368e-06
-1.5364e-06
-3.49585e-06
4.05432e-06
-1.63413e-07
-2.69158e-06
-3.24096e-08
2.68644e-06
-1.95705e-06
-2.80119e-06
5.16142e-06
-1.42477e-06
-1.85684e-06
3.92441e-06
-1.14945e-06
-1.78964e-06
3.40065e-06
-5.78092e-07
-2.56742e-06
3.37774e-06
-2.95929e-06
3.21426e-06
-1.59249e-06
-3.33883e-06
2.91981e-06
-4.83927e-07
-1.31643e-06
2.12729e-06
7.31002e-08
1.61436e-06
3.52235e-07
5.27252e-07
4.12002e-06
-1.04888e-06
-2.14365e-07
3.82633e-06
-3.04595e-06
-3.06014e-06
-7.20602e-07
4.37784e-07
-4.53633e-06
-9.38291e-07
1.52809e-06
-3.23983e-06
-2.96147e-06
1.28751e-06
-1.2642e-06
-6.13377e-06
3.57058e-06
-4.4098e-06
2.46482e-06
-5.58043e-06
-4.41924e-06
3.70421e-06
-3.12048e-06
-4.13155e-06
3.04199e-06
4.74461e-07
-2.36918e-06
2.28753e-06
2.72651e-06
1.21116e-06
6.30512e-07
3.30373e-06
4.07238e-06
-1.92832e-06
3.34201e-06
2.45101e-06
-5.48086e-06
3.85705e-06
1.00017e-06
-5.89543e-06
2.85634e-06
-8.70282e-10
-3.86291e-06
7.35645e-07
-2.8186e-06
-2.21191e-06
-3.37008e-06
-2.36443e-06
-1.05258e-05
-2.94903e-06
8.95979e-07
-8.54893e-06
-4.71509e-06
-2.45073e-07
-4.37162e-06
-5.4246e-06
3.06127e-08
9.85658e-07
-3.32067e-06
5.61427e-07
3.92109e-06
1.38315e-06
-1.15328e-07
3.00365e-06
4.52723e-06
-2.52243e-06
2.84372e-06
3.59736e-06
-6.03677e-06
2.54347e-06
2.58392e-06
-6.54965e-06
1.01877e-06
7.72282e-07
-6.18535e-06
-5.32645e-07
-6.28978e-06
-1.15805e-05
-9.3362e-07
-3.04986e-06
-1.02865e-05
-4.06317e-06
-4.40751e-06
-7.18535e-06
-6.51988e-06
-4.62409e-06
-2.55226e-06
-5.70196e-06
-3.43828e-06
2.49015e-06
-1.21074e-06
-1.29137e-06
4.3217e-06
4.353e-06
-1.11882e-06
2.92397e-06
6.56617e-06
-2.71662e-06
1.33354e-06
5.91668e-06
-4.69e-06
-1.13557e-07
4.00124e-06
-5.62428e-06
1.52081e-06
-6.38136e-06
-1.15426e-05
-7.08122e-09
-4.1576e-06
-9.77172e-06
-4.39457e-06
-6.01915e-06
-6.72146e-06
-7.7129e-06
-7.35702e-06
-3.44959e-06
-7.13765e-06
-6.25915e-06
8.25236e-07
-2.66191e-06
-4.29194e-06
4.506e-06
3.98212e-06
-1.21105e-06
3.68863e-06
8.99431e-06
-1.14824e-07
1.21198e-06
9.34827e-06
-2.1072e-06
-2.51737e-07
6.49191e-06
-4.21444e-06
3.1855e-06
-5.43834e-06
-1.05178e-05
-7.7526e-08
-4.52062e-06
-8.13969e-06
-4.57045e-06
-7.54678e-06
-5.24777e-06
-8.09464e-06
-8.72131e-06
-3.27461e-06
-8.00984e-06
-5.98142e-06
-3.6241e-07
-4.166e-06
-4.00849e-06
3.0724e-06
3.1278e-06
-1.22603e-06
3.99953e-06
8.73878e-06
2.80955e-06
1.4708e-06
1.16782e-05
1.38875e-06
-1.56129e-07
8.31936e-06
-2.13115e-06
5.063e-06
-3.43167e-06
-8.39108e-06
2.15085e-07
-5.42322e-06
-5.9699e-06
-3.46975e-06
-9.0937e-06
-3.76868e-06
-7.04403e-06
-9.42213e-06
-2.76258e-06
-8.01021e-06
-5.0409e-06
-1.1551e-06
-5.54752e-06
-1.70968e-06
1.7033e-06
5.73365e-07
6.2094e-07
3.06181e-06
6.13687e-06
5.39632e-06
1.62538e-06
1.17545e-05
4.74609e-06
-3.44473e-07
9.83663e-06
2.07539e-07
6.20273e-06
9.8269e-08
-6.0338e-06
9.68278e-07
-5.70541e-06
-3.9662e-06
-1.50061e-06
-9.40566e-06
-2.56117e-06
-4.97006e-06
-9.42913e-06
-1.89589e-06
-7.42838e-06
-5.09518e-06
-1.3279e-06
-6.52912e-06
-7.02677e-08
2.01529e-07
-2.72105e-06
3.3796e-06
8.69403e-07
3.09698e-06
6.07527e-06
3.49944e-07
9.88501e-06
6.62007e-06
-3.97565e-07
1.03702e-05
2.15199e-06
5.52067e-06
3.36125e-06
-4.27236e-06
2.38129e-06
-4.91847e-06
-2.76201e-06
9.51184e-07
-7.75473e-06
-1.59104e-06
-2.39232e-06
-8.40559e-06
-1.03191e-06
-6.33271e-06
-5.78959e-06
-1.09752e-06
-6.81652e-06
-3.34376e-07
-1.59628e-06
-4.47919e-06
3.8169e-06
-2.35411e-06
1.14679e-06
5.38988e-06
-2.26531e-06
7.0388e-06
6.16563e-06
-9.79968e-07
8.15952e-06
3.84084e-06
3.15102e-06
3.68092e-06
-2.38146e-06
-4.2399e-06
4.39436e-06
-1.55434e-06
-6.01192e-06
3.4657e-06
-9.32086e-07
-6.97479e-06
2.0702e-07
-1.01878e-06
-6.08124e-06
-4.45645e-06
-1.92853e-06
-1.77052e-06
-6.04104e-06
-4.11779e-06
2.34298e-06
-4.07809e-06
-5.56209e-06
3.79363e-06
3.31982e-07
-5.17637e-06
4.26316e-06
4.32791e-06
-2.49225e-06
2.80714e-06
4.11746e-06
5.51319e-07
2.74256e-07
-5.85007e-08
-3.74563e-08
-1.76967e-07
-4.3524e-08
-9.90676e-09
-1.88861e-07
-4.1048e-08
1.58879e-08
-1.89796e-07
-4.94102e-08
3.12601e-08
-1.82006e-07
-7.14601e-08
3.51978e-08
-1.62537e-07
-9.85191e-08
1.48404e-08
-1.39581e-07
-6.89619e-08
-1.05864e-07
-1.05808e-07
1.36728e-07
-3.771e-07
-5.52772e-08
1.78132e-07
-1.63578e-07
-2.52987e-08
1.67787e-07
-1.05574e-07
-3.83225e-08
-7.80964e-08
-1.99153e-07
1.39453e-09
-3.28493e-08
-2.29322e-07
2.47209e-08
1.98389e-08
-2.40934e-07
1.288e-08
7.67072e-08
-2.41719e-07
-5.17766e-08
1.18397e-07
-2.26782e-07
-1.92298e-07
1.22957e-07
-2.01662e-07
-2.99323e-07
-1.59558e-07
-9.06369e-08
-2.0872e-08
-8.84528e-07
2.15115e-07
2.33633e-07
-4.59966e-07
1.8824e-07
4.43348e-07
-1.93545e-07
-4.54676e-08
-2.64953e-08
-2.11754e-07
-3.19956e-08
2.59678e-08
-2.76637e-07
-1.83453e-08
8.03413e-08
-3.05274e-07
-4.26038e-08
1.67043e-07
-3.02976e-07
-1.90848e-07
2.8778e-07
-2.81714e-07
-4.59083e-07
3.43297e-07
-2.19859e-07
-5.95727e-07
-1.40477e-07
1.54317e-07
-3.92681e-07
-1.23359e-06
7.91294e-07
-3.56147e-08
-7.38332e-07
7.48366e-07
6.13041e-07
-1.89717e-07
-9.22796e-09
1.24925e-07
-1.76439e-07
3.56161e-09
1.72079e-07
-2.62595e-07
8.08951e-09
2.01846e-07
-3.32764e-07
-1.22422e-08
2.95005e-07
-3.74594e-07
-1.31503e-07
4.62695e-07
-3.7134e-07
-3.07461e-07
5.51946e-07
-2.28772e-07
-2.74077e-07
-1.382e-08
2.16287e-07
-3.30729e-07
-1.1256e-06
7.63051e-07
-3.28137e-07
-6.18768e-07
6.61429e-07
7.62497e-07
-4.77809e-08
2.12148e-08
3.11862e-07
-2.80605e-07
9.85242e-08
4.29925e-07
-3.69756e-07
9.51274e-08
5.16867e-07
-4.15337e-07
9.64541e-08
5.8709e-07
-4.60485e-07
1.06622e-07
6.86344e-07
-4.6648e-07
1.33955e-07
7.20255e-07
-3.06636e-07
3.17707e-07
1.86973e-07
9.83907e-09
1.7818e-07
-6.44375e-07
3.53754e-07
-2.65561e-07
-2.69923e-07
5.70157e-08
9.27808e-07
-1.30985e-07
-5.47584e-08
6.50558e-07
-6.21386e-07
6.49253e-08
7.15179e-07
-5.64748e-07
1.73819e-07
7.86244e-07
-4.78512e-07
2.82629e-07
8.29056e-07
-4.35702e-07
3.95574e-07
8.79676e-07
-3.87757e-07
5.02638e-07
8.93141e-07
-2.30723e-07
5.90201e-07
5.32839e-07
1.10984e-07
3.86361e-07
7.20287e-08
3.15159e-07
-1.67049e-07
3.65537e-07
-2.08483e-07
9.98917e-07
-3.38801e-07
-6.55609e-08
9.7773e-07
-1.28627e-06
4.64143e-08
9.89866e-07
-1.14562e-06
1.80883e-07
1.00817e-06
-1.02551e-06
3.24302e-07
1.0568e-06
-9.20175e-07
4.5238e-07
1.09075e-06
-6.29532e-07
5.88128e-07
1.05115e-06
-2.04388e-07
6.42323e-07
8.91889e-07
2.11413e-07
4.66285e-07
7.59767e-07
2.89613e-07
-8.85631e-08
1.048e-06
-1.41598e-07
1.15213e-06
-5.95329e-07
-2.95854e-07
1.55325e-06
-2.75162e-06
1.53972e-07
1.49654e-06
-2.66249e-06
5.23897e-07
1.56408e-06
-2.6145e-06
7.20361e-07
1.75455e-06
-2.45394e-06
7.66471e-07
1.88762e-06
-2.07124e-06
7.21164e-07
1.83927e-06
-1.40422e-06
5.95655e-07
1.58142e-06
-5.6862e-07
3.80541e-07
1.31441e-06
-1.43457e-07
3.87195e-08
1.41386e-06
-2.98887e-07
1.37773e-06
-5.69779e-07
-7.55499e-07
-2.00423e-06
4.81745e-06
-5.39863e-07
-1.06831e-06
3.1378e-06
-2.01791e-07
7.15523e-07
3.86965e-07
2.79428e-07
1.85578e-06
-1.41341e-06
7.65983e-07
2.93158e-06
-2.75644e-06
1.06917e-06
3.06666e-06
-2.65077e-06
1.08584e-06
2.58966e-06
-1.57805e-06
7.23791e-07
2.03676e-06
-4.19237e-07
1.31926e-07
1.72888e-06
3.80775e-07
1.07673e-06
1.17155e-06
-2.89366e-06
-2.55811e-06
-8.60803e-07
-2.2013e-06
-1.8434e-06
-1.14614e-06
-1.64116e-06
6.18774e-08
-1.4429e-06
-2.12383e-06
2.41065e-06
-2.35616e-07
-2.30944e-06
5.48951e-06
3.14117e-07
-2.09761e-06
5.46172e-06
2.55452e-06
-1.30269e-06
2.53681e-07
5.46545e-06
-1.14282e-06
-5.03238e-07
5.78079e-06
-8.19302e-07
-7.0553e-07
5.48863e-06
-1.89224e-06
5.36392e-06
-3.03505e-06
-3.57799e-06
3.19181e-06
-2.05931e-06
-3.26062e-06
2.56877e-06
-1.36369e-06
-2.15061e-06
1.8691e-06
-1.21255e-06
-1.0067e-07
1.31132e-06
-8.07513e-07
2.36052e-06
-3.22009e-07
1.28715e-06
3.11804e-06
6.86806e-07
5.05041e-07
1.92731e-06
6.36556e-07
-1.0688e-06
9.41445e-07
1.41667e-06
-5.85484e-07
-1.14977e-06
3.53149e-06
-2.86047e-06
2.84758e-06
-6.29823e-06
-2.63275e-06
3.20401e-06
-5.14599e-06
-3.14509e-06
1.77421e-06
-2.92665e-06
-3.34433e-06
1.2619e-06
-1.06276e-06
-2.3664e-06
1.03232e-06
9.00307e-07
-6.86455e-07
-8.44412e-07
2.76159e-06
-3.64572e-07
-3.85954e-06
4.06317e-06
-3.55024e-07
-4.91468e-06
3.90987e-06
1.17443e-06
-3.94259e-06
2.40957e-06
1.01348e-06
-2.87484e-06
9.13553e-08
-2.90668e-06
-8.46719e-06
7.34133e-08
-8.23803e-07
-7.86704e-06
-1.83278e-06
-2.15752e-06
-5.52577e-06
-3.81763e-06
-1.83736e-06
-2.18395e-06
-4.05038e-06
-1.09642e-06
9.50774e-07
-2.55113e-06
-1.38539e-06
2.33723e-06
-7.93189e-07
-3.48027e-06
3.07572e-06
-3.65829e-07
-6.76443e-06
3.22936e-06
1.64082e-06
-7.16968e-06
2.25715e-06
1.57009e-06
-5.76976e-06
1.29836e-06
-5.23965e-06
-8.63284e-06
2.09418e-06
-3.66171e-06
-8.62986e-06
-1.71889e-06
-4.5244e-06
-6.67597e-06
-5.34616e-06
-5.04946e-06
-3.88521e-06
-5.81679e-06
-4.46264e-06
-3.12791e-07
-3.49148e-06
-3.92344e-06
2.97303e-06
-7.42843e-07
-4.455e-06
3.9946e-06
1.59714e-06
-5.70115e-06
3.20779e-06
3.44064e-06
-5.70301e-06
1.17274e-06
3.39406e-06
-5.41322e-06
2.38596e-06
-6.29625e-06
-9.50601e-06
3.0812e-06
-3.80253e-06
-8.38611e-06
-2.84303e-06
-6.01491e-06
-5.79583e-06
-7.63603e-06
-7.65743e-06
-3.80506e-06
-7.98336e-06
-6.08335e-06
-1.51755e-06
-4.82353e-06
-5.24743e-06
2.08838e-06
-2.36365e-07
-5.32346e-06
3.96986e-06
4.38545e-06
-4.78461e-06
3.25079e-06
6.19282e-06
-4.14031e-06
7.07704e-07
5.30012e-06
-3.57742e-06
2.46873e-06
-4.81342e-06
-8.00166e-06
3.45771e-06
-4.69284e-06
-6.30888e-06
-3.09389e-06
-8.98869e-06
-4.30551e-06
-8.4206e-06
-9.94011e-06
-3.44198e-06
-8.95347e-06
-5.87484e-06
-2.02119e-06
-5.93827e-06
-4.31453e-06
1.33969e-06
-2.94314e-07
-4.52893e-06
3.89948e-06
6.71203e-06
-2.07683e-06
3.22929e-06
9.00795e-06
-7.56211e-07
1.18843e-06
6.81274e-06
-1.6029e-06
3.03775e-06
-2.81227e-06
-5.39112e-06
3.9749e-06
-6.42863e-06
-3.97353e-06
-1.8448e-06
-1.17604e-05
-3.41015e-06
-7.86821e-06
-1.05379e-05
-3.58922e-06
-9.006e-06
-4.8093e-06
-2.68421e-06
-6.53977e-06
-2.01318e-06
7.75365e-08
-4.76131e-07
-1.95898e-06
3.0639e-06
7.52645e-06
1.59551e-06
2.59132e-06
1.09601e-05
3.26651e-06
7.45836e-07
8.13427e-06
7.31485e-07
4.2616e-06
-3.79754e-07
-2.25972e-06
4.69186e-06
-7.25862e-06
-1.52948e-06
2.54481e-07
-1.22352e-05
-2.29286e-06
-6.34654e-06
-1.01874e-05
-3.36315e-06
-8.80352e-06
-4.22737e-06
-2.82983e-06
-7.19966e-06
5.63032e-08
-1.04821e-06
-6.42713e-07
1.76454e-06
1.00038e-06
6.84465e-06
4.7085e-06
1.05259e-06
1.12413e-05
6.28672e-06
-3.29117e-07
8.92956e-06
2.7384e-06
4.52391e-06
2.76981e-06
5.66001e-07
5.91578e-06
-6.88513e-06
8.29993e-07
2.80592e-06
-1.05701e-05
-6.33099e-07
-3.85736e-06
-9.43167e-06
-2.66088e-06
-8.16841e-06
-4.39691e-06
-3.07623e-06
-7.73075e-06
6.12044e-07
-2.79827e-06
-1.17819e-06
4.07441e-06
-2.0746e-06
5.64403e-06
5.86686e-06
-1.54547e-06
9.92506e-06
6.95272e-06
-1.41059e-06
8.49024e-06
4.14526e-06
3.5341e-06
3.26015e-06
3.12199e-06
-6.13645e-06
7.21276e-06
2.75392e-06
-8.14097e-06
5.30305e-06
6.20196e-07
-7.96517e-06
-7.33264e-07
-2.30756e-06
-4.83095e-06
-6.49096e-06
-4.45228e-06
-1.09194e-07
-7.24735e-06
-5.56885e-06
3.34583e-06
-1.06444e-06
-5.75586e-06
4.84246e-06
4.7822e-06
-4.63446e-06
5.14593e-06
7.92086e-06
-2.36552e-06
2.91358e-06
6.11487e-06
5.20355e-07
1.19954e-06
-6.41911e-08
-3.8626e-08
-1.71682e-07
-3.42009e-08
-2.73813e-08
-1.9147e-07
-1.45859e-08
-3.05218e-09
-2.06359e-07
-8.81145e-09
1.72322e-08
-2.05012e-07
-1.67311e-08
2.76597e-08
-1.82277e-07
-3.0329e-08
1.7576e-08
-1.43559e-07
-4.8667e-10
-4.44012e-08
-9.12495e-08
1.38386e-07
-1.9239e-07
-1.76005e-09
1.37044e-07
-3.26759e-08
8.71884e-09
1.4817e-07
-1.167e-07
-5.10097e-08
-9.82568e-08
-1.77545e-07
-4.70578e-10
-8.40474e-08
-2.23195e-07
4.63669e-08
-3.22562e-08
-2.58568e-07
6.20163e-08
2.93169e-08
-2.69453e-07
3.48662e-08
8.08056e-08
-2.52778e-07
-3.5542e-08
9.26054e-08
-2.06283e-07
-5.9927e-08
-4.94805e-09
-1.05705e-07
1.88241e-07
-3.64062e-07
1.38619e-07
2.4857e-07
1.94674e-08
7.57675e-08
4.12399e-07
-2.09204e-07
-4.95686e-08
-8.6318e-08
-2.66597e-07
-7.39628e-09
-9.5073e-08
-3.07784e-07
3.74941e-08
-3.67423e-08
-3.45679e-07
3.93544e-08
7.50868e-08
-3.50606e-07
-4.01666e-08
1.90223e-07
-3.11611e-07
-2.1546e-07
2.65259e-07
-2.17218e-07
-2.84125e-07
1.58214e-07
5.98195e-08
2.54587e-08
-4.67932e-07
5.8558e-07
2.19265e-07
1.54801e-07
4.19226e-07
6.93103e-07
-2.51157e-07
-2.40655e-09
5.77464e-08
-4.26305e-07
4.53738e-08
1.83677e-08
-4.23816e-07
8.1953e-08
4.04286e-08
-4.46514e-07
8.42455e-08
1.53787e-07
-4.55586e-07
-5.60122e-09
3.25822e-07
-4.17092e-07
-1.59308e-07
4.6242e-07
-2.72226e-07
-9.67147e-08
2.53327e-07
5.85795e-08
-1.87614e-08
-3.63028e-07
5.80194e-07
-7.82797e-09
3.82971e-07
4.22325e-07
9.54038e-07
-3.16544e-07
3.92195e-08
2.55368e-07
-6.89153e-07
1.44344e-07
1.76993e-07
-6.33506e-07
1.76175e-07
2.09851e-07
-6.1659e-07
1.70649e-07
3.44858e-07
-6.4603e-07
1.42622e-07
4.97957e-07
-6.10588e-07
1.42179e-07
6.02278e-07
-4.4605e-07
2.35175e-07
3.3865e-07
-1.6848e-07
1.23626e-07
-5.43227e-08
1.56597e-07
-1.59536e-07
7.50071e-07
-2.69221e-08
1.17826e-06
-5.14744e-07
7.33102e-08
5.27221e-07
-1.10776e-06
1.85435e-07
4.56773e-07
-9.56652e-07
2.40092e-07
5.0306e-07
-8.26378e-07
3.03993e-07
5.94809e-07
-7.49555e-07
3.62454e-07
7.0162e-07
-6.49881e-07
4.17444e-07
7.9252e-07
-4.75955e-07
3.98609e-07
6.72221e-07
-2.03753e-07
1.76823e-07
5.71134e-07
-8.85117e-08
-2.52044e-07
1.34936e-06
-3.789e-07
1.29263e-06
-7.05217e-07
2.57562e-08
6.92518e-07
-1.71537e-06
1.58646e-07
6.57136e-07
-1.47888e-06
2.73128e-07
6.81347e-07
-1.31828e-06
3.78378e-07
8.07985e-07
-1.2386e-06
4.55971e-07
9.72514e-07
-9.78019e-07
5.13898e-07
1.08961e-06
-5.59402e-07
4.64964e-07
1.07598e-06
-1.43413e-07
2.68617e-07
1.14193e-06
-8.48334e-08
-2.77191e-08
1.81327e-06
-3.09174e-07
1.61752e-06
-9.47938e-07
-5.15437e-07
1.3647e-06
-4.08778e-06
3.34507e-08
1.33065e-06
-3.88489e-06
4.86327e-07
1.25341e-06
-3.63945e-06
8.12065e-07
1.34377e-06
-3.31546e-06
9.75432e-07
1.58639e-06
-2.84848e-06
9.99663e-07
1.83522e-06
-2.17407e-06
8.28159e-07
1.95464e-06
-1.27577e-06
5.01219e-07
1.94956e-06
-6.24147e-07
3.03756e-07
2.14444e-06
-4.32593e-07
2.24724e-06
-8.95741e-07
-1.3683e-06
5.46221e-06
3.03278e-07
-9.56173e-07
4.80541e-06
-7.49081e-07
-6.19041e-07
2.89457e-06
-1.59133e-06
1.5434e-07
-5.9657e-07
-2.4646e-07
1.38964e-06
1.91391e-06
-4.31926e-06
2.23288e-06
2.70721e-06
-4.366e-06
2.29911e-06
3.50433e-06
-3.19397e-06
1.52236e-06
3.76639e-06
-1.45932e-06
7.1972e-07
3.12513e-06
2.02722e-07
2.90509e-06
1.23342e-06
-2.58304e-06
2.24046e-06
1.10309e-06
-1.34555e-06
1.67516e-06
7.46642e-07
-7.27564e-07
7.14635e-07
1.1905e-07
-6.83142e-07
-1.37595e-06
4.9933e-07
-3.57949e-07
1.14683e-06
7.55991e-07
-1.10954e-06
4.51143e-06
1.5019e-06
-1.51815e-06
7.32143e-06
2.05695e-06
-1.35642e-06
6.43843e-06
2.94701e-06
-6.9028e-07
9.44806e-07
7.00282e-06
1.08959e-06
6.48914e-06
-3.69763e-06
-1.16277e-06
5.56848e-06
-2.58692e-06
-1.8645e-06
4.9977e-06
-1.54462e-06
-2.73981e-06
4.28124e-06
-1.60674e-06
-3.42413e-06
3.42164e-06
-1.23955e-06
-2.75209e-06
3.2097e-06
7.44436e-07
1.82179e-07
3.03207e-06
2.09034e-06
3.95244e-06
2.65964e-06
1.57336e-06
6.49998e-06
1.87211e-06
1.77358e-07
3.09399e-06
2.7783e-06
4.60182e-07
3.65435e-06
-5.41295e-06
-2.53524e-07
2.57453e-06
-4.8885e-06
-1.78749e-06
1.17272e-06
-3.62595e-06
-3.26001e-06
5.19566e-07
-2.75372e-06
-3.61426e-06
3.50186e-07
-2.18599e-06
-3.62656e-06
-5.37676e-07
-4.45609e-07
-3.49294e-06
-1.9248e-06
2.36626e-06
-1.23432e-06
-2.53979e-06
4.28303e-06
2.57271e-06
-1.93211e-06
3.24092e-06
2.24512e-06
-9.83851e-07
1.83112e-06
-1.0367e-06
-6.52004e-06
1.28646e-06
-1.45434e-06
-6.3336e-06
-1.81591e-06
-2.31553e-06
-5.02003e-06
-3.88073e-06
-2.53022e-06
-3.95813e-06
-3.68746e-06
-2.08512e-06
-2.9375e-06
-3.27558e-06
-2.75699e-06
-1.06332e-06
-4.09661e-06
-4.75081e-06
1.38141e-06
-4.07614e-06
-6.36734e-06
3.73345e-06
-6.18118e-07
-6.33091e-06
2.70751e-06
2.13128e-06
-4.62997e-06
3.38127e-06
-4.0823e-06
-8.47083e-06
1.79157e-06
-2.42348e-06
-8.00987e-06
-2.79547e-06
-4.00581e-06
-5.94771e-06
-5.92404e-06
-5.0683e-06
-4.24899e-06
-5.71347e-06
-4.13536e-06
-3.10363e-06
-4.18284e-06
-4.16156e-06
-1.26095e-06
-4.65119e-06
-5.74309e-06
1.23177e-06
-5.00959e-06
-7.26043e-06
2.69527e-06
-1.29249e-06
-6.49215e-06
1.66449e-06
2.94138e-06
-5.19254e-06
4.03523e-06
-5.28572e-06
-8.5048e-06
2.32375e-06
-3.40417e-06
-7.00701e-06
-3.34792e-06
-6.96024e-06
-4.61914e-06
-7.73659e-06
-8.23274e-06
-3.07288e-06
-8.00592e-06
-5.33717e-06
-2.27751e-06
-5.79781e-06
-4.42781e-06
-1.7435e-06
-4.55371e-06
-5.95496e-06
-8.64586e-07
-3.66873e-06
-7.00441e-06
3.01251e-07
-8.34986e-07
-5.76365e-06
3.5861e-09
3.06878e-06
-3.40716e-06
3.19742e-06
-3.97203e-06
-5.66766e-06
3.01359e-06
-5.74775e-06
-4.45353e-06
-2.85868e-06
-1.06921e-05
-3.40594e-06
-8.39614e-06
-1.03282e-05
-2.91942e-06
-9.04146e-06
-5.3258e-06
-2.51759e-06
-6.6314e-06
-3.88278e-06
-2.68436e-06
-3.444e-06
-5.47187e-06
-2.1772e-06
-9.28546e-07
-5.32418e-06
-1.4491e-06
1.39081e-06
-3.71009e-06
-8.17782e-07
3.31053e-06
-2.47597e-06
1.90065e-06
-2.33329e-06
-2.03469e-06
3.62329e-06
-7.94551e-06
-2.34743e-06
-1.62449e-06
-1.26818e-05
-3.21816e-06
-8.39959e-06
-9.66372e-06
-4.10247e-06
-9.17764e-06
-3.78882e-06
-4.10661e-06
-6.36463e-06
-2.27583e-06
-4.07302e-06
-1.75983e-06
-3.67673e-06
-2.79213e-06
1.81235e-06
-2.42627e-06
-1.81208e-06
4.14505e-06
-4.67772e-07
-9.55682e-07
3.74035e-06
-5.54744e-07
1.30395e-06
-7.38734e-07
9.06317e-07
4.57571e-06
-8.82036e-06
-4.465e-07
-1.72197e-07
-1.23347e-05
-2.98766e-06
-7.71869e-06
-8.32717e-06
-4.86523e-06
-9.11677e-06
-2.41068e-06
-5.25299e-06
-6.17388e-06
2.53323e-07
-4.8625e-06
-3.29222e-07
-5.65467e-08
-3.62131e-06
3.97724e-06
1.30244e-06
-2.30587e-06
6.3917e-06
2.72462e-06
-1.90731e-06
4.60674e-06
1.47345e-06
1.31201e-06
8.54456e-07
3.16664e-06
6.0831e-06
-8.51476e-06
1.39349e-06
1.47163e-06
-1.04408e-05
-2.19183e-06
-6.23088e-06
-7.33417e-06
-5.05766e-06
-9.12556e-06
-1.52229e-06
-6.08833e-06
-6.64865e-06
2.11748e-06
-6.07986e-06
5.36265e-07
3.20046e-06
-5.46529e-06
5.32995e-06
3.89957e-06
-3.64336e-06
7.27443e-06
4.24805e-06
-2.32164e-06
4.98197e-06
2.44834e-06
9.57038e-07
1.29348e-06
4.5381e-06
-7.27556e-06
7.50657e-06
2.71226e-06
-8.28069e-06
3.43718e-06
-1.21241e-06
-6.35345e-06
-3.91792e-06
-5.35235e-06
-1.56714e-06
-8.24943e-06
-7.98435e-06
2.87731e-06
-7.00316e-06
-9.06593e-06
4.50732e-06
4.56349e-07
-8.41272e-06
4.74597e-06
4.77323e-06
-5.47447e-06
4.14318e-06
5.33896e-06
-1.81501e-06
1.97058e-06
2.26551e-06
7.07975e-07
-1.0456e-06
-7.83302e-08
1.4849e-09
-2.04175e-07
-3.79682e-08
-2.37811e-08
-2.08051e-07
5.31147e-10
-2.12896e-08
-2.23569e-07
2.50216e-08
-7.67042e-09
-2.21832e-07
3.25187e-08
1.08703e-08
-2.00645e-07
3.37174e-08
2.0649e-08
-1.65407e-07
4.47443e-08
1.0797e-08