/*--------------------------------*- C++ -*----------------------------------*\
| =========                 |                                                 |
| \\      /  F ield         | OpenFOAM: The Open Source CFD Toolbox           |
|  \\    /   O peration     | Version:  2312                                  |
|   \\  /    A nd           | Website:  www.openfoam.com                      |
|    \\/     M anipulation  |                                                 |
\*---------------------------------------------------------------------------*/
FoamFile
{
    version     2.0;
    format      ascii;
    arch        "LSB;label=32;scalar=64";
    class       volVectorField;
    location    "1";
    object      U;
}
// * * * * * * * * * * * * * * * * * * * * * * * * * * * * * * * * * * * * * //

dimensions      [0 1 -1 0 0 0 0];

internalField   nonuniform List<vector> 
8000
(
(-0.00230241 0.00155074 -0.00428704)
(-0.000155478 0.00169975 -0.00408972)
(0.00118988 0.00189086 -0.00365933)
(0.00168655 0.00201001 -0.00324964)
(0.00165624 0.00200891 -0.00305711)
(0.00136402 0.00195292 -0.00325162)
(0.000864659 0.00199157 -0.00404711)
(0.000967259 0.00254995 -0.00579423)
(0.00315532 0.00219276 -0.00511535)
(0.00268425 0.00201328 -0.00228041)
(-0.00175042 0.00455406 -0.00454412)
(0.00121638 0.00572982 -0.004706)
(0.00338324 0.00628405 -0.00452403)
(0.00477089 0.00660154 -0.00424597)
(0.00535765 0.00694754 -0.00415764)
(0.0051583 0.0077718 -0.00473683)
(0.00426834 0.0100141 -0.00714502)
(0.00243262 0.0100484 -0.0104824)
(0.00276549 0.00751482 -0.00680069)
(0.00328906 0.00829184 -0.0018001)
(-0.000368486 0.00625076 -0.00167177)
(0.00252072 0.00815879 -0.00314098)
(0.00386602 0.0096261 -0.00383511)
(0.00510949 0.0110387 -0.00399749)
(0.00612381 0.0126807 -0.0043142)
(0.00729285 0.0153676 -0.00559041)
(0.00555283 0.0193296 -0.00761885)
(-0.000313358 0.0192993 -0.00987593)
(-0.00685992 0.00444964 0.00329748)
(0.000668077 0.011038 0.00637767)
(-0.000818766 -0.00114844 0.00379171)
(0.00614589 0.0118247 0.000785667)
(0.00791187 0.0158668 -0.00171984)
(0.00830374 0.0168926 -0.00276959)
(0.00891164 0.0185615 -0.00342515)
(0.0111506 0.0220513 -0.0042568)
(0.00597645 0.0275257 -0.00118963)
(-0.0165204 0.0123214 0.00593998)
(-0.0278845 -0.0340465 0.0280089)
(-0.0109494 -0.0107621 0.0151671)
(-0.00368223 -0.0216319 -0.000570114)
(0.00636845 -0.00289497 0.00329466)
(0.0110288 0.0112911 0.0038816)
(0.012932 0.018069 0.00429182)
(0.0155069 0.02225 0.00517573)
(0.0207157 0.0271991 0.00528164)
(0.0143214 0.0297091 0.00976663)
(-0.0147432 -0.000686339 0.0147923)
(-0.0232195 -0.0749696 0.0189174)
(-0.0209227 -0.0758796 0.00442009)
(-0.00630999 -0.0226554 -0.0114507)
(-3.13257e-05 -0.0114793 -0.00646448)
(0.00759943 0.00163788 -0.00159391)
(0.0152447 0.00848842 0.000563265)
(0.022338 0.00984444 0.00318296)
(0.0306751 0.0139483 0.00967111)
(0.0282309 0.0202098 0.0171136)
(0.0111615 -0.00446022 0.0206625)
(0.00787598 -0.0459503 0.00377228)
(-0.00610962 -0.0797849 -0.012871)
(-0.0107087 -0.0114974 -0.0214549)
(-0.000572678 -0.0106603 -0.0186084)
(0.0114497 -0.00442176 -0.0147633)
(0.0248889 0.00174963 -0.0131157)
(0.0353327 0.00454596 -0.012722)
(0.0428225 0.00340864 -0.00589828)
(0.040005 -0.00342988 0.0104878)
(0.0204611 -0.0388701 0.0229231)
(0.00856109 -0.0525802 0.00173015)
(0.00278409 -0.0590645 -0.0171897)
(-0.0181112 0.00468167 -0.0214809)
(0.0030908 0.00435453 -0.018546)
(0.0215794 0.00736598 -0.0180568)
(0.0378858 0.0105919 -0.0170401)
(0.0493033 0.00946875 -0.0147973)
(0.0552015 0.00145329 -0.0105951)
(0.0532209 -0.015219 0.00346112)
(0.0283358 -0.0418491 0.0121003)
(0.00458622 -0.0358094 -0.00724931)
(0.00585554 -0.0371843 -0.00812878)
(-0.0261628 0.0216216 0.00109865)
(0.00327583 0.0206914 0.00376242)
(0.0277515 0.0279275 0.0033775)
(0.0421665 0.0364201 -0.000998428)
(0.0482487 0.0403398 -0.00597843)
(0.0508722 0.0317218 -0.00980363)
(0.0448674 0.00989833 -0.00115586)
(0.0194093 -0.0209223 2.20745e-05)
(0.00195717 -0.0276615 -0.0171642)
(0.0143279 -0.044673 0.000802383)
(-0.0604428 -0.0866416 -0.023795)
(-0.10002 -0.0699508 -0.0308911)
(-0.132395 -0.0436181 -0.0265721)
(-0.10973 0.0212053 -0.00832797)
(-0.0822754 0.0472565 -0.000636802)
(-0.061638 0.0465162 0.00218523)
(-0.0562818 0.0325233 0.00721811)
(-0.0537592 0.0163812 -0.010562)
(-0.0309311 0.0123397 -0.0324466)
(0.0183042 -0.0191052 -0.0100581)
(-0.0278473 0.0119236 0.00941848)
(0.000816851 0.0749081 -0.00410708)
(0.0156022 0.0559887 -0.0334965)
(-0.000176084 -0.0736348 -0.0476514)
(-0.180929 -0.106632 -0.00731257)
(-0.298357 -0.125778 -0.0315538)
(-0.247705 -0.142359 -0.0306627)
(-0.169028 -0.151475 -0.0141379)
(-0.0867426 -0.14707 0.00550864)
(-0.00762792 -0.119814 0.0254939)
(-0.137975 -0.163796 0.0586556)
(-0.0952574 -0.121388 0.0508939)
(-0.000682505 -0.00228431 0.0289253)
(0.090507 0.110266 -0.0197954)
(0.0935544 0.161186 -0.0424837)
(0.0373425 0.142981 -0.0726757)
(0.0433742 -0.119729 -0.121598)
(0.0278746 -0.248481 -0.0562742)
(-0.0464795 -0.342954 -0.0053527)
(-0.0304249 -0.332255 -0.0362946)
(-0.353868 -0.283546 0.0249557)
(-0.309351 -0.315255 0.00618538)
(-0.183729 -0.25632 0.0113574)
(-0.0160472 -0.0654593 0.0203762)
(0.112137 0.161894 -0.0100372)
(0.126508 0.228016 -0.0510912)
(0.0742807 0.0981786 -0.116514)
(0.052434 0.0214087 -0.143262)
(-0.0122398 -0.0277737 -0.148723)
(-0.014597 -0.0653882 -0.150551)
(-0.50861 -0.310005 -0.0673026)
(-0.436927 -0.377902 -0.101409)
(-0.299547 -0.398666 -0.0958395)
(-0.130967 -0.303197 -0.044083)
(0.0270068 -0.0428644 0.017356)
(0.122846 0.23444 -0.00291186)
(0.0846577 0.270652 -0.0552817)
(0.0190647 0.184538 -0.112951)
(-0.0382035 0.110788 -0.143655)
(-0.0169999 0.0449161 -0.140628)
(-0.547967 -0.234858 -0.141222)
(-0.44593 -0.30926 -0.182801)
(-0.288873 -0.349532 -0.197821)
(-0.127108 -0.30948 -0.151663)
(0.00541143 -0.184268 -0.0462762)
(0.0956893 0.112135 0.0342733)
(0.0963353 0.34098 0.0106153)
(0.0139179 0.341628 -0.062606)
(-0.038827 0.255033 -0.123414)
(-0.00459959 0.181188 -0.109554)
(-0.541624 -0.180255 -0.164143)
(-0.41765 -0.251005 -0.201122)
(-0.250805 -0.290663 -0.21857)
(-0.0979687 -0.256771 -0.184258)
(0.0260129 -0.13749 -0.105847)
(0.0933152 -0.0564734 0.00320667)
(0.0892169 0.255503 0.0639622)
(0.0451056 0.438806 0.00571464)
(-0.0221415 0.374962 -0.0852856)
(0.00918921 0.30131 -0.031998)
(-0.510562 -0.111872 -0.155106)
(-0.385229 -0.174598 -0.186808)
(-0.222747 -0.221752 -0.198724)
(-0.0870456 -0.224173 -0.156394)
(0.0149054 -0.147026 -0.0883951)
(0.0893611 -0.0456406 -0.02739)
(0.058751 0.0693228 0.0525171)
(0.0552795 0.391455 0.0703993)
(0.00391974 0.463951 -0.0197157)
(0.0228149 0.310704 0.0453557)
(-0.471256 -0.0315141 -0.127964)
(-0.358444 -0.0818771 -0.162158)
(-0.211349 -0.138161 -0.174594)
(-0.0872341 -0.18597 -0.131292)
(0.00375649 -0.174294 -0.0545674)
(0.0371819 -0.137004 -0.0200487)
(0.022381 -0.0463316 0.0129808)
(-0.01589 0.212643 0.08779)
(0.00605681 0.435225 0.049631)
(0.0300772 0.215108 0.0728643)
(-0.448238 0.0363648 -0.0712452)
(-0.369644 0.00204927 -0.0955062)
(-0.238507 -0.0601881 -0.121947)
(-0.102333 -0.152675 -0.122236)
(-0.00898535 -0.198382 -0.0494466)
(0.0119581 -0.205065 -0.00910959)
(-0.0349107 -0.140778 -0.00633756)
(-0.0921162 0.0657332 0.0404334)
(-0.0404702 0.242525 0.0712382)
(0.00302321 0.0796216 0.0406527)
(-0.424363 0.0785732 -0.0374929)
(-0.36853 0.0415674 -0.0639922)
(-0.257863 -0.027497 -0.101817)
(-0.122261 -0.125007 -0.127115)
(-0.0279733 -0.198052 -0.0852896)
(-0.0132323 -0.223494 -0.0340604)
(-0.084322 -0.160674 -0.0168765)
(-0.129502 -0.0193336 -0.00805997)
(-0.101861 0.0550718 0.00836481)
(-0.033617 -0.00286146 0.000739545)
(-0.00244468 0.00081909 -0.00734641)
(-0.00212317 0.000929022 -0.00712278)
(-0.00224304 0.00102892 -0.00649184)
(-0.00260508 0.00107232 -0.00594672)
(-0.00317034 0.000908417 -0.00568321)
(-0.00381528 0.000342764 -0.00608503)
(-0.00420405 -0.00109292 -0.00784474)
(-0.00101619 -0.00254449 -0.0111168)
(0.00650385 4.89769e-05 -0.00783076)
(0.00530957 0.00306528 -0.00425636)
(-0.00186915 0.00129044 -0.00753499)
(-0.000519524 0.00288058 -0.00807121)
(0.000220363 0.00351012 -0.00796685)
(0.000143342 0.00391967 -0.00767589)
(-0.000824795 0.00419992 -0.00777148)
(-0.0033933 0.00411884 -0.00938293)
(-0.00782664 0.00269294 -0.01277)
(-0.00888857 -0.00642608 -0.00815753)
(0.000756386 -0.00510975 0.00384789)
(0.00843544 0.010721 -0.00415823)
(-0.000685187 0.000839889 -0.00338171)
(-0.000991573 0.00289118 -0.00672791)
(-0.00147142 0.00489522 -0.0078422)
(-0.00146225 0.00716034 -0.00820068)
(-0.00262971 0.00995978 -0.00951763)
(-0.00761153 0.0127136 -0.011783)
(-0.0185159 0.00526714 -0.00365591)
(-0.0269261 -0.0295455 0.0241396)
(-0.0250911 -0.0297819 0.0338695)
(0.00588596 0.0164263 0.00661403)
(0.000853333 0.0042531 0.00615584)
(0.00292282 0.012347 -0.00159727)
(0.00113526 0.0127637 -0.00617102)
(0.00017407 0.0137136 -0.0085765)
(-0.0010605 0.0184802 -0.010868)
(-0.00246297 0.023102 -0.00807375)
(-0.0158106 0.00905853 0.0180354)
(-0.0267214 -0.0371987 0.0393268)
(-0.0377486 -0.0537892 0.0325242)
(-0.00398357 0.0078 0.0261877)
(-0.00330561 -0.00532837 0.00708679)
(0.00663293 0.00935224 0.00536954)
(0.00651473 0.0161371 0.00208465)
(0.00601687 0.01933 -0.000596552)
(0.00765777 0.0244376 -0.00365602)
(0.0133043 0.0295266 -0.000256046)
(0.00699234 0.0214236 0.0256043)
(0.00708907 -0.0214876 0.0420138)
(-0.0169983 -0.0560643 -0.00358278)
(-0.00702127 -0.0215407 0.0198009)
(-0.00656845 -0.00598697 -0.00465492)
(-0.00361736 0.0134648 -0.000539805)
(0.00335102 0.0247311 0.00168353)
(0.0109037 0.0290018 0.00207925)
(0.0172231 0.0328269 0.00267078)
(0.0259232 0.0356311 0.00845798)
(0.0264993 0.0296516 0.0302383)
(0.0354913 -0.00353123 0.0474352)
(0.0156314 -0.0286129 -0.00261378)
(-0.00325576 -0.012963 -0.00141934)
(-0.00753776 0.0156236 -0.0262609)
(-0.00474829 0.015177 -0.0232594)
(0.00319368 0.0174546 -0.0200642)
(0.0144231 0.0211566 -0.0149052)
(0.0235487 0.0277076 -0.00467923)
(0.030875 0.0338323 0.0110736)
(0.0329894 0.0243694 0.0341388)
(0.0401399 -0.00564775 0.0463576)
(0.0212101 -0.00910298 0.00303768)
(-0.00330953 -0.00673183 -0.0142964)
(-0.0107195 0.0206446 -0.054659)
(0.00521661 0.0222951 -0.0516398)
(0.0199757 0.0252781 -0.0504505)
(0.0308348 0.0274308 -0.0463219)
(0.0349021 0.0291075 -0.0340972)
(0.0354481 0.0299062 -0.013091)
(0.0314139 0.0233611 0.0116217)
(0.0348991 0.0115991 0.018514)
(0.0126256 0.0124671 -0.0101765)
(-0.00135235 0.00537531 -0.0154262)
(-0.0275123 0.0528303 0.0452712)
(-0.0113499 0.0520407 0.0335194)
(0.00116301 0.0587739 0.0030939)
(0.00972107 0.0677621 -0.0231128)
(0.0179109 0.0713586 -0.0342734)
(0.025916 0.0653377 -0.0272831)
(0.02766 0.050869 -0.00659409)
(0.0350306 0.0402864 0.00307732)
(0.0195223 0.040154 -0.00320039)
(0.00424353 0.000250588 0.0211295)
(-0.0766175 -0.0532202 -0.0150223)
(-0.0669988 0.00775494 -0.0459234)
(-0.111358 0.0614426 -0.00238763)
(-0.15796 0.0968103 0.0801945)
(-0.109729 0.0998629 0.0760178)
(-0.0737042 0.0841814 0.074878)
(-0.0626049 0.0639497 0.089699)
(-0.0456781 0.0453636 0.0878854)
(-0.0461138 0.0405262 0.0809648)
(0.00562318 0.0104349 0.0762517)
(-0.0899067 -0.0497279 0.0900336)
(-0.0330778 0.0410677 0.05349)
(0.00577181 0.139216 -0.0289777)
(0.0037893 0.184711 -0.0364394)
(0.0123275 -0.00196808 -0.0499675)
(-0.0115799 -0.210587 -0.0280345)
(-0.215415 -0.198236 0.0564768)
(-0.164188 -0.217897 0.0718374)
(-0.0857263 -0.290568 0.0944121)
(-0.0152908 -0.26286 0.0868504)
(-0.25305 -0.184495 0.15403)
(-0.189606 -0.124948 0.141037)
(-0.0500086 0.00459712 0.0990903)
(0.0921724 0.159254 0.00734984)
(0.118359 0.167574 -0.0803806)
(0.122241 0.0728343 -0.17244)
(0.139739 0.094934 -0.222284)
(0.159779 0.00636309 -0.148748)
(0.0790808 -0.171608 -0.0975649)
(-0.0042475 -0.136781 -0.135711)
(-0.436223 -0.184106 0.0944683)
(-0.397595 -0.221105 0.0534537)
(-0.271775 -0.199159 0.055246)
(-0.0662685 -0.0583307 0.0687081)
(0.13476 0.162925 0.0033743)
(0.148503 0.166388 -0.0921402)
(0.105703 0.039286 -0.205934)
(0.12698 0.0136202 -0.239833)
(0.0675305 -0.0406996 -0.229242)
(0.0269166 -0.0654214 -0.251571)
(-0.462906 -0.0656986 -0.0519898)
(-0.450281 -0.160851 -0.130032)
(-0.360631 -0.241486 -0.138188)
(-0.205256 -0.208837 -0.0609264)
(0.00377171 -0.0316634 0.0584465)
(0.178142 0.205577 0.0257976)
(0.1444 0.202101 -0.0613212)
(0.102976 0.15322 -0.164464)
(0.0104055 0.0893848 -0.213282)
(-0.0140698 0.026125 -0.239065)
(-0.479247 0.0023219 -0.137991)
(-0.441601 -0.156064 -0.226228)
(-0.324303 -0.27464 -0.275834)
(-0.207608 -0.250056 -0.225345)
(-0.0771209 -0.0828414 -0.0899081)
(0.145363 0.154817 0.106421)
(0.18827 0.328883 0.0832429)
(0.103268 0.2995 -0.0551835)
(0.0088483 0.205736 -0.168547)
(-0.0267298 0.0790066 -0.202432)
(-0.463709 -0.0111256 -0.167807)
(-0.379441 -0.198656 -0.269764)
(-0.245537 -0.336077 -0.314288)
(-0.174045 -0.315071 -0.234116)
(-0.103273 -0.140768 -0.12931)
(0.0641371 0.131988 0.0813643)
(0.188476 0.389169 0.187379)
(0.118468 0.436221 0.0660911)
(0.0149825 0.294479 -0.0967609)
(-0.0256498 0.156066 -0.100359)
(-0.387171 -0.00301662 -0.197276)
(-0.284758 -0.172909 -0.306491)
(-0.162251 -0.314572 -0.33424)
(-0.139659 -0.330148 -0.197792)
(-0.10245 -0.197558 -0.0580147)
(-0.00115201 0.0988099 0.0872581)
(0.133946 0.297262 0.245338)
(0.122652 0.503283 0.174655)
(0.00239769 0.366365 -0.0110484)
(-0.0218033 0.251816 0.0490379)
(-0.289844 0.0259024 -0.197768)
(-0.195954 -0.100093 -0.313148)
(-0.096215 -0.249322 -0.343014)
(-0.0999827 -0.314676 -0.209235)
(-0.0752588 -0.243816 -0.00455184)
(-0.0347807 -0.0464146 0.132771)
(0.0430541 0.177542 0.240333)
(0.0474077 0.445462 0.225775)
(-0.0237526 0.439381 0.0773566)
(0.00103343 0.265797 0.151746)
(-0.206332 0.0660476 -0.160491)
(-0.144007 -0.0154347 -0.247985)
(-0.059086 -0.152755 -0.295138)
(-0.0521748 -0.280746 -0.242562)
(-0.0440813 -0.278887 -0.0245936)
(-0.0623272 -0.17125 0.109703)
(-0.0824596 0.0732177 0.182989)
(-0.0865944 0.335085 0.197844)
(-0.0748352 0.403386 0.142962)
(-0.00693189 0.18185 0.137087)
(-0.110795 0.134727 -0.12482)
(-0.087152 0.0916131 -0.18099)
(-0.0320047 -0.0420447 -0.239852)
(-0.0212132 -0.220715 -0.249168)
(-0.0591265 -0.268674 -0.0905209)
(-0.128565 -0.18591 0.0620694)
(-0.210631 0.0177804 0.110171)
(-0.21858 0.226176 0.13001)
(-0.159358 0.244842 0.0943075)
(-0.0575796 0.0596081 0.0130271)
(-0.00269543 -0.000169157 -0.00750604)
(-0.00185479 0.000143812 -0.00771745)
(-0.0015432 0.000334914 -0.00743023)
(-0.00165608 0.000464289 -0.00695628)
(-0.00220229 0.000358243 -0.00631986)
(-0.0033435 -0.000425216 -0.00586519)
(-0.00471464 -0.00292237 -0.00578748)
(-9.6629e-05 -0.00622374 -0.00518024)
(0.00943699 -0.00333158 -0.00285686)
(0.00586112 0.00270218 -0.00421828)
(-0.00225646 -0.00262419 -0.00824346)
(-0.000658179 -0.000769983 -0.00921328)
(0.000805929 0.00104133 -0.00936331)
(0.00112232 0.00218566 -0.00919688)
(-5.41642e-05 0.00261465 -0.00884593)
(-0.00402961 0.00190379 -0.00877563)
(-0.01135 -0.00455533 -0.00551396)
(-0.0108281 -0.0223615 0.00803848)
(0.00872211 -0.00898982 0.00942412)
(0.0113115 0.0112788 -0.00680832)
(-0.00183767 -0.00400565 -0.00691456)
(-0.00162626 -0.00216307 -0.0101048)
(-0.000853352 0.000502932 -0.0112164)
(-0.000636888 0.00384939 -0.011179)
(-0.00258387 0.00725383 -0.0112007)
(-0.0122302 0.00820451 -0.0092545)
(-0.0260235 -0.00809912 0.00681874)
(-0.0184987 -0.0479053 0.0311279)
(-0.0157826 -0.0292079 0.0356151)
(0.0135011 0.0215506 -0.00535782)
(-0.000715489 0.00240886 -0.00146494)
(7.07372e-05 0.00437729 -0.00718991)
(0.000191278 0.00627632 -0.0110314)
(0.000653432 0.0101715 -0.0135041)
(-0.00123114 0.0161706 -0.0145265)
(-0.00865311 0.0183103 -0.00811537)
(-0.0184163 -0.00458442 0.0120195)
(-0.000873342 -0.0550409 0.0295692)
(-0.0285391 -0.0331414 0.0274641)
(0.0057025 0.028396 0.00652217)
(-0.00189676 0.00895251 -0.0016362)
(0.0039895 0.0110037 -0.00810384)
(0.00392263 0.0114911 -0.0110891)
(0.00380786 0.0145658 -0.0137718)
(0.0047095 0.0210621 -0.0157371)
(0.00522548 0.0248596 -0.00926401)
(0.00277756 0.00331032 0.00609601)
(0.0267346 -0.0362865 0.0170835)
(-0.0151046 -0.0176654 -0.000789132)
(-0.00330439 0.0324353 0.00473547)
(-0.00459335 0.0124975 -0.0150143)
(0.000536937 0.0189684 -0.0137662)
(0.00476239 0.0253614 -0.0111426)
(0.0090218 0.0289794 -0.0103733)
(0.0139875 0.0321387 -0.0105531)
(0.017903 0.032315 -0.00493095)
(0.0190461 0.0128056 0.0125439)
(0.0331686 -0.0143615 0.0204164)
(-0.00416027 -0.00306692 -0.00922415)
(-0.00977367 0.0387152 -0.00533447)
(-0.00449137 0.0476181 -0.0448739)
(-0.000202057 0.047117 -0.039675)
(0.00415597 0.0466514 -0.0356585)
(0.00970871 0.045688 -0.0317181)
(0.0156069 0.0447622 -0.0206637)
(0.0213197 0.0436308 -0.00427368)
(0.0242366 0.0329646 0.0157089)
(0.0325356 0.0219563 0.0186482)
(0.00228902 0.0344924 -0.00539048)
(-0.00875331 0.0447136 -0.0166235)
(-0.0203088 0.0174873 -0.0993986)
(-0.00232833 0.0195348 -0.095639)
(0.0146199 0.0234453 -0.0924678)
(0.0269401 0.0316718 -0.0852898)
(0.0318602 0.0414638 -0.0705712)
(0.0315338 0.0465848 -0.0449891)
(0.02545 0.0438659 -0.0143169)
(0.025929 0.0401963 -0.00276378)
(0.00291054 0.0482916 -0.0143171)
(0.00274372 0.0482335 -0.0185129)
(-0.0380307 0.0781074 0.0445058)
(-0.0273201 0.0729443 0.00843646)
(-0.0188253 0.0747611 -0.0236216)
(0.000837579 0.0820798 -0.0658414)
(0.0221535 0.0867056 -0.0857656)
(0.0425403 0.0859019 -0.0793042)
(0.047879 0.0779276 -0.0473238)
(0.0448132 0.0685916 -0.00942881)
(0.0115976 0.069646 0.0119663)
(0.00279452 0.0606839 0.0377125)
(-0.132102 -0.160815 -0.0537807)
(-0.103004 -0.106567 -0.0776921)
(-0.0761059 0.0240645 -0.0998987)
(-0.0688485 0.112168 -0.0553959)
(-0.106591 0.174753 0.114493)
(-0.100757 0.145942 0.214844)
(-0.0527173 0.108281 0.150157)
(-0.028458 0.088298 0.145818)
(-0.0507868 0.0854541 0.165428)
(-0.00715749 0.0482766 0.161818)
(-0.141289 -0.115764 0.122929)
(-0.10488 -0.0960153 0.10132)
(-0.0604449 -0.0469048 0.0591401)
(-0.0430158 0.040968 -0.00716066)
(-0.0397969 0.214675 -0.0841298)
(-0.00994125 0.270024 0.0844618)
(0.0613691 0.0121843 0.0627466)
(-0.00426056 -0.12113 0.0468871)
(-0.0648823 -0.186736 0.189559)
(0.018721 -0.249241 0.113425)
(-0.260825 -0.166354 0.136726)
(-0.241278 -0.156238 0.102162)
(-0.165018 -0.117053 0.0964521)
(-0.0682375 -0.042135 0.0759537)
(0.00206104 0.00841993 -0.0221103)
(0.0699716 0.00140742 -0.176171)
(0.128829 0.0473892 -0.202877)
(0.166028 0.143949 -0.161509)
(0.144159 0.129099 -0.114079)
(0.087687 0.0438617 -0.111782)
(-0.330156 -0.0571561 -0.00897877)
(-0.335453 -0.101679 -0.0643606)
(-0.280103 -0.148746 -0.0380519)
(-0.158808 -0.135069 0.00226863)
(-0.0154596 -0.0607883 0.00687204)
(0.0842125 -0.02227 -0.0666784)
(0.0980022 -0.0682427 -0.246631)
(0.136043 0.00325276 -0.28058)
(0.121821 0.00152705 -0.248645)
(0.0712375 -0.0191219 -0.236234)
(-0.317508 0.0673564 -0.16153)
(-0.362905 -0.0397591 -0.195278)
(-0.314891 -0.158139 -0.211136)
(-0.213208 -0.186829 -0.195405)
(-0.0927242 -0.123648 -0.143569)
(0.0653719 -0.0349104 -0.0980576)
(0.142063 0.0255757 -0.137331)
(0.180908 0.0876791 -0.194074)
(0.0818379 0.0861715 -0.219552)
(0.0248397 0.093146 -0.2638)
(-0.379232 0.10863 -0.162687)
(-0.38213 -0.0977642 -0.229181)
(-0.270563 -0.268562 -0.299581)
(-0.188922 -0.281052 -0.266812)
(-0.11555 -0.165657 -0.233353)
(0.00321164 -0.017796 -0.185047)
(0.132466 0.107037 -0.0887638)
(0.182854 0.17628 -0.0956631)
(0.093052 0.166533 -0.146851)
(-0.0231495 0.0856041 -0.214773)
(-0.357629 0.11643 -0.174672)
(-0.296098 -0.143153 -0.321784)
(-0.177467 -0.344395 -0.380004)
(-0.161619 -0.357506 -0.244053)
(-0.124237 -0.229454 -0.186581)
(-0.0419128 -0.0150377 -0.16749)
(0.129025 0.221677 0.031355)
(0.175985 0.297591 0.0577987)
(0.113054 0.242816 -0.0537909)
(-0.0116862 0.0993147 -0.148891)
(-0.261027 0.147489 -0.226444)
(-0.183224 -0.105166 -0.425741)
(-0.102519 -0.334863 -0.427083)
(-0.159917 -0.363253 -0.208334)
(-0.141585 -0.25048 -0.0795864)
(-0.0956625 -0.0174422 -0.0464583)
(0.0971879 0.297776 0.176427)
(0.147425 0.417253 0.204174)
(0.0909187 0.304196 0.0389901)
(-0.0317399 0.147154 -0.0298076)
(-0.124303 0.173696 -0.25738)
(-0.0673107 -0.0399547 -0.461827)
(-0.0313652 -0.296471 -0.42645)
(-0.137476 -0.359858 -0.20441)
(-0.145059 -0.272041 -0.000386024)
(-0.110654 -0.0084802 0.119515)
(0.0106112 0.302011 0.251566)
(0.0857242 0.468694 0.298984)
(0.0144484 0.350927 0.108907)
(-0.0395531 0.198277 0.124144)
(0.0113513 0.21568 -0.233244)
(0.0337255 0.0652867 -0.397076)
(0.0428128 -0.209143 -0.392305)
(-0.081057 -0.348214 -0.228719)
(-0.142919 -0.308286 -0.00635797)
(-0.134581 -0.045204 0.189423)
(-0.104012 0.253873 0.262377)
(-0.0342303 0.437383 0.304548)
(-0.074774 0.376695 0.167828)
(-0.041369 0.179377 0.156812)
(0.123773 0.267038 -0.20485)
(0.119786 0.166934 -0.300286)
(0.0960588 -0.0926286 -0.32505)
(-0.0280745 -0.300588 -0.245351)
(-0.160418 -0.311052 -0.0585863)
(-0.230244 -0.0600295 0.132583)
(-0.232855 0.19617 0.207086)
(-0.191623 0.357599 0.228333)
(-0.15691 0.309121 0.136858)
(-0.0557898 0.102924 0.0389681)
(-0.00311691 2.65611e-05 -0.00667336)
(-0.00187057 0.000118171 -0.0074077)
(-0.000790116 0.000320954 -0.00780021)
(-0.00032022 0.000459083 -0.00768823)
(-0.000369859 0.00047356 -0.00683516)
(-0.000886877 3.94695e-06 -0.00548002)
(-0.00176205 -0.00131985 -0.00343259)
(0.00213652 -0.00433919 -8.39892e-05)
(0.00753436 -0.00176931 0.000413316)
(0.00424054 0.00237913 -0.00426263)
(-0.0027516 -0.00294979 -0.00768807)
(-0.00117455 -0.0021319 -0.0091575)
(0.00117671 -0.00044727 -0.0100299)
(0.00251762 0.00103612 -0.0102271)
(0.00236688 0.0018894 -0.00952417)
(0.000623341 0.00158604 -0.0077845)
(-0.00366875 -0.00204119 -0.00300195)
(-0.000277255 -0.00964951 0.00857509)
(0.0131726 -0.000531958 0.00525194)
(0.00787096 0.0102961 -0.008096)
(-0.00238494 -0.00491535 -0.00996295)
(-0.00140273 -0.00455177 -0.0119721)
(0.000883032 -0.00208159 -0.0132964)
(0.00210051 0.00139529 -0.0132927)
(0.001162 0.00488579 -0.0117762)
(-0.00418482 0.00633582 -0.00822475)
(-0.0134983 0.00178612 0.00586684)
(-0.00736775 -0.0182442 0.0306635)
(0.00835168 0.00247892 0.0247018)
(0.0106936 0.0213364 -0.00872235)
(-0.0011218 -0.00126188 -0.0130843)
(0.00102611 -0.00242279 -0.0145133)
(0.00272323 -0.000403992 -0.0161524)
(0.00411773 0.00505949 -0.0168191)
(0.00277548 0.0109723 -0.0156892)
(-0.00267148 0.0150624 -0.00977133)
(-0.0110809 0.0088106 0.00611326)
(0.00423087 -0.022282 0.0289643)
(-0.00616403 0.00739156 0.0264616)
(0.00607989 0.0332197 -0.00991117)
(-0.00104768 0.00669844 -0.0213071)
(0.00478857 0.0044151 -0.0221366)
(0.0068355 0.00425897 -0.02277)
(0.00726756 0.00851827 -0.0239631)
(0.00691034 0.0157894 -0.0225823)
(0.00535047 0.021661 -0.0157274)
(0.00457417 0.0121046 -0.00482244)
(0.0157468 -0.00761445 0.00877592)
(-0.00761837 0.0237514 0.00483269)
(-0.00296666 0.0446002 -0.0163268)
(0.000244482 0.0122096 -0.0361439)
(0.00638192 0.00800208 -0.033527)
(0.00882056 0.00988856 -0.0290046)
(0.0108613 0.015802 -0.0257579)
(0.0136556 0.021918 -0.0222796)
(0.0150683 0.0253952 -0.0154658)
(0.0167271 0.0153318 -0.00406248)
(0.0181037 0.00374774 0.0029375)
(-0.00564814 0.0389365 -0.0105415)
(-0.0126863 0.0495972 -0.0235894)
(-0.00168669 0.0378237 -0.0617211)
(0.00488072 0.0368228 -0.0541959)
(0.00900897 0.0398489 -0.0476419)
(0.012911 0.0417423 -0.0434236)
(0.0165326 0.0427067 -0.032224)
(0.0204055 0.0442703 -0.0152125)
(0.0203531 0.0426092 0.000123342)
(0.0197431 0.0456058 0.00268262)
(0.000296189 0.0730554 -0.0091431)
(-0.0017393 0.0577475 -0.0335618)
(-0.0327109 -0.00288677 -0.140424)
(-0.00901271 -0.00321502 -0.13539)
(0.011906 -0.00248443 -0.130686)
(0.0290486 0.00798339 -0.119051)
(0.0383298 0.0252895 -0.0995062)
(0.0420573 0.0416108 -0.0711555)
(0.0364777 0.0484939 -0.0360446)
(0.0296137 0.0506961 -0.0136821)
(0.010978 0.0725818 -0.0139377)
(0.0181356 0.0691612 -0.0314579)
(-0.0679157 0.119079 0.219129)
(-0.0546942 0.0990691 0.140436)
(-0.0366575 0.0682874 0.0252392)
(-0.0143505 0.0617373 -0.090846)
(0.0362956 0.0691219 -0.145053)
(0.0809382 0.0773872 -0.140319)
(0.0943096 0.0858494 -0.0955634)
(0.0867991 0.0904515 -0.0362032)
(0.0451107 0.0939931 0.0154929)
(0.0237383 0.110715 0.0467854)
(-0.128893 0.260598 0.0331324)
(-0.0762373 0.246922 0.0231036)
(-0.0406227 0.173753 -0.00306854)
(-0.0322734 -0.0485686 0.0253043)
(-0.00899152 0.114222 -0.0450599)
(-0.0259951 0.166455 0.0604669)
(-0.0784898 0.203658 0.231812)
(-0.036386 0.167213 0.210697)
(-0.0362168 0.130817 0.216532)
(-0.00558306 0.107492 0.223763)
(-0.169189 -0.0311962 0.178524)
(-0.123884 -0.0720103 0.149216)
(-0.077547 -0.105533 0.122714)
(-0.0620916 -0.120163 0.097826)
(-0.064703 -0.0399203 0.0525697)
(-0.000223592 0.15303 0.0191462)
(0.0581225 0.31474 0.0611259)
(0.0776116 0.306089 0.0992058)
(0.0323461 0.00571911 0.129682)
(0.00175197 -0.0562489 0.166589)
(-0.21975 -0.0739372 0.130267)
(-0.210431 -0.0969289 0.0511898)
(-0.171979 -0.135145 0.014208)
(-0.126117 -0.155083 -0.00360089)
(-0.0950833 -0.156113 -0.0601461)
(-0.0582409 -0.120833 -0.145674)
(0.0278726 0.0654549 -0.147897)
(0.14409 0.27127 -0.0953098)
(0.165644 0.173231 -0.0732317)
(0.102734 0.108125 -0.0870473)
(-0.249065 0.0528912 -0.0515347)
(-0.261913 -0.0382107 -0.107692)
(-0.231597 -0.115864 -0.114381)
(-0.179874 -0.126635 -0.102985)
(-0.139487 -0.120991 -0.133644)
(-0.0824393 -0.138635 -0.219414)
(-0.00463585 -0.140373 -0.280851)
(0.120498 -0.0287191 -0.262762)
(0.146662 0.0450104 -0.208618)
(0.081751 0.0838345 -0.189007)
(-0.322585 0.0692823 -0.11376)
(-0.349202 -0.0913729 -0.15419)
(-0.278129 -0.186602 -0.194033)
(-0.198938 -0.168851 -0.174607)
(-0.145231 -0.134173 -0.185779)
(-0.0889607 -0.177546 -0.2541)
(-0.0240798 -0.200543 -0.307724)
(0.107689 -0.0432026 -0.252064)
(0.100445 0.0919086 -0.20517)
(0.0553951 0.1564 -0.228144)
(-0.363966 0.0613146 -0.128137)
(-0.325516 -0.148237 -0.24737)
(-0.209344 -0.292134 -0.312184)
(-0.155358 -0.287459 -0.222569)
(-0.0971664 -0.209833 -0.198635)
(-0.0817344 -0.204372 -0.261236)
(-0.0714783 -0.204097 -0.296489)
(-0.0105265 -0.0709718 -0.238423)
(0.0391679 0.116687 -0.141848)
(-0.027938 0.151609 -0.165259)
(-0.273518 0.0991238 -0.199368)
(-0.197576 -0.13622 -0.405172)
(-0.122352 -0.333361 -0.417982)
(-0.14244 -0.357524 -0.227813)
(-0.10299 -0.262505 -0.170044)
(-0.107222 -0.173811 -0.225819)
(-0.118497 -0.107299 -0.211033)
(-0.0818191 -0.00919836 -0.13551)
(-0.00728584 0.121635 -0.0899225)
(-0.0502771 0.0858902 -0.094058)
(-0.107807 0.134558 -0.29682)
(-0.0660693 -0.0895984 -0.524311)
(-0.0865434 -0.34175 -0.419073)
(-0.168188 -0.369008 -0.17897)
(-0.169712 -0.267219 -0.0951448)
(-0.182508 -0.115946 -0.137082)
(-0.163839 0.0149514 -0.0638275)
(-0.0692233 0.114359 0.0398763)
(-0.038619 0.133165 0.00335447)
(-0.0422779 0.0582015 -0.0132117)
(0.0487256 0.166723 -0.333867)
(0.0247489 -0.0377652 -0.519715)
(-0.0479801 -0.332542 -0.384184)
(-0.181085 -0.365515 -0.136946)
(-0.219199 -0.245944 -0.00826455)
(-0.233073 -0.0336559 0.00785175)
(-0.185596 0.131757 0.104244)
(-0.0706577 0.235211 0.196138)
(-0.0813244 0.172447 0.10703)
(-0.0732063 0.0640128 0.0872241)
(0.145735 0.21656 -0.326892)
(0.107589 0.0279457 -0.440374)
(0.00648961 -0.282196 -0.351893)
(-0.165267 -0.368892 -0.122901)
(-0.248595 -0.256771 0.048293)
(-0.270297 0.0152162 0.130895)
(-0.245025 0.201315 0.201318)
(-0.143234 0.291769 0.256943)
(-0.128374 0.213427 0.170054)
(-0.0761174 0.0588769 0.110108)
(0.201829 0.275778 -0.293278)
(0.15637 0.0913912 -0.347281)
(0.0520294 -0.208283 -0.29985)
(-0.130684 -0.355838 -0.130093)
(-0.297214 -0.280581 0.0554153)
(-0.384796 0.0199427 0.147544)
(-0.357671 0.226837 0.202785)
(-0.261151 0.298076 0.214231)
(-0.15363 0.206668 0.119477)
(-0.0335509 0.0219351 0.00940473)
(-0.00372494 0.00111854 -0.00705261)
(-0.00234985 0.000464445 -0.00785761)
(-0.000575194 0.00033279 -0.00864776)
(0.00065488 0.000379996 -0.00866928)
(0.00131409 0.000540591 -0.00777785)
(0.00130154 0.000455449 -0.00618153)
(0.001115 1.03596e-05 -0.00395672)
(0.00306312 -0.00103403 -0.00048996)
(0.00535545 0.000436715 0.000109964)
(0.00300988 0.00257546 -0.00535284)
(-0.00348213 -0.000863159 -0.00658376)
(-0.00241366 -0.00219977 -0.00864422)
(0.000756702 -0.0018856 -0.0105741)
(0.00321297 -0.000878701 -0.0113033)
(0.00439566 0.000411214 -0.0107294)
(0.00409895 0.00129988 -0.00895606)
(0.00278682 0.000961162 -0.00548402)
(0.00552204 -0.00116668 0.00156472)
(0.00921179 0.00295946 0.000369547)
(0.0045956 0.00833283 -0.00933264)
(-0.00302046 -0.00256036 -0.0114771)
(-0.0018414 -0.00538725 -0.0126201)
(0.00168283 -0.00507531 -0.0141888)
(0.00417105 -0.00213035 -0.0146158)
(0.0049918 0.00160896 -0.0132305)
(0.00383734 0.00458468 -0.0097735)
(0.000780621 0.00565474 -0.00151484)
(0.00425938 0.00456259 0.0143686)
(0.0136257 0.0132376 0.00834218)
(0.00645256 0.018414 -0.0111618)
(-0.00124674 -0.00148268 -0.0210052)
(0.00154876 -0.00581659 -0.0192509)
(0.00497086 -0.00671549 -0.0193905)
(0.00745222 -0.00238982 -0.0194776)
(0.00806631 0.00359802 -0.0175272)
(0.00634907 0.00924234 -0.0123903)
(0.00291652 0.0141147 -0.00153292)
(0.00580098 0.0132465 0.0182872)
(0.0110046 0.0269004 0.00908047)
(0.00535791 0.0287675 -0.0148313)
(0.000279023 0.00127694 -0.0347325)
(0.00587375 -0.00499183 -0.0295403)
(0.00890919 -0.00758908 -0.0272857)
(0.0111667 -0.00214235 -0.0278944)
(0.0124222 0.00637057 -0.0261646)
(0.0124212 0.0148277 -0.0197377)
(0.0102625 0.0214835 -0.00849506)
(0.0108922 0.024902 0.00406027)
(0.00747716 0.0434135 -0.0056839)
(-0.00285865 0.0407117 -0.025214)
(0.00282939 0.00254525 -0.0508249)
(0.00985786 -0.00627969 -0.041288)
(0.0113435 -0.00883742 -0.036013)
(0.0128101 -0.00447783 -0.0343223)
(0.0159234 0.00397391 -0.0299398)
(0.0190713 0.0133806 -0.0224225)
(0.0176049 0.0230858 -0.0124567)
(0.0188085 0.0330232 -0.00951925)
(0.0041779 0.0570412 -0.0190378)
(-0.00707128 0.0408678 -0.0341825)
(-0.000328674 0.000547324 -0.0752184)
(0.00995153 -0.00166203 -0.0645858)
(0.0146753 0.00368649 -0.0575629)
(0.018518 0.0100225 -0.0534544)
(0.0216139 0.0168252 -0.0447086)
(0.0267801 0.0281458 -0.0295703)
(0.0220982 0.0443811 -0.0124617)
(0.0265515 0.0607353 -0.00928175)
(0.0116858 0.0864685 -0.0164458)
(0.0159663 0.0537806 -0.0446945)
(-0.0378433 -0.045042 -0.171946)