/*--------------------------------*- C++ -*----------------------------------*\
| =========                 |                                                 |
| \\      /  F ield         | OpenFOAM: The Open Source CFD Toolbox           |
|  \\    /   O peration     | Version:  2312                                  |
|   \\  /    A nd           | Website:  www.openfoam.com                      |
|    \\/     M anipulation  |                                                 |
\*---------------------------------------------------------------------------*/
FoamFile
{
    version     2.0;
    format      ascii;
    arch        "LSB;label=32;scalar=64";
    class       volVectorField;
    location    "0.795";
    object      U;
}
// * * * * * * * * * * * * * * * * * * * * * * * * * * * * * * * * * * * * * //

dimensions      [0 1 -1 0 0 0 0];

internalField   nonuniform List<vector> 
8000
(
(0.00198976 -0.0057756 0.00198651)
(0.00736355 -0.00589959 0.00153759)
(0.0122677 -0.00519433 0.0015123)
(0.015442 -0.00412773 0.0016542)
(0.0168951 -0.00310881 0.00168637)
(0.0166039 -0.00213603 0.00154324)
(0.0148879 -0.00133051 0.0012701)
(0.0122068 -0.000765507 0.000850416)
(0.00911692 -0.000447399 0.000406319)
(0.00621101 -0.000314221 1.81398e-05)
(0.00100626 -0.0136572 0.000945835)
(0.00543038 -0.0140066 8.54421e-05)
(0.00969364 -0.0124717 0.000220822)
(0.0128527 -0.0100146 0.000787432)
(0.0144962 -0.00766356 0.00103295)
(0.014681 -0.0052146 0.000963339)
(0.0135958 -0.00305898 0.000736532)
(0.0116101 -0.00142257 0.00050781)
(0.00889308 -0.00041704 0.000364986)
(0.00631572 -0.000197563 0.000135098)
(0.00193824 -0.0196341 0.00189522)
(0.00818627 -0.0212075 -0.000570109)
(0.0128682 -0.0192049 -0.00105894)
(0.0165842 -0.0159799 0.000370937)
(0.0182603 -0.0127757 0.00139457)
(0.0181765 -0.0089618 0.00174731)
(0.0163505 -0.00557065 0.00188589)
(0.0133849 -0.00315229 0.00198854)
(0.00964954 -0.00182753 0.00215463)
(0.00650583 -0.00213522 0.00231629)
(0.00556267 -0.0341227 0.00515081)
(0.0149207 -0.0361441 0.00262426)
(0.0183058 -0.0288187 -0.000873297)
(0.022465 -0.0228393 0.000284754)
(0.0245325 -0.018748 0.00179014)
(0.0238596 -0.0139236 0.0029271)
(0.0199588 -0.00923656 0.00390666)
(0.014508 -0.00594778 0.00535505)
(0.00823804 -0.00525027 0.00742284)
(0.00507594 -0.00790241 0.00950171)
(0.0135145 -0.0598509 0.0128943)
(0.0276653 -0.0634851 0.0115119)
(0.0257094 -0.045751 0.00424483)
(0.0247217 -0.0344843 0.00466174)
(0.02576 -0.0259829 0.00643232)
(0.0244504 -0.0178757 0.00855535)
(0.0182218 -0.0119737 0.0106841)
(0.00902824 -0.0114023 0.0131176)
(0.00199528 -0.0170265 0.0171841)
(0.00238651 -0.0307667 0.019672)
(0.0209752 -0.114008 0.0208147)
(0.0334668 -0.103674 0.0218457)
(0.0317612 -0.0639275 0.0131531)
(0.0264874 -0.0492349 0.013262)
(0.0250301 -0.0418771 0.0140351)
(0.0214225 -0.0336085 0.0129326)
(0.0153596 -0.0270748 0.011296)
(0.0124361 -0.0303406 0.0153957)
(0.0105079 -0.0488155 0.0176523)
(0.00756917 -0.0680722 0.0143002)
(0.020316 -0.169746 0.0216169)
(0.0288583 -0.148438 0.0267546)
(0.0358959 -0.102488 0.0239539)
(0.0370124 -0.0833622 0.0219906)
(0.0383484 -0.0694354 0.0177116)
(0.0403376 -0.0516611 0.0137537)
(0.0403714 -0.0404413 0.0125943)
(0.0335263 -0.0596374 0.0100668)
(0.0255123 -0.0852967 -0.00766926)
(0.0161741 -0.0870346 -0.0145083)
(0.0151167 -0.214746 0.0193585)
(0.0173086 -0.188615 0.0260496)
(0.0178936 -0.155599 0.0224108)
(0.024877 -0.132378 0.0090935)
(0.0399889 -0.108916 -0.00853987)
(0.0501036 -0.0814803 -0.0127418)
(0.0458148 -0.0532088 -0.00664406)
(0.0359021 -0.0473215 -0.0338727)
(0.0255076 -0.0464934 -0.0611704)
(0.00810118 -0.0302572 -0.0616669)
(0.0101599 -0.248717 0.0149284)
(0.00272898 -0.209665 0.0211578)
(-0.00399665 -0.176499 0.0056285)
(0.0283928 -0.145243 -0.0248025)
(0.0804669 -0.104633 -0.0554699)
(0.097657 -0.0576144 -0.0842153)
(0.0945462 -0.011984 -0.0921773)
(0.0791744 0.0206534 -0.0861473)
(0.0305376 0.0366645 -0.0817152)
(-0.0228185 0.0453605 -0.0945808)
(0.00847521 -0.25715 0.0115487)
(0.00799548 -0.214793 0.0208)
(0.0442661 -0.203453 0.00686119)
(0.151186 -0.227508 -0.0190637)
(0.252007 -0.180259 -0.028443)
(0.243567 -0.078926 -0.0543917)
(0.184406 -0.0180006 -0.125539)
(0.0838199 0.0711709 -0.147)
(-0.0348933 0.142735 -0.126578)
(-0.0845982 0.130941 -0.152129)
(-0.0122765 -0.254503 0.0214235)
(0.0456256 -0.25897 0.0120549)
(0.149212 -0.346046 -0.0074876)
(0.268291 -0.378623 -0.0312694)
(0.323901 -0.258693 -0.0352625)
(0.354784 -0.078322 0.0165822)
(0.117037 0.0802054 0.0202763)
(-0.206315 0.172017 -0.134453)
(-0.184675 0.0424381 -0.161957)
(-0.219536 -0.0107672 -0.181012)
(-0.154293 -0.362293 0.0493284)
(0.056581 -0.444873 -0.0853563)
(0.072649 -0.382099 -0.150244)
(0.163231 -0.126848 -0.108364)
(0.155072 0.0463129 -0.061744)
(0.130783 0.165376 -0.0102269)
(-0.0596381 0.269703 -0.0042884)
(-0.19285 0.355451 -0.146101)
(-0.151194 0.281041 -0.168043)
(-0.1815 0.212078 -0.154576)
(-0.175697 -0.237339 0.00367521)
(-0.0125816 -0.0972957 -0.287241)
(-0.0296037 0.00864138 -0.230254)
(0.0702595 0.090619 -0.173192)
(0.0564687 0.169334 -0.0723433)
(0.021345 0.282702 -0.0254314)
(-0.146012 0.407646 -0.036148)
(-0.170613 0.48667 -0.156061)
(-0.109375 0.427244 -0.159513)
(-0.128167 0.350717 -0.12118)
(-0.214723 0.110575 -0.0281838)
(-0.0629253 0.163093 -0.243103)
(-0.0906578 0.178618 -0.203617)
(0.0034054 0.281536 -0.162558)
(-0.0130449 0.345844 -0.0687495)
(-0.0587305 0.413292 -0.0343393)
(-0.166739 0.526466 -0.0537886)
(-0.144151 0.619608 -0.145062)
(-0.0722596 0.594575 -0.116851)
(-0.112281 0.516812 -0.0575204)
(-0.203558 0.187398 -0.0148868)
(-0.108873 0.333606 -0.167663)
(-0.148457 0.349576 -0.167853)
(-0.0592117 0.451044 -0.127124)
(-0.0671704 0.500343 -0.0536022)
(-0.108867 0.537193 -0.0326037)
(-0.162102 0.645699 -0.0421836)
(-0.124848 0.766996 -0.0818857)
(-0.0724486 0.762904 -0.0200636)
(-0.13051 0.647846 0.0248569)
(-0.175556 0.194385 0.0312972)
(-0.161162 0.424942 -0.0832817)
(-0.188458 0.475952 -0.125631)
(-0.114211 0.570967 -0.0796289)
(-0.107826 0.596521 -0.0288283)
(-0.130366 0.622394 -0.0148907)
(-0.151401 0.731245 0.00214079)
(-0.122298 0.840625 0.0202484)
(-0.101389 0.774142 0.0782646)
(-0.15075 0.639447 0.0858361)
(-0.147641 0.16455 0.0872812)
(-0.21731 0.47551 0.000963061)
(-0.224007 0.561977 -0.052214)
(-0.164481 0.62937 -0.0115016)
(-0.135073 0.617457 0.00649972)
(-0.131433 0.618393 0.0155154)
(-0.132603 0.698816 0.0478101)
(-0.114231 0.745339 0.0897245)
(-0.121739 0.623504 0.113885)
(-0.161198 0.490394 0.0939569)
(-0.121042 0.108154 0.122458)
(-0.248684 0.447533 0.0869338)
(-0.250266 0.543337 0.0578583)
(-0.200835 0.562487 0.0706429)
(-0.149365 0.528039 0.0513632)
(-0.121761 0.515207 0.0515404)
(-0.105459 0.559169 0.0727067)
(-0.0807685 0.56266 0.095453)
(-0.0794025 0.450579 0.0847549)
(-0.105104 0.321433 0.053906)
(-0.0522336 0.0345669 0.0844725)
(-0.230732 0.325335 0.137249)
(-0.243527 0.360548 0.12063)
(-0.21213 0.333031 0.103352)
(-0.157532 0.316455 0.0721936)
(-0.113203 0.325307 0.0663777)
(-0.0748922 0.359638 0.0678513)
(-0.027264 0.365889 0.0624123)
(0.0124233 0.312066 0.0356255)
(0.0252185 0.227263 0.00485097)
(0.0239761 -0.0160348 -0.0355519)
(-0.0885912 0.179302 0.0923594)
(-0.109467 0.158901 0.101272)
(-0.135692 0.104452 0.0758675)
(-0.149063 0.110334 0.0511186)
(-0.113791 0.13664 0.0404821)
(-0.0583669 0.17139 0.0312668)
(0.00775455 0.196075 0.0177138)
(0.0701245 0.191769 -0.0014972)
(0.10867 0.165638 -0.0178636)
(0.0015437 -0.00591327 0.00751715)
(0.00753539 -0.00723419 0.00773443)
(0.0141104 -0.00665369 0.00749878)
(0.0183574 -0.00523763 0.007611)
(0.0203502 -0.00404335 0.00765662)
(0.0203449 -0.00307611 0.00753583)
(0.0187437 -0.00233285 0.00730811)
(0.0158535 -0.00172391 0.0069089)
(0.0117842 -0.00120129 0.00644522)
(0.00735566 -0.00100863 0.00582547)
(0.000141267 -0.0140107 0.00551808)
(0.00582627 -0.0188532 0.00607963)
(0.0130732 -0.0176393 0.00554718)
(0.0174117 -0.0134576 0.00611149)
(0.019222 -0.010221 0.00666073)
(0.0192359 -0.00773948 0.00682202)
(0.0176983 -0.00580462 0.00670756)
(0.0149601 -0.00435861 0.00649409)
(0.011146 -0.00356071 0.00638356)
(0.00724853 -0.00396933 0.00612315)
(-0.000501703 -0.021256 0.00816257)
(0.0117078 -0.0339769 0.0115067)
(0.0213693 -0.0317324 0.00815351)
(0.0252686 -0.0227987 0.00677621)
(0.0254199 -0.0173199 0.00751089)
(0.0244672 -0.0132076 0.00819548)
(0.0222563 -0.00984674 0.00854354)
(0.0186954 -0.00736151 0.00883519)
(0.0135643 -0.00612603 0.00943482)
(0.00831307 -0.00709479 0.0101016)
(0.00282501 -0.0364434 0.0142289)
(0.0281824 -0.0628132 0.0269673)
(0.0353261 -0.0543465 0.0202182)
(0.0377235 -0.033449 0.0115917)
(0.0355913 -0.0231865 0.00973505)
(0.0325735 -0.0183254 0.0108248)
(0.0282815 -0.0138881 0.0124376)
(0.022395 -0.00971979 0.0146556)
(0.014534 -0.00625447 0.0174908)
(0.00789572 -0.0070932 0.0202378)
(0.0120884 -0.0652561 0.0264439)
(0.0430834 -0.0947547 0.0420903)
(0.0461928 -0.0763819 0.0365651)
(0.0440003 -0.0470018 0.0228911)
(0.0402972 -0.0299963 0.0175912)
(0.0364379 -0.0215238 0.0190146)
(0.0302626 -0.0149199 0.0223737)
(0.0220146 -0.00931893 0.0261312)
(0.0112764 -0.00616999 0.0310179)
(0.00566849 -0.00911293 0.0359759)
(0.0223263 -0.105214 0.0314498)
(0.0470543 -0.127294 0.0463429)
(0.0497827 -0.089684 0.0483137)
(0.0476542 -0.0540059 0.0377456)
(0.042945 -0.0355811 0.029693)
(0.0366685 -0.0256216 0.0274444)
(0.0287868 -0.0162294 0.0271917)
(0.022798 -0.00553264 0.0314648)
(0.0164848 0.0027434 0.0397722)
(0.0130778 -0.00822753 0.0458409)
(0.0270196 -0.148304 0.0287417)
(0.0462807 -0.159083 0.0438073)
(0.0543215 -0.116613 0.055378)
(0.059442 -0.0780156 0.0531291)
(0.0591747 -0.048483 0.0428961)
(0.0537123 -0.034623 0.030984)
(0.0508612 -0.0341548 0.0252452)
(0.0570595 -0.0323092 0.033281)
(0.0540563 -0.0249933 0.0417214)
(0.0350169 -0.0164505 0.0374529)
(0.0260769 -0.190654 0.0227841)
(0.0402229 -0.188026 0.0343936)
(0.0481288 -0.145502 0.0452086)
(0.0583173 -0.106563 0.0437392)
(0.0647431 -0.0620683 0.0380515)
(0.0548889 -0.030607 0.0254262)
(0.0490631 -0.0287097 -0.00228943)
(0.0423223 -0.0186408 -0.0431088)
(0.0241105 0.0114794 -0.0687813)
(0.000198337 0.0374764 -0.0730072)
(0.020645 -0.218189 0.0119603)
(0.0246887 -0.194585 0.0227113)
(0.0405527 -0.147267 0.0314009)
(0.0795693 -0.105549 0.0317511)
(0.128266 -0.0602055 0.0311918)
(0.148811 -0.0176001 0.0384199)
(0.133107 0.0152428 0.0470218)
(0.0631238 0.0366493 0.0302985)
(-0.0130205 0.054737 -0.0021808)
(-0.032364 0.0621439 0.0114738)
(0.0157895 -0.227732 0.0193844)
(0.0301229 -0.210606 0.0402913)
(0.109562 -0.233183 0.044266)
(0.237216 -0.272243 0.0416901)
(0.421334 -0.273166 0.0404529)
(0.528215 -0.168654 0.0747391)
(0.408751 -0.00601439 0.16782)
(0.224193 0.135287 0.171758)
(-0.0752301 0.189198 0.152683)
(-0.168112 0.169963 0.169142)
(0.0118553 -0.257452 0.0464074)
(0.0898131 -0.323338 0.0260238)
(0.270039 -0.447763 -0.123891)
(0.354279 -0.478524 -0.24345)
(0.355681 -0.300437 -0.236061)
(0.32327 0.0262383 -0.0530806)
(0.227126 0.122352 0.138574)
(0.070552 0.326914 0.0471851)
(-0.129321 0.343653 0.00834053)
(-0.174807 0.297689 0.0812619)
(-4.62745e-06 -0.385147 -0.0380924)
(0.122989 -0.467682 -0.297167)
(0.172099 -0.299126 -0.439063)
(0.238969 -0.123479 -0.418083)
(0.257671 0.0404701 -0.289298)
(0.180524 0.151802 -0.102445)
(0.0792863 0.293464 0.0860957)
(-0.00561505 0.489821 -0.0910825)
(-0.124717 0.525499 -0.147534)
(-0.0865502 0.436381 -0.0512766)
(0.0410023 -0.0678906 -0.330388)
(0.111276 -0.091052 -0.551549)
(0.0230026 -0.131789 -0.441855)
(0.0785289 0.00999908 -0.42559)
(0.139877 0.20291 -0.284538)
(0.0528175 0.307273 -0.108647)
(0.0165748 0.421969 -0.00432681)
(-0.0281551 0.58564 -0.199642)
(-0.0436654 0.597929 -0.257845)
(0.0573627 0.481266 -0.167669)
(0.0210919 0.11293 -0.0899162)
(0.132334 -0.00437225 -0.366548)
(0.022808 -0.0406468 -0.314027)
(0.00456423 0.168882 -0.367837)
(0.0402215 0.393071 -0.237076)
(-0.0603414 0.460479 -0.0993945)
(-0.0273574 0.51639 -0.114813)
(-0.0150305 0.640224 -0.277643)
(0.0741874 0.623486 -0.289418)
(0.185482 0.53498 -0.154264)
(-0.0905571 0.213075 0.177419)
(0.131891 0.168704 -0.206997)
(-0.0428214 0.112522 -0.236783)
(-0.043832 0.332949 -0.28998)
(-0.0390804 0.568537 -0.166998)
(-0.12842 0.596116 -0.0718539)
(-0.061306 0.608587 -0.151375)
(0.0189289 0.67689 -0.244791)
(0.149714 0.67324 -0.165094)
(0.20269 0.666251 0.00934308)
(-0.16735 0.226792 0.270282)
(0.136678 0.253576 -0.0625336)
(-0.105894 0.250713 -0.159407)
(-0.0846772 0.487365 -0.194786)
(-0.0947257 0.700402 -0.0830567)
(-0.14633 0.67696 -0.00201009)
(-0.0737232 0.663117 -0.054008)
(0.021568 0.726888 -0.0528418)
(0.102033 0.786606 0.0720591)
(0.0849297 0.801702 0.195415)
(-0.15617 0.166243 0.291914)
(0.0712328 0.269021 0.0535083)
(-0.145626 0.358042 -0.0749132)
(-0.131672 0.599384 -0.0815084)
(-0.129913 0.76518 0.0154505)
(-0.134255 0.701421 0.0915162)
(-0.0900493 0.688396 0.097421)
(-0.0392698 0.770351 0.151209)
(-0.0169918 0.812789 0.241133)
(-0.0648065 0.798444 0.28954)
(-0.118452 0.0994186 0.301353)
(-0.102696 0.356985 0.166146)
(-0.227073 0.511121 0.0684735)
(-0.199666 0.686039 0.0797259)
(-0.154738 0.760682 0.132641)
(-0.117604 0.670289 0.183083)
(-0.106838 0.660437 0.202636)
(-0.0925737 0.71741 0.238008)
(-0.083047 0.721973 0.263686)
(-0.123585 0.677656 0.265516)
(-0.100526 0.0905342 0.26336)
(-0.262908 0.426469 0.264757)
(-0.317769 0.54208 0.222449)
(-0.271697 0.613013 0.225783)
(-0.18546 0.623105 0.221289)
(-0.1221 0.557281 0.225311)
(-0.10384 0.562669 0.220995)
(-0.0821004 0.592797 0.212985)
(-0.0519304 0.58681 0.188284)
(-0.054811 0.547356 0.166545)
(-0.03828 0.122776 0.154233)
(-0.257708 0.409824 0.27911)
(-0.294246 0.411399 0.271633)
(-0.282176 0.369411 0.251573)
(-0.226897 0.363357 0.21296)
(-0.156271 0.35097 0.185304)
(-0.0955676 0.377018 0.163082)
(-0.0329257 0.407314 0.138399)
(0.0292567 0.418116 0.104458)
(0.0700022 0.414736 0.0764721)
(0.00153184 -0.00519218 0.0125098)
(0.00734303 -0.00658705 0.0144695)
(0.0135293 -0.00599019 0.0138896)
(0.0175071 -0.0046564 0.0136461)
(0.019389 -0.00357261 0.0136204)
(0.0193891 -0.00276346 0.0136741)
(0.0178834 -0.00219771 0.0137955)
(0.015128 -0.00173389 0.0138342)
(0.0111362 -0.00141355 0.0139755)
(0.00686108 -0.00151935 0.013812)
(0.000356225 -0.0124691 0.00983509)
(0.00541029 -0.0173629 0.0135515)
(0.0121889 -0.0158859 0.0126946)
(0.0163861 -0.0117665 0.0122434)
(0.0181606 -0.00876779 0.0124494)
(0.0181412 -0.00665655 0.0127223)
(0.0166344 -0.00524379 0.0129504)
(0.0141085 -0.00450229 0.0131763)
(0.0105922 -0.00472867 0.0136777)
(0.00702886 -0.00613436 0.0139847)
(-0.00072981 -0.0193034 0.0129478)
(0.00801293 -0.0311473 0.0213567)
(0.0188193 -0.0299047 0.0195107)
(0.0231723 -0.0214325 0.0158768)
(0.0235907 -0.0156615 0.0148863)
(0.0227525 -0.0118562 0.0150527)
(0.0206487 -0.0094626 0.0153258)
(0.017306 -0.00828659 0.0156807)
(0.0124491 -0.00841812 0.0163758)
(0.00774239 -0.0101061 0.0165631)
(-0.000366608 -0.0292172 0.0177599)
(0.0198482 -0.0531127 0.0330236)
(0.0323861 -0.0498478 0.0320092)
(0.0367529 -0.03171 0.0239127)
(0.0340505 -0.0219034 0.0197852)
(0.0303105 -0.0173418 0.0192154)
(0.0261386 -0.0138894 0.0201191)
(0.0208414 -0.0110223 0.0213651)
(0.0132561 -0.00888042 0.0224258)
(0.00697554 -0.00951104 0.0219621)
(0.00453674 -0.046635 0.0246018)
(0.0355171 -0.0747278 0.0420433)
(0.0455549 -0.0691162 0.0432268)
(0.0481747 -0.0437673 0.0341144)
(0.043633 -0.0272528 0.0282631)
(0.038531 -0.0205752 0.0279628)
(0.0324838 -0.0157214 0.030151)
(0.0248471 -0.00999897 0.0313547)
(0.0137804 -0.0050744 0.0308701)
(0.00580965 -0.00474377 0.0300724)
(0.0127406 -0.0647244 0.0296768)
(0.0474818 -0.0877883 0.0457508)
(0.0565564 -0.0747181 0.0533996)
(0.0579532 -0.0470466 0.0479071)
(0.0523329 -0.0299124 0.0404901)
(0.0460862 -0.0226048 0.0375371)
(0.0399129 -0.0142938 0.0388545)
(0.0314385 -0.00179331 0.0419205)
(0.0175103 0.00934977 0.0418718)
(0.00910138 0.00841421 0.0396472)
(0.0232789 -0.102202 0.0340712)
(0.057531 -0.116013 0.0500083)
(0.0658156 -0.0913163 0.0629229)
(0.0691342 -0.0588158 0.0632789)
(0.0650062 -0.0389208 0.0514831)
(0.0584118 -0.0382093 0.0385654)
(0.0541623 -0.0394616 0.0333353)
(0.050825 -0.0227305 0.0379883)
(0.0407122 0.00213171 0.0365987)
(0.0240402 0.0148659 0.0251616)
(0.0237659 -0.155018 0.0228925)
(0.0498345 -0.146903 0.0408732)
(0.0558618 -0.105621 0.0519876)
(0.0632975 -0.0610912 0.0536542)
(0.0577838 -0.0264092 0.0385304)
(0.0426225 -0.0256973 0.00236415)
(0.0160992 -0.0235104 -0.0404725)
(-0.0207016 0.0115845 -0.0743247)
(-0.0249641 0.0389482 -0.0944644)
(-0.0135723 0.046082 -0.103697)
(0.00925484 -0.180799 0.0101306)
(0.0271108 -0.149948 0.0381176)
(0.0496796 -0.0991445 0.0463169)
(0.086886 -0.0597743 0.0468545)
(0.117687 -0.0205956 0.042849)
(0.122771 0.0199602 0.0224529)
(0.0704966 0.0381256 -0.0403993)
(0.0258269 0.0250367 -0.0633334)
(-0.0181478 0.00455539 -0.0615024)
(-0.0592067 0.0135156 -0.085743)
(0.00843725 -0.201851 0.0475314)
(0.0636467 -0.232346 0.0856264)
(0.165228 -0.227619 0.0894399)
(0.311797 -0.228694 0.0597952)
(0.491834 -0.18932 -0.00232195)
(0.505086 -0.0505818 0.056098)
(0.510346 0.0742539 0.145767)
(0.506413 0.203202 0.18421)
(0.223828 0.0453375 -0.0398838)
(-0.153236 0.0744479 -0.199048)
(0.0338805 -0.298138 0.0609086)
(0.173371 -0.448097 -0.0650648)
(0.250637 -0.464729 -0.207958)
(0.34739 -0.36528 -0.320191)
(0.41717 -0.103992 -0.303565)
(0.399267 0.0461914 -0.166864)
(0.344061 0.23962 0.0264055)
(0.35865 0.43108 0.0112045)
(0.0419292 0.439594 -0.20547)
(-0.127414 0.384336 -0.244799)
(0.0449333 -0.344368 -0.378567)
(0.124329 -0.287965 -0.568878)
(0.11174 -0.222683 -0.561936)
(0.131588 -0.117716 -0.598229)
(0.161651 0.0209517 -0.491057)
(0.174604 0.162374 -0.269017)
(0.200931 0.354155 -0.0419495)
(0.202605 0.630439 -0.106021)
(-0.0386281 0.678352 -0.268818)
(-0.0179673 0.479055 -0.260536)
(0.0188762 -0.0765508 -0.593639)
(0.0361453 -0.250554 -0.537766)
(-0.0384788 -0.310985 -0.430064)
(-0.0109648 -0.116115 -0.545895)
(0.00987646 0.139573 -0.475893)
(-0.0144213 0.25693 -0.296548)
(0.101898 0.444246 -0.126443)
(0.0977271 0.746318 -0.219615)
(0.0297071 0.744291 -0.339762)
(0.139464 0.489339 -0.329709)
(0.0551546 -0.0385372 -0.44816)
(0.0808177 -0.202225 -0.445847)
(-0.0150273 -0.214048 -0.335432)
(-0.0553775 -0.0022755 -0.461705)
(-0.0636384 0.299735 -0.397518)
(-0.124506 0.391471 -0.282464)
(-0.000173312 0.533875 -0.284671)
(0.0505888 0.782573 -0.365931)
(0.141872 0.709724 -0.416514)
(0.263825 0.494393 -0.331699)
(0.0916326 0.0915135 -0.168587)
(0.08988 -0.0677862 -0.280959)
(-0.0253578 -0.0986493 -0.271987)
(-0.06194 0.119835 -0.373727)
(-0.0924421 0.455808 -0.304329)
(-0.157746 0.531878 -0.221425)
(-0.068604 0.604103 -0.340839)
(0.0424573 0.745123 -0.395967)
(0.204566 0.637445 -0.337767)
(0.322113 0.495372 -0.159908)
(0.00550601 0.175737 0.190137)
(0.0923887 0.0621038 -0.0675541)
(-0.0329619 0.0156586 -0.180557)
(-0.0723897 0.254051 -0.263693)
(-0.106013 0.589382 -0.195121)
(-0.147796 0.642915 -0.106069)
(-0.0774527 0.636062 -0.214206)
(0.0537272 0.659098 -0.209044)
(0.206655 0.572004 -0.066416)
(0.265889 0.555615 0.130533)
(-0.088396 0.131012 0.356536)
(0.144068 0.0629249 0.0559342)
(-0.00756656 0.09343 -0.091756)
(-0.0947254 0.369721 -0.131872)
(-0.129779 0.682855 -0.0680259)
(-0.129258 0.691535 0.0455238)
(-0.0539387 0.61289 0.0125192)
(0.042745 0.57833 0.0709005)
(0.10921 0.556931 0.20416)
(0.104505 0.615988 0.33975)
(-0.0828621 0.0460919 0.405271)
(0.0945058 0.0919448 0.155292)
(-0.087162 0.244129 0.0471264)
(-0.158487 0.502066 0.0439337)
(-0.157628 0.723383 0.093494)
(-0.104938 0.672943 0.189913)
(-0.0487771 0.56792 0.200349)
(-0.0232408 0.529481 0.247523)
(-0.0216941 0.530942 0.309319)
(-0.0406072 0.602437 0.376184)
(-0.070819 0.0464357 0.372763)
(-0.114182 0.25326 0.284684)
(-0.241474 0.421004 0.239074)
(-0.253994 0.578322 0.254026)
(-0.19306 0.667575 0.262694)
(-0.110022 0.586682 0.292495)
(-0.0745916 0.506193 0.290599)
(-0.0678331 0.475852 0.291327)
(-0.0643627 0.475446 0.281573)
(-0.0628401 0.532117 0.283929)
(-0.0465805 0.131193 0.277693)
(-0.238705 0.381107 0.353781)
(-0.332245 0.449496 0.353986)
(-0.32842 0.465192 0.364396)
(-0.255675 0.463897 0.336897)
(-0.172459 0.399539 0.310445)
(-0.111027 0.351518 0.283269)
(-0.0499148 0.336164 0.255798)
(0.00711414 0.345578 0.221817)
(0.0520883 0.400936 0.193093)
(0.00170091 -0.0040859 0.0156817)
(0.00752753 -0.00513152 0.0186986)
(0.013347 -0.00459049 0.0179351)
(0.0171118 -0.00344707 0.0175633)
(0.0189543 -0.00247803 0.0176541)
(0.019046 -0.0017109 0.0180615)
(0.0176201 -0.0010718 0.0187329)
(0.0150927 -0.000453639 0.0195219)
(0.0112706 1.46599e-05 0.0206462)
(0.00690073 0.000128564 0.0210003)
(0.000952872 -0.010023 0.0129768)
(0.0061428 -0.0131405 0.0177962)
(0.0119185 -0.0115516 0.0169179)
(0.0158275 -0.00831243 0.01636)
(0.0176043 -0.00585197 0.0165569)
(0.0176623 -0.00385177 0.0171295)
(0.0163389 -0.0023606 0.0179618)
(0.0142735 -0.00147537 0.0189223)
(0.0112104 -0.00125867 0.02042)
(0.00754507 -0.00166625 0.0212756)
(0.000777657 -0.0162393 0.0167698)
(0.00691823 -0.0221221 0.0254282)
(0.01521 -0.0208283 0.0239132)
(0.0201052 -0.0152373 0.0210866)
(0.0218252 -0.0105964 0.0203378)
(0.0216557 -0.00705602 0.0208406)
(0.0196501 -0.0047975 0.0216895)
(0.0164142 -0.00363952 0.0224892)
(0.0116134 -0.00286494 0.0231931)
(0.00735092 -0.00224721 0.0223557)
(0.00111975 -0.023697 0.0221731)
(0.0116356 -0.0323804 0.0361278)
(0.0230478 -0.0305667 0.0365006)
(0.0289341 -0.0219615 0.0303177)
(0.0293788 -0.0158224 0.0268606)
(0.0277582 -0.0110036 0.0266946)
(0.0241272 -0.00729496 0.0280727)
(0.0184878 -0.00474742 0.0290103)
(0.0100514 -0.00169376 0.0281507)
(0.00553779 0.000954485 0.0236085)
(0.00543581 -0.036064 0.0238007)
(0.02231 -0.045511 0.04006)
(0.0340721 -0.0417933 0.0455073)
(0.0396745 -0.0287926 0.0402716)
(0.0392799 -0.0198073 0.0363773)
(0.0372464 -0.0140946 0.0369227)
(0.0314805 -0.007882 0.0387768)
(0.0221061 -0.00148505 0.0382329)
(0.00874265 0.00312975 0.0346704)
(0.00359648 0.00365284 0.0271061)
(0.013656 -0.051304 0.024711)
(0.0374164 -0.0537652 0.043212)
(0.0485904 -0.0455237 0.0544505)
(0.0519891 -0.0315534 0.0522307)
(0.0503829 -0.0222437 0.0482043)
(0.049694 -0.013403 0.0493705)
(0.0452336 -0.000342375 0.0544066)
(0.0305993 0.00566517 0.056113)
(0.00841261 0.00786285 0.0495164)
(0.00176277 0.00825997 0.0357039)
(0.0210063 -0.0858551 0.0338019)
(0.0533724 -0.0811309 0.0557659)
(0.0628426 -0.0588132 0.0691353)
(0.0628078 -0.0403214 0.0672243)
(0.0585772 -0.0356652 0.0578861)
(0.0552259 -0.0340539 0.0500342)
(0.0506843 -0.0132255 0.0533436)
(0.0330996 0.0194497 0.0481547)
(0.0173944 0.0262288 0.0382784)
(0.0105956 0.0212779 0.0212078)
(0.0135918 -0.130056 0.0268179)
(0.0427086 -0.109541 0.0526075)
(0.0540306 -0.0588454 0.0667831)
(0.0509074 -0.0236713 0.0630297)
(0.0331704 -0.0220966 0.0399338)
(-0.00292043 -0.0138048 -0.00587488)
(-0.0808189 0.0204225 -0.0447603)
(-0.0961507 0.033289 -0.0686885)
(-0.0708319 0.0315455 -0.0813946)
(-0.0293535 0.0298308 -0.0888171)
(-0.00501118 -0.140509 0.0344617)
(0.0293207 -0.113074 0.0712175)
(0.0640211 -0.063204 0.0843493)
(0.105673 -0.0326427 0.0952734)
(0.143149 -0.00428279 0.0998199)
(0.11265 0.0500776 0.0698961)
(-0.0285255 0.070413 -0.0473619)
(0.0254199 0.0233083 -0.06345)
(0.0288532 -0.0195837 0.121575)
(-0.202111 -0.0447295 0.0233755)
(0.0130489 -0.196612 0.0946834)
(0.109489 -0.248683 0.144196)
(0.245869 -0.238731 0.126344)
(0.472309 -0.245201 -0.0192672)
(0.605945 -0.161874 -0.10024)
(0.439636 0.0672775 0.0128821)
(0.473471 0.123203 0.0514465)
(0.360199 0.279956 -0.0442987)
(0.0214683 0.372321 -0.0116428)
(-0.220614 0.299171 -0.0701203)
(0.0558937 -0.316006 -0.0200632)
(0.195144 -0.428877 -0.118791)
(0.286183 -0.416727 -0.293497)
(0.362709 -0.195111 -0.458221)
(0.398655 0.0418138 -0.432696)
(0.321764 0.239169 -0.248593)
(0.295168 0.324542 -0.0835649)
(0.25656 0.586455 -0.110774)
(-0.0150411 0.649083 -0.101627)
(-0.103637 0.420975 -0.143061)
(0.0213639 -0.107578 -0.585284)
(0.0249159 -0.245769 -0.556865)
(-0.0327956 -0.333531 -0.529577)
(-0.0613661 -0.217933 -0.590994)
(-0.0341495 -0.0464777 -0.533294)
(0.0261156 0.188575 -0.35125)
(0.132707 0.440867 -0.118777)
(0.12866 0.793862 -0.165875)
(0.00712269 0.770075 -0.194105)
(0.0722748 0.416931 -0.267016)
(-0.0368209 -0.26859 -0.55062)
(-0.0241005 -0.381125 -0.480523)
(-0.050115 -0.378613 -0.449746)
(-0.0736812 -0.231366 -0.544477)
(-0.1381 -0.0237047 -0.544071)
(-0.134988 0.162061 -0.471279)
(0.0275384 0.519835 -0.266371)
(0.056993 0.874276 -0.293034)
(0.121926 0.75837 -0.34872)
(0.242229 0.406336 -0.38284)
(-0.0301699 -0.210328 -0.51338)
(-0.00720594 -0.326392 -0.461875)
(-0.0184066 -0.315806 -0.416812)
(-0.0538521 -0.181348 -0.485507)
(-0.125685 0.0760618 -0.467793)
(-0.190319 0.25221 -0.472157)
(-0.0822446 0.556428 -0.477716)
(0.0475775 0.825871 -0.466435)
(0.212606 0.643569 -0.463475)
(0.298426 0.358641 -0.361015)
(0.00426411 -0.159898 -0.281365)
(0.0122869 -0.291482 -0.302032)
(-0.00932278 -0.23789 -0.360724)
(-0.0460035 -0.0909798 -0.428045)
(-0.121838 0.19242 -0.379503)
(-0.184677 0.367732 -0.382829)
(-0.146439 0.52495 -0.481799)
(0.0274411 0.656 -0.45772)
(0.196036 0.478673 -0.345304)
(0.280357 0.276777 -0.167588)
(0.0381657 -0.0131654 0.0443783)
(0.0473954 -0.190857 -0.113505)
(-0.0409762 -0.138824 -0.264194)
(-0.0778736 0.0376167 -0.329724)
(-0.133132 0.305645 -0.270881)
(-0.149075 0.452552 -0.240567)
(-0.135212 0.46847 -0.285215)
(0.0104471 0.465025 -0.219664)
(0.153032 0.29225 -0.0505178)
(0.224992 0.200464 0.127328)
(-0.038564 0.0314523 0.3175)
(0.109647 -0.134372 0.000669373)
(-0.0596115 -0.0321149 -0.145503)
(-0.088391 0.148283 -0.17192)
(-0.143229 0.385176 -0.12663)
(-0.127392 0.495046 -0.0691032)
(-0.0998379 0.40076 -0.0260069)
(-0.00294185 0.289298 0.0929055)
(0.0579169 0.183044 0.230862)
(0.0784187 0.249506 0.348086)
(-0.0412623 -0.0186179 0.402638)
(0.117025 -0.105579 0.0731717)
(-0.0418849 0.0665702 0.000726035)
(-0.121328 0.261724 0.0120661)
(-0.185199 0.438268 0.0648211)
(-0.144792 0.455802 0.149494)
(-0.095155 0.314916 0.228181)
(-0.0615136 0.218924 0.303632)
(-0.0649443 0.194708 0.348841)
(-0.0608713 0.299276 0.399927)
(-0.0345365 -0.0264636 0.381046)
(-0.0321622 0.0574882 0.207401)
(-0.177837 0.236715 0.202004)
(-0.24228 0.375025 0.250541)
(-0.249707 0.436262 0.298659)
(-0.184287 0.367543 0.351272)
(-0.128328 0.250798 0.377)
(-0.0898471 0.193912 0.37176)
(-0.065822 0.189068 0.350976)
(-0.0402063 0.276684 0.345577)
(-0.0185 0.0787478 0.305185)
(-0.173443 0.234951 0.319531)
(-0.308172 0.340085 0.368361)
(-0.350984 0.363536 0.425979)
(-0.314439 0.328801 0.432216)
(-0.23236 0.239456 0.405892)
(-0.139436 0.155519 0.35576)
(-0.0487614 0.120379 0.311787)
(0.0303585 0.130478 0.277657)
(0.100004 0.204083 0.26287)
(0.00172976 -0.00302073 0.0171043)
(0.00763671 -0.00391462 0.0206417)
(0.0134318 -0.00344741 0.0198293)
(0.0172638 -0.00238425 0.0195239)
(0.0191962 -0.00144197 0.0197878)
(0.0194594 -0.000564761 0.0203877)
(0.0181339 0.000338479 0.0212445)
(0.0158468 0.00125828 0.0220921)
(0.0119081 0.00215932 0.0236744)
(0.00699789 0.0031149 0.0241975)
(0.00116792 -0.00765315 0.0146535)
(0.00679524 -0.00999255 0.0195573)
(0.0123514 -0.00850389 0.0187183)
(0.0161451 -0.00563167 0.0183328)
(0.0179584 -0.00331606 0.0186875)
(0.0181569 -0.00121655 0.0194122)
(0.0168991 0.000477089 0.020426)
(0.0150504 0.00183127 0.0216389)
(0.0118004 0.00333508 0.0236907)
(0.00775262 0.00504593 0.0247908)
(0.00172739 -0.0131252 0.0186019)
(0.00792327 -0.0170005 0.0258308)
(0.0147943 -0.0150592 0.0244865)
(0.0196916 -0.0101489 0.0230643)
(0.0219608 -0.00596744 0.0231058)
(0.0220443 -0.00236737 0.0241084)
(0.019733 0.000306168 0.0255083)
(0.0159287 0.00231545 0.026426)
(0.0101681 0.00525745 0.0259746)
(0.00552149 0.00944436 0.0221845)
(0.0025857 -0.0198746 0.0244684)
(0.0106858 -0.0232813 0.0347762)
(0.0197183 -0.0210437 0.0343369)
(0.0257304 -0.0150478 0.0311086)
(0.0279878 -0.0091126 0.0295336)
(0.0277879 -0.00305035 0.0303012)
(0.0239643 0.001224 0.0325984)
(0.0171766 0.00382045 0.0334934)
(0.00804545 0.00933767 0.0302523)
(0.00508096 0.0152009 0.0197364)
(0.00764233 -0.0286164 0.0247864)
(0.0192367 -0.0305423 0.0375487)
(0.0288768 -0.025985 0.0424108)
(0.0351509 -0.0187451 0.0412985)
(0.0375745 -0.0118205 0.0399765)
(0.0366384 -0.0031934 0.0415533)
(0.0296307 0.00626631 0.0447132)
(0.0197004 0.011798 0.0450414)
(0.00656163 0.0139995 0.0400387)
(0.00697225 0.023123 0.0234597)
(0.0149463 -0.0469906 0.0234447)
(0.0325612 -0.0389432 0.0404122)
(0.041378 -0.0293569 0.0513092)
(0.0460493 -0.020527 0.0528958)
(0.0491726 -0.00925414 0.0498191)
(0.0521453 0.00456048 0.0493484)
(0.0454692 0.0125698 0.0561819)
(0.0245185 0.0100241 0.0593663)
(-0.00203845 0.00796556 0.0510016)
(-0.000549904 0.0300175 0.0263938)
(0.0156205 -0.0798939 0.0341575)
(0.0432853 -0.0596746 0.0581172)
(0.0499595 -0.0407364 0.0687791)
(0.0500443 -0.0321691 0.0679986)
(0.0578868 -0.0107673 0.0641355)
(0.0562535 0.0109105 0.0601707)
(0.0343304 0.0464613 0.0628149)
(-0.00199323 0.0733971 0.0459475)
(-0.0167779 0.0535083 0.0199073)
(-0.0130204 0.0457826 0.00545565)
(0.00172809 -0.111526 0.0346231)
(0.0324922 -0.0670652 0.0636364)
(0.0378528 -0.0291067 0.071242)
(0.0306239 -0.0242195 0.0689366)
(0.0148769 0.00820861 0.0434962)
(-0.05012 0.0544722 0.00562672)
(-0.113504 0.0597737 -0.0350533)
(-0.132729 0.0430622 -0.0444903)
(-0.12163 0.00972799 -0.0526085)
(-0.0670751 -0.000479009 -0.0552484)
(-0.00737682 -0.112779 0.061522)
(0.0440176 -0.0844548 0.0958571)
(0.0905668 -0.0456897 0.121078)
(0.164701 -0.0308128 0.134377)
(0.172918 0.0351491 0.141847)
(0.0395006 0.0891571 0.0533966)
(-0.0278247 0.11135 -0.0392183)
(-0.0925534 0.134735 -0.19337)
(-0.304173 -0.00514049 -0.170645)
(-0.411161 -0.0491378 -0.203791)
(0.0418247 -0.193336 0.11761)
(0.174803 -0.268364 0.160231)
(0.32817 -0.260279 0.102305)
(0.468212 -0.20456 -0.0328022)
(0.347704 0.0766021 0.0931041)
(0.297447 0.167183 0.115821)
(0.275993 0.170528 0.0396386)
(-0.218989 0.535928 -0.228007)
(-0.252152 0.313849 -0.16662)
(-0.339341 0.195271 -0.177682)
(0.060776 -0.241835 -0.282702)
(0.178753 -0.18969 -0.293151)
(0.259281 -0.137927 -0.356847)
(0.233093 -0.04655 -0.438397)