/*--------------------------------*- C++ -*----------------------------------*\
| =========                 |                                                 |
| \\      /  F ield         | OpenFOAM: The Open Source CFD Toolbox           |
|  \\    /   O peration     | Version:  2312                                  |
|   \\  /    A nd           | Website:  www.openfoam.com                      |
|    \\/     M anipulation  |                                                 |
\*---------------------------------------------------------------------------*/
FoamFile
{
    version     2.0;
    format      ascii;
    arch        "LSB;label=32;scalar=64";
    class       surfaceScalarField;
    location    "1.09";
    object      alphaPhi0.water;
}
// * * * * * * * * * * * * * * * * * * * * * * * * * * * * * * * * * * * * * //

dimensions      [0 3 -1 0 0 0 0];

oriented        oriented;

internalField   nonuniform List<scalar> 
22600
(
8.96659e-08
-1.92621e-07
1.02956e-07
2.1377e-07
-1.5748e-07
3.33765e-08
3.55951e-07
-1.33791e-07
-8.3903e-09
4.43639e-07
-1.29644e-07
4.19565e-08
4.63054e-07
-1.20043e-07
1.00628e-07
4.23723e-07
-8.97719e-08
1.29103e-07
3.40326e-07
-5.37707e-08
1.37167e-07
2.30494e-07
-2.4015e-08
1.33848e-07
1.15228e-07
-1.18175e-08
1.27083e-07
-1.37477e-08
1.15143e-07
8.16696e-08
-3.5279e-07
7.8499e-08
1.92888e-07
-3.2215e-07
5.34513e-08
2.98724e-07
-2.26935e-07
-1.26918e-08
3.81909e-07
-1.89177e-07
-2.36526e-08
4.07108e-07
-1.92149e-07
4.69071e-08
3.76524e-07
-1.63958e-07
1.0477e-07
3.04215e-07
-1.09253e-07
1.27791e-07
2.08498e-07
-6.14002e-08
1.33101e-07
1.06709e-07
-4.71001e-08
1.37071e-07
-6.4944e-08
1.37707e-07
2.29506e-07
-7.57087e-07
1.74791e-07
3.41695e-07
-7.58384e-07
3.24046e-07
3.37112e-07
-4.72777e-07
2.50426e-07
3.90022e-07
-3.55189e-07
1.13101e-07
4.49996e-07
-3.2153e-07
6.94071e-08
4.44222e-07
-2.71988e-07
1.13803e-07
3.57001e-07
-1.82868e-07
1.60836e-07
2.09862e-07
-1.04631e-07
1.9037e-07
8.97645e-08
-1.71564e-07
2.44561e-07
-3.27996e-07
3.04473e-07
4.4299e-07
-1.54932e-06
3.49245e-07
5.66986e-07
-1.50887e-06
6.26488e-07
4.30663e-07
-9.07119e-07
5.70664e-07
3.91658e-07
-7.27442e-07
4.11258e-07
4.60341e-07
-6.45997e-07
2.55784e-07
4.65502e-07
-4.99768e-07
2.2262e-07
3.3626e-07
-3.23016e-07
2.69389e-07
1.76769e-07
-2.89976e-07
3.44836e-07
1.12483e-07
-5.61929e-07
4.54651e-07
-7.83411e-07
5.03785e-07
4.29746e-07
-2.62333e-06
6.44265e-07
5.2088e-07
-2.4335e-06
8.335e-07
3.81725e-07
-1.55842e-06
7.90454e-07
3.40075e-07
-1.3799e-06
6.94106e-07
4.41957e-07
-1.28025e-06
5.32368e-07
4.97418e-07
-1.00436e-06
4.49133e-07
4.50423e-07
-7.24359e-07
4.48338e-07
4.09171e-07
-7.28017e-07
4.79292e-07
3.25563e-07
-9.68687e-07
4.90366e-07
-9.76748e-07
4.32906e-07
1.05058e-07
-3.40512e-06
6.76878e-07
1.61575e-07
-3.19313e-06
7.03266e-07
2.01253e-07
-2.4625e-06
8.64472e-07
3.55116e-07
-2.35962e-06
8.25921e-07
6.22497e-07
-2.21199e-06
6.64401e-07
8.26707e-07
-1.78206e-06
5.73506e-07
9.00709e-07
-1.3377e-06
5.39342e-07
8.29136e-07
-1.13705e-06
4.80605e-07
5.08341e-07
-1.03193e-06
3.84043e-07
-8.24361e-07
3.1101e-07
2.22497e-08
-3.5641e-06
1.39888e-07
2.33618e-07
-3.51291e-06
1.11724e-07
4.69544e-07
-3.22566e-06
5.29649e-07
7.08388e-07
-3.16118e-06
5.6496e-07
9.6142e-07
-2.90049e-06
4.3729e-07
1.14606e-06
-2.2897e-06
3.23913e-07
1.15214e-06
-1.61174e-06
2.68249e-07
9.10072e-07
-1.13159e-06
2.36671e-07
4.20251e-07
-7.10778e-07
1.68659e-07
-4.05794e-07
9.34626e-08
-6.12854e-08
-1.25594e-06
-1.68003e-07
2.06139e-07
-1.28225e-06
-2.74149e-07
6.10759e-07
-1.38475e-06
-8.3318e-08
8.90829e-07
-1.46903e-06
1.44876e-07
1.09922e-06
-1.46643e-06
2.90352e-07
1.25647e-06
-1.3211e-06
3.25023e-07
1.17349e-06
-9.77748e-07
2.22864e-07
7.48726e-07
-4.85705e-07
5.77807e-08
2.17609e-07
6.89304e-09
-1.49211e-07
2.99084e-07
-3.42638e-07
-5.02527e-08
-1.75917e-11
3.12513e-08
-4.75152e-08
-3.25357e-11
-1.45013e-08
-1.06302e-08
-1.19786e-10
-1.68673e-08
2.67673e-08
-7.57256e-10
1.55172e-08
6.88708e-08
-2.1357e-09
7.40207e-08
1.45554e-07
-2.6082e-09
1.54065e-07
2.93538e-07
-4.1044e-09
2.37518e-07
3.97669e-07
-1.07118e-08
2.38848e-07
2.38803e-07
-3.29395e-09
1.35523e-07
1.62675e-08
5.47335e-08
-6.56641e-12
-1.85354e-11
7.41667e-12
-1.08745e-11
-3.20096e-11
3.63217e-12
-3.41004e-11
-1.02374e-10
4.45923e-12
-7.55597e-11
-7.51722e-10
1.94784e-11
-1.24486e-10
-2.30403e-09
9.37547e-11
-4.01499e-10
-2.68885e-09
2.0208e-10
-1.58621e-09
-3.72472e-09
4.58098e-10
-9.02935e-09
-4.99133e-09
1.16954e-09
-1.99061e-08
-4.01428e-09
4.58053e-09
-5.41284e-09
1.77367e-08
-7.70538e-12
-1.65117e-11
5.5318e-12
-1.72002e-11
-2.46591e-11
7.90198e-13
-6.64171e-11
-7.32459e-11
7.26137e-12
-9.1061e-10
-2.10927e-09
1.44643e-10
-1.47994e-09
-5.39611e-09
6.93e-10
-2.96805e-09
-5.27592e-09
9.98373e-10
-5.86908e-09
-5.54977e-09
1.1668e-09
-5.11141e-09
-5.41694e-09
9.77861e-10
-1.92827e-09
-4.60144e-09
5.61948e-10
-5.90587e-09
4.00956e-10
3.95218e-13
-9.49389e-12
2.86218e-12
-8.34621e-12
-2.05776e-11
-8.16776e-12
-1.6447e-09
-6.58252e-10
1.67531e-11
-4.60538e-09
-4.73555e-09
5.67157e-10
-5.93962e-09
-5.49847e-09
1.48939e-09
-7.11661e-09
-5.44106e-09
1.39775e-09
-7.69294e-09
-5.65742e-09
7.41714e-10
-7.0924e-09
-5.80305e-09
-1.20382e-10
-5.56939e-09
-5.01156e-09
-5.92607e-10
-5.66901e-09
-8.34257e-10
2.28752e-11
1.02066e-10
6.296e-12
-1.42894e-10
3.45478e-11
-6.45511e-12
-4.16559e-09
-6.48779e-10
5.75802e-11
-5.60128e-09
-4.06188e-09
7.99756e-10
-7.13412e-09
-4.91861e-09
9.86619e-10
-7.78431e-09
-4.72596e-09
-1.21171e-11
-7.81305e-09
-4.97566e-09
-5.12863e-10
-7.13832e-09
-4.87012e-09
-1.37109e-09
-6.21632e-09
-4.16178e-09
-1.70969e-09
-5.02356e-09
-1.90675e-09
1.21346e-11
1.62091e-10
1.41276e-11
-3.74245e-10
1.1061e-10
-5.22863e-12
-4.25284e-09
-1.22117e-10
1.05919e-10
-5.73216e-09
-3.30172e-09
7.55626e-10
-7.06145e-09
-4.175e-09
6.23406e-10
-7.93181e-09
-3.53346e-09
-2.06721e-10
-5.63986e-09
-2.45219e-09
-2.8423e-10
-3.68336e-09
-6.68138e-10
-6.05117e-10
-4.09632e-09
-9.44295e-10
-1.05721e-09
-2.4328e-09
-2.69717e-09
1.29056e-11
2.52352e-10
1.39905e-11
-2.76464e-10
1.47003e-10
-7.43604e-12
-3.86076e-09
3.92673e-10
3.79645e-11
-5.25489e-09
-2.48892e-09
6.19063e-10
-6.43895e-09
-3.62788e-09
6.46462e-10
-6.96503e-09
-2.77301e-09
-1.23689e-10
-1.39517e-09
-4.10241e-10
-1.38452e-10
-2.5666e-10
-3.45537e-12
-5.96278e-11
-1.34642e-10
-3.42433e-11
-9.18227e-11
-2.65649e-10
-5.87055e-10
2.50779e-11
3.69091e-10
1.77341e-11
2.31586e-11
1.53333e-10
-1.09645e-11
-2.78272e-09
2.77877e-10
-4.13034e-11
-4.61124e-09
-1.14731e-09
4.79961e-10
-5.63405e-09
-3.26904e-09
7.54718e-10
-4.22836e-09
-2.85141e-09
7.31944e-11
-9.57433e-11
-1.32928e-11
-1.31391e-11
-7.75151e-11
1.25421e-12
-2.60707e-11
-7.91229e-11
-4.17905e-12
-3.61117e-11
-4.35421e-11
-2.97423e-10
-3.31226e-11
3.06835e-10
2.24331e-11
-9.03062e-11
1.87252e-10
-9.28618e-12
-2.61811e-10
4.45627e-11
-2.74879e-11
-3.25914e-09
-1.54855e-10
3.09108e-10
-4.92564e-09
-2.13268e-09
7.73921e-10
-4.82785e-10
-1.75877e-09
3.21175e-10
-4.36682e-11
-7.22268e-12
-4.57466e-13
-3.36435e-11
-3.02575e-12
-2.35275e-12
-3.50162e-11
1.44467e-12
-1.64921e-12
1.86507e-12
-6.5229e-11
-8.04794e-11
2.93163e-10
3.22475e-11
-2.24169e-11
6.58536e-10
-2.03897e-11
8.13412e-12
-6.18417e-12
-8.30932e-12
-1.15047e-09
3.41074e-12
1.07129e-10
-2.39669e-09
-8.27866e-10
7.87532e-10
-1.91114e-10
-1.07149e-10
2.73905e-10
-1.33346e-10
-6.96005e-11
4.23842e-12
-1.18622e-10
-2.08027e-10
2.76245e-12
-4.44877e-11
-1.55761e-10
-1.85254e-12
-1.11436e-11
-6.92226e-12
-4.60763e-11
1.07449e-10
1.81336e-11
-2.33435e-11
7.19828e-10
-2.97208e-11
-5.487e-11
5.34638e-11
-5.3034e-12
-1.89536e-10
1.63073e-11
9.1582e-11
-1.0127e-10
-1.86966e-10
2.33531e-10
-2.86344e-10
-5.49641e-11
3.11233e-11
-1.12939e-09
-1.61643e-10
3.32504e-11
-1.03959e-09
-3.55883e-10
2.63221e-11
-7.79499e-10
-3.45609e-10
-3.49443e-11
-2.63756e-10
-7.4526e-12
-2.41181e-11
1.35358e-11
1.00244e-10
-9.82327e-12
-9.18971e-12
7.60927e-10
-3.66309e-11
2.5102e-12
4.88815e-11
-9.96087e-11
1.15919e-10
1.24462e-11
-4.6206e-12
1.71835e-10
-4.05679e-11
-2.31711e-10
1.86789e-11
-1.43385e-11
-1.18018e-09
3.4855e-11
-2.41759e-10
-1.08592e-09
-2.87122e-11
-3.87832e-10
-9.53352e-10
-6.73583e-11
-3.77008e-10
-8.53961e-11
-2.74352e-10
2.95677e-08
-1.65721e-07
2.39109e-07
1.92466e-07
-3.26513e-07
1.96991e-07
4.30546e-07
-3.95159e-07
1.48689e-07
5.69017e-07
-2.81157e-07
1.84642e-07
6.01861e-07
-1.82852e-07
2.50636e-07
5.60681e-07
-1.24828e-07
2.95111e-07
4.66175e-07
-8.20764e-08
3.1375e-07
3.32718e-07
-4.76457e-08
3.1495e-07
1.74617e-07
-2.52395e-08
3.10424e-07
-2.90908e-08
2.97798e-07
8.31865e-08
-3.71266e-07
2.00857e-07
3.72598e-07
-8.85356e-07
3.22883e-07
5.88521e-07
-9.12755e-07
2.88982e-07
6.56211e-07
-5.57017e-07
1.84518e-07
6.26359e-07
-3.04713e-07
1.98619e-07
5.54361e-07
-2.13193e-07
2.65134e-07
4.51963e-07
-1.58943e-07
3.07056e-07
3.19742e-07
-1.0492e-07
3.22597e-07
1.70046e-07
-7.02639e-08
3.31792e-07
-8.66663e-08
3.35645e-07
3.87202e-07
-9.09017e-07
3.2534e-07
8.01707e-07
-1.72865e-06
7.52836e-07
8.71324e-07
-1.47813e-06
7.46259e-07
8.46807e-07
-8.82156e-07
4.62763e-07
7.8589e-07
-4.58053e-07
2.83665e-07
6.9809e-07
-3.06225e-07
2.94634e-07
5.76664e-07
-2.38127e-07
3.61445e-07
4.00166e-07
-1.43612e-07
4.05561e-07
1.92431e-07
-7.35554e-08
4.55587e-07
-1.76965e-07
5.29181e-07
6.50833e-07
-1.79881e-06
5.88206e-07
9.44362e-07
-2.57691e-06
1.18129e-06
7.96514e-07
-1.92196e-06
1.16244e-06
7.25407e-07
-1.24519e-06
8.45404e-07
7.6938e-07
-7.85156e-07
5.38914e-07
7.58546e-07
-5.26764e-07
4.53992e-07
6.10681e-07
-3.37533e-07
5.16659e-07
3.59303e-07
-1.60921e-07
6.13522e-07
1.56253e-07
-1.4845e-07
7.32595e-07
-4.11482e-07
8.43689e-07
5.90229e-07
-2.65713e-06
9.12365e-07
6.02108e-07
-3.10555e-06
1.34818e-06
4.45846e-07
-2.36047e-06
1.38471e-06
4.68734e-07
-1.78043e-06
1.20646e-06
6.37384e-07
-1.34397e-06
9.22537e-07
7.37608e-07
-9.80428e-07
8.02573e-07
6.8953e-07
-6.66478e-07
8.25361e-07
5.77875e-07
-4.47967e-07
8.77994e-07
4.36685e-07
-4.21149e-07
9.04255e-07
-5.73579e-07
9.15905e-07
2.88356e-07
-3.03345e-06
7.6498e-07
1.25147e-07
-3.21292e-06
9.78356e-07
1.73265e-07
-2.85962e-06
1.31538e-06
4.21483e-07
-2.54396e-06
1.34133e-06
7.61127e-07
-2.17343e-06
1.15426e-06
1.02651e-06
-1.72079e-06
1.04851e-06
1.15978e-06
-1.27254e-06
1.01214e-06
1.16456e-06
-9.23902e-07
9.51754e-07
8.75809e-07
-6.29655e-07
8.81302e-07
-4.52744e-07
8.50428e-07
2.86437e-07
-3.20776e-06
3.0615e-08
1.87682e-07
-3.27867e-06
2.83755e-07
3.13698e-07
-3.20122e-06
7.47952e-07
6.42877e-07
-3.13009e-06
8.24562e-07
1.03608e-06
-2.86668e-06
7.39311e-07
1.31816e-06
-2.31944e-06
6.41513e-07
1.40664e-06
-1.6768e-06
5.84368e-07
1.29125e-06
-1.18276e-06
6.11009e-07
8.62068e-07
-6.53029e-07
6.21234e-07
-2.43957e-07
5.97508e-07
2.57162e-07
-1.52605e-06
-1.5638e-07
3.0525e-07
-1.55453e-06
5.1023e-08
5.25553e-07
-1.59496e-06
1.58784e-07
8.78755e-07
-1.56563e-06
2.63457e-07
1.23483e-06
-1.48802e-06
4.52452e-07
1.5036e-06
-1.31964e-06
5.30855e-07
1.49942e-06
-9.94762e-07
3.66378e-07
1.13404e-06
-6.00091e-07
1.63813e-07
5.0807e-07
-1.14357e-07
1.81226e-09
2.00087e-07
-1.97495e-07
-3.64735e-08
-1.84261e-11
1.0065e-07
-5.16077e-08
-4.34341e-11
5.12356e-08
-1.63663e-08
-1.39416e-10
2.54586e-08
2.09228e-08
-5.05784e-10
6.90859e-08
7.64029e-08
-9.70614e-10
1.46101e-07
2.01862e-07
-1.58268e-09
2.50488e-07
4.07103e-07
-4.03286e-09
3.77246e-07
5.39625e-07
-1.863e-08
3.85366e-07
2.88802e-07
-1.3829e-08
2.447e-07
1.42204e-08
1.45165e-07
-7.75792e-12
-1.70188e-11
1.39205e-11
-1.85088e-11
-3.7631e-11
8.48613e-12
-5.09999e-11
-1.16578e-10
1.20725e-11
-8.752e-11
-5.07636e-10
3.90529e-11
-1.25575e-10
-9.56132e-10
8.95972e-11
-4.50515e-10
-1.2639e-09
1.74954e-10
-3.24846e-09
-1.45845e-09
5.57982e-10
-2.17453e-08
-1.4469e-09
2.34076e-09
-3.96414e-08
-9.18805e-10
5.54416e-09
4.80949e-11
1.87741e-08
-1.08807e-11
-1.04593e-11
9.75949e-12
-2.66575e-11
-2.80476e-11
6.15463e-12
-1.29126e-10
-1.18624e-10
2.91548e-11
-5.06657e-10
-1.04678e-09
1.00901e-10
-1.25673e-09
-2.06966e-09
1.07661e-10
-3.14468e-09
-1.78621e-09
3.00327e-10
-4.66972e-09
-1.50968e-09
3.2345e-10
-2.27931e-09
-9.73492e-10
2.03295e-11
-1.65329e-09
-5.38427e-10
4.32929e-10
-4.53338e-10
3.26636e-10
-7.86435e-12
-1.25914e-12
9.10164e-13
-2.67772e-11
-1.85271e-11
-2.23436e-12
-1.45991e-09
-3.69935e-10
6.98359e-11
-4.10701e-09
-3.8853e-09
4.61141e-10
-6.26186e-09
-2.32115e-09
6.13045e-10
-6.27437e-09
-3.73588e-10
4.37633e-11
-4.833e-09
-3.23311e-10
9.85975e-12
-2.40316e-09
-5.30231e-10
-4.6127e-11
-1.63835e-09
-5.29377e-10
-2.02387e-10
-1.03264e-09
-3.2241e-10
-1.22463e-12
5.88778e-12
9.90253e-14
-3.53067e-11
3.30127e-12
9.32645e-13
-4.17126e-09
-4.48074e-10
8.49852e-11
-5.59044e-09
-2.90794e-09
1.26341e-09
-2.05087e-09
-2.02837e-09
2.38481e-10
-5.09956e-10
-2.09185e-11
-2.1565e-10
-1.00707e-09
1.04284e-11
-1.44592e-10
-1.40909e-09
-5.71843e-13
-2.57251e-10
-1.5499e-09
-8.82761e-11
-3.27546e-10
-1.0078e-09
-3.92321e-10
3.4416e-12
1.51943e-11
1.5645e-12
-4.81636e-11
3.92428e-11
6.935e-12
-4.69953e-09
-1.63895e-11
2.05896e-10
-5.96263e-09
-2.25438e-09
1.40289e-09
-1.87046e-09
-1.13769e-09
1.5502e-10
-2.03917e-10
7.90465e-11
-3.24097e-10
-3.40536e-10
3.97373e-11
-1.69807e-10
-4.28501e-10
3.84775e-11
-2.67168e-10
-7.53392e-10
-4.0408e-11
-4.76059e-10
-1.77126e-09
-1.28123e-09
7.45842e-12
4.17294e-11
7.073e-14
-2.84008e-11
6.40376e-11
4.92903e-12
-4.4725e-09
3.84077e-10
1.93429e-10
-5.81618e-09
-1.78231e-09
1.50021e-09
-1.94366e-09
-8.37288e-10
2.82501e-10
-1.55787e-10
1.31721e-10
-2.3312e-10
-2.15815e-10
4.67371e-11
-8.99197e-11
-9.46334e-11
7.10355e-11
-1.14245e-10
-6.7112e-10
1.32688e-11
-8.19598e-10
-2.22981e-09
-3.73015e-09
2.67513e-12
1.0619e-10
7.11211e-13
-1.15469e-11
8.29442e-11
-8.42669e-13
-3.90924e-09
3.87167e-10
1.77589e-10
-5.67146e-09
-1.12531e-09
1.47943e-09
-1.76441e-09
-1.28037e-09
5.61381e-10
-1.00434e-10
7.62673e-11
-4.30567e-12
-8.03788e-11
3.57925e-11
-2.11524e-11
-3.46609e-11
3.33443e-11
-3.92892e-11
-7.01858e-10
5.01057e-11
-6.9014e-10
-5.4651e-10
-2.85991e-09
-1.82631e-12
1.25501e-10
-2.70248e-12
4.89096e-12
9.16369e-11
-1.64428e-12
-9.59795e-10
1.1665e-10
5.89355e-11
-4.13894e-09
-5.29506e-10
8.0008e-10
-2.77207e-09
-2.27815e-09
8.67928e-10
-7.19383e-11
1.73206e-10
1.31043e-10
-5.45861e-11
2.15405e-11
-3.92946e-12
-3.64099e-11
2.2194e-11
-9.0965e-12
-3.8889e-11
7.04811e-12
-1.4864e-10
-6.71022e-12
-8.74829e-11
-2.01693e-12
8.45084e-11
-2.10485e-12
5.77635e-12
2.2744e-10
-5.15888e-13
3.65249e-11
1.36568e-10
1.57041e-11
-2.5243e-09
5.41691e-12
4.28525e-10
-2.76635e-09
-1.55372e-09
1.19091e-09
-3.67177e-11
4.05619e-11
4.36131e-10
-2.72127e-11
1.22703e-11
4.35492e-12
-1.4836e-11
1.63719e-11
-8.39535e-13
-8.04065e-12
1.19147e-11
-1.26233e-11
6.25543e-13
-1.65749e-11
1.44972e-11
5.8027e-11
2.72838e-12
-2.24674e-12
6.27744e-10
1.70121e-12
-4.69813e-11
5.46454e-10
2.0332e-11
-7.88994e-10
1.60789e-11
2.46233e-10
-5.63918e-10
-4.55307e-10
1.00075e-09
-1.05419e-10
-1.47583e-12
1.87888e-10
-9.35777e-11
1.13943e-11
8.6858e-12
-1.11968e-10
8.17996e-11
1.65515e-14
-8.68153e-12
4.74351e-11
-1.48801e-11
3.02815e-12
-1.60232e-11
2.71991e-11
6.66865e-13
5.56832e-11
-2.8018e-12
1.4578e-11
7.1064e-10
-2.1271e-10
7.99554e-11
7.41689e-10
-4.47955e-10
2.34366e-10
4.61902e-11
-1.63399e-10
5.25511e-10
-5.94738e-11
-2.55633e-11
1.92294e-11
-1.48429e-12
-3.31977e-10
8.11269e-12
8.23623e-12
-4.00192e-10
-3.80788e-11
2.70748e-11
-1.35648e-10
-1.86955e-11
2.75655e-11
-1.97012e-11
3.59556e-11
-2.8316e-08
-1.39688e-07
4.07113e-07
1.44903e-07
-4.55268e-07
4.7904e-07
4.60755e-07
-6.56829e-07
4.89667e-07
6.18476e-07
-4.42883e-07
4.69804e-07
6.26038e-07
-2.24418e-07
4.67492e-07
5.61788e-07
-1.16778e-07
4.76138e-07
4.56841e-07
-6.40087e-08
4.82706e-07
3.19204e-07
-3.27816e-08
4.85369e-07
1.59468e-07
-1.81238e-08
4.88284e-07
-3.30375e-08
4.84572e-07
-7.91129e-09
-2.69012e-07
3.38092e-07
3.38578e-07
-1.0836e-06
6.04729e-07
6.99367e-07
-1.41011e-06
6.81475e-07
7.98424e-07
-9.13504e-07
5.56081e-07
7.06598e-07
-4.02422e-07
4.68449e-07
5.78623e-07
-1.9059e-07
4.66921e-07
4.52492e-07
-1.18654e-07
4.87832e-07
3.15963e-07
-7.59553e-08
5.02299e-07
1.65312e-07
-5.47238e-08
5.19043e-07
-7.83406e-08
5.29305e-07
2.4736e-07
-5.8075e-07
3.89719e-07
7.70114e-07
-1.772e-06
9.18475e-07
1.036e-06
-1.97753e-06
1.04778e-06
1.08808e-06
-1.31586e-06
8.13055e-07
9.54507e-07
-5.82363e-07
5.9718e-07
7.65572e-07
-2.48672e-07
5.41652e-07
5.99402e-07
-1.58122e-07
5.67083e-07
4.25202e-07
-9.05546e-08
5.9436e-07
2.18988e-07
-1.40662e-08
6.21143e-07
-2.94599e-08
6.60109e-07
4.844e-07
-1.03612e-06
5.59173e-07
9.44355e-07
-2.23447e-06
1.18462e-06
1.01007e-06
-2.19214e-06
1.31225e-06
1.02329e-06
-1.51954e-06
1.03592e-06
1.01251e-06
-8.08258e-07
7.75585e-07
9.04077e-07
-3.79785e-07
6.93539e-07
7.1451e-07
-1.74195e-07
7.223e-07
4.5762e-07
1.59236e-09
7.78265e-07
2.05037e-07
1.25467e-07
8.45645e-07
5.84878e-08
9.17099e-07
5.7404e-07
-1.43169e-06
7.33897e-07
7.72031e-07
-2.37555e-06
1.2904e-06
7.29976e-07
-2.23877e-06
1.47323e-06
7.77052e-07
-1.6603e-06
1.30013e-06
8.89323e-07
-1.07899e-06
1.081e-06
9.33724e-07
-6.47095e-07
1.02548e-06
8.41058e-07
-3.26823e-07
1.07065e-06
6.19444e-07
-1.11629e-08
1.11236e-06
3.27618e-07
2.22145e-07
1.0994e-06
1.32337e-07
1.11247e-06
5.30548e-07
-1.88976e-06
6.92534e-07
5.05214e-07
-2.49605e-06
1.11728e-06
4.97976e-07
-2.37586e-06
1.45383e-06
6.95768e-07
-1.99663e-06
1.47989e-06
9.65123e-07
-1.58649e-06
1.39243e-06
1.15251e-06
-1.15634e-06
1.37037e-06
1.16206e-06
-6.63469e-07
1.33924e-06
9.87854e-07
-1.64978e-07
1.27978e-06
6.30915e-07
2.64682e-07
1.1957e-06
3.40529e-07
1.14761e-06
4.67833e-07
-2.56209e-06
2.36371e-07
3.90808e-07
-2.83181e-06
6.97214e-07
3.9233e-07
-2.64245e-06
1.01362e-06
6.39469e-07
-2.44116e-06
1.02314e-06
9.70568e-07
-2.18218e-06
1.00473e-06
1.21389e-06
-1.76062e-06
1.00287e-06
1.26996e-06
-1.10829e-06
9.73218e-07
1.11274e-06
-3.98092e-07
1.00135e-06
7.42654e-07
1.76376e-07
1.07963e-06
4.51043e-07
1.08284e-06
2.76124e-07
-1.79278e-06
2.87671e-07
2.49912e-07
-1.7862e-06
6.72179e-07
4.25285e-07
-1.82426e-06
6.29903e-07
7.28173e-07
-1.71838e-06
5.65388e-07
9.70669e-07
-1.50454e-06
7.58187e-07
1.03944e-06
-1.20609e-06
8.61865e-07
8.82868e-07
-8.18295e-07
7.01245e-07
6.14664e-07
-4.34362e-07
5.98079e-07
2.54672e-07
-5.04223e-09
5.33335e-07
2.0311e-07
4.36399e-07
-1.14079e-08
-1.87769e-11
3.18449e-07
-4.10159e-08
-2.85181e-11
2.91304e-07
4.14261e-08
-6.07429e-11
2.69697e-07
1.53129e-07
-1.37798e-10
3.46752e-07
2.50392e-07
-2.03191e-10
4.75311e-07
3.84551e-07
-3.25171e-10
5.87403e-07
5.98459e-07
-1.18972e-09
7.17134e-07
6.67268e-07
-1.55362e-08
7.52871e-07
3.05282e-07
-3.5215e-09
5.63967e-07
-1.41058e-08
4.18998e-07
-4.85151e-12
-1.59158e-11
1.62422e-11
-9.88965e-12
-2.58095e-11
1.0969e-11
-1.67087e-11
-5.29696e-11
1.08149e-11
-2.08445e-11
-1.17045e-10
1.9994e-11
-1.94604e-11
-1.49086e-10
2.93293e-11
-4.1671e-11
-1.81722e-10
4.61025e-11
-8.2256e-10
-4.48297e-11
1.78804e-10
-1.59719e-08
-8.18824e-11
1.91206e-09
-2.23673e-08
-1.89673e-09
9.99941e-09
1.76025e-09
2.85234e-09
-6.82629e-12
-1.01098e-11
1.0933e-11
-1.5165e-11
-1.66217e-11
5.23019e-12
-5.83304e-11
-2.00555e-11
1.18083e-11
-1.05291e-10
-1.91774e-10
2.69328e-11
-1.91392e-10
-1.85274e-10
-2.98947e-12
-5.72791e-10
-1.08018e-10
-3.46776e-11
-6.51023e-10
5.01338e-11
3.18935e-11
-7.96714e-10
1.26587e-10
7.60349e-12
-2.92435e-09
1.41302e-10
2.7719e-10
4.07426e-10
1.47355e-10
-6.31803e-12
-2.38333e-12
-7.10857e-13
3.08359e-12
-1.36585e-11
-1.5234e-11
-1.24331e-10
-8.21149e-11
5.56776e-12
-7.01626e-10
-2.04294e-10
1.62097e-11
-8.73625e-10
-4.15386e-10
-1.20204e-10
-6.54126e-10
-1.89825e-11
-8.67567e-12
-4.15333e-10
6.73844e-11
-8.46734e-12
-4.2653e-10
1.30992e-10
-6.59169e-11
-4.93226e-10
1.6385e-10
-1.89649e-10
1.44285e-10
-3.15221e-10
-2.61047e-12
2.98585e-12
-2.82761e-12
-3.32179e-12
-5.3033e-12
-4.11125e-12
-6.84721e-11
-6.35815e-11
6.39123e-12
-6.65024e-10
-6.27495e-11
-5.15237e-11
-1.21534e-09
-1.86785e-11
7.58246e-13
-5.73726e-10
2.58272e-10
-5.86451e-11
-4.50966e-10
9.70205e-11
-2.43023e-10
-4.21611e-10
1.07782e-10
-2.02604e-10
-3.74897e-10
1.06592e-10
-3.30198e-10
9.58388e-12
-3.27516e-10
5.86436e-13
6.41223e-12
-2.5169e-12
2.16781e-13
6.21307e-12
1.93743e-13
-1.57732e-10
4.98793e-11
1.22669e-11
-8.32204e-10
2.67054e-10
-7.87362e-11
-1.35993e-09
5.4967e-10
1.46493e-11
-5.97747e-10
5.71552e-10
-7.88096e-11
-3.98936e-10
1.51073e-10
-2.92941e-10
-4.56304e-10
1.57663e-10
-1.49078e-10
-6.72172e-10
1.11091e-10
-2.53816e-10
-2.16603e-09
-5.57446e-10
1.43659e-12
1.00412e-11
3.34376e-13
1.7153e-12
3.4213e-11
-1.02276e-11
-1.82621e-10
1.53202e-10
1.72542e-11
-1.23114e-09
6.27631e-10
-8.44909e-11
-1.63754e-09
6.57314e-10
2.23534e-10
-4.081e-10
1.10792e-09
3.85033e-11
-2.72541e-10
1.45447e-10
-2.30877e-10
-6.16752e-11
2.03111e-10
-3.32693e-10
-5.61592e-09
2.09118e-10
-1.77061e-09
-2.79903e-09
-4.02238e-09
4.42106e-12
1.72289e-11
1.80409e-12
1.33798e-12
3.34215e-11
-1.30834e-11
-1.20932e-10
2.22527e-10
1.40374e-11
-2.07173e-09
7.04176e-10
8.80589e-11
-1.77339e-09
1.40914e-10
1.8074e-09
-2.50481e-10
1.8307e-09
3.71149e-10
-1.79695e-10
7.69669e-11
-2.79556e-11
1.60251e-10
1.01506e-10
-3.43149e-10
-1.03296e-09
1.36531e-10
-1.24609e-09
-7.92213e-10
-3.35356e-09
1.13097e-11
2.63251e-11
-3.8222e-12
2.2637e-11
1.25524e-11
-4.5747e-12
-3.98002e-11
1.56805e-10
3.93158e-11
-2.05778e-09
5.83644e-10
2.79062e-10
-2.21125e-09
-5.26381e-10
2.11619e-09
-5.50964e-10
1.01024e-09
8.7728e-10
-7.75043e-11
7.04841e-11
4.76461e-12
-1.51477e-10
5.86098e-11
-5.6841e-11
1.2103e-11
-2.02002e-11
-3.21731e-10
-4.55971e-12
-1.15482e-10
1.39237e-11
2.34642e-11
-3.99375e-12
1.76328e-11
8.233e-12
-1.34191e-12
1.18219e-11
7.99414e-11
3.33332e-11
-8.49711e-10
1.88097e-10
2.24521e-10
-2.28844e-09
-9.69031e-10
7.95341e-10
-6.38543e-10
3.60838e-10
8.21115e-10
-2.28042e-11
1.1636e-10
5.44021e-11
-6.25012e-12
2.66567e-11
-2.08006e-11
1.63913e-12
6.89643e-12
-2.22803e-11
4.12819e-12
-2.69814e-11
1.49049e-11
1.69054e-11
-4.56171e-12
1.47746e-11
1.30114e-11
-1.73987e-12
1.98492e-12
1.26747e-10
1.4075e-11
-4.10383e-10
2.48293e-10
9.96479e-11
-9.20375e-10
-5.81031e-10
7.00203e-10
-8.30608e-11
-3.52199e-12
6.48756e-10
-1.49921e-11
1.41892e-11
4.60738e-11
-7.00295e-13
1.3043e-11
-1.66311e-11
3.41869e-12
1.21341e-11
-2.3327e-11
9.12973e-12
-2.51511e-11
7.15276e-12
2.31893e-13
8.48515e-12
1.33995e-11
-1.60814e-12
1.59989e-11
-8.25331e-13
1.28546e-11
2.90207e-10
-2.63087e-10
2.33661e-10
3.7024e-10
-1.91767e-10
6.09778e-10
-1.16053e-10
-1.24406e-11
4.93311e-11
5.2297e-12
-6.41326e-12
1.22514e-11
5.76669e-12
-4.74791e-13
-4.65719e-11
1.27367e-11
3.8757e-12
-1.9492e-11
1.01565e-11
-2.9607e-11
1.20643e-11
2.02402e-08
-1.25793e-07
5.12666e-07
1.6769e-07
-3.16345e-07
6.47935e-07
4.33188e-07
-4.57537e-07
6.81705e-07
5.79057e-07
-3.16812e-07
6.40748e-07
5.9622e-07
-1.57721e-07
6.08051e-07
5.38042e-07
-6.06506e-08
5.94966e-07
4.35492e-07
-7.73324e-09
5.9299e-07
3.01245e-07
2.45051e-08
5.9511e-07
1.44643e-07
3.83885e-08
6.06497e-07
3.09068e-08
6.09907e-07
-3.96796e-08
-1.97631e-07
4.49609e-07
1.90489e-07
-6.78296e-07
7.36512e-07
5.4392e-07
-9.77635e-07
8.48143e-07
6.84452e-07
-6.45986e-07
7.44721e-07
6.44057e-07
-2.87539e-07
6.38662e-07
5.47076e-07
-1.03718e-07
6.0697e-07
4.31852e-07
-1.77559e-08
6.13079e-07
3.06572e-07
2.10434e-08
6.3104e-07
1.60004e-07
4.22507e-08
6.61749e-07
3.51296e-08
6.84932e-07
7.7825e-08
-3.63423e-07
4.77686e-07
4.68892e-07
-1.09574e-06
9.44856e-07
8.45815e-07
-1.44804e-06
1.14127e-06
9.77546e-07
-9.72187e-07
1.00753e-06
8.811e-07
-4.10626e-07
8.16712e-07
7.14126e-07
-1.28261e-07
7.33169e-07
5.53936e-07
-1.8258e-08
7.27775e-07
3.84842e-07
4.78759e-08
7.36622e-07
1.96403e-07
1.04749e-07
7.47084e-07
1.23912e-07
7.56622e-07
3.00214e-07
-6.2557e-07
5.21106e-07
7.5025e-07
-1.38041e-06
1.0196e-06
1.0212e-06
-1.6578e-06
1.2515e-06
1.13696e-06
-1.20897e-06
1.15704e-06
1.08424e-06
-5.84075e-07
1.00175e-06
9.06528e-07
-1.68137e-07
9.11126e-07
6.7872e-07
3.63711e-08
8.95479e-07
4.37508e-07
1.47711e-07
9.19642e-07
1.97599e-07
2.69566e-07
9.20737e-07
3.26716e-07
8.87889e-07
4.86363e-07
-9.04555e-07
5.2652e-07
8.73081e-07
-1.49397e-06
1.01761e-06
1.03175e-06
-1.64516e-06
1.30257e-06
1.12513e-06
-1.28136e-06
1.27931e-06
1.15828e-06
-7.60165e-07
1.22394e-06
1.09513e-06
-3.14409e-07
1.23491e-06
9.09092e-07
2.22424e-08
1.27082e-06
5.75491e-07
3.22413e-07
1.27126e-06
2.19988e-07
5.33628e-07
1.19084e-06
5.77941e-07
1.07377e-06
5.94018e-07
-1.43435e-06
6.28326e-07
8.35996e-07
-1.78079e-06
1.15937e-06
9.4412e-07
-1.75004e-06
1.44907e-06
1.12389e-06
-1.48384e-06
1.5028e-06
1.3017e-06
-1.09046e-06
1.54492e-06
1.33286e-06
-5.5422e-07
1.57903e-06
1.18254e-06
-5.70618e-08
1.56886e-06
8.00959e-07
4.76351e-07
1.50742e-06
3.61394e-07
7.75979e-07
1.39292e-06
8.36547e-07
1.20863e-06
4.69259e-07
-2.22406e-06
5.57446e-07
5.628e-07
-2.27295e-06
1.09603e-06
6.57984e-07
-2.05675e-06
1.22549e-06
8.80285e-07
-1.87783e-06
1.1952e-06
1.14838e-06
-1.62023e-06
1.26665e-06
1.27431e-06
-9.62658e-07
1.28547e-06
1.13259e-06
-2.24048e-07
1.28193e-06
8.62757e-07
3.54745e-07
1.39279e-06
5.06193e-07
7.68931e-07
1.44324e-06
9.46761e-07
1.36159e-06
1.34754e-07
-1.84693e-06
8.59936e-07
1.96886e-07
-1.80799e-06
1.23487e-06
3.7694e-07
-1.77348e-06
1.00413e-06
5.29374e-07
-1.62011e-06
8.30479e-07
5.86229e-07
-1.3592e-06
1.01599e-06
5.68518e-07
-9.21542e-07
1.17301e-06
4.93034e-07
-4.85069e-07
1.15843e-06
3.03726e-07
-1.99112e-08
1.16145e-06
5.84979e-08
2.26715e-07
1.21083e-06
3.71583e-07
1.1766e-06
-6.68481e-09
-1.71415e-11
5.9691e-07
-8.94156e-09
-3.15571e-11
6.6241e-07
1.37753e-07
-3.64331e-11
7.2484e-07
3.16666e-07
-4.46734e-11
8.35412e-07
4.33494e-07
-5.93911e-11
9.85035e-07
5.80003e-07
-7.23537e-11
1.19892e-06
7.26891e-07
-1.58704e-10
1.36589e-06
5.86111e-07
-1.7301e-09
1.20863e-06
2.12758e-07
-1.28004e-09
9.3404e-07
-1.38642e-08
7.83326e-07
-3.01033e-12
-1.50976e-11
1.72523e-11
-6.57453e-12
-2.86656e-11
1.1973e-11
-7.95195e-12
-3.56744e-11
1.16307e-11
-8.57924e-12
-3.58265e-11
1.34045e-11
-4.65165e-12
-4.8319e-11
1.5273e-11
4.14191e-12
-5.99577e-11
2.01336e-11
1.26375e-11
-4.08212e-11
4.48092e-11
5.0794e-11
-5.75673e-11
1.86187e-10
1.33127e-09
-1.88327e-09
2.31285e-08
9.7821e-10
1.42212e-09
-5.72961e-12
-8.38877e-12
1.0179e-11
-8.99368e-12
-2.20396e-11
2.06603e-12
-1.64087e-11
-2.78249e-11
1.1331e-11
-2.77189e-11
-2.09789e-11
2.28443e-11
-9.01044e-11
-5.74443e-11
1.62428e-11
-7.68664e-11
-2.05146e-10
3.90805e-11
-7.77574e-11
-1.18175e-11
4.16877e-11
-4.18786e-10
8.66362e-11
1.20333e-10
-2.33169e-09
1.13209e-10
-8.58094e-11
5.51626e-10
-7.89052e-10
-5.6728e-12
-2.4683e-13
-3.16609e-12
-3.21007e-11
-1.03152e-11
-3.82641e-11
-1.65991e-11
-2.46619e-11
-3.85443e-12
-3.9186e-11
-7.23024e-12
1.23223e-11
-5.72662e-10
-1.51175e-11
2.41541e-11
-7.44702e-10
5.43607e-12
2.19624e-10
-6.09139e-10
4.22071e-10
-2.98101e-11
-6.16635e-10
1.78342e-10
-1.03881e-10
-6.52501e-10
2.0779e-10
-2.64773e-10
1.84248e-10
-4.02826e-10
-1.51442e-12
4.20726e-12
-5.83542e-12
5.43702e-12
-1.07403e-11
-1.54972e-11
1.99598e-11
-1.63657e-11
-3.5178e-11
-1.56259e-12
8.67085e-12
4.59708e-12
-9.96002e-11
2.98047e-11
1.98258e-12
-5.85158e-10
1.21363e-10
5.08293e-11
-6.57914e-10
6.32996e-10
-2.52148e-10
-5.78371e-10
2.1306e-10
-3.25189e-10
-4.09151e-10
8.8646e-11
-4.21775e-10
-9.14077e-11
-2.66472e-10
2.72384e-12
5.8877e-12
-6.98932e-12
1.05285e-10
6.01773e-12
-3.49738e-11
7.08015e-11
6.88608e-12
-3.31172e-11
3.89037e-11
1.05822e-10
-6.63893e-13
-1.36057e-11
6.77703e-11
1.24747e-11
-3.70296e-10
1.77642e-10
3.85944e-11
-7.89833e-10
5.85252e-10
-2.06278e-10
-9.33102e-10
6.28168e-10
-7.73728e-10
-2.3517e-09
-5.3939e-11
-1.38762e-09
-2.33862e-09
-1.21656e-09
2.13933e-11
4.85298e-12
-2.69493e-12
1.35821e-10
1.56929e-11
-9.61292e-12
8.48494e-11
5.24299e-11
-3.4281e-11
5.65895e-11
1.72139e-10
-3.57899e-12
2.54918e-11
1.92426e-10
-1.41137e-11
-6.04541e-11
2.59165e-10
2.47375e-11
-9.41586e-11
2.47253e-10
-1.3954e-11
2.28462e-10
6.51466e-10
-5.39138e-10
-3.9514e-09
1.23438e-10
-1.61706e-09
-1.45366e-09
-3.44114e-09
4.7515e-11
2.58655e-11
-2.57727e-11
2.2586e-11
-5.76889e-14
-2.77692e-11
3.82852e-11
1.7649e-11
1.8822e-12
4.05653e-11
1.60784e-10
-1.05826e-11
1.30174e-10
6.15406e-10
-6.12396e-11
4.06577e-11
7.41067e-10
6.61537e-11
-7.14856e-11
2.97466e-10
2.93906e-11
-2.70684e-10
3.46759e-10
-1.69901e-10
-3.18452e-10
6.99794e-12
-2.99746e-10
-2.25694e-10
-7.42078e-10
2.05471e-11
5.55686e-12
-1.84665e-11
6.30014e-12
3.54975e-12
-5.53316e-12
1.11005e-11
1.57214e-11
2.38779e-13
-8.17613e-13
1.44444e-10
-2.46165e-11
1.53349e-10
5.58898e-10
3.21685e-11
3.03243e-10
9.72808e-10
3.37766e-11
7.06871e-12
6.66988e-10
6.64325e-11
5.0647e-11
1.62368e-10
-6.28319e-12
2.42763e-11
4.99405e-11
-5.26605e-11
-3.44895e-12
-7.58169e-11
3.35167e-12
2.3902e-12
-3.85237e-12
3.46353e-12
4.32674e-12
-1.49228e-12
5.34843e-12
1.198e-11
2.79062e-12
-7.27712e-12
9.77142e-11
8.3053e-12
9.69896e-11
3.03724e-10
8.94283e-12
3.29927e-10
3.3892e-10
1.25182e-10
6.6651e-11
7.01099e-10
2.09436e-10
6.36715e-12
2.81567e-10
2.87963e-12
3.06384e-11
1.57448e-11
-1.8104e-11
8.04661e-12
-5.11141e-11
2.53332e-12
4.37874e-12
-7.16002e-12
2.15096e-12
7.42375e-12
-1.95239e-12
2.59571e-12
1.564e-11
1.54803e-12
-7.11292e-12
8.53093e-11
8.42635e-12
8.92301e-12
2.48079e-10
1.01346e-11
9.76212e-11
9.05989e-11
2.43093e-10
5.13921e-11
2.47352e-10
1.72657e-10
2.84176e-11
2.57195e-10
-3.21275e-11
1.71583e-11
2.3156e-11
-1.77973e-11
1.78267e-11
-6.15679e-11
2.6192e-12
-5.19492e-12
8.95927e-12
3.03665e-12
-3.12359e-12
1.03568e-11
2.36766e-12
3.36734e-12
2.93835e-11
-1.5256e-11
1.38979e-11
3.82688e-10
-1.64557e-11
9.34148e-11
7.91439e-11
-1.49201e-11
2.32424e-10
7.99149e-12
2.3515e-11
1.97239e-11
-3.62995e-13
4.76915e-11
-8.74013e-11
3.94828e-11
1.13187e-11
6.87781e-12
3.35317e-11
-8.5258e-11
3.7267e-11
8.02203e-08
-1.03559e-07
5.36005e-07
2.24058e-07
-1.81076e-07
6.85173e-07
4.24577e-07
-2.20951e-07
7.02138e-07
5.45294e-07
-1.52096e-07
6.72127e-07
5.68567e-07
-6.10245e-08
6.45802e-07
5.19131e-07
1.21349e-08
6.32268e-07
4.21617e-07
6.26264e-08
6.27878e-07
2.92049e-07
9.64524e-08
6.28225e-07
1.34106e-07
1.24459e-07
6.39981e-07
1.45327e-07
6.28645e-07
2.83243e-08
-1.69977e-07
4.87702e-07
1.79944e-07
-3.20168e-07