/*--------------------------------*- C++ -*----------------------------------*\
| =========                 |                                                 |
| \\      /  F ield         | OpenFOAM: The Open Source CFD Toolbox           |
|  \\    /   O peration     | Version:  2312                                  |
|   \\  /    A nd           | Website:  www.openfoam.com                      |
|    \\/     M anipulation  |                                                 |
\*---------------------------------------------------------------------------*/
FoamFile
{
    version     2.0;
    format      ascii;
    arch        "LSB;label=32;scalar=64";
    class       volScalarField;
    location    "0.4";
    object      p;
}
// * * * * * * * * * * * * * * * * * * * * * * * * * * * * * * * * * * * * * //

dimensions      [1 -1 -2 0 0 0 0];

internalField   nonuniform List<scalar> 
8000
(
370.841
369.626
367.365
364.226
360.463
356.419
352.488
349.071
346.593
345.306
322.186
320.866
318.393
314.932
310.749
306.211
301.768
297.88
295.036
293.589
273.953
272.42
269.514
265.387
260.304
254.687
249.115
244.203
240.569
238.7
226.405
224.583
220.987
215.771
209.181
201.708
194.105
187.28
182.037
179.386
179.404
177.138
172.675
165.972
157.161
146.805
136.098
126.675
119.477
116.017
134.155
131.372
125.728
116.914
104.8
90.071
74.1567
59.7047
51.2978
47.2492
91.5845
88.2182
81.0762
69.453
53.3141
34.2262
17.0984
8.15862
6.67873
5.94002
54.8821
51.2467
43.2577
30.0684
14.9835
4.40251
1.03122
0.498675
0.675239
1.1304
26.0993
23.4245
17.0934
8.38207
1.9853
0.189064
0.00356879
0.053943
0.13677
0.390794
1.90929
1.26094
0.142104
-0.397188
-0.463765
-0.417725
-0.339777
-0.244038
-0.159474
-0.0363937
-0.659918
-0.63349
-0.594924
-0.532438
-0.524428
-0.496056
-0.433616
-0.364359
-0.292614
-0.234916
-0.608383
-0.607657
-0.600251
-0.579037
-0.558664
-0.508719
-0.467557
-0.423137
-0.381223
-0.361772
-0.646398
-0.638733
-0.623173
-0.596552
-0.57249
-0.542484
-0.519284
-0.489781
-0.463399
-0.45808
-0.649012
-0.64037
-0.624314
-0.605972
-0.590234
-0.582244
-0.569613
-0.550945
-0.533807
-0.527831
-0.649327
-0.646028
-0.638582
-0.630611
-0.62345
-0.62008
-0.614856
-0.604292
-0.595369
-0.587619
-0.677212
-0.676472
-0.673877
-0.670844
-0.667671
-0.665551
-0.662992
-0.658014
-0.653902
-0.645361
-0.720639
-0.720544
-0.719947
-0.719357
-0.718557
-0.719042
-0.719112
-0.714196
-0.711353
-0.703931
-0.768651
-0.76908
-0.769426
-0.770479
-0.773052
-0.778103
-0.782837
-0.773173
-0.76956
-0.762817
-0.818248
-0.818981
-0.820054
-0.822487
-0.826912
-0.837368
-0.84467
-0.830815
-0.824505
-0.819409
-0.86839
-0.869209
-0.870514
-0.872864
-0.877478
-0.888418
-0.892611
-0.87962
-0.87333
-0.867645
371.447
370.265
368.064
365.002
361.334
357.39
353.557
350.228
347.82
346.566
322.792
321.509
319.12
315.747
311.678
307.268
302.947
299.163
296.4
294.995
274.547
273.024
270.246
266.278
261.379
255.955
250.57
245.816
242.299
240.506
226.93
225.303
221.78
216.769
210.473
203.325
196.043
189.487
184.382
181.915
179.744
177.536
173.337
167.028
158.746
148.942
138.757
129.727
122.509
119.219
133.671
131.062
125.813
117.76
106.682
92.8267
77.7165
65.0128
56.3168
50.9769
88.7044
85.6896
79.4511
69.5297
55.1909
37.4324
21.605
11.8255
7.94753
6.5168
45.6476
42.9106
36.868
27.3833
15.5246
5.92152
1.71242
0.484728
0.38186
0.800615
8.89009
8.00109
6.09355
3.32309
0.999769
-0.145726
-0.207603
-0.121749
-0.0561603
0.165204
-0.193302
-0.281435
-0.36893
-0.436996
-0.498262
-0.53793
-0.471459
-0.368127
-0.292883
-0.165644
-0.520445
-0.524232
-0.526951
-0.528291
-0.571092
-0.573878
-0.502264
-0.426852
-0.366097
-0.305914
-0.610257
-0.613171
-0.608436
-0.601747
-0.603813
-0.558167
-0.494308
-0.447416
-0.407643
-0.393014
-0.686204
-0.680623
-0.661388
-0.634237
-0.607831
-0.565283
-0.53014
-0.499072
-0.466859
-0.468821
-0.684646
-0.674258
-0.652749
-0.624928
-0.602489
-0.586183
-0.575378
-0.5587
-0.533972
-0.532742
-0.666055
-0.659495
-0.646162
-0.631358
-0.617751
-0.614193
-0.61596
-0.611005
-0.598056
-0.592171
-0.68131
-0.678148
-0.672366
-0.66589
-0.659916
-0.659419
-0.662831
-0.661816
-0.655291
-0.649635
-0.721274
-0.720312
-0.718283
-0.71614
-0.71508
-0.718313
-0.722527
-0.718199
-0.712315
-0.707382
-0.76816
-0.768396
-0.768388
-0.769663
-0.773746
-0.780956
-0.786895
-0.778266
-0.77106
-0.768872
-0.817832
-0.818935
-0.820016
-0.822568
-0.828554
-0.839618
-0.847727
-0.837165
-0.831257
-0.827225
-0.867966
-0.869131
-0.870465
-0.873191
-0.880148
-0.892277
-0.897839
-0.8877
-0.883761
-0.876594
372.681
371.555
369.449
366.524
363.025
359.267
355.621
352.46
350.182
348.998
324.06
322.847
320.566
317.37
313.51
309.335
305.256
301.694
299.106
297.782
275.883
274.497
271.857
268.109
263.521
258.454
253.427
248.996
245.729
244.054
228.215
226.612
223.432
218.848
213.084
206.558
199.911
193.939
189.346
187.021
181.001
179.036
175.167
169.446
162.063
153.321
144.166
135.966
129.611
126.229
134.379
131.987
127.319
120.246
110.825
99.0009
85.971
74.12
64.3912
59.1504
87.6549
85.327
80.0476
71.7453
60.0691
45.1259
29.8135
18.4825
11.0006
7.88443
41.6998
39.5592
34.6646
27.2467
17.945
8.99564
3.3116
1.18125
0.473304
0.551787
4.41048
4.07343
3.33024
2.20448
0.945805
-0.133475
-0.328996
-0.188469
-0.108357
0.0550034
-0.271548
-0.307792
-0.35366
-0.40505
-0.476035
-0.567458
-0.531287
-0.44271
-0.378421
-0.254442
-0.434905
-0.452882
-0.480861
-0.50387
-0.545308
-0.56536
-0.524741
-0.471389
-0.432135
-0.373662
-0.561579
-0.572402
-0.577821
-0.575561
-0.573773
-0.557306
-0.511286
-0.465982
-0.43137
-0.42303
-0.639845
-0.640008
-0.631197
-0.61484
-0.597974
-0.573655
-0.540557
-0.505273
-0.471543
-0.476495
-0.661413
-0.654957
-0.640724
-0.620577
-0.604305
-0.592926
-0.579339
-0.557977
-0.533218
-0.537256
-0.665447
-0.659052
-0.646378
-0.633607
-0.62094
-0.616507
-0.614207
-0.601771
-0.594632
-0.592783
-0.685833
-0.682419
-0.676628
-0.669288
-0.662618
-0.662147
-0.660055
-0.649028
-0.650918
-0.650679
-0.723784
-0.723286
-0.721317
-0.719467
-0.71927
-0.721423
-0.718871
-0.705517
-0.711357
-0.713326
-0.769153
-0.770179
-0.770409
-0.771633
-0.774404
-0.779986
-0.779969
-0.770108
-0.779208
-0.781681
-0.818014
-0.81979
-0.820867
-0.823413
-0.828442
-0.836287
-0.838124
-0.832882
-0.842749
-0.845365
-0.867404
-0.869509
-0.870762
-0.873679
-0.880113
-0.890067
-0.893064
-0.888065
-0.894654
-0.891747
374.503
373.45
371.469
368.714
365.425
361.905
358.504
355.568
353.46
352.363
325.968
324.841
322.703
319.71
316.113
312.236
308.469
305.195
302.827
301.611
277.952
276.685
274.242
270.776
266.557
261.932
257.358
253.341
250.396
248.884
230.466
228.988
226.1
221.933
216.765
210.973
205.078
199.78
195.756
193.72
183.46
181.696
178.214
173.116
166.671
159.16
151.209
143.992
138.336
135.469
136.807
134.747
130.617
124.385
116.467
106.867
96.1107
85.8082
77.0069
73.0501
89.3151
87.3168
82.9278
76.1062
66.7256
54.8487
41.2557
29.3078
20.2853
16.1542
41.3016
39.4467
35.7714
30.0887
22.6587
13.9994
7.03188
3.15555
1.51213
0.979873
4.60169
4.36854
3.67718
2.36387
1.15568
0.208673
-0.328223
-0.312994
-0.183064
0.00652055
-0.34529
-0.360843
-0.377763
-0.403754
-0.44256
-0.508333
-0.543268
-0.508358
-0.467029
-0.34656
-0.445037
-0.455496
-0.469391
-0.486329
-0.511073
-0.530545
-0.521272
-0.500102
-0.510831
-0.441797
-0.531032
-0.539393
-0.547813
-0.555207
-0.55799
-0.552215
-0.528182
-0.49992
-0.497965
-0.465726
-0.593658
-0.598306
-0.598835
-0.596071
-0.589972
-0.577413
-0.55497
-0.532832
-0.521888
-0.50694
-0.628306
-0.62903
-0.62451
-0.61601
-0.60711
-0.598066
-0.584948
-0.573269
-0.566258
-0.557919
-0.653604
-0.652926
-0.647444
-0.639628
-0.631532
-0.622924
-0.615121
-0.609291
-0.609873
-0.606899
-0.684881
-0.68479
-0.681518
-0.676959
-0.672631
-0.667937
-0.660412
-0.657408
-0.660135
-0.657575
-0.724236
-0.72582
-0.724807
-0.723559
-0.722229
-0.720642
-0.716412
-0.715523
-0.719209
-0.719598
-0.769289
-0.772031
-0.772495
-0.773326
-0.773659
-0.77395
-0.774337
-0.777313
-0.782428
-0.781754
-0.817227
-0.820555
-0.821637
-0.823883
-0.826647
-0.830455
-0.832396
-0.837618
-0.846026
-0.844157
-0.865639
-0.869733
-0.870879
-0.873712
-0.878364
-0.88615
-0.890149
-0.894347
-0.900458
-0.894297
376.709
375.752
373.915
371.338
368.264
364.993
361.855
359.166
357.244
356.246
328.321
327.297
325.318
322.53
319.192
315.623
312.184
309.222
307.097
306.006
280.63
279.45
277.189
273.992
270.134
265.954
261.865
258.303
255.722
254.401
233.621
232.187
229.513
225.713
221.07
215.974
210.884
206.347
202.972
201.262
187.234
185.454
182.235
177.649
171.973
165.635
159.042
153.026
148.387
146.051
140.999
138.896
135.119
129.72
122.779
115.092
106.764
98.7191
91.9783
88.8867
93.6475
91.5472
87.5323
81.6457
74.037
64.9551
54.6337
44.4772
35.914
32.694
44.4066
42.3997
39.0538
34.0585
27.7553
20.8332
13.6818
8.38769
4.93151
3.97317
5.54709
5.84112
5.38547
3.63707
1.67798
0.71472
0.197431
-0.184383
-0.160993
0.121391
-0.359394
-0.381142
-0.384192
-0.397394
-0.417479
-0.449533
-0.484594
-0.513808
-0.500405
-0.403081
-0.450836
-0.458657
-0.461808
-0.46974
-0.481663
-0.496714
-0.510382
-0.515385
-0.551613
-0.491784
-0.520718
-0.52366
-0.524627
-0.528026
-0.533997
-0.538049
-0.537676
-0.536025
-0.568047
-0.509312
-0.577771
-0.578084
-0.576068
-0.575254
-0.574965
-0.572251
-0.568677
-0.571974
-0.589547
-0.541411
-0.612491
-0.615132
-0.612119
-0.60882
-0.604885
-0.599118
-0.596445
-0.602677
-0.608145
-0.581516
-0.642426
-0.647307
-0.645434
-0.64241
-0.637873
-0.630995
-0.627731
-0.628891
-0.628225
-0.621065
-0.678217
-0.683738
-0.6834
-0.681969
-0.678688
-0.673913
-0.671642
-0.670069
-0.667024
-0.66386
-0.720144
-0.726437
-0.726838
-0.727064
-0.725418
-0.722856
-0.722956
-0.723067
-0.719781
-0.719539
-0.766877
-0.773145
-0.773708
-0.775206
-0.775284
-0.77483
-0.77603
-0.779379
-0.77845
-0.776334
-0.814578
-0.82109
-0.822109
-0.824582
-0.826521
-0.829538
-0.83115
-0.835112
-0.836598
-0.832529
-0.861978
-0.869693
-0.870861
-0.873779
-0.876774
-0.881572
-0.88591
-0.888747
-0.889624
-0.88398
379.133
378.255
376.566
374.154
371.275
368.231
365.34
362.886
361.15
360.255
330.96
330.001
328.175
325.563
322.449
319.155
316.021
313.357
311.471
310.51
283.687
282.534
280.425
277.439
273.88
270.088
266.444
263.327
261.111
259.991
237.31
235.837
233.317
229.772
225.544
221.015
216.626
212.833
210.107
208.739
191.829
189.887
186.808
182.538
177.411
171.903
166.485
161.723
158.207
156.466
146.495
144.112
140.4
135.379
129.373
122.714
116.272
110.45
105.929
103.789
100.588
97.8526
93.5405
87.7944
81.0277
73.9001
66.4261
59.5505
54.0047
51.783
51.4107
48.6047
44.6876
39.372
33.1565
27.4239
22.0317
17.124
14.358
13.6655
7.12785
7.38817
7.86032
6.17657
3.36031
1.59709
1.0429
0.773842
0.69531
1.35146
-0.164128
-0.374363
-0.398748
-0.397583
-0.404335
-0.413839
-0.426717
-0.448076
-0.480452
-0.460641
-0.466031
-0.479375
-0.469745
-0.469903
-0.471841
-0.476445
-0.489061
-0.507033
-0.542224
-0.510759
-0.541525
-0.532608
-0.524002
-0.523401
-0.524204
-0.52808
-0.54079
-0.554891
-0.595833
-0.55563
-0.601122
-0.587783
-0.575682
-0.570943
-0.569226
-0.570677
-0.581891
-0.601439
-0.635518
-0.580017
-0.62398
-0.619913
-0.612764
-0.608953
-0.605861
-0.604316
-0.612219
-0.629104
-0.641098
-0.6032
-0.640949
-0.648023
-0.646955
-0.646073
-0.643112
-0.639655
-0.641553
-0.644545
-0.643576
-0.632251
-0.668171
-0.683059
-0.684766
-0.686181
-0.684415
-0.681171
-0.679837
-0.675925
-0.670285
-0.669978
-0.7106
-0.726612
-0.728207
-0.730414
-0.729799
-0.72783
-0.726306
-0.723141
-0.718793
-0.720162
-0.759429
-0.774674
-0.77458
-0.777335
-0.777752
-0.777339
-0.776788
-0.775935
-0.773509
-0.773306
-0.805458
-0.82156
-0.822784
-0.825614
-0.82693
-0.828058
-0.828623
-0.829122
-0.827654
-0.826403
-0.852397
-0.869562
-0.871186
-0.874145
-0.875953
-0.877919
-0.879601
-0.880459
-0.879303
-0.877153
381.474
380.691
379.11
376.856
374.138
371.284
368.6
366.352
364.787
363.987
333.549
332.623
330.945
328.488
325.55
322.474
319.592
317.188
315.514
314.67
286.641
285.5
283.591
280.774
277.433
273.934
270.642
267.894
265.996
265.067
240.893
239.417
237.129
233.741
229.768
225.647
221.776
218.587
216.413
215.358
196.411
194.407
191.543
187.364
182.539
177.564
172.915
169.111
166.552
165.39
152.734
150.048
146.31
141.106
135.38
129.623
124.148
119.831
117.117
116.091
109.955
106.096
100.95
94.4783
87.7339
81.454
75.8245
71.2855
68.7568
68.4759
65.4794
59.5027
52.7806
45.806
39.1515
33.6437
29.397
26.3246
26.4484
29.3112
18.8024
13.6624
10.7553
9.0805
5.96964
3.40055
2.09889
1.92669
2.87579
7.45153
1.18816
-0.0677797
-0.372909
-0.404433
-0.398482
-0.39475
-0.391207
-0.384034
-0.415994
-0.390099
-0.349981
-0.487314
-0.476065
-0.472441
-0.468349
-0.464665
-0.469653
-0.480195
-0.507441
-0.513033
-0.53554
-0.547366
-0.53312
-0.525161
-0.522483
-0.52282
-0.539382
-0.56063
-0.593397
-0.575712
-0.626379
-0.603776
-0.589184
-0.576853
-0.571469
-0.57258
-0.592031
-0.618263
-0.659179
-0.606588
-0.613948
-0.6228
-0.620543
-0.615333
-0.610884
-0.610974
-0.625814
-0.648875
-0.667861
-0.622047
-0.612615
-0.641728
-0.64967
-0.651828
-0.649373
-0.647559
-0.652978
-0.658487
-0.658986
-0.641007
-0.653523
-0.67885
-0.685976
-0.691142
-0.69051
-0.687931
-0.686987
-0.682608
-0.675792
-0.674395
-0.710033
-0.728594
-0.731666
-0.734744
-0.734673
-0.732665
-0.730174
-0.725606
-0.720451
-0.721845
-0.763104
-0.78086
-0.779272
-0.780741
-0.780884
-0.779968
-0.778214
-0.775321
-0.772064
-0.772842
-0.807853
-0.829495
-0.826248
-0.827737
-0.828318
-0.828326
-0.827552
-0.826038
-0.82421
-0.824084
-0.857412
-0.878103
-0.874342
-0.875561
-0.876316
-0.876799
-0.876689
-0.876009
-0.874926
-0.874626
383.365
382.796
381.3
379.152
376.575
373.867
371.343
369.253
367.815
367.091
335.611
334.884
333.361
330.994
328.198
325.277
322.578
320.364
318.859
318.106
288.949
288.028
286.37
283.66
280.478
277.162
274.114
271.637
269.962
269.189
243.627
242.468
240.521
237.238
233.403
229.497
225.966
223.182
221.436
220.601
199.797
198.318
195.905
191.721
186.942
182.231
178.059
174.872
172.936
172.199
157.5
155.558
152.108
146.5
140.569
135.141
130.427
126.923
125.284
125.095
116.758
113.974
108.755
101.07
93.6796
87.5581
82.7844
79.7304
78.9472
80.4162
76.6262
72.1879
63.5579
52.8882
44.7927
38.9941
35.3394
33.7543
36.1002
42.8264
35.9666
30.1719
18.6374
10.7447
7.83963
5.32647
3.51466
3.02084
5.54852
16.2153
6.10353
2.43578
-0.0536887
-0.370476
-0.400545
-0.386383
-0.374832
-0.347826
-0.354859
0.0241277
-0.133931
-0.460619
-0.476062
-0.478088
-0.468336
-0.458639
-0.458175
-0.460382
-0.49904
-0.562474
-0.0652218
-0.570899
-0.559303
-0.530191
-0.519689
-0.520317
-0.537292
-0.56135
-0.592491
-0.589776
-0.721316
-0.665614
-0.618141
-0.587393
-0.57379
-0.575529
-0.599988
-0.629009
-0.674898
-0.631302
-0.655399
-0.655718
-0.636936
-0.624885
-0.616297
-0.617583
-0.636658
-0.663749
-0.690512
-0.640622
-0.62426
-0.663775
-0.655718
-0.661033
-0.656333
-0.654743
-0.662669
-0.671562
-0.674294
-0.649624
-0.658415
-0.708117
-0.689613
-0.699467
-0.698034
-0.694359
-0.693538
-0.690055
-0.683338
-0.679291
-0.733884
-0.752027
-0.735828
-0.741218
-0.74058
-0.737396
-0.734572
-0.728873
-0.723943
-0.724679
-0.810276
-0.803172
-0.786199
-0.785573
-0.784725
-0.783056
-0.780576
-0.777094
-0.773312
-0.774192
-0.855685
-0.850524
-0.831726
-0.831068
-0.830362
-0.829603
-0.828154
-0.825894
-0.82369
-0.823848
-0.903769
-0.894638
-0.878869
-0.877927
-0.877358
-0.877033
-0.876273
-0.875034
-0.873873
-0.873734
385.003
384.424
382.757
380.782
378.296
375.703
373.297
371.319
369.969
369.299
337.048
336.533
334.908
332.756
330.09
327.272
324.7
322.615
321.21
320.532
290.105
289.921
288.218
285.737
282.711
279.474
276.565
274.267
272.734
272.069
244.397
244.829
242.866
239.842
236.116
232.266
228.893
226.369
224.915
224.188
199.734
200.92
199.122
195.084
190.291
185.597
181.622
178.788
177.202
176.721
156.506
158.755
156.553
150.824
144.613
139.137
134.684
131.671
130.62
130.874
114.422
118.063
115.199
106.798
98.425
91.9381
87.3942
85.0576
85.2547
87.7017
73.1274
78.125
73.8288
60.2469
49.5755
43.039
39.465
38.8986
42.3398
51.0373
37.7845
39.6632
31.2478
13.7701
8.04628
6.41023
4.54952
3.83862
7.56999
23.018
18.7799
10.3246
2.47992
-0.0926558
-0.387171
-0.390316
-0.368694
-0.318554
-0.283916
1.1442
16.4422
0.463443
-0.473353
-0.493846
-0.481681
-0.4604
-0.453362
-0.445094
-0.501835
-0.595388
10.5037
-0.155975
-0.605534
-0.554011
-0.531663
-0.523206
-0.537102
-0.560104
-0.591279
-0.589419
0.462168
-0.684823
-0.676439
-0.615241
-0.590715
-0.581114
-0.606042
-0.641452
-0.679159
-0.644757
-0.755493
-0.698159
-0.677109
-0.657359
-0.633677
-0.624243
-0.64335
-0.674739
-0.704092
-0.65484
-0.555748
-0.699453
-0.688754
-0.693764
-0.676325
-0.661852
-0.668967
-0.680733
-0.684358
-0.657525
-0.458869
-0.75078
-0.724546
-0.72695
-0.717637
-0.703126
-0.700408
-0.698212
-0.691718
-0.685111
-0.410686
-0.772957
-0.763902
-0.758439
-0.755222
-0.746034
-0.740419
-0.734293
-0.728993
-0.728506
-0.535867
-0.823682
-0.806142
-0.793941
-0.791976
-0.787612
-0.783782
-0.77883
-0.77545
-0.776033
-0.637192
-0.85592
-0.845077
-0.834209
-0.83381
-0.831665
-0.829584
-0.826507
-0.824009
-0.824464
-0.605081
-0.894286
-0.890001
-0.879001
-0.879182
-0.877883
-0.876747
-0.875125
-0.873813
-0.873746
386.25
385.617
383.797
381.825
379.248
376.662
374.312
372.389
371.083
370.44
339.691
337.481
336.284
334.012
331.181
328.319
325.797
323.777
322.43
321.783
292.977
290.926
289.893
287.313
284.058
280.721
277.83
275.617
274.183
273.543
246.977
245.889
244.913
241.829
237.842
233.812
230.406
227.972
226.571
225.978
202.501
202.055
201.618
197.683
192.529
187.533
183.465
180.762
179.372
178.966
160.82
159.943
159.73
154.04
147.257
141.411
136.869
134.035
133.255
133.685
119.978
119.849
119.339
110.536
101.213
94.2206
89.5399
87.5207
88.2625
91.1111
79.0214
81.415
80.2887
64.7798
52.1937
45.3135
41.6717
41.3894
45.2116
54.5364
44.2213
44.3863
38.4929
17.121
7.95109
6.74181
5.13866
4.39433
8.70442
25.7575
30.3969
16.5681
5.52248
1.00603
-0.269256
-0.384042
-0.359744
-0.29303
-0.189613
1.80387
31.2063
10.0961
-0.803266
-0.378883
-0.469875
-0.45554
-0.449664
-0.439874
-0.507915
-0.626546
30.2576
11.6392
-0.236155
-0.535357
-0.516384
-0.519079
-0.533227
-0.559331
-0.595581
-0.589535
18.5703
3.42404
-0.591928
-0.622216
-0.580111
-0.579208
-0.600744
-0.645248
-0.68329
-0.64631
11.4125
-0.48693
-0.729186
-0.672349
-0.62911
-0.621659
-0.637262
-0.674623
-0.705746
-0.658687
11.8043
-0.405478
-0.689302
-0.703808
-0.675566
-0.659652
-0.664612
-0.679657
-0.684091
-0.660197
12.6895
-0.256056
-0.707335
-0.734003
-0.730808
-0.704458
-0.700243
-0.699712
-0.693746
-0.68753
10.5907
-0.499562
-0.759642
-0.759366
-0.77073
-0.752558
-0.744081
-0.738375
-0.732578
-0.730859
4.92042
-0.842267
-0.80689
-0.794765
-0.799174
-0.792418
-0.787344
-0.782142
-0.778001
-0.777524
2.20065
-0.845039
-0.835706
-0.833446
-0.83444
-0.83313
-0.831208
-0.828023
-0.825435
-0.825506
2.828
-0.872415
-0.876429
-0.877809
-0.879252
-0.878664
-0.877585
-0.87589
-0.874501
-0.874339
386.095
384.92
383.519
381.679
379.177
376.617
374.284
372.364
371.057
370.415
339.872
337.412
335.928
333.897
331.097
328.273
325.772
323.754
322.407
321.759
293.214
291.011
289.693
287.228
283.998
280.678
277.808
275.6
274.164
273.524
247.516
246
244.983
241.854
237.864
233.815
230.404
227.965
226.555
225.961
202.964
202.222
201.8
197.906
192.711
187.62
183.504
180.78
179.371
178.958
160.919
159.918
160.213
154.708
147.722
141.629
136.975
134.096
133.285
133.697
119.377
119.626
120.093
111.918
102.121
94.6279
89.7008
87.6025
88.3112
91.1336
76.7117
81.346
81.0158
66.7051
53.3238
46.0169
42.1713
41.7371
45.2735
54.4543
45.9435
45.6428
39.8251
18.4023
8.1601
6.65122
5.13459
4.48959
8.80055
25.692
39.4875
20.3131
6.09139
0.959019
-0.248988
-0.382138
-0.364386
-0.298473
-0.182416
1.83207
37.9102
13.5072
-0.517099
-0.399671
-0.476455
-0.459727
-0.454245
-0.44683
-0.514492
-0.624436
29.4362
10.9551
-0.371528
-0.522517
-0.51221
-0.52114
-0.535463
-0.564055
-0.601583
-0.590947
16.5993
3.46601
-0.444844
-0.568201
-0.562368
-0.577199
-0.598119
-0.643739
-0.684546
-0.64527
3.74021
-0.739972
-0.539587
-0.637535
-0.606379
-0.615377
-0.634032
-0.668938
-0.698631
-0.655551
3.39286
-0.675525
-0.665871
-0.573797
-0.655696
-0.653754
-0.660235
-0.673901
-0.678209
-0.658756
4.8823
-0.684601
-0.701098
-0.670409
-0.681766
-0.70421
-0.697434
-0.696782
-0.692147
-0.687543
5.67148
-0.725189
-0.745929
-0.763736
-0.755222
-0.755421
-0.743882
-0.739391
-0.733485
-0.731448
8.21443
-0.712843
-0.772485
-0.782996
-0.805206
-0.801054
-0.790701
-0.784151
-0.779464
-0.778394
13.2075
-0.716214
-0.812787
-0.812007
-0.831593
-0.833777
-0.832311
-0.829224
-0.826678
-0.826386
14.0864
-0.755425
-0.873963
-0.863721
-0.876624
-0.878188
-0.878138
-0.876661
-0.875352
-0.875118
385.02
384.644
382.74
380.743
378.229
375.641
373.233
371.25
369.896
369.225
337.267
336.583
334.964
332.736
330.034
327.218
324.643
322.551
321.141
320.461
290.547
289.984
288.27
285.729
282.679
279.44
276.524
274.219
272.679
272.011
245.156
244.961
242.991
239.883
236.157
232.289
228.884
226.34
224.873
224.139
201.073
201.65
199.565
195.333
190.497
185.723
181.674
178.802
177.182
176.694
158.49
160.086
157.398
151.423
145.045
139.376
134.816
131.762
130.661
130.893
117.071
119.993
116.47
107.755
99.0649
92.2231
87.4126
85.0148
85.2538
87.7313
76.7029
80.6162
75.2563
61.2748
50.2911
43.5214
39.8367
39.1466
42.2688
50.6969
41.0902
41.3846
32.2608
14.266
8.45721
6.47699
4.57502
3.97812
7.72638
22.7946
19.2637
10.8732
2.4951
-0.125839
-0.390637
-0.393552
-0.376505
-0.333106
-0.283806
1.19296
15.883
0.949977
-0.48736
-0.495928
-0.483665
-0.465059
-0.462095
-0.459756
-0.517193
-0.596692
11.8752
0.0115209
-0.587625
-0.54043
-0.527881
-0.52581
-0.542769
-0.5713
-0.604624
-0.592473
1.89139
-0.606973
-0.643482
-0.594915
-0.584532
-0.581137
-0.602332
-0.640142
-0.680368
-0.637177
-0.380228
-0.712346
-0.65544
-0.643003
-0.625411
-0.62219
-0.635069
-0.661144
-0.685206
-0.645701
-0.0958725
-0.681727
-0.674243
-0.685195
-0.66105
-0.659137
-0.661477
-0.667697
-0.670115
-0.65456
0.0710365
-0.696793
-0.709728
-0.718428
-0.69945
-0.700566
-0.697554
-0.69419
-0.689576
-0.687087
-0.364556
-0.756417
-0.762267
-0.757164
-0.752272
-0.747284
-0.742073
-0.737012
-0.73247
-0.731572
-0.459866
-0.812449
-0.802737
-0.795242
-0.798288
-0.793403
-0.788081
-0.782935
-0.779344
-0.778893
-0.250404
-0.858524
-0.843616
-0.833449
-0.835294
-0.833951
-0.832423
-0.829707
-0.827388
-0.827147
0.0198357
-0.87961
-0.882716
-0.87847
-0.880614
-0.879773
-0.878936
-0.877461
-0.876202
-0.875947
383.381
382.664
381.237
379.068
376.481
373.762
371.229
369.13
367.685
366.957
335.728
334.893
333.325
330.947
328.125
325.188
322.473
320.247
318.732
317.977
289.251
288.23
286.462
283.682
280.448
277.103
274.032
271.542
269.862
269.083
244.277
242.996
240.811
237.363
233.445
229.488
225.913
223.104
221.348
220.512
200.921
199.218
196.482
192.033
187.122
182.319
178.072
174.833
172.894
172.16
158.851
156.892
152.94
147.016
140.917
135.346
130.52
126.972
125.307
125.131
118.112
115.823
109.819
101.737
94.1086
87.7103
82.6769
79.5824
78.9072
80.4524
78.5715
74.6945
64.8431
53.9519
45.6644
39.4898
35.576
33.825
35.9281
42.4016
38.049
31.8162
18.8292
11.3125
8.36329
5.51428
3.58913
3.14502
5.67845
16.0164
5.70196
2.34253
-0.0318314
-0.382147
-0.413553
-0.395573
-0.387576
-0.36686
-0.374132
0.0148854
-0.347054
-0.438145
-0.497139
-0.485376
-0.478044
-0.467696
-0.47182
-0.478545
-0.520408
-0.573695
-0.302304
-0.522234
-0.550234
-0.527201
-0.525219
-0.527901
-0.547602
-0.57329
-0.604227
-0.592196
-0.656085
-0.626763
-0.598786
-0.580498
-0.57425
-0.578972
-0.600059
-0.630129
-0.664086
-0.621088
-0.63104
-0.671787
-0.632916
-0.624934
-0.617047
-0.618412
-0.630191
-0.647321
-0.662316
-0.629393
-0.635631
-0.679778
-0.661377
-0.668679
-0.661246
-0.657004
-0.65785
-0.659527
-0.659027
-0.648624
-0.667815
-0.717051
-0.704117
-0.711274
-0.709244
-0.699896
-0.694795
-0.689589
-0.685636
-0.685881
-0.574352
-0.765043
-0.751512
-0.752491
-0.75182
-0.745486
-0.739381
-0.733988
-0.730345
-0.731208
-0.723581
-0.798518
-0.791883
-0.792972
-0.793066
-0.789697
-0.785924
-0.781624
-0.778487
-0.779052
-0.855861
-0.842647
-0.832663
-0.834076
-0.835162
-0.834135
-0.83252
-0.830122
-0.828044
-0.827849
-0.92036
-0.865593
-0.883038
-0.881142
-0.881434
-0.880702
-0.879764
-0.878386
-0.87719
-0.876929
381.47
380.636
379.023
376.751
374.01
371.133
368.432
366.169
364.591
363.784
333.584
332.598
330.887
328.405
325.439
322.337
319.428
317.006
315.323
314.476
286.748
285.552
283.598
280.737
277.357
273.823
270.499
267.732
265.829
264.897
241.148
239.617
237.242
233.779
229.749
225.575
221.654
218.441
216.27
215.219
196.931
194.851
191.843
187.547
182.63
177.573
172.847
169.009
166.474
165.338
153.382
150.723
146.76
141.413
135.603
129.745
124.125
119.743
117.113
116.156
110.347
106.944
101.446
94.7657
87.8851
81.4044
75.5826
71.0391
68.7475
68.606
65.4021
60.6313
53.4662
46.4719
39.8766
34.0898
29.4499
26.1984
26.3487
29.013
18.617
13.8381
10.693
9.23575
6.28323
3.58095
2.19904
1.99761
2.95774
7.43848
0.967988
-0.0711287
-0.392539
-0.418163
-0.408414
-0.406103
-0.408586
-0.408004
-0.442797
-0.410228
-0.40446
-0.504505
-0.494272
-0.481562
-0.477278
-0.474291
-0.486058
-0.502954
-0.53177
-0.526889
-0.562936
-0.556658
-0.537356
-0.528693
-0.527126
-0.530159
-0.549827
-0.568912
-0.603281
-0.576039
-0.606907
-0.603448
-0.586724
-0.577224
-0.573341
-0.576554
-0.593194
-0.613909
-0.636811
-0.59678
-0.611267
-0.632908
-0.623644
-0.617908
-0.613389
-0.613611
-0.620778
-0.62991
-0.635931
-0.613229
-0.639015
-0.660284
-0.657168
-0.657903
-0.653981
-0.651602
-0.650492
-0.648872
-0.6462
-0.642862
-0.680688
-0.701387
-0.696236
-0.700176
-0.697191
-0.693815
-0.689625
-0.684032
-0.680806
-0.683775
-0.732018
-0.756817
-0.740545
-0.744768
-0.74288
-0.739879
-0.735819
-0.731013
-0.728164
-0.730518
-0.7496
-0.801701
-0.788782
-0.790122
-0.789173
-0.787093
-0.784528
-0.78126
-0.778244
-0.77946
-0.79304
-0.847527
-0.832883
-0.835538
-0.835163
-0.834261
-0.833064
-0.831205
-0.829646
-0.82929
-0.906205
-0.894004
-0.88338
-0.8839
-0.882533
-0.881804
-0.88108
-0.879951
-0.878815
-0.878492
379.003
378.109
376.414
373.987
371.084
368.012
365.096
362.625
360.877
359.975
330.853
329.879
328.042
325.411
322.271
318.944
315.78
313.095
311.198
310.233
283.619
282.456
280.334
277.32
273.727
269.896
266.215
263.076
260.852
259.731
237.309
235.837
233.285
229.697
225.424
220.845
216.405
212.592
209.876
208.518
191.938
190.023
186.886
182.558
177.368
171.785
166.291
161.514
158.06
156.372
146.714
144.39
140.578
135.491
129.436
122.681
116.05
110.209
105.892
103.863
100.855
98.2445
93.6909
87.7333
80.8106
73.5614
66.0333
59.2287
54.18
52.2015
51.8368
49.3396
44.9998
39.6631
33.6284
27.6117
21.7211
16.9505
14.5262
13.9011
7.89507
7.73651
7.74345
6.1224
3.52103
1.73607
1.09531
0.762754
0.739256
1.46199
-0.285359
-0.39726
-0.420692
-0.41312
-0.417651
-0.428475
-0.449606
-0.489311
-0.519094
-0.483043
-0.506017
-0.495908
-0.48452
-0.477891
-0.479869
-0.48595
-0.506038
-0.538162
-0.57453
-0.523582
-0.543896
-0.536171
-0.530248
-0.526389
-0.527471
-0.533166
-0.548589
-0.569845
-0.598623
-0.550757
-0.588614
-0.584715
-0.577936
-0.573697
-0.571362
-0.572901
-0.582717
-0.598085
-0.609159
-0.569411
-0.617434
-0.621371
-0.61771
-0.613655
-0.609821
-0.607584
-0.609171
-0.613594
-0.61518
-0.60007
-0.649182
-0.65648
-0.655138
-0.653402
-0.649842
-0.645866
-0.641803
-0.637271
-0.636858
-0.638566
-0.688325
-0.696191
-0.695309
-0.695483
-0.692946
-0.689048
-0.684226
-0.678788
-0.67678
-0.681634
-0.737443
-0.743805
-0.740382
-0.740727
-0.739171
-0.736389
-0.733043
-0.729784
-0.727133
-0.729927
-0.78484
-0.794697
-0.78836
-0.787881
-0.786862
-0.785458
-0.784091
-0.782641
-0.780848
-0.781068
-0.821714
-0.840178
-0.835351
-0.835358
-0.834884
-0.834659
-0.834749
-0.834413
-0.833296
-0.831997
-0.8843
-0.892226
-0.884196
-0.883676
-0.883038
-0.88311
-0.883603
-0.883714
-0.882809
-0.88106
376.502
375.549
373.704
371.108
368.004
364.703
361.535
358.818
356.878
355.871
328.116
327.099
325.115
322.306
318.936
315.334
311.86
308.868
306.724
305.627
280.434
279.266
277.003
273.784
269.89
265.669
261.539
257.947
255.348
254.022
233.445
232.032
229.349
225.523
220.84
215.69
210.549
205.983
202.61
200.907
187.084
185.352
182.125
177.509
171.781
165.364
158.707
152.675
148.097
145.799
140.904
138.862
135.073
129.655
122.676
114.798
106.361
98.3111
91.8127
88.8036
93.6749
91.5653
87.3651
81.2282
73.4119
64.3829
54.1668
44.2241
36.0983
32.9675
44.5525
42.7063
39.1218
34.1195
27.8251
20.6919
13.5356
8.48202
5.158
3.98843
6.24619
6.03471
5.22834
3.59852
1.82409
0.859589
0.251395
-0.200213
-0.189202
0.146482
-0.393068
-0.395491
-0.398399
-0.409703
-0.42872
-0.459899
-0.51007
-0.551938
-0.541022
-0.417401
-0.469076
-0.469415
-0.472114
-0.475081
-0.484309
-0.500014
-0.519728
-0.53688
-0.562634
-0.489969
-0.534715
-0.532589
-0.530869
-0.52857
-0.531053
-0.535727
-0.539912
-0.547763
-0.546392
-0.496342
-0.587182
-0.585111
-0.581094
-0.575608
-0.571346
-0.568082
-0.567977
-0.575242
-0.569615
-0.535839
-0.622135
-0.622298
-0.618875
-0.613144
-0.606889
-0.600643
-0.596288
-0.598144
-0.599457
-0.587632
-0.653574
-0.656412
-0.6544
-0.65072
-0.645458
-0.639436
-0.63389
-0.631154
-0.63243
-0.632746
-0.689167
-0.694213
-0.693297
-0.691806
-0.688486
-0.683931
-0.679614
-0.677505
-0.676328
-0.679118
-0.73284
-0.738236
-0.737669
-0.7373
-0.735727
-0.733083
-0.730918
-0.731132
-0.72967
-0.730978
-0.782994
-0.78708
-0.785745
-0.785398
-0.785063
-0.784463
-0.784823
-0.786891
-0.787837
-0.786534
-0.836062
-0.83588
-0.834329
-0.834118
-0.83466
-0.835992
-0.838993
-0.841263
-0.84247
-0.839573
-0.883397
-0.886072
-0.883272
-0.882954
-0.883502
-0.885626
-0.88964
-0.892177
-0.892796
-0.888352
374.227
373.182
371.195
368.42
365.098
361.542
358.103
355.129
352.993
351.881
325.69
324.575
322.431
319.417
315.784
311.869
308.058
304.74
302.341
301.112
277.673
276.421
273.975
270.488
266.228
261.557
256.93
252.859
249.875
248.347
230.189
228.732
225.838
221.646
216.43
210.58
204.622
199.26
195.191
193.134
183.186
181.455
177.971
172.846
166.341
158.772
150.754
143.454
137.736
134.838