/*--------------------------------*- C++ -*----------------------------------*\
| =========                 |                                                 |
| \\      /  F ield         | OpenFOAM: The Open Source CFD Toolbox           |
|  \\    /   O peration     | Version:  2312                                  |
|   \\  /    A nd           | Website:  www.openfoam.com                      |
|    \\/     M anipulation  |                                                 |
\*---------------------------------------------------------------------------*/
FoamFile
{
    version     2.0;
    format      ascii;
    arch        "LSB;label=32;scalar=64";
    class       volScalarField;
    location    "0.4";
    object      p_rgh;
}
// * * * * * * * * * * * * * * * * * * * * * * * * * * * * * * * * * * * * * //

dimensions      [1 -1 -2 0 0 0 0];

internalField   nonuniform List<scalar> 
8000
(
395.366
394.151
391.89
388.751
384.988
380.944
377.013
373.596
371.118
369.831
395.761
394.441
391.968
388.507
384.324
379.786
375.343
371.455
368.611
367.164
396.578
395.045
392.139
388.012
382.929
377.312
371.74
366.828
363.194
361.325
398.08
396.258
392.662
387.446
380.856
373.383
365.78
358.955
353.712
351.061
400.129
397.863
393.4
386.697
377.886
367.53
356.823
347.4
340.202
336.742
403.93
401.147
395.503
386.689
374.575
359.846
343.932
325.812
294.25
278.821
410.409
407.043
399.901
388.278
364.829
307.181
203.604
117.211
84.701
68.0909
419.815
411.933
389.162
324.957
202.222
76.5157
14.3413
1.29806
1.65029
2.29125
333.525
312.967
253.042
143.125
43.7027
2.4693
0.566268
0.597612
0.73488
1.01489
61.3759
47.4587
20.6176
1.47697
0.0382274
0.100626
0.160138
0.280438
0.374077
0.497327
0.0106221
0.000361408
0.0124996
0.00622284
-0.00635541
0.028409
0.0981968
0.193439
0.263864
0.321924
-0.00669394
-0.0192952
-0.0274844
-0.0128248
0.00780376
0.0583727
0.111881
0.22912
0.269886
0.277426
-0.0216276
-0.0165196
-0.00286996
0.0197786
0.0426075
0.0728557
0.0975195
0.191225
0.249087
0.238849
0.0178372
0.0254146
0.0410312
0.0585554
0.0739657
0.0823048
0.0945763
0.117477
0.195898
0.230406
0.0662458
0.0686415
0.0755313
0.0843137
0.0974485
0.110624
0.116011
0.11051
0.151156
0.27674
0.089827
0.0906018
0.089286
0.0951542
0.099659
0.111214
0.123109
0.106979
0.147067
0.312349
0.0909617
0.0926313
0.091276
0.0909114
0.0908948
0.0903785
0.116898
0.100863
0.142985
0.315815
0.0897237
0.0893015
0.0889759
0.0878961
0.0853227
0.0802733
0.0831843
0.0986069
0.1605
0.318595
0.0891772
0.0884445
0.0873708
0.0849376
0.0805133
0.0700569
0.0766454
0.204186
0.253431
0.239401
0.088085
0.0872665
0.0859613
0.0836107
0.0789969
0.0680596
0.0815334
0.193581
0.182397
0.0921676
395.972
394.79
392.589
389.527
385.859
381.915
378.082
374.753
372.345
371.091
396.367
395.084
392.695
389.322
385.253
380.843
376.522
372.738
369.975
368.57
397.172
395.649
392.871
388.903
384.004
378.58
373.195
368.441
364.924
363.131
398.605
396.978
393.455
388.444
382.148
375
367.718
361.162
356.057
353.59
400.469
398.261
394.062
387.753
379.471
369.667
359.482
350.452
343.234
339.944
403.446
400.837
395.588
387.535
376.457
362.602
347.492
327.807
299.436
291.76
407.529
404.515
398.276
388.355
366.718
308.317
221.516
148.866
104.126
79.9804
403.285
393.699
368.672
315.294
208.906
94.2035
28.662
5.03634
1.26422
1.655
158.518
144.966
112.759
65.71
25.3191
4.13157
0.295821
0.385864
0.488612
0.702285
0.618371
0.351171
0.102162
0.02915
-0.0285273
-0.0673108
0.0129289
0.120246
0.202789
0.329206
-0.00108718
-0.00840649
-0.0118742
-0.0131723
-0.0549631
-0.0566954
0.0187816
0.095942
0.155058
0.21499
-0.0327692
-0.0391087
-0.0422166
-0.0370649
-0.0375956
0.00783056
0.0725578
0.123264
0.15827
0.172622
-0.0285277
-0.0393545
-0.0348469
-0.0183543
0.00721144
0.0495565
0.0844769
0.119233
0.147631
0.145323
0.0246018
0.0165226
0.0241991
0.0444056
0.0617168
0.0780136
0.088648
0.105983
0.133616
0.130488
0.068553
0.0682023
0.0703742
0.0861289
0.100816
0.115813
0.111989
0.10367
0.130789
0.120208
0.0849961
0.0874106
0.0899032
0.0978659
0.105174
0.115562
0.123285
0.10486
0.119794
0.165707
0.088076
0.0897809
0.0916859
0.0934192
0.0943231
0.091198
0.102829
0.0970664
0.154635
0.312116
0.0902148
0.0899788
0.0899871
0.0887122
0.0846293
0.0774187
0.0718074
0.088949
0.303093
0.312668
0.0895934
0.0884902
0.0874087
0.0848574
0.0788714
0.0678217
0.0611891
0.13577
0.31076
0.315426
0.0885092
0.087344
0.0860095
0.0832842
0.0763275
0.0644418
0.0626369
0.195048
0.317863
0.317219
397.206
396.08
393.974
391.049
387.55
383.792
380.146
376.985
374.707
373.523
397.635
396.422
394.141
390.945
387.085
382.91
378.831
375.269
372.681
371.357
398.508
397.122
394.482
390.734
386.146
381.079
376.052
371.621
368.354
366.679
399.89
398.287
395.107
390.523
384.759
378.233
371.586
365.614
361.021
358.696
401.726
399.761
395.892
390.171
382.788
374.046
364.891
356.691
350.336
346.954
404.154
401.762
397.094
390.021
380.6
368.776
355.746
342.504
323.917
322.372
406.48
404.152
398.873
390.57
377.757
334.476
267.275
197.889
141.376
113.945
383.506
372.83
346.287
299.842
225.862
131.992
57.4589
20.6251
4.19594
1.26446
91.9432
86.4501
71.0303
46.7884
24.0275
8.24099
0.842541
0.264584
0.377827
0.546435
0.198304
0.158869
0.112364
0.0609486
-0.0099905
-0.101366
-0.060665
0.0293639
0.100281
0.225171
0.080433
0.0621992
0.0341753
0.0112203
-0.0289144
-0.0485685
-0.00784058
0.0454603
0.0855858
0.144347
0.0167986
0.00381559
-0.0104621
-0.0107236
-0.00769338
0.00860745
0.0541438
0.0994007
0.134022
0.142195
0.0180573
-0.00545009
-0.0129309
0.00073635
0.0204139
0.0438871
0.0739888
0.109273
0.142781
0.137607
0.0260033
0.0223051
0.0289686
0.0457648
0.06297
0.0818836
0.0876211
0.110386
0.227213
0.125975
0.0567208
0.0596894
0.0669659
0.0802234
0.0935066
0.109112
0.108586
0.118649
0.285161
0.119576
0.0752266
0.0785581
0.0838773
0.0913066
0.0981985
0.102633
0.10803
0.139585
0.292106
0.251112
0.0855408
0.0860394
0.088008
0.0898603
0.0900669
0.08791
0.0905812
0.159276
0.29463
0.299853
0.0892216
0.0881956
0.0879658
0.0867419
0.0839985
0.0783959
0.0784157
0.145822
0.173545
0.256447
0.0894111
0.0876346
0.0865584
0.0840121
0.0790488
0.0715968
0.0693059
0.0959035
0.0772586
0.120741
0.0890713
0.0869664
0.0857129
0.0827959
0.0763627
0.067702
0.0659862
0.080217
0.0909735
0.0973937
399.028
397.975
395.994
393.239
389.95
386.43
383.029
380.093
377.985
376.888
399.543
398.416
396.278
393.285
389.688
385.811
382.044
378.77
376.402
375.186
400.577
399.31
396.867
393.401
389.182
384.557
379.983
375.966
373.021
371.509
402.141
400.663
397.775
393.608
388.44
382.648
376.753
371.455
367.431
365.395
404.185
402.421
398.939
393.841
387.396
379.885
371.934
364.717
359.061
356.194
406.582
404.522
400.392
394.16
386.242
376.642
365.886
355.583
346.782
342.825
408.14
406.141
401.753
394.931
385.551
367.102
321.522
268.288
217.875
197.738
383.495
375.236
355.154
316.49
264.137
190.55
110.337
55.3534
24.4082
12.3785
89.4063
85.969
73.2583
49.1429
27.3873
12.7006
3.59197
0.557162
0.292298
0.538285
0.120967
0.105181
0.0882225
0.0622388
0.0234387
-0.0422888
-0.0765621
-0.0378656
0.00793375
0.139848
0.0700638
0.0595403
0.0456432
0.028748
0.00507733
-0.0103398
-0.0002144
0.0200184
0.00760401
0.0770168
0.0385065
0.0268579
0.0163226
0.00914726
0.00968275
0.0188682
0.0440968
0.0858789
0.0686488
0.0996148
0.0292048
0.0185046
0.0143404
0.0173934
0.0278081
0.041543
0.0682099
0.144216
0.117759
0.107175
0.0348524
0.0332278
0.0377057
0.0461895
0.057531
0.0727116
0.0802242
0.16291
0.245871
0.105312
0.0576604
0.0583306
0.0638051
0.0716004
0.0797208
0.0893347
0.0975401
0.19353
0.26838
0.193927
0.0753945
0.0754852
0.078757
0.0833164
0.0876443
0.0923445
0.0999251
0.143957
0.258566
0.265393
0.0850885
0.0835046
0.0845179
0.0857665
0.0871043
0.0886846
0.0930547
0.0944224
0.0989313
0.143429
0.089086
0.0863441
0.0858802
0.0850494
0.0847481
0.0844458
0.0840511
0.0810674
0.0759548
0.0766665
0.0901982
0.08687
0.0857882
0.0835419
0.0808324
0.0774184
0.0750317
0.0698077
0.0616492
0.0632679
0.0908365
0.086742
0.0855963
0.0827626
0.0781108
0.071493
0.0689019
0.0637691
0.0560226
0.0621869
401.234
400.277
398.44
395.863
392.789
389.518
386.38
383.691
381.769
380.771
401.896
400.872
398.893
396.105
392.767
389.198
385.759
382.797
380.672
379.581
403.255
402.075
399.814
396.617
392.759
388.579
384.49
380.928
378.347
377.026
405.296
403.862
401.188
397.388
392.745
387.649
382.559
378.022
374.647
372.937
407.959
406.179
402.96
398.374
392.698
386.36
379.767
373.751
369.112
366.776
410.774
408.671
404.894
399.495
392.554
384.867
376.539
368.494
361.753
358.662
412.469
410.37
406.355
400.469
392.858
383.78
367.338
335.391
305.256
295.988
392.451
391.629
382.692
355.249
307.322
254.39
188.639
127.91
87.715
75.6131
105.206
111.324
102.274
71.7535
36.8193
20.0482
11.786
6.06935
1.96636
1.04815
0.110289
0.0848583
0.0817908
0.06859
0.0485208
0.0164849
-0.0183474
-0.0472923
-0.0264304
0.109116
0.0642164
0.0563765
0.0532259
0.0452934
0.0333723
0.0273026
0.0257147
0.0209888
-0.0331458
0.0315938
0.0433692
0.0404243
0.0394572
0.0360582
0.0304042
0.0312039
0.0535143
0.0751822
-0.000727673
0.0566877
0.0353865
0.0350617
0.0370665
0.0378944
0.0385711
0.0410727
0.0502582
0.0934762
0.0277632
0.0728006
0.0496879
0.0470529
0.0500597
0.053356
0.0573429
0.0635389
0.070317
0.0973026
0.0744211
0.0817285
0.0687992
0.0639192
0.0657918
0.0688149
0.0733529
0.0802357
0.0835514
0.10889
0.181495
0.133931
0.0820576
0.0765371
0.0768746
0.0783056
0.0815871
0.0863631
0.0886399
0.0903085
0.146606
0.237553
0.089181
0.082888
0.0824874
0.0822616
0.0839109
0.0864701
0.0863733
0.0862626
0.0916334
0.109303
0.0914984
0.0852302
0.0846672
0.0831691
0.0830992
0.0835602
0.0823482
0.0790045
0.079925
0.0820407
0.0928465
0.0863352
0.0853164
0.0828426
0.0809145
0.0779508
0.0763299
0.0723135
0.0708266
0.0748959
0.0944966
0.0867824
0.0856142
0.0826958
0.0797045
0.075065
0.0709326
0.0678246
0.0668507
0.0724949
403.658
402.78
401.091
398.679
395.8
392.756
389.865
387.411
385.675
384.78
404.535
403.576
401.75
399.138
396.024
392.73
389.596
386.932
385.046
384.085
406.312
405.159
403.05
400.064
396.505
392.713
389.069
385.952
383.736
382.616
408.982
407.512
404.992
401.447
397.219
392.69
388.301
384.508
381.782
380.414
412.515
410.61
407.533
403.263
398.136
392.628
387.21
382.448
378.932
377.191
416.231
413.885
410.175
405.154
399.148
392.489
386.047
380.225
375.704
373.564
419.373
416.669
412.362
406.616
399.851
392.725
385.251
378.376
366.446
361.817
401.414
405.081
402.352
387.862
349.994
304.314
261.369
223.135
202.072
199.29
122.221
143.393
145.345
115.131
67.0124
35.3647
25.0733
20.5172
20.0759
34.5923
0.356913
0.0935938
0.0672347
0.0684031
0.0616702
0.0521879
0.0393487
0.0180647
-0.0139362
0.0589858
0.0511823
0.0356589
0.045289
0.0451308
0.0433651
0.0416177
0.0324099
0.0191749
-0.0227719
0.0102139
0.0226128
0.031477
0.0400828
0.0406837
0.0404086
0.0390296
0.0316523
0.0286748
-0.0265336
0.013313
0.0120061
0.0276963
0.0374552
0.0421963
0.0439029
0.0424627
0.0321633
0.0164046
-0.0205242
0.0345781
0.038197
0.0425688
0.0494421
0.0532216
0.0563148
0.0578638
0.0506212
0.0352123
0.022611
0.0601494
0.0702767
0.063234
0.0643117
0.0651517
0.0681129
0.0715707
0.0697116
0.0728803
0.0779953
0.0856066
0.0921038
0.0782923
0.0755162
0.0740944
0.0758597
0.0791042
0.0804385
0.0843758
0.123744
0.168092
0.0987246
0.0827134
0.0811185
0.078911
0.0795259
0.0814953
0.0830192
0.0861849
0.0971451
0.110956
0.0989427
0.0837013
0.0837947
0.0810398
0.0806231
0.081036
0.0815884
0.0824402
0.0848674
0.0850692
0.101967
0.0858646
0.0846407
0.0818111
0.080495
0.079367
0.0788066
0.0783032
0.0797707
0.0810224
0.104095
0.0869377
0.0852891
0.0823301
0.0805223
0.0785556
0.0768742
0.0760162
0.0771723
0.0793224
405.999
405.216
403.635
401.381
398.663
395.809
393.125
390.877
389.312
388.512
407.124
406.198
404.52
402.063
399.125
396.049
393.167
390.763
389.089
388.245
409.266
408.125
406.216
403.399
400.058
396.559
393.267
390.519
388.621
387.692
412.556
411.091
408.802
405.416
401.443
397.322
393.451
390.262
388.088
387.033
417.012
415.126
412.266
408.089
403.264
398.289
393.64
389.836
387.277
386.115
422.406
419.816
416.082
410.881
405.155
399.398
393.923
389.606
386.892
385.866
428.686
424.903
419.766
413.3
406.556
400.278
394.649
390.111
387.582
387.301
428.997
423.623
417.097
406.158
386.328
351.158
311.92
295.867
310.967
322.61
220.351
208.188
198.27
164.094
112.068
67.847
44.2665
41.02
57.2666
130.032
2.26426
0.51473
0.0930758
0.0615602
0.0675338
0.0713154
0.0748694
0.0820605
0.0501457
0.70567
0.293845
0.027721
0.0389683
0.0425946
0.0467235
0.0504483
0.0454559
0.0349594
0.00796957
0.0159908
0.0319726
0.0167229
0.0309647
0.039308
0.0422015
0.0417085
0.025163
0.00733518
-0.0270132
-0.00864844
-0.0129421
0.0101805
0.0239764
0.0365881
0.0418996
0.0405748
0.0223895
0.000338267
-0.0439154
0.00860838
0.0481457
0.0530903
0.0416408
0.0468423
0.0512908
0.0512017
0.037559
0.0196304
-0.00386096
0.0416623
0.0983883
0.084158
0.0615553
0.0593972
0.0618524
0.0636666
0.0590162
0.0677175
0.0652248
0.0724581
0.106542
0.0827262
0.0744993
0.0691332
0.0697648
0.072344
0.0732902
0.0795246
0.124695
0.13657
0.09881
0.0828745
0.0776775
0.0745834
0.0746519
0.07666
0.0791512
0.0838648
0.098341
0.107882
0.0958883
0.0797346
0.079166
0.0776373
0.0774911
0.078407
0.0801611
0.0830536
0.086311
0.0855343
0.100581
0.0858224
0.0812669
0.079688
0.0791074
0.0790986
0.0798735
0.0813874
0.0832151
0.0833412
0.101255
0.0952263
0.0823038
0.0809144
0.0801608
0.0796763
0.0797862
0.0804656
0.0815493
0.0818489
407.89
407.321
405.825
403.677
401.1
398.392
395.868
393.778
392.34
391.616
409.186
408.459
406.934
404.569
401.773
398.852
396.153
393.939
392.434
391.681
411.574
410.634
408.955
406.285
403.103
399.787
396.739
394.262
392.587
391.814
415.298
414.087
412.14
408.911
405.078
401.172
397.641
394.857
393.111
392.276
420.515
419.005
416.574
412.443
407.667
402.956
398.784
395.597
393.661
392.924
427.265
425.319
421.875
416.272
410.344
404.915
400.202
396.698
395.059
394.87
435.565
432.783
427.564
419.886
412.501
406.381
401.609
398.555
397.772
399.241
444.335
439.856
431.216
417.183
402.548
381.276
351.355
339.56
363.62
387.111
420.609
367.132
284.01
197.989
145.821
101.558
70.441
64.7198
102.387
240.056
239.885
78.1791
0.460872
0.0955264
0.0654701
0.0796486
0.0912191
0.11825
0.113574
15.9509
108.714
0.108106
0.0389731
0.0369609
0.0467194
0.0564306
0.0569115
0.0547264
0.0161076
0.0382858
41.2032
-0.00683276
0.00478269
0.034071
0.0449315
0.0441815
0.0274299
0.00447604
-0.0269284
-0.0195167
-0.0857268
-0.0524781
-0.00501151
0.0260193
0.0400401
0.0376903
0.0146704
-0.00855028
-0.0572967
-0.0135297
0.00821117
0.00679406
0.0252427
0.0372904
0.0464475
0.0446109
0.0273941
0.00702369
-0.0262962
0.024147
0.0942687
0.0490696
0.055509
0.0501925
0.0555207
0.0564942
0.0494192
0.0583531
0.0565115
0.0640457
0.145676
0.113473
0.0706644
0.0608082
0.0626477
0.065917
0.0667497
0.0790424
0.116027
0.118032
0.137601
0.235724
0.0735056
0.0681343
0.0688317
0.0719285
0.0747535
0.0811207
0.0992353
0.106665
0.103831
0.243765
0.0722529
0.0728025
0.0736502
0.0753193
0.0777994
0.0812869
0.085064
0.0842298
0.0943658
0.131144
0.0757007
0.0763746
0.0770625
0.0778221
0.0792712
0.0815309
0.0837349
0.083577
0.0854734
0.117513
0.0776105
0.0787982
0.0791174
0.0794422
0.0802022
0.0814409
0.0826021
0.0827413
409.026
408.949
407.282
405.307
402.821
400.228
397.822
395.844
394.494
393.824
410.623
410.108
408.482
406.331
403.665
400.847
398.275
396.19
394.785
394.107
412.73
412.539
410.825
408.362
405.336
402.099
399.19
396.892
395.359
394.694
416.072
416.444
414.524
411.516
407.791
403.941
400.568
398.044
396.59
395.863
420.459
421.534
419.839
415.806
411.014
406.322
402.347
399.513
397.927
397.446
426.193
428.424
426.319
420.595
414.386
408.912
404.459
401.446
400.395
400.649
431.027
436.88
434.009
425.608
417.243
410.761
406.219
403.883
404.08
406.527
435.19
445.979
441.46
424.589
408.604
394.167
373.421
366.188
389.263
410.792
418.937
456.328
358.884
208.839
154.751
120.699
89.2751
82.1421
136.48
305.037
418.931
430.985
72.5634
0.440589
0.0794564
0.0757254
0.0973731
0.148029
0.316544
42.2763
469.204
218.279
0.0953722
0.0212092
0.0333883
0.0546872
0.0617376
0.070044
0.014001
0.0511446
438.527
50.598
-0.0414458
0.0101655
0.0362219
0.0409521
0.0292334
0.00596872
-0.0251556
-0.0121139
122.548
1.60321
-0.0633028
0.000314987
0.0345238
0.0320971
0.0104204
-0.0161763
-0.0597678
-0.0232352
-0.0745338
-0.0357523
-0.0149292
0.0156689
0.0424717
0.0380033
0.0198745
0.00400364
-0.0171739
0.0127131
17.3643
0.0120209
0.0224748
0.0323613
0.0450142
0.0494929
0.0427375
0.044592
0.0499131
0.0573483
38.9378
0.00965202
0.0357367
0.0389938
0.0426429
0.0577404
0.0599326
0.067263
0.0785075
0.0834109
48.4385
0.0368297
0.0456785
0.0508861
0.0541031
0.0632909
0.068906
0.0750784
0.0844053
0.090847
49.5616
0.0346969
0.052233
0.0644336
0.0663994
0.070763
0.0745928
0.0795454
0.0830028
0.0839899
47.0196
0.0515073
0.0623493
0.073242
0.0736149
0.0757598
0.0778412
0.0809176
0.0834163
0.0829614
54.3319
0.0621933
0.0664762
0.0775958
0.0772934
0.0785915
0.0797281
0.0813503
0.0826619
0.0827289
406.618
410.037
408.322
406.35
403.773
401.187
398.837
396.914
395.608
394.965
401.006
411.056
409.859
407.587
404.756
401.894
399.372
397.352
396.005
395.358
396.09
413.551
412.518
409.938
406.683
403.346
400.455
398.242
396.808
396.168
392.647
417.563
416.573
413.491
409.515
405.487
402.081
399.647
398.246
397.653
384.764
422.78
422.272
418.282
413.217
408.258
404.19
401.487
400.097
399.691
369.748
429.717
429.493
423.692
416.985
411.185
406.644
403.81
403.03
403.46
366.539
438.673
438.162
429.268
420
413.043
408.365
406.346
407.087
409.936
375.798
449.288
448.143
427.064
409.403
398.72
383.904
379.41
400.191
418.812
429.669
461.288
374.068
200.252
147.848
126.059
99.2991
92.0743
154.041
327.742
350.473
482.252
149.993
1.8745
0.230776
0.0828781
0.106535
0.176039
0.537541
56.5559
359.371
517.124
84.5399
0.188066
0.0458695
0.0595585
0.0654906
0.0754996
0.0125008
0.0695994
528.289
521.519
63.81
0.0289505
0.0480328
0.0450858
0.0390717
0.00891271
-0.0275035
-0.00117271
607.709
266.269
11.768
-0.00733153
0.033565
0.0340346
0.0278852
-0.0078641
-0.0559005
-0.01831
647.626
51.3054
-0.0666216
-0.00407891
0.0339842
0.0406721
0.0290824
0.0162335
-0.0150111
0.008511
659.443
41.0381
0.0222726
0.0362415
0.132868
0.058563
0.0484271
0.0525214
0.054034
0.0552702
647.348
44.3149
0.0530971
0.0356772
0.281692
0.0790896
0.0600395
0.0683154
0.0804519
0.0775683
578.914
15.1427
0.0497358
0.133053
0.225847
0.0769802
0.0652445
0.0712534
0.0790168
0.082432
395.638
0.0161642
0.0514859
0.0677406
0.0773921
0.0724521
0.0710308
0.0762331
0.0803745
0.0811332
289.842
0.0623871
0.0717195
0.0739794
0.0729851
0.0745066
0.0762169
0.0794024
0.0819896
0.0819185
293.347
0.0840698
0.0800471
0.0786674
0.0772232
0.077811
0.0788898
0.0805849
0.0819744
0.0821361
406.451
408.483
408.044
406.204
403.702
401.142
398.809
396.889
395.582
394.94
400.929
408.954
409.503
407.472
404.672
401.848
399.347
397.329
395.982
395.334
394.986
413.605
412.318
409.853
406.623
403.303
400.433
398.225
396.789
396.149
390.675
417.675
416.646
413.517
409.537
405.49
402.079
399.64
398.23
397.636
384.653
422.947
422.45
418.505
413.397
408.345
404.229
401.505
400.096
399.683
370.481
429.693
429.953
424.348
417.445
411.404
406.75
403.871
403.06
403.472
365.977
438.439
438.873
430.612
420.905
413.45
408.525
406.428
407.136
409.959
392.218
447.967
448.623
431.453
410.941
399.163
384.065
380.415
400.49
418.48
398.314
456.862
409.03
225.75
150.389
125.069
99.294
93.2363
154.916
327.073
360.263
478.441
173.481
1.89637
0.256715
0.0848292
0.101945
0.171231
0.554125
56.19
418.765
516.616
69.8609
0.1651
0.038944
0.0554067
0.0609487
0.0686147
0.00684106
0.0791077
559.2
504.372
50.1256
0.0417912
0.0520255
0.0430673
0.0377263
0.00435152
-0.0334894
-0.00039929
563.199
194.972
22.3876
0.0463201
0.0511712
0.0364286
0.0373629
-0.00530266
-0.0492203
-0.015139
431.694
2.14503
12.0781
1.46551
0.0570142
0.0469261
0.0351398
0.0218188
-0.00778999
0.0131399
427.651
0.654869
1.60871
4.3768
0.824639
0.0576413
0.0521673
0.0616654
0.063715
0.0583163
486.138
3.49927
0.063642
3.53492
2.50689
0.0994684
0.0628429
0.0676261
0.0834595
0.0835141
547.875
7.73759
0.0694798
0.082447
1.9157
0.358812
0.0654432
0.0700049
0.0783319
0.0845529
589.437
15.326
0.0859462
0.0781807
0.262478
0.119995
0.0676743
0.0742248
0.0789113
0.080128
625.278
24.0746
0.0946389
0.0954182
0.0758321
0.0825525
0.0751144
0.0782013
0.0807469
0.0810392
629.85
12.9096
0.0825154
0.0927536
0.0798508
0.078287
0.0783367
0.0798135
0.0811235
0.0813569
408.833
409.169
407.265
405.268
402.754
400.166
397.758
395.775
394.421
393.75
409.912
410.158
408.539
406.311
403.609
400.793
398.218
396.126
394.716
394.036
413.172
412.603
410.885
408.354
405.304
402.065
399.149
396.844
395.304
394.636
416.831
416.578
414.659
411.557
407.832
403.964
400.559
398.015
396.548
395.814
421.798
422.3
420.281
416.049
411.219
406.448
402.399
399.527
397.907
397.419
428.265
429.784
427.163
421.191
414.817
409.151
404.591
401.537
400.436
400.668
435.864
438.755
435.275
426.563
417.882
411.046
406.237
403.84
404.079
406.556
441.115
448.395
442.895
426.939
410.624
395.07
373.408
368.484
390.04
410.101
438.072
457.852
365.713
223.258
162.627
122.438
89.9694
84.4548
138.788
304.842
449.466
427.329
74.392
0.385145
0.0756775
0.072548
0.0895884
0.133525
0.363649
42.4419
489.922
236.356
0.0774117
0.0192696
0.0314979
0.0501003
0.053031
0.0554246
-0.00103699
0.0527781
518.507
62.6841
-0.0232751
0.0238429
0.0363443
0.0384108
0.0237058
-0.00498919
-0.0381828
-0.01294
223.138
3.79792
-0.02982
0.0186677
0.0287895
0.0320859
0.0153652
-0.012551
-0.0514571
-0.00998948
73.0146
-0.0483991
0.0069742
0.0706203
0.0377833
0.0400179
0.0321332
0.0289265
0.00555003
0.0232864
71.5579
0.0325692
0.0425063
0.267927
0.135863
0.0521036
0.0500344
0.0600136
0.0698799
0.0636773
72.4494
0.0639177
0.0571797
0.346592
0.379789
0.0612032
0.0627222
0.0700171
0.0820276
0.0825238
43.3879
0.101642
0.0551767
0.246272
0.415052
0.0795158
0.0672518
0.0723144
0.0785863
0.0843777
40.5031
0.0543877
0.0688801
0.165743
0.167328
0.064972
0.0702941
0.0754398
0.0790312
0.0798202
76.5378
0.0552376
0.0664072
0.0739763
0.0721312
0.0734742
0.0750025
0.0777181
0.0800374
0.0802781
91.2666
0.0793195
0.0743782
0.0780048
0.0758612
0.076702
0.0775393
0.0790137
0.0802733
0.0805278
407.906
407.189
405.762
403.593
401.006
398.287
395.754
393.655
392.21
391.482
409.303
408.467
406.898
404.522
401.7
398.763
396.048
393.822
392.307
391.552
411.876
410.845
409.06
406.306
403.073
399.728
396.657
394.167
392.487
391.708
415.939
414.657
412.448
409.037
405.12
401.163
397.588
394.779
393.023
392.187
421.549
419.93
417.181
412.757
407.847
403.044
398.797
395.558
393.619
392.885
428.563
426.655
422.708
416.79
410.691
405.121
400.295
396.747
395.082
394.906
436.851
434.625
428.629
420.556
412.931
406.533
401.502
398.407
397.732
399.277
446.143
442.313
432.466
419.067
404.854
382.609
350.832
341.223
364.195
386.698
409.058
356.023
280.255
206.579
154.03
104.962
72.0552
67.1962
105.257
240.798
188.137
66.2215
0.488585
0.0840079
0.0525713
0.0705133
0.0784904
0.0992333
0.0961016
16.3701
77.9489
0.2696
0.0180849
0.0298274
0.037104
0.0474304
0.043299
0.0365812
-0.00522909
0.0379684
39.844
4.63996
0.0141688
0.0371063
0.039821
0.0366511
0.0165569
-0.0073743
-0.039032
-0.0205363
4.83888
1.82835
0.01456
0.0339002
0.0392325
0.0341704
0.0130981
-0.0127868
-0.0414619
0.00042453
1.13916
0.437446
0.029352
0.0398511
0.0452764
0.0437733
0.0323605
0.0289793
0.0256785
0.0368533
4.02256
0.175392
0.0498942
0.0425686
0.0513279
0.0542275
0.0534235
0.0585419
0.0673857
0.0698855
11.8244
0.0434925
0.0561974
0.0490009
0.0525071
0.0603845
0.0654804
0.0710483
0.0785196
0.0830044
18.235
0.0447574
0.112243
0.056834
0.0575053
0.0638388
0.0699435
0.0753374
0.0797057
0.0814863
11.2926
0.0633195
0.258801
0.065403
0.0653088
0.0686776
0.0724512
0.0767509
0.0798881
0.0793235
0.239343
0.317662
0.31717
0.0733489
0.0722635
0.07329
0.0749051
0.0773031
0.0793807
0.0795763
0.0998452
1.35231
0.198501
0.0753335
0.0750408
0.0757732
0.0767108
0.0780893
0.0792847
0.0795457
405.995
405.161
403.548
401.276
398.535
395.658
392.957
390.694
389.116
388.309
407.159
406.173
404.462
401.98
399.014
395.912
393.003
390.581
388.898
388.051
409.373
408.177
406.223
403.362
399.982
396.448
393.124
390.357
388.454
387.522
412.809
411.291
408.916
405.454
401.424
397.25
393.329
390.116
387.945
386.894
417.499
415.566
412.567
408.272
403.355
398.298
393.572
389.734
387.199
386.063
422.98
420.49
416.534
411.188
405.378
399.52
393.9
389.518
386.888
385.931
428.994
425.75
420.264
413.587
406.707
400.228
394.408
389.864
387.572
387.431
430.047
424.929
417.769
407.244
388.492
353.035
311.215
295.384
311.352
322.314
225.233
208.427
197.991
167.152
117.345
71.1203
46.3686
42.7541
59.3924
130.683
1.91174
0.503039
0.0739097
0.0480876
0.0577177
0.0600067
0.0575076
0.0581127
0.0234095
0.736693
0.166547
0.0109093
0.0209221
0.0336612
0.0384974
0.0408573
0.0290682
0.0122265
-0.015658
0.00814208
0.0012362
0.00767515
0.0324837
0.0414328
0.0434611
0.0341733
0.014351
-0.00253023
-0.0369646
-0.00837727
0.00636196
0.00982161
0.040545
0.039754
0.0405738
0.0365814
0.0201759
0.0008397
-0.0212324
0.0192582
0.0510564
0.0293552
0.0429033
0.0442671
0.0487857
0.0485648
0.0422865
0.0378334
0.0301435
0.051788
0.0723049
0.0509871
0.0540574
0.0533224
0.0572436
0.0596233
0.0607386
0.0672632
0.0841478
0.0878497
0.0828408
0.0596078
0.0640403
0.0600988
0.0630845
0.0664599
0.0706505
0.0772762
0.0938842
0.0962385
0.671101
0.130946
0.173142
0.0645565
0.0664447
0.0694457
0.0735056
0.078335
0.0815769
0.0801941
3.86259
0.0888059
0.315314
0.0682533
0.0692019
0.0712818
0.0738474
0.0771146
0.0801309
0.0789149
2.86394
0.283433
0.38264
0.0718874
0.0722622
0.0731641
0.0743605
0.0762198
0.0777796
0.0781348
0.0525131
0.763421
0.396122
0.0725754
0.0739418
0.0746714
0.0753947
0.0765242
0.0776603
0.0779833
403.528
402.634
400.939
398.512
395.609
392.537
389.621
387.15
385.402
384.5
404.428
403.454
401.617
398.986
395.846
392.519
389.355
386.67
384.773
383.808
406.244
405.081
402.959
399.945
396.352
392.521
388.84
385.701
383.477
382.356
408.982
407.512
404.96
401.372
397.099
392.52
388.08
384.267
381.551
380.193
412.619
410.745
407.611
403.283
398.093
392.51
387.016
382.239
378.785
377.097
416.422
414.161
410.353
405.266
399.211
392.456
385.825
379.984
375.667
373.638
419.629
417.061
412.512
406.555
399.634
392.386
384.858
377.711
366.961
364.585
408.345
407.138
402.211
387.463
351.679
305.4
259.207
220.705
204.07
197.483
145.019
148.842
144.55
114.996
70.0634
38.1155
26.4112
21.5334
21.8127
36.4191
0.217638
0.070438
0.0454362
0.0529486
0.0485245
0.0376576
0.0165112
-0.0230964
-0.0505218
0.0295089
0.00912741
0.0191518
0.0305366
0.0381296
0.0368063
0.0324817
0.0116526
0.00280745
-0.0557257
-0.000970064
0.0203736
0.0280522
0.0449636
0.048895
0.0464262
0.0373376
0.0162866
-0.00420614
-0.032428
0.0179493
0.0246225
0.0304104
0.0493057
0.0424599
0.0417634
0.0402256
0.0306959
0.0158019
0.00521453
0.0459126
0.0455872
0.0425736
0.0477135
0.04852
0.0523543
0.0545921
0.0535356
0.0518073
0.0492498
0.0647329
0.062119
0.05485
0.0560871
0.0578231
0.0613831
0.0653595
0.0694236
0.0750972
0.0881011
0.0923414
0.071975
0.0642184
0.0651649
0.0648004
0.0673294
0.0712266
0.0760494
0.0817849
0.0950013
0.0976537
0.0720493
0.0656344
0.0689429
0.0686686
0.0701536
0.0729357
0.0762855
0.0795562
0.0825609
0.0803339
0.102063
0.0717736
0.0700161
0.0705689
0.0715129
0.0729173
0.0742935
0.0757587
0.0775279
0.0773072
1.07125
0.212686
0.0721981
0.0720803
0.0725411
0.0727655
0.072676
0.0730396
0.0741443
0.0754277
0.0721932
0.108815
0.0722791
0.0727995
0.0734374
0.0733648
0.0728718
0.0727766
0.0736765
0.0754145
401.027
400.074
398.229
395.633
392.529
389.228
386.06
383.343
381.403
380.396
401.691
400.674
398.69
395.881
392.511
388.909
385.435
382.443
380.299
379.202
403.059
401.891
399.628
396.409
392.515
388.294
384.164
380.572
377.973
376.647
405.12
403.707
401.024
397.198
392.515
387.365
382.224
377.658
374.285
372.582
407.809
406.077
402.85
398.234
392.506
386.089
379.432
373.4
368.822
366.524
410.678
408.636
404.848
399.43
392.451
384.573
376.136
368.086
361.588
358.579
412.497
410.388
406.188
400.052
392.237
383.208
366.739
334.035
305.914
301.443
396.589
392.334
380.504
352.521
304.512
249.458
185
127.145
89.8541
72.6729
118.444
114.793
100.27
71.527
39.7453
22.6651
13.2405
7.66888
2.86343
1.41137
0.0735198
0.0705156
0.0676048
0.0563204
0.0373484
0.00627651
-0.0438472
-0.0850762
-0.0528733
0.0955756
0.045984
0.0456421
0.042943
0.0399761
0.0337513
0.0350295
0.0143351
0.0441975
-0.0368133
0.0356308
0.0304146
0.0316456
0.0332406
0.0355383
0.0344294
0.0395603
0.0370611
0.03055
0.0402269
0.073426
0.0312903
0.0287017
0.0320634
0.0375422
0.0417801
0.0450547
0.0452415
0.0572416
0.0747961
0.0823788
0.0417119
0.0399327
0.0433149
0.0491056
0.0552869
0.0615363
0.0659763
0.073423
0.0830033
0.085677
0.0576744
0.0548211
0.0568259
0.0605058
0.0657675
0.0717898
0.0773397
0.0814362
0.106199
0.122505
0.0711166
0.0660632
0.0669782
0.068469
0.0717887
0.0763441
0.080662
0.0829043
0.0945472
0.103835
0.0764872
0.0710896
0.0716559
0.0720252
0.0735982
0.0762421
0.0784441
0.0783826
0.0798297
0.0783533
0.0753885
0.0722129
0.0726544
0.0729766
0.0733118
0.0739119
0.073674
0.0724222
0.0714172
0.0718435
0.0713805
0.0758591
0.0731988
0.0733069
0.0727649
0.0714332
0.0688689
0.0683703
0.0673792
0.0679662
0.073078
0.070403
0.0732026
0.0735209
0.0729728
0.0708498
0.0675862
0.0669301
0.0659762
0.0681435
398.752
397.707
395.72
392.945
389.623
386.067
382.628
379.654
377.518
376.406
399.265
398.15
396.006
392.992
389.359
385.444
381.633
378.315
375.916
374.687
400.298
399.046
396.6
393.113
388.853
384.182
379.555
375.484
372.5
370.972
401.864
400.407
397.513
393.321
388.105
382.255
376.297
370.935
366.866
364.809
403.911
402.18
398.696
393.571
387.066
379.497
371.479
364.179
358.461
355.563
406.298
404.29
400.175
393.915
385.881
376.211
365.398
355.011
346.22
342.108
407.881
405.866
401.327
394.268
384.776
367.471
321.77
266.533
215.349
193.575
383.804
373.46
350.302
308.506
254.351