/*--------------------------------*- C++ -*----------------------------------*\
| =========                 |                                                 |
| \\      /  F ield         | OpenFOAM: The Open Source CFD Toolbox           |
|  \\    /   O peration     | Version:  2312                                  |
|   \\  /    A nd           | Website:  www.openfoam.com                      |
|    \\/     M anipulation  |                                                 |
\*---------------------------------------------------------------------------*/
FoamFile
{
    version     2.0;
    format      ascii;
    arch        "LSB;label=32;scalar=64";
    class       volVectorField;
    location    "0.4";
    object      U;
}
// * * * * * * * * * * * * * * * * * * * * * * * * * * * * * * * * * * * * * //

dimensions      [0 1 -1 0 0 0 0];

internalField   nonuniform List<vector> 
8000
(
(0.00378365 0.00168525 -0.00689347)
(0.009329 0.00176452 -0.00648724)
(0.0138425 0.00198311 -0.00583419)
(0.0168728 0.00233383 -0.00519783)
(0.0183519 0.00284525 -0.00468098)
(0.0182454 0.00343418 -0.00436095)
(0.0165504 0.00414371 -0.00416972)
(0.0132257 0.00468511 -0.00404895)
(0.00958423 0.00499083 -0.00395022)
(0.0040583 0.00656155 -0.00395885)
(0.00435743 0.00639418 -0.00801775)
(0.010832 0.00678614 -0.00760022)
(0.0162112 0.0076697 -0.00692897)
(0.0199318 0.00902112 -0.00623972)
(0.0217223 0.0107837 -0.00562368)
(0.0215449 0.0127434 -0.00517034)
(0.0195267 0.0149037 -0.0049347)
(0.0156334 0.0166139 -0.0048236)
(0.0112407 0.0176118 -0.00472591)
(0.00475337 0.0220247 -0.00467546)
(0.00471379 0.0112104 -0.0087641)
(0.0119657 0.0118247 -0.00822298)
(0.0180197 0.0133125 -0.00753534)
(0.0221742 0.0157237 -0.006806)
(0.024152 0.0189014 -0.00621576)
(0.0241301 0.022529 -0.00583379)
(0.0222045 0.0263708 -0.00575739)
(0.0181826 0.0296482 -0.00583794)
(0.013112 0.0324588 -0.00582767)
(0.00557251 0.0397666 -0.00555591)
(0.0052188 0.0190847 -0.010634)
(0.0137308 0.0200387 -0.00999593)
(0.021072 0.0222073 -0.00921608)
(0.0262926 0.0256183 -0.00842351)
(0.0288743 0.0299688 -0.00773257)
(0.0289444 0.0347441 -0.00725141)
(0.0269999 0.0395255 -0.00695657)
(0.0230198 0.0424929 -0.00645764)
(0.0140833 0.0447703 -0.0044711)
(0.00389447 0.0551457 -0.00405628)
(0.00606284 0.0205112 -0.0076507)
(0.0166652 0.0217385 -0.00703071)
(0.0256027 0.0248984 -0.00693802)
(0.031897 0.0303189 -0.00687842)
(0.035229 0.0375953 -0.006352)
(0.0360343 0.0450666 -0.00548061)
(0.0342737 0.0557262 -0.00463015)
(0.0274451 0.0679681 -0.0019412)
(0.00941174 0.0783358 0.00315085)
(-0.00169523 0.0879246 0.000900894)
(0.0071231 0.0280356 -0.00323889)
(0.0250387 0.0302947 -0.00317747)
(0.0414211 0.0362606 -0.0034479)
(0.053582 0.0441629 -0.00315226)
(0.059425 0.0525802 -0.00222168)
(0.0645874 0.0613223 0.000454446)
(0.0661039 0.0655883 0.00358873)
(0.0652677 0.0605905 0.0056768)
(0.0416666 0.0473616 0.00361044)
(0.0108823 0.0411707 -0.00910431)
(0.00955485 0.00768312 -0.0143322)
(0.0346459 0.00892926 -0.0141385)
(0.0589325 0.0152118 -0.0109443)
(0.0763167 0.0283678 -0.00484773)
(0.0816635 0.0408306 0.00243737)
(0.0711292 0.0344489 0.00515311)
(0.0796331 0.0368862 0.000695591)
(0.0884736 0.0651094 -0.0060328)
(0.0888475 0.125596 -0.0417114)
(0.046438 0.155066 -0.0556441)
(0.0159598 0.0379788 -0.0474644)
(0.0424362 0.0367913 -0.0446468)
(0.0657946 0.0393593 -0.0372132)
(0.0871458 0.0457975 -0.0301752)
(0.123614 0.0537293 -0.0334688)
(0.211084 0.0517055 -0.0621856)
(0.32605 0.0847201 -0.0985792)
(0.412007 0.160231 -0.128525)
(0.293769 0.319133 -0.155457)
(0.130378 0.504888 -0.181269)
(0.0213588 0.0925233 -0.11117)
(0.0597805 0.0902092 -0.110879)
(0.1015 0.087549 -0.111327)
(0.169825 0.0809966 -0.136549)
(0.316972 0.0349587 -0.208359)
(0.520231 0.00518586 -0.257388)
(0.510299 0.186362 -0.167268)
(0.288299 0.451869 0.00231895)
(0.0338385 0.706847 -0.0268669)
(-0.00211683 0.831696 -0.0609656)
(0.0264592 0.180068 -0.142122)
(0.0754552 0.172068 -0.141863)
(0.134285 0.163762 -0.148133)
(0.216448 0.157134 -0.16744)
(0.170388 0.138492 -0.17674)
(0.205687 0.422201 -0.146213)
(0.158692 0.501286 0.00544152)
(-0.0661212 0.625922 0.116352)
(-0.153769 0.801724 0.07491)
(-0.0715858 0.769775 0.0533916)
(0.0182082 0.0931753 -0.24174)
(0.0288817 0.0882847 -0.240147)
(0.0457554 0.171058 -0.224154)
(0.0960008 0.304089 -0.175731)
(0.0618697 0.331539 -0.126445)
(0.0300154 0.493475 -0.0425945)
(-0.154612 0.461351 0.107421)
(-0.241708 0.50375 0.103091)
(-0.184589 0.569137 0.0699313)
(-0.0635177 0.480146 0.051607)
(0.0219938 0.327573 -0.18838)
(0.0229962 0.332308 -0.180851)
(0.0277259 0.380844 -0.165699)
(0.0395499 0.420709 -0.11871)
(-0.0102632 0.4368 -0.0722521)
(-0.066971 0.436003 0.033593)
(-0.2385 0.321189 0.0978628)
(-0.231705 0.304885 0.026057)
(-0.144054 0.339296 -0.0160642)
(-0.0421776 0.275775 -0.0128127)
(0.0127832 0.476086 -0.0947127)
(0.00544447 0.466203 -0.0862018)
(0.00555706 0.461069 -0.0755226)
(-0.00177503 0.432965 -0.0415544)
(-0.0298355 0.419971 -0.00447039)
(-0.0670076 0.361965 0.0790439)
(-0.169145 0.252099 0.0746136)
(-0.180751 0.220216 -0.0118457)
(-0.121015 0.249987 -0.0704341)
(-0.0339238 0.192492 -0.0525061)
(0.00143768 0.431879 -0.0095999)
(-0.00979694 0.409973 -0.000960305)
(-0.00880023 0.380735 0.00843333)
(-0.0109659 0.332263 0.0265343)
(-0.00379685 0.301073 0.0514245)
(-0.0149415 0.263739 0.0868988)
(-0.0636185 0.222741 0.0628921)
(-0.132365 0.210325 -0.010295)
(-0.112583 0.236221 -0.081029)
(-0.0291635 0.164158 -0.0681025)
(-0.000339984 0.287762 0.0505316)
(0.00271232 0.259948 0.0526071)
(0.00675587 0.226351 0.0533729)
(0.00892299 0.182632 0.0519429)
(0.0190856 0.161192 0.0485972)
(0.0217353 0.166327 0.0477749)
(0.00823159 0.208182 0.0399785)
(-0.0860201 0.235616 -0.00820168)
(-0.0999792 0.254919 -0.0783839)
(-0.0227375 0.16719 -0.0754197)
(0.00203488 0.14906 0.0537486)
(0.0172164 0.135273 0.0471938)
(0.0191941 0.123651 0.0397361)
(0.0141901 0.10394 0.0285745)
(0.0210126 0.0905903 0.0173254)
(0.0334307 0.100573 0.0163102)
(0.0309228 0.205764 0.0198455)
(-0.0509291 0.282138 -0.0133144)
(-0.082451 0.289359 -0.0743705)
(-0.0141738 0.19233 -0.0776652)
(0.00440114 0.0789818 0.0236284)
(0.00701225 0.0796063 0.0215616)
(0.0123159 0.0774628 0.0201654)
(0.0213451 0.0602112 0.0159507)
(0.0430508 0.042863 0.0132345)
(0.0570749 0.0505235 0.0206372)
(0.0353065 0.195314 0.0214313)
(-0.0283771 0.329152 -0.0157375)
(-0.0642924 0.328713 -0.0669263)
(-0.00531578 0.230464 -0.0727518)
(0.00630973 0.0386367 0.0174231)
(0.00560531 0.0336997 0.017895)
(0.0144843 0.0257446 0.0164835)
(0.0262883 0.0122013 0.0124007)
(0.0505287 -0.0105149 0.0136406)
(0.0496268 0.00951077 0.0256411)
(0.0207944 0.181834 0.0270719)
(-0.0183008 0.36127 -0.0143326)
(-0.0503795 0.363469 -0.0552181)
(-0.00103647 0.273542 -0.0583386)
(0.00494884 0.00939285 0.0123122)
(0.00464333 0.00515161 0.0117993)
(0.00573595 -0.00205173 0.00975322)
(0.0105425 -0.0185505 0.00733125)
(0.0237229 -0.0456222 0.0119644)
(-0.00689598 -0.0181269 0.0266874)
(-0.0258572 0.177124 0.0283797)
(-0.0287151 0.375778 -0.00976225)
(-0.0564693 0.395725 -0.0324603)
(-0.0133367 0.297579 -0.025554)
(0.000883277 -0.00467198 0.00647658)
(-0.00205423 -0.0088313 0.00673417)
(-0.00608741 -0.0159921 0.0056661)
(-0.00737459 -0.0311072 0.00399671)
(-0.0154476 -0.0566393 0.00654632)
(-0.0662367 -0.0340161 0.0238586)
(-0.0906424 0.153969 0.0400315)
(-0.067573 0.364457 0.0130364)
(-0.0782519 0.385599 0.00828975)
(-0.0328149 0.244032 0.0175635)
(0.00275956 -0.000810651 -0.0125781)
(0.00632605 -0.000796511 -0.011885)
(0.00976753 -0.000622141 -0.0110708)
(0.0126061 -0.000191715 -0.0103635)
(0.014442 0.000494971 -0.00975281)
(0.0148756 0.00128897 -0.00936138)
(0.0138326 0.00207749 -0.00907436)
(0.0112189 0.00254193 -0.0087991)
(0.00870723 0.00276358 -0.00841745)
(0.0040497 0.00496153 -0.00929197)
(0.00370336 -0.00178622 -0.0155442)
(0.00866243 -0.000868295 -0.0148061)
(0.0131576 0.000392996 -0.013831)
(0.0165366 0.00228147 -0.0129185)
(0.0183679 0.0046064 -0.0120595)
(0.0184353 0.00705246 -0.0113735)
(0.0167934 0.00933198 -0.0109151)
(0.0134996 0.0107103 -0.010543)
(0.010328 0.0112814 -0.0100947)
(0.00480168 0.0175288 -0.0109743)
(0.00402509 -0.00403312 -0.0177995)
(0.00926454 -0.00208501 -0.0170886)
(0.0139674 0.00045182 -0.0158348)
(0.0176859 0.00397438 -0.014685)
(0.0197411 0.00825004 -0.0137086)
(0.019889 0.0126769 -0.0129115)
(0.0182018 0.0167776 -0.0125145)
(0.0148616 0.0192866 -0.0123065)
(0.0117387 0.0212589 -0.0118401)
(0.00582626 0.0323416 -0.0130335)
(0.00442008 -0.00159514 -0.0200173)
(0.010769 0.00148868 -0.0196902)
(0.0164534 0.00508665 -0.018702)
(0.0208748 0.00967086 -0.0175743)
(0.0231052 0.0152886 -0.0165939)
(0.0230702 0.0211275 -0.0157112)
(0.0210517 0.0255691 -0.0152722)
(0.0175121 0.0263319 -0.0142739)
(0.0108936 0.0268774 -0.0108551)
(0.00427177 0.0442072 -0.0141642)
(0.00410795 -0.0048501 -0.020878)
(0.0112046 -0.00122094 -0.0208717)
(0.0174322 0.00335391 -0.0205725)
(0.0223164 0.0100851 -0.0196298)
(0.0249834 0.018646 -0.0179598)
(0.0246267 0.0277137 -0.0163559)
(0.0212198 0.0379701 -0.0147922)
(0.0138037 0.0475291 -0.00770891)
(-7.14524e-05 0.0583831 0.00330364)
(-0.00350227 0.077861 -0.00806216)
(0.00342883 0.0127061 -0.0206587)
(0.0142925 0.0167538 -0.0207699)
(0.0242603 0.0224825 -0.0198814)
(0.031724 0.0294586 -0.017711)
(0.0361217 0.039919 -0.0157567)
(0.0405621 0.0513339 -0.0128974)
(0.0442274 0.0551109 -0.00726807)
(0.0483955 0.0502464 -0.00391653)
(0.0205141 0.0407502 -0.0187188)
(-0.00205324 0.0476158 -0.0394472)
(0.00567579 0.0177097 -0.0423115)
(0.0202603 0.018667 -0.039721)
(0.0355655 0.0222348 -0.0322929)
(0.0477039 0.0288504 -0.0224231)
(0.0552121 0.0364236 -0.0117933)
(0.0614705 0.0366097 -0.0052007)
(0.0810621 0.0420403 -0.0131594)
(0.0980966 0.0788711 -0.0433198)
(0.0777158 0.127149 -0.110554)
(0.0261338 0.121867 -0.124381)
(0.0121951 0.0643896 -0.0947714)
(0.0317944 0.0611611 -0.0927668)
(0.0561643 0.0585991 -0.0876533)
(0.0855821 0.0607495 -0.0805594)
(0.127299 0.0694109 -0.0811837)
(0.195374 0.068869 -0.115321)
(0.273031 0.0863371 -0.17268)
(0.325748 0.141241 -0.23668)
(0.323323 0.230096 -0.30228)
(0.214712 0.288614 -0.346124)
(0.0168565 0.0552854 -0.204198)
(0.0560242 0.0533471 -0.207587)
(0.105604 0.0507321 -0.218543)
(0.176335 0.0460458 -0.246544)
(0.289955 0.0337736 -0.314538)
(0.409874 0.00141944 -0.354181)
(0.355945 0.0787929 -0.24214)
(0.214217 0.314068 -0.0699839)
(0.119381 0.517606 -0.0803442)
(0.0667547 0.686455 -0.168214)
(0.030996 0.19858 0.0973453)
(0.0929893 0.18289 0.0847709)
(0.143016 0.150622 -0.0445938)
(0.181977 0.0750161 -0.177383)
(0.145657 -0.0341333 -0.214196)
(0.113655 0.201603 -0.104784)
(0.0180117 0.449057 0.103605)
(-0.0564163 0.607618 0.157654)
(-0.0912719 0.767878 0.100629)
(-0.0629276 0.839103 0.0344954)
(0.0301178 0.313951 -0.175537)
(0.0671133 0.260964 -0.194309)
(0.0807014 0.184958 -0.215623)
(0.0643435 0.121992 -0.141305)
(-0.0622289 0.160936 -0.0413756)
(-0.169333 0.403635 0.126415)
(-0.25499 0.550017 0.245783)
(-0.233772 0.618857 0.208801)
(-0.182063 0.74865 0.169866)
(-0.0988254 0.725723 0.135912)
(0.0174882 0.20052 -0.151273)
(0.017385 0.187485 -0.128127)
(-0.00968617 0.179129 -0.0710502)
(-0.100018 0.218549 0.0175399)
(-0.235831 0.332986 0.0998117)
(-0.30737 0.465768 0.204545)
(-0.336893 0.469434 0.218209)
(-0.242246 0.477228 0.13829)
(-0.155955 0.584541 0.109071)
(-0.0723322 0.542575 0.0981974)
(-0.00378658 0.226266 0.0412481)
(-0.0223561 0.234592 0.0546847)
(-0.0735591 0.257883 0.0837334)
(-0.16576 0.316613 0.120484)
(-0.253535 0.408201 0.163798)
(-0.273415 0.450465 0.200917)
(-0.255926 0.380129 0.1482)
(-0.179091 0.343608 0.0624444)
(-0.10493 0.412969 0.00670781)
(-0.0347161 0.410657 0.000793187)
(-0.0175024 0.225833 0.156755)
(-0.0202749 0.244848 0.157922)
(-0.0526798 0.27086 0.162302)
(-0.0994496 0.303593 0.168414)
(-0.13122 0.363273 0.183171)
(-0.127652 0.39089 0.178581)
(-0.0967829 0.336109 0.107553)
(-0.0968008 0.282591 0.0365125)
(-0.073555 0.299437 -0.0404788)
(-0.0113772 0.337721 -0.0631576)
(-0.0145731 0.127086 0.174834)
(-0.00058221 0.154322 0.175761)
(-0.0054839 0.184433 0.17294)
(-0.016028 0.201659 0.162321)
(-0.00431175 0.245046 0.152821)
(0.0206991 0.292786 0.133175)
(0.0477191 0.315034 0.0848737)
(-0.00193399 0.290878 0.0280826)
(-0.0468589 0.261062 -0.0408008)
(-0.00220328 0.299884 -0.0899944)
(-0.00448321 0.0593968 0.119545)
(-0.00948028 0.0847493 0.121769)
(-0.00583083 0.113497 0.120797)
(0.000794005 0.113207 0.106866)
(0.0342856 0.121418 0.0928979)
(0.080883 0.157967 0.0902432)
(0.108919 0.278298 0.0713322)
(0.060477 0.323823 0.0197488)
(-0.0194813 0.267851 -0.0325892)
(0.00626078 0.288277 -0.0970424)
(0.00665931 0.0446066 0.0788159)
(-0.0109016 0.0496649 0.0797108)
(-0.00212215 0.0495106 0.0755478)
(0.0166574 0.0351899 0.0608331)
(0.0496725 0.0250935 0.0545946)
(0.085575 0.0573294 0.0726424)
(0.102992 0.24225 0.072938)
(0.0715657 0.35357 0.0200059)
(0.00112855 0.293118 -0.0261842)
(0.0152298 0.292532 -0.0871517)
(0.00943854 0.00870481 0.0574365)
(0.00472083 0.00447109 0.0553663)
(0.00592441 0.00116205 0.0474038)
(0.0146031 -0.0154687 0.0369246)
(0.0335048 -0.0278734 0.0418755)
(0.0499781 0.031173 0.0624227)
(0.0635699 0.234228 0.0677059)
(0.0535616 0.373454 0.0259051)
(0.0115864 0.317302 -0.0136018)
(0.0219365 0.302633 -0.0632125)
(0.0055225 -0.00676529 0.0330972)
(-0.00125925 -0.00995076 0.0335032)
(-0.00692232 -0.0192564 0.0289996)
(-0.00654065 -0.0422326 0.0250006)
(-0.00940448 -0.0492353 0.0395765)
(-0.0130659 0.0340189 0.0598755)
(0.0099843 0.238016 0.0541916)
(0.0377591 0.377776 0.0281217)
(0.0125623 0.32811 0.0100413)
(0.0233098 0.323874 -0.0224085)
(0.000859803 -0.0158164 0.019904)
(-0.00721169 -0.0193136 0.0222977)
(-0.0179535 -0.0272849 0.0195936)
(-0.0292099 -0.047146 0.0176837)
(-0.0564167 -0.049585 0.0343793)
(-0.0827913 0.0413313 0.0682491)
(-0.0544984 0.238136 0.0688915)
(0.0147446 0.38667 0.0424201)
(-0.0178451 0.364812 0.0418847)
(-0.0033447 0.327964 0.0290583)
(0.00322268 -0.00217796 -0.0121784)
(0.00703362 -0.00191354 -0.0123714)
(0.01053 -0.00153129 -0.0122858)
(0.0135533 -0.000934815 -0.0122249)
(0.0154986 -9.78369e-05 -0.0121358)
(0.0158964 0.000839358 -0.0119783)
(0.0147006 0.00170888 -0.0117824)
(0.011875 0.0022313 -0.0113719)
(0.00908871 0.00251175 -0.0106795)
(0.00414985 0.00464313 -0.0126763)
(0.00436748 -0.0066324 -0.0159963)
(0.010002 -0.0047175 -0.0164562)
(0.0146461 -0.00242111 -0.0165203)
(0.0180922 0.000128137 -0.0161672)
(0.01997 0.00295205 -0.0156938)
(0.0199303 0.00584747 -0.0151384)
(0.0180324 0.00837791 -0.0145797)
(0.0143932 0.0098769 -0.0138922)
(0.0108007 0.0105537 -0.0130089)
(0.00491503 0.0164436 -0.0150733)
(0.00452141 -0.0124598 -0.0196129)
(0.0107126 -0.00878619 -0.0198286)
(0.0159328 -0.00455499 -0.019748)
(0.0197217 0.000249461 -0.0190572)
(0.0218975 0.00540017 -0.0182293)
(0.021921 0.0105286 -0.0172993)
(0.0198201 0.0149843 -0.0165164)
(0.0159907 0.0174615 -0.0157835)
(0.0123899 0.018884 -0.0147289)
(0.00591139 0.0293326 -0.0177591)
(0.00508521 -0.0146914 -0.0247741)
(0.0127586 -0.00962924 -0.0245576)
(0.019525 -0.0036683 -0.0243902)
(0.0242723 0.00284451 -0.0234582)
(0.0266049 0.0101644 -0.0223725)
(0.0263067 0.0177661 -0.0212468)
(0.0234326 0.0231742 -0.0204407)
(0.019 0.024263 -0.0190484)
(0.0139468 0.0252379 -0.0169994)
(0.00648633 0.0412849 -0.022816)
(0.00571131 -0.0182745 -0.034501)
(0.0145363 -0.0136038 -0.0337701)
(0.0222575 -0.00598487 -0.0333893)
(0.0280263 0.00329516 -0.0316978)
(0.0310616 0.0130496 -0.0293481)
(0.0296233 0.0227359 -0.0262596)
(0.0236427 0.0313013 -0.0218514)
(0.0160136 0.0364985 -0.013906)
(0.00619006 0.046251 -0.00770408)
(0.0016606 0.0666361 -0.0258089)
(0.00566725 -0.00800428 -0.043809)
(0.0151493 -0.00435048 -0.0415607)
(0.0242738 0.00384128 -0.0379127)
(0.0311356 0.0146374 -0.034268)
(0.0352509 0.0294824 -0.0320602)
(0.0365117 0.0469105 -0.0285767)
(0.0335299 0.0545845 -0.0231628)
(0.0273311 0.0496645 -0.0231641)
(0.00210636 0.0487889 -0.0417109)
(-0.00630144 0.0567517 -0.0585546)
(0.00957472 0.00508398 -0.0820139)
(0.01946 0.00646067 -0.0766322)
(0.0318871 0.0154846 -0.0660279)
(0.0445034 0.0275862 -0.0557232)
(0.0527999 0.0351047 -0.0484009)
(0.0606753 0.040042 -0.0440802)
(0.0715606 0.0473902 -0.0545187)
(0.0829983 0.0608522 -0.0872418)
(0.0490282 0.0735843 -0.12559)
(0.00791607 0.0543883 -0.113372)
(0.0182367 0.035253 -0.137)
(0.0409232 0.0346946 -0.13505)
(0.0643981 0.0364892 -0.132858)
(0.0935819 0.0455098 -0.1308)
(0.131922 0.0584779 -0.135092)
(0.181777 0.0702784 -0.157736)
(0.234357 0.077246 -0.20389)
(0.270816 0.0945154 -0.262868)
(0.273073 0.135365 -0.344369)
(0.174394 0.138926 -0.43448)
(0.0189862 -0.0121688 -0.288247)
(0.0641626 -0.00816522 -0.285444)
(0.115414 -0.00289416 -0.291166)
(0.180895 0.00344192 -0.303056)
(0.275027 0.00510253 -0.333079)
(0.383045 -0.0091848 -0.376164)
(0.408472 -0.0160203 -0.382533)
(0.270721 0.0568925 -0.270435)
(0.130477 0.308818 -0.203176)
(0.0976848 0.468369 -0.33185)
(0.0394892 0.0651212 -0.234703)
(0.0997665 0.0492398 -0.187754)
(0.116733 0.0128617 -0.197556)
(0.114967 -0.0591725 -0.209928)
(0.0225051 -0.167328 -0.19857)
(0.00989444 -0.0123946 -0.188736)
(-0.0111155 0.255177 -0.0575058)
(-0.0340701 0.372379 0.048628)
(-0.0805192 0.557365 0.0274332)
(-0.0267037 0.644363 -0.116127)
(0.020385 0.0224418 -0.215966)
(0.0350596 -0.013932 -0.209371)
(0.027005 -0.0413136 -0.184777)
(-0.00298096 -0.0515542 -0.148331)
(-0.132323 -0.0438535 -0.13344)
(-0.218178 0.115733 -0.0301588)
(-0.218264 0.322517 0.123901)
(-0.172879 0.40349 0.159737)
(-0.166191 0.577796 0.15732)
(-0.0915368 0.612991 0.049559)
(-0.0070547 -0.161088 -0.133657)
(0.00485518 -0.133709 -0.118204)
(-0.0232562 -0.0991736 -0.0863692)
(-0.082636 -0.0437913 -0.0442885)
(-0.218796 0.0584294 0.0138856)
(-0.293793 0.184114 0.104968)
(-0.257458 0.262311 0.156616)
(-0.179057 0.28652 0.134138)
(-0.135689 0.430784 0.139756)
(-0.0790979 0.511368 0.0808593)
(-0.0302033 -0.13507 0.0270593)
(-0.0245486 -0.0795613 0.0539516)
(-0.0607549 -0.00992294 0.0921763)
(-0.12765 0.0796474 0.135689)
(-0.203008 0.167107 0.157349)
(-0.230087 0.219359 0.167544)
(-0.188212 0.199056 0.132874)
(-0.144857 0.180316 0.0874992)
(-0.087335 0.25467 0.054502)
(-0.0374706 0.421168 0.0323695)
(-0.0355574 -0.120025 0.14163)
(-0.037985 -0.0618163 0.170473)
(-0.0553009 0.00498111 0.199097)
(-0.0724211 0.0799501 0.223635)
(-0.0797274 0.173409 0.234417)
(-0.0678549 0.223898 0.201169)
(-0.0510529 0.186592 0.124982)
(-0.0746382 0.132942 0.0715463)
(-0.0493947 0.133028 -0.00946929)
(-0.00535599 0.342521 -0.0215901)
(-0.0227035 -0.0984626 0.163353)
(-0.0408196 -0.0505756 0.187055)
(-0.0438441 0.00358284 0.203582)
(-0.0346813 0.0457053 0.209186)
(0.0038343 0.0983612 0.212587)
(0.0550735 0.165336 0.193794)
(0.0592931 0.19602 0.132028)
(0.00972207 0.148264 0.0724123)
(-0.0192243 0.110554 -0.0274867)
(0.00790463 0.276864 -0.0601331)
(-0.00102806 -0.0535116 0.138036)
(-0.0349392 -0.0292358 0.148946)
(-0.0356962 -0.00392396 0.150466)
(-0.0186406 0.00328093 0.140398)
(0.0188287 0.0170211 0.132461)
(0.0686899 0.0797887 0.146851)
(0.0854627 0.203965 0.1286)
(0.0429574 0.188193 0.0656641)
(-0.00799591 0.146411 -0.0400319)
(0.0122894 0.246323 -0.0800777)
(0.00850523 -0.0293007 0.112912)
(-0.00952389 -0.0274993 0.112507)
(-0.0099021 -0.0253773 0.102165)
(-0.00123845 -0.0252734 0.0853447)
(0.0182746 -0.0125791 0.0738275)
(0.036731 0.0636785 0.0816119)
(0.0628371 0.225016 0.111985)
(0.0333628 0.237819 0.0445408)
(-0.0154973 0.196924 -0.0631952)
(0.00787393 0.234828 -0.0816833)
(0.00875978 -0.0324969 0.0749634)
(0.00172044 -0.0299583 0.0745014)
(-0.00770282 -0.0290005 0.065912)
(-0.00758441 -0.0412228 0.0559759)
(-0.0010287 -0.0249545 0.046316)
(0.00935322 0.079678 0.0297642)
(0.0365742 0.252307 0.0744839)
(0.0231231 0.290211 0.013956)
(-0.0199515 0.248559 -0.0671248)
(0.000493976 0.223831 -0.0651454)
(0.00447362 -0.0243742 0.0438903)
(-0.00355045 -0.0253033 0.0487273)
(-0.0139803 -0.0332026 0.0450617)
(-0.0203141 -0.0499768 0.0421128)
(-0.0287703 -0.0319758 0.039558)
(-0.0165838 0.0853696 0.0183289)
(0.0222261 0.271561 0.0182129)
(0.028668 0.326319 -0.0207827)
(-0.0136536 0.295126 -0.0489479)
(-0.00207332 0.225406 -0.00920702)
(0.00116381 -0.0239428 0.0277128)
(-0.0062436 -0.0252707 0.035515)
(-0.0205322 -0.0318355 0.0337404)
(-0.0357342 -0.0483859 0.035068)
(-0.0607781 -0.0355965 0.041488)
(-0.0567618 0.0809239 0.0357277)
(-0.00056984 0.268052 -0.00390755)
(0.02906 0.342568 -0.0322754)
(-0.02788 0.3207 0.00621921)
(-0.0218157 0.207311 0.0724558)
(0.00307881 -0.0020773 -0.0117093)
(0.00710641 -0.00196589 -0.0122028)
(0.0110395 -0.00180146 -0.0132932)
(0.014147 -0.00133481 -0.0140842)
(0.016166 -0.000578872 -0.0144665)
(0.0165528 0.000319261 -0.0145862)
(0.0152471 0.00119576 -0.0144654)
(0.0123226 0.00171303 -0.0138734)
(0.00940336 0.00201365 -0.0129858)
(0.00427434 0.00409389 -0.0156933)
(0.00400761 -0.0076513 -0.0171739)
(0.00967263 -0.00646627 -0.0181142)
(0.0152521 -0.00449518 -0.0188103)
(0.0191065 -0.00181879 -0.0192256)
(0.0210844 0.00108666 -0.0191574)
(0.0210317 0.00411301 -0.0187119)
(0.0189792 0.00679782 -0.0181049)
(0.0150833 0.00833459 -0.0171514)
(0.0111973 0.00913172 -0.0158902)
(0.00505338 0.0147248 -0.0185526)
(0.00471917 -0.0136563 -0.021778)
(0.0107851 -0.012263 -0.0227578)
(0.016873 -0.00813667 -0.022817)
(0.0212403 -0.00291096 -0.022679)
(0.0235174 0.00243836 -0.0221884)
(0.0235046 0.00771083 -0.0213267)
(0.0211253 0.0122509 -0.0203296)
(0.016855 0.0148564 -0.0190542)
(0.0127107 0.0163521 -0.0173708)
(0.00587134 0.0260512 -0.0211849)
(0.00645462 -0.0152633 -0.0300544)
(0.0140385 -0.0158914 -0.0297457)
(0.0210884 -0.0104429 -0.0292923)
(0.026428 -0.00307171 -0.0284763)
(0.0289926 0.00483321 -0.0275076)
(0.0286369 0.0133219 -0.0261998)
(0.0255276 0.0201024 -0.0249635)
(0.0204431 0.0226961 -0.0228085)
(0.0151877 0.0242365 -0.0199252)
(0.00701799 0.0385221 -0.0260466)
(0.0097972 -0.0172619 -0.0443884)
(0.0191923 -0.0204205 -0.0416085)
(0.026917 -0.0138419 -0.040607)
(0.0334294 -0.00334073 -0.0392318)
(0.0370851 0.0073025 -0.0372987)
(0.0362858 0.017156 -0.0343708)
(0.029847 0.0258447 -0.0288347)
(0.0211349 0.0310162 -0.0199397)
(0.0126128 0.0372063 -0.014664)
(0.00472762 0.054255 -0.0314998)
(0.0133943 -0.0164616 -0.0628944)
(0.0243951 -0.0208305 -0.0575349)
(0.0326437 -0.014477 -0.0533016)
(0.0400819 -0.0023189 -0.0492233)
(0.0432363 0.0139441 -0.0453541)
(0.0417937 0.0368523 -0.0397996)
(0.0349462 0.0554326 -0.0313317)
(0.0232952 0.0564441 -0.0241686)
(0.00155461 0.0538018 -0.0334029)
(-0.00512477 0.0605456 -0.0574883)
(0.0188942 -0.0130721 -0.103823)
(0.0323714 -0.0146041 -0.0946851)
(0.0407426 -0.00526367 -0.0858453)
(0.0531108 0.0130896 -0.0771387)
(0.060062 0.0285325 -0.0674012)
(0.0628969 0.0386371 -0.0592425)
(0.065396 0.0479926 -0.0602088)
(0.0615484 0.0512278 -0.0749674)
(0.0226568 0.0413355 -0.097292)
(-0.0013364 0.0269741 -0.0917458)
(0.0217567 -0.0174008 -0.156226)
(0.0522211 -0.0158919 -0.150743)
(0.0750576 -0.00960238 -0.14577)
(0.101103 0.00702372 -0.143652)
(0.132344 0.0292869 -0.146013)
(0.168197 0.0499755 -0.159226)
(0.201128 0.0653253 -0.189714)
(0.219381 0.0756451 -0.234314)
(0.205157 0.080506 -0.296391)
(0.130274 0.0653169 -0.361572)
(0.0189511 -0.0860401 -0.288181)
(0.0651604 -0.0799056 -0.274263)
(0.113266 -0.0725884 -0.273827)
(0.176439 -0.0639985 -0.285271)
(0.26012 -0.0455869 -0.307627)
(0.351417 -0.0260615 -0.34799)
(0.409019 -0.0201938 -0.394176)
(0.392521 -0.0153164 -0.395445)
(0.268502 0.0905158 -0.337327)
(0.214356 0.210057 -0.45525)
(0.0362536 -0.107182 -0.256647)
(0.0612847 -0.125018 -0.159584)
(0.0369976 -0.151438 -0.131812)
(0.0340499 -0.169445 -0.113461)
(-0.00862725 -0.208588 -0.113876)
(-0.0615256 -0.134963 -0.0994445)
(-0.0477127 0.0563691 -0.0351336)
(0.0545314 0.238511 -0.0104753)
(-0.00715145 0.386449 -0.00849232)
(0.115814 0.520173 -0.213838)
(0.0125841 -0.0814371 -0.0785201)
(0.00498687 -0.1183 -0.078526)
(-0.0111036 -0.165883 -0.0757375)
(-0.0176746 -0.187664 -0.0498732)
(-0.0698055 -0.193228 -0.0225087)
(-0.16169 -0.172922 0.0298267)
(-0.15921 -0.0828658 0.103757)
(-0.0829218 0.118726 0.161961)
(-0.109072 0.422491 0.180623)
(0.0297165 0.543442 -0.0426809)
(-0.00588876 -0.242087 -0.0847455)
(-0.00731288 -0.242854 -0.0652112)
(-0.0241648 -0.243174 -0.027708)
(-0.0350947 -0.227355 0.0260374)
(-0.0763922 -0.169121 0.0654301)
(-0.144066 -0.0911209 0.107969)
(-0.160569 -0.0487998 0.153454)
(-0.116775 0.0283031 0.185858)
(-0.11072 0.310433 0.223156)
(-0.0271963 0.482479 0.0353197)
(-0.0216802 -0.246412 -0.00651484)
(-0.0315419 -0.228164 0.0385031)
(-0.0537369 -0.204076 0.0817654)
(-0.0634509 -0.161755 0.131899)
(-0.0754503 -0.0990999 0.166692)
(-0.0897594 -0.0418312 0.172646)
(-0.111692 -0.0523763 0.150612)
(-0.101087 -0.0300131 0.130602)
(-0.0917291 0.193474 0.138406)
(-0.0537576 0.419113 0.0506452)
(-0.0224991 -0.225838 0.0845317)
(-0.0446296 -0.203291 0.131671)
(-0.0648905 -0.17337 0.164147)
(-0.0585589 -0.135027 0.197253)
(-0.0377861 -0.0749193 0.220884)
(-0.00755346 -0.00366896 0.213463)
(-0.0495851 -0.0133048 0.141393)
(-0.0825089 -0.0240029 0.0617578)
(-0.0793705 0.140245 0.00997254)
(-0.0521688 0.334893 0.0298112)
(-0.00902393 -0.164321 0.122747)
(-0.0408139 -0.149145 0.156659)
(-0.0588676 -0.125892 0.169383)
(-0.0521477 -0.102853 0.176785)
(-0.0301174 -0.0658793 0.188165)
(0.00751781 0.0117274 0.200507)
(-0.0367015 0.0509184 0.120577)
(-0.0904694 0.0397874 0.00154161)
(-0.0727811 0.140148 -0.0744676)
(-0.0287938 0.240271 -0.0239754)
(0.00491736 -0.106508 0.125195)
(-0.0213086 -0.102116 0.140237)
(-0.0359997 -0.0916783 0.135402)
(-0.0355246 -0.0802545 0.124669)
(-0.0325418 -0.0417909 0.116052)
(-0.0258049 0.05542 0.133536)
(-0.0567122 0.11897 0.0862302)
(-0.109995 0.0993815 -0.0377346)
(-0.0723944 0.147237 -0.103998)
(-0.0137715 0.175983 -0.0629218)
(0.00783737 -0.0756255 0.102497)
(-0.00383949 -0.0736744 0.108859)
(-0.0186876 -0.067386 0.0986218)
(-0.0272274 -0.0615858 0.0857906)
(-0.0349037 -0.0204352 0.06505)
(-0.0418286 0.104177 0.0566407)
(-0.060798 0.181544 0.0526772)
(-0.110845 0.137081 -0.051032)
(-0.074976 0.124087 -0.111018)
(-0.0211213 0.120118 -0.0760609)
(0.00637728 -0.0567405 0.062672)
(6.48716e-05 -0.0513908 0.0762421)
(-0.0163669 -0.0508463 0.0705592)
(-0.0247771 -0.0550945 0.0638198)
(-0.0331695 -0.0238962 0.0450824)
(-0.0305707 0.105688 0.01141)
(-0.0242939 0.234612 0.0171073)
(-0.071162 0.174605 -0.0354276)
(-0.0701348 0.100884 -0.0794606)
(-0.0283015 0.0585134 -0.0631995)
(0.00298148 -0.0415723 0.0400032)
(-0.000554669 -0.0403353 0.0568424)
(-0.0163869 -0.0443729 0.0537261)
(-0.025548 -0.0522025 0.0519285)
(-0.0356131 -0.035311 0.0425554)
(-0.025651 0.0682007 0.0129451)
(0.0184742 0.240154 -0.00977549)
(-0.00900586 0.206776 -0.0111426)
(-0.0599233 0.105285 -0.0055743)
(-0.0276368 0.0208019 0.0117946)
(0.000775306 -0.0333739 0.0245944)
(-0.000499419 -0.0334714 0.0447948)
(-0.0193055 -0.03732 0.0431426)
(-0.031568 -0.0466767 0.0458196)
(-0.0492739 -0.0428524 0.0475939)
(-0.0454205 0.0331295 0.0389813)
(0.0121635 0.188773 0.00789741)
(0.00720416 0.210701 0.024085)
(-0.0703043 0.122931 0.0728478)
(-0.0282183 -0.00324367 0.0883717)
(0.00245242 -0.00156364 -0.0112334)
(0.00575259 -0.00195357 -0.0123846)
(0.0101056 -0.00201842 -0.0134297)
(0.0136665 -0.00189957 -0.0144578)
(0.0160291 -0.00136819 -0.015232)
(0.016572 -0.000489622 -0.015486)
(0.0154202 0.000367637 -0.0154568)
(0.0125523 0.000852338 -0.0147893)
(0.00966711 0.00127633 -0.013753)
(0.00446162 0.00345709 -0.017088)
(0.00398354 -0.00787883 -0.0159953)
(0.0082353 -0.00857408 -0.0179635)
(0.01437 -0.00759917 -0.0199159)
(0.0190452 -0.00515377 -0.0206236)
(0.0215192 -0.00204502 -0.0208605)
(0.0216456 0.00126244 -0.0204373)
(0.0195964 0.00417967 -0.0198581)
(0.015677 0.00586075 -0.0187378)
(0.0117011 0.00700141 -0.0171803)
(0.00530872 0.0127382 -0.0202508)
(0.00720821 -0.014635 -0.0240558)
(0.0114327 -0.0168958 -0.0228881)
(0.0170133 -0.0143076 -0.0242859)
(0.0218911 -0.00893475 -0.0243889)
(0.024446 -0.00285129 -0.024124)
(0.0245719 0.00290702 -0.02334)
(0.0221843 0.00767341 -0.0222887)
(0.0177835 0.0104476 -0.0206844)
(0.0132209 0.0124608 -0.0185389)
(0.00597945 0.0223788 -0.0226683)
(0.0115363 -0.0157276 -0.0375323)
(0.0166786 -0.0221798 -0.0313423)
(0.0222419 -0.0198857 -0.0315513)
(0.0279323 -0.0125169 -0.0312637)
(0.0305997 -0.00382139 -0.030391)
(0.030231 0.00532887 -0.0290031)
(0.0269295 0.013343 -0.0274717)
(0.0216056 0.0174847 -0.0251408)
(0.0159054 0.0204168 -0.0215265)
(0.00736288 0.0344395 -0.0273898)
(0.0160329 -0.0203391 -0.0552379)
(0.0247652 -0.0289097 -0.0441689)
(0.0301822 -0.0268498 -0.0426035)
(0.036347 -0.0160559 -0.0420894)
(0.0401577 -0.00281668 -0.0408865)
(0.0403341 0.00828994 -0.0388954)
(0.0349713 0.0167875 -0.034648)
(0.0256939 0.0220127 -0.0264398)
(0.0153901 0.0271779 -0.0195195)
(0.00553929 0.0440339 -0.0328451)
(0.0202799 -0.0285177 -0.0807737)
(0.0355273 -0.0362276 -0.065358)
(0.0412823 -0.0342955 -0.0604901)
(0.0485652 -0.0218619 -0.0578228)
(0.0515765 -0.00625198 -0.0538785)
(0.0487385 0.0139571 -0.047643)
(0.0402431 0.0379239 -0.0383668)
(0.0271183 0.0500282 -0.0286282)
(0.0086431 0.0535764 -0.031177)
(-0.00102035 0.0609224 -0.0569594)
(0.0234668 -0.0440167 -0.118285)
(0.0460852 -0.0439953 -0.0997445)
(0.0532065 -0.037492 -0.0901355)
(0.0636959 -0.018335 -0.0858316)
(0.0730665 0.00991783 -0.0807203)
(0.0719408 0.0301595 -0.0689196)
(0.06354 0.040918 -0.0590215)
(0.0485509 0.0455265 -0.0587274)
(0.00642948 0.0388892 -0.0632284)
(-0.00908212 0.0307066 -0.0703154)
(0.0218634 -0.0667146 -0.164395)
(0.0579048 -0.0613657 -0.150516)
(0.0807207 -0.0538573 -0.140342)
(0.104401 -0.0390297 -0.136757)
(0.13314 -0.00885915 -0.140267)
(0.154748 0.0250396 -0.146007)
(0.169165 0.0506496 -0.161296)
(0.170034 0.0681488 -0.184557)
(0.136846 0.0630587 -0.213711)
(0.0811632 0.03309 -0.229849)
(0.018758 -0.1456 -0.273772)
(0.066118 -0.129049 -0.242202)
(0.104536 -0.119234 -0.22668)
(0.15782 -0.117237 -0.232888)
(0.2247 -0.1004 -0.253084)
(0.305503 -0.0529602 -0.294452)
(0.368552 -0.0232429 -0.343712)
(0.398788 -0.0120231 -0.379742)
(0.366317 -0.0128281 -0.408719)
(0.275937 0.0031825 -0.511662)