/*--------------------------------*- C++ -*----------------------------------*\
| =========                 |                                                 |
| \\      /  F ield         | OpenFOAM: The Open Source CFD Toolbox           |
|  \\    /   O peration     | Version:  2312                                  |
|   \\  /    A nd           | Website:  www.openfoam.com                      |
|    \\/     M anipulation  |                                                 |
\*---------------------------------------------------------------------------*/
FoamFile
{
    version     2.0;
    format      ascii;
    arch        "LSB;label=32;scalar=64";
    class       volScalarField;
    location    "0.85";
    object      alpha.water;
}
// * * * * * * * * * * * * * * * * * * * * * * * * * * * * * * * * * * * * * //

dimensions      [0 0 0 0 0 0 0];

internalField   nonuniform List<scalar> 
8000
(
1
1
1
1
1
1
1
1
1
1
1
1
1
1
1
1
1
1
1
1
1
1
1
1
1
1
1
1
0.999997
1
1
1
1
1
1
1
1
1
0.999713
0.998678
1
1
1
1
1
1
1
0.99999
0.999729
0.996917
0.999992
0.999997
0.999998
0.999997
0.999999
0.999999
0.999989
0.999722
0.991694
0.996426
0.948754
0.944133
0.930255
0.953971
0.997231
0.998992
0.972461
0.761873
0.484286
0.848648
0.752313
0.670152
0.627138
0.572748
0.554729
0.55185
0.357795
0.0859941
3.28986e-06
0.140802
0.361608
0.315506
0.24979
0.164024
0.0580078
2.14622e-06
2.45012e-06
2.82515e-06
2.95735e-06
3.28986e-06
0.000533817
2.04352e-06
2.04853e-06
2.05132e-06
2.06404e-06
2.08562e-06
2.14622e-06
2.59717e-06
2.86697e-06
3.54248e-06
2.01536e-06
2.02556e-06
2.04611e-06
2.06383e-06
2.75055e-06
2.14622e-06
2.45012e-06
2.82515e-06
5.91717e-06
4.45887e-06
2.02556e-06
2.04611e-06
2.0731e-06
3.50376e-06
1.29032e-05
4.85995e-06
4.78514e-06
3.44934e-06
4.21743e-06
3.80538e-06
5.70875e-06
5.99377e-06
2.19606e-06
4.94084e-06
8.5847e-06
1.06076e-05
3.96033e-06
3.9243e-06
3.80538e-06
3.73021e-06
1.1141e-05
8.59713e-06
6.74522e-06
3.13094e-05
5.07872e-05
6.03624e-05
7.0103e-05
1.57284e-05
3.73021e-06
3.73021e-06
1.13422e-05
9.37807e-06
9.88025e-05
0.000242061
0.000269143
0.000232576
0.000255663
0.000257942
0.000198117
1.62976e-05
1.23903e-05
8.69952e-05
0.000262015
0.00034194
0.000343674
0.000342867
0.0002653
0.000262315
0.000259636
9.73659e-05
7.0223e-05
0.000213644
0.000295506
0.000338083
0.000342995
0.00033774
0.000306979
3.08514e-05
2.78976e-05
3.4084e-05
0.000105754
0.000132763
0.000178499
0.000334621
0.00031947
0.000164563
0.000130054
6.17689e-05
8.09357e-06
7.99575e-06
2.71505e-05
9.25843e-06
0.000133424
0.000319839
0.000106965
1.46542e-05
1.70126e-05
3.51319e-05
2.38721e-05
7.94653e-06
6.14618e-07
8.51245e-06
5.66295e-05
3.6774e-05
1.05683e-05
1.26956e-05
1.51161e-05
1.9034e-05
3.12631e-05
1.91373e-05
1
1
1
1
1
1
1
1
1
1
1
1
1
1
1
1
1
1
1
1
1
1
1
1
1
1
1
1
1
0.999998
1
1
1
1
1
1
0.999999
0.999999
0.999989
0.99925
1
1
1
1
1
1
0.999999
0.999963
0.999743
0.998674
0.999862
0.999893
0.99991
1
1
0.999999
0.999954
0.99609
0.93995
0.998605
0.991682
0.993655
0.992728
0.997608
0.999986
0.997767
0.940179
0.607085
0.292146
0.773218
0.947466
0.945868
0.926566
0.863657
0.695197
0.527393
0.268396
0.0407133
1.11016e-05
0.0653071
0.243085
0.194082
0.138798
0.0900556
0.0402498
4.32849e-06
5.5954e-06
3.89365e-06
3.28986e-06
3.64939e-06
2.04031e-06
2.04395e-06
2.05134e-06
2.06404e-06
2.08562e-06
2.1538e-06
2.45012e-06
2.82515e-06
3.09953e-06
8.43941e-05
2.01677e-06
2.05653e-06
2.073e-06
2.10583e-06
1.2498e-05
7.24548e-05
8.51833e-05
3.23683e-05
0.000114476
0.000752386
2.26443e-06
4.11674e-06
2.83866e-06
2.87192e-06
4.51579e-05
0.000221159
0.000224298
4.70889e-05
0.000124813
0.000860977
2.56378e-06
7.21465e-06
4.96845e-06
2.32564e-06
6.33428e-05
0.000261318
0.000342835
8.87365e-05
4.19008e-05
0.000447349
2.76468e-05
4.13257e-05
8.24075e-06
4.41504e-06
0.000191571
0.000284978
0.000326572
0.000239389
1.59238e-05
3.73021e-06
5.0289e-05
5.62004e-05
8.66057e-06
0.000126623
0.000344529
0.000346442
0.000213411
0.0002557
0.000147669
1.11885e-05
7.40111e-05
4.98783e-05
7.24219e-05
0.000340801
0.000346035
0.000252113
0.000138956
0.000153035
0.000259525
1.09312e-05
8.37895e-05
6.53078e-05
0.000297684
0.000341842
0.000211026
2.02779e-05
0.00010245
1.19191e-05
1.32507e-05
7.99575e-06
6.02496e-05
0.000204508
0.00030286
0.000268446
7.75463e-06
1.00993e-05
4.69792e-05
2.35624e-05
7.99575e-06
7.95174e-06
9.27919e-06
8.97336e-05
0.000167136
2.30611e-05
7.9699e-06
2.22043e-05
9.05174e-05
8.55097e-05
7.95174e-06
7.86695e-06
8.51468e-07
7.41539e-06
5.87478e-06
6.3083e-06
7.52328e-06
4.15716e-05
9.8893e-05
4.56258e-05
2.0794e-05
7.78168e-06
1
1
1
1
1
1
1
1
1
1
1
1
1
1
1
1
1
1
1
1
1
1
1
1
1
1
1
0.999999
1
0.999998
1
1
1
1
1
1
0.999991
0.999961
0.999975
0.999976
1
1
1
1
1
1
0.999986
0.999972
0.999963
0.999998
0.99998
0.99999
0.999986
0.999999
1
1
0.999986
0.999779
0.996013
0.99993
0.999997
0.999999
0.999999
0.999999
1
0.999986
0.985255
0.821278
0.64584
0.945945
0.924343
0.916108
0.915487
0.950244
0.923075
0.749081
0.509001
0.219118
0.0737452
0.27989
0.299093
0.245032
0.177408
0.140929
0.105118
0.0525882
2.84581e-05
1.57683e-05
1.11016e-05
2.41976e-05
6.29221e-05
2.01408e-06
0.00263887
2.10601e-06
2.30454e-06
4.33607e-06
5.59533e-06
3.89355e-06
6.96072e-06
9.55647e-05
2.04079e-06
2.60237e-06
2.5857e-06
5.82936e-06
2.38803e-05
0.000238535
0.000326961
0.00019953
0.000244976
0.00275169
2.00611e-05
4.04751e-05
1.26428e-05
2.35802e-06
2.49899e-05
0.000383486
0.000383486
0.000325267
0.000421195
0.00280706
1.6809e-05
8.72794e-06
2.09406e-06
2.25396e-06
0.000182464
0.000379
0.000380775
0.000143844
0.00021393
0.00280706
1.70209e-06
1.81891e-06
3.2847e-06
3.09993e-06
0.000342408
0.000298034
0.000159442
0.00010736
2.3138e-05
0.00155994
1.62702e-06
2.02181e-05
2.14442e-05
0.000117756
0.000346463
1.3927e-05
8.18391e-06
0.000121273
3.84999e-05
4.11615e-05
1.54122e-06
4.80284e-05
4.37369e-05
0.000341827
0.000227034
7.86048e-06
9.09291e-06
1.19252e-05
3.24671e-05
0.000147322
1.79558e-05
5.45452e-05
0.000217755
0.000319256
7.72491e-06
7.66653e-06
8.00119e-06
9.45724e-06
1.19191e-05
0.000610101
6.00458e-05
0.000139451
0.000302992
0.000111071
7.1484e-06
7.75468e-06
3.37964e-05
7.70488e-05
5.27548e-05
0.000486747
3.44528e-05
0.000125575
0.000158227
6.3083e-06
6.57564e-06
2.05006e-05
0.000202971
0.000231134
0.000153087
1.04297e-05
8.99745e-07
1.92564e-05
5.42354e-06
5.74587e-06
5.19055e-06
6.99079e-05
0.000199165
0.000199982
7.68184e-06
7.31404e-06
1
1
1
1
1
1
1
1
1
1
1
1
1
1
1
1
1
1
1
1
1
1
1
1
1
1
1
1
0.999998
1
0.999999
1
1
1
1
1
0.999995
0.999974
0.999984
1
0.999983
1
1
1
1
1
0.999979
0.999947
0.999999
1
1
1
1
1
1
1
0.999999
0.999989
0.999981
0.999999
0.999999
1
1
1
1
0.999999
0.999973
0.991112
0.97273
0.999407
0.905027
0.887189
0.8688
0.890874
0.949312
0.929412
0.782682
0.560562
0.389846
0.597595
0.321236
0.283381
0.236378
0.183655
0.124171
0.0817133
0.0445477
0.0127266
5.14238e-05
0.0180276
0.000933754
0.000680609
0.000384633
2.6533e-06
1.08975e-05
1.75582e-05
2.84581e-05
1.57682e-05
1.78995e-05
5.51379e-05
6.29258e-05
7.90028e-06
1.79095e-05
9.33779e-06
2.24959e-05
0.000149864
0.000191955
0.000262386
0.000153104
9.58092e-05
2.33438e-05
8.75313e-06
2.99759e-06
2.29311e-06
6.86059e-06
0.000285173
0.000342296
0.000340478
0.000285846
0.000109433
2.85048e-06
2.23842e-06
1.58031e-06
1.98679e-06
0.000153105
4.87193e-05
8.09593e-06
0.000160123
6.99044e-05
3.88577e-05
1.70676e-06
1.57175e-06
1.49093e-06
5.04051e-06
0.000344375
1.815e-05
8.18391e-06
8.44433e-06
0.000742799
0.00188708
1.61868e-06
1.62915e-06
1.94578e-06
0.000130486
0.000341655
8.03879e-06
8.04104e-06
8.1839e-06
0.000509824
0.00189211
1.53237e-06
1.67322e-06
3.01191e-05
0.000305751
5.05708e-05
7.98972e-06
8.09345e-06
8.93174e-06
0.000285202
0.00187051
1.4659e-06
3.06013e-05
0.000128831
0.000295454
7.39547e-06
7.81454e-06
8.828e-06
9.59163e-05
0.00113804
0.00182958
5.12589e-06
7.41264e-05
0.00029395
0.000105515
6.82269e-06
7.52493e-06
1.51487e-05
0.000704576
0.00155445
0.00157196
3.53402e-05
0.000100268
0.000174568
5.76102e-06
5.19055e-06
8.74139e-06
0.000101568
0.000232184
8.99238e-05
5.46602e-06
3.92683e-05
2.66423e-05
3.10571e-05
5.43899e-06
3.4051e-06
2.67279e-05
0.000213058
0.000223775
1.0273e-05
6.49983e-06
1
1
1
1
1
1
1
1
1
1
1
1
1
1
1
1
1
1
1
1
1
1
1
1
1
1
1
1
1
1
1
1
1
1
1
1
1
1
1
1
1
0.999991
1
1
1
1
0.999997
0.999998
1
1
0.998406
0.999895
1
1
1
1
0.999999
1
1
1
0.999999
1
1
1
1
1
0.999999
0.99999
0.999981
0.999999
0.910335
0.897084
0.892744
0.891898
0.939414
0.979655
0.960374
0.865488
0.746181
0.736201
0.307425
0.29993
0.290504
0.248859
0.191706
0.151945
0.115948
0.103435
0.0585132
0.162999
0.00203985
0.00145621
0.000832711
0.000342252
0.000108108
1.14174e-05
1.00603e-05
1.48576e-05
1.83835e-05
0.000116288
0.000263324
0.000142535
5.97496e-05
1.95539e-05
1.0898e-05
1.00603e-05
9.32856e-06
9.88553e-06
1.37585e-05
0.000195764
2.55928e-05
8.74153e-06
3.06767e-06
2.50643e-06
8.49559e-06
3.90528e-05
1.66751e-05
5.67149e-05
8.0263e-05
5.62734e-05
2.77442e-06
1.57172e-06
1.49093e-06
2.17067e-06
1.02853e-05
8.28527e-06
8.11201e-06
8.1119e-06
5.39058e-05
1.42124e-05
1.57173e-06
1.49067e-06
1.49093e-06
1.52532e-06
0.000202497
2.32461e-05
8.07101e-06
1.15993e-05
0.000266695
0.00010403
1.62782e-06
1.56744e-06
1.49093e-06
0.000145825
0.000312818
8.05791e-06
8.18391e-06
3.65051e-05
0.000413984
0.000289302
4.91041e-06
1.62915e-06
3.952e-05
0.000291305
4.53329e-05
8.09344e-06
8.93173e-06
0.000101545
0.000968287
0.000872329
1.7904e-06
2.21789e-06
9.25487e-05
0.000213252
7.81454e-06
8.93837e-06
1.92425e-05
0.000596247
0.00110501
0.000712457
3.83532e-06
1.38813e-05
9.16944e-05
6.27528e-05
7.21774e-06
1.17918e-05
8.73185e-05
0.000266689
0.000320338
5.44479e-05
6.46832e-05
3.60617e-05
6.76946e-05
4.1808e-05
1.16001e-05
3.0344e-05
6.01654e-05
1.18931e-05
5.88545e-06
4.8229e-06
6.95793e-05
2.93342e-05
3.77219e-05
1.62493e-05
2.36617e-06
2.06648e-05
6.81883e-05
0.000126425
8.5718e-05
4.68111e-05
1
1
1
1
1
1
1
1
1
1
1
1
1
1
1
1
1
1
1
1
1
1
1
1
1
1
1
1
1
1
1
1
1
1
1
1
1
1
1
1
1
1
0.999996
1
1
1
1
1
1
1
0.998375
0.999339
1
1
1
1
1
1
1
1
0.999994
1
1
1
1
1
1
1
1
1
0.938389
0.930955
0.937657
0.933053
0.93386
0.965758
0.999998
0.986609
0.915298
0.755952
0.316157
0.337501
0.350095
0.342376
0.342565
0.351524
0.329978
0.337752
0.292443
0.349346
0.00134043
0.000906042
0.000467031
0.000181563
8.6322e-05
1.15389e-05
8.71023e-06
0.000646724
0.0124187
0.0775253
0.000120019
5.3828e-05
2.07436e-05
1.40476e-05
9.77057e-06
1.14038e-05
9.16243e-06
8.7862e-06
8.62077e-06
8.66687e-06
8.33873e-06
2.13588e-06
2.90572e-06
8.9776e-06
9.35093e-06
4.12646e-05
1.08681e-05
8.61495e-06
8.61422e-06
8.62077e-06
1.81971e-06
1.62531e-06
2.59738e-06
1.57878e-05
8.38422e-06
8.55894e-06
8.11199e-06
8.33404e-06
8.6151e-06
8.61026e-06
1.62526e-06
1.55796e-06
8.64173e-06
1.55136e-05
3.35207e-05
8.52934e-06
8.31313e-06
2.92217e-05
8.62077e-06
1.22246e-05
1.68329e-06
1.89234e-06
4.1344e-06
8.18344e-05
0.000173553
8.34107e-06
2.94279e-05
3.72094e-05
9.33524e-05
8.01912e-06
2.1391e-05
1.87657e-06
2.3514e-05
0.000228762
0.000187397
9.04101e-06
2.57912e-05
0.000232517
0.000401599
5.50167e-06
4.33639e-05
2.59384e-06
3.23997e-05
0.000156546
5.88373e-05
1.22111e-05
6.26211e-05
0.00029085
0.000323039
4.83415e-06
5.23087e-05
4.41475e-06
8.46437e-06
6.56288e-05
6.43128e-06
4.27886e-05
8.26873e-05
4.41114e-05
3.44279e-05
4.62115e-06
6.95793e-05
5.42273e-05
6.26291e-06
5.14842e-06
5.7507e-06
3.07217e-05
6.82929e-05
5.77928e-05
5.47804e-06
4.68897e-06
6.97573e-05
6.95793e-05
1.11715e-05
1.21183e-06
8.38207e-06
4.53466e-06
1.10829e-05
3.95578e-05
0.000131414
4.953e-05
1
1
1
1
1
1
1
1
1
1
1
1
1
0.999999
1
1
1
1
1
1
1
1
0.999993
1
1
1
1
1
1
1
0.999997
1
0.999999
0.999999
1
1
1
1
1
1
0.999999
1
0.999998
1
1
1
1
1
1
1
0.999738
0.999792
1
1
1
1
1
1
0.999998
1
0.999998
1
1
1
1
1
1
1
1
0.994911
0.972369
0.965532
0.971549
0.980758
0.988879
0.99427
1
1
0.972878
0.829968
0.398844
0.384686
0.368425
0.359119
0.376285
0.420054
0.4673
0.559654
0.598716
0.688061
0.00184253
0.000919785
0.00039356
0.000172566
5.32332e-05
2.60478e-05
0.00118373
0.0139875
0.0554547
0.263427
9.44844e-05
3.21295e-05
1.36036e-05
1.5096e-05
1.04911e-05
9.33937e-06
9.27309e-06
9.16365e-06
8.89639e-06
9.25116e-06
5.31136e-06
2.18541e-06
2.72556e-06
1.16801e-05
2.06437e-05
2.50963e-05
1.2735e-05
8.78639e-06
8.62805e-06
8.66687e-06
2.03182e-06
1.91918e-06
2.15668e-06
2.43595e-05
4.18386e-05
4.06204e-05
2.21578e-05
8.7439e-06
8.62077e-06
1.03588e-05
1.82321e-06
1.62502e-06
1.87503e-05
5.7366e-05
5.61166e-05
2.59553e-05
1.11928e-05
4.69661e-05
1.74872e-05
1.33526e-05
1.89668e-06
1.9281e-06
3.02133e-05
5.67908e-05
0.000197097
4.26087e-05
5.02678e-05
0.000159387
6.90525e-05
9.5242e-06
7.64917e-06
5.2026e-05
2.37578e-05
6.43179e-05
0.000199124
2.31441e-05
8.52217e-05
0.000222383
7.56929e-05
4.83415e-06
5.42769e-05
8.61862e-05
2.20937e-05
1.74201e-05
0.000139226
2.89646e-05
4.21497e-05
0.000106015
3.86984e-05
4.62115e-06
8.60322e-05
9.85395e-05
4.23906e-05
1.04627e-05
5.94926e-06
3.01098e-05
6.92896e-05
3.57773e-05
4.60637e-06
4.46022e-06
4.27069e-05
7.68072e-05
5.8611e-05
1.66644e-05
5.03115e-06
3.28201e-06
6.02664e-05
8.15611e-05
5.5219e-05
4.5839e-06
1.75799e-05
2.13885e-05
3.8408e-05
2.76599e-05
5.45652e-06
2.47068e-06
1.62445e-06
1.92657e-05
0.000127391
2.41739e-05
1
1
1
1
1
1
1
1
1
1
1
0.999993
0.999982
1
1
1
1
1
1
1
1
0.999992
0.999972
0.999996
1
0.999998
1
1
1
1
0.99999
1
0.999985
0.999999
1
1
1
1
1
1
0.999818
0.999815
1
1
1
1
1
1
1
1
0.999933
0.999965
1
1
1
1
1
1
0.999999
1
0.999999
1
1
1
1
1
1
1
1
0.997997
0.984097
0.965247
0.963976
0.989633
1
1
1
1
0.999999
0.950293
0.441251
0.37518
0.329196
0.323533
0.363635
0.420318
0.477102
0.592427
0.677339
0.878696
0.0035707
0.000917594
0.00036638
0.000165503
1.2441e-05
2.36517e-05
0.00108751
0.0122332
0.0663612
0.339811
0.00010717
3.12918e-05
1.20029e-05
8.02394e-06
1.05357e-05
9.29559e-06
9.25511e-06
9.29559e-06
9.8269e-06
1.01799e-05
4.01121e-06
2.46368e-06
2.19743e-06
2.15801e-06
9.96075e-06
1.11636e-05
9.29559e-06
9.35769e-06
2.01598e-05
1.65547e-05
2.29422e-06
2.15552e-06
2.14782e-06
2.15801e-06
3.55817e-06
7.81613e-05
6.85268e-05
9.47882e-06
8.83917e-06
9.17618e-05
2.03356e-06
1.94493e-06
2.19781e-06
2.15801e-06
7.66699e-05
8.8069e-05
8.78454e-05
2.73827e-05
9.07479e-05
0.000129482
2.99176e-06
3.29467e-05
9.08899e-06
2.7273e-06
0.000190671
9.00507e-05
2.74602e-05
0.000121959
0.000140824
3.6012e-05
3.04109e-05
0.000149173
0.00010028
4.92146e-06
0.000155578
3.84712e-05
2.29552e-05
0.000131623
0.000130382
5.02722e-06
6.01284e-05
0.00022352
0.000250584
0.000106253
2.94301e-05
1.05513e-05
4.27082e-05
8.956e-05
4.07996e-05
4.46022e-06
3.42849e-05
7.85218e-05
0.000241242
0.000212098
1.93786e-05
6.46144e-06
4.93953e-05
8.28251e-05
4.20518e-06
4.29028e-06
8.55175e-07
2.19225e-06
7.65624e-05
0.000167248
4.32854e-05
3.43867e-06
4.90983e-06
7.70078e-05
6.68212e-05
4.44861e-06
1.55851e-06
6.41967e-06
9.83126e-06
3.33546e-05
3.25704e-05
3.05523e-06
1.477e-06
1.62445e-06
0.000114104
1.77157e-05
1
1
1
1
1
1
1
1
1
1
1
0.999995
0.999988
1
1
1
1
1
1
1
1
0.999977
0.999972
0.999989
0.999997
0.999969
0.999996
1
1
1
1
1
0.999988
0.999999
0.999821
0.999623
1
1
1
1
0.999918
0.999707
0.999997
1
0.999937
0.999911
1
1
1
1
0.999998
0.999298
0.997142
0.998067
1
0.999994
1
1
0.999992
0.999878
0.999998
0.999999
1
1
0.999995
0.999945
1
1
0.999997
0.989053
0.973992
0.948419
0.952049
0.988445
1
1
1
1
1
0.98576
0.382509
0.325369
0.298884
0.303824
0.353966
0.403456
0.423534
0.520967
0.663042
0.894846
0.00144939
0.000562396
0.000194789
1.24046e-05
1.3074e-05
9.60206e-06
9.27634e-06
0.00145522
0.0549928
0.309781
5.70563e-05
1.83176e-05
1.33553e-05
7.93354e-06
2.01843e-05
9.27634e-06
9.27634e-06
9.27634e-06
9.90662e-06
1.0494e-05
4.96217e-06
8.70745e-06
1.1253e-05
7.80925e-06
1.12176e-05
9.6537e-06
9.26479e-06
9.66062e-06
1.97611e-05
2.16726e-05
4.33091e-06
2.47019e-06
2.19781e-06
2.15587e-06
2.42866e-06
1.93586e-05
3.74002e-05
3.2141e-05
9.76374e-06
0.000122916
1.33299e-05
9.34023e-05
3.79231e-05
2.42735e-06
1.21695e-05
6.66827e-05
0.00014469
8.83181e-05
0.000126223
0.000137796
2.69183e-05
0.00033968
0.000295795
4.34196e-05
2.51824e-05
5.44048e-05
0.000118557
3.4991e-05
0.000140824
5.43368e-05
7.4037e-06
0.000354513
0.000358836
0.000252186
1.98643e-05
1.24459e-05
1.16394e-05
4.21238e-05
0.000130455
4.85813e-06
1.79288e-06
0.000129631
0.000354513
0.000354012
7.37199e-05
8.3779e-06
1.06075e-05
3.94229e-05
1.4338e-05
4.30712e-06
1.41516e-06
6.18694e-06
0.000198437
0.000348189
8.12301e-05
3.42323e-06
3.65473e-06
4.4956e-05
3.79856e-06
4.09248e-06
3.60973e-05
1.69069e-05
1.73542e-05
7.67587e-05
3.87587e-05
2.01111e-06
1.477e-06
1.58711e-06
2.39553e-05
4.37446e-06
7.15313e-05
0.000169298
7.2015e-05
3.17404e-06
1.69065e-06
1.45439e-06
1.477e-06
1.477e-06
5.00089e-06
2.08199e-05
0.988722
1
1
1
1
1
1
1
1
1
0.993996
1
1
1
1
1
1
1
1
1
0.99474
0.999839
1
0.999996
0.999999
1
1
0.999999
1
1
0.987027
0.999405
1
0.999999
0.999984
0.998943
0.998633
1
1
1
0.986993
0.999165
1
1
0.999805
0.993854
0.998598
1
0.999999
1
0.99189
0.999443
0.998051
0.997154
0.996665
0.993854
0.999078
1
0.999972
0.999394
0.999998
0.999987
0.999982
0.999985
0.99891
0.996578
0.999902
1
1
0.978138
0.950692
0.93435
0.954184
0.989982
1
0.999999
1
1
1
0.981899
0.297355
0.279016
0.291731
0.316639
0.389574
0.452718
0.430032
0.459439
0.577212
0.841451
0.00061927
0.000250238
3.0092e-05
7.91771e-06
1.32461e-05
1.35709e-05
1.97402e-05
6.20151e-05
0.0355683
0.262647
1.00769e-05
1.6681e-05
9.24275e-06
4.91639e-06
0.000108883
0.000189735
0.000300612
7.63326e-05
1.05261e-05
1.08792e-05
9.68133e-06
7.54054e-06
4.91643e-06
4.085e-06
2.42523e-05
3.13353e-05
7.51361e-05
9.66453e-05
7.08129e-05
2.98728e-05
5.11429e-05
0.000203845
5.63684e-05
2.42735e-06
3.08327e-06
4.22679e-06
2.73402e-05
0.000122289
3.72901e-05
0.00012801
0.000136595
0.000360354
0.000344573
3.16142e-05
4.22679e-06
5.55367e-06
0.000132796
0.000213603
5.53727e-05
0.000140922
5.90217e-05
0.000362904
0.000362904
0.000221215
9.742e-06
7.5338e-06
0.00018527
2.73144e-05
0.000114105
0.000115953
8.54036e-06
0.000358172
0.000362904
0.000359232
6.28913e-05
1.072e-05
4.00923e-05
1.00438e-05
3.93538e-05
1.5196e-05
5.9947e-06
0.000283096
0.000358836
0.000358274
0.000166668
1.28216e-05
2.09124e-05
6.02145e-06
3.95786e-06
4.04527e-06
0.000106222
8.86452e-05
0.000189507
0.000354013
0.000290613
1.43329e-05
2.0507e-05
3.07637e-06
3.67962e-06
3.84009e-06
0.000207225
0.000125016
1.35133e-05
0.000223786
0.000277719
1.47805e-05
5.09039e-06
2.89386e-06
4.17389e-06
4.67282e-06
0.000213345
0.000198117
1.63127e-05
7.43628e-06
0.000128718
3.7116e-05
1.477e-06
1.68384e-06
2.20026e-06
3.30907e-05
0.985777
0.998314
1
1
1
1
1
1
1
1
0.985785
1
1
1
1
1
1
0.999999
1
1
0.986837
1
1
1
1
1
1
0.999997
1
1
0.986955
1
1
1
0.999972
1
0.99959
1
1
1
0.986969
0.997944
0.997529
0.998642
0.99997
0.99499
0.996072
1
1
1
0.99005
0.998515
0.997501
0.996978
0.998753
0.993854
0.99622
1
0.999847
0.998257
0.999993
0.999974
0.999956
0.999942
0.999529
0.997075
0.999135
1
0.999996
0.973108
0.928168
0.933753
0.962624
0.991127
1
1
1
1
1
0.979078
0.236931
0.253453
0.294182
0.324598
0.392506
0.448272
0.425462
0.441559
0.544803
0.818617
0.000248297
3.11965e-05
1.16614e-05
6.60477e-06
1.18988e-05
1.84903e-05
2.0867e-05
8.79009e-05
0.0278827
0.237667
2.75738e-05
1.18288e-05
6.60421e-06
5.76518e-06
1.70057e-05
0.000359615
0.000363715
0.00027852
1.49092e-05
1.95783e-05
0.000104607
0.000226028
0.000104184
4.91721e-06
7.24466e-06
0.000100245
0.000363715
0.000349042
8.62723e-05
2.82036e-05
0.000355176
0.000357741
0.000359289
5.73347e-05
4.22679e-06
5.55367e-06
0.000117148
0.000333143
7.66098e-05
6.67375e-05
0.000195974
0.000361054
0.000361022
8.40595e-05
6.50277e-06
7.07529e-06
0.000114487
0.000213737
8.0049e-05
0.000144047
4.39788e-06
0.000351349
0.000362904
0.000351072
1.38907e-05
1.06404e-05
0.000244083
5.44294e-05
3.0508e-05
0.000144047
1.42062e-05
0.000193496
0.000354491
0.000358291
0.000179877
8.76038e-05
0.000238544
4.0662e-05
1.16041e-05
0.000130039
0.000135543
0.000172955
0.000201219
0.000348463
0.000341256
0.000320013
0.000236588
1.17355e-05
4.357e-06
1.39981e-05
0.000198023
0.000197738
3.03271e-05
0.000135269
0.000337096
0.000335413
0.000139281
3.56974e-06
3.61739e-06
3.75581e-06
0.000203019
0.000133376
1.04712e-05
6.72182e-06
0.000335413
0.000294421
4.38744e-05
3.00431e-06
3.03943e-06
2.76871e-05
0.000189189
7.10461e-06
9.24938e-06
5.95175e-06
0.000283541
0.000113326
3.38379e-06
9.31938e-06
2.46648e-06
8.89636e-05
0.999748
1
1
1
1
1
1
1
1
1
1
0.999993
0.999996
1
1
1
1
1
1
1
1
1
1
1
1
1
0.999981
1
1
1
1
1
1
1
0.999834
0.999594
0.999898
1
1
1
0.999391
0.989917
0.988498
0.993433
1
0.998929
0.999957
1
1
1
0.999794
0.990826
0.988545
0.994658
1
0.999616
1
0.99999
0.999934
1
1
0.999993
0.999996
1
1
1
1
1
1
0.986753
0.898813
0.914994
0.93877
0.976618
1
1
1
1
1
0.965303
0.188402
0.215854
0.265422
0.297834
0.348443
0.380893
0.355233
0.409445
0.561344
0.833043
5.89641e-05
6.16384e-05
3.31075e-05
1.10333e-05
1.76254e-05
1.87038e-05
1.82634e-05
9.33034e-05
0.0377323
0.255713
4.58908e-05
2.83194e-05
1.09828e-05
6.60898e-06
2.44965e-05
0.000323339
0.000292487
4.06063e-05
1.71803e-05
9.48244e-06
0.000293629
0.000313772
0.000300159
9.41968e-05
9.61494e-06
9.522e-05
0.000298806
0.000281718
8.68576e-05
2.26125e-05
0.000349397
0.000355702
0.00035296
0.000162565
7.5727e-06
8.65481e-06
0.00014294
0.000296374
0.000196439
2.85392e-05
0.000209045
0.000314327
0.000346892
0.000307323
1.82504e-05
0.000111616
0.000245263
0.000233187
9.98446e-05
3.63139e-05
2.84769e-06
9.64527e-06
2.58773e-05
8.85848e-05
0.00024584
0.000276615
0.000257956
2.45741e-05
3.33971e-05
0.000137417
4.86849e-06
2.72014e-06
2.85736e-06
1.17975e-05
0.000276615
0.000291114
0.000134439
6.50624e-06
1.28822e-05
0.000110702
4.81335e-05
2.91771e-06
3.2396e-06
4.32666e-06
0.000133691
0.000302209
6.83262e-05
5.21973e-06
4.17834e-06
1.04107e-05
6.00977e-05
2.94864e-05
2.28365e-05
3.51721e-05
9.0392e-05
0.000127707
6.79137e-05
1.04304e-05
3.68479e-06
3.97548e-06
3.47739e-05
3.83197e-05
6.79652e-05
7.13349e-05
7.40972e-05
0.000189436
0.000161365
4.81636e-05
3.11331e-06
8.80279e-05
1.38065e-05
8.06083e-06
5.98375e-05
1.66242e-05
1.60577e-05
0.000162057
0.000163728
0.000144771
4.37849e-06
0.000148706
1
1
0.999999
1
1
1
1
1
1
1
1
0.999997
0.999993
0.999999
1
1
1
1
1
1
1
1
1
0.999997
0.999997
0.999997
1
1
1
1
0.999858
0.998845
0.999158
1
1
1
1
1
1
1
0.998529
0.989965
0.996695
1
1
1
1
1
1
1
0.999006
0.99038
0.999496
1
1
1
1
1
1
1
1
0.999996
1
1
1
1
1
1
1
0.999611
0.904681
0.915412
0.935641
0.98541
1
1
1
1
1
0.914493
0.194093
0.232687
0.272234
0.299164
0.333678
0.352445
0.367695
0.454386
0.589309
0.811933
4.47695e-05
2.77025e-05
2.40495e-05
4.47902e-05
1.86856e-05
1.77324e-05
1.67488e-05
0.000775727
0.0466144
0.255612
2.79138e-05
1.08042e-05
1.08427e-05
1.75275e-05
0.000103396
0.000104708
3.19991e-05
1.7378e-05
9.48244e-06
7.64092e-06
0.000267985
0.000227381
0.000241703
0.000192974
5.11305e-05
5.78239e-05
0.00010165
0.0001498
8.88955e-05
1.88578e-05
0.000255541
0.000248696
0.000340201
0.000251409
3.74788e-05
5.98526e-05
0.000237747
0.000253358
0.000210383
2.03736e-05
2.84769e-06
2.70458e-06
1.10199e-05
0.00013027
0.000224611
0.000228615
0.000234512
0.000227195
7.97504e-05
7.14556e-06
2.704e-06
2.70458e-06
2.70458e-06
2.87166e-06
5.26575e-05
0.000228865
0.000172414
6.13894e-06
1.90886e-05
1.43052e-05
3.06858e-06
2.70402e-06
2.72014e-06
2.85736e-06
6.0285e-06
5.94244e-05
6.13894e-06
5.8685e-06
1.38777e-05
1.82385e-05
6.16916e-06
2.72014e-06
2.85736e-06
3.20489e-06
5.85927e-06
9.02439e-05
3.18808e-05
5.42393e-06
4.92316e-06
7.89749e-06
4.32744e-06
2.9177e-06
3.2396e-06
5.21158e-06
7.9316e-05
0.000168535
0.000160323
9.03323e-06
3.97548e-06
4.18361e-06
6.17738e-05
3.23143e-05
1.21244e-05
8.59115e-05
0.000149574
0.000177707
0.000171936
9.98255e-05
2.50925e-05
7.32185e-05
0.00022236
8.13795e-05
5.35624e-05
0.000155031
0.000164553
0.000171936
0.000165857
0.000163728
1.59387e-05
0.00015992
1
1
1
1
1
1
1
1
1
1
1
1
0.999999
1
1
1
1
1
1
1
1
1
0.999996
1
1
1
1
1
1
1
0.999977
0.999974
1
1
1
1
1
1
1
1
0.999697
0.996735
1
1
1
1
1
1
1
1
0.999799
0.998422
1
1
1
1
1
1
1
1
0.999998
1
1
1
1
1
1
1
1
1
0.956788
0.955383
0.964801
0.996503
1
1
0.999999
0.9903
0.968889
0.862444
0.26459
0.299851
0.328422
0.344298
0.385167
0.409258
0.411322
0.489786
0.573732
0.63509
2.46671e-05
7.72078e-06
1.08483e-05
0.000121701
1.62432e-05
1.41419e-05
1.499e-05
0.00264909
0.0370266
0.167933
1.03555e-05
7.76653e-06
8.2998e-06
5.2785e-06
4.00003e-05
1.05733e-05
1.17249e-05
1.11873e-05
7.64092e-06
7.00625e-06
3.64572e-05
2.70201e-05
3.32358e-05
7.77494e-05
7.65221e-05
0.000102832
0.000163585
0.000102198
3.12087e-05
1.29262e-05
3.80985e-05
3.20638e-05
4.6294e-05
8.83262e-05
0.000114921
0.000231799
0.000234272
0.000241239
0.000104195
6.92107e-06
2.78983e-06
2.7055e-06
4.30864e-06
1.61799e-05
6.03612e-05
0.000196611
0.000229656
0.000179154
3.24061e-05
4.29698e-06
2.7055e-06
2.70393e-06
2.7055e-06
2.9479e-06
2.79535e-06
3.32949e-06
5.8023e-06
5.22531e-05
1.41132e-05
4.11813e-06
2.75698e-06
2.7055e-06
4.81175e-06
3.32232e-06
2.59667e-06
2.91651e-06
4.49992e-06
4.84965e-05
4.73323e-05
4.37078e-06
3.17015e-06
2.75697e-06
6.92005e-06
1.01732e-05
2.54529e-06
2.84486e-06
5.72737e-06
3.3076e-05
4.64142e-05
4.5397e-06
4.04382e-06
3.16988e-06
8.30232e-06
7.23803e-06
1.1933e-06
3.10507e-06
4.66975e-05
8.60651e-06
8.83667e-06
4.46106e-06
0.000160637
0.000140141
1.7498e-05
1.1933e-06
9.12718e-07
6.81368e-06
5.72272e-05
2.8765e-05
7.2511e-06
4.63403e-06
0.000324471
0.000314738
2.7162e-05
1.95259e-06
1.02275e-05
1.88402e-05
4.05212e-05
2.82822e-05
6.52983e-05
0.000132628
1
1
1
1
1
1
1
1
1
1
1
1
1
1
1
1
1
1
1
1
1
0.999999
1
1
1
1
1
1
1
1
1
1
0.999994
1
1
1
1
1
1
1
0.999988
1
0.999999
1
1
1
1
1
1
1
0.999405
0.998509
1
1
1
1
1
1
1
1
0.999982
0.999994
1
1
1
1
1
0.999999
0.999999
1
0.999971
0.99814
0.996642
1
1
0.990831
0.986831
0.975104
0.921104
0.839323
0.370852
0.381001
0.412271
0.433836
0.460702
0.473886
0.452665
0.448853
0.334687
0.292512
0.00014844
0.000164815
0.000123398
7.18798e-05
6.39278e-06
7.99399e-06
8.43918e-06
1.64891e-05
0.0031798
0.0452227
4.66826e-06
4.21997e-06
3.79161e-06
3.94499e-06
4.07519e-06
4.32869e-06
6.10662e-06
8.21314e-06
7.01406e-06
6.71567e-06
3.22708e-06
3.72037e-06
2.67458e-06
2.4904e-06
3.32427e-05
9.30659e-05
9.80902e-05
2.91765e-05
6.76967e-06
5.48852e-06
2.73112e-06
2.90122e-06
2.38082e-06
2.24495e-06
5.01173e-05
0.000167484
0.000211587
9.50818e-05
6.32212e-06
4.29698e-06
3.50488e-06
1.09094e-05
4.34646e-06
2.43337e-06
2.45516e-06
2.95254e-05
7.48227e-05
3.47396e-05
4.57484e-06
3.77123e-06
2.87058e-06
2.80362e-05
3.1136e-05
5.10462e-06
2.62292e-06
2.79535e-06
3.485e-06
7.46697e-05
1.85176e-05
3.82818e-06
3.18143e-06
1.09654e-05
5.29022e-05
2.49552e-05
2.79535e-06
3.32949e-06
1.87074e-05
7.44141e-05
1.02198e-05
4.08213e-06
4.08833e-06
3.17015e-06
4.859e-05
4.81675e-05
7.01511e-06
3.54272e-06
2.3913e-05
7.35755e-05
2.65596e-05
4.37078e-06
6.57503e-06
6.6216e-06
4.65187e-05
3.46705e-05
2.22812e-06
5.97594e-06
6.37768e-06
6.98263e-05
3.97448e-05
4.46569e-06
6.2132e-05
6.51672e-05
3.38864e-05
9.12718e-07
5.99748e-07
1.2261e-05
8.04709e-06
1.07471e-05
7.04157e-06
4.58111e-06
0.000222783
0.000289134
5.77735e-05
2.49548e-06
6.14781e-06
1.00669e-05
7.63906e-06
8.62349e-06
2.86618e-05
2.52989e-05
1
1
1
1
1
1
1
1
1
1
1
1
1
1
1
1
1
1
1
1
1
1
0.999999
1
1
1
1
1
1
1
0.999996
1
0.999989
1
1
1
1
1
1
1
0.999992
0.99974
1
1
1
1
0.999999
1
1
1
0.993454
0.99597
1
1
1
1
1
0.999999
0.999999
1
0.999552
0.9999
1
1
1
1
0.999998
0.999977
0.999791
0.999983
0.999948
0.999989
1
1
0.973526
0.973991
0.965467
0.82186
0.641578
0.657818
0.475794
0.462117
0.489009
0.488594
0.493738
0.467095
0.34748
0.179405
0.0325387
0.0360061
0.0020469
0.0019089
0.00290942
0.00219887
0.000797003
0.000350813
3.11803e-06
7.89902e-06
2.6867e-05
9.91335e-06
3.26226e-06
7.98194e-06
2.54843e-06
2.4833e-06
3.26482e-06
2.73544e-06
2.33457e-06
1.58139e-05
9.0931e-05
8.08756e-06
2.75844e-06
2.66228e-06
2.30111e-06
2.15657e-06
2.26359e-06
1.18538e-05
4.64561e-06
2.34934e-06
1.99905e-05
2.14092e-05
2.39357e-06
2.17868e-06
2.2381e-06
2.13493e-06
2.37858e-06
8.4137e-06
1.18411e-05
2.38462e-06
3.05141e-06
3.77123e-06
3.19059e-06
2.39525e-05
1.19291e-05
2.16785e-06
2.37026e-06
2.4598e-06
2.68749e-06
2.25815e-06
2.90486e-06
3.51646e-06
3.08413e-05
5.73238e-05
5.70879e-05
1.37015e-05
3.9661e-06
8.66698e-06
5.67022e-05
4.29478e-06
3.51646e-06
3.72682e-06
6.52804e-05
5.07432e-05
5.73238e-05
3.62172e-05
9.97749e-06
2.02789e-05
8.91238e-05
4.3386e-06
1.64652e-05
1.94331e-05
2.40843e-05
4.58849e-06
5.339e-05
5.04805e-05
8.20295e-06
3.1053e-05
8.84101e-05
1.281e-05
2.94858e-05
5.48015e-05
1.49166e-05
5.0527e-07
3.58736e-05
3.00621e-05
1.30298e-06
3.28602e-05
8.50484e-05
2.06474e-05
2.13178e-05
2.37154e-05
3.05943e-06
8.19631e-07
2.08437e-06
1.88005e-06
3.42881e-07
1.38143e-05
3.49227e-05
3.98974e-05
6.36371e-06
4.73503e-06
4.05414e-05
5.01428e-06
4.12545e-07
3.47503e-06
2.28957e-05
1.0273e-05
1.63223e-05
8.12547e-05
8.10699e-06
6.36371e-06
1
1
1
1
1
1
1
1
1
1
1
1
1
1
1
1
1
1
1
1
1
1
1
1
1
1
1
1
0.999999
1
0.999975
0.99999
1
1
1
1
0.999995
0.999978
1
1
0.999318
0.999916
1
1
1
0.999999
0.99997
0.999968
0.999998
1
0.998697
1
1
1
1
0.999989
0.999998
0.999977
0.99994
0.999991
0.999979
1
1
1
0.999999
0.999992
0.999914
0.97129
0.908394
0.96185
0.999986
1
1
0.971161
0.964203
0.971645
0.789342
0.460746
0.242651
0.320836
0.501543
0.499461
0.503696
0.486886
0.456285
0.264032
0.0932789
7.86727e-06
2.68701e-05
0.000204938
0.00501768
0.00613179
0.00625259
0.00436259
0.000746471
2.67659e-06
2.3343e-06
3.01517e-06
4.90616e-06
2.7123e-05
5.52494e-06
1.7471e-05
1.15575e-05
2.14697e-06
2.26489e-06
2.29139e-06
2.19442e-06
7.36631e-06
0.000190497
0.000201856
2.39379e-06
2.06362e-06
2.15677e-06
2.13477e-06
2.15676e-06
2.15123e-06
2.11853e-06
2.1062e-06
0.000167031
0.000197076
1.97353e-06
1.75182e-06
2.00152e-06
2.13493e-06
2.13485e-06
2.1825e-06
2.1394e-06
2.14435e-06
9.07145e-05
9.64327e-05
2.76065e-06
1.05437e-05
3.70899e-06
2.13493e-06
2.31137e-06
2.34558e-06
2.13393e-06
2.17354e-06
2.35867e-05
2.40285e-05
7.3679e-06
3.88324e-05
3.09705e-05
1.08647e-05
1.45232e-05
3.42246e-05
4.1603e-05