/*--------------------------------*- C++ -*----------------------------------*\
| =========                 |                                                 |
| \\      /  F ield         | OpenFOAM: The Open Source CFD Toolbox           |
|  \\    /   O peration     | Version:  2312                                  |
|   \\  /    A nd           | Website:  www.openfoam.com                      |
|    \\/     M anipulation  |                                                 |
\*---------------------------------------------------------------------------*/
FoamFile
{
    version     2.0;
    format      ascii;
    arch        "LSB;label=32;scalar=64";
    class       volVectorField;
    location    "0.225";
    object      U;
}
// * * * * * * * * * * * * * * * * * * * * * * * * * * * * * * * * * * * * * //

dimensions      [0 1 -1 0 0 0 0];

internalField   nonuniform List<vector> 
8000
(
(-0.00493108 -0.0111509 0.015453)
(-0.0146396 -0.0110777 0.0146552)
(-0.0222448 -0.0109313 0.0132926)
(-0.0269905 -0.0106499 0.0115501)
(-0.0285959 -0.0102452 0.00966289)
(-0.0272808 -0.00977335 0.00786294)
(-0.0235733 -0.00930192 0.00631067)
(-0.018051 -0.00884047 0.00510663)
(-0.0112422 -0.00863019 0.00435077)
(-0.00379817 -0.00814462 0.00381543)
(-0.00413216 -0.0312253 0.0143272)
(-0.0125773 -0.0308912 0.0135326)
(-0.0191007 -0.03032 0.0121792)
(-0.0230673 -0.0294123 0.0104894)
(-0.0243236 -0.0282063 0.00866306)
(-0.0231128 -0.0267447 0.0069642)
(-0.0198652 -0.0252265 0.00550764)
(-0.0151187 -0.0238848 0.00437477)
(-0.00940339 -0.0231659 0.00366052)
(-0.00318725 -0.0220092 0.00320928)
(-0.00397144 -0.0517355 0.0151842)
(-0.0122685 -0.0510081 0.0143255)
(-0.0186558 -0.0497619 0.0127809)
(-0.0224414 -0.0478725 0.0108916)
(-0.0234598 -0.0454567 0.00888572)
(-0.0220431 -0.0426666 0.00702223)
(-0.0187983 -0.0398556 0.00544841)
(-0.0142225 -0.0373687 0.00426383)
(-0.00882636 -0.0359316 0.00349783)
(-0.00301421 -0.0341237 0.00303481)
(-0.00337523 -0.0746511 0.0153483)
(-0.0107469 -0.0734147 0.0144133)
(-0.0162719 -0.0710667 0.0127178)
(-0.0193664 -0.0676363 0.0106867)
(-0.0199587 -0.0634675 0.00854073)
(-0.0184708 -0.0588385 0.00654888)
(-0.015484 -0.0542208 0.00492217)
(-0.0115011 -0.0501708 0.00369604)
(-0.00711573 -0.047647 0.00292075)
(-0.00246014 -0.0452539 0.00248114)
(-0.00241549 -0.0988688 0.0146318)
(-0.00800335 -0.0967089 0.013692)
(-0.0119011 -0.0926847 0.0118917)
(-0.0139435 -0.0871282 0.00975027)
(-0.0139955 -0.0804825 0.0075461)
(-0.0124026 -0.0733921 0.00546393)
(-0.00992391 -0.0664254 0.00384083)
(-0.00709965 -0.0603879 0.002636)
(-0.00431694 -0.0562791 0.00190977)
(-0.00150796 -0.053437 0.00152936)
(-0.000982371 -0.12204 0.0135902)
(-0.00382453 -0.118848 0.0126263)
(-0.00551386 -0.112954 0.0106835)
(-0.00599785 -0.104988 0.0081936)
(-0.00525063 -0.095297 0.00582211)
(-0.00371484 -0.0850418 0.00368823)
(-0.0020305 -0.0751622 0.00209581)
(-0.000786554 -0.0668246 0.00100837)
(-0.000263618 -0.0608978 0.000410726)
(-0.000123988 -0.0577359 0.000138724)
(0.000285902 -0.14621 0.016032)
(0.000480249 -0.141791 0.0147046)
(0.00137281 -0.132765 0.011723)
(0.00296325 -0.120875 0.00790352)
(0.00510133 -0.106953 0.00438683)
(0.00692058 -0.0919297 0.00175112)
(0.00770245 -0.0772963 -5.66987e-05)
(0.00694829 -0.064857 -0.00110214)
(0.00477908 -0.0562414 -0.00157271)
(0.0016703 -0.0521276 -0.00165941)
(0.00196108 -0.182229 0.0152142)
(0.00693283 -0.174968 0.0138724)
(0.0118363 -0.159328 0.0120484)
(0.0149951 -0.139664 0.00849744)
(0.0176341 -0.118993 0.00417402)
(0.0191952 -0.0986207 0.000721423)
(0.0185375 -0.0800232 -0.00147889)
(0.0150742 -0.0645153 -0.00276304)
(0.00968548 -0.0540485 -0.00367843)
(0.00350239 -0.0496263 -0.00347202)
(0.0091438 -0.18057 -0.0331887)
(0.0285271 -0.172909 -0.0323728)
(0.0452215 -0.155775 -0.0238011)
(0.0530452 -0.131596 -0.0159647)
(0.0548829 -0.102514 -0.0127164)
(0.0535718 -0.0731708 -0.0127518)
(0.0477402 -0.048205 -0.0124519)
(0.035736 -0.0307642 -0.0108199)
(0.0196589 -0.0219738 -0.00882867)
(0.00604566 -0.0207438 -0.00607524)
(0.0212922 -0.107045 -0.142625)
(0.0630841 -0.105517 -0.139034)
(0.102079 -0.097354 -0.121059)
(0.131546 -0.0845376 -0.0985798)
(0.148928 -0.0664055 -0.0840018)
(0.160558 -0.0405122 -0.0831463)
(0.164995 -0.0164987 -0.086614)
(0.151269 -0.000776469 -0.083403)
(0.0995299 0.00213154 -0.0554457)
(0.022945 -0.0112914 -0.024393)
(0.0259348 -0.0627384 -0.238329)
(0.0762271 -0.0557638 -0.229788)
(0.127164 -0.0364478 -0.21291)
(0.17962 -0.00494823 -0.18442)
(0.231081 0.038933 -0.167338)
(0.277592 0.0953814 -0.177861)
(0.320722 0.167027 -0.21678)
(0.36019 0.245552 -0.257607)
(0.3484 0.357353 -0.208549)
(0.15749 0.311058 -0.16222)
(0.0609411 -0.345254 -0.262097)
(0.0753747 -0.248314 -0.221848)
(0.11871 -0.169329 -0.202713)
(0.191929 -0.15576 -0.191451)
(0.245298 -0.178093 -0.198464)
(0.275761 -0.138591 -0.209237)
(0.289255 0.176319 -0.200582)
(0.191263 0.424443 -0.090861)
(0.13083 0.5817 0.019355)
(-0.00980532 0.608539 0.00216299)
(0.0459319 0.0675395 -0.286799)
(0.109587 0.125655 -0.256838)
(0.139272 0.198226 -0.227505)
(0.136739 0.222627 -0.204172)
(0.120928 0.22036 -0.157632)
(0.106163 0.224815 -0.0965732)
(0.0859569 0.308695 -0.0185685)
(0.040349 0.408482 0.0599635)
(-0.032075 0.533151 0.128701)
(-0.0867251 0.636537 0.0750405)
(0.0434581 0.162777 -0.205005)
(0.0695223 0.211075 -0.183828)
(0.0696522 0.268087 -0.147207)
(0.0506546 0.245207 -0.0874737)
(0.0297537 0.163301 -0.0193791)
(0.0095775 0.115115 0.0233151)
(-0.0164462 0.137907 0.0591089)
(-0.0480114 0.210999 0.0872409)
(-0.0948221 0.35016 0.105834)
(-0.0807241 0.423099 0.0718239)
(0.0289045 0.262938 -0.115804)
(0.022225 0.277975 -0.0903667)
(0.0136408 0.26023 -0.035214)
(0.0117476 0.154077 0.0287089)
(0.0104879 0.0379707 0.0576672)
(-0.0162316 0.0104415 0.0551926)
(-0.0549065 0.0455882 0.0507973)
(-0.0823304 0.112443 0.0481178)
(-0.0902958 0.205078 0.0502019)
(-0.0468932 0.218572 0.0443731)
(0.0207894 0.241334 -0.0167878)
(0.0123605 0.223059 0.00630569)
(0.0193396 0.142431 0.044799)
(0.03011 0.0325202 0.0552957)
(0.00775196 -0.00416403 0.0340095)
(-0.0305036 0.0122141 0.0197646)
(-0.0572665 0.0418175 0.0160117)
(-0.0686208 0.0840683 0.0155042)
(-0.0579261 0.130276 0.0184938)
(-0.0207757 0.119116 0.0208948)
(0.0202655 0.122647 0.0457795)
(0.0278118 0.0903186 0.0499687)
(0.0355638 0.0306197 0.0444026)
(0.0197476 0.00179336 0.0223333)
(-0.00865972 0.00262322 0.00819145)
(-0.0286216 0.0138421 0.00434054)
(-0.0400283 0.0335097 0.00411284)
(-0.0417451 0.0607402 0.00529684)
(-0.0303571 0.0863432 0.0077185)
(-0.00900539 0.0710416 0.0091411)
(0.0178223 0.0360708 0.0305868)
(0.022345 0.0236963 0.0237923)
(0.0166949 0.011769 0.0118349)
(0.00240173 0.00607253 0.00412982)
(-0.0105601 0.007457 0.00165915)
(-0.0197358 0.0154834 0.00137232)
(-0.0248094 0.028396 0.00196385)
(-0.0240344 0.0450581 0.00292312)
(-0.0162671 0.0591814 0.00418402)
(-0.0046185 0.0428751 0.00466752)
(0.0129543 0.0178496 0.00568681)
(0.0107673 0.0143123 0.00380472)
(0.00581038 0.0101173 0.00184452)
(-0.000923144 0.00836091 0.000854863)
(-0.00754175 0.0109148 0.000568263)
(-0.0126356 0.0168948 0.000762587)
(-0.0152707 0.0253766 0.00123428)
(-0.0142785 0.0355928 0.00183284)
(-0.00937924 0.0435042 0.00250505)
(-0.00259225 0.0274362 0.00267099)
(0.0100461 0.0142786 0.00114002)
(0.00709807 0.0121144 0.000903306)
(0.00351048 0.0106917 0.00064992)
(-0.000831073 0.0108691 0.000416209)
(-0.00506686 0.0132727 0.000356445)
(-0.00813345 0.0174578 0.000536485)
(-0.00953098 0.0229418 0.000835864)
(-0.00866983 0.0293274 0.00119109)
(-0.0055901 0.033967 0.00157563)
(-0.00149533 0.0184112 0.00159815)
(-0.00659667 -0.0128663 0.0495242)
(-0.0190779 -0.0127282 0.0467411)
(-0.0283761 -0.0124742 0.0419142)
(-0.0337097 -0.0120071 0.0358701)
(-0.0349367 -0.0113999 0.0295666)
(-0.0326372 -0.0107116 0.0237656)
(-0.0276934 -0.0100644 0.0189089)
(-0.0209008 -0.0094841 0.0152178)
(-0.0128958 -0.00921454 0.0129368)
(-0.00433358 -0.00862141 0.0112871)
(-0.00550229 -0.0361152 0.0457065)
(-0.016328 -0.0353197 0.0430661)
(-0.0242637 -0.0342845 0.0383948)
(-0.0287175 -0.0327995 0.0325954)
(-0.0296517 -0.0309912 0.0265504)
(-0.0276065 -0.0289959 0.0210579)
(-0.0233418 -0.0270486 0.016505)
(-0.0175295 -0.0253837 0.0130236)
(-0.0107975 -0.0245267 0.0108572)
(-0.00363853 -0.0231449 0.0094646)
(-0.00528789 -0.0606425 0.0481525)
(-0.0161082 -0.0588849 0.0450747)
(-0.0240102 -0.0565644 0.0398974)
(-0.0282572 -0.0535285 0.0336058)
(-0.0289333 -0.0500005 0.0270614)
(-0.0266489 -0.0462878 0.0211107)
(-0.0223208 -0.0427381 0.0162465)
(-0.0166514 -0.0397316 0.012616)
(-0.0102475 -0.0380474 0.0103066)
(-0.00347734 -0.0359024 0.00889067)
(-0.00453356 -0.0869925 0.0485582)
(-0.0143168 -0.0840879 0.0449204)
(-0.0213061 -0.0801417 0.0392437)
(-0.0248368 -0.0751357 0.0325853)
(-0.0251472 -0.0694577 0.0257217)
(-0.0228272 -0.0636258 0.0195182)
(-0.0187993 -0.0580304 0.0145515)
(-0.0137801 -0.0533239 0.0108453)
(-0.00844168 -0.0504174 0.00849722)
(-0.00289988 -0.047616 0.00718266)
(-0.00332697 -0.113584 0.0463952)
(-0.0110902 -0.109221 0.0423865)
(-0.0164211 -0.102998 0.0363451)
(-0.0188603 -0.0956557 0.0294413)
(-0.0187149 -0.0873399 0.0224613)
(-0.0163682 -0.0789018 0.016211)
(-0.0128913 -0.0708927 0.0112482)
(-0.00909872 -0.0640936 0.00771513)
(-0.00545315 -0.0595308 0.00551273)
(-0.00188822 -0.0562602 0.00438221)
(-0.0015298 -0.136864 0.0425107)
(-0.00609544 -0.131724 0.038691)
(-0.00929803 -0.123547 0.0322855)
(-0.0104771 -0.1138 0.0247534)
(-0.00960072 -0.102758 0.0174055)
(-0.00735365 -0.0912413 0.0110418)
(-0.00466087 -0.080389 0.00626966)
(-0.00245397 -0.0711069 0.00303983)
(-0.00114341 -0.0645396 0.00119749)
(-0.000393358 -0.0608952 0.000321796)
(-0.000370172 -0.156475 0.0384719)
(-0.00189545 -0.15085 0.0351475)
(-0.0023839 -0.140896 0.0285704)
(-0.00154612 -0.128675 0.0203228)
(0.000673473 -0.114877 0.0120146)
(0.00334561 -0.0997902 0.00483839)
(0.00533217 -0.0847288 -0.000108712)
(0.00572602 -0.0713082 -0.00295648)
(0.00432569 -0.0613843 -0.0042961)
(0.00157794 -0.0562672 -0.00473673)
(0.000148565 -0.177454 0.0134593)
(0.000688693 -0.170122 0.0107306)
(0.00340334 -0.157269 0.00884367)
(0.00756633 -0.141992 0.00633502)
(0.0125592 -0.124825 0.00104285)
(0.0162136 -0.106843 -0.00420368)
(0.0173336 -0.0889575 -0.00823717)
(0.0153048 -0.0729691 -0.0100921)
(0.0105353 -0.0608154 -0.0105507)
(0.00358135 -0.0541318 -0.00963396)
(0.00815544 -0.159243 -0.0689325)
(0.0173441 -0.154487 -0.0682276)
(0.0263775 -0.144256 -0.0602795)
(0.0336841 -0.129966 -0.0531258)
(0.0431089 -0.109683 -0.0500847)
(0.051128 -0.0833586 -0.0470121)
(0.0504587 -0.0578899 -0.0413588)
(0.0418329 -0.0386344 -0.0348931)
(0.0267036 -0.0271686 -0.0269265)
(0.00859674 -0.0221037 -0.0198478)
(0.0253968 -0.137084 -0.0885772)
(0.0603436 -0.13207 -0.0838279)
(0.0869892 -0.118925 -0.0800869)
(0.106213 -0.104419 -0.0871749)
(0.118702 -0.089721 -0.104933)
(0.13021 -0.071232 -0.131933)
(0.148054 -0.0447279 -0.152884)
(0.149739 -0.0203897 -0.147826)
(0.118001 -0.00580242 -0.119513)
(0.0568744 0.00171591 -0.101945)
(-0.00642021 -0.233628 0.252735)
(0.112193 -0.205248 0.142775)
(0.171956 -0.156862 0.0308994)
(0.266482 -0.0847435 0.00306905)
(0.332331 -0.0183604 0.0687251)
(0.284248 0.0351985 0.115272)
(0.169206 0.00653274 -0.1025)
(0.238959 0.0586852 -0.240951)
(0.254038 0.135852 -0.257381)
(0.217677 0.349405 -0.349139)
(0.0165963 -0.138878 -0.121737)
(-0.0107484 -0.0837191 -0.176981)
(-0.00901731 -0.0682353 -0.248513)
(0.0309938 -0.0403613 -0.245155)
(0.0776024 0.0137181 -0.20305)
(0.135463 0.00590902 -0.10441)
(0.127536 -0.158514 0.0670552)
(0.0630482 -0.093538 0.110058)
(-0.0834074 0.277548 0.0963877)
(-0.0103281 0.581955 -0.126894)
(0.0106079 -0.0801704 -0.252768)
(-0.0272565 -0.0299132 -0.227556)
(-0.0627065 0.0319314 -0.189131)
(-0.0599553 0.0785717 -0.135975)
(-0.0181388 0.0976984 -0.0423578)
(0.00201293 0.107874 0.0522317)
(-0.0444691 0.128844 0.151324)
(-0.130075 0.210486 0.237208)
(-0.211552 0.425533 0.216831)
(-0.122657 0.533013 0.0261258)
(0.00563989 -0.0597324 -0.0913347)
(-0.0595639 0.00673074 -0.0383062)
(-0.116645 0.0473097 0.0272499)
(-0.128768 0.0226236 0.0766375)
(-0.100577 -0.0231205 0.107594)
(-0.0819191 -0.040214 0.129971)
(-0.104552 0.0200229 0.16196)
(-0.164076 0.178799 0.202181)
(-0.19975 0.366912 0.196112)
(-0.105102 0.34546 0.0841738)
(-0.0130926 0.0399601 0.0455741)
(-0.0917509 0.0627367 0.0793505)
(-0.101745 0.0473777 0.113193)
(-0.065384 -0.018822 0.132868)
(-0.046318 -0.038829 0.124079)
(-0.0729639 0.000904988 0.110384)
(-0.114519 0.059475 0.111972)
(-0.142198 0.154116 0.123787)
(-0.131803 0.256769 0.127461)
(-0.050923 0.201611 0.0839021)
(0.00582337 0.0823972 0.113058)
(-0.0287746 0.0650061 0.127793)
(-0.0105338 0.00344393 0.133532)
(0.00275895 -0.0330761 0.101134)
(-0.0249708 -0.00598572 0.0639343)
(-0.0580926 0.030398 0.0494133)
(-0.0818852 0.071684 0.048864)
(-0.088955 0.126369 0.0561811)
(-0.0671139 0.174748 0.0654117)
(-0.0186813 0.129288 0.0561456)
(0.0217535 0.0519015 0.126083)
(0.0267772 0.0257254 0.116706)
(0.0299453 0.00204162 0.0841762)
(0.00481095 0.0105327 0.0454797)
(-0.0233632 0.0258027 0.0253891)
(-0.0405197 0.0429951 0.0195387)
(-0.0498164 0.0649936 0.0203888)
(-0.048512 0.0951524 0.0249388)
(-0.0319206 0.120072 0.0315673)
(-0.00766619 0.0861101 0.0300744)
(0.0215318 0.040439 0.0661406)
(0.0238689 0.0335709 0.0518024)
(0.012925 0.0298127 0.0297248)
(-0.00458618 0.0304198 0.0151328)
(-0.0175814 0.0356286 0.00978139)
(-0.0257615 0.0443011 0.00932578)
(-0.029756 0.0568452 0.011047)
(-0.0273906 0.0737799 0.0138002)
(-0.0170987 0.087091 0.0170925)
(-0.00412837 0.0591192 0.016295)
(0.0144287 0.0438599 0.0189656)
(0.0102607 0.0402372 0.0142635)
(0.00266289 0.0367347 0.00902247)
(-0.00529924 0.0358033 0.00632623)
(-0.0117492 0.0381086 0.00550238)
(-0.0163076 0.0431916 0.00595614)
(-0.0183126 0.0507343 0.00709573)
(-0.0164076 0.0606231 0.00861647)
(-0.0100737 0.0679707 0.0102634)
(-0.00242523 0.0434601 0.00960449)
(0.0102482 0.0423509 0.00656123)
(0.00560993 0.0398402 0.00589833)
(0.000940157 0.0377413 0.00508019)
(-0.00379142 0.0372374 0.00441659)
(-0.0079311 0.0385987 0.00403659)
(-0.0107024 0.0416517 0.00425312)
(-0.0116877 0.0461154 0.00480644)
(-0.0102077 0.0519971 0.00559761)
(-0.00618467 0.0561834 0.00649762)
(-0.00147113 0.033863 0.00593304)
(-0.00817092 -0.0117425 0.0885806)
(-0.0236155 -0.0115864 0.0824056)
(-0.0349306 -0.0115555 0.0727129)
(-0.0411692 -0.0113903 0.0612043)
(-0.0422376 -0.0110726 0.0496849)
(-0.0390697 -0.010602 0.0394031)
(-0.0328939 -0.010103 0.031008)
(-0.0246948 -0.00966063 0.0247466)
(-0.0151749 -0.00948385 0.0209531)
(-0.005088 -0.00883385 0.0181183)
(-0.0068891 -0.0342629 0.084508)
(-0.0206696 -0.0334329 0.0777518)
(-0.0306797 -0.0326494 0.0675059)
(-0.0360586 -0.0316864 0.0561519)
(-0.0368226 -0.0305016 0.0449181)
(-0.0338591 -0.0290375 0.0350582)
(-0.028364 -0.0274434 0.0271476)
(-0.0211766 -0.0260176 0.0212588)
(-0.0129644 -0.0253822 0.0176161)
(-0.00435332 -0.0238629 0.0152181)
(-0.00691336 -0.0586549 0.0886688)
(-0.0210141 -0.0572717 0.0824303)
(-0.0310445 -0.0552385 0.0707013)
(-0.036269 -0.0528 0.058145)
(-0.0367821 -0.0500334 0.0458967)
(-0.0334503 -0.0469878 0.0352632)
(-0.027684 -0.0438569 0.0267919)
(-0.0205042 -0.041134 0.0205909)
(-0.0125518 -0.0397416 0.0167397)
(-0.00423939 -0.0373372 0.01432)
(-0.00632119 -0.0843657 0.0877615)
(-0.0199669 -0.0836747 0.0821838)
(-0.029052 -0.0802294 0.070049)
(-0.033482 -0.0758407 0.0566803)
(-0.033522 -0.0709381 0.0438505)
(-0.0299821 -0.0657219 0.0327968)
(-0.02437 -0.0605547 0.0241244)
(-0.0177455 -0.0560186 0.017827)
(-0.0107798 -0.0533334 0.0138719)
(-0.00366489 -0.0501511 0.0116025)
(-0.00458979 -0.11006 0.0806186)
(-0.0170873 -0.111161 0.0764029)
(-0.0246434 -0.10602 0.0649448)
(-0.027925 -0.0990933 0.0515393)
(-0.027335 -0.0913605 0.0386749)
(-0.0236608 -0.0834037 0.0276148)
(-0.0184416 -0.075597 0.0190423)
(-0.0128685 -0.0687261 0.0129507)
(-0.0076509 -0.0640987 0.00919493)
(-0.00260918 -0.0603807 0.00720897)
(-0.00136898 -0.132925 0.0684944)
(-0.0112292 -0.136157 0.0670164)
(-0.0175189 -0.130341 0.0570555)
(-0.0197752 -0.121147 0.043879)
(-0.0184397 -0.110516 0.0309767)
(-0.0146151 -0.099492 0.0198903)
(-0.00992783 -0.088385 0.0115552)
(-0.00581681 -0.0784406 0.0058969)
(-0.00298066 -0.0711331 0.00254496)
(-0.000986329 -0.0668466 0.00090699)
(0.00174991 -0.152088 0.0533017)
(-0.00428712 -0.156096 0.052612)
(-0.00946696 -0.149922 0.0454361)
(-0.0106035 -0.139388 0.0340295)
(-0.00842167 -0.127324 0.0219628)
(-0.00418255 -0.11331 0.0108043)
(0.000338595 -0.0980191 0.00233113)
(0.00295804 -0.0831055 -0.00293372)
(0.00298756 -0.0713692 -0.00565498)
(0.00111034 -0.0649226 -0.0068266)
(0.00478005 -0.171126 0.0161533)
(0.00382048 -0.171081 0.0131019)
(0.00138022 -0.16379 0.0105039)
(0.00246841 -0.153038 0.00645044)
(0.00594096 -0.140953 0.000443113)
(0.0107831 -0.125202 -0.00600185)
(0.014326 -0.106684 -0.011355)
(0.0141432 -0.0880599 -0.0142877)
(0.0100457 -0.0730948 -0.0153012)
(0.00266824 -0.0647081 -0.0149762)
(0.0114414 -0.167357 -0.0525721)
(0.0206685 -0.164206 -0.0533961)
(0.0238623 -0.156723 -0.0554808)
(0.0292258 -0.147157 -0.0589817)
(0.0410724 -0.135361 -0.0646744)
(0.0532618 -0.115625 -0.0660583)
(0.0588218 -0.0874539 -0.0619572)
(0.0521042 -0.059051 -0.0526625)
(0.0347718 -0.0387676 -0.0422314)
(0.0107007 -0.0311701 -0.0358526)
(0.0010571 -0.292409 -0.0514511)
(0.00828599 -0.265405 -0.0599472)
(0.0229295 -0.217842 -0.0732228)
(0.0252743 -0.185936 -0.0887273)
(0.0629406 -0.162403 -0.112887)
(0.109674 -0.136626 -0.14341)
(0.147654 -0.100625 -0.164792)
(0.168408 -0.056364 -0.16933)
(0.147723 -0.0206207 -0.151543)
(0.0849672 -0.00150793 -0.151248)
(-0.0561075 -0.523078 -0.0801735)
(-0.0814097 -0.446689 -0.141542)
(-0.0276318 -0.393055 -0.191584)
(-0.0351334 -0.386683 -0.174333)
(-0.0159985 -0.262635 -0.0577016)
(0.037024 -0.205442 0.00284904)
(0.0927737 -0.158408 -0.0412782)
(0.160044 -0.0934561 -0.158346)
(0.238682 0.0561945 -0.241204)
(0.267317 0.239637 -0.352012)
(-0.0314296 -0.291219 -0.259561)
(-0.0946108 -0.242201 -0.296194)
(-0.0792867 -0.208336 -0.369724)
(-0.0299021 -0.193675 -0.401444)
(0.0020859 -0.176982 -0.355361)
(0.0348199 -0.152183 -0.266728)
(0.0492203 -0.184875 -0.163544)
(0.0694896 -0.2699 -0.0617751)
(-0.113294 -0.10153 -0.0406362)
(0.101116 0.418832 -0.184186)
(-0.0172395 -0.256544 -0.195816)
(-0.118853 -0.241788 -0.189927)
(-0.18421 -0.210943 -0.183562)
(-0.184779 -0.164446 -0.159978)
(-0.147005 -0.111832 -0.100119)
(-0.10517 -0.0722354 -0.00889184)
(-0.105145 -0.0256049 0.100213)
(-0.182981 0.0645191 0.18767)
(-0.235282 0.207235 0.140224)
(-0.0533481 0.408569 -0.0397129)
(-0.0120771 -0.187593 -0.14719)
(-0.097322 -0.174681 -0.0989398)
(-0.142227 -0.154314 -0.0367595)
(-0.148116 -0.138451 0.0263977)
(-0.137015 -0.123472 0.080272)
(-0.133835 -0.102693 0.121395)
(-0.154052 -0.0581114 0.160131)
(-0.193701 0.0422231 0.190611)
(-0.202601 0.174671 0.158654)
(-0.0855708 0.213968 0.039931)
(-0.00119596 -0.0983047 -0.0210459)
(-0.0638783 -0.0968939 0.0246694)
(-0.0834222 -0.0996353 0.0634203)
(-0.078022 -0.0911947 0.0790096)
(-0.077297 -0.0552738 0.0801782)
(-0.0921307 -0.00940813 0.0853889)
(-0.118587 0.0368587 0.106673)
(-0.140978 0.0950458 0.135863)
(-0.126808 0.151989 0.134221)
(-0.0501168 0.113008 0.0732639)
(0.0113554 -0.0360765 0.101363)
(-0.0145674 -0.0513908 0.104601)
(-0.0167342 -0.0618582 0.0911563)
(-0.0266211 -0.0387154 0.0608682)
(-0.0437459 -0.00591225 0.0423111)
(-0.0585701 0.0193542 0.0427574)
(-0.0711572 0.0489324 0.0538459)
(-0.0756703 0.0922497 0.0725518)
(-0.0582964 0.126714 0.0851678)
(-0.0166246 0.08497 0.0647062)
(0.0213544 -0.00283562 0.105195)
(0.0182181 -0.00924274 0.0873625)
(0.00739719 -0.00371819 0.0539631)
(-0.0118707 0.0105272 0.0287204)
(-0.0263544 0.0228082 0.0211117)
(-0.0359005 0.0353882 0.0229483)
(-0.0416858 0.0520164 0.0292093)
(-0.0396015 0.0765523 0.0383397)
(-0.0255901 0.095884 0.0474154)
(-0.00542018 0.061559 0.0408839)
(0.0188874 0.0303499 0.049999)
(0.0140847 0.0270535 0.0369071)
(0.00334396 0.0255939 0.021958)
(-0.0080935 0.0272235 0.0143248)
(-0.0165342 0.0318472 0.0127387)
(-0.0223751 0.0390584 0.0146765)
(-0.0254101 0.0493992 0.0183114)
(-0.0230883 0.063727 0.0228531)
(-0.0138241 0.0742228 0.0272944)
(-0.00285838 0.0454864 0.0241159)
(0.0134526 0.0397861 0.0199758)
(0.00751163 0.0362473 0.0157618)
(0.000595472 0.0333904 0.0121926)
(-0.00593049 0.0330822 0.0102709)
(-0.0111044 0.0352173 0.0096675)
(-0.0146089 0.0395522 0.0105946)
(-0.0161295 0.045919 0.0123357)
(-0.0142802 0.054642 0.014582)
(-0.00840249 0.0608517 0.016781)
(-0.00173689 0.0357798 0.0147692)
(0.0098536 0.0401208 0.0134721)
(0.00465015 0.0376098 0.0115403)
(-2.79122e-06 0.0356325 0.00982947)
(-0.00429304 0.03526 0.00848483)
(-0.00771928 0.0364389 0.00765419)
(-0.00983056 0.0390754 0.00786378)
(-0.0105417 0.0429497 0.00855779)
(-0.00907949 0.0483208 0.00962535)
(-0.00526958 0.0520645 0.0108045)
(-0.00107383 0.0292965 0.00935902)
(-0.0123224 -0.00830288 0.125309)
(-0.0338941 -0.00905655 0.11774)
(-0.0480099 -0.0101143 0.103467)
(-0.055115 -0.0106376 0.0858372)
(-0.0553441 -0.010882 0.0686602)
(-0.0502614 -0.0107616 0.0536678)
(-0.0416881 -0.0104359 0.0417143)
(-0.0309554 -0.0101018 0.0329396)
(-0.01886 -0.0100589 0.0277432)
(-0.00628849 -0.00928992 0.0236636)
(-0.0109213 -0.0265436 0.117651)
(-0.0316696 -0.0282428 0.110922)
(-0.044304 -0.0304357 0.0974619)
(-0.0499362 -0.0308038 0.0798032)
(-0.0496727 -0.0306394 0.0627389)
(-0.044618 -0.0298436 0.0481315)
(-0.0366764 -0.0286461 0.0367434)
(-0.0270612 -0.0274338 0.0284528)
(-0.0164346 -0.0270361 0.0234399)
(-0.00548098 -0.0251998 0.0199983)
(-0.00945982 -0.047333 0.123017)
(-0.0318677 -0.0530509 0.115202)
(-0.046566 -0.0545965 0.102136)
(-0.0516665 -0.0534942 0.0835079)
(-0.0507794 -0.0515828 0.0647105)
(-0.045052 -0.0491617 0.048904)
(-0.0365768 -0.0464013 0.0366515)
(-0.0267052 -0.0438493 0.0277794)
(-0.0161801 -0.0427309 0.0224227)
(-0.00542516 -0.0398231 0.018933)
(-0.00633893 -0.0649341 0.124998)
(-0.0291559 -0.0810484 0.116394)
(-0.0452022 -0.0830662 0.102422)
(-0.0498483 -0.0796452 0.0832013)
(-0.0482111 -0.0749742 0.0629362)
(-0.0420318 -0.0701121 0.0462601)
(-0.0334724 -0.0650566 0.0335572)
(-0.0240326 -0.0605552 0.0244754)
(-0.0144809 -0.0580306 0.0189293)
(-0.00489653 -0.0541862 0.0156355)
(-0.00078224 -0.0869432 0.120353)
(-0.0226345 -0.110902 0.110303)
(-0.0395095 -0.113787 0.0965531)
(-0.0441084 -0.107553 0.0777599)
(-0.0420363 -0.0990692 0.0571278)
(-0.0356835 -0.0908411 0.0401614)
(-0.0273978 -0.0827794 0.0274819)
(-0.0189479 -0.0756001 0.0185579)
(-0.011165 -0.0708998 0.0130484)
(-0.00380801 -0.0663963 0.0101065)
(0.00398373 -0.116604 0.110696)
(-0.0123148 -0.138133 0.101237)
(-0.0291467 -0.142076 0.0867501)
(-0.0347156 -0.134902 0.0684509)
(-0.0327652 -0.122892 0.0482407)
(-0.0264944 -0.110859 0.0312282)
(-0.0185884 -0.0992165 0.0186433)
(-0.0114694 -0.0884274 0.0100382)
(-0.00617688 -0.0804267 0.00482859)
(-0.00205028 -0.0751636 0.00225009)
(0.00301507 -0.142181 0.0859673)
(-0.00280709 -0.155622 0.0820059)
(-0.0157683 -0.161924 0.0669974)
(-0.0222768 -0.156572 0.0513732)
(-0.0210886 -0.144151 0.0352309)
(-0.0156433 -0.129607 0.0202271)
(-0.00823639 -0.113948 0.00813249)
(-0.00230689 -0.0981689 -0.000319661)
(0.000205 -0.0848482 -0.00518479)
(0.000101039 -0.0773237 -0.00744741)
(0.00185564 -0.158171 0.029242)
(0.00465024 -0.165041 0.028513)
(-0.000685526 -0.169854 0.0185099)
(-0.00457897 -0.165562 0.0111847)
(-0.00153908 -0.157708 0.00498906)
(0.0039199 -0.14517 -0.00297589)
(0.00952663 -0.127315 -0.00992874)
(0.0113181 -0.106991 -0.0146479)
(0.00834635 -0.0892053 -0.0172989)
(0.00145042 -0.0801622 -0.0182861)
(-0.00387892 -0.222092 0.0218918)
(0.00608936 -0.206172 0.0130252)
(0.0138395 -0.188692 -0.00828791)
(0.0191196 -0.174064 -0.0311424)
(0.0321786 -0.160073 -0.0485483)
(0.0505472 -0.144391 -0.0604319)
(0.0638181 -0.120569 -0.0641203)
(0.0624998 -0.0878768 -0.059913)
(0.0421206 -0.0581071 -0.0509125)
(0.0127064 -0.0485329 -0.0473946)
(-0.0647784 -0.536873 0.184233)
(-0.0486389 -0.441053 0.157356)
(-0.00242692 -0.331519 0.129206)
(0.00728382 -0.296831 0.125944)
(0.0629991 -0.277215 -0.0661357)
(0.0944607 -0.20436 -0.107035)
(0.135794 -0.15588 -0.134684)
(0.166641 -0.101549 -0.149138)
(0.155986 -0.0453367 -0.149219)
(0.0899879 -0.0166671 -0.162312)
(-0.106756 -0.633796 -0.00841896)
(-0.0492554 -0.534166 -0.153644)
(0.0841499 -0.393046 -0.273318)
(0.152419 -0.37519 -0.229702)
(0.13385 -0.453652 -0.168963)
(0.107687 -0.347366 -0.119578)
(0.0979068 -0.265403 -0.102428)
(0.0451533 -0.16077 -0.102946)
(0.0983065 0.00160043 -0.168937)
(0.229025 0.167565 -0.307344)
(-0.02376 -0.495342 -0.275256)
(-0.0595445 -0.436873 -0.327002)
(0.0251325 -0.329718 -0.461979)
(0.129524 -0.248336 -0.498346)
(0.16844 -0.228454 -0.424016)
(0.149581 -0.215938 -0.279409)
(0.116894 -0.198724 -0.129783)
(0.162165 -0.18635 -0.0547542)
(-0.0635215 -0.169183 -0.120495)
(0.210062 0.178848 -0.277553)
(0.0020751 -0.301855 -0.163286)
(-0.124356 -0.293553 -0.127992)
(-0.20103 -0.270424 -0.162777)
(-0.174075 -0.241014 -0.210028)
(-0.117933 -0.20046 -0.170802)
(-0.07489 -0.151349 -0.0539617)
(-0.0685667 -0.11654 0.0571955)
(-0.0941706 -0.0255338 0.102403)
(-0.148526 0.132983 0.0478079)
(0.0251227 0.316335 -0.0902274)
(0.00437644 -0.199076 -0.095187)
(-0.064333 -0.204322 -0.0720608)
(-0.118771 -0.173103 -0.0586972)
(-0.128746 -0.134268 -0.0489646)
(-0.109939 -0.11371 -0.0110773)
(-0.102413 -0.106791 0.0480914)
(-0.123826 -0.0954126 0.113027)
(-0.162368 -0.0580553 0.146085)
(-0.162188 0.0241345 0.0970754)
(-0.056669 0.154376 0.00796387)
(0.00967816 -0.147201 -0.00865559)
(-0.037033 -0.142604 0.0012527)
(-0.0634354 -0.115499 0.00162191)
(-0.0692194 -0.0734889 -0.00277043)
(-0.0627818 -0.0400334 0.00810188)
(-0.0643025 -0.0188052 0.0351059)
(-0.0827809 0.0037062 0.0732232)
(-0.111951 0.0375379 0.110271)
(-0.116657 0.0605908 0.104347)
(-0.0537511 0.0528915 0.0451173)
(0.017342 -0.0761828 0.0548461)
(-0.00628872 -0.0720907 0.0475837)
(-0.0217468 -0.0508892 0.0288603)
(-0.0320823 -0.0216276 0.0127134)
(-0.0357895 -0.00384997 0.0122985)
(-0.0412113 0.00659653 0.0249323)
(-0.0496944 0.0217314 0.0440601)
(-0.0572208 0.0510425 0.0665331)
(-0.0520767 0.074404 0.0769807)
(-0.0179399 0.0454327 0.0526892)
(0.0197747 -0.0133079 0.0517466)
(0.00737072 -0.0103254 0.0387779)
(-0.00521459 -0.00108554 0.0214586)
(-0.0158092 0.00982056 0.0117255)
(-0.021691 0.0180411 0.0120691)
(-0.0266542 0.0254308 0.018736)
(-0.0310832 0.036025 0.028488)
(-0.0304079 0.0537465 0.0397471)
(-0.0211212 0.0674395 0.048608)
(-0.00426412 0.0360252 0.0394747)
(0.0158427 0.0199788 0.0293854)
(0.00569298 0.0182286 0.0226252)
(-0.00247855 0.0184126 0.0153633)
(-0.00976907 0.0215652 0.0114789)
(-0.0145306 0.0258712 0.0113397)
(-0.0179711 0.0312172 0.0146413)
(-0.0201961 0.0388558 0.0195175)
(-0.018412 0.0504616 0.0251076)
(-0.0108664 0.0582649 0.0300291)
(-0.00180688 0.0296768 0.025484)
(0.0113862 0.0302687 0.0200759)
(0.00311683 0.0277637 0.0170443)
(-0.00216473 0.0266653 0.0132815)
(-0.0071108 0.0278191 0.0110824)
(-0.0105021 0.0302707 0.0103302)
(-0.0126315 0.0338875 0.0117039)
(-0.0136486 0.0389683 0.013927)
(-0.0119486 0.0464717 0.0166463)
(-0.0067242 0.0514393 0.0191638)
(-0.00107317 0.0259717 0.0163673)
(0.0081952 0.033619 0.0170133)
(0.00160005 0.0315673 0.0150606)
(-0.00196979 0.0306336 0.0119146)
(-0.0054138 0.0311363 0.0100658)
(-0.00779249 0.0326137 0.00887377)
(-0.00903384 0.0349918 0.00924077)
(-0.00943115 0.0383066 0.0100949)
(-0.007963 0.0431819 0.0113727)
(-0.00437579 0.0463629 0.0127378)
(-0.000670229 0.0230731 0.0107758)
(-0.0153357 -0.00237816 0.172187)
(-0.0459687 -0.00570067 0.155037)
(-0.0666215 -0.00774108 0.134444)
(-0.0755106 -0.00934299 0.109813)
(-0.0740544 -0.0103896 0.0857472)
(-0.0658267 -0.0108037 0.0657336)
(-0.053633 -0.0107579 0.050222)
(-0.0393269 -0.0105955 0.0390882)
(-0.0236991 -0.0106987 0.032667)
(-0.00783205 -0.00975904 0.0273939)
(-0.00999097 -0.0150917 0.170629)
(-0.0393861 -0.0223859 0.155573)
(-0.0614717 -0.0265118 0.130699)
(-0.0702511 -0.0290787 0.10501)
(-0.0681658 -0.0303496 0.0797168)
(-0.0597269 -0.0304585 0.0596949)
(-0.048054 -0.0298267 0.0446311)
(-0.0349467 -0.0290118 0.0339451)
(-0.0209689 -0.0289615 0.0277127)
(-0.00692868 -0.0267023 0.0232875)
(-0.00886187 -0.0313192 0.174111)
(-0.0398895 -0.0451564 0.172647)
(-0.0629513 -0.0517416 0.142545)
(-0.0730785 -0.0533303 0.111779)
(-0.0710003 -0.0529885 0.0837696)
(-0.0613706 -0.0513706 0.0613538)
(-0.0488163 -0.0491323 0.0450853)
(-0.0351523 -0.0469506 0.0335345)
(-0.0210204 -0.0462361 0.0267616)
(-0.00698412 -0.0426049 0.0222251)
(-0.00618464 -0.0587337 0.181355)
(-0.0410576 -0.0716653 0.186571)
(-0.0619082 -0.0828667 0.152354)
(-0.0720877 -0.083052 0.11476)
(-0.0700106 -0.0793963 0.0840081)
(-0.0592487 -0.0749228 0.0592523)
(-0.0461622 -0.0700973 0.0421102)
(-0.0326734 -0.065691 0.0301037)
(-0.019421 -0.0635672 0.0229921)
(-0.0065089 -0.058768 0.0186912)
(-0.0123259 -0.105514 0.185262)
(-0.0437369 -0.106569 0.188649)
(-0.0566923 -0.119341 0.150797)
(-0.0659399 -0.116233 0.110692)
(-0.064319 -0.107972 0.0791435)
(-0.0531866 -0.0992778 0.0532203)
(-0.0400528 -0.0908521 0.035796)
(-0.0274637 -0.0833971 0.023834)
(-0.0160883 -0.0788591 0.0165881)
(-0.00541808 -0.0733204 0.012678)
(-0.0254522 -0.166735 0.157545)
(-0.049347 -0.147637 0.164613)
(-0.0515831 -0.152201 0.134975)
(-0.0563535 -0.148142 0.0982366)
(-0.0546856 -0.13721 0.0696142)
(-0.0440592 -0.123785 0.0440635)
(-0.0311668 -0.110947 0.0265891)
(-0.0197279 -0.0995908 0.014792)
(-0.0108811 -0.0912778 0.00762976)
(-0.00361844 -0.0849886 0.00405823)
(-0.0304493 -0.21711 0.0943807)
(-0.0478567 -0.18461 0.105825)
(-0.0459493 -0.173211 0.0974546)
(-0.0435486 -0.171064 0.0696264)
(-0.039595 -0.161961 0.0501215)
(-0.0313622 -0.146803 0.0308503)
(-0.0203976 -0.129984 0.0155555)
(-0.0107002 -0.113677 0.00429419)
(-0.00461177 -0.0999532 -0.00304122)
(-0.00163717 -0.0918272 -0.00650185)
(-0.0287138 -0.255829 0.0968452)
(-0.0304229 -0.223068 0.0657346)
(-0.0271587 -0.191365 0.0472789)
(-0.0211135 -0.181148 0.0223004)
(-0.0125528 -0.172723 0.00881651)
(-0.00521437 -0.161667 0.00279186)