/*--------------------------------*- C++ -*----------------------------------*\
| =========                 |                                                 |
| \\      /  F ield         | OpenFOAM: The Open Source CFD Toolbox           |
|  \\    /   O peration     | Version:  2312                                  |
|   \\  /    A nd           | Website:  www.openfoam.com                      |
|    \\/     M anipulation  |                                                 |
\*---------------------------------------------------------------------------*/
FoamFile
{
    version     2.0;
    format      ascii;
    arch        "LSB;label=32;scalar=64";
    class       volScalarField;
    location    "1.04";
    object      p_rgh;
}
// * * * * * * * * * * * * * * * * * * * * * * * * * * * * * * * * * * * * * //

dimensions      [1 -1 -2 0 0 0 0];

internalField   nonuniform List<scalar> 
8000
(
390.86
391.222
392.08
393.287
394.794
396.42
398.026
399.523
400.535
401.059
391.136
391.503
392.398
393.714
395.331
397.104
398.766
400.208
401.5
402.1
391.672
392.038
393.037
394.528
396.344
398.231
399.983
401.981
403.783
404.438
392.55
393.039
394.256
396.023
398.108
400.215
402.402
404.422
406.08
406.736
393.632
394.33
395.929
398.161
400.718
403.357
405.627
407.442
405.975
406.709
394.761
395.747
397.986
400.987
404.357
407.721
410.889
412.596
410.069
410.446
396.265
397.671
400.798
404.748
408.967
412.996
416.688
418.845
420.485
417.46
375.241
385.262
399.803
408.681
416.473
420.969
424.716
426.831
427.871
427.051
91.5086
109.664
153.15
211.356
272.776
323.116
355.332
372.405
375.907
371.649
0.237398
0.203549
0.179105
2.40474
25.4543
43.5672
51.2736
51.3136
52.1625
54.5133
0.202935
0.183236
0.16239
0.158901
0.148459
0.144036
0.141158
0.128525
0.118789
0.117966
0.397787
0.326028
0.182431
0.151528
0.135805
0.134729
0.135434
0.132665
0.125847
0.1234
0.617026
0.638685
0.529874
0.239426
0.126801
0.117205
0.11329
0.113499
0.114475
0.156204
0.640083
0.664839
0.661856
0.640646
0.142233
0.0931124
0.0814399
0.0827631
0.0992875
0.186345
0.65498
0.673065
0.663626
0.647194
0.384178
0.0719789
0.0552832
0.0724931
0.101587
0.366791
0.656375
0.678945
0.668204
0.651041
0.635274
0.137018
0.0328571
0.0482365
0.117256
0.370993
0.356203
0.581751
0.683729
0.664888
0.641352
0.51505
0.0196532
0.0206794
0.164455
0.378218
0.10466
0.242186
0.708252
0.687108
0.644826
0.606639
0.171577
0.00565857
0.147534
0.162065
0.0822221
0.101088
0.376966
0.426384
0.0913397
0.36628
0.0900052
0.0221799
0.0644393
0.0619212
0.115044
0.181706
0.176982
0.0541442
0.0242493
0.00484584
0.0123065
0.0516229
0.0790918
0.0775869
389.902
390.296
391.147
392.429
393.969
395.641
397.282
398.775
399.784
400.491
390.103
390.541
391.464
392.805
394.425
396.23
397.935
399.399
400.496
401.137
390.574
390.982
392.019
393.533
395.346
397.258
399.064
400.689
402.289
403.342
391.273
391.794
393.031
394.83
396.942
399.008
400.836
402.61
403.823
406.058
392.079
392.867
394.541
396.827
399.437
402.046
404.231
406.233
406.082
408.992
392.973
393.938
396.186
399.246
402.717
406.331
409.387
411.845
412.874
413.998
394.517
395.923
398.956
402.887
407.055
411.09
415.189
417.879
419.837
420.961
372.638
383.136
398.782
410.195
415.635
419.821
423.445
425.946
428.183
429.774
98.5382
119.706
166.668
224.013
279.824
322.58
347.829
372.841
394.389
382.274
0.229601
0.168842
0.143062
11.1598
32.2607
52.1022
59.968
60.8334
63.0207
56.6368
0.182559
0.152446
0.138979
0.138236
0.140938
0.139124
0.134112
0.116818
0.0993022
0.100986
0.15701
0.177214
0.151181
0.135338
0.126606
0.120706
0.114284
0.107928
0.100533
0.107189
0.451126
0.550489
0.393464
0.191133
0.117817
0.104882
0.137206
0.157877
0.106372
0.103175
0.575617
0.617842
0.638705
0.628856
0.179932
0.0783228
0.067505
0.0998449
0.0926375
0.0807313
0.557987
0.613589
0.635571
0.638916
0.626729
0.125793
0.0250898
0.0360791
0.0661489
0.118458
0.0703249
0.27209
0.623755
0.633606
0.626058
0.185648
0.0117739
0.0224284
0.0663329
0.363182
-0.00937739
0.0565679
0.626732
0.626193
0.606333
0.355882
-0.0114263
0.00742368
0.0783027
0.371489
-0.00855439
0.03948
0.542573
0.63735
0.0217527
0.543019
0.0665994
-0.00255349
0.172377
0.184807
0.0493009
0.014062
0.149873
0.465311
-0.0182228
0.246472
0.0538233
0.0162565
0.210839
0.060554
0.074201
0.0329988
0.168612
0.0995082
-0.00333168
-0.0337648
0.0405003
0.0595239
0.130566
0.0778536
388.398
388.817
389.731
391.071
392.734
394.597
396.577
398.2
398.859
399.351
388.458
388.903
389.887
391.324
393.115
395.152
397.237
398.794
399.489
400.009
388.577
389.06
390.162
391.791
393.83
395.958
397.941
399.819
400.533
401.422
388.812
389.371
390.675
392.601
394.919
397.16
399.172
401.385
402.595
404.389
389.244
390.007
391.703
394.076
396.849
399.72
402.227
404.79
406.821
408.033
389.565
390.504
392.627
395.704
399.451
403.662
406.973
410.05
412.517
413.333
390.843
392.097
394.824
398.637
402.953
407.721
412.59
416.604
419.411
420.773
340.436
352.588
373.499
399.876
412.026
416.4
421.57
425.531
428.739
430.711
94.8667
108.207
134.755
177.634
237.862
292.679
331.854
368.026
402.655
401.889
0.237358
0.21798
2.84293
13.0404
30.8862
56.6316
82.2208
94.4835
94.7276
93.4879
0.207955
0.192028
0.121832
0.1116
0.116127
0.13059
0.131854
0.113566
0.0899774
0.0891905
0.128233
0.145916
0.14036
0.123429
0.107478
0.144937
0.192977
0.223433
0.162316
0.0894813
0.109278
0.161892
0.156137
0.130838
0.125226
0.22424
0.310605
0.286071
0.175331
0.0780519
0.402662
0.410386
0.477822
0.39523
0.204253
0.15681
0.282727
0.272732
0.0894426
0.0560394
0.0397974
0.157757
0.634079
0.635194
0.509328
0.128705
0.0997845
0.217189
0.129195
0.0541343
-0.0185613
0.1331
0.618124
0.630298
0.616104
0.197098
-0.0134313
0.0401049
0.225717
0.232049
-0.0531747
0.393969
0.600475
0.598567
0.427721
0.34597
-0.0234589
0.0132241
0.215391
0.371269
-0.0619375
0.442454
0.613463
0.147877
-0.0522045
0.344886
-0.0194019
0.0155579
0.206312
0.0898725
-0.038242
0.158205
0.667333
0.0729544
-0.0567729
-0.0365627
-0.00811409
0.0438979
0.234992
0.0673821
-0.0111806
0.00445665
0.565557
0.443167
-0.0101174
-0.017759
0.109651
0.195368
0.19415
0.084048
386.289
386.75
387.725
389.144
390.894
392.834
394.798
396.548
397.309
397.854
386.125
386.617
387.666
389.195
391.089
393.224
395.469
397.363
398.049
398.618
385.796
386.349
387.545
389.291
391.466
393.864
396.195
398.249
399.048
399.751
385.329
385.973
387.392
389.477
392.038
394.73
397.164
399.537
400.846
402.274
384.81
385.633
387.427
390.037
393.175
396.544
399.692
402.696
404.632
406.249
384.098
385.017
387.132
390.384
394.53
399.126
403.547
407.45
410.16
411.572
384.117
385.094
387.652
391.802
397.225
402.846
408.313
413.755
417.35
419.324
291.505
300.144
318.883
351.14
394.236
411.661
418.31
423.381
427.347
430.076
58.8483
61.8098
71.5093
93.5026
142.135
216.844
284.25
340.766
392.059
415.699
0.218779
0.227645
0.767227
7.12148
19.4327
42.75
77.2091
114.149
132.006
142.522
0.174751
0.179575
0.129092
0.0849319
0.073299
0.108788
0.141098
0.122666
0.0904527
0.0831722
0.127101
0.13997
0.136328
0.115796
0.148967
0.250306
0.25377
0.281973
0.167227
0.0730072
0.0929464
0.115211
0.123435
0.115676
0.237333
0.304744
0.285815
0.228046
0.179629
0.0511335
0.0535625
0.098819
0.115832
0.127229
0.108855
0.125183
0.252178
0.210907
0.0369015
0.0280412
0.0110886
0.0706896
0.163344
0.427346
0.0516435
0.0360813
0.235381
0.23916
0.183637
0.0335888
-0.025729
0.222191
0.460767
0.389978
0.0333159
-0.00337768
0.147131
0.288288
0.32919
0.0602093
-0.00808814
0.580815
0.601758
0.00443444
0.0174684
0.0228165
0.0408867
0.277441
0.34435
0.201811
-0.0436357
0.594506
0.55396
-0.0236533
-0.0383823
-0.0183869
0.0376926
0.0862869
0.0856922
0.0449025
-0.0558167
0.616884
0.654471
-0.00346813
-0.0357968
-0.0196119
0.048677
0.132242
0.12675
0.0740265
-0.0337872
0.263635
0.734501
0.346176
0.0252601
0.0524192
0.134924
0.265765
0.197042
0.0986037
383.777
384.285
385.328
386.83
388.668
390.681
392.662
394.401
395.377
396.115
383.337
383.887
385.017
386.649
388.644
390.848
393.064
395.035
396.012
396.778
382.406
383.054
384.369
386.265
388.579
391.158
393.734
395.897
397.17
398.026
380.986
381.756
383.346
385.661
388.45
391.532
394.461
397.011
398.754
400.194
378.908
379.939
381.948
384.943
388.512
392.419
396.229
399.553
402.032
403.777
376.169
377.467
379.798
383.322
387.926
393.364
398.843
403.539
406.746
408.741
372.657
374.362
377.37
381.915
388.34
395.815
402.785
409.054
413.391
416.446
193.295
206.791
229.052
260.629
316.074
384.439
411.413
419.112
423.87
427.371
16.0827
17.2717
21.6648
30.6355
53.7548
107.791
201.194
294.139
357.841
408.835
0.197064
0.216761
0.237337
0.247475
3.23582
18.2057
48.2351
95.8369
141.435
175.338
0.15211
0.151869
0.140075
0.131408
0.112774
0.11251
0.14523
0.135389
0.0974434
0.0850592
0.142528
0.154169
0.151477
0.140102
0.258354
0.284193
0.194068
0.167971
0.0970993
0.0512227
0.184725
0.134881
0.138126
0.135177
0.208464
0.0941822
0.0804229
0.210939
0.0634207
0.0306098
0.0601154
0.105857
0.112535
0.0966602
0.0839496
0.0637985
0.173798
0.170452
0.138171
0.0143828
0.0190906
0.07773
0.0783833
0.0712048
0.0625128
0.142433
0.226269
0.194033
0.222863
0.0167853
0.0143946
0.40902
0.151218
0.0366816
0.00880985
0.178859
0.228221
0.250805
0.196621
0.0535586
0.0554033
0.613001
0.479341
0.00929109
-0.0239925
0.0227899
0.26892
0.291566
0.124584
0.140823
0.0899287
0.62301
0.629242
0.01085
-0.0133576
-0.0130124
0.0325292
0.0708483
0.0600736
0.0740603
0.0686389
0.638756
0.680791
0.326023
0.0199275
0.030823
0.0721981
0.0795651
0.202689
0.0956864
-0.0546507
0.585128
0.704359
0.741588
0.106422
0.092473
0.248181
0.220817
0.410716
0.376208
381.131
381.682
382.788
384.368
386.292
388.382
390.423
392.207
393.398
394.14
380.399
381
382.206
383.941
386.034
388.325
390.582
392.577
393.833
394.758
378.826
379.56
380.986
383.015
385.469
388.193
390.908
393.297
394.833
395.914
376.308
377.228
378.991
381.447
384.512
387.896
391.296
394.3
396.339
397.976
372.458
373.636
375.956
379.028
382.984
387.6
392.104
396.086
399.038
400.946
367.352
368.753
371.772
375.555
380.435
386.516
393.009
398.834
402.622
405.224
347.625
352.784
363.053
370.391
377.268
386.485
395.618
403.484
408.351
412.194
84.3389
96.9068
118.899
156.223
209.575
297.203
382.025
412.168
419.033
419.776
0.588521
0.598957
0.835661
2.57344
8.09914
32.1226
95.5887
209.962
303.954
382.551
0.287973
0.285314
0.308848
0.341967
0.420174
1.59902
15.4253
53.1749
113.124
165.493
0.231449
0.227129
0.22547
0.223279
0.23811
0.206428
0.161588
0.125122
0.0987952
0.0936493
0.214918
0.193789
0.191136
0.19218
0.338015
0.314186
0.172421
0.121827
0.0828072
0.0522638
0.196108
0.150115
0.151393
0.13428
0.148409
0.117915
0.106418
0.0447934
0.063887
0.0331239
0.0640327
0.10727
0.109438
0.101711
0.101278
0.0939546
0.189547
0.167346
0.161167
0.0512242
0.0349566
0.116512
0.118433
0.0774647
0.0774088
0.0898404
0.291255
0.244634
0.0782106
0.0491456
0.0609757
0.558572
0.455864
0.0491723
0.0302244
0.0333806
0.227211
0.264836
0.0654595
0.0532583
0.140975
0.632095
0.630907
0.0327009
-0.00705819
-0.0325999
-0.030415
0.135009
0.203499
0.0869151
0.210343
0.637722
0.653612
0.44304
-0.00591284
-0.0228526
-0.0123508
0.00925534
0.193451
0.227972
0.188832
0.636633
0.670617
0.691749
0.178431
0.0467241
0.0876414
0.0334659
0.0625316
0.319623
0.0448179
0.624156
0.670438
0.710799
0.713416
0.563378
0.257113
0.0376237
0.0342838
0.34304
378.592
379.19
380.35
381.983
384.007
386.177
388.297
390.147
391.463
392.259
377.611
378.259
379.493
381.355
383.515
385.895
388.264
390.318
391.758
392.786
375.506
376.297
377.777
379.815
382.353
385.348
388.215
390.774
392.53
393.652
372.046
373.068
374.967
377.57
380.714
384.33
388.034
391.375
393.787
395.134
366.637
367.974
370.508
373.947
378.052
382.9
387.899
392.48
395.725
397.679
359.623
361.563
365.267
368.757
373.535
379.943
387.001
393.979
398.181
401.421
307.217
314.532
330.451
350.422
366.226
377.164
387.573
397.789
402.785
408.047
36.0425
45.8303
62.7625
87.7361
123.456
197.788
310.765
389.899
412.976
414.806
0.39352
0.392461
0.405563
0.42279
0.532441
3.19343
34.2559
118.985
231.686
348.185
0.317649
0.325839
0.346502
0.374191
0.436774
0.539441
1.11807
14.9024
59.0172
111.603
0.260261
0.274506
0.283423
0.28538
0.384825
0.420627
0.329464
0.125303
0.0866778
0.0992236
0.252776
0.232548
0.220386
0.243037
0.364799
0.363916
0.307447
0.255888
0.109829
0.061614
0.126175
0.15758
0.149159
0.134835
0.125075
0.127571
0.132941
0.113859
0.202755
0.0521448
0.151565
0.122111
0.104553
0.0936367
0.09644
0.0935377
0.14724
0.135501
0.212842
0.0714087
0.201711
0.191563
0.377758
0.0748591
0.0755556
0.0717294
0.223829
0.289949
-0.00732817
0.081433
0.15277
0.58971
0.617463
0.190652
0.0399022
0.0281107
0.0512991
0.104405
0.109822
0.0796411
0.172221
0.636148
0.635347
0.564346
0.00230953
-0.0179003
-0.00819369
-0.00216427
0.188782
0.0891959
0.154972
0.639451
0.645928
0.643956
0.0950133
-0.0288553
-0.0147212
0.000220369
0.0391106
0.275531
0.0746385
0.614736
0.648128
0.658364
0.622356
0.0176226
-0.0181064
0.0024843
0.00435739
0.293688
0.045378
0.283049
0.630955
0.662925
0.675338
0.532915
-0.0226895
0.00144322
0.00858257
0.141812
376.426
377.084
378.308
380.032
382.099
384.311
386.491
388.395
389.774
390.632
375.274
375.972
377.32
379.28
381.549
383.93
386.327
388.442
389.948
390.976
372.782
373.605
375.232
377.524
380.339
383.136
385.972
388.577
390.482
391.609
368.588
369.711
371.874
374.673
378.024
381.627
385.276
388.757
391.419
392.887
362.182
363.59
366.586
370.24
374.504
379.193
384.251
389.195
392.66
394.914
354.658
357.033
359.899
364.035
368.969
374.462
381.663
389.709
394.142
397.784
279.981
286.603
305.205
330.187
351.089
369.21
380.794
391.406
398.39
403.513
19.2802
26.4695
40.5972
61.6278
87.341
135.27
238.179
346.314
398.859
409.714
0.385107
0.411491
0.436599
0.463319
0.473047
0.487848
7.4912
60.9928
169.125
305.455
0.347187
0.337243
0.370903
0.398975
0.436081
0.480603
0.515499
2.09476
17.4615
50.8021
0.308358
0.34612
0.32029
0.343627
0.502835
0.501213
0.383515
0.164645
0.0940668
0.108365
0.165071
0.29554
0.334456
0.270939
0.394846
0.442619
0.40942
0.358243
0.122905
0.0821381
0.188358
0.307168
0.266641
0.215048
0.146353
0.159114
0.181095
0.299447
0.269228
0.0800574
0.278408
0.285529
0.177389
0.263252
0.164786
0.0969847
0.0745215
0.064366
0.254147
0.068734
0.278275
0.142261
0.404345
0.293999
0.155168
0.0827782
0.0415478
0.046197
-0.00536966
0.0555703
0.17462
0.178144
0.594511
0.262366
0.0333646
0.0487239
0.0195726
0.0560951
0.0765011
0.196034
0.0521561
0.179591
0.474272
0.28569
0.0111723
0.000211806
0.00551125
0.00960445
0.12241
0.344998
0.0328914
0.0633373
0.34277
0.489345
0.0648582
-0.0082002
-0.0064105
-0.00979678
0.00371265
0.192205
0.0095698
-0.00907762
0.514013
0.652145
0.573041
0.192736
-0.0165118
-0.0124399
-0.00457549
0.0347672
0.12515
0.0593782
0.534929
0.653017
0.674186
0.427323
-0.0226959
-0.0153758
-0.00611666
0.0235808
374.825
375.51
376.757
378.487
380.586
382.87
385.104
387.068
388.467
389.477
373.591
374.276
375.606
377.438
379.727
382.276
384.759
386.993
388.59
389.709
370.72
371.622
373.215
375.353
377.954
381.012
384.092
386.884
388.926
390.168
366.119
367.375
369.544
372.372
375.42
378.96
382.927
386.705
389.483
391.137
359.18
360.744
363.611
367.301
371.32
375.921
381.338
386.631
390.26
392.772
351.109
352.695
355.794
360.359
365.514
371.322
378.305
386.014
390.876
395.112
269.141
272.473
288.824
314.758
338.712
361.144
375.656
386.694
394.924
400.411
11.7419
16.6367
28.5657
47.6031
71.135
109.724
185.023
303.54
381.147
405.222
0.329734
0.3727
0.429553
0.467399
0.495949
0.467639
0.915997
31.7587
125.477
263.843
0.322265
0.368523
0.416239
0.425152
0.43566
0.435531
0.450298
0.381229
3.10811
19.8679
0.263094
0.412992
0.469414
0.509476
0.435023
0.444736
0.309101
0.239501
0.150634
0.160475
0.150625
0.290378
0.412966
0.439964
0.47437
0.485433
0.460432
0.318331
0.176281
0.133846
0.241608
0.345674
0.364956
0.37295
0.213487
0.240617
0.446924
0.449952
0.266505
0.110957
0.291716
0.241444
0.194055
0.334181
0.267569
0.111168
0.107389
0.220507
0.340653
0.10663
0.288437
0.0941902
0.0991859
0.210891
0.239339
0.116422
0.0538317
0.0424867
-0.0018584
0.0595493
0.125381
0.081452
0.0853849
0.0693886
0.132003
0.0556748
0.0320452
0.018266
0.0518349
0.186538
0.0631562
0.0646565
0.0644656
0.0383202
0.0142138
0.00922647
0.0351663
0.0117073
0.145837
0.346243
0.0466723
0.040271
0.0467567
0.0696284
0.0176202
-0.00644504
0.0677986
0.00870652
0.00139898
0.19933
0.0949234
0.0125169
0.0216201
0.122477
0.129729
-0.0075774
0.111114
0.0197553
-0.0136576
0.0106371
0.162338
-0.0173535
-0.0309319
0.0648056
0.163059
-0.0115624
0.116573
0.0193685
-0.0244406
0.00254471
373.782
374.613
375.89
377.662
379.795
382.093
384.343
386.337
387.776
388.752
372.27
373.35
374.683
376.602
378.942
381.464
383.945
386.209
387.852
388.941
369.371
370.582
372.1
374.409
377.179
380.166
383.154
385.978
388.062
389.341
363.867
366.219
368.373
371.047
374.287
378.016
381.716
385.675
388.453
390.143
356.447
359.697
362.239
365.723
369.898
374.084
379.368
385.239
388.998
391.446
348.479
351.083
353.965
358.281
363.708
368.965
375.846
383.769
389.444
393.049
271.138
272.039
285.363
308.498
332.108
355.738
372.814
384.048
393.022
398.726
10.5854
13.6414
23.5183
40.6546
63.6971
100.152
162.256
281.286
370.894
402.936
0.283273
0.323838
0.414122
0.482893
0.50935
0.491813
0.495613
21.2347
105.719
239.199
0.253774
0.326372
0.430968
0.487008
0.457442
0.436741
0.439219
0.439968
0.762425
9.4914
0.18578
0.294903
0.420437
0.491081
0.517643
0.382154
0.352278
0.272125
0.217979
0.208584
0.145497
0.211425
0.38426
0.421756
0.274644
0.487872
0.514598
0.350102
0.228344
0.166885
0.173248
0.328934
0.356726
0.370751
0.183405
0.164438
0.451538
0.474195
0.3496
0.142466
0.280675
0.325312
0.340952
0.340789
0.187606
0.105642
0.133661
0.441377
0.405702
0.175686
0.246235
0.126092
0.230234
0.310979
0.173741
0.0677997
0.0993515
0.296014
0.172881
0.0908487
0.0852898
0.0814299
0.0697242
0.0947598
0.088018
0.0457492
0.0795148
0.0383059
0.0037296
0.157514
0.0697536
0.0660536
0.0517008
0.0267511
0.0129159
0.0724338
0.180276
0.0364786
0.0796354
0.335129
0.0545402
0.0434907
0.0245015
-0.00145547
-0.0185615
0.10578
0.400199
0.224259
0.00902392
0.294499
0.0936934
0.0134935
-0.0112217
-0.0325683
-0.0381358
0.155348
0.410598
0.41658
-0.0149364
-0.00154111
0.177268
-0.0130251
-0.0432034
-0.0533759
-0.047629
0.15244
0.42102
0.299384
-0.0289919
-0.0153958
373.629
374.451
375.745
377.525
379.66
381.969
384.223
386.216
387.656
388.642
371.924
373.181
374.542
376.47
378.794
381.331
383.827
386.084
387.724
388.831
368.586
370.421
372.022
374.283
377
380.057
383.013
385.833
387.929
389.22
363.565
366.055
368.049
370.857
374.275
377.986
381.833
385.537
388.312
390.017
356.496
359.6
362.081
365.529
369.944
374.535
379.24
384.975
388.868
391.208
348.741
351.69
354.521
358.688
363.782
369.5
375.656
383.223
389.393
392.923
269.539
273.877
289.716
311.855
333.242
354.02
372.091
383.838
392.997
398.513
10.2437
14.5967
24.6142
41.2969
62.9675
97.0505
157.388
280.336
373.64
404.522
0.269437
0.284185
0.36541
0.479265
0.545508
0.538481
0.522993
20.2562
105.203
239.375
0.203113
0.236963
0.333929
0.459555
0.50713
0.484278
0.489465
0.485238
0.471597
10.3308
0.148802
0.156232
0.275075
0.429093
0.505804
0.534232
0.436782
0.302087
0.23683
0.185933
0.124653
0.119033
0.184628
0.36313
0.345202
0.327345
0.527114
0.403674
0.258401
0.188711
0.105489
0.12905
0.302551
0.330026
0.253929
0.164787
0.214054
0.48353
0.413056
0.164896
0.098262
0.225171
0.314247
0.317979
0.294752
0.211575
0.139529
0.276314
0.424855
0.20788
0.116451
0.193962
0.242674
0.269711
0.0805205
0.146831
0.115414
0.15543
0.377541
0.217286
0.0940925
0.0778675
0.065514
0.0393208
0.0171094
0.0118977
0.368277
0.315268
0.247157
0.101186
0.0728265
0.067718
0.0472815
0.0110177
-0.011082
-0.00595921
0.390651
0.427743
0.261852
0.114853
0.0728327
0.04331
0.0109932
-0.0306436
-0.0374608
0.0355047
0.39161
0.415253
0.408397
0.355308
0.0579448
0.00852367
-0.0377164
-0.074604
-0.0473844
0.213774
0.391582
0.411684
0.250094
0.116768
0.0259615
-0.0136822
-0.0771268
-0.0992288
-0.0207059
0.257156
0.258293
0.403943
0.000329488
-0.0403636
374.376
375.044
376.308
378.077
380.203
382.492
384.735
386.7
388.107
389.136
373.042
373.767
375.148
377.085
379.409
381.928
384.409
386.626
388.253
389.352
370.197
371.05
372.68
374.963
377.729
380.736
383.711
386.462
388.516
389.803
365.661
366.512
368.435
371.521
375.036
378.733
382.497
386.238
389.069
390.735
358.811
359.161
361.416
366.188
370.964
375.879
380.697
386.16
389.862
392.312
351.675
353.248
355.521
359.569
364.965
371.296
377.792
385.204
390.763
394.881
260.641
272.526
290.631
313.535
336.237
358.483
374.581
386.087
394.797
400.154
9.36221
15.9273
27.1459
43.836
65.8412
101.781
173.769
303.765
385.956
406.817
0.282934
0.283899
0.338529
0.447915
0.560416
0.581122
0.602768
30.2158
131.843
261.054
0.19442
0.222374
0.309584
0.417751
0.531538
0.518588
0.523199
0.434028
3.63724
19.8023
0.133936
0.139065
0.255385
0.352576
0.436981
0.516772
0.463665
0.25571
0.131269
0.155994
0.108715
0.101241
0.0842615
0.0961167
0.201274
0.340236
0.485392
0.358245
0.150447
0.14141
0.0972161
0.0766257
0.0658117
0.103861
0.13725
0.138851
0.216848
0.448901
0.294061
0.116292
0.0939134
0.0758465
0.108112
0.240939
0.235682
0.225162
0.113246
0.272781
0.419368
0.145795
0.0876343
0.0734168
0.187775
0.247618
0.227033
0.205157
0.0984473
0.136566
0.379964
0.201472
0.0770216
0.0946014
0.0886582
0.0598993
0.163309
0.199466
0.160136
0.178069
0.35838
0.0982709
0.129518
0.0827117
0.0442938
0.00398239
-0.0248504
0.114885
0.204273
0.275753
0.357778
0.026339
0.160734
0.0429366
-0.00109612
-0.0516386
-0.07729
0.0976278
0.134553
0.24125
0.358051
0.0464555
0.0364412
-0.00836137
-0.0712826
-0.117738
-0.0888507
0.181707
0.00557825
0.12182
0.350641
0.263523
-0.0148039
-0.0655378
-0.133408
-0.146137
0.00996311
0.208795
-0.0845876
-0.0485194
0.358967
0.351073
375.642
376.286
377.531
379.284
381.386
383.648
385.85
387.775
389.183
390.062
374.393
375.106
376.487
378.402
380.701
383.194
385.633
387.792
389.386
390.426
371.748
372.594
374.232
376.522
379.252
382.225
385.167
387.828
389.763
391.006
367.476
368.347
370.433
373.412
376.861
380.626
384.377
387.935
390.661
392.225
361.169
361.195
364.721
368.647
373.14
378.128
383.448
388.469
391.96
394.186
354.398
355.571
357.687
361.804
367.625
373.75
380.73
388.48
393.503
397.422
263.795
276.442
295.737
320.852
345.674
366.198
379.45
390.496
398.118
403.283
12.4518
19.6547
31.8307
50.9177
76.6388
121.176
222.563
347.532
403.132
410.651
0.316202
0.325425
0.366867
0.453658
0.566635
0.604902
3.78897
61.2554
174.076
301.788
0.207537
0.310877
0.389651
0.408292
0.470277
0.515407
0.487118
0.558159
19.7382
46.8352
0.162586
0.312741
0.320585
0.329224
0.372119
0.421262
0.355679
0.108793
0.0153637
0.0361121
0.0994896
0.150535
0.182493
0.193422
0.238884
0.300475
0.344286
0.152104
0.0518963
0.0527999
0.0840338
0.0634028
0.0359195
0.00570431
0.000734971
0.1196
0.302384
0.346305
0.0819599
0.0504239
0.0910127
0.0666734
0.0410001
0.00126766
-0.0538589
-0.077763
0.183724
0.306757
0.34475
0.0454046
0.0982773
0.0695856
0.0511903
0.0292639
-0.00704972
-0.0652539
-0.0461205
0.301074
0.328036
0.0566276
0.0970959
0.0957695
0.0568237
0.117996
0.160595
0.0149888
-0.0379131
0.0998533
0.314589
0.0435032
0.13345
0.0788283
0.0437043
0.133136
0.150023
0.118014
-0.0302951
0.032631
0.324236
-0.00209192
0.137903
0.066634
0.000961848
-0.0400673
0.0692597
0.0839175
-0.0474369
0.0314513
0.213383
-0.0549098
0.0625505
-0.0214931
-0.0818541
-0.117274
-0.0387028
0.0122335
-0.0640379
0.0096128
0.211063
-0.0542991
-0.0330078
-0.103384
-0.167622
-0.155957
-0.0309952
-0.0788966
-0.090543
0.00177585
0.267889
0.00311446
377.496
378.095
379.299
381.017
383.078
385.296
387.446
389.31
390.66
391.464
376.413
377.082
378.433
380.308
382.565
385.006
387.385
389.456
390.919
391.956
374.129
374.936
376.543
378.776
381.45
384.366
387.24
389.782
391.558
392.801
370.382
371.341
373.382
376.242
379.625
383.316
386.961
390.346
392.785
394.269
364.659
365.634
368.501
372.377
376.741
381.717
386.885
391.51
394.802
396.719
357.958
359.21
362.17
366.976
371.883
377.715
385.24
392.659
397.47
400.38
284.767
296.226
315.865
339.768
361.233
375.886
386.466
396.144
402.48
406.699
22.8384
30.4833
45.3261
70.5813
106.818
176.567
302.459
391.769
411.825
415.502
0.373848
0.405898
0.45819
0.51819
0.564888
0.891851
24.3858
114.958
240.08
343.026
0.216797
0.342346
0.418222
0.404532
0.448513
0.525475
0.516301
19.4346
64.8183
108.546
0.165847
0.302476
0.311622
0.31991
0.340849
0.324748
0.185149
-0.0567617
-0.00966098
-0.000471106
0.0751108
0.122873
0.254115
0.235926
0.213364
0.225784
0.122834
0.0116669
0.00391831
-0.000103531
0.07118
0.0499331
0.0780439
0.0814738
0.118964
0.157815
0.161096
0.0771051
0.0199403
0.00777475
0.08618
0.0577294
0.0395464
0.0348803
0.0519534
0.067591
0.158222
0.141527
0.0380035
0.00205805
0.0891565
0.0641698
0.0450929
0.0231529
0.00870585
-0.00311433
0.10861
0.232468
0.169557
-0.0159624
0.0628878
0.0690516
0.0518992
0.0339696
-0.00875441
-0.0414985
0.0483328
0.225728
0.313712
-0.0162941
0.07281
0.0823356
0.0658509
0.0721037
0.0114575
-0.0456148
-0.0177773
0.1152
0.288647
-0.0282699
0.107884
0.105859
0.0915085
0.0793673
-0.00285008
-0.0406495
-0.0640193
0.00796921
0.0569718
-0.0469215
-0.00429732
-0.00670158
0.0200009
0.0099138
-0.0418425
-0.0512293
-0.0627858
-0.0564409
-0.0612066
-0.0600169
-0.0475717
-0.116749
-0.109493
-0.060525
-0.098146
-0.0653228
-0.0625768
-0.046178
-0.0598727
-0.0663066
379.761
380.323
381.459
383.14
385.146
387.304
389.392
391.182
392.438
393.168
378.914
379.545
380.851
382.655
384.85
387.224
389.53
391.506
392.84
393.756
377.114
377.891
379.428
381.59
384.186
387.013
389.782
392.152
393.755
394.826
374.18
375.156
377.088
379.851
383.093
386.596
390.101
393.144
395.238
396.642
369.658
370.913
373.584
377.399
381.754
386.491
390.977
394.914
397.876
399.671
363.314
364.883
368.312
373.24
378.365
384.411
391.101
397.106
401.403
403.725
322.279
331.441
347.982
365.363
375.569
385.074
394.171
401.716
407.454
410.985
51.5714
62.7627
88.8021
132.45
194.32
287.057
380.014
410.541
418.017
422.467
0.455302
0.423742
0.439594
0.519903
3.68328
20.8723
82.2925
204.953
310.346
377.049
0.225676
0.280098
0.315576
0.31742
0.404041
0.544382
9.42114
63.439
125.838
164.954
0.103606
0.186056
0.268228
0.24947
0.190032
0.206335
-0.0483943
-0.124537
-0.0375295
-0.0474917
0.0620299
0.0587805
0.0925862
0.144247
0.123069
0.0822789
-0.00145415
-0.0248511
0.00317898
-0.0374749
0.0693612
0.0463357
0.071557
0.0771338
0.0585689
0.0861862
0.0245592
-0.00575358
0.0138759
-0.0088542
0.0773123
0.0523052
0.0449314
0.0560432
0.0534541
0.0268597
-0.00242718
-0.00305649
0.00412447
0.00192694
0.0614949
0.0483759
0.0282572
0.0306124
0.0494932
0.00719262
-0.0113546
-0.00423344
-0.00309409
0.00512867
0.049174
0.0435391
0.0335288
0.0164435
0.0472224
0.0245422
0.0024336
0.016533
0.0211927
0.00491738
0.100715
0.0463787
0.0316117
0.021379
0.0319972
0.0289396
0.0130216
0.0227275
0.0104691
-0.00119152
-0.00584914
0.0371796
0.0274578
0.00466519
-0.00702181
-0.000941645
-0.021359
-0.0152652
-0.0189134
-0.0158205
-0.0124372
0.0126799
0.0206223
-0.0245606
-0.0276175
-0.030821
-0.0321795
-0.0307622
-0.0378405
-0.0288338
-0.0417677
-0.0496407
-0.0429957
-0.0549579
-0.0496804
-0.0380688
-0.0366579
-0.0339008
-0.0452293
-0.0362718
382.211
382.742
383.848
385.441
387.375
389.467
391.499
393.22
394.352
395.011
381.643
382.234
383.455
385.203
387.323
389.623
391.877
393.766
394.924
395.695
380.444
381.176
382.618
384.692
387.193
389.892
392.558
394.677
396.06
396.923
378.52
379.437
381.116
383.696
386.788
390.105
393.345
395.905
397.743
398.917
375.724
377.042
379.615
382.981
386.929
391.268
394.942
398.187
400.803
402.419
371.299
373.017
376.473
380.757
385.75
391.121
396.722
401.518
404.951
406.855
363.658
368.065
373.139
379.545
386.843
394.313
400.972
406.808
411.911
414.444
129.223
154.342
197.852
252.673
318.599
383.24
409.024
417.573
422.847
426.072
2.74786
4.71665
9.06223
19.7792
43.4319
93.568
190.369
292.741
363.24
398.882
0.17947
0.185882
0.180526
0.206621
0.294341
6.92903
51.6365
108.674
153.812
167.736
0.115677
0.0941633
0.0920851
0.0858934
0.073863
-0.0226434
-0.223793
-0.0855955
-0.0646397
-0.0573297
0.091098
0.0677385
0.069867
0.0643666
0.0493725
-0.0150697
-0.0393619
0.0335003
-0.000590115
-0.0377864
0.0749067
0.056031
0.0733554
0.0631367
0.0631662
0.0307236
0.0025997
0.0533708
0.0162
-0.00555546
0.0626608
0.0473612
0.0294152
0.0432543
0.0814441
0.0430331
0.0200838
0.0177854
0.0153513
0.0142847
0.0466569
0.0370424
0.0182066
0.00313314
0.0414428
0.0345166
0.018694
0.0222595
0.0228101
0.0297275
0.176382
0.1816
0.0378211
-0.00462518
-0.00748316
0.0450326
0.0344965
0.0184844
0.0242573
0.0345835
0.180114
0.193356
0.0570364
0.0037577
-0.0119713
0.0190767
0.0474532
0.0132747
0.0195382
0.030226
0.0236274
-0.0109355
-0.00348075
0.00546207
-0.00709439
-0.0185962
0.0305895
0.0677556
0.0279101
0.0154169
-0.0349937
-0.0396484
-0.0313536
-0.0113833
-0.00584072
-0.0193156
0.0112631
0.109926
0.0114518
-0.00422779
-0.0100367
-0.0752741
-0.078754
-0.0443054
-0.0167233
0.00174148
0.183892
0.0787872
-0.0224796
-0.0167822
384.596
385.094
386.144
387.659
389.507
391.525
393.526
395.201
396.18
396.797
384.314
384.863
386.011
387.665
389.695
391.913
394.172
395.965
396.932
397.61
383.74
384.416
385.769
387.702
390.074
392.598
395.16
397.058
398.167
398.868
382.827
383.637
385.26
387.553
390.287
393.277
396.127
398.386
400.02
401.373
381.591
382.848
385.142
388.156
391.61
395.343
398.309
400.982
403.017
404.667
379.266
381.162
384.25
388.065
392.422
396.893
401.529
405.166
407.724
409.127
377.867
380.417
384.677
389.962
395.61
401.119
406.514
411.205
414.726
416.42
246.081
271.076
310.807
355.476
394.098
409.96
416.175
421.47
425.256
427.468
23.3663
32.257
48.3911
78.3884
130.643
207.743
285.247
347.52
387.336
397.646
0.108804
0.121082
0.176509
0.251067
7.37194
42.0391
87.346
127.247
131.81
120.366
0.116565
0.106625
0.0792338
0.0434811
-0.0509866
-0.203279
-0.110305
-0.084185
-0.0563858
-0.0347835
0.0981615
0.095604
0.0733035
0.0513005
0.00920619
-0.0407883
0.00169214
0.0266602