/*--------------------------------*- C++ -*----------------------------------*\
| =========                 |                                                 |
| \\      /  F ield         | OpenFOAM: The Open Source CFD Toolbox           |
|  \\    /   O peration     | Version:  2312                                  |
|   \\  /    A nd           | Website:  www.openfoam.com                      |
|    \\/     M anipulation  |                                                 |
\*---------------------------------------------------------------------------*/
FoamFile
{
    version     2.0;
    format      ascii;
    arch        "LSB;label=32;scalar=64";
    class       surfaceScalarField;
    location    "1.27";
    object      phi;
}
// * * * * * * * * * * * * * * * * * * * * * * * * * * * * * * * * * * * * * //

dimensions      [0 3 -1 0 0 0 0];

oriented        oriented;

internalField   nonuniform List<scalar> 
22600
(
-1.76934e-08
6.30001e-08
-4.53066e-08
-1.30198e-08
1.26692e-07
-1.31365e-07
2.92265e-08
1.75064e-07
-2.1731e-07
6.90318e-08
1.60997e-07
-2.00802e-07
7.60299e-08
1.09564e-07
-1.16562e-07
5.84088e-08
8.15271e-08
-6.3906e-08
3.74333e-08
7.14561e-08
-5.04807e-08
2.89076e-08
6.25528e-08
-5.40271e-08
4.48151e-08
4.58209e-08
-6.17284e-08
2.31496e-08
-7.3298e-08
2.2587e-08
8.81711e-08
-4.77581e-08
8.89119e-09
1.41593e-07
-1.20515e-09
-2.2854e-08
2.67221e-07
-6.04117e-08
-1.60309e-08
3.15159e-07
-1.60985e-07
-5.04138e-09
2.67899e-07
-1.69325e-07
-1.38755e-08
2.0236e-07
-1.11999e-07
-2.21944e-08
1.56683e-07
-7.69077e-08
-1.43619e-08
1.24648e-07
-6.99277e-08
2.01763e-08
7.64097e-08
-6.5127e-08
-1.09721e-08
-4.8552e-08
1.65299e-07
-1.07411e-07
3.02824e-08
1.39428e-07
-7.11379e-08
2.38602e-07
-8.62246e-09
2.0276e-07
2.1251e-07
-9.84092e-08
3.03236e-07
1.0171e-07
-8.79726e-08
3.19535e-07
-6.20717e-08
-6.04162e-08
2.83105e-07
-1.08301e-07
-7.11621e-08
2.48756e-07
-8.13279e-08
-9.52924e-08
1.94201e-07
-4.54231e-08
-3.30033e-08
-2.69187e-09
1.68124e-08
-2.51935e-07
9.0795e-08
2.58078e-07
-6.01909e-07
2.3642e-07
3.2631e-07
-5.28114e-07
3.88744e-07
9.88107e-08
6.83747e-08
3.61885e-07
-1.10813e-07
2.09041e-07
3.03818e-07
-1.67078e-07
2.49226e-07
1.26574e-07
-1.65849e-07
2.89494e-07
-7.61811e-09
-1.87376e-07
2.76555e-07
-6.27174e-09
-1.48644e-07
9.70542e-08
5.84151e-08
-8.86694e-09
-2.9971e-07
1.57242e-07
-5.35604e-07
1.57722e-07
8.06293e-08
-1.05301e-06
3.70471e-07
1.61612e-07
-8.86793e-07
2.77697e-07
-7.7314e-09
-1.64713e-07
4.02432e-07
-1.88078e-07
-5.61276e-09
3.95e-07
-2.45995e-07
3.45418e-08
2.72601e-07
-2.35938e-07
1.19272e-07
1.60165e-07
-1.67662e-07
7.24281e-08
1.35851e-07
-4.88181e-09
-2.13989e-07
1.48263e-07
9.39085e-08
-5.06999e-07
1.08499e-07
-5.50517e-07
1.10124e-08
-7.76541e-09
-1.13324e-06
8.79987e-08
7.10487e-08
-9.2935e-07
-3.62576e-08
-2.77086e-09
-4.18726e-07
3.27832e-07
-1.01519e-07
-2.66581e-07
3.59717e-07
-1.19179e-07
-1.88677e-07
2.40878e-07
-7.31777e-08
-8.9181e-08
1.62451e-07
3.01238e-08
-1.38656e-07
1.07782e-07
1.07926e-07
-3.1578e-07
2.39886e-08
8.70719e-08
-3.93894e-07
-9.22513e-08
-3.51767e-07
-1.90534e-07
1.34572e-07
-9.27931e-07
-3.39885e-07
2.37118e-07
-6.49306e-07
-3.8259e-07
2.40578e-07
-3.2408e-07
-9.81054e-08
1.94849e-07
-1.35028e-07
-8.58237e-08
1.43074e-07
-2.84298e-08
-1.08473e-07
1.1305e-07
1.49516e-08
-7.41078e-08
1.03499e-07
-3.36913e-08
-9.54145e-08
5.48245e-08
-9.02438e-08
-1.76861e-07
4.01369e-08
-7.66499e-08
-3.02556e-07
-1.90845e-08
-3.97442e-07
8.66538e-08
-6.2981e-07
-3.84774e-07
8.59483e-08
-1.6831e-07
-4.8029e-07
-3.2518e-08
1.23053e-07
-3.28667e-07
-2.55955e-07
3.02294e-07
-2.13886e-07
-4.35408e-07
3.36603e-07
-1.8558e-07
-4.70744e-07
2.76375e-07
-2.26088e-07
-4.2317e-07
2.18703e-07
-2.99967e-07
-3.43766e-07
2.21693e-07
-3.91341e-07
-2.12826e-07
2.62911e-07
-4.705e-07
3.3095e-07
-5.18894e-07
-1.85131e-07
-9.97284e-08
-3.44951e-07
-1.83591e-07
1.92579e-07
-3.62429e-07
-3.60092e-07
4.35222e-07
-1.35668e-07
-6.59441e-07
6.77577e-07
-7.59328e-08
-8.64796e-07
7.54459e-07
-2.12501e-07
-9.28436e-07
7.35541e-07
-3.95526e-07
-9.1013e-07
7.52995e-07
-5.52599e-07
-7.65758e-07
7.82969e-07
-7.05647e-07
-5.05617e-07
8.92864e-07
-8.90094e-07
1.12291e-06
-1.05593e-06
7.31193e-07
-1.19065e-06
3.59731e-07
1.56108e-06
-1.03833e-06
4.01028e-07
1.65469e-06
-2.24605e-07
5.66208e-07
1.04218e-06
5.88362e-07
7.01734e-07
1.22518e-07
1.01192e-06
6.62198e-07
-7.86969e-07
1.51519e-06
1.29835e-07
-1.15303e-06
1.42228e-06
-3.03217e-07
-9.30647e-07
9.02259e-07
-3.41679e-07
-3.83406e-07
3.85204e-07
-3.95805e-08
-1.14615e-07
7.51267e-07
-7.79703e-08
-1.24912e-06
1.36436e-07
1.24028e-07
-1.50086e-06
2.60533e-07
3.71849e-07
-1.17207e-06
6.99647e-07
1.90916e-07
-3.51923e-07
1.12122e-06
-5.35446e-07
1.00119e-06
7.3709e-07
-6.99925e-07
1.89414e-06
-2.14476e-07
-3.15048e-07
2.31992e-06
-1.28251e-06
1.76141e-07
2.50135e-06
-2.09028e-06
3.39056e-07
2.21743e-06
-1.99514e-06
1.2842e-06
-7.12628e-07
-1.22299e-06
-2.63913e-08
2.65088e-10
-1.90344e-06
-1.31848e-06
4.98065e-07
-2.51204e-06
-1.1637e-06
6.00229e-07
-3.0607e-06
-5.47572e-07
7.44309e-07
-3.23493e-06
4.3367e-07
7.41745e-07
-2.25734e-06
2.88221e-07
6.28333e-07
-8.93303e-07
3.64096e-07
5.91787e-07
2.68454e-08
1.05837e-06
5.22828e-07
2.5531e-07
1.40263e-06
5.86344e-07
8.33558e-07
1.14711e-06
-1.29639e-06
1.45267e-06
-1.82664e-07
-2.43508e-06
-1.52224e-07
-2.75673e-08
-4.15469e-06
4.33502e-07
1.22416e-07
-5.90515e-06
7.31604e-07
4.71279e-07
-6.08266e-06
4.33945e-08
5.67784e-07
-4.7602e-06
-1.69081e-06
6.56576e-07
-3.0976e-06
-2.14199e-06
8.43472e-07
-1.9506e-06
-1.10868e-06
1.02005e-06
-1.57137e-06
-1.55174e-07
1.17858e-06
-7.77693e-08
1.30233e-06
-8.13078e-07
2.57147e-06
-3.05728e-07
-1.98242e-06
1.18185e-06
-1.64728e-07
-3.92541e-06
2.00552e-06
3.70966e-07
-5.73792e-06
1.43451e-06
1.10961e-06
-6.44459e-06
-5.43009e-07
1.29307e-06
-6.30591e-06
-2.92572e-06
1.09624e-06
-5.69585e-06
-3.35413e-06
6.02089e-07
-4.71439e-06
-2.08293e-06
-7.20919e-09
-4.04514e-06
-8.06998e-07
-1.74205e-08
-2.9407e-07
6.41652e-09
1.2569e-07
2.49828e-06
-5.24902e-08
-9.12796e-07
1.99897e-06
2.21365e-07
-2.84121e-06
3.31322e-06
6.2072e-07
-4.62144e-06
1.73866e-06
1.47609e-06
-5.65287e-06
-1.11348e-06
1.60189e-06
-6.58815e-06
-3.31315e-06
1.32271e-06
-7.16429e-06
-3.62501e-06
8.47012e-07
-6.87292e-06
-2.24717e-06
-1.27124e-07
-6.0409e-06
-6.88088e-07
-9.50919e-07
1.23198e-07
-1.44181e-06
6.88384e-07
1.67378e-06
1.36098e-07
3.59626e-07
1.69266e-06
6.35058e-07
-1.09659e-06
3.99461e-06
7.7481e-07
-2.66113e-06
1.794e-06
1.5092e-06
-3.80138e-06
-1.56947e-06
1.59624e-06
-5.68966e-06
-2.92759e-06
1.50273e-06
-7.25275e-06
-3.22997e-06
1.16804e-06
-7.89456e-06
-2.23306e-06
6.27709e-07
-7.54471e-06
-6.57487e-07
-3.80442e-07
2.95015e-07
-1.3668e-06
7.72838e-07
9.43462e-07
-4.25074e-08
7.63717e-07
1.07544e-06
6.26349e-07
8.1212e-08
3.77694e-06
9.00195e-07
-7.82533e-07
1.53977e-06
1.11797e-06
-2.00405e-06
-1.80852e-06
1.46058e-06
-4.30787e-06
-2.35512e-06
1.73135e-06
-6.30215e-06
-2.63907e-06
1.40337e-06
-7.19468e-06
-2.40551e-06
1.06498e-06
-7.20535e-06
-1.5457e-06
8.98871e-07
-8.89815e-07
6.45647e-07
1.36247e-07
1.07143e-06
-2.64231e-07
-3.95598e-07
1.46313e-06
1.4415e-07
-3.18232e-07
3.07355e-06
6.26008e-07
-6.27559e-07
8.81779e-07
9.67313e-07
-2.1376e-06
-1.9755e-06
1.67703e-06
-4.01291e-06
-2.51014e-06
2.03032e-06
-5.6502e-06
-2.58314e-06
1.58136e-06
-6.52476e-06
-2.51397e-06
9.83018e-07
-6.5591e-06
-2.35193e-06
8.40547e-07
-2.25506e-06
8.62805e-07
-6.27241e-07
2.08414e-06
-3.85461e-07
-1.93911e-06
2.79271e-06
-1.7716e-08
-1.80308e-06
2.34153e-06
5.95994e-07
-1.89257e-06
-4.17085e-07
1.38836e-06
-3.15326e-06
-2.62262e-06
1.90781e-06
-4.38506e-06
-3.29829e-06
2.01995e-06
-5.47903e-06
-3.08754e-06
1.59837e-06
-6.10858e-06
-2.63846e-06
7.54033e-07
-6.20783e-06
-2.39678e-06
1.4411e-07
-2.54958e-06
-5.97787e-09
-8.514e-07
-5.42979e-07
3.47852e-06
-1.9526e-06
8.14847e-08
3.81242e-06
-2.35133e-06
8.83104e-07
1.85715e-06
-3.00252e-06
1.54505e-06
-1.31095e-06
-3.84475e-06
1.59037e-06
-3.37076e-06
-4.63468e-06
1.56974e-06
-4.0781e-06
-5.37108e-06
1.36872e-06
-3.71987e-06
-5.80141e-06
7.99286e-07
-3.00742e-06
-5.76703e-06
-6.16698e-08
-2.36948e-06
-6.26119e-07
-2.21473e-06
-8.32609e-08
1.08177e-07
-7.02226e-08
-3.70511e-08
-3.0528e-08
-1.47047e-07
9.72139e-08
-1.10569e-07
-2.41006e-07
1.95482e-07
-3.17169e-08
-2.67354e-07
2.14127e-07
4.74211e-08
-1.82628e-07
1.89838e-07
5.76554e-08
-9.72729e-08
1.58293e-07
4.64704e-08
-6.54057e-08
1.29825e-07
3.75572e-08
-6.31161e-08
1.06642e-07
3.14517e-08
-6.99972e-08
4.33915e-09
-8.16068e-08
1.07932e-07
6.18677e-08
-1.09381e-07
3.07206e-07
-3.71358e-07
1.40351e-07
3.21208e-07
-3.64553e-07
1.7957e-07
2.72792e-07
-9.88301e-08
-4.54558e-08
2.25032e-07
1.29136e-07
-2.03281e-07
1.63663e-07
1.76495e-07
-1.6947e-07
1.19175e-07
1.24205e-07
-1.10155e-07
9.80417e-08
7.7243e-08
-8.84802e-08
9.09164e-08
5.90676e-08
-8.56177e-08
3.60601e-09
-7.29722e-08
3.37331e-07
-2.32714e-07
-1.24663e-08
6.03703e-07
-9.00285e-07
5.01157e-07
4.99391e-07
-6.20234e-07
5.72504e-07
2.63667e-07
-1.19428e-07
3.58032e-07
1.77388e-07
1.66128e-07
-1.27846e-08
1.56272e-07
2.49221e-07
-1.59911e-07
1.34764e-07
1.99934e-07
-1.35549e-07
9.14623e-08
1.64972e-07
-8.985e-08
4.82083e-08
1.53312e-07
-3.4178e-08
-6.66915e-08
7.74234e-08
3.88927e-07
-6.28491e-07
2.4327e-07
4.20021e-07
-1.12876e-06
5.86121e-07
1.85298e-07
-6.50752e-07
6.27126e-07
-3.40257e-08
-1.49167e-07
5.52881e-07
-2.1854e-08
7.83797e-08
2.0215e-07
4.58327e-08
2.24354e-07
-5.04373e-08
4.36663e-08
2.69938e-07
-7.41087e-08
-3.91324e-09
2.77985e-07
-7.01791e-09
4.57997e-08
1.633e-07
9.75408e-08
-1.90656e-07
1.91697e-07
1.22515e-07
-6.50852e-07
2.70318e-07
-4.44123e-08
-9.27397e-07
2.43263e-07
-2.16082e-07
-6.22448e-07
5.45798e-07
-2.82771e-07
-3.0115e-07
6.13672e-07
-1.97448e-07
-1.24966e-07
3.90624e-07
-7.27371e-08
7.16206e-08
1.88187e-07
3.24461e-08
1.81904e-07
1.18702e-07
1.66077e-07
1.79722e-07
1.12895e-07
3.13095e-07
2.88906e-08
9.58904e-08
-1.68153e-07
4.95834e-08
1.258e-07
-5.51628e-07
-1.37025e-07
-1.91003e-09
-6.72469e-07
-1.63475e-07
-5.37155e-08
-5.45821e-07
3.0301e-07
-3.63734e-08
-3.47345e-07
3.88571e-07
4.00962e-09
-1.8419e-07
2.59718e-07
1.00336e-07
-2.11335e-08
1.58879e-07
2.56963e-07
7.39796e-08
5.90796e-08
4.19133e-07
9.54019e-08
-5.38612e-08
4.65358e-07
9.54321e-08
-2.05018e-07
1.02292e-07
-3.06089e-07
3.29666e-07
-6.36206e-07
-5.84973e-07
2.22498e-07
-4.51884e-07
-4.96006e-07
1.64153e-07
-2.42369e-07
-3.43212e-07
1.82315e-07
-9.81398e-08
-3.53192e-07
1.67861e-07
2.7781e-08
-3.05989e-07
2.0014e-07
1.46256e-07
-2.73777e-07
2.86987e-07
2.38388e-07
-3.4667e-07
3.55336e-07
3.05622e-07
-4.5543e-07
3.5048e-07
3.72288e-07
-5.74555e-07
4.39729e-07
-6.522e-07
9.76032e-08
-5.56791e-07
-5.61791e-07
-1.69807e-07
-5.40124e-08
-6.10752e-07
-2.88146e-07
1.72767e-07
-6.25463e-07
-3.4281e-07
2.93662e-07
-5.51025e-07
-3.66744e-07
3.64915e-07
-4.98779e-07
-3.16416e-07
4.29097e-07
-5.59257e-07
-2.0652e-07
5.17786e-07
-6.89261e-07
-9.88254e-08
6.28343e-07
-8.21757e-07
-2.50318e-08
7.70925e-07
-9.42931e-07
8.92905e-07
-1.03499e-06
-5.45935e-07
-7.60784e-08
-2.79729e-07
-9.07129e-07
2.74437e-07
-3.29684e-07
-1.06557e-06
5.12585e-07
-3.17042e-07
-1.09836e-06
6.14832e-07
-3.64319e-07
-1.08596e-06
6.50341e-07
-5.10326e-07
-1.10182e-06
7.72153e-07
-7.22718e-07
-1.07451e-06
9.16109e-07
-9.78232e-07
-9.28024e-07
1.05421e-06
-1.278e-06
-7.17125e-07
1.25009e-06
-1.58015e-06
1.41356e-06
-1.81594e-06
2.13274e-07
-1.08337e-06
1.15375e-06
5.25188e-07
-6.85168e-07
1.04872e-06
6.62755e-07
-2.31027e-07
1.17225e-06
4.99506e-07
1.20215e-07
1.3596e-06
-1.95544e-07
6.69707e-07
1.33788e-06
-1.21692e-06
1.9217e-06
1.6649e-09
-1.75503e-06
2.77487e-06
-1.62387e-06
-1.5636e-06
3.11728e-06
-2.59618e-06
-9.17183e-07
3.47749e-06
-2.9134e-06
3.6039e-06
-2.16434e-06
-6.4323e-07
-9.23678e-07
6.19977e-07
-6.52154e-07
-1.82971e-06
1.414e-06
-7.38863e-07
-1.57952e-06
2.13485e-06
-1.08288e-06
-6.01381e-07
2.18683e-06
-1.4878e-06
1.23747e-06
5.74251e-07
-1.64855e-06
3.24802e-06
-1.38005e-06
-1.8493e-06
4.44257e-06
-2.74947e-06
-1.79211e-06
4.73295e-06
-3.76315e-06
-1.37364e-06
4.44211e-06
-3.37822e-06
3.92956e-06
-1.13842e-06
-2.73972e-06
2.77178e-07
1.53913e-06
-4.63716e-06
-2.10231e-06
2.66811e-06
-5.78308e-06
-2.35211e-06
2.51874e-06
-5.90132e-06
-2.23884e-06
2.50002e-06
-4.49828e-06
-1.59769e-06
2.17385e-06
-2.42462e-06
-1.07417e-07
1.91012e-06
-1.03621e-06
2.34187e-06
1.30407e-06
-5.21749e-07
4.55684e-06
1.84467e-07
-5.91094e-07
5.10973e-06
-1.19224e-08
4.38545e-06
1.37117e-06
-3.44191e-06
2.06879e-06
1.46764e-06
-6.35758e-06
-5.64087e-07
1.34987e-06
-8.45679e-06
-1.42751e-06
1.29702e-06
-9.34622e-06
-2.71063e-06
1.8325e-06
-8.20228e-06
-4.30022e-06
2.12636e-06
-5.70756e-06
-4.30853e-06
2.36298e-06
-2.95799e-06
-2.03711e-06
2.47287e-06
-1.07957e-06
1.46994e-06
2.22853e-06
-7.28203e-07
4.10497e-06
1.83199e-06
4.45757e-06
1.93978e-06
-3.0458e-06
3.93465e-06
8.74204e-07
-5.87148e-06
1.4842e-06
6.1268e-07
-8.15786e-06
1.62185e-07
1.06765e-06
-9.44876e-06
-1.75955e-06
1.44942e-06
-9.32147e-06
-4.47131e-06
1.33688e-06
-8.17592e-06
-5.55894e-06
1.2011e-06
-6.04151e-06
-4.43278e-06
8.63354e-07
-3.478e-06
-1.54393e-06
4.4316e-07
-1.75369e-06
1.99823e-06
3.65013e-07
3.92675e-06
4.08598e-07
-1.87372e-06
4.90013e-06
8.55759e-07
-4.26511e-06
3.22353e-06
8.73414e-07
-6.58196e-06
1.68905e-06
1.41071e-06
-7.89303e-06
-8.11403e-07
1.83901e-06
-8.62458e-06
-3.82626e-06
1.68839e-06
-8.97376e-06
-5.07645e-06
1.1894e-06
-8.26105e-06
-4.59739e-06
2.98918e-07
-6.59146e-06
-2.61106e-06
-7.29579e-07
-4.51344e-06
3.64848e-07
-1.39555e-06
2.59767e-06
-1.4065e-06
-3.44124e-07
4.49697e-06
8.8338e-07
-1.83104e-06
4.27759e-06
1.06792e-06
-3.82598e-06
2.89756e-06
1.56123e-06
-5.21482e-06
-2.54962e-07
2.3416e-06
-6.5991e-06
-3.37507e-06
2.52933e-06
-8.4237e-06
-3.8099e-06
2.06078e-06
-9.32481e-06
-3.64694e-06
1.1187e-06
-9.02337e-06
-2.48698e-06
2.0218e-07
-7.72192e-06
-6.02652e-07
-7.14394e-07
7.84878e-07
-1.12552e-06
4.00186e-07
3.47924e-06
5.75038e-07
-1.54805e-07
4.74588e-06
7.13037e-07
-1.32185e-06
3.46284e-06
1.50197e-06
-2.4937e-06
-5.72493e-07
2.60736e-06
-4.66996e-06
-2.95328e-06
3.21505e-06
-7.26758e-06
-2.42981e-06
2.94888e-06
-9.1864e-06
-2.08071e-06
1.75595e-06
-1.02349e-05
-1.53076e-06
1.15721e-06
-1.02847e-05
-6.59605e-07
1.00564e-06
-1.60008e-07
9.35547e-07
8.43155e-08
2.90825e-06
2.22434e-07
-3.93746e-07
5.07307e-06
2.95025e-07
-1.30336e-06
2.99503e-06
2.00345e-06
-2.67899e-06
-1.46974e-06
3.24018e-06
-4.94626e-06
-2.84824e-06
3.83926e-06
-6.781e-06
-2.07039e-06
3.50563e-06
-8.3094e-06
-9.87712e-07
2.01678e-06
-9.4425e-06
-3.70692e-07
9.56053e-07
-9.8125e-06
-2.65588e-07
8.1653e-07
-6.02633e-07
7.23532e-07
-8.85429e-07
3.23196e-06
1.76269e-07
-2.15904e-06
5.57439e-06
7.5458e-07
-3.11878e-06
1.97152e-06
2.57923e-06
-4.57417e-06
-2.03954e-06
3.41357e-06
-5.99207e-06
-3.26941e-06
3.74688e-06
-6.75018e-06
-2.72637e-06
3.43403e-06
-7.124e-06
-1.14117e-06
2.12565e-06
-7.35093e-06
2.65977e-07
3.4429e-07
-7.30092e-06
6.06456e-07
-7.77943e-07
7.14446e-08
-1.42505e-06
-1.62912e-06
2.1284e-07
4.10526e-06
-2.63323e-06
1.17776e-06
5.48223e-06
-3.57562e-06
2.49161e-06
1.3054e-06
-4.87553e-06
2.99946e-06
-2.19404e-06
-6.14787e-06
2.89496e-06
-3.30167e-06
-6.65424e-06
2.73092e-06
-3.38117e-06
-6.40407e-06
2.14024e-06
-2.16287e-06
-6.01528e-06
7.82344e-07
-1.05877e-07
-5.74945e-06
-8.97066e-07
1.17604e-06
-2.2586e-06
1.13431e-06
-1.79284e-07
1.44819e-07
-3.57584e-08
-1.05077e-07
-2.34313e-07
1.30596e-08
1.814e-07
-5.70768e-07
4.32846e-08
3.44895e-07
-4.19863e-07
-1.09855e-08
3.15321e-07
-1.0443e-07
-4.86255e-08
2.27286e-07
3.55028e-08
-4.47399e-08
1.6099e-07
4.26605e-08
-4.17705e-08
1.20876e-07
2.74349e-08
-5.04372e-08
9.56067e-08
1.28216e-08
-5.75495e-08
-2.14981e-08
-6.27847e-08
4.07923e-09
1.79768e-07
-1.48409e-07
3.27391e-07
-6.16627e-07
1.99353e-07
5.24151e-07
-9.80218e-07
3.9226e-07
5.20754e-07
-6.61171e-07
1.99249e-07
3.99072e-07
-1.52357e-07
-3.36713e-08
2.34711e-07
1.34829e-07
-1.04435e-07
1.29497e-07
1.31035e-07
-9.33151e-08
9.09498e-08
6.24015e-08
-8.48999e-08
8.57856e-08
1.29506e-08
-8.05824e-08
-4.44261e-08
-7.13867e-08
2.00764e-07
9.58183e-08
-1.29281e-07
5.44472e-07
-9.18601e-07
4.59422e-07
5.69694e-07
-1.10871e-06
6.75777e-07
4.4999e-07
-6.15048e-07
4.31614e-07
3.62032e-07
-1.34153e-07
5.69685e-08
2.53858e-07
2.0716e-07
-1.24069e-07
1.64788e-07
2.17332e-07
-1.32776e-07
1.27881e-07
1.21683e-07
-1.12224e-07
9.64677e-08
9.89186e-08
-8.8733e-08
2.09752e-08
-2.01548e-08
2.88536e-07
4.97555e-08
7.96661e-10
3.35136e-07
-8.11789e-07
4.32709e-07
1.7289e-07
-9.58428e-07
6.39088e-07
9.93218e-08
-5.00483e-07
5.11883e-07
1.25069e-07
-8.13179e-08
1.23568e-07
1.50156e-07
2.38515e-07
-1.06879e-07
1.20931e-07
3.18178e-07
-1.45729e-07
5.92774e-08
2.87953e-07
-1.11634e-07
3.08233e-08
2.81746e-07
-5.6833e-08
1.08828e-07
3.12466e-08
2.91654e-07
8.01183e-08
-5.16988e-08
1.10005e-07
-4.17023e-07
3.01465e-08
-1.31773e-07
-5.8414e-07
4.13288e-07
-1.61803e-07
-3.31175e-07
4.74395e-07
-7.84544e-08
-4.50577e-08
2.71015e-07
2.7963e-08
2.45542e-07
7.47423e-08
8.60287e-08
3.85272e-07
-6.45795e-09
8.80252e-08
4.32787e-07
-3.39348e-08
1.13347e-07
4.33153e-07
-8.08375e-08
2.48855e-07
-1.10637e-07
3.23431e-07
-5.38931e-08
-3.26445e-07
1.93219e-07
-2.45312e-07
-2.04975e-07
3.56698e-09
-2.46803e-07
1.55325e-07
-3.1372e-08
-9.76747e-08
1.90009e-07
-3.25141e-08
8.43511e-08
1.31452e-07
3.98703e-08
2.82705e-07
4.93309e-08
1.34774e-07
4.19987e-07
-7.05394e-08
2.00574e-07
5.15118e-07
-2.01992e-07
2.23061e-07
5.58344e-07
-3.52696e-07
4.65179e-07
-4.82049e-07
2.70191e-07
-3.68294e-07
-5.40763e-07
1.80727e-07
-2.37815e-07
-4.14039e-07
5.26492e-08
-1.61483e-08
-4.45789e-07
-3.17601e-08
1.35384e-07
-5.01841e-07
-1.18129e-07
3.12024e-07
-4.47293e-07
-1.25033e-07
4.79423e-07
-4.6359e-07
-7.30038e-08
5.9129e-07
-5.70002e-07
1.13442e-08
6.55941e-07
-6.80601e-07
1.08606e-07
6.7946e-07
-7.92933e-07
6.4751e-07
-9.02251e-07
-9.02814e-08
-3.31114e-07
-5.0869e-07
-3.10101e-07
4.30914e-08
-6.71838e-07
-4.32361e-07
3.02228e-07
-8.2158e-07
-5.6374e-07
5.05174e-07
-7.89435e-07
-6.6997e-07
7.13976e-07
-7.94501e-07
-7.03211e-07
8.98141e-07
-9.44735e-07
-6.29413e-07
9.93864e-07
-1.16563e-06
-4.44726e-07
1.01776e-06
-1.36826e-06
-2.00652e-07
1.02384e-06
-1.53139e-06
1.02743e-06
-1.64817e-06
-5.04431e-07
1.94002e-08
-1.25812e-07
-8.51509e-07
2.82598e-07
-2.22113e-07
-1.03752e-06
5.20949e-07
-3.49756e-07
-1.16655e-06
6.8544e-07
-4.1555e-07
-1.3403e-06
9.01191e-07
-5.2379e-07
-1.51061e-06
1.10007e-06
-7.54334e-07
-1.5504e-06
1.13391e-06
-1.07849e-06
-1.42085e-06
1.01974e-06
-1.40954e-06
-1.19024e-06
8.9714e-07
-1.68406e-06
7.0208e-07
-1.78776e-06
2.73249e-07
-1.12206e-06
2.02196e-06
6.10016e-07
-8.41374e-07
1.83592e-06
8.74218e-07
-5.72015e-07
2.00101e-06
6.42413e-07
-2.71346e-07
2.54819e-06
-1.16638e-06
3.2925e-06
7.55362e-07
-3.16897e-06
5.11871e-06
-2.01439e-06
-3.6522e-06
3.32389e-06
-3.33063e-06
-3.42559e-06
2.44899e-06
-4.25204e-06
-2.98343e-06
1.85533e-06
-4.31376e-06
1.60063e-06
-3.56414e-06
-1.05748e-06
-7.6429e-07
1.31969e-06
-1.34779e-06
-1.74466e-06
2.60759e-06
-1.64869e-06
-1.49034e-06
3.35407e-06
-2.05979e-06
2.02487e-07
2.12409e-06
-2.5129e-06
4.32886e-06
-8.9933e-09
-3.02654e-06
5.59834e-06
-1.34603e-06
-4.13585e-06
4.53322e-06
-2.8495e-06
-4.73536e-06
3.00594e-06
-3.7206e-06
-4.59201e-06
1.74801e-06
-3.41425e-06
1.51858e-06
-1.418e-06
-2.50694e-06
3.79735e-07
2.90204e-06
-4.05741e-06
-2.11379e-06
4.5877e-06
-5.05466e-06
-2.07987e-06
4.10553e-06
-5.19443e-06
-2.7761e-07
3.11989e-06
-3.62146e-06
2.20709e-06
2.72264e-06
-2.32728e-06
4.11108e-06
2.1032e-06
-2.18246e-06
5.04052e-06
6.51955e-07
-2.79213e-06
4.56037e-06
-7.60277e-07
-3.48934e-06
3.1531e-06
-7.19803e-07
2.61801e-06
8.76451e-07
-3.4062e-06
1.61996e-06
3.63362e-06
-6.30774e-06
-1.45897e-06
3.59659e-06
-7.85772e-06
-1.94256e-06
2.7097e-06
-7.83896e-06
-1.57743e-06
3.11356e-06
-6.1719e-06
-9.75393e-07
3.6418e-06
-4.02393e-06
7.48178e-07
3.5779e-06
-2.61988e-06
3.28944e-06
2.81991e-06
-2.50996e-06
4.86994e-06
1.80903e-06
-3.32495e-06
4.66826e-06
1.13182e-06
3.96097e-06
1.55409e-06
-4.40847e-06
3.66946e-06
3.23317e-06
-7.73068e-06
3.88509e-07
2.08742e-06
-9.1553e-06
-1.09116e-06
1.64088e-06
-9.14714e-06
-2.18084e-06
2.04466e-06
-7.91029e-06
-3.05725e-06
2.18189e-06
-6.02641e-06
-2.12139e-06
2.1868e-06
-4.28681e-06
3.13636e-07
2.09957e-06
-3.65788e-06
2.92144e-06
1.76272e-06
-4.28374e-06
4.49197e-06
1.16718e-06
4.33434e-06
8.84796e-07
-3.06315e-06
5.01955e-06
2.56883e-06
-6.10286e-06
2.74129e-06
1.56033e-06
-8.00563e-06
4.27984e-07
1.79435e-06
-8.93707e-06
-1.67885e-06
2.26845e-06
-9.01641e-06
-3.40949e-06
2.11997e-06
-8.48074e-06
-3.22584e-06
1.75819e-06
-7.1986e-06
-1.87525e-06
1.20565e-06
-5.7846e-06
9.5743e-08
6.8211e-07
-5.15195e-06
2.1233e-06
3.40485e-07
2.61499e-06
3.01867e-07
-1.12331e-06
4.89043e-06
2.13581e-06
-3.14545e-06
4.39147e-06
1.4399e-06
-4.90447e-06
1.49327e-06
2.25497e-06
-6.24661e-06
-1.34844e-06
3.35334e-06
-7.65231e-06
-2.7307e-06
3.25623e-06
-9.12687e-06
-2.08263e-06
2.39214e-06
-9.68312e-06
-1.51083e-06
1.31053e-06
-9.02187e-06
-8.82506e-07
5.19182e-07
-7.6539e-06
-4.49652e-08
8.59012e-08
2.63411e-07
1.24139e-07
-1.12309e-07
3.8649e-06
1.71287e-06
-9.7598e-07
5.07464e-06
8.93543e-07
-2.07302e-06
2.0357e-06
2.05658e-06
-3.19968e-06
-1.85164e-06
4.23721e-06
-5.36173e-06
-2.1562e-06
4.8026e-06
-7.78465e-06
-5.67578e-07
3.85673e-06
-9.609e-06
-1.2898e-08
2.08236e-06
-1.03665e-05
1.08591e-07
9.23578e-07
-9.76222e-06
7.51656e-08
2.81257e-07
-9.91749e-08
-8.88721e-08
-1.41327e-07
2.89717e-06
1.3315e-06
-8.64711e-07
5.47166e-06
6.21387e-07
-2.04728e-06
2.30014e-06
2.92159e-06
-3.48257e-06
-2.25619e-06
5.08003e-06
-5.15057e-06
-2.04295e-06
5.39401e-06
-6.51099e-06
-3.98499e-07
4.69697e-06
-7.95868e-06
7.07194e-07
2.74438e-06
-8.99751e-06
1.11251e-06
9.90959e-07
-8.82059e-06
9.93341e-07
-2.78573e-07
5.94697e-07
-1.26674e-06
-8.95759e-07
2.62984e-06
1.33936e-06
-1.99264e-06
5.83677e-06
1.48636e-06
-3.33795e-06
2.25677e-06
3.96791e-06
-4.85103e-06
-2.09568e-06
4.76614e-06
-5.70467e-06
-2.3037e-06
4.86126e-06
-5.60039e-06
-1.51138e-06
4.44264e-06
-5.43612e-06
-3.53653e-07
3.02223e-06
-5.66541e-06
6.13664e-07
1.07241e-06
-5.68359e-06
9.06119e-07
-6.72529e-07
8.32217e-07
-2.5822e-06
-1.56788e-06
1.20302e-06
3.20753e-06
-2.08723e-06
1.98234e-06
5.55155e-06
-2.91984e-06
3.5089e-06
2.07209e-06
-4.21055e-06
3.75541e-06
-1.56093e-06
-5.15282e-06
3.6769e-06
-2.14337e-06
-5.07995e-06
3.463e-06
-2.31632e-06
-4.18622e-06
2.84101e-06
-1.94817e-06
-3.37778e-06
1.5007e-06
-9.13138e-07
-3.153e-06
-2.7151e-07
5.5798e-08
-2.50547e-06
5.72518e-07
-1.81318e-07
1.25747e-07
1.98128e-08
-1.84759e-07
-1.38138e-07
1.54638e-07
1.12025e-07
-5.24829e-07
2.71331e-07
2.9813e-07
-4.11911e-07
2.1482e-07
2.71978e-07
-1.15246e-07
9.27728e-08
1.88727e-07
2.10546e-08
1.74562e-08
1.25735e-07
4.05517e-08
-1.933e-08
9.16105e-08
2.83695e-08
-4.46825e-08
7.59841e-08
1.00351e-08
-5.19582e-08
-1.78891e-08
-5.30897e-08
-1.35757e-07
2.21193e-07
-1.08098e-07
5.00798e-08
-3.29607e-07
2.04986e-07
3.43624e-07
-8.70975e-07
4.44861e-07
4.61516e-07
-6.6591e-07
3.35357e-07
3.62849e-07
-1.6897e-07
1.1872e-07
1.94112e-07
9.80895e-08
-1.27335e-08
9.50513e-08
1.04967e-07
-5.86694e-08
6.80319e-08
4.12417e-08
-7.07527e-08
7.41193e-08
-1.57524e-08
-6.08824e-08
-6.81658e-08
-4.24641e-08
7.85103e-08
1.95887e-07
-1.82485e-07
3.38293e-07
-3.99562e-07
2.69594e-07
4.73e-07
-8.82856e-07
5.52951e-07
4.99849e-07
-6.71264e-07
4.10119e-07
4.1709e-07
-1.67951e-07
1.38709e-07
2.43123e-07
1.74888e-07
-2.69003e-08
1.20289e-07
1.8396e-07
-8.89358e-08
8.19084e-08
7.34963e-08
-1.06098e-07
7.86066e-08
8.96781e-09
-1.10151e-07
-2.97445e-08
-8.80508e-08
2.25452e-07
1.80688e-07
-2.09457e-07
3.75386e-07
-2.1765e-07
1.00863e-07
3.59393e-07
-6.45062e-07
4.17287e-07
3.34509e-07
-4.86448e-07
3.51951e-07
2.90913e-07
-8.3149e-08
8.23619e-08
1.92431e-07
2.37125e-07
-7.06337e-08
8.21813e-08
2.87207e-07
-1.38727e-07
1.55362e-08
1.85085e-07
-1.56577e-07
9.40185e-09
1.22832e-07
-1.64563e-07
8.64135e-08
-1.74157e-07
3.18546e-07
1.15368e-07
-3.04924e-07
3.73027e-07
-5.4006e-08
-1.87978e-07
2.49072e-07
-2.86492e-07
1.78673e-07
1.61749e-07
-1.74047e-07
2.49316e-07
1.46175e-07
7.98105e-08
1.23629e-07
1.2483e-07
3.33789e-07
-5.76348e-10
7.53624e-08
4.10305e-07
-8.00888e-08
1.67403e-09
3.55596e-07
-1.30758e-07
-2.16847e-08
2.92018e-07
-2.26665e-07
2.24142e-07
-3.52636e-07
3.41194e-07
-1.47172e-07
-4.05098e-07
3.57007e-07
-1.1089e-07
-1.63904e-07
2.14397e-07
-5.45128e-08
6.59561e-08
9.52963e-08
9.64174e-08
3.86451e-08
3.12851e-08
2.66381e-07
8.89249e-09
3.93674e-08
4.29264e-07
-5.4227e-08
4.94784e-08
4.99298e-07
-1.69643e-07
1.01007e-08
4.93586e-07
-3.00604e-07
-5.31791e-09
4.3186e-07
-4.77119e-07
3.39084e-07
-7.02149e-07
3.75509e-08
-2.98183e-07
-4.27304e-07
-3.75383e-09
-1.25577e-07
-3.58048e-07
-1.33237e-07
1.48885e-07
-5.19705e-07
-3.14635e-07
3.75262e-07
-5.99288e-07
-4.31347e-07
5.40195e-07
-6.04395e-07
-4.47414e-07
6.34053e-07
-6.52312e-07
-4.06987e-07
6.36471e-07
-7.47603e-07
-3.05543e-07
5.82024e-07
-8.70483e-07
-1.20356e-07
4.96758e-07
-1.04302e-06
4.13725e-07
-1.22429e-06
-3.79789e-07
-1.464e-08
-4.12444e-07
-5.92179e-07
1.73902e-07
-7.58927e-07
-7.91244e-07
5.21424e-07
-9.95054e-07
-1.01906e-06
8.5004e-07
-1.0364e-06
-1.16791e-06
1.02863e-06
-1.13408e-06
-1.17538e-06
1.02998e-06
-1.33319e-06
-1.03766e-06
9.06668e-07
-1.57356e-06
-7.70267e-07
7.38056e-07
-1.79168e-06
-4.23608e-07
5.70324e-07
-1.95161e-06
4.44663e-07
-2.04071e-06
-3.80336e-07
2.49516e-07
-9.63279e-09
-7.53201e-07
3.79953e-07
-5.52992e-08
-1.08712e-06
6.97723e-07
-1.92135e-07
-1.45255e-06
9.99297e-07
-1.99382e-07
-1.95408e-06
1.24931e-06
-2.42941e-07
-2.31668e-06
9.17017e-07
-2.78773e-07
-2.50572e-06
2.49806e-07
-2.32585e-07
-2.55856e-06
-6.09164e-07
-9.48261e-09
-2.45506e-06
-1.3781e-06
1.60869e-07
-2.24916e-06
6.52791e-07
5.71429e-07
-1.12927e-06
2.82932e-06
1.18065e-06
-1.34488e-06
2.95153e-06
1.8814e-06
-1.59991e-06
3.5979e-06
-3.45229e-07
3.08255e-06
2.69157e-06
-3.46909e-06
5.83448e-06
-7.05951e-07
-5.17498e-06
3.10995e-06
-2.50144e-06
-6.56929e-06
1.19642e-06
-2.88294e-06
-7.31967e-06
-6.24303e-07
-3.4865e-06
-7.45373e-06
-1.6251e-06
-3.93272e-06
-2.22466e-06
-3.82236e-06
-1.01549e-06
-5.22861e-07
1.72877e-06
-1.09801e-06
-1.47131e-06
2.81654e-06
-1.25647e-06
-9.81762e-07
2.89436e-06
-1.92722e-06
3.80944e-06
2.06797e-06
-3.08312e-06
6.30257e-06
6.78826e-07
-5.07595e-06
4.58142e-06
-8.24659e-07
-6.53333e-06
1.7773e-06
-1.97299e-06
-7.33305e-06
-9.41216e-07
-2.60398e-06
-7.63454e-06
-2.2336e-06
-2.50425e-06
-2.2446e-06
-1.35312e-06
-1.61104e-06
9.74838e-07
3.01538e-06
-2.4748e-06
-6.96693e-07
4.67686e-06
-3.47086e-06
4.671e-08
4.07311e-06
-3.39276e-06
3.13035e-06
3.72088e-06
-3.13975e-06
5.56114e-06
3.21106e-06
-3.81706e-06
5.45942e-06
1.90252e-06
-5.28685e-06
3.64789e-06
2.51154e-07
-6.93325e-06
8.24515e-07
-8.79606e-07
-7.80933e-06
-1.08781e-06
-9.89516e-07
-1.50307e-06
-2.69183e-09
-1.98351e-06
1.84481e-06
4.74714e-06
-4.09756e-06
-4.71171e-07
5.48512e-06
-5.45793e-06
-5.30547e-08
4.16983e-06
-5.32793e-06
1.99186e-06
4.12206e-06
-4.20322e-06
3.841e-06
4.23722e-06
-3.38951e-06
4.70517e-06
3.51845e-06
-3.60884e-06
4.37163e-06
2.3155e-06
-4.89957e-06
2.84986e-06
1.07441e-06
-6.22254e-06
1.10756e-06
2.59421e-07
-5.95526e-08
2.42208e-07
-3.55453e-06
3.27788e-06
5.35463e-06
-6.81932e-06
5.22229e-07
4.35881e-06
-7.83652e-06
-4.17432e-07
3.02246e-06
-7.09001e-06
6.92478e-08
3.22075e-06
-5.60597e-06
8.66246e-07
3.67261e-06
-4.27299e-06
1.77907e-06
3.77992e-06
-3.66174e-06
2.3905e-06
3.46944e-06
-3.71902e-06
2.14885e-06
2.52102e-06
-4.10741e-06
1.36539e-06
1.29775e-06
2.31445e-07
5.9458e-07
-3.27967e-06
4.44538e-06
4.68102e-06
-7.04191e-06
2.62483e-06
3.21995e-06
-8.78219e-06
3.63059e-07
2.75413e-06
-9.02329e-06
-7.05135e-07
3.28394e-06
-8.66068e-06
-8.73196e-07
3.4968e-06
-8.25978e-06
-1.65168e-07
3.30153e-06
-7.95374e-06
5.53956e-07
2.73615e-06
-7.46442e-06
4.44311e-07
1.89733e-06
-6.61121e-06
-1.2809e-07
9.80753e-07
-9.85572e-07
2.04935e-07
-1.52975e-06
4.32411e-06
3.78683e-06
-3.83555e-06
3.80332e-06
2.56721e-06
-5.30257e-06
1.04396e-06
3.04108e-06
-6.31312e-06
-5.70076e-07
4.22883e-06
-7.32913e-06
-6.88509e-07
4.08755e-06
-8.51796e-06
4.21942e-07
2.99387e-06
-9.22333e-06
9.00384e-07
1.66947e-06
-9.04283e-06
3.33329e-07
4.49664e-07
-8.07091e-06
-6.02674e-07
-4.1143e-07
-1.40565e-06
-1.04756e-06
-3.922e-07
3.20997e-06
3.2192e-06
-1.26428e-06
3.59769e-06
1.97125e-06
-2.16989e-06
1.26619e-06
2.73997e-06
-2.829e-06
-9.64298e-07
5.29054e-06
-4.0738e-06
-6.6094e-07
6.01983e-06
-5.58632e-06
1.04813e-06
4.74306e-06
-6.60276e-06
1.45937e-06
2.5398e-06
-6.83598e-06
6.75822e-07
8.1431e-07
-6.33366e-06
-3.61949e-07
-4.61799e-07
-9.79059e-07
-1.79222e-06
-3.43026e-07
1.94203e-06
2.94247e-06
-9.34474e-07
3.09102e-06
1.71951e-06
-1.84935e-06
2.06321e-06
3.03944e-06
-2.6649e-06
-8.77433e-07
5.80871e-06
-3.37007e-06
-7.90617e-07
6.22885e-06
-3.70027e-06
4.30652e-07
5.64465e-06
-3.9263e-06
7.60912e-07
3.66887e-06
-4.03016e-06
1.37855e-07
1.63279e-06
-3.63871e-06
-7.57648e-07
-2.74328e-07
-1.24996e-06
-1.99938e-06
-8.5279e-07
1.57388e-06
2.5603e-06
-1.8102e-06
3.25142e-06
2.28337e-06
-2.66009e-06
2.90323e-06
3.97778e-06
-3.63455e-06
-3.63337e-07
5.2265e-06
-3.86263e-06
-1.03929e-06
5.33802e-06
-3.07457e-06
-9.14036e-07
4.99926e-06
-2.04075e-06
-9.10455e-07
3.65977e-06
-1.39898e-06
-1.19538e-06
1.76387e-06
-1.06171e-06
-1.85005e-06
8.26116e-08
-2.37608e-06
-2.16333e-06
-6.08187e-07
1.49489e-06
1.8902e-06
-1.41625e-06
2.32431e-06
3.7175e-06
-1.86896e-06
3.56765e-06
3.29719e-06
-2.63886e-06
3.92258e-06
2.39386e-07
-3.00434e-06
3.88027e-06
-8.77193e-07
-2.51407e-06
3.59024e-06
-1.53155e-06
-1.20729e-06
2.89813e-06
-2.27436e-06
-2.64005e-08
1.63669e-06
-2.51225e-06
5.46504e-07
1.20038e-07
-2.81449e-06
-2.34386e-06
-2.94057e-06
-9.18666e-08
8.22567e-08
2.94227e-08
-1.21341e-07
7.06543e-10
1.83406e-07
3.93421e-08
-1.70167e-07
2.80814e-07
1.60041e-07
-1.18312e-07
2.12433e-07
1.60234e-07
-1.0111e-08
1.0269e-07
1.18174e-07
3.62767e-08
2.32389e-08
8.05069e-08
4.25765e-08
-2.42389e-08
6.19829e-08
2.93386e-08
-5.54972e-08
5.63867e-08