/*--------------------------------*- C++ -*----------------------------------*\
| =========                 |                                                 |
| \\      /  F ield         | OpenFOAM: The Open Source CFD Toolbox           |
|  \\    /   O peration     | Version:  2312                                  |
|   \\  /    A nd           | Website:  www.openfoam.com                      |
|    \\/     M anipulation  |                                                 |
\*---------------------------------------------------------------------------*/
FoamFile
{
    version     2.0;
    format      ascii;
    arch        "LSB;label=32;scalar=64";
    class       volScalarField;
    location    "0.63";
    object      p;
}
// * * * * * * * * * * * * * * * * * * * * * * * * * * * * * * * * * * * * * //

dimensions      [1 -1 -2 0 0 0 0];

internalField   nonuniform List<scalar> 
8000
(
330.586
332.049
334.655
338.325
342.435
346.614
350.489
353.735
356.038
357.229
278.702
280.353
283.517
287.755
292.311
297.019
301.383
304.979
307.465
308.779
223.389
225.473
229.973
235.423
241.179
246.865
252.008
256.467
259.47
261.053
163.854
167.314
173.794
181.108
188.819
196.204
202.715
208.263
212.195
214.235
105.345
107.065
116.038
124.965
135.162
144.816
153.582
160.836
166.036
168.78
26.1911
32.2939
49.3108
66.2498
80.5086
92.7892
104.209
113.914
120.85
124.881
1.44102
2.16089
6.47983
14.4961
26.5998
41.4129
56.5375
68.6375
77.7609
83.7034
0.247663
0.241789
0.1105
0.148082
1.65609
6.22636
15.6301
29.612
40.0078
46.796
0.0750279
0.0564834
-0.00493355
0.0168827
8.16334e-05
-0.0867524
0.0858966
2.62662
7.83851
17.4378
-0.087541
-0.100139
-0.129473
-0.134178
-0.157658
-0.185619
-0.241785
-0.149643
3.96822
10.1508
-0.209357
-0.218482
-0.241167
-0.254368
-0.284659
-0.333319
-0.372978
-0.33458
-0.308956
-0.2886
-0.311549
-0.320996
-0.33739
-0.353873
-0.37701
-0.411222
-0.443923
-0.448712
-0.460483
-0.43764
-0.402248
-0.412712
-0.423949
-0.438644
-0.456673
-0.479361
-0.50825
-0.524472
-0.527375
-0.527172
-0.487093
-0.496513
-0.504324
-0.515217
-0.530091
-0.546664
-0.569536
-0.593258
-0.608352
-0.61648
-0.57088
-0.575796
-0.581987
-0.589717
-0.600453
-0.611791
-0.62519
-0.642115
-0.661115
-0.673984
-0.652094
-0.652247
-0.656587
-0.662554
-0.670291
-0.677885
-0.683942
-0.690113
-0.697507
-0.701227
-0.724892
-0.725163
-0.72796
-0.732395
-0.73785
-0.743871
-0.748019
-0.749645
-0.748931
-0.74501
-0.794188
-0.79525
-0.797767
-0.801307
-0.804933
-0.810667
-0.81518
-0.817944
-0.816648
-0.811354
-0.862611
-0.864136
-0.866613
-0.871305
-0.874336
-0.879228
-0.88421
-0.887744
-0.88919
-0.886056
-0.930283
-0.93282
-0.933286
-0.939057
-0.944214
-0.948378
-0.954515
-0.958973
-0.962142
-0.961499
332.092
333.642
336.119
339.573
343.486
347.512
351.251
354.37
356.598
357.782
280.503
282.255
285.171
289.105
293.482
297.969
302.12
305.57
308.017
309.33
225.562
227.944
232.098
237.093
242.49
247.938
252.923
257.086
260.031
261.611
167.328
170.401
176.259
182.996
190.241
197.345
203.723
208.993
212.726
214.772
107.062
108.656
116.823
126.292
136.373
146.089
154.65
161.619
166.574
169.414
32.8447
38.3605
53.8059
67.7156
81.9619
94.1487
105.582
115.198
121.764
125.522
2.13125
4.13559
7.60276
13.6205
26.4876
41.6765
57.6976
69.6227
78.4843
84.5903
0.2201
0.170741
0.0849873
0.276584
2.04419
6.33791
16.1328
30.6387
41.3561
47.3697
0.0421639
-0.0302497
-0.0643536
-0.0141878
-0.0596819
-0.132676
0.044918
2.50817
8.66364
18.3874
-0.104802
-0.13343
-0.165791
-0.161418
-0.204554
-0.229989
-0.282564
-0.290434
2.7974
8.94065
-0.218697
-0.229195
-0.253761
-0.267218
-0.306635
-0.356619
-0.406245
-0.402161
-0.387848
-0.373903
-0.318816
-0.327699
-0.344772
-0.36113
-0.388481
-0.434224
-0.477478
-0.49468
-0.497122
-0.490961
-0.408478
-0.418302
-0.430002
-0.443514
-0.461933
-0.492959
-0.540812
-0.562221
-0.565962
-0.563657
-0.491564
-0.500181
-0.508914
-0.518963
-0.531483
-0.549616
-0.590081
-0.627604
-0.640431
-0.643343
-0.574342
-0.57942
-0.586327
-0.593528
-0.602401
-0.61185
-0.632471
-0.668623
-0.696421
-0.700626
-0.653961
-0.656916
-0.659701
-0.666053
-0.673852
-0.680207
-0.68686
-0.701242
-0.721669
-0.729178
-0.726882
-0.72923
-0.728655
-0.733715
-0.741608
-0.749284
-0.751753
-0.753873
-0.757074
-0.754858
-0.796092
-0.798535
-0.797208
-0.800486
-0.807003
-0.815062
-0.819013
-0.820545
-0.818598
-0.811089
-0.867137
-0.868152
-0.866271
-0.869459
-0.874375
-0.881562
-0.88661
-0.890336
-0.891097
-0.885654
-0.937447
-0.938625
-0.934176
-0.937902
-0.943723
-0.950518
-0.956392
-0.96166
-0.96571
-0.965008
334.669
336.125
338.437
341.663
345.34
349.121
352.64
355.589
357.701
358.834
283.493
285.187
287.787
291.432
295.534
299.728
303.618
306.867
309.188
310.44
229.991
232.1
235.609
240.03
244.963
250.006
254.663
258.541
261.31
262.807
173.704
176.276
181.3
187.15
193.537
199.947
205.833
210.711
214.195
216.147
115.797
116.956
124.244
132.2
140.83
149.433
157.231
163.606
168.162
170.91
49.4935
54.3568
65.2416
75.8741
87.2247
98.4839
108.939
117.559
123.545
127.19
6.26102
7.70709
13.4682
20.6087
32.2514
47.9363
61.9185
72.9617
81.2411
86.6369
0.0542607
0.0415224
0.382802
1.14578
3.81114
8.97737
20.5064
32.8789
43.3111
48.5251
-0.0420308
-0.0892964
-0.0821456
-0.0332391
-0.0672191
-0.135881
0.420509
4.50752
11.8363
20.4405
-0.142792
-0.172587
-0.201127
-0.183119
-0.206276
-0.247944
-0.303513
-0.0280357
3.32682
7.05149
-0.239542
-0.251101
-0.272714
-0.286797
-0.319842
-0.369767
-0.420839
-0.418785
-0.399938
-0.364244
-0.331603
-0.340251
-0.35545
-0.372526
-0.396735
-0.432444
-0.475804
-0.496995
-0.483426
-0.487122
-0.416251
-0.424264
-0.435067
-0.448545
-0.464521
-0.487437
-0.519121
-0.53921
-0.544346
-0.546724
-0.494926
-0.503623
-0.51247
-0.523223
-0.534565
-0.548403
-0.569736
-0.585224
-0.596278
-0.601514
-0.572112
-0.580058
-0.587835
-0.595743
-0.604575
-0.615067
-0.626683
-0.635731
-0.639011
-0.640321
-0.649788
-0.654941
-0.660065
-0.66586
-0.672741
-0.680352
-0.685781
-0.688004
-0.6872
-0.678911
-0.727715
-0.729718
-0.729647
-0.733056
-0.739036
-0.745716
-0.749442
-0.748805
-0.745131
-0.73439
-0.801181
-0.802572
-0.799265
-0.800515
-0.806169
-0.812394
-0.816622
-0.817621
-0.815186
-0.805315
-0.869991
-0.871837
-0.869846
-0.870383
-0.875143
-0.881427
-0.887356
-0.891504
-0.893094
-0.887318
-0.937489
-0.940676
-0.940297
-0.941511
-0.946512
-0.952817
-0.960778
-0.967718
-0.97473
-0.977872
338.317
339.571
341.654
344.555
347.89
351.336
354.558
357.27
359.208
360.243
287.77
289.128
291.407
294.657
298.34
302.135
305.674
308.641
310.754
311.875
235.431
237.104
240.008
243.893
248.281
252.799
257.002
260.517
263.012
264.335
181.118
182.997
187.135
192.119
197.638
203.311
208.592
212.98
216.089
217.846
124.892
126.368
132.208
138.889
146.234
153.677
160.567
166.245
170.291
172.926
66.1772
67.9961
75.9906
84.5899
93.9361
103.708
112.981
120.555
125.947
128.655
14.2431
13.7223
21.104
28.4927
40.6779
54.2182
66.6002
75.9962
83.4861
89.2419
0.0582068
0.206767
1.1354
2.78891
6.00231
12.3283
24.9702
37.2394
44.8837
47.8545
-0.0503479
-0.0541449
-0.0617003
-0.0554336
-0.106685
-0.103916
1.1882
7.80819
15.9307
21.6308
-0.159505
-0.177322
-0.198006
-0.200559
-0.224207
-0.276745
-0.383827
0.481607
2.19943
3.30284
-0.254169
-0.266052
-0.287927
-0.314012
-0.350284
-0.394501
-0.432637
-0.413563
-0.365734
-0.319949
-0.343398
-0.352746
-0.368865
-0.393724
-0.417098
-0.438704
-0.47115
-0.469408
-0.442753
-0.467902
-0.425338
-0.433037
-0.442335
-0.459276
-0.475533
-0.489001
-0.509939
-0.522291
-0.525026
-0.539701
-0.502752
-0.509274
-0.51485
-0.526685
-0.545388
-0.556842
-0.567891
-0.575508
-0.578726
-0.576794
-0.579146
-0.585413
-0.589966
-0.596768
-0.614128
-0.62576
-0.631781
-0.63265
-0.626615
-0.611494
-0.653411
-0.659161
-0.663117
-0.66862
-0.678185
-0.689694
-0.694719
-0.690806
-0.681682
-0.658256
-0.726261
-0.730183
-0.733779
-0.738136
-0.742635
-0.752544
-0.756043
-0.752125
-0.746316
-0.728484
-0.798012
-0.800196
-0.804025
-0.807327
-0.810131
-0.81682
-0.821257
-0.82107
-0.820409
-0.809465
-0.868884
-0.871068
-0.875888
-0.878579
-0.881473
-0.887229
-0.892486
-0.896957
-0.901969
-0.896546
-0.937771
-0.941111
-0.947088
-0.949819
-0.955386
-0.961112
-0.968337
-0.977262
-0.991082
-0.99994
342.435
343.477
345.325
347.882
350.845
353.923
356.813
359.254
361
361.914
292.369
293.485
295.515
298.331
301.571
304.935
308.081
310.727
312.582
313.559
241.198
242.489
244.937
248.271
252.085
256.037
259.739
262.841
265.009
266.124
188.826
190.209
193.531
197.627
202.333
207.234
211.831
215.651
218.324
219.661
135.131
136.417
140.824
146.22
152.3
158.606
164.503
169.399
172.836
174.615
80.4687
81.9694
87.1883
93.9177
101.596
109.866
117.773
124.298
128.415
130.534
26.614
26.7577
32.7594
41.1056
51.4883
62.5042
72.9206
81.1832
87.6039
90.0549
1.77069
2.0665
3.78805
5.98851
10.1132
18.915
31.614
42.1429
47.669
50.649
-0.0518585
-0.0755109
-0.0901847
-0.121395
-0.0959302
0.427584
4.2412
12.6601
19.4361
20.6505
-0.186248
-0.204217
-0.208205
-0.203588
-0.219766
-0.303816
-0.204887
0.977831
1.66244
2.58465
-0.270754
-0.288189
-0.309948
-0.333756
-0.365226
-0.41701
-0.453696
-0.395297
-0.327438
-0.242418
-0.357207
-0.36672
-0.37747
-0.405016
-0.427995
-0.447541
-0.466863
-0.448419
-0.46831
-0.513361
-0.436152
-0.441903
-0.447287
-0.464717
-0.482729
-0.487036
-0.505445
-0.514259
-0.532602
-0.577696
-0.508456
-0.513358
-0.516055
-0.52378
-0.542002
-0.551269
-0.563493
-0.568315
-0.578523
-0.568214
-0.580836
-0.586136
-0.58867
-0.595206
-0.608989
-0.623074
-0.634654
-0.633468
-0.62031
-0.577286
-0.654776
-0.659694
-0.661844
-0.66846
-0.675806
-0.686002
-0.696333
-0.691094
-0.673579
-0.619419
-0.72824
-0.731237
-0.733714
-0.737993
-0.741747
-0.750484
-0.753497
-0.746921
-0.739344
-0.695789
-0.800666
-0.802252
-0.805441
-0.808142
-0.811739
-0.818791
-0.820012
-0.816063
-0.81862
-0.791945
-0.87219
-0.873861
-0.877683
-0.880393
-0.885482
-0.893183
-0.895655
-0.898497
-0.912154
-0.924101
-0.941816
-0.94428
-0.94854
-0.952767
-0.959694
-0.968147
-0.975621
-0.986488
-1.01681
-1.06365
346.582
347.47
349.092
351.324
353.922
356.638
359.198
361.365
362.878
363.663
296.991
297.932
299.697
302.12
304.933
307.866
310.617
312.935
314.565
315.4
246.832
247.896
249.966
252.778
256.033
259.431
262.629
265.307
267.162
267.963
196.102
197.282
199.892
203.276
207.222
211.351
215.25
218.489
220.717
221.675
144.734
146.046
149.334
153.604
158.578
163.774
168.706
172.739
175.622
176.465
92.7548
94.1296
98.2216
103.493
109.74
116.557
123.013
128.342
131.366
133.883
41.072
41.7522
47.3787
53.9218
62.2789
71.0404
79.317
86.2613
90.0261
92.6212
6.47451
6.40291
8.72563
11.8923
18.271
27.984
39.455
47.1385
51.9004
54.303
-0.102385
-0.11808
-0.117544
-0.0800383
0.357684
3.00116
9.8268
19.2782
24.1553
23.4396
-0.171503
-0.200937
-0.207501
-0.195334
-0.225983
-0.303702
0.0866628
1.79527
3.04466
4.54735
-0.277895
-0.311073
-0.335566
-0.348516
-0.356665
-0.397598
-0.458338
-0.459088
-0.787861
-0.53272
-0.370564
-0.387078
-0.389396
-0.401407
-0.424262
-0.447635
-0.468992
-0.482903
-0.512393
-0.586815
-0.447818
-0.458241
-0.460577
-0.470724
-0.489098
-0.494906
-0.50363
-0.510836
-0.521749
-0.57453
-0.516101
-0.524167
-0.523973
-0.530022
-0.540311
-0.550066
-0.558666
-0.565978
-0.579285
-0.525189
-0.584035
-0.591647
-0.593976
-0.598658
-0.603738
-0.61682
-0.64193
-0.644275
-0.633675
-0.548364
-0.655246
-0.662663
-0.666514
-0.671307
-0.676608
-0.688356
-0.712038
-0.722657
-0.720874
-0.674376
-0.72746
-0.733182
-0.738119
-0.743333
-0.74658
-0.762673
-0.774666
-0.775607
-0.796117
-0.839582
-0.801024
-0.803873
-0.808266
-0.812232
-0.811764
-0.83222
-0.838956
-0.832961
-0.854269
-0.92991
-0.874506
-0.875914
-0.879816
-0.884374
-0.888408
-0.902701
-0.906662
-0.901743
-0.913313
-0.969655
-0.94561
-0.947559
-0.952189
-0.957906
-0.965728
-0.97788
-0.985025
-0.985752
-1.00077
-1.04548
350.405
351.176
352.6
354.548
356.826
359.218
361.496
363.367
364.685
365.344
301.226
302.036
303.572
305.661
308.094
310.636
313.021
315.08
316.479
317.156
251.935
252.84
254.607
256.981
259.748
262.644
265.378
267.655
269.099
269.721
202.582
203.62
205.75
208.55
211.828
215.248
218.512
221.11
222.491
222.873
153.371
154.506
157.082
160.469
164.469
168.656
172.723
175.674
177.297
177.698
104.085
105.4
108.616
112.713
117.598
122.889
128.01
131.914
134.074
136.581
56.113
56.9242
61.2605
66.0678
72.5071
78.934
86.3521
89.9629
91.9826
97.8707
15.593
15.5483
19.1948
23.4848
30.1575
38.2649
47.3004
51.0623
54.406
61.3208
0.0317706
-0.0181401
0.357238
1.21298
3.53325
7.96957
16.2718
25.1329
27.9271
29.2297
-0.184738
-0.229041
-0.269225
-0.270868
-0.238237
-0.133744
0.862375
4.05582
3.81761
9.13319
-0.297062
-0.345067
-0.364615
-0.356664
-0.337085
-0.374056
-0.363388
-0.696343
-3.37862
0.0307432
-0.386809
-0.418024
-0.421903
-0.418465
-0.420109
-0.419805
-0.454793
-0.706057
2.40356
-0.500604
-0.459481
-0.480832
-0.482543
-0.479513
-0.486558
-0.465936
-0.5196
-0.648252
-0.669269
-0.483452
-0.524206
-0.53867
-0.535468
-0.535463
-0.529209
-0.538469
-0.470594
-0.373187
-0.600567
-0.471567
-0.587455
-0.597587
-0.60173
-0.602864
-0.596963
-0.617193
-0.640263
-0.639817
-0.614585
-0.590543
-0.657394
-0.66935
-0.673294
-0.675969
-0.680612
-0.696108
-0.7326
-0.767056
-0.736058
-0.774735
-0.728528
-0.741624
-0.743656
-0.745876
-0.755613
-0.772265
-0.788046
-0.796472
-0.798719
-0.860409
-0.801287
-0.810166
-0.812689
-0.805881
-0.813719
-0.835332
-0.846004
-0.828377
-0.821022
-0.826431
-0.876965
-0.881254
-0.885299
-0.883028
-0.8839
-0.899984
-0.905218
-0.877502
-0.857476
-0.845549
-0.950636
-0.954214
-0.961665
-0.966819
-0.970772
-0.980054
-0.982257
-0.96724
-0.961221
-0.944952
353.604
354.28
355.547
357.273
359.297
361.426
363.422
365.112
366.302
366.876
304.758
305.457
306.819
308.643
310.771
313.005
315.146
316.958
318.231
318.859
256.16
256.948
258.482
260.517
262.897
265.393
267.787
269.729
271.005
271.792
207.898
208.85
210.634
212.973
215.717
218.561
221.251
223.349
224.537
225.685
160.433
161.409
163.489
166.215
169.502
172.857
176.064
178.951
180.031
181.237
113.673
114.849
117.302
120.405
124.38
128.533
132.698
135.674
137.087
138.004
68.1888
69.5799
72.7313
75.6409
81.1311
86.3995
91.0808
92.7304
95.4359
96.257
27.5651
28.9144
32.005
36.4488
41.7217
47.751
52.6363
53.9746
63.1108
60.8368
2.46837
2.16036
4.27338
7.00122
10.0486
16.0594
24.9875
29.7094
35.2236
33.4816
-0.205936
-0.304297
-0.338803
-0.2161
0.0853538
0.763683
3.35062
6.33523
13.5685
13.5378
-0.30248
-0.36992
-0.378566
-0.353587
-0.321011
-0.360409
-0.41228
-0.813379
2.3371
3.14657
-0.412026
-0.452048
-0.460215
-0.441917
-0.421386
-0.391979
-0.550274
-0.8425
7.20257
0.56022
-0.466699
-0.496818
-0.504374
-0.484648
-0.501938
-0.466485
-0.091106
0.850843
-0.695831
-0.224166
-0.520009
-0.542677
-0.543995
-0.52804
-0.531505
-0.550145
-0.0327229
1.3634
-0.523381
-0.38235
-0.587695
-0.601291
-0.6001
-0.589342
-0.580116
-0.47191
-0.535792
-0.587788
-0.539972
-0.554442
-0.666195
-0.683094
-0.674001
-0.67341
-0.685349
-0.632316
-0.644235
-0.75611
-0.666752
-0.669592
-0.738155
-0.759061
-0.744411
-0.761705
-0.762908
-0.723783
-0.522868
-0.780705
-0.72959
-0.672834
-0.806862
-0.822659
-0.809644
-0.817658
-0.775845
-0.681911
-0.831327
-0.806932
-0.749572
-0.644962
-0.879026
-0.889959
-0.886692
-0.881225
-0.878883
-0.911878
-0.912128
-0.842278
-0.766756
-0.718793
-0.953862
-0.962418
-0.977945
-0.982304
-0.976884
-0.980483
-0.975361
-0.939187
-0.887679
-0.915659
355.906
356.516
357.675
359.244
361.097
363.024
364.852
366.431
367.559
368.15
307.312
307.926
309.165
310.8
312.703
314.736
316.694
318.401
319.676
320.309
259.251
259.913
261.284
263.075
265.167
267.349
269.411
271.203
272.571
273.483
211.883
212.589
214.171
216.181
218.534
220.943
223.023
224.944
226.149
227.449
165.627
166.394
168.157
170.429
173.217
175.704
177.973
179.537
180.73
182.733
120.662
121.518
123.54
126.04
128.824
131.945
135.459
137.948
139.762
139.852
77.3097
78.2762
81.3032
83.9642
88.2557
90.7871
94.6988
97.9923
98.0667
97.6836
38.0782
39.8618
42.5336
45.0531
48.6627
52.5411
57.5867
60.9838
61.9893
61.9968
8.29231
9.21291
12.3347
14.946
17.7129
23.1455
28.4863
30.9296
35.2849
34.4336
0.510719
1.06982
2.01349
1.77324
1.24006
2.12515
5.18591
12.6707
17.8785
15.063
-0.259681
-0.372777
-0.432576
-0.393976
-0.247168
-0.137707
-1.55589
14.797
13.2991
4.78491
-0.431074
-0.487027
-0.48129
-0.44994
-0.402668
-0.429795
-0.337919
10.7089
1.54881
1.44736
-0.456726
-0.494111
-0.506239
-0.487717
-0.459995
-0.455841
0.949251
3.6374
-0.268018
0.0284253
-0.493701
-0.53124
-0.546477
-0.53031
-0.486047
-0.49971
0.643511
-0.0667108
-0.410848
-0.373979
-0.569914
-0.605534
-0.604149
-0.580505
-0.524116
-0.35352
1.78006
-0.565732
-0.539205
-0.504645
-0.651039
-0.693987
-0.675792
-0.666451
-0.702921
0.73972
0.603248
-0.690467
-0.617243
-0.548627
-0.723948
-0.757211
-0.733365
-0.736787
0.345965
1.46049
-0.584349
-0.719797
-0.647858
-0.533697
-0.805182
-0.819601
-0.782178
-0.571008
0.707068
0.063155
-0.795719
-0.755901
-0.657271
-0.568677
-0.878776
-0.888267
-0.830867
-0.835637
-0.981019
-0.992821
-0.911132
-0.803284
-0.66945
-0.700405
-0.949806
-0.957885
-0.949515
-1.01674
-1.02568
-1.01594
-0.984118
-0.91522
-0.839252
-0.835171
357.12
357.691
358.793
360.281
362.042
363.878
365.626
367.149
368.358
369.132
308.661
309.228
310.398
311.927
313.724
315.659
317.534
319.223
320.594
321.734
260.897
261.485
262.762
264.399
266.343
268.337
270.294
272.294
273.859
275.19
214.023
214.613
216.066
217.842
219.911
221.935
223.91
226.252
228.095
229.794
168.471
169.175
170.767
172.628
174.889
176.803
178.801
182.022
184.24
186.136
124.58
125.356
127.144
129.023
131.636
134.403
138.949
139.327
141.601
142.692
83.1232
84.1429
86.9096
89.7025
92.5975
94.7076
99.2043
97.7517
99.0765
100.367
45.3404
46.8164
48.8046
49.4881
52.6658
57.0629
62.1024
63.0768
62.832
63.6162
16.6861
19.0683
20.4679
21.7693
24.8297
30.4905
33.2149
33.1128
36.6596
34.791
5.10447
6.41373
7.32747
7.12575
7.4864
7.205
9.82913
13.1107
17.8235
13.2685
-0.152628
-0.381022
-0.455119
-0.114332
-0.258822
-0.276208
3.26759
9.90836
12.4092
3.74151
-0.400777
-0.482745
-0.476306
-0.480134
-0.547514
-0.787338
0.975143
3.15435
0.239305
0.902336
-0.428131
-0.489057
-0.502487
-0.512175
-0.537874
-0.587689
1.94806
0.16213
-0.157606
-0.0901833
-0.43884
-0.50029
-0.526426
-0.507866
-0.488262
-0.556995
3.27003
-0.290377
-0.375079
-0.391175
-0.494835
-0.560968
-0.560645
-0.5627
-0.509297
-0.172889
1.73479
-0.527419
-0.497192
-0.498425
-0.515065
-0.667333
-0.6726
-0.661709
-0.654283
1.20491
-0.278896
-0.612672
-0.565701
-0.524562
-0.542157
-0.737794
-0.721955
-0.668597
0.116722
0.400612
-0.690731
-0.66953
-0.605501
-0.536125
-0.714101
-0.796226
-0.780945
-0.636732
0.299888
-0.601503
-0.780855
-0.734186
-0.61354
-0.563962
-0.868972
-0.873833
-0.848066
-0.361958
-0.20731
-0.888038
-0.850702
-0.79969
-0.676939
-0.655029
-0.943042
-0.942385
-0.928515
-0.18744
-0.875844
-0.958857
-0.942299
-0.909825
-0.869605
-0.787929
357.125
357.686
358.788
360.283
362.055
363.913
365.692
367.244
368.423
369.07
308.681
309.239
310.406
311.939
313.743
315.71
317.646
319.373
320.75
321.598
260.955
261.523
262.794
264.435
266.377
268.399
270.495
272.472
274.045
275.131
214.119
214.697
216.135
217.887
219.862
222
224.408
226.68
228.531
229.924
168.682
169.373
170.925
172.718
174.908
176.791
179.319
182.038
184.091
185.541
124.996
125.718
127.485
128.914
131.727
134.185
136.357
138.68
139.764
141.899
83.9209
84.8736
87.4904
91.2986
93.3777
95.3073
99.0584
97.9422
97.7354
101.71
46.9462
47.7609
49.5068
50.2231
53.7866
59.355
66.1188
61.6643
62.9802
65.7577
19.3021
20.075
21.2667
23.1532
29.4544
31.9823
34.1678
31.9047
31.2368
31.6282
8.81207
8.42434
8.72424
10.0518
10.4441
9.78115
12.1738
9.36439
7.29822
5.63236
0.103757
-0.295567
-0.375781
-0.213239
0.979751
7.60919
9.87704
1.31095
0.329223
0.325064
-0.350386
-0.452736
-0.463235
0.191875
0.240917
-0.787282
-0.195028
-0.324134
-0.222942
-0.0485091
-0.364052
-0.483835
-0.314127
-0.432014
-0.575174
-0.643326
-0.546567
-0.328727
-0.362425
-0.351577
-0.378132
-0.49005
-0.299698
-0.555312
-0.531346
-0.504232
-0.399425
-0.464358
-0.439161
-0.462992
-0.437787
-0.525575
-0.633425
-0.58928
-0.540491
-0.529435
-0.51836
-0.537342
-0.50063
-0.506469
-0.386693
-0.694836
-0.712509
-0.663784
-0.644032
-0.624948
-0.592793
-0.581311
-0.540692
-0.511103
-0.510996
-0.762258
-0.754108
-0.723234
-0.694369
-0.681143
-0.6734
-0.639886
-0.5716
-0.506805
-0.672721
-0.824483
-0.81695
-0.812392
-0.782648
-0.757619
-0.745689
-0.701473
-0.626225
-0.523808
-0.852809
-0.894126
-0.882356
-0.893911
-0.882341
-0.851726
-0.825135
-0.788857
-0.72335
-0.596291
-0.963403
-0.959193
-0.953618
-0.965494
-0.955402
-0.936658
-0.918905
-0.885564
-0.813157
-0.743216
355.863
356.467
357.632
359.221
361.101
363.061
364.919
366.541
367.662
368.16
307.374
307.912
309.144
310.801
312.719
314.821
316.823
318.596
319.888
320.396
259.39
259.953
261.318
263.153
265.351
267.592
269.742
271.676
273.127
273.529
212.125
212.708
214.288
216.37
218.883
221.418
223.823
225.941
227.515
228.003
165.943
166.65
168.408
170.723
173.479
176.258
178.881
181.098
182.699
183.662
121.266
122.055
124.071
126.58
129.629
132.536
135.582
138.195
138.745
140.363
78.7119
79.635
82.4682
85.3926
89.7109
91.209
95.8769
98.7391
98.8991
100.668
41.3029
41.9394
43.8694
45.7828
50.2285
54.9216
56.8365
60.2451
62.7907
64.8946
12.3455
13.1941
16.9126
19.944
23.473
25.7158
25.1937
25.9384
26.0023
27.3759
3.60724
3.42452
3.9876
3.03404
5.16906
8.42933
7.24153
7.78255
6.1049
5.90999
0.513158
-0.038442
-0.175323
-0.30497
-0.373488
-0.492828
-0.125395
-0.298836
-0.388833
-0.407189
-0.339288
-0.512819
-0.540848
-0.515964
-0.485749
-0.39242
-0.395605
-0.381235
-0.307373
-0.306964
-0.219977
-0.563018
-0.616907
-0.565295
-0.53589
-0.487236
-0.455178
-0.417785
-0.401709
-0.413808
-0.460519
-0.614176
-0.678947
-0.599388
-0.528515
-0.496743
-0.471364
-0.467537
-0.459573
-0.490188
-0.575054
-0.7733
-0.726113
-0.635235
-0.56587
-0.541945
-0.531853
-0.532177
-0.515819
-0.544679
-0.646264
-0.822719
-0.759777
-0.699872
-0.643356
-0.603994
-0.584727
-0.581537
-0.553538
-0.564462
-0.666121
-0.830582
-0.799063
-0.774189
-0.729784
-0.68861
-0.667342
-0.636923
-0.58093
-0.550739
-0.737871
-0.86207
-0.854796
-0.846954
-0.809755
-0.770524
-0.739555
-0.688105
-0.610114
-0.508648
-0.863289
-0.91606
-0.901382
-0.908649
-0.88343
-0.845962
-0.806911
-0.743329
-0.642528
-0.487911
-0.977487
-0.976174
-0.959686
-0.972202
-0.958496
-0.930918
-0.883087
-0.804309
-0.674992
-0.541386
353.436
354.133
355.421
357.18
359.255
361.396
363.406
365.144
366.272
366.704
304.611
305.33
306.712
308.569
310.718
313.002
315.173
317.047
318.242
318.666
256.037
256.871
258.431
260.519
262.967
265.539
267.938
269.989
271.186
271.148
207.926
208.854
210.683
213.091
215.928
218.949
221.709
223.996
225.078
225.065
160.64
161.613
163.735
166.527
169.858
173.21
176.584
178.996
179.821
180.343
114.24
115.38
117.958
121.118
125.204
129.009
132.668
135.432
135.87
137.386
69.4081
70.4688
74.0063
77.044
82.8486
87.3866
92.1638
94.7106
94.9643
100.613
29.7589
30.9383
34.4353
39.4397
44.2918
49.6893
54.5865
57.3771
57.702
61.223
3.11281
3.25902
6.21426
9.79212
14.088
17.2664
19.1194
22.915
25.0414
24.8759
0.537405
0.209346
0.298602
1.17771
2.77668
3.5127
3.66296
4.56084
4.31329
4.27118
-0.198432
-0.379449
-0.370243
-0.448695
-0.455331
-0.459981
-0.313887
-0.183849
-0.209971
-0.231078
-0.507455
-0.63166
-0.588866
-0.548654
-0.514597
-0.46243
-0.399162
-0.341675
-0.284586
-0.299347
-0.468204
-0.671111
-0.647778
-0.591831
-0.549046
-0.497441
-0.452789
-0.416722
-0.39681
-0.418981
-0.549499
-0.673093
-0.698209
-0.623015
-0.552527
-0.509022
-0.485421
-0.469993
-0.463143
-0.484365
-0.645253
-0.76334
-0.729573
-0.651248
-0.589549
-0.558933
-0.544021
-0.527401
-0.513245
-0.524196
-0.701521
-0.832936
-0.749903
-0.697979
-0.655251
-0.622806
-0.603215
-0.583521
-0.557266
-0.54874
-0.687812
-0.810218
-0.789967
-0.779144
-0.736174
-0.69923
-0.670347
-0.641303
-0.597486
-0.565363
-0.747236
-0.857897
-0.845084
-0.841611
-0.811175
-0.771016
-0.730359
-0.687932
-0.626203
-0.552776
-0.8609
-0.917194
-0.891883
-0.891336
-0.870519
-0.837575
-0.783523
-0.728035
-0.636133
-0.510539
-0.976321
-0.974647
-0.949608
-0.947453
-0.939113
-0.916288
-0.854313
-0.78628
-0.662997
-0.572137
350.08
350.903
352.355
354.342
356.665
359.105
361.362
363.299
364.536
365.118
300.875
301.759
303.334
305.463
307.934
310.501
312.908
315.033
316.287
316.898
251.614
252.597
254.403
256.837
259.671
262.64
265.419
267.771
268.981
269.046
202.277
203.45
205.611
208.494
211.861
215.378
218.616
221.371
222.155
221.859
153.224
154.42
157.096
160.616
164.76
169.144
173.163
176.068
176.927
177.309
104.014
105.32
108.83
113.137
118.263
123.483
128.29
132.34
133.484
137.586
56.1273
56.997
62.0421
67.1004
73.7316
80.4424
86.6148
91.6949
92.3448
97.2288
15.0278
15.2483
20.9074
27.5639
33.7953
41.6226
48.1113
53.6534
53.8369
57.9636
0.15915
0.195211
0.75205
1.94833
5.38659
10.9943
16.233
19.7679
20.8837
21.2443
0.0231327
-0.136595
-0.303934
-0.417155
0.00585748
0.685703
1.56397
2.29385
2.30066
1.95511
-0.361048
-0.559459
-0.63448
-0.566365
-0.521009
-0.456237
-0.390471
-0.312972
-0.253505
-0.187143
-0.472661
-0.57651
-0.608918
-0.601479
-0.538229
-0.458859
-0.407226
-0.362971
-0.322656
-0.30527
-0.492749
-0.565377
-0.599716
-0.576865
-0.527789
-0.487155
-0.4625
-0.439047
-0.414784
-0.409029
-0.53341
-0.583909
-0.611824
-0.587772
-0.55351
-0.523283
-0.505306
-0.489283
-0.479939
-0.484447
-0.597225
-0.646114
-0.647063
-0.615084
-0.587007
-0.569183
-0.557118
-0.542366
-0.532265
-0.541959
-0.63785
-0.741835
-0.693855
-0.664787
-0.645695
-0.6276
-0.613582
-0.59409
-0.577091
-0.579002
-0.679892
-0.795039
-0.742253
-0.737881
-0.716127
-0.69666
-0.67225
-0.644877
-0.615986
-0.600984
-0.757188
-0.845699
-0.817445
-0.810529
-0.789043
-0.763774
-0.731637
-0.694698
-0.652338
-0.612241
-0.890687
-0.908823
-0.877363
-0.870049
-0.852193
-0.830446
-0.794916
-0.747839
-0.690189
-0.616248
-0.964927
-0.961718
-0.939855
-0.934307
-0.923978
-0.906131
-0.868436
-0.812878
-0.733441
-0.670832
346.117
347.058
348.713
350.985
353.632
356.4
359.012
361.208
362.631
363.423
296.505
297.503
299.311
301.78
304.64
307.611
310.343
312.755
314.225
315.09
246.34
247.466
249.581
252.459
255.79
259.257
262.451
265.344
266.858
267.527
195.587
196.869
199.485
202.978
207.033
211.248
215.027
218.541
219.716
220.39
144.203
145.587
148.967
153.442
158.639
164.177
169.201
173.116
174.162
177.15
92.1477
93.567
97.847
103.207
109.829
116.637
122.998
128.571
131.154
133.651
40.4329
41.1011
47.4765
54.3469
62.749
71.9878
80.4197
86.737
90.3551
93.1257
5.76661
5.62947
8.20784
11.8412
19.8324
30.3714
40.5677
48.1617
50.9849
53.3205
0.0246567
-0.0723615
-0.137988
-0.0800817
0.821926
5.09229
10.805
16.6444
20.255
20.0262
-0.0703591
-0.182328
-0.2907
-0.372265
-0.43753
-0.24907
0.481235
0.981758
1.182
1.16672
-0.288692
-0.391695
-0.470877
-0.526935
-0.499169
-0.409227
-0.392328
-0.407483
-0.38425
-0.296234
-0.399597
-0.475286
-0.528995
-0.556261
-0.532719
-0.471022
-0.436538
-0.415468
-0.395988
-0.381509
-0.44968
-0.491341
-0.524992
-0.528152
-0.508807
-0.486363
-0.472897
-0.460994
-0.451913
-0.451253
-0.502343
-0.522283
-0.543845
-0.547465
-0.542433
-0.529623
-0.520805
-0.512564
-0.508083
-0.51321
-0.568325
-0.586587
-0.595305
-0.592978
-0.586051
-0.576669
-0.56897
-0.560788
-0.555815
-0.561353
-0.634232
-0.684858
-0.664019
-0.651203
-0.641495
-0.631412
-0.621542
-0.609721
-0.60051
-0.601536
-0.693647
-0.769387
-0.723639
-0.716947
-0.703618
-0.691264
-0.676848
-0.65946
-0.643896
-0.637828
-0.800069
-0.829568
-0.790463
-0.786328
-0.770007
-0.755122
-0.735585
-0.710878
-0.686001
-0.669995
-0.88356
-0.883435
-0.857698
-0.850652
-0.83773
-0.822252
-0.799166
-0.766547
-0.72953
-0.706943
-0.945688
-0.939772
-0.925776
-0.919594
-0.910087
-0.896266
-0.873421
-0.837727
-0.796283
-0.774663
341.844
342.924
344.813
347.413
350.425
353.558
356.499
359.012
360.693
361.667
291.761
292.911
294.988
297.846
301.137
304.553
307.731
310.449
312.22
313.329
240.544
241.878
244.376
247.767
251.657
255.684
259.421
262.698
264.782
265.764
188.085
189.571
192.828
197.06
201.883
206.884
211.496
215.553
217.732
219.311
134.243
135.587
140.005
145.606
152.003
158.489
164.467
169.477
172.381
173.975
79.4319
80.9825
86.2894
93.1212
101.092
109.571
117.778
124.58
128.638
130.77
25.318
25.2121
30.9569
39.7866
50.7533
62.4468
73.6619
82.1712
87.3096
90.3049
1.42111
1.64308
3.23486
5.17642
9.57605
19.815
33.118
43.8957
47.4558
49.0851
0.117277
0.0451699
-0.0509097
-0.1828
-0.112837
1.06335
6.66513
14.399
20.5706
21.9739
-0.0701451
-0.137202
-0.226644
-0.309759
-0.368307
-0.412254
-0.217981
0.620656
1.21952
1.34566
-0.232066
-0.296665
-0.36947
-0.440244
-0.466647
-0.426074
-0.399097
-0.433942
-0.462796
-0.438292
-0.348092
-0.389312
-0.434312
-0.468534
-0.475014
-0.469747
-0.470243
-0.467654
-0.460577
-0.454079
-0.42606
-0.444829
-0.466186
-0.479612
-0.485059
-0.487227
-0.491987
-0.49658
-0.499496
-0.505105
-0.492718
-0.502937
-0.515578
-0.527209
-0.533585
-0.533813
-0.537006
-0.539707
-0.543986
-0.550539
-0.560426
-0.572027
-0.583382
-0.586778
-0.584668
-0.581364
-0.580766
-0.58019
-0.582162
-0.590316
-0.629009
-0.649354
-0.653862
-0.645645
-0.638528
-0.632473
-0.629301
-0.626733
-0.624917
-0.629213
-0.701004
-0.726244
-0.717219
-0.70725
-0.697429
-0.689382
-0.682724
-0.67497
-0.667962
-0.666138
-0.78185
-0.794766
-0.7809
-0.771855
-0.761667
-0.752424
-0.741261
-0.727905
-0.714891
-0.707211
-0.861622
-0.86134
-0.847054
-0.839267
-0.829838
-0.819532
-0.805116
-0.786974
-0.769315
-0.757292
-0.931132
-0.925277
-0.915539
-0.908782
-0.901367
-0.891909
-0.877188
-0.856993
-0.835392
-0.825306
337.581
338.898
341.03
343.972
347.355
350.86
354.14
356.91
358.824
359.989
287.062
288.418
290.775
294.049
297.78
301.637
305.234
308.28
310.331
311.633
234.668
236.338
239.304
243.233
247.686
252.282
256.564
260.214
262.653
264.015
180.23
182.146
186.272
191.333
196.955
202.738
208.127
212.721
215.677
217.428
123.738
125.382
131.175
137.921
145.479
153.186
160.239
166.083
170.049
172.199
64.828
66.6834
74.7164
83.5542
92.9423
102.772