/*--------------------------------*- C++ -*----------------------------------*\
| =========                 |                                                 |
| \\      /  F ield         | OpenFOAM: The Open Source CFD Toolbox           |
|  \\    /   O peration     | Version:  2312                                  |
|   \\  /    A nd           | Website:  www.openfoam.com                      |
|    \\/     M anipulation  |                                                 |
\*---------------------------------------------------------------------------*/
FoamFile
{
    version     2.0;
    format      ascii;
    arch        "LSB;label=32;scalar=64";
    class       surfaceScalarField;
    location    "0.79";
    object      phi;
}
// * * * * * * * * * * * * * * * * * * * * * * * * * * * * * * * * * * * * * //

dimensions      [0 3 -1 0 0 0 0];

oriented        oriented;

internalField   nonuniform List<scalar> 
22600
(
5.53826e-08
1.41557e-09
5.81868e-08
-6.86144e-09
-1.84925e-09
6.40933e-08
-7.05903e-08
-1.42201e-08
7.7949e-08
-1.27058e-07
-3.56509e-08
9.21186e-08
-1.6847e-07
-6.20345e-08
1.03447e-07
-1.86238e-07
-9.47247e-08
1.12492e-07
-1.75967e-07
-1.28739e-07
1.18468e-07
-1.23481e-07
-1.73545e-07
1.21058e-07
-5.6964e-08
-1.97608e-07
1.31091e-07
-1.97038e-07
1.40074e-07
6.94721e-08
-8.08058e-09
6.12386e-08
1.32993e-08
-5.80796e-09
6.01315e-08
-3.2717e-08
-3.4741e-08
6.65372e-08
-7.16858e-08
-7.46213e-08
7.79391e-08
-1.00718e-07
-1.21703e-07
8.87013e-08
-1.15242e-07
-1.76334e-07
9.61339e-08
-1.10105e-07
-2.28745e-07
9.48675e-08
-7.20348e-08
-2.97566e-07
8.59512e-08
-2.51804e-08
-3.45832e-07
1.01369e-07
-3.38051e-07
1.15832e-07
5.87238e-08
-8.17444e-08
1.38107e-07
-1.61879e-08
-4.91267e-08
1.18231e-07
-7.98432e-08
-8.53945e-08
1.14309e-07
-1.28912e-07
-1.4256e-07
1.17008e-07
-1.66241e-07
-2.03121e-07
1.18746e-07
-1.92315e-07
-2.65379e-07
1.15119e-07
-1.93768e-07
-3.30015e-07
1.02723e-07
-1.54122e-07
-4.51529e-07
1.14317e-07
-8.32713e-08
-6.14418e-07
1.97735e-07
-6.16133e-07
1.94811e-07
1.0086e-07
-4.05807e-07
3.54774e-07
-1.22767e-08
-2.23794e-07
2.87804e-07
-1.13749e-07
-2.26707e-07
2.42785e-07
-2.00127e-07
-2.6969e-07
2.13509e-07
-2.74405e-07
-3.1316e-07
1.84315e-07
-3.14976e-07
-3.82365e-07
1.57557e-07
-3.1808e-07
-4.99689e-07
1.72779e-07
-3.33712e-07
-7.53468e-07
3.17571e-07
-2.50142e-07
-1.24854e-06
5.50554e-07
-1.2784e-06
4.12125e-07
1.07275e-07
-1.11402e-06
6.65696e-07
4.6126e-08
-7.56056e-07
5.9341e-07
-5.48817e-08
-6.72283e-07
5.46584e-07
-1.4452e-07
-6.61781e-07
4.81729e-07
-2.19583e-07
-6.2234e-07
3.84244e-07
-3.05657e-07
-6.07631e-07
3.11339e-07
-4.80536e-07
-7.21378e-07
3.96567e-07
-6.99286e-07
-1.25408e-06
7.19359e-07
-5.77409e-07
-2.44561e-06
1.07519e-06
-2.75896e-06
9.03152e-07
-2.93525e-07
-1.54597e-06
6.13441e-07
-2.57808e-07
-1.33905e-06
5.4728e-07
-2.25787e-07
-1.32198e-06
6.17673e-07
-1.17299e-07
-1.46575e-06
6.95478e-07
-8.22991e-08
-1.35193e-06
6.94592e-07
-2.80037e-07
-1.04807e-06
6.38178e-07
-6.65063e-07
-1.12756e-06
7.9121e-07
-8.4822e-07
-2.21774e-06
1.14682e-06
-7.24498e-07
-3.97421e-06
1.40488e-06
-4.60304e-06
1.11958e-06
-4.59273e-07
-1.19805e-06
5.2254e-08
-5.70038e-07
-1.25582e-06
2.75308e-08
-6.18349e-07
-1.57184e-06
2.9817e-07
-4.70869e-07
-2.18752e-06
5.74295e-07
-3.32987e-07
-2.38291e-06
8.93094e-07
-4.79539e-07
-1.95771e-06
1.05619e-06
-7.36076e-07
-2.10839e-06
1.23737e-06
-7.69848e-07
-3.69825e-06
1.51427e-06
-8.28078e-07
-5.38348e-06
1.4675e-06
-5.85803e-06
4.26913e-07
-5.08979e-07
6.14024e-07
-1.38921e-06
-5.97721e-07
2.1749e-07
-1.38457e-06
-4.08027e-07
-4.844e-07
-1.27713e-06
-2.32868e-07
-1.53972e-06
-8.22959e-07
-2.07864e-08
-2.46864e-06
-1.26346e-07
-5.93353e-08
-2.55956e-06
6.40391e-07
-4.89867e-08
-3.02073e-06
9.01986e-07
-2.88799e-07
-4.63854e-06
1.1801e-06
-8.38119e-07
-6.29864e-06
1.46448e-06
-6.31086e-06
-3.85291e-07
-1.30933e-06
2.09365e-06
-1.08659e-06
-1.24239e-06
1.43953e-06
-1.28898e-06
-8.68186e-07
6.69857e-07
-1.52846e-06
-7.41156e-07
-6.48147e-08
-1.60194e-06
-5.37605e-07
-1.0212e-06
-1.65099e-06
-2.32832e-07
-1.65573e-06
-1.2086e-06
2.63685e-07
-2.65836e-06
-8.58887e-07
2.29091e-07
-4.47684e-06
-1.27107e-07
-6.4655e-07
-6.52987e-06
1.10687e-06
-6.35675e-06
-6.00663e-07
-2.80874e-06
1.68756e-06
7.99636e-07
-2.8372e-06
7.98675e-07
6.69316e-07
-2.46503e-06
-5.65344e-07
8.63031e-07
-2.27465e-06
-1.39184e-06
1.13665e-06
-2.08821e-06
-2.74776e-06
1.54012e-06
-2.19532e-06
-3.45528e-06
1.90667e-06
-1.133e-06
-4.70939e-06
9.88714e-07
-4.27328e-09
-6.13284e-06
5.27278e-07
-4.76418e-07
-7.02079e-06
9.63063e-07
-6.591e-06
-2.42163e-07
-6.10656e-06
3.02316e-06
-5.88997e-07
-7.05819e-06
2.08733e-06
-3.37021e-07
-8.587e-06
9.67552e-07
-4.08192e-09
-1.06787e-05
1.37218e-07
5.62655e-07
-1.08215e-05
-2.90481e-06
2.9982e-07
-7.89156e-06
-6.54267e-06
1.57453e-07
-4.82439e-06
-8.04956e-06
2.73001e-07
-1.43154e-06
-1.06281e-05
1.1024e-06
-2.5376e-07
-9.07223e-06
8.73658e-07
-6.59665e-06
-2.48112e-07
-6.09347e-06
6.47549e-06
-2.19328e-06
-7.2275e-06
5.6451e-06
-2.42375e-06
-8.31497e-06
4.86047e-06
-2.80545e-06
-9.02496e-06
3.38891e-06
-2.5417e-06
-9.42417e-06
3.59615e-07
-2.86522e-06
-8.81767e-06
-3.26214e-06
-3.88706e-06
-5.88769e-06
-6.2724e-06
-4.70714e-06
-4.03865e-06
-9.90788e-06
-2.56924e-06
-5.82595e-07
-1.26006e-05
7.231e-08
-7.52346e-06
3.44211e-07
-6.13617e-06
1.07077e-05
-2.21764e-06
-7.47698e-06
9.58928e-06
-2.60337e-06
-7.74206e-06
8.59176e-06
-3.46622e-06
-7.46949e-06
6.7822e-06
-3.66587e-06
-6.98543e-06
3.92962e-06
-4.05406e-06
-6.04334e-06
1.07247e-06
-5.2767e-06
-4.04326e-06
-1.83761e-06
-6.43486e-06
-2.48849e-06
-4.03603e-06
-7.42662e-06
-1.27055e-06
-1.02626e-05
-3.55594e-06
-1.04537e-05
1.65966e-06
-7.03686e-06
1.37841e-05
-4.58555e-07
-8.54378e-06
1.25167e-05
-1.42048e-06
-8.72229e-06
1.16692e-05
-2.89893e-06
-8.67475e-06
9.6887e-06
-2.95406e-06
-8.00277e-06
6.21837e-06
-2.96073e-06
-5.14354e-06
2.47018e-06
-4.25693e-06
-9.74769e-07
5.7181e-08
-6.06357e-06
3.00528e-06
-3.27083e-07
-7.689e-06
2.99511e-06
-5.49512e-06
-4.7573e-06
-7.60374e-06
1.45187e-07
-7.52345e-06
1.42141e-05
2.43025e-06
-9.33808e-06
1.37728e-05
5.58502e-07
-9.88624e-06
1.35636e-05
-1.34621e-06
-9.96894e-06
1.11288e-05
-1.35738e-06
-8.83152e-06
6.76036e-06
-1.67941e-06
-5.2278e-06
2.31114e-06
-3.44467e-06
-2.87916e-07
1.13551e-07
-4.99627e-06
4.99456e-06
-1.41346e-07
-5.46821e-06
4.4895e-06
-7.10846e-07
-4.27922e-06
-2.63062e-06
-4.8362e-07
-6.28585e-06
1.1765e-05
4.25326e-06
-7.70211e-06
1.22759e-05
2.91315e-06
-9.04484e-06
1.35897e-05
1.31657e-06
-9.81287e-06
1.10852e-05
8.11621e-07
-8.31322e-06
6.03892e-06
-7.78215e-07
-3.06723e-06
8.18029e-07
-3.75288e-06
2.54809e-06
-1.1653e-06
-4.33648e-06
5.97145e-06
-6.36035e-07
-2.92867e-06
5.21458e-06
2.13684e-06
-2.09081e-06
9.75456e-07
1.60851e-06
-4.15235e-06
7.44964e-06
4.54337e-06
-4.09655e-06
7.9524e-06
4.26772e-06
-6.06833e-06
1.16998e-05
3.86167e-06
-8.1584e-06
1.00092e-05
3.16601e-06
-6.95981e-06
4.55439e-06
2.85932e-07
-9.29349e-07
-1.25339e-06
-3.95904e-06
4.32411e-06
-2.15433e-06
-4.26442e-06
5.96522e-06
-2.02599e-07
-2.07454e-06
5.08737e-06
3.43276e-06
-4.18092e-07
3.0915e-06
2.97134e-06
-1.73682e-06
4.08664e-06
3.27173e-06
-1.10949e-06
3.85945e-06
3.46561e-06
-3.22261e-06
9.16105e-06
4.6519e-06
-6.50438e-06
8.53884e-06
4.75215e-06
-5.77373e-06
2.73871e-06
1.08503e-06
-1.01573e-07
-2.41982e-06
-4.50572e-06
4.57299e-06
-1.82001e-06
-5.00888e-06
6.73554e-06
8.45694e-07
-3.21084e-06
5.26432e-06
4.64083e-06
2.6314e-07
4.67588e-06
3.67994e-06
9.04121e-07
3.14398e-06
1.56329e-06
2.85565e-08
3.07394e-06
1.66108e-06
-2.77825e-06
8.31578e-06
3.65207e-06
-6.63394e-06
7.40053e-06
4.99399e-06
-4.99863e-06
1.77038e-06
-6.66974e-07
2.05678e-07
-1.60876e-06
-6.01537e-06
4.29545e-06
1.67872e-07
-6.07764e-06
7.07069e-06
3.15477e-06
-5.08432e-06
5.50117e-06
6.50149e-06
-2.91138e-07
6.22092e-06
3.95612e-06
2.20331e-06
7.4617e-07
3.3529e-06
-6.04351e-07
1.00148e-06
4.88012e-06
-4.14269e-06
2.381e-06
9.47312e-06
-7.41215e-06
3.6025e-06
7.06749e-06
-4.5427e-06
-3.25906e-06
2.16e-06
-7.46907e-08
-6.88764e-06
8.10869e-07
3.79089e-06
-7.08005e-06
3.38234e-06
7.04444e-06
-6.70678e-06
6.608e-06
5.65282e-06
-1.38968e-06
9.2828e-06
3.85253e-06
8.02121e-06
2.18765e-08
-5.41689e-08
2.13513e-07
-7.64433e-08
-4.87456e-08
2.11159e-07
-1.59216e-07
-5.83661e-08
2.19088e-07
-2.1952e-07
-7.70597e-08
2.29482e-07
-2.56517e-07
-1.00577e-07
2.41021e-07
-2.63623e-07
-1.33471e-07
2.5307e-07
-2.33914e-07
-1.76789e-07
2.65548e-07
-1.44541e-07
-2.46096e-07
2.77781e-07
-4.87896e-08
-2.62947e-07
2.98287e-07
-1.89434e-07
2.80718e-07
4.09834e-08
-1.22594e-07
2.16184e-07
-4.46518e-08
-1.03253e-07
2.00274e-07
-1.18924e-07
-1.16436e-07
1.98878e-07
-1.76584e-07
-1.48116e-07
2.06656e-07
-2.15352e-07
-1.91368e-07
2.1826e-07
-2.31006e-07
-2.5016e-07
2.28477e-07
-2.10108e-07
-3.36425e-07
2.33605e-07
-1.11997e-07
-4.99792e-07
2.41536e-07
-1.29788e-08
-5.34047e-07
2.73451e-07
-3.26024e-07
2.39444e-07
1.01296e-08
-1.54861e-07
2.95686e-07
-1.12685e-07
-1.20214e-07
2.58006e-07
-2.07377e-07
-1.50884e-07
2.43448e-07
-2.76597e-07
-2.07991e-07
2.46103e-07
-3.31147e-07
-2.72868e-07
2.54797e-07
-3.81213e-07
-3.46022e-07
2.61047e-07
-3.91282e-07
-5.01797e-07
2.78164e-07
-2.66249e-07
-8.71557e-07
3.61049e-07
-7.84752e-08
-9.9925e-07
4.75164e-07
-5.61185e-07
3.51497e-07
1.52312e-08
-1.55665e-07
4.81923e-07
-1.52849e-07
-7.81504e-08
4.1382e-07
-2.96131e-07
-1.29804e-07
3.64988e-07
-4.17445e-07
-2.12886e-07
3.39717e-07
-5.19445e-07
-3.20521e-07
3.33969e-07
-6.16292e-07
-4.33174e-07
3.41555e-07
-6.72382e-07
-7.06978e-07
4.3405e-07
-6.37011e-07
-1.32996e-06
7.40608e-07
-3.52635e-07
-1.71144e-06
9.78369e-07
-1.09384e-06
5.9215e-07
9.56845e-08
-1.50784e-07
7.12273e-07
-8.79912e-08
6.69612e-08
6.31974e-07
-2.91633e-07
3.01553e-08
5.90266e-07
-4.54644e-07
-1.21653e-07
5.53507e-07
-5.56682e-07
-3.43135e-07
5.08894e-07
-6.7651e-07
-5.06956e-07
5.04949e-07
-8.91597e-07
-8.29916e-07
7.34592e-07
-1.08383e-06
-1.72253e-06
1.30416e-06
-7.36486e-07
-2.61306e-06
1.62946e-06
-2.01919e-06
1.09201e-06
-3.32223e-08
-1.14033e-07
7.4415e-07
-1.35929e-07
6.97068e-08
6.47241e-07
-1.88119e-07
-3.82182e-08
7.38235e-07
-2.67632e-07
-1.42323e-07
7.95661e-07
-4.04466e-07
-3.61827e-07
8.50118e-07
-6.18054e-07
-5.80718e-07
9.25527e-07
-9.45235e-07
-9.91197e-07
1.27967e-06
-1.1106e-06
-2.27066e-06
1.86031e-06
-7.96903e-07
-3.52837e-06
2.00649e-06
-3.21324e-06
1.51674e-06
-2.10355e-07
3.0384e-07
2.12182e-07
-6.21787e-07
2.92611e-07
2.16059e-07
-9.30103e-07
1.11345e-07
4.56923e-07
-1.02582e-06
-1.65751e-07
6.93445e-07
-9.27096e-07
-6.1123e-07
1.04377e-06
-8.64839e-07
-1.05263e-06
1.46585e-06
-9.1292e-07
-1.60522e-06
1.89947e-06
-8.90645e-07
-2.99168e-06
2.21302e-06
-5.67829e-07
-4.23866e-06
1.85497e-06
-4.25462e-06
9.00457e-07
-1.2997e-07
1.51108e-06
-2.64808e-06
3.42596e-08
1.26224e-06
-2.51843e-06
-1.53822e-08
1.06705e-06
-2.1832e-06
-3.02065e-07
6.14648e-07
-1.31668e-06
-6.01109e-07
-5.15764e-07
7.72318e-08
-4.16436e-07
-1.67639e-06
1.07948e-06
-2.95036e-07
-2.41895e-06
1.59432e-06
-5.07025e-07
-3.31614e-06
1.71655e-06
-1.34631e-07
-4.65802e-06
1.51145e-06
-4.49355e-06
-2.80987e-07
-1.37863e-06
2.20451e-06
-1.58297e-06
-9.90644e-07
1.82222e-06
-2.23695e-06
-4.73499e-07
1.58222e-06
-2.56077e-06
-7.53668e-07
1.15219e-06
-1.85931e-06
-1.25717e-06
-3.96114e-07
-1.26714e-06
-7.21594e-07
-2.73985e-06
-6.80723e-07
8.675e-08
-3.61897e-06
-4.67212e-07
-5.09025e-08
-3.27834e-06
-2.72508e-08
4.68219e-07
-4.98248e-06
9.12212e-07
-3.7387e-06
-8.87293e-07
-5.74083e-06
7.25933e-06
-3.21328e-06
-5.54666e-06
5.95866e-06
-3.66129e-06
-4.7545e-06
2.70192e-06
-1.04883e-06
-4.02153e-06
-2.37064e-06
3.92651e-06
-3.91311e-06
-6.90569e-06
7.94127e-06
-4.45535e-06
-5.42271e-06
5.13177e-06
-2.59757e-06
-9.63194e-06
5.1439e-06
-1.14225e-06
-8.96268e-06
4.75629e-06
9.05049e-08
-8.46277e-06
3.2106e-06
-3.85985e-06
-3.05075e-08
-5.82651e-06
9.58267e-06
-1.43688e-06
-5.87048e-06
8.17159e-06
-2.50598e-06
-4.96253e-06
5.62366e-06
-3.83379e-06
-3.50781e-06
1.45876e-06
-4.72144e-06
-4.79801e-06
-1.45802e-06
-3.85766e-06
-4.6893e-06
-6.15863e-07
-4.75811e-06
-3.5615e-06
-3.45248e-06
-7.03426e-06
-2.42598e-06
-6.32455e-06
-2.67125e-06
-7.62349e-07
-1.07961e-05
1.54338e-06
-6.47558e-06
1.60526e-06
-1.90174e-06
1.08447e-05
-2.83021e-06
-2.33859e-06
9.51235e-06
-3.32765e-06
-1.60873e-06
7.03367e-06
-4.94533e-06
-4.45638e-07
4.58085e-06
-6.8269e-06
2.1484e-07
3.72204e-06
-8.70576e-06
1.46994e-06
3.98169e-06
-9.7397e-06
3.40955e-06
1.60995e-06
-1.17092e-05
2.54715e-06
9.03582e-07
-8.93499e-06
1.15004e-06
-2.58131e-06
-6.74541e-06
-9.47079e-06
4.48947e-06
2.11947e-06
1.29237e-05
-3.66413e-06
1.0734e-06
1.12291e-05
-3.27404e-06
-1.14598e-07
8.96157e-06
-4.20612e-06
-1.55075e-06
7.51038e-06
-5.15924e-06
-1.44258e-06
6.57751e-06
-7.0177e-06
5.39281e-07
5.38197e-06
-8.65885e-06
3.60721e-06
1.35779e-06
-9.25064e-06
5.7395e-06
2.86345e-06
-1.15188e-05
5.4651e-06
4.10894e-06
-9.97178e-06
-7.49257e-06
5.14654e-06
2.66403e-06
1.57079e-05
-1.31244e-06
4.1418e-07
1.30428e-05
-9.84333e-07
-2.26104e-06
1.10509e-05
-2.313e-06
-4.33938e-06
9.86608e-06
-3.23142e-06
-3.75802e-06
7.47553e-06
-4.44011e-06
-1.83401e-07
3.39869e-06
-5.84825e-06
3.54563e-06
-2.06963e-06
-6.36519e-06
5.28521e-06
4.67416e-07
-7.03254e-06
3.90379e-06
6.78982e-06
-6.05675e-06
-6.24338e-06
2.79978e-06
-6.53162e-07
1.81277e-05
3.41771e-06
-4.13301e-06
1.47932e-05
2.28793e-06
-6.82452e-06
1.26137e-05
-2.17548e-07
-7.70438e-06
1.05007e-05
-1.11218e-06
-5.47721e-06
5.34171e-06
-1.77278e-06
5.79198e-07
-1.6972e-06
-4.40519e-06
5.74391e-06
-6.22844e-06
-6.00217e-06
7.17609e-06
-2.38429e-06
-4.04869e-06
4.83144e-06
8.16129e-06
-3.30606e-06
-3.86423e-06
1.96867e-06
-4.07275e-06
1.83739e-05
7.50738e-06
-7.62264e-06
1.58387e-05
5.41757e-06
-9.93422e-06
1.40896e-05
2.1522e-06
-9.39997e-06
9.69651e-06
1.08159e-06
-4.84114e-06
1.39224e-06
-1.38758e-06
2.13812e-06
-6.16573e-06
-6.2636e-06
6.17998e-06
-7.92306e-06
-6.68371e-06
6.7441e-06
-2.7621e-06
-3.11497e-06
5.44775e-06
8.38441e-06
-1.0176e-06
8.46997e-07
2.34502e-06
-4.97392e-06
1.57902e-05
9.13992e-06
-6.92328e-06
1.43539e-05
7.70181e-06
-9.13887e-06
1.47192e-05
5.44771e-06
-8.69994e-06
8.96594e-06
3.45765e-06
-3.8256e-06
-1.47093e-06
-1.72523e-06
1.83841e-06
-8.00206e-06
-7.78672e-06
4.50854e-06
-7.31918e-06
-7.53843e-06
4.7382e-06
-8.16366e-07
-4.24994e-06
4.06869e-06
8.43654e-06
1.99297e-07
4.45296e-06
3.43408e-06
-3.58928e-06
1.20025e-05
7.79646e-06
-3.89362e-06
1.04127e-05
7.71116e-06
-6.09273e-06
1.40577e-05
7.5125e-06
-7.13203e-06
9.2218e-06
5.53559e-06
-3.40177e-06
-2.26587e-06
-1.8503e-06
4.18245e-07
-7.65398e-06
-8.67382e-06
2.00968e-06
-5.19137e-06
-8.72812e-06
2.86743e-06
2.00978e-06
-6.89474e-06
2.71112e-06
9.03354e-06
-1.77541e-07
6.98145e-06
3.86257e-06
-5.59984e-07
9.00173e-06
4.76537e-06
-1.04578e-06
7.24871e-06
5.31089e-06
-3.42211e-06
1.31183e-05
6.9678e-06
-5.16164e-06
1.01714e-05
5.78388e-06
-2.96446e-06
-9.92407e-07
-4.13763e-06
-1.43926e-06
-5.70176e-06
-9.49278e-06
-4.48811e-07
-2.06321e-06
-1.01963e-05
1.00405e-06
5.02554e-06
-9.55294e-06
1.7579e-06
1.08893e-05
-2.90071e-06
9.33624e-06
3.35924e-06
3.0511e-06
3.03605e-06
6.8844e-06
1.00686e-06
3.52156e-06
6.77288e-06
-2.10868e-06
5.23224e-06
1.33826e-05
-4.21544e-06
4.08161e-06
1.17991e-05
-3.05861e-06
-6.90343e-06
1.49514e-06
-3.10196e-06
-9.93897e-06
-2.60707e-06
-2.00331e-06
-1.15864e-05
1.34445e-06
-5.04485e-07
-1.1473e-05
8.29291e-06
1.11821e-06
-5.89537e-06
1.37722e-05
2.1679e-06
1.21391e-05
2.52531e-08
-1.00105e-07
4.04369e-07
-6.21824e-08
-8.40615e-08
3.82656e-07
-1.37157e-07
-7.51162e-08
3.69178e-07
-1.90998e-07
-7.89821e-08
3.62305e-07
-2.23657e-07
-9.12126e-08
3.64892e-07
-2.30216e-07
-1.15034e-07
3.74663e-07
-2.04069e-07
-1.52316e-07
3.91717e-07
-1.2334e-07
-2.19614e-07
4.16667e-07
-3.76004e-08
-2.34116e-07
4.46663e-07
-1.48083e-07
3.91201e-07
4.04882e-08
-2.14881e-07
4.1248e-07
-2.94548e-08
-1.84388e-07
3.70544e-07
-8.94392e-08
-1.60958e-07
3.44705e-07
-1.389e-07
-1.57507e-07
3.34642e-07
-1.75021e-07
-1.74749e-07
3.37918e-07
-1.91356e-07
-2.18792e-07
3.4857e-07
-1.73052e-07
-3.03135e-07
3.6612e-07
-8.08211e-08
-4.69713e-07
3.99404e-07
3.53183e-09
-4.82874e-07
4.37857e-07
-2.48107e-07
3.42999e-07
1.36928e-08
-2.69208e-07
4.63539e-07
-8.69319e-08
-2.42103e-07
4.16345e-07
-1.63992e-07
-2.24877e-07
3.84427e-07
-2.23961e-07
-2.2901e-07
3.77574e-07
-2.7288e-07
-2.58623e-07
3.8759e-07
-3.18992e-07
-3.18539e-07
4.06906e-07
-3.24077e-07
-4.76203e-07
4.56317e-07
-1.74196e-07
-8.38414e-07
5.79869e-07
-6.11636e-09
-8.40738e-07
6.64947e-07
-3.59293e-07
4.56566e-07
4.00193e-09
-2.04783e-07
5.34126e-07
-1.31631e-07
-2.00813e-07
5.08164e-07
-2.39354e-07
-2.2266e-07
4.70495e-07
-3.37418e-07
-2.47813e-07
4.56584e-07
-4.45262e-07
-2.95782e-07
4.78972e-07
-5.74742e-07
-3.81346e-07
5.33842e-07
-6.27494e-07
-6.7067e-07
6.81269e-07
-4.67645e-07
-1.24758e-06
9.89923e-07
-1.56354e-07
-1.25883e-06
1.08517e-06
-5.77622e-07
6.54125e-07
1.18143e-08
-1.29668e-08
6.2093e-07
-1.70206e-07
-1.95177e-09
6.15133e-07
-3.38461e-07
-7.5789e-08
6.11649e-07
-4.79101e-07
-1.50313e-07
5.96647e-07
-5.90315e-07
-2.8056e-07
6.04888e-07
-7.46174e-07
-3.97103e-07
6.76565e-07
-9.01033e-07
-7.30789e-07
9.49571e-07
-8.87737e-07
-1.39052e-06
1.43381e-06
-4.99084e-07
-1.48534e-06
1.46732e-06
-8.17147e-07
8.32447e-07
3.60321e-08
1.5517e-07
6.83983e-07
-1.32658e-07
1.28992e-07
6.84987e-07
-2.9855e-07
4.50438e-08
7.83294e-07
-4.78832e-07
-1.84318e-08
8.44062e-07
-6.60444e-07
-1.4754e-07
8.98709e-07
-8.74963e-07
-2.9461e-07
1.03755e-06
-1.09568e-06
-6.52191e-07
1.42179e-06
-1.1303e-06
-1.38038e-06
1.88479e-06
-7.20938e-07
-1.612e-06
1.72379e-06
-1.24148e-06
1.22013e-06
-7.52406e-08
5.96791e-07
1.65866e-07
-5.09985e-07
4.55636e-07
3.2416e-07
-8.3707e-07
2.62397e-07
5.66655e-07
-1.01708e-06
4.69237e-08
8.08098e-07
-1.06808e-06
-1.30443e-07
1.07767e-06
-1.13427e-06
-2.26918e-07
1.46435e-06
-1.1943e-06
-6.46203e-07
1.95351e-06
-1.12363e-06
-1.49818e-06
2.26017e-06
-7.1214e-07
-2.00363e-06
1.83512e-06
-2.25334e-06
1.20017e-06
1.99355e-07
3.83041e-07
-2.88287e-06
5.56093e-07
3.24309e-07
-2.74384e-06
3.87889e-07
6.82254e-07
-2.43485e-06
-9.08664e-08
7.79475e-07
-1.57047e-06
-5.00988e-07
5.38762e-07
-1.81851e-07
-7.52784e-07
2.50786e-08
1.07928e-06
-7.70156e-07
-9.19747e-07
1.88523e-06
-6.73651e-07
-1.96876e-06
2.09062e-06
-1.46141e-07
-2.61566e-06
1.59597e-06
-2.69337e-06
1.29092e-08
-1.90789e-06
2.4637e-06
-3.37683e-06
-2.12677e-06
1.21863e-06
-2.91239e-06
-1.49252e-06
-6.3268e-07
-1.88008e-06
-7.56936e-07
2.40076e-07
-2.05549e-06
-7.54515e-07
1.67544e-07
-8.98341e-07
-5.11288e-07
-9.58504e-07
5.96321e-08
1.76443e-07
-2.32334e-06
2.48652e-07
8.48592e-07
-3.13806e-06
4.69904e-07
1.47774e-06
-3.58737e-06
1.25478e-06
-1.72272e-06
-3.80205e-07
-7.30599e-06
5.53676e-06
-4.57758e-06
-8.26992e-06
4.03216e-06
-5.51089e-06
-7.52495e-06
3.30052e-06
-5.727e-06
-5.00973e-06
5.07586e-06
-3.42451e-06
-2.87886e-06
7.49801e-06
-1.52008e-06
-2.72022e-06
5.86803e-06
-1.8534e-06
-2.61585e-06
3.0242e-06
-3.08018e-07
-2.16582e-06
-4.12429e-06
5.29249e-06
-8.57922e-08
-7.77856e-06
5.32176e-06
-2.67619e-06
8.37168e-07
-1.86394e-06
6.9269e-06
-3.48159e-06
-1.9004e-06
5.30005e-06
-3.7374e-06
-1.90737e-06
4.22299e-06
-4.7493e-06
-6.32703e-07
4.19039e-06
-5.11064e-06
1.39545e-06
6.14562e-06
-4.53341e-06
2.11032e-06
7.90317e-06
-7.50812e-06
1.95432e-06
5.83341e-06
-9.68747e-06
3.21402e-07
1.61261e-06
-6.77523e-06
-2.70219e-06
-5.60609e-07
-2.65098e-06
-9.86609e-06
6.09297e-06
3.56799e-06
7.37237e-06
-4.95283e-06
3.55328e-06
5.93273e-06
-3.94562e-06
2.41906e-06
4.54058e-06
-4.12869e-06
1.28184e-06
3.46806e-06
-4.96736e-06
1.08927e-06
3.98764e-06
-6.35521e-06
1.27452e-06
6.21167e-06
-8.23346e-06
2.83211e-06
3.14374e-06
-1.05771e-05
2.16009e-06
5.12905e-06
-1.17794e-05
6.08495e-07
4.55127e-06
-1.03057e-05
-8.0429e-06
3.27478e-06
6.86713e-06
8.2999e-06
-5.57433e-06
6.07763e-06
6.9107e-06
-3.46253e-06
3.26848e-06
5.68773e-06
-2.54413e-06
-7.5645e-07
5.01375e-06
-2.68e-06
-3.05854e-06
4.23484e-06
-4.96281e-06
-9.52333e-07
3.00864e-06
-7.56204e-06
2.60094e-06
-1.77934e-06
-7.88084e-06
3.24456e-06
1.49668e-06
-8.53003e-06
4.83044e-07
7.23644e-06
-9.89544e-06
-4.78389e-06
2.37057e-06
8.50323e-06
9.98427e-06
-3.08726e-06
6.37048e-06
8.90831e-06
-8.49196e-07
1.29446e-06
8.25729e-06
1.93455e-07
-3.88063e-06
7.4284e-06
-4.70972e-07
-4.78245e-06
4.17933e-06
-3.4828e-06
2.19785e-07
-1.3065e-06
-6.53534e-06
4.51908e-06
-5.84074e-06
-6.60309e-06
4.51796e-06
-1.87692e-06
-3.65783e-06
1.74736e-06
9.47124e-06
-5.52091e-06
-1.84142e-06
1.60466e-06
6.63359e-06
1.26698e-05
2.48646e-06
2.34243e-06
1.16539e-05
3.83353e-06
-3.42259e-06
1.07931e-05
3.01166e-06
-6.43136e-06
8.44816e-06
8.76822e-07
-4.10048e-06
2.56254e-06
-2.48688e-06
2.66156e-06
-6.00572e-06
-6.46801e-06
6.6782e-06
-8.85277e-06
-7.00677e-06
6.03707e-06
-2.7881e-06
-2.49637e-06
2.1488e-06
1.10984e-05
-1.04495e-06
7.68015e-07
1.50804e-06
2.06439e-06
1.50093e-05
8.28606e-06
-2.86296e-06
1.40305e-05
7.96827e-06
-7.05349e-06
1.23146e-05
4.82118e-06
-7.01648e-06
7.81219e-06
1.68053e-06
-2.47719e-06
-4.49631e-07
-2.9147e-06
2.84437e-06
-9.85267e-06
-7.73822e-06
5.45091e-06
-1.02289e-05
-7.91414e-06
4.59779e-06
-1.54215e-06
-3.50779e-06
1.92458e-06
1.16853e-05
1.06876e-06
3.02338e-06
2.01424e-06
-1.44866e-06
1.52913e-05
1.12929e-05
-4.62974e-06
1.44169e-05
1.04965e-05
-7.12476e-06
1.31875e-05
7.06989e-06
-6.12281e-06
7.25014e-06
3.01775e-06
-2.05993e-06
-2.25886e-06
-3.97888e-06
4.74698e-07
-1.14392e-05
-8.73479e-06
1.24666e-06
-9.48292e-06
-9.05636e-06
7.10911e-07
8.22411e-07
-6.07875e-06
6.14891e-07
1.13417e-05
6.38891e-07
4.98334e-06
2.08901e-06
-2.40488e-06
1.34185e-05
1.03898e-05
-2.96373e-06
1.21238e-05
1.05631e-05
-4.3222e-06
1.30499e-05
9.00851e-06
-4.4514e-06
8.20359e-06
4.71134e-06
-2.35271e-06
-1.53052e-06
-4.67735e-06
-2.42962e-06
-1.08164e-05
-9.21977e-06
-2.70212e-06
-7.61627e-06
-1.03223e-05
-2.53524e-06
2.85695e-06
-9.09616e-06
-1.04872e-06
1.19136e-05
-2.23594e-06
6.64804e-06
1.14914e-06
-4.12955e-07
1.04881e-05
7.43248e-06
-2.28046e-08
9.06783e-06
7.97676e-06
-1.02529e-06
1.20585e-05
8.96167e-06
-2.31075e-06
9.90947e-06
5.36346e-06
-2.60055e-06
1.50491e-07
-5.52884e-06
-4.76718e-06
-8.85104e-06
-9.29149e-06
-5.24022e-06
-5.78332e-06
-1.15562e-05
-4.59274e-06
3.74685e-06
-1.10903e-05
-2.45459e-06
1.27761e-05
-5.90137e-06
8.13597e-06
-5.83273e-07
3.86298e-06
5.36485e-06
7.57153e-06
3.04373e-06
5.91478e-06
7.49385e-06
1.74137e-06
7.38531e-06
1.12078e-05
-9.60798e-07
4.91547e-06
1.17778e-05
-3.37661e-06
-5.96996e-06
1.63284e-06
-6.31068e-06
-9.31941e-06
-6.53653e-06
-6.66774e-06
-1.27616e-05
-4.25102e-06
-5.2502e-06
-1.29349e-05
3.79121e-06
-2.6938e-06
-8.67911e-06
1.30034e-05
-2.32834e-06
9.93841e-06
1.10936e-08
-3.14035e-08
5.34865e-07
-6.76202e-08
-3.76974e-08
4.99067e-07
-1.29255e-07
-3.74515e-08
4.68265e-07
-1.7241e-07
-4.3119e-08
4.48578e-07
-1.97776e-07
-5.29095e-08
4.43168e-07
-2.00634e-07
-7.03106e-08
4.47833e-07
-1.76706e-07
-9.49048e-08
4.62693e-07
-1.08616e-07
-1.41374e-07
4.89951e-07
-3.43478e-08
-1.50741e-07
5.23136e-07
-8.78359e-08
4.44689e-07
1.64998e-08
-7.90705e-08
5.64332e-07
-4.67395e-08
-1.06236e-07
5.02322e-07
-8.37538e-08
-1.03858e-07
4.48125e-07
-1.14708e-07
-9.56106e-08
4.18087e-07
-1.39995e-07
-9.98099e-08
4.10105e-07
-1.51079e-07
-1.27822e-07
4.17166e-07
-1.3425e-07
-1.82132e-07
4.36519e-07
-6.48331e-08
-2.85429e-07
4.74043e-07
-1.23696e-09
-2.89583e-07
5.13103e-07
-1.43038e-07
3.96964e-07
8.07385e-09
-7.55375e-08
5.75709e-07
-8.115e-08
-1.44954e-07
5.44288e-07
-1.35394e-07
-1.65459e-07
5.00272e-07
-1.76082e-07
-1.51636e-07
4.74288e-07
-2.06417e-07
-1.5589e-07
4.74004e-07
-2.21939e-07
-1.95517e-07
4.90123e-07
-2.03642e-07
-2.78672e-07
5.3456e-07
-8.88518e-08
-4.56932e-07
6.36581e-07
7.3254e-09
-4.23651e-07
7.02838e-07
-1.79708e-07
5.00561e-07
4.05896e-08
-2.43707e-08
5.67476e-07
-7.31223e-08
-1.23403e-07
6.00324e-07
-1.57775e-07
-1.92463e-07
5.82151e-07
-2.29401e-07
-1.82181e-07
5.58755e-07
-3.06103e-07
-1.76105e-07
5.75889e-07
-3.77632e-07
-2.23054e-07
6.32907e-07
-3.75979e-07
-3.64026e-07
7.6497e-07
-1.98708e-07
-6.50324e-07
1.00604e-06
-2.3409e-08
-5.7151e-07
1.05773e-06
-2.4001e-07
6.91018e-07
6.5529e-08
5.24912e-08
5.9425e-07
-8.25708e-08
-1.03205e-08
6.50151e-07
-2.32845e-07
-1.18952e-07
6.88412e-07
-3.57102e-07
-1.35218e-07
6.7394e-07
-4.41038e-07
-1.80221e-07
6.92941e-07
-5.25693e-07
-2.44332e-07
7.82497e-07
-5.57959e-07
-3.88746e-07
1.00656e-06
-4.30334e-07
-6.74893e-07
1.33075e-06
-2.24152e-07
-5.41346e-07
1.23097e-06
-3.39167e-07
7.07452e-07
1.02771e-07
1.37237e-07
6.0236e-07
-5.85012e-08
7.96654e-08
7.56273e-07
-2.58951e-07
-6.18154e-09
8.70973e-07
-4.55532e-07
-2.75587e-08
9.32984e-07
-6.18225e-07
-7.50754e-08
9.56256e-07
-7.53846e-07
-1.65352e-07
1.09419e-06
-8.30292e-07
-2.89723e-07
1.39921e-06
-7.3587e-07
-5.03324e-07
1.6188e-06
-4.76921e-07
-2.65619e-07
1.18912e-06
-4.08077e-07
8.12122e-07
-5.46485e-09
4.21356e-07
1.16848e-07
-3.99108e-07
3.21588e-07
4.75881e-07
-6.98206e-07
1.56812e-07
7.02759e-07
-8.57076e-07
-6.1454e-08
1.00086e-06
-9.13179e-07
-1.48661e-07
1.20736e-06
-1.01093e-06
-7.44861e-09
1.4042e-06
-1.12285e-06
-8.85465e-09
1.78456e-06
-1.06468e-06
-3.10484e-07
2.00915e-06
-7.41467e-07
-4.14693e-07
1.66098e-06
-1.08318e-06
1.13381e-06
4.79909e-07
-9.40493e-07
-2.27575e-06
9.96192e-07
-5.96369e-07
-2.34217e-06
9.0632e-07
-8.36574e-08
-2.10451e-06
2.28616e-07
2.75734e-07
-1.22996e-06
-3.55915e-07
2.37935e-07
1.60847e-08
-6.88679e-07
2.61429e-07
1.14317e-06
-9.96641e-07
2.56019e-07
1.92832e-06
-1.00706e-06
-4.8793e-07
2.27848e-06
-4.1922e-07
-1.11346e-06
1.7069e-06
-1.47135e-06
-1.81362e-08
-7.52123e-06
1.98593e-06
-5.39453e-06
-6.21631e-06
4.81531e-07
-5.29521e-06
-4.81094e-06
-2.01625e-07
-3.16749e-06
-2.5008e-06
-3.77821e-06
-3.11688e-07
-1.6153e-06
-2.30962e-06
7.63715e-07
-5.8684e-07
-2.39224e-06
1.68484e-06
3.71621e-07
-2.13646e-06
1.68267e-06
9.57002e-07
-2.07994e-06
1.47653e-06
1.33942e-06
-2.32927e-06
2.08817e-06
-5.02685e-07
-9.45334e-09
-6.7605e-06
2.7815e-06
-4.91914e-06
-6.97517e-06
7.13965e-07
-5.52864e-06
-6.31982e-06
7.80567e-08
-6.66203e-06
-4.17524e-06
-5.68397e-07
-8.77889e-06
-2.53543e-07
2.12124e-06
-9.87265e-06
-9.71562e-08
3.74187e-06
-8.1439e-06
-1.46635e-06
4.42442e-06
-5.49971e-06
-4.582e-07
4.94865e-06
-2.74426e-06
-1.27886e-06
3.43294e-06
3.80212e-07
-2.50924e-06
1.56486e-06
1.27775e-06
2.46513e-06
-4.89079e-06
1.83466e-06
2.02275e-07
-3.78263e-06
1.89677e-06
-5.23812e-07
-4.20954e-06
1.6621e-06
-6.68294e-07
-4.77608e-06
2.51604e-06
1.02654e-06
-4.29266e-06
1.52322e-06
4.69829e-06
-7.47171e-06
6.6653e-07
4.65504e-06
-9.06141e-06
-3.5252e-07
8.17114e-06
-8.97867e-06
-2.27865e-07
6.8484e-06
-6.19111e-06
-1.04059e-06
4.39645e-06
4.62607e-06
2.93014e-06
-6.0717e-06
3.98449e-06
9.64343e-07
-4.0661e-06
2.65728e-06
6.83057e-07
-4.00836e-06
1.13672e-06
5.36566e-07
-4.65165e-06
1.68053e-07
2.19181e-07
-4.57918e-06
4.6556e-08
2.7083e-06
-6.12198e-06
1.76691e-06
-6.1208e-08
-7.58121e-06
2.29369e-06
4.06609e-06
-8.20113e-06
-7.73401e-07
8.39614e-06
-8.78634e-06
2.62847e-06
-1.16768e-06
6.07027e-06
3.82545e-06
-5.59494e-06
4.2465e-06
2.32444e-06
-2.99886e-06
2.18869e-06
2.63114e-06
-2.43441e-06
-2.60056e-07
3.22404e-06
-2.91873e-06
-2.8743e-06
1.7765e-06
-3.9059e-06
-3.42316e-08
-1.16879e-06
-6.52502e-06
4.14626e-06
-6.07708e-06
-6.04547e-06
5.17153e-06
-2.06375e-06
-3.42545e-06
7.18051e-07
8.42527e-06
-5.47109e-06
8.64354e-06
-2.92645e-06
6.769e-06
3.90322e-06
-2.27873e-06
4.48479e-06
3.94474e-06
-1.85287e-07
1.33947e-06
5.23128e-06
7.38641e-07
-1.46973e-06
5.71723e-06
-1.54968e-07
-2.13944e-06
1.658e-06
-2.69459e-06
2.88048e-06
-7.1938e-06
-5.53025e-06
6.92044e-06
-1.06594e-05
-6.06076e-06
7.31613e-06
-4.84385e-06
-1.27342e-06
1.32647e-06
8.9748e-06
-8.07808e-08
1.31941e-05
-1.61949e-06
6.6249e-06
5.07348e-06
2.26334e-06
3.4267e-06
6.87165e-06
4.10481e-06
-8.19315e-07
8.29766e-06
4.19129e-06
-3.04371e-06
6.97445e-06
1.84399e-06
-1.28252e-06
-1.81071e-07
-2.409e-06
3.38068e-06
-1.26035e-05
-5.72148e-06
6.3293e-06
-1.35323e-05
-7.08244e-06
6.08602e-06
-4.63112e-06
-2.46583e-06
3.36357e-07
1.03031e-05
3.37643e-06
1.48889e-05
1.49648e-07
3.78231e-06
7.58974e-06
7.27844e-06
5.12499e-07
9.70099e-06
8.40873e-06
-2.85849e-06
9.9745e-06
6.51533e-06
-3.3956e-06
6.52368e-06
2.6684e-06
-8.8702e-07
-2.49803e-06
-3.10632e-06
8.20311e-07
-1.52782e-05
-6.77093e-06
1.87525e-06
-1.40246e-05
-8.47675e-06
1.05931e-06
-2.58009e-06
-4.74287e-06
-2.21251e-06
1.18135e-05
2.83017e-06
1.36965e-05
9.94109e-07
4.02165e-07
9.11477e-06
1.03146e-05
-1.08712e-06
1.06624e-05
1.10243e-05
-2.68276e-06
1.01796e-05
8.46039e-06
-2.29128e-06
5.51426e-06
3.63569e-06
-1.20015e-06
-3.99722e-06
-3.57083e-06
-2.56259e-06
-1.5314e-05
-7.3365e-06
-3.18243e-06
-1.3039e-05
-9.42215e-06
-4.04453e-06
-4.83931e-07
-7.31281e-06
-3.79796e-06
1.28783e-05
-6.72461e-07
1.18141e-05
1.73472e-07
-7.59957e-07
8.73463e-06
1.01068e-05
-6.82286e-08
9.51788e-06
1.10159e-05
-4.23801e-07
9.58169e-06
9.96202e-06
-9.68929e-07
5.58074e-06
5.18999e-06
-2.50645e-06
-3.55976e-06
-3.57729e-06
-5.3046e-06
-1.41654e-05
-7.57026e-06
-6.51328e-06
-1.19853e-05
-1.01673e-05
-6.83856e-06
-6.71123e-07
-8.5837e-06
-4.37409e-06
1.25416e-05
-4.36375e-06
1.01258e-05
-1.53661e-06
1.91141e-06
7.04192e-06
8.10317e-06
2.57647e-06
7.76128e-06
9.0683e-06
2.65697e-06
8.58713e-06
9.87574e-06
3.90676e-08
6.9741e-06
6.58799e-06
-3.47004e-06
-2.65558e-06
-2.92392e-06
-6.88851e-06
-1.24332e-05
-7.6052e-06
-7.99046e-06
-1.13333e-05
-1.11062e-05
-7.17563e-06
-3.01485e-06
-9.56142e-06
-3.82309e-06
9.26183e-06
-5.97412e-06
8.70546e-06
-2.98606e-06
6.02438e-06
5.89614e-06
5.29424e-06
5.63999e-06
7.41633e-06
6.64412e-06
4.27263e-06
9.08288e-06
8.25692e-06
2.20235e-07
7.11179e-06
8.83017e-06
-4.28024e-06
-2.03721e-06
-2.08786e-06
-7.55432e-06
-7.58124e-06
-1.08973e-05
-8.19085e-06
-1.23107e-05
-1.11477e-05
-6.1853e-06
-1.20284e-05
-5.92689e-06
-2.33809e-06
-7.51708e-06
4.25259e-06
-3.49504e-06
7.53407e-06
-1.18255e-08
8.32301e-08
5.66598e-07
-9.04986e-08
3.46575e-08
5.43082e-07
-1.39885e-07
7.46199e-09
5.10189e-07
-1.71392e-07
-8.23798e-09
4.88323e-07
-1.8804e-07