/*--------------------------------*- C++ -*----------------------------------*\
| =========                 |                                                 |
| \\      /  F ield         | OpenFOAM: The Open Source CFD Toolbox           |
|  \\    /   O peration     | Version:  2312                                  |
|   \\  /    A nd           | Website:  www.openfoam.com                      |
|    \\/     M anipulation  |                                                 |
\*---------------------------------------------------------------------------*/
FoamFile
{
    version     2.0;
    format      ascii;
    arch        "LSB;label=32;scalar=64";
    class       volScalarField;
    location    "1.015";
    object      p;
}
// * * * * * * * * * * * * * * * * * * * * * * * * * * * * * * * * * * * * * //

dimensions      [1 -1 -2 0 0 0 0];

internalField   nonuniform List<scalar> 
8000
(
366.573
367.285
368.442
369.947
371.671
373.489
375.22
376.588
377.558
378.246
317.685
318.424
319.65
321.25
323.067
325.018
327.005
328.168
329.34
330.245
269.023
269.755
271.131
272.959
275
277.224
279.033
280.764
282.592
283.445
220.494
221.465
223.116
225.21
227.604
230.173
232.263
234.624
236.602
237.576
172.277
173.33
175.513
178.077
181.052
184.253
186.923
189.008
191.316
192.931
124.737
125.906
128.348
131.749
135.61
139.626
143.287
145.866
148.746
150.54
78.7793
80.2749
83.2623
87.3636
92.2871
97.13
101.844
105.46
108.551
110.88
36.2676
37.6895
40.6415
45.3153
51.5799
57.6723
63.0134
67.4508
71.0676
73.1779
7.66448
8.15204
10.019
14.7286
20.4037
27.0142
32.0755
35.507
38.2406
40.2117
-0.252408
-0.285217
-0.336638
0.457223
3.13575
7.43253
11.09
13.6738
17.1206
19.8396
-0.354559
-0.359331
-0.37626
-0.401816
-0.422037
-0.44833
-0.458092
-0.451831
-0.428423
-0.374381
-0.405472
-0.405579
-0.423354
-0.459141
-0.476675
-0.48346
-0.479431
-0.474839
-0.478735
-0.479326
-0.473798
-0.462266
-0.465208
-0.486522
-0.501466
-0.511122
-0.509217
-0.504534
-0.505516
-0.504724
-0.548066
-0.514572
-0.50489
-0.527227
-0.554054
-0.570164
-0.578177
-0.573485
-0.565669
-0.558524
-0.621193
-0.568151
-0.551427
-0.584505
-0.617653
-0.63774
-0.652077
-0.653694
-0.643122
-0.630771
-0.706789
-0.642121
-0.628577
-0.665134
-0.695222
-0.712468
-0.722123
-0.730055
-0.71996
-0.713022
-0.784563
-0.719373
-0.707849
-0.743623
-0.775386
-0.784976
-0.789419
-0.795798
-0.782015
-0.777945
-0.857683
-0.803639
-0.787276
-0.805735
-0.847149
-0.851726
-0.859263
-0.851029
-0.82547
-0.817306
-0.927631
-0.887935
-0.864451
-0.862443
-0.903466
-0.914983
-0.920289
-0.895283
-0.856614
-0.848454
-0.975101
-0.945511
-0.92282
-0.914847
-0.945271
-0.963185
-0.964691
-0.93057
-0.892063
-0.886061
365.864
366.61
367.803
369.337
371.088
372.912
374.632
376.009
376.82
377.478
316.858
317.648
318.913
320.549
322.418
324.373
326.221
327.484
328.352
329.23
267.852
268.73
270.178
272.044
274.154
276.287
278.124
279.605
280.954
282.089
219.085
220.082
221.763
223.958
226.404
228.811
230.633
232.835
235.041
236.391
170.328
171.524
173.795
176.506
179.426
182.63
184.822
187.517
190.103
191.196
121.449
123.056
125.812
129.372
133.348
137.479
141.172
144.556
147.39
148.308
74.8301
76.5998
79.7751
84.0165
88.7296
93.8537
98.9294
103.441
106.831
108.707
33.175
34.7341
37.848
42.5502
48.0391
53.4514
58.3485
64.3847
68.5217
71.9158
6.41044
7.02773
8.63937
12.0822
16.6925
22.4784
27.4803
32.0411
35.3565
38.6333
-0.263042
-0.274333
-0.315023
-0.072575
1.61891
4.68841
8.32981
11.0559
12.6029
13.5764
-0.366422
-0.3698
-0.393857
-0.443507
-0.460242
-0.441704
-0.4617
-0.488948
-0.490808
-0.492229
-0.434892
-0.425439
-0.432542
-0.46691
-0.489091
-0.495479
-0.498775
-0.508036
-0.513664
-0.511468
-0.529339
-0.495554
-0.478602
-0.492803
-0.509259
-0.519648
-0.528385
-0.533107
-0.533962
-0.529901
-0.612446
-0.566266
-0.532954
-0.542148
-0.562206
-0.586132
-0.608705
-0.612758
-0.601952
-0.5941
-0.702371
-0.646638
-0.604084
-0.610979
-0.639581
-0.664905
-0.686214
-0.68793
-0.669869
-0.656036
-0.796937
-0.735858
-0.694529
-0.700637
-0.726158
-0.747203
-0.759192
-0.761521
-0.740471
-0.731752
-0.872293
-0.819337
-0.78373
-0.787493
-0.81348
-0.819507
-0.824179
-0.823081
-0.802125
-0.796893
-0.922957
-0.883108
-0.860562
-0.860597
-0.89234
-0.891261
-0.897082
-0.871432
-0.842642
-0.829939
-0.959904
-0.932887
-0.919265
-0.914762
-0.950736
-0.969147
-0.965103
-0.911006
-0.866189
-0.851056
-0.997054
-0.975061
-0.959787
-0.947944
-0.97663
-1.01267
-1.00103
-0.941184
-0.89159
-0.882523
364.634
365.417
366.668
368.264
370.088
372.014
373.93
375.53
376.147
376.7
315.472
316.316
317.632
319.343
321.309
323.409
325.537
327.076
327.76
328.321
266.117
267.052
268.572
270.536
272.784
275.041
277.1
279.06
279.774
280.574
216.76
217.774
219.556
221.904
224.549
227.064
229.076
231.586
232.834
234.462
167.178
168.512
170.769
173.586
176.844
180.036
182.533
186.156
187.874
189.518
116.688
118.417
121.344
125.155
129.758
134.23
137.962
142.48
145.123
146.381
67.3728
69.6827
73.5261
78.492
83.8974
89.292
94.5156
100.219
104.014
106.051
24.7807
26.5286
29.654
34.4684
40.345
47.0434
53.9002
60.2598
65.3844
68.9674
2.96631
3.32041
4.07659
5.71936
8.79313
14.4389
21.4381
28.275
32.793
35.3537
-0.281997
-0.263248
-0.245404
-0.286328
-0.194409
1.25153
4.15257
8.01017
10.9423
11.6874
-0.364464
-0.361116
-0.361206
-0.388536
-0.45776
-0.497024
-0.480239
-0.488549
-0.514576
-0.510586
-0.440844
-0.423975
-0.414684
-0.425174
-0.45344
-0.496643
-0.518747
-0.53673
-0.544108
-0.530738
-0.529875
-0.497115
-0.477174
-0.479177
-0.496108
-0.518381
-0.543799
-0.562327
-0.563147
-0.554521
-0.621821
-0.581997
-0.545009
-0.5452
-0.561611
-0.59082
-0.629711
-0.652906
-0.637616
-0.619846
-0.730883
-0.685641
-0.635623
-0.628391
-0.64952
-0.68416
-0.723885
-0.732969
-0.702212
-0.681011
-0.840426
-0.791877
-0.738172
-0.725698
-0.743622
-0.78038
-0.809569
-0.79775
-0.758275
-0.741332
-0.910357
-0.8673
-0.83101
-0.814831
-0.824942
-0.858699
-0.874405
-0.848911
-0.805756
-0.79907
-0.957323
-0.931429
-0.912058
-0.899068
-0.916923
-0.935108
-0.926451
-0.881741
-0.839968
-0.832275
-0.989057
-0.975813
-0.963239
-0.957959
-0.983377
-0.994655
-0.96974
-0.901256
-0.856376
-0.847884
-1.01603
-1.00802
-0.991265
-0.974349
-1.00274
-1.02301
-0.988051
-0.90959
-0.868491
-0.869019
363.031
363.878
365.186
366.839
368.702
370.637
372.517
374.175
374.928
375.486
313.658
314.569
315.968
317.751
319.77
321.904
324.003
325.934
326.577
327.121
263.803
264.865
266.504
268.583
270.929
273.382
275.719
277.738
278.587
279.194
213.661
214.834
216.768
219.318
222.137
224.966
227.321
229.713
230.97
232.375
162.662
164.176
166.767
170.019
173.482
176.997
180.101
183.617
185.139
187.032
110.197
112.072
115.318
119.768
124.572
129.311
133.953
138.767
141.234
143.304
56.5222
59.5173
64.4035
70.7285
76.9523
83.098
88.7348
95.0568
99.2136
102.328
12.9211
14.8721
18.2334
23.6047
29.9816
37.298
44.7491
53.3048
59.8859
65.128
0.178424
0.273945
0.725279
1.25873
2.46908
5.3617
10.9951
20.3104
28.4578
34.578
-0.304806
-0.279778
-0.232767
-0.212275
-0.270499
-0.295169
0.346529
3.75266
8.46099
11.0719
-0.353463
-0.355178
-0.353984
-0.347011
-0.360386
-0.405974
-0.493245
-0.515719
-0.518141
-0.523646
-0.433003
-0.416078
-0.409807
-0.408065
-0.413332
-0.434054
-0.485284
-0.554667
-0.565256
-0.546612
-0.518405
-0.493022
-0.48013
-0.479747
-0.488766
-0.500645
-0.534877
-0.57863
-0.593061
-0.573867
-0.61645
-0.585338
-0.557408
-0.553808
-0.574629
-0.595363
-0.638976
-0.694371
-0.677471
-0.640071
-0.748612
-0.705357
-0.64949
-0.640078
-0.669119
-0.702793
-0.757025
-0.785399
-0.742943
-0.698746
-0.853271
-0.791181
-0.73809
-0.736497
-0.766239
-0.808265
-0.851592
-0.843183
-0.781964
-0.752247
-0.915702
-0.859244
-0.824708
-0.828129
-0.860124
-0.905307
-0.916112
-0.875515
-0.81637
-0.801312
-0.958539
-0.927831
-0.907925
-0.913802
-0.931784
-0.955541
-0.943644
-0.887226
-0.84494
-0.83218
-0.993596
-0.986659
-0.96644
-0.964761
-0.98236
-0.988698
-0.948046
-0.87759
-0.851713
-0.846739
-1.02956
-1.03355
-1.00041
-0.969461
-0.985328
-0.991467
-0.929111
-0.855927
-0.843634
-0.863068
361.284
362.194
363.54
365.255
367.141
369.069
370.852
372.567
373.457
374.019
311.692
312.673
314.168
315.998
318.043
320.155
322.028
324.123
324.968
325.546
261.449
262.561
264.282
266.471
268.867
271.356
273.75
275.815
276.893
277.592
210.471
211.8
213.817
216.646
219.528
222.553
225.306
227.54
229.184
230.318
158.231
159.893
162.81
166.227
169.952
173.738
177.194
180.318
182.65
184.223
103.937
106.12
109.641
114.453
119.429
124.593
129.505
134.034
137.161
139.596
46.3863
49.7916
55.5233
62.8519
70.1235
76.6076
82.6151
88.6453
93.2768
97.6392
5.27309
6.61946
9.04093
13.2834
19.6193
27.0029
35.3685
44.096
52.1055
59.5631
-0.134207
-0.102127
-0.0680494
-0.0123988
0.121488
1.03452
3.66451
9.82355
19.6112
29.742
-0.245224
-0.231387
-0.223296
-0.202464
-0.180505
-0.223754
-0.274623
0.00789758
3.46897
8.26714
-0.328774
-0.316092
-0.307877
-0.30323
-0.308712
-0.293486
-0.315484
-0.472926
-0.536898
-0.501481
-0.402915
-0.387624
-0.382855
-0.380755
-0.377062
-0.370181
-0.394523
-0.478021
-0.565792
-0.538086
-0.498888
-0.477916
-0.465139
-0.469276
-0.479969
-0.480396
-0.497507
-0.554717
-0.604339
-0.578649
-0.62812
-0.594618
-0.554067
-0.555835
-0.579252
-0.595099
-0.632472
-0.705396
-0.699754
-0.647164
-0.761656
-0.696893
-0.644022
-0.645169
-0.66112
-0.684671
-0.749244
-0.812243
-0.780057
-0.712873
-0.838988
-0.758294
-0.719675
-0.730717
-0.74531
-0.787477
-0.853558
-0.865836
-0.802758
-0.749027
-0.877813
-0.815438
-0.79261
-0.805544
-0.837888
-0.898421
-0.935982
-0.895265
-0.819246
-0.776206
-0.919207
-0.88306
-0.870122
-0.87263
-0.911637
-0.960331
-0.957027
-0.887836
-0.833645
-0.812524
-0.974347
-0.967625
-0.94657
-0.922136
-0.947361
-0.974261
-0.940262
-0.86839
-0.83254
-0.83516
-1.03697
-1.0514
-1.01513
-0.948061
-0.947947
-0.966933
-0.919081
-0.858536
-0.849454
-0.869326
359.581
360.556
361.972
363.707
365.605
367.522
369.264
370.993
371.951
372.5
309.824
310.874
312.426
314.309
316.368
318.457
320.378
322.2
323.278
323.885
259.248
260.445
262.26
264.486
266.883
269.334
271.573
273.708
274.978
275.687
207.704
209.153
211.34
214.162
217.11
220.073
222.751
225.313
227.013
228.076
154.619
156.375
159.267
162.862
166.681
170.529
174.059
177.296
179.563
181.193
99.6883
101.974
105.645
110.262
115.091
120.22
125.046
129.472
132.633
135.435
42.4813
45.8657
51.1722
57.9084
65.0212
71.0411
76.5953
82.3036
87.0697
91.8679
4.00547
5.04618
6.74986
9.4802
13.5339
18.9034
26.4247
34.8819
43.6739
52.7497
-0.109187
-0.102372
-0.105498
-0.0985432
-0.078904
-0.000723337
0.819635
3.29031
10.2236
22.3753
-0.242482
-0.230457
-0.215708
-0.197648
-0.153928
-0.131696
-0.188228
-0.286517
-0.0635708
3.44557
-0.316135
-0.296336
-0.282614
-0.267647
-0.255297
-0.247605
-0.249926
-0.328736
-0.489587
-0.453508
-0.395538
-0.375215
-0.360353
-0.354673
-0.349726
-0.340229
-0.346115
-0.391352
-0.500218
-0.508849
-0.521858
-0.483614
-0.452534
-0.454086
-0.471779
-0.469913
-0.461284
-0.498213
-0.554382
-0.556101
-0.656505
-0.600548
-0.554341
-0.555347
-0.577511
-0.583042
-0.593525
-0.644347
-0.663856
-0.638809
-0.738969
-0.679075
-0.647544
-0.650132
-0.65542
-0.662764
-0.693825
-0.741333
-0.766993
-0.717307
-0.785525
-0.734711
-0.721312
-0.731072
-0.735237
-0.753494
-0.789014
-0.802872
-0.801216
-0.74669
-0.817186
-0.783956
-0.788206
-0.803003
-0.821678
-0.857297
-0.882945
-0.850885
-0.805374
-0.758369
-0.873355
-0.85355
-0.864053
-0.867381
-0.898999
-0.940873
-0.944764
-0.883684
-0.827626
-0.794684
-0.956254
-0.96071
-0.949854
-0.92739
-0.949537
-0.981922
-0.963529
-0.901647
-0.866344
-0.849685
-1.04797
-1.06985
-1.0413
-0.98424
-0.975906
-0.996246
-0.969609
-0.926477
-0.927738
-0.914705
358.085
359.116
360.589
362.343
364.244
366.157
367.923
369.47
370.517
371.089
308.225
309.35
310.944
312.844
314.896
316.961
318.882
320.559
321.704
322.345
257.456
258.739
260.594
262.831
265.197
267.591
269.826
271.791
273.13
273.893
205.551
207.08
209.295
212.19
215.063
217.971
220.677
223.087
224.817
225.892
152.018
153.918
156.821
160.453
164.153
167.868
171.365
174.46
176.677
178.335
96.9818
99.2201
103.022
107.647
112.425
117.055
121.385
125.533
128.495
131.414
39.4274
42.3523
47.0315
53.0947
59.8483
66.6784
71.9015
77.0557
81.828
86.6471
4.0007
4.82441
6.41358
8.92875
12.2056
15.5525
19.6499
27.1725
36.4765
46.2371
-0.137338
-0.138814
-0.13037
-0.116358
-0.079804
-0.0497185
0.0369499
1.21705
4.87902
14.6815
-0.239355
-0.227882
-0.21471
-0.195886
-0.167014
-0.141035
-0.176072
-0.227548
-0.364441
0.317064
-0.32559
-0.301266
-0.278316
-0.258018
-0.240821
-0.242492
-0.276757
-0.31884
-0.394995
-0.424753
-0.434686
-0.395424
-0.354401
-0.340016
-0.338524
-0.332192
-0.339905
-0.364522
-0.433943
-0.468834
-0.558279
-0.504101
-0.454066
-0.447286
-0.467153
-0.464552
-0.444326
-0.449799
-0.481902
-0.519549
-0.63533
-0.587411
-0.563035
-0.565145
-0.583394
-0.58572
-0.574999
-0.573624
-0.596182
-0.620331
-0.682732
-0.660975
-0.658772
-0.667511
-0.67098
-0.6691
-0.670217
-0.67719
-0.734062
-0.708533
-0.727851
-0.723904
-0.730937
-0.742561
-0.743184
-0.746508
-0.754242
-0.761418
-0.789939
-0.738127
-0.777875
-0.776704
-0.793803
-0.804438
-0.818199
-0.830331
-0.83255
-0.820282
-0.803518
-0.758108
-0.848146
-0.84886
-0.864111
-0.872233
-0.893859
-0.911244
-0.907216
-0.878109
-0.847549
-0.806485
-0.941134
-0.947268
-0.952166
-0.944884
-0.955153
-0.970144
-0.966245
-0.936558
-0.922054
-0.879932
-1.04626
-1.0612
-1.05032
-1.01679
-1.00669
-1.01329
-1.0086
-0.982475
-0.982427
-0.950971
356.928
358.019
359.516
361.274
363.165
365.061
366.815
368.31
369.366
369.942
307.006
308.178
309.811
311.722
313.754
315.781
317.673
319.292
320.446
321.091
256.104
257.458
259.38
261.62
263.934
266.247
268.418
270.308
271.635
272.435
204.034
205.628
207.974
210.782
213.615
216.378
218.972
221.303
222.999
224.054
150.399
152.273
155.251
158.908
162.479
165.983
169.316
172.266
174.265
175.978
95.1219
97.3361
101.173
105.804
110.418
114.834
118.692
122.544
125.287
128.11
38.2222
40.6563
44.8451
50.4804
56.7257
63.0339
68.8111
73.3371
77.968
82.6669
4.22487
4.87493
6.32948
8.87854
12.1096
14.6374
15.9123
21.5105
31.4033
40.8751
-0.159269
-0.136053
-0.122046
-0.110868
-0.0937193
-0.0702402
-0.0224706
0.250535
2.89497
9.11811
-0.247728
-0.223785
-0.20368
-0.186916
-0.171893
-0.167254
-0.191293
-0.240928
-0.308378
-0.332338
-0.353307
-0.320256
-0.281436
-0.253566
-0.240135
-0.244017
-0.284149
-0.336457
-0.367207
-0.395437
-0.465927
-0.423772
-0.368027
-0.3373
-0.330404
-0.316413
-0.323718
-0.344068
-0.385521
-0.438274
-0.538521
-0.495367
-0.460901
-0.44604
-0.451225
-0.437376
-0.42576
-0.422341
-0.444873
-0.491707
-0.581361
-0.561171
-0.559903
-0.562777
-0.567362
-0.566848
-0.56313
-0.544658
-0.567449
-0.601506
-0.630367
-0.640893
-0.654355
-0.664052
-0.667903
-0.664856
-0.663893
-0.659651
-0.719461
-0.697579
-0.697737
-0.718029
-0.727743
-0.743669
-0.750183
-0.749217
-0.748091
-0.752623
-0.782891
-0.731971
-0.77083
-0.775825
-0.791254
-0.812311
-0.82493
-0.830436
-0.827695
-0.829535
-0.808738
-0.761257
-0.838258
-0.841634
-0.859108
-0.876622
-0.895019
-0.900754
-0.899258
-0.899053
-0.873287
-0.827093
-0.919559
-0.924008
-0.935231
-0.93914
-0.952384
-0.959192
-0.962011
-0.956338
-0.945221
-0.908719
-1.01979
-1.02201
-1.01929
-1.00712
-1.00626
-1.01102
-1.01636
-1.00562
-0.999324
-0.970404
356.177
357.282
358.784
360.544
362.426
364.318
366.057
367.536
368.582
369.163
306.207
307.407
309.041
310.946
312.974
314.967
316.842
318.448
319.589
320.24
255.239
256.642
258.568
260.731
262.953
265.256
267.435
269.308
270.61
271.447
203.13
204.791
207.146
209.814
212.446
215.117
217.761
220.111
221.721
222.802
149.554
151.394
154.331
157.878
161.234
164.558
167.838
170.796
172.661
174.468
94.4905
96.4691
100.198
104.751
109.167
113.35
116.847
120.597
123.315
126.044
38.8912
40.7842
44.4864
49.8718
55.8235
61.3581
67.1167
71.1654
75.6857
80.265
4.98657
5.49427
6.75919
9.23745
12.5842
14.8789
14.9633
18.1576
28.019
37.4138
-0.177331
-0.135812
-0.102458
-0.0909497
-0.0902189
-0.0922038
-0.0791984
0.0758644
2.00903
6.26634
-0.261313
-0.229006
-0.195067
-0.17185
-0.170486
-0.185659
-0.221489
-0.27392
-0.338721
-0.353522
-0.360897
-0.339661
-0.302491
-0.256662
-0.241862
-0.247501
-0.276219
-0.318876
-0.357488
-0.372359
-0.446597
-0.432897
-0.39797
-0.346086
-0.327811
-0.316392
-0.311329
-0.321975
-0.362776
-0.414982
-0.504957
-0.486554
-0.472016
-0.449062
-0.442776
-0.435713
-0.41933
-0.402115
-0.423416
-0.470143
-0.550715
-0.546822
-0.5491
-0.552316
-0.552692
-0.558709
-0.558312
-0.524084
-0.547202
-0.586373
-0.615687
-0.630509
-0.641556
-0.647888
-0.652791
-0.653807
-0.659397
-0.647305
-0.712756
-0.692627
-0.696218
-0.71473
-0.720886
-0.732213
-0.739956
-0.741909
-0.739251
-0.750625
-0.786696
-0.732969
-0.765728
-0.775164
-0.784275
-0.802469
-0.819686
-0.824347
-0.814082
-0.828257
-0.813227
-0.758658
-0.833005
-0.83721
-0.850828
-0.867851
-0.893202
-0.89993
-0.887065
-0.899998
-0.880412
-0.833135
-0.904961
-0.910743
-0.924041
-0.934205
-0.954511
-0.964632
-0.960833
-0.960029
-0.952481
-0.922045
-0.992755
-0.995163
-1.00317
-1.00208
-1.00662
-1.01968
-1.02495
-1.01649
-1.01322
-0.987278
355.821
356.954
358.482
360.252
362.141
364.018
365.739
367.206
368.239
368.823
305.922
307.096
308.741
310.642
312.674
314.671
316.493
318.085
319.213
319.868
254.93
256.32
258.267
260.419
262.701
264.98
267.063
268.892
270.164
271.024
202.976
204.533
206.953
209.465
212.128
214.862
217.421
219.64
221.184
222.301
149.776
151.565
154.279
157.494
160.874
164.344
167.43
170.164
172.001
173.918
95.4062
97.0283
100.328
104.484
108.877
113.177
116.592
119.831
122.629
125.384
40.6679
42.2816
45.5859
50.5872
56.3308
61.4197
66.008
70.0938
74.7278
79.4712
6.04017
6.49477
7.69554
10.0937
13.426
15.834
15.4004
16.4773
26.1627
36.123
-0.197618
-0.157128
-0.105886
-0.0715845
-0.0735103
-0.100991
-0.124623
-0.0842307
1.2414
5.29006
-0.277745
-0.253755
-0.212363
-0.169817
-0.160458
-0.184018
-0.230951
-0.271812
-0.289515
-0.269312
-0.370032
-0.369297
-0.349584
-0.293758
-0.250424
-0.242425
-0.255316
-0.269876
-0.299735
-0.333857
-0.447066
-0.450426
-0.447376
-0.401926
-0.350718
-0.320984
-0.293402
-0.291281
-0.340433
-0.395567
-0.501518
-0.498278
-0.500525
-0.487562
-0.469764
-0.450347
-0.415192
-0.382451
-0.407227
-0.454957
-0.555021
-0.55301
-0.554427
-0.564526
-0.569056
-0.568468
-0.560669
-0.517444
-0.529407
-0.575874
-0.626587
-0.628028
-0.632959
-0.645216
-0.658253
-0.665944
-0.659406
-0.627369
-0.68879
-0.696043
-0.706766
-0.709261
-0.712241
-0.727397
-0.744118
-0.754458
-0.738157
-0.720438
-0.78691
-0.74405
-0.769869
-0.775229
-0.786148
-0.804262
-0.825834
-0.836545
-0.816077
-0.808442
-0.824803
-0.778179
-0.827621
-0.837009
-0.857692
-0.878241
-0.905678
-0.912887
-0.896491
-0.889588
-0.887635
-0.840618
-0.893938
-0.909681
-0.932953
-0.955131
-0.978641
-0.981691
-0.973128
-0.960121
-0.960087
-0.929705
-0.975346
-0.991997
-1.0132
-1.02993
-1.04079
-1.04346
-1.03883
-1.01928
-1.01897
-1.00353
355.986
357.093
358.606
360.38
362.275
364.154
365.873
367.332
368.357
368.941
306.188
307.238
308.87
310.781
312.803
314.815
316.636
318.221
319.343
320
255.319
256.482
258.367
260.552
262.878
265.188
267.237
269.042
270.312
271.188
203.245
204.766
207.046
209.659
212.448
215.236
217.684
219.849
221.395
222.503
150.12
152.027
154.722
157.937
161.323
164.675
167.805
170.486
172.356
174.097
96.0625
98.0665
101.27
105.16
109.357
113.442
116.873
120.253
123.097
125.845
41.0389
43.2477
46.8032
51.6212
56.9011
61.7473
66.2148
70.6893
75.4168
80.2691
6.30034
7.06004
8.53859
11.0188
14.0522
16.0461
15.5179
17.2053
26.8676
37.1436
-0.218883
-0.188114
-0.135883
-0.0854089
-0.0705717
-0.102656
-0.148351
-0.134035
1.23677
5.91203
-0.303165
-0.285503
-0.247004
-0.199454
-0.171698
-0.18642
-0.230581
-0.23321
-0.185746
-0.203961
-0.394189
-0.399648
-0.394233
-0.358959
-0.298807
-0.262143
-0.253845
-0.24303
-0.254245
-0.318318
-0.460528
-0.479655
-0.494263
-0.483141
-0.424908
-0.355466
-0.305746
-0.286541
-0.334224
-0.393351
-0.51215
-0.524754
-0.53797
-0.548917
-0.530388
-0.488345
-0.434232
-0.391511
-0.408084
-0.458337
-0.566383
-0.570533
-0.578681
-0.595866
-0.605569
-0.594704
-0.580461
-0.536396
-0.527175
-0.57606
-0.638874
-0.639435
-0.64113
-0.659103
-0.680517
-0.685802
-0.675881
-0.648785
-0.672276
-0.70354
-0.715635
-0.71536
-0.716485
-0.738649
-0.769113
-0.773477
-0.75529
-0.721567
-0.777223
-0.767897
-0.776855
-0.779425
-0.787338
-0.823473
-0.853604
-0.858304
-0.826673
-0.795453
-0.835827
-0.802091
-0.827275
-0.837815
-0.865598
-0.914449
-0.934519
-0.933715
-0.910554
-0.879163
-0.895706
-0.863735
-0.887078
-0.908617
-0.949614
-1.00124
-1.01397
-1.00664
-0.99251
-0.970389
-0.97386
-0.943148
-0.965266
-0.992246
-1.03556
-1.07673
-1.08168
-1.07338
-1.06279
-1.03983
-1.03661
-1.02424
356.595
357.683
359.181
360.939
362.83
364.712
366.427
367.887
368.921
369.502
306.638
307.822
309.452
311.368
313.391
315.392
317.244
318.825
319.958
320.614
255.725
257.061
258.93
261.157
263.476
265.75
267.884
269.73
271.029
271.9
203.715
205.272
207.446
210.184
213.096
215.759
218.35
220.615
222.231
223.386
150.643
152.53
155.031
158.386
162.048
165.447
168.524
171.445
173.437
175.1
96.1128
98.5416
101.539
105.546
110.109
114.434
117.986
121.422
124.532
127.232
39.8457
42.9519
46.6787
51.419
57.0513
62.4815
67.5332
72.3858
77.2641
82.0233
5.5231
6.76558
8.41917
10.7434
13.5918
15.6158
15.6643
19.282
29.7004
39.6207
-0.226122
-0.205711
-0.161023
-0.11363
-0.0937838
-0.118731
-0.167626
-0.119716
2.12076
8.01973
-0.315544
-0.302732
-0.271285
-0.234681
-0.210221
-0.225186
-0.275328
-0.299508
-0.30448
-0.211712
-0.405876
-0.413971
-0.41313
-0.40076
-0.365665
-0.331913
-0.31509
-0.30552
-0.345095
-0.362452
-0.471975
-0.497291
-0.522913
-0.540049
-0.520117
-0.461084
-0.388426
-0.344543
-0.407528
-0.440284
-0.52094
-0.548324
-0.577607
-0.607468
-0.622134
-0.590085
-0.523586
-0.460281
-0.470164
-0.504613
-0.573412
-0.587607
-0.602684
-0.635645
-0.672214
-0.675347
-0.649231
-0.602627
-0.573746
-0.598598
-0.638964
-0.647674
-0.648041
-0.670447
-0.714566
-0.74149
-0.735385
-0.703312
-0.697382
-0.712442
-0.709589
-0.720911
-0.726283
-0.740104
-0.771884
-0.805164
-0.80246
-0.775213
-0.795561
-0.78845
-0.776635
-0.785579
-0.800235
-0.822528
-0.845661
-0.871772
-0.872366
-0.844244
-0.863905
-0.835018
-0.83331
-0.841301
-0.873882
-0.922578
-0.942902
-0.950447
-0.947534
-0.925503
-0.927477
-0.892511
-0.891028
-0.911537
-0.966346
-1.02892
-1.04751
-1.03768
-1.02709
-1.00807
-0.995211
-0.966858
-0.967452
-1.00279
-1.07479
-1.12913
-1.12968
-1.11238
-1.09574
-1.07238
-1.05913
-1.03661
357.572
358.673
360.187
361.921
363.797
365.671
367.393
368.849
369.889
370.461
307.719
308.874
310.507
312.4
314.419
316.434
318.295
319.872
321.015
321.662
256.922
258.203
260.11
262.345
264.692
266.997
269.14
270.959
272.293
273.105
205.147
206.451
208.71
211.613
214.445
217.25
219.851
222.117
223.827
224.957
152.068
153.588
155.969
159.896
163.468
167.038
170.32
173.308
175.519
177.029
97.1898
99.3671
102.296
106.828
111.626
116.163
120.12
124.062
127.172
129.689
39.5768
42.8556
46.4917
51.7138
58.0836
64.317
70.3478
75.3233
80.3132
84.9804
4.88201
6.17815
7.62111
9.78999
12.8162
15.5351
17.3337
23.5408
34.03
43.4016
-0.214163
-0.199616
-0.161155
-0.122374
-0.107459
-0.125444
-0.116439
0.295729
3.89648
11.5627
-0.313228
-0.304155
-0.275881
-0.247994
-0.239841
-0.270707
-0.336661
-0.415716
-0.478798
-0.1247
-0.407467
-0.411797
-0.403998
-0.397103
-0.390579
-0.392858
-0.403187
-0.421154
-0.451847
-0.428084
-0.475392
-0.492855
-0.508554
-0.526556
-0.536255
-0.51736
-0.465958
-0.44295
-0.510249
-0.51424
-0.524516
-0.549011
-0.574728
-0.608697
-0.638843
-0.638315
-0.586034
-0.530164
-0.559359
-0.569293
-0.575581
-0.595766
-0.616106
-0.648004
-0.695256
-0.719529
-0.696845
-0.652303
-0.630246
-0.632323
-0.638342
-0.650687
-0.659497
-0.674171
-0.722087
-0.773469
-0.779036
-0.748623
-0.728479
-0.71477
-0.706824
-0.714276
-0.720363
-0.719699
-0.75045
-0.808347
-0.838865
-0.819302
-0.814115
-0.788225
-0.778639
-0.783568
-0.794993
-0.799633
-0.808775
-0.849794
-0.884716
-0.878182
-0.877128
-0.847031
-0.843367
-0.846837
-0.875096
-0.911401
-0.926235
-0.929046
-0.941892
-0.936447
-0.940262
-0.906529
-0.905137
-0.923847
-0.970934
-1.02581
-1.04833
-1.03285
-1.01394
-1.00554
-1.002
-0.971173
-0.980511
-1.02135
-1.09445
-1.14769
-1.14466
-1.11751
-1.0828
-1.06923
-1.06284
-1.0377
358.96
359.982
361.424
363.168
365.044
366.929
368.663
370.134
371.176
371.74
309.192
310.287
311.864
313.732
315.752
317.782
319.665
321.266
322.412
323.05
258.593
259.83
261.654
263.837
266.168
268.514
270.7
272.572
273.929
274.705
207.048
208.387
210.597
213.33
216.183
219.054
221.752
224.056
225.803
226.896
154.439
155.713
158.408
161.956
165.532
169.154
172.624
175.667
178.023
179.657
99.7677
101.766
104.994
109.485
114.141
118.622
122.794
127.073
130.629
133.135
41.6373
44.7585
48.8643
54.7346
61.4977
68.0327
73.781
79.1676
84.4942
89.0487
5.15932
6.15614
7.35468
9.51032
12.8558
16.7562
20.9696
29.3341
39.5996
48.4836
-0.196051
-0.181674
-0.138394
-0.0922907
-0.0652013
-0.0422705
0.256559
1.35949
7.04463
17.1384
-0.309786
-0.304066
-0.274785
-0.245865
-0.241601
-0.275277
-0.317033
-0.413141
-0.32301
0.845782
-0.408009
-0.410886
-0.395041
-0.380084
-0.38636
-0.413919
-0.449795
-0.476829
-0.491832
-0.491064
-0.477116
-0.484742
-0.485526
-0.487523
-0.502262
-0.513105
-0.510751
-0.514046
-0.577515
-0.574551
-0.529103
-0.545619
-0.55757
-0.566777
-0.586616
-0.600653
-0.586817
-0.569164
-0.610507
-0.611131
-0.584424
-0.600511
-0.614513
-0.626751
-0.646644
-0.669089
-0.667846
-0.647249
-0.652728
-0.65042
-0.649004
-0.656837
-0.667291
-0.677564
-0.700442
-0.727639
-0.737175
-0.726499
-0.718894
-0.704582
-0.721147
-0.714624
-0.723129
-0.731504
-0.754995
-0.784418
-0.798812
-0.792851
-0.789636
-0.766904
-0.79182
-0.779165
-0.787499
-0.798696
-0.819907
-0.847042
-0.861316
-0.855941
-0.853976
-0.830894
-0.859747
-0.851096
-0.862488
-0.882561
-0.89523
-0.914693
-0.922879
-0.918146
-0.915814
-0.894972
-0.923062
-0.931427
-0.95876
-0.986506
-0.989274
-0.988588
-0.987101
-0.980742
-0.97949
-0.957493
-0.994687
-1.03366
-1.08717
-1.10745
-1.08998
-1.06156
-1.04907
-1.03978
-1.03903
-1.0169
360.583
361.55
362.949
364.651
366.514
368.403
370.157
371.654
372.68
373.258
310.937
311.973
313.49
315.324
317.334
319.381
321.285
322.928
324.044
324.677
260.586
261.788
263.54
265.664
267.984
270.359
272.588
274.517
275.827
276.585
209.379
210.854
212.952
215.558
218.392
221.302
224.013
226.32
228.043
229.122
157.398
158.981
161.489
164.762
168.29
171.995
175.454
178.479
180.896
182.505
103.702
105.675
108.758
112.881
117.364
121.924
126.468
130.813
134.421
136.929
46.6169
49.7447
54.6248
60.9189
67.5509
73.4562
78.6534
84.1601
89.5975
93.8525
6.2276
7.03207
8.3035
10.852
14.6561
20.2107
27.7228
37.012
46.7491
54.7037
-0.157171
-0.135027
-0.0934704
-0.0325311
0.047812
0.245848
1.3293
4.22799
13.4664
24.105
-0.29895
-0.301627
-0.281807
-0.252019
-0.230992
-0.238373
-0.187896
-0.288507
0.789601
4.42711
-0.405095
-0.411246
-0.401119
-0.38202
-0.37877
-0.409385
-0.450448
-0.524467
-0.574632
-0.545398
-0.475177
-0.481669
-0.477368
-0.471258
-0.481599
-0.512218
-0.554289
-0.586621
-0.625866
-0.609097
-0.537417
-0.548128
-0.553123
-0.540889
-0.543293
-0.569597
-0.588313
-0.591157
-0.624456
-0.624924
-0.601326
-0.610858
-0.623206
-0.622517
-0.612541
-0.623435
-0.637166
-0.634122
-0.651409
-0.652321
-0.668323
-0.667548
-0.681137
-0.692515
-0.690114
-0.688277
-0.696729
-0.695184
-0.69853
-0.690726
-0.744881
-0.730592
-0.738416
-0.753233
-0.765092
-0.761642
-0.761075
-0.756896
-0.755708
-0.743148
-0.816818
-0.797537
-0.799221
-0.810759
-0.827849
-0.834252
-0.829267
-0.820864
-0.818516
-0.805824
-0.886296
-0.870262
-0.872421
-0.880768
-0.88782
-0.898124
-0.895219
-0.884422
-0.883375
-0.873139
-0.941798
-0.945752
-0.955804
-0.965348
-0.963251
-0.961443
-0.95648
-0.945495
-0.948967
-0.938369
-1.00025
-1.03656
-1.0561
-1.05601
-1.04572
-1.02934
-1.01613
-1.00468
-1.01157
-0.997831
362.303
363.218
364.564
366.229
368.078
369.973
371.749
373.279
374.252
374.828
312.799
313.789
315.243
317.036
319.037
321.104
323.057
324.773
325.765
326.4
262.809
263.927
265.599
267.665
269.976
272.38
274.701
276.685
277.803
278.593
212.253
213.55
215.563
218.051
220.824
223.772
226.509
228.582
230.279
231.511
161.061
162.848
165.173
168.27
171.712
175.346
178.726
181.395
183.74
185.585
108.393
110.081
112.828
116.868
121.299
126.326
130.941
135.018
138.575
140.804
54.4461
57.5869
62.2964
67.4599
73.2334
79.0394
84.6045
89.9255
95.28
98.7895
8.36389
9.32285
12.0637
16.6697
21.9533
28.8921
37.1036
46.4421
54.8363
61.0975
-0.142031
-0.149573
-0.0524315
0.149348
0.437497
1.80035
4.36767
12.069
23.4143
31.5066
-0.285746
-0.309037
-0.317838
-0.301781
-0.270524
-0.175477
-0.0431065
0.379037
5.43648
9.88857
-0.387593
-0.401028
-0.405337
-0.399346
-0.390857
-0.396577
-0.45495
-0.616025
-0.61455
-0.592413
-0.46591
-0.473366
-0.476579
-0.476552
-0.486266
-0.519703
-0.573595
-0.658964
-0.655361
-0.622677
-0.541487
-0.544516
-0.549703
-0.543636
-0.538132
-0.569162
-0.604217
-0.625046
-0.621713
-0.625223
-0.615072
-0.613046
-0.62214
-0.624946
-0.607496
-0.606947
-0.63307
-0.634697
-0.648065
-0.649643
-0.690221
-0.676889
-0.682157
-0.695689
-0.692533
-0.676025
-0.6787
-0.681992
-0.689516
-0.681664
-0.773143
-0.750026
-0.747718
-0.760994
-0.769358
-0.758385
-0.742577
-0.73794
-0.735688
-0.727115
-0.857835
-0.825033
-0.812139
-0.818823
-0.834474
-0.833523
-0.815824
-0.801292
-0.79572
-0.78562
-0.929656
-0.898128
-0.880875
-0.875142
-0.886169
-0.897211
-0.886406
-0.868071
-0.862525
-0.852842
-0.976247
-0.966082
-0.954289
-0.945431
-0.946651
-0.956857
-0.950062
-0.931833
-0.928409
-0.92068
-1.02317
-1.04278
-1.0402
-1.03213
-1.02463
-1.02048
-1.01189
-0.991788
-0.992587
-0.982908
363.99
364.843
366.133
367.758
369.588
371.478
373.243
374.831
375.729
376.298
314.662
315.572
316.96
318.71
320.693
322.768
324.749
326.514
327.385
327.992
265.024
266.055
267.65
269.661
271.939
274.377
276.77
278.573
279.585
280.275
215.054
216.213
218.15
220.537
223.268
226.121