/*--------------------------------*- C++ -*----------------------------------*\
| =========                 |                                                 |
| \\      /  F ield         | OpenFOAM: The Open Source CFD Toolbox           |
|  \\    /   O peration     | Version:  2312                                  |
|   \\  /    A nd           | Website:  www.openfoam.com                      |
|    \\/     M anipulation  |                                                 |
\*---------------------------------------------------------------------------*/
FoamFile
{
    version     2.0;
    format      ascii;
    arch        "LSB;label=32;scalar=64";
    class       surfaceScalarField;
    location    "0.14";
    object      alphaPhi0.water;
}
// * * * * * * * * * * * * * * * * * * * * * * * * * * * * * * * * * * * * * //

dimensions      [0 3 -1 0 0 0 0];

oriented        oriented;

internalField   nonuniform List<scalar> 
22600
(
1.75609e-07
2.82628e-07
-4.43837e-07
3.13205e-07
2.82445e-07
-4.20041e-07
4.10916e-07
2.8147e-07
-3.79181e-07
4.60863e-07
2.78933e-07
-3.2888e-07
4.62806e-07
2.74584e-07
-2.76528e-07
4.21877e-07
2.68805e-07
-2.27876e-07
3.46119e-07
2.62423e-07
-1.86665e-07
2.44611e-07
2.56449e-07
-1.54941e-07
1.26365e-07
2.51847e-07
-1.33601e-07
2.49199e-07
-1.22833e-07
1.77172e-07
5.80683e-07
-4.60832e-07
3.15387e-07
5.79069e-07
-4.34839e-07
4.12562e-07
5.74913e-07
-3.90618e-07
4.61214e-07
5.6706e-07
-3.36779e-07
4.61711e-07
5.55416e-07
-2.8133e-07
4.197e-07
5.41083e-07
-2.30266e-07
3.43539e-07
5.25946e-07
-1.87361e-07
2.42373e-07
5.12178e-07
-1.54563e-07
1.25068e-07
5.01771e-07
-1.32619e-07
4.9585e-07
-1.21584e-07
1.7464e-07
8.99111e-07
-4.79151e-07
3.09688e-07
8.93523e-07
-4.49502e-07
4.02775e-07
8.81786e-07
-3.9996e-07
4.47466e-07
8.63243e-07
-3.40874e-07
4.45306e-07
8.3885e-07
-2.81274e-07
4.02733e-07
8.11049e-07
-2.27394e-07
3.28317e-07
7.8317e-07
-1.82808e-07
2.30953e-07
7.58691e-07
-1.49149e-07
1.18966e-07
7.40594e-07
-1.26836e-07
7.30502e-07
-1.15685e-07
1.68909e-07
1.23926e-06
-4.95899e-07
2.97833e-07
1.22622e-06
-4.61619e-07
3.84199e-07
1.20102e-06
-4.05599e-07
4.23104e-07
1.1648e-06
-3.4046e-07
4.17597e-07
1.12073e-06
-2.76376e-07
3.74979e-07
1.07347e-06
-2.19802e-07
3.03942e-07
1.02814e-06
-1.73934e-07
2.12915e-07
9.89553e-07
-1.39835e-07
1.09398e-07
9.61606e-07
-1.17494e-07
9.46315e-07
-1.06415e-07
1.55774e-07
1.58816e-06
-4.9278e-07
2.72627e-07
1.56375e-06
-4.54381e-07
3.4813e-07
1.51882e-06
-3.93307e-07
3.79322e-07
1.45796e-06
-3.24356e-07
3.7065e-07
1.38783e-06
-2.58425e-07
3.29923e-07
1.31588e-06
-2.01684e-07
2.65544e-07
1.24924e-06
-1.56716e-07
1.8507e-07
1.19393e-06
-1.239e-07
9.47964e-08
1.15455e-06
-1.02675e-07
1.13335e-06
-9.22421e-08
1.31409e-07
1.91411e-06
-4.47437e-07
2.27863e-07
1.87563e-06
-4.08333e-07
2.87523e-07
1.80695e-06
-3.47783e-07
3.09441e-07
1.71747e-06
-2.81429e-07
2.98889e-07
1.61814e-06
-2.19759e-07
2.63378e-07
1.51945e-06
-1.68062e-07
2.10259e-07
1.4304e-06
-1.28046e-07
1.4567e-07
1.35796e-06
-9.94473e-08
7.43338e-08
1.30711e-06
-8.12231e-08
1.28004e-06
-7.235e-08
9.42919e-08
2.18174e-06
-3.54695e-07
1.61546e-07
2.12663e-06
-3.18258e-07
2.00803e-07
2.03215e-06
-2.6446e-07
2.12775e-07
1.91392e-06
-2.08415e-07
2.02521e-07
1.78689e-06
-1.58498e-07
1.76175e-07
1.66395e-06
-1.1815e-07
1.39188e-07
1.55529e-06
-8.7905e-08
9.573e-08
1.46829e-06
-6.68652e-08
4.87086e-08
1.40787e-06
-5.37336e-08
1.37616e-06
-4.74143e-08
2.6506e-08
2.25777e-06
-1.00084e-07
4.51393e-08
2.19997e-06
-9.19753e-08
5.54419e-08
2.09727e-06
-7.54268e-08
5.72114e-08
1.97049e-06
-5.83436e-08
5.24731e-08
1.83489e-06
-4.32626e-08
4.38827e-08
1.7035e-06
-3.09587e-08
3.34237e-08
1.58777e-06
-2.20143e-08
2.23408e-08
1.49546e-06
-1.60922e-08
1.12737e-08
1.43151e-06
-1.25706e-08
1.39837e-06
-1.09413e-08
1.39881e-08
-3.86222e-08
-2.92042e-08
2.12337e-08
-3.21144e-08
-1.43633e-08
2.29582e-08
-1.91693e-08
-6.16701e-09
2.0546e-08
-1.03069e-08
-9.67539e-09
1.72301e-08
-6.50738e-09
-8.50468e-09
1.38683e-08
-3.9723e-09
-6.60311e-09
1.03817e-08
-2.40429e-09
-5.24383e-09
6.89077e-09
-1.55615e-09
-4.27493e-09
3.364e-09
-1.12141e-09
-3.66647e-09
-8.97917e-10
-3.36633e-09
1.169e-08
3.77809e-10
-5.67394e-08
1.99764e-08
-1.04228e-10
-4.61555e-08
2.09949e-08
-1.99989e-10
-2.41428e-08
1.56954e-08
-1.41594e-10
-7.47093e-09
9.23613e-09
-6.86109e-11
-1.6478e-09
5.11976e-09
-2.94639e-11
-9.67677e-10
2.85346e-09
-1.309e-11
-9.41082e-10
1.52279e-09
-4.8964e-12
-8.45619e-10
6.53176e-10
-1.11348e-12
-7.73333e-10
4.85572e-13
-7.16143e-10
1.11049e-09
2.30282e-10
-1.87868e-09
1.16519e-09
1.02689e-10
-1.03634e-09
6.98186e-10
2.41107e-11
-1.99817e-10
3.39772e-10
4.53904e-12
-4.16974e-12
1.61631e-10
1.43151e-12
-2.44342e-12
8.00573e-11
7.67897e-13
-1.12588e-11
4.03864e-11
4.94064e-13
-1.23201e-11
1.99665e-11
4.04912e-13
-1.10956e-11
8.16993e-12
3.61632e-13
-1.00037e-11
3.25957e-13
-8.97859e-12
8.32598e-11
2.31111e-11
1.14963e-11
6.56795e-11
1.07663e-11
2.6771e-11
3.04357e-11
3.10881e-12
1.68415e-11
1.24576e-11
8.50658e-13
5.52408e-12
5.30704e-12
2.9008e-13
1.22494e-12
2.3797e-12
1.2404e-13
6.86292e-14
1.09651e-12
6.31512e-14
-2.12263e-13
5.05964e-13
3.91962e-14
-2.54392e-13
1.97035e-13
2.89436e-14
-2.46761e-13
2.31158e-14
-2.19431e-13
3.60328e-12
1.32488e-12
8.21921e-12
2.54451e-12
6.39391e-13
4.59789e-12
1.08179e-12
2.05874e-13
1.53652e-12
4.11742e-13
6.2452e-14
4.09038e-13
1.62864e-13
2.2077e-14
9.94625e-14
6.74543e-14
9.23153e-15
2.04553e-14
2.89491e-14
4.11559e-15
3.21588e-16
1.26278e-14
2.56829e-15
-4.92874e-15
4.69092e-15
1.87924e-15
-5.95541e-15
1.45853e-15
-5.37748e-15
1.32987e-13
6.40915e-14
4.41177e-13
8.60931e-14
3.34542e-14
2.23034e-13
3.38074e-14
1.19106e-14
7.22738e-14
1.17443e-14
3.80164e-15
1.98036e-14
4.18198e-15
1.57321e-15
5.15251e-15
1.53829e-15
7.10716e-16
1.26758e-15
6.2165e-16
3.7153e-16
2.31755e-16
2.57017e-16
2.24072e-16
-3.57385e-17
8.97534e-17
1.56376e-16
-1.1389e-16
1.13131e-16
-1.10306e-16
3.9197e-15
3.27331e-15
1.66368e-14
2.1692e-15
1.95846e-15
8.73127e-15
7.38829e-16
8.06524e-16
2.90655e-15
2.32764e-16
3.11013e-16
8.00838e-16
7.49709e-17
1.12857e-16
2.18333e-16
2.49945e-17
3.45617e-17
6.03727e-17
8.68153e-18
2.33051e-17
1.5871e-17
3.07966e-18
2.18663e-17
2.98448e-18
8.233e-19
1.75636e-17
-9.05381e-19
1.31695e-17
-1.48441e-18
6.13859e-17
2.22338e-16
7.11832e-16
2.26763e-17
1.24025e-16
3.73133e-16
4.66335e-18
2.51281e-17
1.23391e-16
4.23309e-20
3.11152e-17
3.4966e-17
-4.52469e-19
1.50696e-17
9.7448e-18
-3.52733e-19
6.76929e-18
2.88999e-18
-2.29351e-19
3.44059e-18
9.29489e-19
-1.38088e-19
2.03916e-18
2.96928e-19
-5.69343e-20
1.4141e-18
8.83558e-20
9.54215e-19
3.51202e-20
-7.66651e-19
2.53202e-17
3.07561e-17
-1.19518e-18
1.57939e-17
1.60938e-17
-7.10744e-19
6.69975e-18
5.36227e-18
-3.5414e-19
2.63647e-18
1.66857e-18
-1.63802e-19
1.02283e-18
4.96133e-19
-7.58675e-20
4.30014e-19
1.55827e-19
-3.5493e-20
1.91309e-19
5.33846e-20
-1.74584e-20
1.02241e-19
2.00495e-20
-5.80148e-21
6.76712e-20
8.91689e-21
4.26462e-20
5.19311e-21
-1.49925e-19
2.07547e-18
1.45705e-18
-1.41577e-19
1.05064e-18
7.65508e-19
-7.05476e-20
4.05966e-19
2.61442e-19
-3.0227e-20
1.25017e-19
7.86807e-20
-1.26152e-20
4.38299e-20
2.33471e-20
-5.40603e-21
1.74633e-20
7.48373e-21
-2.41372e-21
8.08148e-21
2.67867e-21
-1.16394e-21
4.44963e-21
1.10917e-21
-3.58894e-22
2.97032e-21
5.64865e-22
1.79175e-21
3.36922e-22
-1.17297e-20
2.74842e-19
8.09714e-20
-9.14918e-21
6.16348e-20
3.56315e-20
-4.28898e-21
1.644e-20
1.15049e-20
-1.77279e-21
5.25929e-21
3.43994e-21
-7.23525e-22
1.86643e-21
1.03391e-21
-3.05385e-22
7.50256e-22
3.40561e-22
-1.34336e-22
3.49853e-22
1.26675e-22
-6.44593e-23
1.93077e-22
5.55916e-23
-1.8578e-23
1.29105e-22
3.03705e-23
7.39285e-23
1.78221e-23
-1.40616e-21
1.6199e-20
1.71096e-19
-5.70136e-22
2.75407e-21
1.81777e-20
-2.28164e-22
5.41605e-22
1.35946e-21
-9.19932e-23
1.49594e-22
2.26514e-22
-3.71027e-23
4.54264e-23
7.8056e-23
-1.54883e-23
1.5222e-23
3.1323e-23
-6.75338e-24
5.81533e-24
1.45703e-23
-3.23736e-24
2.6241e-24
8.03492e-24
-8.7398e-25
1.49393e-24
5.37633e-24
8.449e-25
2.90497e-24
1.99098e-07
2.71141e-07
-8.98239e-07
3.53654e-07
2.72815e-07
-8.47412e-07
4.60891e-07
2.74617e-07
-7.61034e-07
5.13052e-07
2.74934e-07
-6.55975e-07
5.11467e-07
2.73002e-07
-5.47945e-07
4.63215e-07
2.69003e-07
-4.48626e-07
3.78017e-07
2.63792e-07
-3.65258e-07
2.66106e-07
2.58511e-07
-3.0154e-07
1.37138e-07
2.54265e-07
-2.58899e-07
2.5176e-07
-2.37455e-07
2.02641e-07
5.62339e-07
-9.38719e-07
3.58901e-07
5.64192e-07
-8.82475e-07
4.65835e-07
5.65108e-07
-7.88043e-07
5.16351e-07
5.62328e-07
-6.74689e-07
5.12687e-07
5.54817e-07
-5.5948e-07
4.62681e-07
5.43406e-07
-4.54662e-07
3.76491e-07
5.30098e-07
-3.67478e-07
2.64469e-07
5.17312e-07
-3.01343e-07
1.36108e-07
5.07351e-07
-2.57344e-07
5.01586e-07
-2.35301e-07
2.03456e-07
8.85682e-07
-9.90269e-07
3.5816e-07
8.84204e-07
-9.24217e-07
4.61032e-07
8.78217e-07
-8.15941e-07
5.0665e-07
8.65061e-07
-6.89225e-07
4.99102e-07
8.44672e-07
-5.63581e-07
4.474e-07
8.19344e-07
-4.51629e-07
3.62128e-07
7.92683e-07
-3.60121e-07
2.53411e-07
7.68588e-07
-2.91708e-07
1.30122e-07
7.50481e-07
-2.46677e-07
7.40297e-07
-2.24274e-07
2.01758e-07
1.2469e-06
-1.04369e-06
3.52092e-07
1.23717e-06
-9.64921e-07
4.47989e-07
1.21599e-06
-8.39265e-07
4.86468e-07
1.18273e-06
-6.96613e-07
4.7397e-07
1.14e-06
-5.59204e-07
4.20925e-07
1.09258e-06
-4.3999e-07
3.38187e-07
1.04619e-06
-3.44698e-07
2.35393e-07
1.00625e-06
-2.74701e-07
1.2048e-07
9.77138e-07
-2.29238e-07
9.6118e-07
-2.06819e-07
1.91867e-07
1.63731e-06
-1.06092e-06
3.30994e-07
1.61292e-06
-9.69255e-07
4.15056e-07
1.56664e-06
-8.28025e-07
4.44146e-07
1.50252e-06
-6.73237e-07
4.26997e-07
1.42769e-06
-5.28972e-07
3.74908e-07
1.35045e-06
-4.07464e-07
2.98503e-07
1.27871e-06
-3.12834e-07
2.06417e-07
1.21914e-06
-2.44707e-07
1.05232e-07
1.17676e-06
-2.01107e-07
1.15399e-06
-1.7982e-07
1.67386e-07
2.0222e-06
-9.8749e-07
2.84874e-07
1.97796e-06
-8.90861e-07
3.51304e-07
1.89896e-06
-7.46532e-07
3.69699e-07
1.79641e-06
-5.93709e-07
3.50027e-07
1.6835e-06
-4.55895e-07
3.03312e-07
1.57232e-06
-3.43222e-07
2.38968e-07
1.47278e-06
-2.57772e-07
1.63997e-07
1.39234e-06
-1.97671e-07
8.32087e-08
1.33616e-06
-1.59836e-07
1.30641e-06
-1.41565e-07
1.26536e-07
2.37908e-06
-8.28675e-07
2.10921e-07
2.30464e-06
-7.2932e-07
2.53855e-07
2.18166e-06
-5.90094e-07
2.61112e-07
2.03316e-06
-4.52425e-07
2.42218e-07
1.87956e-06
-3.35663e-07
2.06257e-07
1.73501e-06
-2.4488e-07
1.60266e-07
1.60965e-06
-1.78783e-07
1.0893e-07
1.51062e-06
-1.33811e-07
5.50288e-08
1.44251e-06
-1.06184e-07
1.40706e-06
-9.30294e-08
3.58666e-08
2.51101e-06
-2.6438e-07
6.011e-08
2.42783e-06
-2.39415e-07
7.06565e-08
2.28544e-06
-1.89749e-07
7.14185e-08
2.11047e-06
-1.36416e-07
6.43876e-08
1.93902e-06
-9.56914e-08
5.26536e-08
1.78222e-06
-6.64342e-08
3.92815e-08
1.64698e-06
-4.59753e-08
2.58471e-08
1.54074e-06
-3.27744e-08
1.29045e-08
1.46799e-06
-2.5109e-08
1.43064e-06
-2.16219e-08
6.51216e-09
-7.00135e-08
-1.88149e-07
8.54575e-09
-6.50189e-08
-1.18415e-07
1.60014e-08
-4.08506e-08
-4.0322e-08
2.12601e-08
-1.79861e-08
-1.70297e-08
1.92849e-08
-8.04468e-09
-1.73503e-08
1.5292e-08
-4.97248e-09
-1.41299e-08
1.13898e-08
-3.12988e-09
-1.08424e-08
7.53953e-09
-1.99158e-09
-8.80248e-09
3.66586e-09
-1.41736e-09
-7.54306e-09
-1.13197e-09
-6.90095e-09
1.02601e-08
-7.44238e-10
-1.37871e-07
1.14902e-08
-1.79903e-10
-1.15702e-07
1.22799e-08
-4.78101e-10
-6.91817e-08
1.24661e-08
-2.07678e-10
-2.83331e-08
9.50407e-09
-7.58497e-11
-8.58896e-09
5.67985e-09
-3.98014e-11
-3.3944e-09
3.14593e-09
-1.9356e-11
-2.45831e-09
1.65901e-09
-8.7322e-12
-2.05339e-09
7.04622e-10
-3.59983e-12
-1.81876e-09
-1.28173e-12
-1.66586e-09
5.63498e-10
5.65774e-11
-3.67175e-09
8.29676e-10
5.69589e-11
-1.99979e-09
6.52571e-10
2.9667e-11
-9.69402e-10
3.61825e-10
9.5019e-12
-1.72557e-10
1.84613e-10
3.79093e-12
-3.77785e-11
9.21009e-11
1.43223e-12
-3.59834e-11
4.61484e-11
7.01925e-13
-3.33344e-11
2.25042e-11
4.78152e-13
-2.83557e-11
9.09225e-12
4.00615e-13
-2.47786e-11
3.57666e-13
-2.19434e-11
4.33758e-11
5.07064e-12
-1.43433e-11
5.78134e-11
7.0984e-12
2.52888e-11
3.33241e-11
3.70161e-12
3.25909e-11
1.37958e-11
1.39219e-12
1.47221e-11
5.99985e-12
5.14118e-13
3.55883e-12
2.72255e-12
2.00617e-13
1.60154e-13
1.25697e-12
9.26659e-14
-5.95587e-13
5.73512e-13
5.27524e-14
-6.82085e-13
2.20553e-13
3.69757e-14
-6.42983e-13
2.89719e-14
-5.64445e-13
1.86551e-12
3.48318e-13
8.88859e-12
2.08716e-12
4.1821e-13
7.9861e-12
1.08382e-12
2.23663e-13
3.51255e-12
4.23878e-13
9.09952e-14
1.16224e-12
1.75031e-13
3.49869e-14
3.00763e-13
7.43696e-14
1.42122e-14
6.09218e-14
3.22125e-14
6.26471e-15
3.58135e-16
1.39527e-14
3.48283e-15
-1.39012e-14
5.1157e-15
2.46469e-15
-1.62536e-14
1.8881e-15
-1.44937e-14
7.11203e-14
1.94115e-14
5.40564e-13
6.64582e-14
2.17747e-14
4.16097e-13
3.17392e-14
1.28672e-14
1.60386e-13
1.13458e-14
5.31543e-15
5.43458e-14
4.22648e-15
2.28465e-15
1.53435e-14
1.59024e-15
1.03771e-15
3.8333e-15
6.31695e-16
5.16959e-16
6.77624e-16
2.57897e-16
3.14175e-16
-1.28516e-16
8.74417e-17
2.1816e-16
-3.30823e-16
1.57629e-16
-3.13591e-16
2.2079e-15
1.36631e-15
2.28564e-14
1.60114e-15
1.50307e-15
1.74118e-14
6.24467e-16
9.34253e-16
6.86222e-15
1.79622e-16
4.32679e-16
2.30222e-15
5.43823e-17
1.7255e-16
6.59406e-16
1.61413e-17
6.47897e-17
1.83023e-16
4.58838e-18
1.73225e-17
4.66665e-17
1.16522e-18
2.61875e-17
7.61696e-18
3.80575e-21
2.29033e-17
-3.60258e-18
1.76831e-17
-4.87894e-18
2.28011e-17
1.23563e-16
1.03379e-15
-1.86768e-18
1.13474e-16
7.89369e-16
-4.85569e-18
4.98122e-17
3.11304e-16
-3.68773e-18
3.84832e-17
1.05109e-16
-2.19333e-18
2.15005e-17
3.09885e-17
-1.14765e-18
1.00889e-17
9.29244e-18
-5.89343e-19
5.07569e-18
2.83622e-18
-3.09478e-19
3.03451e-18
8.63222e-19
-1.16933e-19
2.11187e-18
2.29443e-19
1.42682e-18
7.74597e-20
-1.82629e-18
3.04906e-17
4.84381e-17
-2.54688e-18
2.10079e-17
3.63166e-17
-1.45905e-18
9.88879e-18
1.40549e-17
-6.93099e-19
3.9826e-18
5.28883e-18
-3.0648e-19
1.60342e-18
1.65455e-18
-1.37933e-19
6.85715e-19
5.25089e-19
-6.32988e-20
3.26808e-19
1.76614e-19
-3.08497e-20
1.67129e-19
6.49952e-20
-1.01454e-20
1.09174e-19
2.76225e-20
6.83131e-20
1.54912e-20
-2.39866e-19
4.3973e-18
3.35026e-18
-2.49203e-19
2.14652e-18
2.24414e-18
-1.23697e-19
7.67644e-19
7.79368e-19
-5.34535e-20
2.17621e-19
2.76709e-19
-2.23188e-20
7.48422e-20
8.34394e-20
-9.49918e-21
2.99937e-20
2.68471e-20
-4.19822e-21
1.38139e-20
9.45567e-21
-1.99945e-21
7.54429e-21
3.81157e-21
-6.08043e-22
4.99522e-21
1.88288e-21
2.99658e-21
1.10858e-21
-3.13425e-20
1.56914e-18
4.78776e-19
-2.15656e-20
5.00605e-19
2.44758e-19
-8.19192e-21
1.00942e-19
5.95698e-20
-3.18903e-21
1.39546e-20
1.48393e-20
-1.2941e-21
3.38821e-21
3.97332e-21
-5.42083e-22
1.35963e-21
1.28937e-21
-2.35919e-22
6.30471e-22
4.72391e-22
-1.11847e-22
3.44913e-22
2.02454e-22
-3.19557e-23
2.28575e-22
1.08039e-22
1.30145e-22
6.27748e-23
-1.56655e-20
2.61395e-19
1.24183e-18
-6.38931e-21
1.0659e-19
3.83909e-19
-9.30018e-22
1.67775e-20
6.5128e-20
-1.79871e-22
1.5459e-21
3.94507e-21
-6.89794e-23
2.00482e-22
1.59489e-22
-2.85465e-23
6.13471e-23
6.06146e-23
-1.23084e-23
2.29777e-23
2.79358e-23
-5.83774e-24
1.01671e-23
1.52272e-23
-1.5585e-24
5.6545e-24
1.00821e-23
3.17385e-24
5.41482e-24
2.48982e-07
2.40891e-07
-1.36919e-06
4.387e-07
2.47386e-07
-1.28452e-06
5.64702e-07
2.56214e-07
-1.14325e-06
6.20169e-07
2.63608e-07
-9.7505e-07
6.10246e-07
2.67539e-07
-8.05561e-07
5.46332e-07
2.67796e-07
-6.52508e-07
4.4166e-07
2.65362e-07
-5.25949e-07
3.08754e-07
2.61725e-07
-4.30358e-07
1.5844e-07
2.58347e-07
-3.66932e-07
2.56197e-07
-3.35211e-07
2.57437e-07
5.11381e-07
-1.4473e-06
4.51387e-07
5.22383e-07
-1.35142e-06
5.77495e-07
5.36297e-07
-1.19423e-06
6.30335e-07
5.46259e-07
-1.01018e-06
6.16776e-07
5.49018e-07
-8.27401e-07
5.49525e-07
5.44814e-07
-6.64429e-07
4.42522e-07
5.35999e-07
-5.31112e-07
3.08475e-07
5.25723e-07
-4.31293e-07
1.58012e-07
5.16959e-07
-3.65493e-07
5.11636e-07
-3.32729e-07
2.67139e-07
8.39583e-07
-1.56594e-06
4.63511e-07
8.49388e-07
-1.44759e-06
5.85423e-07
8.58839e-07
-1.2604e-06
6.30896e-07
8.59896e-07
-1.04833e-06
6.10317e-07
8.50073e-07
-8.44056e-07
5.38577e-07
8.31424e-07
-6.66499e-07
4.30446e-07
8.08352e-07
-5.24343e-07
2.98449e-07
7.85747e-07
-4.19735e-07
1.5239e-07
7.6801e-07
-3.5167e-07
7.57813e-07
-3.18061e-07
2.76442e-07
1.24093e-06
-1.70156e-06
4.72995e-07
1.24139e-06
-1.55348e-06
5.87053e-07
1.23262e-06
-1.32711e-06
6.21824e-07
1.20901e-06
-1.0805e-06
5.923e-07
1.17156e-06
-8.51165e-07
5.15902e-07
1.12568e-06
-6.57852e-07
4.08095e-07
1.07838e-06
-5.06917e-07
2.80862e-07
1.03645e-06
-3.98174e-07
1.42772e-07
1.00541e-06
-3.28542e-07
9.88283e-07
-2.94516e-07
2.76636e-07
1.71796e-06
-1.79501e-06
4.64796e-07
1.69661e-06
-1.61263e-06
5.64555e-07
1.6514e-06
-1.34656e-06
5.85485e-07
1.5838e-06
-1.06895e-06
5.47253e-07
1.50155e-06
-8.20732e-07
4.69197e-07
1.41493e-06
-6.18655e-07
3.66565e-07
1.33376e-06
-4.65587e-07
2.50021e-07
1.26615e-06
-3.5786e-07
1.26405e-07
1.218e-06
-2.90088e-07
1.19223e-06
-2.57358e-07
2.54437e-07
2.22713e-06
-1.73323e-06
4.19377e-07
2.17357e-06
-1.53277e-06
4.97406e-07
2.07712e-06
-1.25029e-06
5.03893e-07
1.95039e-06
-9.6679e-07
4.6114e-07
1.81088e-06
-7.2247e-07
3.88289e-07
1.67474e-06
-5.30177e-07
2.99021e-07
1.55418e-06
-3.88919e-07
2.01833e-07
1.45772e-06
-2.92055e-07
1.01383e-07
1.3909e-06
-2.32283e-07
1.35584e-06
-2.03792e-07
2.11708e-07
2.77801e-06
-1.57611e-06
3.36944e-07
2.66808e-06
-1.34907e-06
3.83234e-07
2.49202e-06
-1.05128e-06
3.73679e-07
2.28157e-06
-7.74044e-07
3.31244e-07
2.06958e-06
-5.51932e-07
2.71782e-07
1.87782e-06
-3.88501e-07
2.0514e-07
1.71699e-06
-2.74948e-07
1.36558e-07
1.5929e-06
-2.00403e-07
6.81196e-08
1.50892e-06
-1.5577e-07
1.4658e-06
-1.34873e-07
6.47331e-08
3.01378e-06
-5.58202e-07
1.10224e-07
2.89085e-06
-5.07669e-07
1.2049e-07
2.68756e-06
-3.95559e-07
1.09648e-07
2.42534e-06
-2.69351e-07
9.27237e-08
2.163e-06
-1.72186e-07
7.27972e-08
1.94286e-06
-1.11544e-07
5.24006e-08
1.76549e-06
-7.40802e-08
3.35199e-08
1.63e-06
-5.09973e-08
1.64133e-08
1.53892e-06
-3.79947e-08
1.49281e-06
-3.22148e-08
5.54648e-08
-1.07925e-07
-8.80049e-07
4.1728e-08
-9.28319e-08
-4.97025e-07
1.49001e-08
-8.12518e-08
-1.91384e-07
1.61874e-08
-4.78759e-08
-5.5959e-08
2.18627e-08
-1.92305e-08
-2.28141e-08
1.85183e-08
-7.82977e-09
-2.12931e-08
1.34424e-08
-4.64715e-09
-1.70694e-08
8.82143e-09
-2.95266e-09
-1.34023e-08
4.27714e-09
-2.02039e-09
-1.13937e-08
-1.59308e-09
-1.03986e-08
3.33472e-08
-9.25554e-09
-2.76052e-07
3.11338e-08
-2.81566e-09
-2.04383e-07
1.92435e-08
-4.8007e-10
-1.39289e-07
1.27192e-08
-3.70796e-10
-7.29193e-08
9.91064e-09
-1.6656e-10
-2.76808e-08
6.65133e-09
-5.96385e-11
-9.75678e-09
3.67998e-09
-3.47871e-11
-5.33e-09
1.8616e-09
-1.7338e-11
-4.0626e-09
7.68099e-10
-9.22649e-12
-3.45127e-09
-5.52555e-12
-3.11423e-09
2.63392e-10
-5.56408e-11
-1.79261e-08
2.96757e-10
-3.17324e-11
-4.74095e-09
4.86387e-10
2.26027e-11
-1.87277e-09
4.25289e-10
3.61712e-11
-8.40032e-10
2.27101e-10
1.29781e-11
-2.26061e-10
1.13496e-10
4.41025e-12
-1.0228e-10
5.4548e-11
1.44322e-12
-7.73021e-11
2.5598e-11
6.91809e-13
-6.06034e-11
1.0029e-11
4.66428e-13
-5.08979e-11
3.89605e-13
-4.44149e-11
-3.51857e-12
-4.73932e-12
-6.65354e-11
4.69062e-12
-5.45507e-12
-3.53279e-12
1.93883e-11
1.52543e-12
3.33423e-11
1.50926e-11
2.85551e-12
3.14561e-11
6.52209e-12
1.25357e-12
1.01845e-11
2.94863e-12
4.57718e-13
7.53938e-13
1.33664e-12
1.78185e-13
-1.36904e-12
5.94697e-13
8.5329e-14
-1.53741e-12
2.21909e-13
5.30076e-14
-1.41433e-12
3.94124e-14
-1.22766e-12
-6.48817e-14
-2.73168e-13
4.88823e-12
-2.58015e-14
-3.23654e-13
3.16831e-12
2.25122e-13
5.25579e-14
4.71697e-12
2.42238e-13
1.31998e-13
2.62203e-12
1.21811e-13
6.85315e-14
8.17755e-13
5.72018e-14
2.77664e-14
1.71983e-13
2.53365e-14
1.17203e-14
4.4887e-15
1.0852e-14
5.4176e-15
-3.24179e-14
3.80801e-15
3.52173e-15
-3.76548e-14
2.60877e-15
-3.33716e-14
1.68548e-15
-1.41869e-14
3.2157e-13
-3.24607e-15
-1.56365e-14
1.54062e-13
-1.53512e-15
2.51694e-15
1.98018e-13
1.29649e-16
6.86097e-15
1.0953e-13
5.03457e-16
3.66119e-15
3.71407e-14
2.60508e-16
1.69562e-15
9.8183e-15
9.52794e-17
8.15188e-16
1.70233e-15
2.65557e-17
4.5999e-16
-3.27184e-16
-2.00164e-18
3.19121e-16
-8.04836e-16
2.29288e-16
-7.56498e-16
-4.56366e-17
-7.61842e-16
1.1393e-14
-4.17617e-16
-8.58642e-16
6.23629e-15
-4.54833e-16
1.39233e-16
7.83889e-15
-2.61218e-16
4.76734e-16
4.74779e-15
-1.17447e-16
2.65051e-16
1.57375e-15
-5.13771e-17
1.14348e-16
4.46361e-16
-2.3431e-17
4.49547e-17
1.09068e-16
-1.11896e-17
2.14276e-17
1.56454e-17
-4.14126e-18
2.63512e-17
-1.0385e-17
2.22117e-17
-1.28782e-17
-2.06254e-17
1.4309e-17
4.79564e-16
-4.96101e-17
3.36047e-17
2.75252e-16
-4.78459e-17
1.60323e-17
3.49567e-16
-2.5076e-17
3.15536e-17
2.06365e-16
-1.09371e-17
2.78006e-17
7.26453e-17
-4.69625e-18
1.47264e-17
2.19293e-17
-2.12179e-18
7.53499e-18
6.45685e-18
-1.01886e-18
4.41304e-18
1.82807e-18
-3.4673e-19
3.09023e-18
4.16278e-19
2.09401e-18
1.17877e-19
-2.05543e-18
1.81458e-17
2.82789e-17
-3.69719e-18
2.47831e-17
1.82673e-17
-3.5218e-18
9.66027e-18
1.5807e-17
-1.87457e-18
5.52868e-18
9.82118e-18
-8.13988e-19
2.35121e-18
3.77345e-18
-3.45251e-19
1.0408e-18
1.21591e-18
-1.52447e-19
5.02935e-19
3.96568e-19
-7.1383e-20
2.70575e-19
1.42368e-19
-2.24407e-20
1.70706e-19
5.81962e-20
1.05315e-19
3.16463e-20
-4.62047e-19
5.48236e-18
3.40331e-18
-4.04947e-19
1.34719e-17
4.54483e-18
-2.65619e-19
1.35231e-18
1.23157e-18
-1.19054e-19
5.14385e-19
5.8425e-19
-4.89296e-20
1.21425e-19
1.94556e-19
-2.0252e-20
4.70801e-20
6.25082e-20
-8.7057e-21
2.16244e-20
2.14339e-20
-4.04482e-21
1.17134e-20
8.42909e-21
-1.19547e-21
7.70022e-21
4.06375e-21
4.57838e-21
2.35837e-21
-2.97775e-19
2.79449e-18
8.93934e-19
-6.06019e-20
1.08593e-17
2.40818e-18
-3.30602e-20
4.95243e-19
1.54011e-19
-7.38872e-21
1.70695e-19
5.77439e-20
-2.62333e-21
8.75626e-21
1.0475e-20
-1.06744e-21
2.13442e-21
3.0473e-21
-4.57054e-22
9.78608e-22
1.06087e-21
-2.13108e-22
5.33987e-22
4.4595e-22
-5.92839e-23
3.51905e-22
2.33674e-22
1.9845e-22
1.34195e-22
-2.82137e-19
4.86123e-19
2.46188e-18
-4.14314e-20
1.95074e-18
9.89071e-18
-1.884e-20
9.77392e-20
4.41293e-19
-9.12014e-22
2.46548e-20
1.35405e-19
-1.40273e-22
1.26461e-21
2.71474e-21
-5.36093e-23
1.51081e-22
1.04595e-22
-2.2794e-23
5.1424e-23
4.34899e-23
-1.06713e-23
2.2316e-23
2.35946e-23
-2.79462e-24
1.22193e-23
1.55278e-23
6.77124e-24
8.24617e-24
3.317e-07
1.76149e-07
-1.85287e-06
5.7739e-07
1.93373e-07
-1.72358e-06
7.30766e-07
2.17154e-07
-1.51378e-06
7.88292e-07
2.38986e-07
-1.27156e-06
7.62623e-07
2.54456e-07
-1.03435e-06
6.72675e-07
2.62883e-07
-8.25443e-07
5.37271e-07
2.65703e-07
-6.56248e-07
3.72277e-07
2.65154e-07
-5.30518e-07
1.90006e-07
2.63409e-07
-4.48069e-07
2.61944e-07
-4.07149e-07
3.50513e-07
3.97879e-07
-1.99423e-06
6.05139e-07
4.29361e-07
-1.84204e-06
7.58785e-07
4.71043e-07
-1.60177e-06
8.11304e-07
5.07322e-07
-1.33103e-06
7.78835e-07
5.30751e-07
-1.07123e-06
6.82541e-07
5.40812e-07
-8.46064e-07
5.42359e-07
5.40851e-07
-6.66078e-07
3.74399e-07
5.35537e-07
-5.33717e-07
1.9064e-07
5.29263e-07
-4.47588e-07
5.24907e-07
-4.05053e-07
3.80327e-07
7.19696e-07
-2.24099e-06
6.4525e-07
7.56296e-07
-2.03945e-06
7.93587e-07
8.00568e-07
-1.73826e-06
8.33035e-07
8.32489e-07
-1.41295e-06
7.86877e-07
8.45358e-07
-1.11251e-06
6.80428e-07
8.41261e-07
-8.60498e-07
5.35073e-07
8.26293e-07
-6.6443e-07
3.66632e-07
8.07562e-07
-5.23319e-07
1.85864e-07
7.91292e-07
-4.32931e-07
7.81463e-07
-3.88753e-07
4.15262e-07
1.17749e-06
-2.54537e-06
6.89726e-07
1.20415e-06
-2.27579e-06
8.27263e-07
1.22633e-06
-1.89041e-06
8.4803e-07
1.2274e-06
-1.49617e-06
7.84488e-07
1.20505e-06
-1.14731e-06
6.66522e-07
1.16608e-06
-8.64701e-07
5.16856e-07
1.12035e-06
-6.51306e-07
3.50602e-07
1.07716e-06
-5.01522e-07
1.76667e-07
1.04411e-06
-4.07428e-07
1.02563e-06
-3.62019e-07
4.41473e-07
1.7932e-06
-2.82147e-06
7.14561e-07
1.78718e-06
-2.46875e-06
8.32083e-07
1.75388e-06
-1.99163e-06
8.28955e-07
1.6891e-06
-1.52753e-06
7.47706e-07
1.60126e-06
-1.13569e-06
6.21976e-07
1.50394e-06
-8.30791e-07
4.74305e-07
1.41059e-06
-6.08157e-07
3.1787e-07
1.33204e-06
-4.563e-07
1.59007e-07
1.27585e-06
-3.62962e-07
1.24583e-06
-3.18544e-07
4.29034e-07
2.51825e-06
-2.85761e-06
6.79135e-07
2.45157e-06
-2.44725e-06
7.67661e-07
2.33242e-06
-1.91735e-06
7.42067e-07
2.17412e-06
-1.42621e-06
6.51212e-07
1.99741e-06
-1.02777e-06
5.29086e-07
1.82452e-06
-7.28629e-07
3.95898e-07
1.67242e-06
-5.17566e-07
2.61675e-07
1.5519e-06
-3.77695e-07
1.29783e-07
1.46911e-06
-2.93651e-07
1.42608e-06
-2.54266e-07
3.98384e-07
3.37767e-06
-2.80548e-06
6.02453e-07
3.21813e-06
-2.3197e-06
6.43151e-07
2.9708e-06
-1.73036e-06
5.87967e-07
2.67245e-06
-1.2172e-06
4.91767e-07
2.36903e-06
-8.27347e-07
3.8458e-07
2.09825e-06
-5.55041e-07
2.79723e-07
1.87855e-06
-3.76212e-07
1.81318e-07
1.71418e-06
-2.64275e-07
8.89949e-08
1.60525e-06
-1.99584e-07
1.55018e-06
-1.69979e-07
1.43121e-07
3.81815e-06
-1.12789e-06
2.31943e-07
3.58435e-06
-9.62715e-07
2.42639e-07
3.31689e-06
-7.52342e-07
2.01522e-07
2.94673e-06
-5.02517e-07
1.51352e-07
2.54601e-06
-2.98993e-07
1.09873e-07
2.20218e-06
-1.73994e-07
7.55083e-08
1.94574e-06
-1.06914e-07
4.66305e-08
1.76237e-06
-7.03125e-08
2.22667e-08
1.64221e-06
-5.05945e-08
1.58228e-06
-4.20421e-08
2.20436e-07
3.6523e-07
-4.1056e-06
2.26519e-07
-5.85083e-09
-2.22807e-06
1.07121e-07
-1.12427e-07
-7.29564e-07
3.40963e-08
-9.49324e-08
-2.28405e-07
2.07207e-08
-5.61736e-08
-6.08828e-08
2.24634e-08
-2.14464e-08
-2.31916e-08
1.71348e-08
-8.08356e-09
-2.21607e-08
1.08808e-08
-4.68735e-09
-1.84811e-08
5.24107e-09
-3.21591e-09
-1.52927e-08
-2.4926e-09
-1.38811e-08
6.72171e-08
-4.13995e-08
-1.39742e-06
7.5554e-08
-9.63009e-09
-5.73529e-07
6.43469e-08
-3.47564e-09
-2.38327e-07
3.79114e-08
-5.97886e-10
-1.41559e-07
1.91423e-08
-3.10512e-10
-6.88321e-08
9.95662e-09
-1.72883e-10
-2.48536e-08
4.93714e-09
-6.18013e-11
-1.01985e-08
2.20828e-09
-3.5885e-11
-7.22106e-09
8.45002e-10
-2.09679e-11
-6.23167e-09
-1.46597e-11
-5.57302e-09
7.72001e-10
-1.16524e-09
-7.31296e-08
4.71955e-10
-7.59168e-11
-1.61939e-08
3.33263e-10
-4.17191e-11
-5.00028e-09
4.50787e-10
2.59082e-11
-1.80523e-09
3.42879e-10
4.85587e-11
-7.92247e-10
1.54535e-10
1.75074e-11
-3.17818e-10
6.86083e-11
4.63473e-12
-1.7232e-10
2.95391e-11
1.43702e-12
-1.26295e-10
1.0948e-11
6.71741e-13
-1.01853e-10
4.58609e-13
-8.804e-11
-1.60915e-11
5.47828e-12
-1.32409e-09
-3.1168e-11
-1.93987e-12
-6.74064e-11
-2.38734e-11
-4.04626e-12
8.49362e-12
-5.42061e-12
1.46054e-12
3.87714e-11
2.8817e-12
3.12641e-12
2.63479e-11
2.10941e-12
1.35908e-12
4.20528e-12
1.05727e-12
4.69149e-13
-2.86849e-12
4.635e-13
1.80512e-13
-3.40472e-12
1.63818e-13
9.4609e-14
-3.0746e-12
6.44401e-14
-2.67232e-12
-3.46402e-13
2.28566e-13
5.98799e-12
-6.94856e-13
-9.31804e-14
2.15887e-12
-1.3107e-12
-1.89201e-13
2.53377e-12
-7.92772e-13
4.50004e-14
3.7684e-12
-2.42954e-13
1.33012e-13
2.11829e-12
-6.11717e-14
6.79484e-14
5.40841e-13
-1.57751e-14
2.71046e-14
3.55606e-14
-5.46571e-15
1.19523e-14
-7.33159e-14
-2.1256e-15
6.58809e-15
-8.72547e-14
4.2644e-15
-7.80733e-14
-8.17382e-15
7.62321e-15
3.34403e-13
-1.86864e-14
-5.10411e-15
1.21698e-13
-4.19852e-14
-1.00002e-14
1.35038e-13
-3.44423e-14
5.34085e-15
1.62592e-13
-1.51167e-14
6.62213e-15
8.61285e-14
-5.65783e-15
3.50726e-15
2.62865e-14
-2.13345e-15
1.62229e-15
4.71773e-15
-8.80407e-16
8.32897e-16
-8.01398e-16
-3.03308e-16
5.35256e-16
-2.0232e-15
3.88175e-16
-1.86765e-15
-3.46668e-16
6.11214e-16
1.35435e-14
-8.32909e-16
-2.05117e-16
4.33368e-15
-1.82691e-15
-5.06401e-16
5.2213e-15
-1.74184e-15
4.78115e-16
1.17177e-14
-7.84251e-16
4.40318e-16
3.71392e-15
-3.09834e-16
2.39602e-16
1.17958e-15
-1.24911e-16
1.06166e-16
2.80781e-16
-5.46148e-17
4.63771e-17
3.46015e-17
-1.86927e-17
1.58513e-17
-2.95639e-17
2.30516e-17
-3.52452e-17
-2.25414e-17
9.92399e-17
6.9923e-16
-4.73319e-17
6.86632e-17
2.06357e-16
-9.72278e-17
4.33565e-17
2.68788e-16
-9.06314e-17
3.03757e-17
7.39865e-16
-4.25954e-17
2.88323e-17
1.84284e-16
-1.70784e-17
2.40669e-17
5.76369e-17
-7.03795e-18
1.34178e-17
1.62315e-17
-3.15862e-18
7.73539e-18
4.1947e-18
-1.03447e-18
5.29848e-18
7.6126e-19
3.61771e-18
1.43852e-19
-3.0778e-18
9.84383e-17
1.26441e-16
-3.75937e-18
2.4185e-17
2.32941e-17
-4.93873e-18
8.10891e-18
1.76653e-17
-5.03628e-18
5.86581e-18
3.68985e-17
-2.53399e-18
4.19099e-18
1.17973e-17
-1.02868e-18
1.97402e-18
3.18587e-18
-4.25955e-19
9.34268e-19
9.91875e-19
-1.94492e-19
5.17031e-19
3.33868e-19
-5.9464e-20
3.46526e-19
1.31393e-19
2.03397e-19
6.93692e-20
-6.98658e-19
1.25799e-17
8.96802e-17
-4.85661e-19
1.05108e-17
5.05269e-18
-3.94381e-19
1.46552e-18
1.66588e-18
-3.18146e-19
6.88953e-19
2.01648e-18
-1.4543e-19
3.54872e-19
1.39734e-18
-5.53889e-20
1.20382e-19
1.82402e-19
-2.25735e-20
4.20618e-20
5.43852e-20
-1.02353e-20
2.22501e-20
2.03401e-20
-2.9418e-21
1.45086e-20
9.55355e-21
8.54982e-21
5.46429e-21
-3.4231e-19
2.76158e-18
1.12983e-17
-9.52312e-20
7.80655e-18
2.42141e-18
-4.50023e-20
6.58649e-19
2.30971e-19
-3.20136e-20
1.79289e-19
2.2383e-19
-1.14924e-20
1.1225e-19
4.93489e-19
-2.80767e-21
2.12051e-20
1.45499e-20
-1.10902e-21
1.91884e-21
2.73616e-21
-5.078e-22
1.00628e-21
1.08111e-21
-1.38343e-22
6.61358e-22
5.5656e-22
3.69436e-22
3.15647e-22
-2.65634e-19
1.28557e-18
2.23467e-18
-7.15078e-20
1.7663e-18
6.92467e-18
-1.96784e-20
1.34914e-19
5.47157e-19
-1.52148e-20
9.11255e-20
1.54437e-19
-3.59409e-21
2.91352e-19
9.0557e-20
-1.46962e-22
4.43082e-21
1.22241e-20
-5.36515e-23
1.44034e-22
1.03904e-22
-2.46371e-23
5.44835e-23
4.47194e-23
-6.31833e-24
2.93408e-23
2.92632e-23
1.60407e-23
1.53487e-23
4.57457e-07
5.09014e-08
-2.32872e-06
7.82924e-07
8.97133e-08
-2.13876e-06
9.69777e-07
1.42526e-07
-1.84316e-06
1.02381e-06
1.91718e-07
-1.51732e-06
9.70965e-07
2.28154e-07
-1.20965e-06
8.41914e-07
2.50904e-07
-9.47296e-07
6.63272e-07
2.6272e-07
-7.40326e-07
4.55006e-07
2.67386e-07
-5.89638e-07
2.30821e-07
2.68379e-07
-4.92263e-07
2.68063e-07
-4.44392e-07
4.97552e-07
1.71069e-07
-2.57658e-06
8.39547e-07
2.4483e-07
-2.33915e-06
1.02536e-06
3.41149e-07
-1.98621e-06
1.06892e-06
4.27591e-07
-1.61047e-06
1.00323e-06
4.89017e-07
-1.2664e-06
8.62568e-07
5.24681e-07
-9.79175e-07
6.75067e-07
5.40409e-07
-7.56265e-07
4.60893e-07
5.43876e-07
-5.96034e-07