/*--------------------------------*- C++ -*----------------------------------*\
| =========                 |                                                 |
| \\      /  F ield         | OpenFOAM: The Open Source CFD Toolbox           |
|  \\    /   O peration     | Version:  2312                                  |
|   \\  /    A nd           | Website:  www.openfoam.com                      |
|    \\/     M anipulation  |                                                 |
\*---------------------------------------------------------------------------*/
FoamFile
{
    version     2.0;
    format      ascii;
    arch        "LSB;label=32;scalar=64";
    class       volScalarField;
    location    "0.145";
    object      alpha.water;
}
// * * * * * * * * * * * * * * * * * * * * * * * * * * * * * * * * * * * * * //

dimensions      [0 0 0 0 0 0 0];

internalField   nonuniform List<scalar> 
8000
(
1
1
1
1
1
1
1
1
1
1
1
1
1
1
1
1
1
1
1
1
1
1
1
1
1
1
1
1
1
1
1
1
1
1
1
1
1
1
1
1
1
1
1
1
1
1
1
1
1
1
1
1
1
1
1
1
1
1
1
1
1
1
1
1
1
1
1
1
1
1
1
1
1
1
1
1
1
1
1
1
0.279383
0.271185
0.257543
0.241771
0.224766
0.208263
0.193859
0.182438
0.174557
0.170458
0.000673094
0.000597788
0.000459875
0.000310395
0.000197371
0.000134262
9.74205e-05
7.40984e-05
6.14153e-05
5.52571e-05
0.00010116
8.25011e-05
5.33087e-05
2.84363e-05
1.42174e-05
7.99966e-06
4.98002e-06
3.35655e-06
2.56769e-06
2.1817e-06
1.27198e-05
9.4384e-06
5.1628e-06
2.27817e-06
9.65561e-07
4.755e-07
2.65727e-07
1.64745e-07
1.19178e-07
9.62799e-08
1.18554e-06
8.02414e-07
3.88114e-07
1.5263e-07
5.86775e-08
2.6633e-08
1.39167e-08
8.19126e-09
5.71951e-09
4.41942e-09
8.21971e-08
5.27729e-08
2.39172e-08
8.84003e-09
3.21941e-09
1.39806e-09
7.03863e-10
4.02624e-10
2.75721e-10
2.04401e-10
4.68084e-09
2.93563e-09
1.28896e-09
4.61741e-10
1.64856e-10
8.03159e-11
4.3789e-11
2.64899e-11
1.87319e-11
1.36936e-11
2.36319e-10
1.52133e-10
7.48543e-11
3.0606e-11
1.2028e-11
5.25574e-12
2.61449e-12
1.52616e-12
1.10288e-12
8.51602e-13
1.73373e-11
1.08758e-11
4.75022e-12
1.78459e-12
1.13422e-12
7.1294e-13
3.94624e-13
2.38231e-13
1.67998e-13
1.15034e-13
1.24022e-12
1.15295e-12
6.64262e-13
2.75221e-13
1.12784e-13
5.08088e-14
2.51355e-14
1.42433e-14
9.60103e-15
5.97121e-15
2.21514e-13
1.09801e-13
4.49559e-14
1.57952e-14
5.33622e-15
2.13683e-15
1.00908e-15
5.63383e-16
3.7933e-16
2.26557e-16
5.22134e-14
8.99914e-15
1.9716e-15
5.97082e-16
2.1012e-16
8.62872e-17
4.11179e-17
2.31638e-17
1.56845e-17
8.88518e-18
1
1
1
1
1
1
1
1
1
1
1
1
1
1
1
1
1
1
1
1
1
1
1
1
1
1
1
1
1
1
1
1
1
1
1
1
1
1
1
1
1
1
1
1
1
1
1
1
1
1
1
1
1
1
1
1
1
1
1
1
1
1
1
1
1
1
1
1
1
1
1
1
1
1
1
1
1
1
1
1
0.325809
0.309418
0.283443
0.258704
0.237466
0.218077
0.201218
0.188048
0.179077
0.174449
0.000529901
0.000409171
0.000346238
0.000282157
0.000212531
0.000152185
0.000109457
8.33904e-05
6.87465e-05
6.15983e-05
4.72837e-05
4.52934e-05
3.76486e-05
2.49793e-05
1.51495e-05
9.30266e-06
5.84196e-06
3.98627e-06
3.04624e-06
2.58349e-06
4.94797e-06
4.19056e-06
2.97343e-06
1.81851e-06
1.0369e-06
5.67027e-07
3.23221e-07
2.04544e-07
1.48632e-07
1.20186e-07
4.32331e-07
3.24739e-07
2.08477e-07
1.22483e-07
6.40409e-08
3.25779e-08
1.74951e-08
1.05733e-08
7.45249e-09
5.77722e-09
2.73972e-08
2.02517e-08
1.32121e-08
7.28138e-09
3.61659e-09
1.76479e-09
9.15965e-10
5.3969e-10
3.74188e-10
2.78718e-10
1.62333e-09
1.19379e-09
7.48917e-10
3.97532e-10
1.95598e-10
1.02803e-10
5.7714e-11
3.59442e-11
2.57733e-11
1.89191e-11
1.22329e-10
9.22602e-11
5.81143e-11
3.06959e-11
1.50878e-11
7.22653e-12
3.69114e-12
2.17842e-12
1.55543e-12
1.11161e-12
9.84901e-12
6.77898e-12
3.82543e-12
1.90835e-12
1.41106e-12
9.62737e-13
5.60551e-13
3.47996e-13
2.47868e-13
1.6957e-13
2.77145e-12
1.69959e-12
8.26155e-13
3.57531e-13
1.63044e-13
7.71711e-14
3.92049e-14
2.26431e-14
1.5381e-14
9.69851e-15
5.71632e-13
2.38002e-13
7.84706e-14
2.43242e-14
8.59207e-15
3.5517e-15
1.69414e-15
9.52812e-16
6.42066e-16
3.82783e-16
3.06496e-13
9.19285e-14
1.7163e-14
1.84438e-15
3.60616e-16
1.52609e-16
7.31825e-17
4.13957e-17
2.80021e-17
1.58102e-17
1
1
1
1
1
1
1
1
1
1
1
1
1
1
1
1
1
1
1
1
1
1
1
1
1
1
1
1
1
1
1
1
1
1
1
1
1
1
1
1
1
1
1
1
1
1
1
1
1
1
1
1
1
1
1
1
1
1
1
1
1
1
1
1
1
1
1
1
1
1
1
1
1
1
1
1
1
1
1
1
0.445115
0.403547
0.350273
0.30199
0.265135
0.237886
0.215967
0.199093
0.187822
0.182106
0.0129515
0.00212332
0.000298762
0.000293948
0.000268514
0.000206067
0.000145204
0.000104365
8.37576e-05
7.47369e-05
0.000150213
2.37228e-05
1.64824e-05
2.66939e-05
1.98083e-05
1.34779e-05
8.37031e-06
5.39623e-06
4.02596e-06
3.41631e-06
2.85545e-06
1.67037e-06
1.45672e-06
1.50441e-06
1.27739e-06
8.31727e-07
4.78511e-07
2.89822e-07
2.07487e-07
1.68783e-07
1.75907e-07
9.55311e-08
8.42732e-08
8.62802e-08
7.42818e-08
4.67638e-08
2.60314e-08
1.53244e-08
1.07588e-08
8.43042e-09
1.01758e-08
5.25054e-09
4.31249e-09
4.71269e-09
3.96264e-09
2.4602e-09
1.35219e-09
7.88445e-10
5.50398e-10
4.15609e-10
5.64322e-10
3.38825e-10
3.02676e-10
2.88571e-10
2.14997e-10
1.33813e-10
7.93018e-11
5.0101e-11
3.66189e-11
2.72656e-11
4.51915e-11
3.09317e-11
2.39175e-11
2.24547e-11
1.64132e-11
9.69637e-12
5.29944e-12
3.13291e-12
2.22356e-12
1.56931e-12
4.5164e-12
6.98084e-12
2.84248e-12
1.77054e-12
1.47102e-12
1.14219e-12
7.48176e-13
4.87081e-13
3.54573e-13
2.44942e-13
2.39118e-12
3.79946e-12
8.51427e-13
4.37623e-13
2.03373e-13
1.05253e-13
5.63275e-14
3.33735e-14
2.31169e-14
1.46933e-14
9.41764e-13
2.50765e-12
1.60854e-13
6.57921e-14
1.2499e-14
5.12991e-15
2.51852e-15
1.42909e-15
9.73088e-16
5.80465e-16
5.59635e-13
2.22859e-12
9.85906e-14
3.34455e-14
1.19293e-15
2.21138e-16
1.08509e-16
6.18713e-17
4.22417e-17
2.38162e-17
1
1
1
1
1
1
1
1
1
1
1
1
1
1
1
1
1
1
1
1
1
1
1
1
1
1
1
1
1
1
1
1
1
1
1
1
1
1
1
1
1
1
1
1
1
1
1
1
1
1
1
1
1
1
1
1
1
1
1
1
0.999999
1
1
1
1
1
1
1
1
1
1
1
1
1
1
1
1
1
1
1
0.730352
0.608146
0.483554
0.389828
0.318655
0.270267
0.238261
0.215579
0.200628
0.193173
0.154861
0.0744774
0.0125316
0.000445904
0.000320675
0.000280422
0.000207547
0.00014575
0.000110334
9.86057e-05
0.000258298
0.000130022
2.41581e-05
1.73594e-05
2.77211e-05
2.00347e-05
1.3413e-05
8.45748e-06
5.96143e-06
5.12278e-06
7.53976e-06
2.24694e-06
1.06093e-06
1.15898e-06
1.38542e-06
1.24505e-06
8.09387e-07
4.85853e-07
3.33084e-07
2.76635e-07
3.08264e-07
9.34593e-08
4.94404e-08
5.04228e-08
7.15662e-08
6.86373e-08
4.44415e-08
2.65297e-08
1.81589e-08
1.46095e-08
1.32349e-08
4.08067e-09
2.31831e-09
2.49396e-09
3.69268e-09
3.49868e-09
2.29339e-09
1.38174e-09
9.55816e-10
7.43132e-10
6.05034e-10
1.89454e-10
1.10295e-10
1.19095e-10
2.24652e-10
1.8573e-10
1.23686e-10
8.09488e-11
6.00399e-11
4.60002e-11
5.17229e-11
2.15812e-11
1.0861e-11
7.45051e-12
1.67669e-11
1.37852e-11
8.8157e-12
5.4315e-12
3.86641e-12
2.76928e-12
8.20701e-12
8.8541e-12
3.69861e-12
1.12734e-12
1.48342e-12
1.31258e-12
1.0419e-12
7.63929e-13
5.83495e-13
4.15006e-13
5.34022e-13
3.74456e-12
1.01127e-12
4.0846e-13
2.68091e-13
1.69206e-13
9.33582e-14
5.77694e-14
4.10873e-14
2.6563e-14
4.76412e-13
2.04356e-12
2.00167e-13
7.15109e-14
2.2316e-14
1.38959e-14
4.50184e-15
2.587e-15
1.77853e-15
1.06751e-15
4.72955e-13
1.645e-12
1.38881e-13
3.21748e-14
9.88203e-15
3.75661e-15
1.96388e-16
1.11342e-16
7.66644e-17
4.33727e-17
1
1
1
1
1
1
1
1
1
1
1
1
1
1
1
1
1
1
1
1
1
1
1
1
1
1
1
1
1
1
0.999999
1
1
1
1
1
1
1
1
1
0.999993
0.999999
1
1
1
1
1
1
1
1
0.999979
0.999996
1
1
1
1
1
1
1
1
0.999966
0.999993
1
1
1
1
1
1
1
1
0.999992
0.999999
1
1
1
1
1
1
1
1
0.965391
0.885255
0.718788
0.541515
0.414148
0.324997
0.269661
0.236868
0.216939
0.207078
0.297562
0.209819
0.115766
0.0263798
0.00104014
0.000330531
0.000278823
0.000206114
0.000154039
0.000136659
5.64966e-07
0.000166622
0.000101733
4.9048e-05
2.20815e-05
2.86746e-05
2.00901e-05
1.3638e-05
9.60572e-06
8.34106e-06
1.17997e-06
4.14173e-06
3.39323e-06
2.09424e-06
1.17317e-06
1.39181e-06
1.24785e-06
8.503e-07
5.95032e-07
5.04898e-07
3.62353e-07
1.17909e-07
1.15637e-07
8.74193e-08
5.74632e-08
6.98107e-08
6.90526e-08
4.81882e-08
3.45951e-08
2.86386e-08
1.40663e-08
4.17545e-09
4.41951e-09
3.69823e-09
2.75943e-09
3.52645e-09
3.53042e-09
2.54984e-09
1.8896e-09
1.51595e-09
9.07676e-10
2.218e-10
1.72893e-10
1.537e-10
1.84411e-10
2.16274e-10
1.8828e-10
1.38832e-10
1.09459e-10
8.62154e-11
3.52829e-10
6.39394e-11
6.99296e-12
6.87921e-12
5.2059e-11
1.54237e-11
1.40007e-11
1.0129e-11
7.78874e-12
5.72887e-12
3.16156e-10
5.44503e-11
3.37561e-13
5.99188e-13
4.29755e-11
1.82371e-12
1.3221e-12
1.17857e-12
1.01591e-12
7.60495e-13
3.18563e-10
3.23813e-11
5.88118e-14
1.68357e-13
3.42891e-11
7.84584e-13
1.66858e-13
1.10557e-13
8.30301e-14
5.51469e-14
6.9699e-10
4.92999e-11
4.57501e-14
5.32649e-14
2.58349e-11
3.82598e-13
1.05997e-14
5.42612e-15
3.84845e-15
2.33123e-15
3.93727e-10
5.50556e-11
4.36028e-14
3.37548e-14
1.98557e-11
2.60031e-13
1.5412e-15
2.35868e-16
1.64728e-16
9.36709e-17
1
1
1
1
1
1
1
1
1
1
1
1
1
1
1
1
1
1
1
1
0.999997
1
1
1
1
1
1
1
1
1
0.999958
0.999993
0.999999
1
1
1
1
1
1
1
0.999795
0.999957
0.999996
1
1
1
1
1
1
1
0.999386
0.999872
0.999989
0.999999
1
1
1
1
1
1
0.998306
0.999762
0.999982
0.999999
1
1
1
1
1
1
0.999551
0.99993
0.999996
1
1
1
1
1
1
1
0.815808
0.943644
0.922835
0.771124
0.562356
0.41325
0.317431
0.263424
0.235565
0.222905
0.157115
0.215548
0.221676
0.146408
0.0348468
0.00100033
0.000307718
0.000263915
0.000214639
0.000203649
3.91575e-07
4.39433e-07
0.000203582
0.000238315
7.47429e-05
2.17249e-05
2.7164e-05
2.00872e-05
1.57203e-05
1.5192e-05
2.25593e-07
5.38889e-07
4.96111e-06
8.94729e-06
3.25244e-06
1.16749e-06
1.35234e-06
1.28782e-06
1.10102e-06
1.05804e-06
1.00697e-06
2.77488e-07
1.35877e-07
3.61308e-07
1.38589e-07
5.62877e-08
6.86895e-08
7.57951e-08
6.91377e-08
6.54018e-08
5.66691e-08
9.34666e-10
5.61636e-09
4.62588e-08
7.47418e-09
2.68451e-09
3.60952e-09
4.08184e-09
3.95114e-09
3.62966e-09
4.79955e-09
3.98464e-11
6.05133e-10
3.60871e-08
1.82459e-09
1.28752e-10
2.24498e-10
2.2389e-10
2.12632e-10
1.86026e-10
4.75322e-09
8.72278e-12
3.98464e-11
6.56312e-08
1.60002e-09
5.35899e-12
1.54307e-11
1.7223e-11
1.66012e-11
1.35649e-11
3.6157e-09
4.66407e-12
6.44767e-12
6.93563e-08
2.05022e-09
2.6241e-13
1.23353e-12
1.52192e-12
1.42911e-12
1.14933e-12
1.41673e-08
2.38896e-12
3.37561e-13
6.50229e-08
1.88884e-09
3.7938e-14
3.69021e-13
2.19881e-13
1.79382e-13
1.25511e-13
2.07125e-08
2.19188e-12
5.88118e-14
5.66839e-08
1.53745e-09
2.62449e-14
1.02578e-13
1.50679e-14
9.67958e-15
6.08168e-15
2.07644e-08
2.75186e-12
4.57501e-14
4.91697e-08
1.24536e-09
2.42622e-14
6.86635e-14
2.48901e-15
4.05662e-16
2.35904e-16
1
1
1
1
1
1
1
1
1
1
0.999997
1
1
1
1
1
1
1
1
1
0.999921
0.999988
0.999999
1
1
1
1
1
1
1
0.999117
0.999829
0.999985
0.999999
1
1
1
1
1
1
0.95086
0.998902
0.999908
0.999994
1
1
1
1
1
1
0.763539
0.95473
0.999726
0.999984
0.999999
1
1
1
1
1
0.55958
0.859495
0.999529
0.999975
0.999999
1
1
1
1
1
0.619559
0.923029
0.999855
0.999995
1
1
1
1
1
1
0.0608552
0.379133
0.864789
0.934815
0.769147
0.538127
0.386989
0.299545
0.256033
0.239007
3.91576e-07
6.80865e-05
0.14622
0.240772
0.146416
0.0257334
0.000379472
0.000271963
0.000279927
0.000316877
2.39077e-07
3.88595e-07
1.5621e-05
0.00044311
0.000262218
5.24117e-05
1.56237e-05
2.56548e-05
2.60285e-05
3.01179e-05
6.60765e-08
2.02924e-07
3.55899e-06
1.54459e-05
1.03685e-05
2.27221e-06
1.0936e-06
1.45756e-06
1.90663e-06
2.4872e-06
5.4919e-08
6.05299e-08
4.03138e-06
7.47065e-07
3.747e-07
9.35098e-08
4.54134e-08
8.36505e-08
1.31186e-07
1.70128e-07
4.24368e-09
6.49345e-09
1.03867e-05
2.82217e-07
1.39918e-08
4.08983e-09
2.32374e-09
4.64586e-09
7.92078e-09
9.99232e-09
1.98747e-09
6.05099e-10
1.38021e-05
1.11286e-06
5.60064e-10
1.69471e-10
1.35844e-10
2.9213e-10
4.37092e-10
5.26883e-10
9.30231e-10
3.98464e-11
1.35949e-05
1.31583e-06
4.14983e-11
7.05643e-12
1.32039e-11
2.28129e-11
3.3754e-11
3.45326e-11
9.23424e-10
8.72278e-12
1.23398e-05
1.28845e-06
7.06032e-12
3.24213e-13
3.14233e-12
2.00835e-12
2.09298e-12
2.00525e-12
8.99107e-10
4.66407e-12
1.13261e-05
1.18544e-06
3.24213e-13
4.24147e-14
7.89827e-13
5.25793e-13
4.00049e-13
3.10525e-13
5.7885e-10
4.24327e-12
1.05472e-05
1.09943e-06
4.24147e-14
2.89875e-14
2.68342e-13
1.13843e-13
2.77558e-14
1.81389e-14
1.86944e-10
4.84655e-12
9.56947e-06
1.0419e-06
2.89875e-14
2.70487e-14
2.39091e-13
7.1976e-14
2.20715e-15
6.84059e-16
0.999997
1
1
1
1
1
1
1
1
1
0.999952
0.999964
0.999998
1
1
1
1
1
1
1
0.994619
0.998388
0.999886
0.999999
1
1
1
1
1
1
0.789352
0.961134
0.998908
0.999985
0.999999
1
1
1
1
1
0.330855
0.703003
0.988154
0.999912
0.999996
1
1
1
1
1
0.0618884
0.347168
0.917861
0.999742
0.99999
1
1
1
1
1
0.00623184
0.158133
0.807656
0.999565
0.999984
1
1
1
1
1
0.00314288
0.180652
0.901711
0.999869
0.999997
1
1
1
1
1
6.12407e-05
0.000113042
0.207793
0.869218
0.920247
0.711217
0.476464
0.345411
0.279701
0.253806
7.25333e-07
4.56247e-05
0.000109073
0.153199
0.22225
0.112062
0.0107609
0.00026237
0.000327735
0.000454971
5.36199e-06
0.000384579
4.89967e-05
0.000121366
0.000261882
0.000103272
2.09358e-05
1.37682e-05
3.67688e-05
5.4098e-05
1.78657e-05
0.000460325
9.33418e-05
3.87786e-06
8.04263e-06
3.53449e-06
9.11693e-07
1.30761e-06
2.99649e-06
5.38544e-06
1.43085e-05
0.000246033
8.90063e-05
1.32713e-07
2.30434e-07
1.20244e-07
4.16782e-08
7.71179e-08
2.11069e-07
4.13662e-07
9.78389e-06
0.000212155
8.64558e-05
3.04871e-08
8.48334e-09
4.86359e-09
2.07973e-09
4.13573e-09
1.36206e-08
2.58734e-08
1.12614e-05
0.000181843
7.39934e-05
8.48358e-09
3.26635e-10
1.94343e-10
1.07973e-10
2.90858e-10
7.82256e-10
1.40884e-09
8.85767e-06
0.000139457
6.56805e-05
3.26636e-10
1.4218e-11
1.10116e-11
1.29053e-11
2.34676e-11
6.1451e-11
8.13607e-11
1.57275e-05
0.000146987
6.0282e-05
1.4218e-11
1.33997e-12
3.59596e-12
5.5878e-12
3.86082e-12
4.11133e-12
5.24342e-12
7.03341e-05
0.000244495
5.92991e-05
1.33997e-12
6.89104e-13
1.57176e-12
1.74095e-12
1.4345e-12
9.16749e-13
7.24243e-13
0.000125103
0.000439694
6.05273e-05
7.42893e-13
6.07844e-13
1.16538e-12
5.92169e-13
6.33642e-13
9.6088e-14
4.98863e-14
0.000147401
0.000609207
6.03255e-05
7.16021e-13
6.3643e-13
9.4745e-13
4.50358e-13
4.9688e-13
2.60292e-14
2.17261e-15
0.999952
0.999994
1
1
1
1
1
1
1
1
0.998634
0.999493
0.999965
1
1
1
1
1
1
1
0.771598
0.954001
0.998757
0.999988
1
1
1
1
1
1
0.176939
0.542619
0.965875
0.999843
0.999993
1
1
1
1
1
0.0446863
0.091722
0.717294
0.999124
0.999961
0.999999
1
1
1
1
0.0443324
0.0195109
0.370019
0.962419
0.999888
0.999997
1
1
1
1
0.158556
0.0138064
0.179861
0.880514
0.999797
0.999994
1
1
1
1
0.20486
0.0074871
0.199321
0.936697
0.999941
0.999999
1
1
1
1
0.190969
0.00602817
0.000164443
0.408464
0.950173
0.875061
0.590403
0.39299
0.303065
0.266242
0.12836
0.00262883
7.86524e-05
0.00215064
0.222524
0.202895
0.0627613
0.00104066
0.000372057
0.000575324
0.00980367
0.00370408
3.70836e-05
5.15749e-07
4.42579e-07
0.000131667
0.000134774
2.74089e-05
4.15283e-05
8.10678e-05
1.06397e-05
0.00347344
4.16029e-05
4.69194e-07
8.61256e-07
3.2354e-06
1.44024e-06
1.37716e-06
4.00743e-06
9.36811e-06
4.40412e-05
0.000566499
4.6178e-05
2.2591e-06
2.03037e-07
9.07311e-08
5.89688e-08
8.1715e-08
3.19357e-07
8.09507e-07
0.000124866
2.12894e-05
2.37289e-05
1.85089e-06
8.83851e-10
3.33631e-09
2.74789e-09
4.11736e-09
2.00539e-08
5.39442e-08
0.00023893
0.000832293
7.84885e-06
2.1066e-06
4.14014e-11
1.30495e-10
1.29615e-10
3.01739e-10
1.19451e-09
3.0289e-09
0.00254799
0.010381
7.77236e-07
1.83354e-06
2.6548e-12
6.45931e-12
1.55001e-11
2.89641e-11
9.33123e-11
1.57355e-10
0.00602092
0.0140196
3.65033e-06
1.2697e-06
7.89555e-13
1.35706e-12
8.22218e-12
8.2045e-12
6.97765e-12
1.13281e-11
0.00720615
0.014038
1.31172e-05
2.07181e-07
6.97501e-13
1.08743e-12
2.96794e-12
4.00173e-12
1.85292e-12
1.19495e-12
0.00352678
0.0140127
3.98971e-05
6.97501e-13
6.9337e-13
1.05322e-12
1.7703e-12
2.43062e-12
3.02853e-13
1.15386e-13
0.00129472
0.0138558
0.000156464
6.9337e-13
6.9337e-13
1.07036e-12
1.73477e-12
2.02467e-12
1.36996e-13
9.23165e-15
0.999469
0.999955
0.999997
1
1
1
1
1
1
1
0.976657
0.999066
0.999955
0.999997
1
1
1
1
1
1
0.464886
0.801318
0.997078
0.99993
0.999997
1
1
1
1
1
0.118536
0.201038
0.825562
0.999239
0.999964
0.999999
1
1
1
1
0.10725
0.0468366
0.382839
0.96615
0.999827
0.999994
1
1
1
1
0.235608
0.0418757
0.0929109
0.811926
0.999494
0.999983
1
1
1
1
0.23526
0.163171
0.00750039
0.637196
0.999184
0.999973
0.999999
1
1
1
0.226911
0.207222
0.00350394
0.674271
0.99963
0.999993
1
1
1
1
0.074203
0.195415
0.000172174
0.0925011
0.850428
0.954964
0.700495
0.427551
0.316759
0.273155
0.00545965
0.134836
4.82813e-05
5.41438e-07
0.183349
0.286505
0.136325
0.00862051
0.000482632
0.000645491
0.00260293
0.0143231
6.36378e-07
5.17837e-07
5.41437e-07
6.33891e-07
0.000351003
0.000190402
4.37853e-05
9.82905e-05
0.00134767
8.81548e-06
8.18007e-07
3.07577e-07
6.38437e-07
2.3075e-06
5.47479e-06
2.16446e-06
4.6904e-06
1.24971e-05
0.000620314
0.000205888
5.57332e-07
2.87569e-07
8.19814e-07
3.11759e-07
2.23887e-07
1.41138e-07
4.26712e-07
1.17708e-06
0.000283855
0.000105899
2.13716e-07
2.01866e-07
4.78526e-08
1.14822e-08
9.66011e-09
8.1302e-09
2.71972e-08
8.24569e-08
0.000480912
0.000595262
1.39612e-07
1.63808e-07
3.31423e-09
5.2454e-10
4.57805e-10
4.87583e-10
1.60497e-09
4.73452e-09
0.000761556
0.00312196
5.33493e-08
5.30985e-08
3.51984e-09
1.26869e-11
4.14978e-11
4.09261e-11
1.22325e-10
2.40095e-10
0.000829784
0.0049986
1.10055e-08
3.40319e-09
9.12728e-09
1.7055e-12
1.48823e-11
5.07716e-12
9.83452e-12
1.7588e-11
0.000597614
0.00457894
3.29836e-06
5.21235e-10
2.17397e-08
1.11536e-12
5.63254e-12
2.52867e-12
2.78064e-12
1.25015e-12
0.000276799
0.00178652
9.03161e-05
2.34195e-10
2.21945e-08
1.06569e-12
3.47537e-12
8.41002e-13
5.38888e-13
2.14335e-13
0.00011433
0.000954017
0.000143085
1.60004e-10
2.13961e-08
1.07235e-12
2.67478e-12
5.83081e-13
2.80697e-13
4.33681e-14
0.99952
0.99996
0.999998
1
1
1
1
1
1
1
0.978985
0.999176
0.99996
0.999998
1
1
1
1
1
1
0.474868
0.813792
0.997575
0.999936
0.999997
1
1
1
1
1
0.11959
0.212867
0.837344
0.999294
0.999967
0.999999
1
1
1
1
0.108151
0.0456414
0.400412
0.9704
0.999839
0.999995
1
1
1
1
0.23576
0.0424976
0.107318
0.82513
0.99953
0.999984
1
1
1
1
0.235338
0.160358
0.0127921
0.655065
0.999235
0.999975
1
1
1
1
0.226659
0.206662
0.00420876
0.681878
0.999646
0.999994
1
1
1
1
0.0751966
0.195415
0.000150515
0.100254
0.85819
0.955415
0.698696
0.426769
0.316759
0.273095
0.00657441
0.14396
9.93699e-07
5.3567e-07
0.18823
0.29109
0.138506
0.00878796
0.000490995
0.000652001
0.00310067
0.0182776
5.35668e-07
4.91708e-07
5.35668e-07
6.5308e-07
0.000356696
0.000221119
4.3479e-05
0.000100164
0.00163261
7.55868e-07
4.5826e-07
2.86385e-07
9.06957e-07
3.11639e-06
5.9945e-06
2.33587e-06
4.72552e-06
1.2921e-05
0.000509436
5.8021e-07
2.91527e-07
2.69624e-07
8.96009e-07
3.30066e-07
2.44248e-07
1.48964e-07
4.37198e-07
1.23347e-06
0.000243572
1.10538e-05
2.21537e-07
2.0853e-07
5.29951e-08
1.15827e-08
1.05223e-08
8.70043e-09
2.79084e-08
8.70853e-08
0.000543258
0.000586776
2.1307e-07
2.22061e-07
2.35929e-09
5.17414e-10
4.98651e-10
5.10111e-10
1.64653e-09
5.01626e-09
0.000707317
0.00244426
1.49944e-07
1.96212e-07
2.09866e-09
1.33819e-11
4.40212e-11
4.25425e-11
1.25068e-10
2.5476e-10
0.000832017
0.00503341
8.41965e-08
1.38978e-07
8.45814e-09
1.77421e-12
1.49757e-11
4.95623e-12
1.00951e-11
1.85694e-11
0.000801419
0.00632509
3.18584e-08
4.49706e-08
2.44762e-08
1.14381e-12
5.2851e-12
2.4595e-12
2.85827e-12
1.28561e-12
0.000430385
0.00323622
2.78354e-09
5.61074e-10
2.78715e-08
1.10045e-12
2.87646e-12
8.65849e-13
5.51951e-13
2.23737e-13
0.000155246
0.00127276
1.44523e-06
2.34434e-10
2.78323e-08
1.08321e-12
2.10476e-12
5.51403e-13
2.86892e-13
4.29862e-14
0.999958
0.999995
1
1
1
1
1
1
1
1
0.998897
0.999572
0.999971
1
1
1
1
1
1
1
0.793278
0.961155
0.998968
0.99999
1
1
1
1
1
1
0.194835
0.581423
0.97239
0.999861
0.999994
1
1
1
1
1
0.0459864
0.110417
0.747953
0.999209
0.999965
0.999999
1
1
1
1
0.0508689
0.0208578
0.407176
0.971108
0.999901
0.999997
1
1
1
1
0.17395
0.0143483
0.216426
0.902649
0.999825
0.999995
1
1
1
1
0.209588
0.0106555
0.235387
0.952551
0.999951
0.999999
1
1
1
1
0.201564
0.00959307
0.000176037
0.41572
0.954037
0.877311
0.591217
0.393414
0.303359
0.265926
0.150531
0.00968152
1.09047e-05
0.00271789
0.227575
0.208977
0.0657292
0.00120195
0.000378189
0.000591117
0.0226338
0.0116282
5.10494e-05
5.20639e-07
3.93925e-07
0.000166848
0.000165273
3.09197e-05
4.18236e-05
8.55274e-05
3.7279e-06
0.0106252
1.28573e-05
4.25612e-07
1.07518e-06
4.16135e-06
1.67367e-06
1.43608e-06
4.12638e-06
1.0122e-05
4.54294e-06
0.00130132
2.50941e-05
2.01022e-06
2.1641e-07
1.11784e-07
6.67917e-08
8.41435e-08
3.38708e-07
8.92269e-07
0.000137237
6.17637e-06
5.20939e-06
1.989e-06
1.08966e-09
4.12962e-09
3.13584e-09
4.22326e-09
2.12382e-08
6.01356e-08
0.000511776
0.00582078
2.73912e-07
2.08458e-06
9.95675e-11
1.60885e-10
1.47192e-10
3.16114e-10
1.26567e-09
3.39559e-09
0.00258739
0.0127546
2.36428e-07
1.91676e-06
3.55638e-12
7.90702e-12
1.71636e-11
3.01446e-11
9.83728e-11
1.73425e-10
0.00626273
0.0127606
4.54635e-06
1.65324e-06
1.27045e-12
1.58679e-12
8.89348e-12
8.00104e-12
7.40776e-12
1.26455e-11
0.00778199
0.0127688
4.35548e-06
1.2257e-06
1.16515e-12
1.25298e-12
3.42245e-12
3.69949e-12
1.96051e-12
1.21705e-12
0.00301876
0.0127395
3.30728e-07
5.73437e-07
1.16897e-12
1.14985e-12
1.94357e-12
2.20582e-12
3.07858e-13
1.26588e-13
0.00108606
0.0126122
7.65418e-09
1.02633e-12
1.13936e-12
3.11874e-12
1.811e-12
1.9472e-12
1.27524e-13
9.57566e-15
0.999998
1
1
1
1
1
1
1
1
1
0.999958
0.999971
0.999999
1
1
1
1
1
1
1
0.996161
0.998754
0.99991
0.999999
1
1
1
1
1
1
0.81371
0.969466
0.999223
0.999987
1
1
1
1
1
1
0.364244
0.740232
0.991934
0.999923
0.999997
1
1
1
1
1
0.0827639
0.394652
0.934851
0.999775
0.999991
1
1
1
1
1
0.00743213
0.203816
0.84628
0.999634
0.999987
1
1
1
1
1
0.00463001
0.225974
0.928108
0.999893
0.999997
1
1
1
1
1
0.00011649
0.000166196
0.213627
0.874094
0.919215
0.710141
0.476501
0.345642
0.279469
0.253125
7.57474e-07
2.02646e-05
0.000165248
0.152992
0.222318
0.112549
0.0110192
0.000261587
0.000330736
0.000470861
2.57641e-07
0.00012314
6.05103e-05
7.99754e-05
0.000281709
0.00011228
2.14936e-05
1.34587e-05
3.7681e-05
5.77672e-05
3.74179e-06
0.000137336
0.000116421
2.90122e-06
8.51222e-06
3.82531e-06
9.27199e-07
1.30568e-06
3.14833e-06
5.90533e-06
3.16528e-06
0.000149491
9.49586e-05
7.93638e-08
2.33643e-07
1.24778e-07
4.15286e-08
7.7703e-08
2.24482e-07
4.61887e-07
5.79562e-07
0.000130461
0.000101791
2.85434e-08
8.5005e-09
5.11575e-09
2.09134e-09
4.24707e-09
1.44425e-08
2.92048e-08
2.52011e-06
9.59264e-05
8.99846e-05
8.50068e-09
3.28653e-10
2.07877e-10
1.09692e-10
3.01913e-10
8.36986e-10
1.60036e-09
2.18627e-09
5.21761e-05
8.23397e-05
3.28653e-10
1.48798e-11
1.52993e-11
1.34296e-11
2.45113e-11
6.57616e-11
9.06554e-11
1.08936e-09
8.85758e-05
7.70793e-05
1.48798e-11
1.76053e-12
7.48768e-12
5.98435e-12
4.2619e-12
4.44771e-12
5.94882e-12
4.76614e-10
0.000145691
7.28743e-05
1.76053e-12
9.88754e-13
3.31987e-12
2.04641e-12
1.66747e-12
9.97066e-13
7.88539e-13
1.84826e-05
0.000213762
7.1064e-05
1.19504e-12
1.06831e-12
1.14939e-12
9.15353e-13
8.06841e-13
1.08885e-13
5.5811e-14
7.72283e-05
0.000277302
6.76908e-05
1.14874e-12
1.04926e-12
1.23061e-12
7.40832e-13
6.53389e-13
3.20383e-14
2.47264e-15
1
1
1
1
1
1
1
1
1
1
0.999998
1
1
1
1
1
1
1
1
1
0.999931
0.99999
0.999999
1
1
1
1
1
1
1
0.999216
0.999852
0.999987
0.999999
1
1
1
1
1
1
0.960468
0.99917
0.999921
0.999995
1
1
1
1
1
1
0.792106
0.967244
0.999768
0.999986
1
1
1
1
1
1
0.60651
0.892795
0.999617
0.999979
0.999999
1
1
1
1
1
0.650363
0.947186
0.999886
0.999996
1
1
1
1
1
1
0.0792002
0.398215
0.872034
0.931178
0.762983
0.535347
0.386017
0.298778
0.255086
0.238089
2.57641e-07
0.000998218
0.14917
0.236133
0.141634
0.0244604
0.000356687
0.00026763
0.000281798
0.000326707
1.9703e-07
2.18281e-07
7.55241e-06
0.000433152
0.000259557
5.02472e-05
1.49398e-05
2.55017e-05
2.68063e-05
3.19827e-05
5.44671e-08
1.27326e-07
1.40235e-06
1.48626e-05
1.01873e-05
2.18155e-06
1.04626e-06
1.45714e-06
1.96961e-06
2.6988e-06
7.05621e-08
5.43291e-08
3.13543e-07
6.59539e-07
3.51392e-07
8.74567e-08
4.34381e-08
8.4124e-08
1.37011e-07
1.8725e-07
8.41427e-09
7.96489e-09
7.76951e-06
2.22312e-07
1.33965e-08
3.87735e-09
2.22861e-09
4.74327e-09
8.34161e-09
1.11027e-08
2.72448e-09
7.53305e-10
1.11093e-05
1.10467e-06
5.34253e-10
1.61436e-10
1.36347e-10
2.98986e-10
4.63188e-10
5.8905e-10
7.86289e-10
5.27116e-11
1.05379e-05
1.37139e-06
3.9217e-11
7.03562e-12
1.40981e-11
2.33884e-11
3.58862e-11
3.81314e-11
4.01412e-10
1.36212e-11
9.19347e-06
1.3742e-06
7.03852e-12
4.6126e-13
4.13644e-12
2.11227e-12
2.23009e-12
2.22905e-12
1.34449e-10
8.88345e-12
8.52244e-06
1.28326e-06
4.6126e-13
1.55112e-13
1.53918e-12
6.13824e-13
4.29026e-13
3.40369e-13
9.10596e-11
7.66765e-12
7.75782e-06
1.17611e-06
1.55112e-13
1.35087e-13
8.91848e-13
1.75724e-13
3.09097e-14
2.00515e-14
7.71973e-11
6.71416e-12
7.14359e-06
1.08851e-06
1.35087e-13
1.2965e-13
7.96202e-13
1.24488e-13
3.20556e-15
7.60626e-16
1
1
1
1
1
1
1
1
1
1
1
1
1
1
1
1
1
1
1
1
0.999997
1
1
1
1
1
1
1
1
1
0.999963
0.999994
1
1
1
1
1
1
1
1
0.999818
0.999963
0.999997
1
1
1
1
1
1
1
0.999456
0.999892
0.999991
1
1
1
1
1
1
1
0.999116
0.999808
0.999986
0.999999
1
1
1
1
1
1
0.999601
0.999946
0.999997
1
1
1
1
1
1
1
0.83757
0.950728
0.921121
0.764182
0.557402
0.410713
0.315863
0.262031
0.234386
0.22191
0.173094
0.223978
0.222745
0.141934
0.032013
0.000891444
0.000301673
0.000262931
0.000214477
0.000207172
2.5764e-07
1.2496e-07
0.000240498
0.000243987
7.08108e-05
2.01949e-05
2.69426e-05
2.01517e-05
1.58744e-05
1.57798e-05
3.1476e-07
5.42547e-07
6.10512e-06
9.22661e-06
3.13797e-06
1.10063e-06
1.33869e-06
1.29164e-06
1.12328e-06
1.11628e-06
1.16194e-06
3.51223e-07
1.58727e-07
3.50641e-07
1.31112e-07
5.35438e-08
6.67571e-08
7.63339e-08
7.11432e-08
6.97766e-08
6.9752e-08
2.18257e-09
6.53347e-09
3.87497e-08
6.91735e-09
2.56759e-09
3.63796e-09
4.12924e-09
4.09458e-09
3.9023e-09
7.25495e-09
5.27114e-11
6.60183e-10
2.81036e-08
1.48589e-09
1.31586e-10
2.26222e-10
2.28936e-10
2.21689e-10
2.01077e-10
1.00028e-08
1.36366e-11
5.13899e-11
5.48601e-08
1.27175e-09
5.30459e-12
1.61191e-11
1.7675e-11
1.73781e-11
1.46171e-11
1.12322e-08
9.10622e-12
8.13679e-12
5.81502e-08
1.78244e-09
3.65756e-13
1.52379e-12
1.57195e-12
1.45007e-12
1.14818e-12
8.36689e-09
4.78416e-12
4.65287e-13
5.56453e-08
1.71029e-09
1.42379e-13
5.85181e-13
2.37445e-13
1.88678e-13
1.34348e-13
1.0797e-08
5.50636e-12
1.3902e-13
4.9957e-08
1.45943e-09
1.27054e-13
2.88801e-13
2.33124e-14
1.03202e-14
6.63007e-15
9.18807e-09
3.4402e-12
1.22379e-13
4.39254e-08
1.23012e-09
1.21592e-13
2.39235e-13
9.05957e-15
4.7708e-16
2.5436e-16
1
1
1
1
1
1
1
1
1
1
1
1
1
1
1
1
1
1
1
1
1
1
1
1
1
1
1
1
1
1
0.999999
1
1
1
1
1
1
1
1
1
0.999994
0.999999
1
1
1
1
1
1
1
1
0.999982
0.999997
1
1
1
1
1
1
1
1
0.999971
0.999995
1
1
1
1
1
1
1
1
0.999993
0.999999
1
1
1
1
1
1
1
1
0.961733
0.882905
0.714107
0.536978
0.411031
0.32285
0.267883
0.235414
0.215767
0.206041
0.299613
0.213662
0.115095
0.0248552
0.000897743
0.000322814
0.000277983
0.000205215
0.000153276
0.000137623
3.67655e-07
0.00019007
0.000112819
4.79746e-05
2.04478e-05
2.83899e-05
2.01235e-05
1.36452e-05
9.63817e-06
8.52003e-06
1.95539e-06
4.82225e-06
3.82496e-06
2.06655e-06
1.11116e-06
1.37485e-06
1.25269e-06
8.54857e-07
6.02137e-07
5.21814e-07
3.76822e-07
1.37338e-07
1.28488e-07
8.53234e-08
5.44845e-08
6.72521e-08
6.95563e-08
4.86642e-08
3.52735e-08
2.98683e-08
1.43286e-08
4.82146e-09
4.98793e-09
3.66182e-09
2.64467e-09
3.56524e-09
3.56855e-09
2.58767e-09
1.93898e-09
1.59192e-09
9.77229e-10
2.092e-10
1.971e-10
1.53254e-10
1.82521e-10
2.18693e-10
1.91497e-10
1.41577e-10
1.12819e-10
9.05359e-11
4.04999e-10
2.46685e-11
8.13665e-12
7.01286e-12
4.78388e-11
1.63976e-11
1.43146e-11
1.03803e-11
8.07688e-12
6.05869e-12
5.45843e-10
1.30998e-11
4.65285e-13
7.07005e-13
3.88497e-11
2.4034e-12
1.36498e-12
1.20891e-12
1.0509e-12
7.94836e-13
3.27985e-10
2.68996e-11
1.3902e-13
2.62664e-13
3.22452e-11
1.29796e-12
1.88483e-13
1.14501e-13
8.67032e-14
5.83749e-14
8.21503e-10
3.37699e-11
1.22379e-13
1.3902e-13
2.55715e-11
8.44597e-13
2.48081e-14
5.79105e-15
4.02971e-15
2.47754e-15
6.23919e-10
2.51024e-11
1.19283e-13
1.214e-13
2.09391e-11
6.82577e-13
1.32841e-14
3.9608e-16
1.72439e-16
9.91402e-17
1
1
1
1
1
1
1
1
1
1
1
1
1
1
1
1
1
1
1
1
1
1
1
1
1
1
1
1
1
1
1
1
1
1
1
1
1
1
1
1
1
1
1
1
1
1
1
1
1
1
1
1
1
1
1
1
1
1
1
1
0.999999
1
1
1
1
1
1
1
1
1
1
1
1
1
1
1
1
1
1
1
0.715234
0.600277
0.479605
0.386981
0.316327
0.268212
0.236572
0.214226
0.199483
0.192124
0.149555
0.0724276
0.011978
0.00039074
0.000309893
0.000278704
0.000206835
0.000144993
0.000109859
9.90334e-05
0.000356687
0.000174791
2.38108e-05
1.60764e-05
2.72912e-05
2.00733e-05
1.34482e-05
8.46523e-06
5.98106e-06
5.20643e-06
7.55007e-06
2.34868e-06
1.05017e-06
1.10592e-06
1.36386e-06
1.25083e-06
8.15731e-07
4.89184e-07
3.36815e-07
2.83895e-07
3.13653e-07
9.86955e-08
4.88775e-08
4.73168e-08
6.87414e-08
6.9345e-08
4.50118e-08
2.68648e-08
1.84923e-08
1.51124e-08
1.36315e-08
4.34228e-09
2.33195e-09
2.38393e-09
3.74679e-09
3.55226e-09
2.33458e-09
1.40666e-09
9.79372e-10
7.73637e-10
6.24825e-10
2.05227e-10
1.12464e-10
1.20936e-10
2.28358e-10
1.90013e-10
1.263e-10
8.26952e-11
6.17428e-11
4.7899e-11
4.13172e-11
2.43576e-11
1.16085e-11
7.82744e-12
1.73649e-11
1.42098e-11
9.05231e-12
5.58053e-12
4.00063e-12
2.90222e-12
1.53609e-12
1.05353e-11
4.31476e-12
1.44973e-12
1.88819e-12
1.37884e-12
1.06702e-12
7.86089e-13
6.04275e-13
4.33455e-13
4.17946e-13
5.03457e-12
1.40794e-12
5.53128e-13
5.57341e-13
2.05679e-13
9.67703e-14
5.98083e-14
4.27784e-14
2.78967e-14
3.62277e-13
3.27651e-12
4.37053e-13
1.77924e-13
2.55652e-13
3.84352e-14
4.94047e-15
2.68316e-15
1.85341e-15
1.1223e-15
3.57064e-13
2.88302e-12
3.54154e-13
1.22984e-13
2.15143e-13
2.35036e-14
4.44197e-16
1.16952e-16
7.96712e-17
4.54447e-17
1
1
1
1
1
1
1
1
1
1
1
1
1
1
1
1
1
1
1
1
1
1
1
1
1
1
1
1
1
1
1
1
1
1
1
1
1
1
1
1
1
1
1
1
1
1
1
1
1
1
1
1
1
1
1
1
1
1
1
1
1
1
1
1
1
1
1
1
1
1
1
1
1
1
1
1
1
1
1
1
0.435971
0.398322
0.347433
0.299725
0.262951
0.236014
0.214452
0.197824
0.186705
0.181063
0.0109392
0.00175939
0.000284308
0.000282582
0.000265552
0.000205144
0.000144644
0.000103906
8.34928e-05
7.47784e-05
0.000254149
3.18558e-05
1.5347e-05
2.62846e-05
1.99575e-05
1.35459e-05
8.40817e-06
5.41307e-06
4.04511e-06