/*--------------------------------*- C++ -*----------------------------------*\
| =========                 |                                                 |
| \\      /  F ield         | OpenFOAM: The Open Source CFD Toolbox           |
|  \\    /   O peration     | Version:  2312                                  |
|   \\  /    A nd           | Website:  www.openfoam.com                      |
|    \\/     M anipulation  |                                                 |
\*---------------------------------------------------------------------------*/
FoamFile
{
    version     2.0;
    format      ascii;
    arch        "LSB;label=32;scalar=64";
    class       volVectorField;
    location    "0.86";
    object      U;
}
// * * * * * * * * * * * * * * * * * * * * * * * * * * * * * * * * * * * * * //

dimensions      [0 1 -1 0 0 0 0];

internalField   nonuniform List<vector> 
8000
(
(0.00425342 0.00050419 0.000494602)
(-0.000997559 0.00079405 0.000676355)
(-0.00679133 0.000756804 0.00107333)
(-0.0124851 0.000326535 0.00143114)
(-0.017267 -0.000497394 0.00159923)
(-0.0204942 -0.00168404 0.00152787)
(-0.0211154 -0.00330313 0.00115494)
(-0.0175398 -0.00560922 0.000778616)
(-0.00932291 -0.00780315 0.00130199)
(-0.00183332 -0.00654733 0.00280712)
(0.00528239 0.00183002 0.000861009)
(0.000194189 0.00291362 0.000833003)
(-0.00548103 0.00264401 0.000950108)
(-0.0107557 0.0014609 0.00108118)
(-0.0154982 -0.0003752 0.00109726)
(-0.0193396 -0.00271002 0.000651613)
(-0.0214258 -0.00635152 -0.000716714)
(-0.019281 -0.0128021 -0.00231626)
(-0.0102519 -0.0200387 -0.00117766)
(-0.000956327 -0.0168466 0.00289996)
(0.00671503 0.000895077 0.00346563)
(0.000821203 0.00369418 0.00278427)
(-0.00633554 0.00397382 0.00243597)
(-0.0127145 0.00267556 0.00216054)
(-0.0184106 0.000648102 0.00162603)
(-0.0238057 -0.00134296 -3.52229e-05)
(-0.0293362 -0.0053932 -0.0031556)
(-0.0314872 -0.0178097 -0.00390589)
(-0.0208084 -0.0375369 0.00330716)
(-0.00421569 -0.0295791 0.00842868)
(0.0100622 -0.0056919 0.0108574)
(0.00532783 0.00349138 0.00812345)
(-0.0042538 0.00441044 0.00645203)
(-0.0125687 0.00253346 0.00561049)
(-0.0193139 0.000835487 0.00408122)
(-0.0263725 0.00160067 0.00106679)
(-0.0384766 -0.00227842 -0.000596746)
(-0.0480033 -0.033295 0.00668513)
(-0.037784 -0.0865995 0.0206359)
(-0.0154974 -0.0678194 0.0172888)
(0.00610816 -0.0312898 0.0138313)
(0.00674776 -0.00847456 0.0140279)
(-0.00309191 0.000475206 0.0143908)
(-0.00987176 0.000280665 0.0149834)
(-0.0111695 -7.67021e-05 0.0132601)
(-0.0166905 0.00492974 0.00893699)
(-0.0329667 -0.00505105 0.0110599)
(-0.0453712 -0.0681178 0.024691)
(-0.0564094 -0.161341 0.0364156)
(-0.0326705 -0.14186 0.0189403)
(0.00554673 -0.0541402 0.00502428)
(-0.000137979 -0.0304263 0.00313773)
(-0.0108445 -0.0184697 0.00443879)
(-0.0125545 -0.0271378 0.00626473)
(-0.00473606 -0.0301404 0.0114977)
(0.00163319 -0.0146985 0.0186384)
(-0.00105442 -0.0303704 0.0238602)
(-0.0189644 -0.113813 0.0354889)
(-0.0755683 -0.252903 0.036049)
(-0.0484667 -0.24422 0.00967862)
(0.0163328 -0.0626842 -0.00452862)
(0.00989616 -0.0352745 -0.0103297)
(0.00321467 -0.0248497 -0.0182123)
(0.00651272 -0.0427905 -0.0299135)
(0.00366903 -0.0668253 -0.01721)
(0.00542356 -0.0715299 0.0151993)
(0.0122155 -0.0916823 0.0241836)
(0.0223896 -0.157502 0.00958598)
(-0.023847 -0.267937 -0.0233742)
(-0.020924 -0.343391 0.0048708)
(0.000737424 -0.0605438 -0.0433008)
(0.0109679 -0.0222253 -0.0437996)
(0.0301145 -0.00670493 -0.0504009)
(0.0453477 -0.0126086 -0.063195)
(0.0157656 -0.052212 -0.04076)
(-0.0122409 -0.0965124 -0.00761076)
(-0.00228606 -0.132503 -0.0318038)
(0.150284 -0.0543276 -0.164091)
(0.198879 0.102125 -0.227882)
(0.0994648 -0.246409 -0.0221495)
(-0.0905941 -0.0704755 -0.0542782)
(-0.0672535 -0.0514811 -0.0599141)
(-0.0306281 -0.0361082 -0.0455894)
(0.00147812 -0.0119107 -0.0180946)
(0.0143057 0.00301346 0.0022885)
(0.0710714 0.022188 -0.0214164)
(-0.0850618 -0.106681 -0.160844)
(-0.0552263 0.136305 -0.201914)
(-0.0103311 0.260015 -0.08609)
(0.0967298 -0.0362256 0.00955221)
(-0.336456 -0.12741 0.123214)
(-0.333642 -0.157747 0.100738)
(-0.27358 -0.160101 0.0686563)
(-0.252487 -0.161008 0.0376677)
(-0.311098 -0.137649 -0.000120265)
(-0.280487 0.183257 -0.0285518)
(-0.217645 0.191271 -0.0985805)
(-0.113419 0.245136 -0.150949)
(-0.051972 0.203651 -0.133861)
(0.129862 -0.00511209 -0.024329)
(-0.378168 -0.231221 0.0605338)
(-0.366044 -0.263068 -0.00150925)
(-0.312024 -0.233692 -0.0479306)
(-0.277058 -0.168258 -0.0635627)
(-0.245035 -0.0822014 -0.0612334)
(-0.192911 0.0292306 -0.0558026)
(-0.143459 0.136156 -0.0765879)
(-0.0507354 0.262815 -0.137303)
(-0.022095 0.229633 -0.182081)
(0.146472 0.097296 -0.0167678)
(-0.313139 -0.182713 -0.0747174)
(-0.260073 -0.184531 -0.0974382)
(-0.210541 -0.158649 -0.105915)
(-0.169509 -0.121716 -0.115462)
(-0.113161 -0.076507 -0.115055)
(-0.0158262 -0.00640609 -0.0948469)
(-0.0147268 0.099894 -0.0873911)
(0.0316959 0.25068 -0.121693)
(0.041164 0.291171 -0.151629)
(0.138495 0.193986 0.0238709)
(-0.291169 -0.0933664 -0.107049)
(-0.224525 -0.113324 -0.0901246)
(-0.187982 -0.0938016 -0.0704832)
(-0.146496 -0.0850193 -0.0651492)
(-0.0617547 -0.0857023 -0.048286)
(0.0581615 -0.040224 -0.00790566)
(0.0962813 0.0906712 -0.0227356)
(0.0807212 0.240225 -0.0705659)
(0.0825088 0.321051 -0.108954)
(0.121507 0.257256 0.0335442)
(-0.290924 0.0011313 -0.0598889)
(-0.246708 -0.025988 -0.0433792)
(-0.219112 -0.0769556 -0.0400733)
(-0.133575 -0.163058 -0.0177526)
(-0.00401792 -0.226854 0.0321586)
(0.122661 -0.195122 0.0941564)
(0.17671 -0.0230859 0.12071)
(0.116909 0.171083 0.0480932)
(0.0893348 0.317275 -0.0524525)
(0.0992488 0.291109 0.0316707)
(-0.326692 0.0587402 -0.038057)
(-0.29865 -0.02389 -0.0468311)
(-0.231917 -0.161429 -0.0402657)
(-0.113707 -0.303279 -0.00548265)
(0.0162149 -0.382057 0.0142091)
(0.142375 -0.370971 0.0609706)
(0.218271 -0.237146 0.141055)
(0.157597 0.00657521 0.145643)
(0.0751368 0.234844 0.0263749)
(0.0772124 0.283109 0.0311146)
(-0.370144 0.100917 -0.0584643)
(-0.338845 -0.0533808 -0.0692366)
(-0.255884 -0.24998 -0.0342615)
(-0.163194 -0.397451 -0.0296349)
(-0.0445703 -0.441835 -0.0594051)
(0.0858711 -0.446857 -0.0373258)
(0.175498 -0.410516 0.0446845)
(0.171664 -0.207592 0.132247)
(0.0680689 0.0739478 0.10392)
(0.0463571 0.224588 0.0481262)
(-0.41274 0.120107 -0.0844856)
(-0.378448 -0.0894076 -0.0554335)
(-0.336483 -0.300767 -0.0279095)
(-0.2753 -0.408126 -0.0719768)
(-0.142422 -0.432882 -0.116974)
(0.00503145 -0.462803 -0.102377)
(0.103563 -0.494399 -0.0452461)
(0.129687 -0.373605 0.0516675)
(0.0465261 -0.114436 0.118889)
(-0.00969171 0.126335 0.0758695)
(-0.420974 0.13522 -0.0743231)
(-0.410229 -0.104929 -0.0151681)
(-0.429976 -0.304329 -0.0178505)
(-0.385411 -0.38524 -0.0873024)
(-0.245142 -0.402724 -0.132858)
(-0.0894367 -0.448433 -0.13715)
(0.0311614 -0.499882 -0.112761)
(0.0982582 -0.457719 -0.0454754)
(0.0793579 -0.273654 0.0366718)
(-0.0247837 -0.0341662 0.0849939)
(-0.329011 0.141564 -0.0129861)
(-0.370123 -0.1009 0.0453045)
(-0.488374 -0.279756 0.00808808)
(-0.475447 -0.353196 -0.0720249)
(-0.348856 -0.367042 -0.127889)
(-0.193728 -0.405612 -0.16019)
(-0.0419625 -0.451169 -0.166265)
(0.0629264 -0.437017 -0.135066)
(0.119193 -0.328934 -0.0625809)
(0.040601 -0.140097 0.0524881)
(-0.178528 0.1088 0.0481112)
(-0.32696 -0.085683 0.0853726)
(-0.533331 -0.243002 0.0324574)
(-0.541293 -0.326926 -0.058859)
(-0.42994 -0.341088 -0.122222)
(-0.275989 -0.357682 -0.163261)
(-0.106602 -0.376881 -0.190872)
(0.0329472 -0.374126 -0.182861)
(0.133743 -0.297037 -0.111723)
(0.113339 -0.1544 0.0181298)
(0.00402711 0.000198649 0.00665191)
(-0.00353851 0.000362001 0.00676096)
(-0.0109711 6.38513e-05 0.00721667)
(-0.0174759 -0.000606 0.00759605)
(-0.0226204 -0.00171369 0.00787778)
(-0.0258828 -0.00350634 0.00801566)
(-0.025725 -0.0063118 0.00794435)
(-0.019789 -0.00981933 0.00813373)
(-0.00816272 -0.0114964 0.0099736)
(-0.000306438 -0.00751794 0.0115219)
(0.00510459 -0.000553739 0.00762563)
(-0.00211927 0.000851208 0.00721153)
(-0.00955624 0.00044029 0.00722898)
(-0.0163686 -0.00108756 0.00732522)
(-0.0223808 -0.00355805 0.00728402)
(-0.0275604 -0.00779885 0.00660998)
(-0.0302015 -0.0157395 0.00551422)
(-0.0257385 -0.0273749 0.00710734)
(-0.0101201 -0.0336241 0.0127763)
(0.00272571 -0.0191807 0.0132087)
(0.00638106 -0.00239182 0.0129935)
(-0.00338216 0.000716179 0.0108401)
(-0.0130664 0.000821909 0.00986798)
(-0.021313 -0.000823083 0.00918052)
(-0.0293969 -0.00374741 0.00788439)
(-0.0386829 -0.00922239 0.00593965)
(-0.0485224 -0.0242233 0.00850692)
(-0.05005 -0.0540093 0.0225014)
(-0.0278004 -0.074932 0.0374036)
(-0.000109261 -0.0329178 0.0272195)
(0.0105196 -0.00139809 0.0254111)
(-0.00059156 0.00537239 0.019643)
(-0.0139303 0.00367736 0.0162274)
(-0.0252338 0.000467989 0.013669)
(-0.0352575 -0.00200579 0.0105614)
(-0.0480805 -0.00748042 0.0108293)
(-0.0667699 -0.0352689 0.0253557)
(-0.0716545 -0.100798 0.0527319)
(-0.049081 -0.149018 0.0702177)
(-0.010276 -0.0711832 0.0452653)
(0.0122411 -0.0147809 0.0409838)
(0.00566912 0.00238418 0.0341217)
(-0.0114703 0.00507685 0.0300091)
(-0.023046 0.00426336 0.0264028)
(-0.0297084 0.0027427 0.0225818)
(-0.0406465 -0.00312843 0.0257811)
(-0.0561529 -0.0452681 0.0467578)
(-0.0625589 -0.144214 0.0787788)
(-0.0750122 -0.220559 0.087265)
(-0.0151821 -0.132715 0.0420361)
(0.00631951 -0.0232918 0.0393685)
(-0.00399855 0.00745369 0.0323647)
(-0.0164265 0.0128037 0.0289733)
(-0.0211067 0.00661716 0.0281995)
(-0.0210347 0.00119583 0.0324817)
(-0.0168503 -0.00853391 0.0423433)
(-0.00891011 -0.0576549 0.0630133)
(-0.0239878 -0.160469 0.0800289)
(-0.101214 -0.263524 0.0523317)
(-0.0276615 -0.197283 0.0269481)
(0.0134652 -0.0432795 0.0305421)
(-0.0060521 -0.0305443 0.0215505)
(-0.0166665 -0.0312364 0.015319)
(-0.0186136 -0.0292083 0.019043)
(-0.0191097 -0.0307419 0.0307262)
(-0.00311137 -0.0538852 0.0482296)
(0.0252739 -0.0934614 0.0528451)
(0.0538993 -0.125122 -0.0221234)
(-0.0613752 -0.173454 -0.133727)
(-0.0246793 -0.277606 -0.0215117)
(0.012877 -0.00488447 0.0305161)
(0.0108143 0.000104874 0.0204151)
(0.0130683 -0.0119385 0.0190002)
(0.0144706 -0.0241841 0.0326863)
(-0.00621942 -0.0417733 0.0286312)
(-0.00944411 -0.0806705 -0.00589115)
(0.0327336 -0.115145 -0.0923336)
(0.185202 -0.0077556 -0.332067)
(0.0721688 0.0412875 -0.366903)
(-0.000392381 -0.245151 -0.206981)
(-0.0972599 -0.0851818 0.104313)
(-0.0913094 -0.0794833 0.107083)
(-0.0736821 -0.0801286 0.101374)
(-0.0600488 -0.0734412 0.0878869)
(-0.0694799 -0.0586172 0.0157298)
(-0.0499853 -0.0826645 -0.237656)
(-0.0396067 -0.204032 -0.31497)
(0.00177158 0.0202616 -0.280911)
(-0.10036 0.159234 -0.104954)
(0.00225057 -0.0869977 -0.0643815)
(-0.376886 -0.122555 0.0915377)
(-0.344302 -0.169129 0.043808)
(-0.311498 -0.159274 0.0470309)
(-0.301455 -0.116033 0.097142)
(-0.293454 -0.0221742 0.0799642)
(-0.219288 0.0504551 -0.0335774)
(-0.119217 -0.111105 -0.11967)
(-0.0828029 0.0412482 -0.175435)
(-0.163909 0.12586 -0.158186)
(0.0137155 -0.129634 -0.0901387)
(-0.299777 -0.130131 0.034115)
(-0.289188 -0.172854 -0.0600967)
(-0.287004 -0.151588 -0.0721425)
(-0.260441 -0.0815896 -0.0416834)
(-0.191822 -0.0716937 -0.0059634)
(-0.034059 -0.174941 0.0138298)
(0.05837 -0.183601 0.0158467)
(0.0953943 0.0280879 -0.0668356)
(-0.0623984 0.121483 -0.188589)
(0.0764443 -0.181125 -0.0612343)
(-0.20385 0.0534388 -0.142555)
(-0.189976 -0.0478443 -0.219076)
(-0.152065 -0.105569 -0.192421)
(-0.100348 -0.131409 -0.127518)
(-0.0312817 -0.221165 -0.0401651)
(0.107655 -0.375983 0.0276279)
(0.190821 -0.326486 0.0939769)
(0.238107 -0.0667767 0.0858686)
(0.0632651 0.137184 -0.0639129)
(0.12411 -0.0773022 -0.0290908)
(-0.202415 0.103348 -0.241554)
(-0.108992 -0.0637844 -0.233923)
(-0.0662729 -0.112075 -0.109957)
(-0.0690052 -0.148041 -0.0120103)
(0.0717999 -0.351537 0.0217781)
(0.167695 -0.430965 0.0270601)
(0.259451 -0.352803 0.128424)
(0.275108 -0.106147 0.168017)
(0.14674 0.141827 0.0385502)
(0.142898 0.0619142 0.0298538)
(-0.155718 0.14991 -0.239422)
(-0.0571337 0.0140335 -0.144748)
(-0.0523045 -0.0418428 0.0104124)
(-0.0611974 -0.237855 0.029053)
(0.0988826 -0.439557 -0.010241)
(0.17059 -0.408115 -0.0020729)
(0.266141 -0.307449 0.160001)
(0.270707 -0.0830203 0.239921)
(0.192653 0.158421 0.150481)
(0.146733 0.217313 0.108459)
(-0.0969795 0.182716 -0.173107)
(-0.0579653 0.0566081 -0.00842455)
(-0.117468 -0.107114 0.0455951)
(-0.0392778 -0.388384 -0.0252405)
(0.0469734 -0.428534 -0.110238)
(0.122714 -0.346835 -0.0555902)
(0.209158 -0.301313 0.167182)
(0.238011 -0.118893 0.314376)
(0.165488 0.148816 0.241117)
(0.128769 0.302832 0.157131)
(-0.0778996 0.222618 -0.0662873)
(-0.138984 0.0566785 0.0612569)
(-0.174685 -0.256983 -0.0105386)
(-0.114401 -0.413363 -0.102345)
(-0.0562347 -0.366371 -0.19307)
(0.0438543 -0.318088 -0.107924)
(0.0973263 -0.332287 0.103422)
(0.15758 -0.250705 0.301872)
(0.0969028 0.0503713 0.298479)
(0.0895899 0.319721 0.178261)
(-0.128359 0.252119 0.036642)
(-0.259419 -0.0436707 0.0293278)
(-0.275076 -0.344005 -0.032532)
(-0.25369 -0.365786 -0.152202)
(-0.181104 -0.318956 -0.249306)
(-0.0795673 -0.335293 -0.173755)
(-0.0411153 -0.363598 0.0104557)
(-0.0102672 -0.346677 0.209874)
(-0.0556662 -0.0502882 0.285541)
(-0.00213877 0.308303 0.180866)
(-0.26358 0.223177 0.0601323)
(-0.37967 -0.1515 0.0359451)
(-0.412086 -0.350409 -0.001973)
(-0.394795 -0.320058 -0.163986)
(-0.314665 -0.28166 -0.274784)
(-0.218508 -0.315751 -0.261779)
(-0.166264 -0.372821 -0.131018)
(-0.15591 -0.32644 0.0653931)
(-0.13922 -0.104271 0.200365)
(-0.103893 0.173486 0.172761)
(-0.367389 0.179447 0.0987017)
(-0.454943 -0.189572 0.133872)
(-0.541054 -0.340879 0.0395218)
(-0.503507 -0.306856 -0.13303)
(-0.42181 -0.256646 -0.254404)
(-0.318609 -0.26255 -0.31686)
(-0.248375 -0.290722 -0.278696)
(-0.204175 -0.272306 -0.113523)
(-0.152706 -0.141754 0.101658)
(-0.0972988 0.00431305 0.139997)
(-0.333919 0.152256 0.18387)
(-0.472452 -0.181265 0.217082)
(-0.615966 -0.331313 0.0738673)
(-0.575407 -0.320317 -0.0964746)
(-0.504962 -0.25978 -0.21348)
(-0.388133 -0.236453 -0.300841)
(-0.281667 -0.234172 -0.328514)
(-0.20171 -0.204532 -0.244829)
(-0.129741 -0.115212 -0.039041)
(0.0214578 -0.0676527 0.127582)
(0.00368547 -9.25708e-05 0.0147076)
(-0.0035629 0.000192272 0.0142293)
(-0.0106334 -1.20129e-05 0.014229)
(-0.0167615 -0.00059574 0.014387)
(-0.0214762 -0.00157693 0.0148818)
(-0.0243026 -0.00330462 0.015795)
(-0.0236421 -0.00603526 0.0172542)
(-0.0173359 -0.00919185 0.0193483)
(-0.00604488 -0.00999456 0.0219436)
(0.000420941 -0.00519849 0.0204113)
(0.0045428 -0.00210608 0.0159877)
(-0.00239736 -0.000332655 0.014697)
(-0.00924716 9.74143e-05 0.0141744)
(-0.0156814 -0.00089344 0.0140861)
(-0.0213712 -0.00316448 0.0143795)
(-0.0260782 -0.00760136 0.0150989)
(-0.0276776 -0.016158 0.0172477)
(-0.0213723 -0.0271917 0.022628)
(-0.00471215 -0.0284326 0.0280877)
(0.00428702 -0.0117269 0.0221971)
(0.00520474 -0.00380272 0.021189)
(-0.0044297 -0.000865387 0.0183338)
(-0.0131217 0.000117113 0.0168346)
(-0.0208571 -0.000698243 0.0161526)
(-0.0287755 -0.0033314 0.0158424)
(-0.0381467 -0.0102248 0.0171586)
(-0.0460706 -0.0274211 0.0261141)
(-0.0423499 -0.0517818 0.046097)
(-0.0174789 -0.0557873 0.058402)
(0.00696201 -0.0147544 0.0349477)
(0.00761661 0.00127312 0.0326905)
(-0.00445956 0.00443223 0.0274115)
(-0.0163564 0.0037222 0.023492)
(-0.0265548 0.00178422 0.0205467)
(-0.0374208 -0.00075458 0.0187287)
(-0.0518386 -0.00955577 0.0236979)
(-0.0665332 -0.0385479 0.0471044)
(-0.0639571 -0.0866532 0.0817258)
(-0.0361373 -0.100494 0.0936549)
(-0.000659987 -0.0224308 0.0543876)
(0.0111966 0.00493094 0.0483709)
(-0.0013763 0.0104764 0.0400273)
(-0.0179587 0.00814992 0.0349819)
(-0.0299725 0.00532391 0.0298826)
(-0.0389836 0.00361721 0.0271925)
(-0.0511383 -0.00508835 0.0373727)
(-0.0617969 -0.0460297 0.0672026)
(-0.0562069 -0.116915 0.0947771)
(-0.0504371 -0.136476 0.0891043)
(-0.0075053 -0.0494185 0.0476812)
(0.0113943 0.0176824 0.0594782)
(-0.00385654 0.0312821 0.0493191)
(-0.019853 0.0299172 0.0455064)
(-0.0274734 0.0213216 0.0408112)
(-0.0307357 0.0141432 0.0411378)
(-0.0317544 4.17248e-05 0.0526694)
(-0.0253976 -0.0503287 0.0714304)
(-0.0304313 -0.117644 0.0690509)
(-0.0756979 -0.143681 0.0316363)
(-0.00798789 -0.0892881 0.00692723)
(0.00919661 0.00858875 0.0555256)
(-0.0174503 0.0125939 0.0446687)
(-0.0398451 -0.00213238 0.036688)
(-0.0408461 -0.0155077 0.0273258)
(-0.0308626 -0.0174702 0.0381822)
(-0.0129897 -0.026338 0.0531775)
(0.00937995 -0.0619455 0.0480215)
(0.000806214 -0.0975251 -0.0147545)
(-0.0915533 -0.158414 -0.068834)
(-0.0111979 -0.145747 -0.0143819)
(0.0133962 0.0434345 0.010947)
(0.00539821 0.0395739 -0.00200477)
(-0.004717 0.0164763 -0.0175642)
(-0.0105066 -0.0227315 -0.00718989)
(-0.0103184 -0.0388149 0.0236845)
(-0.00296591 -0.0526279 0.0119918)
(0.0268951 -0.0817392 -0.0465661)
(0.0655311 -0.102852 -0.155699)
(-0.015875 -0.213802 -0.260501)
(-0.00329886 -0.25823 -0.0904611)
(-0.0319177 -0.0105853 0.136395)
(-0.046515 -0.00275578 0.128486)
(-0.0433156 -0.0023007 0.114612)
(-0.0613437 -0.0257489 0.102276)
(-0.0811884 -0.0664753 0.00941534)
(-0.0463932 -0.17447 -0.160002)
(0.0517523 -0.261554 -0.248143)
(0.127801 -0.31911 -0.25189)
(-0.0211002 -0.203124 -0.170176)
(0.0370731 -0.368412 -0.15346)
(-0.17921 0.0514391 0.114945)
(-0.237095 0.0306148 0.132169)
(-0.265582 0.00895167 0.126294)
(-0.27445 -0.0183705 0.0478343)
(-0.247657 -0.1415 -0.0372266)
(-0.0895084 -0.340222 -0.0446751)
(-0.00470816 -0.405974 -0.028667)
(0.0867683 -0.265789 -0.0420819)
(-0.094597 -0.100928 -0.128908)
(-0.0366615 -0.293283 -0.0463697)
(-0.146552 0.110879 0.0941991)
(-0.213932 0.0427993 -0.0260025)
(-0.237634 0.060194 -0.107584)
(-0.193481 0.0705674 -0.10565)
(-0.0919993 -0.0905212 -0.0511232)
(0.100908 -0.430479 0.0103228)
(0.11559 -0.479754 -0.00268251)
(0.203384 -0.344737 0.0734419)
(0.0414431 -0.0810637 -0.0686975)
(0.00867106 -0.314472 -0.000896854)
(-0.141265 0.247633 -0.0916396)
(-0.156221 0.172583 -0.250112)
(-0.12356 0.0805697 -0.259096)
(-0.0314786 -0.0188918 -0.194141)
(0.072047 -0.239129 -0.0366943)
(0.184251 -0.467983 -0.056308)
(0.155193 -0.432606 -0.0557239)
(0.24578 -0.294112 0.0894938)
(0.0223175 -0.0590695 0.0258102)
(0.0506147 -0.278227 0.0248884)
(-0.167884 0.286246 -0.235665)
(-0.0946441 0.0878841 -0.291618)
(-0.0491692 -0.0281351 -0.181947)
(-0.0229638 -0.067748 -0.0464354)
(0.136602 -0.371125 -0.0308077)
(0.196094 -0.404779 -0.123608)
(0.155388 -0.282337 -0.075091)
(0.239079 -0.164448 0.129663)
(-0.0374157 0.0791405 0.00264806)
(0.0876611 -0.187368 0.0402787)
(-0.105558 0.246377 -0.286254)
(-0.0316659 0.064983 -0.223355)
(-0.0464555 0.0301713 -0.0182617)
(-0.0145806 -0.161932 0.0721792)
(0.116651 -0.406259 -0.122652)
(0.147137 -0.28394 -0.179232)
(0.139851 -0.13744 -0.00491134)
(0.230016 -0.0889567 0.236548)
(0.11001 0.156086 0.11986)
(0.122186 -0.022147 0.0903127)
(0.0016201 0.222359 -0.278534)
(-0.0289233 0.118299 -0.0946821)
(-0.0347653 0.0137664 0.121129)
(0.0124977 -0.287595 0.00106175)
(0.0286677 -0.354108 -0.237859)
(0.0578044 -0.15923 -0.173097)
(0.100512 -0.0848245 0.0930068)
(0.169526 -0.0783745 0.35016)
(0.149567 0.172138 0.292509)
(0.113023 0.175491 0.201634)
(0.0322803 0.268684 -0.195866)
(-0.0275175 0.170189 0.0826331)
(-0.0860691 -0.0851938 0.13131)
(-0.0581772 -0.310943 -0.11762)
(-0.0976141 -0.266774 -0.291325)
(-0.0644633 -0.183151 -0.152951)
(-0.0305073 -0.146291 0.101618)
(0.0293518 -0.137281 0.378241)
(0.0338593 0.154398 0.368714)
(0.0451041 0.263415 0.255728)
(-0.0021808 0.355031 -0.0136755)
(-0.0989818 0.15097 0.195374)
(-0.178529 -0.193107 0.0609647)
(-0.198175 -0.260766 -0.185175)
(-0.245173 -0.228705 -0.336984)
(-0.233725 -0.230367 -0.212398)
(-0.224475 -0.235826 0.052886)
(-0.209039 -0.150096 0.299524)
(-0.153223 0.10301 0.372802)
(-0.0387452 0.195078 0.252415)
(-0.0933265 0.395716 0.167483)
(-0.235601 0.033841 0.202916)
(-0.284498 -0.236528 0.0497169)
(-0.331194 -0.207058 -0.191608)
(-0.359732 -0.186896 -0.362102)
(-0.346395 -0.196861 -0.34839)
(-0.350874 -0.225405 -0.154238)
(-0.345047 -0.196083 0.0972588)
(-0.243415 -0.0496175 0.252848)
(-0.0959945 0.0598019 0.184227)
(-0.22962 0.350496 0.257441)
(-0.340587 -0.0774041 0.235296)
(-0.39343 -0.242768 0.0877192)
(-0.421966 -0.205253 -0.150454)
(-0.418325 -0.178887 -0.322912)
(-0.382281 -0.168661 -0.423255)
(-0.345047 -0.162188 -0.395725)
(-0.313229 -0.166276 -0.242014)
(-0.221786 -0.135074 -0.0310959)
(-0.0841721 -0.0495613 0.0884053)
(-0.289475 0.293427 0.324142)
(-0.36331 -0.106955 0.320754)
(-0.461345 -0.251607 0.124008)
(-0.473911 -0.238767 -0.104878)
(-0.46591 -0.204496 -0.269474)
(-0.406562 -0.18602 -0.402343)
(-0.32631 -0.164971 -0.447915)
(-0.254517 -0.134261 -0.383241)
(-0.186822 -0.118777 -0.225344)
(-0.0520972 -0.0597516 -0.00905946)
(0.00306584 0.00129067 0.0219633)
(-0.0039045 0.00134153 0.0208445)
(-0.0102469 0.00104425 0.020047)
(-0.0157576 0.000413025 0.0196812)
(-0.0197152 -0.000515354 0.0200529)
(-0.0217347 -0.00198433 0.0213192)
(-0.02058 -0.0040867 0.0236248)
(-0.0148565 -0.00632373 0.02664)
(-0.00556796 -0.00654126 0.0291258)
(5.67762e-05 -0.00283715 0.0248712)
(0.0037363 0.00158373 0.0238203)
(-0.00339435 0.00226912 0.0217307)
(-0.00920281 0.00244245 0.0202226)
(-0.0145478 0.00141551 0.0194485)
(-0.0190819 -0.000714556 0.0196758)
(-0.0222458 -0.00434796 0.021189)
(-0.0221022 -0.0105187 0.0247126)
(-0.0153766 -0.0176763 0.0303785)
(-0.0022885 -0.0170959 0.0339665)
(0.00279323 -0.00525447 0.025422)
(0.00440537 0.00266296 0.0277094)
(-0.00502031 0.00320801 0.0248976)
(-0.0123705 0.00366632 0.0228635)
(-0.018916 0.0030298 0.0218862)
(-0.0249214 0.000463873 0.0222068)
(-0.0307866 -0.00551955 0.0251692)
(-0.0334207 -0.017585 0.0346188)
(-0.0254808 -0.0312227 0.0505236)
(-0.00485487 -0.0267584 0.05604)
(0.00676335 -0.00237342 0.0332131)
(0.00661985 0.00959104 0.0348658)
(-0.0048221 0.00868893 0.0318322)
(-0.0151134 0.00742822 0.0287953)
(-0.0238997 0.00567542 0.0265675)
(-0.0329943 0.0024391 0.0263689)
(-0.0432399 -0.00501786 0.0324037)
(-0.0495528 -0.0231359 0.0528292)
(-0.0422098 -0.0446853 0.0812263)
(-0.0185712 -0.0379951 0.0851385)
(0.0058998 0.00378722 0.044403)
(0.0092213 0.0195159 0.0440094)
(-0.00476206 0.0182268 0.0401165)
(-0.0199579 0.014503 0.0364866)
(-0.0314587 0.0109791 0.0321691)
(-0.0402363 0.00740622 0.0312333)
(-0.0493153 -0.000665707 0.0416438)
(-0.0550854 -0.0238613 0.0691905)
(-0.0470121 -0.0536632 0.0932938)
(-0.0303068 -0.0442738 0.0843336)
(-0.00419676 0.00742508 0.0420513)
(0.0124585 0.0378195 0.0594741)
(-0.00408886 0.0407703 0.0532744)
(-0.0233316 0.0359825 0.0518366)
(-0.0361446 0.0262906 0.0480061)
(-0.0420467 0.0161642 0.0466783)
(-0.0444505 0.00614586 0.0561757)
(-0.042567 -0.0228106 0.0732091)
(-0.0374573 -0.0538362 0.070807)
(-0.0417681 -0.0437681 0.0419128)
(-0.0115385 -0.0139447 0.0160296)
(0.0122908 0.056405 0.0686093)
(-0.0197582 0.0541554 0.063408)
(-0.0500688 0.039686 0.0583416)
(-0.059334 0.0199852 0.0512532)
(-0.0516413 0.00394669 0.0527472)
(-0.0373222 -0.00623053 0.061329)
(-0.0225047 -0.0305132 0.0588535)
(-0.0310391 -0.057766 0.0328228)
(-0.0662738 -0.0708105 0.00428071)
(-0.00906641 -0.0644114 0.00139865)
(0.0132764 0.083286 0.0396252)
(-0.00291898 0.0779251 0.0310954)
(-0.0198481 0.0564484 0.0198873)
(-0.0304959 0.0122649 0.0213)
(-0.0305485 -0.0182356 0.0412288)
(-0.0207851 -0.0253061 0.0497757)
(-0.00874746 -0.047259 0.0220043)
(0.00295762 -0.0877737 -0.0317361)
(-0.0656691 -0.145333 -0.0574182)
(0.0177098 -0.127664 -0.0176334)
(0.00784471 0.0667371 0.121553)
(-0.0280168 0.0634384 0.109427)
(-0.0426656 0.0416791 0.0969068)
(-0.0517276 0.0075493 0.0915002)
(-0.05796 -0.0239838 0.0343797)
(-0.0424328 -0.0824138 -0.0651826)
(0.00832657 -0.173837 -0.211185)
(0.10288 -0.168073 -0.233692)
(-0.00922759 -0.274691 -0.253609)
(0.111396 -0.183352 -0.232941)
(-0.0390176 0.151224 0.130367)
(-0.0908798 0.156511 0.083841)
(-0.108343 0.158897 -0.0188146)
(-0.132898 0.127272 -0.0601467)
(-0.201729 0.0227559 -0.0473253)
(-0.126947 -0.212752 -0.030236)
(-0.0617183 -0.279875 -0.0387509)
(0.0886543 -0.234107 0.00513231)
(0.0536803 -0.189523 -0.0813056)
(0.102632 -0.102951 -0.295638)
(-0.10694 0.367366 0.0721364)
(-0.113838 0.376295 -0.0615781)
(-0.109753 0.289484 -0.126388)
(-0.0774236 0.176794 -0.164169)
(-0.0816575 -0.00266471 -0.107417)
(0.136442 -0.327809 0.00012985)
(0.0979397 -0.366925 -0.0816984)
(0.131337 -0.317713 0.0141108)
(0.134155 -0.126897 -0.00582546)
(0.090701 0.115889 -0.0884071)
(-0.144091 0.445709 -0.0998252)
(-0.0974646 0.362906 -0.20575)
(-0.0395685 0.239089 -0.227442)
(0.055909 0.106964 -0.206367)
(0.141933 -0.0909588 -0.0473179)
(0.24741 -0.316234 -0.0570423)
(0.141519 -0.301756 -0.163418)
(0.11729 -0.227548 0.0289465)
(0.0483744 -0.0538967 0.0159534)
(0.0335966 0.229056 -0.101857)
(-0.13889 0.359898 -0.227174)
(-0.0329026 0.172171 -0.255432)
(0.0453614 0.040214 -0.185584)
(0.0692508 -0.00230936 -0.0709047)
(0.169098 -0.288406 -0.0418366)
(0.223783 -0.318253 -0.157745)
(0.072079 -0.157498 -0.207992)
(0.00952444 -0.0244571 0.141857)
(-0.215003 0.250955 -0.0416637)
(-0.0669289 0.2612 -0.119822)
(-0.0205216 0.217508 -0.293496)
(0.049029 0.0585602 -0.214112)
(-0.0343196 0.0666231 -0.00450415)
(0.0120869 -0.0980429 0.106019)
(0.0950768 -0.368232 -0.182201)
(0.095364 -0.225784 -0.279384)
(-0.0342778 0.0427705 -0.121344)
(-0.0494144 0.0986334 0.23672)
(-0.241208 0.0725856 0.103303)
(-0.0610077 -0.109749 0.0605452)
(0.115227 0.144951 -0.311596)
(0.00966361 0.130333 -0.0789027)
(-0.0744865 0.0717508 0.165634)
(0.0108902 -0.246209 0.0225909)
(-0.0465803 -0.324242 -0.306561)
(-0.0688812 -0.0810891 -0.207406)
(-0.0621035 0.141185 0.0957224)
(-0.00124785 0.0723287 0.356164)
(-0.0784446 0.0792375 0.300853)
(-0.0230959 -0.139238 0.18879)
(0.113552 0.210385 -0.217229)
(-0.0544206 0.220067 0.120823)
(-0.0929733 0.0212594 0.228789)
(-0.0912193 -0.247103 -0.102992)
(-0.20447 -0.230165 -0.298879)
(-0.204417 -0.11143 -0.0917014)
(-0.171707 -0.0324052 0.193887)
(-0.131737 -0.00656633 0.395135)
(-0.0839945 0.0522793 0.387112)
(-0.0290229 -0.123087 0.208195)
(0.0235989 0.327295 -0.000840214)
(-0.0989752 0.260644 0.299817)
(-0.1573 -0.0395705 0.188885)
(-0.212302 -0.198744 -0.144334)
(-0.339799 -0.196273 -0.329765)
(-0.351162 -0.147612 -0.188905)
(-0.346325 -0.137378 0.101582)
(-0.31391 -0.128825 0.295233)
(-0.188251 -0.105733 0.319344)
(-0.0472417 -0.136168 0.144924)
(-0.0751237 0.42106 0.243328)
(-0.167511 0.215303 0.363715)
(-0.202649 -0.0839995 0.160308)
(-0.2817 -0.148723 -0.122361)
(-0.393753 -0.159351 -0.354556)
(-0.408347 -0.111504 -0.390758)
(-0.371773 -0.0997023 -0.211849)
(-0.325806 -0.163873 -0.0137787)
(-0.207387 -0.172172 0.0639465)
(-0.0623202 -0.139466 0.0121444)
(-0.172213 0.437508 0.384768)
(-0.223532 0.122999 0.360837)
(-0.217255 -0.106321 0.186282)
(-0.292447 -0.134837 -0.0634262)
(-0.37508 -0.164394 -0.291187)
(-0.395004 -0.147396 -0.439728)
(-0.342411 -0.0912037 -0.459222)
(-0.284475 -0.0770906 -0.374718)
(-0.202721 -0.125023 -0.251058)
(-0.0662989 -0.143743 -0.129075)
(-0.225685 0.411812 0.433679)
(-0.213382 0.0685869 0.387386)
(-0.213164 -0.108699 0.224746)
(-0.257891 -0.1454 -0.0150785)
(-0.340207 -0.176084 -0.229024)
(-0.374222 -0.190169 -0.409402)
(-0.320223 -0.163021 -0.490432)
(-0.219045 -0.0972078 -0.44285)
(-0.159198 -0.130605 -0.286873)
(-0.0704885 -0.147269 -0.117616)
(0.00209378 0.00394741 0.0252689)
(-0.00487001 0.00327421 0.0238629)
(-0.0105236 0.00258985 0.022574)
(-0.0153307 0.00174863 0.0219117)
(-0.0184809 0.000779332 0.0221823)
(-0.0196558 -0.000448146 0.0233776)
(-0.0180426 -0.00196254 0.025553)
(-0.0130692 -0.00341448 0.0283917)
(-0.00571179 -0.00335609 0.0304382)
(-0.000526071 -0.00100474 0.0250028)
(0.00249601 0.00818638 0.0290516)
(-0.00544638 0.00678049 0.0261028)
(-0.0103091 0.00559598 0.0234)
(-0.0144505 0.00394485 0.0217894)
(-0.0175433 0.00176566 0.0216009)
(-0.0191554 -0.00101382 0.0229919)
(-0.0179128 -0.00468322 0.0261603)
(-0.0121196 -0.00858283 0.0305024)
(-0.00324321 -0.00809398 0.0327589)
(0.000999752 -0.00153869 0.0242456)
(0.00337133 0.0138574 0.0308362)
(-0.00618754 0.0106121 0.0288156)
(-0.0125463 0.00866985 0.0261561)
(-0.0179825 0.00717008 0.0244745)
(-0.0220131 0.00471573 0.0245553)
(-0.0243053 0.000289625 0.0271314)
(-0.0231329 -0.00645287 0.0339507)
(-0.014874 -0.0127009 0.0437355)
(-0.00133745 -0.00888498 0.0456185)
(0.00283003 0.00279097 0.0285584)
(0.00563537 0.0234348 0.0338181)
(-0.00521519 0.0180039 0.0339014)
(-0.0141564 0.0135333 0.0313666)
(-0.0216954 0.0101896 0.0290186)
(-0.0278958 0.00604459 0.0291525)
(-0.0324403 0.000560193 0.0342444)
(-0.0317661 -0.00751278 0.0477321)
(-0.0213459 -0.0142136 0.0642646)
(-0.00438583 -0.00560679 0.0621924)
(0.00425367 0.00893627 0.0334471)
(0.00823407 0.0381544 0.0394343)
(-0.00516602 0.0302534 0.0398497)
(-0.0189566 0.0227223 0.0374385)
(-0.0296623 0.0180537 0.0336215)
(-0.0362791 0.0128489 0.0332637)
(-0.0398347 0.00634745 0.0407199)
(-0.0387452 -0.00305948 0.0585873)
(-0.0292382 -0.0092969 0.0734684)
(-0.0147108 0.00372053 0.0617027)
(-0.00210547 0.0196009 0.0257069)
(0.011506 0.0560763 0.0501362)
(-0.00571942 0.0481528 0.0506914)
(-0.0263283 0.0385032 0.050671)
(-0.0407231 0.0281727 0.0472588)
(-0.0467962 0.0164136 0.0463811)
(-0.0465965 0.00928907 0.0532031)
(-0.0427664 0.00149054 0.0649492)
(-0.033752 -0.00269408 0.063631)
(-0.0239201 0.0109403 0.0414666)
(-0.0122586 0.0139197 0.0152611)
(0.0134467 0.0877458 0.0623573)
(-0.0206596 0.0756342 0.067087)
(-0.0519888 0.0615979 0.0636271)
(-0.0659504 0.0419107 0.0579339)
(-0.0631944 0.0191339 0.0570263)
(-0.0540585 0.00722207 0.0612834)
(-0.0461581 0.000522673 0.0616436)
(-0.0400501 -0.00156915 0.0487561)
(-0.0371101 0.00808618 0.0284161)
(-0.0105284 -0.0124969 0.00745739)
(0.00819431 0.109378 0.0398659)
(-0.0198118 0.0990613 0.036659)
(-0.040638 0.0782481 0.0251484)
(-0.0501467 0.0381802 0.0240273)
(-0.0490218 0.00165971 0.0444125)
(-0.0385158 -0.00295168 0.0668972)
(-0.033614 -0.0127314 0.0650753)
(-0.033241 -0.0381802 0.0450104)
(-0.0632625 -0.0542395 0.0298229)
(0.0137031 -0.0548454 0.0151288)
(-0.00635607 0.131273 0.0656366)
(-0.053831 0.116355 0.0432707)
(-0.0715265 0.0812036 0.0227642)