/*--------------------------------*- C++ -*----------------------------------*\
| =========                 |                                                 |
| \\      /  F ield         | OpenFOAM: The Open Source CFD Toolbox           |
|  \\    /   O peration     | Version:  2312                                  |
|   \\  /    A nd           | Website:  www.openfoam.com                      |
|    \\/     M anipulation  |                                                 |
\*---------------------------------------------------------------------------*/
FoamFile
{
    version     2.0;
    format      ascii;
    arch        "LSB;label=32;scalar=64";
    class       volScalarField;
    location    "0.855";
    object      alpha.water;
}
// * * * * * * * * * * * * * * * * * * * * * * * * * * * * * * * * * * * * * //

dimensions      [0 0 0 0 0 0 0];

internalField   nonuniform List<scalar> 
8000
(
1
1
1
1
1
1
1
1
1
1
1
1
1
1
1
1
1
1
1
1
1
1
1
1
1
1
1
1
0.999999
0.999994
1
1
1
1
1
1
1
1
0.999949
0.998803
1
1
1
1
1
1
1
0.999989
0.999765
0.99838
0.999992
0.999997
0.999999
0.999998
0.999999
0.999999
0.999987
0.997639
0.938216
0.996499
0.949613
0.943135
0.929181
0.952076
0.993955
0.993923
0.942375
0.634696
0.270326
0.613961
0.734631
0.661588
0.621771
0.557756
0.517654
0.471734
0.263967
0.0344849
3.63206e-06
0.00415266
0.298071
0.269512
0.217515
0.143039
0.0415518
7.02666e-06
3.09182e-06
2.97425e-06
3.16767e-06
3.63206e-06
2.02132e-06
2.02186e-06
2.02721e-06
2.04524e-06
2.13846e-06
2.71387e-06
2.97425e-06
2.97425e-06
2.97425e-06
3.29219e-06
2.02113e-06
2.02739e-06
2.04525e-06
2.12655e-06
3.91589e-06
3.80911e-06
3.09182e-06
2.97425e-06
1.10238e-05
4.5263e-06
2.02063e-06
2.05253e-06
2.08814e-06
4.61669e-06
1.5801e-05
7.31263e-06
6.48568e-06
3.6164e-06
4.51918e-06
3.89466e-06
5.9315e-06
5.57282e-06
2.26584e-06
4.25407e-06
6.84945e-06
1.14211e-05
4.37981e-06
3.95476e-06
3.84956e-06
3.7967e-06
9.93286e-06
9.52162e-06
1.07395e-05
4.88451e-05
7.17375e-05
6.8991e-05
6.05032e-05
3.90029e-06
3.7967e-06
3.7967e-06
1.02927e-05
1.03809e-05
0.000143827
0.000314186
0.000335067
0.000299643
0.000303349
0.000275006
0.000160437
1.00443e-05
1.20232e-05
0.00012441
0.000338404
0.000338404
0.000338608
0.000336617
0.000330597
0.000290115
0.000264362
9.32185e-05
7.16945e-05
0.000286763
0.000336051
0.000338615
0.000336617
0.000294897
0.000281565
3.94412e-05
2.45567e-05
3.71162e-05
0.000123516
0.000149552
0.000262074
0.000336051
0.000163772
3.07163e-05
3.30909e-05
5.22257e-05
8.31123e-06
7.83385e-06
3.3684e-05
2.1439e-05
0.000154721
0.000191392
1.16871e-05
1.52204e-05
1.72368e-05
2.12382e-05
2.68437e-05
7.8686e-06
9.96022e-07
1.72317e-05
2.96758e-05
9.14997e-06
1.05917e-05
1.20746e-05
1.65235e-05
1.79128e-05
2.94872e-05
2.43082e-05
1
1
1
1
1
1
1
1
1
1
1
1
1
1
1
1
1
1
1
1
1
1
1
1
1
1
1
1
1
0.999987
1
1
1
1
1
1
1
0.999998
0.999984
0.999293
1
1
1
1
1
1
0.999998
0.999939
0.99956
0.999649
0.999913
0.999903
0.999925
1
1
0.999998
0.999937
0.97702
0.850853
0.995685
0.991278
0.993465
0.993248
0.998697
0.999987
0.992683
0.901178
0.49524
0.172391
0.543839
0.933019
0.93167
0.907185
0.839084
0.658891
0.460645
0.196191
0.0199599
1.42314e-05
2.24889e-05
0.199704
0.155654
0.108322
0.0679532
0.0243033
6.02047e-06
6.44668e-06
3.6659e-06
3.63206e-06
4.15979e-06
2.02114e-06
2.02696e-06
2.04527e-06
2.09743e-06
2.18722e-06
2.62992e-06
3.09182e-06
2.97425e-06
8.26723e-06
0.000221138
2.00485e-06
2.04943e-06
2.08832e-06
2.1782e-06
2.25058e-05
9.22036e-05
0.000106224
4.11503e-05
0.00014607
0.000954518
2.43284e-06
4.40936e-06
2.96072e-06
3.13603e-06
4.56175e-05
0.000240307
0.000292798
5.57472e-05
0.00013823
0.00085574
3.01703e-06
8.00591e-06
4.48074e-06
2.56375e-06
7.67321e-05
0.000297455
0.000343325
0.000145809
5.48109e-05
0.000361427
1.92201e-05
3.38976e-05
7.26389e-06
1.44841e-05
0.000273425
0.000329064
0.000340046
0.000260012
1.66401e-05
3.7967e-06
3.50055e-05
4.86944e-05
1.30874e-05
0.000225367
0.000331129
0.000313546
0.000186247
0.000268179
0.000139739
1.26044e-05
5.98222e-05
4.79545e-05
0.000157638
0.000338614
0.000312343
0.000102915
0.000117161
0.000144867
0.000256728
2.27244e-05
9.15826e-05
0.000113043
0.000332153
0.000318351
3.14235e-05
8.82693e-06
7.15634e-05
1.1237e-05
1.02506e-05
7.83385e-06
7.80963e-05
0.000264762
0.000300857
5.46659e-05
8.20509e-06
1.19521e-05
5.36762e-05
3.00424e-05
7.83385e-06
7.48197e-06
3.17178e-05
7.88531e-05
4.80569e-05
6.04646e-06
7.03767e-06
6.04106e-05
0.0001518
9.62872e-05
7.48197e-06
7.30426e-06
1.16592e-06
5.58724e-06
6.00394e-06
6.1808e-06
9.3617e-06
8.16431e-05
0.000156802
6.15731e-05
1.41485e-05
7.64685e-06
1
1
1
1
1
1
1
1
1
1
1
1
1
1
1
1
1
1
1
1
1
1
1
1
1
1
1
1
1
0.999998
1
1
1
1
1
1
0.99999
0.99997
0.999998
0.99997
1
1
1
1
1
1
0.999997
0.999979
0.999945
0.999998
0.99998
0.999989
0.999985
1
1
1
0.999983
0.998598
0.978967
0.999904
0.999998
0.999999
0.999999
1
1
0.999983
0.968586
0.736083
0.538207
0.86891
0.934614
0.926571
0.920544
0.941861
0.893159
0.691746
0.42193
0.168081
0.0350112
0.153214
0.300725
0.23854
0.165243
0.118429
0.075556
0.0238438
2.90693e-05
1.44432e-05
1.42314e-05
2.24889e-05
1.94565e-06
2.0051e-06
0.00133927
2.18722e-06
2.62992e-06
6.02047e-06
6.44661e-06
3.66579e-06
3.11061e-05
0.000582124
2.05637e-06
8.8984e-06
6.0717e-06
8.90979e-06
2.68174e-05
0.00024003
0.000307197
0.000198761
0.000285773
0.00259198
2.41976e-05
4.76714e-05
1.28585e-05
2.591e-06
3.22766e-05
0.000354763
0.000352641
0.000325459
0.000464491
0.00259341
2.18049e-05
1.06087e-05
2.20214e-06
2.36874e-06
0.00023617
0.000350867
0.000345778
0.000121769
0.000216673
0.00259036
1.60626e-06
1.90043e-06
2.6062e-06
8.19127e-06
0.000324929
0.000198827
9.35446e-05
0.000119244
2.51702e-05
0.00111999
1.42511e-06
1.13711e-05
1.98479e-05
0.000189742
0.000326862
8.24131e-06
8.42721e-06
0.000132799
4.24927e-05
1.87879e-05
1.32862e-06
3.62323e-05
7.81213e-05
0.00033558
6.13497e-05
8.25898e-06
8.26968e-06
1.08786e-05
4.76859e-05
2.68743e-05
6.2691e-06
6.04788e-05
0.000281733
0.000220752
8.36952e-06
8.24149e-06
8.82686e-06
1.14726e-05
1.1237e-05
0.000435176
4.95738e-05
0.000204082
0.00027106
1.50666e-05
7.4232e-06
1.43332e-05
7.99966e-05
7.97092e-05
5.44104e-05
0.000361036
5.61918e-05
0.000157334
5.93623e-05
5.28973e-06
6.04646e-06
8.02545e-05
0.000202114
0.000200327
0.000116765
5.48318e-06
6.31925e-06
1.21901e-05
5.97022e-06
5.04598e-06
7.03869e-06
0.00013788
0.000202114
0.000199417
6.77527e-06
6.29349e-06
1
1
1
1
1
1
1
1
1
1
1
1
1
1
1
1
1
1
1
1
1
1
1
1
1
1
1
1
0.999998
1
0.999999
1
1
1
1
1
0.999993
0.999972
0.999985
1
0.999984
1
1
1
1
1
0.999975
0.999959
0.999999
1
1
1
1
1
1
1
0.999999
0.999986
0.999977
0.999998
0.999999
1
1
1
1
0.999999
0.999778
0.978166
0.946755
0.994435
0.937943
0.9198
0.894454
0.901384
0.942768
0.899355
0.716374
0.465871
0.303272
0.494134
0.408256
0.351332
0.272391
0.192012
0.113963
0.0596436
0.0165344
3.43274e-05
7.36724e-05
0.000232795
0.00216502
0.000887392
0.00041273
6.58211e-06
8.21389e-06
2.21249e-05
2.66116e-05
1.44432e-05
2.77857e-05
7.70244e-05
4.8832e-05
2.04792e-05
1.96835e-05
9.07747e-06
1.72861e-05
0.000134065
0.00016268
0.000242498
0.000142503
0.000109079
2.91647e-05
1.06265e-05
3.1436e-06
2.4476e-06
7.89212e-06
0.000186369
0.000245706
0.000315838
0.000280124
0.00011046
3.25384e-06
2.14721e-06
1.63658e-06
2.1009e-06
0.000202372
3.53884e-05
8.90072e-06
0.000127656
4.81827e-05
2.72971e-05
1.72414e-06
1.6362e-06
1.52865e-06
7.65603e-06
0.0003229
2.90122e-05
8.42721e-06
1.06068e-05
0.000901029
0.00169689
1.54408e-06
1.66949e-06
4.11884e-06
0.000172068
0.000265026
8.24131e-06
8.21841e-06
9.42206e-06
0.000561501
0.00170046
1.38684e-06
1.56377e-06
5.01229e-05
0.000325498
8.3526e-06
8.21841e-06
8.3526e-06
9.16686e-06
0.000210902
0.0016807
1.39125e-06
2.18489e-05
0.000168399
0.000206661
8.22506e-06
8.3526e-06
9.16686e-06
0.000147844
0.00111826
0.00164218
3.24847e-06
0.000115769
0.000258979
3.415e-05
6.84829e-06
8.44685e-06
7.00978e-05
0.000969075
0.00130416
0.00130973
3.34671e-05
0.000150297
0.000140926
5.04598e-06
4.78449e-06
2.89845e-05
0.000147312
0.000154157
2.52506e-05
4.95937e-06
3.12554e-05
3.44848e-05
1.34712e-05
4.54074e-06
3.0537e-06
5.95244e-05
0.000202114
0.000192002
9.49653e-06
8.38534e-06
1
1
1
1
1
1
1
1
1
1
1
1
1
1
1
1
1
1
1
1
1
1
1
1
1
1
1
1
1
1
1
1
1
1
1
1
1
0.999999
1
1
1
0.999992
1
1
1
1
0.999997
0.999998
1
1
0.998628
0.999917
1
1
1
1
0.999999
1
1
1
0.999999
1
1
1
1
1
0.999988
0.999986
0.999977
0.999998
0.957157
0.941822
0.92728
0.914928
0.950197
0.980932
0.946266
0.823476
0.696445
0.71422
0.452302
0.419554
0.371846
0.295607
0.217034
0.159155
0.105479
0.0849243
0.040023
0.138558
0.00770282
0.00401305
0.00125646
0.000325345
9.72235e-05
9.58742e-06
9.10908e-06
1.11108e-05
1.13973e-05
4.0419e-05
0.000350099
0.000170932
6.00866e-05
1.77462e-05
9.58339e-06
9.1091e-06
9.10935e-06
9.00197e-06
1.00485e-05
1.39318e-05
3.59457e-05
1.06072e-05
3.18759e-06
2.60591e-06
1.06549e-05
2.25546e-05
9.09712e-06
3.06152e-05
5.01376e-05
4.11582e-05
3.47077e-06
1.64755e-06
1.52865e-06
2.34491e-06
2.71808e-05
1.24814e-05
9.16547e-06
9.46669e-06
3.15921e-05
1.16999e-05
1.64756e-06
1.52865e-06
1.52865e-06
1.56389e-06
0.000225101
2.75872e-05
8.90072e-06
1.78227e-05
0.000263518
0.000118647
1.65162e-06
1.6276e-06
3.44841e-06
0.000171848
0.000228058
8.22855e-06
8.42721e-06
4.64095e-05
0.000424338
0.000342402
5.82228e-06
1.68918e-06
5.35635e-05
0.000313379
8.90309e-06
8.3526e-06
9.16687e-06
0.000125482
0.00106506
0.00103712
1.70408e-06
4.39881e-06
0.000114009
0.000138122
8.42258e-06
9.35785e-06
5.57996e-05
0.000823222
0.00110687
0.000812975
2.1583e-06
2.24473e-05
0.000150876
3.34757e-05
6.54357e-06
1.19031e-05
0.000165444
0.000338973
0.000361771
5.36197e-05
3.34946e-05
6.79254e-05
9.73643e-05
3.28797e-05
5.30774e-06
3.68183e-05
4.17069e-05
1.29345e-05
5.48444e-06
4.3055e-06
6.75695e-05
3.63425e-05
3.91368e-05
1.58617e-05
3.40842e-06
1.65405e-05
4.48784e-05
8.79412e-05
9.07711e-05
5.32683e-05
1
1
1
1
1
1
1
1
1
1
1
1
1
1
1
1
1
1
1
1
1
1
1
1
1
1
1
1
1
1
1
1
1
1
1
1
1
1
1
1
1
1
0.999996
1
1
1
1
1
1
1
0.998596
0.999431
1
1
1
1
1
1
1
1
0.999994
1
1
1
1
1
1
1
1
1
0.983428
0.971385
0.967802
0.953989
0.947756
0.974251
0.999998
0.985151
0.910112
0.759562
0.464257
0.454945
0.430225
0.391953
0.375778
0.380197
0.356099
0.349582
0.306794
0.363272
0.00633767
0.00440927
0.00177666
0.000263745
7.58081e-05
1.19324e-05
9.10888e-06
0.00310869
0.0238162
0.0965348
0.000186569
7.03525e-05
2.21229e-05
1.60509e-05
1.10284e-05
1.00804e-05
8.99921e-06
8.82676e-06
8.73064e-06
8.71755e-06
1.33384e-05
2.70224e-06
2.78049e-06
1.07471e-05
1.1788e-05
2.86812e-05
1.40687e-05
8.73248e-06
8.71831e-06
8.73067e-06
2.02347e-06
1.72899e-06
2.54558e-06
1.30402e-05
9.80811e-06
9.68535e-06
9.01166e-06
8.76947e-06
8.73249e-06
8.72947e-06
1.72901e-06
1.62955e-06
6.94432e-06
1.18658e-05
4.43434e-05
1.03681e-05
9.2822e-06
2.44229e-05
8.76947e-06
9.31356e-06
1.75653e-06
1.6928e-06
4.25372e-06
0.00010965
0.000163645
8.52566e-06
2.95923e-05
2.51124e-05
4.6306e-05
8.48807e-06
1.9464e-05
1.86477e-06
3.62138e-05
0.000276193
0.000119765
9.35785e-06
2.29817e-05
0.000245083
0.000495538
5.59157e-06
3.39311e-05
2.86858e-06
4.08271e-05
0.000138541
2.87267e-05
1.22587e-05
0.00013334
0.000529852
0.00050385
4.42931e-06
3.08731e-05
4.90959e-06
1.10003e-05
6.48497e-05
7.12272e-06
4.73768e-05
0.000109326
9.02752e-05
0.000101918
4.16611e-06
6.75695e-05
2.51116e-05
8.10438e-06
5.68859e-06
6.26626e-06
2.34764e-05
6.34648e-05
4.58058e-05
5.22956e-06
4.18166e-06
6.82244e-05
6.75695e-05
1.77433e-05
1.53937e-06
7.06879e-06
3.05336e-06
2.45353e-06
1.85796e-05
0.000124771
4.32401e-05
1
1
1
1
1
1
1
1
1
1
1
1
1
0.999999
1
1
1
1
1
1
1
1
0.999993
1
1
1
1
1
1
1
0.999997
1
0.999999
0.999999
1
1
1
1
1
1
0.999998
1
0.999998
1
1
1
1
1
1
1
0.999718
0.999801
1
1
1
1
1
1
0.999998
1
0.999998
1
1
1
1
1
1
1
1
0.994828
0.999992
0.997719
0.997535
0.999415
1
1
1
1
0.977293
0.833619
0.548495
0.498694
0.448046
0.413874
0.412867
0.44844
0.493522
0.586927
0.629779
0.724234
0.0155921
0.00698559
0.00197942
0.000374818
0.000120409
0.000252258
0.00218975
0.0196757
0.0713315
0.283963
0.000144211
4.6431e-05
1.61338e-05
1.66524e-05
1.12628e-05
9.29723e-06
8.83688e-06
8.74426e-06
8.7252e-06
8.72209e-06
7.85452e-06
2.57217e-06
2.76774e-06
1.32469e-05
1.96678e-05
2.66106e-05
1.56492e-05
8.82909e-06
8.7359e-06
8.71476e-06
2.23187e-06
2.17032e-06
2.54063e-06
1.44247e-05
3.54851e-05
4.43545e-05
2.82827e-05
9.06989e-06
8.76947e-06
1.0031e-05
1.9802e-06
1.72883e-06
9.42264e-06
5.24026e-05
8.25398e-05
4.36818e-05
1.44246e-05
4.44971e-05
1.47633e-05
2.12334e-05
2.03343e-06
2.72549e-06
2.28322e-05
5.58913e-05
0.000179839
5.05077e-05
6.60485e-05
0.000138335
3.98533e-05
1.52452e-05
1.59579e-05
5.52961e-05
2.42263e-05
6.51785e-05
0.000181085
1.49437e-05
0.000128697
0.000240867
5.14607e-05
4.60058e-06
7.32866e-05
8.44591e-05
2.70768e-05
1.94854e-05
0.000104799
2.37206e-05
7.62844e-05
0.000123579
3.38623e-05
4.16611e-06
8.48303e-05
8.4976e-05
5.04391e-05
1.40797e-05
6.25194e-06
2.48113e-05
6.31866e-05
2.23169e-05
4.16611e-06
4.05484e-06
4.36907e-05
7.28952e-05
6.37396e-05
2.43047e-05
5.19324e-06
3.41062e-06
4.64191e-05
6.65638e-05
5.02186e-05
4.11148e-06
2.56413e-05
2.32514e-05
3.71129e-05
3.44664e-05
8.36311e-06
2.49328e-06
1.84888e-06
1.49126e-05
0.000120576
2.08854e-05
1
1
1
1
1
1
1
1
1
1
1
0.999993
0.999983
1
1
1
1
1
1
1
1
0.999992
0.999973
0.999996
1
0.999998
1
1
1
1
0.999991
1
0.999986
0.999999
1
1
1
1
1
1
0.999831
0.999848
1
1
1
1
1
1
1
1
0.999927
0.999965
1
1
1
1
1
1
0.999998
1
0.999999
1
1
1
1
1
1
1
0.999999
0.997904
0.999998
0.999805
0.99419
1
1
1
1
1
0.999999
0.952189
0.607474
0.497411
0.41348
0.386711
0.405661
0.446419
0.498315
0.616729
0.705838
0.894055
0.0255723
0.00693649
0.000846623
0.000200588
2.71887e-05
7.24379e-05
0.00166265
0.0163678
0.0814872
0.345503
0.000163402
4.69313e-05
1.58943e-05
9.72295e-06
1.04228e-05
9.44658e-06
9.03882e-06
8.83688e-06
8.74426e-06
8.72274e-06
5.39475e-06
3.43103e-06
2.8232e-06
2.54204e-06
5.40308e-06
1.09882e-05
1.07759e-05
9.03882e-06
1.44863e-05
8.79957e-06
2.6455e-06
2.53815e-06
2.54058e-06
2.54204e-06
2.54204e-06
5.63478e-05
9.4708e-05
2.00892e-05
9.07008e-06
7.03219e-05
2.23221e-06
6.49107e-06
2.91546e-06
2.54204e-06
6.51635e-05
9.97595e-05
0.000101897
3.81833e-05
7.25824e-05
0.00012816
7.98329e-06
0.000101674
4.31447e-05
3.69734e-06
0.000179844
0.000101692
3.3213e-05
0.000141561
0.000138874
8.60195e-05
3.39792e-05
0.000198284
0.00018422
3.14374e-05
0.000124174
2.90309e-05
3.08174e-05
0.000158122
0.000109975
6.34642e-06
4.21678e-05
0.000147509
0.000284686
0.000194906
2.18196e-05
1.11916e-05
4.54076e-05
9.4358e-05
3.12758e-05
4.0123e-06
1.48115e-05
9.94034e-06
0.000128286
0.000271825
6.12258e-05
7.595e-06
3.77649e-05
8.13727e-05
3.75895e-06
3.86622e-06
9.62915e-07
3.54917e-06
1.0938e-05
0.000104195
7.1297e-05
4.97184e-06
5.07611e-06
6.09593e-05
5.67224e-05
4.00483e-06
1.91876e-06
2.46137e-05
2.55093e-05
2.45129e-05
3.18832e-05
7.70502e-06
1.64284e-06
1.82459e-06
8.82019e-05
1.88598e-05
1
1
1
1
1
1
1
1
1
1
1
0.999995
0.999988
1
1
1
1
1
1
1
1
0.999978
0.999973
0.99999
0.999998
0.999972
0.999997
1
1
1
1
1
0.999988
0.999999
0.999816
0.999643
1
1
1
1
0.99992
0.999753
0.999997
1
0.999936
0.999919
1
1
1
1
0.999998
0.999293
0.997578
0.998385
1
0.999994
1
1
0.999987
0.99976
0.999998
0.999999
1
0.999982
0.999993
0.999943
1
1
0.999981
0.989073
0.999998
0.98997
0.985571
1
1
1
1
1
1
0.986764
0.551451
0.445176
0.377006
0.353601
0.374497
0.411726
0.435743
0.544639
0.688077
0.904008
0.0134424
0.00245922
0.000257486
1.46799e-05
1.4712e-05
1.00695e-05
9.47911e-06
0.00435143
0.0677524
0.311643
9.79418e-05
3.15753e-05
1.43605e-05
8.70384e-06
2.05163e-05
9.47911e-06
9.33481e-06
9.03882e-06
8.92265e-06
8.75549e-06
7.66695e-06
1.41166e-05
1.12399e-05
4.70196e-06
1.08388e-05
9.75692e-06
9.47911e-06
9.91299e-06
1.38246e-05
9.43175e-06
7.26078e-06
1.25018e-05
3.41191e-06
2.54204e-06
3.02063e-06
1.34389e-05
5.39367e-05
4.93961e-05
1.47013e-05
0.000106192
1.74135e-05
0.000225372
0.000166777
1.33974e-05
4.89058e-06
6.16515e-05
0.000108987
0.00011292
0.000130826
0.000132263
1.99433e-05
0.00035144
0.000352785
0.000161803
2.96447e-05
3.84843e-05
9.41096e-05
3.55846e-05
0.000137129
0.000108022
2.96316e-06
0.000273121
0.0003507
0.000349557
8.1409e-05
1.02798e-05
8.55019e-06
4.6383e-05
0.000137156
1.16006e-05
8.70983e-07
1.53688e-05
0.000297545
0.00034031
0.000150063
7.70109e-06
7.52157e-06
3.5617e-05
2.27203e-05
3.86622e-06
2.44693e-05
1.54899e-05
2.75051e-05
0.000280669
0.000119928
3.68885e-06
3.01186e-06
2.67738e-05
3.32018e-06
3.66028e-06
6.89982e-05
8.70838e-05
2.78898e-05
2.48792e-05
2.29213e-05
5.23672e-06
1.64284e-06
1.77069e-06
1.72877e-05
3.99567e-06
7.57502e-05
0.000225627
0.00019064
2.75232e-05
2.08903e-06
1.64284e-06
1.64284e-06
1.64284e-06
1.82459e-06
1.73201e-05
0.988861
1
1
1
1
1
1
1
1
1
0.994035
1
1
1
1
1
1
1
1
1
0.995098
0.999868
1
0.999996
0.999999
1
1
0.999999
1
1
0.98754
0.999527
1
0.999999
0.999983
0.999054
0.998676
1
1
1
0.987379
0.999216
1
1
0.999791
0.994008
0.998642
1
0.999999
1
0.991414
0.999445
0.998321
0.997258
0.996605
0.994008
0.999065
1
0.999957
0.999063
0.999956
0.999988
0.999982
0.999935
0.998728
0.996474
0.999904
1
1
0.978014
0.9983
0.979885
0.985875
0.999999
1
0.999999
1
1
1
0.983179
0.443659
0.386299
0.360647
0.354768
0.3955
0.443497
0.423416
0.474712
0.606133
0.85178
0.00247388
0.000391461
6.55038e-05
7.85903e-05
1.37444e-05
1.98395e-05
3.51633e-05
0.000203496
0.0484526
0.269743
3.59012e-05
3.77976e-05
1.53897e-05
7.4609e-06
9.04289e-05
0.000133988
0.000240688
6.29724e-05
9.40242e-06
8.8617e-06
2.94908e-05
3.10831e-05
8.3689e-06
6.1947e-06
2.5792e-05
3.53172e-05
2.60344e-05
6.24104e-05
6.00038e-05
1.61183e-05
7.52065e-05
0.000306401
0.000211265
8.55419e-06
3.49921e-06
4.98045e-06
1.00933e-05
0.000101052
5.58852e-05
0.000112574
0.000124738
0.000354835
0.000354246
0.000131868
5.17717e-06
6.46045e-06
9.45131e-05
0.000165737
8.492e-05
0.000135653
2.30071e-05
0.000353525
0.000354875
0.000352461
3.54742e-05
8.34225e-06
0.000119137
3.47853e-05
0.000117431
0.000134768
4.77019e-06
0.00034064
0.000352785
0.000348497
0.000124946
1.21136e-05
1.63931e-05
4.57551e-06
5.68769e-05
5.10513e-05
4.8912e-05
0.000141042
0.000258653
0.000347639
0.000258102
1.21897e-05
1.02843e-05
3.18936e-06
4.58046e-06
3.62076e-06
0.000187174
6.11743e-05
1.59694e-05
0.000285916
0.000323662
2.9363e-05
1.2299e-05
2.47264e-06
3.21846e-06
3.39658e-06
0.000206143
0.000143696
1.35538e-05
3.57105e-05
0.000229413
1.96371e-05
2.00223e-06
2.35e-06
2.91656e-06
4.5979e-06
0.000212179
0.000168818
3.66989e-05
8.94622e-06
7.81993e-05
2.67044e-05
1.64284e-06
1.82459e-06
1.99178e-06
2.8651e-05
0.986041
0.998347
1
1
1
1
1
1
1
1
0.986048
1
1
1
1
1
1
0.999999
1
1
0.987088
1
1
1
1
1
1
0.999997
1
1
0.987343
1
1
1
0.999972
1
0.999638
1
1
1
0.987354
0.998032
0.997613
0.998746
0.999973
0.995172
0.996198
1
1
1
0.990351
0.998561
0.997508
0.996932
0.998784
0.994008
0.996265
1
0.999822
0.99752
0.999992
0.999974
0.999962
0.999887
0.99948
0.996993
0.999102
1
0.999994
0.974191
0.98226
0.9785
0.991133
0.999995
1
1
1
1
1
0.980157
0.366277
0.350142
0.358031
0.35839
0.391905
0.430689
0.410505
0.452106
0.573633
0.829396
0.000474374
4.60731e-05
1.91528e-05
4.84191e-05
9.56218e-06
1.84274e-05
2.81585e-05
0.000151523
0.0383001
0.246203
4.63113e-05
1.90368e-05
9.92234e-06
8.49847e-06
9.56218e-06
0.000315797
0.000331256
0.000261193
9.03099e-06
8.37799e-06
0.000127099
0.000268608
0.000167731
8.97016e-06
8.19558e-06
7.96595e-05
0.000326739
0.00032412
0.000151435
1.3199e-05
0.00031174
0.000349586
0.000352843
7.86063e-05
5.17717e-06
6.46045e-06
3.28408e-05
0.000315473
0.000150899
2.60707e-05
5.09902e-05
0.000353525
0.000354875
0.000214268
7.79713e-06
7.39884e-06
3.66356e-05
0.000161183
0.000104073
0.000132574
4.04026e-06
0.000233915
0.000352097
0.000346595
3.88288e-05
8.33848e-06
0.000225067
4.31501e-05
2.40129e-05
0.000135653
6.6512e-05
9.48146e-05
0.000236811
0.000348172
0.000269881
8.85718e-05
0.000222715
4.38617e-05
1.77892e-05
0.000135245
0.000177786
0.000120075
2.50168e-05
0.000238962
0.000323662
0.000317058
0.000216302
9.13697e-06
6.71365e-06
5.02466e-05
0.000185986
0.000140427
1.31233e-05
2.87171e-05
0.000324008
0.000323662
0.000119466
2.86629e-06
3.20778e-06
3.34265e-06
0.000185502
2.08114e-05
1.1978e-05
1.28677e-05
0.000323662
0.000254761
2.73957e-05
2.47264e-06
2.95651e-06
2.29468e-05
4.3018e-05
8.52425e-06
7.78633e-06
9.15805e-06
0.000235808
8.95742e-05
2.15723e-06
6.30535e-06
2.22251e-06
7.14794e-05
0.999753
1
1
1
1
1
1
1
1
1
1
0.999993
0.999996
1
1
1
1
1
1
1
1
1
1
1
1
1
0.999982
1
1
1
1
1
1
1
0.999835
0.999614
0.999907
1
1
1
0.999354
0.990302
0.989278
0.994069
1
0.999018
0.999965
1
1
1
0.999727
0.991055
0.98932
0.99519
1
0.999637
1
0.99999
0.999936
1
1
0.999992
0.999997
1
1
1
1
0.999999
1
0.987044
0.958936
0.961553
0.968897
0.989834
1
1
1
1
1
0.966317
0.297426
0.303841
0.323331
0.31916
0.345587
0.365947
0.347516
0.4251
0.589564
0.842894
7.69455e-05
6.30617e-05
3.6062e-05
4.29907e-05
1.03169e-05
2.0048e-05
2.44001e-05
0.000255714
0.049194
0.257773
6.55314e-05
3.59749e-05
1.41778e-05
9.92572e-06
9.5517e-06
0.000248147
0.000295204
2.28695e-05
8.37799e-06
7.79612e-06
0.00028244
0.000299973
0.000305771
7.77076e-05
9.97047e-06
8.08485e-05
0.00032412
0.000319041
0.000176227
1.43092e-05
0.000330808
0.0003465
0.000348904
0.000206331
1.05429e-05
9.03624e-06
6.48884e-05
0.000319043
0.000256107
3.04995e-05
5.5288e-05
0.000152663
0.000221898
0.00022869
1.63135e-05
3.72005e-05
0.000185535
0.000228585
0.000113369
2.20316e-05
2.87485e-06
2.76389e-06
2.85742e-06
6.45374e-05
0.000256393
0.000281578
0.000269452
1.73684e-05
2.40534e-05
0.000127157
1.48257e-05
2.80247e-06
2.97722e-06
1.17966e-05
0.000267774
0.00029521
0.000143724
6.95276e-06
1.75745e-05
0.00013536
4.66933e-05
3.03016e-06
3.43445e-06
4.83994e-06
0.000101877
0.000308683
8.08496e-05
6.25198e-06
5.95602e-06
4.27282e-05
4.38476e-05
9.98522e-06
2.53518e-05
3.51497e-05
9.3289e-05
0.000174813
8.84819e-05
9.7586e-06
3.26758e-06
3.5367e-06
1.96564e-05
2.57187e-05
7.37922e-05
7.91093e-05
6.89191e-05
0.000230252
0.000166655
6.51016e-05
3.00285e-06
7.21604e-05
3.44269e-05
9.51967e-06
2.95665e-05
1.626e-05
1.56289e-05
0.000114635
0.000166833
0.000156227
7.68118e-06
0.000147039
1
1
0.999999
1
1
1
1
1
1
1
1
0.999997
0.999993
0.999999
1
1
1
1
1
1
1
1
1
0.999997
0.999997
0.999998
1
1
1
1
0.999876
0.999128
0.999252
1
1
1
1
1
1
1
0.99856
0.990346
0.997082
1
1
1
1
1
1
1
0.99896
0.991075
0.999608
1
1
1
1
1
1
1
1
0.999997
1
1
1
1
1
1
1
0.999667
0.958364
0.957411
0.96369
0.995481
1
1
1
1
1
0.91393
0.295443
0.317134
0.327974
0.316938
0.333633
0.351008
0.37054
0.468004
0.606726
0.824005
6.02853e-05
4.95109e-05
3.28016e-05
0.000316855
2.1206e-05
2.39159e-05
1.526e-05
0.00190664
0.0568707
0.25289
6.17634e-05
3.3851e-05
1.70796e-05
1.30534e-05
7.18177e-05
0.000115133
4.60432e-05
1.7997e-05
7.79612e-06
7.28593e-06
0.000259417
0.000242862
0.000269971
0.00022572
3.78462e-05
4.21307e-05
0.000105679
0.000224941
0.000143563
1.95222e-05
0.000147248
0.000162663
0.000274554
0.000267056
2.98382e-05
1.64418e-05
0.000201324
0.000300972
0.000279732
4.18767e-05
2.87426e-06
2.76313e-06
2.85682e-06
6.72729e-05
0.000200612
0.000218262
0.000212423
0.000208995
0.00010337
1.46686e-05
2.76389e-06
2.76329e-06
2.76389e-06
2.85742e-06
2.84723e-05
0.000225471
0.000156401
6.80793e-06
1.986e-05
1.86345e-05
2.80246e-06
2.76389e-06
2.80247e-06
2.97722e-06
3.11431e-06
7.21237e-05
6.69499e-06
6.4896e-06
1.45617e-05
2.81418e-05
4.04983e-06
2.80247e-06
2.9772e-06
3.35169e-06
3.62095e-06
0.000107305
7.76267e-05
5.83617e-06
5.44556e-06
1.38386e-05
5.46515e-06
3.8608e-06
3.43443e-06
8.28649e-06
5.79109e-05
0.000182814
0.000186236
2.17816e-05
3.5367e-06
3.71635e-06
0.000133212
0.000102925
1.98963e-05
9.33822e-05
0.000134508
0.000207697
0.000196915
0.000139263
2.05337e-05
5.68833e-05
0.000305885
0.00017766
7.54025e-05
0.00014347
0.000158819
0.000175393
0.000186236
0.00017475
2.39074e-05
0.000152277
1
1
1
1
1
1
1
1
1
1
1
1
0.999999
1
1
1
1
1
1
1
1
1
0.999997
1
1
1
1
1
1
1
0.999982
1
1
1
1
1
1
1
1
1
0.999697
0.997154
1
1
1
1
1
1
1
1
0.999786
0.998475
1
1
1
1
1
1
1
1
0.999998
1
1
1
1
1
1
1
1
1
0.993822
0.98679
0.986989
1
1
1
0.999999
0.991416
0.969312
0.863229
0.370974
0.388078
0.387267
0.369233
0.385938
0.409011
0.411113
0.487037
0.583474
0.656866
0.000210754
9.75061e-05
1.71023e-05
7.03733e-05
2.08968e-05
1.47758e-05
7.11732e-06
0.00195975
0.0438546
0.171398
2.65392e-05
1.16679e-05
1.24136e-05
8.54606e-06
3.41933e-05
1.33916e-05
1.81364e-05
3.10606e-05
7.28593e-06
7.09171e-06
3.08511e-05
2.51684e-05
5.35969e-05
0.00011094
8.76757e-05
0.000107375
0.000190788
0.000152432
6.99662e-05
1.26469e-05
2.8816e-05
2.61241e-05
5.08808e-05
0.000101883
0.000128138
0.000240469
0.0002683
0.000279732
0.000188698
1.75386e-05
2.76452e-06
2.76452e-06
2.76273e-06
4.54828e-06
5.07543e-05
0.000121745
0.000195862
0.000177512
6.86621e-05
7.77685e-06
2.76895e-06
2.76272e-06
2.77314e-06
2.8714e-06
2.99683e-06
2.85472e-06
4.46326e-06
2.32764e-05
1.49709e-05
4.35884e-06
2.84328e-06
2.76894e-06
6.08182e-06
6.30597e-06
2.85472e-06
2.53136e-06
4.24335e-06
3.58747e-05
3.98861e-05
4.34098e-06
3.32648e-06
2.8433e-06
8.69818e-06
2.17942e-05
4.35038e-06
2.36669e-06
2.1806e-05
2.88165e-05
3.98271e-05
4.51182e-06
5.82496e-06
5.90817e-06
1.38592e-05
1.26963e-05
1.12703e-06
1.51918e-06
6.72716e-05
1.2906e-05
1.24373e-05
4.06049e-06
0.000176156
0.000196376
3.72608e-05
1.11702e-06
9.5954e-07
1.33933e-06
6.55943e-05
5.67424e-05
5.89693e-06
4.29611e-06
0.000321015
0.000317448
6.33047e-05
2.09452e-06
1.12703e-06
1.42225e-05
4.19374e-05
4.51829e-05
4.29182e-05
0.000126401
1
1
1
1
1
1
1
1
1
1
1
1
1
1
1
1
1
1
1
1
1
0.999999
1
1
1
1
1
1
1
1
1
1
0.999994
1
1
1
1
1
1
1
0.999989
1
0.999999
1
1
1
1
1
1
1
0.999317
0.998566
1
1
1
1
1
1
1
1
0.99991
0.999936
1
1
1
1
1
0.999999
0.999999
1
0.999999
1
1
1
1
0.993955
0.985667
0.97044
0.912789
0.83874
0.497156
0.49122
0.487746
0.465715
0.46323
0.46751
0.439449
0.431206
0.351424
0.321988
0.00336706
0.00310374
0.00242561
0.000637137
6.58855e-06
7.11732e-06
4.85578e-06
6.70882e-06
7.58252e-06
0.0480337
4.77807e-06
4.2907e-06
5.58989e-06
5.58128e-06
4.26437e-06
6.21964e-06
1.08021e-05
1.17714e-05
7.09451e-06
7.11947e-06
2.93877e-06
3.47063e-06
3.0555e-06
2.6563e-06
4.77286e-05
0.000135952
0.000180512
8.55835e-05
8.10386e-06
6.01921e-06
1.93983e-06
2.74672e-06
2.28146e-06
2.24739e-06
5.95692e-05
0.00017786
0.000248872
0.000171202
2.32148e-05
4.53191e-06
2.97887e-06
9.1988e-06
5.37425e-06
2.44888e-06
2.44663e-06
9.59719e-06
4.8667e-05
5.56321e-05
1.41115e-05
4.08216e-06
2.92171e-06
1.26749e-05
3.48862e-05
8.91748e-06
2.70711e-06
2.99684e-06
3.42185e-06
6.74171e-05
2.28537e-05
4.03101e-06
3.32635e-06
2.8433e-06
4.92701e-05
3.50275e-05
3.32755e-06
3.16281e-06
6.76834e-06
6.77373e-05
1.46323e-05
4.16267e-06
4.08199e-06
3.42569e-06
4.0183e-05
4.55185e-05
1.70097e-05
2.87621e-06
1.33977e-05
6.74305e-05
1.83141e-05
4.29122e-06
5.37965e-06
2.80422e-06
3.992e-05
4.55185e-05
7.39717e-06
5.38729e-06
6.25739e-06
6.63646e-05
3.0734e-05
4.29122e-06
3.95475e-05
3.77644e-05
3.52323e-05
2.67019e-06
5.76586e-07
8.23988e-06
7.71469e-06
1.30146e-05
6.90345e-06
4.29122e-06
9.84023e-05
0.000201792
7.1851e-05
1.40598e-06
1.52964e-06
7.27733e-06
7.63366e-06
8.65432e-06
7.47815e-06
1.52677e-05
1
1
1
1
1
1
1
1
1
1
1
1
1
1
1
1
1
1
1
1
1
1
0.999999
1
1
1
1
1
1
1
0.999996
1
0.99999
1
1
1
0.999999
1
1
1
0.999946
0.999815
1
1
1
1
0.999999
1
1
1
0.993895
0.996257
1
1
1
1
1
0.999999
0.999999
1
0.999079
0.999728
1
1
1
1
0.999997
0.999971
0.998632
0.999651
0.999996
1
1
1
0.977804
0.972575
0.953992
0.785711
0.59236
0.61169
0.582562
0.564442
0.568726
0.52908
0.500059
0.462219
0.333334
0.16484
0.025424
0.0243769
0.0116527
0.0109646
0.0105861
0.00452111
4.26437e-06
4.0572e-06
3.52096e-06
3.34934e-06
1.70457e-05
7.8816e-06
3.1915e-06
1.26797e-05
4.24666e-06
2.6588e-06
3.62177e-06
3.92956e-06
2.84436e-06
9.02897e-06
2.60283e-05
7.47641e-06
2.31572e-06
2.51783e-06
2.28287e-06
2.1791e-06
3.30618e-06
3.15467e-05
2.90102e-05
5.50852e-06
6.3325e-06
4.63137e-06
1.24581e-06
1.85508e-06
2.13511e-06
2.13414e-06
2.99758e-06
1.85949e-05
4.3827e-05
8.93628e-06
4.26493e-06
4.08215e-06
2.15538e-06
2.70977e-05
1.77075e-05
2.31666e-06
2.38795e-06
2.44662e-06
2.82038e-06
2.52635e-06
3.42533e-06
4.02377e-06
3.88346e-05
5.49265e-05
5.45572e-05
2.05495e-05
4.28215e-06
8.97288e-06
5.19604e-05
5.09782e-06
4.02008e-06
4.03101e-06
0.000111065
3.17923e-05
5.40304e-05
3.78726e-05
1.21378e-05
1.96771e-05
8.67775e-05
4.74638e-06
8.16995e-06
4.03101e-06
0.0001135
2.80423e-06
3.52199e-05
4.55185e-05
1.40913e-05
3.1599e-05
8.47054e-05
8.05063e-06
3.32846e-05
3.09606e-05
6.82881e-05
6.46398e-07
1.62043e-05
2.76166e-05
4.75492e-06
3.27939e-05
6.68333e-05
1.62201e-05
3.01554e-05
2.81839e-05
1.72398e-05
4.84611e-07
2.19932e-07
9.5894e-07
3.42354e-07
1.28867e-05
2.20726e-05
1.4403e-05
7.95329e-06
5.88097e-06
1.67439e-06
3.51367e-07
3.21146e-07
1.02793e-06
1.10818e-05
7.63366e-06
8.63784e-06
2.01865e-05
7.62362e-06
6.43133e-06
1
1
1
1
1
1
1
1
1
1
1
1
1
1
1
1
1
1
1
1
1
1
1
1
1
1
1
1
0.999998
1
0.999981
0.999991
1
1
1
1
0.999994
0.999976
0.999999
1
0.999369
0.999924
1
1
1
0.999999
0.999969
0.999994
0.999998
1
0.99879
1
1
1
1
0.999984
0.999997
0.999971
0.999936
0.99999
0.999926
1
1
1
0.999999
0.999989
0.99923
0.944392
0.856823
0.926998
1
1
1
0.979417
0.964182
0.957457
0.723501
0.393009
0.191212
0.249434
0.590857
0.586649
0.576123
0.524459
0.472374
0.258935
0.0690514
3.32965e-06
1.7047e-05
0.000226116
0.0167992
0.017972
0.0158301
0.00839679
0.00141279
2.72237e-06
2.39953e-06
2.28528e-06
2.95369e-06
1.72481e-05
5.48824e-06
1.98569e-05
1.18563e-05
2.17855e-06
2.37434e-06
2.47022e-06
2.26205e-06
2.2534e-06
0.000143781
0.000178915
1.14838e-06
1.61655e-06
2.07326e-06
2.13414e-06
2.17937e-06
2.35317e-06
2.35078e-06
2.25593e-06
0.000118383
0.000176349
1.0282e-06
1.22969e-06
1.84844e-06
2.11377e-06
2.13414e-06
2.21251e-06
2.35706e-06
2.25593e-06
7.06742e-05
0.000108309
2.84445e-06
1.37088e-05
6.28766e-06
2.13414e-06
2.55056e-06
2.50914e-06
2.30742e-06
2.34262e-06
1.46937e-05
4.67595e-06
1.14661e-05
4.2038e-05
4.0578e-05
1.20015e-05
1.62717e-05
4.05448e-05
4.78251e-05
4.02645e-06
4.714e-05
4.03101e-06