/*--------------------------------*- C++ -*----------------------------------*\
| =========                 |                                                 |
| \\      /  F ield         | OpenFOAM: The Open Source CFD Toolbox           |
|  \\    /   O peration     | Version:  2312                                  |
|   \\  /    A nd           | Website:  www.openfoam.com                      |
|    \\/     M anipulation  |                                                 |
\*---------------------------------------------------------------------------*/
FoamFile
{
    version     2.0;
    format      ascii;
    arch        "LSB;label=32;scalar=64";
    class       volScalarField;
    location    "0.855";
    object      p_rgh;
}
// * * * * * * * * * * * * * * * * * * * * * * * * * * * * * * * * * * * * * //

dimensions      [1 -1 -2 0 0 0 0];

internalField   nonuniform List<scalar> 
8000
(
399.29
398.685
397.597
396.135
394.46
392.768
391.281
390.187
389.397
388.493
399.291
398.584
397.344
395.682
393.754
391.757
389.943
388.626
387.859
386.649
399.329
398.377
396.832
394.771
392.352
389.639
386.987
385.134
384.427
382.846
399.373
398.029
395.949
393.221
389.954
385.944
381.555
378.54
377.901
376.34
399.088
397.094
394.396
391.106
386.878
381.047
373.726
367.628
365.339
364.642
398.059
395.652
392.08
387.778
382.804
375.506
364.464
348.812
321.53
344.637
379.914
374.866
365.742
367.932
375.516
367.753
338.179
220.007
91.2224
213.965
304.414
275.221
256.937
228.333
206.551
184.799
103.837
13.9326
0.56479
2.61189
131.785
119.337
96.4164
63.4121
18.3494
0.34511
0.366184
0.463317
0.511125
0.553078
0.14078
0.142586
0.154138
0.170392
0.181556
0.231336
0.272668
0.351746
0.412523
0.427395
0.113044
0.136651
0.157938
0.171749
0.196152
0.239196
0.250868
0.28316
0.327537
0.332068
0.110273
0.14909
0.1748
0.187308
0.203018
0.217208
0.217461
0.228037
0.244696
0.2581
0.1381
0.170945
0.182512
0.186535
0.190466
0.201261
0.188373
0.183971
0.189673
0.204278
0.162598
0.186677
0.19462
0.222935
0.237635
0.22898
0.208712
0.157259
0.15565
0.164732
0.177437
0.196028
0.296169
0.416346
0.418744
0.365764
0.3466
0.32102
0.243302
0.140142
0.181172
0.279927
0.448518
0.434405
0.40802
0.357325
0.319736
0.292161
0.296279
0.176411
0.213793
0.401536
0.433952
0.421249
0.396267
0.312077
0.251783
0.0520688
0.0749802
0.11353
0.223968
0.243622
0.336558
0.404102
0.253511
0.110158
0.050356
0.0488781
0.0464396
0.0829131
0.10807
0.0969223
0.22082
0.264205
0.119122
0.123755
0.0861656
0.0454483
0.0601185
0.0843788
0.0609727
0.0819025
0.0971227
0.0833916
0.113187
0.140892
0.137811
0.0958197
0.0845144
0.107824
399.831
399.222
398.168
396.758
395.176
393.643
392.397
391.545
390.779
389.445
399.874
399.183
397.982
396.388
394.599
392.848
391.466
390.614
389.868
387.81
400.014
399.11
397.633
395.668
393.435
391.13
389.182
387.988
387.062
384.257
400.384
399.102
397.114
394.506
391.339
387.621
383.778
381.38
380.029
376.982
400.293
398.498
396.05
392.682
388.252
382.485
375.503
369.458
363.478
362.592
400.036
398.098
395.04
390.571
384.879
376.917
364.924
340.897
288.323
339.524
394.408
393.105
389.178
385.437
378.77
367.614
322.821
170.608
58.1161
186.021
376.539
374.555
362.787
333.29
259.673
180.45
76.8784
8.3974
0.454549
0.833097
88.0573
68.6548
47.8279
30.0671
10.8761
0.357484
0.311678
0.426819
0.453408
0.515124
0.140606
0.120434
0.125298
0.137153
0.162204
0.204093
0.244369
0.310474
0.355586
0.490435
0.0616493
0.0731559
0.109119
0.134165
0.173187
0.253015
0.281781
0.278108
0.339342
0.770351
0.0585607
0.100752
0.13975
0.159864
0.192376
0.315804
0.36027
0.236808
0.272972
0.677119
0.104575
0.143507
0.164636
0.166307
0.206254
0.331732
0.353386
0.232691
0.185345
0.382287
0.140654
0.179612
0.176596
0.180518
0.329618
0.342191
0.326982
0.266355
0.127377
0.138783
0.171495
0.213849
0.194816
0.324339
0.354358
0.282047
0.167731
0.245291
0.183468
0.119723
0.210585
0.231419
0.303793
0.39046
0.311315
0.0794997
0.0400043
0.0901495
0.241453
0.0978669
0.249575
0.284162
0.422726
0.348848
0.076445
-0.0041717
-0.0411113
-0.0853316
-0.000219221
0.0587971
0.224806
0.381365
0.352597
0.104704
0.0563332
0.0211081
-0.022937
-0.0802708
-0.0249277
0.0528239
0.137046
0.156936
0.0837218
0.0327318
0.0488341
0.0965359
0.141244
0.0503916
-0.00700464
0.0551389
0.0593428
0.0414867
0.0103368
0.00406701
0.0350949
0.131783
0.206587
0.0907074
0.0366151
0.0640433
400.775
400.188
399.17
397.823
396.333
394.905
393.736
392.851
391.963
390.615
400.887
400.216
399.075
397.577
395.924
394.339
393.084
392.165
391.188
389.088
401.186
400.324
398.947
397.121
395.126
393.143
391.587
390.492
388.897
385.798
401.766
400.549
398.794
396.481
393.752
390.551
387.566
385.14
382.239
379.384
402.118
400.638
398.313
395.186
391.142
386.212
380.466
374.954
368.949
368.067
403.013
401.09
398.365
394.69
389.534
382.102
372.352
359.472
341.46
354.621
402.427
400.318
396.484
392.741
387.095
378.575
355.708
264.863
188.43
307.236
382.772
377.095
371.704
377.016
354.959
273.757
165.765
65.8882
13.9005
59.513
132.913
105.315
73.0683
52.2852
33.47
10.7492
0.414484
0.378102
0.357806
0.353963
0.147146
0.116567
0.735961
0.116331
0.128421
0.185244
0.258652
0.315069
0.334015
0.677523
0.0586924
0.0561108
0.0767629
0.1033
0.125303
0.256562
0.352607
0.340973
0.39824
1.70652
0.0779662
0.10164
0.119436
0.137245
0.159009
0.329246
0.352178
0.361631
0.445989
1.74561
0.108499
0.128061
0.153711
0.157385
0.285594
0.326898
0.325135
0.210796
0.290721
1.79569
0.10292
0.136476
0.153272
0.157749
0.330024
0.197015
0.116439
0.156074
0.13451
0.863174
0.107949
0.155166
0.166145
0.276001
0.304181
0.00474791
-0.0178186
0.101525
0.0953472
0.103345
0.119416
0.185577
0.212976
0.364687
0.0767036
-0.042723
-0.0872614
-0.0598525
0.0535628
0.0957184
0.133609
0.202741
0.355067
0.243065
0.0233268
-0.0492082
-0.108634
-0.0974209
-0.00348355
0.410558
0.159769
0.302616
0.301252
0.036083
0.0156269
-0.0161052
-0.0134173
-0.0042887
0.0571182
0.370178
0.134094
0.207779
0.0486308
-0.0202798
-0.008868
0.0644047
0.165868
0.177142
0.16001
0.0789548
0.0347852
-0.00200727
-0.0638422
-0.0719959
-0.0423144
0.117975
0.208645
0.221975
0.0640867
0.0862537
402.019
401.446
400.461
399.181
397.769
396.401
395.225
394.247
393.29
392.205
402.22
401.571
400.476
399.07
397.522
396.042
394.791
393.729
392.608
390.993
402.706
401.916
400.606
398.936
397.114
395.348
393.902
392.596
390.91
388.445
403.52
402.451
400.803
398.7
396.317
393.865
391.587
389.098
385.92
383.754
404.48
403.1
400.918
398.155
394.918
391.234
387.059
382.109
377.254
376.646
405.837
404.046
401.4
398.146
394.188
388.873
381.988
373.662
366.76
369.171
406.907
404.476
400.525
396.644
392.859
387.048
378.813
360.207
341.389
364.95
387.406
377.633
363.891
362.977
375.693
356.029
282.784
181.854
117.621
192.96
181.498
155.719
120.402
84.6781
50.2599
26.4682
7.6694
0.538709
0.279714
0.36418
1.23654
0.554129
0.296575
0.0873256
0.096421
0.172346
0.251775
0.346248
0.327362
0.419919
0.0876784
0.0579444
0.0778252
0.0962018
0.0928431
0.170138
0.242813
0.34711
0.302679
0.333488
0.0955673
0.0931956
0.108749
0.119956
0.128092
0.196188
0.252596
0.340067
0.317492
0.291759
0.0899108
0.117046
0.13836
0.148049
0.251464
0.0992662
0.0895044
0.219485
0.187828
0.24675
0.0749254
0.118085
0.138926
0.148463
0.305191
0.0503333
0.0327959
0.0891825
0.745064
1.35429
0.067054
0.107883
0.131532
0.25414
0.23346
-0.0330214
-0.0542759
0.0120429
0.462278
1.34771
0.0497222
0.0961096
0.154971
0.345561
0.0147534
-0.0716685
-0.0959081
-0.0466085
0.183877
1.36349
0.0198133
0.0960641
0.218194
0.214264
0.00436632
-0.0672171
-0.108728
0.0325727
0.909111
1.38404
0.0103746
0.148034
0.244908
0.0220258
-0.0125799
-0.0400474
-0.0202929
0.772876
1.1492
1.18061
0.0266038
0.135971
0.075369
-0.0608448
-0.0493645
-0.0130076
0.103745
0.121144
0.0497724
0.0610062
0.00341327
-0.0268956
-0.102893
-0.118019
-0.0965358
-0.00490965
0.18387
0.210435
0.0609517
0.0835901
403.47
402.895
401.927
400.704
399.365
398.055
396.882
395.874
394.965
394.192
403.766
403.132
402.062
400.722
399.272
397.865
396.623
395.52
394.454
393.393
404.433
403.686
402.431
400.874
399.195
397.577
396.148
394.817
393.405
391.863
405.515
404.544
402.98
401.062
398.983
396.936
395.048
392.978
390.659
389.054
407.005
405.7
403.684
401.254
398.62
395.887
393.049
389.483
386.115
385.245
408.443
407.157
404.761
401.847
398.698
395.087
390.629
385.398
381.451
381.638
410.947
408.863
405.429
401.703
398.599
394.904
389.893
384.038
379.463
381.513
397.796
390.006
381.13
372.659
382.636
391.332
374.726
324.023
272.319
283.146
201.657
186.359
164.733
130.751
95.8511
70.2088
46.5093
37.2648
17.2144
58.6482
4.03393
2.15736
0.739584
0.258194
0.151591
0.150089
0.185392
0.255363
0.229095
0.276112
0.267375
0.176558
0.119994
0.103901
0.0798774
0.0906913
0.127073
0.174369
0.184749
0.242464
0.109139
0.109583
0.110013
0.111577
0.112249
0.0882815
0.0921972
0.154857
0.171953
0.215519
0.0800178
0.107033
0.118829
0.125656
0.128184
0.0721803
0.060726
0.103066
0.123836
0.185617
0.058187
0.0944645
0.118869
0.128444
0.225324
0.0341575
-0.00310691
0.060854
0.226392
0.223107
0.0456252
0.074273
0.105612
0.233503
0.198462
-0.0424666
-0.0738989
0.0186624
0.320607
0.343498
0.0114241
0.0451825
0.120619
0.310226
0.00707389
-0.0649774
-0.0832457
0.0497315
0.820009
0.834282
-0.0422547
0.0211317
0.124293
0.127134
-0.00728745
-0.0486421
-0.0406131
0.582553
0.847779
0.632868
-0.0577771
0.00936648
0.101377
-0.00837706
-0.0307577
-0.0265042
0.0937167
0.219565
0.253665
0.0338883
-0.0199353
0.0218381
0.00853511
-0.057324
-0.0664055
-0.00718537
0.0334483
0.0197529
0.0242869
0.0581959
0.0273732
-0.0291073
-0.0778248
-0.112035
-0.105857
-0.058182
0.0366692
0.14366
0.152947
0.130315
405.001
404.401
403.44
402.26
400.991
399.754
398.632
397.666
396.864
396.317
405.425
404.755
403.693
402.406
401.036
399.718
398.534
397.498
396.589
395.924
406.227
405.47
404.251
402.788
401.244
399.764
398.437
397.235
396.107
395.225
407.568
406.596
405.097
403.339
401.517
399.772
398.168
396.593
395.044
394.051
409.414
408.124
406.242
404.098
401.914
399.796
397.719
395.503
393.474
392.641
411.183
409.804
407.73
405.229
402.77
400.305
397.641
394.673
391.989
391.461
414.1
412.3
409.594
406.454
403.865
401.629
399.024
396.122
392.224
392.254
410.07
404.252
400.299
392.069
387.743
396.152
403.563
395.584
363.109
311.036
206.118
201.708
190.441
173.278
166.083
168.05
157.239
153.764
131.348
156.236
3.48451
2.38024
0.99848
0.250548
0.14771
0.142128
0.171363
1.65706
11.5506
47.6691
0.218459
0.157987
0.119682
0.119477
0.0960998
0.0821397
0.0987808
0.125561
0.115673
0.182779
0.0972325
0.113915
0.118201
0.115987
0.101058
0.0901898
0.0837333
0.111558
0.111966
0.156811
0.066405
0.0994627
0.110236
0.112432
0.104728
0.0734317
0.0476128
0.0593544
0.0855027
0.153679
0.0506163
0.0771607
0.0938362
0.109491
0.0981865
0.0313094
-0.0220829
-0.00158118
0.000106354
0.0883995
0.0440472
0.051214
0.0791681
0.1544
0.149764
-0.0205423
-0.0526371
-0.0577316
-0.0413562
0.0293272
0.0215985
0.0255249
0.0777875
0.234798
0.0897588
-0.0278879
-0.0382422
0.130247
0.306954
0.0171577
-0.00492846
0.0139856
0.0396743
0.0800891
0.00199987
0.000859234
0.108472
0.41151
0.373088
0.0384005
-0.00877417
0.0043512
-0.0282947
-0.0161441
-0.0333282
0.0384879
0.12704
0.110814
0.112771
0.068493
0.0455942
0.011894
-0.0570942
-0.0858848
-0.0567439
0.00184911
0.0978799
0.130385
0.0898531
0.101038
0.0778562
0.0507974
-0.054464
-0.0969288
-0.0777839
-0.0479945
0.013705
0.124382
0.234979
0.150925
406.429
405.805
404.847
403.698
402.484
401.323
400.278
399.394
398.703
398.286
406.998
406.273
405.207
403.953
402.651
401.419
400.327
399.401
398.652
398.191
407.909
407.099
405.889
404.487
403.059
401.734
400.558
399.545
398.685
398.151
409.426
408.398
406.931
405.285
403.665
402.208
400.916
399.743
398.692
398.139
411.375
410.038
408.243
406.327
404.501
402.9
401.474
400.132
398.925
398.519
413.391
411.739
409.744
407.69
405.836
404.216
402.713
401.257
399.322
399.22
416.469
414.392
412.101
409.663
407.638
406.253
405.242
404.514
401.66
401.015
420.139
416.759
413.513
411.511
410.703
410.769
410.501
410.729
399.805
350.955
243.89
220.887
197.949
182.733
182.334
198.082
217.966
258.886
275.53
320.193
7.87061
3.57645
1.09816
0.306553
0.167572
0.237151
1.1815
9.58247
34.9567
140.647
0.174715
0.155784
0.139492
0.13185
0.104062
0.0753391
0.0714015
0.0818413
0.106334
0.166855
0.0912227
0.126128
0.136199
0.131896
0.10885
0.0850948
0.075877
0.0895822
0.106845
0.158593
0.0653997
0.107193
0.118174
0.115504
0.116608
0.101557
0.0638678
0.0412308
0.0588814
0.133922
0.0600466
0.0838603
0.0924212
0.118618
0.12272
0.0650392
-0.0108857
-0.0326662
-0.0446355
0.0551734
0.0639143
0.0615262
0.0859905
0.0984584
0.167199
0.0437441
-0.00640104
0.00501617
-0.0870371
0.00827595
0.0470329
0.0876736
0.0758143
0.0756845
0.156838
0.0291607
0.0983988
0.161551
-0.020472
0.0269404
0.0701652
0.1077
0.0648894
0.0222096
0.0933706
0.062936
0.135846
0.178271
0.0766383
0.0847551
0.0762929
0.106989
0.068739
0.00414633
0.00954608
0.066319
0.144815
0.146852
0.122688
0.121236
0.0560854
0.09028
0.0609241
-0.000993732
-0.00282337
0.031569
0.116481
0.198666
0.186155
0.133717
0.0705328
0.044783
0.0195507
-0.00741227
-0.0171861
0.00820862
0.0442793
0.139633
0.272525
0.15742
407.618
406.996
406.034
404.906
403.728
402.614
401.631
400.821
400.211
399.864
408.307
407.566
406.475
405.241
403.988
402.818
401.801
400.969
400.341
399.993
409.327
408.463
407.24
405.877
404.542
403.323
402.275
401.411
400.751
400.393
410.946
409.871
408.418
406.846
405.38
404.107
403.043
402.144
401.447
401.144
412.818
411.432
409.75
407.998
406.444
405.172
404.168
403.341
402.693
402.566
414.788
412.893
410.972
409.249
407.854
406.758
405.925
405.313
404.325
404.918
417.952
415.291
413.056
411.097
409.687
408.908
408.56
409.04
407.432
409.24
422.37
418.2
412.172
411.748
411.255
412.261
413.403
415.518
415.375
400.967
270.635
220.3
182.427
170.548
178.941
196.838
219.777
271.434
310.322
397.935
12.6475
3.55282
0.590357
0.256077
0.154395
0.158565
0.909286
8.00055
39.942
170.805
0.193578
0.182455
0.164479
0.14545
0.113819
0.0671986
0.0596226
0.0759987
0.113781
0.18293
0.107874
0.15179
0.155733
0.140704
0.111367
0.0748248
0.0661369
0.0845956
0.119981
0.177343
0.0845483
0.131125
0.136901
0.122961
0.105006
0.116986
0.117775
0.055866
0.0601592
0.171319
0.0787865
0.109804
0.107759
0.0927473
0.116448
0.117858
0.0763162
-0.0234062
-0.03613
0.103884
0.0766896
0.152493
0.12319
0.0828621
0.183132
0.112408
0.0223917
0.0467227
-0.0398356
0.0410892
0.0713333
0.214989
0.229329
0.102645
0.149849
0.0803514
0.0732134
0.138348
0.0396973
0.031094
0.0608897
0.171169
0.306965
0.225421
0.0791263
0.0853753
0.134706
0.190333
0.106089
0.0999824
0.0338771
0.0449874
0.150077
0.268211
0.100165
0.0816722
0.134902
0.205555
0.146485
0.13982
0.0325556
0.0267528
0.0170375
0.0911948
0.0872491
0.0667571
0.0934024
0.196051
0.210351
0.150212
0.0537856
0.0431165
0.00865826
-0.00965386
0.0225007
0.0503534
0.0765619
0.130651
0.253158
0.177091
408.494
407.857
406.88
405.741
404.577
403.483
402.535
401.771
401.209
400.901
409.271
408.511
407.375
406.118
404.879
403.738
402.773
402.008
401.458
401.172
410.406
409.478
408.186
406.733
405.42
404.309
403.369
402.613
402.081
401.829
412.1
410.974
409.456
407.758
406.249
405.118
404.312
403.602
403.158
403.028
413.902
412.364
410.666
408.83
407.29
406.263
405.63
405.11
404.824
404.862
415.317
412.973
410.653
409.231
408.416
407.759
407.436
407.225
406.735
407.721
417.424
414.385
412.223
410.602
409.561
409.492
409.788
410.648
409.512
408.796
420.236
412.259
407.317
410.508
410.177
411.151
412.27
416.034
417.454
416.697
245.067
196.84
166.231
155.898
165.174
181.45
191.581
239.202
303.572
403.86
6.84257
1.4429
0.315291
0.199651
0.189814
0.15902
0.113249
2.24206
33.1382
153.8
0.229828
0.218073
0.189013
0.163963
0.135019
0.0799699
0.0642468
0.0837333
0.119709
0.209622
0.143898
0.189617
0.17617
0.148325
0.122479
0.0767657
0.063173
0.0963464
0.127371
0.193555
0.115416
0.164032
0.148034
0.122625
0.107534
0.0977257
0.104355
0.0967584
0.0780915
0.201965
0.0945612
0.266381
0.224913
0.0968226
0.0754738
0.103943
0.114401
0.0672152
0.0063722
0.100618
0.0722288
0.320928
0.329308
0.180289
0.0743657
0.0790613
0.10566
0.007285
-0.0462796
0.0470464
0.0433823
0.247178
0.312057
0.31212
0.106706
0.0657667
0.0702102
0.0687215
0.0621037
0.0349031
0.0347394
0.0369798
0.255213
0.29034
0.152714
0.0694051
0.0884747
0.119543
0.101004
0.101475
0.0548132
0.0289999
0.0108691
0.219707
0.108497
0.0601623
0.0896707
0.142914
0.140918
0.139925
0.10388
0.0857823
-0.00857217
-0.0301019
-0.00231091
0.0492067
0.0848016
0.128113
0.16894
0.15241
0.121337
0.214118
0.126898
-0.0535249
-0.0467175
0.0354619
0.0885856
0.125867
0.162068
0.183693
408.807
408.272
407.24
406.081
404.927
403.839
402.903
402.148
401.601
401.307
409.505
409.004
407.769
406.452
405.228
404.101
403.149
402.423
401.896
401.633
410.442
409.983
408.569
407.046
405.789
404.683
403.772
403.079
402.593
402.389
410.705
411.429
409.942
408.178
406.659
405.42
404.571
404.117
403.767
403.739
411.855
412.842
411.249
409.318
407.656
405.547
405.858
405.659
405.449
405.526
413.159
413.352
411.232
409.266
407.883
406.721
407.524
407.615
407.069
408.148
416.238
413.628
411.856
410.469
409.488
408.92
409.657
410.545
409.812
406.087
416.129
406.359
406.646
410.574
410.893
411.897
411.514
413.771
416.772
415.501
196.309
170.595
159.039
156.483
174.647
195.885
186.145
207.747
267.59
381.957
1.67725
0.508011
0.216895
0.225927
0.219592
0.233781
0.15678
0.24665
23.5323
133.023
0.30402
0.27984
0.205899
0.171025
0.187025
0.173296
0.190162
0.121082
0.125664
0.230073
0.209793
0.236518
0.175984
0.136723
0.130772
0.101676
0.0689969
0.124653
0.153868
0.207696
0.169172
0.346321
0.260593
0.103791
0.0981262
0.0903496
0.0787136
0.137814
0.114697
0.215026
0.147587
0.315911
0.299165
0.135136
0.0563102
0.0696363
0.122903
0.133174
-0.00149309
0.106329
0.0572768
0.282554
0.255307
0.254067
0.0473184
0.0513765
0.136519
0.0266989
-0.0401836
0.0561349
0.0422486
0.268931
0.238062
0.232461
0.0896499
0.0443925
0.0718339
0.0389651
-0.00814711
0.0552591
0.0751431
0.108208
0.160567
0.220998
0.182012
0.0416954
0.0791256
0.0825156
0.0766662
0.0941018
0.192834
0.0356825
-0.046275
0.165144
0.231435
0.0498244
0.0860765
0.110147
0.128752
0.13434
0.214338
0.10275
-0.0588054
-0.0662383
0.137301
0.0337349
0.0755144
0.115575
0.148632
0.149352
0.223734
0.122792
-0.05147
-0.107937
-0.0111819
0.0404154
0.0838038
0.117538
0.150379
0.191506
408.706
408.175
407.172
405.991
404.789
403.667
402.697
401.913
401.345
401.04
409.042
408.95
407.713
406.372
405.067
403.905
402.929
402.17
401.619
401.347
409.625
409.896
408.462
406.971
405.639
404.466
403.508
402.777
402.27
402.06
410.468
411.193
409.594
407.98
406.534
405.339
404.384
403.774
403.379
403.328
411.145
411.952
410.265
408.857
407.603
405.512
405.016
405.256
404.973
405.09
411.754
412.441
410.754
409.195
408.417
406.423
406.338
407.03
406.29
407.163
414.624
412.76
411.523
410.348
409.507
408.532
408.603
409.655
409.277
404.406
407.158
404.103
408.004
410.338
410.412
411.063
410.723
412.53
415.923
413.6
161.993
154.808
157.977
158.09
173.085
190.302
180.689
197.831
252.783
371.965
0.898176
0.535025
0.231421
0.17386
0.21127
0.271035
0.210621
0.203031
18.4684
121.383
0.447235
0.36484
0.220771
0.14838
0.143124
0.298197
0.259562
0.222947
0.114625
0.228867
0.327087
0.374703
0.216009
0.0799042
0.0957816
0.133113
0.244855
0.269594
0.199648
0.20959
0.301052
0.310971
0.246693
0.0715314
0.0650622
0.0839825
0.0873702
0.268552
0.179505
0.174477
0.0674873
0.244458
0.187964
0.116449
0.0324426
0.0683933
0.0965783
0.14142
0.0355816
0.118067
0.016395
0.139095
0.17131
0.189004
0.030858
0.0510985
0.224842
0.0392768
-0.0902238
0.054434
0.0566755
0.0315937
0.0957375
0.187085
0.188436
0.100163
0.233644
0.0625606
-0.0473954
0.110108
0.139084
0.0484636
-0.0591551
0.112866
0.232226
0.285809
0.244629
0.0810103
0.0619632
0.123184
0.138611
0.0642047
-0.0618565
-0.0527526
0.237769
0.302793
0.172382
0.110675
0.121035
0.128743
0.138154
-0.0386543
-0.0569448
-0.0681818
0.242826
0.248861
0.0949419
0.118731
0.14703
0.161253
0.0166869
-0.0352725
-0.0523576
-0.0744427
0.169165
0.10575
0.0789389
0.112523
0.142038
0.221078
408.252
407.619
406.6
405.4
404.15
402.969
401.929
401.081
400.452
400.111
408.95
408.223
407.072
405.768
404.432
403.195
402.128
401.272
400.654
400.332
409.937
409.041
407.769
406.338
404.95
403.732
402.662
401.799
401.185
400.893
411.236
410.019
408.652
407.193
405.689
404.409
403.441
402.618
402.098
401.935
412.218
408.798
407.265
406.87
406.615
405.165
404.506
403.863
403.447
403.432
412.62
408.756
407.064
407.587
407.606
406.484
405.889
405.639
404.93
405.901
412.45
410.952
409.64
408.825
408.183
407.713
407.373
408.386
407.724
406.458
395.51
395.701
397.683
404.289
408.092
408.431
408.271
411.423
414.522
406.568
131.971
134.678
142.836
140.737
152.428
161.361
152.54
186.154
259.716
375.849
0.954641
0.772872
0.354129
0.17343
0.204931
0.286604
0.23631
0.240646
23.6973
127.213
0.551911
0.461825
0.255336
0.123592
0.113976
0.257594
0.267842
0.095661
0.0934212
0.217611
0.422221
0.38373
0.251907
0.0633144
0.0497631
0.114295
0.251098
0.269853
0.195277
0.207447
0.282986
0.258642
0.181968
0.100824
0.0402811
0.0754905
0.111785
0.268773
0.235106
0.176416
0.0309444
0.0664186
0.0601675
0.100844
0.0405685
0.0988055
0.204139
0.177341
0.0328317
0.0414171
-0.0382101
-0.0660913
-0.0955426
-0.0151846
0.208129
0.265441
0.256077
-0.00105423
-0.092366
0.0452901
-0.0564931
-0.0894589
-0.100779
-0.0574552
0.214251
0.27325
0.162516
0.00646671
-0.0532886
0.105202
-0.0565153
-0.107743
-0.0996063
-0.0571963
0.0887064
0.300317
0.129909
0.0659192
0.0506962
0.110538
-0.0774859
-0.109279
-0.0695341
-0.01421
0.0955881
0.204514
0.150235
0.126678
0.126151
0.126004
-0.0993582
-0.0801429
0.00640237
0.0537505
0.0873969
0.268139
0.230319
0.18997
0.155066
0.203948
-0.0582365
-0.048866
0.0155408
0.0246783
0.047592
0.163242
0.231275
0.248032
0.138076
0.280903
407.254
406.609
405.575
404.348
403.042
401.782
400.641
399.684
398.969
398.568
407.838
407.113
405.969
404.646
403.264
401.946
400.766
399.789
399.045
398.632
408.663
407.856
406.625
405.209
403.755
402.385
401.146
400.11
399.328
398.897
409.759
408.641
407.394
405.993
404.458
403.036
401.76
400.668
399.845
399.442
410.611
407.619
407.743
406.812
405.245
403.818
402.554
401.523
400.778
400.462
411.274
407.765
408.807
407.601
406.241
405.02
403.9
403.153
402.312
402.342
411.645
410.249
408.909
407.953
407.13
406.378
405.482
405.56
405.153
406.741
394.813
394.14
395.541
406.156
407.574
407.831
407.783
410.485
411.659
383.234
130.875
140.374
144.828
139.648
147.032
154.613
162.917
205.396
265.966
364.735
0.841707
0.678262
0.389244
0.344349
0.20107
0.262793
0.244397
1.05385
27.5283
124.918
0.493852
0.420719
0.281122
0.160847
0.155782
0.179758
0.129717
0.0960121
0.104398
0.206445
0.367348
0.321952
0.245444
0.163902
0.0596509
0.0854741
0.133259
0.219872
0.175048
0.200195
0.144941
0.134691
0.15108
0.151651
0.059151
0.0840556
0.198911
0.246652
0.230166
0.171265
-0.0314514
-0.0442503
-0.069847
-0.00370384
0.163589
0.221411
0.199302
0.130264
0.00840498
0.0312245
-0.0870058
-0.0988807
-0.106786
-0.072517
0.0229632
0.204274
0.129673
-0.0463957
-0.10622
-0.0263743
-0.131213
-0.139054
-0.129203
-0.087798
-0.0178642
0.07816
0.0263189
-0.0190203
-0.0617331
0.0221156
-0.168527
-0.166566
-0.136755
-0.0803846
-0.00375458
0.128868
0.117673
0.0628958
0.0464509
0.0798598
-0.194551
-0.179219
-0.127785
-0.0490729
0.0786466
0.230042
0.244895
0.149645
0.13891
0.122705
-0.0849496
-0.0747796
-0.072556
0.0798724
0.193737
0.287969
0.272917
0.27185
0.178467
0.188438
0.119404
0.0586751
0.0541655
0.188857
0.241315
0.255908
0.247773
0.25756
0.13977
0.27348
406.042
405.362
404.304
403.015
401.615
400.229
398.946
397.842
396.996
396.502
406.519
405.775
404.63
403.25
401.765
400.305
398.962
397.805
396.886
396.33
407.273
406.486
405.239
403.741
402.139
400.564
399.094
397.807
396.769
396.124
408.405
407.501
406.107
404.454
402.713
400.997
399.378
397.877
396.607
395.885
409.727
408.097
407.139
405.321
403.393
401.476
399.638
397.966
396.616
395.882
410.879
409.452
408.246
406.488
404.61
402.707
400.788
399.054
397.43
396.668
411.902
410.873
409.387
407.788
405.919
403.751
401.895
401.054
400.653
400.193
409.263
406.592
406.133
409.442
408.304
407.294
405.769
402.775
393.896
357.109
163.733
171.462
170.863
162.679
170.211
180.447
181.261
214.695
255.11
287.242
0.645544
0.526295
0.345017
0.225871
0.172875
0.212483
0.243656
1.1355
21.2099
84.6069
0.333351
0.300054
0.243006
0.176317
0.145282
0.127331
0.129503
0.134851
0.130488
0.197566
0.178443
0.153249
0.12447
0.131718
0.114945
0.137096
0.199145
0.197095
0.139747
0.178372
0.060392
0.0531273
0.0359188
0.0656323
0.113079
0.20855
0.225022
0.213346
0.161654
0.146329
-0.0422456
-0.0355054
-0.0521674
-0.0456228
0.0191567
0.0976202
0.133062
0.0783451
-0.0269471
0.0357009
-0.106427
-0.0989069
-0.0942791
-0.0822968
-0.0553602
-0.0318263
-0.041281
-0.0539912
-0.103704
-0.0181355
-0.154004
-0.147034
-0.122121
-0.0931859
-0.0634926
-0.0505461
-0.0379382
-0.0114516
-0.0560512
0.00659869
-0.19458
-0.182546
-0.139562
-0.0819831
-0.0490205
-0.03338
0.0180028
0.0633517
0.0417669
0.060696
-0.226514
-0.202359
-0.138062
-0.0697188
-0.0143722
0.00862785
0.0911728
0.130984
0.124398
0.111619
-0.0872871
-0.0240142
-0.0858201
-0.030652
0.0356483
0.0521697
0.107257
0.182876
0.161174
0.132775
0.0806438
0.150678
0.0124619
0.0294415
0.0645671
0.0763841
0.0784661
0.121646
0.15713
0.238059
404.672
403.991
402.889
401.513
399.982
398.435
396.981
395.715
394.703
394.067
405.061
404.334
403.153
401.676
400.044
398.404
396.861
395.483
394.344
393.57
405.791
405.035
403.732
402.098
400.281
398.435
396.675
395.06
393.67
392.676
406.979
406.095
404.612
402.745
400.671
398.54
396.404
394.295
392.431
391.264
408.686
407.572
405.82
403.623
401.139
398.525
395.83
393.024
390.657
389.483
410.29
408.947
407.444
405.129
402.481
399.575
396.078
392.535
389.325
388.147
412.49
411.406
409.443
406.735
403.264
399.888
396.842
393.117
389.8
388.536
414.37
413.568
412.488
410.17
407.455
402.571
396.701
388.584
362.077
336.089
219.55
217.18
215.469
205.472
204.562
206.86
194.604
190.782
153.57
137.718
1.96655
1.83152
1.45282
0.484279
0.142201
0.167601
0.195023
0.175544
0.0756608
23.5427
0.166576
0.180331
0.172406
0.147212
0.127835
0.133531
0.145075
0.148105
0.167573
0.199393
0.104633
0.0999759
0.079278
0.0722775
0.101934
0.172105
0.218413
0.16837
0.119096
0.172721
0.0363714
0.043144
0.022448
0.0148549
0.0590587
0.153805
0.206188
0.132294
0.0587639
0.14759
-0.0351943
-0.010914
-0.020734
-0.0266698
-0.022376
-0.00427829
0.0193099
-0.0126892
-0.0359623
0.0608728
-0.0961638
-0.0653393
-0.0379524
-0.049824
-0.0548671
-0.0532294
-0.0611642
-0.0250683
-0.0660197
0.00564343
-0.140536
-0.12188
-0.0626283
-0.0493081
-0.0647502
-0.0719679
-0.0768058
-0.00225519
-0.0654141
0.00784229
-0.179322
-0.16307
-0.096636
-0.0503502
-0.0472626
-0.0598812
-0.0355575
0.0634703
-0.0104394
0.0465785
-0.211881
-0.187683
-0.104546
-0.0430143
-0.0307422
-0.0265484
0.00537619
0.135401
0.0880216
0.092865
-0.192936
-0.147431
-0.0845638
-0.052453
-0.00973702
-0.00194882
0.0241274
0.112319
0.122528
0.116679
-0.116971
0.0544393
0.00694731
-0.0136494
-0.000117481
-0.00520029
0.0114257
0.0774639
0.107923
0.117805
403.267
402.585
401.427
399.94
398.256
396.537
394.929
393.51
392.324
391.466
403.591
402.872
401.626
400.021
398.214
396.376
394.636
393.058
391.683
390.562
404.309
403.546
402.141
400.32
398.247
396.113
394.078
392.137
390.355
388.778
405.491
404.6
402.963
400.795
398.307
395.667
392.977
390.132
387.488
385.796
407.311
406.147
404.212
401.522
398.339
394.858
390.996
386.637
382.942
381.414
407.967
407.316
406.145
403.118
399.408
394.871
389.127
382.749
377.749
376.885
411.786
410.871
408.511
404.476
399.914
394.923
387.739
379.113
371.371
373.259
415.544
414.458
412.903
409.566
397.411
391.194
376.514
306.609
227.752
238.352
257.491
249.714
251.494
233.582
221.346
204.936
147.634
72.7909
11.3167
10.6953
5.71524
5.43913
5.28
2.29342
0.146742
0.147019
0.163809
0.201065
0.242949
0.331538
0.0547316
0.0907979
0.108017
0.106294
0.111798
0.126163
0.136123
0.15673
0.212495
0.255698
0.0636325
0.071164
0.0634331
0.0643136
0.0767931
0.118843
0.139129
0.139425
0.162642
0.218074
0.0254204
0.0437595
0.0366845
0.0300467
0.0318471
0.058721
0.0883312
0.0549744
0.0868073
0.174344
-0.0333536
0.0169042
0.0201557
0.00522889
-0.00387258
0.00401164
0.00989717
-0.0247308
0.00693157
0.0937779
-0.0603778
-0.0127098
0.014635
0.00125039
-0.0247279
-0.0231425
0.00306256
-0.0622484
-0.0376754
0.0324574
-0.0356892
-0.0704952
-0.0194509
-0.00447543
-0.0289829
-0.0331815
0.0045886
-0.0586125
-0.047036
0.0180082
-0.0493209
-0.12185
-0.0626344
-0.0137917
-0.0219694
-0.0155653
0.0155047
-0.0189723
-0.00399829
0.0623453
-0.094144
-0.133269
-0.0878163
-0.0364252
-0.0185503
0.00493564
0.0400586
0.0421744
0.0571754
0.0972102
-0.132939
-0.117392
-0.086905
-0.0548695
-0.0212471
-0.00751042
0.0239677
0.082913
0.0897593
0.0984401
-0.12623
-0.0867862
-0.0611375
-0.048644
-0.0307039
-0.0285073
0.00397663
0.0845366
0.0952929
0.0931247
401.956
401.253
400.026
398.413
396.569
394.694
392.962
391.445
390.122
389.008
402.224
401.474
400.148
398.399
396.403
394.367
392.481
390.78
389.234
387.697
402.884
402.063
400.545
398.516
396.163
393.746
391.502
389.323
387.133
384.984
403.96
403.003
401.198
398.699
395.745
392.511
389.274
385.794
382.434
380.13
405.604
404.5
402.296
399.067
394.997
390.369
385.127
379.541
374.859
372.798
407.688
406.744
404.21
400.4
395.45
388.712
380.176
370.95
363.342
363.393
410.934
409.661
406.403
401.522
395.763
387.225
374.57
343.63
304.963
331.809
414.749
413.974
411.185
398.954
388.258
378.002
280.268
151.185
73.2846
96.65
262.077
260.219
255.316
232.285
209.321
114.376
30.4391
0.336817
0.335728
0.485438
8.19575
8.81701
7.7753
4.13667
0.7959
0.142732
0.200829
0.286027
0.323935
0.355464
0.0183113
0.054797
0.0702788
0.0843656
0.107866
0.128577
0.157615
0.214866
0.340423
0.393945
0.0480328
0.06067
0.0600323
0.0657402
0.0872957
0.112851
0.139006
0.168621
0.275454
0.358389