/*--------------------------------*- C++ -*----------------------------------*\
| =========                 |                                                 |
| \\      /  F ield         | OpenFOAM: The Open Source CFD Toolbox           |
|  \\    /   O peration     | Version:  2312                                  |
|   \\  /    A nd           | Website:  www.openfoam.com                      |
|    \\/     M anipulation  |                                                 |
\*---------------------------------------------------------------------------*/
FoamFile
{
    version     2.0;
    format      ascii;
    arch        "LSB;label=32;scalar=64";
    class       surfaceScalarField;
    location    "1.285";
    object      alphaPhi0.water;
}
// * * * * * * * * * * * * * * * * * * * * * * * * * * * * * * * * * * * * * //

dimensions      [0 3 -1 0 0 0 0];

oriented        oriented;

internalField   nonuniform List<scalar> 
22600
(
5.00334e-09
4.75164e-09
-9.75498e-09
2.97768e-08
7.04269e-08
-9.52001e-08
8.5384e-08
1.25796e-07
-1.81403e-07
1.33059e-07
1.19662e-07
-1.67337e-07
1.42469e-07
7.14311e-08
-8.08409e-08
1.19918e-07
4.65549e-08
-2.40032e-08
8.70912e-08
4.04146e-08
-7.5881e-09
6.1782e-08
3.38376e-08
-8.52839e-09
5.70652e-08
1.9574e-08
-1.4857e-08
-1.89836e-09
-2.57265e-08
5.52025e-08
-4.18994e-08
-8.55131e-09
5.99212e-08
1.94953e-08
4.62131e-08
4.1941e-08
1.59699e-07
-1.59222e-08
5.3745e-08
2.22048e-07
-1.14189e-07
6.46773e-08
1.85623e-07
-1.25124e-07
5.07654e-08
1.28113e-07
-6.76464e-08
3.05359e-08
9.06826e-08
-3.00383e-08
1.99044e-08
6.41983e-08
-1.97291e-08
3.23846e-08
2.18284e-08
-1.47345e-08
-6.48344e-08
1.37299e-09
1.9564e-07
-3.1323e-07
7.56913e-08
2.00445e-07
-2.68855e-07
2.83545e-07
6.3633e-08
3.49555e-08
2.61555e-07
-2.18193e-08
1.47656e-07
1.59844e-07
-1.26817e-08
1.8513e-07
-8.64486e-09
7.18969e-09
1.62648e-07
-5.44057e-08
-1.43236e-08
1.39695e-07
-2.74992e-08
-5.42987e-08
9.62588e-08
7.91479e-09
-1.40215e-08
-9.86754e-08
8.02266e-08
-3.41553e-07
1.53851e-07
2.81396e-07
-8.86451e-07
2.91825e-07
3.85356e-07
-8.05541e-07
4.32725e-07
1.92016e-07
-1.87555e-07
4.15851e-07
-1.21426e-08
-1.23324e-08
3.64147e-07
-7.58961e-08
5.23388e-08
1.96545e-07
-8.20797e-08
1.11913e-07
5.69183e-08
-1.15735e-07
1.14666e-07
5.8684e-08
-9.61734e-08
-5.26088e-08
1.29306e-07
1.82778e-08
-4.43601e-07
2.30474e-07
-6.66936e-07
2.32697e-07
1.12886e-07
-1.42372e-06
4.24383e-07
2.39672e-07
-1.26045e-06
3.28124e-07
9.90971e-08
-5.08322e-07
4.61343e-07
-7.16869e-08
-3.06227e-07
4.64678e-07
-1.33256e-07
-2.34677e-07
3.48584e-07
-1.31943e-07
-1.33327e-07
2.43927e-07
-7.69686e-08
-1.62769e-07
2.22461e-07
5.61303e-08
-4.22933e-07
2.37226e-07
1.24349e-07
-7.17069e-07
2.05249e-07
-7.52616e-07
1.13954e-07
6.70008e-08
-1.62797e-06
1.37246e-07
2.02302e-07
-1.4055e-06
9.74592e-09
1.56636e-07
-8.51962e-07
3.89307e-07
5.68737e-08
-6.43576e-07
4.37111e-07
2.95626e-08
-5.36592e-07
3.29226e-07
4.76544e-08
-4.19017e-07
2.67599e-07
1.22349e-07
-4.64414e-07
2.26951e-07
1.69739e-07
-6.31377e-07
1.61054e-07
1.26922e-07
-6.98444e-07
2.41922e-08
-6.51656e-07
-6.5973e-08
2.28433e-07
-1.60131e-06
-2.55078e-07
3.98276e-07
-1.27452e-06
-3.00809e-07
4.26846e-07
-8.65144e-07
-1.53836e-08
3.72284e-07
-6.04687e-07
1.5676e-08
2.91845e-07
-4.65404e-07
9.2528e-09
2.27693e-07
-4.08335e-07
5.34697e-08
1.8871e-07
-4.67228e-07
4.17987e-08
1.14171e-07
-5.32047e-07
-2.47909e-08
7.91871e-08
-5.24517e-07
-1.38943e-07
-4.73015e-07
-2.25598e-07
1.94798e-07
-1.51925e-06
-2.76587e-07
2.99686e-07
-1.02088e-06
-3.58276e-07
1.93584e-07
-5.60371e-07
-1.9843e-07
-6.13073e-08
-2.67794e-07
-8.18145e-08
-2.79155e-07
-2.04976e-07
-4.23288e-08
-3.51152e-07
-2.69122e-07
-6.72238e-08
-3.37203e-07
-3.49301e-07
-1.31925e-07
-2.82155e-07
-3.71294e-07
-2.15761e-07
-1.73558e-07
-3.48828e-07
-2.85804e-07
-3.02121e-07
-3.27216e-07
-3.38107e-08
-1.02243e-06
-1.79742e-07
1.14551e-09
-5.91318e-07
-2.09612e-07
-1.49947e-07
-2.31072e-07
-2.16159e-10
-3.80825e-07
-2.95343e-08
7.64514e-08
-5.09429e-07
2.74541e-09
7.18102e-09
-5.50473e-07
-9.35237e-09
-8.33835e-08
-5.49157e-07
-2.38815e-08
-1.50461e-07
-4.80832e-07
-3.47932e-08
-2.26412e-07
-3.27537e-07
-3.67504e-08
-2.95614e-07
-1.84945e-08
-3.36185e-07
3.07861e-07
-4.4027e-10
1.81987e-07
4.28234e-07
-8.08563e-10
1.68957e-07
3.18889e-07
-1.32661e-09
1.48342e-07
1.5604e-07
-7.97101e-10
1.29433e-07
3.58245e-08
-2.15983e-10
9.04118e-08
-2.34545e-08
-5.94512e-10
5.36001e-08
-4.08821e-08
-9.52239e-10
3.28781e-08
-3.45897e-08
-8.49991e-10
3.73218e-08
-1.50833e-08
-5.47449e-10
5.19225e-08
-6.97748e-11
6.16276e-08
-2.19764e-12
-3.26235e-10
-8.66452e-12
1.11818e-11
-7.61243e-10
5.46198e-12
2.4535e-11
-1.01828e-09
3.46174e-11
7.19195e-13
-2.51298e-10
3.87437e-11
-3.30681e-11
4.59204e-13
1.04657e-11
-1.65928e-11
-1.2774e-11
-6.19956e-11
-1.06445e-11
-1.62287e-12
-6.97653e-10
7.01531e-13
-5.83883e-12
-8.46706e-10
-4.69647e-13
-7.84141e-12
-5.3329e-10
-2.12434e-11
-2.69778e-11
-5.67742e-11
-9.89694e-11
-3.76156e-11
-3.76527e-10
-7.45107e-10
3.27454e-11
-8.68407e-10
-2.49143e-10
7.98531e-11
-3.45938e-10
-3.04279e-11
6.64807e-11
-1.48321e-10
-2.42331e-12
1.20327e-11
-3.49101e-11
-6.9564e-13
1.65134e-13
-4.7783e-12
6.32131e-12
-1.05374e-11
3.10176e-12
5.373e-12
-1.63553e-11
4.841e-13
1.98487e-12
-4.5985e-12
-4.43332e-13
4.94573e-12
-3.18056e-10
8.16863e-11
-1.09381e-10
-6.83841e-10
-8.51832e-11
-7.86182e-11
-2.89287e-10
-6.46225e-11
4.01506e-11
-3.18846e-10
3.75308e-12
1.57854e-11
-2.13943e-10
-3.66121e-11
1.83979e-11
-1.62485e-10
-3.69399e-10
3.93798e-11
-4.43114e-11
-1.12845e-10
2.42141e-11
-3.00947e-11
-4.08074e-12
5.60986e-12
-1.60602e-11
7.68205e-15
9.59895e-12
-2.4399e-12
1.19051e-11
-9.34618e-11
2.60549e-10
-9.21561e-11
-5.70939e-10
2.76244e-10
-4.1262e-11
-5.9299e-10
4.34172e-10
1.85164e-10
-5.71887e-10
5.12651e-11
7.49996e-11
-1.02173e-09
-9.11813e-11
8.07378e-11
-8.68534e-10
-6.07597e-10
1.64033e-10
-1.13145e-10
-4.00865e-10
4.91828e-11
-6.60163e-11
-1.24269e-11
1.23456e-12
-1.73294e-11
-3.53781e-12
1.32545e-12
-3.34547e-13
-8.14047e-13
3.10986e-11
2.40605e-10
-4.13944e-11
-5.00871e-10
7.8352e-10
6.4991e-11
-2.57447e-10
7.75217e-10
1.88188e-10
-2.88035e-10
2.29511e-11
3.92805e-11
-7.34881e-10
-5.01256e-11
1.19308e-10
-1.15316e-09
-2.99761e-10
1.91649e-10
-1.80794e-10
-2.77667e-10
7.47657e-11
-8.12851e-11
-1.19379e-11
-6.87058e-11
-4.61285e-11
-5.93691e-13
-9.27665e-12
4.09102e-12
-1.02509e-11
3.41518e-10
6.32325e-10
-4.30722e-12
2.16255e-10
6.38287e-10
2.7941e-10
-3.5414e-11
8.62054e-10
1.83743e-10
-8.63966e-11
2.37097e-11
3.09118e-11
-1.25653e-10
-7.33993e-11
4.39189e-11
-1.78724e-10
-8.6116e-11
9.4279e-11
-8.44608e-11
-1.22169e-11
9.05831e-11
-7.08844e-11
-5.07372e-12
4.05123e-12
-4.83842e-11
1.60519e-12
-6.60036e-12
1.09758e-11
-1.49388e-11
4.34218e-10
2.54474e-10
-5.21138e-11
4.43042e-10
3.47604e-10
2.89388e-10
-3.76436e-12
7.74996e-10
1.89884e-10
-1.0004e-10
3.39879e-11
2.59187e-11
-8.41099e-11
-2.26327e-10
7.16529e-11
-1.99798e-11
-8.70208e-11
2.25084e-11
-2.581e-11
-8.95121e-12
4.76047e-12
-2.68734e-11
-6.10595e-12
5.00214e-12
-2.95676e-11
-3.74504e-12
7.87754e-12
-1.59789e-11
6.44328e-11
2.12736e-10
2.22348e-10
-1.76356e-10
-1.05801e-10
3.18948e-10
2.12296e-11
-2.20493e-11
1.84181e-10
6.94854e-11
-1.12976e-10
3.08302e-11
3.39594e-11
-2.52315e-10
-2.73074e-10
1.8933e-10
-7.88454e-11
-2.33441e-10
1.24816e-10
-2.15181e-11
-7.16258e-11
6.69251e-12
-2.22612e-11
-8.39187e-12
4.09213e-12
-2.35543e-11
-6.68274e-12
5.31934e-12
-1.10723e-11
1.26141e-11
-1.19949e-10
5.66757e-10
-2.20207e-10
-2.37954e-10
8.45027e-11
-5.42814e-11
-1.90617e-10
-1.90479e-11
3.3743e-11
-2.5765e-10
-6.89384e-11
1.71199e-10
-4.11259e-10
-3.50966e-10
2.33528e-10
-4.08387e-10
-4.11082e-10
1.77766e-10
-7.69278e-11
-2.52459e-10
5.9499e-11
-2.25083e-11
-6.26454e-11
3.75966e-12
-2.02139e-11
-9.27692e-12
2.0851e-12
-9.84886e-12
8.09953e-13
-1.36072e-10
-2.19687e-10
4.13228e-10
-6.74822e-11
1.11e-12
1.32974e-11
-1.59112e-10
3.49604e-11
1.70914e-11
-4.0689e-10
1.32667e-10
-1.32718e-10
-5.12581e-10
1.952e-10
-4.38474e-10
-5.85052e-10
1.82496e-10
-5.1865e-10
-5.12043e-10
1.2262e-10
-4.4445e-10
-9.76785e-11
3.08911e-11
-2.63415e-10
-2.26165e-11
3.03451e-13
-8.35536e-11
-2.36406e-12
-8.82638e-12
-5.727e-08
5.10889e-08
-3.57367e-09
7.06322e-09
-7.91054e-08
-8.04274e-08
1.55178e-07
-1.55986e-07
-1.7353e-07
2.60457e-07
-6.90006e-08
-2.03616e-07
2.82451e-07
1.30515e-08
-1.15886e-07
2.53114e-07
2.80713e-08
-2.27376e-08
2.09374e-07
2.03025e-08
1.58501e-08
1.63395e-07
1.47425e-08
2.27073e-08
1.19192e-07
1.16012e-08
1.77452e-08
-1.44735e-08
8.32042e-09
1.40204e-07
-6.17494e-08
-3.59165e-08
3.68371e-07
-4.82622e-07
2.21566e-07
3.9228e-07
-4.59876e-07
2.64057e-07
3.4092e-07
-1.81939e-07
5.01115e-08
2.96854e-07
5.09797e-08
-1.18986e-07
2.31741e-07
1.1238e-07
-8.68419e-08
1.74472e-07
6.92389e-08
-2.17064e-08
1.35953e-07
2.81793e-08
5.35395e-09
1.06629e-07
1.51853e-08
1.10057e-08
-3.70354e-08
2.48044e-08
3.6668e-07
-4.26671e-07
7.3933e-08
6.53387e-07
-1.06978e-06
5.83953e-07
5.67494e-07
-7.68955e-07
6.56462e-07
3.38129e-07
-2.54613e-07
4.61864e-07
2.51202e-07
4.10257e-08
8.82373e-08
2.27793e-07
1.40607e-07
-5.92225e-08
1.95417e-07
1.057e-07
-3.15849e-08
1.3185e-07
8.1308e-08
1.83536e-08
6.6449e-08
8.01675e-08
8.06452e-08
-1.34283e-07
1.94796e-07
4.11045e-07
-8.83301e-07
3.3741e-07
4.67365e-07
-1.35569e-06
6.62296e-07
2.62218e-07
-8.65356e-07
7.17399e-07
6.01826e-08
-3.51037e-07
6.62606e-07
6.57463e-08
-9.10473e-08
3.23054e-07
1.28064e-07
6.78616e-08
6.73457e-08
1.14817e-07
1.29442e-07
4.81894e-08
4.6617e-08
1.51099e-07
1.27715e-07
7.32116e-08
4.89784e-08
2.35069e-07
-2.91956e-07
3.31457e-07
1.63265e-07
-9.94349e-07
3.72166e-07
3.77008e-08
-1.23906e-06
3.37013e-07
-9.79589e-08
-9.23316e-07
6.54963e-07
-1.60333e-07
-5.68331e-07
7.44347e-07
-8.43597e-08
-3.58987e-07
5.40551e-07
2.74931e-08
-1.48883e-07
3.48819e-07
1.16422e-07
-2.50943e-08
2.88069e-07
2.3008e-07
-1.45695e-08
2.89236e-07
3.48501e-07
-1.36834e-07
2.72641e-07
-3.12745e-07
2.27176e-07
2.02656e-07
-1.0413e-06
-1.84609e-08
1.3575e-07
-1.11599e-06
-4.64298e-08
1.04806e-07
-9.32646e-07
4.29579e-07
1.28846e-07
-6.95753e-07
5.40493e-07
1.55405e-07
-4.96727e-07
4.40408e-07
2.25874e-07
-3.08282e-07
3.56527e-07
3.54982e-07
-1.95424e-07
2.68174e-07
4.94259e-07
-1.57456e-07
1.64663e-07
4.98693e-07
-1.5147e-07
3.43944e-08
-1.33936e-07
-6.86918e-08
4.14809e-07
-1.29763e-06
-4.13543e-07
3.82962e-07
-1.05391e-06
-3.31002e-07
3.5049e-07
-7.43825e-07
-1.71728e-07
3.66296e-07
-5.41168e-07
-1.54713e-07
3.33636e-07
-3.68551e-07
-8.62637e-08
3.35904e-07
-2.19117e-07
-3.79619e-08
3.89159e-07
-1.18493e-07
-8.8388e-08
4.27107e-07
-4.72411e-08
-1.72953e-07
3.95869e-07
1.13033e-08
-2.70479e-07
8.19697e-08
-3.36522e-07
1.81796e-07
-1.40764e-06
-3.47988e-07
5.4115e-09
-8.46527e-07
-3.88938e-07
-7.60345e-08
-4.48768e-07
-4.11791e-07
-1.39214e-07
-2.24996e-07
-3.34797e-07
-1.87195e-07
-8.63402e-08
-2.76554e-07
-1.72724e-07
7.45695e-09
-3.08268e-07
-9.88008e-08
7.66553e-08
-4.00995e-07
-2.11543e-08
1.53307e-07
-4.93955e-07
3.63465e-08
1.92881e-07
-5.71399e-07
2.61242e-07
-6.28778e-07
-3.72644e-07
-8.61513e-07
-3.28182e-09
-6.2592e-07
-4.22454e-07
-1.0221e-07
-6.72629e-07
-1.30917e-07
-7.55363e-08
-6.17511e-07
-1.5728e-08
-5.2655e-08
-5.54472e-07
1.13779e-08
-8.01763e-08
-5.28598e-07
2.16401e-08
-1.27855e-07
-4.84544e-07
1.87296e-08
-1.80254e-07
-3.87037e-07
9.8908e-09
-2.23068e-07
-2.66102e-07
6.75555e-09
-2.44971e-07
6.11232e-09
-2.44778e-07
1.66703e-07
-4.60705e-10
3.49453e-07
2.18521e-07
-8.29493e-10
2.82523e-07
1.74232e-07
-1.10706e-09
2.09354e-07
9.23722e-08
-5.91066e-10
1.44952e-07
2.98553e-08
-7.22567e-10
9.50664e-08
-1.00185e-08
-6.63381e-10
4.55209e-08
-1.5585e-08
-1.59097e-09
5.72917e-09
-1.07218e-08
6.59626e-10
-4.09993e-10
-5.93394e-09
4.82822e-10
-9.75033e-12
4.50158e-10
1.8433e-09
-3.66141e-11
-3.4161e-10
2.08464e-11
-4.01625e-11
-8.2299e-10
6.8219e-11
-4.72289e-11
-9.95148e-10
1.03417e-10
-6.7841e-11
-2.3611e-10
9.43799e-11
-1.92575e-10
-1.52482e-14
1.90877e-12
-4.50468e-10
-6.58982e-11
-9.13806e-10
-8.21055e-10
-1.32477e-10
-8.27329e-10
-7.69666e-10
8.27696e-11
-2.05692e-10
-5.32131e-10
-1.71467e-11
-1.72907e-10
9.43491e-12
-4.50407e-11
-2.24118e-10
-9.62234e-11
8.00382e-11
-9.9968e-10
-5.10289e-10
2.18366e-10
-1.53854e-09
-2.99608e-10
8.97047e-11
-6.28244e-10
-3.00542e-10
6.13044e-11
-2.46268e-10
-3.72397e-10
5.9935e-11
-6.42562e-11
1.06287e-11
2.6574e-13
-2.81349e-11
5.28185e-11
-2.04645e-11
-2.57313e-11
1.0881e-10
-3.00049e-11
-2.269e-11
-7.00752e-12
-1.54756e-11
5.52986e-12
1.96269e-11
-8.82954e-10
1.44253e-10
8.8808e-11
-1.1558e-09
-2.57351e-10
1.56813e-10
-9.96293e-10
-3.87633e-10
4.56054e-11
-1.58311e-09
-3.95327e-10
9.65265e-11
-1.31759e-09
-8.51682e-10
2.88282e-10
-7.24123e-10
-7.00465e-10
2.37426e-10
-5.04588e-11
-6.55498e-11
1.06238e-10
-1.18388e-11
8.7895e-11
1.16313e-11
-9.88106e-12
3.7669e-11
1.13948e-11
1.56165e-11
2.59811e-11
-7.43938e-10
3.49535e-10
4.55367e-11
-1.64946e-09
2.07249e-10
1.69999e-10
-9.68251e-10
-9.54979e-11
1.00343e-10
-1.44641e-09
-1.59273e-10
1.22207e-11
-1.64448e-09
-6.78294e-10
1.84967e-10
-1.31134e-09
-9.6582e-10
1.76677e-10
-8.18412e-10
-5.3304e-10
1.04166e-10
-5.16031e-11
9.91281e-11
4.31775e-11
-2.48698e-11
2.03189e-11
2.98502e-12
3.20813e-11
2.68607e-12
-3.38967e-10
5.38755e-10
2.9511e-11
-1.35359e-09
9.04981e-10
3.67086e-11
-3.98031e-10
1.0167e-10
8.11061e-11
-5.78961e-10
-4.78155e-11
8.51898e-11
-1.39298e-09
-2.52564e-10
1.53535e-10
-1.50918e-09
-7.17097e-10
1.3955e-10
-1.27077e-09
-5.75971e-10
-3.80362e-11
-3.37407e-10
-8.11764e-11
-1.25628e-10
-4.31945e-11
2.34877e-11
-7.67586e-12
3.14814e-11
-1.17311e-11
-9.14056e-11
8.01862e-10
2.49254e-11
-5.00764e-10
1.50231e-09
-6.5357e-12
-1.3077e-10
2.37326e-10
1.50871e-11
-1.82017e-10
-3.81188e-11
5.64309e-11
-4.56024e-10
-1.3252e-10
1.74317e-10
-1.28346e-09
-1.15249e-10
2.54482e-10
-1.26897e-09
-2.41485e-10
1.5133e-10
-1.04194e-10
-3.29879e-11
-6.88974e-12
-8.574e-11
6.83218e-12
-5.65566e-12
5.07452e-11
-5.33453e-12
1.80171e-10
1.70607e-09
1.08317e-10
-6.67576e-11
1.86298e-09
1.80439e-10
-1.44317e-10
2.3106e-10
9.21691e-11
-2.56915e-10
-1.74828e-11
7.3423e-11
-1.38192e-10
-1.64152e-10
7.51161e-11
-7.2775e-11
-2.6057e-11
2.1604e-11
-5.72494e-11
-6.57392e-12
1.42234e-11
5.07939e-11
-4.13406e-12
1.28767e-11
-3.66249e-10
1.90528e-12
3.13304e-11
-2.75452e-11
1.31487e-10
1.82146e-10
1.31385e-09
3.7968e-11
-2.83831e-11
1.9896e-09
1.32251e-10
-2.09662e-10
1.34812e-10
3.45876e-11
-4.25536e-10
-1.66899e-10
2.98563e-10
-3.38207e-10
-2.70345e-10
2.35121e-10
-3.25947e-11
-1.5357e-11
3.5206e-11
-3.46439e-11
-1.8924e-12
5.80011e-12
-3.75804e-11
-3.47516e-13
4.5836e-12
-3.78167e-11
-7.75861e-13
9.28108e-12
-9.10767e-12
1.70857e-11
-2.32344e-10
1.31513e-09
7.59411e-12
-5.06605e-10
5.3701e-10
2.00794e-10
-7.43887e-10
7.93795e-11
1.51975e-10
-7.0592e-10
-3.12931e-10
2.78524e-10
-5.51442e-10
-4.71117e-10
2.83065e-10
-8.35333e-11
-1.03849e-10
5.4878e-11
-2.56722e-11
-3.90032e-12
5.80493e-12
-2.17052e-11
1.88407e-12
1.16888e-12
-2.22627e-11
1.93269e-12
4.50482e-13
1.8832e-13
-5.67471e-12
-3.17335e-10
5.02898e-11
6.3435e-10
-1.629e-10
6.77505e-11
2.73033e-11
-2.25924e-10
1.35159e-10
1.19732e-11
-5.76474e-10
1.74805e-10
-8.869e-11
-8.29744e-10
2.32809e-10
-2.53481e-10
-4.3411e-10
7.57592e-11
-3.72002e-10
-5.8242e-11
-1.18873e-12
-1.36082e-10
-3.26957e-11
3.21215e-13
4.05881e-12
-2.38064e-11
-1.73528e-11
5.72688e-12
-2.02051e-12
6.11698e-12
-1.55571e-07
9.82089e-08
5.37889e-08
-5.49315e-08
-2.82894e-07
1.01827e-07
2.49009e-07
-6.13858e-07
1.36387e-07
4.23728e-07
-4.64829e-07
8.64939e-08
3.95763e-07
-1.40207e-07
5.22869e-08
2.9841e-07
1.26908e-08
6.19243e-08
2.17337e-07
2.49361e-08
7.19876e-08
1.57826e-07
1.29102e-08
6.93085e-08
1.09142e-07
2.59421e-10
6.61692e-08
-3.10218e-08
6.24901e-08
4.09508e-08
7.51605e-08
-5.38189e-08
3.90624e-07
-7.13115e-07
3.02114e-07
5.97225e-07
-1.06102e-06
5.04688e-07
6.03157e-07
-7.36351e-07
3.15742e-07
4.82103e-07
-2.23127e-07
8.4996e-08
3.11361e-07
8.43235e-08
1.22683e-08
1.90405e-07
9.42353e-08
2.99503e-08
1.31237e-07
3.15675e-08
4.58649e-08
1.01529e-07
-1.31324e-08
5.4106e-08
-6.63194e-08
6.56862e-08
2.3114e-07
-6.14825e-08
-2.05639e-08
5.97394e-07
-1.0648e-06
5.69465e-07
6.36065e-07
-1.23632e-06
7.93182e-07
5.24732e-07
-7.28666e-07
5.65559e-07
4.41134e-07
-2.39813e-07
1.88522e-07
3.31545e-07
1.21106e-07
1.35839e-08
2.30528e-07
1.53125e-07
1.0543e-08
1.72714e-07
6.75609e-08
4.01735e-08
1.15923e-07
5.42697e-08
7.00349e-08
-1.75269e-08
1.42807e-07
3.33706e-07
-1.95395e-07
1.37617e-07
3.92316e-07
-1.00857e-06
5.47299e-07
2.4873e-07
-1.14011e-06
7.64638e-07
1.83843e-07
-6.65763e-07
6.64571e-07
2.17918e-07
-2.36157e-07
2.85323e-07
2.36896e-07
1.08904e-07
6.05691e-08
1.96095e-07
2.12039e-07
3.00765e-08
1.15735e-07
2.00004e-07
7.56326e-08
5.93907e-08
2.07678e-07
1.38005e-07
4.66186e-08
2.30271e-07
3.42483e-07
-2.60487e-07
9.47741e-08
1.97422e-07
-6.97567e-07
1.70807e-07
-2.3556e-08
-8.36869e-07
5.72316e-07
-3.8075e-08
-5.63466e-07
6.56568e-07
4.23554e-08
-2.47772e-07
4.71735e-07
1.3893e-07
7.36399e-08
2.87509e-07
1.79559e-07
2.40144e-07
2.19335e-07
1.57215e-07
3.05556e-07
2.06028e-07
1.51144e-07
3.16567e-07
1.69823e-07
1.46504e-07
1.44944e-07
3.87766e-07
-5.20172e-07
-1.46542e-07
3.27288e-07
-6.53318e-07
-3.03159e-08
1.71804e-07
-5.97958e-07
3.46151e-07
1.36258e-07
-4.04565e-07
4.17139e-07
1.2313e-07
-1.78636e-07
3.84401e-07
1.76633e-07
5.12255e-08
3.25438e-07
2.44888e-07
2.11756e-07
2.28306e-07
2.75774e-07
3.21198e-07
1.18136e-07
2.65087e-07
3.77959e-07
-1.6312e-08
2.97141e-07
-1.41951e-07
3.53038e-07
-9.85244e-07
-3.01502e-07
3.45979e-07
-7.87843e-07
-1.89224e-07
2.5849e-07
-4.75219e-07
-2.06976e-07
1.67429e-07
-2.44255e-07
-2.23961e-07
6.03741e-08
-1.42477e-08
-1.43597e-07
3.39048e-08
1.60757e-07
-1.21024e-07
5.68635e-08
2.87619e-07
-1.8721e-07
1.04088e-07
3.67935e-07
-2.66915e-07
1.63146e-07
4.07184e-07
-3.58761e-07
3.89818e-07
-4.58814e-07
1.41344e-09
-1.12266e-06
-2.11541e-07
-1.0808e-07
-6.6475e-07
-4.02189e-07
-2.20629e-07
-2.08893e-07
-5.65571e-07
-3.51011e-07
6.23194e-08
-5.10987e-07
-4.46941e-07
2.56271e-07
-4.51143e-07
-5.02466e-07
4.50911e-07
-5.42898e-07
-4.65362e-07
5.52781e-07
-7.03261e-07
-3.18389e-07
5.8357e-07
-8.56564e-07
-1.08812e-07
5.00764e-07
-1.01626e-06
5.09226e-07
-1.09966e-06
-3.07171e-07
-6.09145e-07
1.72324e-07
-4.99483e-07
-3.08517e-07
3.16317e-08
-5.2514e-07
-6.56226e-08
-3.54581e-08
-5.04616e-07
1.33543e-08
2.83429e-09
-5.05379e-07
2.53824e-08
1.51009e-08
-4.83455e-07
1.23916e-08
8.64362e-09
-3.98891e-07
-1.93587e-09
-3.53721e-10
-2.96199e-07
1.56102e-09
-5.10192e-09
-2.02392e-07
-8.24334e-11
-5.10666e-12
-2.56852e-09
7.94183e-09
1.23742e-07
-3.27913e-10
3.7346e-07
1.51976e-07
-5.6299e-10
2.86591e-07
1.22987e-07
-5.29299e-10
1.89722e-07
6.69533e-08
-8.31392e-10
1.22878e-07
1.2493e-08
-3.25187e-09
5.26609e-08
-2.80596e-09
2.09524e-09
1.40976e-09
-9.42401e-10
1.27956e-09
-1.35318e-11
-2.9356e-11
1.8912e-10
-2.50748e-11
-1.69347e-10
-3.86717e-11
-4.07285e-11
-2.47014e-11
-2.93275e-11
-3.67627e-11
-2.41247e-10
5.20835e-11
-4.28194e-11
-5.45009e-10
1.13177e-10
-8.27147e-11
-4.3218e-10
1.32158e-10
-6.83347e-10
-5.08009e-11
8.80637e-11
-2.35848e-09
2.1672e-10
-1.13751e-09
-8.22952e-10
1.64639e-10
-4.18031e-10
-2.46618e-10
1.85677e-11
-1.2611e-10
-2.37855e-10
3.90754e-11
-3.2863e-10
-2.38972e-10
1.02397e-10
-3.92793e-10
5.42581e-11
-1.13091e-10
-2.86448e-10
-3.59279e-11
1.0864e-10
-6.00382e-10
-5.79778e-10
2.17501e-10
-5.8827e-10
-1.43802e-10
9.98858e-11
-4.31869e-10
-2.1553e-11
5.63778e-11
-2.72146e-10
1.0606e-10
2.75695e-11
-1.03556e-10
4.76901e-11
-6.53495e-12
-8.02204e-11
5.27751e-11
-2.71343e-11
-1.84605e-10
6.36578e-11
-2.49276e-10
-2.60739e-10
8.25519e-11
-1.31445e-10
6.99557e-11
4.31934e-11
-9.72609e-10
1.88419e-11
2.50543e-10
-1.353e-09
-5.30669e-10
4.17542e-10
-5.36928e-10
-3.35697e-10
1.27943e-10
-4.23965e-10
-5.68932e-11
5.49903e-11
-3.17413e-10
-8.03057e-11
6.73357e-11
-1.0831e-10
2.12586e-10
9.54325e-11
-3.43546e-11
1.26216e-10
2.49595e-11
-4.60846e-11
4.35917e-11
6.49328e-12
-7.16238e-11
2.40925e-11
1.31447e-11
2.41711e-11
4.39011e-11
-1.256e-09
3.12949e-10
2.83057e-10
-1.92435e-09
-1.58612e-10
3.55953e-10
-9.55728e-10
-1.98791e-10
2.10903e-10
-8.76517e-10
-1.9392e-10
7.2298e-11
-1.18319e-09
-6.08944e-10
1.41055e-10
-5.13308e-10
-2.55719e-10
1.6205e-10
-4.79574e-11
1.83173e-10
2.59728e-11
-2.28137e-11
4.88483e-11
-1.0658e-12
-1.68185e-11
2.71539e-11
4.97747e-12
3.00107e-11
8.93259e-12
-8.38461e-10
6.03709e-10
2.07309e-10
-1.16149e-09
2.3744e-10
2.68006e-10
-7.05879e-10
-2.85115e-11
2.74765e-10
-1.49469e-09
-1.05851e-10
3.52534e-10
-1.57143e-09
-5.67996e-10
3.09581e-10
-1.30826e-09
-5.09778e-10
2.3008e-10
-1.02338e-09
-9.63298e-11
7.68274e-11
-6.74253e-11
1.09168e-10
3.5871e-12
-6.18288e-11
2.07779e-11
2.33266e-12
3.10618e-11
7.08076e-12
-1.434e-10
5.68689e-10
7.51299e-11
-1.72995e-10
2.50143e-10
1.90578e-11
-1.17794e-10
1.95134e-11
8.4932e-11
-3.36283e-10
-3.96608e-11
1.02127e-10
-1.28583e-09
-3.14787e-10
5.22017e-10
-1.67047e-09
-7.47604e-11
3.24348e-10
-1.25139e-09
-8.88056e-11
1.08697e-10
-9.09357e-11
5.7848e-12
1.46348e-11
-8.3472e-11
9.20194e-12
2.81697e-12
4.90965e-12
7.82203e-12
6.0502e-12
1.9895e-09
4.38656e-10
-4.58889e-11
5.79342e-10
4.24579e-11
-1.01778e-10
4.41367e-11
4.69566e-11
-1.86747e-10
-2.14351e-10
9.68262e-11
-8.42551e-11
-1.81904e-10
5.93731e-11
-1.00018e-10
-1.07825e-12
2.67507e-11
-5.21094e-11
2.05499e-12
2.10905e-11
4.75282e-12
-5.24823e-13
5.67499e-12
-3.2029e-10
1.13041e-11
8.45511e-12
5.95367e-12
-5.1965e-14
5.57353e-11
1.47845e-09
5.20402e-10
-1.13871e-10
1.54189e-09
1.778e-10
-3.43194e-10
6.17267e-11
1.10622e-10
-3.98994e-10
-2.61709e-10
4.848e-10
-5.0116e-11
-8.10755e-11
8.63604e-11
-2.68705e-11
6.83403e-13
1.25546e-11
-2.61232e-11
2.48418e-12
6.85357e-12
-3.02554e-11
3.72086e-12
3.79838e-12
-3.83548e-11
7.29526e-12
-2.31847e-13
3.74154e-12
7.17984e-12
-2.15819e-10
1.15777e-09
5.27073e-10
-4.21657e-10
1.13197e-09
4.89775e-10
-6.33751e-10
8.89339e-11
1.86282e-10
-4.48256e-10
-2.08569e-10
2.19867e-10
-7.20972e-11
-6.90227e-11
4.06127e-11
-1.87995e-11
-9.17823e-12
1.38612e-11
-1.56589e-11
7.56205e-13
6.60841e-12
-1.6189e-11
4.08756e-12
3.28229e-12
-9.81784e-11
1.6659e-11
-9.33389e-13
1.52284e-11
-2.25796e-10
-5.34519e-10
3.28715e-10
5.12829e-10
-3.34243e-10
2.47257e-10
6.85056e-11
-2.23308e-10
1.72271e-10
5.46459e-11
-1.4554e-10
7.94912e-11
-1.06679e-11
-9.48725e-11
2.19982e-11
-1.6798e-11
-4.28754e-11
1.62026e-11
-4.47169e-11
-1.11064e-11
9.70007e-12
-4.0694e-11
3.24805e-12
5.653e-12
-5.59042e-12
-1.28998e-10
-3.03595e-12
-1.87893e-12
-3.54127e-10
-3.30165e-13
-1.60266e-07
8.80937e-08
1.25961e-07
-1.39724e-07
-1.81209e-07
2.62494e-07
1.80895e-07
-5.73477e-07
3.89245e-07
3.85644e-07
-4.59558e-07
3.41303e-07
3.61727e-07
-1.46684e-07
2.22888e-07
2.67248e-07
5.28294e-09
1.51121e-07
1.88069e-07
3.1434e-08
1.19732e-07
1.32114e-07
2.41358e-08
1.01128e-07
9.06709e-08
9.58372e-09
9.8029e-08
-1.58733e-08
9.86584e-08
-1.0226e-07
1.34786e-07
1.74919e-09
1.13745e-07
-4.15815e-07
3.20717e-07
4.25593e-07
-9.53918e-07
5.73367e-07
5.54673e-07
-7.44743e-07
4.71894e-07
4.60087e-07
-2.27323e-07
2.60224e-07
2.81079e-07
6.64842e-08
1.30074e-07
1.63179e-07
8.82583e-08
9.10261e-08
1.12581e-07
3.21296e-08
8.84692e-08
9.15309e-08
-1.79435e-08
1.02684e-07
-6.49235e-08
1.23688e-07
1.20505e-07
5.27686e-08
-5.90517e-08
4.07084e-07
-5.315e-07
3.9862e-07
5.53259e-07
-9.98816e-07
6.92203e-07
5.90217e-07
-7.766e-07
5.60644e-07
5.13439e-07
-2.56196e-07
2.9417e-07
3.37573e-07
1.19605e-07
1.3633e-07
1.95982e-07
1.52985e-07
8.74077e-08
1.33424e-07
5.56543e-08
7.9207e-08
1.01148e-07
9.63689e-10
8.34035e-08
-2.86776e-08
1.10589e-07
2.72136e-07
-2.7447e-08
-5.43039e-08
4.47478e-07
-4.06508e-07
2.47032e-07
4.47033e-07
-8.06827e-07
5.72963e-07
4.35287e-07
-6.30494e-07
5.30294e-07
3.99334e-07
-2.05379e-07
2.7046e-07
2.97359e-07
1.53594e-07
1.28555e-07
1.70043e-07
2.32954e-07
7.74239e-08
7.7815e-08
1.48826e-07
7.46883e-08
3.97837e-08
1.01185e-07
7.58147e-08
8.05881e-08
7.05517e-08
3.79353e-07
-1.94522e-07
-1.17504e-07
4.70035e-07
-3.13812e-07
-1.26327e-08
3.74045e-07
-5.0972e-07
3.71055e-07
2.97558e-07
-3.63763e-07
4.66315e-07
2.82441e-07
-8.02655e-08
3.61739e-07
2.51785e-07
2.1923e-07
2.52529e-07
1.8118e-07
3.28195e-07
1.94699e-07
7.82492e-08
2.9426e-07
1.63525e-07
1.99897e-08
2.47889e-07
8.13778e-08
1.98461e-07
-3.27346e-08
4.03954e-07
-5.62492e-07
-1.82525e-07
4.94784e-07
-4.81777e-07
4.6807e-08
3.9056e-07
-3.70056e-07
3.10712e-07
2.76011e-07
-1.52886e-07
3.20806e-07
2.08461e-07
6.08004e-08
3.10885e-07
1.99815e-07
2.67836e-07
2.85477e-07
1.80256e-07
3.74915e-07
2.01145e-07
1.06829e-07
3.91194e-07
9.46295e-08
4.8453e-08
3.48301e-07
-5.83468e-08
2.78354e-07
-2.78522e-07
1.23431e-07
-8.38789e-07
-1.4863e-07
1.59717e-07
-6.1011e-07
-9.71751e-08
5.45691e-08
-2.46106e-07
-2.25777e-07
-9.58119e-08
4.48137e-08
-2.7128e-07
-2.14124e-07
2.53422e-07
-2.17907e-07
-2.46321e-07
3.8419e-07
-2.05181e-07
-2.40063e-07
4.3754e-07
-2.56093e-07
-1.79956e-07
4.15196e-07
-3.51023e-07
-4.39747e-08
3.55677e-07
-5.0212e-07
2.98781e-07
-6.72299e-07
-2.50233e-07
-7.18259e-07
-8.13969e-08
-4.02213e-07
-3.9263e-07
-4.67733e-07
-5.69141e-07
6.53026e-08
-7.10051e-07
-7.34865e-07
3.73843e-07
-6.74293e-07
-8.84846e-07
6.26156e-07
-6.73896e-07
-9.19101e-07
6.54646e-07
-7.79099e-07
-8.19623e-07
4.59467e-07
-9.65139e-07
-5.93681e-07
3.18087e-07
-1.08643e-06
-3.16189e-07
1.88128e-07
-1.11983e-06
1.05925e-07
-1.10311e-06
-1.89807e-07
-2.95928e-07
2.3146e-07
-3.51111e-07
-1.64821e-07
1.68173e-07
-4.18242e-07
1.9271e-09
9.53274e-08
-4.36997e-07
1.80897e-08
1.33599e-07
-4.11333e-07
-1.15667e-09
1.33219e-07
-3.50885e-07
1.1314e-09
1.00957e-07
-2.50432e-07
-1.2983e-11
1.05557e-07
-1.73536e-07
-1.15682e-10
1.19851e-07
-1.19247e-07
-5.20219e-10
1.15395e-07
-2.73411e-10
1.11449e-07
1.14579e-07
-2.0168e-10
2.99589e-07
1.28535e-07
-2.50068e-10
2.38651e-07
1.05248e-07
-2.66008e-10
1.55929e-07
3.95072e-08
-3.62375e-09
7.51579e-08
-1.7222e-09
3.49546e-09
5.81932e-09
-2.63543e-11
8.34788e-10
-1.08766e-11
-5.00465e-11
-8.67907e-12
-2.96526e-11
-9.57308e-11
-1.01135e-10
-4.50327e-11
-1.01768e-10
-3.52989e-10
-2.45413e-10
-3.52208e-10
-4.25534e-11
-2.40428e-11
-1.28356e-10
6.00062e-11
-2.41796e-11
-1.956e-10
1.0862e-10
-9.69404e-11
-1.13448e-10
1.09236e-10
-2.55735e-09
-7.75245e-11
6.89383e-11
-6.82901e-10
4.50482e-10
-3.27441e-10
-2.52826e-10
1.23646e-10
-1.20558e-10
-1.88126e-10
5.37008e-11
-1.79858e-10
-4.83211e-10
-1.42875e-10
-2.01173e-10
-8.11084e-10
-2.28808e-10
-2.35375e-10
-2.28056e-10
-2.05194e-10
-5.82253e-11
-3.41358e-12
1.48205e-10
-1.03033e-10
-3.88487e-11
1.47713e-10
-1.11788e-10
-1.1188e-11
4.99973e-11
-2.7869e-10
8.60222e-11
5.30489e-11
-9.0295e-11
2.52777e-10
4.73219e-11
-9.38297e-11
1.09135e-10
-7.52496e-12
-7.90121e-10
1.27769e-10
-1.19694e-10
-9.02538e-10
7.28793e-12
-1.38664e-10
-1.00032e-09
-2.38444e-11
-7.90192e-11
-8.9063e-11
-3.67384e-11
-2.71388e-10
4.26858e-11
3.52881e-10
-4.8992e-10
-3.72693e-10
1.4153e-10
-2.1052e-10
-1.22832e-11
1.39452e-10
-1.6183e-10
5.33834e-11
7.22776e-11
-6.6062e-11
1.21866e-10
8.45243e-11
-5.48188e-11
1.13319e-10
5.65524e-11
-5.82312e-11
1.11824e-10
3.12681e-11
-5.25899e-11
-3.21692e-13
5.41862e-13
-7.35159e-11
5.97516e-12
-1.24419e-12
-1.17399e-11
-5.86884e-13
-1.05299e-09
2.88619e-10
4.46188e-10
-1.61595e-09
-1.73494e-10
7.33457e-10
-3.7227e-10
-2.23839e-10
3.52197e-10
-2.36326e-10
-1.58332e-11
7.38856e-11
-1.7909e-10
9.42141e-11
9.17463e-11
-1.34243e-10
1.65611e-10
3.62412e-11
-8.23676e-11
3.25313e-10
4.98383e-11
-2.70608e-11
3.81874e-11
1.48288e-11
-2.76141e-11
7.87002e-12
3.49557e-12
-4.22636e-13
2.51031e-12
-1.08653e-09
5.55691e-10
3.70864e-10
-1.92952e-09
3.95879e-10
6.6459e-10
-1.95581e-09
-1.37098e-11
6.50038e-10
-1.33408e-09
-1.21446e-10
6.29465e-10
-1.32343e-09
-1.7871e-10
2.30197e-10
-1.28358e-09
3.31273e-11
4.42961e-10
-6.56644e-10
1.63629e-10
1.91078e-10
-5.2169e-11
2.63898e-11
1.63406e-11
-3.99453e-11
2.82471e-12
6.39164e-12
-5.27037e-12
1.00566e-12
-1.02451e-10
6.85275e-10
1.71825e-10
-9.86591e-11
2.24536e-10
3.91495e-11
-2.1635e-10
-1.8152e-12
7.1973e-11
-6.4353e-10
-2.40935e-11
1.57187e-10
-1.24328e-09
-5.60667e-11
3.77237e-10
-1.13719e-09
5.8866e-11
3.35696e-10
-1.01857e-09
1.50908e-11
2.50141e-11
-5.02243e-10
1.95216e-11
2.19284e-11
-8.99679e-11
-3.98973e-13
-1.18455e-13
-9.31414e-12
-1.40382e-11
-4.28928e-11
1.73709e-09
1.15694e-09
-1.10924e-10
8.5773e-10
1.33521e-10
-6.90958e-11
3.05526e-11
1.40201e-10
-3.33366e-11
-4.14348e-11
4.18005e-11
-6.27313e-11
-9.27439e-12
2.53374e-11
-6.3358e-11
8.71701e-12
4.6501e-11
-3.77569e-11
6.50658e-12
1.06211e-11
-2.14465e-11
7.36317e-13
3.10257e-12
-4.7417e-11
-2.13729e-12
-5.84868e-13
-1.02716e-11
-1.02452e-10
-2.87872e-11
1.05294e-09
1.25851e-09
-4.90174e-11
1.34895e-09
8.27683e-10
-1.10506e-10
2.78741e-11
1.49325e-10
-1.11725e-10
-2.58791e-11
1.43244e-10
-2.46845e-11
-2.40712e-12
2.87106e-11
-1.73565e-11
2.32511e-12
1.40284e-11
-1.25157e-11
2.13859e-12
8.66034e-12
-1.39725e-11
6.30839e-13
5.57398e-12
-1.66545e-10
-3.41221e-11
-2.10633e-12
-2.27883e-10
-3.92688e-10
-2.76234e-10
6.73044e-10
1.16671e-09
-1.08768e-10
6.42071e-10
8.88776e-10
-9.66464e-11
3.99865e-11
1.19269e-10
-2.33877e-11
-3.60993e-12
1.12409e-10
-1.29104e-11
-3.92874e-12
3.20415e-11
-9.4066e-12
-2.01265e-12
1.59122e-11
-6.18713e-12
-2.17652e-12
9.52496e-12
-3.83027e-12
-4.08421e-12
7.89545e-12
-1.03292e-10
-5.25286e-11
1.24714e-11
-5.87462e-10
-4.11913e-10
-2.05477e-10
2.43213e-10
1.40563e-10
-1.18548e-10
2.10321e-10
3.12524e-11
-2.33944e-11
9.53356e-11
5.15528e-11
-1.5326e-11
7.27904e-11
-5.54354e-14
-1.03856e-11
1.7578e-11
-2.00173e-12
-7.17065e-12
1.46687e-11
-4.50611e-12
-1.96959e-12
1.08744e-11
-7.37512e-12
1.42599e-12
7.15747e-12
-4.58458e-12
4.19947e-11
4.24261e-12
-1.33703e-11
-3.7831e-10
-6.16844e-10
-6.81671e-08
4.94337e-08
1.44694e-07
-7.67186e-08
-3.12278e-08
3.02273e-07
1.10675e-07
-2.09851e-07
4.11704e-07
2.49981e-07
-1.49262e-07
3.51258e-07
2.53246e-07
-2.4808e-08
2.44432e-07
2.02405e-07
3.25013e-08
1.6946e-07
1.48008e-07
4.63382e-08
1.27792e-07
1.06512e-07
3.91587e-08
1.03464e-07
7.26298e-08
3.44327e-08