/*--------------------------------*- C++ -*----------------------------------*\
| =========                 |                                                 |
| \\      /  F ield         | OpenFOAM: The Open Source CFD Toolbox           |
|  \\    /   O peration     | Version:  2312                                  |
|   \\  /    A nd           | Website:  www.openfoam.com                      |
|    \\/     M anipulation  |                                                 |
\*---------------------------------------------------------------------------*/
FoamFile
{
    version     2.0;
    format      ascii;
    arch        "LSB;label=32;scalar=64";
    class       surfaceScalarField;
    location    "1.015";
    object      alphaPhi0.water;
}
// * * * * * * * * * * * * * * * * * * * * * * * * * * * * * * * * * * * * * //

dimensions      [0 3 -1 0 0 0 0];

oriented        oriented;

internalField   nonuniform List<scalar> 
22600
(
-4.68717e-08
1.02451e-07
-5.55792e-08
-5.39202e-08
1.08951e-07
-1.01903e-07
-3.08919e-08
9.93805e-08
-1.22409e-07
-3.43191e-08
9.06295e-08
-8.72024e-08
-5.77934e-08
8.68757e-08
-6.34015e-08
-9.14932e-08
9.06435e-08
-5.69437e-08
-1.24779e-07
9.43715e-08
-6.10856e-08
-1.44358e-07
9.16098e-08
-7.20314e-08
-1.41092e-07
7.98212e-08
-8.30869e-08
6.39894e-08
-9.71054e-08
-8.65099e-08
3.0084e-07
-1.11879e-07
-1.2644e-07
2.97398e-07
-1.48517e-07
-1.21495e-07
2.86828e-07
-1.92392e-07
-1.26792e-07
2.67412e-07
-1.71485e-07
-1.48705e-07
2.28409e-07
-1.19621e-07
-1.74272e-07
2.08681e-07
-9.24704e-08
-1.91379e-07
1.99277e-07
-8.77991e-08
-1.91501e-07
1.81519e-07
-8.97867e-08
-1.65702e-07
1.42979e-07
-8.8957e-08
9.7303e-08
-9.12936e-08
-4.72093e-09
3.56208e-07
-5.06478e-08
-5.8898e-08
3.17901e-07
3.36734e-08
-1.22256e-07
4.18377e-07
-6.81914e-08
-1.32719e-07
4.37873e-07
-1.59998e-07
-1.39732e-07
3.8697e-07
-1.51548e-07
-1.61273e-07
3.36941e-07
-1.06719e-07
-1.94494e-07
3.1063e-07
-7.81323e-08
-2.27438e-07
2.72766e-07
-5.83039e-08
-2.14484e-07
1.50066e-07
-2.00405e-08
-3.62954e-08
2.51203e-08
1.58755e-07
1.61864e-07
3.55889e-08
5.40831e-08
8.35645e-08
3.39009e-07
-1.31782e-07
3.72995e-07
2.31248e-07
-1.82813e-07
4.90891e-07
-1.98689e-09
-1.77126e-07
4.81524e-07
-1.0024e-07
-2.15007e-07
4.56586e-07
-8.17646e-08
-3.09352e-07
4.30064e-07
-2.50891e-08
-3.76805e-07
2.8782e-07
5.24005e-08
-2.96934e-07
-1.08891e-07
1.79085e-07
-4.57725e-07
2.56811e-07
4.31129e-07
-4.74756e-07
2.05492e-07
2.76816e-07
-3.4619e-07
5.84068e-07
-1.24552e-07
2.94091e-07
4.80271e-07
-3.30015e-07
4.47793e-07
2.48561e-07
-3.62109e-07
4.47275e-07
6.63433e-08
-4.02658e-07
4.40309e-07
5.68258e-08
-4.56552e-07
3.6445e-07
1.19507e-07
-3.93612e-07
1.6922e-08
2.07958e-07
-2.422e-07
-5.06518e-07
2.46215e-07
-7.54408e-07
1.80938e-07
3.15926e-07
-1.31403e-06
5.23463e-07
7.60316e-08
-8.24043e-07
7.17752e-07
-3.03086e-07
2.45002e-08
6.48708e-07
-4.9098e-07
1.4832e-07
4.87367e-07
-4.72677e-07
1.28926e-07
3.00045e-07
-4.08043e-07
1.45357e-07
2.30317e-07
-3.08466e-07
7.6627e-08
1.88247e-07
-1.84075e-07
-2.11769e-07
1.04299e-07
-1.04741e-07
-5.89547e-07
3.69108e-09
-6.74402e-07
-3.89139e-08
-1.53683e-07
-1.7669e-06
6.06322e-07
-3.08542e-07
-1.18741e-06
5.18231e-07
-5.07748e-07
-5.36701e-07
7.60408e-07
-5.38864e-07
-3.52294e-07
5.31731e-07
-3.70787e-07
-1.48275e-07
1.09124e-07
-2.00249e-07
1.01149e-07
-1.2633e-07
-9.9496e-08
1.83795e-07
-2.07921e-07
-1.09317e-07
3.7241e-08
-2.39188e-07
-2.44096e-07
-1.83959e-07
-2.7134e-07
-3.22097e-07
-2.79626e-07
-2.11618e-07
-1.65997e-06
1.04712e-07
-2.96993e-07
-1.10605e-06
4.01496e-09
-4.82463e-07
-6.62793e-07
3.11563e-07
-4.23112e-07
-3.50181e-07
-6.14631e-08
-3.44573e-07
1.64557e-07
-3.91371e-07
-4.85648e-07
6.08356e-07
-3.66131e-07
-7.65349e-07
7.32488e-07
-2.68991e-07
-9.53703e-07
5.38197e-07
-3.12603e-07
-9.05708e-07
2.0213e-07
-4.79155e-07
2.93766e-08
-6.24134e-07
5.70615e-08
-1.52922e-06
-1.87073e-07
2.03595e-07
-7.85247e-07
-4.67045e-07
4.38194e-08
-2.82298e-07
-2.20499e-07
-2.93397e-07
1.1409e-07
-1.27042e-07
-7.94133e-07
4.73152e-07
1.09289e-07
-1.2864e-06
4.54895e-07
4.30238e-07
-1.29475e-06
1.4593e-07
4.43681e-07
-9.368e-07
-2.35541e-08
3.20589e-07
-5.74657e-07
-1.48725e-08
2.45621e-07
-5.16334e-11
2.36828e-07
2.82249e-07
-1.19025e-06
2.00129e-07
9.83733e-07
-8.30764e-07
-1.29507e-07
1.22191e-06
-5.37909e-07
1.67167e-07
8.87608e-07
-2.33637e-07
5.45518e-07
3.84369e-07
-1.72989e-07
6.59814e-07
1.0991e-07
-1.36496e-07
4.1263e-07
3.32096e-08
-1.99741e-08
1.32546e-07
1.49041e-08
-3.86677e-11
1.04777e-08
-7.1304e-12
-3.29802e-11
3.51171e-11
-5.05128e-11
1.04274e-11
1.42439e-07
-3.71169e-10
3.06198e-07
4.40228e-07
-6.0805e-10
2.77802e-07
5.63108e-07
-5.67981e-10
2.5341e-07
4.51386e-07
-4.14494e-10
2.34127e-07
1.39628e-07
-1.39367e-09
1.04504e-07
2.05951e-08
1.19971e-09
1.11073e-08
-2.60708e-11
-5.08421e-11
7.21188e-10
-7.15509e-11
1.14126e-12
1.15536e-11
-1.29745e-10
-1.47282e-11
2.04156e-11
-1.8921e-10
1.5045e-10
-2.23241e-11
-2.99797e-10
6.25038e-12
-3.46373e-11
-4.75702e-10
-4.23801e-12
-4.06457e-11
-3.51797e-10
-1.15327e-11
-1.04383e-10
-2.11937e-10
-1.86867e-11
-1.44625e-09
-1.13151e-11
-9.70417e-12
-1.47946e-10
-1.17479e-11
1.0109e-11
-1.50843e-10
-1.52168e-11
9.81678e-12
-1.02539e-10
-3.50909e-11
2.64506e-11
-1.36944e-10
-7.70904e-11
1.10066e-10
-2.6669e-10
3.82446e-10
-1.20722e-10
2.16636e-12
-6.7174e-11
-2.29589e-10
5.50805e-11
-1.20881e-10
-3.66106e-10
1.76806e-10
-1.18555e-10
-1.21372e-10
1.59888e-10
-1.01518e-10
-1.18403e-10
1.78638e-11
-1.25182e-11
-1.56441e-10
8.541e-12
-7.4633e-12
-6.92176e-10
-1.48647e-10
6.56177e-11
-7.30803e-10
-7.31474e-10
2.78812e-10
-5.22515e-10
-1.78934e-11
3.77932e-10
-4.14246e-10
1.35753e-10
-1.56893e-10
1.20776e-10
-6.30431e-11
-2.07793e-10
3.96976e-10
-4.04015e-11
-1.95955e-10
4.68996e-10
-5.33663e-11
-8.08104e-11
1.1134e-10
-3.55747e-11
-9.20084e-11
2.8717e-11
-9.13537e-12
-1.37059e-10
1.41733e-11
4.32843e-12
-3.31217e-09
-5.82213e-10
4.27243e-10
-5.81551e-09
-2.20164e-09
9.73076e-10
-1.86756e-09
-1.05606e-09
4.68397e-10
-5.83142e-10
-3.78632e-11
-1.32805e-10
2.88983e-11
-1.34728e-12
-1.41465e-10
6.75004e-10
-2.17482e-11
-1.00242e-10
2.68389e-10
-7.89257e-11
-3.5479e-11
4.26393e-11
-4.72603e-12
-4.92502e-11
2.96909e-11
-1.30957e-12
-2.34173e-10
9.77776e-12
3.58679e-11
-6.22454e-09
-5.79624e-10
8.20639e-10
-8.16241e-09
-1.96655e-09
1.7311e-09
-6.51344e-09
-2.35723e-09
3.02544e-10
-2.64461e-09
-4.34896e-10
-3.30569e-11
3.70369e-11
9.92534e-12
-8.52972e-11
1.29858e-10
-6.22896e-11
-1.66333e-11
1.57698e-10
-8.91664e-11
-1.44385e-11
3.03301e-11
-3.34124e-13
-1.92915e-11
2.57756e-11
4.79531e-12
-2.5273e-10
1.16883e-11
5.58221e-11
-7.5123e-09
-2.21303e-10
9.85745e-10
-9.90799e-09
-1.09089e-09
1.58274e-09
-1.06011e-08
-1.54611e-09
-6.19181e-11
-2.25131e-09
-1.20507e-09
-1.22291e-11
5.12774e-11
8.12612e-12
-2.54165e-11
1.17025e-10
-7.62497e-11
-5.16706e-12
1.1688e-10
-9.85623e-12
-1.16066e-11
2.2447e-11
2.26401e-12
-1.95315e-11
1.59535e-11
7.29889e-12
-9.83757e-11
1.82745e-11
6.33403e-11
-7.02667e-09
1.18644e-11
9.22535e-10
-9.21243e-09
-7.08928e-11
1.22866e-09
-9.90943e-09
-4.76034e-10
-2.51102e-10
-1.45981e-09
-1.6076e-09
-5.62915e-12
6.53393e-11
3.5422e-12
-8.13256e-12
8.59874e-11
1.7204e-12
-3.17181e-12
8.12611e-11
6.59489e-12
-1.75121e-11
1.97982e-11
5.67328e-12
-4.95929e-11
2.22584e-11
1.33188e-11
-5.42878e-10
1.5421e-10
3.97348e-10
-1.46288e-09
1.50116e-10
3.32296e-10
-4.12008e-09
4.84152e-11
3.2461e-10
-8.05373e-09
7.05576e-11
-6.08673e-10
-1.64688e-10
-1.56454e-09
-9.45539e-12
1.71387e-10
-1.53364e-12
-6.39816e-13
6.17004e-11
1.07482e-11
-1.14318e-12
3.15039e-11
2.3765e-11
-1.33037e-11
1.65422e-11
7.17879e-12
-1.10611e-10
3.60724e-11
1.8858e-11
-1.77618e-09
2.34743e-10
4.97703e-10
-3.19645e-09
2.99861e-10
7.62038e-10
-2.20669e-09
9.91552e-11
1.57336e-10
-2.12507e-09
-4.64804e-11
-1.30368e-10
-2.41003e-11
-7.38942e-10
-1.62793e-12
-1.19808e-11
2.16016e-10
1.07029e-12
2.52546e-12
6.1412e-11
1.1559e-13
6.82907e-12
2.17122e-11
-8.04092e-12
4.38879e-12
1.48789e-11
-1.16735e-10
3.4276e-11
1.20865e-10
-1.45328e-09
3.44391e-10
1.05137e-10
-1.96549e-09
3.98949e-10
1.50274e-10
-4.99742e-10
3.11608e-11
1.20509e-11
-4.17012e-10
-6.13261e-11
-7.83209e-13
-3.10839e-10
7.34057e-12
-9.04754e-08
1.03841e-07
-6.89449e-08
-6.68174e-08
-3.69038e-08
-8.86571e-08
3.45697e-08
-1.01833e-07
-1.21963e-07
6.88011e-08
-2.5506e-08
-9.5928e-08
5.76601e-08
1.86831e-08
-7.09437e-08
2.41105e-08
4.16337e-08
-6.50279e-08
-1.49307e-08
4.87239e-08
-7.07685e-08
-5.27678e-08
4.85851e-08
-8.27796e-08
-8.40343e-08
4.2574e-08
-9.43943e-08
2.20318e-08
-1.09356e-07
-1.1478e-07
2.76341e-07
-1.69599e-07
1.12921e-09
-2.37066e-07
-6.42633e-08
1.0667e-07
-2.90708e-07
-1.09058e-07
8.87778e-08
-7.59968e-09
-1.71499e-07
3.13962e-08
1.05055e-07
-1.48612e-07
-2.05029e-08
1.2146e-07
-1.20398e-07
-6.1045e-08
1.13789e-07
-1.12322e-07
-9.01051e-08
1.01857e-07
-1.13998e-07
-1.04492e-07
8.11446e-08
-1.13141e-07
3.00932e-08
-1.11348e-07
1.17805e-07
2.42976e-07
-1.35088e-07
3.54428e-07
-6.69479e-07
2.29463e-07
3.97545e-07
-5.86452e-07
1.84435e-07
2.82745e-07
1.77016e-08
-7.04999e-08
1.47337e-07
2.5755e-07
-1.68635e-07
5.72168e-08
2.50038e-07
-1.45177e-07
-4.89867e-11
2.05952e-07
-1.13029e-07
-5.28765e-08
1.92567e-07
-9.61873e-08
-9.96443e-08
1.73364e-07
-6.54924e-08
5.43632e-08
-1.64635e-08
3.96946e-07
-6.71129e-08
-5.12684e-08
5.5861e-07
-1.02784e-06
5.35708e-07
3.93735e-07
-6.66433e-07
4.76117e-07
2.40707e-07
5.95998e-08
1.09143e-07
1.46506e-07
3.71427e-07
-1.19916e-07
6.64619e-08
3.87401e-07
-1.39084e-07
-3.61486e-08
3.60427e-07
-7.69539e-08
-1.61821e-07
3.76287e-07
-5.64681e-09
-2.18648e-07
3.13728e-07
9.55488e-08
-5.02606e-09
2.09799e-07
5.02095e-07
-4.77282e-07
1.13623e-07
4.08666e-07
-1.09932e-06
7.51999e-07
3.53893e-08
-4.22195e-07
6.09513e-07
-7.79141e-08
1.64306e-07
2.57158e-07
-8.1842e-08
4.29992e-07
1.1706e-08
-1.0629e-07
4.5882e-07
9.85444e-09
-1.57175e-07
4.33794e-07
9.70255e-08
-1.67494e-07
4.18606e-07
1.75958e-07
-1.13196e-07
2.79895e-07
2.25749e-07
-1.09208e-07
2.55098e-07
2.46155e-07
-6.10147e-07
4.10032e-07
-7.98996e-08
-8.30737e-07
7.69553e-07
-3.18208e-07
-2.49709e-07
7.14371e-07
-3.63005e-07
2.1595e-07
4.80519e-07
-2.64806e-07
3.84866e-07
2.46972e-07
-1.33805e-07
3.69168e-07
1.88969e-07
2.41249e-08
3.42672e-07
1.21439e-07
1.84211e-07
3.09917e-07
5.29019e-08
2.17545e-07
2.06961e-07
4.32914e-08
2.70086e-08
4.23071e-08
7.3765e-08
-4.39108e-07
3.61508e-07
-2.64267e-07
-3.79461e-07
4.04267e-07
-3.6138e-07
-8.00645e-08
6.87878e-07
-2.80309e-07
2.59621e-07
4.06989e-07
-1.24321e-07
4.29589e-07
-9.15876e-08
-2.62473e-09
5.55919e-07
-4.34777e-07
7.71122e-08
5.99292e-07
-5.44279e-07
1.14167e-07
5.12209e-07
-4.78535e-07
5.44532e-08
3.54691e-07
-3.59356e-07
2.36417e-07
-3.13458e-07
1.43609e-07
-1.60333e-07
-3.17672e-07
-2.4907e-07
1.35946e-07
-1.18713e-07
-4.4231e-07
3.6915e-07
5.55884e-08
-4.82025e-07
6.98525e-07
-4.60653e-07
-4.75183e-07
9.60476e-07
-9.29101e-07
-5.78101e-07
1.20991e-06
-9.17202e-07
-6.766e-07
1.17588e-06
-7.47085e-07
-6.62803e-07
7.63868e-07
-7.71728e-07
-5.37747e-07
4.69257e-07
-8.65852e-07
3.14294e-07
-9.66289e-07
1.44819e-07
3.46161e-08
-5.26831e-07
-1.89137e-07
4.84223e-07
-4.81366e-07
-2.93719e-07
7.36836e-07
-4.83602e-07
-3.19293e-07
8.61672e-07
-4.70758e-07
-4.38567e-07
7.47492e-07
3.5429e-09
-6.30787e-07
4.86723e-07
4.45326e-07
-6.16154e-07
1.35577e-07
4.85327e-07
-4.48009e-07
1.39386e-09
4.12017e-07
-3.01367e-07
-3.85747e-09
3.77235e-07
-1.19458e-10
3.68966e-07
4.77358e-07
-6.71616e-07
7.64624e-07
4.39492e-07
-3.62532e-07
6.26129e-07
4.54653e-07
-2.0628e-07
5.09096e-07
4.60538e-07
-1.5917e-07
6.3585e-07
3.4704e-07
-2.55703e-07
7.17237e-07
1.47079e-07
-6.14478e-08
4.47744e-07
2.87457e-08
-1.84828e-09
1.04114e-07
4.01783e-09
8.26592e-10
5.13469e-09
-3.62248e-11
-1.66622e-11
1.24775e-10
-1.71354e-10
2.29079e-11
1.53476e-07
-1.22721e-10
3.11302e-07
3.49129e-07
-1.60842e-10
3.43011e-07
3.74718e-07
-3.16554e-10
2.5329e-07
2.3981e-07
-6.24396e-10
1.47551e-07
5.45574e-08
-1.82222e-10
2.97045e-08
3.64325e-10
-5.62288e-11
4.02539e-09
-7.51695e-10
-1.49187e-11
1.02605e-10
-1.20491e-10
-4.17611e-11
2.46759e-10
-2.93282e-10
-2.62099e-11
1.01701e-10
-3.2277e-10
3.25199e-10
-5.14814e-12
-7.8494e-11
-2.74507e-12
-2.52023e-11
-5.99297e-11
-2.97972e-11
-5.63015e-11
-8.94883e-11
-9.17015e-11
-3.88459e-11
-3.1142e-11
-5.19423e-10
-7.57853e-11
9.76075e-12
-6.20239e-11
-8.25524e-11
8.66242e-12
-8.63894e-12
-4.63277e-11
4.73932e-13
6.79673e-12
-8.26182e-11
1.78904e-11
7.23539e-11
-6.42778e-10
-1.76989e-10
6.30244e-10
-1.76039e-10
5.88629e-10
-6.75523e-12
-5.95365e-12
-4.09451e-11
-2.76114e-11
-3.70426e-13
-8.04382e-11
-2.97102e-11
3.2342e-12
-1.13861e-10
-2.74115e-11
1.5519e-11
-6.54707e-11
-3.18345e-11
1.30363e-11
-2.08511e-11
-2.83323e-11
2.81495e-11
-8.39182e-12
-6.73108e-10
-3.8299e-11
5.22716e-11
-1.17516e-09
-2.09956e-10
4.56703e-10
-6.11128e-10
-6.40835e-11
5.3521e-10
-5.95298e-11
8.28888e-11
1.259e-13
1.15041e-11
-3.90549e-11
-8.63017e-12
2.95867e-11
-4.73684e-11
-2.17618e-11
5.53329e-11
-8.29198e-11
-1.43467e-11
3.53082e-11
-4.66844e-11
-2.7096e-11
2.36015e-11
-1.14119e-11
-7.49213e-11
4.50784e-11
4.61393e-12
-2.51974e-09
-6.50509e-11
4.19425e-10
-3.19374e-09
4.76688e-11
2.79396e-10
-1.26567e-09
1.71772e-10
1.72512e-10
9.62807e-11
-1.44726e-10
4.08196e-12
2.42572e-11
-2.3767e-11
-3.04955e-11
7.43493e-11
-4.00188e-11
-3.07622e-11
8.352e-10
-2.00394e-10
-1.97542e-11
5.45014e-11
-5.72475e-11
-1.92014e-11
2.70527e-11
-4.10384e-13
-3.48178e-10
5.80373e-11
4.42406e-11
-2.96418e-09
1.07934e-10
5.12756e-10
-1.60631e-09
5.31713e-10
3.72677e-11
-1.52551e-09
3.02224e-10
1.79145e-12
5.1557e-10
-3.74605e-10
1.99391e-11
2.63934e-11
-1.44111e-12
-7.04754e-11
9.41158e-10
-1.17068e-10
-1.31923e-10
1.32042e-09
-2.21382e-10
-2.09057e-11
1.30981e-10
-8.76488e-12
-2.05034e-11
2.9675e-11
3.83809e-12
-5.50532e-10
7.63637e-11
9.63623e-11
-2.83857e-09
3.2881e-10
4.21144e-10
-1.09149e-09
5.59121e-10
3.36912e-11
-1.45257e-09
3.28251e-10
-2.098e-11
1.14712e-09
-7.29236e-10
2.00079e-11
2.81791e-11
5.66624e-13
-2.64733e-11
1.35648e-09
-1.37405e-10
-1.37955e-10
1.64354e-09
-9.85483e-12
-4.98458e-11
9.90153e-10
5.01145e-11
-7.64902e-11
4.27265e-11
1.37586e-11
-5.87463e-10
2.01336e-10
2.92463e-10
-1.63495e-09
4.4331e-10
4.51129e-10
-1.38768e-09
2.51085e-10
-1.47155e-11
-3.14375e-09
7.72476e-10
-5.89696e-11
9.68484e-10
-4.51755e-10
6.47937e-12
3.73667e-11
-5.35398e-12
7.96627e-11
1.50537e-09
-1.10099e-11
-6.16367e-11
1.8794e-09
1.20521e-10
-5.9968e-11
7.78986e-10
1.78304e-10
-1.2121e-10
5.35077e-11
3.71128e-11
-9.42715e-10
4.01985e-10
6.88316e-10
-7.07262e-10
5.08556e-10
2.46877e-10
-5.84834e-10
9.57936e-11
-2.87379e-12
-2.31655e-09
6.06114e-10
-3.32874e-11
5.83364e-10
-8.15554e-11
4.24669e-12
1.84579e-10
-2.58821e-11
1.1904e-10
3.87654e-11
-1.01374e-11
9.6587e-11
1.55462e-09
2.54694e-10
-9.63944e-12
1.26334e-10
1.91531e-10
-2.34331e-10
9.93812e-11
8.8178e-11
-1.15831e-09
3.65701e-10
2.71938e-10
-4.8612e-10
3.29449e-10
1.03763e-10
-9.6512e-11
8.30061e-11
1.38238e-12
-1.69996e-09
3.60791e-10
-1.23054e-11
7.47003e-10
-2.56185e-11
3.71691e-12
-1.86644e-11
2.18566e-10
1.1112e-11
-8.82475e-13
1.77863e-12
3.09418e-11
1.02896e-10
4.67626e-11
4.14749e-12
4.99101e-11
5.90513e-11
-2.51278e-10
1.4675e-10
1.71123e-10
-5.73887e-10
6.61524e-11
1.41638e-10
-1.57567e-10
6.16943e-12
6.4402e-12
6.64942e-11
-7.59372e-12
7.33059e-11
-5.32352e-10
-8.95001e-12
2.8068e-10
-1.8391e-11
2.35112e-10
-1.14345e-07
8.86247e-08
-4.32251e-08
-9.78979e-08
-1.2639e-07
2.12862e-08
2.14472e-08
-2.46062e-07
4.75355e-09
5.27148e-08
-1.02087e-07
-2.51089e-08
3.09675e-08
-7.42199e-09
-4.17744e-08
-7.11897e-09
2.80019e-08
-5.49433e-08
-4.57528e-08
3.40811e-08
-6.62158e-08
-7.93279e-08
2.73314e-08
-7.65358e-08
-1.05271e-07
1.17842e-08
-8.02358e-08
-2.22502e-08
-8.50665e-08
-1.71986e-07
2.47661e-07
-1.5665e-07
-4.63981e-08
-3.87109e-07
7.08671e-08
1.37905e-07
-6.26502e-07
8.70789e-08
1.09128e-07
-2.11241e-07
-3.35686e-08
2.10112e-08
2.83861e-08
-9.63024e-08
-4.44411e-08
8.56174e-08
-1.12561e-07
-8.7709e-08
8.19908e-08
-1.16964e-07
-1.09842e-07
5.46983e-08
-1.19232e-07
-1.15083e-07
1.44067e-08
-1.10522e-07
-4.43576e-08
-1.01814e-07
-4.42176e-08
3.333e-07
-1.76509e-07
2.66757e-07
-7.62592e-07
2.93971e-07
4.71646e-07
-1.01216e-06
3.65203e-07
3.87765e-07
-3.07655e-07
1.09795e-07
1.8801e-07
1.25454e-07
-6.59472e-08
4.82551e-08
1.97147e-07
-1.16951e-07
-2.38505e-08
1.66346e-07
-1.25279e-07
-6.73503e-08
1.30631e-07
-1.2862e-07
-1.02298e-07
1.03881e-07
-1.20019e-07
3.90157e-08
-1.03495e-07
1.78859e-07
2.84986e-07
-1.81814e-07
4.72665e-07
-9.27524e-07
4.06835e-07
5.35885e-07
-1.06838e-06
4.69119e-07
4.53865e-07
-2.83124e-07
1.66631e-07
2.7854e-07
2.27734e-07
-4.68721e-08
1.13989e-07
3.47924e-07
-1.25311e-07
-7.88701e-09
3.37046e-07
-1.25778e-07
-1.09248e-07
3.30765e-07
-1.0442e-07
-1.67178e-07
3.3349e-07
-7.61304e-08
2.459e-07
-5.03552e-08
3.26926e-07
2.85253e-07
-2.1357e-07
4.4311e-07
-6.04417e-07
3.13811e-07
2.91459e-07
-6.79869e-07
3.73229e-07
2.29906e-07
-6.25354e-08
9.81334e-08
1.49597e-07
3.45159e-07
-2.54101e-08
8.1303e-08
4.59791e-07
-3.37179e-08
2.4137e-09
5.14147e-07
-1.18538e-09
-1.17587e-07
6.35212e-07
-8.48798e-09
-2.08124e-07
7.00793e-07
-5.10173e-08
5.32213e-07
-7.96415e-08
3.58946e-07
4.52333e-07
-1.15994e-07
3.1051e-07
-6.50191e-08
2.80133e-07
7.45513e-08
-8.58319e-08
3.56046e-07
5.87236e-08
2.78703e-07
1.55133e-07
8.95647e-08
4.9591e-07
6.53802e-08
1.19659e-07
6.26703e-07
-8.0382e-09
7.91904e-08
7.90124e-07
-1.1407e-07
-9.57132e-09
9.63343e-07
-1.86467e-07
-8.74644e-08
1.04818e-06
-2.26198e-07
9.09793e-07
-2.87166e-07
4.01472e-07
4.86777e-07
-7.44053e-08
1.4198e-07
3.8448e-07
2.14364e-07
-5.94157e-08
5.00406e-07
3.02957e-07
-1.10895e-08
6.66399e-07
-2.90322e-08
2.90276e-08
8.22803e-07
-4.58597e-07
-6.1182e-08
1.10553e-06
-8.23395e-07
-1.90301e-07
1.31595e-06
-9.40986e-07
-2.24346e-07
1.36333e-06
-8.44481e-07
-1.84778e-07
1.33752e-06
-6.88264e-07
1.23865e-06
-6.49592e-07
1.95776e-07
5.09409e-07
-5.36081e-07
-1.80032e-07
7.52519e-07
-1.10944e-07
-4.94276e-07
1.13408e-06
-2.63841e-07
-7.31199e-07
1.41558e-06
-9.72907e-07
-9.32112e-07
1.49012e-06
-1.39551e-06
-1.10681e-06
1.37777e-06
-1.32825e-06
-1.11434e-06
1.14167e-06
-1.09471e-06
-9.55462e-07
8.20439e-07
-1.03789e-06
-7.08838e-07
5.75973e-07
-1.04736e-06
4.65143e-07
-1.08006e-06
-2.3566e-07
5.13063e-07
-3.88649e-07
-4.70146e-07
6.46815e-07
-3.03507e-07
-5.01275e-07
7.92784e-07
-5.19873e-07
-5.05361e-07
7.08433e-07
-4.61434e-07
-4.52418e-07
3.99747e-07
6.18503e-09
-3.81454e-07
1.26611e-07
2.72115e-07
-2.88283e-07
-8.63492e-09
2.89737e-07
-1.96987e-07
-5.50291e-09
2.80421e-07
-1.44104e-07
-4.41699e-11
2.82434e-07
-2.11903e-10
2.70057e-07
2.52928e-07
-3.03663e-07
9.03227e-07
2.43368e-07
-2.75404e-07
6.90089e-07
2.27068e-07
-1.5562e-07
4.00628e-07
1.84158e-07
-1.93632e-07
3.73395e-07
1.59015e-07
-5.40875e-08
2.66858e-07
6.23198e-08
-7.57422e-09
1.06961e-07
2.59292e-09
4.17486e-09
2.92816e-08
-4.44296e-11
4.88783e-11
2.47163e-09
-9.20124e-11
-7.59703e-11
8.01855e-11
-3.26698e-10
6.3671e-11
8.24849e-08
-9.73599e-11
1.63056e-07
1.12064e-07
-7.94047e-10
1.63639e-07
7.73117e-08
-9.70275e-10
6.86774e-08
2.60939e-08
-1.12676e-10
5.91233e-09
6.40215e-10
-3.95985e-10
1.62401e-09
-2.75706e-09
-2.04769e-10
2.78202e-10
-2.64533e-10
1.78354e-10
1.10244e-09
-1.84462e-10
2.16711e-11
1.06661e-10
-2.73308e-10
-7.53427e-11
8.16256e-11
-3.89316e-10
1.75993e-10
-2.59709e-11
-3.31614e-11
-2.2495e-11
-7.92518e-11
-3.49397e-11
-7.05539e-10
-3.68812e-10
-7.86655e-13
-7.25518e-10
-1.07751e-10
1.09458e-11
-8.26448e-10
-5.56559e-11
-6.86755e-12
-4.08165e-10
-1.60196e-10
2.89868e-11
-8.09033e-11
-6.27043e-11
-4.33893e-12
3.81671e-11
-3.59581e-10
3.21879e-11
1.19841e-10
-9.18806e-10
-1.1078e-10
7.03799e-10
-1.38114e-10
5.56478e-10
-5.84404e-12
-5.46761e-12
-4.71958e-11
-1.78963e-11
1.21179e-12
-7.78192e-11
-1.63964e-11
-9.49233e-13
-1.00483e-10
-1.19684e-11
2.97648e-12
-6.21631e-11
-9.43787e-12
1.01676e-12
-3.09964e-11
-8.7237e-12
1.61678e-11
-9.85231e-12
-3.30012e-11
3.37858e-11
8.39602e-12
-7.74569e-10
3.09049e-10
1.16579e-10
-9.11523e-10
3.63459e-10
7.89526e-10
1.92858e-10
6.06695e-11
5.36732e-12
-1.3742e-12
-3.30355e-11
2.00844e-12
5.75614e-12
-3.29555e-11
-3.23707e-12
-8.40829e-12
-2.07293e-10
-1.28326e-11
3.73281e-11
-4.87671e-11
-9.30364e-13
7.59123e-12
-2.99416e-12
-4.97781e-12
1.55047e-11
2.64064e-12
-2.32109e-10
2.53889e-10
2.74959e-11
-7.43553e-10
7.14051e-10
-3.87562e-11
-6.31293e-10
6.69042e-10
3.80733e-10
2.84854e-10
-1.70875e-10
9.45502e-12
-3.99634e-13
-2.15213e-11
6.48705e-12
2.72151e-11
-2.82889e-11
4.01871e-11
7.86948e-11
-1.85447e-10
-8.22384e-12
7.65773e-11
-3.63662e-11
1.47276e-12
7.72544e-12
3.85597e-13
-5.76856e-11
3.92461e-11
1.27038e-11
-3.97185e-10
5.53489e-10
8.84253e-11
-7.58979e-10
8.87948e-10
1.02239e-11
-1.31341e-11
2.77192e-10
6.66462e-11
5.01615e-10
-2.72562e-10
1.79068e-11
5.43085e-12
-2.6499e-12
8.05832e-11
7.87177e-11
-2.14904e-10
4.72406e-11
8.71507e-11
-1.02336e-11
7.08644e-13
9.79299e-11
-8.72594e-12
-2.81037e-12
1.47141e-11
2.71859e-12
-2.02591e-10
9.96043e-11
3.66419e-11
-6.34785e-10
7.43241e-10
2.7202e-10
-3.87741e-10
8.37091e-10
4.29688e-11
-1.06761e-10
1.34072e-10
-4.18989e-12
3.93691e-10
-4.3244e-10
5.70131e-12
2.06195e-11
-1.54913e-11
5.61597e-11
3.34599e-11
-4.2351e-12
4.28069e-11
6.13621e-11
-2.41381e-12
5.13361e-12
1.33779e-10
5.37906e-12
1.06213e-11
2.60718e-11
1.04044e-11
-2.56038e-10
3.36174e-10
2.69724e-10
-7.42354e-10
4.27085e-10
3.39377e-10
-9.62491e-11
1.75626e-10
7.25844e-11
-5.75458e-11
4.90615e-11
-1.1845e-11
7.85946e-11
-1.31686e-10
5.30457e-12
3.9303e-11
-7.20362e-12
1.15134e-11
4.41454e-12
-5.11066e-12
4.29787e-11
7.82036e-11
-1.74908e-12
9.52421e-12
1.63383e-10
2.50308e-11
-7.60477e-11
5.3381e-11
5.00356e-11
-3.46044e-10
2.29944e-10
7.12442e-10
-1.52226e-10
6.43013e-11
3.67794e-10
-1.15654e-11
2.36706e-11
9.23414e-12
-1.0348e-11
2.18175e-11
-7.25411e-12
2.42929e-11
-2.83818e-11
3.49001e-12
2.37061e-11
-7.34073e-12
3.43109e-12
5.08996e-12
-7.69612e-12
1.70029e-11
9.5464e-11
1.18951e-12
2.00727e-12
8.48046e-11
5.63948e-11
-1.43443e-10
7.23227e-11
1.7395e-10
-1.14573e-10
8.8459e-11
3.09202e-10
-1.66664e-11
1.9924e-11
2.02417e-11
-3.94055e-12
1.37733e-11
-1.42031e-12
-1.84635e-12
1.56417e-11
-7.8485e-12
1.59953e-11
-1.94001e-11
-1.00414e-14
-6.0539e-12
1.11925e-11
2.2957e-13
-4.77988e-13
6.05407e-12
-1.612e-12
1.53384e-11
2.17303e-11
-3.94143e-11
7.8053e-11
4.74793e-11
-6.18079e-11
2.03369e-10
2.70486e-10
-2.06948e-11
3.47803e-11
2.80037e-11
-3.94833e-12
2.07959e-12
7.20447e-12
1.91603e-13
-7.29398e-12
9.74259e-12
2.98767e-12
-8.64279e-12
1.3366e-11
-1.63532e-11
1.44405e-11
-7.67391e-08
7.78356e-08
-4.43217e-08
-7.6479e-08
-3.98482e-08
6.08742e-08
-9.32864e-09
-1.01642e-07
3.92455e-08
9.51549e-09
-3.86645e-08
-5.28858e-09
-8.47251e-09
1.32944e-08
-3.70809e-08
-4.24458e-08
3.74234e-08
-5.83934e-08
-7.55772e-08
4.07779e-08
-7.38622e-08
-1.00441e-07
3.25932e-08
-8.4265e-08
-1.18959e-07
1.76193e-08
-7.93375e-08
-6.25645e-09
-7.78406e-08
-1.49648e-07
2.22088e-07
-1.51254e-07
-1.35681e-07
-5.10909e-08
6.81422e-08
-1.18463e-08
-2.17267e-07
7.8869e-08
-1.10355e-09
-5.87053e-08
-2.42706e-08
-4.18086e-08
4.8077e-08
-9.03799e-08
-8.74075e-08
8.77383e-08
-1.17277e-07
-1.17282e-07
8.00208e-08
-1.26332e-07
-1.23239e-07
4.61304e-08
-1.26813e-07
-1.1802e-07
8.28612e-09
-1.06408e-07
-2.79055e-08
-8.62734e-08
-1.38877e-07
3.51249e-07
-1.66792e-07
-1.33223e-08
-9.3186e-08
2.10511e-07
1.74009e-07
-3.33821e-07
2.94425e-07
1.61705e-07
-4.60426e-08
1.09437e-07
6.33233e-08
1.26369e-07
-4.58571e-08
-2.66004e-08
1.73815e-07
-1.13104e-07
-8.8823e-08
1.56867e-07
-1.39903e-07
-1.2054e-07
1.06983e-07
-1.57756e-07
-1.32724e-07
7.03564e-08
-1.69905e-07
3.88733e-08
-1.85919e-07
-7.51842e-09
4.04502e-07
-2.27549e-07
1.80849e-07
-6.27961e-08
1.88078e-07
3.34254e-07
-3.36963e-07
3.18855e-07
3.06157e-07
6.46502e-09
1.42221e-07
1.7811e-07
2.32085e-07
-2.4542e-08
3.7051e-08
3.1135e-07
-1.21786e-07
-8.03609e-08
3.09401e-07
-1.609e-07
-1.67226e-07
2.68914e-07
-1.79486e-07
-2.01398e-07
2.6007e-07
-2.31672e-07
2.4568e-07
-3.29535e-07
1.67487e-07
4.54043e-07
-4.30598e-07
3.18636e-07
1.33941e-07
-3.4075e-08
3.42544e-07
-8.99141e-08
1.02297e-07
2.90648e-07
1.68348e-07
-1.18529e-08
2.31635e-07
3.35632e-07
-6.99434e-08
1.46301e-07
4.55866e-07
-9.29004e-08
-3.03148e-09
5.95429e-07
-1.3788e-07
-1.98233e-07
6.6179e-07
-2.06162e-07
-3.03026e-07
6.52747e-07
-3.38903e-07
5.81621e-07
-5.29239e-07
2.53314e-07
5.28402e-07
-4.43668e-07
2.98896e-07
4.02996e-07
-3.45032e-08
2.24765e-07
3.1268e-07
2.78542e-08
2.22493e-07
4.31442e-07
-1.05684e-07
2.45374e-07
5.67517e-07
-1.89386e-07
1.9461e-07
8.14339e-07
-3.15747e-07
4.53261e-08
1.05982e-06
-4.29179e-07
-1.49496e-07
1.17794e-06
-5.07797e-07
-2.56672e-07
1.16247e-06
-6.28748e-07
1.04866e-06
-8.48889e-07
1.96175e-07
6.02518e-07
-3.44697e-07
-4.52709e-09
7.29635e-07
8.84278e-08
-1.17692e-07
7.79372e-07
-5.05699e-08
-1.11048e-07
8.51583e-07
-4.55817e-07
-1.58969e-07
1.07175e-06
-9.14909e-07
-3.427e-07
1.43825e-06
-1.26358e-06
-5.0109e-07
1.68059e-06
-1.40337e-06
-5.35234e-07
1.73734e-06
-1.36974e-06
-4.3104e-07
1.6878e-06
-1.31779e-06
1.55524e-06
-1.3243e-06
-1.96622e-07
8.17774e-07
-5.54715e-07
-5.31597e-07
1.19517e-06
-2.41497e-07
-8.54779e-07
1.54875e-06
-7.10035e-07
-1.19062e-06
1.62583e-06
-1.41132e-06
-1.39072e-06
1.27402e-06
-1.72887e-06
-1.35708e-06
9.3254e-07
-1.40825e-06
-1.21506e-06
6.70709e-07
-1.14401e-06
-1.00752e-06
4.30205e-07
-1.07322e-06
-7.40243e-07
2.36632e-07
-1.08122e-06
1.39978e-07
-1.08409e-06
-4.9702e-07
6.29763e-07
-4.6723e-08
-5.49453e-07
4.9657e-07
-9.10421e-08
-5.47422e-07
4.19347e-07
-3.88558e-07
-4.81918e-07
1.72798e-07
-3.05815e-07
-3.23709e-07
1.97939e-09
1.43041e-08
-1.7378e-07
-2.79371e-08
1.41703e-07
-9.24575e-08
-2.71247e-08
1.84593e-07
-7.14127e-08
-5.98652e-09
1.34735e-07
-5.06716e-08
8.44831e-11
1.00042e-07
3.76379e-09
7.67238e-08
1.63885e-07
-1.62153e-07
7.04678e-07
1.42035e-07
-1.55672e-07
3.86684e-07
7.20054e-08
-7.12048e-08
1.48293e-07
4.65498e-08
-9.1995e-09
6.59422e-08
2.46771e-08
-3.30219e-09
3.6712e-08
1.48732e-09
1.58349e-09
2.67177e-08
-3.04194e-10
-5.68027e-10
4.23952e-09
-3.7143e-09
1.74278e-10
4.37352e-10
-5.84466e-09
2.34668e-10
1.92531e-09
8.71519e-10
2.06329e-09
1.37361e-08
-4.55001e-10
6.83177e-08
5.43064e-09
2.45683e-10
1.73779e-08
1.63886e-09
-1.05695e-09
3.87825e-09
8.97304e-10
2.42634e-11
5.15379e-10
-5.12236e-10
1.79371e-10
8.73189e-10
-4.89055e-10
1.41242e-10
1.2009e-09
-2.29551e-10
1.28505e-11
1.25922e-10
-5.61082e-10
1.90462e-11
1.04538e-10
-5.65469e-10
-3.3662e-11
2.47396e-10
-2.18533e-12
3.46784e-10
-3.80172e-10
-1.56026e-12
-7.23522e-11
-3.78658e-10
-2.9102e-11
-3.38891e-10
-2.51612e-10
-5.10236e-11
-1.67079e-09
-7.18098e-11
-9.94449e-11
-6.01381e-10
-1.91442e-11
1.11104e-11
-1.87169e-10
-1.35086e-11
1.44434e-11
-4.04285e-12
-3.09646e-12
1.61794e-11
1.40642e-11
-6.85731e-10
6.04451e-11
1.3881e-10
-8.79895e-10
2.30874e-10
8.29362e-10
1.61276e-10
5.79164e-10
-5.28136e-12
4.39614e-12
-3.00236e-11
-2.38171e-11
2.51805e-12
-6.22078e-11
5.51326e-13
-5.74641e-11
-1.52049e-10
6.59162e-12
4.12735e-12
-8.74801e-11
4.99435e-12
-1.91656e-13
-1.41665e-11
2.51466e-12
8.3647e-12
-1.26621e-15
-1.39728e-12
1.65938e-11
7.60563e-12
-2.09965e-10
6.95468e-11
3.97904e-11
-7.4633e-10
3.38163e-10
3.25139e-10
2.48993e-10
2.8636e-11
3.61246e-12
-6.47396e-13
-2.13731e-11
1.31896e-11
-2.47964e-11
-4.55732e-11
5.96295e-11
-9.25198e-11
-2.03667e-10
6.73213e-12
2.43324e-11
-1.27258e-10
9.85068e-14
5.01707e-12
-1.84574e-12
8.16924e-15
7.45904e-12
5.37626e-12
2.25511e-12
3.10493e-11
1.12134e-11
-8.00139e-11
8.25661e-11
9.31391e-12
-5.03827e-12
1.54546e-10
5.57858e-11
4.80258e-10
-1.83197e-10
7.7225e-12
-9.72105e-12
-3.69913e-11
4.63354e-11
-6.30315e-11
-1.5557e-10
2.24027e-11
-1.55985e-12
-2.45467e-10
-3.18074e-12
9.37158e-12
-6.13362e-11
-3.43546e-12
7.76617e-12
1.94929e-14
-3.38841e-12
1.47449e-11
7.6768e-12
3.5443e-12
8.8099e-11
2.31796e-11
-1.53882e-11
9.10222e-11
1.73936e-11
1.24368e-10
1.47966e-10
3.63296e-11
6.43383e-10
-3.28428e-10
-3.01768e-12
-9.24331e-12
-7.24544e-11
6.71851e-12
-1.56937e-12
-1.34674e-10
-1.15953e-12
1.63337e-12
-5.46816e-12
-2.49498e-12
6.20674e-12
-4.21842e-12
-1.84494e-12
1.09193e-11
1.34505e-12
-8.00879e-12
4.9944e-11
9.95676e-12
2.27025e-12
5.2748e-10
4.40853e-11
-1.62071e-11
1.6955e-10
1.43936e-11
-2.20531e-10
9.52875e-11
3.05228e-11
8.5743e-11
-2.71538e-10
-4.37496e-13
6.89696e-12
-2.62264e-11
-3.62973e-13
-9.59453e-15
-6.07876e-12
-1.53607e-12
3.20603e-12
-2.97603e-12
-1.65124e-12
1.09064e-11
8.75182e-13
-8.93322e-12
2.2578e-11
6.68474e-12
-3.19376e-11
3.65769e-10
8.94305e-11
-3.57155e-11
6.85758e-10
2.85874e-10
-2.29443e-11
2.36134e-10
1.09927e-11
-3.29433e-11
3.21639e-11
-2.35166e-13
4.42799e-11
-4.31497e-11
-9.68563e-13
4.77652e-12
-5.42125e-12
-1.30228e-12
1.29873e-12
-6.27928e-12
-2.92451e-12
4.27961e-12
-1.11979e-12
-7.5212e-12
3.44059e-11
6.42024e-12
-8.60822e-11
1.98327e-10
1.0216e-10
-1.04578e-10
2.9964e-10
4.57846e-10
-6.50609e-11
1.91109e-10
3.98301e-10
-4.1711e-12
8.90647e-11
3.19416e-11
-2.12978e-13
2.31874e-11
-3.87272e-12
2.08028e-11
-2.08913e-11
-2.25149e-12
4.03354e-12
-5.66554e-12
-1.55489e-12
3.73288e-12
-1.10269e-11
-1.09848e-11
1.0435e-11
4.75624e-12
-5.57499e-11
1.6189e-10
1.23899e-10
-1.62375e-10
2.99155e-10
5.68269e-10
-7.96678e-11
8.33846e-11
3.4106e-10
-6.35426e-12
2.22983e-11
5.36676e-11
2.43757e-12
2.06291e-11
-3.17044e-12
4.72655e-12
1.93913e-11
-6.34443e-12
2.16268e-11
-3.56019e-11
-4.44457e-12
-6.6841e-12
6.16296e-12
-2.22399e-12
5.07374e-12
1.51534e-11
-9.93356e-12
7.14633e-11
5.61352e-11
-2.23723e-10
4.07784e-10
1.4195e-10
-8.89067e-11
3.68696e-10
2.52782e-10
-1.07127e-11
4.69063e-11
2.64819e-11
1.36847e-12
-5.42739e-12
1.65981e-11
5.80525e-12
-7.60849e-12
1.60517e-11
1.03294e-11
-1.13024e-11
1.79052e-11
-2.6726e-11
1.97269e-11
-5.76648e-08
7.18303e-08
-5.84872e-08
-5.78259e-08
3.62982e-09
5.74052e-08
-2.58136e-08
-1.78282e-08
2.50612e-08
-2.11756e-08
4.99849e-09
-1.49252e-08
-3.99563e-08
2.79728e-08
-4.62731e-08
-6.97337e-08
4.06369e-08
-6.92528e-08
-9.77442e-08
4.19413e-08
-8.77928e-08
-1.15011e-07