/*--------------------------------*- C++ -*----------------------------------*\
| =========                 |                                                 |
| \\      /  F ield         | OpenFOAM: The Open Source CFD Toolbox           |
|  \\    /   O peration     | Version:  2312                                  |
|   \\  /    A nd           | Website:  www.openfoam.com                      |
|    \\/     M anipulation  |                                                 |
\*---------------------------------------------------------------------------*/
FoamFile
{
    version     2.0;
    format      ascii;
    arch        "LSB;label=32;scalar=64";
    class       surfaceScalarField;
    location    "1.015";
    object      phi;
}
// * * * * * * * * * * * * * * * * * * * * * * * * * * * * * * * * * * * * * //

dimensions      [0 3 -1 0 0 0 0];

oriented        oriented;

internalField   nonuniform List<scalar> 
22600
(
-4.07562e-08
8.83111e-08
-4.7555e-08
-4.32321e-08
9.6523e-08
-9.40469e-08
-1.5689e-08
8.7596e-08
-1.15139e-07
-1.62019e-08
7.99513e-08
-7.94382e-08
-3.88714e-08
7.77643e-08
-5.50946e-08
-7.38278e-08
8.33185e-08
-4.83622e-08
-1.10358e-07
8.87243e-08
-5.21937e-08
-1.34723e-07
8.74149e-08
-6.30496e-08
-1.37244e-07
7.67446e-08
-7.42242e-08
6.16199e-08
-8.83888e-08
-7.92451e-08
2.70165e-07
-1.02609e-07
-1.14426e-07
2.70377e-07
-1.38673e-07
-1.04474e-07
2.61643e-07
-1.83999e-07
-1.06489e-07
2.44854e-07
-1.62887e-07
-1.27719e-07
2.09317e-07
-1.10323e-07
-1.54808e-07
1.93272e-07
-8.28646e-08
-1.75508e-07
1.87208e-07
-7.77835e-08
-1.80809e-07
1.72425e-07
-7.97093e-08
-1.61199e-07
1.36206e-07
-7.9072e-08
9.2431e-08
-8.17536e-08
2.159e-09
3.07807e-07
-3.98007e-08
-4.52124e-08
2.70675e-07
4.70738e-08
-1.03643e-07
3.76325e-07
-5.62521e-08
-1.09732e-07
4.01115e-07
-1.50172e-07
-1.15837e-07
3.55703e-07
-1.40281e-07
-1.38858e-07
3.11337e-07
-9.50446e-08
-1.75767e-07
2.90442e-07
-6.63244e-08
-2.14583e-07
2.57413e-07
-4.6172e-08
-2.08119e-07
1.38588e-07
-8.84595e-09
-4.60815e-08
3.86971e-08
1.69384e-07
8.81598e-08
5.02633e-08
7.19924e-08
1.57627e-08
3.52304e-07
-1.08688e-07
3.08809e-07
2.48197e-07
-1.5534e-07
4.3424e-07
1.35275e-08
-1.47965e-07
4.33589e-07
-8.52609e-08
-1.87283e-07
4.1771e-07
-6.70549e-08
-2.85569e-07
3.99639e-07
-1.09104e-08
-3.5835e-07
2.60974e-07
6.92186e-08
-2.87043e-07
-1.28744e-07
1.96026e-07
-4.73054e-07
2.7282e-07
4.42222e-07
-5.77051e-07
2.22989e-07
2.99618e-07
-4.40849e-07
5.99216e-07
-9.23948e-08
2.01006e-07
4.99817e-07
-2.92936e-07
3.64663e-07
2.70117e-07
-3.22931e-07
3.76416e-07
8.71687e-08
-3.65068e-07
3.82472e-07
7.73758e-08
-4.26124e-07
3.19123e-07
1.41571e-07
-3.65502e-07
-3.16369e-08
2.31989e-07
-2.27088e-07
-5.34739e-07
2.67581e-07
-7.75994e-07
2.02588e-07
3.232e-07
-1.44781e-06
5.47559e-07
9.66048e-08
-9.514e-07
7.37147e-07
-2.59061e-07
-1.17894e-07
6.74566e-07
-4.4017e-07
3.1078e-08
5.14695e-07
-4.18641e-07
2.64574e-08
3.28429e-07
-3.546e-07
5.69873e-08
2.61444e-07
-2.61665e-07
5.26506e-09
2.20923e-07
-1.5589e-07
-2.73739e-07
1.36328e-07
-9.05804e-08
-6.35661e-07
3.56125e-08
-7.08544e-07
-1.04882e-08
-1.41403e-07
-1.93871e-06
6.32304e-07
-2.75797e-07
-1.36301e-06
5.46003e-07
-4.6525e-07
-7.12173e-07
7.83732e-07
-4.81013e-07
-5.17517e-07
5.64358e-07
-3.07218e-07
-2.96602e-07
1.49265e-07
-1.33433e-07
-3.00275e-08
-8.67699e-08
-3.54448e-08
7.19327e-08
-1.64656e-07
-7.33501e-08
-3.43223e-08
-2.01512e-07
-2.25838e-07
-2.55189e-07
-2.27985e-07
-3.75097e-07
-2.35498e-07
-1.94097e-07
-1.88356e-06
1.3895e-07
-2.59115e-07
-1.33796e-06
3.99648e-08
-4.27296e-07
-9.04758e-07
3.60766e-07
-3.5264e-07
-5.71491e-07
-2.06824e-08
-2.67914e-07
-3.00075e-08
-3.51321e-07
-4.03902e-07
4.31408e-07
-3.25447e-07
-6.89781e-07
5.86898e-07
-2.29087e-07
-9.08195e-07
4.59931e-07
-2.75839e-07
-9.08961e-07
2.02526e-07
-4.56949e-07
-1.45074e-08
-6.16764e-07
7.32861e-08
-1.80641e-06
-1.50441e-07
2.4114e-07
-1.09819e-06
-4.07616e-07
1.14219e-07
-6.19254e-07
-1.58583e-07
-2.40324e-07
-1.29276e-07
-8.76712e-08
-7.41969e-07
3.11976e-07
1.59662e-07
-1.3857e-06
5.35897e-07
5.39238e-07
-1.80917e-06
3.08085e-07
7.02283e-07
-1.82284e-06
-2.5288e-07
7.26483e-07
-1.47418e-06
-8.69441e-07
7.23308e-07
-1.40857e-06
7.96048e-07
3.05544e-07
-2.36523e-06
2.53273e-07
1.07154e-06
-1.77446e-06
-8.97215e-08
1.53162e-06
-1.3488e-06
2.69466e-07
1.46738e-06
-8.94181e-07
8.2914e-07
1.42839e-06
-9.94197e-07
1.34516e-06
1.76509e-06
-1.55972e-06
1.75892e-06
3.1191e-06
-3.07043e-06
2.02451e-06
2.24084e-06
-6.45848e-07
1.27123e-06
1.22964e-07
1.07501e-06
1.73427e-07
-7.88678e-08
5.35366e-07
6.67044e-07
-4.82275e-06
1.79048e-06
2.14082e-06
-4.7953e-06
1.54706e-06
3.51394e-06
-4.23795e-06
1.51604e-06
5.12537e-06
-4.41553e-06
1.90992e-06
6.86796e-06
-4.73226e-06
1.99547e-06
3.11303e-06
1.11766e-06
1.07755e-06
-8.38214e-07
-4.90685e-07
1.37149e-06
-2.23772e-06
1.73227e-07
5.80426e-07
-1.68827e-06
-1.92348e-07
7.17883e-07
-2.07522e-06
1.47975e-06
-1.5716e-06
-3.78208e-06
5.30938e-07
-2.1236e-06
-3.6109e-06
-6.32385e-07
-2.47775e-06
-2.85483e-06
-1.02897e-06
-3.43626e-06
-2.42407e-06
-1.03294e-06
-5.77494e-06
-1.39345e-06
-1.00012e-06
-5.90465e-06
1.11944e-06
1.27921e-07
-6.22686e-06
-7.96356e-07
6.27872e-07
-5.00463e-06
-2.15255e-06
1.10354e-06
-4.54972e-06
-2.99929e-06
2.35201e-06
-4.68345e-06
3.02021e-06
-1.93395e-06
-8.96842e-08
-1.75844e-06
-2.72108e-06
4.39124e-07
-3.26289e-06
-3.94857e-06
1.62235e-06
-3.24969e-06
-6.06044e-06
2.61431e-06
-2.9265e-06
-7.62317e-06
2.33374e-06
-2.16446e-06
-6.53555e-06
4.7734e-07
-4.45517e-07
-6.3395e-06
-2.08932e-06
1.09692e-06
-7.53037e-06
-3.32843e-06
2.36674e-06
-9.45302e-06
-4.15341e-06
3.07676e-06
-5.68405e-06
2.04793e-06
-1.85113e-06
3.21162e-06
-1.45017e-06
-2.43533e-06
4.30659e-06
-3.28327e-06
-3.89683e-06
5.74867e-06
-2.66482e-06
-5.50723e-06
6.53411e-06
-2.30938e-06
-6.11184e-06
4.3974e-06
-1.45905e-06
-6.1938e-06
2.48819e-07
3.10488e-07
-8.09977e-06
-2.21752e-06
2.03416e-06
-1.08796e-05
-3.38434e-06
2.83573e-06
-1.30236e-05
-3.97829e-06
1.96892e-06
-5.07347e-06
-8.35912e-07
-1.57776e-06
4.87589e-06
-8.6488e-08
-2.26495e-06
7.31136e-06
-2.31759e-06
-3.49017e-06
8.72109e-06
-1.74718e-06
-4.60263e-06
8.84633e-06
-1.19978e-06
-4.97774e-06
5.01422e-06
-2.41715e-07
-6.34941e-06
1.62688e-07
1.45781e-06
-9.66543e-06
-1.61921e-06
2.7177e-06
-1.28309e-05
-2.63668e-06
2.41779e-06
-1.38555e-05
-3.20021e-06
2.46509e-07
-4.23303e-06
-2.0157e-06
-1.07226e-06
4.86308e-06
1.08505e-06
-1.9496e-06
9.66601e-06
-1.47729e-06
-3.00135e-06
1.07303e-05
-9.57499e-07
-3.73398e-06
9.71212e-06
-1.33146e-07
-4.17613e-06
4.53812e-06
9.18264e-07
-6.48319e-06
2.41474e-07
2.22827e-06
-1.03228e-05
-7.52619e-07
2.97307e-06
-1.32376e-05
-1.57298e-06
1.8511e-06
-1.35968e-05
-2.2143e-06
-6.26708e-07
-3.31621e-06
-2.44997e-06
-6.65973e-07
4.52721e-06
1.00186e-06
-1.49661e-06
1.12334e-05
-7.36804e-07
-2.33376e-06
1.16925e-05
-1.25026e-07
-2.8122e-06
9.31127e-06
8.79303e-07
-3.43107e-06
3.48939e-06
1.66759e-06
-6.13086e-06
2.98751e-07
2.64252e-06
-9.92184e-06
-6.4677e-08
3.10303e-06
-1.25618e-05
-3.52873e-07
1.41988e-06
-1.26884e-05
-1.02274e-06
-1.06501e-06
-2.04349e-06
-2.68213e-06
-5.05789e-07
4.55e-06
4.82989e-07
-8.97255e-07
1.1619e-05
5.91642e-09
-1.501e-06
1.1621e-05
6.75229e-07
-1.92292e-06
8.19307e-06
1.54012e-06
-3.07974e-06
2.67017e-06
1.97605e-06
-6.02791e-06
4.32374e-07
2.81454e-06
-9.41914e-06
3.64848e-07
2.96171e-06
-1.14974e-05
6.22231e-07
1.10319e-06
-1.15879e-05
1.72982e-07
-1.10525e-06
-6.33715e-07
-2.56143e-06
-4.2212e-07
4.96467e-06
7.43761e-09
-2.69761e-07
1.09766e-05
4.9002e-07
-6.6968e-07
1.0837e-05
1.18396e-06
-1.20507e-06
6.902e-06
1.82648e-06
-2.91212e-06
2.41051e-06
1.96672e-06
-6.24198e-06
9.36879e-07
2.82535e-06
-9.30252e-06
9.27642e-07
2.49775e-06
-1.07624e-05
1.3145e-06
7.67609e-07
-1.08512e-05
1.11177e-06
-8.49978e-07
5.60623e-07
-1.82522e-06
-2.65202e-07
-2.77097e-07
5.50698e-06
2.27629e-07
5.15079e-07
9.96868e-06
-6.34936e-08
1.41412e-06
9.714e-06
-7.39904e-07
1.75956e-06
5.81885e-06
-2.69285e-06
1.94271e-06
2.42074e-06
-6.18685e-06
2.80651e-06
1.62437e-06
-9.03702e-06
2.15354e-06
1.62429e-06
-1.01151e-05
4.2013e-07
1.97243e-06
-1.02009e-05
-7.1129e-07
1.90884e-06
-1.28552e-06
1.45233e-06
-8.44248e-08
9.14314e-08
-5.45613e-08
-5.6574e-08
-4.73708e-08
-7.45266e-08
4.97716e-08
-1.13236e-07
-1.08249e-07
8.73824e-08
-3.55553e-08
-8.14935e-08
7.67347e-08
1.09787e-08
-5.54256e-08
4.16537e-08
3.57353e-08
-4.90164e-08
-8.78506e-10
4.46676e-08
-5.43289e-08
-4.35466e-08
4.61179e-08
-6.64995e-08
-8.06883e-08
4.12763e-08
-7.83593e-08
2.13343e-08
-9.35925e-08
-1.06646e-07
2.48612e-07
-1.53143e-07
1.60643e-08
-2.61302e-07
-4.74522e-08
1.23953e-07
-3.14295e-07
-9.08269e-08
1.09461e-07
-2.91358e-08
-1.54815e-07
5.2451e-08
8.89301e-08
-1.31265e-07
-1.53987e-09
1.09073e-07
-1.02211e-07
-4.53812e-08
1.04628e-07
-9.39028e-08
-7.97242e-08
9.63839e-08
-9.56328e-08
-1.006e-07
7.81225e-08
-9.50424e-08
2.81081e-08
-9.37034e-08
1.28128e-07
1.96376e-07
-1.15692e-07
3.69735e-07
-7.04954e-07
2.49118e-07
4.14953e-07
-6.21378e-07
2.05612e-07
3.07777e-07
-2.61993e-08
-4.59337e-08
1.72152e-07
2.31598e-07
-1.47324e-07
7.96806e-08
2.2953e-07
-1.2303e-07
1.7179e-08
1.90903e-07
-9.00975e-08
-4.00384e-08
1.8089e-07
-7.34605e-08
-9.46266e-08
1.6701e-07
-4.31457e-08
5.08592e-08
5.70095e-09
4.07513e-07
-1.3457e-07
-2.63046e-08
5.76355e-07
-1.08138e-06
5.59893e-07
4.17763e-07
-7.17426e-07
5.02837e-07
2.65377e-07
5.18953e-09
1.34524e-07
1.75686e-07
3.28392e-07
-9.23636e-08
9.46525e-08
3.53635e-07
-1.10125e-07
-1.40155e-08
3.3637e-07
-4.77096e-08
-1.44192e-07
3.60733e-07
1.95511e-08
-2.10773e-07
3.03179e-07
1.26438e-07
-1.20271e-08
2.39568e-07
5.14235e-07
-5.72075e-07
1.46259e-07
4.3122e-07
-1.18324e-06
7.84088e-07
6.54555e-08
-4.96899e-07
6.45055e-07
-4.36745e-08
9.30765e-08
2.9136e-07
-4.56632e-08
3.68862e-07
4.86869e-08
-6.94851e-08
4.10839e-07
4.39934e-08
-1.26866e-07
3.99104e-07
1.36218e-07
-1.46244e-07
3.95197e-07
2.16903e-07
-1.02501e-07
2.61204e-07
2.65813e-07
-1.20962e-07
2.94651e-07
2.62784e-07
-7.3962e-07
4.52319e-07
-5.34585e-08
-9.45529e-07
8.15678e-07
-2.7937e-07
-3.57601e-07
7.6118e-07
-3.17384e-07
1.14076e-07
5.31709e-07
-2.14452e-07
2.92967e-07
3.01391e-07
-8.37264e-08
2.94233e-07
2.47325e-07
6.61971e-08
2.85867e-07
1.84236e-07
2.14394e-07
2.66909e-07
1.1642e-07
2.31966e-07
1.73729e-07
1.05515e-07
-3.88546e-10
1.02409e-07
8.73851e-08
-6.06897e-07
4.12196e-07
-2.36661e-07
-5.36061e-07
4.6058e-07
-3.16725e-07
-2.42379e-07
7.48573e-07
-2.26178e-07
1.08903e-07
4.78986e-07
-6.03675e-08
2.9361e-07
-1.71881e-08
5.66906e-08
4.36734e-07
-3.46329e-07
1.35931e-07
4.94128e-07
-4.52158e-07
1.58173e-07
4.2668e-07
-3.83525e-07
7.83746e-08
2.88233e-07
-2.62691e-07
1.8133e-07
-2.18737e-07
1.62809e-07
-3.73617e-07
-2.57139e-07
-2.14338e-07
-6.83889e-08
-5.05596e-08
-3.94054e-07
1.61555e-07
1.36548e-07
-4.16811e-07
4.82425e-07
-3.71447e-07
-3.96606e-07
7.54768e-07
-8.32685e-07
-4.94017e-07
1.04789e-06
-8.39196e-07
-6.10684e-07
1.08797e-06
-7.06259e-07
-6.31323e-07
8.81228e-07
-7.09747e-07
-5.4684e-07
5.84186e-07
-8.37385e-07
3.92371e-07
-9.66565e-07
1.60083e-07
-2.17504e-07
-4.66635e-07
-1.65993e-07
2.66093e-07
-4.16023e-07
-2.63284e-07
5.26137e-07
-4.25873e-07
-2.79461e-07
8.05489e-07
-3.94558e-07
-4.24181e-07
9.5894e-07
1.00211e-07
-7.71951e-07
1.05186e-06
8.83046e-07
-1.0692e-06
7.56059e-07
1.33144e-06
-1.13181e-06
4.15566e-08
1.62876e-06
-1.00524e-06
-6.52881e-07
1.8338e-06
-1.013e-06
1.98356e-06
6.26243e-07
-1.85351e-06
1.26304e-06
7.13111e-07
-1.23273e-06
1.32223e-06
9.19274e-07
-9.31313e-07
1.52075e-06
1.2263e-06
-9.42269e-07
2.26988e-06
1.79046e-06
-1.80836e-06
3.54829e-06
2.95393e-06
-2.98854e-06
4.63585e-06
4.50622e-06
-2.973e-06
4.20128e-06
1.48619e-06
2.21011e-06
2.12269e-06
-9.86731e-07
6.31378e-07
1.36207e-06
-6.52183e-07
1.05971e-06
1.31236e-06
-6.05638e-06
4.68098e-06
3.26139e-06
-7.5198e-06
5.88511e-06
5.13104e-06
-7.59047e-06
6.30554e-06
6.92164e-06
-6.1588e-06
5.33585e-06
5.30193e-06
-5.60759e-07
2.36759e-06
6.70637e-07
-2.71746e-07
2.99205e-06
-3.29451e-06
-6.65808e-08
2.43022e-06
-3.15366e-06
1.0014e-06
1.6483e-06
-3.13521e-06
-9.23648e-07
2.25444e-06
-2.69382e-06
2.96576e-06
-6.84935e-07
-4.32762e-06
-5.12881e-07
-2.32832e-06
-4.86352e-06
-1.64528e-06
-3.42487e-06
-4.35794e-06
-3.16495e-06
-4.65608e-06
-1.94672e-06
-4.0138e-06
-6.26257e-06
2.14701e-06
-2.10141e-06
-7.39386e-06
1.48561e-06
-4.98135e-07
-6.78683e-06
-4.82326e-07
4.36584e-07
-6.10598e-06
-1.30172e-06
2.72581e-06
-6.73345e-06
-2.06237e-06
4.11818e-06
-2.87518e-06
3.88837e-06
-8.97933e-07
-8.97356e-07
-4.29077e-06
-2.5891e-06
-2.07507e-07
-6.22772e-06
-3.71227e-06
-3.37454e-08
-6.45072e-06
-5.15457e-06
2.13165e-06
-5.56256e-06
-5.94934e-06
4.14162e-06
-3.36429e-06
-5.87821e-06
2.10026e-06
-1.1313e-06
-6.25605e-06
-6.95331e-07
1.68777e-06
-8.31683e-06
-8.82396e-07
4.0082e-06
-1.09725e-05
-2.87899e-07
3.95793e-06
-7.51702e-07
1.06645e-06
1.95057e-08
1.40617e-06
-3.7732e-06
-9.55558e-07
2.41173e-06
-4.92742e-06
-2.48834e-06
2.81992e-06
-3.9857e-06
-4.22256e-06
4.92865e-06
-3.37216e-06
-5.13834e-06
5.47323e-06
-1.87488e-06
-5.59112e-06
2.28303e-06
5.80518e-07
-7.52563e-06
-3.57595e-07
3.63093e-06
-1.02059e-05
2.85225e-07
4.34833e-06
-1.22348e-05
1.95534e-06
1.75459e-06
9.6968e-07
-2.42186e-06
3.29515e-07
2.83064e-06
-1.84045e-06
-7.609e-07
4.36873e-06
-3.18419e-06
-2.23764e-06
4.98933e-06
-2.43985e-06
-3.79192e-06
6.95924e-06
-1.67608e-06
-4.61376e-06
6.10306e-06
-4.97008e-08
-5.61469e-06
1.92388e-06
2.81788e-06
-8.27149e-06
3.42972e-07
4.67394e-06
-1.09201e-05
1.76101e-06
3.59057e-06
-1.24312e-05
3.55129e-06
1.61684e-07
1.58327e-06
-3.39578e-06
7.34112e-07
3.42937e-06
-2.47795e-07
-5.43884e-07
6.15224e-06
-1.98279e-06
-2.28474e-06
6.95918e-06
-1.18648e-06
-3.60481e-06
8.40852e-06
-2.6235e-07
-4.02858e-06
5.99276e-06
1.45233e-06
-5.68031e-06
1.62378e-06
4.1801e-06
-8.74425e-06
1.32208e-06
5.0579e-06
-1.09139e-05
2.96876e-06
2.81301e-06
-1.13328e-05
4.0431e-06
-6.99662e-07
1.6108e-06
-3.60519e-06
7.91781e-07
3.55902e-06
8.04058e-08
-2.07887e-07
7.59475e-06
-1.17965e-06
-1.91207e-06
8.76496e-06
-2.26621e-07
-2.78945e-06
9.24287e-06
9.22331e-07
-3.42149e-06
5.38456e-06
2.90783e-06
-5.68444e-06
1.57598e-06
4.95327e-06
-8.57334e-06
2.27556e-06
5.03844e-06
-9.89847e-06
3.74347e-06
1.9703e-06
-9.36382e-06
3.83297e-06
-1.38953e-06
1.63364e-06
-3.86267e-06
4.10726e-07
3.96021e-06
-3.28911e-07
3.35721e-07
8.50832e-06
-8.32661e-07
-8.96337e-07
1.00359e-05
6.36312e-07
-1.56657e-06
9.28702e-06
2.16621e-06
-3.01379e-06
4.74688e-06
4.06095e-06
-5.80029e-06
1.81921e-06
5.35781e-06
-7.87764e-06
2.75368e-06
4.56095e-06
-8.09051e-06
3.96926e-06
1.09027e-06
-7.07328e-06
3.52128e-06
-1.81079e-06
1.68019e-06
-3.79398e-06
1.36757e-07
4.66799e-06
-8.37112e-07
1.06406e-06
8.64289e-06
-5.71839e-07
3.00915e-07
1.03865e-05
1.59661e-06
-6.52965e-07
8.70592e-06
3.36146e-06
-2.87649e-06
4.1774e-06
4.75974e-06
-5.84086e-06
2.33701e-06
5.27192e-06
-6.96189e-06
3.00608e-06
3.36638e-06
-6.26926e-06
3.83419e-06
2.10043e-07
-5.10297e-06
3.59813e-06
-2.09311e-06
2.24054e-06
-3.45195e-06
1.62736e-07
-1.30825e-06
5.5364e-06
1.35056e-06
-3.36074e-07
8.30623e-06
6.06651e-07
2.54392e-06
1.00006e-05
-8.46216e-07
4.24679e-06
7.67157e-06
-3.33535e-06
4.94339e-06
3.66586e-06
-5.63363e-06
4.58335e-06
2.85844e-06
-5.63821e-06
1.94539e-06
3.21881e-06
-4.20642e-06
-9.97585e-07
3.82012e-06
-2.91829e-06
-2.45907e-06
4.05777e-06
-3.28408e-06
3.46004e-06
-1.08983e-07
7.75699e-08
-2.31482e-08
-8.79742e-08
-1.37497e-07
4.19617e-08
3.86982e-08
-2.57771e-07
2.28501e-08
7.26755e-08
-1.11577e-07
-3.89409e-09
5.06096e-08
-1.35219e-08
-1.98377e-08
1.00105e-08
2.42526e-08
-3.26696e-08
-3.18688e-08
3.21216e-08
-4.45711e-08
-7.04365e-08
2.71386e-08
-5.50707e-08
-1.02308e-07
1.26651e-08
-5.91531e-08
-2.06908e-08
-6.44336e-08
-1.65205e-07
2.23695e-07
-1.34063e-07
-3.22953e-08
-4.11408e-07
9.3549e-08
1.57671e-07
-6.50642e-07
1.12079e-07
1.32509e-07
-2.30435e-07
-1.07938e-08
4.31522e-08
1.59116e-08
-7.13416e-08
-2.48151e-08
7.76666e-08
-8.76576e-08
-7.21332e-08
7.79437e-08
-9.24069e-08
-9.98367e-08
5.4194e-08
-9.49846e-08
-1.11656e-07
1.61653e-08
-8.67234e-08
-4.14752e-08
-7.86502e-08
-3.42041e-08
2.93458e-07
-1.51251e-07
2.8311e-07
-7.99947e-07
3.20343e-07
4.93117e-07
-1.04801e-06
3.92976e-07
4.14442e-07
-3.38095e-07
1.40401e-07
2.14703e-07
1.04886e-07
-3.65597e-08
7.1923e-08
1.84284e-07
-8.68675e-08
-4.82836e-09
1.59444e-07
-9.48465e-08
-5.50958e-08
1.29663e-07
-9.86629e-08
-9.74497e-08
1.05914e-07
-9.05412e-08
4.31613e-08
-7.45815e-08
1.92231e-07
2.25389e-07
-1.50467e-07
4.93277e-07
-9.79918e-07
4.38819e-07
5.60595e-07
-1.11567e-06
5.03176e-07
4.82848e-07
-3.2827e-07
2.02447e-07
3.10447e-07
1.94274e-07
-9.35e-09
1.43665e-07
3.26592e-07
-8.56509e-08
1.69496e-08
3.23767e-07
-8.5317e-08
-9.38503e-08
3.24884e-07
-6.48697e-08
-1.60131e-07
3.35719e-07
-3.70858e-08
2.52388e-07
-1.26366e-08
3.4113e-07
2.01786e-07
-1.71268e-07
4.68509e-07
-6.80716e-07
3.57507e-07
3.24471e-07
-7.46407e-07
4.19829e-07
2.65981e-07
-1.22069e-07
1.4365e-07
1.90814e-07
2.97162e-07
2.0965e-08
1.18894e-07
4.2554e-07
1.69654e-08
3.41708e-08
4.97051e-07
4.76579e-08
-9.4161e-08
6.29179e-07
4.09408e-08
-1.96938e-07
7.02133e-07
2.17527e-09
5.39039e-07
-2.66586e-08
3.74756e-07
3.39956e-07
-6.06071e-08
3.39318e-07
-1.69789e-07
3.4019e-07
1.1943e-07
-1.87634e-07
4.22295e-07
1.08505e-07
1.96099e-07
2.24465e-07
1.43343e-07
4.21932e-07
1.41784e-07
1.75011e-07
5.80045e-07
6.1153e-08
1.24161e-07
7.62007e-07
-2.98692e-08
1.96229e-08
9.52298e-07
-1.02161e-07
-7.41732e-08
1.04808e-06
-1.46634e-07
9.16152e-07
-2.09999e-07
4.21392e-07
3.39423e-07
-8.66294e-09
1.78821e-07
2.43356e-07
2.90006e-07
-1.24775e-08
3.63236e-07
3.89002e-07
7.04069e-08
5.4197e-07
5.02314e-08
1.04055e-07
7.20133e-07
-3.49037e-07
1.64281e-08
1.0186e-06
-6.97261e-07
-1.18813e-07
1.25406e-06
-8.08966e-07
-1.7133e-07
1.33203e-06
-7.10741e-07
-1.57503e-07
1.32907e-06
-5.57506e-07
1.23969e-06
-5.23161e-07
2.24637e-07
3.13221e-07
-4.55573e-07
-1.3091e-07
5.69928e-07
-2.15853e-08
-4.29308e-07
9.5705e-07
-1.58868e-07
-6.50827e-07
1.24611e-06
-8.54064e-07
-8.60377e-07
1.40687e-06
-1.30987e-06
-1.06345e-06
1.6262e-06
-1.24372e-06
-1.16632e-06
1.7368e-06
-1.08613e-06
-1.11074e-06
1.68746e-06
-1.12076e-06
-9.1253e-07
1.53122e-06
-1.23774e-06
1.41642e-06
-1.35571e-06
-2.11936e-07
3.95781e-07
-3.37259e-07
-4.47369e-07
6.19361e-07
-2.30023e-07
-5.13078e-07
1.06464e-06
-4.67753e-07
-5.59714e-07
1.35159e-06
-4.53406e-07
-6.15836e-07
1.37581e-06
1.87394e-07
-7.38286e-07
1.31044e-06
1.32126e-06
-8.92546e-07
1.06872e-06
2.15378e-06
-9.72401e-07
3.22988e-07
3.07309e-06
-9.75334e-07
-8.16962e-07
4.18491e-06
-1.39492e-06
4.72386e-06
5.37755e-07
-1.34612e-06
2.46718e-06
7.97072e-07
-1.4189e-06
3.10118e-06
1.06073e-06
-1.09903e-06
3.42076e-06
1.22243e-06
-2.09632e-06
5.55609e-06
2.17321e-06
-4.4894e-06
8.46272e-06
3.69943e-06
-3.10563e-06
7.52569e-06
1.52689e-06
2.70447e-06
4.73808e-06
-1.23385e-06
1.39822e-06
3.80818e-06
-3.08701e-06
-9.74975e-07
3.37323e-06
-2.54649e-06
2.6372e-06
1.7538e-06
-6.47909e-06
8.06016e-06
3.49117e-06
-6.13045e-06
8.85929e-06
4.7844e-06
-2.43808e-06
6.35136e-06
4.39958e-06
5.83378e-07
3.04099e-06
9.39931e-07
-7.97614e-07
2.13546e-06
-3.19701e-06
1.42692e-06
2.59645e-06
-3.85192e-06
3.10556e-06
2.68404e-06
-4.43443e-06
9.91805e-07
2.63723e-06
-4.39159e-06
-1.16749e-06
2.4041e-06
-2.37405e-06
2.56294e-06
-1.28371e-06
-4.11156e-06
-1.59671e-06
-2.96679e-06
-2.32142e-06
-3.77123e-06
-3.17143e-06
-3.17102e-07
-5.08129e-06
-2.59213e-06
1.14914e-06
-5.15884e-06
-3.63574e-06
2.21227e-06
-4.06768e-06
-4.64132e-06
3.29773e-06
-1.36336e-06
-4.39984e-06
2.22712e-06
1.07354e-06
-5.00662e-06
5.58954e-07
3.76545e-06
-6.24425e-06
-4.40987e-07
4.6293e-06
-7.15223e-07
3.39235e-06
-1.21977e-06
-1.26432e-06
-5.91825e-06
-2.3397e-06
-1.72069e-07
-7.25713e-06
-1.99076e-06
-8.9962e-07
-6.21714e-06
-1.5593e-06
1.89689e-07
-5.03456e-06
-2.00164e-06
2.64672e-06
-3.35639e-06
-2.56184e-06
4.02781e-06
-1.30118e-06
-2.75429e-06
2.32277e-06
1.78458e-06
-4.83199e-06
2.10805e-06
4.53681e-06
-7.68915e-06
2.28351e-06
4.09057e-06
2.21492e-06
-1.13046e-07
5.65688e-07
-5.07669e-07
-5.0955e-06
2.36964e-07
4.26679e-07
-5.19745e-06
-1.59653e-07
-3.14972e-07
-4.17372e-06
-9.93918e-07
7.08029e-07
-3.05623e-06
-1.87777e-06
2.76145e-06
-1.10575e-06
-2.09258e-06
3.85584e-06
9.67297e-07
-2.65059e-06
2.66395e-06
3.84775e-06
-4.72847e-06
3.73589e-06
4.79839e-06
-7.46993e-06
4.73907e-06
2.04049e-06
4.42294e-06
-2.67166e-06
7.7425e-07
-1.56367e-07
-2.96604e-06
6.63809e-07
7.0856e-07
-3.3556e-06
4.1805e-07
8.80715e-07
-3.38978e-06
-5.36504e-07
1.75394e-06
-1.76743e-06
-1.75135e-06
3.60987e-06
3.16732e-07
-2.01731e-06
3.66471e-06
3.27497e-06
-2.8723e-06
2.75447e-06
5.43841e-06
-4.91685e-06
4.98547e-06
4.38553e-06
-7.50694e-06
6.95381e-06
5.37054e-07
5.84632e-06
-3.21178e-06
4.83505e-07
4.88496e-07
-1.37614e-06
1.0607e-06
1.33924e-06
-3.19067e-06
9.87415e-07
2.07257e-06
-2.30505e-06
-1.58161e-07
3.25877e-06
-6.21613e-07
-1.27383e-06
4.58373e-06
1.59414e-06
-1.79751e-06
3.33832e-06
5.03017e-06
-3.24457e-06
3.08715e-06
6.17229e-06
-4.98334e-06
5.92974e-06
3.60752e-06
-6.63593e-06
8.28613e-06
-3.79388e-07
6.58016e-06
-3.5219e-06
3.66215e-07
1.46236e-06
-1.25969e-06
1.55373e-06
1.89628e-06
-2.92419e-06
1.47832e-06
3.2498e-06
-1.32842e-06
3.95152e-08
4.98897e-06
6.3093e-07
-1.08537e-06
5.16818e-06
3.44828e-06
-2.0633e-06
2.92942e-06
6.3401e-06
-3.62453e-06
3.57184e-06
6.11497e-06
-4.48275e-06
6.26535e-06
2.4929e-06
-4.93374e-06
8.43718e-06
-1.0896e-06
6.73303e-06
-4.03367e-06
4.47506e-07
2.51785e-06
-1.83191e-06
1.769e-06
2.57474e-06
-2.8326e-06
1.50797e-06
4.509e-06
-3.6186e-07
9.56845e-08
6.24832e-06
2.31914e-06
-1.33095e-06
5.17588e-06
5.47987e-06
-2.70617e-06
2.73604e-06
6.92641e-06
-3.53388e-06
3.76281e-06
5.19768e-06
-3.30935e-06
5.84371e-06
1.28738e-06
-2.85524e-06
7.93293e-06
-1.76064e-06
6.63396e-06
-4.49228e-06
4.40843e-07
3.60702e-06
-2.3671e-06
1.41584e-06
3.48784e-06
-2.45994e-06
8.4461e-07
5.67139e-06
1.00546e-06
-5.34331e-07
6.69512e-06
4.29361e-06
-1.90467e-06
4.59852e-06
6.70745e-06
-3.06406e-06
2.85794e-06
6.30942e-06
-2.8945e-06
3.52193e-06
3.43771e-06
-1.74977e-06
5.13155e-06
-2.22526e-07
-7.14882e-07
7.17752e-06
-2.37259e-06
6.64571e-06
-4.70523e-06
1.37742e-07
-2.51449e-06
4.67552e-06
3.04478e-07
-1.58395e-06
4.56899e-06
-5.18237e-07
2.60012e-06
6.43791e-06
-1.93187e-06
5.86667e-06
6.48887e-06
-2.91261e-06
6.54071e-06
3.98194e-06
-2.8685e-06
4.40888e-06
2.98831e-06
-1.46622e-06
9.06756e-07
3.15828e-06
1.0238e-07
-1.83117e-06
4.39654e-06
1.4785e-06
-3.06286e-06
6.4052e-06
-4.6606e-06
6.71507e-06
-7.08587e-08
6.84372e-08
-2.07267e-08
-6.48821e-08
-4.88466e-08
8.48318e-08
5.59386e-09
-1.11525e-07
6.3899e-08
2.80735e-08
-4.46308e-08
1.82573e-08
1.00633e-08
1.03369e-08
-1.21642e-08
-2.51e-08
3.62801e-08
-3.37862e-08
-6.1906e-08
4.17149e-08
-4.94802e-08
-9.19508e-08
3.51974e-08
-6.02233e-08
-1.16471e-07
2.13126e-08
-5.59456e-08
-1.47192e-09
-5.53291e-08
-1.43092e-07
2.02426e-07
-1.24959e-07
-1.23567e-07
-6.94303e-08
9.46077e-08
4.50997e-09
-2.35502e-07
1.07979e-07
1.81224e-08
-7.21561e-08
3.11922e-09
-2.07463e-08
4.06608e-08
-6.27965e-08
-6.80617e-08
8.55122e-08
-8.95742e-08
-1.01995e-07
8.22323e-08
-9.89913e-08
-1.13654e-07
5.1705e-08
-9.98319e-08
-1.15228e-07
1.62977e-08
-8.01346e-08
-1.85846e-08
-6.07978e-08
-1.2983e-07
3.17836e-07
-1.36831e-07
5.57791e-09
-1.25312e-07
2.40816e-07
1.98473e-07
-3.63338e-07
3.27918e-07
1.89175e-07
-6.5944e-08
1.43487e-07
8.97606e-08
1.15397e-07
-1.18817e-08
-3.51631e-09
1.70883e-07
-7.89613e-08
-7.03415e-08
1.60651e-07
-1.0644e-07
-1.08751e-07
1.16253e-07
-1.24802e-07
-1.28535e-07
8.35111e-08
-1.3797e-07
5.38653e-08
-1.5493e-07
1.55855e-09
3.56064e-07
-1.90254e-07
2.01657e-07
-1.11778e-07
2.25187e-07
3.62627e-07
-3.79852e-07
3.5872e-07
3.39538e-07
-2.57761e-08
1.85367e-07
2.12324e-07
2.16113e-07
1.71489e-08
6.69665e-08
3.08141e-07
-7.75512e-08
-5.67672e-08
3.1649e-07
-1.17423e-07
-1.51929e-07
2.83721e-07
-1.37176e-07
-1.95119e-07
2.80399e-07
-1.90784e-07
2.69352e-07
-2.89736e-07
1.8292e-07
3.84868e-07
-3.82992e-07
3.4574e-07
6.93933e-08
1.35157e-08
3.77906e-07
-1.45894e-07
1.53705e-07
3.36655e-07
1.24826e-07
3.42995e-08
2.77313e-07
3.08548e-07
-1.21276e-08
1.8692e-07
4.4849e-07
-3.29913e-08
2.89127e-08
6.00191e-07
-7.80355e-08
-1.77534e-07
6.78064e-07
-1.46955e-07
-2.93142e-07
6.79607e-07
-2.81425e-07
6.16866e-07
-4.74753e-07
2.73996e-07
4.31806e-07
-3.8154e-07
3.37592e-07
3.17179e-07
2.88074e-08
2.79697e-07
2.35104e-07
9.91926e-08
2.84225e-07
3.74145e-07
-2.93815e-08
3.11054e-07
5.28516e-07
-1.05013e-07
2.49376e-07
7.99398e-07
-2.28076e-07
9.12425e-08
1.06626e-06
-3.37803e-07
-1.18036e-07
1.20438e-06
-4.192e-07
-2.42345e-07
1.20448e-06
-5.47202e-07
1.10175e-06
-7.71939e-07
2.2702e-07
4.67259e-07
-2.71136e-07
5.47649e-08
6.13537e-07
1.65903e-07
-4.53267e-08
6.84245e-07
3.99526e-08
-3.02918e-08
7.66876e-07
-3.57535e-07
-6.97453e-08
1.01187e-06
-7.92939e-07
-2.56334e-07
1.41611e-06
-1.12739e-06
-4.23885e-07
1.68573e-06
-1.26089e-06
-4.76657e-07
1.78888e-06
-1.24247e-06
-4.00422e-07
1.78795e-06
-1.21721e-06
1.67843e-06
-1.23758e-06
-1.5376e-07
6.29353e-07
-4.63907e-07
-4.63527e-07
1.03943e-06
-1.37716e-07
-7.76931e-07
1.43729e-06
-5.98506e-07
-1.14574e-06
1.64305e-06
-1.36143e-06
-1.41629e-06
1.69909e-06
-1.72654e-06
-1.57095e-06
1.92609e-06
-1.59904e-06
-1.653e-06
2.24318e-06
-1.56152e-06
-1.65818e-06
2.55163e-06
-1.87833e-06
-1.46568e-06
2.70602e-06
-2.34831e-06
2.59617e-06
-2.61655e-06
-5.01772e-07
7.84785e-07
9.08122e-09
-6.0286e-07
9.26657e-07
-1.61573e-08
-7.53446e-07
1.57721e-06
-4.57091e-07
-9.28716e-07
1.8456e-06
-4.80686e-07
-9.37462e-07
1.50794e-06
3.8729e-07
-8.48656e-07
9.21559e-07
2.23698e-06
-7.86972e-07
-4.39045e-07
4.77432e-06
-1.03032e-06
-8.84577e-07
6.75264e-06
-1.15945e-06
6.26127e-07
6.39394e-06
1.20015e-06
6.17503e-06
6.25684e-07
-1.28791e-06
3.91419e-06
1.32962e-06
-1.89361e-06
5.21752e-06
1.42707e-06
-2.2442e-06
7.14472e-06
1.65795e-06
7.42337e-08
7.09658e-06
2.01674e-06
1.53283e-06
8.07904e-06
1.08398e-06
2.58669e-06
6.79331e-06
-8.52934e-07
1.44863e-06
4.78731e-06
-2.51412e-06
1.08649e-06
3.4983e-06
-3.1028e-06
2.28217e-06
2.30587e-06
1.7314e-06
1.79189e-06
1.10803e-06
-2.47256e-06
8.13679e-06
1.54088e-06
8.14852e-07
5.71797e-06
1.51388e-06
9.86003e-07
3.14816e-06
5.75803e-07
3.37645e-06
6.76853e-07
-9.85302e-07
4.39812e-06
8.31279e-07
-3.42399e-06
5.15351e-06
2.46832e-06
-5.34046e-06
3.44791e-06
2.60122e-06
-5.84277e-06
1.60251e-06
2.62352e-06
-5.19291e-06
1.16123e-06
2.87518e-06
1.29958e-07
3.34603e-06
-1.98195e-06
-1.40874e-07
-1.94645e-06
-2.95117e-06
2.09806e-06
-4.08523e-06
-2.24144e-06
1.10681e-06
-5.91182e-06
-8.34674e-07
1.78975e-06
-4.97889e-06
-7.58687e-07
3.5772e-06
-3.32273e-06
-1.80837e-06
5.35848e-06
-5.18639e-07
-3.39151e-06
4.12773e-06
1.97686e-06
-4.84186e-06
2.32422e-06
4.49411e-06
-5.51832e-06
1.35436e-06
5.11263e-06
1.17562e-06
3.03937e-06
-1.42453e-06
4.3503e-07
-5.06963e-06
-1.21884e-06
6.55604e-07
-6.02036e-06
-5.43079e-08
-8.89471e-07
-5.38537e-06
5.21179e-07
5.2442e-07
-4.34471e-06
3.47732e-07
2.90236e-06
-2.50809e-06
-1.86695e-08
4.69077e-06
-2.67066e-07
-6.0054e-07
4.42975e-06
2.06443e-06
-2.67267e-06
4.18144e-06
4.75171e-06
-5.31034e-06
3.90079e-06
4.18181e-06
3.42122e-06
-1.7339e-07
3.08168e-07
-2.00656e-07
-4.76798e-06
8.05874e-07
-1.19907e-06
-3.84048e-06
1.12177e-06
-1.3357e-06
-4.04339e-06
7.901e-07
9.48921e-07
-3.14905e-06
8.12925e-09
3.38091e-06
-8.02329e-07
-8.60969e-08
4.49928e-06
1.25302e-06
1.91908e-07
4.72597e-06
3.27353e-06
-1.74148e-06
6.05241e-06
4.86081e-06
-5.55723e-06
6.76131e-06
2.99572e-06
5.29122e-06
-1.43081e-06
3.26872e-07
-7.83938e-07
-2.70963e-06
7.44037e-07
-1.72749e-06
-3.24435e-06
5.65851e-07
-3.5978e-07
-4.18751e-06
-3.84164e-07
2.29264e-06
-2.16113e-06
-1.17634e-06
4.364e-06
1.25822e-07
-4.82504e-07
4.61671e-06
2.46371e-06
2.7787e-07
4.68957e-06
4.71444e-06
-1.49735e-06
7.33387e-06
4.8793e-06
-5.15261e-06
8.7778e-06
2.17582e-06
6.31323e-06
-1.98167e-06
-2.87369e-08
-4.61353e-07
-1.67e-06
2.67994e-07
-1.04339e-06
-4.1715e-06
-4.54028e-07
1.14605e-06
-3.08885e-06
-1.49922e-06
3.76728e-06
-1.05106e-06
-1.44413e-06
4.94905e-06
9.53999e-07
-2.11892e-07
4.49274e-06
3.92189e-06
1.41361e-07
4.55889e-06
5.94973e-06
-1.26228e-06
7.95743e-06
4.3876e-06
-3.65334e-06
9.62995e-06
1.15952e-06
6.62258e-06
-3.03143e-06
-2.07425e-07
4.29255e-07
-1.94286e-06
-2.1113e-07
2.55222e-08
-3.98939e-06
-8.49876e-07
2.32988e-06
-1.87351e-06
-1.67888e-06
4.55874e-06
6.68488e-07
-1.14081e-06
4.90315e-06
2.95611e-06
-1.74295e-07
3.97198e-06
5.89436e-06
-2.26351e-07
4.48894e-06
6.23698e-06
-8.76679e-07
7.90369e-06
3.19697e-06
-1.76088e-06
9.64069e-06
-2.16137e-07
6.59322e-06
-4.53731e-06
-5.10164e-07
1.48931e-06
-2.38179e-06
-7.48078e-07
8.86791e-07
-3.45596e-06
-1.0635e-06
2.73997e-06
-4.56524e-07
-1.56929e-06
4.56521e-06
2.81846e-06
-1.31844e-06
4.49722e-06
5.63495e-06
-7.59267e-07
3.42691e-06
6.91232e-06
-5.37609e-07
4.48069e-06
4.98428e-06
-2.47224e-07
7.47919e-06
1.4215e-06
1.4403e-07
9.22005e-06
-1.73124e-06
6.72958e-06
-6.09617e-06
-9.94514e-07
2.54721e-06
-2.43049e-06
-1.56773e-06
1.60387e-06
-2.60378e-06
-1.91176e-06
3.02933e-06
1.06014e-06
-2.27114e-06
4.35134e-06
4.86687e-06
-2.02942e-06
3.93138e-06
7.03158e-06
-1.31736e-06
3.21977e-06
5.8045e-06
-2.94171e-07
4.35924e-06
2.53597e-06
7.53472e-07
6.82589e-06
-6.16871e-07
2.37338e-06
8.52723e-06
-3.29968e-06
7.21489e-06
-6.66884e-06
-1.58204e-06
-1.98832e-06
3.60308e-06
-2.72835e-06
-1.42069e-06
2.58694e-06
-3.31088e-06
2.37815e-06
3.83382e-06
-3.36325e-06
5.65498e-06
4.6154e-06
-2.54667e-06
5.63946e-06
4.01605e-06
-1.02441e-06
2.42524e-06
3.68115e-06
7.5399e-07
-9.90044e-07
4.47764e-06
2.38483e-06
-2.99445e-06
6.35834e-06
4.35948e-06
-4.40911e-06
7.89884e-06
-6.2356e-06
7.59803e-06
-5.13275e-08
6.45086e-08
-3.39079e-08
-4.58236e-08
-2.70095e-09
8.20289e-08
-8.90079e-09
-2.3261e-08
5.02373e-08
-2.19944e-09
1.87526e-09
9.68072e-09
-2.07101e-08
2.75498e-08
-2.1203e-08
-5.25908e-08
4.25204e-08
-4.44259e-08
-8.44606e-08
4.57925e-08
-6.34028e-08
-1.07127e-07
4.09004e-08
-7.84574e-08
-1.2882e-07
4.21885e-08
-7.64401e-08