/*--------------------------------*- C++ -*----------------------------------*\
| =========                 |                                                 |
| \\      /  F ield         | OpenFOAM: The Open Source CFD Toolbox           |
|  \\    /   O peration     | Version:  2312                                  |
|   \\  /    A nd           | Website:  www.openfoam.com                      |
|    \\/     M anipulation  |                                                 |
\*---------------------------------------------------------------------------*/
FoamFile
{
    version     2.0;
    format      ascii;
    arch        "LSB;label=32;scalar=64";
    class       volScalarField;
    location    "0.6";
    object      p_rgh;
}
// * * * * * * * * * * * * * * * * * * * * * * * * * * * * * * * * * * * * * //

dimensions      [1 -1 -2 0 0 0 0];

internalField   nonuniform List<scalar> 
8000
(
402.685
402.233
401.101
399.453
397.51
395.532
393.747
392.324
391.276
390.483
402.872
402.328
401.021
399.141
396.919
394.633
392.56
390.926
389.763
388.768
403.318
402.59
400.915
398.514
395.664
392.697
389.973
387.876
386.53
385.183
404.146
403.077
400.758
397.494
393.619
389.424
385.466
382.551
381.068
379.504
405.61
403.985
400.642
396.047
390.535
384.418
378.417
373.94
372.063
370.858
408.072
405.402
400.377
393.824
386.736
378.129
368.326
359.307
354.844
356.551
412.673
408.25
401.422
394.03
383.929
365.642
329.421
275.093
228.936
279.555
403.939
386.742
348.859
304.148
253.255
156.468
77.175
26.0003
3.05595
27.8094
297.196
191.441
92.9681
34.2758
2.27172
0.901711
0.786583
0.776014
0.791685
0.795229
42.5135
9.91116
3.23138
0.878724
0.775001
0.669666
0.635369
0.67515
0.721293
0.735848
1.05006
0.770563
0.50473
0.443225
0.424406
0.448507
0.516702
0.593448
0.637905
0.674601
0.365366
0.385413
0.354095
0.277705
0.265598
0.357025
0.439238
0.502804
0.606093
0.657269
0.141659
0.143734
0.184349
0.228655
0.257661
0.324701
0.376988
0.482108
0.602515
0.580252
0.14815
0.144241
0.160166
0.207614
0.256829
0.293109
0.320461
0.514824
0.535436
0.448284
0.189101
0.188523
0.200062
0.220638
0.240916
0.258124
0.298233
0.494674
0.480849
0.327474
0.216524
0.212831
0.206975
0.212969
0.222114
0.230971
0.452885
0.469784
0.324881
0.269059
0.219241
0.222152
0.22627
0.206477
0.207238
0.212367
0.391693
0.385276
0.237958
0.238602
0.206081
0.205394
0.202951
0.200182
0.197428
0.199828
0.212138
0.212064
0.215919
0.218457
0.174483
0.176205
0.178292
0.183591
0.186047
0.187012
0.186573
0.190497
0.20022
0.251099
0.166016
0.167687
0.168822
0.17014
0.170955
0.170615
0.170177
0.174321
0.186506
0.414725
403.2
402.769
401.664
400.06
398.184
396.284
394.589
393.247
392.222
391.315
403.385
402.873
401.616
399.804
397.679
395.522
393.61
392.138
391.036
389.791
403.861
403.188
401.599
399.31
396.624
393.885
391.482
389.732
388.465
386.532
404.735
403.755
401.566
398.474
394.835
391.007
387.561
385.142
383.589
380.992
406.365
404.859
401.678
397.29
392.016
386.298
380.845
376.897
374.584
371.781
408.96
406.526
401.753
395.238
388.295
379.672
369.219
358.064
347.664
354.882
413.695
409.681
402.925
395.436
384.982
360.997
300.198
203.102
138.194
237.667
411.396
399.289
374.129
326.96
246.038
132.618
47.9723
4.53572
1.05338
5.63978
311.183
203.754
97.0596
35.2643
4.23978
0.62169
0.678585
0.754341
0.738748
0.790347
38.5738
8.3946
4.66313
0.434384
0.457191
0.486814
0.533528
0.644923
0.711894
0.722884
0.455908
0.397776
0.343718
0.286026
0.250309
0.27711
0.401095
0.54595
0.606028
0.650146
0.180649
0.78839
0.731416
0.235867
0.127619
0.193946
0.345411
0.45918
0.506397
0.593193
0.0519933
0.140691
0.272994
0.185333
0.13037
0.228242
0.328647
0.385578
0.464367
0.635296
0.0769988
0.0782449
0.0907197
0.143478
0.194686
0.256239
0.299115
0.326322
0.380474
0.572024
0.155509
0.153492
0.167099
0.193047
0.224741
0.24723
0.265043
0.286758
0.313863
0.408384
0.207182
0.190199
0.196196
0.20446
0.214215
0.22208
0.235136
0.256533
0.271117
0.276156
0.204248
0.200339
0.203021
0.199594
0.199414
0.203007
0.219894
0.229973
0.245828
0.23139
0.182309
0.19057
0.194179
0.192927
0.192286
0.195161
0.205159
0.210444
0.23081
0.210826
0.173975
0.177132
0.179679
0.182295
0.18407
0.186231
0.189011
0.195769
0.229278
0.209069
0.169138
0.170739
0.171117
0.171302
0.171451
0.172377
0.173717
0.17912
0.216368
0.24898
404.135
403.746
402.668
401.108
399.285
397.432
395.761
394.406
393.358
392.476
404.352
403.876
402.678
400.932
398.886
396.799
394.92
393.413
392.252
391.071
404.926
404.319
402.803
400.616
398.053
395.434
393.09
391.267
389.861
388.011
405.934
405.064
403
400.062
396.625
393.067
389.835
387.309
385.273
382.676
407.693
406.367
403.408
399.294
394.39
389.212
384.205
380.04
376.93
374.056
410.482
408.35
403.921
397.868
391.171
383.57
374.546
365.04
358.275
359.609
415.462
411.986
405.599
397.943
388.724
372.61
331.92
258.406
205.382
279.065
419.695
407.839
386.455
346.554
275.583
179.96
90.5319
31.2079
5.64086
28.9882
304.817
221.715
122.9
58.4064
14.5577
0.490789
0.639274
0.742886
0.742124
0.777427
32.0611
24.6961
15.4662
3.72262
0.295186
0.404286
0.493408
0.607596
0.631006
0.677693
0.41834
0.394887
0.301476
0.244441
0.220907
0.255684
0.377975
0.490001
0.525411
0.612535
0.492525
0.255289
0.149445
0.133104
0.149162
0.215527
0.321609
0.408229
0.450331
0.536023
0.201952
0.134363
0.130358
0.185287
0.185538
0.232972
0.302513
0.356242
0.391185
0.483534
0.130964
0.133672
0.134009
0.160527
0.196723
0.236708
0.277336
0.314024
0.348332
0.566729
0.161704
0.165258
0.172907
0.187163
0.207499
0.228601
0.255508
0.277692
0.343337
0.5129
0.17885
0.182129
0.186057
0.193446
0.203881
0.2106
0.226706
0.270325
0.377744
0.471773
0.178834
0.182501
0.184536
0.187405
0.194347
0.195451
0.204125
0.268839
0.342926
0.251005
0.175225
0.178233
0.180629
0.182054
0.18815
0.187895
0.194154
0.259138
0.250006
0.198129
0.173577
0.175545
0.176402
0.176991
0.178907
0.180191
0.183829
0.246216
0.188168
0.18106
0.174002
0.174379
0.172429
0.170679
0.169702
0.170118
0.171458
0.195689
0.163663
0.166391
405.429
405.073
404.048
402.538
400.768
398.961
397.307
395.934
394.873
394.073
405.677
405.274
404.127
402.453
400.49
398.479
396.634
395.097
393.898
392.884
406.334
405.852
404.437
402.366
399.937
397.448
395.169
393.279
391.787
390.293
407.46
406.795
404.885
402.125
398.924
395.653
392.627
390.047
387.874
385.785
409.28
408.283
405.604
401.831
397.385
392.831
388.423
384.385
381.074
378.762
412.141
410.506
406.561
401.014
394.737
388.537
381.723
374.663
369.464
368.794
417.037
414.056
408.277
401.119
393.561
383.311
365.795
332.535
301.524
329.643
424.149
417.431
400.486
366.845
304.974
230.809
155.829
91.6846
50.0726
78.9863
291.43
207.775
136.17
74.3523
26.0885
0.303337
0.497775
0.675582
0.725197
0.798579
33.7284
40.6615
24.5438
6.62544
0.255465
0.365908
0.449441
0.55845
0.59593
0.680412
0.885177
0.423265
0.280546
0.210511
0.212557
0.239669
0.326412
0.428139
0.451882
0.575123
0.210331
0.198999
0.178674
0.148123
0.14589
0.184784
0.261166
0.314959
0.323635
0.477829
0.209093
0.200661
0.164011
0.168699
0.179399
0.206414
0.261744
0.294738
0.29484
0.403729
0.160148
0.166038
0.159963
0.16269
0.176832
0.199637
0.248309
0.309618
0.27745
0.332059
0.168944
0.172679
0.174598
0.176424
0.181677
0.19454
0.242514
0.298152
0.24293
0.295455
0.174586
0.176363
0.176752
0.1779
0.182046
0.18697
0.220854
0.287425
0.288967
0.314476
0.172613
0.174057
0.174582
0.174301
0.178401
0.179738
0.204856
0.270832
0.278258
0.266761
0.168677
0.170835
0.171346
0.171686
0.174191
0.176175
0.186371
0.209743
0.199181
0.19417
0.172854
0.173412
0.171552
0.17061
0.170598
0.173108
0.187194
0.178558
0.177726
0.17839
0.184835
0.181994
0.175232
0.170225
0.167495
0.170468
0.187628
0.168213
0.163902
0.164742
407.021
406.709
405.725
404.269
402.555
400.803
399.19
397.834
396.795
396.086
407.318
406.994
405.898
404.286
402.409
400.49
398.715
397.209
396.038
395.188
408.075
407.744
406.426
404.472
402.19
399.855
397.697
395.862
394.416
393.249
409.338
408.923
407.173
404.608
401.65
398.67
395.918
393.522
391.547
389.96
411.195
410.627
408.242
404.794
400.88
396.855
393.089
389.633
386.75
384.89
414.128
413.211
409.735
404.782
399.19
393.623
388.64
383.814
379.976
378.525
419.04
417.505
412.081
405.284
398.273
391.539
383.271
372.467
360.769
364.826
426.937
420.606
414.539
389.326
338.845
280.683
225.36
175.12
129.062
148.955
277.277
279.46
177.792
103.217
49.6237
14.8388
0.32962
0.579444
0.772856
0.914287
79.7619
52.2545
28.0698
9.63995
0.137875
0.230037
0.42814
0.589589
0.678446
0.785672
0.530898
0.342422
0.154168
0.0984036
0.128039
0.203484
0.32792
0.418451
0.471766
0.608763
0.217608
0.212652
0.237902
0.170861
0.142276
0.180631
0.226462
0.23982
0.230875
0.413796
0.184272
0.177997
0.175486
0.159162
0.153546
0.169722
0.203539
0.194241
0.125315
0.309354
0.173828
0.176916
0.165985
0.152903
0.151635
0.155528
0.193938
0.22457
0.161492
0.269337
0.17385
0.178058
0.169925
0.156833
0.152909
0.156236
0.181148
0.202105
0.187746
0.22932
0.172142
0.172749
0.165939
0.156809
0.153028
0.156838
0.175031
0.18221
0.182862
0.198367
0.163456
0.16049
0.160283
0.154443
0.154528
0.158209
0.169421
0.169226
0.179061
0.186096
0.151414
0.149886
0.15637
0.155471
0.156814
0.159696
0.163633
0.168125
0.182527
0.184897
0.165739
0.165722
0.162517
0.160993
0.159788
0.160457
0.162405
0.166645
0.174019
0.178685
0.20645
0.194735
0.178704
0.169142
0.162978
0.160093
0.159819
0.162139
0.163219
0.165479
408.835
408.561
407.591
406.172
404.52
402.831
401.274
399.963
398.97
398.341
409.251
408.982
407.898
406.324
404.517
402.694
401.013
399.58
398.478
397.756
410.127
409.938
408.672
406.807
404.67
402.501
400.493
398.78
397.445
396.506
411.524
411.449
409.777
407.381
404.683
401.987
399.515
397.387
395.671
394.448
413.103
413.364
411.179
408.125
404.689
401.29
398.015
395.132
392.766
391.239
395.413
416.06
413.161
408.955
404.218
399.424
394.922
391.539
388.688
387.003
412.851
421.331
416.169
410.279
404.254
398.488
393.848
389.071
385.346
384.227
431.231
414.913
418.597
410.201
377.345
337.767
301.107
268.669
236.331
236.7
323.545
373.67
223.324
142.86
89.1876
50.2804
22.6433
9.91691
1.00311
1.11423
174.251
59.5555
21.0882
11.3381
4.04369
-0.226688
0.0672155
0.453383
0.734074
0.977576
0.0708842
0.0447801
0.0789548
0.00628952
-0.0773606
0.0590484
0.32576
0.45443
0.522156
0.702858
0.178423
0.157172
0.25742
0.136069
0.069992
0.176984
0.265126
0.238904
0.209249
0.398014
0.179917
0.156897
0.159996
0.110589
0.0845715
0.104564
0.144031
0.110683
0.0222621
0.232087
0.179418
0.168904
0.175093
0.149058
0.120001
0.108079
0.11362
0.0934543
0.00318053
0.192041
0.198278
0.186744
0.17565
0.166179
0.140817
0.116629
0.116985
0.105942
0.088943
0.173205
0.288672
0.211246
0.163116
0.156315
0.147403
0.124123
0.126578
0.127921
0.137195
0.167097
0.803736
0.232967
0.144895
0.133823
0.137553
0.133301
0.136509
0.141933
0.153597
0.162915
1.06432
0.215783
0.131708
0.133223
0.139395
0.140736
0.145268
0.155836
0.164841
0.167756
0.497807
0.197335
0.146534
0.147517
0.14583
0.147148
0.151633
0.16138
0.167991
0.167652
0.218228
0.236939
0.183868
0.167113
0.156052
0.152942
0.154183
0.15707
0.159774
0.159395
410.747
410.49
409.483
408.067
406.466
404.849
403.359
402.103
401.164
400.604
411.383
411.114
409.964
408.378
406.622
404.887
403.304
401.959
400.934
400.31
412.505
412.328
411.006
409.151
407.142
405.15
403.294
401.708
400.487
399.713
414.231
414.323
412.582
410.24
407.731
405.351
403.135
401.232
399.699
398.705
415.706
416.436
414.358
411.68
408.651
405.714
403.013
400.59
398.587
397.209
407.498
419.239
416.877
413.473
409.596
405.698
402.002
398.838
396.159
394.27
356.076
425.484
421.08
415.995
411.015
406.227
402.076
398.747
396.038
395.083
372.24
417.117
411.992
416.662
410.788
390.237
366.849
345.226
322.607
297.945
402.373
385.95
247.574
185.606
149.438
110.23
80.9551
60.0029
33.9275
28.0741
316.102
48.0406
6.96047
6.11849
6.82983
6.06641
3.22808
0.134891
0.393074
1.04536
0.422885
-0.0896895
0.404975
0.193874
-0.0631687
-0.187978
0.172631
0.515206
0.597967
0.76125
0.177657
0.136451
0.223274
0.0276771
-0.120007
0.00313667
0.219961
0.228298
0.180995
0.437241
0.228117
0.207353
0.184034
0.0266102
-0.0564574
0.00305359
0.0704312
0.035256
-0.0566137
0.170411
0.223634
0.256938
0.224483
0.103625
0.0582331
0.0436295
0.043375
-0.0018544
-0.142451
0.0538029
0.257957
0.546577
0.275994
0.156981
0.104999
0.0727285
0.0596289
0.0211371
-0.0540727
0.0847294
1.85311
2.21089
0.394159
0.162271
0.138355
0.0971436
0.0869422
0.0708688
0.0650868
0.12728
2.73218
2.81408
0.703876
0.11763
0.144975
0.112075
0.11316
0.117828
0.124589
0.157074
2.76628
2.87978
0.656356
0.0946121
0.124823
0.121132
0.133235
0.147255
0.147392
0.162357
0.957075
0.655719
0.25254
0.116099
0.125132
0.130461
0.141643
0.156873
0.155795
0.15301
0.211348
0.198278
0.168708
0.15398
0.143246
0.141901
0.145273
0.151545
0.156737
0.153495
412.643
412.327
411.228
409.773
408.19
406.63
405.211
404.011
403.119
402.606
413.608
413.227
411.889
410.24
408.51
406.837
405.333
404.075
403.116
402.563
415.175
414.79
413.231
411.312
409.411
407.522
405.791
404.312
403.183
402.522
417.666
417.367
415.308
412.815
410.549
408.429
406.402
404.664
403.252
402.436
419.878
419.066
417.488
414.859
412.304
409.819
407.444
405.29
403.457
402.34
421.509
409.216
420.842
418.235
414.856
411.595
408.564
405.847
403.439
401.877
415.21
418.808
428.655
423.17
418.287
414.123
410.473
407.664
404.618
402.985
404.888
424.43
416.016
421.102
420.545
413.557
398.92
387.429
371.252
348.419
336.947
275.477
332.92
245.124
240.607
208.294
187.061
171.919
129.504
103.108
81.6415
17.8719
7.77786
6.57989
5.0337
6.19299
5.03688
4.50695
4.57852
7.51157
1.77412
2.40621
2.70484
3.31654
1.03011
-0.223095
-0.222208
-0.0926139
0.20973
0.764738
0.242719
0.80557
0.632706
0.782376
0.255445
-0.276354
-0.106872
-0.0258984
0.0396143
0.40049
0.314169
0.365151
0.246492
0.0620693
-0.128933
-0.145184
-0.0745672
-0.0964735
-0.159985
0.0251016
0.176726
2.01173
0.656811
0.125553
0.00897468
-0.042495
-0.04888
-0.101949
-0.243954
-0.0826216
0.188561
2.62213
2.30683
0.188833
0.0672678
0.0237942
-0.00455643
-0.0644635
-0.195399
-0.0146996
0.230666
2.74656
2.5883
0.191678
0.0941586
0.0618648
0.0393723
0.00338745
-0.0185389
0.0813215
0.625098
2.8734
0.436885
0.0716893
0.107731
0.0855631
0.0785159
0.0773705
0.10208
0.141305
4.53837
1.81739
0.0696932
0.0762363
0.110067
0.0983982
0.104431
0.124124
0.14253
0.145494
6.166
0.411771
0.0832567
0.0927955
0.107547
0.109236
0.119721
0.132733
0.140804
0.140836
0.805415
0.292431
0.140658
0.128206
0.121086
0.123742
0.131506
0.140468
0.149482
0.14813
414.246
413.736
412.4
410.877
409.368
407.915
406.582
405.445
404.594
404.107
415.6
414.917
413.122
411.293
409.706
408.21
406.839
405.669
404.765
404.261
417.732
416.868
414.396
411.928
410.465
409.149
407.612
406.265
405.21
404.634
421.104
419.849
416.706
413.643
411.23
410.328
408.81
407.274
405.962
405.27
424.263
422.154
418.774
416.745
414.355
412.822
410.913
408.958
407.286
406.314
427.543
423.517
389.86
421.707
418.583
416.162
413.659
411.306
409.122
407.816
427.616
389.562
405.657
430.312
424.804
420.889
417.482
415.213
412.51
410.782
383.485
423.274
443.884
435.405
428.679
418.559
406.185
405.979
397.125
378.541
152.902
125.383
275.362
333.43
328.129
298.009
263.164
256.129
259.937
242.948
26.1014
31.3628
21.5948
14.0299
8.25022
7.27988
7.38975
9.16801
15.8562
44.6754
9.26303
14.9332
13.4698
11.1856
3.01687
0.706057
0.141013
-0.192917
-0.0862136
1.15158
2.39667
15.6684
15.8602
15.3169
1.43908
-0.0626443
-0.242364
-0.293333
-0.191674
0.33408
0.142182
13.6571
15.5782
3.45628
-0.0123228
-0.132372
-0.195101
-0.249089
-0.294629
-0.0521098
0.138024
1.47878
1.68721
-0.000118104
-0.0309404
-0.0777234
-0.132062
-0.210903
-0.350547
-0.16528
0.225172
0.161777
0.0861424
0.0606285
0.0270665
-0.00793993
-0.0686516
-0.144724
-0.299307
-0.0890393
0.433957
0.261952
0.0840097
0.0892603
0.0697636
0.0477679
0.00123549
-0.0207861
-0.0939199
0.0224696
5.70528
2.75635
0.0733008
0.094695
0.0843122
0.0802231
0.0564254
0.100582
0.0686474
0.0884251
9.22465
5.09699
0.0640545
0.0824619
0.0788758
0.0887439
0.0862976
0.120288
0.124531
0.112314
9.84246
4.03804
0.07059
0.0911943
0.0717311
0.0906458
0.0993925
0.116991
0.129375
0.130334
10.3624
2.19339
0.103718
0.119139
0.0813504
0.0989485
0.111942
0.126467
0.140848
0.143669
414.965
414.545
412.893
411.454
410.004
408.619
407.339
406.238
405.408
404.935
415.907
415.705
413.292
411.769
410.486
409.012
407.674
406.553
405.678
405.199
416.261
417.813
414.335
412.018
410.993
410.066
408.612
407.355
406.336
405.803
419.966
421.6
417.726
412.501
405.451
410.473
410.197
408.781
407.486
406.862
426.906
424.543
420.763
388.089
388.256
414.558
413.157
411.149
409.493
408.585
432.306
431.136
371.712
362.94
409.891
419.459
417.135
414.609
412.431
411.266
442.451
403.986
386.613
406.977
430.003
425.899
422.732
419.939
417.179
415.948
329.144
315.45
456.027
446.401
435.677
432.075
423.665
417.189
412.007
387.701
72.5299
73.8724
248.898
300.288
302.668
288.141
273.233
256.988
278.25
328.884
43.9145
46.6984
36.8943
25.4484
18.7274
15.102
13.9522
10.2721
16.8181
93.0181
26.2335
30.1382
22.66
14.5419
6.36152
5.17464
4.49285
1.46407
0.211562
1.94233
13.1971
20.3988
19.8249
13.2061
2.33383
2.12089
3.74268
0.292777
-0.305964
0.23582
2.21028
8.16031
17.437
7.7324
0.619546
0.611526
4.06898
0.669939
-0.440746
-0.146074
0.148195
0.167877
5.40498
0.98198
0.166238
0.117554
1.8356
1.55463
-0.461565
-0.222147
0.181887
0.108959
0.075461
0.141474
0.127357
0.0450818
0.49832
2.24852
-0.344727
-0.143126
0.544359
0.129942
0.105429
0.129904
0.149199
0.0661202
0.209175
2.38673
-0.102024
-0.0136033
0.777745
0.22413
0.122805
0.136369
0.146142
0.0888318
0.198659
0.897629
0.0456518
0.0728657
0.604644
0.286137
0.225795
0.139771
0.102195
0.0884472
0.19577
0.274638
0.0954539
0.103207
1.08472
1.4981
0.784532
0.122736
0.062441
0.0793805
0.168307
0.191879
0.106928
0.124269
7.86662
9.03652
1.0659
0.13487
0.0670945
0.0831264
0.14716
0.185162
0.12987
0.141516
415.025
414.646
412.96
411.389
409.977
408.645
407.401
406.302
405.468
404.991
415.679
416.024
413.485
411.644
410.205
408.965
407.729
406.629
405.746
405.262
416.493
418.074
414.419
411.732
410.63
410.012
408.703
407.469
406.427
405.881
420.473
420.988
417.18
411.156
405.365
409.525
410.526
408.978
407.622
406.972
426.305
424.614
418.525
370.235
370.734
411.7
413.762
411.549
409.728
408.762
420.295
422.22
365.752
362.776
393.505
420.715
418.489
415.425
412.865
411.58
415.099
429.175
397.951
399.178
433.477
429.126
425.779
421.743
418.01
416.486
354.5
360.533
449.169
449.067
440.282
436.968
434.534
419.534
409.744
383.588
112.35
83.464
202.923
306.325
267.382
214.508
238.904
246.77
279.659
337.39
46.2231
43.5709
40.1106
35.4952
29.3735
28.8221
24.7495
14.0574
16.8648
104.197
26.0853
24.0039
20.8326
21.0937
14.4293
13.3633
12.682
3.75769
0.889118
2.2777
17.3573
17.6308
17.6689
17.5116
16.0605
15.2865
14.1113
3.2529
-0.186336
0.325542
16.1882
14.6853
15.2639
12.6327
6.90754
11.3754
14.5076
8.75042
-0.403086
-0.0479347
4.75561
0.728986
1.3253
1.9755
-0.0249975
0.676648
13.5896
13.059
-0.443785
-0.194944
0.0473547
0.0272244
-0.0115245
-0.0291404
0.0128999
0.0171376
2.18175
7.11129
-0.284571
-0.145369
0.0991897
0.077609
0.0568395
0.0609994
0.075727
0.069814
0.0101464
-0.0239608
0.0163769
0.00175391
0.151784
0.155188
0.121235
0.132637
0.970624
0.393828
0.0673868
0.0387663
0.435705
0.0773089
0.0999194
0.332805
0.174396
0.249507
1.46801
0.553584
0.0990251
0.0752915
0.46991
0.101015
0.0874983
0.660512
0.34507
0.374458
0.424281
0.327239
0.115799
0.0997991
0.126327
0.124199
0.144336
1.48907
0.926505
0.318837
0.0889918
0.11531
0.122538
0.115275
0.13379
0.142758
414.318
413.909
412.586
411.082
409.561
408.093
406.769
405.626
404.762
404.266
415.668
415.079
413.33
411.528
409.925
408.397
407.041
405.876
404.949
404.431
417.641
416.768
414.415
412.103
410.728
409.399
407.916
406.576
405.439
404.834
419.978
418.519
415.008
413.31
411.359
410.374
409.159
407.572
406.245
405.521
423.424
420.927
393.21
405.418
415.254
413.608
411.788
409.657
407.75
406.673
429.473
406.487
405.914
419.498
420.148
418.043
415.633
412.753
409.906
408.368
423.933
437.794
435.574
430.679
426.528
425.181
422.086
418.206
413.729
411.432
422.205
413.775
441.629
435.14
431.418
431.19
417.924
411.508
399.97
381.071
333.685
125.998
259.503
258.114
242.49
275.669
293.442
290.21
264.062
244.165
53.1196
21.5708
22.735
21.8617
21.2372
24.1794
21.6269
15.9171
16.8567
46.4128
5.68263
7.93339
8.79994
9.09354
9.558
12.7888
10.3995
2.24676
0.131907
0.987594
1.2333
2.09648
2.36944
3.80283
2.85362
13.443
13.4523
0.759483
-0.424613
0.049266
-0.122331
-0.117571
-0.0955998
0.201465
0.1529
13.8389
13.9772
3.96017
-0.543086
-0.219756
-0.0142192
-0.0258008
-0.058387
-0.077328
-0.101364
7.4556
14.9779
7.81692
-0.483866
-0.23961
0.204587
0.142571
0.00111862
-0.0173473
-0.0320086
0.376706
9.38851
7.31002
-0.285287
-0.148482
0.507207
0.203051
0.0807521
0.07666
0.0667947
0.0254478
-0.0244022
0.788648
-0.0647072
-0.021335
0.556615
0.375015
0.167219
0.177322
1.17261
0.236675
0.0501004
0.00828897
0.0995863
0.0531359
0.450134
1.8485
0.263994
0.286776
2.10729
1.04887
0.100508
0.064973
0.0999524
0.0909517
0.240507
2.18165
1.03329
1.1126
2.18148
1.51431
0.127127
0.102789
0.10737
0.123979
0.158941
2.27698
2.64347
3.06702
2.11188
1.0508
0.164739
0.118785
0.129676
0.141087
412.548
412.381
411.361
409.961
408.423
406.895
405.497
404.278
403.371
402.846
413.356
413.161
411.953
410.412
408.738
407.109
405.627
404.365
403.382
402.813
414.453
414.441
413.225
411.506
409.727
407.927
406.194
404.67
403.486
402.796
415.801
415.436
414.556
412.707
410.817
408.92
406.921
405.109
403.606
402.747
417.774
397.522
412.095
415.469
413.24
410.947
408.493
406.064
403.941
402.716
373.621
412.766
422.638
419.601
416.793
413.865
410.575
407.205
404.104
402.384
381.827
431.958
428.716
424.759
421.434
418.461
414.344
409.921
405.132
403.241
443.94
434.464
429.285
421.304
423.022
420.596
411.022
393.27
370.108
351.048
407.813
321.533
293.449
320.216
298.211
271.665
231.544
186.468
108.034
96.6721
104.537
36.4523
18.9958
18.1979
9.06005
11.0867
8.63661
5.51246
4.47212
5.74528
-0.0056358
0.998781
0.880805
0.974716
1.27394
1.88776
1.39347
0.0661214
-0.188023
0.363263
0.0017583
0.0634638
-0.0377487
-0.0622648
-0.0244229
0.0581594
0.292434
-0.369895
-0.421671
-0.0679716
-0.11557
-0.120322
-0.142325
-0.139151
-0.123236
-0.145261
0.841495
-0.251931
-0.465524
-0.240519
-0.0173193
-0.0377402
-0.0726781
-0.0858085
-0.119401
-0.192672
1.05916
0.00442679
-0.411826
-0.214841
0.0114314
0.021549
0.000902761
-0.000595991
-0.0533559
-0.121366
0.520482
0.222483
-0.240213
-0.119141
0.0524638
0.085855
0.0879905
0.113872
0.0516204
-0.0227215
0.177302
0.253795
-0.0722149
-0.02434
0.0946492
0.155977
0.178659
0.219328
0.184885
0.0977525
0.083753
0.139738
0.0238407
0.0430539
0.231717
0.30075
0.252465
0.296035
0.351899
0.200893
0.124822
0.116291
0.0807121
0.0920627
0.631095
0.722579
0.684426
0.782273
2.19871
0.740172
0.169092
0.130802
0.12403
0.124949
0.333548
0.700106
2.10266
3.3254
3.49167
3.06861
0.336869
0.133514
0.14196
0.138541
410.677
410.568
409.653
408.305
406.756
405.174
403.693
402.431
401.478
400.906
411.084
411.081
410.089
408.603
406.911
405.205
403.657
402.301
401.254
400.615
411.531
412.105
411.081
409.387
407.52
405.603
403.723
402.089
400.819
400.022
411.824
412.896
412.218
410.288
408.102
405.84
403.66
401.667
400.032
399.011
380.104
411.588
414.692
412.358
409.622
406.761
403.903
401.173
398.922
397.485
369.575
419.454
418.178
415.071
411.454
407.555
403.383
399.666
396.561
394.715
396.638
425.564
422.86
418.249
413.947
409.447
404.304
399.736
396.071
394.885
435.562
425.974
411.892
408.464
416.619
403.936
374.494
343.515
320.658
300.579
322.206
326.734
358.299
239.591
208.336
155.299
99.4414
57.578
22.3554
23.9029
44.5907
39.4743
33.5008
29.1189
22.4913
14.9431
5.02767
2.36156
0.647994
0.644127
-0.196894
-0.39568
-0.602188
-0.464283
-0.30958
-0.357175
-0.436173
-0.259422
-0.0235111
0.23203
0.0469635
0.0196733
-0.154067
-0.164312
-0.125273
-0.27474
-0.353345
-0.356512
-0.278058
-0.0495176
-0.0644697
-0.0762671
-0.164651
-0.145349
-0.14066
-0.207089
-0.258609
-0.271616
-0.322098
-0.133614
-0.00630692
-0.028491
-0.0575419
-0.0621203
-0.0790715
-0.125785
-0.158723
-0.182463
-0.266699
-0.115008
0.0205388
0.0262593
0.0123485
0.00299771
-0.0135825
-0.0536725
-0.0874441
-0.111685
-0.135858
-0.0562382
0.0601928
0.0789541
0.0830068
0.0786074
0.0656261
0.0259
-0.0149226
-0.0258394
-0.0199897
0.00130697
0.0932792
0.128764
0.146527
0.150514
0.144047
0.103199
0.0612424
0.0532015
0.0641059
0.0548122
0.116382
0.153245
0.184276
0.202428
0.196576
0.157821
0.120019
0.104921
0.107769
0.0988563
0.183629
0.154951
0.203061
0.231325
0.23174
0.174786
0.146806
0.130985
0.128965
0.123427
0.41441
0.143051
0.246886
0.35777
0.355158
0.165616
0.149846
0.138424
0.139905
0.133109
408.865
408.7
407.811
406.461
404.865
403.202
401.656
400.339
399.334
398.693
409.102
409.047
408.094
406.607
404.863
403.083
401.409
399.96
398.837
398.102
409.49
409.926
408.882
407.157
405.1
402.958
400.926
399.166
397.788
396.834
409.972
410.729
409.799
407.681
405.164
402.517
400
397.767
395.961
394.727
382.159
413.06
411.728
408.917
405.631
402.15
398.655
395.507
392.966
391.441
398.614
416.506
414.455
410.479
405.784
400.674
395.717
391.858
388.722
387.191
424.073
421.559
418.148
412.495
406.678
400.44
394.778
389.415
385.232
384.053
427.444
417.674
409.01
415.023
392.264
348.574
300.181
263.6
233.295
237.378
318.533
346.741
313.612
182.58
119.683
68.4296
26.6173
9.8372
0.31984
0.500672
10.5697
15.7787
33.3742
48.079
36.6267
10.4089
-0.0682255
0.136463
0.386669
0.528638
0.184548
0.442626
0.102445
-0.0362108
-0.195552
-0.302445
-0.163986
-0.030915
0.0917601
0.211752
0.0603013
0.0781032
-0.0437997
-0.042197
-0.0213707
-0.0916808
-0.153589
-0.172872
-0.124863
0.0243102
0.0221003
0.000265987
-0.0983521
-0.116166
-0.100844
-0.104422
-0.116809
-0.138548
-0.161023
-0.0197806
0.0229553
0.0265338
-0.0227657
-0.0289761
-0.0416833
-0.0449762
-0.0422749
-0.061309
-0.0970389
-0.0122876
0.0381382
0.0434668
0.031338
0.0205534
0.0106076
-0.000715078
0.00040531
-0.00321541
-0.0248843
0.0068539
0.0702585
0.0772096
0.0814151
0.0795333
0.0678477
0.0516342
0.0410268
0.0485105
0.0389031
0.0373487
0.0974111
0.113814
0.127585
0.128742
0.12277
0.105995
0.0906246
0.0886304
0.0956778
0.0772072
0.115012
0.135299
0.154087
0.170159
0.186593
0.146253
0.126961
0.117685
0.124904
0.10989
0.126188
0.145085
0.163281
0.190674
0.220921
0.169658
0.144033
0.134796
0.129585
0.122513
0.132323
0.141571
0.153174
0.163321
0.199809
0.178006
0.144443
0.139682
0.136083
0.129696
407.196
406.936
406.012
404.612
402.945
401.222
399.618
398.257
397.208
396.49
407.422
407.196
406.18
404.631
402.817
400.924
399.149
397.628
396.439
395.578
408.037
407.929
406.757
404.907
402.653
400.324
398.142
396.263
394.779
393.604
409.285
408.952
407.461
405.025
402.171
399.188
396.364
393.862
391.81
390.236
410.345
410.933
408.896
405.614
401.712
397.513
393.521
389.83
386.801
385.01
415.204
413.82
410.908
406.071
400.256
394.34
388.978
383.8
379.727
378.393
420.174
418.18
413.931
407.339
399.88
392.224
383.17
371.703
359.362
364.729
421.073
407.365
410.51
399.882
347.895
279.333
217.961
167.522
121.703
145.491
308.821
328
230.95
130.532
72.979
21.298
0.127811
0.341659
0.443527
0.46328
10.557
5.02853
33.8223
40.6851
24.1925
0.542206
0.152608
0.323842
0.384186
0.413276
0.277065
0.456362
0.177537
-0.00656813
-0.0976753
-0.00234328
0.0407761
0.112029
0.168832
0.246068
0.0834035
0.144514
0.088372
0.0352943
0.0179847
-0.0224657
-0.0437888
-0.0145358
0.0298419
0.138924
0.0717793
0.0968806
-0.00107953
-0.0301658
-0.0279146
-0.0184255
-0.00803924
-0.00305214
0.0100012
0.0889763
0.0488931
0.0834079
0.0330495
0.00635207
0.00595547
0.0231548
0.0373704
0.0266325
0.0228406
0.062016
0.0556041
0.0554068
0.0570256
0.0465739
0.0464268
0.0657442
0.0651172
0.0486699
0.0377219
0.0568506
0.0871578
0.0798047
0.086484
0.0858966
0.0828513
0.088719
0.0784646
0.0813943
0.0758641
0.073841
0.111268
0.110125
0.118989
0.119943
0.116377
0.124462
0.100287
0.104032
0.112608
0.104366
0.117622
0.127579
0.141961
0.215491
0.256757
0.132778
0.12406
0.119972
0.12466
0.117553
0.126235
0.136538
0.158407
0.334116
0.366791
0.14471
0.134432
0.129894
0.126281
0.121714
0.13231
0.138873
0.151974
0.318823
0.376743
0.256697
0.134043
0.131344
0.12971
0.12682
405.715
405.38
404.397
402.933
401.204
399.425
397.785
396.411
395.343
394.534
405.95
405.582
404.472
402.866
400.945
398.956
397.116
395.57
394.356
393.331
406.58
406.196
404.902
402.836
400.427
397.949
395.657
393.732
392.202
390.705
407.705
407.077
405.261
402.624
399.464
396.178
393.093
390.415
388.165
386.111
409.994
408.834
406.325
402.651
398.077
393.373
388.832
384.582
381.059
378.85
413.172
411.266
407.539
401.836
395.336
388.977
382.056
374.666
369.109
368.648
417.389
414.795
409.827
402.521
394.07
382.91
364.479
329.5
297.941
330.649
417.123
405.781
403.36
373.677
303.622
220.436
149.4
85.1551
41.3205
73.1445
291.706
259.378
166.085
92.3212
35.2267
0.350065
0.281501
0.378757
0.426209
0.453579
15.5996
12.2347
28.5935
24.6298
4.28531
0.163702
0.198
0.288608
0.354878
0.382308
0.288822
0.332323
0.32273
0.228425
0.115506
0.0987056
0.0959591
0.167352
0.239525
0.298991
0.0799651
0.160575
0.135294
0.05686
0.025791
0.00924253
0.0324529
0.10052
0.156244
0.220933
0.0456293
0.096935
0.0714279
0.0454868
0.0404821
0.0392062
0.0647963
0.0875302
0.109409
0.157138
0.0586333
0.0674581
0.0520792
0.0517721
0.0504081
0.0529573
0.0882111
0.0846428
0.0814439
0.113573
0.0732131
0.061915
0.069111
0.0771676
0.0776273
0.0960583
0.100549
0.0767964
0.0835884
0.101744
0.0917118
0.086964
0.09881
0.102963
0.112693
0.125629
0.108506
0.0978757
0.100962
0.106862
0.110052
0.112282
0.124448
0.129673
0.133548
0.148516
0.122057
0.118156
0.118302
0.116547
0.119712
0.126006
0.150547
0.24561
0.178691
0.141902
0.134276
0.128092
0.124768
0.121764
0.127008
0.133428
0.172797
0.350658
0.254753
0.141738
0.137432
0.130902
0.127718
0.124761
0.131243
0.135619
0.177341
0.360569
0.334683
0.138913
0.134386
0.128689
0.126942
0.125795
404.487