/*--------------------------------*- C++ -*----------------------------------*\
| =========                 |                                                 |
| \\      /  F ield         | OpenFOAM: The Open Source CFD Toolbox           |
|  \\    /   O peration     | Version:  2312                                  |
|   \\  /    A nd           | Website:  www.openfoam.com                      |
|    \\/     M anipulation  |                                                 |
\*---------------------------------------------------------------------------*/
FoamFile
{
    version     2.0;
    format      ascii;
    arch        "LSB;label=32;scalar=64";
    class       surfaceScalarField;
    location    "0.6";
    object      phi;
}
// * * * * * * * * * * * * * * * * * * * * * * * * * * * * * * * * * * * * * //

dimensions      [0 3 -1 0 0 0 0];

oriented        oriented;

internalField   nonuniform List<scalar> 
22600
(
-1.68641e-07
1.11858e-07
5.18819e-08
-3.26518e-07
9.44922e-08
6.33837e-08
-4.65327e-07
5.95243e-08
7.92855e-08
-5.6863e-07
8.27196e-09
9.50308e-08
-6.19966e-07
-5.79965e-08
1.09332e-07
-6.10688e-07
-1.31333e-07
1.22055e-07
-5.32166e-07
-2.12078e-07
1.33556e-07
-3.76154e-07
-3.02419e-07
1.46407e-07
-1.62654e-07
-3.77204e-07
1.63703e-07
-3.21135e-07
1.58482e-07
-1.66664e-07
2.40231e-07
3.78108e-08
-3.21761e-07
2.02898e-07
4.66907e-08
-4.51476e-07
1.30232e-07
5.90081e-08
-5.48158e-07
3.16435e-08
7.33101e-08
-6.01724e-07
-9.25897e-08
8.8159e-08
-6.02126e-07
-2.31688e-07
1.00756e-07
-5.33697e-07
-3.91169e-07
1.10663e-07
-3.7669e-07
-5.80516e-07
1.2109e-07
-1.46209e-07
-7.46671e-07
1.38987e-07
-6.10312e-07
1.42967e-07
-2.00545e-07
3.90172e-07
5.15698e-08
-3.9105e-07
3.35212e-07
5.8192e-08
-5.55909e-07
2.23859e-07
7.12323e-08
-6.82623e-07
7.1455e-08
8.69021e-08
-7.6069e-07
-1.13864e-07
9.93409e-08
-7.79623e-07
-3.2005e-07
1.07296e-07
-7.17983e-07
-5.63954e-07
1.11144e-07
-5.28851e-07
-9.01104e-07
1.31457e-07
-1.97714e-07
-1.26702e-06
1.89213e-07
-1.0069e-06
1.98877e-07
-2.53542e-07
5.35975e-07
1.12156e-07
-4.94133e-07
4.64212e-07
1.11592e-07
-7.03022e-07
3.18566e-07
1.14181e-07
-8.63703e-07
1.10507e-07
1.2163e-07
-9.7147e-07
-1.29914e-07
1.23817e-07
-1.02818e-06
-3.84758e-07
1.21419e-07
-1.02031e-06
-7.1883e-07
1.47005e-07
-8.49188e-07
-1.33018e-06
2.57952e-07
-3.79367e-07
-2.17137e-06
4.34525e-07
-1.79322e-06
4.06955e-07
-3.06265e-07
5.56024e-07
2.83786e-07
-5.85258e-07
4.70763e-07
2.72442e-07
-8.27933e-07
3.07935e-07
2.53306e-07
-9.92666e-07
2.91794e-08
2.4606e-07
-1.11384e-06
-2.39135e-07
2.30397e-07
-1.21086e-06
-5.30741e-07
2.42997e-07
-1.28678e-06
-9.8908e-07
3.46173e-07
-1.19518e-06
-1.99024e-06
5.68463e-07
-6.64573e-07
-3.51032e-06
8.0834e-07
-3.14742e-06
6.89618e-07
-2.37204e-07
4.35609e-07
3.55676e-07
-4.80815e-07
3.63414e-07
3.50961e-07
-7.13196e-07
1.89241e-07
3.51075e-07
-9.05075e-07
-1.52729e-07
3.73788e-07
-1.04897e-06
-5.05241e-07
4.09997e-07
-1.18926e-06
-8.93284e-07
5.02837e-07
-1.28654e-06
-1.58982e-06
6.98024e-07
-1.32423e-06
-3.01001e-06
1.05747e-06
-9.72708e-07
-5.19751e-06
1.33566e-06
-4.99131e-06
8.71182e-07
-1.35582e-07
7.2558e-07
-7.23908e-08
-4.93038e-07
8.28282e-07
-1.07412e-07
-9.49378e-07
6.84954e-07
-3.93741e-08
-1.34508e-06
5.5756e-08
1.87221e-07
-1.6371e-06
-7.39389e-07
5.26165e-07
-1.74626e-06
-1.65204e-06
8.67918e-07
-1.59936e-06
-2.94988e-06
1.21316e-06
-1.51042e-06
-4.93544e-06
1.83649e-06
-1.33802e-06
-7.46418e-06
2.09428e-06
-7.49124e-06
1.16191e-06
-7.92046e-07
2.07394e-06
-4.01447e-07
-1.76774e-06
2.12715e-06
-3.23179e-07
-2.51895e-06
1.51118e-06
-7.50141e-08
-2.73548e-06
1.19398e-08
2.60345e-07
-2.03686e-06
-1.75402e-06
3.16012e-07
-6.51156e-07
-3.31639e-06
2.78643e-07
1.14348e-07
-4.83048e-06
1.11509e-06
-7.72958e-08
-6.53721e-06
1.79341e-06
-9.02599e-07
-7.70463e-06
1.06575e-06
-9.33577e-06
9.41927e-07
-2.98617e-06
5.18404e-06
-2.46847e-07
-3.82758e-06
3.60959e-06
-6.41026e-07
-2.54476e-06
1.11588e-06
-8.87525e-07
2.64243e-06
-3.33853e-06
-1.83672e-06
9.22478e-06
-1.60048e-06
-6.73588e-06
1.285e-05
1.2031e-06
-8.14476e-06
9.81461e-06
1.72976e-06
-3.5248e-06
3.79152e-06
-6.71304e-07
1.57183e-07
6.93889e-07
-4.6614e-06
5.44047e-08
-7.54019e-06
-1.10168e-06
-1.01769e-06
7.29686e-06
-3.00042e-06
2.99398e-06
8.43971e-06
-8.84179e-06
8.05837e-06
9.17825e-06
-1.31267e-05
1.19624e-05
7.20478e-06
-1.44473e-05
1.39943e-05
6.70901e-06
-1.03414e-05
1.3567e-05
7.83429e-06
-6.2039e-06
8.84454e-06
7.13955e-06
-6.87286e-07
3.64834e-06
2.97142e-06
1.55347e-06
1.37342e-06
-1.05865e-06
-1.32784e-06
-3.9491e-06
-2.21767e-06
-1.0483e-06
1.36908e-05
-9.85033e-06
3.92085e-06
1.3839e-05
-1.03685e-05
8.22141e-06
1.4845e-05
-9.96727e-06
1.16132e-05
1.40732e-05
-1.02602e-05
1.24055e-05
1.33401e-05
-7.42339e-06
1.06589e-05
1.27789e-05
-3.19802e-06
5.58471e-06
9.68127e-06
2.53248e-06
1.97304e-06
4.55032e-06
2.03278e-06
1.30485e-06
1.43802e-06
-1.82846e-06
-8.04563e-08
-2.56381e-06
-7.55187e-07
1.70912e-05
-7.4985e-06
4.14656e-06
1.61086e-05
-7.17132e-06
7.45634e-06
1.70986e-05
-5.5634e-06
9.0178e-06
1.72288e-05
-4.71708e-06
9.02085e-06
1.6522e-05
-3.185e-06
6.82554e-06
1.46445e-05
3.29689e-07
2.71062e-06
9.54267e-06
4.25352e-06
9.29979e-07
4.62305e-06
1.7079e-06
1.05126e-06
2.78267e-06
-1.46593e-06
2.8508e-06
-1.88001e-06
-5.58484e-07
1.64117e-05
-3.14613e-06
2.7284e-06
1.55313e-05
-2.70963e-06
4.67898e-06
1.66548e-05
-1.5068e-06
5.51725e-06
1.70551e-05
-6.64551e-07
4.90849e-06
1.59848e-05
1.14602e-06
3.17237e-06
1.28017e-05
3.57892e-06
1.09151e-06
8.26008e-06
3.36345e-06
5.68895e-07
4.37642e-06
7.69244e-07
8.95244e-07
3.55083e-06
-1.09451e-06
4.83673e-06
-1.09068e-06
-9.343e-07
1.27788e-05
9.03665e-07
7.21209e-07
1.23487e-05
1.52714e-06
1.4532e-06
1.31213e-05
2.80148e-06
1.77496e-06
1.34957e-05
3.23759e-06
1.56481e-06
1.26185e-05
3.57646e-06
1.03057e-06
1.02994e-05
3.03661e-06
5.51635e-07
7.60895e-06
1.13007e-06
4.93913e-07
4.49527e-06
-6.11329e-08
8.56156e-07
4.23609e-06
-1.04751e-06
6.02832e-06
-3.35437e-07
-1.0435e-06
8.99155e-06
2.5128e-06
-5.93218e-07
8.81474e-06
3.08368e-06
-4.39121e-07
9.35889e-06
3.60835e-06
-1.96084e-07
1.0014e-05
3.23869e-06
1.39103e-07
9.99336e-06
2.28992e-06
2.02233e-07
9.5039e-06
7.32332e-07
3.80944e-07
7.56138e-06
-1.31142e-07
3.8165e-07
4.9299e-06
-4.35328e-07
7.0056e-07
5.10264e-06
-1.18545e-06
6.34085e-06
3.88032e-07
-6.22762e-07
6.66444e-06
1.8471e-06
-6.59605e-07
6.54697e-06
2.30461e-06
-7.41652e-07
6.93148e-06
2.50947e-06
-5.67785e-07
7.90385e-06
1.93631e-06
-1.44885e-07
8.77639e-06
7.94075e-07
6.46654e-08
9.48067e-06
-1.86316e-07
2.29107e-07
7.45169e-06
-5.47416e-08
1.03694e-07
5.48459e-06
-4.29271e-07
5.30089e-07
5.98648e-06
-1.31024e-06
6.35447e-06
5.16461e-07
-3.73651e-07
5.22284e-06
1.1908e-06
-4.45912e-07
5.17423e-06
1.445e-06
-5.79825e-07
5.43743e-06
1.62797e-06
-4.71265e-07
6.39348e-06
1.4018e-06
-8.85961e-08
7.55554e-06
8.3818e-07
3.00013e-07
8.54959e-06
5.42479e-07
2.67677e-07
6.91974e-06
5.64297e-07
6.80548e-09
5.90255e-06
-1.57085e-07
4.93758e-07
6.69778e-06
-1.19826e-06
6.42357e-06
4.2466e-07
-3.27865e-07
4.13063e-06
9.92133e-07
-3.73289e-07
4.13352e-06
1.08613e-06
-4.69413e-07
4.3212e-06
1.21235e-06
-3.29718e-07
5.01513e-06
1.23867e-06
1.10061e-07
6.00113e-06
1.11463e-06
8.11083e-07
6.73639e-06
1.11218e-06
8.09229e-07
6.04823e-06
8.73363e-07
3.16663e-07
6.20252e-06
1.92602e-07
4.18042e-07
7.45671e-06
-8.60307e-07
6.1589e-06
6.82701e-07
-1.10244e-07
3.24803e-06
7.67985e-07
-4.95273e-08
3.2903e-06
7.82509e-07
-3.19038e-09
3.46826e-06
8.06606e-07
2.41583e-07
3.92582e-06
8.44537e-07
8.36769e-07
4.57282e-06
8.33122e-07
1.68442e-06
5.03577e-06
8.52968e-07
1.56371e-06
5.47525e-06
6.93698e-07
7.41347e-07
6.77467e-06
2.50211e-07
5.3678e-08
8.66637e-06
-5.21998e-07
4.93327e-06
1.27931e-06
2.15879e-07
3.73519e-07
2.58647e-06
4.44409e-07
3.97748e-07
2.66402e-06
6.89262e-07
3.87217e-07
2.83619e-06
1.11701e-06
4.18824e-07
3.07925e-06
1.84595e-06
4.1329e-07
3.43058e-06
2.38545e-06
3.52628e-07
4.14365e-06
1.78662e-06
2.63289e-07
5.8108e-06
8.10623e-07
-1.05615e-07
7.85627e-06
-2.34064e-07
-3.12855e-07
1.00239e-05
1.43701e-06
3.2622e-06
-2.10831e-07
3.11566e-08
2.33174e-07
-4.07597e-07
2.12095e-08
2.3894e-07
-5.65946e-07
-1.16877e-08
2.49322e-07
-6.72288e-07
-6.22592e-08
2.63632e-07
-7.18265e-07
-1.26006e-07
2.81316e-07
-6.9734e-07
-2.02344e-07
3.03474e-07
-5.9993e-07
-2.94776e-07
3.30923e-07
-4.14773e-07
-4.04371e-07
3.65621e-07
-1.67925e-07
-4.85883e-07
4.02737e-07
-3.73936e-07
3.64494e-07
-1.97371e-07
5.86416e-08
2.12722e-07
-3.89425e-07
4.79283e-08
2.12025e-07
-5.48261e-07
-1.11074e-08
2.17264e-07
-6.5918e-07
-1.09929e-07
2.31899e-07
-7.15163e-07
-2.34305e-07
2.52441e-07
-7.08451e-07
-3.87784e-07
2.79484e-07
-6.20092e-07
-5.86232e-07
3.13759e-07
-4.222e-07
-8.39893e-07
3.5872e-07
-1.4318e-07
-1.03308e-06
4.07165e-07
-7.38597e-07
3.64448e-07
-2.44879e-07
1.32406e-07
2.32133e-07
-4.85043e-07
1.18777e-07
2.27508e-07
-6.85762e-07
2.47831e-08
2.3606e-07
-8.33711e-07
-1.34344e-07
2.59266e-07
-9.22685e-07
-3.3671e-07
2.9072e-07
-9.47432e-07
-5.85191e-07
3.29451e-07
-8.73821e-07
-9.33024e-07
3.84325e-07
-6.20556e-07
-1.44614e-06
4.84441e-07
-1.89655e-07
-1.88389e-06
6.09122e-07
-1.24678e-06
5.17405e-07
-3.21814e-07
2.93255e-07
2.87986e-07
-6.30905e-07
2.52248e-07
2.87212e-07
-8.92394e-07
1.07224e-07
2.93229e-07
-1.09601e-06
-1.27387e-07
3.18293e-07
-1.24327e-06
-4.17727e-07
3.52086e-07
-1.34563e-06
-7.68101e-07
4.06693e-07
-1.35042e-06
-1.32603e-06
5.44806e-07
-1.06956e-06
-2.29824e-06
8.29185e-07
-4.04313e-07
-3.22338e-06
1.10876e-06
-2.10152e-06
8.57383e-07
-4.29912e-07
5.85155e-07
4.22115e-07
-8.16252e-07
4.78912e-07
4.32118e-07
-1.1412e-06
2.60559e-07
4.24921e-07
-1.39603e-06
-7.26479e-08
4.46146e-07
-1.59451e-06
-4.82757e-07
4.93906e-07
-1.76898e-06
-9.65391e-07
6.14762e-07
-1.84735e-06
-1.81016e-06
9.08668e-07
-1.57436e-06
-3.35863e-06
1.35586e-06
-7.38666e-07
-4.90562e-06
1.65489e-06
-3.33492e-06
1.18435e-06
-4.54002e-07
9.27096e-07
4.59499e-07
-8.71785e-07
7.51282e-07
4.96374e-07
-1.22248e-06
4.06678e-07
5.55651e-07
-1.54424e-06
-1.99408e-08
6.42843e-07
-1.7913e-06
-5.9183e-07
7.66128e-07
-1.96481e-06
-1.27689e-06
9.87842e-07
-2.03645e-06
-2.36833e-06
1.32783e-06
-1.96592e-06
-4.13767e-06
1.76598e-06
-1.29693e-06
-6.22189e-06
1.98294e-06
-4.97116e-06
1.2105e-06
-4.30494e-07
1.35811e-06
-1.58447e-08
-9.04068e-07
1.13295e-06
-1.55083e-08
-1.4383e-06
7.34652e-07
1.66888e-07
-1.97494e-06
1.65764e-07
5.38148e-07
-2.29611e-06
-7.26698e-07
9.8221e-07
-2.24865e-06
-1.78271e-06
1.32628e-06
-1.96232e-06
-2.98588e-06
1.54438e-06
-2.13622e-06
-3.96115e-06
1.83386e-06
-2.22062e-06
-6.0259e-06
1.9827e-06
-7.50641e-06
1.47654e-06
-5.99346e-07
2.23659e-06
-5.61301e-07
-1.62034e-06
2.16449e-06
-3.33721e-07
-2.60461e-06
1.52181e-06
1.22092e-07
-3.10399e-06
3.02659e-07
6.22836e-07
-2.50941e-06
-1.65797e-06
6.52701e-07
-1.27384e-06
-2.90286e-06
1.63225e-07
1.65467e-07
-3.58709e-06
2.76996e-07
-4.90286e-07
-1.56857e-06
5.65932e-08
-1.88021e-06
-3.30563e-06
-2.64605e-07
-8.13749e-06
-3.07198e-07
-2.60271e-06
5.05378e-06
-5.58396e-07
-3.31372e-06
3.84367e-06
-1.60919e-06
-2.22353e-06
1.18297e-06
-1.63888e-06
1.31225e-06
-2.8631e-06
-2.20674e-06
4.7101e-06
-5.15563e-06
-6.63608e-06
4.45862e-06
-5.41644e-07
-1.02545e-05
1.76823e-06
3.62874e-06
-8.05023e-06
6.85898e-07
3.22969e-06
-3.55875e-06
-1.37979e-06
1.21232e-06
-2.39785e-06
-3.85168e-06
-6.76727e-06
-9.3572e-07
6.30112e-06
-4.68616e-06
2.05593e-06
2.53332e-06
-1.05231e-05
6.47228e-06
-2.77274e-06
-1.35874e-05
7.62959e-06
-3.77378e-06
-1.4694e-05
5.69652e-06
-9.12784e-07
-1.26512e-05
2.63403e-06
5.98352e-06
-9.66656e-06
5.30114e-07
8.41779e-06
-3.37242e-06
1.84796e-07
5.41804e-06
-2.89563e-07
-6.98189e-07
3.19598e-06
-2.42852e-06
-1.40947e-07
-6.6266e-06
-1.73223e-07
5.0869e-06
-1.2214e-05
4.47714e-06
2.55599e-06
-1.50415e-05
6.76327e-06
-5.11232e-08
-1.4975e-05
5.96587e-06
1.13694e-06
-1.43735e-05
1.86176e-06
4.97056e-06
-9.20262e-06
-7.94242e-07
9.69516e-06
-4.25366e-06
-1.38782e-06
9.67748e-06
1.86639e-06
-1.4565e-06
6.18366e-06
1.33585e-06
-1.4682e-06
4.09358e-06
-2.71437e-06
2.09222e-06
-6.26518e-06
1.41386e-06
5.0725e-06
-1.09074e-05
4.37002e-06
2.36056e-06
-9.93204e-06
4.09238e-06
2.44128e-06
-7.77816e-06
1.76117e-06
5.036e-06
-6.28494e-06
-9.2982e-07
7.43667e-06
-2.96011e-06
-2.45352e-06
1.06812e-05
8.67355e-07
-1.92956e-06
9.46004e-06
3.94701e-06
-1.48544e-06
6.01262e-06
1.43479e-06
-1.17152e-06
4.50063e-06
-2.18691e-06
3.22654e-06
-4.18586e-06
2.05835e-06
4.16645e-06
-4.2051e-06
2.70596e-06
2.48503e-06
-3.4817e-06
1.65016e-06
3.94652e-06
-1.95625e-06
-2.45206e-08
6.78664e-06
-7.40494e-07
-1.68185e-06
9.19528e-06
1.04475e-06
-1.68062e-06
1.09375e-05
3.32139e-06
-7.62793e-07
8.52253e-06
3.38314e-06
-4.1426e-07
5.73151e-06
7.01822e-07
-5.13623e-07
5.34655e-06
-1.84107e-06
3.82392e-06
-2.20168e-06
9.89024e-07
3.5606e-06
7.14202e-07
2.99252e-07
3.57309e-06
1.12884e-06
-7.68295e-07
5.57516e-06
2.24039e-06
-1.2512e-06
7.57296e-06
2.93419e-06
-1.34108e-06
9.32061e-06
3.54102e-06
-6.03824e-07
9.64399e-06
3.59288e-06
7.78941e-08
7.45771e-06
1.51319e-06
1.45655e-07
5.72889e-06
-1.26251e-07
-7.26623e-08
6.33532e-06
-1.81796e-06
4.26351e-06
-8.47697e-07
-3.00248e-07
3.78676e-06
2.11942e-06
-1.18877e-06
4.66268e-06
2.88263e-06
-1.91171e-06
6.34722e-06
3.55924e-06
-1.66906e-06
7.2482e-06
3.3208e-06
-9.44047e-07
8.09799e-06
2.78753e-06
-3.68705e-07
8.28619e-06
1.5148e-06
-2.65379e-07
7.16007e-06
6.31914e-08
-3.45588e-07
5.90873e-06
-5.34966e-07
3.9492e-08
6.48954e-06
-1.72476e-06
4.80008e-06
-1.09043e-07
-1.06358e-06
3.76821e-06
1.67761e-06
-1.26696e-06
4.72066e-06
2.45001e-06
-1.53454e-06
6.06701e-06
3.05726e-06
-1.2742e-06
6.5203e-06
2.40389e-06
-8.10363e-07
6.88374e-06
1.5445e-06
-7.40627e-07
7.52312e-06
5.07024e-07
-9.69211e-07
7.3855e-06
-5.15803e-08
-9.824e-07
6.23751e-06
-7.44877e-07
-1.28432e-07
6.02953e-06
-1.70419e-06
5.2597e-06
-7.15941e-08
-1.30389e-06
3.61419e-06
1.09303e-06
-1.08575e-06
4.2655e-06
1.68201e-06
-9.10237e-07
5.16178e-06
2.35769e-06
-6.11762e-07
5.5591e-06
2.06454e-06
-4.07138e-07
5.90804e-06
1.60926e-06
-4.88993e-07
6.84738e-06
1.30007e-06
-5.8577e-07
7.21945e-06
8.27124e-07
-7.00794e-07
6.69689e-06
-5.01448e-07
-3.31997e-08
5.83634e-06
-1.67266e-06
5.88876e-06
-2.37596e-07
-9.12987e-07
3.35587e-06
9.80052e-07
-7.03079e-07
3.73966e-06
1.40206e-06
-4.23667e-07
4.21556e-06
1.87918e-06
-2.01741e-08
4.55646e-06
1.83781e-06
3.67949e-07
4.98268e-06
1.65187e-06
6.14761e-07
5.782e-06
1.93076e-06
6.77183e-07
6.43176e-06
1.59864e-06
5.10482e-07
7.04046e-06
1.57272e-08
5.00861e-07
6.45493e-06
-1.46928e-06
7.04586e-06
2.64656e-08
-1.99643e-07
2.9263e-06
8.54426e-07
2.85826e-08
3.16236e-06
1.13157e-06
2.98572e-07
3.43655e-06
1.31563e-06
7.28476e-07
3.7003e-06
1.27079e-06
1.29499e-06
4.18369e-06
1.0656e-06
1.80679e-06
4.81331e-06
1.30986e-06
1.80672e-06
5.76052e-06
1.36499e-06
1.61256e-06
7.39728e-06
8.75589e-08
9.71443e-07
7.79665e-06
-1.22261e-06
8.18564e-06
1.11097e-06
3.2508e-07
4.46683e-07
2.4451e-06
6.30878e-07
6.63155e-07
2.59117e-06
9.69134e-07
7.36187e-07
2.74933e-06
1.42589e-06
6.74179e-07
2.98818e-06
2.01237e-06
4.26245e-07
3.58427e-06
2.44904e-06
3.19162e-07
4.4101e-06
2.26434e-06
3.70569e-07
5.83794e-06
2.15743e-06
-5.81033e-07
7.97961e-06
1.21725e-06
-9.26271e-07
9.35025e-06
1.94964e-06
8.89027e-06
-2.02366e-07
-3.77663e-09
4.40426e-07
-3.91255e-07
-1.61709e-09
4.29447e-07
-5.40453e-07
-1.97205e-08
4.18241e-07
-6.36784e-07
-5.80272e-08
4.1799e-07
-6.74293e-07
-1.1002e-07
4.28845e-07
-6.48735e-07
-1.73869e-07
4.51786e-07
-5.5242e-07
-2.51383e-07
4.8599e-07
-3.77486e-07
-3.41788e-07
5.32474e-07
-1.50549e-07
-4.04251e-07
5.80051e-07
-2.99059e-07
5.13003e-07
-1.86315e-07
-2.06751e-08
4.2469e-07
-3.67175e-07
-9.58204e-09
4.0085e-07
-5.13646e-07
-3.81611e-08
3.82176e-07
-6.14354e-07
-1.06558e-07
3.81138e-07
-6.60723e-07
-2.05879e-07
3.94669e-07
-6.46309e-07
-3.3353e-07
4.2473e-07
-5.5628e-07
-4.9825e-07
4.70596e-07
-3.71374e-07
-7.02255e-07
5.34282e-07
-1.23898e-07
-8.41487e-07
5.96925e-07
-5.72468e-07
5.13959e-07
-2.32752e-07
1.32634e-08
4.46441e-07
-4.53474e-07
1.05628e-08
4.28086e-07
-6.33492e-07
-3.61282e-08
4.14045e-07
-7.63536e-07
-1.44119e-07
4.26871e-07
-8.35076e-07
-3.02974e-07
4.59354e-07
-8.40715e-07
-5.11362e-07
5.12922e-07
-7.48225e-07
-8.00623e-07
5.94209e-07
-4.99079e-07
-1.18888e-06
7.21916e-07
-1.3238e-07
-1.45033e-06
8.51262e-07
-8.83416e-07
6.95973e-07
-2.79219e-07
1.45736e-07
4.59854e-07
-5.63372e-07
9.61788e-08
4.85749e-07
-8.00345e-07
8.79347e-09
4.85281e-07
-9.83313e-07
-1.53862e-07
5.11004e-07
-1.11055e-06
-3.83099e-07
5.59449e-07
-1.18161e-06
-6.79941e-07
6.46336e-07
-1.13396e-06
-1.12948e-06
8.26012e-07
-8.22826e-07
-1.80391e-06
1.13308e-06
-2.50613e-07
-2.28974e-06
1.37597e-06
-1.28254e-06
1.0059e-06
-3.61727e-07
4.8435e-07
4.62076e-07
-7.41896e-07
3.50763e-07
5.57702e-07
-1.05862e-06
1.76288e-07
5.74148e-07
-1.31002e-06
-7.2593e-08
6.16283e-07
-1.50363e-06
-4.04452e-07
7.08864e-07
-1.63989e-06
-8.21791e-07
8.92873e-07
-1.63037e-06
-1.47483e-06
1.24449e-06
-1.28003e-06
-2.50219e-06
1.70381e-06
-5.26871e-07
-3.3087e-06
1.9207e-06
-1.89408e-06
1.26901e-06
-4.34659e-07
9.71307e-07
4.10172e-07
-9.03941e-07
7.35478e-07
5.8094e-07
-1.30365e-06
4.2432e-07
7.07332e-07
-1.6409e-06
7.20697e-08
8.35431e-07
-1.85557e-06
-4.43885e-07
1.02023e-06
-1.92792e-06
-1.05863e-06
1.29703e-06
-1.86764e-06
-1.86273e-06
1.65544e-06
-1.61618e-06
-2.99234e-06
2.00467e-06
-9.4708e-07
-4.07393e-06
2.07907e-06
-2.88262e-06
1.25196e-06
-4.50011e-07
1.53977e-06
-9.76069e-08
-9.69054e-07
1.14937e-06
8.96405e-08
-1.50152e-06
7.29144e-07
3.94533e-07
-1.97666e-06
2.76978e-07
8.08374e-07
-2.19641e-06
-4.88418e-07
1.24649e-06
-2.07764e-06
-1.47347e-06
1.62236e-06
-1.77809e-06
-2.42547e-06
1.80757e-06
-1.83146e-06
-2.97562e-06
1.87051e-06
-1.76356e-06
-4.13743e-06
1.9783e-06
-4.86256e-06
1.69292e-06
-5.84999e-07
2.31456e-06
-7.15099e-07
-1.33459e-06
2.00172e-06
-4.36476e-07
-2.06817e-06
1.51772e-06
6.70982e-08
-2.55544e-06
6.2519e-07
7.6189e-07
-2.25158e-06
-1.23869e-06
1.09911e-06
-1.20438e-06
-2.95576e-06
5.98314e-07
-1.33992e-07
-3.36183e-06
1.4296e-07
-8.44351e-07
-1.9412e-06
-2.67469e-07
-2.30039e-06
-2.28828e-06
-6.57718e-07
-6.61169e-06
-8.58454e-07
-1.23744e-06
4.55149e-06
-1.51067e-06
-1.56022e-06
2.96916e-06
-2.25385e-06
-9.27443e-07
1.10704e-06
-1.86097e-06
1.07247e-06
-1.70949e-06
-1.87198e-06
4.58621e-06
-6.46517e-06
-4.92334e-06
5.95798e-06
-4.97511e-06
-9.6069e-06
5.04977e-06
-5.46252e-08
-1.04492e-05
2.58618e-06
4.2586e-06
-7.29494e-06
-2.4503e-07
3.28371e-06
-5.13863e-06
1.9869e-08
-1.36439e-05
-6.96966e-07
5.37195e-06
-6.74508e-06
1.81094e-06
-1.14526e-07
-9.94731e-06
5.88642e-06
-5.83438e-06
-1.07214e-05
7.87911e-06
-6.18619e-06
-1.221e-05
6.32635e-06
-3.94977e-06
-1.36138e-05
2.88067e-06
7.84771e-07
-1.19808e-05
4.84329e-07
5.98957e-06
-7.02028e-06
-3.31734e-07
7.99539e-06
-3.21029e-06
-1.85637e-06
6.73684e-06
-4.35702e-06
4.75416e-06
-1.32173e-05
1.189e-06
1.30348e-06
-1.29566e-05
5.71078e-06
-3.93383e-07
-1.92844e-05
5.88866e-06
-2.00629e-06
-1.8981e-05
3.12656e-06
-9.6942e-07
-1.68281e-05
-7.5354e-07
1.16196e-06
-1.04342e-05
-4.64013e-06
6.59766e-06
-6.17996e-06
-4.65645e-06
8.30273e-06
-4.30446e-07
-3.39487e-06
7.70914e-06
3.6054e-07
-3.76294e-06
7.83399e-06
-3.44346e-06
7.07264e-06
-1.23466e-05
1.21968e-06
-7.97439e-07
-1.10156e-05
3.01208e-06
-1.95209e-06
-1.01657e-05
1.58266e-06
-1.51641e-06
-6.83862e-06
-1.69641e-06
1.67615e-06
-5.65143e-06
-5.68117e-06
3.39753e-06
-1.21093e-06
-7.35121e-06
7.41959e-06
1.71548e-06
-6.2869e-06
6.84369e-06
4.34176e-06
-4.99923e-06
5.31002e-06
2.54624e-06
-4.67781e-06
7.35159e-06
-2.02593e-06
7.129e-06
-8.92001e-06
3.65575e-07
-2.05706e-06
-2.71481e-06
-6.49305e-07
-3.08324e-06
-1.33568e-06
-1.68953e-06
-2.22753e-06
-2.04906e-07
-2.09961e-06
1.68088e-06
-3.35143e-07
-4.88573e-06
5.38799e-06
1.84042e-06
-5.56973e-06
7.59457e-06
3.83042e-06
-3.94618e-06
5.18184e-06
3.42145e-06
-3.47963e-06
3.87508e-06
1.67021e-06
-3.7833e-06
6.96965e-06
-1.15547e-06
5.92719e-06
-4.78315e-06
-4.87513e-07
-2.06082e-06
1.37099e-06
-1.89947e-06
-2.07433e-06
1.5319e-06
-3.29914e-06
-6.78523e-07
2.09105e-06
-3.33722e-06
1.71112e-06
2.94203e-06
-3.46776e-06
5.31339e-06
3.74618e-06
-2.84746e-06
6.5077e-06
4.05946e-06
-2.0877e-06
3.76628e-06
2.16898e-06
-2.41926e-06
3.64849e-06
4.31894e-07
-2.60391e-06
6.81136e-06
-1.47501e-06
4.63404e-06
-2.15846e-06
-1.18317e-06
-8.85374e-07
1.31516e-06
-2.23837e-06
-3.41107e-07
2.2046e-06
-3.07348e-06
9.2163e-07
2.79421e-06
-2.97357e-06
2.1463e-06
2.78572e-06
-2.2993e-06
4.38789e-06
3.03878e-06
-1.80713e-06
5.16156e-06
2.36876e-06
-2.42705e-06
3.34945e-06
1.09994e-06
-2.6428e-06
3.52493e-06
-1.95658e-07
-1.80843e-06
6.24773e-06
-1.9955e-06
4.26317e-06
-1.54661e-06
-1.17842e-06
3.57939e-07
4.65859e-07
-1.53299e-06
1.06407e-06
1.3994e-06
-1.91252e-06
1.95728e-06
2.40114e-06
-1.8267e-06
2.35258e-06
2.11181e-06
-1.30494e-06
3.44869e-06
1.96195e-06
-1.48105e-06
4.47841e-06
1.36628e-06
-2.81746e-06
3.90582e-06
7.2846e-07
-2.86606e-06
3.18885e-06
-3.60195e-07
-1.39532e-06
5.13538e-06
-2.06259e-06
4.59531e-06
-1.79905e-06
-7.6875e-07
1.2456e-06
-5.80843e-08
-8.29082e-07
1.94678e-06
8.59636e-07
-8.29847e-07
2.48137e-06
1.83438e-06
-7.39046e-07
2.58296e-06
1.74337e-06
-5.77241e-07
3.16949e-06
1.72665e-06
-8.66397e-07
4.43104e-06
1.6366e-06
-1.97843e-06
4.95253e-06
8.9245e-07
-2.28867e-06
3.5115e-06
-5.13865e-07
-1.27018e-06
4.39927e-06
-1.95504e-06
4.93508e-06
-1.84753e-06
-2.57284e-07
1.83203e-06
1.32045e-08
-1.91762e-07
2.36128e-06
9.22036e-07
-9.05778e-08
2.70273e-06
1.55663e-06
9.86047e-09
2.80044e-06
1.5199e-06
-3.0342e-08
3.36182e-06
1.49974e-06
-1.50232e-07
4.72435e-06
1.75734e-06
-7.38099e-07
6.03278e-06
1.10626e-06
-1.2165e-06
4.67911e-06
-6.73479e-07
-8.1162e-07
4.66922e-06
-2.14411e-06
5.61722e-06
-1.4673e-06
2.28373e-07
2.04442e-06
2.53226e-07
3.65734e-07
2.36024e-06
9.9524e-07
4.59924e-07
2.58473e-06
1.33944e-06
5.55322e-07
2.74846e-06
1.22737e-06
3.52694e-07
3.55463e-06
1.07541e-06
1.65301e-07
5.04441e-06
1.17719e-06
-7.09194e-08
6.90558e-06
7.28429e-07
-4.27946e-07
6.09195e-06
-9.68242e-07
-2.22818e-07
5.69549e-06
-2.45401e-06
7.05599e-06
-5.50606e-07
5.17549e-07
1.60426e-07
1.90215e-06
7.20385e-07
7.53436e-07
2.06712e-06
8.30363e-07
1.00136e-06
2.20959e-06
8.93509e-07
8.48898e-07
2.5106e-06
5.45505e-07
6.28733e-07
3.70016e-06
1.46155e-07
4.17659e-07
5.34527e-06
3.61204e-08
-8.60741e-08
7.47226e-06
-1.31798e-07
-1.47616e-06
7.15499e-06
-3.9833e-09
-2.39721e-06
7.03863e-06
7.29402e-07
8.27226e-06
-2.04201e-07
5.35553e-08
5.93671e-07
-3.84978e-07
4.44523e-08
5.65772e-07
-5.21333e-07
1.89465e-08
5.3565e-07
-6.06306e-07
-1.86265e-08
5.21588e-07
-6.34204e-07
-6.59757e-08
5.22719e-07
-6.02358e-07
-1.20696e-07
5.40636e-07
-5.06316e-07
-1.83256e-07
5.73205e-07
-3.4236e-07
-2.52467e-07
6.20985e-07
-1.37418e-07
-2.95453e-07
6.70562e-07
-2.09706e-07
5.85291e-07
-1.96733e-07
8.14861e-08
6.13866e-07
-3.68045e-07
5.50048e-08
5.6161e-07
-4.92452e-07
2.01812e-08
5.05348e-07
-5.74938e-07
-3.7645e-08
4.82643e-07
-6.07047e-07
-1.22396e-07
4.83198e-07
-5.82587e-07
-2.27957e-07
5.07531e-07
-4.91451e-07
-3.55695e-07
5.51899e-07
-3.24353e-07
-5.02232e-07
6.16949e-07
-1.12829e-07
-5.89979e-07
6.79927e-07
-3.85261e-07
5.76685e-07
-2.19298e-07
1.89409e-07
5.87433e-07
-4.33895e-07
9.84296e-08
5.99257e-07
-5.91315e-07
3.12063e-08
5.60441e-07
-6.9657e-07
-5.38567e-08
5.48338e-07
-7.44369e-07
-1.7963e-07
5.64387e-07
-7.26291e-07
-3.46411e-07
6.13298e-07
-6.18444e-07
-5.6127e-07
6.91936e-07
-3.95091e-07
-8.11102e-07
8.07433e-07
-1.10021e-07
-9.4144e-07
9.17653e-07
-5.52298e-07
7.52989e-07
-2.10772e-07
3.74176e-07
5.421e-07
-4.92306e-07
1.96247e-07
6.69465e-07
-7.08879e-07
6.98202e-08
6.63241e-07
-8.6173e-07
-5.06382e-08
6.60636e-07
-9.48515e-07
-2.26825e-07
6.9343e-07
-9.6103e-07
-4.59922e-07
7.72361e-07
-8.53476e-07
-7.68799e-07
9.25988e-07
-5.59945e-07
-1.14079e-06
1.16924e-06
-1.47208e-07
-1.32748e-06
1.34927e-06
-6.96229e-07
1.00262e-06
-2.27119e-07
6.69433e-07
4.6378e-07
-5.912e-07
4.1059e-07
7.07441e-07
-8.97472e-07
1.9684e-07
7.534e-07
-1.11777e-06
1.82133e-08
7.67725e-07
-1.26538e-06
-2.10442e-07
8.40099e-07
-1.33265e-06
-5.15397e-07
1.01562e-06
-1.24328e-06
-9.43898e-07
1.33022e-06
-9.04263e-07
-1.47706e-06
1.70105e-06
-3.47137e-07
-1.7936e-06
1.82969e-06
-9.66584e-07
1.19223e-06
-2.65962e-07
1.12521e-06
2.62136e-07
-7.17057e-07
8.26689e-07
6.15936e-07
-1.14942e-06
5.29036e-07
8.07496e-07
-1.47628e-06
2.45083e-07
9.35421e-07
-1.68942e-06
-9.76915e-08
1.12063e-06
-1.71672e-06
-6.30025e-07
1.43895e-06
-1.572e-06
-1.22719e-06
1.79402e-06
-1.24488e-06
-1.85397e-06
2.05447e-06
-6.66462e-07
-2.32549e-06
2.03255e-06
-1.57525e-06
1.19416e-06
-3.19192e-07
1.54061e-06
-1.93036e-07
-8.38695e-07
1.2301e-06
2.05728e-07
-1.39578e-06
9.28507e-07
5.5215e-07
-1.83244e-06
5.76251e-07
9.13865e-07
-1.98052e-06
-6.21974e-08
1.35908e-06
-1.93362e-06
-8.18591e-07
1.76402e-06
-1.67803e-06
-1.76338e-06
2.08817e-06
-1.44487e-06
-2.44585e-06
2.22923e-06
-1.14581e-06
-2.96985e-06
2.3236e-06
-2.91532e-06
1.88718e-06
-3.90952e-07
1.87289e-06
-7.56121e-07
-8.02996e-07
1.55785e-06
-3.52175e-07
-1.42171e-06
1.47431e-06
1.4001e-07
-1.94758e-06
1.10796e-06
7.56055e-07
-1.97341e-06
-2.57565e-07
1.32031e-06
-1.19898e-06
-2.40853e-06
1.41383e-06
-1.75268e-07
-3.79277e-06
1.14864e-06
-1.61648e-07
-3.63782e-06
9.10884e-07
-7.41466e-07
-3.91312e-06
8.65372e-07
-4.79286e-06
2.77627e-07
-6.77271e-07
3.06526e-06
-2.11705e-06
-4.44728e-07
1.39238e-06
-2.32093e-06
6.58301e-09
7.02714e-07
-1.54069e-06
1.49546e-06
-7.03552e-07
-1.54934e-06
5.07648e-06
-5.2423e-06
-3.51963e-06
7.64194e-06
-7.37369e-06
-7.2072e-06
8.91596e-06
-6.31288e-06
-9.20314e-06
8.44465e-06
-1.68171e-06
-8.77973e-06
5.50648e-06
2.06919e-06
-8.18276e-06
1.44462e-06
-1.43749e-05
-7.65093e-07
1.65587e-06
-7.50342e-06
2.13584e-06
-3.7955e-06
-7.66037e-06
5.97117e-06
-5.83409e-06
-8.01998e-06
8.40589e-06
-5.00094e-06
-1.03473e-05
7.94615e-06
-4.66278e-06
-1.37336e-05
6.54054e-06
-4.14264e-06
-1.38062e-05
5.10389e-06
-2.97553e-07
-1.15989e-05
4.9103e-06
4.37403e-06
-9.07243e-06
3.03997e-06
7.52471e-06
-7.94221e-06
6.89243e-06
-1.56251e-05
1.32952e-06
-1.4145e-06
-1.43898e-05
4.61101e-06
-2.2422e-06
-2.41192e-05
4.42049e-06
-2.68423e-06
-2.19403e-05
1.66648e-06
-9.43562e-07
-1.81315e-05
-1.54417e-07
-4.26835e-07
-1.28493e-05
-1.4398e-06
2.44208e-06
-1.14793e-05
-1.70338e-07
6.36054e-06
-8.358e-06
1.21084e-06
9.3103e-06
-5.95692e-06
1.31693e-06
1.15919e-05
-7.61675e-06
1.17193e-05
-1.58566e-05
-2.16438e-07
-2.82879e-06
-1.1238e-05
1.08335e-06
-2.98284e-06
-1.07249e-05
-3.59255e-07
-2.41401e-06
-5.66623e-06
-3.81777e-06
1.23618e-06
-4.37266e-06
-6.8683e-06
2.40713e-06
-9.94368e-07
-7.64116e-06
4.16262e-06
7.67792e-07
-5.40735e-06
5.11856e-06
3.34993e-06
-3.2595e-06
7.09365e-06
2.61502e-06
-2.57361e-06
1.19563e-05
-3.07618e-06
1.35243e-05
-1.32986e-05
-2.09792e-07
-3.73982e-06
-1.49305e-06
-9.78983e-07
-2.89744e-06
-6.51892e-07
-2.12282e-06
-2.70146e-06
1.22637e-06
-3.5262e-06
1.25673e-06
1.0477e-06
-6.38604e-06
4.33515e-06
2.77223e-06
-6.9532e-06
4.85053e-06
3.70968e-06
-5.38167e-06
2.92e-06
4.04849e-06
-4.74602e-06
4.07399e-06
4.05423e-06
-4.77383e-06
1.08816e-05
-5.29227e-08
1.26444e-05
-8.67712e-06
-1.42722e-06
-2.86189e-06
1.23636e-06
-2.58641e-06
-2.13888e-06
1.93253e-06
-3.75707e-06
-2.14999e-06
2.71024e-06
-4.20981e-06
1.23895e-06
3.41254e-06
-4.48141e-06
4.16887e-06
4.18406e-06
-3.68334e-06
3.87294e-06
4.23898e-06
-3.0265e-06
1.45127e-06
2.98087e-06
-3.71934e-06
3.0912e-06
2.10753e-06
-4.14042e-06
9.52215e-06
3.05472e-07
1.06873e-05
-4.3418e-06
-1.39531e-06
-1.76155e-06
7.98397e-07
-2.41167e-06
-7.48907e-07
1.83098e-06
-3.31204e-06
-1.12345e-06
2.66805e-06
-3.35623e-06
7.29726e-07
3.33914e-06
-2.70415e-06
2.89945e-06
3.65613e-06
-2.18269e-06
2.74576e-06
2.97448e-06
-2.56736e-06
1.19321e-06
1.74267e-06
-3.02635e-06
2.87996e-06
4.74581e-07
-2.642e-06
8.37083e-06
-1.22854e-06
8.94796e-06
-2.44923e-06
-9.98171e-07
-5.57093e-07
-5.7488e-07
-1.25828e-06
6.98758e-07
2.11848e-07
-1.70835e-06
1.7907e-07
1.54868e-06
-1.9732e-06
9.62806e-07
2.14358e-06
-1.56841e-06
2.18074e-06
2.27587e-06
-1.8303e-06
2.60646e-06
1.76747e-06
-2.74979e-06
1.7438e-06
1.09733e-06
-2.82788e-06
2.59775e-06
9.87168e-11
-1.78436e-06
7.30164e-06
-2.03691e-06
7.80736e-06
-2.44281e-06
-7.24926e-07
4.45652e-07
-1.25736e-06
-4.50879e-07
1.62083e-06
-3.36494e-07
-5.26528e-07
1.42959e-06
6.59505e-07
-8.81744e-07
1.81084e-06
1.25055e-06
-1.03924e-06
2.57409e-06
1.4908e-06
-1.61546e-06
3.38039e-06
1.43889e-06
-2.42639e-06
2.76451e-06
6.82685e-07
-2.72018e-06
2.74194e-06
-3.64263e-07
-1.75577e-06
6.25453e-06
-1.87233e-06
6.60296e-06
-2.3989e-06
-3.14174e-07
8.84954e-07
-8.62454e-07
1.71135e-07
1.90205e-06
1.55513e-07
4.59885e-08
2.10983e-06
1.00154e-06
-2.46912e-07
2.45017e-06
1.17347e-06
-7.76898e-07
3.23776e-06
1.36606e-06
-1.46181e-06
4.47192e-06
1.35073e-06
-1.95656e-06
3.9781e-06
3.87418e-07
-2.3633e-06
3.38506e-06
-9.09852e-07
-1.80909e-06
5.35284e-06
-1.79663e-06
5.09541e-06
-1.76884e-06
6.07228e-08
7.64797e-07
-7.23418e-08
5.08076e-07
1.6636e-06
7.86341e-07
3.48735e-07
2.11527e-06
1.49334e-06
1.39948e-07
2.57305e-06
1.31328e-06
-5.13276e-07
3.65502e-06
1.31137e-06
-1.36915e-06
5.39003e-06
1.11496e-06
-1.61928e-06
4.94896e-06
7.69562e-09
-1.77424e-06
4.03897e-06
-1.4672e-06
-1.54007e-06
4.82765e-06
-2.16298e-06
4.23641e-06
-1.23166e-06
3.77742e-07
-2.24993e-08
4.55223e-07
7.58037e-07
7.93376e-07
1.24337e-06
6.27486e-07
1.4702e-06
1.77697e-06
4.66568e-07
1.19847e-06
2.3844e-06
-1.71165e-07
1.03792e-06
3.88358e-06
-1.14436e-06
7.90363e-07
5.99052e-06
-1.47002e-06
-3.70817e-07
5.55936e-06
-1.49506e-06
-1.86784e-06
4.45569e-06
-1.37007e-06
-2.38243e-06
4.6879e-06
-6.26636e-07
4.22238e-06
-2.18293e-07
1.61694e-07
6.58186e-07
-4.01889e-07
1.15305e-07
6.34064e-07
-5.26797e-07
6.87111e-08
5.91846e-07
-5.97157e-07
2.28546e-08
5.69094e-07
-6.11375e-07
-2.37531e-08
5.6069e-07
-5.70212e-07
-7.09302e-08
5.70403e-07
-4.71251e-07
-1.21848e-07
5.96093e-07
-3.14016e-07
-1.75672e-07
6.39422e-07
-1.25544e-07
-2.03599e-07
6.85689e-07
-1.29803e-07
5.8955e-07
-2.10636e-07
2.73852e-07
7.44664e-07
-3.96383e-07