/*--------------------------------*- C++ -*----------------------------------*\
| =========                 |                                                 |
| \\      /  F ield         | OpenFOAM: The Open Source CFD Toolbox           |
|  \\    /   O peration     | Version:  2312                                  |
|   \\  /    A nd           | Website:  www.openfoam.com                      |
|    \\/     M anipulation  |                                                 |
\*---------------------------------------------------------------------------*/
FoamFile
{
    version     2.0;
    format      ascii;
    arch        "LSB;label=32;scalar=64";
    class       volScalarField;
    location    "0.695";
    object      alpha.water;
}
// * * * * * * * * * * * * * * * * * * * * * * * * * * * * * * * * * * * * * //

dimensions      [0 0 0 0 0 0 0];

internalField   nonuniform List<scalar> 
8000
(
1
1
1
1
1
1
1
1
1
1
1
1
1
1
1
1
1
1
1
1
1
1
1
1
1
1
1
1
1
1
1
1
1
1
1
1
1
1
1
1
1
1
1
1
1
1
1
1
1
1
0.999997
0.999999
1
1
1
1
1
1
1
0.997689
0.999852
0.999933
0.99997
0.999991
0.999047
1
1
1
0.995681
0.985272
0.784629
0.827204
0.84606
0.817163
0.736667
0.727874
0.816936
0.907355
0.968403
0.979166
0.13964
0.188024
0.239556
0.268488
0.299149
0.319061
0.361223
0.529561
0.810946
0.925336
6.2723e-06
6.52027e-06
0.000373274
0.00110023
0.00465627
0.0117188
0.0145846
0.0686824
0.375967
0.680248
4.3106e-06
5.99417e-06
2.67546e-05
9.9488e-05
0.000368927
0.000874634
0.00182696
0.00411811
0.0207832
0.208913
4.44415e-06
9.35582e-06
1.86014e-05
5.63905e-05
0.000145894
0.000199716
0.000486194
0.000936143
0.00191607
0.00602309
1.8599e-06
2.94048e-06
6.14737e-06
4.04089e-05
0.000129447
6.16715e-05
0.000110154
0.000238327
0.000535345
0.00201001
7.33501e-07
7.42224e-07
1.16417e-06
1.38575e-05
8.3884e-05
1.97733e-05
2.22074e-05
6.58154e-05
0.000228366
0.0011991
6.28581e-07
6.19462e-07
7.4223e-07
1.32028e-06
3.54885e-05
3.39107e-05
8.72264e-06
0.00010517
0.00106021
0.000500857
6.04452e-07
6.07896e-07
1.66641e-05
7.06364e-06
1.26909e-05
5.54714e-05
1.42593e-05
0.000389591
0.00129688
0.000252088
5.60505e-07
6.04452e-07
4.12861e-05
4.96302e-05
1.94179e-05
3.20592e-05
7.82675e-05
0.000648238
0.000777447
0.000205256
5.38275e-07
6.40477e-07
2.43564e-05
6.09973e-05
1.5469e-05
1.31697e-05
0.000120168
0.00036149
4.04969e-05
7.63837e-05
1.78118e-05
2.15344e-05
3.15679e-05
5.24847e-05
8.79734e-06
5.70301e-06
5.01346e-05
5.31015e-05
6.13157e-05
3.02886e-05
3.07537e-05
2.35361e-05
5.14766e-06
1.88175e-05
7.22939e-06
7.56075e-06
1.69626e-05
9.41913e-05
5.84204e-05
2.14272e-05
1
1
1
1
1
1
1
1
1
1
1
1
1
1
1
1
1
1
1
1
1
1
1
1
1
1
1
1
1
1
1
1
1
1
1
1
1
1
1
1
1
1
1
1
1
1
1
1
1
1
0.999999
1
1
1
1
1
1
1
0.997285
0.999995
0.999908
0.99996
0.999984
1
1
1
1
1
0.999999
0.999995
0.763666
0.810065
0.825868
0.800616
0.773232
0.811028
0.859679
0.931931
0.987312
0.950594
0.037227
0.0450262
0.048985
0.057127
0.0716338
0.108108
0.173218
0.308112
0.500663
0.559371
4.53195e-06
5.64495e-06
4.99005e-06
9.65153e-05
0.000367946
0.000883825
0.00183392
0.00412318
0.0169724
0.0568487
4.52692e-06
3.73779e-06
3.29369e-06
7.83004e-06
7.493e-05
0.000203469
0.00040856
0.0009359
0.00191277
0.00609497
3.37953e-06
6.73492e-06
1.46732e-05
3.53201e-05
5.84507e-05
7.01613e-05
9.68473e-05
0.000237892
0.000535343
0.00269844
1.33646e-06
1.7188e-06
4.04463e-06
3.61515e-05
8.9198e-05
1.08545e-05
1.74381e-05
5.90274e-05
0.00017478
0.000633889
8.72115e-07
8.56882e-07
8.85936e-07
2.08747e-05
0.000104338
6.93842e-06
3.43327e-06
1.51414e-05
5.92485e-05
0.000416552
1.79516e-06
7.42232e-07
8.56882e-07
8.13683e-06
0.000101271
2.8801e-05
3.90576e-06
8.93429e-06
2.48451e-05
0.000346837
6.39565e-06
6.19462e-07
4.37479e-06
1.14817e-05
0.000100856
9.6897e-05
4.19709e-06
5.70492e-06
1.53979e-05
9.42154e-05
7.6519e-06
6.07896e-07
4.23496e-05
1.56909e-05
9.58225e-05
6.91927e-05
3.42006e-06
4.16428e-06
3.17839e-05
0.000151458
1.98613e-06
1.41345e-06
7.26409e-05
5.96949e-05
2.69205e-05
4.3653e-06
2.72719e-06
3.56893e-06
2.90627e-05
0.000349582
1.63564e-05
1.47514e-05
8.05808e-05
7.01488e-05
4.60832e-06
2.9272e-06
3.56726e-06
1.13299e-05
0.000175967
0.000349882
3.02245e-05
7.79539e-06
2.54134e-05
4.91663e-05
5.75203e-06
5.64974e-06
5.45128e-06
1.95077e-05
0.000328656
0.000345353
1
1
1
1
1
1
1
1
1
1
1
1
1
1
1
1
1
1
1
1
1
1
1
1
1
1
1
1
1
1
1
1
1
1
1
1
1
1
1
1
1
1
1
1
1
1
0.999999
1
1
1
0.999999
1
1
1
1
1
1
1
1
1
0.999958
0.999978
0.999991
1
1
1
1
1
1
0.999644
0.777778
0.801483
0.810401
0.792835
0.760903
0.76124
0.792592
0.857889
0.900659
0.810038
0.000206401
1.63418e-05
0.00033132
0.00577423
0.022925
0.0556755
0.106862
0.175983
0.247038
0.357856
1.12958e-05
4.04948e-06
3.28708e-06
7.46334e-06
7.36807e-05
0.000313162
0.000788494
0.0017367
0.00342673
0.0126409
3.87387e-05
2.60602e-06
2.15534e-06
3.30077e-06
6.81764e-06
4.481e-05
0.000121638
0.000303093
0.000740884
0.00286657
1.42265e-06
1.16281e-06
1.59102e-06
2.45687e-06
1.84732e-06
5.83376e-06
1.71013e-05
5.77989e-05
0.000193185
0.000872546
1.04873e-06
9.83679e-07
1.8174e-06
4.46793e-06
3.72361e-06
1.0795e-06
1.87132e-06
1.2216e-05
5.78692e-05
0.000197314
9.29916e-07
9.09066e-07
1.48704e-06
8.47157e-06
5.85718e-06
9.55712e-07
1.29129e-06
3.42797e-06
1.5139e-05
5.92466e-05
1.52935e-06
8.56882e-07
1.1008e-06
4.69245e-06
7.95272e-06
2.4551e-06
3.12075e-06
2.04937e-05
3.46952e-05
5.19833e-05
1.79576e-06
7.95786e-07
1.38189e-05
5.00547e-06
4.30176e-05
3.99478e-06
4.11856e-06
2.41678e-05
4.72582e-05
3.22192e-05
1.62805e-06
8.14274e-07
6.63594e-05
7.16605e-06
4.11859e-05
2.04385e-06
2.59907e-06
5.97099e-06
2.83203e-05
4.42832e-05
1.68953e-06
1.06419e-06
8.48851e-05
2.51212e-05
5.53861e-06
1.79571e-06
2.01436e-06
2.7262e-06
7.88973e-06
0.000340945
3.42909e-06
2.81138e-05
8.46751e-05
6.7104e-05
2.85444e-06
2.01451e-06
2.72579e-06
8.99231e-06
0.000265755
0.000349882
2.28281e-06
2.48384e-05
8.21484e-05
4.5248e-05
4.60898e-06
2.92727e-06
3.71316e-05
0.000268972
0.000331161
0.00030025
1
1
1
1
1
1
1
1
1
1
1
1
1
1
1
1
1
1
1
1
1
1
1
1
1
1
1
1
1
1
0.999999
1
1
1
1
1
1
1
1
1
0.999999
1
1
1
1
1
1
1
1
1
0.999999
1
1
1
1
1
1
1
1
1
0.999987
0.999995
0.999998
1
1
1
1
1
1
0.993469
0.759812
0.788953
0.802466
0.778626
0.742266
0.736516
0.748466
0.773032
0.784173
0.705051
0.000151062
8.94554e-05
0.00010454
0.000160157
0.0111381
0.0396362
0.0884346
0.116406
0.131006
0.305449
0.000205257
1.61523e-05
1.80182e-05
7.15719e-06
1.29601e-05
5.14981e-05
0.000198266
0.000519829
0.00130438
0.00803002
0.000454627
0.000473185
4.61181e-05
2.87594e-06
1.73895e-06
5.31043e-06
1.35273e-05
6.50612e-05
0.000252696
0.00131981
0.00015907
0.000117557
1.7387e-05
1.72673e-06
1.36401e-06
1.08139e-06
1.88577e-06
1.22225e-05
6.57531e-05
0.000271642
1.57622e-06
1.08682e-06
1.61123e-06
1.40355e-06
1.08683e-06
9.55775e-07
1.08255e-06
3.29139e-06
4.03275e-05
8.24093e-05
0.000152528
4.24315e-05
5.97315e-06
1.42998e-06
9.54864e-07
9.48579e-07
9.5533e-07
4.77415e-05
0.000153305
0.000107693
0.000189282
8.24068e-05
1.85839e-05
7.85511e-06
9.67714e-07
9.55804e-07
1.03934e-05
0.00011948
0.000156411
6.30178e-05
0.000187696
7.63518e-05
7.70456e-05
1.25042e-05
1.23989e-06
9.67903e-07
7.88288e-06
9.23644e-05
0.000126973
6.1873e-06
0.000184835
4.84156e-05
8.52397e-05
1.90363e-05
1.59268e-06
1.23991e-06
2.17682e-06
6.20726e-06
1.44928e-05
1.85371e-06
0.000179748
3.68104e-05
8.60306e-05
4.38385e-05
1.7957e-06
1.59269e-06
1.79556e-06
2.58333e-06
3.55951e-06
5.56054e-05
3.02368e-05
3.89378e-05
8.58769e-05
7.61787e-05
2.09791e-06
2.17947e-06
4.5758e-05
9.08557e-05
5.35593e-05
0.000114836
2.05099e-07
3.39432e-05
8.46751e-05
4.39851e-05
2.12093e-06
4.50342e-05
0.000346548
0.000366052
0.000231948
6.43353e-07
1
1
1
1
1
1
1
1
1
1
1
1
1
1
1
1
1
1
1
1
1
1
1
1
1
1
1
1
1
1
0.999998
1
1
1
1
1
1
1
1
1
0.999876
1
1
1
1
1
1
1
1
1
0.998565
0.999989
1
1
1
1
1
1
1
1
0.99888
0.999988
1
1
1
1
1
1
1
0.988309
0.72167
0.696547
0.77708
0.777612
0.764079
0.767375
0.762092
0.739116
0.724372
0.696576
0.00118635
0.000360562
0.000807785
0.0167522
0.0556877
0.110865
0.143647
0.105909
0.0959238
0.226283
0.00015351
0.000169736
0.000122657
3.53102e-05
2.05945e-05
1.20459e-05
1.36477e-05
0.000124035
0.000560613
0.00228809
0.000383206
0.000568418
0.000370493
8.26494e-06
1.24208e-05
6.50987e-06
2.74598e-06
1.48544e-05
0.00011203
0.000597933
2.746e-05
0.000399443
7.84125e-05
2.64873e-06
1.17392e-06
5.36339e-06
1.19234e-06
2.44282e-05
5.32949e-05
0.000156782
5.47197e-05
4.77066e-06
2.37658e-05
4.35747e-06
9.84236e-07
9.52282e-07
9.84167e-07
6.45953e-05
0.000257928
8.97234e-05
0.000189282
0.000110119
3.05456e-05
1.04953e-06
9.49435e-07
9.52284e-07
2.82878e-06
9.73987e-05
0.000254196
3.66459e-05
0.000189282
0.000164173
3.53755e-05
5.85992e-06
2.13788e-06
9.52284e-07
1.53501e-05
4.40296e-05
8.94894e-05
5.76203e-06
0.000189282
6.8408e-05
4.17889e-05
6.00882e-05
6.7104e-06
1.31209e-06
2.4473e-06
1.58667e-06
1.19117e-06
1.42226e-06
0.000187696
4.36533e-05
8.60306e-05
8.51917e-05
1.53612e-06
1.44193e-06
1.53612e-06
1.4505e-06
1.05734e-06
1.05286e-06
4.24369e-05
4.17934e-05
8.60306e-05
8.4102e-05
1.84509e-06
1.90569e-06
5.43642e-06
3.6377e-06
2.92978e-06
4.12742e-06
1.86221e-06
3.68522e-05
8.60306e-05
8.45821e-05
1.00873e-06
2.74939e-05
0.000231131
0.000240922
1.72338e-05
6.43353e-07
5.7156e-07
2.62572e-05
8.58769e-05
4.57788e-05
4.20513e-07
3.34876e-05
0.000348244
0.000371486
0.000214971
4.96549e-07
1
1
1
1
1
1
1
1
1
1
1
1
1
1
1
1
1
1
1
1
1
1
1
1
1
1
1
1
1
1
1
1
1
1
1
1
1
1
1
1
1
0.99993
0.999999
1
1
1
1
1
1
1
0.952044
0.998687
1
1
1
1
1
1
1
1
0.970139
0.999312
1
1
1
1
1
1
0.999039
0.999993
0.774974
0.680992
0.804393
0.87475
0.850876
0.814522
0.771939
0.734206
0.734736
0.77106
0.133065
0.0764385
0.143774
0.262465
0.327376
0.298721
0.203651
0.099346
0.084644
0.154071
3.22287e-05
9.07606e-05
0.000841315
0.000870643
6.97478e-05
2.16911e-05
1.02021e-05
2.88306e-05
0.000219286
0.00101014
2.74594e-05
3.89765e-05
0.000252387
0.000200057
9.36954e-05
1.04745e-05
6.88422e-06
1.57603e-05
3.18477e-05
0.000251155
2.1215e-05
2.3178e-05
6.80308e-05
0.000165495
0.000160338
4.88521e-05
2.28429e-06
0.000166751
0.000215507
9.31826e-05
2.87401e-05
5.29964e-05
7.15346e-06
2.62568e-06
1.17413e-06
1.07602e-06
1.19588e-06
8.76865e-05
0.000215019
2.62223e-05
0.000175227
0.000162592
3.10612e-05
1.27658e-06
1.01711e-06
9.52284e-07
6.02955e-06
5.06483e-06
2.95303e-05
8.06618e-06
0.000189282
0.000146643
2.68524e-05
1.48227e-06
1.27659e-06
2.74275e-06
1.57493e-05
3.03443e-06
1.19117e-06
1.42225e-06
4.57338e-05
3.57028e-06
6.61446e-06
3.90691e-05
7.99287e-06
1.81353e-06
4.2255e-06
4.02082e-06
1.05734e-06
1.05286e-06
1.50573e-05
5.5837e-06
6.48277e-05
8.17194e-05
5.30091e-06
1.53612e-06
1.62136e-06
1.05734e-06
1.05286e-06
1.05286e-06
4.55489e-06
2.00952e-05
8.60306e-05
8.57463e-05
1.21095e-06
1.10993e-05
3.85966e-05
4.86419e-06
2.24782e-06
2.93675e-06
2.87233e-06
2.16105e-05
8.58769e-05
7.7902e-05
2.65425e-07
1.42868e-05
0.000150881
0.000216808
1.11884e-05
6.31503e-06
2.75455e-06
9.51123e-06
4.27966e-05
3.02869e-05
1.82741e-07
2.07514e-07
0.000111274
0.000362748
6.4037e-05
4.69811e-07
1
1
1
1
1
1
1
1
1
1
1
1
0.999999
0.999998
1
1
1
1
1
1
1
1
0.999976
0.999999
1
1
1
1
1
1
1
0.999997
0.999995
0.999997
1
1
1
1
1
1
1
1
1
1
1
1
1
1
1
1
1
1
1
1
1
1
1
1
1
1
0.962951
0.999988
0.999997
1
0.999999
1
1
1
0.999996
0.999965
0.804182
0.814339
0.947181
0.986656
0.9656
0.915686
0.829329
0.75806
0.770457
0.796821
0.457121
0.476659
0.54052
0.60718
0.542713
0.39314
0.211153
0.113768
0.0966744
0.137768
3.4194e-05
0.00785991
0.00681232
0.0100046
0.000111303
2.62246e-05
1.07217e-05
4.4487e-05
6.45647e-05
0.000568318
2.12148e-05
2.80729e-05
0.000161969
0.00026848
0.000147864
1.10726e-05
6.83564e-06
7.24736e-05
1.60628e-05
6.52828e-05
1.53484e-05
2.24898e-05
0.000655817
0.000725664
0.000654658
4.40987e-05
2.54328e-06
1.77865e-05
3.97968e-05
5.81407e-05
1.55797e-05
1.33453e-05
2.39297e-05
3.97381e-05
2.03656e-06
1.28718e-06
2.19856e-06
2.54533e-06
2.60208e-05
9.23211e-05
2.41392e-05
3.53485e-05
2.53149e-05
1.87411e-06
1.27659e-06
1.53401e-06
2.33502e-06
3.13779e-06
1.56421e-05
0.000107478
1.75179e-05
5.00325e-05
1.46916e-05
1.50392e-06
1.48227e-06
5.92158e-06
2.22118e-05
1.28186e-05
3.3857e-06
3.34481e-05
1.14312e-06
1.29921e-06
5.80801e-06
1.33899e-06
2.00452e-06
3.52522e-06
4.11658e-05
1.75693e-05
1.0665e-06
1.41259e-06
1.88358e-06
1.07448e-06
7.64184e-06
2.67084e-05
2.00625e-06
3.01588e-06
4.11658e-05
4.67934e-06
1.05734e-06
1.05285e-06
1.21201e-05
3.25227e-06
3.2706e-05
3.47014e-05
4.97009e-07
4.3867e-06
4.11658e-05
8.71616e-06
1.0665e-06
1.08434e-06
1.87587e-05
2.01113e-06
2.12049e-05
1.83552e-05
1.83017e-07
6.18691e-07
3.67812e-05
4.88998e-05
1.63621e-06
3.11985e-06
7.77043e-06
2.54603e-07
1.34159e-06
1.35025e-06
1.75929e-07
1.83033e-07
1.54125e-05
8.14524e-05
5.57962e-06
5.52823e-06
1
1
1
1
1
1
1
1
1
1
1
0.999987
0.999966
1
1
1
1
1
1
1
0.999996
0.999956
0.999954
0.999987
1
0.999998
1
1
1
1
0.999991
0.999997
0.999974
0.999999
1
1
1
1
1
1
0.999985
0.998371
1
1
1
1
1
1
1
1
0.994752
0.989326
0.999418
0.999999
0.999998
1
1
1
1
0.999999
0.976459
0.995863
0.990816
0.99998
0.999946
0.999994
1
0.999998
0.999986
0.999936
0.970868
0.976738
0.999027
0.999612
0.992885
0.982049
0.931924
0.85024
0.828687
0.821173
0.796231
0.73713
0.704524
0.648167
0.384966
0.176701
0.105726
0.126521
0.126325
0.164773
0.0893986
0.0160413
0.00836962
0.00468196
0.000143867
5.91806e-05
1.67036e-05
1.46047e-05
1.5924e-05
0.000101776
3.4329e-05
9.23483e-05
6.76492e-05
0.000120548
5.97286e-05
1.78319e-05
5.56277e-06
7.99628e-06
1.43364e-05
1.60147e-05
0.000430878
0.000217527
2.69459e-05
0.000126809
0.000133322
9.39822e-06
3.43399e-06
5.58994e-06
9.35751e-06
1.36121e-05
8.27912e-06
1.49107e-05
1.86362e-05
5.40165e-05
0.000130737
1.45569e-05
2.99648e-06
4.43496e-06
2.61018e-05
6.44154e-05
7.18399e-06
5.76825e-05
6.8277e-05
0.000121127
0.000212227
1.49994e-05
5.44346e-06
6.63125e-06
7.76099e-05
0.000113354
5.58091e-06
7.53518e-06
3.04824e-05
9.59634e-05
1.55581e-05
8.34005e-07
7.01282e-06
4.95137e-06
4.40447e-05
0.000112803
1.04058e-06
1.04057e-06
9.23512e-07
7.90479e-07
7.60817e-07
8.21605e-07
9.63311e-06
4.78486e-06
7.87231e-06
3.8686e-05
1.07449e-06
1.04056e-06
9.41456e-07
7.60817e-07
7.47258e-07
7.60817e-07
1.05776e-05
3.20337e-06
1.1403e-06
1.51197e-05
2.37211e-06
9.85637e-07
1.11827e-06
7.60807e-07
5.57349e-07
7.60817e-07
6.44597e-06
1.81773e-06
1.07221e-06
1.02671e-06
5.72134e-06
8.6322e-07
1.08711e-06
1.83877e-06
2.66036e-07
4.47687e-06
2.62982e-06
1.08001e-06
9.80643e-07
8.23795e-07
4.07699e-06
6.23122e-07
8.63215e-07
1.39793e-06
1.82973e-07
6.94907e-05
1.96686e-05
1.29477e-06
3.94417e-06
2.63751e-07
1
1
1
1
1
1
1
1
1
1
1
0.999995
0.999989
1
1
1
1
1
1
1
1
0.999961
0.999954
0.999981
0.999998
0.999879
0.999996
1
1
1
1
0.999994
0.999987
0.999999
0.99994
0.998668
0.999962
1
1
1
1
0.999875
0.999996
0.999786
0.999037
0.999938
0.999998
1
1
1
0.999797
0.983015
0.971436
0.990115
0.990821
0.999983
0.999999
1
1
0.999998
0.995996
0.943668
0.938543
0.970521
0.988914
0.998234
0.999982
0.999998
0.999986
0.999894
0.999748
0.999748
0.999295
0.950956
0.57544
0.653805
0.923783
0.950035
0.880208
0.826687
0.994061
0.680228
0.375943
0.161854
0.00443807
0.00403932
0.033493
0.0919138
0.163972
0.193169
0.208888
0.000534623
0.000397671
0.000383623
0.000419851
0.00124949
0.000130253
7.09326e-05
1.66418e-05
0.000203816
0.000267454
0.000333667
0.000252909
0.000202645
0.00113032
0.00139724
1.73989e-05
1.49287e-05
9.53916e-06
1.67578e-05
0.00066212
0.000496532
0.000195318
0.000141681
0.0017177
0.0010936
6.25702e-05
4.5533e-05
8.48704e-06
9.54298e-06
1.72836e-05
1.15781e-05
1.33729e-05
0.000316446
0.00262439
0.00109573
0.000102055
4.54124e-05
2.54176e-05
2.03467e-05
6.49138e-06
8.19101e-06
0.000248372
0.00206963
0.00262449
0.000462693
2.18913e-05
1.40145e-05
0.000101937
0.000109414
4.1001e-06
5.64323e-06
0.000937918
0.00259491
0.00262449
0.000157575
2.70568e-06
7.982e-06
9.80005e-05
0.000123598
1.14314e-06
1.04036e-06
0.00104042
0.00253042
0.00257858
0.000104699
1.6665e-06
1.34467e-06
1.9643e-05
0.000123598
1.29929e-06
1.70099e-06
0.000279916
0.00184905
0.00248252
0.00022883
1.29994e-06
1.22891e-06
7.55499e-06
4.90109e-05
1.71158e-06
1.29554e-06
8.72006e-06
0.000151529
0.00192106
0.00112747
1.82429e-06
1.08317e-06
3.86439e-06
9.42332e-06
1.4901e-06
1.08711e-06
2.87178e-06
3.53487e-06
0.000376
0.00159743
9.28319e-06
1.02428e-06
8.95498e-07
1.50794e-05
1.36438e-06
8.6322e-07
3.7442e-06
3.77431e-05
0.000192057
0.00160459
7.12097e-06
1.08906e-06
2.09805e-06
1.39105e-05
0.984602
1
1
1
1
1
1
1
1
1
0.989854
1
1
1
1
1
1
1
1
1
0.980064
1
0.999988
0.999996
1
0.999777
0.999877
0.999999
1
1
0.977737
0.99982
0.999995
0.999998
0.997706
0.985643
0.998719
1
1
1
0.980576
0.999991
0.999994
0.995239
0.910268
0.970405
0.999999
1
1
1
0.993647
0.999989
0.968153
0.856447
0.856264
0.98215
0.999975
0.999999
1
0.999998
0.99976
0.999916
0.942707
0.825798
0.807056
0.800792
0.95532
0.999801
0.999993
0.999866
0.999372
0.962259
0.912257
0.594149
0.112421
0.0458364
0.315549
0.922806
0.934596
0.812697
0.797874
0.172326
0.036254
0.00483709
0.00743104
0.0159747
0.00849844
0.036039
0.193363
0.231601
0.0423453
0.000930125
0.00068324
0.00952132
0.017852
0.0252012
0.0056858
0.0014809
3.92533e-05
0.00034818
0.000213863
0.00161345
0.00169656
0.0129421
0.0254791
0.0297354
0.00338257
0.00129826
5.77172e-06
4.00337e-05
0.000195801
2.55906e-05
0.00153212
0.000118187
0.00249269
0.0297354
0.00147783
0.00177239
9.36203e-06
8.855e-06
1.03845e-05
1.33729e-05
2.55248e-05
6.70829e-05
0.000112084
0.0064022
0.000822295
3.82995e-05
8.97727e-06
9.65014e-06
6.58291e-06
3.56274e-05
5.46817e-05
0.000147905
0.000171304
7.20646e-05
0.000487514
1.12867e-05
9.77227e-06
1.01513e-05
6.68316e-06
3.43758e-05
0.00042214
0.000240289
0.000220659
3.77964e-05
4.38761e-05
0.000105809
1.53026e-05
0.000101151
4.3093e-06
0.000477241
0.00103113
0.000254324
0.000173388
8.54245e-06
8.42872e-06
0.000122395
2.20978e-05
8.37928e-05
0.00010496
0.000952087
0.000952527
0.000301439
0.000141912
6.95994e-05
1.36022e-05
0.000123759
9.88244e-06
3.53856e-05
0.000233869
0.000944494
0.000953116
0.000476209
0.000140438
0.000618678
1.29703e-05
0.000111604
3.7087e-06
2.88637e-05
0.000220946
0.000918581
0.000948902
0.000484579
0.000139024
0.000982173
9.55733e-06
1.11712e-05
7.02805e-07
2.79191e-05
0.000120658
0.000710105
0.000939409
0.000251521
9.80565e-05
0.00042391
7.68646e-06
7.87455e-06
8.46829e-08
2.65317e-05
0.977543
0.998644
1
1
1
1
1
1
1
1
0.979055
1
1
1
1
1
1
1
1
1
0.978757
1
1
1
1
1
0.999744
0.999997
1
1
0.977778
1
0.999602
0.999916
1
0.987278
0.997738
1
1
1
0.982669
0.99996
0.996266
0.997507
0.912375
0.926377
0.998576
1
1
1
0.996198
0.999958
0.986474
0.876317
0.822921
0.922601
0.998875
0.999982
1
0.999998
0.998792
0.999927
0.966643
0.84046
0.686234
0.442965
0.612957
0.976874
0.999982
0.999898
0.973635
0.665845
0.624056
0.44246
0.0435635
0.012906
0.0148561
0.477441
0.970589
0.826828
0.369964
0.00208763
0.00229067
0.00310394
0.00892699
0.0210905
0.0139042
0.00182545
0.198342
0.339114
0.000589213
0.00203884
0.00245791
0.00952835
0.0248672
0.0280256
0.0280256
0.00151194
3.88893e-05
0.000220195
0.000667769
0.00334485
0.00458471
0.010764
0.0261761
0.0231513
0.0104853
0.0037632
3.13281e-06
4.47806e-05
0.000863996
0.000477992
0.000842719
0.000358205
0.0051335
4.35353e-05
2.62324e-05
0.00118139
1.70323e-05
1.38178e-05
0.00147091
0.000538632
0.000257636
0.000423997
5.22945e-05
4.95483e-05
1.94593e-05
1.49617e-05
1.92004e-05
8.31208e-06
0.00274143
0.00181355
0.000601779
0.000515252
0.000119904
0.000153691
0.000112394
1.41409e-05
1.36413e-05
2.17209e-06
0.00294645
0.00169828
0.000330568
0.000458347
0.000573078
0.00033437
0.000230995
7.6712e-05
9.97256e-06
1.78623e-06
0.000785453
0.000164994
0.000121765
0.00108966
0.00133258
0.000158102
0.000104465
0.000121897
1.2465e-05
1.77751e-06
1.78161e-05
2.75702e-05
0.00013825
0.00110693
0.00141691
4.32705e-05
3.80323e-05
0.000116922
1.64882e-05
1.78623e-06
3.74362e-05
0.000172664
0.000152649
0.000309472
0.000522405
4.16095e-05
2.37437e-05
5.21784e-05
1.98587e-05
1.22451e-05
8.88894e-05
0.000303781
0.000147937
5.97107e-05
9.5166e-05
0.000470652
1.0345e-05
1.61205e-05
9.71178e-06
1.86621e-05
7.07635e-05
0.000332744
0.000117689
4.88575e-05
8.57311e-05
0.00102641
3.26773e-06
1.08256e-06
4.74359e-07
1.81202e-05
0.999585
1
1
1
1
1
1
1
1
1
1
0.999994
0.999993
1
1
1
1
1
1
1
1
1
1
1
0.999986
0.999946
0.999979
1
1
1
1
0.999784
0.997824
0.998225
0.999869
0.997738
0.999809
1
1
1
0.999899
0.979249
0.951625
0.990546
0.999994
0.993178
0.999746
1
1
1
0.999872
0.958537
0.973967
0.999962
0.986155
0.989838
0.999961
0.999999
1
0.999999
0.999862
0.998167
0.998622
0.977888
0.840679
0.740935
0.912
0.998562
0.999998
0.999919
0.97009
0.83051
0.835522
0.627986
0.105535
0.00910743
0.134663
0.845639
0.95789
0.809953
0.448638
0.0383497
0.0278859
0.00281834
0.0035701
0.00803466
0.0057016
0.0268696
0.267196
0.299585
0.000306908
0.000202557
0.00043376
0.002476
0.00285607
0.00327773
0.00122372
4.67111e-06
3.18561e-06
3.54431e-05
0.00248287
0.002025
0.000842511
0.000449428
0.000566503
1.10457e-05
4.70623e-06
3.29776e-06
3.08692e-06
2.39099e-06
0.00383734
0.00383734
0.00328135
0.000195632
1.59297e-05
2.0338e-05
7.3212e-06
3.64946e-06
3.46403e-06
3.75726e-06
0.00384772
0.00380978
0.00372324
0.00153194
1.34376e-05
1.20079e-05
8.13133e-05
8.11871e-06
4.04302e-06
5.38716e-06
0.00380195
0.00372324
0.003563
0.00255015
0.000963646
0.000151169
0.000588887
7.47739e-05
2.91808e-06
2.05786e-06
0.00325643
0.0025687
0.00162196
0.00267723
0.00243186
0.000538387
0.000597796
0.000237648
2.05851e-06
1.77751e-06
0.000281147
3.72963e-05
9.57317e-05
0.00256036
0.00242683
0.000523443
0.000602838
0.000494213
7.1407e-06
1.77751e-06
1.12375e-05
1.29102e-05
0.000128375
0.00243717
0.00223006
0.00016299
0.000597796
0.000571103
2.56441e-05
1.77751e-06
8.95092e-06
1.08619e-05
0.000212175
0.00149383
0.00149506
4.99691e-05
0.000161979
0.000549655
3.18111e-05
1.85063e-06
8.94299e-06
1.12629e-05
9.13358e-05
0.000129371
0.000229337
1.32417e-05
6.6777e-06
0.000189236
2.15444e-05
2.12828e-06
1.30192e-05
1.24925e-05
1.49133e-05
3.56958e-05
9.13503e-05
0.000442389
4.24506e-06
3.04344e-06
1.69745e-06
1.25784e-06
1
1
0.999999
1
1
1
1
1
1
1
1
0.99999
0.99998
1
1
1
1
1
1
1
1
1
1
0.999993
1
0.999996
1
1
1
1
0.999927
0.998001
0.997972
0.999999
0.999997
1
1
1
1
1
0.99753
0.956007
0.992303
0.999962
1
0.999999
0.999997
1
1
1
0.999516
0.980946
0.998813
0.999992
0.999994
0.999993
0.999999
1
1
1
0.91458
0.998622
0.999152
0.999962
0.992504
0.988474
0.99937
0.999998
1
0.999971
0.901732
0.976504
0.978194
0.912224
0.542685
0.354544
0.761663
0.99069
0.911856
0.765677
0.573503
0.306409
0.252979
0.1044
0.012316
0.00502002
0.0222672
0.12232
0.269338
0.215313
0.00014241
8.07636e-05
8.42514e-05
7.01646e-05
2.78721e-05
6.62899e-06
3.18934e-06
3.31002e-06
3.04292e-06
0.000104155
0.000720518
8.54156e-05
8.43562e-05
3.22745e-05
1.04197e-05
5.67864e-06
3.35803e-06
3.01269e-06
2.96995e-06
2.3725e-06
0.00365581
0.00132227
7.75862e-05
1.58819e-05
1.18546e-05
2.8975e-05
1.25205e-05
2.84989e-06
2.85063e-06
2.97373e-06
0.00380195
0.0032909
0.00105864
1.80797e-05
3.2379e-06
9.8871e-06
9.06758e-06
4.13207e-06
7.34846e-06
6.61189e-06
0.00372156
0.00350996
0.00273349
0.000136052
1.18046e-06
2.91211e-06
0.000106482
4.50626e-05
2.70112e-06
2.19707e-06
0.00207318
0.00310652
0.00228679
0.000205958
6.90462e-07
1.65799e-06
0.000494655
0.000212438
2.24741e-06
1.87496e-06
2.29004e-05
0.000204526
0.000116487
0.000196738
3.44618e-07
3.32452e-07
0.000595526
0.000294618
4.02668e-06
1.77751e-06
1.78161e-05
1.32859e-05
2.41766e-05
0.000299651
2.18375e-07
0.00010875
0.00052169
0.000320849
2.11541e-05
1.85063e-06
2.42456e-05
2.03395e-05
3.18e-05
0.000262175
1.95641e-07
0.000225326
0.000153664
0.00025311
4.18503e-05
2.35885e-06
0.000613122
0.000217976
6.7832e-05
0.000112038
1.9205e-07
3.74427e-05
3.02011e-06
0.000119318
0.000207366
3.56346e-06
0.0010671
0.000199389
0.000456968
0.000758816
0.000169139
4.30835e-07
3.38012e-06
5.88232e-05
0.000141714
3.76235e-06
1
1
1
1
1
1
1
1
1
1
1
1
0.999999
0.999999
1
1
1
1
1
1
1
1
0.99999
0.999999
1
1
1
1
1
1
1
0.99959
1
0.999999
1
1
1
1
1
1
0.9958
0.996857
1
1
1
1
1
1
1
1
0.889608
0.999876
0.999994
1
1
1
1
1
1
1
0.865588
0.984917
0.999975
0.999994
0.999992
0.999994
0.999999
1
1
0.999997
0.895734
0.970026
0.956083
0.929937
0.942449
0.924365
0.95095
0.929701
0.826844
0.692673
0.555664
0.420615
0.382696
0.359728
0.109683
0.063729
0.0790682
0.200966
0.208591
0.130778
5.50103e-05
3.27751e-05
3.74613e-05
0.00034778
0.000128485
4.60192e-05
6.36866e-06
0.000365041
3.22903e-06
6.37464e-05
6.91193e-05
1.98801e-05
0.000113251
0.000105362
3.71665e-05
9.03572e-06
3.60197e-06
2.854e-06
2.99609e-06
2.79754e-06
0.00125829
6.82233e-05
0.000399862
0.000383105
0.000104151
3.24103e-06
2.85352e-06
2.77791e-06
2.83301e-06
2.74442e-06
0.0036328
0.000520676
0.000366223
3.29969e-05
1.19745e-06
3.35383e-06
2.43204e-05
5.19116e-06
8.76598e-06
7.63153e-06
0.00362251
0.00197852
8.90921e-05
1.19714e-06
6.9154e-07
3.66252e-06
4.40328e-05
1.17835e-05
3.15452e-06
2.94025e-06
0.00355776
0.00323608
0.000147573
6.91501e-07
3.47067e-07
2.61838e-06
9.82743e-06
1.57386e-05
4.70756e-06
3.94906e-06
0.00306571
0.00118278
0.000120613
3.46951e-07
2.18426e-07
2.06313e-07
2.52662e-07
1.2081e-05
2.13207e-05
2.05136e-05
0.000484573
2.41766e-05
7.94714e-05
2.18229e-07
1.88471e-07
1.94361e-07
2.06304e-07
1.15244e-05
8.7194e-05
4.43624e-05
0.000102639
4.32314e-05
0.000454615
1.88146e-07
1.88472e-07
2.05633e-07
2.02329e-07
6.27053e-07
0.000286953
4.52774e-05
0.000539203
9.23896e-05
0.000560755
5.36643e-07
1.88472e-07
1.9248e-07
2.78266e-07
3.54645e-05
0.000458674
0.000105893
0.000734516
0.000320899
0.000562855
5.32783e-07
1.9248e-07
2.13909e-07
4.30827e-07
9.0122e-05
0.000460846
1.57804e-05
1
1
1
1
1
1
1
1
1
1
1
1
1
1
1
1
1
1
1
1
1
0.999999
1
1
1
1
1
1
1
1
1
0.999956
0.999999
1
1
1
1
1
1
1
0.928164
0.999893
1
1
1
1
1
1
1
1
0.868347
0.991871
0.999999
1
1
1
1
1
1
1
0.870308
0.988958
0.999959
0.999997
1
1
1
1
1
0.999962
0.95356
0.925149
0.85812
0.872614
0.897627
0.896007
0.870905
0.834604
0.790985
0.652144
0.407912
0.332364
0.312428
0.342034
0.211228
0.116601
0.118554
0.180716
0.148748
0.0710962
1.93875e-05
1.30847e-05
1.66284e-05
3.7325e-05
0.000653737
0.000253078
0.000778587
2.78791e-06
2.30316e-05
0.00048282
1.38703e-05
5.98583e-06
6.1807e-05
0.000262193
4.51061e-05
1.40378e-05
3.19112e-06
2.77494e-06
3.16084e-06
2.3107e-05
2.28823e-05
4.87164e-06
0.000150211
0.000371273
0.000198342
3.3683e-06
2.77776e-06
2.77828e-06
2.77588e-06
3.9964e-06
0.00103618
2.06912e-05
3.07354e-05
4.8284e-06
3.00823e-06
7.41727e-06
2.20426e-05
2.38381e-05
5.67064e-06
4.91786e-06
0.00312081
0.000345417
6.97144e-06
3.00823e-06
3.37881e-06
1.6435e-05
4.55318e-05
9.64645e-06
3.389e-06
3.68097e-06
0.00345232
0.000977328
1.14951e-05
2.94414e-05
3.49154e-06
8.82353e-06
4.56746e-05
1.57509e-05
3.95073e-06
4.19177e-06
0.00335297
0.00115866
1.04328e-05
5.55149e-05
8.84514e-07
2.52655e-07
4.14886e-05
0.000148325
2.75965e-05
3.17119e-05
0.0019829
0.000670174
9.0899e-06
5.63132e-05
2.18659e-07
2.063e-07
2.38504e-05
0.000147809
6.22388e-05
7.57607e-05
0.000158943
0.000127379
4.04839e-05
2.8022e-05
1.8847e-07
1.94359e-07
2.26033e-07
0.00011907
0.000452198
0.000246289
0.000133812
0.000107023
3.9296e-05
1.64887e-05
1.9248e-07
2.03194e-07
2.49024e-06
0.00013702
0.000470412
0.000494325
0.000980319
0.0009639
3.11352e-05
3.12905e-05
2.03198e-07
2.56334e-07
1.07044e-05
0.000160936
0.00048762
0.000277598
1
1
1
1
1
1
1
1
1
1
1
1
1
1
1
1
1
1
1
1
1
1
1
1
1
1
1
1
1
1
0.998102
0.999726
1
1
1
1
1
1
1
1
0.964202
0.997695
1
1
1
1
1
1
1
1
0.949122
0.995595
0.999999
1
1
1
1
1
1
1
0.987977
0.999369
0.999973
0.999999
1
1
1
1
1
1
0.959443
0.89268
0.802583
0.789423
0.790558
0.777229
0.744281
0.763308
0.794483
0.663967
0.245073
0.190947
0.168251
0.218686
0.181464
0.10183
0.105023
0.130082
0.108404
0.0725133
7.34019e-06
5.57334e-06
7.79551e-06
1.65242e-05
4.0556e-05
9.36247e-06
4.00515e-06
6.99589e-05
0.000243057
0.000824478
3.85279e-06
2.96353e-06
6.34998e-06
9.94231e-05
5.13777e-05
4.70562e-06
3.49794e-06
3.14318e-06
2.33449e-05
0.00017313
3.81685e-06
2.52029e-06
3.45896e-06
7.40968e-05
6.98232e-05
1.22046e-05
2.85483e-06
2.77781e-06
4.00953e-06
3.0438e-05
1.52077e-05
7.13684e-06
8.47214e-06
8.4354e-06
7.81469e-06
3.41893e-06
2.93886e-06
3.03477e-06
3.39009e-06
7.60099e-06
0.000249285
3.75221e-05
6.98365e-06
4.80012e-06
4.49147e-06
2.66305e-06
2.84377e-06
2.93886e-06
3.12634e-06
3.99055e-06
0.0010183
7.84585e-05
7.01001e-06
6.53124e-06
3.79634e-06
1.7666e-06
3.43081e-06
3.12635e-06
3.44931e-06
3.73111e-06
0.00186957
0.000105614
8.17202e-06
1.61599e-05
4.10082e-06
7.46834e-07
1.40651e-05
1.08157e-05
4.39183e-06
5.42545e-06
0.00215524
5.73902e-05
8.76878e-06
1.01238e-05
2.6967e-06
2.96545e-07
1.27215e-05
9.32059e-05
4.8973e-06
6.50374e-06
0.00155101
1.16569e-05
9.56855e-06
9.36477e-07
1.02659e-06
2.53328e-07
3.86633e-06
0.000137002
7.86506e-05
0.000291349
0.000735392
1.13646e-05
5.47244e-05
2.72365e-07
2.03198e-07
3.41747e-07
1.64911e-05
0.000106224
0.000451244
0.000515306
0.0003966
3.31695e-05
7.56622e-05
3.23087e-07
2.72205e-07
4.56908e-07
3.03253e-05
0.000107439
0.000514971
0.000512834
1
1
1
1
1
1
1
1
1
1
1
1
1
1
1
1
1
1
1
1
0.999998
1
1
1
1
1
1
1
1
1
0.999943
0.999996
1
1
1
1
1
1
1
1
0.999976
0.999955
0.999999
1
1
1
1
1
1
1
0.999977
0.999961
1
1
1
1
1
1
1
1
0.999688
0.999968
0.999998
1
1
1
1
1
1
1
0.924476
0.891335
0.830138
0.773214
0.713678
0.663424
0.665626
0.732434
0.815544
0.739942
0.152163
0.124231
0.0815663
0.0913414
0.11691
0.0800981
0.0772387
0.0859395
0.122532
0.0979483
3.49631e-06
2.96371e-06
4.17161e-06
7.63145e-06
1.4244e-05
6.93099e-06
5.31498e-05
0.000387475
0.000891865
0.00150655
2.40886e-06
2.32156e-06
2.75925e-06
4.24502e-06
8.0626e-06
4.48177e-06
3.58501e-06
3.7428e-05
0.000158176
0.000367296
2.15893e-06
2.18926e-06
2.28718e-06
3.28051e-06
4.49759e-06
3.87634e-06
3.01663e-06
3.47463e-06
3.10168e-05
9.26636e-05
2.40307e-06
3.76042e-06
2.10727e-05
3.05827e-05
9.82726e-06
3.01665e-06
2.93324e-06
3.01665e-06
8.40121e-06
2.45862e-05
6.67213e-06
6.74442e-06
3.24621e-05
3.2769e-05
1.4001e-05
2.94275e-06
2.93886e-06
3.12635e-06
3.99205e-06