/*--------------------------------*- C++ -*----------------------------------*\
| =========                 |                                                 |
| \\      /  F ield         | OpenFOAM: The Open Source CFD Toolbox           |
|  \\    /   O peration     | Version:  2312                                  |
|   \\  /    A nd           | Website:  www.openfoam.com                      |
|    \\/     M anipulation  |                                                 |
\*---------------------------------------------------------------------------*/
FoamFile
{
    version     2.0;
    format      ascii;
    arch        "LSB;label=32;scalar=64";
    class       surfaceScalarField;
    location    "0.47";
    object      alphaPhi0.water;
}
// * * * * * * * * * * * * * * * * * * * * * * * * * * * * * * * * * * * * * //

dimensions      [0 3 -1 0 0 0 0];

oriented        oriented;

internalField   nonuniform List<scalar> 
22600
(
1.23409e-07
5.48744e-08
-1.77551e-07
2.28617e-07
6.23821e-08
-1.6759e-07
3.04126e-07
7.73763e-08
-1.52885e-07
3.44147e-07
9.78747e-08
-1.37896e-07
3.47327e-07
1.21328e-07
-1.24508e-07
3.17832e-07
1.4438e-07
-1.14886e-07
2.60524e-07
1.65699e-07
-1.08391e-07
1.84968e-07
1.78698e-07
-1.03141e-07
1.03245e-07
1.79351e-07
-9.76274e-08
2.09837e-07
-1.06592e-07
1.54828e-07
1.14675e-07
-2.12027e-07
2.89077e-07
1.31475e-07
-2.03341e-07
3.9272e-07
1.6358e-07
-1.89847e-07
4.56399e-07
2.09191e-07
-1.74994e-07
4.75299e-07
2.64575e-07
-1.62147e-07
4.49034e-07
3.23545e-07
-1.52899e-07
3.81544e-07
3.81077e-07
-1.47888e-07
2.80424e-07
4.23964e-07
-1.44146e-07
1.52348e-07
4.45773e-07
-1.38346e-07
5.16797e-07
-1.54612e-07
1.69411e-07
1.48527e-07
-2.01506e-07
3.15464e-07
1.769e-07
-1.91478e-07
4.25989e-07
2.28703e-07
-1.75647e-07
4.92332e-07
3.04359e-07
-1.61511e-07
5.09976e-07
3.98319e-07
-1.51388e-07
4.776e-07
5.01332e-07
-1.45411e-07
3.99132e-07
6.03937e-07
-1.44392e-07
2.90822e-07
6.77798e-07
-1.45525e-07
1.58359e-07
7.23306e-07
-1.4507e-07
8.36259e-07
-1.61103e-07
1.95569e-07
1.00122e-07
-1.46492e-07
3.69974e-07
1.45145e-07
-1.4265e-07
5.05926e-07
2.31262e-07
-1.3851e-07
5.87512e-07
3.56331e-07
-1.33558e-07
6.06238e-07
5.15249e-07
-1.35655e-07
5.67148e-07
6.83759e-07
-1.43336e-07
4.8299e-07
8.43132e-07
-1.55037e-07
3.63242e-07
9.67052e-07
-1.69505e-07
1.86387e-07
1.06735e-06
-1.67191e-07
1.21294e-06
-1.90296e-07
2.39494e-07
-1.59256e-07
1.81181e-08
4.55396e-07
-8.40969e-08
1.33394e-08
6.15667e-07
7.66786e-08
-5.68681e-09
7.10739e-07
2.97432e-07
-3.61724e-08
7.30627e-07
5.64887e-07
-6.9527e-08
6.70638e-07
8.46743e-07
-1.02996e-07
5.36252e-07
1.11845e-06
-1.40935e-07
3.4052e-07
1.30431e-06
-1.41527e-07
9.79057e-08
1.35987e-06
-4.9907e-08
1.42196e-06
-1.1111e-07
3.38172e-07
-9.50069e-07
4.09468e-07
6.9242e-07
-8.4599e-07
4.07645e-07
9.86385e-07
-6.00344e-07
3.83058e-07
1.1619e-06
-1.96681e-07
3.18595e-07
1.18869e-06
3.3902e-07
1.99079e-07
1.0849e-06
8.90006e-07
6.05323e-08
8.53464e-07
1.37685e-06
-2.69659e-08
4.76348e-07
1.6821e-06
-6.72319e-10
5.25567e-08
1.60854e-06
1.75129e-07
1.45659e-06
1.79198e-08
5.08208e-07
-1.89549e-06
4.03582e-07
1.0365e-06
-1.77455e-06
4.00319e-07
1.50069e-06
-1.50679e-06
4.42276e-07
1.83926e-06
-1.03388e-06
4.98627e-07
1.9371e-06
-2.5754e-07
4.98723e-07
1.69581e-06
7.31831e-07
3.99463e-07
1.21602e-06
1.58778e-06
2.6887e-07
5.93662e-07
2.09457e-06
2.09889e-07
4.39064e-08
1.95675e-06
2.01539e-07
1.47028e-06
3.02223e-08
7.14691e-07
-2.40974e-06
-4.73849e-08
1.38755e-06
-2.24193e-06
-7.70332e-08
1.98823e-06
-1.88869e-06
-9.78355e-08
2.41226e-06
-1.3514e-06
-6.81024e-08
2.5726e-06
-5.02988e-07
4.49512e-08
2.48573e-06
5.60434e-07
1.67757e-07
2.02e-06
1.83988e-06
2.1363e-07
1.16982e-06
2.81624e-06
1.28511e-07
3.13451e-07
2.94422e-06
-1.31102e-07
2.18932e-06
-4.05586e-07
5.15707e-07
-1.72568e-09
-3.44398e-08
9.97478e-07
-3.64029e-09
-5.87138e-08
1.47362e-06
-5.45931e-09
-1.32764e-07
2.05592e-06
-4.37604e-09
-2.63203e-07
2.80205e-06
-8.64803e-08
-4.20061e-07
3.31268e-06
3.6237e-07
-5.75601e-07
3.21411e-06
1.48531e-06
-5.87518e-07
2.43282e-06
4.06476e-06
-4.6734e-07
9.08047e-07
5.02969e-06
-5.60704e-07
4.20284e-06
-1.10547e-06
3.35509e-11
-1.68808e-11
-1.73317e-09
1.31544e-10
-1.48325e-11
-3.71917e-09
2.65077e-10
-1.1856e-11
-5.57474e-09
2.15238e-10
-1.44527e-12
-4.32005e-09
6.59644e-08
-1.94598e-11
1.33919e-10
5.04372e-07
7.64932e-09
-3.60825e-08
1.3762e-06
1.92515e-08
-2.14179e-07
2.3515e-06
1.10659e-06
-4.78538e-07
1.13827e-06
6.13911e-06
-7.27007e-07
6.69262e-06
-1.35166e-06
1.03032e-12
-1.00624e-11
-3.13669e-12
1.51477e-12
-6.91121e-12
-2.14934e-12
1.66615e-12
-6.29819e-12
-1.55571e-12
1.86206e-12
2.2192e-14
-9.07288e-13
4.51118e-12
-1.45465e-13
-1.7257e-11
6.90801e-09
6.4059e-10
8.43052e-11
1.30943e-08
9.51065e-09
2.73999e-09
1.32794e-07
1.33195e-08
-1.69746e-08
6.3813e-07
2.02101e-06
-3.17789e-07
8.06854e-06
-7.98918e-07
1.53676e-11
5.22916e-11
-6.36491e-11
1.60598e-11
5.07675e-11
-2.48752e-11
1.63989e-11
3.67162e-11
-4.97052e-12
2.37517e-11
3.39072e-11
-1.51735e-12
3.81456e-11
4.82761e-12
-4.88731e-12
6.95899e-10
5.52073e-11
-5.56589e-11
8.95253e-09
1.42905e-09
-1.46313e-10
3.58508e-09
1.09979e-08
6.88463e-09
-2.54174e-07
-3.51317e-08
6.00241e-08
2.82398e-06
1.26125e-07
6.03658e-11
7.16693e-11
-9.03267e-11
2.89351e-11
5.91412e-11
-6.16165e-11
6.48231e-13
3.42986e-11
-7.88845e-13
3.29013e-12
2.10917e-11
-3.95655e-13
7.6749e-12
8.68798e-12
7.13893e-13
5.91259e-11
3.98316e-12
1.92633e-12
1.28367e-09
1.97582e-10
6.03633e-12
1.12524e-08
1.0096e-09
-1.0842e-10
-2.98065e-08
2.29597e-09
-4.74244e-09
-1.72511e-08
4.41155e-08
3.76225e-11
2.25683e-11
-3.03389e-11
1.36211e-11
1.13515e-11
-6.29318e-12
2.06998e-12
9.08915e-12
3.85549e-12
1.33413e-12
2.65426e-12
3.38304e-12
7.85442e-12
-5.51805e-12
6.44507e-12
2.06158e-11
-3.5227e-11
5.47393e-12
1.70601e-10
3.69528e-11
1.07955e-11
1.44112e-09
-1.82187e-10
-9.48448e-11
1.541e-09
2.74334e-11
-9.70735e-10
1.59353e-09
-2.49208e-09
4.21046e-12
5.79042e-12
1.99614e-12
3.56967e-12
2.36857e-12
3.27555e-12
5.38036e-12
3.82663e-13
2.05397e-12
8.89331e-12
-7.49599e-12
3.03124e-12
2.41941e-11
-3.97989e-11
1.71539e-11
8.07713e-14
-5.28237e-11
6.32084e-11
4.55762e-12
3.76508e-11
3.04619e-11
5.06788e-12
3.06762e-10
-1.50971e-11
-8.91163e-10
1.32819e-10
-2.25113e-10
-2.74463e-10
5.62053e-10
2.72065e-12
3.1115e-12
6.35562e-12
2.59836e-12
2.70393e-12
7.01547e-12
7.5145e-12
-1.76157e-12
3.01963e-12
2.06078e-11
-8.91656e-12
1.14713e-12
1.19248e-11
-1.35042e-11
1.03526e-11
-1.88656e-11
-4.80126e-11
1.52408e-10
-7.64422e-11
1.96448e-11
1.56737e-10
-9.15236e-11
3.107e-10
7.36875e-11
-1.73293e-10
2.61327e-10
4.38463e-11
1.90999e-10
1.79899e-10
1.26242e-12
3.81714e-13
2.78652e-12
2.57528e-12
-1.08118e-13
3.87777e-12
2.6073e-13
-1.01038e-12
6.88582e-13
3.42839e-13
-3.76192e-14
-9.71871e-14
1.33847e-13
-3.7718e-13
-3.70726e-12
-2.24894e-11
-2.08736e-11
5.82849e-11
-4.6573e-11
1.47465e-11
1.99043e-10
4.97572e-12
5.25e-11
1.74748e-10
-9.32689e-11
4.24104e-10
1.13353e-10
2.39108e-10
1.23198e-10
3.10732e-14
-6.90787e-20
6.19222e-14
1.15246e-13
-1.38229e-19
1.49815e-13
2.31895e-14
-2.96991e-19
6.31309e-15
9.41505e-17
-2.17423e-16
-1.44156e-14
1.87294e-14
-3.92856e-15
-7.84821e-13
-1.53315e-11
-7.68187e-13
-3.51219e-11
-5.57001e-12
4.58908e-11
2.53684e-11
-2.73215e-11
1.52974e-11
7.79839e-11
-8.26014e-11
3.39229e-10
1.12292e-10
1.6654e-10
-2.91228e-11
2.69921e-22
-6.22934e-21
2.27219e-22
1.84911e-22
-1.21791e-20
7.18962e-22
6.63769e-23
-3.05651e-20
-7.64654e-20
1.79255e-17
-7.2086e-18
-2.27845e-16
3.67175e-14
-3.59462e-15
-4.32176e-14
-4.83031e-12
1.00249e-13
-1.06989e-11
-1.64943e-12
2.45114e-11
-3.45856e-11
1.04969e-11
1.87057e-11
8.18322e-13
-5.15289e-11
2.68562e-10
-1.34429e-12
3.6285e-10
-1.88129e-10
-1.58345e-21
-1.69468e-21
-1.16971e-20
-2.55907e-21
1.07849e-21
-8.57371e-21
8.63656e-20
-5.93586e-22
-6.86952e-20
2.35769e-17
4.69922e-19
-3.10247e-17
-3.87747e-14
1.31748e-15
-1.6205e-15
-2.36631e-13
-3.61911e-14
6.05842e-13
-3.69993e-13
-7.02762e-12
3.16843e-11
-5.27363e-11
-8.92954e-12
7.69098e-11
-1.62365e-11
-1.23273e-11
1.02189e-09
-2.81692e-10
6.46161e-10
8.98884e-08
-5.10795e-08
-2.135e-07
1.67405e-07
-3.32097e-08
-2.11896e-07
2.29428e-07
-7.78747e-09
-2.07121e-07
2.68822e-07
2.31534e-08
-2.00443e-07
2.79411e-07
5.76213e-08
-1.92719e-07
2.60286e-07
9.04888e-08
-1.86248e-07
2.15501e-07
1.17923e-07
-1.81528e-07
1.5668e-07
1.31455e-07
-1.75775e-07
9.42217e-08
1.29371e-07
-1.6454e-07
1.79542e-07
-1.91912e-07
1.30369e-07
-1.14432e-07
-2.74392e-07
2.38952e-07
-6.86322e-08
-2.76501e-07
3.26541e-07
-1.23088e-08
-2.72915e-07
3.8023e-07
6.13983e-08
-2.66928e-07
3.9736e-07
1.38875e-07
-2.6053e-07
3.76826e-07
2.14809e-07
-2.56686e-07
3.19909e-07
2.83189e-07
-2.56237e-07
2.37833e-07
3.2417e-07
-2.54784e-07
1.3574e-07
3.37165e-07
-2.44047e-07
4.46667e-07
-2.85997e-07
1.47271e-07
-1.7671e-07
-2.8164e-07
2.64436e-07
-9.52202e-08
-2.82055e-07
3.5104e-07
2.30757e-09
-2.76867e-07
4.06903e-07
1.10377e-07
-2.66353e-07
4.23219e-07
2.30077e-07
-2.58906e-07
3.94775e-07
3.53622e-07
-2.55779e-07
3.26256e-07
4.64762e-07
-2.57446e-07
2.40624e-07
5.23621e-07
-2.59344e-07
1.40427e-07
5.43002e-07
-2.5071e-07
7.22477e-07
-2.96486e-07
1.71085e-07
-2.37616e-07
-2.53315e-07
3.168e-07
-1.44274e-07
-2.3931e-07
4.31907e-07
-1.66927e-08
-2.34616e-07
4.93646e-07
1.506e-07
-2.35521e-07
5.04121e-07
3.25728e-07
-2.41781e-07
4.67115e-07
5.03568e-07
-2.56276e-07
3.92981e-07
6.66511e-07
-2.82653e-07
2.97476e-07
7.60521e-07
-3.10899e-07
1.59586e-07
8.26586e-07
-3.12885e-07
1.06264e-06
-3.70872e-07
1.93297e-07
-2.16484e-07
-2.03379e-07
3.58429e-07
-1.22783e-07
-1.73283e-07
4.79778e-07
4.10924e-08
-1.84821e-07
5.57807e-07
2.45463e-07
-2.09066e-07
5.75285e-07
4.74697e-07
-2.35973e-07
5.14726e-07
7.28724e-07
-2.67593e-07
3.75697e-07
9.68074e-07
-3.03469e-07
2.04274e-07
1.07455e-06
-2.84131e-07
5.50105e-08
1.09767e-06
-1.71725e-07
1.3536e-06
-3.47059e-07
2.46509e-07
-1.64515e-07
6.41871e-08
4.95956e-07
-1.01356e-07
1.36773e-07
6.70113e-07
8.32177e-08
1.66776e-07
7.60272e-07
3.33406e-07
1.40492e-07
7.69387e-07
6.2438e-07
4.02804e-08
6.7562e-07
9.86042e-07
-1.03019e-07
4.5026e-07
1.35929e-06
-1.92826e-07
1.15683e-07
1.52183e-06
-1.13375e-07
-1.00992e-07
1.45624e-06
3.32371e-08
1.61898e-06
-3.4845e-07
3.32882e-07
-1.02268e-07
-2.16351e-08
6.50637e-07
-3.4294e-08
1.55751e-08
9.25553e-07
1.50489e-07
1.00149e-07
1.10356e-06
4.66376e-07
1.87709e-07
1.12598e-06
8.83455e-07
2.17239e-07
9.77175e-07
1.38324e-06
1.51073e-07
6.6386e-07
1.91597e-06
2.55134e-08
1.9396e-07
2.22206e-06
-2.04392e-08
-1.76854e-07
2.12322e-06
-9.4626e-08
1.94841e-06
-4.76066e-07
5.36906e-07
-1.20804e-07
-5.50052e-07
9.96451e-07
-6.11707e-10
-5.70088e-07
1.37963e-06
2.4092e-07
-5.71408e-07
1.63835e-06
6.54198e-07
-5.14614e-07
1.75935e-06
1.22743e-06
-4.2001e-07
1.67517e-06
1.98613e-06
-3.50951e-07
1.36039e-06
2.80787e-06
-3.63488e-07
7.91331e-07
3.38715e-06
-4.67519e-07
1.31569e-07
3.40455e-06
-7.52675e-07
2.92717e-06
-1.25278e-06
4.00808e-07
-4.21318e-07
4.82184e-07
7.96754e-07
-3.88345e-07
4.94974e-07
1.18658e-06
-3.02115e-07
3.91129e-07
1.65023e-06
-1.34998e-07
1.4782e-07
2.18559e-06
9.62339e-08
-1.21057e-07
2.47972e-06
6.95959e-07
-4.47538e-07
2.16919e-06
2.11846e-06
-7.6798e-07
1.59491e-06
4.54399e-06
-1.0499e-06
6.51499e-07
5.29647e-06
-1.50921e-06
5.04361e-06
-2.57041e-06
5.17677e-09
-7.19082e-11
8.3732e-09
8.0072e-09
-1.73672e-11
8.84319e-09
3.45988e-08
-1.05225e-11
1.54062e-08
9.11663e-08
-5.97608e-12
4.44134e-08
1.91861e-07
-1.21383e-09
7.91837e-08
4.86268e-07
3.35825e-09
9.90201e-08
9.37923e-07
4.86351e-09
-2.6127e-08
1.21937e-06
7.77318e-07
-3.60381e-07
8.76606e-07
4.00584e-06
-1.13618e-06
6.37614e-06
-2.5817e-06
1.18057e-12
-6.11846e-11
-1.37344e-11
1.83412e-12
-8.37378e-12
-1.01942e-11
1.65818e-12
-1.79844e-12
-9.85883e-12
1.55927e-12
-7.08403e-13
-6.38325e-12
6.52059e-11
-3.57201e-12
-1.29093e-09
5.55237e-09
2.29629e-10
-2.09515e-09
1.33998e-08
3.06951e-09
-2.88804e-09
-9.81666e-08
3.02006e-11
-9.82124e-09
3.3276e-07
2.84757e-08
6.86506e-08
2.17335e-06
-2.27302e-07
8.58536e-12
-1.3819e-10
-3.14068e-11
3.84203e-12
-2.78726e-11
-1.36134e-11
8.55583e-13
-2.93109e-13
-3.79557e-12
8.95676e-13
4.23065e-13
-2.96926e-12
5.15215e-11
6.83055e-12
-6.54246e-11
5.28867e-10
7.62444e-11
-3.67202e-10
4.18988e-09
7.86754e-10
-1.22927e-09
1.14385e-08
3.17509e-09
-4.0152e-09
-1.04126e-07
-8.17616e-12
-1.39269e-08
-4.30632e-08
-1.37006e-09
-1.33939e-11
-8.73115e-11
-1.02221e-10
-7.86961e-13
-2.36298e-11
-2.85545e-11
-1.57621e-13
-9.98762e-14
-8.86898e-13
9.10791e-13
1.19434e-12
-6.7438e-13
7.32802e-12
3.25996e-12
-2.87926e-13
8.29049e-11
1.36987e-11
-9.15294e-12
7.8877e-10
2.11334e-10
-1.03461e-10
3.74651e-09
7.49895e-10
-5.1927e-10
3.43865e-09
-3.72659e-10
-3.83218e-09
2.34719e-09
-1.10449e-08
-2.17385e-11
-1.81802e-11
-3.11916e-11
-8.26824e-12
-1.69633e-11
-4.41747e-12
-1.36226e-12
-1.72126e-12
2.7679e-13
1.28552e-12
-2.80262e-12
-1.59888e-13
4.14368e-12
2.61781e-13
4.26287e-12
1.14692e-11
6.75717e-12
4.91497e-12
1.3377e-10
1.00313e-10
1.06397e-12
6.40247e-10
2.67056e-10
-9.89891e-11
5.54755e-10
1.26145e-10
-6.87401e-10
-5.18495e-10
-1.57071e-09
-2.18728e-11
1.41598e-11
3.3568e-11
-1.91579e-11
-5.41283e-12
1.10259e-11
-5.29309e-12
-6.80727e-12
2.19835e-12
5.8766e-13
-4.42813e-12
1.89892e-12
8.62863e-12
-3.16618e-11
7.98007e-12
1.32819e-11
7.25956e-11
2.46557e-11
1.72453e-11
1.22486e-10
5.58852e-12
9.3622e-11
2.64217e-10
-2.69668e-11
2.98431e-11
1.07294e-10
-1.35457e-10
-2.49152e-11
-1.26548e-11
-4.4912e-12
-5.0575e-13
1.50996e-11
-8.30864e-12
-1.66864e-12
1.02477e-11
-7.63811e-13
-3.85173e-12
3.26094e-12
6.15744e-12
-8.63122e-13
2.42343e-13
-6.27421e-11
-4.22353e-11
1.99014e-11
-1.50107e-10
3.44521e-10
3.09391e-10
-3.35625e-11
1.35861e-09
2.5743e-10
-1.13608e-11
1.05709e-09
-1.29528e-11
-6.8131e-11
2.66002e-10
-2.66182e-13
8.79802e-11
7.14595e-11
1.36953e-14
-6.30916e-14
4.17259e-13
-1.7759e-13
-3.82554e-13
1.18239e-12
2.35947e-13
-2.23589e-14
2.51593e-13
7.94242e-13
-1.03886e-13
4.80786e-14
-1.66667e-10
-6.49746e-12
3.42756e-12
-4.54917e-10
2.78579e-10
1.9062e-10
-7.32512e-10
1.63167e-09
3.99813e-10
-2.01522e-10
2.32175e-09
2.16052e-10
-6.57569e-11
2.23369e-10
4.69579e-11
8.12757e-11
4.92488e-11
8.15294e-16
-1.53988e-18
1.70427e-15
-1.4553e-17
-3.36258e-18
4.30131e-15
-1.62793e-14
-1.0088e-16
6.98634e-17
-1.34533e-13
-7.03205e-15
8.39496e-15
-2.17195e-11
-2.72932e-13
3.14526e-13
-6.48895e-10
6.48859e-11
5.83309e-11
-6.71418e-10
1.56897e-09
3.079e-10
-2.50782e-10
1.37747e-09
4.35253e-10
-2.34002e-11
1.21827e-10
3.97343e-11
5.67144e-11
1.33804e-12
5.65965e-22
-5.31976e-20
2.66053e-21
-3.16951e-18
-1.98211e-20
1.78805e-20
-1.06475e-16
-7.76226e-19
3.41984e-18
-7.87844e-15
-2.47831e-16
6.51064e-16
-4.79065e-13
-3.90452e-15
1.10155e-13
-2.07248e-10
-7.60534e-12
5.5721e-12
-3.15138e-10
7.61584e-11
1.21287e-10
-5.21493e-11
1.19549e-10
1.28862e-10
-1.48631e-11
1.05282e-10
4.09257e-11
6.32358e-10
-2.11762e-10
-3.29702e-21
2.16824e-20
-4.53907e-20
-8.9158e-21
7.37389e-21
-2.25162e-20
1.49371e-18
1.86604e-19
-7.2122e-19
-1.11147e-16
3.59045e-17
-1.82892e-16
-1.69146e-14
1.15139e-14
7.4251e-16
-1.0386e-11
3.49416e-13
-1.23419e-13
-1.1861e-11
5.14238e-12
1.14009e-11
1.21822e-12
1.70501e-11
3.83837e-11
3.33661e-11
-6.84411e-11
1.35547e-10
-4.00679e-10
1.10596e-09
1.01086e-07
-8.06383e-08
-2.31791e-07
1.8478e-07
-5.13457e-08
-2.44244e-07
2.5132e-07
-1.55019e-08
-2.58159e-07
2.93384e-07
2.26572e-08
-2.65164e-07
3.03866e-07
6.09474e-08
-2.64148e-07
2.81662e-07
9.52996e-08
-2.59344e-07
2.32396e-07
1.21945e-07
-2.54208e-07
1.68123e-07
1.33802e-07
-2.45304e-07
9.98237e-08
1.31247e-07
-2.27487e-07
1.7924e-07
-2.71329e-07
1.44314e-07
-1.64229e-07
-3.27367e-07
2.63957e-07
-1.01424e-07
-3.46066e-07
3.56332e-07
-2.09323e-08
-3.59859e-07
4.11891e-07
6.23716e-08
-3.62201e-07
4.27576e-07
1.44593e-07
-3.59861e-07
4.01739e-07
2.20612e-07
-3.56162e-07
3.38224e-07
2.84254e-07
-3.5503e-07
2.48375e-07
3.18603e-07
-3.49736e-07
1.41753e-07
3.2384e-07
-3.30018e-07
4.25736e-07
-3.90739e-07
1.62531e-07
-2.0244e-07
-3.93579e-07
2.92731e-07
-1.31842e-07
-3.81836e-07
3.88649e-07
-1.25003e-08
-3.81217e-07
4.43997e-07
1.15539e-07
-3.74868e-07
4.56252e-07
2.41207e-07
-3.67775e-07
4.22548e-07
3.61819e-07
-3.63282e-07
3.47756e-07
4.64453e-07
-3.62853e-07
2.52049e-07
5.14654e-07
-3.59688e-07
1.4324e-07
5.20382e-07
-3.38441e-07
6.78975e-07
-4.06485e-07
2.1266e-07
-1.42554e-07
-5.13171e-07
3.6416e-07
-1.10595e-07
-4.12058e-07
4.76894e-07
1.72858e-08
-3.77137e-07
5.36537e-07
1.87404e-07
-3.67028e-07
5.36769e-07
3.63771e-07
-3.64577e-07
4.87357e-07
5.26555e-07
-3.71599e-07
4.02272e-07
6.61326e-07
-3.94439e-07
3.01635e-07
7.24332e-07
-4.1994e-07
1.66919e-07
7.55009e-07
-4.12796e-07
9.6867e-07
-4.93649e-07
2.89264e-07
3.05596e-08
-6.57056e-07
4.58383e-07
-7.15169e-09
-4.45845e-07
5.72379e-07
8.93028e-08
-3.70834e-07
6.39824e-07
2.85506e-07
-3.74613e-07
6.46313e-07
5.19041e-07
-3.97732e-07
5.76143e-07
7.59205e-07
-4.30071e-07
4.3286e-07
9.61113e-07
-4.59973e-07
2.81445e-07
1.02805e-06
-4.36434e-07
1.38668e-07
1.07062e-06
-3.4456e-07
1.30256e-06
-5.4228e-07
3.64974e-07
4.276e-07
-7.03452e-07
5.60622e-07
3.36305e-07
-4.02332e-07
6.71217e-07
3.75128e-07
-2.29645e-07
7.28328e-07
5.56387e-07
-1.87499e-07
7.18985e-07
8.01953e-07
-2.33288e-07
6.14176e-07
1.08807e-06
-3.27072e-07
3.83558e-07
1.39193e-06
-3.93022e-07
1.09987e-07
1.51522e-06
-3.26968e-07
-3.19072e-08
1.52444e-06
-2.78685e-07
1.67655e-06
-7.54344e-07
4.10949e-07
3.65511e-07
-3.60737e-07
6.52184e-07
3.81294e-07
-2.70651e-07
7.94631e-07
5.59172e-07
-2.26342e-07
8.55227e-07
8.89337e-07
-2.05837e-07
8.26975e-07
1.26941e-06
-2.21966e-07
6.94314e-07
1.65258e-06
-2.80775e-07
4.22398e-07
2.03641e-06
-3.47053e-07
2.18358e-08
2.26011e-06
-3.64772e-07
-2.56918e-07
2.23891e-06
-5.30345e-07
2.05575e-06
-1.11219e-06
5.54889e-07
5.73505e-08
-7.24858e-07
1.01335e-06
1.31141e-07
-7.53526e-07
1.36074e-06
4.21155e-07
-7.80781e-07
1.56193e-06
9.77561e-07
-8.0403e-07
1.61297e-06
1.64555e-06
-8.47193e-07
1.46543e-06
2.3657e-06
-9.16537e-07
1.11036e-06
2.99371e-06
-9.65716e-07
5.51854e-07
3.37785e-06
-1.02675e-06
-6.53664e-08
3.3937e-06
-1.29024e-06
2.78134e-06
-2.04374e-06
2.00986e-07
-2.61945e-07
3.18709e-07
4.10952e-07
-6.1665e-08
4.10417e-07
6.02355e-07
-1.22731e-07
4.7405e-07
8.9018e-07
-9.7408e-08
3.26684e-07
1.31114e-06
4.66562e-08
1.1319e-07
1.63287e-06
3.80415e-07
-2.45103e-07
1.6357e-06
1.3504e-06
-8.68165e-07
1.20224e-06
2.88169e-06
-1.55197e-06
6.20075e-07
4.59744e-06
-2.1308e-06
4.14218e-06
-3.31124e-06
7.64934e-09
-1.08032e-10
3.62976e-09
2.58901e-09
-1.32976e-10
8.37133e-10
4.37275e-09
-7.46478e-11
2.55069e-09
5.47666e-08
-5.34875e-11
2.58495e-08
8.28258e-08
3.34539e-09
2.8319e-08
1.47874e-07
3.76491e-09
3.86142e-08
2.28608e-07
1.0328e-09
2.63633e-08
4.35862e-07
-1.23063e-09
-2.23185e-07
6.02996e-07
8.70459e-07
-9.84954e-07
1.37962e-06
-1.63994e-06
3.65198e-12
-9.43552e-12
-1.17061e-10
6.67271e-12
-5.17183e-12
-1.40834e-10
4.28445e-12
-8.82875e-13
-8.18138e-11
4.24326e-12
8.40414e-13
-6.10992e-11
2.08742e-09
1.03073e-10
-1.37941e-10
6.6203e-09
5.82147e-10
-2.90639e-09
1.00303e-08
1.90346e-09
-7.50805e-09
5.51387e-09
4.71084e-09
-1.26022e-08
2.54301e-08
2.83702e-09
-2.19613e-08
1.12508e-08
-1.22485e-08
8.12441e-13
-3.62782e-11
-6.27241e-12
1.36558e-12
-1.09013e-11
-6.81611e-12
8.38139e-13
-6.83323e-13
-4.31503e-12
1.9256e-12
2.4777e-13
-3.17585e-12
7.18839e-11
-3.53754e-12
-1.79678e-11
4.70151e-10
6.74016e-11
-1.86596e-10
1.60454e-09
3.44949e-10
-7.74735e-10
3.49941e-09
7.28056e-10
-1.82566e-09
-6.32692e-09
2.97181e-09
-4.7685e-09
1.1766e-08
-1.0006e-08
-3.05176e-11
-1.34767e-10
-1.03093e-11
-4.77025e-12
-8.33714e-12
-1.87205e-11
-1.13862e-12
-3.34665e-13
-3.76785e-12
5.10874e-14
1.57581e-13
-8.16371e-13
7.68028e-12
3.36296e-13
-1.17925e-11
6.8901e-11
2.74812e-11
-1.97078e-11
2.50294e-10
1.36289e-10
-5.36685e-11
4.39399e-10
2.1536e-10
-1.81826e-10
-2.83988e-10
6.71707e-10
-7.18055e-10
1.70658e-09
-1.49988e-09
-8.80098e-11
-9.83072e-11
-1.63417e-11
-7.87567e-12
-3.12545e-11
-2.05543e-12
-1.85433e-12
-4.6379e-12
2.28588e-13
-2.54015e-13
-2.37147e-13
2.98974e-13
2.30973e-12
3.06534e-12
3.56478e-12
1.28924e-11
1.49528e-11
1.17061e-11
4.44787e-11
1.18931e-10
-2.73088e-12
6.44124e-11
1.9915e-10
-2.62818e-11
-6.53947e-11
2.48595e-10
-1.25875e-10
2.39446e-10
-2.04799e-10
-5.15384e-11
-1.74109e-11
-1.2567e-12
-4.47402e-11
-1.64965e-11
1.12471e-11
-7.46657e-12
-5.46344e-12
3.43983e-12
-2.17385e-12
-1.62403e-12
1.0968e-13
5.14721e-13
6.83882e-12
1.46626e-12
3.68734e-12
3.38503e-11
4.17945e-12
8.81564e-12
1.37605e-10
-1.67688e-11
8.58672e-12
1.80162e-10
-5.98973e-12
-4.25469e-11
1.76052e-10
-2.36912e-11
1.58683e-10
-2.53784e-12
-4.37076e-12
-4.18679e-13
2.54409e-13
-6.91299e-12
-1.17549e-12
1.44529e-12
2.84152e-12
-1.36774e-12
9.48314e-13
4.11186e-12
-1.13127e-12
9.33979e-13
-8.2749e-11
-8.1211e-12
2.1267e-11
1.5689e-11
6.73256e-10
7.3069e-11
8.33052e-11
1.79315e-09
2.02542e-11
-1.27938e-11
6.85056e-10
-1.7321e-11
-4.62052e-11
1.75757e-10
1.30646e-11
8.23831e-11
9.26973e-11
-2.28607e-15
-1.28188e-15
1.64251e-15
-1.66271e-14
-4.36757e-15
2.66531e-14
2.80924e-13
-9.37301e-15
3.5418e-14
-7.44331e-13
-2.33318e-13
8.69641e-13
-4.31984e-10
-4.59518e-12
3.97533e-11
-3.41229e-10
7.60554e-10
2.09781e-10
-2.82723e-10
2.14761e-09
1.64072e-10
-5.54966e-11
2.73359e-09
1.63048e-10
-3.84419e-11
1.59421e-10
3.92648e-11
4.08928e-11
5.64124e-11
5.85076e-18
-1.65788e-17
1.68912e-16
-1.19816e-16
-8.27491e-18
6.23774e-17
-1.08199e-14
-1.26427e-16
4.88528e-16
-2.92337e-13
-1.79091e-14
6.66327e-14
-6.53461e-11
9.07948e-14
6.98248e-12
-7.68204e-10
1.279e-10
1.99384e-10
-6.6925e-10
2.02667e-09
4.41588e-10
-4.95074e-11
2.37173e-09
4.08187e-10
-7.97028e-12
1.45058e-10
4.11033e-11
4.55872e-11
3.47933e-12
-4.11564e-21
-9.47192e-18
-7.44999e-18
-9.25965e-18
-1.32995e-19
7.91772e-19
-1.43032e-16
-1.5238e-17
2.13255e-17
-1.62313e-14
-2.80725e-15
2.81708e-15
-1.88698e-13
2.71191e-14
2.34132e-13
-2.03343e-10
-2.21339e-12
2.28763e-11
-5.44482e-10
3.76353e-10
2.97007e-10
-2.26298e-10
1.58954e-09
4.06401e-10
1.28475e-10
2.09402e-09
1.32561e-10
8.65629e-10
-1.98476e-11
-2.01683e-20
-1.06022e-17
-1.73167e-18
5.1573e-20
2.45218e-19
-1.04472e-19
-1.56796e-17
1.31954e-17
-1.28328e-17
-5.14477e-15
1.10162e-15
-8.15222e-16
3.06537e-13
8.41091e-14
9.7531e-14
-2.18772e-13
1.07665e-12
-4.27394e-15
-6.93476e-12
3.11157e-11
1.90804e-11
8.72127e-12
1.57866e-10
2.82161e-10
5.02493e-10
5.76659e-11
1.05055e-09
-2.75345e-12
1.03249e-09
9.17869e-08
-4.77386e-08
-2.72002e-07
1.82666e-07
-3.28426e-08
-3.0228e-07
2.60453e-07
-7.04744e-09
-3.28898e-07
3.08203e-07
2.53485e-08
-3.38262e-07
3.19689e-07
5.982e-08
-3.35455e-07
2.9474e-07
9.15848e-08
-3.25979e-07
2.41427e-07
1.14922e-07
-3.15817e-07
1.74637e-07
1.22483e-07
-3.00997e-07
1.05765e-07
1.18132e-07
-2.76746e-07
1.66878e-07
-3.32442e-07
1.35094e-07
-8.67338e-08
-4.02871e-07
2.56552e-07
-7.17563e-08
-4.2861e-07
3.64277e-07
-1.42359e-08
-4.60396e-07
4.28753e-07
6.35174e-08
-4.64846e-07
4.43747e-07
1.40268e-07
-4.55303e-07
4.12625e-07
2.08696e-07
-4.42151e-07
3.43411e-07
2.61755e-07
-4.32649e-07
2.50557e-07
2.85092e-07
-4.19491e-07
1.4607e-07
2.83867e-07
-3.91265e-07
3.84258e-07
-4.6205e-07
2.00448e-07
-2.64928e-09
-6.4798e-07
3.13237e-07
-3.40687e-08
-5.32313e-07
4.0775e-07
1.96069e-08
-5.09573e-07
4.65007e-07
1.27947e-07
-4.96554e-07
4.72783e-07
2.42952e-07
-4.78235e-07
4.32184e-07
3.47141e-07
-4.61127e-07
3.51825e-07
4.29992e-07
-4.50731e-07
2.52124e-07
4.64129e-07
-4.39023e-07
1.43734e-07
4.62207e-07
-4.08392e-07
6.0894e-07
-4.87432e-07
3.23825e-07
2.08001e-07
-1.00676e-06
4.35144e-07
1.28395e-07
-6.85839e-07
5.09119e-07
1.31414e-07
-5.62919e-07
5.53495e-07
2.43141e-07
-5.26597e-07
5.40613e-07
3.967e-07
-5.05443e-07
4.77098e-07
5.3151e-07
-4.92453e-07
3.82299e-07
6.26098e-07
-4.95745e-07
2.79573e-07
6.54254e-07
-5.0734e-07
1.55952e-07
6.59263e-07
-4.8623e-07
8.50273e-07
-5.79029e-07
4.56924e-07
5.59169e-07
-1.42285e-06
6.0052e-07
4.19938e-07
-8.80984e-07
6.49616e-07
3.27003e-07
-6.15519e-07
6.70428e-07
3.95607e-07
-5.4789e-07
6.53638e-07
5.6011e-07
-5.44352e-07
5.81481e-07
7.40928e-07
-5.67332e-07
4.45868e-07
8.99889e-07
-5.98152e-07
2.9537e-07
9.53511e-07
-5.85193e-07
1.42669e-07
9.65904e-07
-4.98499e-07
1.12468e-06
-6.74021e-07
5.34693e-07
1.23471e-06
-1.90905e-06
7.60451e-07
1.01652e-06
-1.22467e-06
8.16005e-07
8.28863e-07
-7.87058e-07
8.00177e-07
8.27828e-07
-6.03892e-07
7.23009e-07
9.62403e-07
-5.58414e-07
5.79514e-07
1.13536e-06
-5.78011e-07
3.63552e-07
1.32559e-06
-6.02765e-07
1.41993e-07
1.40682e-06
-5.58722e-07
2.44468e-09
1.37961e-06
-5.52844e-07
1.39141e-06
-1.01863e-06
3.7039e-07
1.33985e-06
-8.23559e-07
6.38284e-07
1.05607e-06
-5.78126e-07
8.27635e-07
9.51444e-07
-5.38276e-07
8.93379e-07
1.08442e-06
-5.28171e-07
8.19155e-07
1.37675e-06
-5.6209e-07
6.23201e-07
1.69301e-06
-6.42471e-07
3.1144e-07
1.96771e-06
-6.77408e-07
-7.2186e-08
2.06875e-06
-6.43072e-07
-3.13582e-07
1.95086e-06
-8.60203e-07
1.56633e-06
-1.60069e-06
2.08792e-07
1.70868e-07
-1.58997e-07
5.23475e-07
3.91792e-08
-1.78652e-07
9.16201e-07
3.0699e-08
-2.59612e-07
1.30571e-06
3.11761e-07
-5.5922e-07
1.48895e-06
9.44248e-07
-9.44705e-07
1.41554e-06
2.01618e-06
-1.16629e-06
1.00744e-06
2.78979e-06
-1.3797e-06
4.11107e-07
3.02648e-06
-1.38814e-06
-1.74036e-07
2.83975e-06
-1.59398e-06
1.83073e-06
-2.48217e-06
6.11462e-08
-8.21302e-09
4.83601e-08
1.02893e-07
-4.54442e-09
8.48829e-08
1.03932e-07
-4.296e-09
9.4673e-08
1.52327e-07
-2.53581e-08
1.54512e-07
3.70986e-07
-2.82092e-08
1.35482e-07
6.88965e-07
-2.38759e-08
-4.78105e-08
9.35551e-07
3.81869e-07
-6.9482e-07
8.83783e-07
1.40759e-06
-1.6133e-06
6.60522e-07
2.26668e-06
-2.46866e-06
1.6392e-06
-3.42391e-06
3.33328e-10
-5.93249e-12
-5.08654e-09
2.13342e-10
-1.05012e-10
-3.41676e-09
1.62873e-10
-9.57176e-11
-1.54647e-09
6.50848e-10
-1.5378e-10
4.95175e-11
5.74563e-10
1.28958e-10
-1.35981e-11
3.79657e-11
4.80569e-09
-2.07037e-11
-3.54503e-08
9.30949e-09
-7.90369e-09
4.32635e-08
5.77035e-09
-1.55129e-07
2.58303e-07
1.4221e-08
-5.81272e-07
1.70109e-08
-7.16006e-07
3.03876e-11
-5.13829e-12
-4.04468e-10
4.55224e-11
-8.16832e-12
-4.38426e-10
1.23549e-11
-2.22201e-12
-3.07664e-10
1.60743e-11
2.75432e-13
-2.75553e-10
9.4477e-11
-5.87766e-12
-6.75989e-11
1.84819e-09
2.21149e-10
-1.28178e-10
5.07731e-09
1.05751e-09
-2.85556e-09
2.0679e-09
1.91518e-09
-5.94118e-09
-2.66837e-09
3.81701e-09
-6.54676e-09
1.06253e-08
-1.02772e-08
4.3566e-13
-1.14089e-12
-1.07348e-11
1.28985e-12
-1.32158e-11
-6.26717e-12
1.38297e-12
-5.33741e-12
-7.22248e-12
2.53929e-12
-3.82257e-13
-5.16794e-12
1.52949e-11
4.78362e-12
-3.93907e-12
1.28235e-10
-8.13434e-12
-2.9538e-11
5.62292e-10
-1.5821e-11
-1.4378e-10
9.94527e-10
1.49448e-10
-3.77348e-10
1.77771e-10
6.94619e-10
-5.08407e-10
1.69979e-09
-9.56981e-10
-2.20931e-12
-3.92943e-12
-5.84753e-12
-3.22639e-12
-2.17087e-11
-7.77988e-13
7.69498e-13
-2.74993e-12
-2.46703e-12
-6.4652e-13
-1.47076e-13
-6.28725e-13
1.8824e-11
6.25453e-12
-1.25158e-11
4.55509e-11
1.00477e-10
-5.36501e-11
6.4406e-11
9.43487e-11
-2.27267e-10
5.64025e-11
1.01062e-10
-1.43924e-10
-5.46575e-11
1.75965e-10
-7.35408e-11
2.63336e-10
-1.17701e-10
-1.22197e-11
-1.6456e-12
-7.94291e-13
-4.76714e-12
-1.19077e-11
3.19283e-12
-2.24743e-12
-5.45208e-12
9.67639e-13
-1.62255e-12
-3.74573e-13
7.93612e-14
4.27757e-12
2.13566e-12
1.60107e-12
4.34272e-11
3.23316e-10
-2.37604e-11
5.04347e-12
2.25148e-10
-1.30516e-10
-1.39593e-11
8.42085e-11
-3.09169e-11
-2.71274e-11
7.78945e-11
-1.59111e-11
5.16021e-11
-2.13118e-11
-5.68558e-12
-1.13419e-13
3.02208e-14
-8.95808e-12
-2.47705e-12
3.88795e-13
-1.52112e-12
-2.2678e-12
2.11521e-12
1.60663e-12
-1.04514e-12
2.64305e-13
-5.11078e-11
-1.09583e-11
6.62087e-12
1.23622e-11
5.65927e-10
1.12351e-11
-1.97422e-11
1.13632e-09
-3.79183e-11
-2.38775e-11
1.35116e-10
-9.11236e-11
-2.38212e-11
5.23102e-11
-2.47221e-11
1.83361e-11
-2.23581e-11
-4.83602e-14
-4.37722e-15
2.32173e-14
-2.13286e-13
-2.58629e-14
1.48197e-13
1.06714e-13
-6.82862e-14
4.41745e-14
1.04893e-11
-2.08688e-13
4.1637e-13
-1.08699e-10
-1.32911e-11
1.55179e-11
-2.19431e-10
2.99807e-10
9.44709e-11
-1.37719e-10
1.20013e-09
4.01177e-11
-3.23416e-11
1.00801e-09
1.62571e-11
-8.89092e-11
6.6377e-11
3.141e-11
-8.38232e-12
5.99149e-11
2.21302e-17
-4.37113e-15
-5.25999e-16
-4.04163e-16
-9.97653e-17
1.10896e-15
-3.4812e-14
-1.12109e-15
1.04699e-15
6.52423e-13
-4.69671e-14
3.02678e-14
-7.94641e-11
-1.1491e-12
1.83208e-12
-5.17348e-10
1.37097e-10
1.0728e-10
-4.38538e-10
1.14578e-09
3.05738e-10
-2.19144e-10
1.33166e-09
6.35405e-11
-1.3438e-10
5.57141e-10
2.4557e-10
-3.9197e-12
2.1395e-10
9.14907e-16
-9.0801e-15
3.05415e-15
-2.95806e-17
-1.42063e-17
9.11671e-16
-8.39508e-16
-1.34047e-16
1.04171e-16
2.75966e-14
-1.51968e-14
4.47155e-15
5.17549e-12
3.59064e-14
4.36171e-13
-4.52666e-10
8.28688e-12
1.69511e-11
-5.65899e-10
7.94762e-10
3.98749e-10
-2.77528e-10
1.16969e-09
4.40479e-10
2.5468e-11
4.83215e-10
2.30607e-10
9.17777e-12
8.10234e-12
9.86631e-16
-3.96969e-15
-1.03547e-14
-2.77585e-17
-6.87509e-19
9.96352e-16
-7.78e-16
-7.19278e-17
5.52952e-17
4.44193e-14
-1.19528e-14
8.44677e-15
1.64958e-12
8.7202e-14
6.33603e-14
-2.60056e-11
1.28098e-13
1.81347e-12
-2.24612e-10
-1.23509e-11
3.20233e-11
-7.07254e-11
2.09078e-10
1.01465e-10
2.3466e-11
5.31354e-11
2.22917e-11
2.14937e-12
-2.09377e-14
-5.17454e-20
-5.9936e-15
-4.98547e-16
-4.85757e-17
4.75114e-17
-2.56195e-19
-1.23359e-16
3.81107e-17
-2.63197e-17
-4.59639e-14
8.48232e-15
-1.51848e-15
2.53379e-14
9.05453e-14
2.42905e-13
-7.82796e-13
2.37421e-13
1.67149e-12
-1.98778e-11
1.42592e-12
6.28008e-12
7.91638e-13
-5.57841e-14
-9.70709e-12
2.29539e-12
-5.05721e-14
2.61493e-12
-4.86878e-13
2.14839e-11
8.18819e-08
-1.22228e-08
-3.29906e-07
1.63894e-07
-3.86908e-08
-3.45601e-07
2.54509e-07
-3.25252e-08
-3.86988e-07
3.14947e-07
-5.30107e-10
-3.9817e-07
3.31014e-07
3.50364e-08
-3.86558e-07
3.04718e-07
6.91525e-08
-3.68834e-07
2.48466e-07
9.25449e-08
-3.52111e-07
1.81141e-07
9.67423e-08
-3.30414e-07
1.13122e-07
9.21255e-08
-3.00853e-07
1.47079e-07
-3.66399e-07
1.6989e-07
-5.49892e-08
-4.99925e-07
2.67404e-07
-9.03001e-08
-4.74514e-07
3.72822e-07
-7.55841e-08
-5.22755e-07
4.43542e-07