/*--------------------------------*- C++ -*----------------------------------*\
| =========                 |                                                 |
| \\      /  F ield         | OpenFOAM: The Open Source CFD Toolbox           |
|  \\    /   O peration     | Version:  2312                                  |
|   \\  /    A nd           | Website:  www.openfoam.com                      |
|    \\/     M anipulation  |                                                 |
\*---------------------------------------------------------------------------*/
FoamFile
{
    version     2.0;
    format      ascii;
    arch        "LSB;label=32;scalar=64";
    class       surfaceScalarField;
    location    "0.325";
    object      alphaPhi0.water;
}
// * * * * * * * * * * * * * * * * * * * * * * * * * * * * * * * * * * * * * //

dimensions      [0 3 -1 0 0 0 0];

oriented        oriented;

internalField   nonuniform List<scalar> 
22600
(
1.46327e-07
-2.94031e-07
1.47704e-07
3.0548e-07
-3.16978e-07
1.57826e-07
4.22523e-07
-2.62888e-07
1.45845e-07
4.92484e-07
-2.05387e-07
1.35425e-07
5.13207e-07
-1.4457e-07
1.23847e-07
4.84407e-07
-8.07726e-08
1.09573e-07
4.09257e-07
-1.72185e-08
9.23682e-08
2.96395e-07
3.98882e-08
7.29741e-08
1.57901e-07
8.33087e-08
5.51851e-08
1.06741e-07
4.11969e-08
1.54686e-07
-6.04814e-07
1.56097e-07
3.1939e-07
-6.43939e-07
1.62257e-07
4.37289e-07
-5.27783e-07
1.46997e-07
5.04266e-07
-4.05516e-07
1.33152e-07
5.19983e-07
-2.7772e-07
1.17434e-07
4.86381e-07
-1.4599e-07
9.88196e-08
4.08266e-07
-1.65411e-08
7.74376e-08
2.94168e-07
9.94554e-08
5.45309e-08
1.57424e-07
1.85494e-07
3.4558e-08
2.32604e-07
1.96062e-08
2.00806e-07
-1.00835e-06
2.02731e-07
4.07225e-07
-1.05912e-06
2.08764e-07
5.52157e-07
-8.59988e-07
1.87273e-07
6.34214e-07
-6.56217e-07
1.68643e-07
6.53688e-07
-4.46871e-07
1.49676e-07
6.11611e-07
-2.32989e-07
1.29076e-07
5.13647e-07
-2.55096e-08
1.06932e-07
3.71914e-07
1.58425e-07
8.27642e-08
1.9958e-07
2.97484e-07
6.03439e-08
3.73881e-07
4.5748e-08
2.6996e-07
-1.55098e-06
2.72668e-07
5.44946e-07
-1.60765e-06
2.73545e-07
7.24717e-07
-1.27814e-06
2.38384e-07
8.21844e-07
-9.6568e-07
2.12335e-07
8.40929e-07
-6.56838e-07
1.90883e-07
7.85473e-07
-3.5044e-07
1.72906e-07
6.62951e-07
-6.12489e-08
1.58262e-07
4.77985e-07
1.99827e-07
1.43564e-07
2.57265e-07
3.84567e-07
1.33637e-07
4.92065e-07
1.24193e-07
4.39918e-07
-2.43581e-06
4.44917e-07
8.1848e-07
-2.39912e-06
4.12906e-07
1.01991e-06
-1.81532e-06
3.3575e-07
1.10855e-06
-1.35931e-06
3.04978e-07
1.09468e-06
-9.46217e-07
3.0325e-07
9.88814e-07
-5.61744e-07
3.17172e-07
8.13576e-07
-2.24196e-07
3.38185e-07
5.69876e-07
7.9171e-08
3.64355e-07
3.11393e-07
2.30333e-07
4.12717e-07
3.61011e-07
4.28399e-07
8.0146e-07
-4.045e-06
8.07893e-07
1.1913e-06
-3.48192e-06
6.9318e-07
1.31521e-06
-2.47728e-06
5.38125e-07
1.31083e-06
-1.87987e-06
5.25002e-07
1.14381e-06
-1.36465e-06
5.85478e-07
8.48142e-07
-9.0949e-07
6.43373e-07
5.26168e-07
-5.46985e-07
6.44701e-07
3.05848e-07
-3.12893e-07
6.12384e-07
1.48501e-07
-1.72723e-07
5.60403e-07
-3.197e-08
5.82901e-07
1.0176e-06
-6.0645e-06
1.00651e-06
1.34061e-06
-4.76841e-06
9.69895e-07
1.37515e-06
-3.20411e-06
7.82644e-07
1.26121e-06
-2.17079e-06
7.32535e-07
1.02186e-06
-1.35182e-06
7.13254e-07
8.04316e-07
-7.96364e-07
6.12861e-07
6.65915e-07
-4.21094e-07
4.09414e-07
5.49231e-07
-1.73603e-07
1.98828e-07
3.85396e-07
-5.09596e-09
4.02349e-08
1.22474e-07
-5.5355e-08
6.61356e-07
-5.60799e-06
6.25986e-07
9.55874e-07
-1.87111e-06
6.03316e-07
9.39283e-07
-1.51465e-07
2.79693e-07
6.40319e-07
-1.08032e-08
8.16241e-09
4.47323e-07
-5.87769e-10
-1.13213e-07
3.41685e-07
-9.0148e-11
-1.46908e-07
2.56816e-07
-2.45765e-10
-1.14032e-07
1.96721e-07
-2.30617e-09
-9.40683e-08
1.43478e-07
-4.72665e-09
-7.25648e-08
-5.96564e-09
-6.92662e-08
2.54317e-07
-1.51268e-06
2.58239e-07
1.62887e-07
-2.20237e-08
4.02461e-08
1.14267e-08
-7.15159e-12
-1.58052e-12
6.1233e-10
-7.51774e-13
-4.4621e-12
2.94876e-11
-5.1687e-12
-6.06541e-12
9.16329e-12
-4.64524e-12
-1.87252e-11
8.25103e-12
-2.8656e-12
-1.59137e-10
6.14484e-10
-2.22897e-10
-2.60756e-09
8.64503e-10
-6.73417e-11
-5.97118e-09
2.12074e-10
-1.01299e-08
1.07752e-08
-7.85048e-09
1.59287e-08
-9.16082e-13
-1.12468e-08
-4.99158e-12
-1.86263e-12
-7.79961e-13
-9.63353e-12
-3.5616e-12
5.15465e-12
-8.90408e-12
-6.00336e-12
1.48963e-11
-4.39612e-11
-6.48052e-12
4.81081e-11
-9.65533e-11
-2.64177e-11
8.57795e-11
-5.00755e-11
-4.07175e-11
-4.77002e-11
-1.35165e-10
-2.59289e-11
-1.58614e-11
-1.4899e-10
4.69373e-11
-1.91427e-10
-1.63368e-09
-6.30067e-09
-9.41017e-10
-1.14566e-11
-1.13617e-09
-1.3269e-10
-1.3198e-11
1.50108e-11
-4.98826e-11
-1.31707e-11
1.22094e-11
-1.12386e-11
-2.85076e-11
3.00951e-11
-7.44663e-11
-4.0795e-11
1.11204e-10
-2.08081e-10
-2.85303e-11
1.4662e-10
-2.02386e-10
-1.26454e-11
1.64932e-11
-6.83947e-11
-1.13085e-11
1.02709e-11
-1.07506e-11
1.5993e-11
-4.64831e-12
-3.75775e-09
-2.02858e-09
-1.5389e-09
-1.73248e-11
9.35642e-10
-6.8674e-11
-8.08904e-12
1.26791e-11
-1.1037e-11
-7.4471e-12
1.31193e-11
-5.4949e-12
-5.7706e-12
3.2222e-11
-9.9254e-12
-1.72682e-11
5.3147e-11
-2.29955e-11
-1.22421e-11
7.18719e-11
-3.47317e-11
-3.14263e-12
1.36164e-11
2.30412e-12
-3.15262e-12
7.97885e-12
2.29129e-12
9.35583e-12
8.55241e-13
-3.98275e-09
4.33903e-10
-1.27673e-09
-1.40351e-10
2.25602e-09
-1.33165e-10
-1.58327e-11
3.6108e-11
-1.49206e-10
-7.16101e-12
1.32976e-10
-1.32641e-10
-4.57765e-12
8.73726e-11
-6.62385e-11
-2.53957e-12
5.8654e-11
-1.71843e-11
-9.50523e-13
6.4995e-11
1.18767e-12
-5.47372e-13
7.61765e-12
2.77152e-12
-1.12315e-12
4.552e-12
2.29656e-12
5.1477e-12
2.80455e-12
-1.59126e-09
2.84941e-11
-1.9392e-10
-1.05623e-09
1.43613e-09
-1.06496e-09
-3.53536e-10
1.15524e-09
-2.69909e-10
-2.26352e-10
1.34108e-09
-1.73717e-12
-1.61824e-10
1.11399e-09
7.38876e-11
-3.99445e-11
4.24355e-10
4.78321e-11
2.7081e-12
2.35965e-10
4.10847e-11
2.67329e-13
8.70385e-12
2.56025e-12
-1.85354e-12
3.31999e-12
1.64793e-12
1.94968e-11
1.47389e-11
-2.61826e-10
7.92775e-11
-4.72135e-12
-3.26263e-10
1.99552e-10
-4.27544e-10
-8.45336e-10
2.29527e-09
-9.62025e-11
-4.83428e-10
1.043e-09
3.21983e-10
-2.22337e-10
3.08487e-10
2.27053e-10
-1.84722e-11
1.07426e-10
1.01369e-10
3.46559e-12
5.83822e-11
5.75458e-11
-4.49775e-13
2.03459e-11
1.37658e-11
-6.51085e-13
1.89638e-11
2.7695e-12
2.36988e-11
8.57268e-12
-9.01458e-11
1.05671e-10
5.15452e-12
-6.97661e-10
6.31507e-10
-2.57454e-10
-2.56946e-10
1.82817e-09
2.74221e-10
-1.1213e-10
2.22797e-11
1.99388e-10
-1.50023e-11
-1.91265e-14
3.33101e-11
-2.5347e-12
-3.07399e-16
1.01506e-11
-9.60972e-13
-3.28473e-14
5.61168e-12
-3.27769e-13
1.04051e-12
6.47398e-12
-4.19738e-13
7.18194e-12
4.13827e-12
3.09663e-12
6.02358e-12
-4.53912e-11
8.32739e-11
1.87695e-11
-1.32483e-10
3.54454e-10
1.23487e-12
-1.99298e-11
-4.15132e-11
1.67803e-10
-2.66549e-15
-1.70849e-12
4.06204e-12
-5.34869e-18
-2.21511e-14
3.64587e-16
-1.82741e-16
-1.29162e-16
7.14667e-18
-3.34354e-14
-2.18398e-17
4.31424e-16
-2.53992e-13
-2.96811e-19
1.17944e-13
-8.72118e-16
1.60168e-15
1.2406e-12
2.13033e-15
5.20214e-13
2.78211e-12
9.77165e-12
1.57811e-11
3.34675e-11
3.26195e-11
1.33124e-10
1.66099e-12
-4.31192e-12
1.34622e-11
2.12915e-14
-2.10764e-13
7.80104e-13
1.15085e-16
-4.83161e-15
4.31664e-15
2.16295e-17
-4.79162e-17
1.63855e-17
7.32047e-20
-3.89488e-19
1.17575e-19
2.11086e-22
-1.02081e-19
1.58712e-20
-5.90685e-17
-4.61152e-20
1.66081e-15
-4.83549e-20
2.09103e-15
7.04616e-13
9.94628e-14
3.95772e-12
6.82132e-12
1.08489e-12
1.81897e-11
1.09796e-13
-2.84934e-14
4.66291e-12
5.48238e-15
-1.15187e-14
8.08484e-14
4.87317e-17
-1.80416e-16
8.82295e-17
5.12586e-19
-3.13331e-18
3.95398e-18
2.98992e-20
-4.30371e-20
5.36276e-20
2.44669e-20
-3.50708e-20
2.65047e-20
3.28683e-21
-1.87652e-20
8.64959e-21
-3.89278e-20
9.27113e-21
3.70973e-14
5.30706e-14
9.51538e-16
3.37955e-13
7.26516e-13
1.11532e-14
2.86975e-14
6.96454e-14
4.68915e-16
1.74576e-16
-1.63029e-14
-1.11523e-16
3.46402e-18
-5.06405e-16
-1.31179e-18
3.31714e-20
1.56606e-19
-2.08716e-20
1.05231e-20
4.11257e-21
-1.55687e-21
8.5516e-21
5.16987e-21
-2.44958e-21
4.28214e-21
6.10656e-21
-5.62849e-21
1.44832e-20
-3.49799e-20
1.56466e-07
-3.16802e-07
3.0804e-07
3.35027e-07
-3.58316e-07
3.3758e-07
4.70843e-07
-3.08425e-07
3.18454e-07
5.59587e-07
-2.59605e-07
3.06287e-07
5.97843e-07
-2.12152e-07
2.97743e-07
5.8125e-07
-1.63823e-07
2.89988e-07
5.07983e-07
-1.165e-07
2.82136e-07
3.81144e-07
-7.30786e-08
2.72891e-07
2.08336e-07
-3.69203e-08
2.64914e-07
-2.1131e-08
2.58603e-07
1.60868e-07
-6.43486e-07
3.21913e-07
3.40521e-07
-7.18714e-07
3.43002e-07
4.73139e-07
-6.12645e-07
3.18599e-07
5.54823e-07
-5.08598e-07
3.00461e-07
5.84217e-07
-4.08188e-07
2.84075e-07
5.60081e-07
-3.08651e-07
2.67784e-07
4.83907e-07
-2.14822e-07
2.51933e-07
3.60494e-07
-1.30917e-07
2.35783e-07
1.95836e-07
-6.44514e-08
2.26746e-07
-4.15382e-08
2.21368e-07
2.06851e-07
-1.05819e-06
4.10585e-07
4.29599e-07
-1.16567e-06
4.32974e-07
5.91917e-07
-9.8737e-07
3.99681e-07
6.91969e-07
-8.15128e-07
3.75121e-07
7.28423e-07
-6.48922e-07
3.53955e-07
6.98993e-07
-4.83403e-07
3.33258e-07
6.04405e-07
-3.25381e-07
3.12079e-07
4.48054e-07
-1.83299e-07
2.91497e-07
2.39337e-07
-7.55441e-08
2.80154e-07
-4.18379e-08
2.70286e-07
2.7044e-07
-1.60556e-06
5.49601e-07
5.62701e-07
-1.75273e-06
5.68344e-07
7.64247e-07
-1.4662e-06
5.15669e-07
8.8438e-07
-1.20286e-06
4.79937e-07
9.24773e-07
-9.49162e-07
4.50731e-07
8.86223e-07
-6.96784e-07
4.24837e-07
7.68006e-07
-4.51457e-07
4.02554e-07
5.68375e-07
-2.2445e-07
3.84345e-07
3.01457e-07
-5.20333e-08
3.77044e-07
-1.15717e-09
3.68433e-07
4.07457e-07
-2.39309e-06
8.24987e-07
8.18174e-07
-2.57592e-06
8.25382e-07
1.07475e-06
-2.0948e-06
7.07769e-07
1.22261e-06
-1.69695e-06
6.51204e-07
1.26381e-06
-1.31709e-06
6.29979e-07
1.19862e-06
-9.36161e-07
6.21742e-07
1.03677e-06
-5.66847e-07
6.1542e-07
7.76167e-07
-2.11197e-07
6.11705e-07
4.12024e-07
1.17384e-07
6.07443e-07
2.33537e-07
5.94086e-07
7.01263e-07
-3.47186e-06
1.18562e-06
1.22091e-06
-3.58412e-06
1.18204e-06
1.52045e-06
-2.81826e-06
9.62231e-07
1.67972e-06
-2.21615e-06
8.85058e-07
1.66275e-06
-1.61599e-06
9.01401e-07
1.45372e-06
-1.00983e-06
9.26031e-07
1.13318e-06
-5.03497e-07
9.01828e-07
7.93822e-07
-1.20456e-07
8.60968e-07
4.32911e-07
2.1024e-07
8.28457e-07
4.82431e-07
7.92425e-07
1.02574e-06
-4.77606e-06
1.29146e-06
1.62862e-06
-4.52194e-06
1.46849e-06
1.96366e-06
-3.421e-06
1.28335e-06
1.99445e-06
-2.25417e-06
1.15161e-06
1.80042e-06
-1.24427e-06
1.01049e-06
1.49383e-06
-5.55683e-07
8.41629e-07
1.16668e-06
-1.7343e-07
6.03272e-07
8.48805e-07
3.82101e-08
3.53921e-07
4.94732e-07
2.32731e-07
1.2693e-07
3.80089e-07
2.34151e-08
5.8251e-07
-1.89052e-06
9.83957e-07
7.32137e-07
-5.67739e-08
8.36299e-07
7.30877e-07
-1.79992e-11
6.08647e-07
5.33324e-07
-2.45111e-11
2.26394e-07
3.45238e-07
-4.98049e-11
-3.54782e-09
2.07595e-07
-5.26968e-10
-1.4102e-07
1.25042e-07
-3.65451e-09
-1.48642e-07
8.17018e-08
-4.22736e-09
-1.54815e-07
6.25675e-08
-1.20021e-08
-1.72347e-07
-1.37788e-08
-2.1696e-07
1.76193e-08
-3.68937e-08
1.83951e-07
-2.44052e-12
-3.22495e-11
1.14413e-09
-4.53733e-12
-9.36849e-12
-5.43432e-12
-3.72651e-12
-1.48219e-11
-1.48659e-11
-1.54386e-11
-3.63311e-12
-3.43001e-11
-2.34667e-10
-1.22334e-10
-1.95991e-10
-2.46076e-09
-9.69999e-11
-1.50951e-09
-4.40501e-09
6.64856e-10
-6.35289e-09
-5.07568e-09
-1.57912e-10
-1.80203e-08
-1.18468e-10
-2.8995e-08
-9.2066e-12
-2.13903e-08
4.27005e-10
-1.8455e-11
-2.93907e-11
-8.25957e-12
-9.29688e-12
1.49494e-12
-3.38635e-11
-2.37623e-11
2.68919e-12
-2.83864e-11
-5.96499e-10
6.77245e-11
-3.80954e-10
-8.7031e-10
3.38563e-10
-9.21134e-10
-5.60319e-10
3.56719e-10
-6.66148e-10
-4.02596e-10
7.11897e-11
-2.43779e-10
-2.70584e-10
-7.50186e-11
-2.37364e-10
-1.39451e-10
-2.97804e-10
-1.98705e-10
-3.65048e-09
1.27644e-09
-3.35014e-10
1.17542e-10
-8.32879e-10
-2.31425e-11
2.56906e-11
-4.31324e-10
-2.61447e-11
5.77062e-12
-1.68834e-11
-3.40336e-10
3.51221e-11
-9.30198e-11
-5.46245e-10
1.33349e-10
-3.45683e-10
-4.94414e-10
2.80392e-10
-1.37837e-10
-2.60362e-10
1.13599e-10
-6.10015e-11
-7.12288e-11
5.11877e-12
-2.92071e-11
-6.68832e-12
-1.2264e-11
-2.23315e-10
8.1525e-11
-2.36045e-10
-5.51587e-11
2.81282e-11
-1.52117e-10
-7.95652e-12
7.39842e-11
-1.11293e-10
-1.93979e-11
1.7266e-11
-9.78464e-12
-5.65956e-12
1.30885e-11
-3.99568e-12
-1.40843e-10
6.25152e-11
-3.25608e-12
-1.9596e-10
-4.21043e-12
-4.49703e-12
-7.95445e-11
7.03576e-12
1.78143e-12
-1.59912e-11
3.08389e-12
1.93584e-12
1.38053e-11
7.66445e-14
-3.55645e-10
1.43986e-09
-1.52851e-10
-4.62792e-10
8.99399e-11
-1.01782e-10
-2.19732e-10
2.62808e-10
-3.25089e-10
-3.86506e-10
4.82208e-10
-3.54335e-11
-4.0521e-10
2.45676e-10
7.77293e-12
-2.51401e-10
1.33202e-10
4.70541e-11
-4.36344e-11
2.21813e-11
1.79902e-11
-1.84276e-12
-2.5104e-12
8.23724e-12
-7.75854e-12
5.98738e-12
2.85673e-12
4.14108e-11
2.08879e-11
-5.47286e-10
-3.38782e-10
-2.73964e-10
-5.6754e-10
1.04086e-09
-8.17853e-10
-6.61571e-10
7.54164e-10
-3.38463e-10
-5.48366e-10
4.86847e-10
1.8732e-10
-2.37167e-10
1.9977e-11
2.52645e-11
-7.4931e-11
-1.10492e-11
1.79354e-11
-6.43173e-12
2.64114e-12
1.09291e-11
2.87356e-13
1.54185e-12
1.75242e-12
1.19919e-11
2.25869e-11
2.6113e-11
1.60699e-11
5.52702e-11
-3.89457e-10
2.85752e-10
-2.29549e-10
-4.75593e-10
1.64701e-09
-6.68152e-10
-4.41761e-10
1.07662e-09
-1.34016e-10
-2.73923e-10
6.56772e-11
5.52232e-11
-5.67884e-11
-7.13676e-12
6.06436e-12
-1.49026e-11
-6.81318e-12
2.8661e-12
-1.03027e-12
-3.3364e-12
2.20468e-12
4.07843e-12
-4.98844e-13
8.18103e-13
1.37371e-11
4.84929e-13
7.29391e-12
5.78715e-13
3.35585e-11
-2.49537e-10
5.59371e-10
-1.00912e-10
-4.28529e-10
2.21698e-09
-3.69033e-10
-2.6131e-10
7.38785e-10
1.95596e-11
-9.22225e-12
4.32528e-12
7.70923e-12
-2.51373e-13
-5.68781e-14
2.5244e-13
-5.40451e-14
-1.84972e-15
7.77334e-14
-4.09044e-13
-4.65788e-16
4.99592e-14
3.36705e-13
-1.16453e-13
1.20964e-13
7.76421e-13
-2.78938e-13
2.62259e-13
-1.82157e-13
9.4693e-13
-7.98131e-11
4.55632e-10
1.85044e-11
-1.08694e-10
2.59065e-09
-6.41478e-11
-8.15403e-12
9.72063e-11
1.80896e-11
7.40437e-15
1.11413e-13
1.2293e-13
3.1909e-16
-5.03908e-14
1.1026e-15
1.21302e-17
-1.59768e-15
2.31662e-17
1.30079e-18
-2.54491e-17
4.6523e-18
7.41211e-17
-1.11687e-17
1.43072e-15
1.04811e-14
-1.64081e-15
1.41758e-14
-2.06991e-15
1.49037e-14
9.73866e-11
1.76826e-10
7.70509e-11
1.22474e-10
1.592e-09
1.56011e-10
4.49723e-14
8.01203e-11
3.17939e-11
-7.88388e-14
4.89139e-13
5.95165e-13
-2.69579e-15
-1.31531e-13
1.19959e-14
-2.98313e-17
-4.38512e-15
1.97862e-16
9.72806e-18
-6.75206e-17
3.64574e-18
8.0927e-20
-1.3307e-18
8.41704e-20
4.68635e-18
-1.0118e-18
1.874e-17
-9.69618e-20
2.49693e-17
3.57834e-11
3.97576e-12
3.74069e-11
1.47743e-10
2.38825e-11
1.4181e-10
-1.03327e-11
1.65155e-11
2.93716e-11
1.49038e-13
9.7765e-13
1.55517e-12
4.48919e-15
-1.99683e-14
3.40474e-14
7.23366e-17
-4.68569e-16
5.32364e-16
3.52266e-19
-8.2179e-18
1.32865e-17
6.57548e-19
-2.21233e-19
4.36188e-19
1.06499e-20
-5.33459e-20
1.99147e-20
-6.66004e-20
1.51088e-20
2.27863e-12
1.38144e-12
8.69521e-14
1.27021e-11
1.10992e-11
1.8153e-12
2.16174e-12
3.03382e-12
-8.85659e-13
2.49034e-14
2.01712e-13
-2.16018e-14
5.57002e-16
3.54791e-15
-5.84095e-16
9.71972e-18
7.33445e-17
-8.0151e-18
1.52816e-19
1.50391e-18
-8.27543e-20
4.63913e-20
6.66724e-20
-1.5265e-20
2.00503e-20
4.4123e-20
-2.38375e-20
4.77373e-20
-5.3924e-20
1.44472e-07
-2.62392e-07
4.2596e-07
3.15886e-07
-3.08133e-07
4.74299e-07
4.46361e-07
-2.61835e-07
4.49814e-07
5.31245e-07
-2.15383e-07
4.36785e-07
5.68265e-07
-1.72e-07
4.32724e-07
5.53592e-07
-1.29883e-07
4.34544e-07
4.84333e-07
-9.02755e-08
4.4167e-07
3.60015e-07
-5.68009e-08
4.5401e-07
1.91395e-07
-3.79067e-08
4.71442e-07
-3.86107e-08
4.7674e-07
1.45612e-07
-5.26722e-07
4.40631e-07
3.16105e-07
-6.12079e-07
4.76455e-07
4.41981e-07
-5.14374e-07
4.45262e-07
5.18127e-07
-4.15382e-07
4.24314e-07
5.44116e-07
-3.23118e-07
4.09204e-07
5.19578e-07
-2.36574e-07
3.99013e-07
4.44656e-07
-1.59136e-07
3.95715e-07
3.21809e-07
-9.9011e-08
4.0084e-07
1.68122e-07
-6.98556e-08
4.12383e-07
-8.5583e-08
4.21864e-07
1.8541e-07
-8.58357e-07
5.5681e-07
3.963e-07
-9.86657e-07
5.96662e-07
5.52055e-07
-8.27278e-07
5.56829e-07
6.47203e-07
-6.64868e-07
5.2946e-07
6.80453e-07
-5.11289e-07
5.08876e-07
6.49883e-07
-3.64396e-07
4.9165e-07
5.54939e-07
-2.32857e-07
4.80745e-07
4.02531e-07
-1.28638e-07
4.73533e-07
2.13646e-07
-7.41715e-08
4.73355e-07
-9.58949e-08
4.78393e-07
2.35395e-07
-1.27589e-06
7.31743e-07
5.1013e-07
-1.46565e-06
7.72602e-07
7.07119e-07
-1.22402e-06
7.15421e-07
8.21684e-07
-9.74801e-07
6.75306e-07
8.56008e-07
-7.3638e-07
6.41498e-07
8.13794e-07
-5.10874e-07
6.13528e-07
6.93992e-07
-3.06365e-07
5.95865e-07
5.04651e-07
-1.36045e-07
5.81093e-07
2.67938e-07
-3.72228e-08
5.76808e-07
-3.44412e-08
5.57924e-07
3.3041e-07
-1.81031e-06
1.02899e-06
7.01204e-07
-2.09524e-06
1.08418e-06
9.68315e-07
-1.75949e-06
9.76126e-07
1.12218e-06
-1.38516e-06
9.077e-07
1.16123e-06
-1.00731e-06
8.61856e-07
1.10317e-06
-6.54063e-07
8.22993e-07
9.55136e-07
-3.36459e-07
7.93547e-07
7.06935e-07
-4.54188e-08
7.6928e-07
3.73796e-07
1.50632e-07
7.52728e-07
2.25813e-07
6.90837e-07
5.49543e-07
-2.46609e-06
1.29193e-06
1.0004e-06
-2.82829e-06
1.46443e-06
1.3545e-06
-2.44826e-06
1.29702e-06
1.58456e-06
-1.904e-06
1.1739e-06
1.64749e-06
-1.28965e-06
1.12085e-06
1.54849e-06
-7.23738e-07
1.0947e-06
1.30555e-06
-2.46433e-07
1.05474e-06
9.84915e-07
1.39735e-07
9.96448e-07
5.27501e-07
5.23146e-07
9.13358e-07
7.18882e-07
8.21119e-07
8.51078e-07
-3.21005e-06
1.28195e-06
1.421e-06
-3.45365e-06
1.79305e-06
1.88676e-06
-3.1476e-06
1.73189e-06
2.14281e-06
-2.29875e-06
1.56364e-06
2.12159e-06
-1.29839e-06
1.31317e-06
1.91837e-06
-5.91279e-07
1.11848e-06
1.62172e-06
-1.54395e-07
9.1793e-07
1.20422e-06
2.06178e-07
6.39109e-07
6.65603e-07
6.09011e-07
3.41871e-07
8.74878e-07
1.57098e-07
2.29934e-07
-1.67405e-07
1.07108e-06
4.94217e-07
-1.13975e-09
8.87906e-07
6.93984e-07
-6.39049e-11
8.63734e-07
7.5133e-07
-1.20501e-10
6.51344e-07
6.56074e-07
-6.29574e-10
4.08195e-07
4.63113e-07
-3.79364e-09
1.28106e-07
3.414e-07
-2.46409e-08
-3.17771e-08
2.53705e-07
-3.34131e-08
-1.06604e-07
1.56934e-07
-8.34117e-09
-1.94065e-07
-1.07494e-08
-2.98526e-07
-2.73804e-11
-1.1705e-09
1.80711e-08
-9.57042e-12
-2.10435e-11
1.8308e-11
-1.39776e-11
-3.61616e-11
-1.08066e-11
-3.00717e-11
-7.8465e-11
-3.45914e-11
-1.69958e-10
-4.08349e-10
-1.075e-10
-1.57962e-09
-4.80699e-10
-2.11827e-09
-5.89817e-09
-5.15243e-10
-2.16445e-08
-9.01099e-09
-3.64188e-10
-3.56992e-08
-7.11756e-09
-3.3054e-10
-2.74272e-08
-6.25452e-10
-4.55139e-08
-1.48017e-11
-7.23991e-10
2.08733e-11
-7.96742e-11
4.29637e-11
-1.62183e-11
-2.48487e-11
-1.84959e-10
-1.80428e-10
-2.3076e-12
-3.08032e-11
-9.71379e-11
-1.518e-09
-1.48481e-10
-1.68858e-10
-1.35372e-09
-1.54576e-10
-5.83999e-11
-5.10598e-10
-2.76117e-10
-2.20513e-10
-2.18184e-10
-2.03236e-11
-1.30779e-10
-1.72061e-10
-5.49145e-12
-5.14689e-10
-6.41009e-12
-9.36599e-10
-4.31058e-10
4.10533e-10
-2.2488e-11
-1.23982e-09
2.83779e-10
-8.98059e-10
-2.36383e-10
-1.1654e-10
-1.29075e-09
-7.57463e-11
-1.22547e-11
-1.74598e-10
-1.60426e-10
-3.18121e-11
-2.03314e-11
-1.17248e-10
-6.85942e-11
-2.44348e-11
-3.10724e-11
-3.20729e-11
-6.79916e-12
-3.10409e-11
-4.13289e-12
-1.75329e-12
-2.4297e-11
-3.90987e-12
-1.32079e-12
-3.46988e-12
-4.92308e-12
-7.17874e-11
1.66156e-10
-4.51482e-11
-1.48084e-10
1.88257e-10
-2.71626e-10
-5.53839e-11
-3.19598e-10
-2.12073e-10
-9.02034e-12
-1.52711e-11
-1.03393e-12
-2.89282e-12
-1.86473e-11
-2.40825e-11
-1.27234e-12
-4.91206e-11
-2.72333e-11
-8.1861e-13
-3.80405e-11
-3.97661e-12
-2.4277e-13
-8.30717e-12
-2.05431e-15
-2.59859e-13
-2.70738e-12
1.39897e-14
-1.10699e-11
4.7852e-14
-3.17145e-11
8.93752e-11
-5.8442e-12
-1.46257e-10
6.38136e-10
-2.13424e-10
-1.05135e-11
-1.9359e-10
-1.73989e-10
-1.79979e-11
-4.01671e-11
-1.38954e-11
-1.91999e-11
-1.04077e-11
-8.54488e-12
-1.46058e-11
-9.29761e-12
-1.55487e-12
-1.04699e-11
-1.19285e-11
8.13255e-12
-7.41464e-14
-2.50844e-12
4.331e-12
-9.85852e-13
-9.8752e-12
5.08375e-12
-6.0645e-11
1.56033e-11
-1.22452e-10
1.40936e-09
-1.39403e-10
-3.32905e-11
1.43723e-09
-4.46256e-10
-7.41555e-11
2.90596e-11
-5.23236e-11
-1.26345e-11
-3.69373e-12
-1.82737e-13
-3.00039e-12
-2.82382e-12
-4.46918e-12
-7.31633e-13
-1.99081e-12
-8.94875e-13
-5.32266e-14
-1.54939e-12
-4.83271e-14
-1.26247e-14
-3.81193e-13
2.62653e-13
1.45121e-11
-2.29207e-12
6.3984e-12
-4.79913e-11
2.90316e-11
4.06607e-11
1.68688e-09
-1.66595e-10
9.24622e-11
1.229e-09
-1.63105e-10
-3.93595e-11
2.37703e-10
-8.80209e-12
-2.15089e-12
2.58983e-12
-9.36338e-13
-4.81976e-13
-2.04683e-13
1.45718e-12
-1.8539e-13
-8.04493e-14
6.18426e-13
-3.7774e-14
-4.81081e-14
5.22544e-13
5.60938e-14
-1.05766e-13
5.75701e-14
1.2114e-12
-2.58926e-13
1.09176e-13
-9.4442e-13
1.08237e-13
1.71614e-10
7.86187e-12
-9.01348e-11
1.07219e-10
5.82116e-10
-2.40359e-11
-9.59723e-12
2.1791e-10
-1.27175e-12
-6.69097e-14
3.10068e-13
1.52259e-13
2.8009e-15
-1.23515e-14
5.51842e-16
9.90204e-16
-1.88737e-15
1.42345e-15
5.48129e-16
-2.37839e-17
2.30903e-15
8.28385e-15
-1.40951e-15
8.66036e-15
1.12311e-14
-1.37837e-14
1.14088e-14
-1.489e-14
2.55773e-14
2.36704e-11
-1.76174e-12
-7.31274e-13
3.5684e-11
1.768e-10
-2.68549e-12
9.40455e-13
2.30827e-11
-2.94281e-12
5.59727e-15
6.40808e-13
9.89514e-14
1.32601e-15
-7.51349e-15
9.7683e-16
3.29852e-17
-6.16557e-16
4.00616e-17
1.48572e-18
-1.02189e-17
1.65021e-18
1.21231e-17
-1.03349e-17
1.97332e-17
2.08015e-16
-2.10985e-17
2.12691e-16
-2.45668e-17
2.37197e-16
4.01189e-11
5.79484e-11
-4.27443e-13
4.99254e-11
1.88431e-10
-1.65514e-12
-6.31047e-13
3.99414e-11
6.5537e-13
-3.42774e-14
4.80495e-13
1.78223e-13
-1.4899e-15
-3.54017e-14
8.04628e-15
-1.73254e-17
-2.03895e-15
1.6806e-16
7.48364e-19
-3.11803e-17
3.25222e-18
2.54264e-19
-9.01473e-19
3.6706e-19
1.0799e-19
-2.328e-19
2.08642e-19
-1.21645e-19
4.04245e-19
2.20806e-11
1.29325e-12
7.59646e-12
5.039e-11
3.83899e-11
-4.09112e-12
-1.34562e-12
2.36811e-11
8.23971e-12
2.66847e-14
1.0143e-12
9.93142e-13
1.80959e-15
-1.17148e-14
3.24213e-14
2.41684e-17
-4.13776e-16
6.17195e-16
8.99272e-19
-7.45267e-18
1.04001e-17
1.64691e-19
-2.36463e-19
5.46243e-19
4.32021e-20
-1.48931e-19
2.48137e-19
-1.34413e-19
1.4799e-19
2.81042e-13
1.69548e-13
-4.43406e-14
5.15041e-12
3.68469e-12
-4.51653e-13
3.21741e-12
3.77825e-12
-1.43879e-13
1.93083e-14
4.59802e-13
5.35574e-14
5.88375e-16
8.13265e-15
-1.79497e-16
1.00159e-17
1.86308e-16
-6.18013e-18
2.30366e-19
2.38884e-18
-7.83006e-20
8.89962e-20
9.97701e-20
-3.10014e-20
5.77088e-20
2.02099e-19
-1.50663e-19
1.77039e-19
-1.25553e-19
1.34037e-07
-2.04392e-07
4.96315e-07
3.03704e-07
-2.58837e-07
5.63469e-07
4.33342e-07
-2.14913e-07
5.35088e-07
5.16948e-07
-1.67561e-07
5.20741e-07
5.53561e-07
-1.23939e-07
5.20051e-07
5.40198e-07
-7.98782e-08
5.27785e-07
4.73781e-07
-3.64999e-08
5.44587e-07
3.58132e-07
-3.48159e-09
5.73139e-07
1.97704e-07
2.50437e-08
6.06826e-07
3.53028e-08
6.26588e-07
1.31769e-07
-4.03452e-07
5.07923e-07
2.97947e-07
-5.07055e-07
5.58496e-07
4.21039e-07
-4.14453e-07
5.21711e-07
4.94052e-07
-3.13833e-07
4.97573e-07
5.18623e-07
-2.22036e-07
4.8273e-07
4.95913e-07
-1.32689e-07
4.74534e-07
4.28608e-07
-5.32769e-08
4.79796e-07
3.22712e-07
5.44228e-09
4.97813e-07
1.90838e-07
3.66572e-08
5.32643e-07
5.88489e-08
5.65333e-07
1.66868e-07
-6.53194e-07
6.39684e-07
3.7174e-07
-8.12918e-07
6.97654e-07
5.24734e-07
-6.63589e-07
6.5297e-07
6.16713e-07
-4.98612e-07
6.2226e-07
6.4693e-07
-3.42328e-07
5.9895e-07
6.16153e-07
-1.91245e-07
5.80982e-07
5.29061e-07
-5.85685e-08
5.73129e-07
3.93816e-07
3.61244e-08
5.78095e-07
2.2604e-07
8.41731e-08
5.93615e-07
1.66534e-07
5.68514e-07
2.0965e-07
-9.61453e-07
8.30352e-07
4.7464e-07
-1.19986e-06
8.94555e-07
6.67748e-07
-9.73544e-07
8.32269e-07
7.7778e-07
-7.2045e-07
7.87112e-07
8.09237e-07
-4.81146e-07
7.48859e-07
7.65589e-07
-2.53218e-07
7.1915e-07
6.50041e-07
-4.54524e-08
6.98297e-07
4.71894e-07
1.02846e-07
6.92517e-07
2.54643e-07
1.89233e-07
6.89e-07
3.65314e-07
5.87439e-07
3.00485e-07
-1.35073e-06
1.11778e-06
6.44227e-07
-1.69363e-06
1.23421e-06
8.99337e-07
-1.38919e-06
1.13666e-06
1.04122e-06
-1.01034e-06
1.05571e-06
1.06647e-06
-6.29328e-07
9.84785e-07
9.9713e-07
-2.87045e-07
9.26164e-07
8.44314e-07
-1.30535e-09
9.02216e-07
5.9926e-07
2.3155e-07
8.85631e-07
2.92378e-07
3.93512e-07
8.55331e-07
6.48692e-07
6.70916e-07
5.28395e-07
-1.86428e-06
1.27715e-06
8.98532e-07
-2.22971e-06
1.63051e-06
1.20457e-06
-1.93951e-06
1.54138e-06
1.40989e-06
-1.43348e-06
1.39174e-06
1.46204e-06
-8.50349e-07
1.28973e-06
1.38124e-06
-3.28362e-07
1.21681e-06
1.17219e-06
1.36157e-07
1.12633e-06
8.4289e-07
5.16259e-07
1.04104e-06
3.94114e-07
8.16679e-07
9.38966e-07
1.12045e-06
7.1555e-07
7.54754e-07
-2.18545e-06
1.17854e-06
1.18961e-06
-2.3285e-06
1.8982e-06
1.65184e-06
-2.39462e-06
2.01856e-06
1.91844e-06
-1.79084e-06
1.81861e-06
1.96494e-06
-1.00206e-06
1.48791e-06
1.89256e-06
-3.91946e-07
1.28992e-06
1.69886e-06
1.23363e-07
1.11011e-06
1.23818e-06
7.50014e-07
8.66031e-07
6.05704e-07
1.20109e-06
5.89942e-07
1.48159e-06
3.2643e-07
-1.94684e-08
-1.64802e-08
8.06621e-07
1.94005e-07
-5.29738e-11
6.81157e-07
5.79583e-07
-1.52874e-10
9.07319e-07
9.71158e-07
-3.65213e-10
1.05553e-06
1.16191e-06
-2.01873e-09
1.13521e-06
1.10875e-06
-4.38565e-08
1.03022e-06
8.27182e-07
-7.59388e-08
6.71561e-07
4.85749e-07
5.09482e-08
3.32761e-07
2.43375e-07
1.11585e-07
1.32241e-07
1.55409e-07
-1.90414e-09
-9.37753e-12
-3.77392e-11
1.68531e-09
-1.97306e-11
-6.85127e-12
1.76737e-12
-3.9767e-11
-1.22974e-10
-9.97613e-12
-1.20756e-10
-2.28015e-10
-7.49022e-11
-1.51856e-09
-2.35263e-10
-3.63636e-10
-7.58906e-09
-9.07555e-10
-3.8156e-08
-1.38908e-08
-2.35485e-09
-8.80361e-08
-1.18806e-08
-1.18535e-08
-1.76945e-07
-2.25582e-08
-3.49013e-08
-2.79655e-07
-5.29972e-08
-3.58697e-07
-5.65677e-12
2.70748e-12
3.50025e-12
-1.3262e-10
6.85972e-11
-1.58476e-11
-2.06623e-10
-5.48662e-10
-1.82635e-10
-1.78902e-10
-6.28133e-10
-1.50428e-10
-7.74963e-11
-6.12547e-11
-6.11569e-11
-2.01193e-10
-9.48415e-12
-8.97107e-11
-9.39247e-10
-4.42983e-11
-1.77523e-09
-2.20641e-09
-3.43501e-13
-1.07168e-08
-2.13306e-09
-4.94257e-11
-3.54449e-08
-4.55576e-10
-5.42475e-08
-2.36229e-11
1.44985e-11
-5.12847e-12
-6.24332e-10
4.53165e-10
-1.75746e-10
-3.44754e-10
-1.31028e-10
-1.26633e-09
-1.79745e-10
-4.42098e-11
-9.17648e-11
-1.01044e-11
-4.45161e-11
7.25901e-11
-2.325e-12
-4.06194e-11
-1.87465e-12
-2.98429e-13
-5.31193e-11
-9.50344e-14
-1.16892e-12
-1.11251e-12
-2.11626e-13
-1.48738e-11
-1.55247e-12
-3.55814e-11
-7.21021e-12
-4.55479e-10
-3.41712e-11
1.86951e-11
-3.87438e-12
-4.57498e-11
1.57082e-10
-4.49394e-11
-8.0097e-13
-2.16412e-10
-9.24081e-12
-1.38327e-11
-3.20193e-11
-1.02892e-13
-8.92216e-12
-1.07477e-10
-2.74652e-11
-9.30544e-12
-1.12432e-10
-1.25697e-11
-1.48779e-12
-1.01587e-10
1.7824e-12
-1.83714e-13
-5.69709e-12
5.84327e-13
-3.36466e-14
-2.41746e-12
1.0553e-13
-7.23876e-12
4.95515e-14
-1.67338e-11
5.94488e-11
-1.41984e-11
5.26233e-11
2.57899e-10
-1.52554e-10
3.98349e-11
-5.16638e-12
-2.44875e-11
-8.13977e-12
-4.14363e-13
-1.63878e-13
-7.77511e-12
-5.19947e-11
-1.29905e-11
4.64292e-12
-6.30275e-11
-1.13201e-11
4.01957e-12
-5.03801e-11
9.03248e-12
-5.82667e-14
-1.2811e-12
8.16893e-13
-2.1344e-13
-2.09084e-12
1.37822e-13
-1.28346e-11
2.23885e-13
2.16678e-11
2.61152e-10
-8.45067e-11
5.72573e-11
1.02018e-10
-5.09689e-11
1.20441e-12
1.45304e-13
-1.43526e-12
9.58593e-13
-3.38853e-13
-9.22261e-15
5.53964e-12
-1.80215e-12
7.17969e-12
2.94435e-12
-6.4032e-13
1.2521e-11
1.26369e-13
-5.20044e-13
1.10312e-11
-1.97933e-14
-6.56758e-14
2.45305e-13
-5.15319e-14
-1.02855e-13
8.57876e-14
-1.94938e-12
7.85672e-13
6.68338e-11
1.30836e-10
-5.04633e-11
8.73625e-12
7.98402e-12
-1.05096e-11
1.9036e-13
1.91724e-13
-3.07012e-13
3.13246e-13
2.37073e-13
-3.94745e-16
2.63706e-14
-8.39307e-14
2.16367e-14
5.27572e-15
-9.48073e-15
7.34683e-15
1.1048e-15
-2.58073e-15
8.70621e-15
-2.40867e-16
-7.39496e-15
1.01045e-14
-5.88431e-15
-8.15066e-15
9.38829e-15
-1.36287e-14
2.95504e-13
1.75332e-11
1.23033e-12
-4.46601e-12
1.11705e-12
6.61327e-13
-3.25001e-13
1.52081e-14
2.61902e-14
-4.30752e-15
2.04882e-13
5.25258e-13
5.15444e-14
8.33728e-15
-6.50649e-15
9.13732e-15
3.11242e-16
-2.59531e-16
8.24867e-17
1.93147e-17
-1.33987e-17
1.99629e-17
1.07376e-16
-2.04642e-17
1.19384e-15
-3.27603e-17
-1.9943e-16
3.34144e-15
-2.19162e-16
1.20932e-14
2.11116e-12
-3.50927e-13
-4.77919e-14
3.98419e-14
6.40538e-14
-9.70306e-17
2.65477e-14
3.03715e-13
-5.04032e-15
8.02766e-14
1.97139e-13
8.34917e-16
-1.35791e-16
-4.99284e-15
2.41085e-15
7.82604e-19
-4.10371e-16
4.64786e-17
1.07989e-18
-4.43587e-18
1.25492e-18
1.76652e-19
-9.27862e-19
5.40139e-19
1.76728e-18
-5.21065e-19
1.23082e-17
-1.31174e-19
2.97858e-17
3.02648e-12
-1.42199e-12
2.0368e-14
7.35731e-13
1.16772e-12
-2.31396e-13
1.9435e-12
4.3117e-12
-1.08371e-13
-2.07716e-14
1.54724e-13
4.75001e-13
-2.76484e-16
-2.30732e-14
5.38987e-15
-5.51334e-18
-7.11654e-16
1.94948e-16
6.21095e-19
-9.47397e-18
2.86491e-18
2.78979e-19
-5.37376e-19
5.41822e-19
3.07702e-20
-4.05967e-19
1.39779e-19
-4.84191e-19
1.25891e-19
1.08401e-12
-1.1224e-13
7.55108e-14
4.74322e-12
3.32979e-12
3.10753e-13
2.9556e-12
2.64015e-12
4.50423e-14
-5.38343e-15
5.20819e-14
5.77547e-13
4.37774e-16
-3.32936e-15
4.64698e-15
5.88964e-18
-7.72141e-17
3.63233e-16
4.88686e-19
-1.48867e-18
7.06638e-18
2.70815e-19
-1.93501e-19
3.84293e-19
1.79397e-19
-7.10831e-19
8.30429e-19
-1.09324e-18
1.17253e-18
5.57819e-15
1.74939e-15
-6.10529e-16
5.02182e-13
-1.08722e-13
-8.09214e-14
6.57551e-13
-4.37893e-14
-9.38277e-14
-1.29128e-14
1.84925e-15
-4.48154e-15
-6.89755e-17
1.82425e-16
-6.22699e-17
1.01237e-18
3.35845e-17
-7.52884e-19
2.19444e-19
6.46768e-19
-4.77174e-20
1.48385e-19
1.53982e-19
-2.39254e-19
3.50711e-19
1.91208e-18
-1.89911e-19
2.85333e-18
-8.72867e-19
1.22439e-07
-1.42899e-07
5.16776e-07
2.95114e-07
-2.10714e-07
6.01507e-07
4.29183e-07
-1.70879e-07
5.71899e-07
5.1619e-07
-1.23239e-07
5.56973e-07
5.56562e-07
-7.99892e-08
5.59668e-07
5.49436e-07
-3.68547e-08
5.71766e-07
4.94232e-07
3.93906e-09
5.95852e-07
3.87596e-07
4.99348e-08
6.29841e-07
2.27287e-07
9.12361e-08
6.75899e-07
1.39802e-07
6.9397e-07
1.16044e-07
-2.74231e-07
5.2321e-07
2.81484e-07
-4.05103e-07