/*--------------------------------*- C++ -*----------------------------------*\
| =========                 |                                                 |
| \\      /  F ield         | OpenFOAM: The Open Source CFD Toolbox           |
|  \\    /   O peration     | Version:  2312                                  |
|   \\  /    A nd           | Website:  www.openfoam.com                      |
|    \\/     M anipulation  |                                                 |
\*---------------------------------------------------------------------------*/
FoamFile
{
    version     2.0;
    format      ascii;
    arch        "LSB;label=32;scalar=64";
    class       volScalarField;
    location    "0.3";
    object      p_rgh;
}
// * * * * * * * * * * * * * * * * * * * * * * * * * * * * * * * * * * * * * //

dimensions      [1 -1 -2 0 0 0 0];

internalField   nonuniform List<scalar> 
8000
(
387.715
387.893
388.245
388.751
389.371
390.054
390.729
391.323
391.762
391.946
386.683
386.93
387.407
388.078
388.886
389.762
390.62
391.369
391.919
392.154
384.517
384.888
385.617
386.637
387.852
389.152
390.414
391.509
392.311
392.661
380.739
381.361
382.556
384.189
386.111
388.155
390.135
391.849
393.108
393.664
375.217
376.124
377.923
380.417
383.375
386.558
389.709
392.475
394.56
395.485
365.574
367.121
370.184
374.27
378.943
383.891
388.837
393.246
396.761
398.63
302.807
312.907
331.358
351.521
368.394
379.604
387.838
394.838
400.09
403.762
44.7728
55.1492
78.9679
116.411
172.851
252.471
328.719
381.904
403.957
403.219
0.055139
0.0443216
0.0368864
0.0298343
0.0504513
1.26542
46.2658
129.388
236.469
328.105
0.0289979
0.022009
0.0122082
0.00252758
0.00219664
0.0102543
-0.0756837
0.0101149
42.2767
266.833
-0.0261121
-0.0299169
-0.0371626
-0.0446262
-0.0460409
-0.0500443
-0.0677367
-0.0414839
1.77403
159.012
-0.0618051
-0.0657738
-0.0727138
-0.0797923
-0.0759604
-0.0334279
-0.0339866
-0.040795
2.66025
-0.149797
-0.0806383
-0.0849791
-0.0908329
-0.0927522
-0.0674685
-0.0326142
-0.0301042
-0.0531971
0.0479881
-0.0888723
-0.0858675
-0.0900195
-0.0983496
-0.0883858
-0.0865158
-0.0930797
-0.0903435
-0.0837691
-0.0694238
-0.0432878
-0.0923548
-0.0934881
-0.0968658
-0.0950594
-0.108778
-0.116545
-0.135003
-0.12994
-0.0962666
-0.0516181
-0.10102
-0.10264
-0.103789
-0.107333
-0.115299
-0.126156
-0.160623
-0.157655
-0.124621
-0.0839611
-0.107307
-0.107672
-0.108078
-0.111003
-0.11673
-0.128483
-0.148932
-0.143407
-0.115715
-0.0978026
-0.110875
-0.111004
-0.111871
-0.113466
-0.115831
-0.120428
-0.125523
-0.110488
-0.0852068
-0.0873795
-0.115641
-0.11551
-0.115671
-0.115923
-0.115971
-0.11545
-0.111449
-0.0992671
-0.083794
-0.0863718
-0.12055
-0.120102
-0.119721
-0.119169
-0.118113
-0.116017
-0.111682
-0.104012
-0.095937
-0.0973175
388.64
388.754
388.99
389.345
389.799
390.312
390.833
391.301
391.65
391.771
387.717
387.893
388.247
388.755
389.375
390.056
390.732
391.329
391.767
391.929
385.808
386.102
386.687
387.508
388.487
389.533
390.55
391.435
392.077
392.324
382.358
382.893
383.927
385.334
386.973
388.687
390.327
391.73
392.735
393.124
377.084
377.92
379.605
381.902
384.575
387.35
390.034
392.33
393.977
394.581
367.789
369.129
372.034
375.982
380.538
385.052
389.357
393.061
395.775
396.795
300.265
310.599
328.765
349.24
367.733
380.043
387.99
394.345
398.462
400.149
36.0741
45.6624
67.9288
103.929
159.048
239.213
327.146
384.263
403.039
404.009
0.0446686
0.0397253
0.0276773
0.0260923
-0.00234745
0.146644
42.6064
135.985
223.866
238.384
0.0067536
-0.000816213
-0.0117849
-0.0204046
-0.0307158
-0.0260647
-0.138413
-0.129391
13.8044
45.0078
-0.0364991
-0.0503856
-0.0653194
-0.0756647
-0.0870258
-0.0943173
-0.130094
-0.132932
-0.178881
2.22715
-0.0752803
-0.085341
-0.102016
-0.112204
-0.110986
-0.085449
-0.0924382
-0.0950708
-0.106347
1.82994
-0.0675802
-0.0798425
-0.09536
-0.0909545
-0.102334
-0.0788059
-0.024048
-0.00243025
0.00209375
0.235435
-0.07672
-0.0814325
-0.105327
-0.115939
-0.11902
-0.124056
-0.0972402
-0.0125514
-0.00933996
-0.0730118
-0.080876
-0.107323
-0.114987
-0.112834
-0.119865
-0.131801
-0.150297
-0.118753
-0.0861224
-0.10123
-0.110844
-0.112275
-0.111262
-0.113053
-0.122374
-0.142495
-0.175606
-0.16842
-0.151573
-0.136885
-0.110094
-0.11026
-0.110782
-0.113578
-0.120619
-0.138731
-0.166324
-0.161986
-0.15289
-0.133419
-0.112146
-0.112297
-0.113028
-0.114189
-0.116483
-0.122312
-0.129074
-0.116388
-0.104979
-0.09927
-0.116183
-0.115995
-0.115976
-0.115958
-0.115586
-0.113716
-0.106949
-0.0933393
-0.0842013
-0.0905935
-0.120523
-0.120068
-0.119646
-0.119004
-0.117731
-0.114924
-0.108916
-0.0994346
-0.0930027
-0.0995949
389.936
389.952
390.012
390.138
390.335
390.588
390.863
391.124
391.319
391.35
389.228
389.284
389.438
389.683
390.004
390.375
390.757
391.101
391.349
391.4
387.863
387.988
388.291
388.746
389.311
389.937
390.555
391.09
391.459
391.546
385.368
385.648
386.241
387.101
388.132
389.228
390.287
391.172
391.761
391.895
381.201
381.693
382.801
384.356
386.191
388.106
389.946
391.434
392.369
392.537
374.244
375.117
377.098
379.84
383.094
386.312
389.358
391.709
393.101
393.329
344.938
349.265
357.818
367.723
377.008
383.243
388.52
392.369
394.326
394.926
90.917
103.283
130.468
166.216
214.784
274.965
335.717
376.789
383.944
382.696
-0.000301698
0.00254306
0.0166596
0.0088497
-0.00500241
8.92995
60.606
118.953
133.006
132.246
-0.00894211
-0.0100256
0.00732784
-0.0325775
-0.0638264
-0.0511269
-0.095809
-0.131171
-0.150955
-0.0556385
-0.0401379
-0.0571601
-0.077602
-0.0975092
-0.12643
-0.139448
-0.139675
-0.141538
-0.151152
-0.0747517
-0.0740546
-0.0739008
-0.0973923
-0.125499
-0.152787
-0.160467
-0.148473
-0.117194
-0.0616248
-0.0259909
-0.0776776
-0.0778601
-0.101411
-0.12099
-0.141857
-0.151109
-0.126365
-0.00119246
0.0286749
0.019722
-0.071344
-0.0873402
-0.10812
-0.118696
-0.133617
-0.149111
-0.135865
-0.0361634
0.00883274
-0.0411511
-0.0891373
-0.107992
-0.111673
-0.117037
-0.128397
-0.144017
-0.155112
-0.14475
-0.131385
-0.127
-0.108979
-0.110231
-0.111893
-0.116065
-0.12639
-0.145158
-0.164
-0.172063
-0.175383
-0.161548
-0.110258
-0.110873
-0.112105
-0.114978
-0.121585
-0.135407
-0.154048
-0.164964
-0.17501
-0.158188
-0.112629
-0.112875
-0.113525
-0.114719
-0.116806
-0.119969
-0.122406
-0.12158
-0.129435
-0.124718
-0.115879
-0.115792
-0.115864
-0.116021
-0.115853
-0.114169
-0.107987
-0.0984257
-0.0998
-0.10645
-0.11978
-0.119485
-0.119206
-0.118798
-0.117845
-0.115579
-0.111049
-0.105064
-0.101827
-0.107465
391.731
391.624
391.429
391.235
391.077
390.97
390.91
390.886
390.874
390.779
391.278
391.151
391.037
390.927
390.84
390.792
390.777
390.783
390.778
390.676
390.555
390.448
390.383
390.351
390.368
390.429
390.513
390.588
390.608
390.483
389.196
389.199
389.169
389.321
389.565
389.847
390.124
390.332
390.404
390.223
386.702
386.704
387.02
387.519
388.188
388.893
389.556
390.005
390.135
389.826
382.175
382.327
383.098
384.35
385.902
387.419
388.774
389.44
389.486
388.98
375.406
375.666
376.58
380.27
383.476
386.005
388.082
388.658
388.119
387.943
172.351
170.934
188.602
227.556
268.406
291.157
321.278
336.335
328.259
329.781
0.898162
0.478949
0.0462756
0.000922386
3.20693
22.1828
50.6352
58.4743
41.8588
46.9292
0.00288963
0.0205563
0.0933063
-0.0450268
-0.099044
-0.0861523
-0.0672708
-0.077081
-0.131442
-0.0483314
-0.0500409
-0.0538812
-0.0673368
-0.098165
-0.140324
-0.165681
-0.152298
-0.136669
-0.131125
-0.0435537
-0.0733488
-0.0766615
-0.0880981
-0.11257
-0.148462
-0.168773
-0.167997
-0.141294
0.00155489
0.0386887
-0.0918733
-0.094055
-0.0999452
-0.114376
-0.138662
-0.148239
-0.152557
-0.0463864
-0.00732074
0.0566919
-0.100579
-0.10344
-0.1067
-0.115206
-0.130778
-0.146268
-0.154057
-0.14948
-0.098908
-0.0165161
-0.103495
-0.107174
-0.109464
-0.115364
-0.125913
-0.137116
-0.14509
-0.161334
-0.159885
-0.131846
-0.106472
-0.108668
-0.110668
-0.115264
-0.123315
-0.134933
-0.149066
-0.171242
-0.170532
-0.146205
-0.108528
-0.110013
-0.111607
-0.114631
-0.119658
-0.127756
-0.140176
-0.15895
-0.169222
-0.148605
-0.111129
-0.11202
-0.112963
-0.114535
-0.116555
-0.118486
-0.119966
-0.124902
-0.132373
-0.128166
-0.114181
-0.114657
-0.115084
-0.115734
-0.116153
-0.115585
-0.112968
-0.109494
-0.110688
-0.11508
-0.117995
-0.118188
-0.11821
-0.118301
-0.118028
-0.116878
-0.114528
-0.111686
-0.110565
-0.11357
393.837
393.593
393.15
392.588
391.998
391.457
390.995
390.635
390.378
390.129
393.608
393.4
392.976
392.43
391.85
391.303
390.821
390.43
390.131
389.847
393.554
393.299
392.837
392.247
391.615
391.009
390.466
390.008
389.629
389.257
393.321
393.001
392.484
391.842
391.175
390.522
389.9
389.329
388.818
388.293
392.598
392.157
391.619
391.003
390.373
389.696
388.971
388.249
387.532
386.739
390.859
390.15
389.526
389.044
388.618
388.12
387.546
386.55
385.335
384.099
388.941
387.607
386.708
386.842
387.207
387.151
386.27
383.711
380.36
379.681
286.612
264.178
249.877
263.439
287.21
294.757
293.785
278.523
240.743
253.991
32.7961
19.5972
9.74428
7.21423
13.659
21.8023
21.6391
9.234
0.180426
1.56966
-0.000855107
-0.0265922
0.0495001
-0.0750837
-0.119939
-0.119213
-0.0878969
-0.0418765
0.000357328
0.0478437
-0.0581389
-0.0519806
-0.049987
-0.0670228
-0.101929
-0.137289
-0.14719
-0.128741
-0.00662216
0.0325701
-0.075924
-0.0737683
-0.0746671
-0.0907858
-0.0971974
-0.118695
-0.150898
-0.117047
0.0109507
0.0862104
-0.0942971
-0.0947608
-0.0949667
-0.102335
-0.100712
-0.0828584
-0.0781193
-0.0859037
-0.0240739
0.0459078
-0.10529
-0.105882
-0.106097
-0.110599
-0.121187
-0.133611
-0.15058
-0.168736
-0.145092
-0.0094841
-0.104002
-0.10792
-0.109348
-0.113212
-0.120512
-0.129549
-0.140656
-0.152451
-0.145128
-0.119431
-0.104325
-0.10851
-0.110189
-0.11377
-0.119263
-0.126725
-0.136393
-0.147837
-0.140745
-0.123327
-0.106876
-0.109185
-0.110703
-0.113498
-0.117172
-0.121903
-0.128297
-0.137023
-0.1374
-0.125837
-0.109124
-0.110551
-0.11164
-0.11357
-0.11561
-0.117437
-0.118837
-0.12115
-0.122749
-0.11999
-0.111895
-0.112837
-0.113513
-0.11475
-0.115773
-0.116188
-0.115685
-0.114958
-0.115175
-0.116282
-0.115659
-0.116283
-0.11649
-0.117194
-0.117661
-0.117558
-0.11674
-0.115735
-0.115505
-0.116468
396.12
395.731
395.033
394.083
393.035
392.019
391.123
390.405
389.886
389.469
396.305
395.864
395.117
394.089
392.962
391.874
390.894
390.085
389.477
388.997
396.743
396.278
395.453
394.282
392.961
391.645
390.438
389.418
388.619
387.992
397.53
396.961
395.971
394.523
392.866
391.215
389.663
388.286
387.159
386.297
398.484
397.696
396.427
394.609
392.541
390.429
388.335
386.419
384.84
383.62
399.464
398.179
396.404
393.995
391.345
388.692
386.125
383.475
380.963
379.252
402.237
400.014
397.251
393.867
390.419
387.294
383.935
377.811
368.535
368.874
383.186
356.324
327.039
305.202
292.339
288.731
271.34
218.858
161.374
174.957
139.265
94.8024
54.9412
30.7843
18.8635
13.9898
3.95281
-0.00735734
0.0136579
0.0706896
0.6391
0.186285
-0.0139916
-0.0682642
-0.0977765
-0.112695
-0.0856829
-0.0503468
-0.0115423
0.0340545
-0.0662486
-0.0476362
-0.0337057
-0.0455964
-0.0610906
-0.0919861
-0.110311
-0.0745223
0.0340272
0.0228444
-0.0860516
-0.0901512
-0.0757676
-0.0772243
-0.0902069
-0.105055
-0.119103
-0.130171
0.00989918
0.0734787
-0.0993757
-0.103977
-0.0974039
-0.0929088
-0.0929073
-0.100854
-0.0940673
-0.0707105
-0.0152904
0.0402296
-0.125869
-0.117449
-0.110102
-0.10734
-0.112822
-0.12173
-0.134988
-0.152337
-0.143374
-0.0350103
-0.11405
-0.112295
-0.11163
-0.111702
-0.115634
-0.121693
-0.129564
-0.138454
-0.137578
-0.116088
-0.104158
-0.109937
-0.110915
-0.112354
-0.115452
-0.119799
-0.12503
-0.130089
-0.125625
-0.113956
-0.104062
-0.108199
-0.109048
-0.111786
-0.114409
-0.117291
-0.12019
-0.122837
-0.121264
-0.116006
-0.104256
-0.107905
-0.108944
-0.111628
-0.113771
-0.115511
-0.11661
-0.117199
-0.116776
-0.115464
-0.106595
-0.109516
-0.110453
-0.112714
-0.114409
-0.11548
-0.115808
-0.115731
-0.115629
-0.115664
-0.110784
-0.112984
-0.113373
-0.115093
-0.116413
-0.117173
-0.117309
-0.117165
-0.11714
-0.117372
398.286
397.898
396.929
395.587
394.094
392.623
391.295
390.223
389.448
388.863
399.124
398.473
397.329
395.789
394.099
392.467
390.997
389.782
388.875
388.207
399.953
399.263
398.082
396.309
394.297
392.294
390.443
388.877
387.666
386.802
401.533
400.773
399.397
397.156
394.535
391.897
389.445
387.29
385.561
384.414
403.79
402.91
401.077
398.1
394.607
391.067
387.7
384.64
382.237
380.71
407.501
405.839
403.087
398.84
393.959
389.111
384.639
380.319
376.527
374.691
414.391
411.67
407.43
400.987
393.758
386.869
380.786
368.732
350.759
352.908
422.197
416.952
397.441
352.467
304.759
265.649
230.784
169.595
106.831
119.274
350.012
268.185
171.547
78.5352
30.5101
7.59925
0.0249812
0.019323
0.0347875
0.0438416
113.706
34.7339
1.8703
-0.0437613
-0.0758779
-0.068689
-0.0516878
-0.0166342
-0.00822629
0.0240033
-0.235605
-0.0875109
-0.0491707
-0.0441623
-0.0465559
-0.0644875
-0.0752201
-0.0328262
-0.0375596
-0.0189429
-0.163368
-0.149059
-0.0890758
-0.0681644
-0.0756181
-0.0915554
-0.109435
-0.114921
-0.0718855
0.0258255
-0.159131
-0.140198
-0.106774
-0.0931972
-0.0840999
-0.0935971
-0.114322
-0.0943079
4.68918e-05
0.0431918
-0.182814
-0.149689
-0.118289
-0.107401
-0.103497
-0.108105
-0.119872
-0.134783
-0.14132
-0.0319398
-0.130676
-0.113975
-0.11676
-0.112045
-0.112217
-0.114654
-0.119125
-0.126285
-0.130481
-0.111644
-0.0859731
-0.112526
-0.113711
-0.111667
-0.11263
-0.114367
-0.116845
-0.120006
-0.11832
-0.109185
-0.0877981
-0.104127
-0.107656
-0.109849
-0.111794
-0.113467
-0.114918
-0.115946
-0.114242
-0.110441
-0.0886403
-0.101645
-0.105006
-0.108824
-0.11142
-0.113119
-0.114101
-0.114469
-0.113807
-0.112462
-0.0928973
-0.102662
-0.105902
-0.10979
-0.112367
-0.113949
-0.114726
-0.115001
-0.114876
-0.114525
-0.0999419
-0.106558
-0.109018
-0.112301
-0.114531
-0.115997
-0.116752
-0.117117
-0.117255
-0.117254
400.214
399.762
398.636
396.931
395.048
393.192
391.496
390.102
389.098
388.363
401.742
400.965
399.422
397.332
395.131
393.02
391.116
389.545
388.374
387.542
402.928
402.007
400.368
398.088
395.475
392.891
390.486
388.43
386.855
385.791
405.031
404.057
402.219
399.372
395.968
392.528
389.288
386.431
384.168
382.801
408.598
407.326
404.849
400.992
396.356
391.631
387.175
383.09
379.974
378.258
414.67
412.439
408.66
402.888
396.202
389.474
383.398
377.614
372.681
370.744
424.723
421.133
415.57
407.049
396.753
386.38
377.065
359.023
331.369
334.24
436.829
431.109
422.712
394.712
322.715
245.961
191.023
136.844
72.127
82.7222
451.304
430.279
327.69
166.353
52.0606
8.36012
0.0163215
0.0135414
0.0312932
0.0475943
441.795
264.7
75.6579
1.60727
-0.0399833
-0.0328968
0.0263668
0.0289019
-0.00661524
0.0245991
174.263
26.4291
-0.0275904
-0.0371541
-0.0202595
-0.0445516
-0.0696847
-0.0200767
-0.0472605
-0.0251331
2.9005
-0.074026
-0.0854193
-0.0688142
-0.0642415
-0.0711536
-0.0902825
-0.0908001
-0.0973853
-0.0493089
-0.0971326
-0.0981457
-0.114663
-0.0950143
-0.0900348
-0.0819652
-0.100528
-0.0958813
0.00345424
-0.00653394
11.6143
-0.175238
-0.144662
-0.112979
-0.103696
-0.0985082
-0.108961
-0.119576
-0.132524
-0.0608313
25.8735
-0.156547
-0.133234
-0.113553
-0.11088
-0.109192
-0.111295
-0.117008
-0.122134
-0.103841
3.87265
-0.124671
-0.125855
-0.112792
-0.111295
-0.11034
-0.111182
-0.113701
-0.113319
-0.104786
-0.0701345
-0.101137
-0.100144
-0.1088
-0.10969
-0.110326
-0.111064
-0.111612
-0.109703
-0.106364
-0.0772323
-0.0902606
-0.0918252
-0.105993
-0.109119
-0.110759
-0.11172
-0.112118
-0.111217
-0.10962
-0.0842075
-0.0932983
-0.0972204
-0.107149
-0.110385
-0.112187
-0.113225
-0.11374
-0.113616
-0.113033
-0.0951989
-0.102039
-0.104379
-0.108939
-0.112868
-0.114551
-0.115663
-0.116373
-0.116649
-0.116556
398.717
401.321
399.712
397.885
395.735
393.627
391.682
390.034
388.855
388.003
399.403
403.232
400.951
398.456
395.864
393.43
391.225
389.38
388.009
387.055
403.208
404.501
402.049
399.289
396.299
393.341
390.574
388.108
386.25
385.044
405.253
406.722
404.217
400.792
396.933
392.997
389.219
385.785
383.099
381.589
409.819
410.469
407.515
402.836
397.544
392.069
386.758
381.895
378.227
376.449
418.148
417.103
412.526
405.556
397.819
389.919
382.428
375.482
369.633
367.693
430.816
427.825
421.126
411.109
399.192
386.837
375.494
349.921
313.074
316.581
446.361
440.377
431.163
416.423
346.671
254.575
170.292
108.313
49.0035
59.3353
462.975
454.869
428.297
256.905
85.6277
15.3588
0.199017
0.00733279
0.0408611
0.0482184
487.447
475.624
267.107
32.7033
0.134798
-0.0274795
0.080564
0.0136277
0.000679055
0.0292367
515.074
456.762
29.3053
-0.0229644
-0.00916986
-0.0282852
-0.0536603
-0.0482891
-0.0503093
-0.0259089
518.339
161.159
-0.101612
-0.0912841
-0.064434
-0.0587932
-0.074533
-0.0834766
-0.0843707
-0.0657091
518.955
23.7472
-0.129536
-0.102018
-0.0897903
-0.0830997
-0.0920559
-0.091871
-0.0653882
-0.0813974
565.953
41.7994
-0.171026
-0.121845
-0.106839
-0.0983221
-0.102195
-0.103392
-0.0954392
-0.091731
448.064
19.5088
-0.165742
-0.114971
-0.112336
-0.105663
-0.106126
-0.109428
-0.113144
-0.0941204
73.217
-0.0680363
-0.16783
-0.116712
-0.112536
-0.107362
-0.107374
-0.109673
-0.110957
-0.098631
10.3657
-0.0708829
-0.120415
-0.108087
-0.108993
-0.107575
-0.108052
-0.108736
-0.107393
-0.103762
10.9741
-0.0601811
-0.0958942
-0.104043
-0.107742
-0.108357
-0.1095
-0.109998
-0.108801
-0.107039
9.96905
-0.0155846
-0.101235
-0.105754
-0.109023
-0.110157
-0.111555
-0.112391
-0.112301
-0.111538
9.25765
0.0529559
-0.109826
-0.10928
-0.111359
-0.112626
-0.114237
-0.115344
-0.115773
-0.115656
394.89
399.937
400.159
398.333
396.143
393.876
391.784
390.006
388.726
387.809
381.454
402.856
401.742
399.207
396.35
393.649
391.329
389.303
387.81
386.786
363.676
406.181
402.931
400.069
396.809
393.613
390.613
387.937
385.912
384.63
346.311
408.153
405.172
401.597
397.471
393.299
389.208
385.434
382.48
380.895
326.471
411.969
408.728
403.736
398.208
392.416
386.64
381.249
377.225
375.421
301.229
419.332
414.722
407.127
398.877
390.452
382.022
374.258
367.859
365.839
286.618
431.379
424.499
413.652
401.082
387.851
374.751
343.715
300.261
305.025
279.159
445.947
436.245
420.856
371.397
273.393
164.734
90.2422
36.7347
46.8986
327.653
462.295
450.332
326.239
122.329
26.8884
0.506138
-0.0016369
0.0502136
0.053967
440.507
486.642
426.57
94.0631
0.459636
-0.0188874
0.0709075
0.0231079
0.0128801
0.0343232
515.59
518.4
148.064
-0.181549
-0.0316946
-0.0348052
-0.0430663
-0.0508421
-0.0375571
-0.0196112
556.522
524.939
2.84756
-0.0916938
-0.0600167
-0.0564575
-0.0676691
-0.0695274
-0.0713299
-0.0545724
571.029
509.006
-0.0893021
-0.0956373
-0.0881187
-0.0799733
-0.0857955
-0.0713241
-0.0821271
-0.0762533
508.395
536.805
6.19593
-0.135266
-0.112161
-0.0966986
-0.0974112
-0.0695243
-0.0739358
-0.088154
492.763
408.038
14.2876
-0.133143
-0.11216
-0.102438
-0.102539
-0.0906144
-0.081694
-0.0906011
539.869
110.55
0.232324
-0.111817
-0.110097
-0.104164
-0.104872
-0.106885
-0.108638
-0.0945915
564.611
1.39237
0.404193
-0.0932297
-0.107944
-0.104503
-0.106016
-0.107062
-0.106506
-0.102285
526.311
0.0031089
-0.0360819
-0.0889693
-0.10534
-0.105815
-0.107938
-0.108738
-0.107776
-0.10602
511.555
-0.0534691
-0.0667313
-0.0952134
-0.106815
-0.108304
-0.110404
-0.111493
-0.111414
-0.110585
579.615
-0.0771658
-0.0639772
-0.09862
-0.109108
-0.111238
-0.113379
-0.114639
-0.115084
-0.114963
394.182
398.203
400.012
398.272
396.129
393.862
391.767
389.987
388.707
387.789
380.941
398.353
401.556
399.143
396.321
393.63
391.309
389.28
387.786
386.761
361.666
404.1
402.812
400.024
396.785
393.589
390.578
387.902
385.877
384.595
342.265
408.228
405.069
401.567
397.498
393.3
389.168
385.382
382.424
380.839
322.285
412.085
408.695
403.786
398.324
392.455
386.586
381.159
377.128
375.334
301.194
419.825
414.848
407.282
399.078
390.496
381.883
374.017
367.639
365.659
289.835
432.126
424.695
413.846
401.304
387.932
374.618
342.761
299.042
303.955
292.134
446.599
436.372
421.019
372.687
273.342
162.713
87.2998
35.0355
46.0737
370.36
462.478
449.942
327.814
127.167
28.5854
0.617489
0.000377869
0.0516474
0.0556533
482.131
486.307
422.622
98.4186
0.399639
-0.0225893
0.0174686
0.00310108
0.017413
0.0353571
524.652
518.466
128.781
-0.191241
-0.0411918
-0.0486343
-0.0385217
-0.0419293
-0.0303477
-0.0145469
506.162
527.421
1.3895
-0.0973419
-0.0679924
-0.0609207
-0.0677311
-0.0656162
-0.0643375
-0.0489309
455.605
451.764
-0.0906485
-0.0960487
-0.0909483
-0.0812297
-0.0852255
-0.0654579
-0.0638905
-0.071551
483.476
467.075
-0.134118
-0.113792
-0.112796
-0.0977204
-0.0968972
-0.0648389
-0.0714873
-0.0820094
599.996
548.953
9.5812
-0.147927
-0.122447
-0.105306
-0.102209
-0.0849464
-0.0755105
-0.0855678
635.859
465.983
19.6995
-0.124381
-0.114904
-0.104359
-0.104241
-0.105379
-0.105427
-0.0935283
626.366
76.8873
6.96601
-0.081009
-0.10672
-0.103381
-0.105305
-0.106107
-0.105907
-0.102181
616.81
0.0588134
0.0144017
-0.0681941
-0.107241
-0.104219
-0.107583
-0.108095
-0.107251
-0.105634
654.877
-0.0232731
-0.072792
-0.09692
-0.110941
-0.1079
-0.110132
-0.110963
-0.110901
-0.1101
689.582
5.81843
-0.118542
-0.116843
-0.114641
-0.11153
-0.113131
-0.114112
-0.114541
-0.114399
398.802
401.292
399.644
397.848
395.707
393.59
391.631
389.982
388.801
387.948
399.624
403.075
400.834
398.414
395.829
393.388
391.164
389.315
387.942
386.988
404.02
404.334
401.897
399.228
396.27
393.298
390.464
388.012
386.154
384.951
407.831
406.465
403.975
400.709
396.924
392.962
389.142
385.652
382.953
381.448
411.527
410.243
407.254
402.803
397.589
392.049
386.615
381.67
377.981
376.244
419.27
416.9
412.337
405.575
397.878
389.848
382.058
374.909
369.044
367.249
431.857
427.589
420.891
411.012
399.28
386.912
375.207
348.839
310.909
314.295
446.72
440.335
430.977
416.279
347.539
255.995
167.434
101.957
45.6254
56.9992
462.727
454.835
422.454
250.56
88.1145
17.5423
0.407322
0.00271245
0.0440996
0.0485297
486.554
470.582
241.819
29.7916
0.119805
0.0236792
0.0298492
-0.00886634
0.0104459
0.0282448
515.629
447.184
18.9391
-0.0642916
0.0137041
-0.0328284
-0.0549011
-0.0511913
-0.0374375
-0.0189698
522.362
206.36
-0.163356
-0.12302
-0.0781002
-0.0676711
-0.0736393
-0.0679815
-0.0701331
-0.0527018
459.285
40.972
-0.172423
-0.106168
-0.096462
-0.0866069
-0.0883333
-0.0751875
-0.0667769
-0.0750125
464.774
13.7729
-0.152374
-0.1077
-0.108158
-0.100795
-0.099718
-0.08739
-0.0748667
-0.0842905
519.001
-0.191558
0.265825
-0.131184
-0.114135
-0.107135
-0.104279
-0.100838
-0.0989052
-0.0850086
532.569
8.95279
1.91474
-0.141081
-0.113218
-0.106804
-0.105637
-0.10597
-0.108357
-0.0952284
310.59
13.3457
-0.0548223
-0.105127
-0.106768
-0.105919
-0.106514
-0.106455
-0.105578
-0.102231
40.2583
2.90713
-0.0832174
-0.100094
-0.108228
-0.106402
-0.108156
-0.108279
-0.107269
-0.105649
14.0803
0.0841811
-0.0885678
-0.100462
-0.108949
-0.108316
-0.110085
-0.110867
-0.110809
-0.11007
21.3914
-0.10789
-0.10475
-0.10645
-0.11047
-0.111204
-0.112811
-0.113886
-0.114303
-0.114196
400.125
399.677
398.577
396.883
394.998
393.129
391.421
390.023
389.017
388.28
401.721
400.895
399.346
397.274
395.07
392.947
391.026
389.449
388.277
387.445
402.872
401.947
400.313
398.039
395.419
392.807
390.364
388.296
386.721
385.662
405.012
403.991
402.136
399.317
395.904
392.413
389.095
386.236
383.974
382.62
408.518
407.241
404.779
400.968
396.321
391.515
386.944
382.776
379.646
378.005
414.663
412.336
408.544
402.854
396.143
389.259
382.816
376.866
371.93
370.262
424.629
420.934
415.193
406.792
396.678
386.312
376.391
357.837
328.871
332.175
436.546
431.068
422.567
393.178
322.992
248.224
189.769
128.379
66.8834
79.9046
450.44
424.559
312.885
158.938
49.5913
9.71338
0.0449773
0.0158341
0.0273416
0.0408408
429.522
246.777
66.3995
1.31492
-0.00255717
-0.0302924
0.0594846
-0.0156511
-0.0024846
0.0163912
141.577
18.7606
-0.113714
-0.0493283
0.0514405
-0.0503608
-0.0718081
-0.0679811
-0.0491467
-0.0266361
-0.0867113
0.125786
-0.186928
-0.101883
-0.0824538
-0.0801043
-0.0819486
-0.0813575
-0.053185
-0.0496209
-0.0516642
-0.100976
-0.165555
-0.108392
-0.0990167
-0.0884832
-0.0908145
-0.0944109
-0.0900042
-0.0763243
-0.107603
-0.0951247
-0.139528
-0.12105
-0.10791
-0.0983569
-0.103196
-0.102656
-0.104082
-0.0882272
8.31596
-0.127029
-0.150444
-0.135211
-0.112631
-0.11036
-0.106618
-0.106493
-0.110935
-0.0914843
22.1007
-0.143932
-0.0563996
-0.139871
-0.11243
-0.111516
-0.107971
-0.107202
-0.106581
-0.0968851
19.8642
2.61709
0.566206
-0.127224
-0.111971
-0.109741
-0.108366
-0.107481
-0.10547
-0.102242
8.594
6.95402
0.747764
-0.115514
-0.109616
-0.108489
-0.10898
-0.108901
-0.107925
-0.106265
0.0107064
2.0243
0.123739
-0.103335
-0.1071
-0.1085
-0.110245
-0.110935
-0.11089
-0.110302
-0.0669277
-0.0548814
-0.0742356
-0.0993709
-0.107484
-0.110449
-0.112493
-0.113661
-0.114124
-0.114092
398.314
397.879
396.887
395.539
394.033
392.548
391.209
390.131
389.355
388.768
399.127
398.436
397.272
395.73
394.027
392.38
390.896
389.675
388.766
388.098
399.935
399.225
398.03
396.253
394.22
392.19
390.31
388.732
387.524
386.664
401.483
400.7
399.308
397.072
394.423
391.744
389.245
387.084
385.364
384.23
403.682
402.81
400.965
398.007
394.491
390.884
387.428
384.312
381.914
380.455
407.254
405.658
402.898
398.682
393.783
388.81
384.045
379.617
375.877
374.282
413.978
411.222
406.911
400.641
393.57
386.641
380.199
367.56
348.991
351.68
421.518
416.508
393.755
351.111
306.472
267.201
228.229
163.336
101.716
116.146
334.337
256.46
162.489
74.096
31.1922
8.53317
0.0538766
0.0110866
0.0124842
0.0296835
102.496
35.4436
1.79344
0.0423208
0.0301677
0.122394
0.148671
-0.025111
-0.0156549
0.00732919
-0.214375
0.196868
-0.044911
-0.0830914
0.119926
-0.00166052
-0.0128694
-0.0791186
-0.0555559
-0.0273387
-0.128815
0.415232
-0.127056
-0.10474
-0.105382
-0.101851
-0.107206
-0.0887391
-0.00571949
-0.0260628
-0.0972302
0.13614
-0.118664
-0.0796371
-0.0994601
-0.0910017
-0.0821278
-0.10665
-0.105467
-0.0642349
-0.118233
-0.103827
-0.0346095
-0.111542
-0.0925333
-0.0937154
-0.110289
-0.110593
-0.115114
-0.0880845
-0.144201
-0.127332
0.0611091
-0.125398
-0.110803
-0.11308
-0.111422
-0.11103
-0.109836
-0.09072
-0.143576
-0.157691
0.137715
-0.124817
-0.112349
-0.113404
-0.11148
-0.110446
-0.107462
-0.099991
-0.122192
0.388817
0.259999
-0.122448
-0.113084
-0.112133
-0.110915
-0.109906
-0.10769
-0.10434
-0.0805135
1.44529
0.155104
-0.112222
-0.11013
-0.110388
-0.110442
-0.110079
-0.109144
-0.107867
-0.0655427
0.397407
-0.0646435
-0.103311
-0.107886
-0.109984
-0.111039
-0.111354
-0.111201
-0.110843
-0.0854568
-0.0660046
-0.0951346
-0.102738
-0.108493
-0.111373
-0.11287
-0.113665
-0.11398
-0.114031
396.115
395.704
394.985
394.023
392.961
391.934
391.031
390.31
389.792
389.372
396.278
395.822
395.055
394.017
392.877
391.778
390.789
389.977
389.37
388.89
396.725
396.25
395.397
394.207
392.863
391.529
390.305
389.281
388.488
387.863
397.474
396.911
395.885
394.41
392.725
391.052
389.479
388.1
386.985
386.136
398.361
397.606
396.312
394.478
392.379
390.226
388.077
386.127
384.564
383.399
399.207
397.967
396.184
393.788
391.118
388.351
385.626
382.879
380.445
378.967
401.678
399.546
396.867
393.627
390.194
386.857
383.208
376.773
367.439
368.542
378.489
351.315
325.203
307.033
295.911
287.455
266.65
212.108
156.337
172.487
129.789
91.1802
53.7618
32.0156
23.3257
15.414
3.40883
-0.0182513
-0.0245637
0.048269
0.537615
0.361001
0.159933
-0.0366992
-0.0767899
-0.0374356
-0.0613436
-0.0361115
-0.0217808
0.0106145
-0.0594029
0.769627
0.172335
-0.0481173
-0.0767684
0.054225
0.161303
0.168036
0.0130212
-0.0159487
-0.0829577
-0.0935789
0.130064
-0.0209093
-0.110779
-0.119439
-0.112301
-0.100386
0.0454805
0.00490816
-0.0892165
-0.0981156
-0.0530121
-0.0572643
-0.078324
-0.0909844
-0.0717042
-0.121908
-0.114634
-0.0407337
-0.107238
-0.100334
-0.0647817
-0.101225
-0.0692735
-0.111759
-0.118747
-0.120599
-0.121913
-0.0905573
-0.118717
-0.119621
-0.105558
-0.117586
-0.112952
-0.116769
-0.118318
-0.119017
-0.115314
-0.101657
-0.121588
-0.142172
-0.114267
-0.122338
-0.114461
-0.115918
-0.116723
-0.117395
-0.113905
-0.106108
-0.119201
-0.152478
-0.118432
-0.118848
-0.113526
-0.113707
-0.114144
-0.114315
-0.112772
-0.109243
-0.105411
-0.117668
-0.110809
-0.110814
-0.110856
-0.111561
-0.111893
-0.111656
-0.11093
-0.110068
-0.0982285
-0.0911933
-0.100053
-0.105905
-0.109233
-0.110933
-0.111604
-0.11157
-0.111324
-0.111345
-0.102685
-0.0972984
-0.102083
-0.106438
-0.109939
-0.112049
-0.113056
-0.113392
-0.11349
-0.113701
393.821
393.557
393.093
392.518
391.917
391.369
390.904
390.545
390.289
390.04
393.574
393.352
392.908
392.349
391.758
391.205
390.72
390.331
390.036
389.752
393.529
393.258
392.763
392.152
391.505
390.891
390.344
389.891
389.519
389.15
393.259
392.923
392.365
391.699
391.021
390.364
389.745
389.183
388.686
388.169
392.459
392.034
391.472
390.828
390.18
389.497
388.761
388.041
387.342
386.586
390.547
389.89
389.257
388.762
388.293
387.766
387.179
386.161
385.02
383.946
388.323
387.185
386.453
386.606
386.756
386.539
385.675
383.185
380.043
379.777
279.067
260.224
250.794
267.702
286.752
290.709
291.244
276.363
237.798
253.027
28.5349
18.279
10.661
8.99113
15.0767
21.0016
20.9653
7.45715
0.105816
1.45599
-0.0206904
-0.00926903
0.0995288
-0.0738023
-0.077407
-0.0923201
-0.0735284
-0.0313801
-0.000932947
0.0551454
-0.0322974
-0.00940677
0.358317
0.331872
-0.0806748
-0.0908951
0.150075
0.190108
0.237873
0.0637659
-0.0571205
-0.0700184
-0.0793009
-0.0732279
-0.100271
-0.111503
-0.103562
-0.0879975
0.154264
0.0851225
-0.078669
-0.0841347
-0.0829522
-0.0870968
-0.0847665
0.00365261
-0.0239549
-0.130001
-0.119763
-0.0356609
-0.093785
-0.0958166
-0.0926385
-0.0882882
-0.107381
-0.121339
-0.125621
-0.129896
-0.12696
-0.101057
-0.103111
-0.107373
-0.104538
-0.112363
-0.115248
-0.121065
-0.126013
-0.130431
-0.125085
-0.109904
-0.106236
-0.113907
-0.109726
-0.114731
-0.115353
-0.119468
-0.124999
-0.131328
-0.130026
-0.116834
-0.107116
-0.116763
-0.111053
-0.113451
-0.113744
-0.116001
-0.119591
-0.124527
-0.126488
-0.118302
-0.103962
-0.107935
-0.108217
-0.110325
-0.111413
-0.112556
-0.113281
-0.113907
-0.114939
-0.113713
-0.102336
-0.100668
-0.105488
-0.108514
-0.11043
-0.111472
-0.111533
-0.110882
-0.110543
-0.111522
-0.1038
-0.101891
-0.106397
-0.109336
-0.111353
-0.112502