/*--------------------------------*- C++ -*----------------------------------*\
| =========                 |                                                 |
| \\      /  F ield         | OpenFOAM: The Open Source CFD Toolbox           |
|  \\    /   O peration     | Version:  2312                                  |
|   \\  /    A nd           | Website:  www.openfoam.com                      |
|    \\/     M anipulation  |                                                 |
\*---------------------------------------------------------------------------*/
FoamFile
{
    version     2.0;
    format      ascii;
    arch        "LSB;label=32;scalar=64";
    class       surfaceScalarField;
    location    "0.355";
    object      phi;
}
// * * * * * * * * * * * * * * * * * * * * * * * * * * * * * * * * * * * * * //

dimensions      [0 3 -1 0 0 0 0];

oriented        oriented;

internalField   nonuniform List<scalar> 
22600
(
-9.72734e-08
1.96569e-07
-9.09333e-08
-2.01528e-07
1.75705e-07
-7.14508e-08
-2.95758e-07
1.36876e-07
-4.26454e-08
-3.6818e-07
8.33134e-08
-1.0892e-08
-4.04843e-07
2.08059e-08
1.58569e-08
-3.97576e-07
-5.06726e-08
4.34055e-08
-3.46906e-07
-1.19716e-07
6.90462e-08
-2.49739e-07
-1.89819e-07
9.26527e-08
-1.08942e-07
-2.55838e-07
1.1504e-07
-2.19274e-07
1.10332e-07
-9.61649e-08
4.32799e-07
-1.30069e-07
-2.01269e-07
3.89669e-07
-1.08859e-07
-2.97681e-07
3.09898e-07
-7.661e-08
-3.74764e-07
2.00527e-07
-4.01294e-08
-4.2066e-07
6.86081e-08
-1.90607e-09
-4.21278e-07
-8.07559e-08
3.07005e-08
-3.75267e-07
-2.28926e-07
6.3199e-08
-2.74983e-07
-3.83185e-07
9.30818e-08
-1.20043e-07
-5.32285e-07
1.21507e-07
-4.60175e-07
1.20858e-07
-1.31137e-07
7.20553e-07
-1.47831e-07
-2.68754e-07
6.51829e-07
-1.24543e-07
-3.97289e-07
5.2337e-07
-8.49374e-08
-5.00955e-07
3.44047e-07
-3.98542e-08
-5.63278e-07
1.29662e-07
1.26823e-09
-5.66746e-07
-1.20139e-07
4.28517e-08
-5.11435e-07
-3.68928e-07
8.46921e-08
-3.82183e-07
-6.37671e-07
1.25234e-07
-1.68582e-07
-9.12098e-07
1.66212e-07
-7.96001e-07
1.67245e-07
-1.81772e-07
1.07143e-06
-1.61738e-07
-3.67927e-07
9.78036e-07
-1.40053e-07
-5.43706e-07
8.0016e-07
-1.01011e-07
-6.86844e-07
5.40028e-07
-5.2843e-08
-7.72804e-07
2.09199e-07
6.42355e-09
-7.97454e-07
-1.549e-07
5.94106e-08
-7.43951e-07
-5.3741e-07
1.14979e-07
-5.95917e-07
-9.65073e-07
1.79369e-07
-3.01609e-07
-1.47757e-06
2.71164e-07
-1.39058e-06
2.9297e-07
-2.32805e-07
1.37061e-06
-6.49555e-08
-4.76296e-07
1.26402e-06
-4.24899e-08
-7.25965e-07
1.06173e-06
-1.1897e-08
-9.43272e-07
7.28615e-07
2.87204e-08
-1.0796e-06
2.69258e-07
7.6272e-08
-1.08549e-06
-2.9394e-07
1.4493e-07
-1.03802e-06
-8.02456e-07
2.17575e-07
-9.49171e-07
-1.40312e-06
3.492e-07
-6.39567e-07
-2.37875e-06
5.9158e-07
-2.65549e-06
6.25344e-07
-2.18326e-07
1.57638e-06
-5.64129e-08
-3.9441e-07
1.47153e-06
-3.14273e-08
-6.18275e-07
1.25572e-06
2.98694e-08
-8.71272e-07
8.48925e-07
1.32687e-07
-1.03416e-06
1.70286e-07
2.61857e-07
-1.14571e-06
-5.70267e-07
3.87884e-07
-1.15702e-06
-1.34331e-06
5.52165e-07
-1.16891e-06
-2.21086e-06
8.19618e-07
-9.90077e-07
-3.71362e-06
1.15604e-06
-4.66282e-06
1.01725e-06
-1.54081e-07
2.59028e-06
-8.60796e-07
-3.95335e-07
2.45619e-06
-7.43406e-07
-7.78058e-07
2.11841e-06
-4.7997e-07
-1.23922e-06
1.4503e-06
-1.40206e-07
-1.60625e-06
3.25917e-07
2.11396e-07
-1.79273e-06
-9.3565e-07
5.51857e-07
-1.68022e-06
-2.33262e-06
8.76809e-07
-1.32116e-06
-3.5802e-06
1.01028e-06
-9.28178e-07
-4.90133e-06
7.94722e-07
-6.48233e-06
8.91339e-07
1.55975e-07
5.49028e-06
-2.59749e-06
-4.66476e-07
5.37571e-06
-2.29707e-06
-1.48069e-06
5.03346e-06
-1.90083e-06
-2.5407e-06
4.05212e-06
-1.54181e-06
-3.30921e-06
2.19452e-06
-1.1001e-06
-3.48725e-06
-4.67911e-07
-2.89696e-07
-3.06133e-06
-2.63025e-06
-1.283e-07
-1.15656e-06
-3.57323e-06
-1.91174e-06
9.80326e-08
-2.88369e-06
-3.27224e-06
-5.78187e-06
-6.0243e-07
8.79298e-07
1.2059e-05
-7.42535e-06
1.95607e-06
1.21973e-05
-7.89839e-06
3.69112e-06
1.23784e-05
-9.07996e-06
5.75683e-06
1.17068e-05
-9.72034e-06
4.8586e-06
1.02372e-05
-7.14446e-06
5.01567e-08
5.60254e-06
-1.262e-06
-3.375e-06
1.05628e-06
-2.61374e-07
-3.59911e-06
-2.19707e-06
-1.15204e-06
-8.19966e-07
-3.81739e-06
-1.84544e-06
-6.64643e-06
4.45858e-08
6.99099e-07
1.63606e-05
-5.28405e-06
2.14219e-06
1.62646e-05
-5.51033e-06
3.94657e-06
1.59707e-05
-5.39668e-06
5.20235e-06
1.47299e-05
-4.27888e-06
4.32991e-06
1.23259e-05
-1.21627e-06
1.26387e-06
8.0669e-06
6.01672e-07
-1.30632e-06
3.80157e-06
-1.75106e-07
-2.37895e-06
1.0062e-09
-1.12545e-06
-3.61651e-07
-2.25927e-06
-3.57543e-06
-4.43751e-06
-2.57057e-06
8.35114e-07
1.63621e-05
-1.07732e-06
2.19105e-06
1.61235e-05
-1.21483e-06
3.64048e-06
1.54608e-05
-9.39537e-07
4.24361e-06
1.35962e-05
5.30536e-07
3.39534e-06
1.1141e-05
2.0332e-06
1.93716e-06
8.64077e-06
8.84307e-07
2.78006e-07
5.58654e-06
-1.2582e-07
-1.50454e-06
2.07239e-06
-2.88839e-07
-6.57019e-07
-1.04904e-08
-3.0963e-06
-1.61798e-06
-3.47655e-06
1.13344e-06
1.29e-05
2.31054e-06
2.36116e-06
1.24896e-05
2.40617e-06
3.43687e-06
1.15538e-05
2.83127e-06
3.73507e-06
1.00652e-05
3.23284e-06
3.34322e-06
8.89527e-06
2.63758e-06
2.7524e-06
8.0586e-06
1.17299e-06
1.51057e-06
6.5805e-06
2.47882e-07
-6.46108e-07
4.12428e-06
1.04795e-07
-8.83924e-07
2.73134e-06
-2.50402e-06
1.05123e-06
-3.55314e-06
1.22296e-06
8.41871e-06
3.08873e-06
2.28696e-06
8.04729e-06
3.37832e-06
2.91229e-06
7.30566e-06
3.6228e-06
3.07799e-06
6.49583e-06
3.40363e-06
3.01602e-06
6.2829e-06
2.67434e-06
2.75015e-06
6.64567e-06
1.67881e-06
1.64635e-06
7.00576e-06
6.78536e-07
-4.5577e-07
6.05045e-06
1.75933e-07
-9.25961e-07
5.20989e-06
-2.00837e-06
3.45866e-06
-3.33339e-06
8.08373e-07
4.98969e-06
2.07291e-06
1.5658e-06
4.98507e-06
2.3048e-06
1.59074e-06
4.70591e-06
2.57481e-06
1.42268e-06
4.20444e-06
2.45945e-06
1.52862e-06
3.98171e-06
2.19525e-06
1.77801e-06
4.62484e-06
1.77144e-06
1.14844e-06
6.84924e-06
7.86094e-07
-4.25857e-07
7.67027e-06
-4.5531e-08
-7.78139e-07
7.17309e-06
-1.61091e-06
5.68334e-06
-3.00283e-06
3.59738e-07
3.08647e-06
1.10114e-06
7.3489e-07
3.32331e-06
1.28661e-06
5.19101e-07
3.38676e-06
1.53494e-06
3.47462e-07
2.75259e-06
1.62349e-06
6.0551e-07
1.98342e-06
1.74024e-06
1.05563e-06
2.214e-06
1.96072e-06
8.38193e-07
5.85262e-06
1.21405e-06
-2.29231e-07
8.88072e-06
-1.43031e-07
-5.49371e-07
8.77821e-06
-1.28498e-06
7.74399e-06
-2.61001e-06
9.32061e-08
1.987e-06
9.77682e-07
1.56565e-07
2.09119e-06
1.16876e-06
3.17704e-07
1.8553e-06
1.37032e-06
7.09424e-07
9.58644e-07
1.40222e-06
1.22634e-06
6.65063e-08
1.39999e-06
1.47791e-06
3.61989e-08
1.92623e-06
1.03027e-06
4.41639e-06
1.88387e-06
8.15358e-08
9.68938e-06
1.40079e-07
-4.29119e-07
1.02185e-05
-9.29608e-07
9.43933e-06
-2.12447e-06
-4.21628e-08
9.51359e-07
1.20996e-06
3.57368e-08
7.56832e-07
1.25645e-06
3.80109e-07
3.09208e-07
1.20172e-06
7.59343e-07
-3.0142e-07
8.80824e-07
1.08187e-06
-1.1374e-06
8.81376e-07
9.11836e-07
-1.28009e-06
1.48633e-06
5.17834e-07
2.95392e-06
1.85647e-06
-9.2359e-08
9.79172e-06
5.0785e-07
-7.35822e-07
1.13811e-05
-5.19157e-07
1.00714e-05
-1.36793e-06
3.79895e-08
2.49332e-08
9.48175e-07
6.02258e-08
-1.27331e-07
8.61928e-07
6.12259e-08
-3.80761e-07
6.8897e-07
7.1867e-08
-8.18354e-07
5.06294e-07
-1.62938e-07
-1.55175e-06
6.49162e-07
-7.83819e-07
-1.89625e-06
1.23703e-06
-1.22705e-06
1.72855e-06
1.66859e-06
-1.24195e-06
8.85473e-06
9.51901e-07
-1.53037e-06
1.1533e-05
1.36481e-07
8.79335e-06
-2.52276e-07
-7.50577e-08
-3.91495e-07
5.20903e-07
-2.17563e-07
-4.75133e-07
4.90313e-07
-3.97766e-07
-6.27368e-07
4.26811e-07
-6.73773e-07
-8.73846e-07
3.31496e-07
-1.26306e-06
-1.34767e-06
3.852e-07
-2.386e-06
-1.70875e-06
9.3544e-07
-3.16734e-06
6.68616e-07
1.84128e-06
-2.60626e-06
6.51536e-06
1.77828e-06
-1.94589e-06
9.57542e-06
1.29724e-06
5.73632e-06
1.11115e-06
-1.55676e-07
3.46763e-07
-5.73029e-07
-3.60805e-07
3.40491e-07
-6.10495e-07
-6.28492e-07
3.05608e-07
-6.6529e-07
-1.01243e-06
2.40577e-07
-7.30493e-07
-1.67354e-06
1.70714e-07
-8.57268e-07
-2.83827e-06
3.72511e-07
-9.16529e-07
-3.70252e-06
1.27671e-06
2.56157e-07
-2.86137e-06
2.04166e-06
3.63255e-06
-1.3099e-06
2.05325e-06
5.9707e-06
1.50412e-06
2.92231e-06
-1.45834e-07
6.52345e-08
9.54063e-10
-2.83947e-07
4.98599e-08
1.68027e-08
-3.89442e-07
1.7028e-08
4.58216e-08
-4.53704e-07
-2.63352e-08
7.97052e-08
-4.75075e-07
-7.85968e-08
1.15824e-07
-4.52531e-07
-1.3328e-07
1.54142e-07
-3.86143e-07
-1.90955e-07
1.93613e-07
-2.72423e-07
-2.5582e-07
2.34753e-07
-1.1367e-07
-3.1955e-07
2.75837e-07
-2.56701e-07
2.53363e-07
-1.29018e-07
1.42825e-07
-6.55086e-08
-2.59536e-07
1.23249e-07
-5.17306e-08
-3.65434e-07
6.5598e-08
-1.92822e-08
-4.39688e-07
-1.79118e-08
2.57011e-08
-4.72246e-07
-1.24934e-07
7.69893e-08
-4.62397e-07
-2.43162e-07
1.30733e-07
-4.05063e-07
-3.70237e-07
1.85148e-07
-2.91358e-07
-5.16514e-07
2.40071e-07
-1.2074e-07
-6.62557e-07
2.93895e-07
-5.34534e-07
2.77951e-07
-1.68542e-07
2.76867e-07
-1.00699e-07
-3.42287e-07
2.51382e-07
-7.89303e-08
-4.84477e-07
1.59864e-07
-3.70136e-08
-5.86753e-07
2.3484e-08
2.10263e-08
-6.29685e-07
-1.73061e-07
9.23278e-08
-6.2129e-07
-3.74937e-07
1.66232e-07
-5.52876e-07
-5.96379e-07
2.4242e-07
-4.05461e-07
-8.60864e-07
3.22169e-07
-1.68056e-07
-1.13675e-06
4.03004e-07
-9.17481e-07
3.82136e-07
-2.25143e-07
4.92882e-07
-1.40381e-07
-4.56394e-07
4.55941e-07
-1.1336e-07
-6.51997e-07
3.16185e-07
-6.17296e-08
-7.79763e-07
8.68241e-08
1.15828e-08
-8.71519e-07
-1.76401e-07
1.0152e-07
-8.81712e-07
-5.14849e-07
2.09515e-07
-8.11511e-07
-8.75191e-07
3.2359e-07
-6.2827e-07
-1.31975e-06
4.55017e-07
-2.81214e-07
-1.82663e-06
6.13985e-07
-1.49479e-06
5.89063e-07
-3.29037e-07
9.24737e-07
-1.66218e-07
-6.57345e-07
8.72902e-07
-1.31144e-07
-9.61019e-07
6.82502e-07
-7.454e-08
-1.19984e-06
3.35028e-07
1.93371e-08
-1.29832e-06
-1.54548e-07
1.52904e-07
-1.28746e-06
-6.89031e-07
3.08242e-07
-1.20747e-06
-1.21146e-06
4.7386e-07
-1.03273e-06
-1.86782e-06
7.22527e-07
-5.96572e-07
-2.73025e-06
1.05904e-06
-2.41604e-06
9.50026e-07
-4.03592e-07
1.46443e-06
-2.46224e-07
-7.73782e-07
1.3981e-06
-1.8643e-07
-1.15145e-06
1.14135e-06
-5.13061e-08
-1.44416e-06
6.4134e-07
1.19085e-07
-1.58984e-06
-6.86925e-08
3.21675e-07
-1.64525e-06
-7.5679e-07
5.1106e-07
-1.58047e-06
-1.52213e-06
7.98048e-07
-1.46034e-06
-2.38572e-06
1.21738e-06
-1.09437e-06
-3.58887e-06
1.6487e-06
-3.74667e-06
1.2535e-06
-3.44045e-07
2.23963e-06
-1.3002e-06
-7.60945e-07
2.20131e-06
-1.12972e-06
-1.28955e-06
1.96858e-06
-7.78598e-07
-1.79979e-06
1.35181e-06
-3.40428e-07
-2.06495e-06
3.1629e-07
9.15662e-08
-2.09894e-06
-7.18567e-07
5.47627e-07
-1.85282e-06
-1.88233e-06
9.90892e-07
-1.50058e-06
-2.88151e-06
1.15383e-06
-9.78261e-07
-4.35346e-06
1.03699e-06
-5.03343e-06
1.19985e-06
-6.16034e-08
3.23023e-06
-3.44769e-06
-4.48615e-07
3.48274e-06
-3.19149e-06
-1.08218e-06
3.46067e-06
-2.75935e-06
-1.64367e-06
2.53559e-06
-2.16411e-06
-1.67701e-06
9.4285e-07
-1.69332e-06
-1.22264e-06
-4.47954e-07
-1.01467e-06
8.15045e-07
-2.92315e-06
-1.12516e-06
1.08447e-06
-1.42925e-06
-3.63343e-06
1.22428e-06
-2.04232e-06
-5.7232e-06
-2.97318e-06
-1.43841e-06
7.28826e-07
4.97131e-06
-9.93381e-06
1.72517e-06
4.5364e-06
-9.94839e-06
2.9681e-06
3.49534e-06
-1.03576e-05
3.13817e-06
3.18399e-06
-1.05388e-05
1.94187e-06
4.41323e-06
-9.41853e-06
1.1074e-06
4.23516e-06
-5.11066e-06
-8.8225e-08
1.83501e-06
-3.82391e-06
1.04974e-07
4.68555e-07
-3.24304e-06
6.22757e-07
-5.34303e-07
-3.87124e-06
-2.07214e-06
-2.33701e-07
3.51953e-07
5.69383e-06
-6.92371e-06
1.34183e-06
5.48768e-06
-7.45149e-06
1.65612e-06
5.29135e-06
-7.50698e-06
1.11687e-06
5.96623e-06
-6.52187e-06
1.36051e-06
6.99991e-06
-4.0466e-06
2.04877e-06
6.4276e-06
-2.27902e-06
1.88102e-06
4.28585e-06
-2.45821e-06
2.06005e-06
2.38255e-06
-3.21848e-06
1.5387e-06
2.04857e-06
-5.63696e-06
6.95477e-07
-3.79949e-06
3.10819e-07
4.53604e-06
-8.55931e-07
1.04058e-06
4.75349e-06
-1.2104e-06
1.11964e-06
5.33931e-06
-1.06655e-06
1.13317e-06
6.79675e-06
-3.1352e-07
2.1124e-06
7.95039e-06
1.03497e-07
2.63285e-06
7.31911e-06
-5.2765e-07
2.2344e-06
5.69512e-06
-1.13665e-06
1.562e-06
4.12385e-06
-1.35774e-06
9.89732e-07
3.7854e-06
-4.26087e-06
3.01151e-06
-4.80286e-06
1.07666e-06
3.33345e-06
1.62974e-06
2.17694e-06
4.35967e-06
1.69972e-06
2.71707e-06
5.63613e-06
1.99433e-06
3.35507e-06
6.91286e-06
2.47874e-06
3.97989e-06
7.68073e-06
2.28243e-06
3.78872e-06
7.47642e-06
1.20685e-06
2.80976e-06
6.72639e-06
1.95576e-07
1.47955e-06
5.73201e-06
-1.73149e-07
6.83546e-07
5.2155e-06
-3.13813e-06
4.79524e-06
-4.65332e-06
7.35618e-07
1.87905e-06
2.67211e-06
2.0034e-06
3.22534e-06
3.24487e-06
2.95566e-06
4.47226e-06
3.83439e-06
4.0042e-06
5.2319e-06
4.03605e-06
4.81047e-06
5.89144e-06
3.65735e-06
4.62937e-06
6.62754e-06
2.70877e-06
3.29701e-06
7.35623e-06
1.38106e-06
1.53711e-06
7.1849e-06
4.82935e-07
5.29451e-07
6.59737e-06
-2.38259e-06
6.1143e-06
-4.12301e-06
-1.4283e-07
9.67656e-07
2.36116e-06
3.70385e-07
2.02647e-06
2.99047e-06
9.45743e-07
2.90532e-06
3.5664e-06
1.77255e-06
2.9495e-06
3.91504e-06
2.97025e-06
2.91086e-06
3.97812e-06
3.70433e-06
4.05242e-06
3.61249e-06
2.81237e-06
6.94601e-06
2.08828e-06
1.42356e-06
7.8562e-06
6.71966e-07
6.11932e-07
7.34927e-06
-1.55119e-06
7.2767e-06
-3.5533e-06
-3.80783e-07
6.10159e-07
1.99523e-06
-6.25647e-07
1.11088e-06
2.44706e-06
-3.64515e-07
1.32805e-06
2.85107e-06
3.40549e-07
7.61057e-07
3.10686e-06
1.53273e-06
1.70182e-07
3.28874e-06
2.65371e-06
1.17291e-06
3.71925e-06
2.21733e-06
5.89825e-06
2.6982e-06
1.43837e-06
7.95804e-06
5.34075e-07
8.65623e-07
7.74707e-06
-1.11003e-06
8.53335e-06
-3.00104e-06
-2.68538e-07
3.62446e-07
1.94518e-06
-4.86612e-07
2.70825e-07
2.22688e-06
-1.27946e-08
-1.05357e-07
2.32991e-06
6.53978e-07
-6.50871e-07
2.14738e-06
1.46312e-06
-1.21283e-06
1.97386e-06
2.15424e-06
-2.28148e-07
2.63616e-06
1.95117e-06
5.06084e-06
2.92435e-06
1.40069e-06
8.39702e-06
2.51578e-07
9.45309e-07
8.53069e-06
-1.25785e-06
9.88266e-06
-2.52847e-06
-4.79391e-08
-2.2099e-07
2.05276e-06
-5.87785e-08
-4.40235e-07
1.97836e-06
6.0559e-08
-7.27607e-07
1.70463e-06
1.63079e-07
-1.19775e-06
1.32518e-06
3.83652e-07
-1.82365e-06
1.27162e-06
7.26755e-07
-5.88777e-07
1.50385e-06
1.24266e-06
4.51892e-06
1.88249e-06
1.09804e-06
9.19889e-06
-1.49402e-07
6.48564e-07
9.68336e-06
-1.22234e-06
1.09208e-05
-1.75747e-06
5.13552e-09
-5.87796e-07
1.42059e-06
-1.86624e-07
-6.8263e-07
1.29608e-06
-4.55402e-07
-8.47644e-07
1.07778e-06
-7.5782e-07
-1.31275e-06
9.23704e-07
-1.01425e-06
-1.90387e-06
9.85808e-07
-9.44204e-07
-6.18032e-07
1.19624e-06
1.81479e-07
4.18318e-06
8.78651e-07
5.87544e-07
9.9455e-06
-2.00769e-07
-9.11937e-08
1.09674e-05
-4.68803e-07
1.0532e-05
4.52721e-08
-1.5676e-07
-6.79607e-07
8.65093e-07
-4.66486e-07
-7.32674e-07
8.50084e-07
-8.41865e-07
-8.36133e-07
7.9068e-07
-1.4573e-06
-1.08646e-06
7.2064e-07
-2.27808e-06
-1.49831e-06
8.00413e-07
-2.68677e-06
-4.939e-07
1.21999e-06
-1.84654e-06
3.86249e-06
1.32174e-06
-9.42942e-07
9.86602e-06
9.54164e-07
-1.46661e-06
1.13689e-05
1.41944e-06
7.7778e-06
2.39877e-06
-2.04785e-07
6.43577e-07
-7.04275e-07
-5.4135e-07
6.60268e-07
-7.15884e-07
-9.79888e-07
6.33419e-07
-7.2541e-07
-1.68766e-06
6.10692e-07
-7.48804e-07
-2.8423e-06
6.37796e-07
-8.10748e-07
-3.89437e-06
1.07745e-06
-1.46772e-07
-3.79612e-06
2.01127e-06
3.02967e-06
-2.61062e-06
2.67954e-06
8.04265e-06
-1.8582e-06
3.30256e-06
9.36713e-06
3.27143e-06
4.15229e-06
-1.22408e-07
3.78625e-09
1.31477e-07
-2.49513e-07
7.39931e-09
1.36508e-07
-3.45691e-07
-5.24762e-09
1.47248e-07
-4.01522e-07
-3.3663e-08
1.69199e-07
-4.17308e-07
-7.01277e-08
2.01738e-07
-3.94426e-07
-1.10854e-07
2.42113e-07
-3.33643e-07
-1.55472e-07
2.88302e-07
-2.31399e-07
-2.07567e-07
3.40076e-07
-9.11643e-08
-2.57247e-07
3.9285e-07
-1.9175e-07
3.53949e-07
-9.25014e-08
2.08256e-09
4.24573e-08
-2.04451e-07
2.55385e-08
4.20796e-08
-3.0081e-07
1.1269e-08
6.05604e-08
-3.66599e-07
-3.75143e-08
9.53409e-08
-3.95962e-07
-1.09603e-07
1.45828e-07
-3.87022e-07
-1.95862e-07
2.06802e-07
-3.36779e-07
-2.93698e-07
2.7313e-07
-2.3757e-07
-4.09414e-07
3.4271e-07
-9.20304e-08
-5.20297e-07
4.11406e-07
-3.88074e-07
3.82245e-07
-1.28688e-07
3.78119e-08
7.10074e-09
-2.72684e-07
7.94191e-08
1.11851e-08
-3.98531e-07
5.50306e-08
4.50714e-08
-4.8716e-07
-2.93507e-08
1.01492e-07
-5.25747e-07
-1.54778e-07
1.7609e-07
-5.1631e-07
-3.02033e-07
2.62965e-07
-4.53402e-07
-4.70054e-07
3.55868e-07
-3.23779e-07
-6.71621e-07
4.54753e-07
-1.2581e-07
-8.69794e-07
5.54531e-07
-6.47873e-07
5.16124e-07
-1.65814e-07
1.36894e-07
-5.86477e-08
-3.48465e-07
1.84347e-07
-3.56378e-08
-5.08762e-07
1.3943e-07
1.4168e-08
-6.29134e-07
7.59146e-09
9.50123e-08
-7.04797e-07
-1.75062e-07
1.97467e-07
-7.11269e-07
-4.14243e-07
3.28197e-07
-6.40463e-07
-6.88463e-07
4.71192e-07
-4.68438e-07
-1.02006e-06
6.3143e-07
-1.84525e-07
-1.34634e-06
8.06618e-07
-9.8845e-07
7.45116e-07
-2.46839e-07
4.28719e-07
-1.97959e-07
-5.11178e-07
4.55912e-07
-1.38369e-07
-7.58078e-07
3.75421e-07
-6.36295e-08
-9.55994e-07
1.66603e-07
5.82418e-08
-1.0454e-06
-1.7322e-07
2.40472e-07
-1.04089e-06
-5.55524e-07
4.45014e-07
-9.41433e-07
-9.86953e-07
6.72888e-07
-7.30968e-07
-1.4746e-06
9.66608e-07
-3.5865e-07
-1.93147e-06
1.27185e-06
-1.45305e-06
1.05598e-06
-3.78468e-07
9.24604e-07
-3.69609e-07
-7.53765e-07
9.12331e-07
-2.67553e-07
-1.0975e-06
7.69001e-07
-1.01157e-07
-1.34558e-06
4.25286e-07
1.08485e-07
-1.42872e-06
-1.1288e-07
3.44477e-07
-1.41847e-06
-6.76952e-07
6.22235e-07
-1.3255e-06
-1.30162e-06
1.01975e-06
-1.15794e-06
-1.92015e-06
1.49537e-06
-8.08837e-07
-2.48492e-06
1.85304e-06
-2.28609e-06
1.2777e-06
-4.12884e-07
1.45461e-06
-1.40119e-06
-8.81715e-07
1.45722e-06
-1.20578e-06
-1.34579e-06
1.29368e-06
-8.39206e-07
-1.69261e-06
8.30339e-07
-3.9866e-07
-1.76906e-06
-5.97659e-08
1.14897e-07
-1.72319e-06
-8.29075e-07
6.53884e-07
-1.51667e-06
-1.61891e-06
1.10167e-06
-1.27224e-06
-2.34384e-06
1.33308e-06
-9.74289e-07
-3.24626e-06
1.50037e-06
-3.69988e-06
1.63934e-06
-6.15471e-08
1.08479e-06
-2.9251e-06
-4.02065e-07
1.45924e-06
-2.853e-06
-8.82386e-07
1.62813e-06
-2.61347e-06
-1.27583e-06
9.92072e-07
-1.93239e-06
-9.23548e-07
-6.98248e-07
-1.40713e-06
-8.7403e-08
-1.41668e-06
-1.26321e-06
1.15613e-06
-2.16504e-06
-1.82257e-06
2.10806e-06
-3.96088e-06
-2.96831e-06
1.53195e-06
-3.87899e-06
-4.51435e-06
-4.19333e-06
5.86991e-07
7.05455e-07
-7.21863e-07
-8.91247e-06
1.70847e-06
-4.76623e-07
-9.01554e-06
3.5452e-06
-9.6559e-07
-9.60058e-06
5.25103e-06
-1.09844e-06
-1.01541e-05
5.20238e-06
-3.15961e-07
-9.75217e-06
5.13064e-06
1.45394e-06
-7.90955e-06
4.71399e-06
7.54391e-07
-6.32669e-06
3.85565e-06
-5.76808e-07
-5.76878e-06
2.21071e-06
-7.61445e-07
-5.34385e-06
-5.14978e-07
-1.70135e-06
4.18171e-07
-1.89955e-06
-6.82219e-06
1.42999e-06
-1.74914e-06
-7.19079e-06
2.05003e-06
-1.83614e-06
-7.25647e-06
2.16976e-06
-1.63419e-06
-6.10584e-06
2.69935e-06
6.03406e-08
-4.95249e-06
3.88024e-06
1.40368e-06
-3.40966e-06
4.23812e-06
1.12139e-06
-3.18308e-06
4.25854e-06
6.6194e-07
-4.47765e-06
2.59916e-06
1.45594e-06
-6.19498e-06
2.97553e-06
-4.69085e-06
5.06908e-07
-2.88263e-06
-1.12452e-06
1.42908e-06
-2.82086e-06
-1.06084e-06
1.75816e-06
-2.4406e-06
-7.91165e-07
1.76958e-06
-1.72442e-06
-2.3471e-07
2.59953e-06
-5.44441e-07
-1.21674e-07
3.23411e-06
4.89957e-07
-2.485e-07
3.12793e-06
1.05418e-06
-9.63258e-07
2.69221e-06
1.67981e-06
-1.9399e-06
1.90677e-06
2.59534e-06
-4.61483e-06
4.96892e-06
-4.88949e-06
6.12253e-08
-3.27549e-06
1.02304e-06
8.0617e-07
-2.93105e-06
1.06497e-06
1.40679e-06
-2.33939e-06
1.29251e-06
2.15143e-06
-1.61879e-06
1.62848e-06
2.65761e-06
-6.93516e-07
1.92533e-06
2.17049e-06
4.92966e-07
1.69096e-06
1.68589e-06
1.28019e-06
4.54168e-07
1.37139e-06
2.24553e-06
-4.24386e-07
1.2287e-06
3.22896e-06
-3.62905e-06
6.07976e-06
-4.53547e-06
-3.12077e-07
-2.7085e-06
1.67814e-06
4.70628e-08
-2.22718e-06
2.18187e-06
7.6234e-07
-1.87463e-06
2.65435e-06
1.85997e-06
-1.63647e-06
2.9561e-06
2.71903e-06
-1.11989e-06
3.22466e-06
2.01158e-06
6.92906e-07
3.21629e-06
9.76234e-07
2.08889e-06
1.6077e-06
7.30245e-07
2.48355e-06
4.90904e-07
7.73725e-07
3.7575e-06
-2.95461e-06
6.80377e-06
-4.0733e-06
-5.34831e-07
-1.97401e-06
2.107e-06
-7.27202e-07
-1.71295e-06
2.6686e-06
-3.12924e-07
-1.71115e-06
2.98864e-06
5.64144e-07
-1.80083e-06
3.20233e-06
1.69416e-06
-1.74827e-06
3.47648e-06
2.03788e-06
-8.24202e-08
4.04409e-06
1.188e-06
2.77715e-06
2.2499e-06
9.02747e-07
2.83324e-06
6.0753e-07
6.29091e-07
4.28248e-06
-1.80252e-06
7.44518e-06
-3.56561e-06
-3.28283e-07
-1.33951e-06
2.06405e-06
-7.00773e-07
-1.46204e-06
2.56864e-06
-4.9731e-07
-1.70011e-06
2.63656e-06
8.48263e-08
-1.85028e-06
2.57419e-06
9.62477e-07
-1.88066e-06
2.54348e-06
1.77228e-06
-2.42364e-07
3.06939e-06
1.31508e-06
3.66146e-06
2.27109e-06
7.41574e-07
4.0317e-06
-9.08803e-08
3.53515e-07
5.2484e-06
-1.68789e-06
7.74015e-06
-2.9425e-06
-5.83995e-08
-1.01626e-06
1.98021e-06
-2.8138e-07
-1.31894e-06
2.30675e-06
-2.36015e-07
-1.53805e-06
2.12249e-06
-4.52889e-08
-1.72135e-06
1.82771e-06
2.32421e-07
-1.7411e-06
1.55658e-06
8.65972e-07
3.02876e-07
1.45736e-06
8.36824e-07
4.75215e-06
1.86281e-06
-1.50295e-07
5.92708e-06
-6.56685e-07
-3.6629e-07
6.64876e-06
-2.44221e-06
7.43565e-06
-2.59026e-06
2.61752e-08
-1.00877e-06
2.13832e-06
-1.2481e-07
-1.11597e-06
1.92638e-06
-3.4566e-07
-1.20513e-06
1.59256e-06
-5.5149e-07
-1.5502e-06
1.35987e-06
-4.60895e-07
-1.72102e-06
1.16095e-06
1.37264e-07
4.38459e-07
7.70106e-07
4.3092e-07
5.50681e-06
8.34173e-07
-5.84519e-07
7.49629e-06
-7.03164e-07
-1.03198e-06
7.69923e-06
-1.82536e-06
6.54477e-06
-1.89856e-06
-6.41952e-08
-8.58816e-07
1.42282e-06
-3.55479e-07
-8.91244e-07
1.36264e-06
-6.95677e-07
-1.0058e-06
1.21865e-06
-1.08738e-06
-1.38047e-06
1.14567e-06
-1.21726e-06
-1.68276e-06
1.07744e-06
-6.70761e-07
2.15261e-07
8.72937e-07
1.43661e-07
5.23201e-06
3.39032e-07
-6.496e-07
8.42287e-06
-3.34086e-07
-1.37787e-06
7.93604e-06
2.26676e-08
4.73856e-06
4.73614e-07
-1.77882e-07
-7.63256e-07
1.02338e-06
-5.19668e-07
-7.82902e-07
1.08353e-06
-9.19709e-07
-8.53282e-07
1.03821e-06
-1.55383e-06
-1.05208e-06
1.02637e-06
-2.21712e-06
-1.32629e-06
1.10723e-06
-2.06919e-06
-1.10086e-07
1.39741e-06
-1.01966e-06
4.09302e-06
1.41119e-06
-1.15278e-06
8.20534e-06
1.30482e-06
-1.82061e-06
7.56168e-06
2.46163e-06
2.62936e-06
2.68736e-06
-1.95343e-07
8.31089e-07
-6.99724e-07
-5.53279e-07
9.25445e-07
-6.90145e-07
-9.86282e-07
8.97748e-07
-6.84609e-07
-1.67108e-06
9.34198e-07
-6.90793e-07
-2.75415e-06
1.08419e-06
-6.89622e-07
-3.48544e-06
1.70389e-06
-5.2297e-09
-2.88142e-06
2.7564e-06
2.74387e-06
-2.0157e-06
3.52901e-06
6.49014e-06
-1.47332e-06
4.21103e-06
6.11083e-06
3.27791e-06
1.14956e-06
-1.12407e-07
2.12433e-08
2.36272e-07
-2.2099e-07
1.74059e-08
2.27685e-07
-3.01151e-07
1.70146e-09
2.25707e-07
-3.48511e-07
-1.83066e-08
2.34866e-07
-3.59693e-07
-4.86183e-08
2.61538e-07
-3.37316e-07
-8.06055e-08
3.00342e-07
-2.81832e-07
-1.15139e-07
3.47957e-07
-1.90093e-07
-1.56694e-07
4.05031e-07
-6.73394e-08
-1.93411e-07
4.63507e-07
-1.22294e-07
4.08904e-07
-8.68362e-08
2.21417e-08
1.52434e-07
-1.72176e-07
1.84556e-08
1.2637e-07
-2.43019e-07
1.20428e-08
1.21062e-07
-2.94762e-07
-1.41726e-08
1.4295e-07
-3.18153e-07
-6.74919e-08
1.88092e-07
-3.1031e-07
-1.32188e-07
2.50542e-07
-2.67189e-07
-2.06344e-07
3.21214e-07
-1.82293e-07
-2.96981e-07
3.981e-07
-6.17033e-08
-3.76685e-07
4.7409e-07
-2.3527e-07
4.33518e-07
-1.09704e-07
8.87024e-08
7.90569e-08
-2.2287e-07
5.27186e-08
9.00886e-08
-3.1753e-07
4.44454e-08
1.07328e-07
-3.87424e-07
2.35856e-09
1.54855e-07
-4.19456e-07
-8.73336e-08
2.27965e-07
-4.1004e-07
-1.97626e-07
3.18987e-07
-3.53538e-07
-3.25486e-07
4.18509e-07
-2.42381e-07
-4.77988e-07
5.24602e-07
-8.40277e-08
-6.11083e-07
6.30577e-07
-3.81489e-07
5.78316e-07
-1.21083e-07
2.24241e-07
-4.66495e-08
-2.64786e-07
1.35733e-07
2.50509e-08
-3.91816e-07
1.14743e-07
7.09009e-08
-4.87285e-07
4.27378e-08
1.50102e-07
-5.41726e-07
-9.42517e-08
2.58826e-07
-5.42499e-07
-2.62569e-07
3.93913e-07
-4.77754e-07
-4.64253e-07
5.45215e-07
-3.31317e-07
-7.07228e-07
7.14234e-07
-1.16397e-07
-9.09495e-07
8.9011e-07
-5.61615e-07
8.08845e-07
-1.22306e-07
4.08275e-07
-2.30909e-07
-3.33743e-07
2.8357e-07
-7.47683e-08
-5.26665e-07
2.42515e-07
1.51983e-09
-6.73345e-07
1.28183e-07
1.19477e-07
-7.54622e-07
-6.37758e-08
2.91273e-07
-7.68018e-07
-3.16572e-07
5.12412e-07
-6.84856e-07
-6.4662e-07
7.72093e-07
-4.97465e-07
-1.00687e-06
1.07885e-06
-2.22439e-07
-1.26861e-06
1.35595e-06
-8.50021e-07
1.12195e-06
-1.79471e-07
7.2947e-07
-4.87597e-07
-4.96142e-07
6.00677e-07
-2.67989e-07
-7.74774e-07
5.21004e-07
-1.01013e-07
-9.73606e-07
3.36283e-07
9.92166e-08
-1.07055e-06
1.82574e-08
3.59389e-07
-1.08064e-06
-3.70374e-07
6.86127e-07
-9.98202e-07
-8.43246e-07
1.13393e-06
-8.27218e-07
-1.28374e-06
1.60126e-06
-5.53447e-07
-1.56525e-06
1.87592e-06
-1.40251e-06
1.27674e-06
-2.0997e-07
9.01622e-07
-1.30192e-06
-6.71509e-07
8.63217e-07
-1.00678e-06
-1.06433e-06
7.62663e-07
-6.88046e-07
-1.33627e-06
5.26526e-07
-3.16959e-07
-1.38741e-06
2.86756e-08
1.55622e-07
-1.31068e-06
-5.58753e-07
7.65526e-07
-1.10212e-06
-1.27385e-06
1.32372e-06
-9.32829e-07
-1.79536e-06
1.6754e-06
-8.19996e-07
-2.14776e-06
1.97004e-06
-2.38757e-06
1.8044e-06
1.04324e-07
-6.71413e-08
-1.96046e-06
-1.77975e-07
1.00379e-07
-1.80786e-06
-5.7114e-07
1.43301e-07
-1.60094e-06
-8.00251e-07
-3.66341e-08
-1.14012e-06
-4.27769e-07
-1.03281e-06
-7.18122e-07
7.0305e-07
-2.40717e-06
-5.45618e-07
1.90175e-06
-3.38121e-06
-9.1391e-07
1.98564e-06
-3.42431e-06
-1.42326e-06
6.12405e-07
-3.99724e-06
-1.29163e-06
-2.80079e-06
1.61262e-06
7.46902e-07
-4.16734e-06
-5.6276e-06
1.59007e-06
-3.98504e-06
-5.77329e-06
3.14235e-06
-4.82939e-06
-6.18017e-06
6.13441e-06
-6.23629e-06
-6.94654e-06
6.94303e-06
-4.00553e-06
-7.58807e-06
7.78882e-06
-3.00896e-06
-8.15354e-06
7.529e-06
-2.11812e-06
-7.32997e-06
6.08249e-06
-1.41243e-06
-6.33416e-06
1.91378e-06
-2.06838e-07
-4.96555e-06
2.14231e-06
-4.73067e-06
6.91077e-07
-4.70575e-06
-7.33604e-06
1.8069e-06
-4.75983e-06
-7.53182e-06
2.40446e-06
-5.07407e-06
-7.60934e-06
2.11369e-06
-5.98971e-06
-6.06166e-06
2.45055e-06
-4.55877e-06
-4.7361e-06
3.02989e-06
-3.91651e-06
-3.08146e-06
3.96219e-06
-3.16175e-06
-3.07176e-06
4.25171e-06
-1.73501e-06
-4.44459e-06
1.97264e-06
1.46095e-06
-5.58371e-06
4.75623e-06
-5.33214e-06
-2.71007e-07
-4.13484e-06
-2.10952e-06
-1.02672e-07
-4.5732e-06
-1.41581e-06
5.48197e-08
-5.32727e-06
-6.95457e-07
-1.18767e-08
-6.00785e-06
-1.4987e-07
4.56903e-07
-5.64789e-06
4.98661e-07
7.29927e-07
-4.58221e-06
1.44183e-07
1.50355e-06
-3.83276e-06
-1.06587e-06
2.18245e-06
-2.22158e-06
-2.13223e-06
1.76326e-06
1.74572e-06
-4.48041e-06
6.05686e-06
-4.42686e-06
-2.22183e-07
-4.42113e-06
1.22652e-06
-2.53194e-07
-4.81569e-06
1.33847e-06
-2.09932e-09
-5.42349e-06
1.13763e-06
3.41712e-07
-5.75589e-06
1.03271e-06
6.57516e-07
-5.36204e-06
1.32368e-06
3.95341e-07
-3.826e-06
1.19692e-06
3.8825e-07
-3.2046e-06
-1.669e-07
7.64797e-07
-2.21108e-06
-8.11438e-07
1.09186e-06
1.97092e-06
-4.18132e-06
6.48174e-06
-3.86848e-06
-3.30867e-07
-3.92319e-06
1.3213e-06
-3.96603e-07
-4.10142e-06
1.53334e-06
-1.69899e-07
-4.54805e-06
1.5522e-06
1.69341e-07
-4.78864e-06
1.64961e-06
5.61114e-07
-4.60268e-06
2.07353e-06
3.68994e-07
-2.92982e-06
2.51222e-06
-1.2939e-07
-2.00771e-06
9.09194e-07
-1.75055e-07
-1.19552e-06
-4.7899e-07
4.48159e-07
2.67276e-06
-4.27966e-06
6.61648e-06
-3.75989e-06
-1.58113e-07
-3.23256e-06
1.65161e-06
-3.73404e-07
-3.29815e-06
2.08062e-06
-3.81823e-07
-3.57446e-06
2.02347e-06
-2.6788e-07
-3.62928e-06
1.92903e-06
-1.1751e-08
-3.44046e-06
2.05813e-06
2.89994e-08
-1.72583e-06
2.79934e-06
-9.44581e-07
-1.5862e-07
1.37439e-06
-1.20929e-06
4.50209e-07
-7.73481e-07
-3.48123e-07
3.35813e-06
-3.34906e-06
6.28299e-06
-3.58024e-06
1.87949e-07
-2.20452e-06
9.56364e-07
-8.17875e-08
-2.42244e-06
1.96266e-06
-3.58823e-07
-2.57686e-06
1.916e-06
-5.36081e-07
-2.58689e-06
1.70906e-06
-6.84113e-07
-2.30284e-06
1.55389e-06
-1.05072e-06
-1.75342e-07
1.88551e-06
-2.14005e-06
1.9062e-06
1.29559e-06
-2.39148e-06
1.63193e-06
-1.02117e-06
-1.1366e-06
3.17002e-06
-2.75465e-06
5.00193e-06
-2.79804e-06
3.42244e-07
-1.20883e-06
6.5478e-07
7.93511e-08
-1.61746e-06
1.76466e-06
-3.16211e-07
-1.76068e-06
1.70187e-06
-6.3955e-07
-1.92044e-06
1.4846e-06
-8.90177e-07
-1.75612e-06
1.26049e-06
-1.19787e-06
4.49776e-07
1.13993e-06
-2.15491e-06
3.60536e-06
1.12069e-06
-3.05027e-06
2.73862e-06
-8.68022e-07
-1.95674e-06
2.16937e-06
-2.53509e-06
2.58228e-06
-2.12735e-06
1.97139e-08
-1.1376e-06
2.06027e-06
-1.78689e-07
-1.22258e-06
1.72991e-06
-5.1338e-07
-1.33451e-06
1.50109e-06
-8.27205e-07
-1.586e-06
1.33925e-06
-9.24508e-07
-1.64014e-06
1.14226e-06
-6.26094e-07
-1.12132e-08
9.32679e-07
-8.19604e-07
3.79596e-06
8.37091e-07
-2.26134e-06
3.61993e-06
-1.42732e-07
-2.21711e-06
1.68378e-06
-1.38399e-06
2.35871e-07
-1.76926e-06
-1.16324e-07
-9.72367e-07
1.38512e-06
-4.10857e-07
-1.03644e-06
1.47103e-06
-7.14374e-07
-1.14359e-06
1.33124e-06
-1.05212e-06
-1.35612e-06
1.25352e-06
-1.20771e-06
-1.56287e-06
1.15576e-06
-8.00386e-07
-6.55299e-07
1.1097e-06
-1.63435e-07
2.4625e-06
1.03555e-06
-1.26087e-06
3.59448e-06
7.88796e-07
-1.79435e-06
1.61873e-06
6.21211e-07
-1.14095e-06
5.60816e-08
-1.76183e-07
-8.69633e-07
1.08901e-06
-5.05772e-07
-9.20849e-07
1.29753e-06
-8.44109e-07
-9.70902e-07
1.20385e-06
-1.30115e-06
-1.06626e-06
1.19355e-06
-1.78468e-06
-1.22146e-06
1.24934e-06
-1.76102e-06
-8.55548e-07
1.574e-06
-1.00348e-06
1.11492e-06
2.00123e-06
-1.28522e-06
2.9799e-06
2.20115e-06
-1.45044e-06
1.74357e-06
2.502e-06
-1.45961e-06
1.55558e-06
-1.78974e-07
8.47789e-07
-7.36953e-07
-5.27584e-07
1.14545e-06
-7.92247e-07
-8.79653e-07
1.07246e-06
-7.93551e-07
-1.35964e-06
1.11974e-06
-7.71813e-07
-2.03528e-06
1.26097e-06
-7.22595e-07
-2.54958e-06
1.78777e-06
-4.2513e-07
-2.11334e-06
2.79293e-06
6.42138e-07
-1.3409e-06
3.58846e-06
2.14802e-06
-5.79302e-07
3.63393e-06
1.55907e-06
2.05997e-06
-8.20975e-07
-1.23198e-07
6.65723e-08
3.14479e-07
-2.21751e-07
3.65772e-08
2.89661e-07
-2.83163e-07
9.64546e-09
2.77474e-07
-3.13879e-07
-1.49032e-08
2.80485e-07
-3.15666e-07
-3.54744e-08
2.98799e-07
-2.89691e-07
-5.73492e-08
3.31716e-07
-2.35635e-07
-8.13958e-08
3.75297e-07
-1.50495e-07
-1.12657e-07
4.32548e-07
-4.15722e-08
-1.3601e-07
4.90594e-07
-5.32668e-08