/*--------------------------------*- C++ -*----------------------------------*\
| =========                 |                                                 |
| \\      /  F ield         | OpenFOAM: The Open Source CFD Toolbox           |
|  \\    /   O peration     | Version:  2312                                  |
|   \\  /    A nd           | Website:  www.openfoam.com                      |
|    \\/     M anipulation  |                                                 |
\*---------------------------------------------------------------------------*/
FoamFile
{
    version     2.0;
    format      ascii;
    arch        "LSB;label=32;scalar=64";
    class       volScalarField;
    location    "0.895";
    object      p_rgh;
}
// * * * * * * * * * * * * * * * * * * * * * * * * * * * * * * * * * * * * * //

dimensions      [1 -1 -2 0 0 0 0];

internalField   nonuniform List<scalar> 
8000
(
383.271
383.294
382.591
381.263
379.445
377.338
374.844
372.472
370.842
369.891
383.235
383.206
382.393
380.891
378.82
376.338
373.558
370.688
368.595
367.561
383.203
383.011
381.947
380.1
377.572
374.432
370.836
366.641
363.877
362.536
383.001
382.678
381.213
378.857
375.627
371.419
366.407
361.212
358.32
354.641
382.383
381.809
379.91
376.978
372.925
367.571
360.542
354.927
350.752
351.605
380.938
380.915
378.975
374.904
369.346
361.899
352.686
337.451
260.7
254.111
362.089
360.45
355.374
354.275
350.744
319.638
256.297
172.494
133.515
81.3514
223.384
241.117
242.637
222.223
164.954
77.1894
8.28732
4.48745
10.7904
6.80722
27.4043
30.515
24.5876
15.9187
6.86725
0.207898
0.427241
0.580446
1.32456
1.72268
0.235979
0.22165
0.211222
0.174684
0.127477
0.116501
0.175271
0.242252
0.432011
0.689242
0.179856
0.171652
0.16877
0.165176
0.163307
0.155523
0.172188
0.218734
0.312625
0.483391
0.151743
0.153362
0.162318
0.181736
0.20629
0.226441
0.224768
0.225203
0.262986
0.282746
0.14112
0.18106
0.265142
0.307971
0.283892
0.267468
0.264778
0.249316
0.226003
0.210656
0.199828
0.318726
0.314259
0.325366
0.349557
0.378213
0.367803
0.244356
0.211427
0.193266
0.324567
0.308537
0.297019
0.217433
0.203078
0.253214
0.31355
0.313127
0.206136
0.179975
0.319682
0.263299
0.102136
0.11094
0.116249
0.121402
0.146657
0.218057
0.259279
0.172787
0.265824
0.0831694
0.0899776
0.107897
0.134278
0.111722
0.0826978
0.0908999
0.133148
0.17611
0.0931486
0.0744171
0.0829693
0.186408
0.342407
0.240599
0.118645
0.086681
0.11633
0.150275
0.0744989
0.0619924
0.0730599
0.206529
0.346853
0.339812
0.203985
0.131548
0.122807
0.147189
0.0837423
0.106311
0.06177
0.0742388
0.137202
0.206716
0.250648
0.176235
0.126848
0.144169
384.085
384.109
383.41
382.112
380.319
378.198
375.964
373.932
372.346
371.312
384.143
384.099
383.325
381.856
379.778
377.349
374.808
372.489
370.386
369.06
384.295
384.121
383.06
381.195
378.714
375.594
372.245
368.7
365.734
364.158
384.516
384.32
382.847
380.202
376.944
372.259
365.948
362.731
359.766
356.669
384.252
383.762
382.031
378.763
374.108
367.74
359.266
356.785
349.475
352.785
383.889
383.887
381.646
377.127
370.794
363.623
355.634
329.309
268.167
277.46
381.863
382.667
380.261
374.671
360.934
328.9
272.357
206.853
131.648
74.116
299.32
312.567
294.026
239.087
160.627
75.0764
13.9791
14.0589
5.69494
2.86633
11.0755
9.03401
2.92089
0.320836
0.280868
0.269663
0.293174
0.239693
0.4797
0.794815
0.236761
0.224717
0.206466
0.183669
0.179507
0.188383
0.19818
0.150703
0.195326
0.499729
0.149774
0.152273
0.156556
0.162593
0.199114
0.277039
0.287118
0.168103
0.215684
0.839838
0.120418
0.127034
0.138864
0.167833
0.276016
0.295782
0.295377
0.181368
0.19446
0.498723
0.11593
0.125978
0.154514
0.271829
0.297752
0.322504
0.325086
0.302209
0.216622
0.249596
0.116047
0.138208
0.251128
0.282577
0.253421
0.202437
0.292311
0.214019
0.157456
0.176093
0.121247
0.235909
0.262357
0.192961
0.105278
0.117968
0.15426
0.250297
0.163931
0.152937
0.182751
0.25305
0.120299
0.0808022
0.0859101
0.0870932
0.0725261
0.111211
0.192495
0.13752
0.258632
0.0821896
0.0598991
0.0851206
0.199361
0.195166
0.0179249
0.00799776
0.081496
0.143682
0.141753
0.047879
0.0472855
0.187853
0.306799
0.280375
0.0263395
0.0205626
0.072184
0.131615
0.0787465
0.0293567
0.0396818
0.228106
0.315655
0.16025
0.0881724
0.087166
0.0963002
0.127819
0.0653782
0.0112909
0.0460769
0.196715
0.258099
0.226531
0.175095
0.128195
0.103206
0.11784
385.65
385.739
385.126
383.813
382.061
380.055
378.133
376.406
374.9
373.961
385.839
385.89
385.11
383.646
381.68
379.438
377.343
375.468
373.538
372.262
386.25
386.167
385.205
383.296
380.99
378.258
375.502
373.141
370.02
368.595
387.026
386.823
385.485
382.968
379.834
375.614
371.148
368.243
363.824
363.09
387.854
387.363
385.461
382.365
378.269
372.087
365.488
363.132
357.276
356.99
389.675
389.489
387.011
382.933
376.994
368.953
361.692
348.624
343.706
342.879
391.323
390.308
386.763
381.819
373.305
354.726
314.555
257.857
203.694
177.883
381.229
386.803
369.853
320.277
228.89
132.82
58.9671
36.8404
3.35765
2.03688
95.9209
86.2748
54.3385
12.4013
0.318324
0.31426
0.323832
0.241565
0.35988
0.917671
0.207949
0.205275
0.16184
0.155726
0.167687
0.207569
0.224029
0.202737
0.33667
0.92827
0.0719841
0.09034
0.103374
0.125596
0.14991
0.26601
0.296527
0.252293
0.42492
1.08054
0.0890431
0.0965778
0.108709
0.121512
0.226073
0.283305
0.293672
0.253144
0.38002
1.16442
0.101255
0.104158
0.114002
0.131981
0.267694
0.282819
0.209185
0.199735
0.181844
0.707001
0.0890975
0.0972329
0.0990737
0.221036
0.158259
0.115658
0.135871
0.319097
0.183732
0.269223
0.0869578
0.0863043
0.176646
0.218853
0.0842316
0.0950489
0.0959121
0.21573
0.112084
0.13467
0.086078
0.131849
0.192155
0.102641
0.0643735
0.0719613
0.0583637
0.0295894
0.132923
0.118052
0.102382
0.174102
0.0958688
0.0511573
0.139221
0.180441
0.0170602
0.00607751
0.0541559
0.125403
0.168278
0.0491901
0.0158244
0.0221017
0.24036
0.435302
0.0253971
0.0639036
0.115701
0.166847
0.0785273
-0.000275198
-0.0168922
-0.00635576
0.00444864
0.0143716
0.0489209
0.11544
0.149292
0.167387
0.0435902
-0.0342244
-0.052313
-0.0476683
-0.0422182
-0.0181132
0.0684705
0.183947
0.169132
0.146761
387.689
387.786
387.197
386.042
384.477
382.736
380.998
379.433
378.103
377.399
388.061
388.113
387.405
386.098
384.301
382.336
380.482
378.848
377.161
376.345
388.869
388.828
387.93
386.313
384.057
381.724
379.537
377.7
374.935
374.009
390.249
390.05
388.901
386.659
383.686
380.419
377.153
374.39
370.25
370.507
392.212
391.725
389.683
386.651
383.016
378.487
373.712
370.254
363.686
366.209
395.735
394.926
392.334
388.056
383.202
377.085
371.502
366.52
361.167
360.021
400.378
399.147
395.048
388.665
381.716
374.299
357.766
334.981
318.942
317.838
408.28
406.38
392.55
359.059
304.893
231.936
153.396
110.421
63.5415
64.4349
262.907
243.363
180.452
89.8936
21.3532
0.390874
0.322676
0.240102
0.146495
0.295903
28.5754
18.2657
2.05711
0.150973
0.170316
0.174977
0.180745
0.188198
0.165043
0.196313
0.0428287
0.0578374
0.0887549
0.103769
0.127845
0.155596
0.170205
0.235798
0.364623
0.444132
0.0757764
0.0728774
0.0898248
0.105197
0.133921
0.151899
0.140995
0.236795
0.330974
0.306025
0.0875986
0.0826131
0.0920244
0.110574
0.216677
0.159389
0.138052
0.16204
0.164134
0.18471
0.0743756
0.0757372
0.0814986
0.149017
0.15557
0.0962625
0.110886
0.346424
0.707648
0.711154
0.0654377
0.0663698
0.0922238
0.21553
0.0628986
0.0672248
0.0825332
0.185374
0.40412
0.700935
0.0582858
0.0642381
0.195753
0.0790531
0.0478348
0.0627751
0.0710042
0.0628366
0.0951725
0.469212
0.0664539
0.155911
0.131083
0.0375427
0.0748308
0.152716
0.0752533
0.0533757
0.273066
0.596722
0.0915811
0.116375
0.028829
-0.0104274
0.0807316
0.463171
0.509775
0.165522
0.200517
0.242258
0.0802406
-0.000194157
-0.0520616
-0.0528115
-0.0393346
-0.0289229
0.0043997
0.100415
0.136373
0.144421
0.00762783
-0.0641764
-0.0919824
-0.0983822
-0.0959619
-0.08915
0.000638837
0.344876
0.212308
0.176785
390.037
390.151
389.573
388.546
387.153
385.589
384.056
382.711
381.617
381.115
390.592
390.679
389.961
388.801
387.236
385.507
383.832
382.393
381.047
380.599
391.79
391.803
390.869
389.448
387.555
385.447
383.521
381.893
380.263
379.633
393.799
393.615
392.479
390.533
388.051
385.351
382.775
380.485
378.141
378.156
396.857
396.345
394.546
391.962
388.476
385.19
381.495
378.601
375.357
376.68
401.436
400.746
398.329
394.734
390.427
385.844
381.099
377.226
374.106
374.785
408.734
407.351
403.506
398.268
392.339
386.076
380.023
376.205
372.952
373.806
416.932
414.666
410.605
392.318
368.92
330.01
274.216
242.668
225.682
239.777
411.536
385.672
305.423
201.698
102.968
40.0765
8.59673
0.777431
0.240696
23.888
156.345
101.192
36.4587
2.86333
0.187723
0.183135
0.163765
0.163603
0.155059
0.16651
0.0376873
0.0377685
0.0715606
0.103183
0.118878
0.124437
0.136202
0.165799
0.167739
0.172896
0.0645358
0.0620689
0.0670867
0.0940011
0.115083
0.121192
0.130273
0.152093
0.164665
0.184176
0.0568357
0.0581819
0.0701466
0.091714
0.121381
0.124903
0.123339
0.148502
0.145352
0.176062
0.0512391
0.0480629
0.0589641
0.11812
0.116298
0.0816353
0.109951
0.217684
0.201293
0.175178
0.0390419
0.041852
0.0922552
0.201801
0.0524084
0.0447519
0.0646568
0.228532
0.597522
0.64192
0.0321736
0.0499995
0.147141
0.0779397
0.0443391
0.0569667
0.0790675
0.197338
0.765543
0.790282
0.0282718
0.0792652
0.112854
0.0212246
0.0373928
0.286657
0.63125
0.696589
0.76595
0.783876
0.0226481
0.100276
0.0587816
-0.0347235
-0.0121696
0.26398
0.635996
0.22799
0.126223
0.112911
0.10544
0.0637264
-0.0159147
-0.0791151
-0.0489564
-0.00576999
0.0158739
0.118717
0.137622
0.131458
0.0630845
-0.0237053
-0.0809897
-0.104279
-0.102055
-0.0853025
-0.00412899
0.561246
0.206747
0.134862
392.455
392.544
392.046
391.124
389.897
388.523
387.19
386.064
385.173
384.775
393.198
393.243
392.633
391.573
390.194
388.696
387.223
386.008
384.996
384.67
394.726
394.697
393.884
392.585
390.934
389.11
387.415
386.074
384.981
384.641
397.288
397.076
395.927
394.208
392.139
389.786
387.705
386.106
384.768
384.682
401.137
400.602
398.865
396.424
393.579
390.723
388.118
386.202
384.72
385.248
406.536
405.63
403.235
399.888
396.118
392.472
389.361
387.136
385.255
386.287
414.676
413.041
409.19
404.273
399.039
394.33
390.657
388.792
386.958
388.44
424.967
422.29
416.683
410.002
391.743
376.741
361.264
345.176
340.936
334.658
446.715
421.679
352.472
259.109
171.682
115.526
81.6104
75.4013
82.7513
174.48
273.762
157.825
59.7282
10.0333
0.178859
0.191767
0.153905
0.124477
0.12576
0.151849
6.88054
0.39767
0.0726843
0.100532
0.121137
0.130245
0.112516
0.1149
0.133157
0.168106
0.0358318
0.0430973
0.0539473
0.0776152
0.110217
0.11945
0.127589
0.134101
0.158713
0.189927
0.0188219
0.0370801
0.045838
0.0692278
0.0974472
0.110488
0.121406
0.124366
0.135669
0.1763
0.0244673
0.031212
0.0361252
0.0683453
0.094541
0.115351
0.088409
0.0969132
0.102751
0.151615
0.0362274
0.0299426
0.0709769
0.187652
0.109262
0.0476524
0.0377967
0.0791185
0.11727
0.143019
0.0448886
0.0385984
0.104221
0.115025
0.072624
0.0814589
0.0928099
0.396507
0.655964
0.316298
0.0210985
0.0265521
0.0604799
0.0169574
0.18954
0.745973
0.731677
0.72855
0.75895
0.305017
0.00413356
0.0851263
0.0463573
-0.029624
0.0363274
0.145748
0.663481
0.811529
0.439917
0.146975
0.073166
0.0849951
0.0380607
-0.0499792
0.000428687
0.0671375
0.109476
0.217806
0.201433
0.161706
0.124652
0.0894838
0.0374731
-0.0582501
-0.036951
0.0130873
0.0764508
0.731807
0.281136
0.13229
394.712
394.781
394.336
393.489
392.39
391.191
390.051
389.12
388.419
388.072
395.637
395.642
395.083
394.099
392.849
391.529
390.282
389.365
388.654
388.274
397.44
397.36
396.603
395.375
393.883
392.306
390.904
389.881
389.035
388.886
400.415
400.139
399.049
397.413
395.588
393.53
391.852
390.715
389.766
389.822
404.773
404.165
402.528
400.17
397.493
395.2
393.259
392.037
391.365
391.577
410.695
409.573
407.146
403.969
400.635
397.682
395.38
394.173
392.834
394.275
419.232
417.267
413.594
408.927
404.255
400.417
397.69
396.914
395.255
395.18
430.833
427.825
421.837
415.151
408.987
401.453
392.539
391.56
388.271
375.339
450.376
433.752
376.42
295.42
222.401
174.982
147.756
154.717
163.202
248.1
304.052
183.029
76.3382
17.1563
0.185325
0.175147
0.145702
0.101976
0.114058
0.188718
14.004
0.500335
0.0978361
0.102298
0.122329
0.130933
0.098233
0.0916836
0.123137
0.16955
0.0281426
0.0720539
0.0712478
0.0693867
0.0985533
0.117518
0.117488
0.136762
0.158356
0.193125
0.0151157
0.0735395
0.0677168
0.0529242
0.0846659
0.112908
0.135016
0.159691
0.171154
0.173374
0.0125439
0.0617864
0.069203
0.0569576
0.129187
0.122062
0.092705
0.0891183
0.0908734
0.12428
0.0357497
0.0690591
0.0644333
0.0798308
0.227144
0.1222
0.0792234
0.0332201
0.0432936
0.10705
0.0522717
0.0527047
0.0600032
0.0959448
0.171018
0.228005
0.152951
0.194969
0.127424
0.149823
0.0494432
0.0490808
0.0270834
0.0685263
0.157591
0.502339
0.809295
0.797554
0.305215
0.155287
0.0476584
0.0408982
0.00577487
0.0403421
0.143153
0.184031
0.325914
0.48513
0.257758
0.180135
0.0575054
0.0805423
0.0184248
0.0909368
0.172735
0.167466
0.209817
0.305369
0.264037
0.200478
0.12215
0.116563
0.0712305
0.0782443
0.157403
0.175746
0.297754
0.810735
0.452298
0.151577
396.614
396.718
396.296
395.528
394.543
393.486
392.493
391.656
391.039
390.725
397.707
397.706
397.165
396.253
395.135
394.008
392.988
392.103
391.439
391.129
399.741
399.608
398.872
397.723
396.385
395.073
393.864
392.906
392.283
392.061
403.022
402.691
401.63
400.06
398.363
396.761
395.257
394.199
393.644
393.672
407.71
407.049
405.472
403.213
400.844
398.879
397.16
396.118
395.718
396.03
414.004
412.673
410.162
407.164
404.124
401.6
399.731
398.748
397.82
399.254
422.803
420.508
417.001
412.415
408.008
404.711
402.707
402.357
400.686
402.953
434.855
431.236
425.616
418.8
412.737
408.763
406.05
406.186
405.195
406.77
452.832
443.72
390.4
311.85
242.598
209.452
198.677
216.262
212.627
272.716
332.808
202.979
89.1518
24.8827
2.3251
0.170962
0.118189
0.0561133
0.111975
2.40754
20.824
1.37204
0.195272
0.141327
0.134116
0.149689
0.0822334
0.0617899
0.110378
0.175308
0.0472696
0.125672
0.134026
0.118925
0.102492
0.116326
0.110018
0.113258
0.149569
0.194979
0.0229216
0.127062
0.1676
0.169598
0.0992574
0.107266
0.113869
0.154228
0.202851
0.186156
0.0171329
0.0526545
0.0838638
0.160802
0.178801
0.103016
0.0729674
0.123064
0.138646
0.135164
0.0380111
0.0436011
0.0630429
0.100599
0.212465
0.165329
0.0911705
0.098394
0.100972
0.169726
0.0340901
0.0656291
0.0699573
0.0777748
0.230654
0.252491
0.287378
0.192123
0.0789983
0.197
0.0265095
0.0540339
0.0786806
0.0968702
0.162186
0.239093
0.486608
0.48302
0.145828
0.229473
0.027608
0.0290797
0.0253188
0.171058
0.231838
0.194268
0.218423
0.267076
0.222125
0.184664
0.0580546
0.0557155
0.0329269
0.160797
0.26679
0.190782
0.231595
0.291324
0.258035
0.200558
0.147807
0.121857
0.0963015
0.223927
0.269837
0.218673
0.488434
0.718418
0.493451
0.155816
398.13
398.205
397.774
397.032
396.088
395.106
394.188
393.425
392.894
392.632
399.293
399.28
398.705
397.812
396.734
395.635
394.713
393.94
393.397
393.147
401.506
401.317
400.524
399.323
398.011
396.801
395.751
394.939
394.448
394.27
405.032
404.615
403.465
401.782
399.982
398.412
397.322
396.486
396.133
396.129
409.999
409.18
407.455
405.039
402.604
400.524
399.464
398.658
398.34
398.677
416.487
414.727
412.074
408.94
405.972
403.742
402.33
401.461
400.462
401.311
425.25
422.41
418.707
413.978
409.75
407.043
405.495
405.583
403.873
403.119
437.228
432.953
427.355
419.747
413.992
411.037
409.729
411.507
411.031
412.032
454.59
445.748
389.596
306.342
236.982
213.839
217.828
255.476
258.761
292.762
349.431
203.996
84.816
23.5107
3.27359
0.23624
0.11889
2.29123
0.334135
11.9667
25.6461
1.52331
0.265673
0.223756
0.18788
0.158255
0.0680159
0.0280759
0.107744
0.175439
0.0747593
0.155824
0.168291
0.173579
0.14364
0.11928
0.100562
0.084317
0.126321
0.191701
0.0494816
0.115982
0.116593
0.209149
0.206417
0.136865
0.113094
0.105085
0.168101
0.197118
0.0781297
0.0500048
0.0398313
0.0465369
0.191046
0.21079
0.0824092
0.0545869
0.121729
0.194881
0.104111
0.0449719
0.0295815
0.00785292
0.124521
0.152933
0.0619202
0.0629006
0.107285
0.156887
0.090813
0.111218
0.113903
0.0788197
0.0180844
0.0583905
0.103905
0.125461
0.125275
0.178384
0.0395948
0.16079
0.149348
0.129913
0.07702
0.0856402
0.122658
0.129923
0.142677
0.219804
0.0337914
0.0844075
0.146059
0.127602
0.119582
0.103251
0.143519
0.170633
0.178431
0.162883
0.0457013
0.0381108
0.057636
0.0452089
0.0622051
0.0990009
0.151285
0.182879
0.194599
0.162626
0.336084
0.112598
0.0727487
0.203734
0.25249
0.18957
0.365636
0.490749
0.282689
0.119421
398.861
399.091
398.619
397.895
397.003
396.075
395.235
394.556
394.026
393.744
399.94
400.249
399.6
398.681
397.651
396.615
395.742
395.023
394.521
394.289
402.226
402.364
401.395
400.164
398.935
397.77
396.806
396.05
395.601
395.463
404.686
405.719
404.456
402.707
400.945
399.442
398.324
397.674
397.338
397.329
409.284
410.381
408.613
406.006
403.554
400.831
400.507
399.895
399.436
399.848
415.466
416.201
413.26
409.37
405.985
403.616
403.272
402.731
401.492
401.546
424.953
423.543
419.422
414.343
409.853
407.095
406.643
406.75
405.52
401.515
438.491
433.572
427.372
420.244
414.34
411.889
411.036
412.296
412.633
413.057
455.881
440.867
378.315
295.278
226.996
205.888
208.812
248.193
264.295
286.681
331.014
176.569
66.8198
17.242
1.86635
0.323917
2.44505
10.2516
12.0114
19.9017
20.6798
0.467053
0.26474
0.236503
0.201172
0.157432
0.0625047
-0.00362513
0.0866306
0.148343
0.089206
0.14876
0.161327
0.149017
0.150362
0.111127
0.0861397
0.0514759
0.100162
0.174799
0.0732422
0.0973258
0.0917532
0.179589
0.174266
0.180509
0.106079
0.10352
0.125752
0.186276
0.105513
0.0498833
0.0238634
0.0969299
0.139295
0.201359
0.0853983
0.0696873
0.0748766
0.172834
0.113809
0.0397167
0.0117114
-0.0177244
0.13901
0.0832359
0.045516
0.0418411
0.0564597
0.154168
0.11596
0.0343145
0.00977291
0.0159038
0.110722
0.0216313
0.0547458
0.0544303
0.114
0.159828
0.0763274
0.0236062
0.0116535
0.0378016
-0.0102902
0.0371657
0.0738553
0.0807873
0.0988352
0.198734
0.0189543
0.0126937
0.00297236
-0.00951504
-0.00548324
0.0458226
0.0840579
0.104696
0.121829
0.128838
0.0098621
0.00659916
-0.00377701
-0.0119204
0.000318691
0.0452037
0.0799187
0.0938536
0.129034
0.121545
0.0038222
-0.00112311
-0.0183264
-0.0291674
0.00446584
0.0996326
0.149263
0.0973166
0.0829121
0.0832342
399.078
399.343
398.919
398.197
397.292
396.359
395.497
394.804
394.277
394.006
399.883
400.526
399.896
398.98
397.904
396.853
395.971
395.266
394.748
394.518
401.673
402.608
401.693
400.45
399.177
397.964
396.968
396.247
395.813
395.668
404.886
405.875
404.585
402.855
401.155
399.685
398.516
397.792
397.456
397.46
409.294
410.074
408.251
405.939
403.779
401.204
400.14
399.896
399.339
399.797
415.277
415.669
412.714
409.27
406.78
403.512
402.47
402.544
401.261
400.728
424.457
423.359
419.252
414.036
410.028
406.752
405.799
406.152
405.376
401.182
438.196
433.33
426.747
419.353
413.342
410.702
410.136
411.671
411.946
411.318
454.981
434.462
367.94
283.109
210.705
188.142
196.042
236.694
255.645
277.29
297.98
151.078
52.4644
10.9657
0.555103
0.319599
1.61799
9.49563
11.484
18.1064
11.3746
0.246032
0.215006
0.182317
0.169291
0.133073
0.0566984
-0.0100748
0.0637322
0.122704
0.0734215
0.10158
0.117972
0.129318
0.125535
0.0681885
0.0684064
0.084454
0.081978
0.154087
0.0516069
0.0570225
0.104458
0.137872
0.124269
0.106611
0.0925551
0.0974263
0.121617
0.180849
0.0811512
0.0264557
0.00883265
0.123345
0.130726
0.100118
0.0765784
0.086933
0.0938115
0.138817
0.0866605
0.0156539
-0.00462704
0.0522665
0.159602
0.0973898
0.0563129
0.0590007
0.0547181
0.132264
0.0416638
0.00914753
-0.000145369
0.0888496
0.192873
0.141285
0.0621175
0.0534821
0.0587731
0.143673
0.00771904
0.00221792
0.000193447
0.10601
0.212468
0.0929884
0.0701146
0.0595175
0.0747093
0.18004
0.00450513
-0.000157639
-0.0105705
0.0227294
0.148663
0.046119
0.0614225
0.0725316
0.0871354
0.126768
0.0155233
-0.00985545
-0.00552668
0.0012565
0.0227364
0.0472705
0.0519461
0.0631327
0.0921676
0.0923129
0.0176101
-0.0158284
-0.0130314
-0.0132452
0.0033957
0.0545207
0.0230238
0.0220201
0.0469292
0.0551936
398.891
399.028
398.613
397.88
396.952
395.989
395.065
394.301
393.742
393.466
400.03
400.07
399.519
398.629
397.549
396.448
395.523
394.724
394.166
393.914
402.2
402.032
401.246
400.049
398.729
397.488
396.425
395.59
395.084
394.906
405.605
405.071
403.928
402.328
400.519
398.949
397.771
396.907
396.525
396.52
410.179
407.694
405.909
404.757
402.838
400.728
399.585
398.723
398.215
398.546
416.275
412.526
409.981
408.362
405.975
403.462
401.892
401.058
400.001
401.288
424.799
420.671
416.955
412.767
408.574
405.747
404.279
404.559
403.272
402.085
436.418
431.708
424.676
416.971
410.946
408.239
407.911
409.542
408.491
402.961
453.33
423.728
350.391
256.74
186.15
164.888
170.057
216.268
228.705
257.145
259.391
134.025
45.6317
9.20578
0.890483
0.288098
1.46882
3.31092
0.173966
3.76606
5.0367
0.129164
0.140135
0.107597
0.0772672
0.0863578
0.056414
0.015071
0.0796211
0.124218
0.0282783
0.0532977
0.0767277
0.103713
0.0332139
0.0167177
0.0560836
0.109409
0.134586
0.156327
0.0211832
0.0168328
0.0406299
0.0702148
0.0521661
0.0348391
0.0836208
0.101614
0.140383
0.218092
0.00726319
-0.00893387
-0.0256755
-0.0362486
0.145343
0.0611681
0.094571
0.106333
0.107108
0.144686
-0.00833672
-0.0237108
-0.0311596
-0.0143885
0.171554
0.228162
0.24534
0.137464
0.0562592
0.0816838
-0.0202314
-0.0312525
-0.0264387
-0.0109982
0.102391
0.248739
0.168048
0.0581499
0.0188803
0.127507
0.111169
0.0185231
-0.0178505
-0.000186861
0.118608
0.267749
0.0646452
0.0541222
0.0805964
0.163103
0.149551
0.164217
-0.0101961
0.0104482
0.102657
0.221394
0.0671498
0.0745366
0.0798346
0.169872
0.153616
0.121448
0.00442195
0.0320204
0.0665355
0.0820007
0.0755687
0.0799136
0.0776175
0.09975
0.181704
0.0848565
0.0220141
0.0322
0.0457062
0.0563185
0.0425011
0.0303879
0.0465288
0.0803686
397.948
398.114
397.72
396.973
396.004
394.942
393.952
393.122
392.503
392.185
398.991
399.063
398.543
397.622
396.497
395.367
394.341
393.443
392.803
392.503
400.963
400.881
400.137
398.917
397.594
396.235
395.023
394.078
393.506
393.225
404.061
403.724
402.651
401.141
399.259
397.548
396.122
395.076
394.537
394.451
408.283
406.23
405.798
403.72
401.31
399.214
397.567
396.513
395.969
396.013
414.189
410.603
410.331
407.136
403.992
401.418
399.535
398.584
397.626
398.328
422.294
419.276
415.5
410.703
406.378
403.215
401.216
400.75
399.548
400.898
433.489
429.26
422.576
415.282
409.17
405.978
403.625
402.485
395.352
380.744
448.319
411.639
336.461
243.274
174.293
150.629
150.178
180.328
163.956
213.381
217.043
120.86
44.1736
9.78389
0.397273
0.176222
0.165097
0.0638885
0.135994
0.177893
0.862863
0.0402137
0.0704749
0.0401954
0.0165467
0.0568253
0.07325
0.0504625
0.0921687
0.135796
-0.0103769
0.019923
0.0348523
0.0870335
-0.0163373
0.0144925
0.0611686
0.0964053
0.201262
0.202778
-0.00665948
-0.0107676
-0.00782912
-0.0361834
-0.00216196
0.0550305
0.0953382
0.105326
0.163698
0.297611
-0.0320575
-0.0407974
-0.0437881
-0.047494
0.0562279
0.222709
0.232148
0.19317
0.0998363
0.146317
-0.0545587
-0.0581082
-0.057161
-0.0437034
0.00370151
0.23462
0.262586
0.155429
0.049264
0.0695512
-0.049036
-0.0685115
-0.0568929
-0.0283624
0.0179764
0.169389
0.250338
0.0857005
0.0281806
0.0474311
0.109358
-0.00418012
-0.0542816
-0.0169696
0.0394713
0.11437
0.23481
0.142975
0.0560152
0.132862
0.0876734
0.11638
0.0232617
0.00401028
0.0599496
0.10332
0.0937001
0.173664
0.0772212
0.12825
0.0851518
0.124334
0.077111
0.0346646
0.0829454
0.0897523
0.082111
0.177707
0.0954481
0.0757451
0.124582
0.102345
0.0445123
0.0396129
0.0655889
0.0684017
0.0516951
0.0936028
0.145121
0.159295
396.667
396.831
396.453
395.653
394.575
393.375
392.247
391.315
390.592
390.246
397.556
397.651
397.155
396.197
394.963
393.67
392.463
391.518
390.735
390.37
399.306
399.299
398.573
397.337
395.834
394.275
392.863
391.757
390.975
390.713
402.115
401.918
400.906
399.246
397.211
395.23
393.528
392.277
391.529
391.339
406.175
405.404
403.934
401.497
398.887
396.401
394.364
393.032
392.341
392.245
411.626
410.309
408.152
404.746
401.272
398.144
395.629
394.281
393.542
393.796
419.104
417.167
413.048
407.887
403.106
399.091
396.018
395.139
394.849
395.686
429.21
425.918
420.017
413.549
406.694
398.278
383.505
372.636
364.317
356.453
434.579
401.77
336.531
240.132
163.726
127.623
105.091
110.531
104.373
159.862
161.162
100.113
41.4391
9.209
0.0340263
0.118216
0.149909
0.101143
0.124832
0.148175
-0.0460709
-0.0102165
0.018416
0.00623762
0.0110272
0.0509187
0.0818233
0.0695465
0.112114
0.149618
-0.0138325
0.00850641
0.0274836
0.0504314
0.0205784
0.0365024
0.0762481
0.109038
0.218606
0.262359
-0.0162257
-0.0107981
-0.0105058
-0.0114972
0.0346195
0.0998948
0.112254
0.120807
0.219885
0.296329
-0.0381299
-0.0429475
-0.040676
-0.0244772
0.00988001
0.164433
0.253559
0.136276
0.0706993
0.235111
-0.0661564
-0.0658993
-0.0575597
-0.0356843
-0.00615173
0.0366446
0.227894
0.0933631
0.0233766
0.0752191
-0.0852392
-0.0844513
-0.0686978
-0.0213665
0.00687693
0.0228178
0.185209
0.115024
0.0345484
0.038277
-0.0899679
-0.0833952
-0.0702997
-0.0190316
0.0209976
0.036104
0.0811588
0.153455
0.0672059
0.0534084
-0.131455
-0.0758567
-0.0302111
-0.0180153
0.0220001
0.0457899
0.048319
0.175335
0.0882897
0.0639559
-0.149874
-0.0751612
-0.0513491
-0.0206528
0.0266078
0.0526264
0.0498751
0.182066
0.106936
0.069799
-0.0784828
-0.0956822
-0.0405215
0.00234529
0.0346803
0.0494593
0.0452189
0.0859087
0.127512
0.0884037
395.086
395.305
394.914
394.052
392.812
391.45
390.131
389.05
388.162
387.777
395.828
395.992
395.485
394.454
393.099
391.606
390.122
388.906
388.117
387.665
397.342
397.45
396.731
395.421
393.73
391.921
390.218
388.831
387.863
387.475
399.841
399.779
398.733
396.95
394.725
392.422
390.347
388.668
387.598
387.305
403.625
403.167
401.532
398.946
395.949
392.97
390.349
388.438
387.232
387.312
408.45
407.544
405.521
401.922
397.866
393.987
390.691
388.536
387.268
387.719
415.531
414.243
410.726
404.991
398.802
393.569
389.672
388.264
387.891
388.824
424.738
422.047
416.509
410.507
397.349
371.932
334.368
323.608
320.306
328.31
425.107
397.095
339.905
238.947
140.601
84.7535
51.0908
39.6503
33.7618
72.4611
113.425
78.168
33.7353
3.62528
0.0337682
0.106695
0.14109
0.129287
0.147862
0.161427
-0.0367221
-0.0143913
0.000784891
0.0157545
0.0331201
0.0651838
0.0951521
0.149952
0.173993
0.170915
-0.00305369
0.0126458
0.0144776
0.0365304
0.0668845
0.0762156
0.099898
0.205552
0.241605
0.263475
-0.00869985
-0.00281714
0.0109939
0.0334621
0.0627987
0.0730115
0.0955553
0.124316
0.226791
0.291415
-0.025588
-0.0210995
-0.0136911
0.00574925
0.0261025
0.0475161
0.125177
0.0495331
0.0442856
0.233124
-0.0544448
-0.0476017
-0.03523
0.00893704
0.0141902
0.0236687
0.0886369
0.0238063
-0.0044471
0.164536
-0.0796044
-0.0720549
-0.0542209
0.00200363
0.0202639
0.0228575
0.0545314
0.0722031
-0.0104814
0.0408219
-0.107011
-0.098174
-0.0653699
-0.0148801
0.0183751
0.0349969
0.0553488
0.132102
0.0438496
0.0466106
-0.136308
-0.105897
-0.0414388
-0.0271968
0.00362194
0.0148549
0.030735
0.176452
0.0814122
0.0608382
-0.109088
-0.0788508
-0.082503
-0.0530672
-0.0196116
-0.00856108
0.00777338
0.151685
0.0904639
0.0633893
-0.126683
-0.0926679
-0.0584358
-0.0335449
-0.0150554
-0.0128122
0.00354328
0.0534117
0.0668242
0.0552505
393.396
393.689
393.254
392.262
390.868
389.295
387.767
386.452
385.44
384.992
394
394.232
393.671
392.578
391.014
389.242
387.545
386.089
384.912
384.52
395.297
395.5
394.71
393.292
391.387
389.246
387.244
385.504
384.109
383.61
397.429
397.521
396.407
394.454
391.927
389.197
386.576
384.19
382.383
382.288
400.6
400.55
398.905
396.046
392.567
388.917
385.317
382.202
380.064
380.876
404.364
404.288
402.695
398.691
393.939
389.248
384.559
380.988
378.679
379.366
411.401
411.172
408.201
401.314
393.964
387.775
381.997
378.371
376.834
377.006
420.187
418.371
414.146
406.295
375.015
326.405
270.672
234.337
226.083
237.565
411.044
388.114
341.555
229.357
110.745
44.0398
0.475336
0.320164
0.26134
0.345486
79.3492
61.5183
23.8242
0.0509704
0.0657698
0.117888
0.172933
0.168924
0.166547
0.185244
-0.00224758
0.00856919
0.0188264
0.0380714
0.0613213
0.105644
0.183454
0.233204
0.214745
0.194917
0.0198476
0.0317391
0.0314987
0.0361758
0.0959061
0.161019
0.194616
0.242885
0.274447
0.226045
0.0164103
0.0285491
0.0432276
0.0533961
0.0566867
0.0669563
0.084125
0.11671
0.240966
0.247554
0.0279388
0.0196512
0.0432638
0.0555002
0.0419993
0.0473819
0.0536549
0.032405
0.0895377
0.199092
0.0742543
0.0789572
0.0874743
0.064067
0.0380233
0.0390127
0.0278572
0.00136549
-0.0027927
0.126876
0.0626373
0.103722
0.125637
0.0733486
0.0331346
0.0458203
0.0184565
0.0147918
-0.000390954
0.0466671
0.00927285
0.0854361
0.103734
0.0520359
0.0154396
0.0334052
0.0139289
0.0416826
0.0305142
0.0441286
0.00874773
0.0614617
0.0526137
-0.0252644
-0.00989079
0.0193662
0.0127117
0.0686209
0.0581343
0.0539901
0.00628719
0.0227976
-0.0500435
-0.0544146
-0.0265382
-0.000597556
0.00923761
0.0851941
0.0710654
0.0580328
-0.0623443
-0.0543099
-0.0486593
-0.0484033
-0.0312858
-0.0119871
0.00795968
0.0506782
0.0541456
0.0503064
391.769
392.103
391.579
390.518
388.969
387.167
385.445
383.945
382.767
382.176
392.267
392.546
391.95
390.756
388.873
386.91
385.003
383.342
381.933
381.281
393.358
393.624
392.712
391.158
388.877
386.503
384.225
382.167
380.08
379.356
395.176
395.304
394.104
391.937
388.998
385.709
382.374
379.267
376.438
376.596
397.935
397.899
396.205
392.959
388.903
384.117
379.439
375.341
371.558
373.145
401.796
401.822
399.51
394.918
389.488
383.204
377.153
372.445
369.039
369.098
408.403
408.047
403.021
396.405
388.8
380.674
364.592
337.773
326.435
329.251
415.144
414.777
410.447
391.678
339.972
263.298
169.785
111.411
90.4023
97.0179
358.82
348.361
297.053
179.237
71.3831
0.381897
0.230575
0.231934
0.1963
0.206004
35.2427
31.335
4.52064
0.0695272
0.097923
0.156789
0.160284
0.166682
0.151894
0.173675
0.0353456
0.0450268
0.0629712
0.0643286
0.083944
0.139636
0.193082
0.20748
0.186439
0.1948
0.0505646
0.0612984
0.0655771
0.0664971
0.0804421
0.130796
0.180781
0.244905
0.240093
0.205647
0.077048
0.0721787
0.085113
0.0790571
0.0665074