/*--------------------------------*- C++ -*----------------------------------*\
| =========                 |                                                 |
| \\      /  F ield         | OpenFOAM: The Open Source CFD Toolbox           |
|  \\    /   O peration     | Version:  2312                                  |
|   \\  /    A nd           | Website:  www.openfoam.com                      |
|    \\/     M anipulation  |                                                 |
\*---------------------------------------------------------------------------*/
FoamFile
{
    version     2.0;
    format      ascii;
    arch        "LSB;label=32;scalar=64";
    class       volScalarField;
    location    "0.725";
    object      p;
}
// * * * * * * * * * * * * * * * * * * * * * * * * * * * * * * * * * * * * * //

dimensions      [1 -1 -2 0 0 0 0];

internalField   nonuniform List<scalar> 
8000
(
369.292
369.051
369.292
369.928
370.833
371.872
372.904
373.8
374.467
374.911
319.896
319.721
320.099
320.918
322.035
323.29
324.522
325.577
326.341
326.896
270.071
270.042
270.742
271.955
273.506
275.198
276.822
278.19
279.147
279.934
219.603
219.751
221.02
222.873
225.149
227.608
229.91
231.753
233.004
234.18
168.579
168.978
170.868
173.707
177.124
180.731
184.058
186.725
188.828
190.327
114.936
115.918
119.331
123.692
128.514
133.962
139.333
143.764
147.456
148.618
56.2076
57.8043
63.6648
70.9983
78.9256
87.1251
95.7191
102.824
107.632
109.338
14.0903
14.7313
17.9338
23.6609
31.0086
42.0307
54.3827
66.1083
74.1393
76.748
0.694897
0.850957
1.30887
2.16339
4.26873
11.5674
25.5763
42.003
51.9336
67.5723
-0.378284
-0.282653
-0.119745
0.0395684
0.227439
0.587461
4.96641
17.4304
29.0978
45.3997
-0.516909
-0.499452
-0.44344
-0.345913
-0.247799
-0.214213
-0.0568963
4.01285
12.6378
24.3049
-0.696472
-0.676347
-0.665452
-0.642782
-0.560905
-0.444976
-0.401221
-0.184131
3.22051
13.6187
-0.807061
-0.778396
-0.771162
-0.787075
-0.726787
-0.613013
-0.544707
-0.522752
-0.229781
10.1438
-0.838094
-0.817057
-0.808046
-0.835458
-0.797654
-0.698086
-0.632868
-0.616526
-0.66387
0.00229668
-0.85197
-0.849235
-0.849753
-0.868472
-0.835428
-0.741423
-0.689473
-0.705517
-0.774082
-0.900883
-0.894091
-0.894968
-0.89942
-0.913709
-0.880605
-0.774959
-0.736028
-0.768862
-0.831592
-0.774035
-0.953914
-0.94625
-0.943215
-0.959705
-0.939302
-0.81714
-0.805801
-0.852842
-0.9193
-0.870641
-1.02096
-1.01177
-1.0058
-1.0193
-1.01642
-0.901449
-0.916472
-0.970126
-1.02065
-0.951568
-1.10903
-1.11799
-1.13211
-1.12846
-1.10763
-1.02814
-1.05585
-1.09345
-1.10616
-0.979207
-1.21728
-1.27712
-1.32209
-1.28039
-1.21358
-1.17529
-1.20572
-1.21228
-1.15903
-0.971657
369.087
368.82
369.009
369.575
370.394
371.339
372.281
373.104
373.717
374.146
319.67
319.473
319.794
320.544
321.567
322.714
323.834
324.801
325.468
326.006
269.771
269.753
270.428
271.573
273.014
274.57
276.044
277.318
278.138
278.783
219.157
219.359
220.488
222.424
224.64
226.936
228.989
230.724
231.55
232.589
167.59
168.139
170.476
173.415
176.785
180.111
182.927
185.174
186.677
188.286
114.426
115.67
118.874
123.361
128.531
133.684
138.159
142.15
145.587
146.323
53.7659
56.2053
62.8972
71.7038
80.3971
88.279
95.2329
101.564
106.074
105.866
8.62428
9.65294
13.4442
22.8308
33.6457
44.1317
54.0937
63.8729
69.7139
70.8382
-0.0522633
0.0186738
0.329252
1.12946
3.95454
10.0424
20.4308
33.5828
40.6835
53.6034
-0.465522
-0.426139
-0.35994
-0.391363
-0.338539
-0.0562262
1.04474
7.47759
14.2563
24.7316
-0.696361
-0.726131
-0.734781
-0.656703
-0.542514
-0.450173
-0.422686
-0.105838
1.20975
4.46067
-0.834809
-0.86925
-0.901374
-0.857135
-0.739996
-0.620212
-0.542513
-0.499084
-0.628462
-0.270717
-0.931649
-0.906053
-0.929162
-0.968464
-0.864682
-0.712616
-0.634846
-0.595957
-0.627717
-0.382877
-0.950679
-0.893389
-0.888507
-0.964679
-0.910681
-0.764796
-0.70028
-0.669707
-0.728138
-0.638273
-0.913359
-0.885241
-0.881069
-0.948061
-0.936305
-0.812779
-0.768214
-0.761013
-0.819761
-0.765668
-0.916614
-0.912435
-0.914391
-0.968031
-0.983198
-0.854005
-0.837936
-0.864356
-0.918137
-0.826723
-0.971396
-0.967937
-0.967673
-1.01374
-1.03318
-0.902429
-0.927588
-0.991567
-1.04408
-0.942685
-1.04639
-1.04649
-1.04785
-1.07781
-1.06361
-0.996444
-1.04892
-1.13181
-1.17433
-1.06639
-1.14244
-1.16756
-1.19307
-1.17945
-1.11812
-1.1234
-1.18895
-1.26562
-1.29617
-1.11543
-1.26993
-1.35908
-1.4169
-1.32552
-1.22423
-1.27186
-1.34437
-1.396
-1.39273
-1.08085
368.762
368.438
368.524
368.952
369.617
370.405
371.214
371.935
372.479
372.86
319.408
319.155
319.361
319.942
320.776
321.738
322.701
323.559
324.151
324.6
269.653
269.582
270.091
271.041
272.236
273.533
274.801
275.986
276.619
277.147
219.35
219.541
220.533
222.087
223.929
225.856
227.623
229.64
229.924
230.588
168.309
168.852
170.829
173.516
176.362
179.165
181.552
183.658
184.319
185.399
116.348
117.271
120.319
124.362
128.868
133.08
136.569
139.54
140.837
141.714
60.3768
62.1242
68.0831
75.519
82.9276
89.0574
93.7201
98.0357
99.1999
99.5152
12.9441
13.4636
19.5261
29.6335
39.6014
47.715
53.9207
59.0599
59.4448
60.1838
-0.248298
-0.119786
0.7144
3.02481
6.72147
11.5456
18.9464
26.2074
28.3451
39.187
-0.508719
-0.482182
-0.443326
-0.431491
-0.452571
-0.192289
0.340946
1.43622
2.98195
7.52179
-0.724853
-0.744679
-0.756749
-0.69911
-0.633049
-0.550714
-0.491467
-0.343963
-0.210144
0.417357
-0.845897
-0.866634
-0.872241
-0.830305
-0.746253
-0.657261
-0.595379
-0.524682
-0.505512
-0.268435
-0.925496
-0.935064
-0.947944
-0.931992
-0.835203
-0.717923
-0.649014
-0.615613
-0.62623
-0.421218
-0.957336
-0.926268
-0.925163
-0.94437
-0.875806
-0.774671
-0.727885
-0.722214
-0.764317
-0.603611
-0.937792
-0.92069
-0.916574
-0.934595
-0.8945
-0.815294
-0.804629
-0.847991
-0.907117
-0.793376
-0.948094
-0.951214
-0.947292
-0.945506
-0.902531
-0.823785
-0.884437
-0.99808
-1.05295
-0.93069
-1.01042
-1.01878
-1.00703
-0.977085
-0.884571
-0.861945
-0.998789
-1.15101
-1.19388
-1.02727
-1.09189
-1.10433
-1.08747
-1.02698
-0.884265
-0.973394
-1.1304
-1.27309
-1.28448
-1.09005
-1.19946
-1.23285
-1.22309
-1.09539
-0.974618
-1.11743
-1.26251
-1.37393
-1.34032
-1.1203
-1.34031
-1.42615
-1.40936
-1.21234
-1.14523
-1.28939
-1.42138
-1.50157
-1.40405
-1.13411
368.235
367.844
367.796
368.035
368.489
369.067
369.695
370.28
370.742
371.067
318.93
318.624
318.678
319.034
319.603
320.307
321.052
321.732
322.243
322.628
269.358
269.227
269.522
270.169
271.004
271.944
272.901
273.766
274.363
274.832
219.454
219.624
220.316
221.374
222.62
223.999
225.317
226.444
227.148
227.746
169.234
169.975
171.368
173.196
175.137
177.103
178.818
180.35
180.969
181.726
118.521
120.048
122.282
124.893
127.783
130.574
133.017
135.084
135.678
136.222
66.0657
69.14
73.8996
78.6163
83.0793
86.8116
89.7066
91.6958
91.3074
91.869
19.6785
24.724
30.9709
36.9427
42.3508
45.9934
48.5342
50.6441
46.4382
49.7268
0.0124142
1.71966
4.67677
7.49131
9.62636
10.968
12.0658
14.1085
13.1304
22.9823
-0.55667
-0.50562
-0.52927
-0.536503
-0.508545
-0.391623
-0.244805
0.0551348
0.423378
1.77902
-0.730223
-0.722428
-0.740115
-0.71699
-0.673508
-0.608329
-0.540288
-0.436333
-0.355031
-0.0835848
-0.834266
-0.812863
-0.804688
-0.785342
-0.741502
-0.680423
-0.625106
-0.564693
-0.528194
-0.345233
-0.904182
-0.890034
-0.87753
-0.850567
-0.78939
-0.712176
-0.674113
-0.682517
-0.706766
-0.539838
-0.934776
-0.915291
-0.902011
-0.882114
-0.823619
-0.757361
-0.742995
-0.806235
-0.879495
-0.732039
-0.944445
-0.937529
-0.928176
-0.89804
-0.83808
-0.772981
-0.797336
-0.928798
-1.00869
-0.873955
-0.974754
-0.987227
-0.974076
-0.917563
-0.828534
-0.763983
-0.882177
-1.06252
-1.09879
-0.963513
-1.04417
-1.06005
-1.0318
-0.943446
-0.805262
-0.828155
-0.998201
-1.16044
-1.15105
-1.00196
-1.13322
-1.15077
-1.10735
-0.98244
-0.86628
-0.964744
-1.10063
-1.20044
-1.15024
-1.02064
-1.2544
-1.28126
-1.22992
-1.06766
-1.02879
-1.1158
-1.19934
-1.23544
-1.15152
-1.05221
-1.39086
-1.4395
-1.36644
-1.22514
-1.22807
-1.28457
-1.33008
-1.32715
-1.21648
-1.11403
367.58
367.072
366.836
366.83
367.031
367.369
367.802
368.247
368.625
368.897
318.332
317.901
317.739
317.816
318.058
318.458
318.971
319.491
319.914
320.241
268.913
268.636
268.606
268.89
269.297
269.844
270.489
271.144
271.649
272.041
219.264
219.348
219.64
220.096
220.651
221.384
222.293
223.185
223.774
224.265
169.725
170.286
171.179
172.066
172.9
174.068
175.23
176.349
176.908
177.306
120.067
121.54
123.101
124.174
125.215
126.589
128.219
129.782
129.969
130.112
70.6673
74.0599
77.4871
79.5353
81.0939
82.5158
84.2218
84.9847
82.8746
83.3427
27.6144
33.904
37.7635
39.704
41.7376
42.3393
42.7301
42.2088
36.483
39.376
2.1774
6.32649
10.3738
11.8341
11.4446
10.4129
9.5459
8.14636
5.33203
10.1816
-0.543484
-0.546357
-0.671958
-0.66978
-0.593055
-0.500953
-0.426577
-0.264832
-0.0756132
0.524381
-0.698814
-0.720253
-0.795434
-0.810887
-0.74883
-0.659307
-0.573034
-0.465406
-0.407357
-0.224802
-0.802362
-0.782734
-0.804216
-0.814743
-0.774989
-0.703146
-0.636602
-0.580555
-0.572122
-0.416704
-0.884662
-0.862392
-0.845635
-0.825001
-0.775924
-0.712355
-0.683308
-0.727781
-0.79314
-0.601167
-0.91918
-0.90166
-0.880247
-0.84376
-0.783878
-0.74319
-0.725423
-0.828563
-0.910953
-0.740115
-0.946551
-0.94223
-0.923815
-0.873013
-0.803525
-0.747941
-0.773873
-0.902703
-0.928143
-0.822172
-0.991045
-1.00279
-0.982023
-0.910827
-0.82041
-0.774625
-0.857554
-0.973725
-0.960353
-0.887805
-1.06478
-1.08338
-1.0473
-0.957392
-0.873259
-0.883038
-0.95317
-1.01283
-0.983906
-0.93033
-1.17021
-1.1902
-1.13754
-1.03313
-1.01556
-1.02768
-1.03956
-1.04715
-0.992235
-0.95876
-1.30339
-1.32277
-1.25238
-1.16011
-1.16631
-1.16264
-1.14712
-1.1365
-1.06874
-1.02422
-1.41096
-1.43341
-1.37103
-1.3207
-1.30916
-1.29445
-1.26683
-1.24107
-1.17271
-1.12267
366.812
366.146
365.69
365.437
365.351
365.39
365.64
365.975
366.289
366.526
317.616
317.007
316.591
316.39
316.181
316.258
316.569
316.974
317.327
317.628
268.289
267.818
267.523
267.318
267.12
267.203
267.617
268.157
268.652
269
219.026
218.766
218.555
218.295
218.015
218.029
218.545
219.329
219.897
220.488
169.629
169.938
169.989
169.759
169.393
169.582
170.6
171.587
172.162
172.573
121.419
121.784
122.156
121.513
120.678
120.747
121.89
123.438
123.761
124.227
74.5991
75.6796
76.9322
76.6356
75.5177
75.0015
76.5982
77.7662
74.9763
74.9867
33.0925
35.4825
37.4489
38.7388
37.9717
37.1871
37.6441
36.3567
29.7054
32.164
5.65047
9.9028
12.1953
10.4999
6.69811
4.35083
4.62736
4.75047
2.83384
5.68172
-0.548851
-0.685922
-0.815127
-0.717884
-0.626126
-0.54126
-0.440809
-0.291436
-0.241859
0.0568028
-0.695248
-0.80417
-0.90175
-0.870612
-0.756535
-0.632412
-0.553693
-0.476892
-0.457543
-0.315805
-0.7863
-0.818106
-0.864222
-0.863573
-0.793779
-0.689967
-0.596233
-0.567702
-0.63407
-0.48562
-0.875338
-0.865911
-0.85935
-0.846498
-0.790895
-0.712328
-0.660367
-0.715987
-0.82484
-0.627942
-0.911742
-0.899436
-0.874431
-0.839862
-0.784914
-0.752862
-0.718147
-0.791406
-0.835543
-0.709825
-0.947453
-0.942471
-0.914011
-0.861546
-0.804164
-0.786037
-0.780764
-0.832268
-0.818958
-0.759749
-0.998953
-1.00715
-0.975757
-0.908835
-0.845861
-0.843194
-0.861891
-0.889884
-0.865175
-0.830652
-1.07962
-1.09924
-1.05408
-0.969923
-0.922781
-0.918255
-0.934774
-0.94753
-0.933299
-0.907085
-1.1941
-1.21384
-1.14829
-1.05206
-1.02944
-1.01568
-0.998979
-1.00621
-0.992186
-0.973027
-1.31188
-1.32617
-1.24305
-1.16596
-1.12446
-1.12706
-1.10671
-1.09648
-1.06278
-1.04002
-1.37668
-1.38784
-1.3414
-1.31182
-1.27148
-1.25994
-1.23176
-1.19967
-1.15404
-1.12299
365.938
365.096
364.361
363.738
363.268
363.188
363.354
363.641
363.922
364.151
316.799
315.964
315.153
314.368
313.798
313.782
314.017
314.375
314.717
315.015
267.605
266.732
265.851
264.873
264.204
264.045
264.414
264.977
265.488
265.912
218.586
217.868
216.677
215.355
214.178
213.706
214.294
215.228
216.014
216.721
169.679
169.183
167.622
165.72
163.77
163.209
164.438
166.09
167.19
167.9
122.044
120.995
119.266
115.809
111.816
111.39
113.517
115.965
117.194
118.352
76.1946
74.5432
73.6741
69.5303
63.3256
62.0696
64.254
68.8845
67.8138
68.2505
34.5988
32.7405
32.8218
30.0926
24.0567
24.1946
29.5889
31.4742
24.9773
27.6708
10.021
9.67625
6.45667
2.40291
0.944206
0.449984
0.642845
1.46768
0.953059
4.39244
-0.624991
-0.824527
-0.76046
-0.55134
-0.464964
-0.494992
-0.441208
-0.294672
-0.301535
-0.0204842
-0.786535
-0.944598
-0.945062
-0.802688
-0.681964
-0.565539
-0.505682
-0.445753
-0.478011
-0.391776
-0.814165
-0.878918
-0.873308
-0.816601
-0.72686
-0.610798
-0.543209
-0.557121
-0.676154
-0.556069
-0.874388
-0.874062
-0.861661
-0.83556
-0.768541
-0.684604
-0.631921
-0.680789
-0.808725
-0.648096
-0.907956
-0.896283
-0.874596
-0.850136
-0.795342
-0.756432
-0.722188
-0.756662
-0.797582
-0.691149
-0.940323
-0.935601
-0.907494
-0.866458
-0.813821
-0.797887
-0.79301
-0.797804
-0.783099
-0.727657
-0.994165
-1.00495
-0.964376
-0.898008
-0.826175
-0.810997
-0.846277
-0.848728
-0.830735
-0.803153
-1.07848
-1.10237
-1.03801
-0.931292
-0.849633
-0.832599
-0.890285
-0.920295
-0.907229
-0.890392
-1.18865
-1.20593
-1.11147
-0.977511
-0.88083
-0.932756
-0.973873
-1.00774
-0.989911
-0.971472
-1.27433
-1.27671
-1.18163
-1.07218
-0.987947
-1.07134
-1.09043
-1.09548
-1.0722
-1.04896
-1.3022
-1.30664
-1.26921
-1.23172
-1.20849
-1.21556
-1.21319
-1.17678
-1.15367
-1.1271
365.08
364.063
363.073
362.219
361.553
361.23
361.252
361.494
361.757
362.002
315.912
314.87
313.716
312.733
312.038
311.565
311.661
311.946
312.297
312.625
266.673
265.442
264.094
262.721
261.592
261.184
261.375
261.896
262.491
263.051
217.654
216.424
214.41
212.333
210.29
209.52
210.116
211.154
212.315
213.225
168.86
167.263
163.998
160.889
157.238
156.208
158.05
160.116
162.135
163.482
122.103
118.165
113.704
108.04
101.552
99.0812
102.459
106.993
110.276
112.831
75.0046
71.1711
66.3831
55.4332
42.5407
40.182
47.6013
55.3705
59.9508
62.6281
31.8482
29.0557
26.4613
16.2819
5.81528
3.83029
9.69812
22.1646
22.8601
24.7305
11.0577
4.74444
1.94421
1.27277
0.713904
0.0999461
-0.00169633
0.309439
0.132111
3.18921
-0.690964
-0.702741
-0.289131
0.0952401
-0.125805
-0.423221
-0.424547
-0.255467
-0.288683
-0.053368
-0.959869
-1.03467
-0.78353
-0.522494
-0.54729
-0.55513
-0.50505
-0.426028
-0.480759
-0.438416
-0.894706
-0.922421
-0.798195
-0.688348
-0.657307
-0.632804
-0.584852
-0.565761
-0.685678
-0.619745
-0.865908
-0.862178
-0.818002
-0.753778
-0.710693
-0.692773
-0.668026
-0.672722
-0.811451
-0.68151
-0.906538
-0.898824
-0.866359
-0.810154
-0.769244
-0.741189
-0.735698
-0.738263
-0.816738
-0.705415
-0.939214
-0.9445
-0.910294
-0.849506
-0.797495
-0.735666
-0.763422
-0.78113
-0.784599
-0.730619
-0.997148
-1.01583
-0.958596
-0.86345
-0.767154
-0.728581
-0.80374
-0.851106
-0.818603
-0.794823
-1.08277
-1.0998
-1.01198
-0.871525
-0.728243
-0.802454
-0.888014
-0.951354
-0.90875
-0.886135
-1.17157
-1.17426
-1.05923
-0.899495
-0.838127
-0.924285
-0.985534
-1.03661
-1.00041
-0.975315
-1.21782
-1.21542
-1.11959
-0.971427
-1.02394
-1.06212
-1.09467
-1.08763
-1.07777
-1.05193
-1.22101
-1.23614
-1.21709
-1.18677
-1.21352
-1.19925
-1.19685
-1.13661
-1.14841
-1.12353
364.266
363.102
361.895
360.821
359.818
359.362
359.286
359.646
360.002
360.284
315.046
313.784
312.358
311.041
309.852
309.194
309.151
309.774
310.294
310.725
265.62
264.171
262.342
260.297
258.572
257.679
257.903
259.056
259.989
260.734
216.295
214.444
211.822
209.243
205.856
204.184
204.954
207.149
209.072
210.334
167.324
163.965
159.412
154.77
149.376
147.113
149.678
153.797
157.406
159.712
119.238
113.224
106.503
97.4263
86.9549
81.7808
89.2367
96.7949
103.181
107.869
71.99
64.5798
52.7565
36.6383
20.3365
12.2953
20.67
37.1147
48.3268
56.8811
30.0846
26.7923
20.5218
6.79554
2.23723
1.4696
0.871175
5.07875
19.2705
21.8091
7.00002
1.80134
1.57308
1.25293
0.880414
0.467289
0.104028
0.132728
0.172086
1.93373
-0.639058
-0.251857
0.359015
0.478771
0.254499
-0.0105606
-0.175118
-0.19129
-0.26432
-0.159589
-0.967821
-0.729697
-0.237486
-0.0972896
-0.19897
-0.322976
-0.427882
-0.43104
-0.497174
-0.455008
-0.954722
-0.849561
-0.633554
-0.548582
-0.514261
-0.495522
-0.570668
-0.58665
-0.706004
-0.661386
-0.859605
-0.81499
-0.747319
-0.75282
-0.682365
-0.630084
-0.67709
-0.689736
-0.849049
-0.731971
-0.877449
-0.853758
-0.843838
-0.850523
-0.787756
-0.749642
-0.738354
-0.770472
-0.882642
-0.748771
-0.927399
-0.918377
-0.918029
-0.893129
-0.833087
-0.808116
-0.763496
-0.825832
-0.839543
-0.764146
-0.992523
-1.0026
-0.982319
-0.907251
-0.855056
-0.837567
-0.807308
-0.894734
-0.847007
-0.80896
-1.06878
-1.09313
-1.04618
-0.931624
-0.900383
-0.907306
-0.895055
-0.974393
-0.920087
-0.890646
-1.132
-1.1671
-1.12149
-1.01119
-0.969962
-0.990141
-1.00485
-1.03382
-1.01003
-0.981065
-1.16356
-1.20584
-1.20145
-1.16601
-1.08277
-1.08794
-1.09753
-1.06557
-1.08706
-1.05796
-1.17772
-1.23029
-1.27719
-1.30977
-1.21463
-1.18428
-1.16649
-1.09609
-1.15328
-1.12369
363.696
362.397
361.059
359.89
358.923
358.294
358.151
358.479
358.903
359.262
314.479
312.959
311.349
309.876
308.835
307.971
307.794
308.415
309.025
309.553
265.073
263.064
261.035
258.954
257.285
256.04
256.269
257.147
258.256
259.194
215.728
213.084
210.187
207.005
203.401
201.288
202.164
204.3
206.63
208.314
166.331
162.12
157.4
151.711
145.532
141.942
144.617
149.324
153.836
156.897
116.993
110.856
103.07
93.6309
82.3142
69.7313
77.0828
89.7437
97.2719
103.001
68.4691
60.474
47.6762
34.0572
18.1272
6.58332
8.52259
23.407
38.5637
50.196
26.5825
22.854
12.2832
4.9094
1.54834
1.34752
1.16494
1.09005
8.82735
19.668
1.64839
1.11065
1.17268
0.997014
0.773218
0.660945
0.392393
0.133633
0.0825683
4.02564
-0.432723
0.118796
0.521989
0.518164
0.433958
0.277927
0.0412346
-0.103944
-0.215546
-0.0424244
-0.66565
-0.261087
0.0900626
0.146731
0.106042
-0.102768
-0.321278
-0.400443
-0.483855
-0.436421
-0.856
-0.639373
-0.390992
-0.307176
-0.304061
-0.433236
-0.574126
-0.615858
-0.744234
-0.682579
-0.861139
-0.790947
-0.66423
-0.601471
-0.594319
-0.66548
-0.705704
-0.74348
-0.907314
-0.788908
-0.884088
-0.892315
-0.820286
-0.776523
-0.77428
-0.789185
-0.770193
-0.835549
-0.949061
-0.80872
-0.941713
-0.966134
-0.926332
-0.87685
-0.861842
-0.850345
-0.813463
-0.881346
-0.898643
-0.810267
-1.00796
-1.05218
-1.01838
-0.939063
-0.908853
-0.908188
-0.877723
-0.927259
-0.895602
-0.841271
-1.0737
-1.14343
-1.09703
-0.990709
-0.960492
-0.968366
-0.975751
-0.991667
-0.968589
-0.921335
-1.12348
-1.2059
-1.18522
-1.06692
-1.03595
-1.04875
-1.06467
-1.05237
-1.06473
-1.01665
-1.1495
-1.22307
-1.24371
-1.16693
-1.13065
-1.12769
-1.14268
-1.10861
-1.14962
-1.09777
-1.1564
-1.22943
-1.27644
-1.25568
-1.22116
-1.19086
-1.20446
-1.15138
-1.20301
-1.15694
363.524
362.155
360.819
359.651
358.633
357.999
357.895
358.308
358.8
359.157
314.461
312.681
311.09
309.686
308.551
307.535
307.452
308.186
308.856
309.408
264.792
262.667
260.651
258.697
257.128
255.671
255.76
256.777
258.007
258.96
214.843
212.013
209.322
206.528
203.391
200.687
201.278
203.369
206.065
207.936
164.564
160.427
156.43
151.76
145.882
142.278
142.968
147.031
152.521
156.065
114.367
108.123
101.148
91.6888
80.7767
72.1709
73.0619
84.0284
94.0827
101.455
64.8757
55.1974
42.8345
30.189
15.1692
8.3395
7.85787
18.494
34.0128
48.1818
21.622
14.6142
8.31661
4.60502
2.384
1.5206
1.12465
0.980905
4.84111
18.2337
0.734798
1.10523
1.17234
1.2694
1.0692
0.717012
0.432929
0.0900544
-0.0259
4.12304
-0.162064
0.276385
0.575324
0.589406
0.417945
0.217418
0.086958
-0.0522752
-0.172663
-0.185097
-0.385227
-0.0914469
0.0449934
0.0091308
-0.0645099
-0.138267
-0.235589
-0.345164
-0.461202
-0.402072
-0.673822
-0.450289
-0.342205
-0.365684
-0.395681
-0.450744
-0.54669
-0.638293
-0.757975
-0.685952
-0.814002
-0.705676
-0.620555
-0.604476
-0.618542
-0.678918
-0.732815
-0.804629
-0.952137
-0.837427
-0.893246
-0.889028
-0.816426
-0.778103
-0.776028
-0.814929
-0.837538
-0.892719
-1.01187
-0.866669
-0.965225
-1.01901
-0.949521
-0.899196
-0.886016
-0.901867
-0.916156
-0.931458
-0.958096
-0.860834
-1.03056
-1.10503
-1.04712
-0.990821
-0.983205
-0.978469
-1.00663
-0.979436
-0.956065
-0.89259
-1.08137
-1.1667
-1.11853
-1.06405
-1.06184
-1.06004
-1.10969
-1.07031
-1.04596
-0.98699
-1.11637
-1.20381
-1.17537
-1.13194
-1.13699
-1.15034
-1.20524
-1.17803
-1.16229
-1.09399
-1.12898
-1.2054
-1.19837
-1.1971
-1.21665
-1.2247
-1.28477
-1.26562
-1.26098
-1.18017
-1.12044
-1.19132
-1.20659
-1.2498
-1.2755
-1.26524
-1.31707
-1.295
-1.30748
-1.22486
363.582
362.401
361.191
360.181
359.219
358.735
358.723
359.165
359.638
360.012
314.173
312.845
311.445
310.258
309.199
308.459
308.529
309.183
309.832
310.361
264.462
262.667
260.931
259.331
257.866
256.767
257.139
258.118
259.273
260.18
214.212
211.492
208.851
207.062
204.77
202.774
203.407
205.347
207.8
209.512
163.328
159.966
157.394
153.308
148.798
145.675
147.058
150.676
155.556
158.502
112.96
107.721
101.907
93.9966
84.1502
78.2507
82.4226
91.6647
99.5135
105.307
61.3844
51.7677
42.6048
31.4867
18.6555
12.9531
16.9969
28.6974
40.9105
53.0157
15.0501
9.81287
8.65859
5.67053
3.99934
2.04021
1.07045
0.826067
8.98956
21.4484
0.8344
0.964858
1.18797
1.61974
1.34759
0.672644
0.150432
-0.337157
-0.177407
4.52258
0.0818067
0.350704
0.567884
0.652117
0.336892
0.0554173
-0.09059
-0.19944
-0.209455
-0.0729233
-0.266845
-0.0822676
0.0267682
-0.0363348
-0.195851
-0.304667
-0.362296
-0.466086
-0.476828
-0.36143
-0.582208
-0.429412
-0.343163
-0.428567
-0.52108
-0.570251
-0.636139
-0.71485
-0.739889
-0.669246
-0.74539
-0.681034
-0.619184
-0.637872
-0.692999
-0.746866
-0.81062
-0.865928
-0.952923
-0.851233
-0.856902
-0.860228
-0.818188
-0.793116
-0.822737
-0.86466
-0.907191
-0.93277
-1.0497
-0.907382
-0.945503
-0.983767
-0.956361
-0.916085
-0.930929
-0.960506
-0.985372
-0.981542
-1.00662
-0.903393
-1.01149
-1.06692
-1.04698
-1.01326
-1.021
-1.06219
-1.09367
-1.05206
-1.01705
-0.948584
-1.05434
-1.11732
-1.10113
-1.08299
-1.10615
-1.17372
-1.22402
-1.17512
-1.13899
-1.07903
-1.07561
-1.13394
-1.12953
-1.14228
-1.19575
-1.28282
-1.34235
-1.31135
-1.28209
-1.20925
-1.07035
-1.12061
-1.15728
-1.2062
-1.26827
-1.36191
-1.4202
-1.41015
-1.37012
-1.29023
-1.04191
-1.1021
-1.20543
-1.26732
-1.32117
-1.395
-1.44198
-1.42522
-1.38183
-1.30383
364
363.044
361.981
361.197
360.561
360.283
360.423
360.922
361.343
361.683
314.578
313.528
312.42
311.476
310.692
310.331
310.583
311.241
311.807
312.288
264.876
263.448
262.318
261.059
259.962
259.507
259.895
260.974
261.884
262.654
214.828
212.246
211.367
209.67
207.832
206.622
207.645
209.674
211.346
212.643
164.395
162.402
159.194
156.89
154.053
153.284
155
158.022
161.149
162.986
113.883
109.643
105.373
100.496
94.9251
93.5155
97.1862
104.241
109.056
112.124
63.0125
53.0928
49.7834
43.7796
33.2947
32.8599
37.7508
44.0009
53.8603
62.3747
22.09
10.6718
11.544
8.54989
4.70734
3.1009
2.64783
6.25283
18.9266
26.6959
1.00236
0.836542
1.03211
1.27324
1.19824
0.65909
-0.306457
-0.686946
-0.0295532
6.14787
0.136679
0.345407
0.514514
0.435986
0.158273
-0.145337
-0.393786
-0.416734
-0.206867
0.179875
-0.228156
-0.0830816
-0.00584247
-0.179938
-0.403194
-0.53301
-0.634452
-0.63665
-0.495043
-0.338568
-0.513549
-0.424304
-0.373211
-0.510909
-0.644819
-0.722542
-0.800689
-0.791329
-0.717553
-0.649224
-0.671199
-0.639123
-0.614189
-0.714889
-0.792815
-0.851749
-0.90546
-0.884476
-0.886059
-0.830363
-0.793743
-0.786939
-0.775562
-0.858395
-0.909086
-0.946988
-0.966778
-0.932923
-1.03636
-0.920457
-0.893672
-0.896059
-0.89935
-0.964555
-1.02477
-1.04767
-1.04234
-1.01427
-1.04697
-0.941983
-0.969259
-0.981272
-0.989877
-1.05037
-1.14391
-1.17238
-1.15453
-1.1202
-1.06942
-1.00126
-1.01851
-1.04209
-1.04891
-1.11984
-1.25335
-1.30313
-1.28641
-1.27094
-1.23354
-1.18702
-1.04794
-1.08444
-1.10125
-1.16982
-1.35073
-1.42075
-1.40168
-1.40143
-1.39727
-1.3342
-1.06682
-1.12642
-1.15628
-1.21909
-1.42701
-1.50297
-1.47726
-1.46289
-1.43155
-1.38596
-1.09939
-1.19805
-1.25726
-1.30095
-1.47459
-1.53074
-1.49503
-1.44433
-1.39241
-1.35423
364.803
363.935
363.193
362.67
362.345
362.323
362.631
363.154
363.622
363.953
315.414
314.515
313.759
313.157
312.73
312.712
313.111
313.79
314.363
314.825
265.777
264.803
263.901
263.14
262.475
262.507
263.209
264.286
265.151
265.771
215.758
214.476
213.565
212.565
211.485
211.428
212.329
214.256
215.499
216.654
165.093
163.786
162.635
161.312
159.948
160.121
161.639
164.791
166.969
168.228
114.54
111.352
110.698
108.277
105.669
105.737
108.619
114.751
117.58
119.034
66.8867
58.8837
60.3537
57.4931
51.2688
51.0042
53.3659
63.3989
67.1359
70.933
27.4361
15.4287
17.169
20.3684
11.736
9.85803
11.0812
23.7111
28.4379
32.9644
3.44592
0.998155
0.967751
0.951159
1.02838
0.744043
-0.318814
0.0508319
0.671277
7.53943
0.0383314
0.315148
0.389938
0.230155
-0.0266957
-0.311063
-0.565109
-0.448226
-0.213721
0.133983
-0.235347
-0.124151
-0.119109
-0.338785
-0.553261
-0.664819
-0.71477
-0.625622
-0.454582
-0.324414
-0.441072
-0.431955
-0.482861
-0.650138
-0.766775
-0.835303
-0.869382
-0.807796
-0.710822
-0.628478
-0.597005
-0.635107
-0.716192
-0.843493
-0.893536
-0.935761
-0.954541
-0.892515
-0.872335
-0.815336
-0.754295
-0.802539
-0.879306
-0.966247
-0.975103
-0.997967
-1.01596
-0.950027
-0.999664
-0.922683
-0.923331
-0.940831
-0.995816
-1.05396
-1.05637
-1.06211
-1.07596
-1.05864
-1.07793
-0.976552
-1.02507
-1.01958
-1.07545
-1.11908
-1.14792
-1.14282
-1.1607
-1.18376
-1.14056
-1.06128
-1.06847
-1.06968
-1.12892
-1.18163
-1.24621
-1.24411
-1.26856
-1.32675
-1.29998
-1.25718
-1.095
-1.1122
-1.16851
-1.25083
-1.34203
-1.35444
-1.36907
-1.43246
-1.45071
-1.40751
-1.12274
-1.16516
-1.22504
-1.32057
-1.42311
-1.44781
-1.44144
-1.46908
-1.46243
-1.4241
-1.17867
-1.24465
-1.30308
-1.3962
-1.48294
-1.50565
-1.4717
-1.44777
-1.40716
-1.38953
365.672
365.036
364.584
364.39
364.402
364.667
365.12
365.697
366.199
366.536
316.305
315.67
315.267
315.098
315.127
315.383
315.946
316.645
317.255
317.695
266.587
266.109
265.681
265.602
265.715
266.046
266.81
267.837
268.646
269.208
216.428
216.163
215.821
215.763
215.969
216.234
217.318
218.897
220.088
220.952
165.718
165.829
165.615
165.613
166.035
166.926
168.615
171.126
172.811
173.801
117.443
114.154
115.098
114.844
114.985
116.468
119.267
123.207
125.31
126.062
70.9183
65.9736
67.149
66.7881
65.7536
66.2581
69.9614
76.6646
78.8488
79.987
31.6928
28.0793
23.0328
24.1653
26.9356
26.8657
31.2022
38.5022
36.4644
41.3701
4.48296
1.81841
1.29664
1.16697
1.35422
0.993351
2.15239
3.94245
3.9006
11.5704
0.42774
0.431049
0.230941
-0.0109722
-0.268279
-0.620254
-0.593028
-0.268058
-0.0467972
0.396401
-0.135487
-0.156375
-0.333147
-0.553912
-0.697297
-0.720886
-0.663079
-0.532469
-0.415462
-0.311862
-0.483226
-0.527117
-0.664389
-0.789354
-0.855158
-0.88176
-0.855927
-0.770994
-0.696283
-0.60544
-0.705768
-0.762907
-0.878915
-0.940449
-0.948906
-0.958432
-0.944059
-0.89023
-0.857969
-0.78992
-0.886492
-0.92058
-1.0103
-1.02771
-1.01914
-1.02308
-1.0097
-0.9608
-0.987589
-0.918054
-1.00402
-1.02714
-1.08985
-1.08831
-1.08496
-1.08435
-1.07534
-1.05657
-1.0897
-1.00351
-1.05603
-1.08198
-1.13137
-1.13882
-1.15592
-1.14834
-1.14607
-1.16629
-1.17344
-1.09948
-1.08308
-1.11811
-1.15978
-1.1875
-1.2266
-1.21772
-1.23204
-1.30089
-1.30982
-1.26764
-1.10209
-1.14226
-1.19172
-1.23943
-1.29586
-1.30929
-1.33653
-1.42475
-1.44799
-1.41098
-1.13706
-1.16828
-1.23732
-1.2938
-1.3643
-1.40017
-1.4261
-1.49197
-1.50284
-1.46155
-1.18289
-1.23309
-1.29481
-1.35174
-1.42655
-1.46598
-1.4734
-1.48932
-1.47344
-1.44402
366.622
366.188
365.994
366.075
366.39
366.915
367.556
368.223
368.783
369.157
317.277
316.896
316.764
316.9
317.305
317.909
318.682
319.484
320.142
320.598
267.49
267.375
267.353
267.598
268.267
269.133
270.135
271.213
272.051
272.629
217.224
217.578
217.817
218.26
219.127
220.239
221.74
223.343
224.511
225.279
167.29
167.714
168.204
169.085
170.571
172.508
174.559
176.856
178.302
179.246
118.267
117.632
118.446
119.205
121.132
123.912
127.307
130.78
132.651
133.531
71.1756
70.3774
70.6482
71.5718
74.4986
78.8882
83.4963
87.2559
88.5197
89.6382
33.5606
32.4624
27.2684
25.792
32.5381
38.878
44.456
47.6211
46.4802
50.5725
5.20343
3.74369
1.9868
1.68549
2.58839
5.65288
9.82912
10.0529
9.70916
19.4195
0.762706
0.375243
-0.0869471
-0.308141
-0.541632
-0.522375
-0.167897
0.100979
0.291169
1.07783
-0.167396
-0.357873
-0.611397
-0.749627
-0.77184
-0.68322
-0.560926
-0.434412
-0.372919
-0.251391
-0.659119
-0.732794
-0.837957
-0.879706
-0.891945
-0.868035
-0.802536
-0.718922
-0.667258
-0.564016
-0.932385
-0.945398
-0.99092
-0.977156
-0.950784
-0.936582
-0.906785
-0.860412
-0.833337
-0.754699
-1.07021
-1.08004
-1.09506
-1.06473
-1.04058
-1.02651
-1.00298
-0.962284
-0.974436
-0.906137
-1.12677
-1.14897
-1.15548
-1.13257
-1.11994
-1.10725
-1.07313
-1.04515
-1.09058
-1.01454
-1.12718
-1.16595
-1.18304
-1.17982
-1.18384
-1.16787
-1.1261
-1.11692
-1.16968
-1.10983
-1.12509
-1.1672
-1.19401
-1.21615
-1.24471
-1.24538
-1.21413
-1.22657
-1.27865
-1.24062
-1.14417
-1.1745
-1.21016
-1.2503
-1.31009
-1.33693
-1.3319
-1.36329
-1.40656
-1.37777
-1.15676
-1.19786
-1.23332
-1.2781
-1.35592
-1.40733
-1.42935
-1.46799
-1.48783
-1.46039
-1.18422
-1.23331
-1.26346
-1.30768
-1.38195
-1.43796
-1.46557
-1.48858
-1.49344
-1.46329
367.569
367.296
367.312
367.631
368.205
368.939
369.748
370.527
371.155
371.574
318.273
318.07
318.169
318.59
319.276
320.145
321.109
322.031
322.753
323.259
268.696
268.667
268.935
269.584
270.56
271.737
272.984
274.198
275.104
275.74
218.884
219.062
219.611
220.576
221.896
223.575
225.371
227.113
228.26
229.136
168.709
169.336
170.322
171.907
174.139
176.538
178.998
181.48
182.819
184.01
118.882
119.601
120.829
122.698
125.518
129.235
133.104
136.861
138.861
140.228
70.8068
71.1438
72.1224
74.5248
78.9979
84.8615
90.1514
94.4475
96.8174
98.7748
29.0087
29.2134
27.9265
29.2891
35.462
43.1759
50.0004
54.8102
56.8895
61.0453
2.26245
2.32071
2.42385
3.37297
5.6837
9.57522
12.5541
16.0732
19.8019
31.2068
-0.00168449
-0.285175
-0.499447
-0.512481
-0.385208
-0.0127875
0.287677
0.49705
0.895005
3.19989
-0.594749
-0.708154
-0.813965
-0.836712
-0.722116
-0.573482
-0.459111
-0.387087
-0.343196
-0.0786691
-0.89488
-0.913375
-0.922609
-0.903489
-0.868713
-0.805218
-0.736225