/*--------------------------------*- C++ -*----------------------------------*\
| =========                 |                                                 |
| \\      /  F ield         | OpenFOAM: The Open Source CFD Toolbox           |
|  \\    /   O peration     | Version:  2312                                  |
|   \\  /    A nd           | Website:  www.openfoam.com                      |
|    \\/     M anipulation  |                                                 |
\*---------------------------------------------------------------------------*/
FoamFile
{
    version     2.0;
    format      ascii;
    arch        "LSB;label=32;scalar=64";
    class       volScalarField;
    location    "0.965";
    object      alpha.water;
}
// * * * * * * * * * * * * * * * * * * * * * * * * * * * * * * * * * * * * * //

dimensions      [0 0 0 0 0 0 0];

internalField   nonuniform List<scalar> 
8000
(
1
1
1
1
1
1
1
1
1
1
1
1
1
1
1
1
1
1
1
1
1
1
1
1
1
1
1
1
1
1
1
1
1
1
1
1
1
1
1
1
1
1
1
1
1
1
1
1
1
1
1
1
1
1
1
1
1
1
1
1
0.999831
1
1
1
1
1
1
1
0.998679
0.988443
0.999844
0.999999
0.995228
0.956427
0.906937
0.855411
0.807535
0.784774
0.808389
0.84989
0.999823
0.950589
0.744221
0.544266
0.321742
0.208977
0.176357
0.211765
0.271121
0.304573
0.846162
0.551712
0.199714
0.0480495
0.00607548
0.00196333
0.000600538
0.000178795
0.000295659
0.000423879
0.184061
0.0494377
0.00412915
0.00299428
0.00128006
0.000277432
3.93579e-05
1.32384e-05
1.64669e-05
4.85312e-05
0.000638743
0.00132348
0.000953495
0.000743522
0.000333405
4.5724e-05
1.32408e-05
1.25802e-05
1.32654e-05
6.78821e-05
0.00015833
0.00024927
0.000206001
0.00014815
5.40104e-05
1.83005e-05
4.89465e-05
1.45442e-05
8.36956e-05
0.00018031
2.95248e-05
0.000154963
0.000128601
6.12542e-05
1.27113e-05
2.59178e-05
6.47242e-05
7.98718e-05
0.000180862
0.000182715
1.26204e-05
3.53463e-05
4.31275e-05
1.499e-05
5.55258e-06
3.44192e-05
5.87551e-05
0.000164304
0.000176909
0.000203932
9.34049e-06
1.25629e-05
7.86822e-06
2.86881e-06
5.05633e-06
3.80167e-05
0.00010589
0.000154192
0.000118669
0.000343673
2.05066e-05
6.87592e-06
1.76378e-06
1.65279e-06
1.13542e-05
5.14289e-05
0.000121163
6.94088e-05
0.000289851
0.000382387
4.62343e-05
7.81925e-06
1.08229e-06
1.41063e-06
1.11867e-05
6.18044e-05
0.000114444
4.64709e-05
0.000318928
0.000380519
4.62343e-05
8.16956e-06
9.31163e-07
1.60629e-06
2.12001e-05
0.000115021
6.25137e-05
2.18958e-05
0.000259353
0.000369747
3.65868e-05
5.27159e-06
8.73881e-07
1.08707e-06
6.32144e-05
0.000116824
6.87924e-05
1.88747e-05
5.00442e-05
5.76386e-05
1
1
1
1
1
1
1
1
1
1
1
1
1
1
1
1
1
1
1
1
1
1
1
1
1
1
1
1
1
1
1
1
1
1
1
1
1
1
1
1
1
1
1
1
1
1
1
1
1
1
0.999766
0.994786
0.999922
1
1
1
1
1
1
1
1
0.999823
0.999999
1
1
1
1
1
1
1
0.999996
0.999889
0.998269
0.912625
0.824175
0.763681
0.743426
0.746766
0.75576
0.775655
0.860646
0.781184
0.547736
0.308051
0.165984
0.107181
0.0934297
0.0924769
0.082366
0.0643559
0.277046
0.139811
0.0283146
0.00419516
0.00229928
0.000712956
0.00013401
2.29723e-05
0.000107833
0.000137074
0.0114993
0.00133564
0.000922345
0.000666933
0.00036396
8.49493e-05
2.53512e-05
2.09001e-05
1.56614e-05
2.25307e-05
0.000248032
0.000236382
0.000158286
7.70999e-05
3.9068e-05
1.47998e-05
1.89225e-05
1.17103e-05
1.24769e-05
6.58076e-05
4.38947e-05
5.41826e-05
2.99617e-05
1.5377e-05
5.72438e-06
4.1322e-06
2.98041e-05
2.18294e-05
3.62816e-05
0.000190918
8.8546e-06
0.000192641
0.000325368
0.000105008
4.24656e-06
3.42538e-06
3.97074e-05
3.84821e-05
0.000179935
0.000189643
7.81978e-06
0.00029818
0.000328836
9.63852e-05
2.36025e-06
1.3974e-05
4.16006e-05
0.000150824
0.000180492
0.00014915
8.2475e-06
8.05246e-05
4.83676e-05
1.51503e-05
3.05579e-06
2.78596e-05
0.000118248
0.000160346
7.35869e-05
4.72386e-05
2.37275e-05
2.11262e-06
1.63006e-06
1.61425e-06
1.17603e-05
6.37004e-05
0.000127773
8.57234e-05
1.45651e-05
9.37069e-06
4.50603e-05
9.66022e-07
1.03088e-06
1.35843e-06
1.96407e-05
0.000107755
0.000103639
3.99239e-06
1.47088e-05
1.18362e-05
4.61642e-05
8.22718e-07
9.125e-07
1.03116e-06
2.67932e-05
0.000112189
7.78026e-06
2.10601e-06
6.73777e-06
2.38834e-05
2.7471e-05
8.12621e-07
8.22724e-07
2.929e-06
5.90696e-05
6.35123e-05
1.40367e-05
4.69275e-05
6.15393e-05
0.000114649
1
1
1
1
1
1
1
1
1
1
1
1
1
1
1
1
1
1
1
1
1
1
1
1
1
1
1
1
1
1
1
1
1
0.999999
1
1
1
1
1
1
1
1
1
1
1
1
1
1
1
0.999999
1
0.998547
0.998286
1
1
1
1
1
1
1
1
1
1
1
1
1
1
1
0.99991
0.999931
0.993895
0.999976
0.969244
0.868942
0.763235
0.689904
0.666402
0.665485
0.679364
0.692821
0.459477
0.459373
0.344472
0.169887
0.0752873
0.0345524
0.0195444
0.0142223
0.00785675
0.00498322
0.0183085
0.00882854
0.00192728
0.00096632
0.000555594
0.000133774
2.60661e-05
6.16629e-06
2.30044e-06
1.50564e-06
0.000865927
0.000420831
0.000200614
7.69419e-05
3.90462e-05
1.59883e-05
1.6241e-05
1.72066e-05
7.7884e-05
4.4032e-06
9.97241e-05
4.9743e-05
2.37595e-05
1.14772e-05
4.90532e-06
2.93936e-06
3.43965e-06
1.16531e-05
1.78194e-05
3.54527e-05
8.85425e-06
5.78438e-06
1.34058e-05
1.46485e-05
4.77827e-06
2.14833e-06
2.29021e-06
1.20663e-05
1.1951e-05
8.3348e-05
1.68825e-06
2.75251e-05
6.49295e-05
3.81931e-05
3.18109e-06
1.97031e-06
3.15768e-06
1.02849e-05
5.1663e-05
0.000109141
7.20262e-06
7.61317e-05
5.99619e-05
1.04082e-05
2.02458e-06
1.98975e-06
9.73911e-06
2.75004e-05
7.09164e-05
5.6134e-05
7.81978e-06
2.66868e-05
9.80477e-06
3.28045e-06
2.62417e-06
5.26841e-06
5.24036e-05
0.00010175
3.74422e-05
1.4462e-05
2.09205e-05
1.04962e-06
2.41416e-06
3.44561e-06
1.53903e-05
6.86611e-05
0.000127835
5.35401e-05
5.35481e-06
2.88557e-06
1.66916e-05
9.21176e-07
1.0496e-06
3.37744e-06
6.09708e-05
0.00010435
6.08536e-05
2.10601e-06
1.87909e-06
2.00638e-06
6.04324e-06
8.71519e-07
9.21145e-07
7.80287e-06
6.26789e-05
7.53936e-05
2.10599e-06
1.8791e-06
1.8298e-06
1.84521e-06
1.09033e-06
8.2242e-07
1.07932e-06
7.70183e-06
1.94985e-05
5.57667e-06
2.01895e-06
2.7922e-06
1.83189e-06
1.82954e-06
1
1
1
1
1
1
1
1
1
1
1
1
1
1
1
1
1
1
1
1
1
1
1
1
1
1
1
1
1
1
1
1
0.999999
1
1
1
1
1
1
0.999997
1
1
0.999999
1
1
1
1
1
0.999999
0.999981
1
1
1
1
1
1
1
0.999999
1
0.999999
1
1
1
1
1
1
0.999715
0.999777
0.999888
0.999966
0.864673
0.920156
0.913316
0.834131
0.746524
0.664419
0.612869
0.597526
0.609979
0.635202
0.184632
0.222112
0.215299
0.11321
0.0395993
0.00763232
3.24485e-05
6.18834e-06
2.31871e-06
1.58492e-06
0.00168484
0.000947962
0.000628016
0.000259747
8.82964e-05
3.1504e-05
6.18618e-06
2.19277e-06
1.41921e-06
1.43234e-06
0.000170478
7.42841e-05
3.13275e-05
1.14447e-05
5.20541e-06
5.72018e-06
8.80457e-06
1.82999e-05
1.26725e-05
1.4307e-06
1.11414e-05
5.77678e-06
4.80649e-06
6.0014e-06
2.57092e-06
2.14831e-06
2.29026e-06
1.63304e-05
2.16527e-05
2.35337e-06
1.68818e-06
2.39923e-06
1.58119e-05
1.18376e-05
2.19678e-06
1.97032e-06
2.08517e-06
6.54396e-06
2.01632e-05
2.49684e-06
1.46599e-06
5.66014e-06
4.19537e-05
9.83057e-06
1.97032e-06
1.93344e-06
1.89655e-06
1.78488e-06
3.85357e-06
6.35788e-06
1.50935e-05
6.89128e-06
5.03682e-05
3.26599e-06
1.98975e-06
1.97031e-06
2.10356e-06
2.14322e-06
2.88944e-06
8.79961e-06
1.58333e-05
3.23419e-05
3.88072e-05
3.29159e-06
4.41227e-06
6.11848e-06
4.59345e-06
3.92916e-06
3.25923e-06
6.07669e-06
1.27578e-05
2.24044e-05
7.52336e-06
2.77328e-06
2.78838e-05
5.40443e-05
2.98672e-05
5.60481e-06
1.98677e-06
2.4072e-06
1.32354e-06
2.2817e-06
1.07531e-06
5.74006e-06
3.71438e-05
5.34499e-05
9.73188e-06
2.62587e-06
1.84379e-06
1.93062e-06
8.67764e-07
9.18564e-07
3.1707e-06
1.09357e-05
2.48029e-05
9.77522e-06
1.94667e-06
1.84382e-06
1.83189e-06
1.84382e-06
7.95378e-07
8.65569e-07
1.20075e-05
2.09998e-05
3.55052e-06
2.01895e-06
1.86003e-06
1.83189e-06
1.82862e-06
1.83189e-06
1
1
1
1
1
1
1
1
1
1
1
1
1
1
1
1
1
1
1
1
1
1
1
1
1
1
1
1
0.999999
1
1
1
1
1
1
1
1
0.999999
0.999996
0.999999
1
1
1
1
1
1
1
1
0.999991
0.999984
1
1
1
1
1
1
1
0.999999
0.99999
0.99997
1
1
1
1
1
0.999858
0.999866
0.999921
0.99988
0.999829
0.727716
0.840625
0.850745
0.794099
0.72511
0.658432
0.613829
0.628712
0.691267
0.742467
0.0716081
0.109585
0.127919
0.0892912
0.0293781
0.00339694
2.65975e-05
1.99047e-06
1.41853e-06
0.0234847
0.000522041
0.000213187
0.000164389
0.000102274
2.45057e-05
4.8321e-06
1.99034e-06
1.36892e-06
1.27929e-06
1.36176e-06
3.85186e-05
1.12747e-05
4.64269e-06
5.64231e-06
7.06671e-06
2.40266e-05
1.20397e-05
7.05675e-06
1.20503e-06
1.18616e-06
3.36238e-06
2.92386e-06
3.88473e-06
4.80953e-06
5.62883e-06
1.2723e-05
1.25928e-05
1.09961e-05
1.36574e-05
1.43078e-06
1.46568e-06
2.47667e-06
2.41633e-05
1.48404e-05
6.83882e-06
2.00808e-06
2.03342e-06
2.92023e-06
1.4138e-05
1.84908e-06
1.42987e-06
2.40391e-05
6.00591e-05
1.08924e-05
2.04227e-06
1.89656e-06
1.75192e-06
1.60727e-06
4.77314e-06
5.01896e-06
1.30437e-05
6.08128e-05
6.05888e-05
2.20665e-05
2.01709e-06
2.00598e-06
1.89656e-06
1.78467e-06
1.98121e-06
7.31118e-06
6.02161e-05
6.05481e-05
6.02569e-05
1.53431e-05
2.30704e-06
1.20188e-05
1.16009e-05
2.14196e-06
1.95687e-06
2.04571e-06
3.14406e-05
1.9869e-05
2.62314e-06
1.94213e-06
5.53492e-06
1.04101e-05
6.3645e-06
1.95653e-06
1.88859e-06
1.95645e-06
8.99649e-07
9.62398e-07
9.9951e-07
1.1429e-06
1.48931e-06
2.50752e-06
1.98347e-06
1.88882e-06
1.87093e-06
1.88877e-06
7.95467e-07
8.96053e-07
8.00756e-06
2.73111e-05
1.22281e-05
2.32242e-06
2.00087e-06
1.90189e-06
1.84377e-06
1.90186e-06
7.54445e-07
7.95392e-07
5.07854e-06
3.95284e-05
3.89191e-05
3.31599e-06
2.01887e-06
1.86e-06
1.8318e-06
1.88045e-06
1
1
1
1
1
1
1
1
1
1
1
1
1
1
1
1
1
1
1
1
1
1
1
1
1
1
1
1
1
1
1
1
1
1
1
1
1
0.999997
0.999956
0.999989
1
1
1
1
1
1
1
0.999999
0.999929
0.99984
1
1
1
0.999999
1
1
0.999999
0.999997
0.999927
0.999558
1
1
1
0.999999
0.999989
0.999951
0.999904
0.999871
0.999795
0.999489
0.612028
0.773552
0.797862
0.758023
0.709137
0.687074
0.710295
0.760754
0.814371
0.85934
0.0223273
0.0439793
0.0726422
0.0828763
0.042476
0.0167482
0.01196
0.0359435
0.0753397
0.117055
0.000204631
6.25328e-05
1.7617e-05
4.82781e-05
1.43129e-06
1.32672e-06
1.36724e-06
1.23858e-06
1.16889e-06
1.15543e-06
1.59469e-05
5.02294e-06
5.2253e-06
6.11153e-06
4.76264e-05
6.8988e-06
6.29624e-06
1.13087e-06
1.02125e-06
1.04262e-06
2.1671e-06
3.07279e-06
4.13066e-06
5.24333e-06
5.04445e-05
2.40052e-05
3.95607e-06
1.33359e-06
1.30189e-06
3.05504e-06
1.42987e-06
2.57073e-06
1.43792e-05
1.47309e-05
2.32619e-05
1.68919e-05
1.89521e-06
1.51926e-06
1.44891e-06
5.79356e-06
1.42987e-06
4.94576e-05
5.7836e-05
9.03453e-06
2.41841e-06
5.26765e-06
1.65529e-06
1.51324e-06
1.61551e-06
4.02103e-06
1.08591e-05
6.08662e-05
6.09204e-05
4.97462e-05
8.68203e-06
6.67081e-06
1.29632e-05
2.64399e-06
1.75289e-06
2.19747e-06
5.93274e-05
5.56095e-05
5.90868e-05
3.4961e-05
3.66099e-06
4.27013e-06
1.42739e-05
6.89243e-06
3.63939e-06
1.85951e-06
5.83982e-05
4.25538e-06
1.02749e-06
1.37182e-06
1.58553e-06
1.72949e-06
8.7391e-06
3.90148e-06
2.94793e-06
2.03457e-06
5.72648e-06
9.658e-07
9.5379e-07
1.33001e-06
1.70346e-06
2.08336e-06
2.82721e-06
1.98224e-06
1.88628e-06
2.01703e-06
8.0324e-07
9.0147e-07
9.98045e-07
1.25016e-05
3.3363e-05
2.36481e-05
9.5869e-06
2.00009e-06
1.89976e-06
4.297e-06
7.45101e-07
8.03458e-07
9.47445e-07
9.9522e-06
0.000124513
0.000162832
6.67314e-05
1.20664e-05
1.95656e-06
1.29616e-05
1
1
1
1
1
1
1
1
1
1
1
1
1
1
1
1
0.999999
0.999999
1
1
1
1
1
1
1
1
0.999999
0.999997
0.999998
1
1
1
1
1
1
1
1
0.999999
0.999975
0.99995
1
1
1
1
1
1
1
0.999999
0.999969
0.999197
1
1
1
1
0.999999
0.999999
0.999999
0.999998
0.999966
0.999263
0.996519
1
0.999972
0.999986
0.999951
0.999922
0.999911
0.999913
0.999882
0.999446
0.532028
0.704428
0.745261
0.738324
0.731381
0.761797
0.818155
0.869717
0.906913
0.934905
0.00378867
0.00958236
0.0413159
0.0694396
0.0524313
0.0458517
0.0812928
0.130557
0.1818
0.234395
1.8903e-05
1.06759e-05
6.90115e-06
1.37528e-06
1.32736e-06
1.23873e-06
1.18687e-06
1.13091e-06
1.02125e-06
1.04262e-06
5.90789e-06
3.07074e-05
4.47693e-05
5.82685e-06
2.82512e-06
1.40089e-06
1.08087e-06
1.0157e-06
1.00599e-06
1.02125e-06
3.79857e-06
4.88882e-05
8.75203e-05
6.17489e-05
6.62518e-06
1.44714e-06
1.49187e-06
1.1309e-06
1.02119e-06
1.08994e-06
3.54492e-06
2.82164e-05
1.34259e-05
1.17843e-05
4.95653e-06
1.70981e-06
1.58909e-05
2.89673e-06
1.09865e-06
2.48163e-06
2.13404e-06
4.9393e-05
1.71398e-05
1.06587e-05
6.64246e-06
1.69142e-05
1.93707e-05
2.82569e-06
1.16273e-06
1.53201e-06
2.40033e-06
6.08662e-05
6.06857e-05
5.80677e-05
1.42958e-05
4.72264e-06
1.92567e-05
8.35279e-06
1.29081e-06
1.51485e-06
5.43183e-05
1.68111e-05
4.96794e-05
6.62618e-05
8.54207e-06
3.58754e-06
1.07613e-05
4.15173e-06
1.52931e-06
1.68734e-06
5.63619e-05
4.92572e-06
2.61213e-06
4.99617e-06
2.95295e-06
2.51415e-06
3.60599e-06
3.79434e-06
3.37774e-06
9.95908e-06
4.80731e-05
9.515e-07
9.88182e-07
1.62605e-06
2.37398e-05
7.12218e-05
0.00013831
0.000166305
0.000119436
4.28365e-05
3.74899e-06
1.3491e-06
1.27614e-06
2.51556e-06
0.00013613
0.000414245
0.000375369
9.62535e-05
5.93167e-05
5.84804e-05
8.03239e-07
8.38652e-07
9.71596e-07
3.16389e-06
0.000212084
0.000405041
0.000394342
0.000102099
2.08177e-05
0.000112008
1
1
1
1
1
1
1
1
1
1
1
1
1
1
1
1
1
0.999982
0.999981
0.999998
1
1
1
1
1
1
0.999998
0.999981
0.999981
1
1
1
1
1
1
1
1
0.999994
0.999989
0.999913
1
1
1
1
1
1
1
0.999991
0.999966
0.999238
0.999999
1
1
0.999999
0.999999
1
0.999999
0.99999
0.999964
0.999325
0.994604
0.999994
0.999987
0.99996
0.999942
0.999948
0.999953
0.999947
0.999923
0.999552
0.489729
0.641914
0.71043
0.726405
0.75319
0.815645
0.88647
0.935075
0.961636
0.975132
5.66207e-05
1.06824e-05
0.0254315
0.0517414
0.0465701
0.0746614
0.145129
0.228592
0.301023
0.358599
3.57988e-06
6.74894e-06
7.24671e-06
2.05089e-06
1.23873e-06
1.18687e-06
1.08087e-06
1.01571e-06
1.00893e-06
1.0453e-06
1.16728e-05
9.58881e-05
0.000104536
4.38843e-05
1.28951e-06
1.08089e-06
1.01571e-06
1.00568e-06
1.0112e-06
1.00683e-06
3.30317e-05
0.00011456
0.000116897
3.42642e-05
1.46114e-06
1.28951e-06
8.81062e-06
1.31876e-06
1.00823e-06
1.03713e-06
1.47734e-05
2.3938e-05
1.47462e-05
0.000113926
2.99818e-06
2.91692e-06
1.93699e-05
2.64992e-06
1.03414e-06
1.08272e-06
3.03237e-06
9.88126e-06
3.66633e-05
0.000110423
3.14238e-06
7.69229e-06
1.93635e-05
3.67243e-06
1.11586e-06
1.1295e-06
1.37453e-05
4.36684e-05
4.1486e-05
7.94586e-05
1.1557e-05
4.95233e-06
8.15569e-06
2.44014e-06
1.16273e-06
1.27634e-06
3.11606e-05
1.90157e-05
5.2715e-05
9.89595e-05
1.56858e-05
4.00837e-06
4.12205e-05
0.000123899
9.91476e-05
1.65693e-06
5.43257e-05
8.0824e-06
4.05785e-05
3.60088e-05
1.70479e-05
0.000134966
0.000466303
0.0004845
0.000475125
0.000101355
5.35737e-05
6.08289e-06
1.27641e-06
1.89409e-06
7.91522e-05
0.000486539
0.000498024
0.000498098
0.000481629
0.000339709
5.1179e-05
5.99233e-06
8.49284e-07
1.281e-06
0.000126562
0.000479932
0.000498069
0.000376505
0.000229462
0.000309698
1.70279e-05
3.10938e-06
1.13375e-06
9.17933e-07
3.21519e-05
0.000275947
0.000317496
4.96196e-05
5.31641e-05
0.000101403
1
1
1
1
1
1
1
1
1
0.999987
1
1
1
1
1
1
1
0.999988
0.999986
1
1
1
1
1
1
1
1
0.999984
0.999981
0.999999
1
1
1
1
1
1
1
0.999987
0.999974
0.999986
1
1
1
1
1
1
0.999979
0.999424
0.999316
0.999747
0.999997
1
1
1
1
1
0.999917
0.999212
0.999188
0.999248
0.995763
0.999983
0.999968
0.999957
0.999967
0.999975
0.999896
0.999534
0.999333
0.999312
0.495138
0.631955
0.699889
0.722462
0.771224
0.84965
0.918581
0.963502
0.986509
0.995138
3.58019e-06
6.68702e-06
0.0176372
0.0372413
0.0435412
0.0965303
0.189966
0.302793
0.415039
0.504962
3.58019e-06
3.25136e-06
2.29204e-06
1.5466e-06
1.3411e-06
1.23873e-06
1.14643e-06
1.04045e-06
1.09152e-06
1.64261e-06
2.76787e-05
9.53368e-05
0.000112861
5.94557e-05
1.86701e-06
1.24879e-06
1.04045e-06
1.01571e-06
1.00631e-06
1.0453e-06
4.5113e-05
0.000100994
0.000143153
8.03448e-05
4.40533e-06
1.49931e-06
1.61468e-05
1.28525e-06
1.03686e-06
1.08314e-06
5.65154e-06
2.78171e-06
6.79747e-05
0.000286755
3.14625e-06
1.10086e-05
1.91726e-05
1.74452e-06
1.11348e-06
1.15617e-06
1.36654e-06
1.27043e-06
9.64643e-05
0.000285436
3.58318e-06
5.52029e-06
6.67416e-06
3.59958e-06
4.97799e-05
0.000145958
8.43721e-06
9.99169e-06
7.11381e-05
0.000136331
4.9661e-06
5.71169e-06
3.39697e-05
0.00020596
0.000386082
0.000366418
6.23738e-06
1.48934e-05
6.9655e-05
0.000129905
1.17654e-05
0.000119061
0.000403177
0.000460144
0.000438651
0.000173407
2.33532e-05
6.38535e-06
4.78119e-05
2.86452e-05
0.000102458
0.000471151
0.000491347
0.00048468
0.000201629
8.11448e-06
4.00314e-05
8.26123e-06
1.60658e-06
1.37001e-06
0.000113891
0.000478636
0.000498024
0.00016273
6.52415e-06
3.49556e-05
4.95187e-05
1.25953e-05
7.83349e-07
8.49286e-07
2.16312e-05
0.000229178
0.00019941
3.89269e-06
4.78727e-06
6.52415e-06
3.26771e-05
1.86425e-05
1.01065e-06
8.6193e-07
1.89747e-06
2.16081e-06
2.80268e-06
3.04561e-06
4.5725e-06
1.0628e-05
1
1
1
1
1
1
1
1
0.99997
0.992277
1
1
1
1
1
1
1
0.999999
0.999997
0.992468
1
1
1
1
1
1
1
0.999997
0.999986
0.995632
1
1
1
1
1
1
0.999999
0.999995
0.999994
0.996576
1
1
1
1
1
1
0.999965
0.999702
0.999757
0.990556
0.999996
0.999999
1
1
1
1
0.999966
0.999634
0.999289
0.990116
0.997455
0.99996
0.99996
0.99997
0.99998
0.999978
0.999933
0.999724
0.999335
0.994112
0.518449
0.636532
0.696023
0.72496
0.783537
0.863973
0.927665
0.972703
0.994991
0.994815
3.63289e-06
7.63969e-06
0.014409
0.0287388
0.046265
0.110029
0.208895
0.341864
0.505488
0.65931
3.57005e-06
3.63289e-06
4.34013e-06
1.92529e-06
1.54667e-06
1.3411e-06
1.61825e-06
1.11689e-06
1.49828e-06
2.00197e-06
1.6017e-05
8.84154e-05
0.000199713
8.97637e-05
2.39749e-06
1.55411e-06
1.11689e-06
1.04045e-06
1.09152e-06
1.42448e-06
1.49112e-05
9.05374e-05
0.000304578
0.000235535
8.22883e-06
8.91056e-06
1.43091e-05
1.13905e-06
1.42332e-06
1.76531e-06
1.02664e-06
2.11597e-06
0.000268987
0.000297319
3.73447e-05
1.62845e-05
1.69996e-05
1.5698e-06
3.34397e-06
2.11784e-05
9.45964e-07
1.50613e-06
0.000213056
0.000301501
0.000100003
6.37425e-06
8.20435e-06
5.94867e-06
0.000132752
3.27006e-05
7.2312e-07
1.74595e-06
0.000158668
0.000304185
9.22426e-05
3.62089e-05
0.000208278
0.000252011
0.000245579
2.44328e-05
6.32769e-07
2.96842e-06
7.56989e-05
0.000189765
4.19607e-05
0.000379247
0.000477219
0.000469326
4.33013e-05
2.02224e-05
6.79261e-07
3.52233e-06
2.76532e-05
6.98341e-06
7.06551e-05
0.000474319
0.00048471
0.000275632
2.49164e-05
0.000137576
2.61099e-06
5.71725e-06
1.85286e-06
8.95071e-07
1.85521e-05
0.000217114
0.000359764
4.91745e-06
1.59934e-05
0.000146652
8.57883e-06
1.28512e-05
7.51995e-07
8.4795e-07
5.64441e-06
3.60472e-06
3.65346e-06
4.20108e-06
5.13227e-06
3.51355e-05
9.35654e-06
1.73839e-05
9.58332e-07
8.22507e-07
1.82622e-06
2.671e-06
2.88855e-06
9.39197e-06
6.14533e-06
4.81332e-05
1
1
1
1
1
1
1
1
0.999961
0.991697
1
1
1
1
1
1
1
1
1
0.995526
1
1
1
1
1
1
1
0.999998
0.999999
0.998602
1
1
1
0.999998
1
1
1
0.999997
0.999996
0.996717
1
1
1
0.99998
0.999972
0.999992
0.999994
0.99992
0.999878
0.990804
0.999996
0.999999
1
0.99998
0.999971
0.99999
0.999994
0.999932
0.99978
0.990117
0.998915
0.999951
0.999965
0.999956
0.999942
0.999945
0.999955
0.999903
0.999783
0.992574
0.549018
0.64898
0.695489
0.721053
0.778476
0.858784
0.927518
0.977073
0.997615
0.994749
4.0581e-06
1.06771e-05
0.0139081
0.0229052
0.044439
0.107365
0.209599
0.361007
0.548212
0.720479
3.90797e-06
4.85376e-06
5.28245e-06
2.41162e-06
1.92529e-06
1.84948e-06
1.39122e-06
1.20725e-06
1.39675e-06
0.0102933
2.1498e-05
0.000145132
0.000265426
9.75543e-05
2.05667e-06
1.39119e-06
1.20725e-06
1.11689e-06
1.20662e-06
1.39675e-06
6.72227e-06
0.000207314
0.000304813
0.000119994
8.71685e-06
8.16835e-06
2.55038e-06
1.20719e-06
1.39661e-06
1.66023e-06
9.50123e-07
5.16435e-05
0.000304813
0.000301652
2.03132e-05
7.10777e-06
3.69655e-06
1.55022e-06
3.24577e-06
6.37597e-06
6.79763e-07
4.32427e-05
0.000304813
0.000304601
0.000221071
7.1969e-06
5.9902e-06
3.45304e-06
3.86621e-05
4.03157e-06
6.32769e-07
1.47148e-05
0.000304617
0.000304292
0.000304185
3.70616e-05
0.000233403
0.000207433
3.12723e-05
1.27731e-05
6.16724e-07
4.27384e-06
0.000251533
0.000304185
0.000124157
0.000153701
0.000469326
0.000427552
3.81294e-05
0.000158459
6.17976e-07
1.10731e-06
3.81139e-05
0.000290265
2.71667e-05
0.000111958
0.000477219
0.000160017
3.6991e-05
0.000179901
6.35813e-07
1.05062e-06
4.76003e-06
8.19166e-05
2.65466e-05
2.11144e-05
0.000123549
2.35039e-05
1.20742e-05
0.000170216
7.84493e-07
2.47429e-06
7.38119e-07
7.51995e-07
2.28848e-05
2.03509e-05
4.24695e-06
4.91745e-06
2.47566e-05
5.57637e-05
7.28254e-06
2.88448e-06
7.56608e-07
7.94896e-07
3.609e-05
4.58916e-05
1.21828e-05
2.61495e-05
3.11437e-05
3.55412e-05
1
1
1
1
1
1
1
1
1
1
1
1
1
1
1
1
1
0.999992
0.999993
1
1
1
1
1
1
1
1
0.999983
0.999977
1
1
1
1
0.999999
0.999995
0.999999
0.999999
0.999992
0.999988
0.999995
1
1
1
0.999995
0.999886
0.999927
0.999999
0.999921
0.99993
0.999996
0.999998
1
1
0.999995
0.999962
0.999927
0.999997
0.999923
0.999935
0.999924
0.999868
0.99997
0.999982
0.999978
0.999924
0.999868
0.999934
0.999877
0.999908
0.999896
0.594796
0.672506
0.706182
0.720489
0.768109
0.843193
0.914612
0.969887
0.995746
0.999458
1.06771e-05
0.0012755
0.0198521
0.0239041
0.042818
0.0961948
0.189612
0.333246
0.513749
0.684837
4.31025e-06
1.60501e-05
1.78145e-05
5.25647e-06
2.3634e-06
1.81424e-06
1.53629e-06
1.67482e-06
2.62256e-06
0.0011936
0.000170412
0.000207282
0.000122428
8.22826e-05
4.03166e-06
1.53623e-06
1.39122e-06
1.20725e-06
1.39675e-06
1.66082e-06
0.000316048
0.000308544
0.000101653
9.20497e-05
5.72309e-05
6.05452e-06
1.53617e-06
1.55056e-06
2.15579e-06
1.79086e-06
0.000245309
0.000304087
0.000240759
6.5752e-05
8.01649e-05
2.10476e-05
1.96467e-06
2.31329e-05
8.94969e-05
2.47201e-06
6.11145e-05
0.000285928
0.000304602
0.000140978
6.92776e-05
1.37028e-05
1.00991e-05
0.000140836
0.000177854
6.69861e-05
1.91919e-06
6.82872e-05
0.000304036
0.000304185
0.000201332
6.62323e-05
8.74395e-05
0.000189361
0.000180247
0.000179866
6.17976e-07
6.16073e-07
0.000301615
0.000303221
0.000270706
3.395e-05
0.00015084
0.000129288
0.000151214
0.000179866
6.15829e-07
6.17976e-07
0.000108105
0.000294418
0.000110303
1.57084e-05
8.8771e-05
3.17392e-05
1.0454e-05
0.000161113
6.17976e-07
6.35813e-07
6.81758e-07
5.61403e-05
7.1144e-05
1.19501e-05
8.969e-06
7.51474e-06
8.17208e-06
2.54153e-05
6.35813e-07
6.81758e-07
7.29459e-07
7.40073e-07
5.01579e-05
4.62571e-05
9.64309e-06
6.72122e-06
4.18137e-05
2.37108e-05
3.8783e-06
1.09176e-06
7.39413e-07
7.57107e-07
4.17643e-05
5.76689e-05
4.40431e-05
2.15822e-05
8.41609e-05
2.04344e-05
1
1
1
1
1
1
1
1
1
1
1
1
1
1
1
1
0.999999
0.999982
0.999984
0.999999
1
1
1
1
1
1
0.999995
0.999977
0.999977
0.999993
1
1
1
1
0.999999
1
0.999998
0.999992
0.999988
0.999995
1
1
1
0.999999
0.999985
0.999995
0.999998
0.999993
0.999997
0.999998
1
1
1
1
0.999989
0.999994
0.999996
0.999991
0.999996
0.999997
0.999981
0.999996
0.999999
0.999994
0.999957
0.999931
0.999919
0.999916
0.999947
0.999974
0.661265
0.714761
0.735844
0.736545
0.766352
0.826692
0.892989
0.949414
0.985709
0.998188
1.94464e-05
0.0124202
0.0323308
0.0335061
0.0462513
0.085034
0.158901
0.270884
0.419386
0.567596
2.58105e-05
2.46821e-05
2.26336e-05
1.84211e-05
2.04308e-06
1.80202e-06
1.57308e-06
2.48274e-06
6.54543e-06
2.06365e-06
0.000309291
6.2197e-05
1.87777e-05
7.80786e-06
3.04466e-06
1.57308e-06
1.53629e-06
1.428e-06
1.93339e-06
1.79102e-06
0.000317038
0.000108953
1.68273e-05
7.52694e-05
6.14991e-05
5.48881e-06
1.57302e-06
2.16536e-06
4.25969e-05
2.06331e-06
0.000316048
0.000246796
5.26691e-05
3.62896e-05
8.66871e-05
6.99441e-05
5.03986e-06
7.9084e-05
0.000177854
5.58507e-05
0.000310734
0.000301021
0.000273111
0.000107355
9.25609e-05
4.67897e-05
9.4983e-06
0.000177858
0.000177854
0.000176714
0.000175031
0.000287435
0.000302246
0.000221055
8.64772e-05
7.54278e-05
1.6274e-05
0.000174259
0.000177857
0.000177471
6.17976e-07
5.04171e-05
0.000284887
0.000144479
2.32853e-05
0.000198165
0.00010005
1.49762e-05
0.000111006
0.000151873
6.17976e-07
6.50742e-07
2.95221e-05
3.45166e-05
1.59855e-05
9.33954e-05
9.12599e-05
1.17744e-05
1.05126e-05
1.27673e-05
6.35813e-07
6.81758e-07
6.09985e-06
4.34099e-05
1.36119e-05
4.97898e-06
6.09734e-06
6.77691e-06
7.26182e-06
1.30135e-05
7.40815e-07
7.5888e-07
5.65584e-06
2.82656e-05
1.26607e-05
3.91522e-06
4.97898e-06
6.89084e-06
5.76246e-05
5.08108e-05
8.07274e-07
7.96402e-07
1.06951e-06
1.67941e-06
1.73811e-06
1.4685e-05
4.27864e-05
1.43303e-05
9.92274e-05
1.94212e-05
1
1
1
1
1
1
1
1
1
1
1
1
1
1
1
1
0.999999
0.999999
1
1
1
1
1
1
1
1
0.999999
0.999997
0.999997
0.999999
1
1
1
1
1
1
1
0.999999
0.999997
0.999999
1
1
1
1
1
1
1
0.999999
0.999998
0.999999
1
1
1
1
1
0.999999
0.999999
0.999997
0.999996
0.999998
0.99915
1
1
0.999966
0.999986
0.999959
0.999938
0.99992
0.999929
0.999966
0.745247
0.786793
0.792732
0.769954
0.78309
0.82637
0.876142
0.917801
0.95754
0.984789
0.019835
0.0433352
0.0601564
0.0518688
0.0587121
0.0854242
0.135973
0.202432
0.296904
0.409668
3.62094e-05
2.96359e-05
3.92283e-05
3.85962e-05
1.9491e-06
1.80308e-06
1.65019e-06
2.14537e-06
5.66893e-06
3.13959e-06
0.000207985
4.36489e-05
1.68147e-05
1.23801e-05
8.15784e-06
1.71735e-06
1.57308e-06
1.65028e-06
2.6257e-06
1.86723e-06
0.000316583
4.16209e-05
1.58009e-05
2.00652e-05
2.82848e-05
5.61324e-06
1.65022e-06
6.20385e-06
0.000129297
2.33867e-05
0.00031691
0.000228067
1.93246e-05
1.32175e-05
5.92519e-05
8.38423e-05
1.88086e-05
6.25388e-05
0.000177609
0.000162587
0.000315961
0.000309221
7.11434e-05
4.11858e-05
8.90339e-05
8.81011e-05
1.08108e-05
0.000103861
0.000177858
0.000177609
0.000252863
0.00024364
7.8663e-05
5.6867e-05
8.62596e-05
8.91773e-05
4.52577e-05
8.85592e-05
0.000177609
0.000173034
3.33242e-06
1.27729e-05
6.18057e-05
1.93569e-05
1.87284e-05
0.000244834
0.000281336
0.000262412
4.63736e-05
1.66409e-05
6.70974e-07
4.7178e-06
5.07156e-05
2.12699e-05
8.08076e-06
4.40592e-05
0.000215487
8.30311e-05
1.14085e-05
1.35335e-05
1.01342e-06
1.03498e-05
4.92075e-05
3.41557e-05
5.7089e-06
4.6486e-06
5.0771e-06
6.19545e-06
8.67292e-06
3.48433e-05
8.07274e-07
3.61185e-06
1.24176e-05
1.95666e-05
4.33458e-06
3.37868e-06
3.91522e-06
3.26446e-05
7.71782e-05
0.00010884
8.10829e-07
8.29068e-07
1.25328e-06
2.35477e-06
2.18682e-06
2.82543e-06
5.23963e-05
0.000109188
0.000101941
1.55443e-05
1
1
1
1
1
1
1
1
1
1
1
1
1
1
1
1
1
1
1
1
1
1
1
1
1
1
1
1
0.999997
1
1
1
1
1
1
1
1
0.999996
0.999949
1
1
1
1
1
1
1
1
0.999999
0.999991
0.999866
1
1
1
1
1
1
0.999999
0.999998
0.999988
0.997322
1
1
1
1
0.999999
0.999984
0.999961
0.999938
0.999923
0.999033
0.819742
0.852734
0.848109
0.813406
0.799156
0.821195
0.848864
0.871958
0.909849
0.951765
0.0737815
0.106076
0.113216
0.0881085
0.0784654
0.0871777
0.109512
0.137085
0.188138
0.26535
4.42364e-05
0.00016657
0.000193267
4.55698e-05
1.92627e-06
1.86958e-06
1.7272e-06
1.92867e-06
3.25915e-06
4.13497e-06
0.000105103
1.95744e-05
1.55255e-05
2.3352e-05
1.74454e-05
2.07603e-06
1.65023e-06
2.29974e-06
2.03509e-05
1.87622e-06
0.000149797
1.57915e-05
1.40772e-05
2.30141e-05
4.20193e-05
6.47462e-06
1.72723e-06
6.41401e-06
0.00017303
7.09261e-05
0.000198166
5.79739e-05
1.32175e-05
1.32175e-05
4.0671e-05
3.76133e-05
8.02342e-06
2.10705e-05
0.000176522
0.000174762
0.000125255
7.7924e-05
1.40772e-05
1.32175e-05
2.24805e-05
8.04633e-05
2.97661e-05
6.11714e-06
0.000177609
0.0001756
7.93011e-05
8.06165e-05
3.41675e-05
1.6841e-05
8.2544e-05
7.77841e-05
4.45672e-05
1.64553e-05
6.48254e-05
0.000172504
7.68439e-05
0.000119394
6.28181e-05
6.93025e-06
0.000111258
0.000281336
0.000286187
0.000291637
0.000160058
2.53193e-05
6.20832e-05
0.000122006
0.000153115
8.14777e-05
1.47707e-05
0.000197228
0.000291637
0.000302114
0.000241015
3.00453e-05
0.000109611
0.000154266
0.000154326
0.000150134
1.38544e-05
7.30542e-06
0.000136147
0.000307126
0.000293482
0.000101215
6.33274e-05
0.000124818
0.000158673
8.57703e-05
4.7124e-06
3.91522e-06
2.28983e-05
0.000283574
0.00031332
0.000123389
1.28372e-05
5.9859e-05
6.12056e-05
1.62966e-05
2.82541e-06
3.78317e-06
0.00014316
0.000286037
0.000158686
1.09661e-05
1
1
1
1
1
1
1
1
1
1
1
1
1
1
1
1
1
1
1
1
1
1
1
1
1
1
1
0.999999
0.999999
0.999999
1
1
1
1
1
1
1
0.999991
0.999914
0.999929
1
1
1
1
1
1
1
1
0.999635
0.996596
1
1
1
1
1
0.999999
1
0.999997
0.999635
0.99653
1
1
1
1
1
0.999976
0.999984
0.99996
0.999739
0.998261
0.897145
0.916378
0.898524
0.846175
0.805119
0.799066
0.803685
0.806619
0.829878
0.875696
0.189331
0.221163
0.202257
0.143253
0.107123
0.0902331
0.0819225
0.0790302
0.0930413
0.123386
0.00103945
0.00101322
0.000721714
0.000377609
1.78952e-06
1.92144e-06
1.84565e-06
1.92525e-06
2.43996e-06
2.7042e-06
0.000112739
9.19214e-05
6.62847e-05
5.20557e-05
4.21453e-06
1.84313e-06
1.72722e-06
3.18841e-06
1.22278e-05
1.93895e-06
3.21329e-05
1.9796e-05
1.58009e-05
2.33453e-05
7.25668e-05
9.79349e-06
1.84564e-06
1.1978e-05
0.000159943
6.43325e-05
2.14178e-05
1.66311e-05
1.40772e-05
3.91897e-05
7.25668e-05
1.98818e-05
2.11736e-06
3.95044e-06
0.00017303
0.000171152
1.74242e-05
1.6525e-05
1.56213e-05
4.01617e-05
2.07514e-05
7.79617e-06
3.64182e-06
2.89225e-06
8.63169e-05
0.000173841
1.89388e-05
1.64506e-05
1.35305e-05
9.57858e-06
1.54483e-05
2.8545e-05
2.19003e-05
3.043e-06
3.93293e-06
0.000140604
3.1613e-05
8.72452e-05
9.24158e-05
3.85869e-06
6.76303e-05
9.2483e-05
7.70589e-05
0.000107171
0.00013917
0.000278336
0.000170527
0.000162172
0.000148603
7.19661e-05
5.03732e-05
7.28507e-05
0.000260785
0.000309674
0.000313677
0.000315244
0.000172248
0.000170527
0.000162172
0.000102181
7.23643e-06
3.6056e-06
0.000268398
0.000313677
0.000317147
0.00032193
0.000172106
0.00017224
0.000168678
5.87862e-05
6.43622e-06
5.40828e-06
0.000118359
0.000313321
0.000317862
0.000321916
5.14739e-05
0.000168678
0.000130485
1.44689e-05
5.28397e-06
5.70186e-06
0.000244352
0.000300199
0.000307982
0.000121813
1
1
1
1
1
1
1
1
1
1
1
1
1
1
1
1
1
1
1
1
1
1
1
1
1
1
1
1
0.999996
0.999981
1
1
1
1
1
1
1
1
0.999967
0.999852
1
1
1
1
1
1
1
1
0.999942
0.999601
1
1
1
1
1
1
0.999999
1
0.999989
0.999635
1
1
1
1
1
1
0.999964
0.999994
0.999972
0.999771
0.977136
0.971299
0.938472
0.872855
0.821979
0.796259
0.769968
0.749187
0.735954
0.750309
0.429125
0.40119
0.31344
0.203157
0.138926
0.0993962
0.0669583
0.0444914
0.0335811
0.0279023
0.00840895
0.00479458
0.00184085
0.000903585
0.000268591
1.02208e-06
7.81365e-07
2.37247e-06
2.70507e-06
2.87945e-06
0.00069902
0.000514099
0.000312714
0.000194529
4.47608e-05
3.21936e-06
1.81747e-06
2.51321e-06
2.87866e-06