/*--------------------------------*- C++ -*----------------------------------*\
| =========                 |                                                 |
| \\      /  F ield         | OpenFOAM: The Open Source CFD Toolbox           |
|  \\    /   O peration     | Version:  2312                                  |
|   \\  /    A nd           | Website:  www.openfoam.com                      |
|    \\/     M anipulation  |                                                 |
\*---------------------------------------------------------------------------*/
FoamFile
{
    version     2.0;
    format      ascii;
    arch        "LSB;label=32;scalar=64";
    class       volScalarField;
    location    "0.965";
    object      p_rgh;
}
// * * * * * * * * * * * * * * * * * * * * * * * * * * * * * * * * * * * * * //

dimensions      [1 -1 -2 0 0 0 0];

internalField   nonuniform List<scalar> 
8000
(
405.761
405.431
405.006
404.455
403.812
403.15
402.55
402.07
401.73
401.537
406.352
405.83
405.369
404.784
404.042
403.258
402.556
402.004
401.622
401.417
407.427
406.563
405.964
405.299
404.415
403.429
402.535
401.841
401.395
401.196
409.378
408.243
407.286
406.219
404.978
403.655
402.488
401.603
401.052
400.813
412.781
411.706
409.916
407.987
405.845
403.838
402.21
401.001
400.258
400.172
418.576
417.381
414.259
411.034
407.414
404.377
402.121
400.654
399.929
399.923
427.471
425.645
420.77
415.658
410.228
405.854
402.667
401.097
400.531
397.517
441.234
438.059
428.358
406.23
379.116
353.519
331.852
322.782
332.936
349.521
459.853
433.025
336.667
244.23
142.946
92.9265
78.3343
93.7814
120.197
135.105
415.387
268.962
97.5346
23.4509
3.15384
1.06273
0.403439
0.219879
0.256484
0.297713
99.4059
26.1147
2.15307
1.56863
0.700455
0.173316
0.0792149
0.0944805
0.107408
0.131891
0.365411
0.736143
0.559636
0.450732
0.221003
0.0605235
0.0704841
0.0985975
0.115689
0.151793
0.100719
0.177095
0.150758
0.12274
0.0726804
0.0634592
0.104532
0.107202
0.160576
0.222478
0.0346222
0.122436
0.109376
0.0703976
0.0512215
0.0790668
0.127438
0.156123
0.225932
0.222585
0.0351463
0.0553737
0.0667971
0.0509159
0.0564186
0.0976011
0.136187
0.21704
0.21653
0.225004
0.049422
0.0597559
0.0612742
0.057212
0.0686199
0.113316
0.177507
0.202396
0.157546
0.315666
0.072844
0.0683857
0.0655982
0.0626915
0.0810157
0.130217
0.181411
0.118026
0.275493
0.331604
0.101313
0.0703618
0.0586534
0.05759
0.0818768
0.131923
0.159237
0.0751897
0.28608
0.31955
0.100296
0.062798
0.0466433
0.0519142
0.0861518
0.165318
0.095578
0.0347336
0.22739
0.309425
0.0877236
0.050739
0.0391084
0.050628
0.115956
0.153287
0.0857522
0.0193501
0.0282663
0.016998
405.25
404.911
404.522
404.026
403.465
402.883
402.35
401.924
401.622
401.453
405.622
405.143
404.743
404.237
403.605
402.923
402.298
401.808
401.469
401.287
406.384
405.534
405.201
404.564
403.849
402.988
402.181
401.544
401.11
400.891
408.07
406.812
405.882
405.077
404.126
402.995
401.925
401.097
400.558
400.388
411.307
410.247
408.019
406.16
404.55
402.817
401.293
400.107
399.198
398.918
416.5
414.873
412.157
408.345
405.225
402.39
400.18
398.611
397.504
397.097
423.233
422.623
417.846
411.851
406.516
402.06
398.992
397.298
396.436
396.45
432.074
430.148
422.322
381.451
340.135
311.171
300.377
300.745
303.399
309.971
385.579
349.489
244.261
136.651
73.4984
47.5516
41.2064
40.7436
36.2371
28.4067
132.939
68.0346
14.0534
2.37948
1.26612
0.418756
0.102104
0.0703678
0.113097
0.126555
5.90976
0.638586
0.491399
0.421052
0.259229
0.0895745
0.0711619
0.0925878
0.100192
0.104217
0.117896
0.13387
0.104459
0.0777535
0.0705186
0.0536915
0.0759567
0.0985956
0.113741
0.145706
0.0285453
0.0361071
0.0234517
0.0222593
0.0372394
0.0515901
0.0922502
0.110944
0.126741
0.210791
0.00969512
0.121087
0.209874
0.0778868
0.0357106
0.0579113
0.107451
0.122721
0.208526
0.190616
0.0255872
0.22798
0.265251
0.103236
0.0449587
0.0746283
0.116025
0.191223
0.180555
0.131323
0.0484102
0.111779
0.101721
0.0610404
0.0500166
0.0931864
0.173381
0.173642
0.0666991
0.0295635
0.07952
0.0754851
0.0678821
0.0422398
0.0580942
0.126496
0.164598
0.0833023
-0.00959534
-0.0198202
0.103392
0.0673714
0.0441155
0.0289245
0.0699317
0.156921
0.120666
-0.00748922
-0.030823
-0.0376299
0.100501
0.0503983
0.0241534
0.0260303
0.0776218
0.147081
0.0198347
-0.0205734
-0.0471358
-0.0397621
0.0746905
0.0358205
0.0164279
0.0335216
0.101326
0.0870445
0.0169326
0.0214469
0.00294429
0.037959
404.489
404.201
403.881
403.43
402.954
402.48
402.059
401.732
401.51
401.395
404.763
404.405
404.123
403.602
403.017
402.444
401.944
401.572
401.324
401.207
405.25
404.852
404.506
403.843
403.111
402.354
401.689
401.2
400.875
400.765
406.395
405.695
405.136
404.004
403.103
402.087
401.181
400.555
400.225
400.114
408.572
407.787
406.61
404.549
403.007
401.39
400.059
399.166
398.649
398.503
411.491
410.638
408.893
405.684
402.576
399.685
397.683
396.555
395.912
395.627
415.578
415.442
412.952
407.505
402.316
397.751
394.878
393.75
393.856
394.486
416.853
418.446
402.843
357.257
309.101
274.69
262.898
261.804
266.5
271.434
203.555
203.258
152.423
75.287
33.3555
15.3218
8.55298
6.29625
3.62895
2.48889
8.97924
4.58118
1.21016
0.638349
0.362999
0.124927
0.0546328
0.0613219
0.0606431
0.0671315
0.503042
0.265422
0.173099
0.114968
0.0947887
0.0723096
0.0686337
0.0950569
0.130756
0.0831997
0.0945037
0.0580676
0.0495827
0.0586599
0.0671641
0.0664265
0.073365
0.0984517
0.107676
0.108627
0.0338463
0.0208844
0.0271392
0.0405401
0.0450487
0.0520696
0.0706905
0.0970537
0.095211
0.11748
0.019163
0.0251731
0.0636791
0.0532921
0.0359606
0.0456778
0.0669213
0.0848243
0.101671
0.118353
0.0330324
0.0810498
0.0908287
0.0446589
0.0300605
0.0423044
0.0658082
0.0753227
0.0824022
0.0607306
0.0586212
0.0835732
0.0680637
0.0326272
0.0191014
0.0421696
0.0865106
0.0982852
0.0254106
0.0117624
0.085862
0.07635
0.052156
0.0138588
0.022364
0.090367
0.126018
0.0309502
-0.0231352
-0.0189548
0.0859051
0.0643332
0.0285419
0.0050616
0.0692027
0.115225
0.0494117
-0.0265136
-0.0383543
-0.0422386
0.0719437
0.0481711
0.0143463
0.0136361
0.0812884
0.0791823
-0.0134787
-0.0296681
-0.0438972
-0.0564946
0.0603207
0.0346666
0.0105097
0.0230245
0.040195
0.00492764
-0.0148334
-0.0240737
-0.0449608
-0.0640894
403.522
403.286
403.024
402.699
402.361
402.039
401.768
401.58
401.466
401.418
403.685
403.392
403.137
402.744
402.328
401.933
401.616
401.406
401.287
401.25
403.935
403.56
403.301
402.814
402.245
401.692
401.261
400.992
400.868
400.865
404.374
403.877
403.477
402.816
402.031
401.224
400.607
400.286
400.162
400.2
405.297
404.787
404.108
402.868
401.511
400.165
399.244
398.779
398.607
398.777
405.826
405.754
405.031
402.829
400.249
397.88
396.586
395.929
395.706
396.186
406.972
407.623
406.741
403.17
399.066
395.601
393.925
393.302
392.897
392.224
356.146
378.019
374.414
338.881
297.972
260.71
239.092
233.172
238.633
249.694
81.2799
98.0115
95.2705
50.1827
17.5419
3.42646
0.157742
0.16137
0.183505
0.318675
0.96952
0.598669
0.423095
0.20748
0.0983641
0.0553623
0.0578412
0.0617363
0.0461615
0.0506721
0.187199
0.112695
0.0826658
0.0665788
0.0627921
0.0627673
0.0630214
0.0920084
0.082076
0.0627547
0.0842348
0.0641516
0.0585734
0.0585223
0.0538434
0.0567203
0.0674275
0.0942615
0.0970125
0.0719607
0.0540969
0.0397881
0.0453436
0.0423011
0.0304494
0.0389214
0.06102
0.0847663
0.0883118
0.0609045
0.0423472
0.032439
0.0643845
0.0340914
0.0177173
0.028413
0.0522495
0.0676817
0.0631378
0.0547721
0.0583936
0.0521652
0.0846456
0.0259957
0.00977064
0.0243812
0.0437406
0.0472117
0.0373431
0.0406454
0.0752804
0.0922518
0.0785962
0.01449
0.00249065
0.022996
0.0316318
0.0201755
0.00800882
0.0163173
0.0835712
0.0861644
0.0414318
0.0038477
0.0197411
0.0600314
0.0344791
-0.00349948
-0.0204097
-0.0167564
0.0762034
0.0605537
0.024223
0.00895325
0.0450436
0.0642924
0.00719062
-0.0177733
-0.0393921
-0.0456643
0.0690484
0.0459274
0.0198256
0.0244426
0.0514427
0.0293407
-0.00118979
-0.0183009
-0.0409868
-0.0588609
0.0571349
0.0321807
0.0247758
0.0395525
0.0316117
0.0178273
-0.000223691
-0.0109894
-0.0323713
-0.0577468
402.453
402.305
402.141
401.958
401.783
401.636
401.544
401.514
401.516
401.539
402.455
402.277
402.106
401.887
401.67
401.481
401.381
401.36
401.379
401.421
402.417
402.207
402.029
401.749
401.429
401.127
401.006
401
401.059
401.156
402.244
402.046
401.871
401.501
401.017
400.584
400.317
400.313
400.449
400.671
401.915
401.908
401.724
401.095
400.215
399.354
398.973
399.021
399.291
399.721
400.158
401.014
401.241
400.218
398.621
396.977
396.84
397.152
397.586
398.103
398.461
400.57
401.045
399.337
397.132
395.942
393.839
392.682
393.166
394.236
294.528
339.853
344.683
320.14
287.91
257.722
239.511
245.919
272.812
295.982
31.7371
48.3914
56.6599
39.5466
12.9802
1.57664
0.130205
0.166924
0.263525
10.4605
0.373743
0.184756
0.16148
0.10507
0.0380001
0.0244385
0.0364625
0.0469218
0.0589536
0.0453964
0.117743
0.0806973
0.0661744
0.0597372
0.0522147
0.062635
0.0595006
0.0701994
0.0481116
0.040113
0.0841958
0.0708413
0.0646713
0.0545872
0.0432425
0.0511729
0.0656671
0.0789265
0.0716723
0.0496759
0.063998
0.054103
0.0633966
0.0405579
0.0153899
0.0266963
0.0536756
0.074233
0.0712522
0.052981
0.0571372
0.0646432
0.0864939
0.0248938
-0.00116111
0.0167272
0.045345
0.063553
0.0577648
0.0520109
0.068775
0.100806
0.0873063
0.0240723
-0.00429763
0.0130605
0.0376153
0.0494433
0.040324
0.0407474
0.112094
0.107516
0.0837369
0.014178
-0.0042473
0.0209722
0.0382779
0.0358484
0.01875
0.0127437
0.0949526
0.0748692
0.032137
0.00394433
0.00684759
0.0312209
0.0356155
0.0272786
-0.00351116
-0.017156
0.0672712
0.0514157
0.0257461
0.0130296
0.0256482
0.0426858
0.0377158
0.0239897
-0.012226
-0.0349175
0.0535306
0.0345172
0.0246003
0.0445906
0.0466293
0.0471667
0.0387705
0.0243699
-0.00418897
-0.0310714
0.0322388
0.0109001
0.00881004
0.0519556
0.0644507
0.0336274
0.0264035
0.0166434
-0.0031606
-0.0311413
401.414
401.352
401.304
401.274
401.277
401.32
401.412
401.543
401.664
401.76
401.246
401.174
401.138
401.1
401.105
401.148
401.262
401.43
401.591
401.722
400.882
400.827
400.821
400.796
400.749
400.77
400.92
401.161
401.417
401.632
400.17
400.189
400.294
400.263
400.149
400.1
400.285
400.644
401.053
401.449
398.735
399.13
399.505
399.496
399.182
398.974
399.229
399.789
400.41
401.046
395.36
396.812
397.953
398.072
397.611
397.188
397.592
398.498
399.418
400.24
391.475
394.355
396.09
396.159
395.097
393.728
393.301
394.377
396.211
398.033
242.997
307.676
319.471
304.2
282.702
271.236
279.691
301.8
325.711
345.677
10.0658
19.3613
32.1802
36.7026
18.8071
7.41555
5.35965
15.8865
33.2553
51.6261
0.200145
0.091811
0.0806254
0.0902039
0.0348021
0.0194782
0.0310835
0.042865
0.0376127
0.0331997
0.101919
0.0848578
0.0732836
0.0611448
0.0646122
0.0330125
0.0265454
0.0258543
0.0266001
0.0223809
0.0840796
0.0773939
0.0660464
0.0476903
0.057638
0.0443739
0.04113
0.0430724
0.0343814
0.0206281
0.066342
0.0584305
0.0614598
0.0315354
0.0149465
0.030889
0.0406405
0.0502002
0.0416197
0.0298155
0.0595649
0.0876632
0.0871497
0.0137967
-0.00886175
0.0129185
0.029267
0.0470448
0.0458851
0.0335175
0.0667795
0.0991261
0.0837251
0.0367909
-0.00596938
0.00631214
0.0292741
0.0477598
0.0477046
0.02461
0.104118
0.0947516
0.077534
0.0265828
-0.00585976
0.0102144
0.0415236
0.0624761
0.046238
0.0155015
0.102524
0.0503872
0.0284811
0.00709619
0.00865366
0.0334418
0.0648791
0.0786832
0.0518381
0.0135099
0.0494291
0.035206
0.0211454
0.0135754
0.0262497
0.0509455
0.0671625
0.0731893
0.0506378
0.00975589
0.0256111
0.0126966
0.00666738
0.0182878
0.0520086
0.0672777
0.0680184
0.0602615
0.0415463
0.0169609
0.00234321
-0.0144768
-0.0107932
0.00505481
0.125828
0.178853
0.1039
0.0564464
0.032628
0.0146716
400.524
400.534
400.598
400.717
400.885
401.106
401.371
401.651
401.88
402.047
400.21
400.215
400.323
400.472
400.668
400.923
401.244
401.59
401.888
402.11
399.543
399.609
399.777
399.978
400.207
400.519
400.956
401.437
401.885
402.226
398.425
398.551
398.899
399.189
399.425
399.816
400.461
401.166
401.832
402.376
396.053
396.751
397.611
398.065
398.189
398.658
399.668
400.75
401.743
402.445
391.635
393.589
395.377
396.232
396.23
396.73
398.195
399.9
401.451
402.628
386.649
389.923
392.553
393.197
392.752
393.167
395.139
397.647
400.146
402.233
208.377
277.023
295.878
294.943
291.582
303.241
326.898
349.284
366.186
379.347
1.89244
4.31519
18.3334
30.7586
23.2139
20.3125
35.9059
57.6255
80.2088
103.453
0.122543
0.08587
0.0897095
0.0913679
0.0570344
0.0336176
0.0245783
0.0186637
0.0143703
0.0326716
0.101341
0.108944
0.100585
0.0629584
0.0374993
0.0188734
0.00834509
0.00624464
0.00686751
0.0107147
0.0844877
0.101955
0.112552
0.0753058
0.0252247
0.0262343
0.0294802
0.0218726
0.00772077
-0.00647547
0.0657016
0.0741239
0.0604859
0.0240724
0.00682864
0.0224305
0.0374265
0.0314824
0.0302177
0.00242817
0.0554084
0.0849092
0.0556722
0.0137956
-0.00199184
0.022549
0.027878
0.0345033
0.0493545
0.0229319
0.0516912
0.0908253
0.0795849
0.0450282
0.00133565
0.00533177
0.026368
0.059568
0.0743008
0.0370641
0.0853952
0.0531603
0.0673688
0.0559452
0.0018769
0.0109444
0.04527
0.0907473
0.0982512
0.0575045
0.0800291
0.033858
0.0258848
0.0160558
0.0163123
0.0427664
0.0852925
0.123543
0.123844
0.0816813
0.0601016
0.0130809
0.0131604
0.0129756
0.0416322
0.1134
0.212245
0.256925
0.215437
0.103537
0.00229145
-0.0125263
-0.00506097
0.00204625
0.129579
0.398972
0.39052
0.152118
0.109154
0.0911822
-0.0140782
-0.042411
-0.028589
-0.018257
0.179225
0.366389
0.384636
0.134158
0.0499803
0.111424
399.877
399.935
400.094
400.333
400.64
401.005
401.412
401.818
402.144
402.367
399.455
399.527
399.736
400.028
400.387
400.82
401.317
401.809
402.217
402.519
398.527
398.671
398.995
399.382
399.838
400.412
401.102
401.78
402.369
402.819
397.199
397.316
397.833
398.332
398.873
399.702
400.76
401.754
402.626
403.301
394.368
394.946
396.12
396.742
397.223
398.503
400.238
401.758
403.068
403.947
390.179
391.519
393.539
394.289
394.846
396.764
399.333
401.637
403.593
404.983
382.82
387.551
389.558
390.365
391.311
394.132
397.797
401.123
403.969
406.074
191.224
251.541
281.122
288.727
299.343
325.91
356.673
378.696
391.928
399.593
0.234416
0.227836
11.3199
22.9262
20.6259
32.9695
64.0439
100.933
132.925
158.346
0.132052
0.118974
0.109059
0.0951233
0.0612006
0.0242917
0.00606389
-0.00223867
0.0132025
0.0583714
0.10958
0.150993
0.136368
0.0824093
0.0312966
0.01527
0.0161385
0.00275805
-0.00728285
0.0209037
0.0984831
0.138406
0.129247
0.0582382
0.0210452
0.0266979
0.0362503
0.0241228
0.00244291
0.00336348
0.0681996
0.0677015
0.0573712
0.0903055
0.0108041
0.0264222
0.0443426
0.0400897
0.0458779
0.0278322
0.047681
0.0509618
0.0629411
0.0836287
0.00350961
0.022519
0.0368558
0.0537211
0.0864523
0.0676379
0.0467195
0.0681568
0.060995
0.0661773
0.00924139
0.017447
0.0423419
0.090364
0.137037
0.103748
0.0524195
0.0425669
0.0656851
0.0893348
0.0211504
0.0300179
0.100294
0.223324
0.241247
0.107415
0.0627667
0.0217709
0.0486057
0.0411718
0.0262996
0.139322
0.446481
0.503567
0.509132
0.153849
0.0513761
0.00110533
0.00176276
0.003814
0.0686093
0.423005
0.450042
0.478416
0.476153
0.343626
0.0385861
-0.0215946
-0.017539
-0.013273
0.0911442
0.397239
0.427772
0.357908
0.241822
0.30879
-0.00415358
-0.0415278
-0.0374215
-0.0349387
-0.0207352
0.185604
0.239878
0.038414
0.0553075
0.0772614
399.538
399.619
399.833
400.15
400.549
401.016
401.512
401.997
402.388
402.659
399.062
399.151
399.418
399.802
400.279
400.844
401.458
402.042
402.526
402.865
398.089
398.159
398.544
399.056
399.697
400.484
401.341
402.138
402.823
403.31
396.39
396.51
397.148
397.803
398.697
399.886
401.193
402.362
403.362
404.079
393.328
393.753
394.989
395.795
397.013
398.962
401.051
402.701
404.129
405.275
388.928
390.129
391.926
392.827
394.56
397.696
400.859
403.25
405.362
406.962
380.391
384.868
387.236
388.533
391.255
395.886
400.397
404.013
407.033
409.363
193.554
247.796
276.396
286.008
306.149
340.539
371.586
393.06
405.904
412.416
0.193727
0.211496
7.9261
16.5189
19.2748
42.5862
83.8266
133.748
183.497
223.422
0.140666
0.139072
0.117891
0.0943281
0.0583625
0.0171564
0.00461251
0.0129053
0.0561946
0.139631
0.121176
0.155119
0.147273
0.0923661
0.0274674
0.0184207
0.0232255
0.0123409
0.0191494
0.0710347
0.102745
0.128599
0.144686
0.0842239
0.0238119
0.0319138
0.0496876
0.0391602
0.0344811
0.0600032
0.0570072
0.0499485
0.0856602
0.20123
0.014818
0.0389788
0.0583162
0.0610218
0.0806858
0.0779845
0.0373659
0.0360535
0.0953396
0.205997
0.0150002
0.032848
0.048559
0.0784542
0.152373
0.190096
0.0307636
0.033004
0.0736929
0.110735
0.0180976
0.0309546
0.0733052
0.235515
0.406204
0.350158
0.0222075
0.0283634
0.0688755
0.111963
0.0252364
0.115123
0.352315
0.424197
0.425771
0.194262
0.0300235
0.0107955
0.0440812
0.0283931
0.0877031
0.386609
0.404254
0.414643
0.203346
0.0503463
0.0371672
-0.000921458
-0.00637819
-0.0064564
0.0811466
0.373854
0.377702
0.117377
0.0199658
0.0562378
0.0374959
-0.0106461
-0.0220134
-0.0230684
-0.0167534
0.135598
0.0985356
-0.0319825
0.00592647
0.00731309
0.0113849
-0.0162034
-0.0365147
-0.0391121
-0.0473237
-0.0821662
-0.0884325
-0.0361441
-0.0138927
-0.0269484
399.525
399.608
399.84
400.191
400.632
401.144
401.675
402.183
402.601
402.659
399.047
399.126
399.407
399.835
400.369
401.001
401.666
402.292
402.795
402.713
398.087
398.111
398.494
399.077
399.819
400.71
401.639
402.503
403.193
403.197
396.267
396.334
396.983
397.812
398.918
400.256
401.655
402.922
403.923
404.079
393.121
393.266
394.627
395.757
397.492
399.642
401.801
403.624
405.096
404.325
388.413
389.367
391.135
392.692
395.374
398.839
402.09
404.704
406.852
406.413
379.912
383.67
386.274
388.318
392.15
397.308
402.071
405.938
409.286
410.944
202.835
249.727
274.643
286.41
311.322
347.113
376.516
398.626
412.421
417.819
0.200835
0.230938
6.53442
12.7809
20.4609
48.533
92.1593
150.999
223.861
294.274
0.154728
0.155407
0.130277
0.0946238
0.0572423
0.0174307
0.0138856
0.0452759
0.128849
0.259347
0.119988
0.155547
0.196581
0.102938
0.0206826
0.0193121
0.0290144
0.032527
0.0663833
0.09235
0.0835727
0.119808
0.235531
0.1612
0.0216811
0.0417757
0.059252
0.0540844
0.0747437
0.0876481
0.0478606
0.0424128
0.202825
0.20211
0.0421003
0.0513856
0.0706283
0.0696774
0.095936
0.104575
0.0273194
0.0241721
0.160647
0.216843
0.0907297
0.0457528
0.0599822
0.0755155
0.181662
0.102988
0.0142599
0.0129222
0.120097
0.228106
0.0918413
0.0630147
0.192449
0.235809
0.241913
0.0781078
0.00822851
0.00767646
0.0573103
0.14634
0.0491583
0.310606
0.382913
0.375699
0.0623729
0.057032
0.00526646
0.00265943
0.0161445
0.000153546
0.0528482
0.370122
0.362116
0.190286
0.0186632
0.135438
0.00225332
-0.00271233
-0.0123344
-0.0147556
-0.00652584
0.137124
0.23363
-0.0517787
-0.00125966
0.136397
0.000173911
-0.00533288
-0.0230214
-0.0264622
-0.0269023
-0.0564234
-0.0733216
-0.0482686
-0.0106819
0.0260942
-0.00813097
-0.0101586
-0.0325504
-0.0364829
-0.0352427
-0.0535243
-0.063017
-0.036029
-0.0216227
0.00735484
399.825
399.894
400.103
400.435
400.86
401.354
401.865
402.356
402.742
402.789
399.392
399.451
399.696
400.104
400.623
401.236
401.883
402.487
402.971
403.002
398.533
398.536
398.836
399.397
400.121
400.974
401.906
402.756
403.442
403.726
396.814
396.846
397.361
398.208
399.301
400.613
402.001
403.254
404.284
404.424
393.787
393.857
394.975
396.256
398.009
400.095
402.19
404.03
405.588
404.846
389.198
389.895
391.538
393.452
396.179
399.362
402.491
405.239
407.593
407.051
381.407
384.352
386.832
389.102
392.865
397.787
402.525
406.619
410.243
411.622
214.882
254.602
274.189
284.481
309.472
345.285
376.748
401.015
414.625
419.789
0.229999
0.271003
6.30325
10.2173
19.6627
47.3547
92.4582
159.482
242.934
321.972
0.172577
0.17387
0.134414
0.089939
0.0519053
0.0175399
0.0211847
0.0686254
0.174842
5.16999
0.127891
0.189103
0.220307
0.0929331
0.012955
0.0169159
0.0301864
0.0498547
0.0905303
0.0860401
0.0759086
0.180263
0.220582
0.0826275
0.0203596
0.0454716
0.0566522
0.06312
0.0852751
0.0794137
0.0383897
0.0604406
0.213522
0.195842
0.0381315
0.0541
0.0690076
0.0713442
0.0840695
0.0800359
0.0146753
0.0341226
0.206454
0.211071
0.173769
0.0521553
0.0615555
0.0630519
0.0928552
0.0680653
0.00212482
0.00342287
0.202537
0.214554
0.238989
0.0664113
0.206426
0.181442
0.0594967
0.0572606
-0.00168387
-0.00487543
0.170027
0.215802
0.0978581
0.134285
0.367362
0.311543
0.0209872
0.1402
-0.000953887
-0.00579966
0.0083367
0.214333
0.0103011
0.0731374
0.349303
0.0696198
-0.0100841
0.148622
-0.00123186
-0.00745075
-0.0185756
0.0432453
0.00312808
-0.0154905
0.0498733
-0.0388805
-0.022322
0.149102
-0.00405576
-0.0108349
-0.025666
-0.0317052
-0.00309198
-0.0139047
-0.0415321
-0.0350016
0.00578113
0.0470852
-0.00270478
-0.0161946
-0.0304983
-0.0374817
0.00559201
0.0122749
-0.0242324
-0.0057114
0.00590708
0.00402965
400.4
400.437
400.588
400.853
401.207
401.628
402.066
402.484
402.808
402.999
400.028
400.06
400.241
400.573
401.017
401.545
402.104
402.616
403.022
403.273
399.331
399.281
399.503
399.97
400.598
401.346
402.155
402.884
403.49
403.862
397.935
397.94
398.255
398.938
399.883
401.036
402.264
403.355
404.306
404.921
395.252
395.271
396.055
397.189
398.699
400.514
402.381
404.022
405.429
406.57
391.308
391.646
392.868
394.572
396.986
399.683
402.419
404.863
406.945
408.976
385.233
387.098
389.116
390.923
393.708
397.777
402.017
405.788
409.136
412.603
232.832
264.037
278.522
284.298
305.377
338.887
371.027
397.06
412.226
419.577
0.279828
0.856505
8.92886
10.6458
18.9437
42.4288
83.629
147.219
227.538
305.488
0.197849
0.178652
0.127408
0.0769783
0.0400499
0.0106332
0.0205081
0.0783811
0.170575
0.795819
0.213632
0.211449
0.12618
0.0686931
0.00561229
0.00492621
0.0216042
0.056283
0.094878
0.0860301
0.245275
0.223561
0.083247
0.0551781
0.0380917
0.0380036
0.0528897
0.0641665
0.0812229
0.0663663
0.169996
0.196192
0.157952
0.0389599
0.0627873
0.0636156
0.0706206
0.0814861
0.119409
0.058437
0.0338107
0.169385
0.190775
0.0957273
0.0667392
0.0529579
0.0611309
0.142306
0.159239
0.087599
-0.0136646
0.0205291
0.18252
0.202022
0.158735
0.0756187
0.090153
0.144204
0.12456
0.148998
-0.0128416
-0.0196736
0.190791
0.192598
0.194923
0.0327999
0.113485
0.0664796
0.0616648
0.125439
-0.00497913
-0.00943821
0.0541664
0.197676
0.0609472
-0.00499655
0.0403672
-0.0246613
-0.0465805
0.111449
0.00155577
-0.00264122
-0.0249133
0.00773815
0.0307281
-0.0168673
-0.027441
-0.0301486
-0.0189277
0.0181767
0.00405299
-0.00146324
-0.0215982
-0.0379491
0.0121911
0.0113817
-0.0213337
-0.015136
0.0303744
0.0211568
0.00613843
-0.00377505
-0.0227056
-0.0390992
0.00186731
0.0198192
0.011258
0.000361744
0.0668887
0.00114966
401.209
401.204
401.267
401.418
401.648
401.938
402.252
402.544
402.741
402.828
400.953
400.928
401.008
401.207
401.508
401.884
402.293
402.666
402.936
403.081
400.432
400.339
400.463
400.753
401.19
401.739
402.348
402.909
403.361
403.606
399.511
399.481
399.554
399.975
400.624
401.471
402.423
403.323
404.066
404.521
397.424
397.431
397.844
398.57
399.633
400.966
402.418
403.822
404.944
405.861
394.244
394.319
394.923
396.232
398.084
400.101
402.219
404.222
405.863
407.585
390.918
391.829
393.154
394.122
395.387
398.041
401.364
404.425
406.977
409.769
258.944
281.314
291.084
291.716
305.244
332.327
361.868
387.393
405.056
414.155
0.377227
5.65432
14.4109
14.8623
20.4338
37.5233
70.0901
119.622
185.468
251.545
0.227809
0.16662
0.110931
0.0578586
0.0251357
0.00161052
0.00970783
0.0743612
0.145223
0.176692
0.288798
0.119681
0.0601634
0.0246063
0.000964722
-0.0114963
-0.00196462
0.0486372
0.089375
0.0793076
0.234958
0.0946435
0.0269654
0.040685
0.0276825
0.0157693
0.030769
0.0530464
0.0940406
0.0596215
0.196005
0.146375
0.0323879
0.013011
0.0411417
0.0652212
0.0556905
0.103332
0.156655
0.0794579
0.175418
0.162357
0.154288
0.0596817
0.0611211
0.0506554
0.0432553
0.148171
0.132055
0.141047
0.0838795
0.15902
0.166253
0.127385
0.0571261
0.0589508
0.0174399
0.115076
0.095407
0.117763
-0.0281545
0.00670489
0.167185
0.0546722
-0.0177579
0.133142
0.059835
-0.0191745
0.0293758
0.0799105
-0.00793171
-0.00829927
-0.0118631
-0.0312857
-0.0423662
0.0297513
0.0347227
-0.0295277
-0.0347506
-0.0176995
0.00847485
0.0106454
-0.00982212
-0.011259
-0.0442086
-0.04712
-0.0412276
-0.0304664
-0.0172139
0.00126965
0.0174848
0.0190993
0.0019226
-0.0110301
-0.0393054
-0.0470109
-0.0382979
-0.0197386
0.0436385
0.0421894
0.0198773
0.0184813
1.85668e-05
-0.0299441
-0.0472504
-0.0354611
0.00574206
-0.000524268
0.0925707
0.0113794
402.207
402.143
402.091
402.087
402.139
402.242
402.37
402.488
402.537
402.528
402.088
402.002
401.945
401.957
402.049
402.204
402.394
402.571
402.679
402.701
401.841
401.719
401.657
401.689
401.845
402.101
402.418
402.732
402.975
403.066
401.425
401.277
401.166
401.234
401.472
401.882
402.414
402.983
403.411
403.658
400.228
400.137
400.169
400.348
400.731
401.404
402.267
403.228
403.901
404.431
397.43
397.825
398.188
398.629
399.43
400.532
401.831
403.212
404.224
405.321
395.829
396.256
396.814
397.399
397.632
398.63
400.675
402.752
404.348
406.161
294.603
313.257
316.457
307.338
313.426
332.615
354.719
373.334
390.735
403.665
8.87055
19.2874
26.6976
22.943
25.8747
37.7101
59.9987
89.3958
131.162
181.132
0.203027
0.15795
0.0937514
0.0414871
0.0174151
-0.00254344
-0.00489837
0.0597054
0.111137
0.109796
0.22024
0.0916227
0.0409756
0.0176732
-0.000516788
-0.027629
-0.0307592
0.0244176
0.074996
0.0677679
0.208225
0.0314196
0.00692329
-0.00306036
-0.00754898
-0.0165822
-0.010922
0.0232139
0.12686
0.0625669
0.150928
0.0939723
-0.0240936
-0.0264269
-0.00420757
0.0304799
0.0212144
0.061222
0.135261
0.131403
0.119629
0.111658
-0.0303624
-0.0310945
0.0153567
0.031558
0.00652464
0.0679311
0.110451
0.126719
0.0848167
0.0676641
-0.0502861
-0.0511268
0.00046622
0.0237979
0.00117289
0.0271958
0.0846297
0.101392
-0.0647609
-0.0689381
-0.0545581
-0.103297
-0.0924115
0.108938
0.155223
0.145814
-0.0183019
-0.0250481
-0.0222524
-0.0277731
-0.025251
-0.0919396
-0.118015
-0.0789715
0.0862237
0.00133396
-0.0408286
-0.0260886
0.0122907
0.0205858
0.0211838
-0.0455959
-0.103061
-0.103857
-0.0844242
-0.0564484
-0.0321577
0.000692862
0.0295446
0.0414104
0.0257212
-0.0181219
-0.0713686
-0.0818994
-0.0657932
-0.0118166
0.0513246
0.083416
0.0352247
0.0470957
0.0304038
-0.0109027
-0.0469838
-0.0529556
0.0153782
0.0969112
0.101448
0.0114285
403.313
403.174
402.99
402.808
402.651
402.528
402.431
402.348
402.244
402.129
403.356
403.185
402.974
402.77
402.607
402.496
402.419
402.358
402.273
402.169
403.441
403.227
402.963
402.705
402.517
402.415
402.376
402.367
402.332
402.262
403.558
403.286
402.925
402.582
402.347
402.236
402.246
402.336
402.343
402.371
403.316
403.071
402.661
402.209
401.88
401.77
401.878
402.141
402.237
402.394
402.145
402.069
401.756
401.253
400.87
400.85
401.057
401.505
401.836
401.749
402.356
402.091
401.532
400.52
399.818
399.092
399.427
400.21
400.985
401.898
331.328
345.389
343.13
328.287
322.54
331.504
343.263
353.241
368.735
386.027
32.8328
46.9982
50.1366
38.9473
34.5815
38.4964
48.3562
60.5662
83.0831
117.192
0.210411
0.195077
0.132921
0.0341127
0.0218003
0.00379597
-0.00174399
0.0545041
0.0912137
0.0764558
0.131677
0.044714
0.0124838
0.00800103
-0.00293985
-0.0391312
-0.0535159
0.00146742
0.0736257
0.0641533
0.0688854
-0.0239341
-0.0264454
-0.0211987
-0.0173983
-0.0506551
-0.0672569
-0.0283123
0.133814
0.0845281
0.0247114
-0.063188
-0.0707056
-0.0541266
-0.0321271
-0.0346108
-0.0464035
-0.0213603
0.106113
0.125927
-0.0632711
-0.0923126
-0.110708
-0.083521
-0.0553973
-0.0115512
-0.0306764
-0.0384593
0.082201
0.108506
-0.0883446
-0.091235
-0.116682
-0.118755
-0.0431586
-0.0233745
-0.0352318
-0.0519181
-0.0137132
0.0872448
-0.0379342
-0.0231594
-0.0835394
-0.155666
-0.0831771
0.0775258
0.107936
0.128675
0.0464053
-0.0320324
0.0216812
0.0421252
0.0299844
-0.0870408
-0.181851
-0.0369656
0.0717342
0.124486
0.111143
-0.0351608
0.117618
0.136001
0.0934586
0.0237101
-0.150031
-0.175158
-0.0461189
0.145769
0.173395
0.0271342
0.100152
0.155613
0.157597
0.0311795
-0.0969497
-0.119824
-0.0912676
0.178968
0.235623
0.0681437
0.0574293
0.115508
0.101349
0.0137358
-0.0413062
-0.0529879
0.0948709
0.25513
0.13796
-0.0108631
404.425
404.197
403.877
403.513
403.145
402.791
402.461
402.17
401.906
401.684
404.637
404.356
403.99
403.566
403.147
402.757
402.406
402.1
401.819
401.583
405.039
404.685
404.23
403.685
403.159
402.685
402.277
401.93
401.615
401.369
405.699
405.23
404.598
403.857
403.153
402.529
402.006
401.592
401.199
400.984
406.5
405.918
405.012
403.937
402.942
402.058
401.391
400.909
400.411
399.677
407.124
406.48
405.319
403.754
402.344
401.065
400.137
399.54
399.115
398.426
409.673
408.524
406.503
403.61
401.199
399.355
397.85
397.174
397.007
397.06
371.647
378.049
368.704
345.356
327.661
324.358
325.105
325.552
334.099
351.619
84.0135
97.9558
89.5289
63.3866
47.4075
39.8795
36.25
35.0216
41.1505
54.4501
0.704518
0.581342
0.377667
0.234142
0.0516567
0.0202414
0.0289376
0.0775614
0.0984079
0.0801229
0.0773525
0.0323332
0.0148817
0.020918
-0.00599672
-0.0366556
-0.0444748
0.0158775
0.0783731
0.0722518
-0.04309
-0.0610273
-0.0511913
-0.035103
-0.00908089
-0.075032
-0.109968
-0.0581279
0.118818
0.0878219
-0.107635
-0.111728
-0.0924053
-0.0569245
-0.0327404
-0.0916495
-0.126144
-0.102378
0.0736953
0.119797
-0.143866
-0.142406
-0.120485
-0.0793695
-0.0719781
-0.0925767
-0.10715
-0.0983771
-0.0127399
0.0911411
-0.132319
-0.140492
-0.129571
-0.120522
-0.0870032
-0.0690522
-0.0758199
-0.0878432
-0.0767399
0.0492576
-0.0655138
-0.0556196
-0.0518451
-0.140301
-0.0827248
-0.0554978
-0.0565673
-0.0238605
0.0136426
0.1438
0.132342
0.0698162
0.0287803
-0.0783296
-0.122851
-0.116149
0.0473975
0.108499
0.137078
0.165803
0.209474
0.155872
0.094804
-0.0127676
-0.142058
-0.173096
0.0503403
0.108049
0.142147
0.174407
0.231743
0.206489
0.158226
0.00351897
-0.0927119
-0.123585
-0.029283
0.159665
0.184311
0.20186
0.104197
0.219736
0.162461
0.0112052
-0.0342317
-0.0517305
0.176489
0.233458
0.237398
0.0524908
405.436
405.117
404.681
404.154
403.596
403.032
402.489
402.007
401.598
401.283
405.783
405.38
404.902
404.287
403.641
402.998
402.392
401.862
401.414
401.072
406.405
405.896
405.344
404.56
403.735
402.932
402.184
401.536
401.003
400.612
407.506
406.807
405.995
404.938
403.847
402.777