/*--------------------------------*- C++ -*----------------------------------*\
| =========                 |                                                 |
| \\      /  F ield         | OpenFOAM: The Open Source CFD Toolbox           |
|  \\    /   O peration     | Version:  2312                                  |
|   \\  /    A nd           | Website:  www.openfoam.com                      |
|    \\/     M anipulation  |                                                 |
\*---------------------------------------------------------------------------*/
FoamFile
{
    version     2.0;
    format      ascii;
    arch        "LSB;label=32;scalar=64";
    class       surfaceScalarField;
    location    "0.3";
    object      alphaPhi0.water;
}
// * * * * * * * * * * * * * * * * * * * * * * * * * * * * * * * * * * * * * //

dimensions      [0 3 -1 0 0 0 0];

oriented        oriented;

internalField   nonuniform List<scalar> 
22600
(
1.32451e-07
-2.65116e-07
1.32664e-07
2.6861e-07
-2.84898e-07
1.48739e-07
3.68599e-07
-2.50452e-07
1.50464e-07
4.2864e-07
-2.17685e-07
1.57644e-07
4.46027e-07
-1.82772e-07
1.65385e-07
4.20321e-07
-1.44961e-07
1.70667e-07
3.5481e-07
-1.06279e-07
1.7179e-07
2.57363e-07
-7.06323e-08
1.6808e-07
1.37588e-07
-4.21426e-08
1.61918e-07
-2.67414e-08
1.54355e-07
1.31436e-07
-5.28086e-07
1.31534e-07
2.61882e-07
-5.59944e-07
1.446e-07
3.56018e-07
-4.91556e-07
1.46968e-07
4.1008e-07
-4.26389e-07
1.54643e-07
4.22595e-07
-3.57169e-07
1.6188e-07
3.94534e-07
-2.83066e-07
1.66167e-07
3.30538e-07
-2.0835e-07
1.66067e-07
2.38945e-07
-1.39783e-07
1.60744e-07
1.28364e-07
-8.44317e-08
1.5287e-07
-5.41942e-08
1.44191e-07
1.63684e-07
-8.5583e-07
1.6406e-07
3.155e-07
-8.91548e-07
1.79788e-07
4.25059e-07
-7.86491e-07
1.85376e-07
4.88494e-07
-6.87361e-07
1.97537e-07
5.04058e-07
-5.8262e-07
2.09887e-07
4.72497e-07
-4.70855e-07
2.1935e-07
3.98132e-07
-3.57876e-07
2.23891e-07
2.89293e-07
-2.52526e-07
2.21582e-07
1.5601e-07
-1.66859e-07
2.15711e-07
-1.19843e-07
2.10457e-07
2.01467e-07
-1.25936e-06
2.02064e-07
3.76729e-07
-1.28618e-06
2.19369e-07
5.00771e-07
-1.14154e-06
2.31007e-07
5.72117e-07
-1.01142e-06
2.52715e-07
5.89307e-07
-8.7578e-07
2.7597e-07
5.53878e-07
-7.33185e-07
2.97759e-07
4.6976e-07
-5.91741e-07
3.17983e-07
3.43862e-07
-4.61316e-07
3.34688e-07
1.87386e-07
-3.58427e-07
3.48044e-07
-2.98478e-07
3.54389e-07
2.59324e-07
-1.77888e-06
2.60193e-07
4.76651e-07
-1.78253e-06
2.79027e-07
6.21074e-07
-1.58814e-06
3.0218e-07
7.01894e-07
-1.44074e-06
3.48501e-07
7.15323e-07
-1.29445e-06
4.05241e-07
6.62762e-07
-1.15125e-06
4.70625e-07
5.51668e-07
-1.02697e-06
5.46326e-07
3.98061e-07
-9.30639e-07
6.2293e-07
2.18534e-07
-8.67828e-07
6.88927e-07
-8.10407e-07
7.20185e-07
4.03355e-07
-2.58732e-06
4.05101e-07
6.7552e-07
-2.46085e-06
4.06156e-07
8.07449e-07
-2.16138e-06
4.41323e-07
8.3846e-07
-2.01378e-06
5.42044e-07
7.52666e-07
-1.88545e-06
6.76804e-07
5.74943e-07
-1.80002e-06
8.26529e-07
3.72558e-07
-1.77689e-06
9.52353e-07
2.14567e-07
-1.80345e-06
1.03084e-06
1.07609e-07
-1.83744e-06
1.07657e-06
-1.79868e-06
1.12003e-06
6.26518e-07
-3.84303e-06
6.29527e-07
8.04234e-07
-3.22274e-06
5.84464e-07
7.51854e-07
-2.74655e-06
6.3803e-07
5.83758e-07
-2.67384e-06
8.28949e-07
3.07282e-07
-2.68048e-06
1.07225e-06
2.30271e-09
-2.42226e-06
1.20688e-06
-1.39562e-07
-2.09778e-06
1.12126e-06
-1.21818e-07
-1.80123e-06
9.60125e-07
-5.19619e-08
-1.53549e-06
8.18413e-07
-1.346e-06
7.98394e-07
5.59704e-07
-4.79124e-06
5.60724e-07
4.13421e-07
-3.40453e-06
5.85213e-07
1.81369e-07
-2.30904e-06
6.62427e-07
1.18692e-07
-1.52733e-06
7.14224e-07
1.74923e-07
-7.96751e-07
5.29467e-07
2.17429e-07
-4.14763e-08
2.03344e-07
2.40603e-07
-2.38248e-09
8.50092e-08
2.09847e-07
-1.47606e-10
2.33358e-08
1.32593e-07
-1.43624e-11
3.41788e-08
-1.30156e-11
2.7567e-08
-3.36713e-08
-4.00011e-06
-3.13453e-08
6.92319e-08
-1.42311e-06
1.7678e-07
1.04558e-07
-1.602e-07
9.92688e-08
5.38846e-08
-4.59168e-09
-1.22123e-08
4.37783e-08
-4.66205e-12
-2.40469e-09
2.50046e-09
-4.05911e-11
-1.42106e-10
1.47638e-10
-1.53822e-11
-1.45314e-11
1.08293e-11
-4.37778e-12
-1.06946e-11
2.19463e-12
-2.34969e-12
-1.06902e-11
-1.23856e-12
-1.45414e-11
-8.30462e-08
-2.58431e-06
-8.40974e-08
1.64734e-07
-1.98368e-07
-1.867e-09
4.57672e-09
-5.56055e-12
-3.79731e-11
-1.8914e-13
-9.7081e-12
-2.85195e-12
3.10689e-15
7.13528e-13
-6.33788e-12
1.23186e-12
1.93827e-12
-2.21018e-11
1.91888e-12
5.88277e-12
-2.38913e-11
1.71872e-12
8.31545e-12
-2.27241e-11
4.68738e-13
4.88951e-12
-3.21994e-11
1.45061e-12
-4.5287e-12
1.23986e-07
-4.38483e-07
4.5168e-07
-3.95475e-12
-1.76845e-08
-2.03768e-12
-6.37762e-12
1.23951e-12
-6.18428e-12
-4.48733e-12
6.26303e-12
-2.05556e-11
-3.1981e-12
9.90597e-12
-1.41037e-11
-2.32577e-12
1.58436e-11
-1.86673e-11
-9.12729e-14
2.18721e-11
-2.32911e-11
1.43717e-13
6.21755e-12
-4.40753e-12
-2.43978e-13
4.51732e-12
-2.15482e-11
2.82767e-12
-1.38953e-11
-3.11745e-09
-6.23043e-09
-3.32025e-10
-2.29496e-12
2.06414e-09
-6.20684e-12
-4.51413e-12
6.75877e-12
-7.60086e-12
-2.95483e-12
1.16777e-11
-1.05959e-11
-1.42463e-12
9.97782e-12
-5.62423e-12
-2.94371e-13
1.75693e-11
-5.89367e-12
4.89419e-13
2.84474e-11
-1.01109e-11
3.72333e-13
4.10218e-12
-2.29488e-13
-1.85094e-13
1.86416e-12
8.85189e-13
1.56943e-12
-3.52857e-13
-4.51669e-09
-9.23941e-13
-2.02536e-09
-1.57947e-09
-1.30977e-09
-2.76162e-09
-1.16084e-09
1.59854e-09
-5.40665e-10
-4.58492e-10
1.72358e-09
-7.30601e-10
-1.59096e-10
1.56692e-09
-3.63139e-10
6.23668e-12
1.02798e-09
-1.123e-10
7.84311e-12
3.2951e-10
2.81635e-12
9.98417e-13
5.31767e-12
5.0307e-12
-4.269e-13
1.60331e-12
6.94931e-13
9.67361e-12
-1.99271e-12
-1.98154e-10
6.03871e-11
-6.7064e-11
-1.35517e-09
-1.76373e-10
-9.49574e-10
-1.0713e-09
2.48999e-09
-7.0175e-10
-7.57055e-10
2.0123e-09
-8.31298e-11
-2.11369e-10
1.32074e-09
2.9151e-10
3.42688e-12
4.49533e-10
1.60435e-10
-6.15033e-12
1.7496e-10
8.63316e-11
1.63515e-12
2.73223e-11
8.9335e-12
-3.64416e-12
3.20671e-12
3.07739e-12
3.10219e-11
-2.30528e-12
4.40947e-12
4.47959e-11
-9.73408e-12
-6.73522e-10
3.49547e-10
-3.83814e-10
-7.9453e-10
5.49898e-10
1.36269e-10
-3.67179e-10
5.76881e-11
3.73581e-10
-8.20416e-11
3.36314e-12
1.85417e-10
-8.26307e-12
2.86555e-13
7.364e-11
1.93042e-12
-3.82889e-13
3.40013e-11
-1.7095e-12
1.05714e-11
1.05431e-11
-1.69826e-12
1.45824e-11
5.51663e-12
1.25582e-11
5.81762e-12
-5.02628e-11
3.71768e-11
2.47599e-12
-5.83181e-11
2.09868e-10
4.40524e-11
-1.39642e-11
-3.13957e-11
6.93448e-11
-1.39797e-12
-1.89708e-12
2.47716e-11
-1.15515e-13
-3.17311e-13
2.44147e-12
-5.71701e-14
-5.96892e-15
2.3498e-13
-6.9417e-13
-7.16127e-18
2.54106e-13
-3.4644e-13
-2.75686e-14
5.23797e-12
2.70001e-13
2.70609e-12
4.42374e-12
6.6136e-13
5.54228e-12
3.56089e-12
5.83066e-12
1.34129e-11
2.82141e-11
4.41756e-11
3.62972e-11
1.15367e-12
1.29274e-12
2.48023e-11
2.73038e-13
-1.3541e-12
6.70135e-13
5.1988e-15
-5.58779e-14
7.20232e-15
1.7276e-17
-8.53113e-16
5.09438e-17
-3.59818e-18
-5.67864e-18
2.64802e-18
-2.79976e-14
-2.28489e-18
4.27668e-16
4.36718e-15
-4.82675e-20
2.88912e-13
-3.21519e-20
2.56668e-13
1.13114e-12
1.08375e-13
4.50898e-12
1.65645e-11
1.12869e-12
1.02813e-11
5.76859e-12
-2.71798e-13
6.36415e-12
5.91883e-14
-8.2774e-14
3.61176e-13
9.17916e-16
-9.26283e-16
2.90811e-15
8.61612e-18
-7.36197e-18
5.53571e-17
2.19534e-18
-2.50616e-19
9.64674e-19
9.60762e-21
-1.29242e-19
2.64636e-20
1.08635e-21
-6.00559e-20
1.61568e-20
-5.4686e-20
1.89422e-20
3.91741e-14
9.28384e-16
6.50898e-14
6.48533e-13
1.67966e-14
4.25011e-13
8.04074e-14
-6.64306e-15
8.06308e-14
9.14958e-16
-4.84188e-16
-1.14157e-15
7.69483e-18
-1.29357e-17
-1.05842e-17
9.78432e-20
-9.0979e-20
3.19841e-19
6.74288e-20
-4.6436e-20
2.55992e-20
3.77188e-20
-7.51876e-20
2.96194e-20
7.26015e-21
-3.90671e-20
1.18656e-20
-6.73948e-20
1.57604e-20
3.006e-16
5.74833e-16
3.23673e-18
1.07493e-14
5.0007e-15
1.0764e-16
6.20994e-16
1.61953e-16
-1.81264e-17
1.29908e-17
9.5352e-19
-4.21677e-19
3.28989e-20
3.91332e-20
-7.57275e-21
1.93192e-20
4.177e-21
-2.01166e-21
1.33379e-20
3.6576e-21
-3.19567e-21
1.64225e-20
8.35792e-21
-6.16735e-21
7.21508e-21
7.73705e-21
-1.18278e-20
1.64552e-20
-6.07772e-20
1.48525e-07
-2.84799e-07
2.68937e-07
3.07227e-07
-3.17527e-07
3.07564e-07
4.2861e-07
-2.8532e-07
3.14401e-07
5.09274e-07
-2.59551e-07
3.36531e-07
5.44643e-07
-2.36243e-07
3.66258e-07
5.30146e-07
-2.12801e-07
3.97965e-07
4.63893e-07
-1.89821e-07
4.27864e-07
3.48519e-07
-1.68196e-07
4.51651e-07
1.90702e-07
-1.49032e-07
4.68766e-07
-1.42885e-07
4.76285e-07
1.44504e-07
-5.59676e-07
2.61908e-07
2.93406e-07
-6.15226e-07
2.93398e-07
4.04608e-07
-5.51905e-07
3.02351e-07
4.74441e-07
-5.00676e-07
3.25936e-07
5.00194e-07
-4.55099e-07
3.54983e-07
4.80295e-07
-4.11629e-07
3.84894e-07
4.15883e-07
-3.72115e-07
4.12773e-07
3.10772e-07
-3.36896e-07
4.34555e-07
1.69234e-07
-3.09347e-07
4.54723e-07
-3.08823e-07
4.65746e-07
1.79406e-07
-8.90999e-07
3.15978e-07
3.51852e-07
-9.6017e-07
3.52286e-07
4.80881e-07
-8.64696e-07
3.69138e-07
5.61984e-07
-7.88621e-07
4.04378e-07
5.91851e-07
-7.21671e-07
4.46593e-07
5.6886e-07
-6.58472e-07
4.89184e-07
4.93448e-07
-5.99408e-07
5.26596e-07
3.66859e-07
-5.44764e-07
5.56039e-07
1.95795e-07
-5.05016e-07
5.82445e-07
-5.08193e-07
5.92411e-07
2.1878e-07
-1.28521e-06
3.77497e-07
4.17053e-07
-1.35681e-06
4.17736e-07
5.6197e-07
-1.23058e-06
4.51976e-07
6.50515e-07
-1.13551e-06
5.11061e-07
6.79936e-07
-1.05331e-06
5.78187e-07
6.5159e-07
-9.77507e-07
6.4514e-07
5.65351e-07
-9.01284e-07
7.06098e-07
4.19591e-07
-8.24406e-07
7.6009e-07
2.2306e-07
-7.68144e-07
8.07703e-07
-7.67697e-07
8.24323e-07
2.78087e-07
-1.78096e-06
4.7785e-07
5.26563e-07
-1.85421e-06
5.27948e-07
6.99222e-07
-1.69295e-06
5.91889e-07
8.00788e-07
-1.58444e-06
6.95866e-07
8.32289e-07
-1.49286e-06
8.13288e-07
8.02421e-07
-1.41015e-06
9.33133e-07
7.03492e-07
-1.30462e-06
1.04859e-06
5.27782e-07
-1.17925e-06
1.15348e-06
2.82289e-07
-1.07413e-06
1.2404e-06
-1.03946e-06
1.26745e-06
4.04063e-07
-2.45684e-06
6.76928e-07
7.28248e-07
-2.5002e-06
7.27967e-07
9.28463e-07
-2.24799e-06
7.96156e-07
1.04323e-06
-2.11215e-06
9.55e-07
1.06278e-06
-1.98421e-06
1.14862e-06
9.99176e-07
-1.86963e-06
1.34966e-06
8.43781e-07
-1.69364e-06
1.49682e-06
6.17603e-07
-1.50046e-06
1.57824e-06
3.24119e-07
-1.32036e-06
1.61622e-06
-1.21422e-06
1.63694e-06
5.86402e-07
-3.21029e-06
7.96868e-07
9.11907e-07
-3.11893e-06
8.78022e-07
1.06375e-06
-2.71164e-06
9.5035e-07
1.1517e-06
-2.57703e-06
1.20667e-06
1.0895e-06
-2.37248e-06
1.52351e-06
8.73401e-07
-1.92797e-06
1.75838e-06
6.37341e-07
-1.48492e-06
1.71092e-06
4.60889e-07
-1.13763e-06
1.53736e-06
2.72176e-07
-8.46289e-07
1.35954e-06
-6.47465e-07
1.29646e-06
6.1648e-07
-3.3961e-06
3.88504e-07
8.69063e-07
-3.26499e-06
7.65268e-07
8.35883e-07
-2.28187e-06
1.08311e-06
5.76202e-07
-1.30903e-06
1.27584e-06
2.85334e-07
-1.174e-07
1.0786e-06
1.49919e-07
-3.36449e-09
6.61746e-07
1.01257e-07
-2.10506e-10
4.28248e-07
7.37795e-08
-3.52287e-10
2.74954e-07
5.58398e-08
-9.2069e-10
1.99713e-07
-1.79807e-09
1.60587e-07
1.71483e-07
-1.44958e-06
1.07584e-07
3.92567e-07
-1.12522e-06
4.78571e-07
1.47236e-07
-1.88144e-08
4.48381e-07
5.71011e-08
-2.78612e-11
1.36514e-07
-9.82316e-12
-1.06676e-10
-6.25684e-08
8.07891e-12
-4.50654e-11
-3.51136e-09
-3.43134e-12
-1.98739e-13
-2.38963e-10
-1.4677e-11
-1.45561e-11
-2.78368e-10
-1.46707e-11
-4.91629e-11
-8.86499e-10
-2.98063e-11
-1.82564e-09
-3.75955e-08
-2.38331e-07
2.10537e-07
1.88084e-08
-4.17905e-11
7.03701e-08
-5.41417e-12
-6.33821e-11
2.72879e-11
-1.53878e-11
-3.48933e-13
-1.40295e-11
-4.16008e-11
-7.51335e-14
-6.8454e-11
-7.92171e-11
6.56768e-12
-9.31944e-11
-1.09719e-10
5.03129e-11
-5.02888e-11
-1.49702e-10
4.44113e-11
-2.72901e-10
-5.29465e-11
2.33274e-11
-1.64954e-10
-5.45542e-12
-2.87717e-11
-5.42804e-12
-3.19521e-08
3.91839e-09
-3.23099e-11
-4.1152e-12
-1.43438e-11
-5.20612e-11
1.08264e-11
-6.1851e-11
-3.81714e-11
2.51935e-11
-6.16471e-11
-4.99957e-11
1.88388e-11
-2.22984e-11
-1.6811e-10
5.81399e-11
-2.17275e-11
-2.15185e-10
1.3807e-10
-7.26488e-10
-2.32642e-10
9.97161e-11
-3.56591e-10
-1.5966e-10
3.44162e-11
-1.76009e-10
-2.38941e-12
-9.34177e-11
-1.21546e-11
-6.42375e-11
2.6246e-09
-2.10574e-11
8.20233e-12
-1.62224e-11
-1.67431e-11
8.20882e-11
-8.49744e-11
-8.58339e-12
1.05464e-10
-1.0172e-10
-1.06172e-11
4.30509e-11
-3.13865e-11
-2.21221e-11
9.56214e-11
-3.57977e-11
-3.83712e-11
5.87809e-11
-8.33462e-12
-2.6316e-11
1.12637e-11
-6.14968e-14
-5.70592e-12
3.23415e-12
1.30082e-12
-1.53578e-12
-4.3238e-13
-2.3887e-09
-1.30657e-09
-5.79573e-10
-2.30877e-09
1.67083e-09
-2.00199e-09
-1.38647e-09
1.10015e-09
-1.10713e-09
-1.16615e-09
9.73324e-10
-6.20538e-10
-1.06338e-09
2.5584e-10
-9.18624e-11
-6.10037e-10
3.39982e-11
-1.42568e-11
-9.70312e-11
-3.93534e-12
5.94819e-11
1.10811e-12
1.15849e-11
3.53641e-11
7.18642e-13
2.86706e-12
8.52976e-13
-9.81665e-12
5.24936e-12
-1.02774e-09
-1.23474e-10
-4.0856e-10
-1.21199e-09
2.43172e-09
-1.1869e-09
-1.08363e-09
1.46562e-09
-7.71983e-10
-8.30762e-10
4.09951e-10
1.46418e-10
-1.55086e-10
-2.12338e-11
2.17994e-11
-1.80394e-11
-3.0546e-11
1.84174e-11
5.38191e-13
-1.622e-11
1.16791e-11
1.03704e-11
-1.98293e-12
1.36737e-12
3.44259e-11
7.68127e-12
4.03795e-11
-1.74802e-11
3.25457e-11
-4.98855e-10
2.54453e-10
-1.45287e-10
-7.79613e-10
3.29375e-09
-6.25777e-10
-5.90293e-10
9.28745e-10
-5.8878e-11
-6.53098e-11
3.75612e-12
4.55094e-11
-6.08746e-12
-2.36881e-12
3.36785e-12
-1.45448e-12
-2.4295e-13
1.65158e-12
3.20611e-13
-2.47159e-13
9.75976e-13
3.23583e-12
-3.28907e-12
3.31042e-13
1.46834e-11
-1.35992e-12
2.13689e-12
-5.85849e-12
3.41566e-11
-7.91381e-11
2.60536e-10
-5.67187e-12
-2.73811e-10
7.53907e-10
-1.60653e-10
-2.72753e-11
-7.35868e-11
7.41123e-11
-5.03491e-14
1.70558e-15
8.97579e-13
7.59445e-15
-8.19688e-14
4.196e-14
9.97952e-16
-5.06092e-15
3.54654e-15
4.24015e-15
-4.02497e-16
4.14863e-15
4.26982e-13
-4.33719e-16
1.52712e-13
3.89318e-13
-2.19173e-13
1.04753e-13
-9.00029e-14
1.57005e-13
2.42688e-11
1.04231e-10
4.11572e-11
2.60881e-11
-5.34418e-11
3.44013e-11
-1.42784e-12
-4.7494e-12
9.0733e-12
7.92647e-15
4.23963e-14
2.41664e-13
2.63074e-15
-7.49685e-14
7.67133e-15
3.71651e-16
-2.88551e-15
1.75561e-16
6.2157e-18
-4.84558e-17
6.78025e-18
1.47144e-18
-5.81555e-18
3.74399e-18
9.37403e-16
-4.65798e-19
2.07933e-15
-7.94498e-20
3.38526e-15
2.31302e-11
2.98957e-12
4.01527e-11
1.18634e-11
4.42353e-12
1.82515e-11
3.48052e-12
4.0579e-12
7.70619e-12
7.25621e-14
6.50401e-14
6.21478e-13
2.71647e-15
-1.98357e-14
1.47826e-14
4.96403e-17
-5.16896e-16
2.93001e-16
5.48027e-18
-9.88801e-18
7.63314e-18
2.91901e-19
-8.32657e-19
2.408e-19
7.44271e-21
-1.91326e-19
2.25253e-20
-8.26305e-20
2.33462e-20
1.3157e-12
8.87183e-14
1.56804e-12
2.73636e-12
3.00329e-13
2.68077e-12
2.11246e-12
-1.12956e-13
2.23531e-12
2.36924e-14
6.85663e-15
1.68918e-13
5.81845e-16
-6.56233e-16
3.51166e-15
6.34575e-18
-7.33166e-18
5.82928e-17
4.37233e-19
-4.36955e-19
1.30005e-18
2.49064e-19
-2.69229e-19
2.70558e-19
2.97243e-20
-1.22089e-19
9.40186e-20
-1.02882e-19
4.63007e-20
2.58095e-14
5.96076e-14
7.06995e-16
1.66121e-13
1.42564e-13
3.72622e-15
1.71427e-14
3.32979e-14
-1.6375e-15
1.72472e-15
1.83391e-15
-1.84436e-16
7.77988e-18
3.80586e-17
-2.92664e-18
1.76824e-19
6.52147e-19
-3.62655e-20
1.29171e-19
7.2234e-20
-2.14727e-20
7.64946e-20
5.62399e-20
-2.90189e-20
2.99137e-20
5.63342e-20
-4.86112e-20
5.49999e-20
-8.86086e-20
1.50245e-07
-2.50236e-07
3.68929e-07
3.14055e-07
-2.85235e-07
4.28989e-07
4.37922e-07
-2.47727e-07
4.38261e-07
5.18479e-07
-2.15034e-07
4.71008e-07
5.52622e-07
-1.86179e-07
5.18294e-07
5.3683e-07
-1.59548e-07
5.73305e-07
4.68493e-07
-1.3588e-07
6.3208e-07
3.47229e-07
-1.17501e-07
6.90416e-07
1.84117e-07
-1.09987e-07
7.41865e-07
-1.16325e-07
7.65102e-07
1.46863e-07
-4.911e-07
3.55908e-07
3.02337e-07
-5.5178e-07
4.04469e-07
4.16103e-07
-4.75035e-07
4.15891e-07
4.84488e-07
-4.07408e-07
4.49925e-07
5.06397e-07
-3.48432e-07
4.95327e-07
4.81848e-07
-2.97463e-07
5.47359e-07
4.11116e-07
-2.55986e-07
6.0361e-07
2.9666e-07
-2.28773e-07
6.60283e-07
1.55233e-07
-2.25301e-07
7.11464e-07
-2.51992e-07
7.4234e-07
1.84976e-07
-7.85782e-07
4.25684e-07
3.68698e-07
-8.64649e-07
4.81433e-07
5.03339e-07
-7.44435e-07
5.03897e-07
5.84079e-07
-6.37469e-07
5.53699e-07
6.09512e-07
-5.4375e-07
6.16477e-07
5.79169e-07
-4.61419e-07
6.83483e-07
4.92287e-07
-3.94498e-07
7.51991e-07
3.55526e-07
-3.48652e-07
8.12679e-07
1.89704e-07
-3.39168e-07
8.62133e-07
-3.77676e-07
8.93106e-07
2.30412e-07
-1.14075e-06
5.0205e-07
4.51162e-07
-1.23085e-06
5.63183e-07
6.08065e-07
-1.05894e-06
6.09582e-07
6.96642e-07
-9.03997e-07
6.89012e-07
7.18474e-07
-7.6764e-07
7.80245e-07
6.77504e-07
-6.50126e-07
8.74816e-07
5.73658e-07
-5.54022e-07
9.69469e-07
4.15723e-07
-4.81562e-07
1.05093e-06
2.2227e-07
-4.53849e-07
1.11584e-06
-4.76094e-07
1.131e-06
3.00921e-07
-1.5876e-06
6.23781e-07
5.90259e-07
-1.69459e-06
7.02357e-07
7.83867e-07
-1.44781e-06
7.87144e-07
8.82068e-07
-1.22257e-06
9.16234e-07
8.94952e-07
-1.02533e-06
1.05809e-06
8.41703e-07
-8.64175e-07
1.20043e-06
7.21238e-07
-7.21076e-07
1.33611e-06
5.34552e-07
-5.91936e-07
1.45054e-06
2.84025e-07
-4.97921e-07
1.535e-06
-4.54924e-07
1.51949e-06
4.37677e-07
-2.15748e-06
8.09144e-07
7.98992e-07
-2.25711e-06
9.29183e-07
1.04232e-06
-1.9284e-06
1.03344e-06
1.16896e-06
-1.59702e-06
1.20281e-06
1.18177e-06
-1.29954e-06
1.41003e-06
1.13183e-06
-1.08644e-06
1.62187e-06
1.00405e-06
-8.8426e-07
1.78779e-06
7.73832e-07
-6.67058e-07
1.88358e-06
4.19959e-07
-4.51026e-07
1.92318e-06
-3.01853e-07
1.89452e-06
6.38603e-07
-2.72958e-06
7.30849e-07
9.93936e-07
-2.74845e-06
1.01454e-06
1.26943e-06
-2.43437e-06
1.18125e-06
1.44516e-06
-1.98015e-06
1.41445e-06
1.46452e-06
-1.49046e-06
1.69529e-06
1.40449e-06
-1.17443e-06
1.96419e-06
1.21103e-06
-8.92957e-07
2.09948e-06
9.22016e-07
-6.32918e-07
2.07681e-06
5.15307e-07
-3.68927e-07
1.96613e-06
-1.72726e-07
1.90415e-06
6.83398e-07
-2.30389e-06
1.46306e-07
1.16962e-06
-2.42396e-06
7.56865e-07
1.35851e-06
-2.0252e-06
1.2758e-06
1.15941e-06
-1.12832e-06
1.57746e-06
7.95738e-07
-4.78142e-07
1.62904e-06
4.57035e-07
-4.45026e-08
1.43999e-06
2.7246e-07
-3.48778e-09
1.13368e-06
1.84156e-07
-5.40256e-09
1.02641e-06
1.20926e-07
-1.9516e-08
9.79708e-07
-3.00024e-08
8.98553e-07
6.41126e-08
-1.95717e-07
1.53691e-07
3.72973e-07
-6.83277e-08
2.7209e-07
2.90774e-07
-6.85885e-11
5.00085e-07
6.13489e-08
-2.03299e-10
2.83683e-07
2.6318e-08
-7.37974e-10
8.11592e-09
-2.2343e-11
-6.56488e-10
-2.1377e-08
-1.12731e-10
-6.4438e-11
-3.63135e-09
-5.2964e-10
-3.34943e-10
-4.89563e-09
-7.24991e-10
-2.87664e-10
-2.00682e-08
-2.69768e-10
-3.22405e-08
-1.28109e-09
-3.88207e-09
1.47227e-08
-7.03777e-12
-2.69661e-10
1.11641e-09
-2.09735e-11
-9.03739e-13
-4.08269e-12
-6.12895e-11
-6.81846e-11
-1.02903e-10
-3.19839e-10
-1.91263e-10
-3.37795e-10
-1.43872e-09
-4.15813e-10
-3.25727e-10
-1.66181e-09
-5.35676e-10
-4.39152e-09
-8.90531e-10
-5.61516e-10
-5.45914e-10
-1.40077e-10
-2.29577e-10
-7.90083e-11
-1.42161e-10
-2.0409e-10
-1.33743e-11
1.22336e-11
1.69241e-11
-2.05441e-10
1.48683e-11
-1.02724e-10
-1.94365e-10
8.48156e-11
-5.64602e-10
-1.37866e-10
-2.15945e-11
-2.81735e-10
-3.4806e-10
-3.36341e-11
4.88204e-11
-8.24647e-10
-1.66847e-10
-6.61465e-10
-8.12456e-10
-4.4689e-10
-5.83392e-10
-4.43005e-10
-3.39877e-11
-5.54077e-12
-2.00389e-10
-1.02065e-11
-3.16098e-11
-2.95624e-11
-1.86818e-11
-9.49414e-12
5.02425e-10
-8.58917e-12
-9.35393e-11
1.12397e-10
-3.26126e-11
-8.16989e-11
7.65171e-11
-1.86673e-10
-4.68162e-11
-1.27047e-10
-7.85347e-12
-4.92444e-11
-1.28475e-11
-1.71902e-11
-1.84224e-11
-9.6885e-11
-1.66738e-11
-4.87436e-13
-1.015e-10
-2.30215e-12
-1.88033e-13
-3.29034e-11
3.69391e-15
-6.58601e-13
-7.61923e-12
-5.64268e-17
-2.7832e-11
-9.73499e-14
-5.0194e-10
1.56471e-09
-4.21922e-10
-1.04281e-09
1.60786e-09
-1.3075e-09
-3.89524e-10
8.33641e-11
-1.08826e-09
-5.1804e-11
-5.91657e-11
-4.85073e-11
-3.50623e-11
-7.4287e-12
-1.12907e-10
-1.34212e-11
-9.62663e-12
-8.41847e-11
6.72387e-13
-7.41638e-12
-7.50977e-13
1.6121e-12
-8.95575e-13
-5.84882e-13
3.85314e-12
-2.10027e-11
2.42135e-12
-7.55743e-11
1.42736e-12
-3.92438e-10
1.10142e-09
-4.4781e-10
-4.37532e-10
1.6856e-09
-7.9594e-10
-2.62983e-10
2.61836e-10
-3.92183e-10
-1.39318e-11
-2.7745e-12
-7.08201e-13
-1.81616e-12
-1.89826e-12
3.82276e-12
-1.42843e-13
-1.47632e-12
9.44133e-12
4.27851e-14
-8.55067e-13
4.67673e-12
5.00002e-13
-3.35899e-13
8.79851e-14
2.07828e-11
-1.07993e-12
3.75043e-13
-7.50883e-11
1.20139e-11
1.57549e-10
2.17037e-11
-9.30961e-11
6.06884e-11
8.48799e-10
-3.53365e-10
-4.08433e-11
9.08347e-11
-2.36863e-11
-1.10282e-12
1.742e-13
3.21138e-13
-2.5963e-14
-1.39159e-13
5.61918e-13
5.37886e-15
-1.18085e-14
1.54991e-13
1.3679e-14
-4.32576e-15
1.16392e-13
5.00264e-14
-1.38698e-13
9.39435e-14
1.22908e-12
-1.06794e-13
1.82333e-14
-1.71715e-13
1.68196e-12
2.9789e-11
-1.6015e-13
-1.24174e-12
6.13852e-11
-5.4574e-11
-8.32849e-12
8.06898e-13
-2.2176e-11
4.73764e-14
9.15378e-14
4.97281e-13
6.81974e-13
8.30091e-15
-1.85333e-14
3.83923e-15
2.5419e-16
-9.20402e-16
1.62787e-16
9.98006e-17
-7.45886e-17
5.07588e-17
1.01231e-14
-8.26957e-18
3.99694e-15
6.13416e-15
-2.01259e-15
3.14611e-15
-3.30736e-15
4.18488e-15
2.98328e-11
3.81931e-11
1.63283e-12
1.27583e-11
1.97158e-12
-1.47696e-12
-2.84827e-13
-7.43869e-13
2.55729e-13
-3.10253e-15
6.20934e-14
4.2777e-14
-5.06296e-18
-1.55448e-14
1.72212e-15
4.90328e-17
-8.35457e-16
4.23218e-17
2.90436e-18
-2.40922e-17
1.17334e-18
1.66001e-19
-2.41044e-18
2.63208e-19
2.648e-17
-1.02829e-18
4.14645e-17
-1.36628e-19
8.16574e-17
1.36155e-11
2.22781e-12
1.09171e-11
4.79129e-12
1.07626e-11
1.21336e-11
-2.31705e-13
8.51726e-12
5.08859e-12
1.30803e-15
7.64618e-14
1.46037e-13
4.06074e-16
-7.74808e-15
7.34785e-15
7.5325e-18
-2.52162e-16
1.01569e-16
1.48624e-18
-6.71959e-18
3.31118e-18
8.14763e-19
-1.13698e-18
7.57847e-19
1.10276e-20
-2.32577e-19
2.80905e-20
-1.3066e-19
2.26013e-20
2.90323e-13
-5.66371e-14
3.19737e-13
3.21786e-12
-2.23117e-14
3.96034e-12
2.13921e-12
-5.59848e-14
2.53765e-12
1.09908e-14
5.5924e-14
1.99168e-13
2.82564e-16
-3.25456e-16
4.82921e-15
-2.80926e-18
-4.75371e-18
5.88903e-17
6.75815e-19
-2.66806e-19
2.12182e-18
2.94874e-19
-2.18389e-19
3.47552e-19
5.54477e-20
-2.18923e-19
1.78972e-19
-2.06888e-19
1.34432e-19
1.46219e-15
1.77007e-15
-5.89121e-16
6.94022e-14
4.37736e-14
-3.87025e-16
1.78801e-14
2.51195e-14
-6.54132e-16
3.08056e-15
3.68105e-15
-2.00495e-16
2.49104e-18
7.26206e-17
-2.60136e-18
1.76356e-19
9.93583e-19
-2.03038e-20
1.23261e-19
6.32897e-20
-2.21827e-20
9.97933e-20
7.78355e-20
-5.63491e-20
8.3656e-20
2.56241e-19
-2.39569e-19
2.22207e-19
-2.03934e-19
1.57376e-07
-2.17247e-07
4.28799e-07
3.36159e-07
-2.5931e-07
5.09517e-07
4.70675e-07
-2.14875e-07
5.1862e-07
5.5659e-07
-1.71588e-07
5.5668e-07
5.92362e-07
-1.32428e-07
6.14951e-07
5.75485e-07
-9.36701e-08
6.83852e-07
5.03802e-07
-5.63024e-08
7.60065e-07
3.80526e-07
-2.6354e-08
8.40046e-07
2.11829e-07
-6.78044e-10
9.11239e-07
1.08265e-08
9.53471e-07
1.545e-07
-4.2551e-07
4.09671e-07
3.25899e-07
-5.00252e-07
4.74013e-07
4.50137e-07
-4.07112e-07
4.83891e-07
5.22663e-07
-3.16228e-07
5.22039e-07
5.45205e-07
-2.357e-07
5.76057e-07
5.19482e-07
-1.59222e-07
6.38634e-07
4.4885e-07
-9.37679e-08
7.11707e-07
3.43048e-07
-4.85497e-08
7.88281e-07
2.05904e-07
-1.56411e-08
8.63572e-07
1.84992e-08
9.15471e-07
1.97119e-07
-6.86116e-07
4.89172e-07
4.03925e-07
-7.88183e-07
5.62557e-07
5.53137e-07
-6.37173e-07
5.84744e-07
6.39193e-07
-4.88338e-07
6.39755e-07
6.63203e-07
-3.53097e-07
7.09863e-07
6.27861e-07
-2.26958e-07
7.8656e-07
5.4004e-07
-1.21372e-07
8.67416e-07
4.04105e-07
-4.85418e-08
9.48606e-07
2.33034e-07
3.77856e-10
1.01718e-06
1.12619e-07
1.00304e-06
2.52124e-07
-1.01016e-06
5.73974e-07
5.10178e-07
-1.13541e-06
6.5236e-07
6.87549e-07
-9.03968e-07
6.99006e-07
7.82168e-07
-6.7811e-07
7.84165e-07
8.00868e-07
-4.73683e-07
8.82131e-07
7.49757e-07
-2.89161e-07
9.8813e-07
6.38664e-07
-1.35392e-07
1.09458e-06
4.65291e-07
-2.10289e-08
1.19679e-06
2.53123e-07
6.48176e-08
1.26357e-06
2.97471e-07
1.17245e-06
3.4691e-07
-1.43917e-06
7.05882e-07
6.93542e-07
-1.58585e-06
8.06162e-07
9.13214e-07
-1.22511e-06
8.88611e-07
1.01369e-06
-8.81748e-07
1.0194e-06
1.01266e-06
-5.76104e-07
1.16154e-06
9.30713e-07
-3.16564e-07
1.30979e-06
7.77691e-07
-1.11466e-07
1.4652e-06
5.49719e-07
5.19346e-08
1.60555e-06
2.65141e-07
2.119e-07
1.6725e-06
5.46718e-07
1.50682e-06
5.38795e-07
-2.00508e-06
8.36271e-07
9.55556e-07
-2.12053e-06
1.04712e-06
1.20945e-06
-1.61362e-06
1.16806e-06
1.32318e-06
-1.11631e-06
1.32364e-06
1.30216e-06
-6.74387e-07
1.52934e-06
1.19417e-06
-3.18996e-07
1.73228e-06
1.01984e-06
-4.98396e-08
1.90051e-06
7.37408e-07
1.94099e-07
2.02384e-06
3.34464e-07
4.83343e-07
2.05469e-06
8.64104e-07
1.88081e-06
8.35068e-07
-2.64697e-06
5.38463e-07
1.23657e-06
-2.60742e-06
1.10075e-06
1.48291e-06
-2.03804e-06
1.35972e-06
1.58739e-06
-1.32007e-06
1.5139e-06
1.55983e-06
-6.70351e-07
1.71886e-06
1.508e-06
-3.29475e-07
2.02651e-06
1.40259e-06
-1.46817e-07
2.30954e-06
1.09816e-06
1.37893e-07
2.41976e-06
5.61716e-07
6.47571e-07
2.33832e-06
1.06536e-06
2.17623e-06
7.21953e-07
-1.5317e-06
1.15751e-07
1.28549e-06
-1.37883e-06
5.48944e-07
1.62864e-06
-1.26662e-06
1.12847e-06
1.62005e-06
-7.21674e-07
1.5652e-06
1.35166e-06
-2.2427e-07
1.76672e-06
9.53756e-07
-9.50753e-08
1.95221e-06
6.23076e-07
-4.43997e-08
1.97257e-06
3.95763e-07
-4.24957e-08
1.89938e-06
2.13277e-07
1.81738e-08
1.84459e-06
4.19491e-08
1.76051e-06
-2.36615e-08
-1.43688e-08
1.16759e-07
1.0941e-07
-1.12036e-09
1.88588e-07
2.1261e-07
-2.58937e-10
1.88964e-07
1.62236e-07
-2.06751e-09
2.89728e-07
3.86366e-08
-3.83455e-09
1.37121e-07
3.71393e-09
-8.47652e-09
6.36532e-09
-1.18495e-09
-2.91918e-09
-4.05358e-08
-6.36491e-09
-2.36053e-09
-4.04904e-08
-5.62251e-09
-1.36892e-09
-2.51871e-08
-1.23042e-09
-3.51375e-08
-2.92371e-11
-5.02147e-11
4.06472e-10
-2.36094e-11
-6.2223e-12
-5.51215e-12
-1.49068e-10
-2.94427e-11
-1.46321e-11
-3.30538e-10
-1.75841e-09
-2.36021e-10
-1.28037e-09
-2.55195e-09
-6.78488e-10
-6.70567e-09
-2.98915e-09
-9.02991e-10
-3.49454e-09
-1.75213e-09
-2.875e-09
-8.96655e-10
-4.92802e-11
-1.81646e-09
-6.55487e-10
-7.28289e-11
-1.62125e-09
-1.14243e-10
-1.70068e-09
-2.81603e-11
2.07356e-11
-4.48207e-12
-4.37422e-10
1.80953e-10
-8.04978e-11
-2.08856e-09
7.85221e-11
-1.98572e-09
-2.01965e-09
-3.23235e-11
-2.84039e-09
-2.47597e-09
-3.1371e-10
-5.71994e-11
-1.10306e-09
-3.60562e-10
-5.04808e-10
-7.47404e-12
-1.90758e-10
-3.67528e-11
-1.12599e-11
-2.84724e-12
-4.6739e-11
-1.38973e-11
-1.8205e-12
-9.91651e-11
-3.0041e-12
-1.38157e-10
-2.24931e-11
6.3481e-11
-2.63132e-11
-1.39295e-10
3.44483e-10
-7.18314e-11
-3.88721e-12
-2.93352e-10
-2.25443e-10
-1.32363e-11
-1.29148e-11
-9.36177e-12
-1.19657e-11
-3.00754e-10
-2.20622e-11
-6.49291e-12
-3.69038e-10
-6.62333e-12
-2.89954e-13
-1.97878e-10
-3.21162e-13
-3.27814e-14
-2.98732e-12
1.65912e-14
-3.60195e-14
-1.20332e-12
-4.85069e-16
-2.28583e-12
-1.7701e-14
-1.46752e-10
9.03812e-10
-1.34557e-10
-1.8083e-10
7.99339e-10
-5.16616e-10
-5.1966e-11
-1.02213e-10
-4.15162e-10
-1.01458e-10
-1.76039e-12
-1.40073e-11
-4.94899e-11
-2.3435e-10
-1.05619e-10
-2.21426e-11
-2.51735e-10
-8.87199e-11
2.10853e-12
-1.62916e-10
-1.25206e-11
-3.43975e-14
-2.81084e-12
5.48088e-13
8.57823e-15
-4.72569e-13
-1.20957e-14
-7.02081e-12
-4.41872e-14
9.65679e-11
4.29387e-10
-9.38635e-11
3.32193e-10
3.2621e-10
-2.46988e-10
-9.09499e-13
-6.22721e-13
-7.51425e-12
1.63917e-13
-1.27147e-12
-1.41033e-14
1.34708e-11
-7.09095e-13
1.82731e-11
2.40774e-11
-3.74765e-13
1.15168e-11
4.27945e-12
-1.19181e-13
6.07183e-12
-3.33471e-14
-2.03062e-14
9.05702e-13
1.30398e-14
-9.20274e-14
3.53875e-15
-3.94351e-12
-1.44928e-13
5.42014e-11
1.47327e-12
-1.10398e-11
2.47602e-11
6.86584e-12
-4.98848e-12
4.61894e-13
1.3433e-13
-9.30763e-14
7.19962e-13
-1.52601e-13
3.7447e-14
2.24931e-13
-2.6204e-13
1.8855e-13
5.16069e-15
-4.97935e-15
5.08199e-15
9.25504e-16
-2.11247e-16
1.65627e-15
5.20983e-16
-3.58478e-15
7.72284e-14
-3.38277e-15
-2.80134e-15
9.92871e-15
-4.35738e-15
2.1828e-14
1.77968e-12
-1.52639e-12
-1.2625e-14
2.60735e-13
7.15696e-14
-1.01823e-14
4.81481e-13
4.22679e-13
-5.34788e-15
2.73529e-13
-2.16918e-14
1.39966e-14
4.93514e-15
-2.85547e-15
2.29595e-15
1.6378e-16
-9.61879e-17
4.9938e-17
3.07496e-18
-2.93207e-18
1.95268e-18
9.47439e-17
-6.48806e-19
3.20209e-16
2.18099e-17
-4.0016e-17
4.43486e-16
-8.0716e-17
6.03329e-17
2.60209e-12
-2.16283e-12
1.17953e-14
6.77534e-13
8.11457e-13
-1.46173e-13
-1.82863e-14
2.16831e-13
3.06341e-14
-2.20712e-15
-4.68518e-14
9.11039e-16
-2.10428e-17
-3.4293e-15
5.80236e-17
1.93868e-18
-1.06612e-16
7.67543e-18
6.82481e-19
-2.67743e-18
8.77854e-19
1.32687e-19
-9.2294e-19
1.60498e-19
5.07367e-19
-1.56536e-19
1.06383e-18
-5.92086e-20
1.28026e-18
8.30983e-13
-1.58322e-13
8.69102e-14
2.50271e-12
6.27928e-13
2.07197e-13
4.23158e-13
3.98795e-13
-1.30088e-14
-4.38279e-15
-1.45368e-14
5.93408e-14
5.69395e-17
-1.31617e-15
3.40276e-16
2.6809e-17
-2.71448e-17
4.1268e-17
5.9679e-19
-5.6068e-19
2.31529e-17
2.87767e-19
-5.17271e-19
4.78338e-19
1.52393e-20
-2.18389e-19
1.25836e-19
-2.01278e-19
4.18516e-20
6.53955e-15
-1.70092e-15
2.72499e-15
3.91095e-13
-3.13993e-14
4.2047e-14
1.99569e-13
-2.47198e-15
8.47899e-15
-3.41105e-15
-4.68797e-16
-3.30805e-15
-5.0628e-18
-2.6038e-17
2.50681e-17
1.65699e-17
-3.87379e-19
9.12689e-18
2.36073e-19
-1.4546e-19
1.90831e-17
2.99273e-19
-2.32825e-19
1.00459e-18
2.23407e-19
-1.90881e-18
7.39826e-19
-1.86609e-18
1.10434e-18
1.01962e-17
5.75647e-17
-3.84233e-18
2.50982e-15
1.35034e-15
-3.50611e-16
2.17663e-15
1.14431e-15
-1.65441e-16
3.72687e-17
1.15522e-17
-8.88214e-18
4.30277e-19
3.43616e-19
-4.12333e-20
1.22271e-19
1.327e-19
-1.99744e-20
1.08825e-19
5.12209e-20
-6.52254e-20
2.44614e-19
1.64362e-19
-2.85445e-19
8.20943e-19
4.04915e-18
-2.91319e-19
4.73074e-18
-2.49341e-18
1.65054e-07
-1.81991e-07
4.45736e-07
3.65822e-07
-2.3575e-07
5.44498e-07
5.17836e-07
-1.85791e-07
5.52398e-07
6.14763e-07
-1.32119e-07
5.91872e-07
6.56766e-07
-8.30106e-08
6.55959e-07
6.43635e-07
-3.48357e-08
7.31818e-07
5.75365e-07
1.12799e-08
8.17055e-07
4.48254e-07
6.10342e-08
9.06123e-07
2.59992e-07
1.07975e-07
9.91526e-07
1.7062e-07
1.02138e-06
1.61649e-07
-3.55572e-07
4.21603e-07
3.54849e-07
-4.54101e-07
4.99165e-07
4.95408e-07