/*--------------------------------*- C++ -*----------------------------------*\
| =========                 |                                                 |
| \\      /  F ield         | OpenFOAM: The Open Source CFD Toolbox           |
|  \\    /   O peration     | Version:  2312                                  |
|   \\  /    A nd           | Website:  www.openfoam.com                      |
|    \\/     M anipulation  |                                                 |
\*---------------------------------------------------------------------------*/
FoamFile
{
    version     2.0;
    format      ascii;
    arch        "LSB;label=32;scalar=64";
    class       volScalarField;
    location    "0.485";
    object      alpha.water;
}
// * * * * * * * * * * * * * * * * * * * * * * * * * * * * * * * * * * * * * //

dimensions      [0 0 0 0 0 0 0];

internalField   nonuniform List<scalar> 
8000
(
1
1
1
1
1
1
1
1
1
1
1
1
1
1
1
1
1
1
1
1
1
1
1
1
1
1
1
1
1
1
1
1
1
1
1
1
1
1
1
1
1
1
1
1
1
1
1
1
1
1
1
1
1
1
1
1
1
1
1
1
0.999978
0.999982
0.99999
0.999996
1
1
1
1
1
1
0.926888
0.931946
0.945168
0.963
0.964168
0.979699
1
1
1
1
0.214922
0.224267
0.25357
0.322739
0.478097
0.69415
0.919437
0.999996
1
1
3.63844e-07
3.60747e-07
3.57037e-07
3.52264e-07
1.32403e-05
0.0502558
0.251648
0.763062
0.999971
1
3.73214e-07
3.60134e-07
3.37894e-07
3.50706e-07
3.46528e-07
1.72499e-05
0.00048654
0.214594
0.895526
0.999941
9.0274e-06
2.06733e-06
2.32569e-06
2.18205e-06
4.31823e-07
1.31102e-06
1.82117e-05
8.9884e-05
0.461435
0.998886
4.7578e-05
4.37033e-05
1.89318e-05
9.80103e-06
5.58622e-07
7.45266e-07
1.99611e-06
5.79263e-05
0.0891859
0.469677
3.34638e-05
3.06739e-05
1.3615e-05
6.17201e-06
1.59187e-06
6.33173e-07
7.98964e-07
0.000262205
1.28711e-05
0.0011305
5.45335e-06
3.15714e-06
2.31656e-06
1.91985e-06
1.10095e-05
1.08625e-05
6.17924e-06
3.33508e-05
8.18547e-06
3.45786e-05
5.35314e-06
4.19439e-06
2.36105e-06
5.00953e-06
6.25707e-06
4.60107e-06
1.05103e-05
2.39872e-05
6.6666e-06
4.09037e-05
4.29949e-06
5.60215e-06
3.27736e-06
4.40633e-07
8.50745e-08
1.20391e-07
5.99086e-06
2.30889e-05
1.18085e-05
0.000149133
2.5655e-07
6.36534e-07
7.51282e-08
2.48902e-11
5.86921e-08
3.70924e-06
4.13769e-06
4.45412e-06
5.3107e-05
0.000238964
2.89043e-15
2.90782e-15
2.91573e-15
1.90193e-14
6.70505e-10
2.3916e-06
7.70866e-06
3.05287e-06
4.46456e-05
0.00023855
1.76772e-14
1.61707e-14
3.16715e-14
6.88443e-14
6.07451e-09
7.01394e-07
2.66976e-06
2.30653e-06
5.852e-05
0.000247525
1
1
1
1
1
1
1
1
1
1
1
1
1
1
1
1
1
1
1
1
1
1
1
1
1
1
1
1
1
1
1
1
1
1
1
1
1
1
1
1
1
1
1
1
1
1
1
1
1
1
1
1
1
1
1
1
1
1
1
1
0.999999
0.999999
0.999999
0.999979
0.999991
1
1
1
1
1
0.98585
0.989438
0.99612
0.999915
0.999995
1
1
1
1
1
0.319434
0.335542
0.382188
0.470515
0.625482
0.82687
0.992841
1
1
1
3.73214e-07
3.63844e-07
3.41604e-07
3.58155e-07
0.00355991
0.0792022
0.345625
0.804283
0.999998
0.999975
4.17726e-07
3.66653e-07
2.7512e-07
3.2904e-07
3.72237e-07
3.46779e-07
0.00160643
0.175536
0.607696
0.901379
1.83374e-05
4.51777e-06
2.28358e-07
3.06198e-07
3.32948e-07
3.77019e-07
2.20127e-05
7.81846e-05
0.0250436
0.45981
4.80238e-05
1.38993e-05
2.10423e-07
5.51922e-07
4.57673e-07
5.03522e-07
2.0678e-06
3.88367e-05
0.00357952
0.0865854
4.8098e-05
2.13804e-05
1.92461e-07
1.96568e-06
1.16019e-06
3.86448e-07
5.86889e-07
1.05366e-05
9.6043e-06
1.27948e-05
4.80973e-05
1.93344e-05
1.83733e-06
1.87588e-06
7.64429e-06
5.3022e-06
1.23827e-06
2.58778e-06
3.49759e-06
8.6037e-06
1.4769e-05
1.11948e-05
5.54889e-06
1.17982e-07
1.66884e-05
3.68142e-05
2.92051e-06
2.66349e-06
2.98834e-06
7.33075e-06
7.37327e-07
2.24643e-06
1.05006e-06
5.79218e-10
1.91511e-05
9.18055e-05
5.38992e-06
3.00608e-06
6.67353e-06
1.00357e-05
4.57903e-09
3.59021e-15
6.51939e-12
1.82887e-10
8.00414e-06
0.000108318
6.46246e-05
5.3685e-06
9.1272e-06
8.08656e-06
2.90503e-15
2.91572e-15
3.60555e-15
7.56838e-12
5.67463e-07
6.63219e-05
0.000119082
2.14767e-05
6.27422e-06
6.4558e-06
8.88129e-14
8.80405e-15
5.40419e-14
4.84443e-12
2.70847e-09
1.81305e-05
9.17072e-05
2.16864e-05
8.18412e-06
0.000196594
1
1
1
1
1
1
1
1
1
1
1
1
1
1
1
1
1
1
1
1
1
1
1
1
1
1
1
1
1
1
1
1
1
1
1
1
1
1
1
1
1
1
1
1
1
1
1
1
1
1
1
1
1
1
1
1
1
1
1
1
1
1
1
1
1
1
1
1
1
1
0.98028
0.986707
0.997646
1
1
1
1
1
1
1
0.238128
0.253553
0.295633
0.385337
0.53768
0.7302
0.9087
1
1
0.999998
4.17727e-07
3.91234e-07
3.7072e-07
4.081e-07
0.00442931
0.067852
0.256031
0.55227
0.822496
0.795657
2.54466e-06
4.68621e-06
5.32837e-06
3.74682e-06
4.09761e-07
9.25261e-07
1.6092e-05
0.0338611
0.182091
0.248614
1.03579e-06
8.44351e-07
6.76941e-07
6.00362e-07
3.91115e-07
4.69524e-07
2.19649e-06
4.25155e-05
7.41214e-05
0.000125251
2.22869e-05
9.78508e-07
2.54841e-07
2.30765e-07
1.02191e-06
4.35207e-07
6.80697e-07
8.28708e-06
4.21622e-05
6.37577e-05
3.70544e-05
2.78503e-07
1.77593e-07
1.13727e-07
2.9901e-07
3.21871e-07
3.86448e-07
2.11087e-06
1.79371e-05
0.000255486
1.24872e-05
1.80099e-05
1.96227e-07
3.54089e-07
3.21871e-07
3.86448e-07
5.03598e-07
8.35475e-07
4.54343e-06
2.86612e-05
1.95224e-06
4.57985e-06
2.69724e-06
1.07316e-06
2.54345e-05
1.19973e-05
8.35475e-07
2.01247e-06
2.63926e-06
3.3409e-06
1.5992e-11
4.88837e-12
1.78187e-11
1.16335e-09
3.9971e-05
0.000120713
3.11771e-05
2.63926e-06
4.37539e-06
4.31567e-06
3.72837e-12
1.17043e-12
4.88837e-12
1.78187e-11
2.39234e-05
0.000120198
0.000119712
3.40098e-06
4.10597e-06
4.62142e-06
9.73924e-15
3.60544e-15
1.17036e-12
3.83582e-10
5.09233e-06
0.000113559
0.000121711
2.61424e-05
4.56789e-06
2.33688e-05
7.82514e-14
1.27969e-13
1.13755e-12
1.62621e-10
1.50687e-08
3.82856e-05
0.000119082
0.000116005
4.79482e-05
0.000208018
1
1
1
1
1
1
1
1
1
1
1
1
1
1
1
1
1
1
1
1
1
1
1
1
1
1
1
1
1
1
0.999999
1
1
1
1
1
1
1
1
1
1
1
1
1
1
1
1
1
1
1
1
1
1
1
1
1
1
1
1
1
1
1
1
1
1
1
1
1
1
1
0.742653
0.734868
0.771141
0.862031
0.97257
1
1
1
1
1
0.116349
0.115588
0.129212
0.173574
0.284637
0.50123
0.742678
0.915478
0.999999
0.94139
1.42002e-06
8.29994e-07
6.21056e-07
4.13228e-07
2.92518e-06
0.0234203
0.110597
0.266675
0.385931
0.292387
1.91078e-05
4.36396e-05
4.63194e-05
1.74198e-05
7.64537e-07
7.77987e-06
2.88265e-05
5.66558e-06
0.0040415
0.00099836
2.91904e-07
3.90119e-07
1.63128e-06
1.50678e-06
5.10858e-07
8.14698e-07
7.71291e-06
2.47878e-06
1.63697e-05
5.60692e-05
2.62236e-07
2.82291e-06
9.81792e-07
1.99655e-07
3.9829e-06
2.39915e-06
1.175e-05
1.41111e-05
3.90778e-06
5.62423e-06
1.95649e-07
4.95602e-06
1.45945e-06
2.79464e-09
5.61883e-06
7.89685e-06
2.20013e-05
1.45541e-05
2.33601e-06
2.0285e-06
3.47047e-07
4.32571e-06
1.59373e-06
5.85683e-08
7.73686e-06
1.8663e-05
1.96657e-05
1.74395e-05
6.3233e-06
9.88378e-06
5.46942e-09
1.17092e-10
1.12286e-07
1.60793e-09
2.33839e-05
0.000116301
8.14147e-05
1.36704e-05
1.32866e-05
1.98637e-05
1.17092e-10
8.66071e-12
5.36599e-11
5.06378e-10
1.97768e-05
0.000120744
0.000121238
7.62374e-06
5.81555e-06
5.02163e-05
7.70309e-12
3.61895e-12
1.00477e-11
5.431e-11
6.73277e-06
0.000116792
0.000121709
9.65234e-05
3.77906e-05
2.86312e-05
1.75165e-12
9.19955e-13
2.75635e-12
1.23813e-10
4.55237e-07
6.4862e-05
0.000121498
0.000121708
6.65173e-05
8.0059e-07
8.66991e-13
1.17205e-12
1.5347e-12
1.8881e-10
5.32609e-09
1.33805e-05
0.000110495
0.000113063
3.08763e-05
6.12727e-08
1
1
1
1
1
1
1
1
1
1
1
1
1
1
1
1
1
1
1
1
1
1
1
1
1
1
1
1
1
1
0.999988
1
1
1
1
1
1
1
1
1
0.999977
0.999999
1
1
1
1
1
1
1
1
0.976409
0.999983
1
1
1
1
1
1
1
1
0.91858
1
1
1
1
1
1
1
1
1
0.527553
0.536798
0.498351
0.575236
0.72797
0.935731
1
1
1
0.989017
0.0298051
0.0305043
0.0335321
0.0492201
0.0984039
0.243617
0.508831
0.74885
0.866996
0.743265
5.74171e-05
2.86606e-05
2.0731e-05
2.92519e-06
1.59355e-05
0.00106779
0.0252801
0.0804534
0.103915
0.0624015
1.89146e-06
1.76749e-06
2.34986e-06
8.80118e-07
1.9394e-05
2.47847e-06
5.37077e-06
9.6113e-07
4.06756e-07
4.14451e-07
4.67e-07
2.42047e-07
2.00796e-07
7.51145e-08
1.30255e-06
1.05193e-06
6.37219e-07
1.67491e-06
1.21164e-06
5.34419e-07
1.63769e-07
2.42257e-07
2.68498e-07
5.86161e-08
5.15408e-08
4.38531e-06
6.87614e-05
4.63981e-05
2.47551e-06
8.68801e-07
5.30086e-08
2.64975e-07
6.09118e-07
2.17818e-09
7.67847e-07
2.24836e-05
0.000105458
4.14169e-05
2.0285e-06
1.48067e-06
2.25337e-08
8.38782e-09
1.68144e-07
5.33437e-08
1.28411e-06
2.5854e-05
0.0001064
0.000107156
2.6468e-05
3.45702e-05
8.38782e-09
3.7999e-09
1.94791e-10
2.44671e-08
2.19913e-06
2.11379e-05
0.000101013
0.000119352
0.000119223
0.000119369
5.46942e-09
5.694e-09
1.7807e-10
1.94791e-10
4.54092e-07
1.99117e-05
6.80286e-05
0.000117534
0.000107953
7.95124e-05
8.50605e-10
7.70323e-12
1.07392e-10
4.98013e-10
6.08192e-08
1.59052e-05
5.92792e-05
5.49319e-05
1.41486e-05
1.52462e-09
2.67568e-10
2.66668e-12
4.34899e-11
4.59577e-09
3.97711e-08
5.1214e-06
3.72113e-05
2.80304e-05
5.6055e-06
1.62139e-11
9.27714e-10
8.57516e-09
9.69091e-12
1.66741e-09
1.39417e-07
7.2065e-07
8.14847e-06
6.53461e-06
1.03225e-07
1.53385e-08
1
1
1
1
1
1
1
1
1
1
1
1
1
1
1
1
1
1
1
1
1
1
1
0.999999
1
1
1
1
1
1
0.999997
1
0.999999
0.999998
1
1
1
1
1
1
0.987746
0.999999
1
1
1
1
1
1
1
1
0.621229
0.918212
0.999994
1
1
1
1
1
1
1
0.249828
0.618622
0.909946
1
1
1
1
1
0.999995
1
0.0845608
0.200841
0.226558
0.293147
0.488823
0.733948
0.982649
1
0.999997
0.978623
0.00333412
0.00272734
0.00452421
0.00517758
0.0257208
0.0955439
0.291365
0.569266
0.688692
0.551074
0.000156428
4.95735e-05
2.6876e-05
4.15482e-05
5.76276e-05
1.20809e-05
7.64002e-07
0.00976025
0.0118974
0.00269636
3.46946e-05
3.60722e-06
1.84153e-06
2.8395e-06
3.41455e-06
1.87486e-05
6.37184e-07
4.80884e-07
4.00897e-07
4.64285e-07
2.37809e-06
8.21205e-07
6.36239e-08
7.67717e-08
6.77821e-08
7.36107e-07
5.08314e-07
8.86811e-07
1.46394e-06
4.87382e-07
5.08893e-07
4.61591e-07
1.40447e-08
2.17818e-09
1.09078e-08
6.13849e-09
3.25864e-06
6.13052e-05
1.07393e-05
6.03501e-07
3.48412e-07
4.36903e-07
6.78012e-09
1.91254e-09
1.43385e-07
4.14017e-09
1.77251e-05
0.000103108
4.17564e-06
1.50004e-06
5.25688e-07
1.21537e-06
2.00423e-08
5.35026e-09
4.11244e-08
2.61777e-09
1.17134e-05
0.000105465
6.43084e-05
1.64461e-06
6.18756e-07
1.74954e-06
3.42669e-08
2.57636e-09
2.08132e-10
6.19825e-10
2.8315e-09
4.74137e-05
0.000119372
6.68565e-05
4.42958e-07
1.47523e-06
2.65166e-08
6.59026e-10
1.82432e-10
4.61612e-10
3.24638e-08
1.13594e-06
4.01394e-05
5.09562e-05
1.71842e-07
7.84959e-07
1.34405e-08
1.8842e-09
6.39939e-09
1.7021e-09
5.6752e-09
1.41317e-08
6.81632e-11
1.62139e-11
9.94635e-08
1.86931e-07
4.33667e-09
1.55124e-09
1.36247e-08
9.44533e-10
2.40028e-09
1.17932e-11
3.18568e-12
1.40757e-11
2.31604e-08
5.89809e-09
6.55462e-10
6.4163e-10
1.80964e-08
2.40081e-08
1.69399e-09
9.44007e-11
3.56995e-13
3.83966e-11
1
1
1
1
1
1
1
1
1
1
1
0.999996
0.999969
0.99999
1
1
1
1
1
1
1
0.999971
0.999914
0.999961
1
1
1
1
1
1
0.999989
0.999996
0.999968
0.999973
1
1
1
1
1
1
0.949818
0.991587
0.999994
1
1
1
1
1
1
1
0.343055
0.589029
0.94621
0.999997
1
1
1
1
1
1
0.00202659
0.0818046
0.466812
0.813991
0.998745
1
1
1
0.999986
0.999998
0.000522379
0.00202277
0.0647756
0.099064
0.275143
0.56996
0.878272
1
0.999964
0.98073
0.000211847
0.000633057
0.000144472
0.000127716
0.0032259
0.039692
0.172094
0.41765
0.537389
0.398221
0.000527629
7.42328e-05
1.70572e-05
1.47073e-05
2.78306e-05
1.76034e-05
3.70398e-07
3.44521e-07
3.37165e-07
3.24216e-07
0.000467175
8.73984e-06
1.88088e-06
1.24406e-06
1.73869e-06
1.56483e-06
3.46435e-06
8.11132e-07
3.45464e-07
4.32406e-07
9.68317e-06
7.66127e-06
5.8089e-07
5.02035e-08
2.93873e-08
6.33542e-08
3.47232e-07
4.30229e-07
4.82859e-07
1.02395e-06
3.61672e-05
1.68775e-05
5.30023e-07
1.14167e-09
1.68192e-10
4.24622e-09
2.49403e-07
1.23217e-05
4.76643e-06
9.51483e-06
0.000460626
8.16395e-06
2.29805e-08
1.52697e-10
1.45025e-10
3.26348e-08
7.75228e-07
3.42855e-05
3.72548e-06
7.2324e-06
9.48699e-05
1.06573e-05
4.81794e-10
1.67891e-10
1.47307e-10
1.98625e-09
1.42863e-06
3.77937e-05
3.66735e-05
1.77545e-06
7.80769e-06
1.40017e-05
1.66013e-08
1.87648e-10
1.66067e-10
2.08132e-10
3.93808e-07
2.25855e-05
5.27659e-05
1.95512e-06
9.24995e-06
1.70923e-05
2.35017e-10
1.82432e-10
1.67993e-10
1.53749e-10
7.57098e-10
8.836e-06
4.06793e-05
4.7881e-05
2.83436e-06
1.69219e-05
3.49176e-10
2.20579e-10
2.90144e-10
1.32552e-10
3.56243e-09
3.79967e-07
2.00557e-06
2.49875e-06
1.34775e-06
1.44387e-05
3.31288e-10
2.4093e-10
1.94202e-10
6.36569e-12
7.93512e-13
5.49444e-13
3.56995e-13
8.59157e-15
1.89132e-06
3.51046e-06
2.76228e-10
2.69261e-10
2.16149e-10
1.90612e-11
2.95286e-11
1.61544e-14
1.58465e-15
2.98776e-16
1
1
1
1
1
1
1
1
1
1
1
0.999977
0.999889
0.999975
1
1
1
1
1
1
0.999999
0.999845
0.999768
0.999935
1
1
1
1
1
1
0.999997
0.999975
0.999969
0.999976
0.999999
1
1
1
1
1
0.999996
0.973413
0.979081
0.999985
0.999999
1
1
1
1
1
0.785498
0.40779
0.528771
0.895691
0.999998
1
1
1
1
1
0.12355
0.00204681
0.141191
0.505934
0.89592
1
1
1
0.999996
0.999994
0.0017556
0.000657944
0.00611219
0.068489
0.163755
0.471008
0.783143
0.998567
0.998059
0.968096
0.00818463
8.53466e-05
0.000128534
0.000128887
5.7249e-05
0.00792185
0.112218
0.316765
0.442233
0.320008
0.0457238
1.07329e-05
1.6529e-05
1.63162e-05
4.91583e-06
9.65537e-06
4.66008e-07
3.37165e-07
3.24216e-07
2.94279e-07
0.0415382
1.53843e-06
1.48364e-06
1.27514e-06
4.57239e-07
8.21719e-07
8.22683e-06
2.59255e-06
3.44521e-07
4.5026e-07
0.00720067
6.84951e-07
6.63173e-08
4.05076e-08
2.87174e-09
3.37947e-08
4.3966e-07
7.5876e-07
7.07373e-07
3.79491e-06
0.0010848
3.65067e-05
1.55099e-09
1.52696e-10
1.45025e-10
1.09017e-07
5.41776e-06
3.67563e-06
4.14574e-06
1.19769e-05
0.00119971
2.63968e-05
1.52697e-10
1.45025e-10
1.45025e-10
1.3224e-06
1.865e-05
2.54135e-06
2.43892e-06
6.55983e-06
0.00587869
9.09501e-09
7.09421e-09
1.47307e-10
1.44911e-10
2.20739e-06
1.80357e-05
2.60958e-06
2.404e-06
2.02293e-06
0.0103597
2.6798e-08
1.91019e-09
1.71177e-10
1.47307e-10
3.15803e-08
1.1314e-05
2.33236e-05
2.17383e-06
2.15139e-06
0.00744936
1.93047e-07
3.34129e-10
1.78725e-10
1.3931e-10
6.84854e-11
2.17714e-06
3.53507e-05
4.07065e-05
1.2951e-05
0.000192326
1.37507e-07
3.00758e-10
1.3902e-10
9.50593e-11
6.36542e-12
7.92876e-13
4.34958e-06
1.45276e-05
1.03534e-05
7.33369e-06
3.58162e-08
3.4873e-10
1.70493e-10
8.47768e-12
6.02261e-12
6.59805e-13
1.61544e-14
1.58465e-15
2.98776e-16
3.45317e-05
4.28217e-07
2.36963e-09
1.46635e-09
1.70134e-11
1.16272e-11
1.00326e-12
2.57739e-15
2.98776e-16
2.75965e-16
1
1
1
1
1
1
1
1
1
1
1
0.999992
0.999981
0.999996
1
1
1
1
1
1
1
0.999883
0.999987
0.999998
0.999999
1
1
1
1
1
0.999999
0.999994
0.999841
0.99975
0.999893
0.999995
1
1
1
1
0.999997
0.999996
0.768315
0.876165
0.991185
0.999999
1
1
1
1
0.999996
0.781045
0.220507
0.464023
0.927745
1
1
1
1
1
0.707679
0.0953309
0.00431757
0.19238
0.732893
1
1
1
1
0.999988
0.00151177
0.000389852
0.00123771
0.0268069
0.153659
0.435289
0.721976
0.988351
0.993702
0.956485
0.026044
0.000192995
0.000749523
0.000405748
0.000168882
0.000159011
0.0731332
0.263376
0.388727
0.2832
0.0683298
2.46073e-05
4.24226e-05
5.08399e-05
0.000192195
1.80022e-05
1.29043e-06
3.5033e-07
2.94279e-07
2.85675e-07
0.0698362
6.84951e-07
4.6521e-06
1.90371e-06
3.28548e-05
6.55029e-05
7.92564e-05
2.82035e-05
3.5033e-07
3.01008e-07
0.0668581
9.5967e-08
1.91729e-07
1.46443e-08
6.85802e-10
1.93421e-08
7.48773e-07
5.27897e-06
6.37193e-06
5.64173e-06
0.00731145
5.13803e-08
3.83055e-09
6.74791e-10
1.63708e-10
6.85802e-10
6.59183e-07
1.76395e-05
3.3364e-05
1.19043e-05
0.000238192
3.92008e-09
7.64322e-10
1.60506e-10
1.44916e-10
8.33211e-07
2.32304e-05
3.51013e-05
2.13466e-05
5.1552e-06
0.0610545
5.5465e-08
3.39951e-09
7.40551e-09
1.47307e-10
4.0069e-06
3.16045e-05
3.17137e-05
4.26422e-06
2.18796e-06
0.147401
1.07643e-06
1.14858e-06
4.2142e-08
2.04491e-10
9.47388e-07
2.4522e-05
3.51262e-05
3.86762e-06
2.15123e-06
0.115429
2.90385e-06
1.10393e-06
6.0925e-07
1.79607e-10
2.40441e-10
5.72481e-06
2.13788e-05
1.22665e-05
2.81689e-06
0.01931
9.06581e-07
9.63839e-08
3.10176e-06
1.39272e-10
9.16516e-11
9.12485e-13
1.98987e-06
7.60835e-06
7.32323e-06
0.0100658
5.27837e-06
3.73386e-08
4.23528e-06
5.60508e-09
9.12538e-13
4.9426e-13
1.14401e-14
3.83278e-08
1.54153e-07
0.0227326
7.19595e-05
4.39357e-07
3.16595e-06
1.47683e-07
5.08164e-12
1.14376e-14
3.32547e-16
2.75968e-16
2.76578e-16
0.929351
1
1
1
1
1
1
1
1
1
0.927634
1
0.999999
1
1
1
1
1
1
1
0.90932
0.999993
0.999983
0.999989
1
1
1
1
1
1
0.897761
0.999978
0.987627
0.992892
0.998741
0.999984
1
1
1
1
0.899649
0.999955
0.620849
0.556154
0.876628
0.999977
1
1
1
1
0.972679
0.960362
0.251341
0.108309
0.659506
0.999999
1
1
1
1
0.923028
0.284692
0.0025422
0.0290141
0.551472
1
1
1
0.999999
0.999984
0.214495
0.000373705
0.00118769
0.0103334
0.161031
0.427356
0.696479
0.979815
0.990914
0.95116
0.000373666
1.90667e-05
0.00120652
0.00386035
0.000473302
0.000479806
0.0615247
0.243835
0.368895
0.269704
0.0476336
1.90043e-06
0.000158904
3.05958e-05
0.000768384
0.000619491
5.28259e-06
5.19999e-07
2.85675e-07
2.77425e-07
0.0698927
1.84394e-06
3.22639e-07
4.686e-07
1.73287e-07
0.000260734
0.000381665
8.19869e-05
4.18927e-07
2.85675e-07
0.0697242
1.39213e-07
1.14531e-07
1.45674e-07
4.21803e-08
4.9743e-08
6.54511e-05
4.67265e-05
2.86712e-06
4.8305e-06
0.0397883
9.59787e-08
6.23643e-08
9.87631e-06
2.36584e-06
5.08103e-08
1.64539e-07
2.71687e-05
3.414e-05
8.10792e-06
0.0523218
5.5465e-08
2.60856e-08
1.58579e-05
4.07155e-06
2.5939e-06
5.46448e-06
3.54713e-05
3.48816e-05
5.36417e-06
0.157248
2.22102e-06
2.9369e-06
1.23647e-05
2.61453e-07
4.11791e-06
1.73373e-05
3.54713e-05
2.65169e-05
2.48633e-06
0.167981
0.000392442
0.000174843
7.71983e-06
4.70987e-09
7.72631e-07
9.10938e-06
3.54713e-05
2.32219e-05
2.14375e-06
0.167568
0.00248536
0.000756557
1.60244e-05
3.36405e-09
1.7435e-07
1.43396e-06
1.17075e-05
1.44076e-05
2.13163e-06
0.165153
0.00873072
0.00102564
5.80871e-05
6.56405e-09
2.4057e-08
1.36497e-11
2.97845e-09
5.32621e-07
2.12373e-06
0.103589
0.0189397
0.000346075
0.000155805
1.28183e-06
1.36497e-11
9.0854e-13
6.73045e-13
8.32059e-16
4.21314e-08
0.0767273
0.0280969
6.45572e-05
0.000252377
1.34664e-05
1.3146e-08
6.72471e-13
9.48959e-16
2.83191e-16
2.75964e-16
0.909676
0.990282
1
1
1
1
1
1
1
1
0.90962
0.994505
1
1
1
1
1
1
1
1
0.909483
0.999987
0.999981
0.999993
1
1
1
1
1
1
0.904338
0.999968
0.998857
0.99812
0.999273
0.999981
1
1
1
1
0.916586
0.9999
0.678152
0.593201
0.873843
0.999971
1
1
1
1
0.971142
0.928817
0.243274
0.0553536
0.587979
0.996031
1
1
1
1
0.934055
0.233598
0.00172127
0.0189864
0.455857
0.986797
1
1
0.999999
0.999984
0.29087
0.000849347
0.00116524
0.00466932
0.167282
0.45443
0.698055
0.978652
0.991273
0.951323
0.00041184
0.000141042
0.000983974
0.00441301
0.000755716
0.000569461
0.0742776
0.248318
0.37232
0.270176
0.00115279
0.000865341
0.00132343
0.000445858
0.000752726
0.000506528
4.41678e-06
4.22099e-07
2.77425e-07
2.73455e-07
0.00696626
0.0145756
0.00296746
9.3665e-06
2.55608e-06
9.00941e-05
0.000315935
4.19546e-05
3.3258e-07
2.77425e-07
0.0190654
0.0198692
0.00197338
4.72845e-07
1.73287e-07
7.25812e-08
4.92526e-07
6.89148e-06
1.58576e-06
3.62206e-06
0.125874
0.0171217
0.000459751
2.52694e-06
2.05351e-06
1.96445e-06
4.91861e-07
4.58567e-06
1.29401e-05
1.17448e-05
0.167534
0.031103
6.57784e-07
4.64628e-06
3.91122e-06
1.23414e-05
8.22632e-06
2.15749e-05
1.45235e-05
4.94049e-06
0.167965
0.0581265
1.07098e-05
6.57982e-06
1.9482e-06
1.22323e-05
1.01159e-05
3.33256e-05
1.84228e-05
2.18906e-06
0.16788
0.0722637
0.000171918
7.21375e-06
3.00029e-07
2.02677e-07
3.67666e-06
2.97908e-05
2.80064e-05
2.16776e-06
0.167947
0.0778495
0.00174807
6.21086e-06
1.60428e-07
1.31865e-07
5.05355e-10
1.0561e-05
2.28308e-05
3.11959e-06
0.167568
0.124377
0.0228754
1.046e-05
1.51417e-07
4.53791e-10
5.04688e-11
5.06097e-11
1.76199e-06
3.21689e-06
0.143746
0.171151
0.065121
0.000185952
1.68249e-06
1.66644e-08
1.52689e-12
5.19652e-13
6.51018e-14
1.69169e-09
0.135666
0.174505
0.0875738
0.000181571
6.95532e-06
1.14721e-07
4.45905e-10
6.73048e-13
9.5172e-16
2.64689e-16
0.99521
1
1
1
1
1
1
1
1
1
1
1
0.999992
0.999999
1
1
1
1
1
1
1
1
0.999993
0.999999
1
1
1
1
1
1
0.999998
0.999987
0.999825
0.999822
0.999963
0.999996
1
1
1
1
0.99995
0.997179
0.743279
0.87286
0.991854
0.999999
1
1
1
1
0.986271
0.612464
0.132196
0.433284
0.922429
1
1
1
1
1
0.414318
0.01645
0.0036495
0.165341
0.713446
1
1
1
1
0.999987
0.0373406
0.000166428
0.000849353
0.0232113
0.176162
0.435421
0.722629
0.988253
0.994046
0.955693
0.0337233
8.99607e-05
0.000835067
0.000397273
0.000280178
0.00169442
0.0887213
0.269586
0.392514
0.28126
0.00898623
8.17834e-05
0.000119745
6.03727e-05
0.00041092
2.61928e-05
1.65627e-06
3.38927e-07
2.73455e-07
2.71062e-07
6.14725e-05
8.82597e-05
0.000110926
3.30103e-05
4.06822e-05
0.000167298
0.000170015
3.90385e-05
3.29329e-07
2.73455e-07
1.43112e-05
0.000245249
4.23575e-05
9.1035e-05
1.38962e-05
4.92526e-07
7.20174e-07
2.61162e-06
1.0362e-06
3.97764e-06
6.46006e-06
3.12982e-05
5.58752e-05
9.77399e-05
4.85442e-05
2.93995e-07
4.38424e-06
8.68648e-07
8.68648e-07
1.01163e-05
0.000978235
1.14226e-07
4.74656e-05
9.8223e-05
4.14306e-05
6.17088e-07
1.00353e-05
1.23988e-06
8.6574e-07
9.806e-06
0.00855325
3.99729e-07
0.000118429
9.55775e-05
3.42802e-05
5.75769e-07
1.00773e-05
2.84289e-06
2.30416e-06
2.57471e-06
0.0232311
1.19926e-06
0.000379065
2.93722e-05
2.80854e-05
1.5768e-07
8.82015e-06
2.86989e-05
1.44738e-05
2.18906e-06
0.0283297
3.44703e-06
0.000755857
3.50168e-05
5.41455e-06
8.97694e-10
7.15027e-11
9.49121e-06
1.77278e-05
4.76222e-06
0.0224774
9.31016e-06
0.000757608
4.66437e-05
1.13681e-07
6.92142e-09
4.75942e-11
5.19652e-13
8.19941e-07
2.57934e-06
0.0148588
8.11314e-06
4.32633e-05
0.000141269
2.57229e-06
7.23967e-08
1.69465e-10
7.15374e-15
1.21659e-15
4.01823e-16
0.0422627
5.8948e-07
1.14865e-06
0.000339421
1.73501e-05
1.45628e-07
1.2043e-09
7.55451e-12
4.08249e-14
2.38958e-16
1
1
1
1
1
1
1
1
1
1
1
0.999985
0.999925
0.999983
1
1
1
1
1
1
0.999998
0.999994
0.999882
0.999956
1
1
1
1
1
1
0.99995
0.999942
0.999979
0.999998
1
1
1
1
1
1
0.906682
0.87946
0.940953
0.999619
0.999999
1
1
1
1
1
0.361499
0.217392
0.463695
0.908614
0.999998
1
1
1
1
1
0.00263285
0.0041803
0.173611
0.529511
0.886636
1
1
1
0.999997
0.999993
0.00133135
0.000849353
0.0119696
0.0634478
0.155415
0.463776
0.778595
0.998516
0.998118
0.966668
0.00374954
0.0010561
7.53631e-05
0.000160738
6.60752e-05
0.00783668
0.113482
0.316958
0.443298
0.315414
0.00635673
0.000179539
1.16545e-05
2.05588e-05
9.69954e-06
1.16022e-05
4.88408e-07
2.84517e-07
2.71062e-07
2.70752e-07
0.00117454
6.81082e-06
1.22172e-06
3.10061e-06
5.18437e-06
3.70959e-06
9.7751e-06
6.47363e-06
3.66519e-07
2.71062e-07
6.46006e-06
6.40459e-07
1.54357e-07
1.01365e-06
1.28498e-07
2.68612e-07
6.78842e-07
3.40561e-07
3.1895e-07
4.47719e-06
6.40459e-07
1.14226e-07
8.41887e-08
1.62834e-06
4.90289e-08
2.84908e-07
2.14801e-07
1.44542e-05
3.14219e-06
9.92473e-06
1.14226e-07
8.47742e-08
9.96375e-08
3.92074e-06
2.97936e-07
6.17114e-07
7.7524e-07
4.22015e-05
2.77782e-05
9.07773e-06
3.99715e-07
1.14223e-07
2.30259e-06
2.40431e-06
3.06023e-07
2.85649e-07
3.22749e-06
7.34881e-06
6.10868e-05
2.46997e-06
2.08376e-05
3.88583e-05
2.41635e-05
5.08197e-07
2.62346e-07
1.10616e-09
3.25383e-06
1.37621e-05
6.6127e-06
2.20542e-06
4.22102e-05
0.000190864
2.43709e-05
6.24985e-07
8.85583e-08
3.48243e-10
1.3891e-08
3.33609e-06
7.6062e-06
8.24009e-06
2.90256e-05
0.000197012
1.79288e-06
1.40382e-06
1.06514e-09
2.07953e-10
2.69577e-12
7.15374e-15
1.78236e-08
7.16558e-07
3.99643e-05
7.24299e-05
1.01028e-06
1.14467e-06
4.00717e-08
5.87229e-10
5.74435e-13
1.86856e-15
1.05821e-15
2.38957e-16
0.00488094
1.54722e-08
9.73727e-07
7.25667e-06
4.14935e-07
2.55274e-09
1.07527e-11
5.55868e-14
5.41705e-16
2.38958e-16
1
1
1
1
1
1
1
1
1
1
1
0.999998
0.99998
0.999993
1
1
1
1
1
1
0.999999
1
0.999952
0.999974
1
1
1
1
1
1
0.999869
0.999996
1
0.999988
0.999999
1
1
1
1
1
0.786089
0.946478
0.999989
0.999999
1
1
1
1
1
1
0.0856894
0.49789
0.932621
0.999997
1
1
1
1
1
1
0.00810673
0.167682
0.55018
0.802131
0.997235
1
1
1
0.999987
0.999998
0.00239399
0.0323492
0.0715583
0.0782563
0.261891
0.561078
0.871603
1
0.999967
0.978431
0.00242559
0.000758183
7.32681e-05
0.000160841
0.00138546
0.0351167
0.167079
0.41066
0.535301
0.394194
0.000341219
7.3271e-05
1.53514e-05
1.96915e-05
2.09089e-05
8.74231e-07
2.91631e-07
2.74515e-07
2.70718e-07
2.7076e-07
4.89383e-05
1.35341e-05
6.54892e-06
2.13836e-06
1.24916e-06
8.60369e-07
1.77496e-05
1.51954e-06
2.74515e-07
2.70718e-07
1.18189e-05
1.72065e-06
5.34345e-06
7.04008e-07
1.94724e-08
4.82432e-08
6.52281e-07
3.18263e-07
2.90266e-07
3.0851e-06
2.2756e-06
5.19653e-07
7.7162e-07
2.6225e-08
4.95177e-09
6.38974e-09
7.37056e-09
3.29885e-05
3.12841e-06
9.68108e-06
3.62862e-06
4.45566e-06
7.97786e-10
1.12215e-09
2.57053e-09
4.95177e-09
7.39105e-06
7.54764e-05
4.39217e-05
2.37605e-06
5.66703e-05
2.1132e-05
7.40991e-10
1.96565e-09
4.31946e-09
5.44837e-09
1.20706e-08
6.39942e-05
8.34924e-05
3.1106e-06
8.10512e-05
4.34238e-05
8.54792e-10
5.6156e-09
4.18846e-09
6.98851e-09
1.59431e-07
8.45958e-07
5.80493e-05
2.50098e-05
1.95651e-05
0.00014444
3.24389e-06
4.70501e-09
1.73335e-09
1.10616e-09
2.39974e-08
4.58445e-06
8.73446e-06
8.04912e-06
6.00258e-06
0.0001974
1.94222e-05
1.54746e-09
5.13287e-10
2.87284e-10
1.04065e-10
6.64068e-12
3.81854e-14
2.25413e-15
1.38026e-06
4.62107e-05
1.61133e-05
1.39404e-10
3.48402e-10
4.86954e-11
2.68733e-12
7.15352e-15
1.1336e-15
3.19029e-16
-1.8353e-08
-7.98619e-12
1.68732e-06
3.25689e-10
8.61457e-11
6.21431e-11
9.24044e-13
1.02464e-14
3.19027e-16
2.38958e-16
1
1
1
1
1
1
1
1
1
1
1
1
1
1
1
1
1
1
1
1
1
1
1
1
1
1
1
1
1
1
0.999844
0.999993
1
0.999999
1
1
1
1
1
1
0.943493
0.998281
1
1
1
1
1
1
1
1
0.593153
0.920166
0.999996
1
1
1
1
1
1
1
0.383408
0.714374
0.908743
1
1
1
1
1
0.999995
1
0.156138
0.246558
0.201134
0.279153
0.479385
0.721576
0.979435
1
0.999997
0.975606
0.00375292
0.000492001
0.00116217
0.00327303
0.0217926
0.089993
0.278845
0.558417
0.685389
0.551674
6.73231e-05
2.86322e-05
1.88012e-05
1.20718e-05
5.28182e-05
1.47027e-05
8.74234e-07
0.00811273
0.0114158
0.00391686
4.06925e-06
3.6399e-06
6.0734e-06
3.40282e-06
2.62604e-06
2.30713e-05
1.19722e-06
2.96984e-07
2.72901e-07
2.72443e-07
5.26732e-07
2.66429e-07
5.19927e-06
1.20744e-06
5.04768e-09
6.30292e-07
3.61665e-07
3.03993e-07
2.93435e-07
2.73054e-07
1.11654e-07
6.77854e-08
1.25564e-07
1.12215e-09
2.57053e-09
5.04768e-09
5.7042e-05
1.01194e-05
3.15991e-07
2.42437e-06
4.46569e-05
7.97786e-10
7.40991e-10
7.97787e-10
1.12215e-09
1.78604e-08
0.000135007
5.41963e-05
3.94688e-07
2.33876e-06
0.00018245
7.40991e-10
7.40991e-10
1.65244e-09
2.29013e-09
1.60869e-05
0.000100125
0.000114694
7.91268e-05
2.3699e-06
0.000183192
9.63266e-10
5.54174e-10
8.54792e-10
8.30091e-09
2.30106e-05
5.41098e-05
2.31518e-05
8.36306e-05
3.3104e-05
0.000156683
5.61662e-10
2.26808e-10
9.46429e-10
1.08041e-08
4.17547e-06
1.29627e-05
7.46932e-07
4.36953e-07
3.91127e-06
7.30693e-10
4.77278e-12
5.90381e-11
6.68011e-09
1.61133e-09
2.67703e-08
3.66688e-08
2.51199e-08
1.41884e-10
2.88817e-12
2.14091e-12
6.64691e-13
2.14115e-12
7.98123e-11
3.04726e-10
5.86566e-10
1.70747e-08
7.51293e-08
3.71218e-14
2.27084e-15
6.64686e-13
3.95634e-13
6.64691e-13
5.61099e-12
1.89772e-10
8.61453e-11
1.11113e-07
3.55293e-07
1.00952e-14
3.19028e-16
1
1
1
1
1
1
1
1
1
1
1
1
1
1
1
1
1
1
1
1
1
1
1
1
1
1
1
1
1
1
0.999979
0.999998
1
1
1
1
1
1
1
1
0.999957
1
1
1
1
1
1
1
1
1
0.995684
0.999998
1
1
1
1
1
1
1
1
0.979641
1
1
1
1
1
1
1
1
1
0.508093
0.506978
0.49977
0.574507
0.724125
0.933734
1
1
1
0.989901
0.022307
0.0258219
0.02645
0.0435736
0.0941928
0.23595
0.498455
0.742025
0.865009
0.748177
8.22974e-06
4.09343e-06
5.53025e-06
6.27302e-07
1.19831e-05
0.000214066
0.0231393
0.0776087
0.101677
0.0638451
1.93422e-06
8.19175e-07
2.40438e-06
5.24263e-06
1.90883e-05
1.92721e-06
7.76993e-06
8.36125e-07
2.93396e-07
2.0947e-07
2.28388e-07
1.90526e-07
2.66908e-06
1.47208e-06
8.3319e-07
9.40527e-07
9.94292e-07
3.67844e-07
3.01919e-07
3.31388e-07
1.31006e-07
8.30835e-08
8.26092e-08
6.62776e-09
5.04768e-09
6.07025e-05
3.62987e-05
2.25915e-06
3.9462e-07
1.5518e-06
4.09059e-06
3.74978e-06
1.17786e-07
1.12215e-09
1.9439e-05
0.000194448
0.000108253
1.92682e-06
1.4759e-06
1.11577e-05
1.26821e-05
9.12191e-10
7.40991e-10
1.96577e-09
6.76704e-05
0.000271692
0.000256322
9.5956e-06
2.90796e-05
7.61438e-05
3.86301e-05
5.9584e-08
8.54792e-10
1.71472e-08
6.93468e-05
0.000272606
0.000271737
0.000190247
6.16168e-05
2.89691e-05
8.00899e-05
9.36605e-07
7.30165e-10
1.42185e-08
2.6182e-05
0.000195091
0.000259308
9.51595e-05
2.53219e-06
2.47464e-09
7.91688e-05
8.47392e-11
2.30774e-10
2.17914e-09
3.61172e-06
4.7469e-05
8.31046e-05
7.58716e-06
2.0185e-09
1.44738e-10
2.66191e-05
4.62092e-13
1.2595e-08
2.33636e-10
8.27286e-08
9.03344e-07
2.57662e-06
1.26137e-06
9.94187e-07
1.113e-08
3.2749e-13
3.85659e-13
6.33565e-12
4.09638e-12
4.14086e-11
1.01574e-08
4.86096e-07
3.26553e-06
1.91758e-06
1.19009e-09
1
1
1
1
1
1
1
1
1
1
1
1
1
1
1
1
1
1
1
1
1
1
1
1
1
1
1
1
1
1
1
1
1
1
1
1
1
1
1
1
1
1
1
1
1
1
1
1
1
1
1
1
1
1
1
1
1
1
1
1
1
1
1
1
1
1
1
1
1
1
0.715883
0.73299
0.783921
0.871856
0.976901
1
1
1
1
1
0.100648
0.106816
0.129562
0.177773
0.288309
0.502505
0.743649
0.916373
0.999999
0.949064
7.19247e-07
5.98269e-07
5.63264e-07
5.24241e-07
6.27161e-07
0.0234215
0.111707
0.268248
0.388965
0.301365
1.76971e-05
8.58133e-06
5.82813e-06
1.90694e-06
7.32846e-07
6.6699e-06
3.54099e-05
9.4636e-06
0.00568042
0.000671583
1.07248e-05
1.02508e-05
2.3631e-07
5.26844e-07
5.58857e-07
7.19613e-07
1.13703e-05
1.5004e-06
1.83225e-05
3.39052e-05
3.2306e-05
2.47964e-05
9.33879e-08
4.90179e-07
1.82227e-05
1.06343e-05
1.323e-05
2.81697e-06
1.75e-06
4.28779e-06
3.65408e-05
1.89666e-05
1.83953e-07
1.03085e-05
7.65251e-05
0.00014546
2.35967e-05
2.82508e-06
1.92682e-06
1.48097e-05
1.39225e-05
1.0701e-05
1.84262e-06
3.83352e-05
0.000255719
0.000267764
0.000143722
4.55037e-06
0.000145726
0.0004527
4.88559e-06
1.19327e-05
1.77516e-08
3.43194e-05
0.000271195
0.000274385
0.000271195
0.000184368
9.06452e-05
5.47783e-05
5.55839e-07
6.13478e-07
1.42185e-08
2.96341e-06
0.00017738
0.00027337
0.000274385
0.000245891
1.92814e-05
1.28115e-08
1.91642e-07
9.39551e-12
6.21389e-10
2.19584e-08
2.60638e-05
0.000236461
0.000270653
5.22145e-05
1.23553e-08
2.47464e-09
4.90526e-12
1.02514e-12
1.33841e-11
6.24457e-10
2.17589e-07
1.72458e-05
4.33358e-05
4.50857e-07
3.306e-07
3.27643e-07
1.13463e-08