/*--------------------------------*- C++ -*----------------------------------*\
| =========                 |                                                 |
| \\      /  F ield         | OpenFOAM: The Open Source CFD Toolbox           |
|  \\    /   O peration     | Version:  2312                                  |
|   \\  /    A nd           | Website:  www.openfoam.com                      |
|    \\/     M anipulation  |                                                 |
\*---------------------------------------------------------------------------*/
FoamFile
{
    version     2.0;
    format      ascii;
    arch        "LSB;label=32;scalar=64";
    class       volScalarField;
    location    "0.485";
    object      p;
}
// * * * * * * * * * * * * * * * * * * * * * * * * * * * * * * * * * * * * * //

dimensions      [1 -1 -2 0 0 0 0];

internalField   nonuniform List<scalar> 
8000
(
361.418
361.859
362.911
364.488
366.442
368.577
370.672
372.484
373.833
374.601
312.82
313.282
314.389
316.058
318.146
320.438
322.698
324.665
326.118
326.969
264.593
265.114
266.355
268.227
270.602
273.222
275.815
278.09
279.76
280.752
217.071
217.67
219.086
221.214
224.003
227.103
230.207
232.961
234.954
236.162
170.245
170.912
172.471
174.767
178.305
182.145
186.036
189.48
191.839
193.387
123.679
124.498
126.517
129.945
133.898
138.547
143.571
148.109
151.361
153.229
76.7928
77.7764
80.116
84.0731
89.491
95.944
103.014
109.176
113.591
115.799
32.1126
32.7451
34.4835
38.1767
45.2462
54.9723
64.2152
73.049
79.5181
82.2626
4.99959
5.19735
5.8112
7.18777
10.4284
17.9367
29.5509
41.8784
51.487
56.4451
-0.202149
-0.189394
-0.166012
-0.136605
-0.0901013
0.277531
5.00648
15.4144
27.5414
35.4717
-0.250794
-0.242767
-0.226259
-0.204262
-0.175191
-0.242986
-0.31681
0.345082
9.42541
19.8846
-0.32321
-0.320548
-0.31363
-0.303134
-0.298417
-0.332146
-0.393152
-0.715322
1.14817
16.3675
-0.406194
-0.405241
-0.403035
-0.397345
-0.3921
-0.395011
-0.366708
-0.413707
0.921083
14.3256
-0.474228
-0.472804
-0.471179
-0.468927
-0.467854
-0.476165
-0.482044
-0.597842
-0.703801
-0.601159
-0.531986
-0.53047
-0.530119
-0.533258
-0.545126
-0.577415
-0.622011
-0.679077
-0.711852
-0.686988
-0.586707
-0.587072
-0.5904
-0.599034
-0.619304
-0.661806
-0.720463
-0.716976
-0.675109
-0.663452
-0.64162
-0.643722
-0.649341
-0.66082
-0.68065
-0.716007
-0.754794
-0.723829
-0.687411
-0.685421
-0.696161
-0.698582
-0.704582
-0.716294
-0.734063
-0.758411
-0.768639
-0.73521
-0.72345
-0.739371
-0.748907
-0.751174
-0.756064
-0.76597
-0.78121
-0.801909
-0.811836
-0.790094
-0.78602
-0.790811
-0.800263
-0.802004
-0.805332
-0.812384
-0.823262
-0.837003
-0.858049
-0.854692
-0.849349
-0.842194
360.271
360.717
361.801
363.431
365.451
367.651
369.809
371.665
373.049
373.843
311.542
312.01
313.158
314.892
317.063
319.429
321.756
323.77
325.25
326.129
263.173
263.682
264.954
266.871
269.36
272.074
274.745
277.075
278.769
279.78
215.338
215.907
217.371
219.671
222.56
225.766
228.954
231.779
233.796
234.997
168.264
168.894
170.502
172.995
176.672
180.655
184.591
188.137
190.483
191.903
121.882
122.585
124.533
127.902
132.074
136.998
142.037
146.634
149.728
151.472
74.7713
75.7645
78.1334
82.2516
88.0229
94.9333
101.756
107.692
111.88
113.75
33.5599
34.3007
36.1858
39.0267
45.1641
54.4993
63.9741
72.1131
77.8696
79.7539
7.83314
8.23767
9.42571
11.5364
15.4335
21.0175
30.5284
40.7653
48.5256
51.933
-0.252992
-0.243071
-0.220607
-0.195166
-0.0803749
1.08374
6.862
15.5606
24.1638
28.2808
-0.27874
-0.272375
-0.257289
-0.236494
-0.192318
-0.26453
-0.383442
2.58564
11.4313
9.90166
-0.34455
-0.343893
-0.339135
-0.331936
-0.330532
-0.357749
-0.461406
-0.688606
-0.465349
1.21503
-0.420212
-0.421726
-0.423587
-0.420477
-0.41536
-0.423102
-0.451495
-0.539448
-0.46593
0.870666
-0.480678
-0.482252
-0.48338
-0.481481
-0.479138
-0.483768
-0.503883
-0.543658
-0.600131
-0.706179
-0.538471
-0.538253
-0.537497
-0.541277
-0.5546
-0.57714
-0.606724
-0.620689
-0.643409
-0.7205
-0.591367
-0.591934
-0.595388
-0.606927
-0.633997
-0.682138
-0.71088
-0.701009
-0.669135
-0.679598
-0.642948
-0.645212
-0.65173
-0.666433
-0.69238
-0.747854
-0.783096
-0.757776
-0.707056
-0.691056
-0.695809
-0.698494
-0.705008
-0.71954
-0.74019
-0.785237
-0.823232
-0.786928
-0.751833
-0.733115
-0.747805
-0.750384
-0.754478
-0.765681
-0.78094
-0.81169
-0.852264
-0.830694
-0.818006
-0.792193
-0.798968
-0.800627
-0.803465
-0.810219
-0.817486
-0.828162
-0.857064
-0.870275
-0.871372
-0.853856
358.056
358.514
359.672
361.422
363.589
365.944
368.246
370.216
371.678
372.505
309.145
309.629
310.864
312.734
315.06
317.599
320.085
322.221
323.785
324.692
260.452
260.98
262.363
264.468
267.116
270.017
272.863
275.322
277.096
278.132
212.169
212.762
214.353
216.8
219.929
223.363
226.761
229.732
231.815
233.036
164.534
165.189
166.835
169.771
173.749
177.883
182.04
185.753
188.19
189.588
118.066
118.636
120.232
123.47
128.126
133.518
138.958
143.885
146.719
148.292
70.6395
71.3623
73.469
78.3033
84.283
91.1458
98.0157
103.986
107.985
109.537
32.1985
32.6997
34.6303
37.4399
43.9343
51.6905
60.2173
67.6567
72.6568
73.6502
5.77496
6.1687
7.24335
9.44536
13.2074
18.6511
27.1512
35.7696
41.292
42.9758
-0.283935
-0.276517
-0.259219
-0.238837
-0.168652
1.06277
5.86947
12.036
16.2973
16.6049
-0.31812
-0.311493
-0.299111
-0.290388
-0.291931
-0.326243
-0.355592
-0.239799
2.97294
0.205293
-0.355788
-0.354112
-0.351118
-0.352071
-0.363634
-0.400579
-0.452038
-0.595573
-0.670929
-0.750284
-0.417007
-0.419205
-0.423664
-0.430928
-0.439269
-0.456452
-0.478089
-0.503098
-0.534519
-0.424542
-0.471003
-0.471772
-0.473807
-0.479663
-0.491053
-0.501571
-0.517006
-0.525273
-0.544068
-0.601193
-0.526821
-0.527966
-0.531648
-0.539205
-0.55597
-0.568349
-0.579926
-0.587369
-0.618201
-0.674239
-0.583424
-0.585713
-0.590908
-0.602215
-0.625618
-0.65302
-0.659912
-0.662951
-0.694108
-0.698511
-0.638438
-0.641269
-0.647727
-0.660933
-0.68434
-0.726086
-0.73675
-0.731444
-0.744497
-0.711969
-0.692257
-0.695507
-0.70153
-0.714369
-0.74072
-0.778609
-0.79943
-0.782491
-0.781653
-0.738989
-0.74486
-0.747545
-0.75131
-0.761655
-0.78096
-0.810963
-0.832128
-0.822513
-0.82476
-0.802898
-0.7964
-0.79804
-0.800087
-0.805342
-0.811377
-0.822519
-0.833868
-0.841352
-0.847495
-0.857738
354.974
355.44
356.718
358.655
361.043
363.623
366.128
368.258
369.836
370.706
305.727
306.216
307.585
309.677
312.262
315.063
317.783
320.101
321.787
322.742
256.359
256.858
258.412
260.813
263.799
267.05
270.202
272.883
274.789
275.882
207.065
207.506
209.288
212.172
215.742
219.701
223.525
226.791
229.023
230.326
158.005
158.434
160.666
164.167
168.327
173.336
178.014
182.064
184.691
186.228
108.668
109.4
112.009
116.091
121.588
127.992
133.561
138.891
142.266
143.902
60.7532
61.6942
64.2468
69.024
76.0773
84.182
91.8563
98.1694
102.182
103.653
22.2296
22.3012
23.0372
25.8116
33.3145
42.6654
52.1885
60.5057
64.631
64.9749
2.26316
2.41682
2.82191
3.96574
6.40399
11.4394
18.9857
27.5362
31.5042
31.2421
-0.375223
-0.344894
-0.314608
-0.269429
-0.246026
0.0293163
2.21615
6.1721
7.64901
5.94416
-0.356135
-0.354616
-0.341598
-0.32914
-0.319735
-0.350707
-0.358558
-0.347866
-0.399846
-0.329136
-0.35742
-0.34909
-0.342018
-0.349812
-0.36351
-0.388597
-0.424671
-0.453494
-0.466102
-0.404776
-0.408193
-0.405551
-0.40821
-0.422355
-0.439861
-0.458426
-0.47842
-0.487581
-0.466552
-0.371678
-0.459124
-0.457986
-0.46035
-0.470404
-0.491462
-0.512463
-0.527061
-0.528578
-0.517087
-0.480407
-0.516163
-0.517059
-0.520422
-0.529239
-0.545444
-0.565418
-0.579028
-0.58665
-0.600864
-0.605747
-0.573763
-0.576792
-0.581135
-0.589718
-0.605263
-0.628953
-0.645371
-0.661033
-0.689968
-0.68849
-0.631619
-0.634997
-0.639664
-0.650985
-0.667534
-0.695391
-0.71684
-0.732269
-0.755079
-0.718761
-0.687257
-0.690775
-0.69449
-0.705887
-0.724477
-0.755567
-0.780017
-0.791099
-0.791535
-0.751682
-0.740561
-0.743379
-0.74561
-0.754381
-0.766885
-0.791924
-0.818055
-0.823919
-0.811274
-0.805991
-0.792788
-0.794295
-0.795289
-0.799887
-0.803616
-0.811696
-0.833613
-0.847832
-0.838778
-0.846658
351.198
351.695
353.148
355.336
358.01
360.878
363.639
365.971
367.69
368.621
301.507
302.003
303.582
305.982
308.913
312.058
315.08
317.63
319.476
320.497
251.198
251.664
253.521
256.321
259.782
263.507
267.067
270.051
272.136
273.308
200.142
200.692
202.94
206.353
210.632
215.288
219.716
223.412
225.869
227.262
148.441
149.562
152.098
156.122
161.579
167.671
173.342
177.948
180.803
182.426
94.2638
96.8982
100.386
105.851
112.741
120.479
127.938
133.604
137.312
139.01
45.5876
47.6906
50.5939
56.215
64.4264
75.5745
84.3068
91.4499
95.6105
96.8476
13.4627
13.6023
12.8485
15.1345
21.4006
31.8029
42.8248
52.233
55.494
55.6704
-0.114487
0.0252554
0.315408
0.690556
2.0538
5.24375
11.5676
19.3562
22.5182
19.9812
-0.475629
-0.436586
-0.359388
-0.317647
-0.277772
-0.224822
0.08283
1.50734
1.71611
0.759817
-0.322655
-0.340495
-0.321256
-0.326799
-0.329163
-0.307827
-0.347592
-0.303132
-0.252804
-0.221387
-0.342679
-0.328803
-0.319733
-0.330524
-0.346245
-0.358006
-0.382762
-0.399161
-0.361098
-0.313969
-0.393555
-0.378979
-0.37644
-0.386904
-0.405618
-0.426899
-0.448361
-0.466107
-0.449351
-0.400213
-0.443284
-0.437254
-0.438583
-0.449125
-0.465513
-0.484564
-0.499883
-0.517693
-0.511204
-0.478792
-0.499956
-0.500931
-0.503879
-0.513717
-0.528094
-0.543295
-0.555655
-0.570059
-0.576351
-0.56099
-0.560522
-0.565204
-0.567848
-0.576626
-0.59052
-0.608127
-0.621543
-0.634986
-0.648401
-0.630618
-0.623414
-0.628188
-0.62909
-0.637897
-0.650638
-0.675747
-0.692776
-0.698984
-0.698151
-0.68319
-0.682425
-0.686515
-0.685678
-0.694668
-0.706336
-0.730605
-0.756899
-0.757231
-0.746754
-0.735447
-0.736953
-0.739464
-0.738043
-0.744769
-0.752651
-0.770047
-0.797706
-0.801045
-0.787786
-0.786494
-0.789776
-0.789924
-0.788784
-0.792591
-0.796074
-0.801789
-0.824125
-0.8334
-0.82805
-0.830889
347.279
347.745
349.415
351.883
354.872
358.05
361.084
363.629
365.498
366.49
297.057
297.456
299.277
302.083
305.418
308.949
312.3
315.102
317.125
318.209
245.316
245.685
248.165
251.471
255.523
259.805
263.823
267.147
269.417
270.685
191.231
191.779
195.401
199.89
205.126
210.626
215.743
219.956
222.667
224.165
136.532
138.106
142.019
147.477
154.257
161.54
168.321
173.804
176.862
178.612
64.7674
76.0774
85.6234
93.6361
102.897
112.747
121.503
128.194
132.426
134.432
14.1642
22.9129
33.1142
41.2064
52.2555
64.5266
76.1503
84.585
88.9512
90.6869
2.3513
3.37757
5.28632
6.57856
11.9669
21.2773
33.4406
44.3518
46.642
47.4268
0.284469
-0.26078
0.0259125
0.0413702
0.362278
2.00976
6.56021
14.1749
17.319
12.4063
-0.143818
-0.328773
-0.254889
-0.252472
-0.278277
-0.25979
-0.212002
-0.113644
-0.0187463
-0.0539764
-0.267604
-0.277847
-0.266802
-0.280725
-0.314237
-0.323243
-0.311773
-0.289026
-0.215896
-0.187426
-0.322545
-0.285094
-0.281747
-0.291408
-0.315976
-0.334105
-0.346155
-0.362048
-0.352539
-0.306326
-0.370636
-0.341912
-0.341423
-0.349905
-0.370167
-0.394631
-0.414249
-0.432478
-0.440598
-0.405807
-0.423204
-0.410165
-0.412073
-0.421489
-0.438151
-0.456918
-0.473072
-0.488721
-0.503697
-0.475553
-0.485789
-0.481589
-0.483297
-0.491127
-0.50427
-0.520723
-0.534832
-0.547338
-0.551201
-0.535816
-0.556542
-0.553715
-0.552597
-0.558647
-0.570097
-0.584607
-0.597742
-0.609403
-0.609521
-0.599393
-0.63088
-0.623917
-0.618137
-0.62271
-0.632206
-0.645715
-0.659949
-0.66731
-0.669116
-0.661313
-0.691675
-0.685066
-0.677412
-0.680803
-0.688979
-0.702501
-0.715569
-0.72065
-0.720566
-0.716925
-0.741951
-0.734905
-0.729981
-0.73271
-0.739577
-0.749488
-0.7643
-0.76803
-0.76786
-0.767712
-0.789803
-0.781901
-0.779539
-0.782156
-0.78768
-0.792573
-0.803782
-0.811631
-0.813864
-0.814764
343.568
343.995
346.093
348.695
351.996
355.462
358.739
361.476
363.48
364.523
292.818
293.098
295.445
298.458
302.201
306.104
309.753
312.788
314.997
316.111
239.708
239.706
242.831
246.816
251.556
256.402
260.846
264.476
266.874
268.278
185.058
181.856
187.111
193.104
199.796
206.288
212.097
216.74
219.713
221.348
127.01
131.03
131.763
137.911
146.955
155.837
163.857
169.704
173.208
175.151
35.0771
40.7075
65.0242
79.5207
92.9258
105.224
115.584
123.278
128.08
130.333
6.28207
4.14561
14.5901
26.3607
40.4628
55.4995
68.6375
78.4172
83.0193
85.3016
1.70597
0.955095
1.55914
2.49374
6.07864
14.3463
25.1549
37.9705
40.1172
40.6432
0.740811
0.158512
0.134825
0.153823
0.0672649
0.462155
3.93951
10.2991
13.3303
9.01193
0.107359
-0.113484
-0.0765203
-0.127333
-0.221311
-0.302121
-0.245277
-0.216983
-0.186926
-0.143432
-0.28779
-0.164768
-0.17586
-0.223423
-0.277615
-0.314056
-0.317688
-0.278293
-0.239631
-0.211101
-0.325108
-0.206223
-0.237392
-0.256969
-0.290439
-0.317882
-0.330197
-0.336748
-0.329329
-0.300945
-0.338758
-0.292532
-0.307834
-0.317221
-0.34363
-0.373723
-0.39707
-0.411129
-0.420964
-0.396447
-0.396938
-0.375848
-0.384619
-0.394282
-0.414537
-0.437503
-0.457542
-0.470221
-0.495282
-0.472885
-0.477917
-0.455732
-0.461493
-0.46723
-0.484179
-0.502776
-0.520512
-0.534706
-0.550899
-0.530663
-0.556486
-0.532431
-0.537311
-0.539228
-0.552104
-0.566408
-0.580996
-0.59423
-0.600256
-0.58683
-0.655138
-0.6139
-0.609948
-0.606619
-0.616032
-0.626905
-0.638669
-0.647677
-0.650923
-0.644453
-0.71517
-0.683151
-0.672437
-0.666719
-0.673826
-0.682485
-0.693022
-0.699554
-0.702289
-0.700692
-0.746894
-0.723768
-0.720832
-0.718851
-0.726638
-0.734109
-0.743771
-0.749688
-0.752169
-0.752734
-0.782758
-0.762806
-0.764003
-0.768834
-0.777611
-0.783994
-0.792091
-0.798441
-0.801321
-0.802449
340.543
341.093
343.63
346.133
349.712
353.42
356.863
359.728
361.812
362.903
289.242
289.99
292.59
295.609
299.645
303.892
307.731
310.911
313.174
314.386
235.607
235.121
238.271
242.874
248.523
253.79
258.505
262.355
264.939
266.352
179.949
177.978
179.135
186.429
195.28
202.903
209.192
214.201
217.354
219.124
111.839
119.051
123.392
126.96
139.841
151.201
160.012
166.608
170.489
172.593
35.5894
24.9942
37.7165
62.3685
83.1193
98.69
110.796
119.565
124.582
126.915
6.64908
2.92903
5.23802
15.0448
31.1081
48.8654
63.159
73.2567
78.6586
81.2142
1.52737
0.47616
0.698201
1.34396
3.6503
10.757
21.8087
34.2599
37.1588
36.5418
0.0347143
-0.011337
0.0926473
0.00648044
0.00805658
-0.0198482
2.35279
7.82868
11.0338
7.41257
0.581047
-0.00765144
-0.0545201
-0.166073
-0.22335
-0.294198
-0.280613
-0.220669
-0.200587
-0.161215
0.375448
-0.0160185
-0.116537
-0.214353
-0.278914
-0.302982
-0.327947
-0.285954
-0.249631
-0.221851
-0.190893
-0.124403
-0.197252
-0.243525
-0.289439
-0.313494
-0.327241
-0.328727
-0.319938
-0.29777
-0.261958
-0.240733
-0.276342
-0.296406
-0.33397
-0.364926
-0.388965
-0.401321
-0.406776
-0.386016
-0.314223
-0.324397
-0.354396
-0.372291
-0.40129
-0.426833
-0.449674
-0.460854
-0.475329
-0.464812
-0.41265
-0.411788
-0.437378
-0.446251
-0.469519
-0.490261
-0.5119
-0.522431
-0.539856
-0.525627
-0.520736
-0.498133
-0.521449
-0.518489
-0.538114
-0.55254
-0.568975
-0.581649
-0.592225
-0.578738
-0.686453
-0.601457
-0.60375
-0.590028
-0.603238
-0.612394
-0.623708
-0.632349
-0.637775
-0.633131
-0.771318
-0.685452
-0.669858
-0.651857
-0.662448
-0.669057
-0.678054
-0.684799
-0.688875
-0.688301
-0.74711
-0.695113
-0.711116
-0.701527
-0.714922
-0.7218
-0.73137
-0.736897
-0.740601
-0.741625
-0.779124
-0.692097
-0.73925
-0.749415
-0.766243
-0.773768
-0.783534
-0.788339
-0.791675
-0.793182
338.187
338.862
342.069
344.85
348.471
352.171
355.646
358.553
360.668
361.78
285.932
286.864
290.936
294.341
298.541
302.681
306.465
309.666
311.957
313.197
230.004
229.986
235.223
241.073
246.84
252.386
257.096
260.96
263.594
265.02
167.485
168.408
173.287
182.359
193.059
201.049
207.461
212.581
215.777
217.594
90.8967
99.5819
102.838
115.054
133.922
147.848
157.376
164.833
168.676
170.815
41.9981
25.7152
15.3437
37.6102
73.5822
93.2025
107.376
117.337
122.295
124.681
38.8498
2.75935
3.12214
6.4903
24.2782
44.7758
59.6366
70.4378
75.9195
78.6156
6.14435
0.374558
0.36431
0.268423
3.66109
9.86462
19.4578
31.2583
34.8294
34.4211
0.19452
-0.141318
0.0546614
-0.239402
-0.119879
0.0370999
1.31201
6.45928
9.69635
6.63211
1.47081
0.0358093
0.0153192
-0.228015
-0.315548
-0.275792
-0.272775
-0.225172
-0.210693
-0.18168
2.4721
0.0410192
-0.0915514
-0.222061
-0.305259
-0.303723
-0.318891
-0.297885
-0.261065
-0.235078
1.0459
-0.0649192
-0.160015
-0.238181
-0.296671
-0.325654
-0.338069
-0.333114
-0.320619
-0.30094
-0.316024
-0.192401
-0.238072
-0.281662
-0.329254
-0.362585
-0.38452
-0.393952
-0.397461
-0.381529
-0.251869
-0.272353
-0.318111
-0.349788
-0.388582
-0.418011
-0.441716
-0.452898
-0.463592
-0.455935
0.00809229
-0.341979
-0.401951
-0.419987
-0.45499
-0.478799
-0.503006
-0.512898
-0.525623
-0.519211
1.86604
-0.411648
-0.493441
-0.4935
-0.524613
-0.541517
-0.559551
-0.570148
-0.580585
-0.572413
0.828911
-0.568886
-0.59058
-0.57226
-0.591352
-0.600984
-0.61382
-0.623115
-0.629273
-0.625552
-0.593503
-0.628189
-0.662502
-0.634577
-0.651204
-0.657235
-0.667771
-0.675145
-0.679905
-0.680272
-0.685456
-0.54191
-0.686838
-0.674155
-0.701365
-0.710448
-0.722086
-0.728336
-0.732715
-0.734221
-0.72617
-0.562862
-0.669854
-0.721066
-0.750547
-0.764534
-0.774516
-0.780916
-0.784887
-0.78685
338.051
338.827
342.729
345.695
348.676
351.958
355.218
358.04
360.128
361.234
286.275
284.942
291.559
295.417
299.034
302.565
306.04
309.127
311.384
312.619
231.273
222.673
233.874
243.734
248.086
252.42
256.711
260.371
262.957
264.358
173.582
153.085
159.758
179.122
193.197
200.732
206.912
211.848
215.006
216.794
114.2
89.3969
78.7483
86.8037
124.075
145.482
156.099
163.602
167.728
169.946
83.8554
42.4841
17.0685
30.2739
60.4517
88.4444
104.892
116.043
121.113
123.579
87.5223
9.66036
2.14535
7.83752
17.6368
42.1506
57.3838
69.0149
74.5762
77.3516
19.3068
0.867301
0.0374359
0.323181
4.1729
10.6508
18.6914
31.0898
33.886
33.4929
1.30617
0.0797222
0.334334
-0.169976
-0.147991
0.318572
1.37606
5.95972
9.22284
6.34973
0.198653
0.0398713
0.132425
-0.0762396
-0.329555
-0.199805
-0.20315
-0.206859
-0.202137
-0.188817
1.15527
0.0279301
-0.134224
-0.133883
-0.260603
-0.273582
-0.285669
-0.292536
-0.266939
-0.244673
1.44271
-0.0435623
-0.169911
-0.211836
-0.275833
-0.316544
-0.336292
-0.339928
-0.328772
-0.309532
0.0321667
-0.133388
-0.2221
-0.268721
-0.319918
-0.357886
-0.384103
-0.395569
-0.398428
-0.384957
0.128029
-0.18866
-0.27525
-0.33031
-0.378909
-0.413721
-0.440072
-0.450592
-0.459951
-0.454591
2.50272
-0.18667
-0.337697
-0.402453
-0.445484
-0.473937
-0.499136
-0.50852
-0.52048
-0.516545
4.17111
-0.311455
-0.442364
-0.486106
-0.51605
-0.535275
-0.554903
-0.566521
-0.576558
-0.570012
2.76134
-0.665889
-0.587026
-0.574482
-0.584408
-0.595782
-0.609216
-0.61917
-0.625328
-0.62252
1.61162
-0.820771
-0.721578
-0.637131
-0.643666
-0.653015
-0.66313
-0.670851
-0.675769
-0.676498
0.153376
-0.667653
-0.754439
-0.675544
-0.695572
-0.707326
-0.717939
-0.724435
-0.728823
-0.730334
-0.261247
-0.665229
-0.755157
-0.757402
-0.75776
-0.765507
-0.773555
-0.778968
-0.782223
-0.783537
338.507
338.583
342.4
345.586
348.584
351.964
355.26
358.089
360.173
361.276
286.939
285.717
291.695
295.444
298.999
302.535
306.037
309.169
311.426
312.657
232.594
226.617
237.409
244.743
248.197
252.513
256.783
260.417
262.994
264.392
177.807
158.917
169.861
184.427
194.555
201.126
207.014
211.876
215.033
216.819
129.552
101.679
88.1406
82.3484
123.427
146.247
156.051
163.568
167.736
169.962
122.148
63.8397
20.3977
29.2692
55.2832
90.0367
103.494
115.826
121.077
123.575
102.339
13.4875
2.04047
6.3366
14.3439
41.5652
57.067
69.0871
74.6213
77.3575
12.4392
1.33082
0.245623
0.285558
4.07772
11.9547
19.3874
31.616
34.0463
33.5211
1.00734
0.602364
0.830342
0.235792
-0.142341
0.41429
1.74297
6.10819
9.31035
6.35616
0.442925
0.275633
0.414037
0.181616
-0.294408
-0.187345
-0.19162
-0.210928
-0.205939
-0.191647
-0.144114
0.177834
-0.144608
-0.0836771
-0.230479
-0.258158
-0.279381
-0.291469
-0.269673
-0.250095
-0.148611
0.219348
-0.260266
-0.226628
-0.274981
-0.313628
-0.338323
-0.342105
-0.33087
-0.31221
1.89734
-0.141402
-0.261856
-0.27797
-0.324763
-0.361195
-0.388888
-0.40121
-0.402722
-0.387888
3.97198
-0.134595
-0.238138
-0.315374
-0.37627
-0.415453
-0.443043
-0.455986
-0.46517
-0.459015
1.97441
0.0554975
-0.31731
-0.395389
-0.440855
-0.474023
-0.50043
-0.511597
-0.524089
-0.519457
1.6707
0.0854775
-0.527545
-0.523571
-0.520521
-0.536902
-0.555384
-0.56764
-0.578525
-0.571527
1.35779
0.193264
-0.67325
-0.614605
-0.590531
-0.596641
-0.608972
-0.618976
-0.625699
-0.623187
1.64406
1.17943
-0.692291
-0.620611
-0.626105
-0.646672
-0.660474
-0.669706
-0.675321
-0.676139
0.453123
3.35837
-0.222366
-0.610938
-0.652115
-0.69287
-0.711246
-0.721623
-0.727688
-0.729166
0.0438348
4.04904
0.142782
-0.717673
-0.736832
-0.750906
-0.76592
-0.774962
-0.780134
-0.782117
338.867
340.307
342.973
345.89
349.093
352.593
355.924
358.747
360.816
361.909
286.132
288.513
292.358
295.424
299.243
303.091
306.726
309.852
312.097
313.317
230.986
234.115
239.063
242.939
248.023
252.933
257.411
261.144
263.719
265.126
164.744
176.537
183.353
186.436
194.162
201.701
207.764
212.703
215.857
217.665
105.294
104.627
105.153
116.914
134.948
148.686
157.588
164.72
168.689
170.862
75.1386
18.9663
6.59958
29.905
71.0995
93.3886
106.298
117.068
122.209
124.664
23.5353
-0.0790479
0.661231
1.20833
21.292
43.9898
59.3795
70.5364
75.984
78.6045
1.3061
0.133832
0.197417
-0.102206
4.10218
10.2997
20.2825
31.5289
34.9988
34.3774
1.28652
0.479896
0.325882
-0.118945
-0.121996
0.109678
1.73115
6.6637
9.8028
6.57327
0.292953
0.261655
0.127989
-0.0983878
-0.302282
-0.27048
-0.265874
-0.222987
-0.213499
-0.18569
-0.129424
-0.030916
-0.161697
-0.19416
-0.2793
-0.296089
-0.314981
-0.297809
-0.267928
-0.24627
-0.275765
-0.243357
-0.248269
-0.251614
-0.298735
-0.331784
-0.347424
-0.344027
-0.33134
-0.312353
-0.271685
-0.342114
-0.281026
-0.296337
-0.34019
-0.373028
-0.396314
-0.40844
-0.414457
-0.395937
-0.266534
-0.368017
-0.328337
-0.357466
-0.397968
-0.427256
-0.449796
-0.463646
-0.477148
-0.468092
-0.411725
-0.470621
-0.414849
-0.4378
-0.46299
-0.488012
-0.509008
-0.52171
-0.534574
-0.524729
-0.417914
-0.554611
-0.538023
-0.530302
-0.532507
-0.548163
-0.563466
-0.575567
-0.585753
-0.576207
-0.391561
-0.596815
-0.64794
-0.601714
-0.597558
-0.604535
-0.615264
-0.624428
-0.630743
-0.627768
-0.552263
-0.603601
-0.745612
-0.642732
-0.649113
-0.65571
-0.66596
-0.673929
-0.67944
-0.679652
-0.71666
-0.58875
-0.755258
-0.672518
-0.694174
-0.705796
-0.717287
-0.725033
-0.730111
-0.731631
-0.588629
-0.54253
-0.745281
-0.734156
-0.751287
-0.762258
-0.771475
-0.777862
-0.78191
-0.783622
341.878
342.816
345.054
347.426
350.578
354.005
357.269
360.022
362.039
363.103
291.219
292.219
294.665
297.105
300.651
304.519
308.147
311.201
313.393
314.574
239.537
239.906
241.94
245.015
249.702
254.506
258.944
262.635
265.142
266.522
182.25
187.702
186.222
189.719
196.733
203.703
209.616
214.437
217.502
219.246
103.008
116.102
125.571
129.042
141.001
151.962
160.321
166.777
170.576
172.693
27.1156
8.69093
30.2524
61.2416
82.4884
98.6342
110.619
119.435
124.536
126.913
4.74195
0.877271
1.82715
13.5208
30.0549
48.3369
63.0152
73.4116
78.7354
81.2017
1.14276
0.178255
0.374536
1.30093
3.56007
10.4999
21.9321
34.0104
37.2059
36.3858
0.383564
0.12371
0.15131
0.0292544
0.0128723
-0.00802653
2.39652
7.84666
11.0636
7.27884
-0.142796
-0.0636632
-0.024774
-0.156323
-0.218297
-0.293258
-0.285037
-0.225353
-0.212281
-0.165412
-0.339563
-0.185165
-0.191655
-0.235078
-0.279174
-0.306472
-0.333658
-0.294941
-0.262357
-0.237307
-0.330927
-0.248748
-0.260881
-0.269964
-0.298429
-0.323442
-0.338107
-0.342848
-0.338058
-0.315959
-0.327653
-0.296172
-0.308911
-0.316715
-0.344301
-0.374302
-0.397193
-0.414421
-0.429266
-0.406259
-0.366311
-0.366793
-0.370604
-0.384555
-0.409731
-0.43624
-0.456052
-0.471364
-0.48807
-0.4737
-0.442658
-0.455317
-0.44932
-0.459468
-0.478
-0.500165
-0.519863
-0.533397
-0.542298
-0.528223
-0.502046
-0.53429
-0.534092
-0.534502
-0.544604
-0.560077
-0.575504
-0.587605
-0.593061
-0.582659
-0.549225
-0.592357
-0.608668
-0.600252
-0.603627
-0.612536
-0.6243
-0.633833
-0.639155
-0.635427
-0.59144
-0.633796
-0.66556
-0.652869
-0.656432
-0.662595
-0.671933
-0.680313
-0.686149
-0.685878
-0.651672
-0.671317
-0.713289
-0.70199
-0.707766
-0.713398
-0.721664
-0.729634
-0.734564
-0.736248
-0.773536
-0.720503
-0.764043
-0.763448
-0.765127
-0.768809
-0.775387
-0.78111
-0.785156
-0.786925
344.716
345.443
347.31
349.798
352.812
356.077
359.195
361.823
363.759
364.773
294.079
294.766
296.999
299.73
303.146
306.758
310.214
313.127
315.264
316.348
242.183
242.556
245.123
248.44
252.614
257.102
261.309
264.801
267.14
268.499
188.802
188.022
190.309
194.981
200.92
206.994
212.512
217.01
219.91
221.519
101.518
124.836
132.108
138.894
147.778
156.419
164.08
169.861
173.273
175.292
24.4071
31.8828
64.3503
78.0611
92.3691
105.123
115.542
123.295
128.145
130.367
4.74798
1.57579
15.3885
24.6754
39.5817
55.0374
68.4409
78.3811
83.0697
85.3133
0.587733
0.379972
1.7255
2.1054
5.64664
13.9169
24.9639
37.7972
40.1862
40.5273
0.136423
-0.0853389
0.168049
0.156923
0.0728358
0.363424
3.8099
10.1053
13.2677
8.8874
-0.0499849
-0.183301
-0.0846649
-0.134587
-0.210591
-0.313792
-0.255065
-0.222481
-0.195609
-0.155648
-0.199518
-0.245071
-0.206626
-0.231569
-0.276884
-0.314892
-0.329508
-0.292709
-0.254752
-0.234322
-0.290531
-0.259564
-0.248203
-0.264602
-0.294889
-0.322819
-0.33963
-0.351596
-0.348029
-0.320711
-0.33661
-0.301464
-0.311332
-0.326101
-0.352396
-0.381716
-0.404949
-0.428159
-0.443324
-0.410743
-0.393227
-0.380114
-0.388141
-0.403202
-0.424512
-0.448089
-0.465063
-0.484927
-0.493262
-0.473578
-0.46154
-0.461143
-0.464174
-0.476788
-0.494013
-0.515149
-0.531284
-0.544326
-0.546839
-0.534337
-0.52521
-0.532831
-0.536126
-0.544461
-0.55572
-0.574303
-0.589469
-0.599751
-0.601647
-0.592022
-0.581532
-0.59209
-0.600745
-0.604636
-0.611869
-0.623803
-0.636859
-0.645898
-0.651005
-0.646545
-0.637548
-0.645984
-0.658847
-0.658192
-0.662162
-0.669048
-0.679163
-0.688432
-0.694645
-0.695012
-0.702094
-0.701098
-0.71165
-0.710044
-0.713303
-0.717693
-0.725073
-0.734087
-0.740507
-0.742843
-0.778513
-0.751006
-0.765647
-0.766455
-0.769081
-0.771932
-0.777063
-0.784254
-0.789599
-0.791835
347.799
348.564
350.323
352.722
355.575
358.612
361.527
363.989
365.802
366.769
297.773
298.485
300.372
303.027
306.167
309.523
312.74
315.451
317.418
318.477
246.311
247.086
249.41
252.524
256.315
260.386
264.246
267.475
269.695
270.934
192.965
193.91
196.802
200.953
205.895
211.164
216.103
220.229
222.894
224.369
127.623
136.196
142.264
148.171
154.845
161.933
168.481
173.991
177.043
178.785
55.0349
73.113
84.2586
93.1523
102.845
112.653
121.535
128.276
132.51
134.518
9.3775
23.2095
32.291
40.32
51.8081
64.2172
75.9912
84.5581
88.9379
90.7345
3.37858
5.87225
4.63392
5.98772
11.45
20.8255
33.0706
44.4166
46.5448
47.4102
-0.252276
-0.212184
-0.00466998
0.0260271
0.256195
1.85205
6.23508
13.7763
17.1521
12.4517
-0.377348
-0.347372
-0.241434
-0.261697
-0.289871
-0.270496
-0.215586
-0.138691
-0.0369178
-0.0797768
-0.335984
-0.310531
-0.271385
-0.285376
-0.318802
-0.329159
-0.31562
-0.297353
-0.237955
-0.230479
-0.326665
-0.289135
-0.279098
-0.292351
-0.31615
-0.341054
-0.360766
-0.377547
-0.362135
-0.32364
-0.358651
-0.333964
-0.341211
-0.356305
-0.382612
-0.4106
-0.436862
-0.453734
-0.441768
-0.409483
-0.415706
-0.409246
-0.414459
-0.429135
-0.452063
-0.478316
-0.498446
-0.512181
-0.500025
-0.478196
-0.479232
-0.483426
-0.485244
-0.499234
-0.520694
-0.54963
-0.564808
-0.571829
-0.566599
-0.550029
-0.543963
-0.550567
-0.551403
-0.562139
-0.581153
-0.607403
-0.623332
-0.627322
-0.624401
-0.61103
-0.604719
-0.609702
-0.611
-0.616126
-0.627505
-0.646979
-0.664517
-0.666092
-0.669767
-0.662464
-0.661287
-0.663674
-0.665617
-0.665966
-0.668231
-0.675828
-0.691496
-0.700281
-0.707683
-0.706992
-0.716945
-0.716705
-0.718537
-0.717284
-0.715926
-0.715843
-0.723317
-0.738133
-0.748435
-0.751377
-0.778034
-0.771564
-0.773544
-0.772599
-0.771563
-0.77046
-0.773892
-0.786322
-0.795332
-0.798241
351.313
352.112
353.704
355.917
358.546
361.347
364.04
366.32
368.001
368.915
301.643
302.463
304.18
306.588
309.458
312.525
315.474
317.969
319.779
320.781
251.301
252.185
254.157
256.95
260.328
263.959
267.439
270.37
272.424
273.576
199.873
201.069
203.491
206.932
211.131
215.686
220.04
223.688
226.126
227.494
145.796
148.611
152.212
156.586
161.956
167.91
173.566
178.166
181.046
182.62
89.0675
93.875
99.3062
105.583
112.741
120.386
128.153
133.781
137.472
139.191
40.7499
45.5455
49.8589
55.8267
64.3704
75.076
84.2143
91.4708
95.7073
97.0599
12.8674
12.8956
12.3552
14.7483
20.8379
31.3893
42.5665
52.1518
55.5935
55.7333
-0.0648518
0.0477399
0.149361
0.586967
1.93365
5.02129
11.2437
19.1098
22.548
20.2237
-0.451957
-0.402282
-0.366099
-0.337334
-0.292604
-0.222734
0.0385642
1.38834
1.6786
0.85073
-0.373328
-0.349818
-0.333108
-0.343596
-0.338219
-0.301258
-0.343292
-0.315005
-0.271631
-0.254573
-0.338182
-0.322747
-0.320038
-0.331581
-0.347242
-0.364521
-0.391457
-0.400795
-0.357563
-0.324723
-0.382458
-0.373442
-0.378787
-0.394895
-0.422641
-0.457019
-0.478859
-0.471962
-0.439177
-0.407652
-0.440038
-0.437671
-0.443135
-0.460714
-0.49062
-0.525495
-0.549137
-0.545481
-0.523853
-0.494815
-0.501883
-0.503894
-0.508125
-0.526906
-0.558355
-0.58662
-0.612842
-0.628556
-0.609123
-0.57132
-0.560169
-0.564138
-0.567555
-0.584771
-0.615508
-0.643928
-0.673777
-0.688609
-0.667245
-0.64055
-0.616732
-0.619092
-0.620955
-0.629543
-0.647616
-0.67413
-0.700746
-0.709011
-0.69821
-0.683331
-0.671419
-0.671999
-0.671837
-0.671792
-0.670699
-0.679389
-0.707062
-0.720252
-0.728847
-0.722243
-0.727684
-0.725225
-0.723852
-0.720593
-0.713199
-0.705719
-0.720998
-0.744092
-0.76004
-0.761964
-0.782514
-0.779645
-0.778235
-0.775367
-0.770314
-0.764055
-0.767149
-0.786615
-0.802188
-0.807265
354.772
355.527
356.985
359.015
361.427
363.998
366.48
368.587
370.144
371.005
305.486
306.287
307.849
310.033
312.641
315.432
318.128
320.422
322.091
323.037
256.011
256.887
258.651
261.148
264.158
267.4
270.53
273.19
275.084
276.167
206.345
207.343
209.43
212.422
216.043
220.004
223.82
227.07
229.302
230.59