/*--------------------------------*- C++ -*----------------------------------*\
| =========                 |                                                 |
| \\      /  F ield         | OpenFOAM: The Open Source CFD Toolbox           |
|  \\    /   O peration     | Version:  2312                                  |
|   \\  /    A nd           | Website:  www.openfoam.com                      |
|    \\/     M anipulation  |                                                 |
\*---------------------------------------------------------------------------*/
FoamFile
{
    version     2.0;
    format      ascii;
    arch        "LSB;label=32;scalar=64";
    class       volScalarField;
    location    "0.485";
    object      p_rgh;
}
// * * * * * * * * * * * * * * * * * * * * * * * * * * * * * * * * * * * * * //

dimensions      [1 -1 -2 0 0 0 0];

internalField   nonuniform List<scalar> 
8000
(
385.943
386.384
387.436
389.013
390.967
393.102
395.197
397.009
398.358
399.126
386.395
386.857
387.964
389.633
391.721
394.013
396.273
398.24
399.693
400.544
387.218
387.739
388.98
390.852
393.227
395.847
398.44
400.715
402.385
403.377
388.746
389.345
390.761
392.889
395.678
398.778
401.882
404.636
406.629
407.837
390.97
391.637
393.196
395.492
399.03
402.87
406.761
410.205
412.564
414.112
393.454
394.273
396.292
399.72
403.673
408.322
413.346
417.884
421.136
423.004
395.611
396.596
398.938
402.897
408.316
414.769
421.839
428.001
432.416
434.624
373.118
375.61
382.207
392.454
399.953
415.387
432.09
440.924
447.393
450.138
94.9331
99.0232
111.842
142.028
209.976
307.473
412.921
458.802
468.412
473.37
0.263995
0.276749
0.300129
0.329534
0.382037
24.138
122.617
371.092
493.503
501.446
0.264423
0.272443
0.28894
0.310944
0.340012
0.280914
0.448544
111.271
470.698
534.879
0.245952
0.244692
0.251755
0.26217
0.265901
0.232668
0.181186
-0.100596
261.736
579.815
0.236073
0.234653
0.221686
0.221783
0.221368
0.21857
0.24764
0.234898
56.1616
302.622
0.210084
0.209662
0.200002
0.197331
0.195374
0.186429
0.180659
0.237785
-0.0331118
0.808855
0.183114
0.182998
0.182752
0.179331
0.173921
0.141528
0.0936049
0.0558439
0.00518862
0.0488058
0.177634
0.176388
0.171668
0.165046
0.145723
0.101963
0.0477945
0.0615175
0.0902296
0.12789
0.171182
0.170133
0.162634
0.148862
0.128743
0.0934155
0.0593748
0.104164
0.131461
0.244481
0.162434
0.160339
0.153858
0.142081
0.124363
0.103145
0.0932842
0.126985
0.180465
0.323919
0.158518
0.156251
0.151361
0.141455
0.126216
0.107684
0.102577
0.120098
0.161877
0.332863
0.156212
0.154471
0.151143
0.144091
0.133219
0.120142
0.100977
0.103987
0.163043
0.350796
384.796
385.242
386.326
387.956
389.976
392.176
394.334
396.19
397.574
398.368
385.117
385.585
386.733
388.467
390.638
393.004
395.331
397.345
398.825
399.704
385.798
386.307
387.579
389.496
391.985
394.699
397.37
399.7
401.394
402.405
387.013
387.582
389.046
391.346
394.235
397.441
400.629
403.454
405.471
406.672
388.989
389.619
391.227
393.72
397.397
401.38
405.316
408.862
411.208
412.628
391.657
392.36
394.308
397.677
401.849
406.773
411.812
416.409
419.503
421.247
393.596
394.589
396.958
401.07
406.845
413.758
420.581
426.517
430.705
432.575
396.235
398.294
402.635
406.871
413.037
422.374
431.849
439.988
445.745
447.629
141.297
148.411
169.027
207.927
276.369
365.833
444.472
457.69
465.451
468.858
0.213156
0.223073
0.245528
0.270976
2.04277
38.4191
168.219
390.428
490.138
494.244
0.2365
0.242839
0.257878
0.2787
0.322899
0.250673
0.958108
93.4159
324.612
474.185
0.229858
0.222728
0.225068
0.232311
0.233731
0.206538
0.115074
-0.0804732
14.2111
260.887
0.222329
0.199913
0.189667
0.192986
0.198045
0.190332
0.162897
0.0974652
2.3397
54.5184
0.213315
0.194066
0.178922
0.181995
0.183804
0.178662
0.15868
0.125487
0.0683975
-0.0355397
0.206928
0.18671
0.175033
0.171281
0.162057
0.137853
0.10538
0.0923751
0.0703007
-0.00316211
0.180125
0.176844
0.169101
0.153438
0.138953
0.106098
0.0516131
0.0612885
0.0934095
0.0862453
0.166973
0.165929
0.158444
0.142893
0.132429
0.135697
0.0305868
0.0539797
0.107664
0.126383
0.16257
0.159881
0.153367
0.138835
0.125049
0.166023
0.0905595
0.0760504
0.114368
0.132195
0.15962
0.157041
0.152947
0.141744
0.126999
0.155857
0.163111
0.0962001
0.0951063
0.121084
0.157507
0.155848
0.15301
0.146256
0.138992
0.145637
0.187039
0.106922
0.0929231
0.290468
382.581
383.039
384.197
385.947
388.114
390.469
392.771
394.741
396.203
397.03
382.72
383.204
384.439
386.309
388.635
391.174
393.66
395.796
397.36
398.267
383.077
383.605
384.988
387.093
389.741
392.642
395.488
397.947
399.721
400.757
383.844
384.437
386.028
388.475
391.604
395.038
398.436
401.407
403.49
404.711
385.259
385.914
387.56
390.496
394.474
398.608
402.765
406.478
408.915
410.313
387.841
388.411
390.007
393.245
397.901
403.293
408.733
413.66
416.494
418.067
389.464
390.187
392.294
397.128
403.108
409.971
416.841
422.811
426.81
428.362
392.826
395.69
401.64
405.315
411.809
419.566
428.092
435.532
440.532
441.525
105.374
112.192
130.794
170.358
237.572
323.202
406.049
452.695
458.217
459.9
0.182235
0.189641
0.206929
0.227328
2.35921
33.1145
125.52
269.589
399.642
387.456
0.198214
0.205943
0.218655
0.226565
0.223305
0.189258
0.167713
17.6971
97.1758
128.635
0.208871
0.210439
0.213338
0.212343
0.200661
0.163761
0.113274
-0.00753996
-0.0650859
-0.115629
0.209769
0.19452
0.189617
0.182338
0.174482
0.156939
0.135453
0.115103
0.104431
0.227636
0.215684
0.190588
0.188486
0.182587
0.17132
0.160817
0.145425
0.138299
0.129972
0.229989
0.193277
0.196055
0.179717
0.172272
0.155483
0.143151
0.131657
0.12445
0.0962518
0.0573498
0.178334
0.17804
0.171416
0.158875
0.153975
0.116367
0.100997
0.0988524
0.0681717
0.0643014
0.170887
0.168056
0.161598
0.148393
0.157302
0.180838
0.0977823
0.0800147
0.0683651
0.100846
0.166118
0.162868
0.156845
0.144006
0.13817
0.182838
0.1616
0.0788005
0.0802425
0.123349
0.162565
0.15988
0.156115
0.145771
0.131081
0.199405
0.18563
0.10861
0.0868056
0.125711
0.160075
0.158435
0.156388
0.151133
0.145112
0.170539
0.236392
0.225968
0.154796
0.297502
379.499
379.965
381.243
383.18
385.568
388.148
390.653
392.783
394.361
395.231
379.302
379.791
381.16
383.252
385.837
388.638
391.358
393.676
395.362
396.317
378.984
379.483
381.037
383.438
386.424
389.675
392.827
395.508
397.414
398.507
378.74
379.181
380.963
383.847
387.417
391.376
395.2
398.466
400.699
402.001
378.73
379.159
381.391
384.892
389.052
394.061
398.739
402.789
405.416
406.953
378.443
379.175
381.784
385.866
391.363
397.767
403.336
408.666
412.041
413.677
379.578
380.519
383.072
387.849
394.902
403.007
410.681
416.994
421.007
422.478
295.528
292.738
306.805
342.982
391.109
410.54
420.063
428.381
432.506
432.85
51.1404
50.9771
57.0567
76.6775
125.374
220.623
328.734
409.257
448.429
423.756
0.0914133
0.121467
0.151656
0.196738
0.221311
11.3977
54.1659
130.778
187.769
142.519
0.168721
0.182862
0.197259
0.194847
0.195683
0.168321
0.171298
0.170074
2.19457
0.699555
0.206819
0.215204
0.222976
0.215112
0.200853
0.175937
0.14375
0.111978
0.107197
0.190894
0.205093
0.209303
0.205517
0.190892
0.175704
0.156169
0.141901
0.134187
0.148967
0.244892
0.203181
0.207467
0.20279
0.191772
0.17443
0.154936
0.149668
0.143225
0.146633
0.18311
0.195309
0.197239
0.191936
0.182027
0.171278
0.159068
0.146169
0.136966
0.114854
0.1125
0.186517
0.183483
0.179225
0.170559
0.172772
0.219655
0.176739
0.109625
0.0803986
0.0868716
0.177706
0.174328
0.169661
0.158341
0.157781
0.211557
0.190508
0.0832194
0.0589479
0.131165
0.171118
0.1676
0.163885
0.152488
0.139672
0.202959
0.182726
0.150047
0.0992463
0.131245
0.166864
0.164046
0.161815
0.153044
0.140952
0.174299
0.19951
0.193837
0.15645
0.102159
0.163687
0.16218
0.161186
0.156589
0.152864
0.157564
0.228443
0.216677
0.1472
0.109875
375.723
376.22
377.673
379.861
382.535
385.403
388.164
390.496
392.215
393.146
375.082
375.578
377.157
379.557
382.488
385.633
388.655
391.205
393.051
394.072
373.823
374.289
376.146
378.946
382.407
386.132
389.692
392.676
394.761
395.933
371.815
372.367
374.615
378.028
382.307
386.963
391.391
395.087
397.544
398.937
369.161
370.287
372.823
376.847
382.304
388.396
394.067
398.673
401.528
403.151
357.681
366.669
370.161
375.626
382.516
390.254
397.713
403.379
407.087
408.785
338.48
366.516
369.419
375.04
383.251
394.4
403.132
410.275
414.435
415.673
207.71
211.247
196.364
226.906
289.302
376.059
410.7
420.108
423.369
419.509
12.7165
13.1475
14.6987
21.608
43.4567
107.129
223.917
331.675
384.046
329.974
0.0170737
0.0427308
0.116237
0.14969
0.195621
0.738217
12.3169
39.4251
50.5557
30.2742
0.193343
0.175439
0.194978
0.188679
0.19584
0.208473
0.170197
0.212388
0.26243
0.293851
0.221659
0.235408
0.244455
0.233594
0.218564
0.206662
0.181672
0.165857
0.203659
0.250407
0.21967
0.234294
0.236849
0.226257
0.207539
0.188912
0.206881
0.175437
0.16529
0.213444
0.218926
0.225096
0.223995
0.213051
0.19717
0.192484
0.232054
0.17188
0.152312
0.184362
0.211285
0.2103
0.207466
0.197546
0.184043
0.1863
0.231169
0.217303
0.15368
0.174798
0.199759
0.195074
0.192427
0.183668
0.171425
0.168203
0.215453
0.215938
0.202425
0.22032
0.185915
0.181141
0.180235
0.171428
0.159054
0.149677
0.171551
0.205368
0.198455
0.190422
0.175951
0.17186
0.172697
0.163707
0.152091
0.141409
0.152309
0.148249
0.123753
0.12293
0.170472
0.167961
0.169382
0.16266
0.15481
0.142021
0.143452
0.13179
0.124721
0.120931
0.166699
0.166559
0.167691
0.163886
0.160534
0.155374
0.140136
0.129318
0.128523
0.1256
371.804
372.27
373.94
376.408
379.397
382.575
385.609
388.154
390.023
391.015
370.632
371.031
372.852
375.658
378.993
382.524
385.875
388.677
390.7
391.784
367.941
368.31
370.79
374.096
378.148
382.43
386.448
389.772
392.042
393.31
362.906
363.454
367.076
371.565
376.801
382.301
387.418
391.631
394.342
395.84
354.555
358.831
362.744
368.202
374.982
382.265
389.046
394.529
397.587
399.337
232.462
323.81
355.397
363.411
372.672
382.522
391.278
397.969
402.201
404.207
94.0549
220.267
323.256
360.031
371.081
383.352
394.975
403.41
407.775
409.512
33.7959
77.5561
88.9158
114.68
191.981
291.376
394.939
412.227
414.516
407.446
2.09008
1.29211
2.32721
2.6148
11.4921
42.2215
128.333
251.696
304.582
242.35
0.394976
0.160279
0.223598
0.232844
0.214524
0.211809
0.254328
4.89581
5.98559
1.66718
0.265272
0.239034
0.24917
0.235761
0.202545
0.201428
0.20358
0.226246
0.299335
0.327838
0.24287
0.279444
0.282364
0.27271
0.248138
0.230385
0.218206
0.202527
0.212361
0.258023
0.242801
0.271495
0.27171
0.263222
0.242965
0.218497
0.200872
0.218197
0.179105
0.207688
0.239202
0.252299
0.250107
0.240687
0.224119
0.20526
0.200828
0.241662
0.161241
0.187614
0.22581
0.230499
0.227942
0.220102
0.206984
0.190504
0.184715
0.238821
0.205716
0.176578
0.204203
0.207889
0.207705
0.20163
0.190178
0.175669
0.162535
0.186884
0.241419
0.21166
0.178803
0.186601
0.19121
0.186616
0.177119
0.16361
0.149402
0.142933
0.172663
0.189211
0.166847
0.173982
0.180974
0.177573
0.169402
0.155876
0.14281
0.137737
0.137809
0.14145
0.165565
0.172689
0.177448
0.174717
0.167861
0.157937
0.143127
0.139395
0.139565
0.139713
0.166694
0.17458
0.176936
0.174319
0.168813
0.163925
0.152694
0.144844
0.142611
0.141711
368.093
368.52
370.618
373.22
376.521
379.987
383.264
386.001
388.005
389.048
366.393
366.672
369.018
372.033
375.776
379.679
383.328
386.363
388.572
389.686
362.333
362.327
365.445
369.436
374.181
379.027
383.471
387.101
389.499
390.903
356.732
353.53
358.78
364.774
371.471
377.963
383.772
388.415
391.388
393.023
336.67
349.9
352.486
358.636
367.68
376.562
384.582
390.429
393.933
395.876
127.802
199.724
320.302
349.295
362.701
374.999
385.359
393.053
397.855
400.108
7.24638
30.5197
163.592
285.941
358.888
374.325
387.462
397.242
401.84
404.126
2.26583
2.06635
25.7325
39.2683
107.563
224.179
348.294
405.846
407.979
401.436
1.24597
0.83911
0.611923
0.623942
1.8278
17.4111
76.0348
184.67
237.574
175.291
0.81895
0.387047
0.397395
0.345489
0.25762
0.172049
0.220871
0.249152
0.279206
0.322694
0.467601
0.354754
0.340132
0.292243
0.238305
0.201774
0.199119
0.237149
0.275572
0.304146
0.244424
0.362169
0.32701
0.307134
0.273652
0.246228
0.234073
0.22757
0.235018
0.263707
0.29652
0.330931
0.305615
0.295905
0.269495
0.239404
0.216207
0.209544
0.19508
0.222506
0.569947
0.291727
0.277571
0.267894
0.247638
0.224693
0.205146
0.214634
0.169357
0.194074
0.300715
0.263066
0.249732
0.243995
0.227046
0.20845
0.191728
0.203372
0.186383
0.181824
0.209719
0.238478
0.222977
0.221047
0.208171
0.193867
0.179578
0.183199
0.200095
0.17493
0.161666
0.209244
0.199377
0.202706
0.193293
0.18242
0.170657
0.168792
0.191292
0.203584
0.145635
0.189735
0.185938
0.191656
0.18455
0.17589
0.165356
0.159147
0.157806
0.159825
0.161752
0.196746
0.186593
0.188575
0.180787
0.173316
0.163654
0.157737
0.155256
0.154691
0.175524
0.197023
0.192472
0.187642
0.178864
0.172481
0.164384
0.158034
0.155154
0.154026
365.068
365.618
368.155
370.658
374.237
377.945
381.388
384.253
386.337
387.428
362.817
363.563
366.157
369.182
373.22
377.467
381.306
384.486
386.749
387.961
358.232
357.727
360.867
365.491
371.148
376.415
381.13
384.98
387.564
388.977
351.623
349.649
350.805
358.1
366.955
374.578
380.867
385.876
389.029
390.799
332.563
333.913
339.504
347.682
360.566
371.926
380.737
387.333
391.214
393.318
247.555
135.166
180.493
304.032
352.894
368.465
380.571
389.34
394.357
396.69
46.3195
3.89978
50.527
176.507
316.783
367.69
381.984
392.082
397.482
400.037
2.54044
1.08583
3.31235
26.882
64.1993
184.223
309.987
401.608
404.321
392.692
3.8606
0.441136
0.563108
0.477088
0.448826
3.69659
49.5096
140.181
195.645
141.116
22.3318
0.46332
0.419149
0.307498
0.244913
0.176271
0.185579
0.245463
0.265539
0.304897
22.2623
0.499798
0.399251
0.301328
0.236346
0.212466
0.19131
0.230405
0.265571
0.293405
4.43084
0.440058
0.36686
0.320573
0.274638
0.2506
0.237082
0.235775
0.244536
0.268443
1.01562
0.394752
0.336784
0.316719
0.279155
0.248266
0.227478
0.214055
0.208888
0.234445
1.14157
0.35524
0.307779
0.289885
0.260885
0.236217
0.224838
0.203002
0.188459
0.201702
4.47547
0.299443
0.273852
0.264975
0.241706
0.222532
0.212139
0.190648
0.173077
0.187036
8.10792
0.262162
0.238827
0.241786
0.222161
0.207759
0.199893
0.19634
0.169701
0.183171
6.1458
0.208024
0.205575
0.219297
0.206087
0.196931
0.187378
0.205558
0.204462
0.186666
0.251979
0.173041
0.188517
0.206518
0.195928
0.189318
0.180321
0.177305
0.181958
0.178952
0.166963
0.212345
0.196309
0.205898
0.192503
0.185625
0.176055
0.170528
0.166824
0.1658
0.210347
0.264787
0.217227
0.207062
0.190233
0.182707
0.172941
0.168136
0.1648
0.163293
362.712
363.387
366.594
369.375
372.996
376.696
380.171
383.078
385.193
386.305
359.507
360.439
364.509
367.916
372.116
376.256
380.04
383.241
385.532
386.772
352.629
352.597
357.847
363.698
369.465
375.011
379.721
383.585
386.219
387.645
339.16
340.082
344.935
353.991
364.716
372.724
379.136
384.256
387.452
389.269
311.621
320.306
272.476
308.472
352.704
368.573
378.101
385.558
389.401
391.54
311.772
236.481
75.0413
162.937
323.884
362.978
377.151
387.112
392.07
394.456
264.569
33.4417
4.81614
68.0835
258.028
363.601
378.462
389.263
394.744
397.437
7.06781
0.885707
1.18705
10.488
60.4996
170.204
285.157
394.852
400.39
386.304
11.459
0.355991
0.783769
0.34652
0.367387
0.520254
32.1895
116.574
172.021
125.004
33.7449
0.513239
0.501042
0.261626
0.239896
0.198564
0.193801
0.240966
0.255419
0.284428
38.9185
0.556397
0.425867
0.293943
0.22667
0.245004
0.236912
0.231651
0.25414
0.280102
39.2852
0.49921
0.404168
0.325902
0.267404
0.238432
0.226428
0.233936
0.247047
0.266314
4.77545
0.420756
0.375056
0.331464
0.283871
0.25054
0.229008
0.229978
0.2361
0.238887
0.567873
0.389824
0.344064
0.312387
0.273593
0.244715
0.235826
0.232497
0.212704
0.20965
44.0994
0.369286
0.309276
0.291244
0.256236
0.235273
0.230675
0.22086
0.188631
0.193569
114.579
0.349444
0.267707
0.266807
0.235662
0.219478
0.219349
0.216806
0.182627
0.189496
94.9645
0.242786
0.219637
0.237558
0.217973
0.208342
0.200134
0.203495
0.189969
0.186051
16.8235
0.230964
0.195956
0.226458
0.207171
0.20114
0.190604
0.184936
0.184995
0.184382
9.34682
0.3703
0.220621
0.23711
0.206065
0.196977
0.185339
0.179089
0.174745
0.173344
21.9517
0.462372
0.287041
0.238434
0.206069
0.191941
0.181959
0.175559
0.171588
0.169625
360.845
363.352
367.254
370.22
373.201
376.483
379.743
382.565
384.653
385.759
354.531
358.517
365.134
368.992
372.609
376.14
379.615
382.702
384.959
386.194
342.79
345.297
356.497
366.358
370.711
375.045
379.336
382.996
385.582
386.983
327.723
324.757
329.311
349.578
364.656
372.405
378.587
383.523
386.681
388.469
312.797
310.112
215.869
209.659
317.596
366.202
376.824
384.327
388.453
390.671
346.267
301.577
85.076
59.7336
238.462
358.219
374.667
385.818
390.888
393.354
381.831
100.655
3.27388
17.3975
193.603
360.975
376.209
387.84
393.401
396.171
98.5029
1.37252
0.841794
4.48864
63.7207
168.075
275.02
391.547
398.422
383.419
1.87873
0.504589
1.25378
1.85481
0.466068
0.93534
27.4185
107.936
163.288
119.101
22.8385
0.506731
0.672371
0.403978
0.49411
0.554549
0.265284
0.259358
0.263971
0.277287
37.6308
0.543904
0.380967
0.381383
0.254511
0.375593
0.425727
0.264672
0.248301
0.270499
41.2972
0.520591
0.394228
0.352321
0.288265
0.247559
0.264665
0.250478
0.236919
0.257265
25.0161
0.479795
0.391063
0.350453
0.294656
0.25527
0.229122
0.234197
0.235608
0.233134
35.4018
0.473552
0.386942
0.342355
0.28596
0.25017
0.225718
0.235048
0.225299
0.211133
114.941
0.526133
0.375615
0.317557
0.265927
0.240214
0.224408
0.227908
0.209586
0.196447
132.516
0.746885
0.450706
0.280032
0.244229
0.225586
0.212291
0.220695
0.201354
0.191891
139.052
2.15289
0.833987
0.247799
0.22492
0.213684
0.201268
0.199621
0.195646
0.188528
144.092
7.52434
1.0163
0.271055
0.214714
0.205381
0.195245
0.187527
0.183063
0.183699
94.9656
17.4089
0.466709
0.373121
0.213015
0.200099
0.189486
0.18299
0.178602
0.177129
74.0096
27.1384
0.263004
0.440224
0.211583
0.19098
0.18292
0.177507
0.174252
0.172938
360.819
362.87
366.925
370.111
373.109
376.489
379.785
382.614
384.698
385.801
353.871
358.888
365.27
369.019
372.574
376.11
379.612
382.744
385.001
386.232
344.131
349.241
360.032
367.367
370.822
375.138
379.408
383.042
385.619
387.017
333.076
330.586
341.34
355.78
366.106
372.798
378.689
383.551
386.708
388.494
331.884
322.382
237.897
213.373
316.334
366.965
376.776
384.293
388.461
390.687
384.146
314.431
86.2311
44.4571
214.017
358.742
373.269
385.601
390.852
393.35
400.16
88.2086
2.90753
12.7027
159.856
356.185
375.892
387.912
393.446
396.177
119.704
2.01083
1.04173
2.36944
65.923
179.329
276.296
391.646
398.714
383.507
1.5958
1.07803
1.6571
2.49077
0.589346
1.0684
33.0971
109.951
164.801
119.303
1.44553
1.14443
1.49608
0.855142
0.521968
0.514423
0.276411
0.255243
0.260165
0.274455
3.95512
8.19217
1.8972
0.436167
0.285861
0.303222
0.398195
0.245142
0.245523
0.265073
11.159
11.9799
1.41583
0.337713
0.289191
0.250488
0.22603
0.225854
0.234099
0.253906
79.6095
10.9589
0.632871
0.336703
0.28962
0.253133
0.224539
0.214724
0.218329
0.232431
115.46
21.1026
0.424472
0.349875
0.288492
0.254886
0.224574
0.220462
0.206613
0.206428
122.027
42.0664
0.401524
0.320511
0.271754
0.245893
0.217982
0.223306
0.200226
0.193323
129.938
55.7311
0.363305
0.242183
0.239982
0.223527
0.207684
0.215261
0.203021
0.190395
137.955
63.9451
1.54941
0.199742
0.218924
0.21279
0.200353
0.198888
0.202085
0.18866
146.195
108.693
19.7821
0.246733
0.2324
0.211704
0.197901
0.188669
0.184565
0.184995
131.669
159.418
59.7184
0.465056
0.256835
0.21457
0.196179
0.185802
0.179737
0.178261
130.631
171.749
84.7776
0.412297
0.226289
0.205678
0.190555
0.181513
0.176341
0.174358
363.275
364.832
367.498
370.415
373.618
377.118
380.449
383.272
385.341
386.434
359.707
362.088
365.932
368.998
372.818
376.666
380.301
383.427
385.672
386.892
353.611
356.74
361.687
365.563
370.648
375.558
380.036
383.769
386.344
387.751
336.418
348.21
354.998
358.081
365.83
373.375
379.439
384.378
387.532
389.34
326.008
324.73
269.27
309.604
353.876
369.41
378.313
385.445
389.414
391.587
341.214
184.298
42.4969
146.947
319.969
363.164
376.073
386.843
391.984
394.439
155.817
5.47919
2.14245
54.1892
248.848
362.815
378.205
389.361
394.809
397.425
15.3969
0.562871
0.877435
8.796
69.211
170.688
286.222
395.087
400.686
385.969
15.7495
0.93429
1.09062
0.463447
0.411625
1.23234
39.1012
119.365
173.705
124.137
4.9421
0.765701
0.649706
0.395691
0.35498
0.207688
0.200872
0.243145
0.252604
0.280412
0.417229
0.529519
0.4104
0.337849
0.256656
0.305012
0.287518
0.237302
0.247266
0.268896
0.296375
0.458919
0.339675
0.36376
0.273171
0.232568
0.217057
0.22152
0.233319
0.253964
0.345397
0.290182
0.366323
0.376654
0.302669
0.240277
0.219497
0.205217
0.1992
0.223384
1.04276
0.294233
0.365238
0.369685
0.291614
0.235327
0.219017
0.199349
0.1856
0.20057
6.3767
0.240888
0.380521
0.341334
0.272591
0.223622
0.209377
0.191535
0.178288
0.188325
17.9867
0.206575
0.510158
0.252281
0.249099
0.212232
0.203508
0.206506
0.185515
0.185731
23.3228
0.215297
0.772507
0.235923
0.216145
0.20479
0.194061
0.192571
0.192915
0.185407
19.5809
0.262758
0.762424
0.255641
0.20936
0.202671
0.192415
0.184446
0.179638
0.180935
13.6605
0.32603
0.191386
0.36297
0.215582
0.201694
0.190138
0.182392
0.177314
0.175794
40.7506
0.414508
0.212291
0.546642
0.221766
0.194356
0.185001
0.178613
0.174565
0.172853
366.403
367.341
369.579
371.951
375.103
378.53
381.794
384.547
386.564
387.628
364.794
365.793
368.234
370.679
374.226
378.094
381.722
384.776
386.968
388.149
362.162
362.53
364.55
367.635
372.327
377.131
381.569
385.26
387.767
389.147
353.916
359.367
357.893
361.393
368.408
375.378
381.291
386.112
389.177
390.921
303.156
310.247
333.276
349.683
361.726
372.687
381.046
387.502
391.301
393.418
124.811
67.5489
155.491
306.388
352.263
368.409
380.394
389.21
394.311
396.688
5.89935
2.52755
57.4422
182.492
312.773
367.162
381.84
392.237
397.559
400.024
1.99992
0.858273
5.14131
24.9863
61.044
181.309
308.439
401.34
404.389
392.011
2.3622
0.980508
0.599624
0.513128
0.457318
3.67294
50.0798
140.279
196.118
139.068
3.28229
0.485889
0.446626
0.319222
0.252193
0.178118
0.181165
0.240754
0.25382
0.300689
0.779777
0.333364
0.323999
0.281542
0.238518
0.210461
0.186396
0.223415
0.252857
0.277858
0.236789
0.315688
0.303281
0.294682
0.265718
0.240785
0.22635
0.221419
0.226197
0.250639
0.285865
0.317023
0.304266
0.297408
0.268854
0.238998
0.216064
0.207557
0.185783
0.212945
0.295939
0.295438
0.291637
0.280213
0.252641
0.226343
0.206636
0.218728
0.192481
0.19448
0.268851
0.255989
0.263541
0.253466
0.233442
0.211263
0.193655
0.183049
0.21233
0.184757
0.274055
0.255498
0.244536
0.226159
0.215871
0.200199
0.187242
0.183123
0.172236
0.179291
0.294227
0.371285
0.220362
0.209579
0.20577
0.196789
0.185036
0.17819
0.17632
0.18056
0.291824
0.393521
0.194352
0.20671
0.201944
0.19578
0.186442
0.178062
0.172242
0.173112
0.291981
0.301767
0.195052
0.206473
0.199696
0.194027
0.185761
0.177791
0.172861
0.171177
4.84677
0.235987
0.193363
0.199961
0.191745
0.187668
0.181088
0.175365
0.171319
0.16955
369.241
369.968
371.835
374.323
377.337
380.602
383.72
386.348
388.284
389.298
367.654
368.341
370.572
373.305
376.721
380.333
383.789
386.702
388.839
389.923
364.808
365.181
367.742
371.062
375.239
379.727
383.934
387.426
389.765
391.124
360.454
359.696
361.984
366.654
372.595
378.669
384.187
388.685
391.585
393.194
275.075
333.759
352.831
359.619
368.503
377.144
384.805
390.586
393.998
396.017
47.7706
166.337
315.966
347.835
362.144
374.898
385.317
393.07
397.92
400.142
7.64885
55.3024
190.943
280.478
357.526
373.862
387.266
397.206
401.891
404.138
1.83542
12.6364
28.3916
31.233
102.261
220.485
345.652
405.672
408.049
400.476
1.56362
0.647375
0.61549
0.64084
1.06682
15.4067
73.8167
181.566
236.642
173.489
0.574831
0.316782
0.388456
0.340554
0.265117
0.15259
0.211046
0.243622
0.270492
0.310453
0.340686
0.276917
0.311768
0.284557
0.238783
0.200576
0.194649
0.223098
0.260414
0.280843
0.280204
0.30548
0.318883
0.29987
0.269197
0.241283
0.224813
0.212658
0.216209
0.245102
0.277909
0.311979
0.302265
0.28704
0.260732
0.231413
0.208181
0.205172
0.171717
0.208312
0.271348
0.285008
0.274034
0.258974
0.237664
0.214089
0.202001
0.227177
0.197967
0.190169
0.28995
0.265097
0.247052
0.234439
0.217215
0.19608
0.179949
0.212368
0.223709
0.179098
0.296624
0.260425
0.22415
0.215818
0.204558
0.185977
0.170927
0.161166
0.202717
0.187248
0.243612
0.334017
0.211203
0.204693
0.197457
0.185523
0.172486
0.167134
0.165382
0.169288
0.225974
0.381664
0.216183
0.200184
0.196214
0.189328
0.179213
0.169943
0.16373
0.163363
0.206582
0.248218
0.210382
0.197381
0.194122
0.189732
0.182352
0.173338
0.166918
0.164582
0.177945
0.205469
0.19244
0.19002
0.187394
0.184543
0.179412
0.172221
0.166876
0.16464
372.324
373.089
374.848
377.247
380.1
383.137
386.052
388.514
390.327
391.294
371.348
372.06
373.947
376.602
379.742
383.098
386.315
389.026
390.993
392.052
368.936
369.711
372.035
375.149
378.94
383.011
386.871
390.1
392.32
393.559
364.613
365.583
368.477
372.627
377.57
382.839
387.778
391.904
394.569
396.044
335.888
356.542
362.989
368.896
375.57
382.658
389.206
394.716
397.768
399.51
215.162
321.372
354.032
362.927
372.62
382.428
391.31
398.051
402.285
404.293
131.814
251.061
322.05
359.145
370.633
383.042
394.816
403.383
407.761
409.559
61.1284
96.8518
78.92
108.946
187.995
286.377
393.388
412.292
414.419
406.32
1.72777
0.409663
0.896309
1.8062
9.7499
39.7518
122.793
246.778
303.039
242.645
0.119966
0.131932
0.233293
0.209898
0.200691
0.202323
0.250796
4.10383
5.74321
2.20953
0.181135
0.206367
0.246765
0.2314
0.197574
0.197737
0.200021
0.217825
0.27721
0.284686
0.237707
0.27509
0.287906
0.272405
0.247928
0.223376
0.203512
0.1867
0.202105
0.240589
0.254543
0.279203
0.271991
0.256821
0.230515
0.202528
0.211202
0.16559
0.171551
0.205126
0.27601
0.25293
0.247717
0.233041
0.210113
0.183871
0.253039
0.185846
0.162411
0.185526
0.361626
0.227799
0.225982
0.211992
0.190533
0.173025
0.217557
0.220888
0.200847
0.16288
0.355449
0.209708
0.208872
0.198136
0.179128
0.170349
0.178041
0.150537
0.199392
0.174388
0.331287
0.199623
0.198325
0.1932
0.181829
0.165722
0.155289
0.143837
0.139911
0.150023
0.197089
0.194701
0.192758
0.192415
0.190146
0.18257
0.166911
0.158116
0.150692
0.151383
0.19048
0.19072
0.188888
0.190141
0.191499
0.191583
0.184124
0.169361
0.15899
0.156048
0.178441
0.184911
0.182931
0.183876
0.184912
0.186015
0.182689
0.170492
0.161143
0.158234
375.838
376.637
378.229
380.442
383.071
385.872
388.565
390.845
392.526
393.44
375.218
376.038
377.755
380.163
383.033
386.1
389.049
391.544
393.354
394.356
373.926
374.81
376.782
379.575
382.953
386.584
390.064
392.995
395.049
396.201
371.544
372.743
375.166
378.607
382.806
387.361
391.716
395.363
397.801
399.169
366.511
369.336
372.937
377.311
382.681
388.635
394.291
398.891
401.771
403.345
357.679
363.65
369.081
375.358
382.516
390.161
397.928
403.556
407.247
408.966
353.09
364.37
368.684
374.652
383.195
393.901
403.039
410.296
414.532
415.885
199.963
199.582
196.392
226.251
287.327
374.911
410.441
420.027
423.469
419.897
9.64311
11.2197
11.5829
19.1527
41.5826
103.713
219.271
328.586
383.248
332.262
0.0178485
0.0655988
0.10245
0.128933
0.178949
0.34289
11.2761
37.9819
49.4762
31.0372
0.142692
0.165628
0.183154
0.174127
0.186627
0.214759
0.175731
0.20045
0.243545
0.26056
0.226022
0.241436
0.245541
0.233324
0.217302
0.200084
0.173179
0.163487
0.206682
0.239539
0.230747
0.239733
0.234389
0.218234
0.190487
0.193287
0.1565
0.142547
0.17419
0.206423
0.224843
0.226984
0.219118
0.201461
0.184414
0.26531
0.184649
0.117969
0.139299
0.174741
0.218353
0.207332
0.203101
0.184321
0.200951
0.317646
0.280504
0.0894865
0.122763
0.194006
0.229446
0.196183
0.192721
0.175517
0.197437
0.323395
0.292886
0.216162
0.139829
0.141728
0.257346
0.19099
0.188371
0.179794
0.182878
0.292929
0.318233
0.177252
0.113162
0.125996
0.254845
0.186376
0.186538
0.186585
0.190773
0.219691
0.222577
0.144629
0.12953
0.136132
0.203872
0.1822
0.183584
0.186832
0.194301
0.202525
0.188763
0.164476
0.148286
0.145471
0.173961
0.17683
0.17824
0.181108
0.186161
0.19243
0.18979
0.17298
0.156119
0.149211
379.297
380.052
381.51
383.54
385.952
388.523
391.005
393.112
394.669
395.53
379.061
379.862
381.424
383.608
386.216
389.007
391.703
393.997
395.666
396.612
378.636
379.512
381.276
383.773
386.783
390.025
393.155
395.815
397.709
398.792
378.02
379.018
381.105
384.097
387.718
391.679
395.495
398.745
400.977
402.265
376.84
378.427
381.189
384.866
389.194
394.241
398.975
403.038
405.679
407.208
374.457
377.32
381.081
385.692
391.418
397.801
403.601
408.962
412.203
413.931
376.63
379.208
382.681
387.839
395.095
403.097
410.616
417.133
421.246
422.753
284.006
291.086
311.269
346.862
393.316
410.645
420.102
428.493
432.787
433.154
44.4428
47.2162
57.2588
78.5099
126.975
221.073
329.072
409.663
448.707
427.292
0.109362
0.132835
0.150376
0.184763
0.226692
11.4048
54.6655
131.522
189.178
146.895
0.151953
0.163927
0.176171
0.183664
0.195904
0.175624
0.178808
0.178397
3.05478
0.550589
0.223442
0.225839
0.22019
0.21088
0.197393
0.173766
0.148459
0.130451
0.147518
0.21606
0.230202
0.227304
0.207128
0.187874
0.169733
0.141254
0.132525
0.134634
0.168566
0.216647
0.226686
0.213518
0.195067
0.180005
0.194557
0.215665
0.128677
0.114213
0.130963
0.183643
0.200265
0.194678
0.181554
0.183104
0.306311
0.296383
0.199952
0.0777072
0.184528
0.468437
0.187143
0.189798
0.174553
0.176789
0.317656
0.295544
0.280261
0.188599
0.135012
0.139601
0.181038
0.180084
0.17658
0.166896
0.281443
0.330497
0.310537
0.266432
0.109171
0.102867
0.177285
0.17862
0.17942
0.180687
0.205486
0.381338
0.377655
0.155013
0.110078
0.121277
0.17352
0.175941
0.178543
0.18419
0.199076
0.227581
0.223973
0.148614
0.127733
0.134745
0.169324
0.171704
0.174132
0.178984
0.188269
0.199645
0.189687
0.162481
0.144351
0.142743
382.243
382.944
384.287
386.162
388.392
390.774
393.082
395.05
396.506
397.33
382.344
383.085
384.515
386.518
388.906
391.474
393.967
396.102
397.662
398.567
382.602
383.426
385.022
387.262
389.991
392.929
395.786
398.245
400.021
401.054
383.164
384.118
385.971
388.581
391.821
395.304
398.717
401.691
403.787
405.001
384.231
385.409
387.579
390.59
394.672
398.843
403.013
406.731
409.229
410.618
386.084
387.37
389.514
393.246
398.092