/*--------------------------------*- C++ -*----------------------------------*\
| =========                 |                                                 |
| \\      /  F ield         | OpenFOAM: The Open Source CFD Toolbox           |
|  \\    /   O peration     | Version:  2312                                  |
|   \\  /    A nd           | Website:  www.openfoam.com                      |
|    \\/     M anipulation  |                                                 |
\*---------------------------------------------------------------------------*/
FoamFile
{
    version     2.0;
    format      ascii;
    arch        "LSB;label=32;scalar=64";
    class       volScalarField;
    location    "0.915";
    object      p;
}
// * * * * * * * * * * * * * * * * * * * * * * * * * * * * * * * * * * * * * //

dimensions      [1 -1 -2 0 0 0 0];

internalField   nonuniform List<scalar> 
8000
(
352.206
352.61
353.54
354.937
356.614
358.455
360.349
362.188
363.839
365.207
301.804
302.139
303.21
304.803
306.645
308.627
310.654
312.629
314.395
315.857
249.722
249.945
251.228
253.297
255.603
257.935
260.264
262.495
264.482
266.243
195.836
196.209
197.75
200.347
203.257
206.084
208.882
211.618
214.146
216.117
141.355
142.114
143.244
145.871
149.316
152.657
156.094
159.394
162.53
165.182
83.4588
85.2835
85.5006
88.284
92.3171
96.7586
101.303
105.905
109.829
113.221
26.2978
28.6891
27.5771
28.4308
32.036
35.9905
42.1629
49.215
55.5322
60.0613
4.14734
3.74958
2.7751
2.14672
2.15176
3.43372
5.5387
8.45507
13.6078
16.9186
0.707704
0.130073
-0.11497
-0.231331
-0.264168
-0.257279
-0.239833
-0.126781
0.972172
1.53597
-0.134263
-0.368356
-0.388138
-0.377522
-0.354916
-0.336889
-0.309966
-0.289987
-0.32084
-0.333706
-0.29874
-0.356411
-0.388994
-0.398855
-0.395633
-0.382896
-0.364474
-0.348496
-0.36866
-0.377433
-0.342877
-0.349679
-0.385962
-0.411103
-0.427719
-0.429159
-0.414961
-0.400797
-0.417323
-0.432293
-0.413954
-0.410275
-0.429586
-0.450439
-0.473815
-0.482855
-0.469105
-0.458896
-0.474807
-0.492553
-0.494209
-0.488609
-0.492645
-0.506892
-0.53092
-0.537461
-0.523072
-0.520534
-0.536939
-0.551165
-0.561643
-0.555917
-0.555234
-0.570478
-0.592473
-0.59166
-0.57811
-0.58379
-0.598515
-0.6135
-0.619829
-0.616008
-0.618513
-0.63885
-0.653663
-0.643203
-0.636706
-0.648639
-0.66437
-0.682425
-0.676584
-0.677681
-0.686373
-0.708149
-0.711323
-0.696764
-0.699678
-0.715357
-0.730627
-0.745797
-0.736698
-0.742687
-0.753989
-0.773937
-0.762374
-0.755509
-0.766333
-0.779954
-0.7897
-0.799797
-0.79908
-0.807281
-0.819843
-0.831001
-0.815588
-0.816392
-0.830322
-0.840022
-0.846022
-0.856439
-0.860492
-0.866542
-0.878548
-0.88224
-0.872303
-0.876266
-0.891731
-0.903138
-0.912287
-0.919216
352.88
353.244
354.11
355.533
357.232
359.097
361.007
362.853
364.495
365.847
302.468
302.842
303.947
305.448
307.307
309.325
311.34
313.366
315.129
316.588
250.466
250.606
252.063
254.017
256.377
258.81
261.232
263.439
265.414
267.126
197.053
196.852
198.058
200.697
204.034
207.206
210.151
212.901
215.371
217.369
143.137
144.523
144.406
146.03
150.074
154.316
158.059
161.514
164.343
166.826
86.5701
90.6003
89.3844
90.2328
94.6366
99.7889
104.211
108.702
112.4
115.858
24.8041
31.6187
32.0782
32.5388
37.3375
41.3444
46.7121
52.9259
58.7114
63.6267
3.34848
4.00965
3.37673
2.96173
3.99417
5.71798
7.42414
10.4604
15.6937
19.8199
0.0478743
-0.136502
-0.239318
-0.276533
-0.269217
-0.26184
-0.251099
-0.0475868
0.753302
0.988828
-0.490093
-0.52519
-0.457359
-0.403709
-0.354622
-0.332817
-0.338112
-0.339006
-0.354152
-0.360353
-0.437122
-0.47516
-0.456767
-0.423855
-0.405214
-0.396509
-0.388746
-0.373835
-0.388958
-0.407834
-0.381374
-0.396797
-0.415081
-0.429619
-0.452578
-0.459616
-0.436729
-0.412244
-0.427548
-0.450762
-0.430268
-0.429583
-0.444873
-0.46896
-0.504254
-0.518669
-0.49289
-0.473109
-0.491528
-0.516527
-0.504812
-0.501385
-0.506374
-0.526323
-0.56354
-0.575056
-0.548704
-0.542434
-0.56618
-0.584325
-0.568572
-0.565606
-0.567759
-0.591786
-0.627536
-0.627701
-0.604475
-0.61503
-0.640358
-0.646146
-0.62503
-0.624096
-0.633299
-0.661634
-0.692141
-0.674917
-0.664709
-0.690651
-0.706594
-0.700782
-0.682074
-0.685635
-0.702292
-0.731617
-0.744788
-0.725552
-0.731654
-0.761444
-0.758764
-0.750149
-0.741052
-0.749986
-0.771427
-0.795276
-0.789953
-0.780564
-0.802213
-0.816158
-0.797759
-0.80012
-0.801259
-0.814352
-0.837271
-0.853124
-0.837917
-0.839796
-0.861874
-0.851212
-0.827142
-0.851334
-0.861149
-0.876739
-0.896974
-0.904124
-0.890448
-0.899866
-0.91058
-0.888203
-0.877877
-0.911668
354.325
354.651
355.574
356.883
358.525
360.385
362.297
364.128
365.743
367.058
304.168
304.576
305.632
307.016
308.743
310.755
312.828
314.803
316.527
317.961
252.642
253.006
254.516
256.137
258.306
260.635
262.976
265.207
267.114
268.884
199.966
200.179
201.835
203.689
206.705
209.667
212.576
215.335
217.71
219.652
146.381
146.97
147.438
149.908
153.741
157.762
161.568
165.197
167.886
170.296
89.9084
92.7055
94.5255
95.6339
100.243
105.308
109.518
113.791
117.527
121.167
28.3332
33.3338
35.339
37.6766
44.348
49.7914
55.4918
61.1592
66.9577
72.014
2.91661
3.35213
3.36319
3.81909
6.36176
10.2471
13.1364
17.3263
22.8047
28.291
-0.139819
-0.239513
-0.270738
-0.262468
-0.267892
-0.28405
-0.220184
0.679304
1.98767
3.19925
-0.443898
-0.456424
-0.410285
-0.368243
-0.338876
-0.347811
-0.383578
-0.388695
-0.40937
-0.432011
-0.418593
-0.426517
-0.411496
-0.401253
-0.403264
-0.414912
-0.424806
-0.426032
-0.442047
-0.46403
-0.417571
-0.421215
-0.42871
-0.447781
-0.484442
-0.488914
-0.468872
-0.446892
-0.460228
-0.484706
-0.464398
-0.466043
-0.472579
-0.496104
-0.543078
-0.553448
-0.525554
-0.503992
-0.520615
-0.545309
-0.525439
-0.525624
-0.526901
-0.553088
-0.599876
-0.609113
-0.581983
-0.576664
-0.598671
-0.611596
-0.583511
-0.581529
-0.5861
-0.617838
-0.654725
-0.656862
-0.638802
-0.65111
-0.670563
-0.668338
-0.637647
-0.638886
-0.653252
-0.685698
-0.707763
-0.696712
-0.696931
-0.718409
-0.729685
-0.719025
-0.695441
-0.704242
-0.724176
-0.750002
-0.753205
-0.73773
-0.750116
-0.774988
-0.777911
-0.764321
-0.759556
-0.776284
-0.796755
-0.810364
-0.798127
-0.784566
-0.801441
-0.819212
-0.810996
-0.793584
-0.825036
-0.849456
-0.867417
-0.868299
-0.849067
-0.842404
-0.853923
-0.851161
-0.820182
-0.830637
-0.883624
-0.912565
-0.929845
-0.924506
-0.906452
-0.906257
-0.908621
-0.87916
-0.838258
-0.892449
356.334
356.659
357.492
358.752
360.361
362.188
364.073
365.871
367.438
368.673
306.525
306.833
307.762
309.079
310.798
312.777
314.81
316.75
318.426
319.774
255.773
256.047
257.199
258.774
260.746
263.021
265.342
267.574
269.479
271.173
204.13
204.175
205.459
207.432
210.059
212.812
215.624
218.379
220.799
222.737
151.444
151.236
152.385
154.651
158.201
161.936
165.565
168.924
172.045
174.501
96.8108
96.7615
98.7285
101.579
106.355
110.958
115.251
119.638
123.608
126.929
39.0099
39.3066
40.4842
44.0899
51.1995
57.7654
64.2475
70.6016
76.5423
81.1879
4.38364
4.15513
3.95187
5.15991
9.43975
14.4998
20.1945
26.0724
32.6244
38.201
-0.297093
-0.294973
-0.249197
-0.234804
-0.265256
-0.285623
0.676952
3.00684
5.71662
8.40388
-0.42806
-0.420264
-0.371845
-0.344111
-0.353149
-0.404674
-0.423616
-0.383641
-0.434883
-0.385352
-0.409526
-0.409947
-0.401115
-0.409373
-0.430406
-0.452037
-0.457125
-0.456394
-0.474432
-0.453106
-0.448394
-0.449519
-0.45223
-0.479443
-0.520342
-0.51457
-0.49891
-0.487007
-0.499097
-0.508477
-0.493465
-0.498394
-0.500127
-0.531641
-0.583233
-0.580695
-0.557947
-0.541628
-0.551466
-0.561176
-0.548969
-0.550233
-0.549078
-0.582616
-0.630582
-0.634154
-0.613638
-0.605512
-0.616189
-0.618814
-0.603675
-0.601847
-0.607539
-0.641222
-0.672463
-0.67463
-0.658602
-0.664155
-0.679036
-0.673417
-0.657947
-0.66042
-0.673604
-0.701386
-0.715156
-0.706132
-0.703273
-0.717651
-0.735157
-0.72255
-0.721545
-0.731073
-0.744359
-0.760331
-0.756284
-0.73963
-0.745179
-0.766599
-0.782943
-0.768392
-0.795585
-0.814174
-0.822669
-0.822121
-0.802203
-0.780829
-0.788832
-0.809766
-0.817831
-0.808301
-0.868162
-0.903553
-0.903954
-0.886832
-0.8606
-0.841285
-0.847882
-0.858277
-0.844942
-0.842778
-0.924681
-0.972658
-0.979761
-0.950995
-0.923808
-0.914401
-0.92342
-0.917522
-0.876233
-0.893245
358.587
358.922
359.704
360.924
362.49
364.279
366.133
367.898
369.42
370.707
309.086
309.389
310.201
311.484
313.164
315.09
317.091
318.998
320.604
322.077
259.089
259.316
260.225
261.659
263.56
265.765
268.065
270.287
272.155
273.78
208.56
208.579
209.55
211.357
213.627
216.273
219.079
221.893
224.18
226.054
157.387
157.108
158
159.933
163.008
166.531
170.064
173.915
176.856
179.143
104.799
104.333
105.659
108.407
112.535
116.831
121.375
126.7
130.799
133.758
51.993
50.3362
50.53
53.7471
59.2456
66.07
73.2536
80.1653
86.0191
90.0984
9.69932
8.21144
7.14782
9.30416
14.059
20.5301
28.2951
36.5862
44.2847
49.3997
-0.372731
-0.307603
-0.212298
-0.202855
-0.228188
0.47936
3.49481
8.70824
14.2079
17.9692
-0.397368
-0.381662
-0.338956
-0.328776
-0.365919
-0.428925
-0.431646
-0.442516
-0.0288397
2.38723
-0.420033
-0.415466
-0.408655
-0.424253
-0.4559
-0.481811
-0.495383
-0.484551
-0.453536
-0.4541
-0.465288
-0.469122
-0.470551
-0.504482
-0.537239
-0.531723
-0.542979
-0.526149
-0.509311
-0.523239
-0.51731
-0.52494
-0.522451
-0.56118
-0.599377
-0.593991
-0.601278
-0.579485
-0.556879
-0.569866
-0.571975
-0.573919
-0.57082
-0.605717
-0.638594
-0.646734
-0.646006
-0.627543
-0.611313
-0.617673
-0.626405
-0.624207
-0.628208
-0.654462
-0.67482
-0.6796
-0.671739
-0.665242
-0.665493
-0.665132
-0.683543
-0.684884
-0.691731
-0.708272
-0.714008
-0.705494
-0.698033
-0.701487
-0.718858
-0.711788
-0.752367
-0.761122
-0.762525
-0.764301
-0.753131
-0.733423
-0.727025
-0.738369
-0.761851
-0.769958
-0.829253
-0.854949
-0.84433
-0.829926
-0.804297
-0.776808
-0.771075
-0.7885
-0.811144
-0.834981
-0.893197
-0.941195
-0.92601
-0.900508
-0.87375
-0.848889
-0.850563
-0.873759
-0.89139
-0.890588
-0.946117
-0.993997
-0.991852
-0.96252
-0.94017
-0.932278
-0.947805
-0.970991
-0.962768
-0.920079
360.836
361.188
361.959
363.144
364.667
366.426
368.26
369.994
371.581
372.966
311.591
311.914
312.698
313.944
315.57
317.45
319.433
321.345
323.098
324.37
262.185
262.437
263.244
264.596
266.421
268.565
270.827
273.016
274.98
276.361
212.596
212.667
213.479
215.027
217.189
219.756
222.506
225.343
227.704
229.318
162.765
162.501
163.233
165.019
167.805
171.055
174.387
178.423
181.225
183.331
111.975
111.382
112.348
114.61
118.214
122.414
127.169
132.322
136.242
139.019
62.0133
60.1881
59.6947
61.7935
67.0777
73.4897
80.4407
87.4249
93.013
97.4124
17.0003
14.8025
13.1192
14.7438
19.9959
27.783
36.3451
45.7246
53.3488
58.4276
-0.254767
-0.272267
-0.212527
-0.156333
0.445877
3.05665
7.74828
15.2743
21.8404
26.8954
-0.372574
-0.363489
-0.337871
-0.337842
-0.361163
-0.401523
-0.423349
0.0092781
6.43104
11.5746
-0.41383
-0.412809
-0.415531
-0.434689
-0.461065
-0.47839
-0.494296
-0.464914
-0.434829
-0.452639
-0.4723
-0.476099
-0.48326
-0.513611
-0.532806
-0.524515
-0.558019
-0.546165
-0.508242
-0.535362
-0.535136
-0.541452
-0.541446
-0.571793
-0.586983
-0.582448
-0.61518
-0.597179
-0.563083
-0.596028
-0.592755
-0.595379
-0.591736
-0.611535
-0.62199
-0.634287
-0.648047
-0.632079
-0.616103
-0.634673
-0.649473
-0.647432
-0.647613
-0.656649
-0.658513
-0.658797
-0.66036
-0.65419
-0.662195
-0.677245
-0.709836
-0.711859
-0.709612
-0.709339
-0.702063
-0.685443
-0.673643
-0.672727
-0.694077
-0.715727
-0.776874
-0.787743
-0.776738
-0.76576
-0.748274
-0.723046
-0.700343
-0.698899
-0.721638
-0.764299
-0.840791
-0.870395
-0.846768
-0.828991
-0.806464
-0.780445
-0.759763
-0.764648
-0.802822
-0.852412
-0.897732
-0.929483
-0.911436
-0.891168
-0.872578
-0.858428
-0.857793
-0.880765
-0.923206
-0.926605
-0.947818
-0.966755
-0.958123
-0.942696
-0.931254
-0.929777
-0.947232
-0.97961
-0.987055
-0.934536
362.851
363.211
363.984
365.154
366.635
368.391
370.251
372.006
373.556
374.74
313.805
314.148
314.935
316.162
317.754
319.575
321.623
323.567
325.187
326.353
264.851
265.123
265.906
267.232
269.004
271.123
273.359
275.708
277.473
278.703
215.986
216.09
216.863
218.354
220.426
222.936
225.667
228.478
230.743
232.197
167.105
166.933
167.709
169.436
171.977
175.129
178.595
182.161
185.133
186.941
118.197
117.356
118.119
120.146
123.233
126.938
131.77
136.856
140.953
143.287
70.1994
67.9064
67.578
69.659
74.1175
79.6907
86.3911
93.1733
98.9422
102.824
26.937
22.6905
19.8604
21.5062
27.3582
34.5829
43.6784
53.068
60.3704
64.772
2.84931
0.726438
0.236747
0.741408
3.018
6.43869
12.2706
20.9727
28.304
33.8946
-0.381136
-0.368327
-0.349811
-0.354455
-0.359403
-0.389948
-0.327131
2.6751
10.8858
17.9922
-0.431864
-0.427116
-0.433571
-0.451865
-0.469495
-0.471281
-0.466035
-0.46056
-0.448448
-0.402294
-0.483057
-0.487605
-0.498561
-0.522793
-0.533765
-0.521556
-0.532913
-0.546708
-0.545706
-0.560357
-0.549065
-0.554432
-0.556783
-0.57523
-0.577969
-0.571448
-0.58849
-0.606152
-0.623634
-0.63873
-0.609488
-0.611925
-0.607418
-0.612893
-0.607388
-0.607443
-0.619067
-0.634698
-0.661529
-0.680035
-0.667729
-0.666516
-0.662146
-0.657283
-0.645368
-0.631752
-0.629653
-0.64202
-0.676359
-0.701231
-0.727849
-0.729541
-0.721486
-0.710249
-0.693237
-0.67217
-0.65251
-0.646681
-0.668994
-0.707402
-0.78694
-0.79585
-0.781769
-0.766603
-0.744925
-0.722496
-0.694771
-0.676019
-0.696387
-0.759863
-0.842066
-0.857105
-0.840299
-0.82713
-0.806271
-0.78417
-0.761465
-0.75524
-0.799931
-0.861502
-0.895488
-0.903981
-0.893547
-0.885057
-0.869892
-0.854366
-0.845916
-0.861064
-0.901287
-0.903952
-0.946738
-0.943948
-0.938761
-0.935219
-0.927483
-0.918288
-0.917581
-0.929687
-0.923936
-0.869976
364.421
364.798
365.583
366.772
368.324
370.061
371.901
373.722
375.144
376.193
315.537
315.897
316.7
317.934
319.578
321.419
323.406
325.365
326.999
328.004
266.896
267.19
267.991
269.341
271.164
273.206
275.451
277.674
279.348
280.553
218.576
218.688
219.443
221.035
223.049
225.394
228.21
230.953
233.135
234.469
170.456
170.308
171.131
172.917
175.179
177.668
181.563
185.237
188.312
189.779
122.778
121.943
122.902
124.775
127.076
130.546
135.502
140.582
144.741
146.76
75.5385
74.0187
74.5875
76.4552
79.9917
85.4629
92.1183
98.738
104.328
107.025
32.2924
29.3061
28.7475
29.9882
34.6367
42.1295
51.0042
59.3182
65.3592
69.2781
7.16872
3.61267
3.44007
4.1484
6.42401
10.9393
17.5825
25.2612
32.7486
37.6202
-0.383172
-0.373488
-0.366249
-0.365327
-0.383762
-0.409492
0.215124
4.81495
12.1805
19.6544
-0.4347
-0.43432
-0.448633
-0.473451
-0.482977
-0.473278
-0.469694
-0.498886
-0.489119
-0.272476
-0.492865
-0.495871
-0.511044
-0.536936
-0.541925
-0.530571
-0.55425
-0.584456
-0.598135
-0.579495
-0.557135
-0.561611
-0.566858
-0.582043
-0.582272
-0.576967
-0.601914
-0.647506
-0.674936
-0.656438
-0.619373
-0.622028
-0.617104
-0.615013
-0.607222
-0.603106
-0.617251
-0.660319
-0.69488
-0.686839
-0.679131
-0.676492
-0.667512
-0.658873
-0.643627
-0.629154
-0.628025
-0.645822
-0.672943
-0.685262
-0.73649
-0.733301
-0.722823
-0.710098
-0.692347
-0.675348
-0.659896
-0.645204
-0.653742
-0.690951
-0.790297
-0.791659
-0.77949
-0.765756
-0.746492
-0.729175
-0.706584
-0.680925
-0.691551
-0.749569
-0.843167
-0.846316
-0.834917
-0.825813
-0.807742
-0.792106
-0.770425
-0.754084
-0.776123
-0.828129
-0.896581
-0.895802
-0.887064
-0.883949
-0.870643
-0.858031
-0.843908
-0.837895
-0.85446
-0.857149
-0.94829
-0.940751
-0.936015
-0.93601
-0.928464
-0.919774
-0.911736
-0.905014
-0.892453
-0.85213
365.395
365.786
366.576
367.903
369.423
371.179
373.02
374.775
376.235
377.316
316.616
316.993
317.827
319.137
320.755
322.644
324.666
326.657
328.182
329.27
268.186
268.498
269.326
270.747
272.515
274.64
276.893
279.042
280.838
282.051
220.181
220.349
221.158
222.67
224.691
227.233
230.157
232.763
234.869
236.131
172.528
172.376
173.359
174.928
177.003
180.293
184.311
187.715
190.432
191.737
125.458
124.762
126.065
127.748
129.9
134.133
139.485
143.909
147.661
149.103
79.0396
78.1628
79.3329
81.0702
84.514
90.4851
97.3463
103.225
107.46
109.429
36.5273
34.3005
34.8174
36.4224
41.4579
49.6902
57.6104
64.3542
70.1087
73.4404
10.2742
6.70547
7.31603
7.961
11.0803
17.131
23.3769
30.0403
36.646
38.758
-0.380871
-0.372537
-0.368663
-0.377721
-0.413523
-0.262764
2.74907
8.28251
16.0311
21.6813
-0.436476
-0.437252
-0.45525
-0.488038
-0.485371
-0.470392
-0.511542
-0.544925
-0.46482
0.447386
-0.498814
-0.500904
-0.521253
-0.549034
-0.545541
-0.556325
-0.598044
-0.632133
-0.619011
-0.573538
-0.562553
-0.568357
-0.575401
-0.590547
-0.588068
-0.594815
-0.641551
-0.690933
-0.69134
-0.636483
-0.624504
-0.625867
-0.623379
-0.617898
-0.60699
-0.609469
-0.632275
-0.674417
-0.686181
-0.655739
-0.684261
-0.679625
-0.671124
-0.658298
-0.643164
-0.632119
-0.634611
-0.647239
-0.652171
-0.654254
-0.741116
-0.734589
-0.722309
-0.711504
-0.694295
-0.68006
-0.670381
-0.658239
-0.657831
-0.683077
-0.794386
-0.790493
-0.777521
-0.766417
-0.749858
-0.734863
-0.718269
-0.699012
-0.709418
-0.750594
-0.847914
-0.847166
-0.834474
-0.826483
-0.809647
-0.797558
-0.780509
-0.769214
-0.792658
-0.83015
-0.900293
-0.899725
-0.889993
-0.887332
-0.873444
-0.863207
-0.853432
-0.852813
-0.878141
-0.890649
-0.950045
-0.947649
-0.942539
-0.942163
-0.93277
-0.927706
-0.92975
-0.935372
-0.947211
-0.943648
365.65
366.07
366.937
368.275
369.878
371.692
373.636
375.349
376.836
377.942
316.911
317.316
318.209
319.601
321.333
323.313
325.362
327.236
328.793
330.027
268.583
268.924
269.823
271.348
273.277
275.394
277.724
279.844
281.589
282.86
220.7
220.931
221.852
223.564
225.787
228.388
231.247
233.709
235.766
236.966
173.263
173.12
174.278
176.275
178.935
182.353
186.024
189.046
191.416
192.776
126.52
125.671
127.335
129.454
132.693
137.05
142.041
146.032
148.903
150.446
80.6755
79.9432
81.3343
83.4526
87.8199
94.2216
101.09
106.138
109.126
110.573
39.1094
37.266
38.0842
40.559
46.6029
54.1717
60.8678
67.0777
72.9345
73.633
12.7325
8.91438
9.65513
11.3497
16.1132
21.775
27.4214
34.0142
38.5623
39.1144
-0.365225
-0.356205
-0.356603
-0.374856
-0.325688
1.56934
6.5476
13.9066
21.2857
25.0522
-0.432883
-0.431794
-0.456523
-0.4926
-0.471995
-0.509403
-0.578535
-0.597979
0.393496
2.05491
-0.502601
-0.503184
-0.528489
-0.55635
-0.552552
-0.592199
-0.641974
-0.658984
-0.627866
-0.539199
-0.565064
-0.572408
-0.580712
-0.596416
-0.592449
-0.621859
-0.682761
-0.710269
-0.678407
-0.60358
-0.624918
-0.628541
-0.628121
-0.619293
-0.605918
-0.622329
-0.649513
-0.674327
-0.663543
-0.63337
-0.683933
-0.68296
-0.676824
-0.657535
-0.640391
-0.640366
-0.644762
-0.655278
-0.652031
-0.657928
-0.741016
-0.737507
-0.72903
-0.716366
-0.697774
-0.683795
-0.681322
-0.68053
-0.685656
-0.707001
-0.797497
-0.793259
-0.785873
-0.769476
-0.753868
-0.737639
-0.730826
-0.732233
-0.75331
-0.777043
-0.851709
-0.849662
-0.843836
-0.82994
-0.81578
-0.801318
-0.79651
-0.81245
-0.841346
-0.85642
-0.902716
-0.904134
-0.898815
-0.893806
-0.879915
-0.871518
-0.882899
-0.906286
-0.929563
-0.925905
-0.950988
-0.954497
-0.950977
-0.952053
-0.941263
-0.944075
-0.976759
-1.00683
-1.00121
-0.981305
365.118
365.569
366.493
367.915
369.605
371.499
373.561
375.311
376.815
377.991
316.337
316.778
317.732
319.223
321.036
323.115
325.248
327.179
328.781
329.988
267.937
268.341
269.3
270.929
272.96
275.24
277.64
279.808
281.632
282.859
219.926
220.249
221.264
223.089
225.505
228.287
231.185
233.696
235.838
237.05
172.345
172.373
173.588
175.784
178.772
182.338
185.975
189.036
191.461
192.878
125.473
124.925
126.554
129.281
133.061
137.499
142.196
145.936
148.781
150.336
80.0308
79.1793
80.6838
83.7933
88.8507
94.7549
101.456
105.78
108.913
110.104
39.41
36.9542
37.3871
41.0759
47.8867
54.9807
61.3906
67.8203
72.5439
72.7774
13.1931
8.6175
8.834
12.3536
18.0246
23.0916
29.2652
36.0486
38.3951
38.9312
-0.339724
-0.325428
-0.337874
-0.36871
-0.185761
3.37744
9.42522
18.7645
22.9791
23.723
-0.419629
-0.415339
-0.456043
-0.50264
-0.46238
-0.483647
-0.567651
-0.525556
1.43322
2.49355
-0.501125
-0.503893
-0.546922
-0.565476
-0.562057
-0.598066
-0.662607
-0.667094
-0.626674
-0.538494
-0.569592
-0.577682
-0.600345
-0.59881
-0.600823
-0.638864
-0.714102
-0.7158
-0.659147
-0.602118
-0.629026
-0.635697
-0.641932
-0.633572
-0.611358
-0.637696
-0.676413
-0.685213
-0.662302
-0.645968
-0.6863
-0.690978
-0.684942
-0.677158
-0.644412
-0.651062
-0.664447
-0.673281
-0.67512
-0.68712
-0.743728
-0.747324
-0.733197
-0.725785
-0.70403
-0.695001
-0.696508
-0.704574
-0.721195
-0.742851
-0.80016
-0.803261
-0.792208
-0.776562
-0.75953
-0.743942
-0.745915
-0.76454
-0.796153
-0.81286
-0.853816
-0.857675
-0.855761
-0.838097
-0.821374
-0.805449
-0.818242
-0.859273
-0.888073
-0.884094
-0.903685
-0.90944
-0.912042
-0.899763
-0.886735
-0.877337
-0.908985
-0.966414
-0.971578
-0.949487
-0.951079
-0.95756
-0.961055
-0.960578
-0.947402
-0.951109
-1.00489
-1.05522
-1.03357
-0.999738
363.798
364.284
365.249
366.835
368.638
370.7
372.769
374.657
376.242
377.435
314.873
315.36
316.371
318.043
319.973
322.177
324.469
326.509
328.23
329.364
266.173
266.644
267.735
269.527
271.745
274.237
276.739
278.989
280.869
282.147
217.731
218.184
219.341
221.379
224.05
227.076
230.206
232.832
234.989
236.237
169.519
169.794
171.186
173.656
176.99
180.817
184.638
188.102
190.404
191.773
122.079
121.674
123.479
126.648
130.967
135.737
140.366
144.182
147.085
148.719
76.333
75.2224
76.8577
80.7824
86.2916
92.3429
98.323
102.967
106.446
107.971
35.7696
32.8711
32.9329
36.9377
43.9981
51.8058
59.0783
65.3348
69.2203
69.972
10.134
5.69089
5.81
9.00212
13.7312
19.8134
26.3339
33.4859
37.2442
36.3311
-0.336109
-0.32559
-0.346372
-0.373386
-0.403166
1.75576
7.46143
15.6686
20.1627
21.5494
-0.413719
-0.434358
-0.47585
-0.511274
-0.486405
-0.478573
-0.553286
-0.544424
0.838292
1.75397
-0.501946
-0.531017
-0.569903
-0.582428
-0.562968
-0.598561
-0.663252
-0.664588
-0.630513
-0.567647
-0.574617
-0.600707
-0.623856
-0.626779
-0.613938
-0.648109
-0.735232
-0.724365
-0.664679
-0.624008
-0.635896
-0.647144
-0.66023
-0.664271
-0.637581
-0.656785
-0.711052
-0.712595
-0.682304
-0.676448
-0.691668
-0.693756
-0.69683
-0.694234
-0.665482
-0.667347
-0.694855
-0.705879
-0.708627
-0.724034
-0.745735
-0.751084
-0.740859
-0.734159
-0.71915
-0.715634
-0.723305
-0.73889
-0.765488
-0.784007
-0.802476
-0.810748
-0.794077
-0.785829
-0.770774
-0.761686
-0.768688
-0.803669
-0.850691
-0.860447
-0.857338
-0.863681
-0.851242
-0.850732
-0.830528
-0.821218
-0.838968
-0.898395
-0.946503
-0.9379
-0.905219
-0.912069
-0.911675
-0.916576
-0.895257
-0.890643
-0.923094
-0.989014
-1.02358
-0.997915
-0.949095
-0.955899
-0.96635
-0.970168
-0.955053
-0.959981
-1.00286
-1.05582
-1.06352
-1.03039
361.818
362.358
363.442
365.02
367.025
369.25
371.436
373.499
375.224
376.462
312.657
313.211
314.362
316.058
318.202
320.606
322.934
325.151
327.04
328.261
263.433
264.03
265.288
267.198
269.687
272.425
275.091
277.504
279.391
280.829
214.132
214.782
216.202
218.518
221.518
224.804
228.033
230.916
233.356
234.669
164.619
165.315
167.117
169.962
173.727
177.935
182.045
185.512
188.215
189.813
115.527
116.029
118.147
121.77
126.871
132.046
137.06
141.375
144.467
146.337
67.6838
67.4017
69.5609
74.3854
80.8731
87.4581
94.117
99.4763
103.128
105.458
26.1842
23.8737
25.2514
29.9103
37.0754
45.5122
53.4525
60.3946
64.9494
65.9071
4.41897
1.49804
2.0732
4.28253
8.48724
13.6306
20.4748
27.4793
33.1098
33.6677
-0.362921
-0.35648
-0.387783
-0.384496
-0.406729
-0.274552
3.03187
8.50783
15.0771
17.2097
-0.446355
-0.467346
-0.489962
-0.504165
-0.497538
-0.484665
-0.544013
-0.56734
-0.408495
0.101828
-0.521634
-0.552414
-0.565653
-0.578897
-0.561822
-0.588152
-0.660746
-0.672598
-0.622166
-0.591286
-0.586968
-0.611336
-0.622894
-0.65536
-0.625444
-0.658154
-0.746898
-0.748123
-0.681364
-0.64713
-0.639839
-0.655069
-0.659103
-0.689457
-0.673624
-0.685303
-0.748563
-0.752358
-0.711553
-0.699148
-0.695426
-0.703207
-0.693194
-0.700249
-0.688266
-0.687739
-0.728549
-0.748841
-0.746947
-0.753866
-0.749986
-0.75827
-0.747664
-0.730526
-0.723351
-0.731483
-0.757163
-0.778919
-0.807283
-0.82149
-0.797098
-0.804123
-0.80876
-0.794398
-0.778054
-0.782142
-0.801942
-0.837865
-0.893647
-0.90848
-0.843101
-0.851003
-0.862839
-0.858748
-0.843165
-0.842965
-0.864743
-0.916635
-0.978631
-0.990208
-0.895256
-0.899045
-0.915307
-0.920765
-0.906004
-0.906624
-0.933084
-0.986108
-1.03492
-1.03943
-0.940629
-0.949089
-0.9623
-0.974184
-0.963858
-0.967379
-0.994833
-1.0353
-1.06395
-1.05331
359.368
359.953
361.143
362.862
364.976
367.304
369.61
371.887
373.827
375.173
309.906
310.496
311.799
313.66
315.952
318.473
320.968
323.353
325.429
326.814
260.032
260.764
262.207
264.344
267
269.914
272.793
275.449
277.659
279.156
209.568
210.379
212.195
214.848
218.13
221.681
225.114
228.235
231.015
232.534
158.2
159.119
161.669
165.081
169.321
173.84
178.082
182.128
185.169
187.033
106.496
107.658
110.804
115.35
120.957
126.739
132.239
137.384
140.798
142.796
53.9268
55.2083
59.1022
65.1589
72.7657
80.5195
87.6487
94.5735
98.6176
101.266
11.7097
12.356
14.5103
20.2623
28.2998
37.0266
45.5487
53.3137
58.7914
60.903
-0.117123
-0.144562
-0.0275423
0.66353
3.44079
7.89021
13.5539
20.1419
25.9719
29.7416
-0.35607
-0.368211
-0.389737
-0.408229
-0.396371
-0.464296
-0.108754
2.54476
6.51237
9.55316
-0.448575
-0.46493
-0.473929
-0.501778
-0.508673
-0.502728
-0.512997
-0.558639
-0.561882
-0.559978
-0.528006
-0.546684
-0.550784
-0.56837
-0.569233
-0.578283
-0.647761
-0.678625
-0.629005
-0.591923
-0.593707
-0.609789
-0.611922
-0.654441
-0.641303
-0.669397
-0.758615
-0.772002
-0.691406
-0.649809
-0.652014
-0.665417
-0.656165
-0.697141
-0.706733
-0.720038
-0.788345
-0.798781
-0.739625
-0.70899
-0.70535
-0.720636
-0.705365
-0.711606
-0.718344
-0.71784
-0.763697
-0.795175
-0.778279
-0.770121
-0.750606
-0.77197
-0.766488
-0.744883
-0.734745
-0.747104
-0.786617
-0.817316
-0.828682
-0.837028
-0.79008
-0.805824
-0.817669
-0.807617
-0.789777
-0.798244
-0.833656
-0.864332
-0.897652
-0.917138
-0.832622
-0.836196
-0.85711
-0.867286
-0.860445
-0.868544
-0.892825
-0.92791
-0.969837
-0.991408
-0.88048
-0.877053
-0.90315
-0.923951
-0.924957
-0.931508
-0.954568
-0.991015
-1.02903
-1.04703
-0.927347
-0.929402
-0.955941
-0.976157
-0.981141
-0.989707
-1.01307
-1.04722
-1.07485
-1.06975
356.706
357.332
358.6
360.439
362.671
365.138
367.627
370.016
372.048
373.583
306.935
307.602
308.989
310.972
313.405
316.088
318.77
321.275
323.429
325.068
256.359
257.132
258.78
261.119
263.969
267.087
270.188
273.064
275.425
277.16
204.669
205.553
207.707
210.689
214.283
218.152
221.899
225.318
228.127
230.006
151.311
152.336
155.438
159.462
164.221
169.212
173.994
178.269
181.567
183.879
96.4182
97.3615
101.949
107.589
114.115
120.686
126.773
132.271
136.262
138.866
38.6281
40.9391
46.9314
54.488
63.4044
72.2732
80.4282
87.6311
92.8987
97.4799
4.02122
5.00213
7.22742
11.0538
19.2002
28.2555
36.9481
44.9568
50.8069
54.3582
-0.31636
-0.226106
-0.192119
-0.107981
0.691794
3.70453
7.96255
13.0681
19.0533
24.2254
-0.384742
-0.381344
-0.373845
-0.403816
-0.43568
-0.417873
-0.491122
-0.330445
1.0369
3.39014
-0.459056
-0.46758
-0.467081
-0.499855
-0.522685
-0.516263
-0.51818
-0.50927
-0.528468
-0.553176
-0.533022
-0.544636
-0.540056
-0.558112
-0.583898
-0.585903
-0.638438
-0.663619
-0.624947
-0.589313
-0.59828
-0.61305
-0.604835
-0.618213
-0.642527
-0.680767
-0.76721
-0.785156
-0.697267
-0.642834
-0.657359
-0.67707
-0.672201
-0.682267
-0.709241
-0.743365
-0.81977
-0.841413
-0.767584
-0.711094
-0.706485
-0.732695
-0.743422
-0.741153
-0.749682
-0.758926
-0.802602
-0.84077
-0.809127
-0.77475
-0.744464
-0.772536
-0.804746
-0.803721
-0.78213
-0.779734
-0.813363
-0.850438
-0.849291
-0.835598
-0.7781
-0.795858
-0.835281
-0.860992
-0.849097
-0.840031
-0.865422
-0.894849
-0.905389
-0.906302
-0.816348
-0.82091
-0.853725
-0.895436
-0.912162
-0.918674
-0.938608
-0.95874
-0.975797
-0.983747
-0.863559
-0.861464
-0.892368
-0.939146
-0.968241
-0.983038
-1.00042
-1.02729
-1.05079
-1.05776
-0.913966
-0.914329
-0.942988
-0.98869
-1.0197
-1.03417
-1.05775
-1.08933
-1.10505
-1.09098
354.089
354.732
356.052
357.971
360.316
362.913
365.533
367.974
370.206
371.939
304.043
304.731
306.213
308.289
310.826
313.638
316.485
319.135
321.458
323.269
252.813
253.6
255.42
257.921
260.915
264.175
267.477
270.47
273.081
275.043
199.993
200.835
203.297
206.587
210.408
214.563
218.532
222.157
225.187
227.45
144.759
145.594
149.279
153.749
159.023
164.457
169.622
174.234
177.904
180.855
86.3859
88.0796
93.5527
99.8713
107.1
114.377
121.039
126.907
131.556
134.871
23.5058
26.5951
34.4661
43.4522
53.8502
63.844
72.664
80.3372
86.8355
91.2667
1.22716
1.69161
3.0883
6.07476
12.892
20.8792
28.6129
36.4466
43.5685
49.0573
-0.169714
-0.156383
-0.128665
-0.142651
0.0475122
1.38695
3.69497
7.44088
12.231
19.3164
-0.382305
-0.379278
-0.362335
-0.407268
-0.454953
-0.409029
-0.42437
-0.442968
-0.348313
-0.0146859
-0.464007
-0.468678
-0.470089
-0.510739
-0.530818
-0.521209
-0.517762
-0.505804
-0.479372
-0.475831
-0.535987
-0.542285
-0.539938
-0.565673
-0.5919
-0.599255
-0.62602
-0.632729
-0.595518
-0.567335
-0.596247
-0.605912
-0.601567
-0.601627
-0.640612
-0.692545
-0.764004
-0.773387
-0.691331
-0.630588
-0.652423
-0.669042
-0.674402
-0.664798
-0.693163
-0.753424
-0.833663
-0.858149
-0.785941
-0.708975
-0.699631
-0.73023
-0.75865
-0.76087
-0.758278
-0.784823
-0.833483
-0.870775
-0.837755
-0.777844
-0.734959
-0.774951
-0.832109
-0.855745
-0.827694
-0.818891
-0.839411
-0.870897
-0.865156
-0.8367
-0.766722
-0.798663
-0.866614
-0.92039
-0.91845
-0.893226
-0.89805
-0.912386
-0.918266
-0.903893
-0.804346
-0.820444
-0.878403
-0.950226
-0.985226
-0.985792
-0.987361
-0.996897
-0.999776
-0.985706
-0.852945
-0.855762
-0.899217
-0.976568
-1.03255
-1.05265
-1.06391
-1.07571
-1.07995
-1.06499
-0.906671
-0.908066
-0.947944
-1.01604
-1.06574
-1.09011
-1.1118
-1.13088
-1.12686
-1.09796
351.753
352.394
353.766
355.731
358.148
360.853
363.604
366.199
368.542
370.442
301.491
302.184
303.725
305.836
308.422
311.361
314.365
317.179
319.649
321.659
249.725
250.541
252.59
255.161
258.221
261.597
264.987
268.18
270.956
273.153
196.12
196.879
199.8
203.291
206.941
211.198
215.383
219.237
222.54
225.078
139.888
140.373
144.465
148.628
154.286
160.036