/*--------------------------------*- C++ -*----------------------------------*\
| =========                 |                                                 |
| \\      /  F ield         | OpenFOAM: The Open Source CFD Toolbox           |
|  \\    /   O peration     | Version:  2312                                  |
|   \\  /    A nd           | Website:  www.openfoam.com                      |
|    \\/     M anipulation  |                                                 |
\*---------------------------------------------------------------------------*/
FoamFile
{
    version     2.0;
    format      ascii;
    arch        "LSB;label=32;scalar=64";
    class       volVectorField;
    location    "0.915";
    object      U;
}
// * * * * * * * * * * * * * * * * * * * * * * * * * * * * * * * * * * * * * //

dimensions      [0 1 -1 0 0 0 0];

internalField   nonuniform List<vector> 
8000
(
(-0.00526941 0.00769468 -0.00600123)
(-0.0104877 0.00590545 -0.00780902)
(-0.0116708 0.00511169 -0.00774177)
(-0.0128242 0.0040919 -0.0062681)
(-0.0134277 0.00300281 -0.00480424)
(-0.0131246 0.00206482 -0.00392947)
(-0.0117328 0.00139641 -0.00350785)
(-0.0095432 0.00087616 -0.00346188)
(-0.00660368 0.00045683 -0.00356342)
(-0.00254074 0.000224712 -0.00382581)
(-0.0071972 0.0282665 -0.00810042)
(-0.0136225 0.0235079 -0.0123447)
(-0.0159853 0.0206561 -0.0126391)
(-0.0180355 0.0165506 -0.00954334)
(-0.0188497 0.0115573 -0.00653053)
(-0.0179854 0.00753002 -0.00502079)
(-0.0155229 0.00488782 -0.00439051)
(-0.0120794 0.00316326 -0.00414466)
(-0.00799985 0.0018306 -0.00387325)
(-0.0026348 0.000599499 -0.00389151)
(-0.00631596 0.0516681 -0.00772297)
(-0.0119561 0.0426561 -0.0127706)
(-0.0187319 0.0395093 -0.0159243)
(-0.0235713 0.0324395 -0.0130862)
(-0.0244746 0.0223716 -0.00858696)
(-0.0221064 0.0136651 -0.00567664)
(-0.0184266 0.00810236 -0.00433855)
(-0.014555 0.00441564 -0.00370123)
(-0.0106603 0.00106148 -0.00275822)
(-0.00380493 -0.00121472 -0.0015745)
(-0.00113458 0.0648189 -0.0053096)
(-0.00941582 0.0502265 -0.00586972)
(-0.024062 0.0557408 -0.011503)
(-0.0356696 0.0489372 -0.0101412)
(-0.0377529 0.0330456 -0.00724156)
(-0.032503 0.018875 -0.00454935)
(-0.0264365 0.0106128 -0.00313902)
(-0.0230225 0.00652445 -0.00165221)
(-0.0187363 -0.000334509 0.00211419)
(-0.00565505 -0.0120694 0.00423029)
(0.00694906 0.0954602 -0.000716902)
(-0.0183102 0.0716105 0.0104345)
(-0.0458215 0.075749 -0.00102726)
(-0.0631177 0.061947 -0.00161729)
(-0.0658987 0.0385535 0.000588232)
(-0.0551611 0.0196902 0.00135758)
(-0.0414318 0.0109932 0.000704623)
(-0.0331219 0.00333776 0.00118486)
(-0.0204191 -0.0192257 0.00214722)
(0.000583373 -0.0382907 -0.00141806)
(-0.0143411 0.0684109 0.0123868)
(-0.082819 0.0612143 0.0215629)
(-0.105885 0.0752021 0.0134619)
(-0.106699 0.0637714 0.00522517)
(-0.0955177 0.0285119 0.000323468)
(-0.071167 -0.000967334 -0.00318678)
(-0.0447269 -0.00712879 -0.00282634)
(-0.0248438 -0.0105137 -0.00373506)
(-0.00775209 -0.0363665 -0.0146101)
(0.00822783 -0.0460486 -0.0217196)
(-0.0780044 0.199731 -0.0411059)
(-0.141303 0.146793 -0.0597296)
(-0.153762 0.0520634 -0.00844909)
(-0.138163 0.00751374 0.00307924)
(-0.120421 -0.0129531 -0.00926579)
(-0.0881179 -0.0322033 -0.0166597)
(-0.0531995 -0.0330729 -0.0167438)
(-0.0198418 -0.0234313 -0.0188234)
(-0.00332393 -0.0290248 -0.0330444)
(-0.003122 -0.0277431 -0.0412441)
(-0.0914433 0.528125 -0.21906)
(-0.155871 0.327189 -0.194587)
(-0.203219 0.164075 -0.153518)
(-0.207912 0.060733 -0.102127)
(-0.154001 0.000770725 -0.0520782)
(-0.128721 -0.0419346 -0.0207385)
(-0.0958794 -0.0528071 -0.00850947)
(-0.0656941 -0.0350765 -0.0149858)
(-0.0368695 -0.00651888 -0.0294525)
(-0.0572022 0.00777278 -0.0449113)
(-0.0225903 0.878688 -0.230878)
(0.00154344 0.676963 -0.255538)
(0.0306299 0.488774 -0.216711)
(-0.014563 0.339131 -0.195233)
(0.0446119 0.116741 -0.129301)
(-0.0574874 -0.0145643 -0.018698)
(-0.185735 -0.0483683 0.071268)
(-0.229252 -0.00524854 0.0662822)
(-0.150978 0.0382423 0.0342191)
(-0.151722 0.063766 0.0108205)
(0.0334176 0.977455 -0.137553)
(0.0918562 0.963088 -0.190291)
(0.130153 0.71493 -0.149708)
(0.127918 0.506592 -0.103946)
(0.189584 0.264377 -0.0762444)
(0.20275 0.147913 -0.0612986)
(0.16759 0.022617 0.00379841)
(-0.0723203 -0.0240542 0.102298)
(-0.203362 -0.0283987 0.0731768)
(-0.201783 0.159779 0.034465)
(0.053387 0.813779 -0.0221475)
(0.133118 0.905153 -0.0735211)
(0.195099 0.652133 -0.0501902)
(0.242519 0.415778 -0.0236145)
(0.298056 0.217354 -0.0142146)
(0.316618 0.120193 -0.00937582)
(0.293785 0.0762313 0.0234062)
(0.0976916 0.0455303 0.0626156)
(-0.120223 0.0204091 0.0740449)
(-0.171149 0.0486978 0.0589315)
(0.042132 0.528011 0.0456017)
(0.137865 0.647828 0.0169125)
(0.222002 0.461904 0.0123454)
(0.288957 0.270329 0.0133943)
(0.327484 0.13711 0.0252964)
(0.308762 0.0838916 0.0456592)
(0.246416 0.0760542 0.0637914)
(0.0836346 0.0715468 0.0609817)
(-0.101344 0.0269125 0.0347491)
(-0.172654 -0.00944551 0.0330416)
(0.0253795 0.360029 0.0313505)
(0.112003 0.44788 0.02305)
(0.190452 0.332228 0.0131861)
(0.246973 0.203452 0.00738267)
(0.285243 0.125157 0.0176073)
(0.262516 0.0944055 0.0483397)
(0.169092 0.0869857 0.0764871)
(-0.0150882 0.091793 0.0591645)
(-0.160179 0.0295583 0.0412925)
(-0.19725 -0.0455235 0.0460836)
(0.0162577 0.308093 -0.00727118)
(0.0717983 0.362642 -0.00856069)
(0.119631 0.273664 0.00198861)
(0.175634 0.182061 -0.0157657)
(0.22297 0.146867 -0.0123039)
(0.210963 0.128577 0.0325322)
(0.0759174 0.101175 0.0742667)
(-0.131187 0.0931518 0.069076)
(-0.212649 0.006909 0.0720971)
(-0.205974 -0.110786 0.0476922)
(0.00640895 0.290949 -0.028569)
(0.0293624 0.31528 -0.0165143)
(0.0547027 0.237605 -0.00198581)
(0.124806 0.203083 -0.0425785)
(0.166244 0.199228 -0.0318441)
(0.153505 0.161186 0.0288912)
(-0.0402923 0.104355 0.0791814)
(-0.216056 0.0610942 0.0885293)
(-0.252575 -0.0698699 0.0603617)
(-0.239738 -0.186259 0.0078281)
(-0.00657312 0.287194 -0.026543)
(-0.0107301 0.289398 -0.00279492)
(0.0176659 0.247665 -0.0192227)
(0.0888553 0.259944 -0.0593983)
(0.117204 0.255574 -0.0249056)
(0.0809649 0.166769 0.0431231)
(-0.150672 0.0978166 0.0882525)
(-0.278601 0.00711227 0.069546)
(-0.303027 -0.128976 0.0101595)
(-0.315641 -0.207 -0.0185416)
(-0.0161801 0.289864 -0.00518747)
(-0.0375219 0.301927 0.00583339)
(-0.00415191 0.293593 -0.0379144)
(0.0566795 0.321201 -0.0572286)
(0.0741298 0.291642 -0.00472621)
(-0.0169115 0.152844 0.0632342)
(-0.243888 0.0948005 0.0726777)
(-0.336507 -0.0199868 0.0207467)
(-0.356766 -0.133494 -0.0231015)
(-0.391015 -0.177692 -0.011362)
(-0.0157145 0.287491 0.0213612)
(-0.0477267 0.34282 0.0113497)
(-0.0218189 0.346183 -0.0411925)
(0.0231991 0.364281 -0.0420979)
(0.0311364 0.281071 0.0217107)
(-0.12517 0.153969 0.0641368)
(-0.32212 0.115521 0.0317954)
(-0.376873 0.00375858 -0.0297663)
(-0.379831 -0.0893956 -0.0369255)
(-0.434681 -0.130951 0.00773928)
(-0.00626401 0.258715 0.0382081)
(-0.0423953 0.377599 0.0225505)
(-0.0390048 0.387733 -0.0306449)
(-0.00698639 0.38204 -0.0202513)
(-0.0198819 0.248371 0.0441143)
(-0.217093 0.188209 0.0430871)
(-0.365091 0.172445 -0.0212653)
(-0.374777 0.0701304 -0.07739)
(-0.377433 -0.0269326 -0.0467857)
(-0.430665 -0.0827272 0.0292339)
(-0.00686604 0.203607 0.0387309)
(-0.0321531 0.381009 0.0399722)
(-0.0444955 0.41311 -0.00310769)
(-0.0226539 0.360429 0.0123623)
(-0.0735728 0.22665 0.0542351)
(-0.272736 0.245825 0.0144368)
(-0.364202 0.255999 -0.066865)
(-0.345314 0.159709 -0.10924)
(-0.34358 0.0369963 -0.0469675)
(-0.395525 -0.055 0.048566)
(-0.00707205 0.00576124 -0.0122885)
(-0.011754 0.000960319 -0.013622)
(-0.00855285 -0.000589249 -0.0141014)
(-0.00672064 -0.000157603 -0.0118896)
(-0.00631948 0.000283636 -0.00918605)
(-0.00607336 0.000122808 -0.00728327)
(-0.00510209 -0.000215304 -0.00610706)
(-0.00358838 -0.000512744 -0.00555329)
(-0.00207455 -0.000563043 -0.0053443)
(-0.000267087 -0.000606459 -0.00562936)
(-0.0114219 0.0229517 -0.015894)
(-0.0119209 0.0046983 -0.0150876)
(-0.00576622 0.000511383 -0.0176044)
(-0.00569101 0.00338915 -0.0170309)
(-0.007885 0.0038977 -0.0130679)
(-0.00895402 0.00223695 -0.00967362)
(-0.00793777 0.000345278 -0.00778769)
(-0.00576651 -0.00107301 -0.00676196)
(-0.00342121 -0.00193789 -0.00599088)
(-0.000381739 -0.00320836 -0.00572187)
(-0.0109971 0.0409774 -0.0155553)
(0.000702387 -0.00771434 -0.00401179)
(0.00476272 -0.00851075 -0.00925866)
(0.000253033 0.00722921 -0.0163328)
(-0.00586336 0.0107373 -0.0165582)
(-0.00844079 0.00623917 -0.0125049)
(-0.00744762 0.00107749 -0.0089261)
(-0.00502272 -0.00221855 -0.00673639)
(-0.00305798 -0.00425743 -0.00453603)
(0.000289171 -0.006665 -0.00210111)
(-0.00139128 0.0467528 -0.0140964)
(0.00772668 -0.0209384 0.0129499)
(-0.001649 -0.0167796 0.00730031)
(-0.00948625 0.0105609 -0.00541479)
(-0.0170506 0.0187464 -0.0130155)
(-0.0162413 0.0114633 -0.0126915)
(-0.0125068 0.00251827 -0.00876724)
(-0.00992102 -0.00194118 -0.00457335)
(-0.00912317 -0.00322485 0.00122637)
(-0.00227984 -0.00997784 0.00712836)
(0.0111069 0.0697097 -0.0126053)
(-0.00645111 -2.4016e-05 0.0191565)
(-0.0428369 0.00405428 0.0211227)
(-0.0481371 0.0229754 0.00753721)
(-0.049138 0.0252801 -0.00225986)
(-0.0404351 0.0150422 -0.00587937)
(-0.0289297 0.00494634 -0.00548615)
(-0.0198193 -0.000225079 -0.00222983)
(-0.011364 -0.0090129 0.00507827)
(0.00593817 -0.0279272 0.00883749)
(0.00194749 0.0732505 -0.0525558)
(-0.0649817 0.0526353 -0.0365802)
(-0.113033 0.0352521 0.011448)
(-0.0967937 0.0357726 0.0101859)
(-0.0833093 0.0274812 0.000126187)
(-0.0620199 0.00798627 -0.00750771)
(-0.0379392 -0.00709606 -0.0111354)
(-0.0100835 -0.0167463 -0.0144457)
(0.0132642 -0.0272935 -0.0143656)
(0.0268517 -0.0370418 -0.0136393)
(-0.0280575 0.185257 -0.153443)
(-0.103095 0.163571 -0.165256)
(-0.153205 0.0723695 -0.0831723)
(-0.131505 0.0140911 -0.0351392)
(-0.105428 -0.00327269 -0.0256958)
(-0.06957 -0.0232932 -0.024028)
(-0.0326384 -0.0386223 -0.0163982)
(0.00539239 -0.0452976 -0.0181356)
(0.0222919 -0.048106 -0.0266609)
(0.0254804 -0.0406165 -0.0320098)
(-0.0737658 0.331655 -0.312295)
(-0.141304 0.253143 -0.273953)
(-0.185998 0.143136 -0.223953)
(-0.191885 0.0661765 -0.187281)
(-0.157114 -0.00203378 -0.117088)
(-0.114246 -0.037152 -0.03352)
(-0.0745001 -0.0477041 -0.00298323)
(-0.044793 -0.0416461 -0.00869282)
(-0.0315612 -0.0295049 -0.0439996)
(-0.0352235 -0.0168573 -0.0664641)
(-0.0337148 0.611408 -0.233838)
(-0.0733646 0.370377 -0.307881)
(-0.100083 0.201481 -0.265025)
(-0.116647 0.125292 -0.254659)
(-0.114967 0.0308082 -0.146128)
(-0.22884 0.0270717 0.026756)
(-0.282849 0.0407323 -0.0244835)
(-0.240108 0.0256744 -0.0928312)
(-0.141971 0.021572 -0.136131)
(-0.103087 -0.00474325 -0.235216)
(0.0145916 0.79507 0.0128464)
(0.0147728 0.601853 -0.0883042)
(-0.0192596 0.340924 -0.0746666)
(-0.00313419 0.188691 -0.0516719)
(0.103139 0.121205 -0.0465548)
(0.0445988 0.163712 0.0166528)
(0.0346482 0.0988443 0.162425)
(-0.190066 0.000245665 0.181772)
(-0.184227 0.0228185 0.0216305)
(-0.162147 0.17167 -0.0271548)
(0.068542 0.635686 0.15126)
(0.142634 0.614079 0.118681)
(0.160847 0.325948 0.0884265)
(0.204993 0.0696831 0.0679458)
(0.278949 -0.0325192 0.0470911)
(0.284365 0.0697123 0.0525401)
(0.295209 0.134176 0.136736)
(0.0372863 0.0614273 0.213671)
(-0.218571 0.10592 0.208238)
(-0.229404 0.201933 0.172785)
(0.0603944 0.337637 0.16116)
(0.164178 0.382439 0.168801)
(0.227018 0.187635 0.125986)
(0.265521 0.0173392 0.0454888)
(0.297827 -0.00638201 0.0296929)
(0.301154 0.0654471 0.0740038)
(0.302599 0.134718 0.137402)
(0.133667 0.123602 0.194793)
(-0.183641 0.130403 0.203149)
(-0.241439 0.135633 0.161707)
(0.0255131 0.255165 0.0711286)
(0.0995424 0.26801 0.0931652)
(0.169009 0.150457 0.0675624)
(0.1985 0.0252649 -0.0358396)
(0.230688 0.0212631 -0.0408225)
(0.223106 0.10315 0.0537408)
(0.216165 0.158896 0.154617)
(0.0759825 0.181544 0.19941)
(-0.174094 0.173529 0.15589)
(-0.221484 0.123482 0.0822562)
(0.00971603 0.251375 0.0113017)
(0.0258885 0.224606 0.0616789)
(0.0897406 0.122897 0.0022628)
(0.119977 0.0573965 -0.130371)
(0.145531 0.1033 -0.0982687)
(0.11831 0.172335 0.064796)
(0.124926 0.18351 0.199097)
(-0.0818973 0.216708 0.204345)
(-0.209581 0.199556 0.118696)
(-0.210912 0.128349 0.0415926)
(-0.0175352 0.224226 0.0248431)
(-0.0424353 0.166096 0.0435745)
(0.0203297 0.122571 -0.101039)
(0.0397858 0.137714 -0.186243)
(0.0462092 0.198026 -0.0977)
(0.0598489 0.212781 0.127137)
(-0.0227317 0.198662 0.230989)
(-0.232802 0.229365 0.187745)
(-0.252913 0.182872 0.0944129)
(-0.196861 0.0920895 0.0480907)
(-0.0560768 0.214902 0.0477128)
(-0.0933054 0.16144 -0.0237478)
(-0.0521707 0.18084 -0.171374)
(-0.0401805 0.227761 -0.182096)
(-0.0305656 0.259003 -0.038667)
(0.0243086 0.224611 0.187086)
(-0.192346 0.223018 0.220879)
(-0.317909 0.220297 0.148659)
(-0.269615 0.129243 0.0771747)
(-0.175047 0.00404398 0.0534125)
(-0.0815053 0.252604 0.0589639)
(-0.133783 0.214047 -0.0724031)
(-0.120215 0.255196 -0.183981)
(-0.109225 0.29654 -0.133996)
(-0.0672465 0.284043 0.0539491)
(-0.0621145 0.236867 0.210123)
(-0.303997 0.249339 0.175623)
(-0.336837 0.187678 0.09347)
(-0.258746 0.0487018 0.0405901)
(-0.202308 -0.0759705 0.00994587)
(-0.0840317 0.313464 0.078777)
(-0.160107 0.288332 -0.0665228)
(-0.174056 0.326934 -0.145929)
(-0.156654 0.344608 -0.0574579)
(-0.0925907 0.305544 0.134112)
(-0.162365 0.266176 0.198548)
(-0.338182 0.273766 0.110322)
(-0.317654 0.161474 0.0201069)
(-0.284648 0.00835209 -0.0157221)
(-0.298379 -0.0725159 -0.00820943)
(-0.0637337 0.355688 0.109176)
(-0.166915 0.362373 -0.0183671)
(-0.208158 0.380973 -0.074864)
(-0.183867 0.376925 0.0320023)
(-0.128117 0.336268 0.181371)
(-0.229829 0.322315 0.165457)
(-0.324314 0.315615 0.0344588)
(-0.316029 0.184507 -0.0557184)
(-0.354221 0.0173854 -0.0341919)
(-0.430816 -0.0416702 0.031683)
(-0.0401827 0.350333 0.128924)
(-0.156297 0.425932 0.0486819)
(-0.216245 0.4172 0.0139971)
(-0.18806 0.407689 0.112135)
(-0.163257 0.374102 0.20144)
(-0.261613 0.397896 0.127421)
(-0.299373 0.390144 -0.031325)
(-0.337634 0.246034 -0.095086)
(-0.43182 0.0382661 -0.00547765)
(-0.505908 -0.0111077 0.0939504)
(-0.00707903 0.00478844 -0.0141902)
(-0.0122757 -0.000773089 -0.0110922)
(-0.00869866 -0.00261707 -0.0113098)
(-0.00605105 -0.00184526 -0.0106013)
(-0.005509 -0.000864415 -0.00906051)
(-0.00551238 -0.000712684 -0.00744601)
(-0.00480097 -0.00103381 -0.00604649)
(-0.00343894 -0.00127278 -0.0051093)
(-0.00212796 -0.00130894 -0.00444906)
(-0.000601416 -0.0015193 -0.00427185)
(-0.011791 0.0198102 -0.0190145)
(-0.0150005 -0.000653394 -0.00980398)
(-0.00615036 -0.00856989 -0.010065)
(-0.00380887 -0.00373711 -0.0127992)
(-0.00584514 -0.000234566 -0.0124748)
(-0.00766873 -0.000318742 -0.0102942)
(-0.00724052 -0.00185921 -0.00826278)
(-0.0053127 -0.00340108 -0.0067204)
(-0.00318095 -0.00460311 -0.00546834)
(-0.00043331 -0.0064987 -0.0046398)
(-0.0153143 0.0378592 -0.0224686)
(-0.00591098 -0.0122143 -0.000551211)
(0.00569977 -0.0247215 -0.000316913)
(0.00689403 -0.00898773 -0.00910109)
(0.000355353 0.00126231 -0.0140999)
(-0.00506563 0.000840135 -0.0130009)
(-0.00586558 -0.0031945 -0.00995089)
(-0.00371505 -0.00660371 -0.00727328)
(-0.00162792 -0.00878155 -0.00490026)
(0.000821941 -0.0114387 -0.00272474)
(-0.0117717 0.0528753 -0.027992)
(0.00431295 -0.0218112 0.00401293)
(0.00429103 -0.036911 0.00637496)
(0.00437245 -0.0117708 -0.00493372)
(-0.00244634 0.00511472 -0.013992)
(-0.00722997 0.00393608 -0.0153594)
(-0.00715588 -0.00372397 -0.0111489)
(-0.00457348 -0.00828825 -0.00613274)
(-0.00341823 -0.00814872 -0.00142299)
(-0.000447653 -0.0102231 0.00332194)
(-0.000814973 0.0784798 -0.0412187)
(0.00658317 0.00106248 -0.0180883)
(-0.0241981 -0.0216392 -0.00297736)
(-0.0265773 -0.00231958 -0.00419504)
(-0.0279886 0.00953338 -0.0114923)
(-0.0248392 0.00507897 -0.0132246)
(-0.0166051 -0.00444182 -0.00787209)
(-0.00722479 -0.0089227 -0.00127193)
(-0.00506186 -0.00993445 0.00450359)
(0.000655403 -0.0160464 0.00954624)
(0.00683385 0.0979247 -0.0926306)
(-0.00969656 0.0607978 -0.0982521)
(-0.0719928 0.0339448 -0.0491292)
(-0.0728296 0.0280867 -0.0198785)
(-0.0630069 0.021324 -0.0158471)
(-0.0473406 0.000845004 -0.0167958)
(-0.027035 -0.019213 -0.0163201)
(-0.0086153 -0.0195111 -0.0165267)
(0.00502415 -0.00738514 -0.0123008)
(0.0158336 -0.012323 -0.00570143)
(0.00327164 0.0993397 -0.1997)
(-0.0506081 0.0896489 -0.209693)
(-0.118778 0.0693277 -0.135978)
(-0.116438 0.031199 -0.0822694)
(-0.0953658 0.000958473 -0.0551307)
(-0.0625501 -0.0323533 -0.0511243)
(-0.0329299 -0.0491898 -0.0534305)
(-0.0129878 -0.0529426 -0.0548701)
(0.00415785 -0.0493109 -0.049382)
(0.0209338 -0.0438701 -0.0419043)
(-0.0324697 0.169122 -0.377167)
(-0.10161 0.162359 -0.334445)
(-0.145999 0.112928 -0.265496)
(-0.156223 0.0523248 -0.222324)
(-0.14146 -0.0122507 -0.172252)
(-0.109772 -0.040579 -0.127686)
(-0.0740188 -0.0401123 -0.109075)
(-0.0380636 -0.0373772 -0.0906198)
(-0.0206358 -0.0362316 -0.0859814)
(-0.00797991 -0.0199852 -0.0918434)
(-0.0101296 0.347384 -0.291898)
(-0.06013 0.238478 -0.34401)
(-0.0674643 0.15472 -0.279163)
(-0.0823201 0.0999957 -0.258196)
(-0.0955197 0.0168569 -0.20079)
(-0.192227 0.000741486 -0.142697)
(-0.188017 -0.0111912 -0.083824)
(-0.101103 -0.0419354 -0.0695484)
(-0.0216362 -0.0772064 -0.136787)
(-0.0313722 -0.108438 -0.188987)
(0.0425061 0.410124 -0.0220801)
(0.0530903 0.348636 -0.119132)
(0.0539295 0.183954 -0.0752713)
(0.0853463 0.0818323 -0.0209231)
(0.126423 0.138817 -0.00912593)
(0.0258882 0.196689 -0.0271181)
(0.000274088 0.130848 0.215246)
(-0.0982593 -0.128945 0.250789)
(-0.103441 -0.128203 -0.0614295)
(-0.132304 -0.193107 -0.200271)
(0.0523621 0.119128 0.145258)
(0.120313 0.145647 0.128859)
(0.149299 -0.0153714 0.0846777)
(0.190874 -0.121333 0.0107579)
(0.273326 -0.0129183 0.0512324)
(0.235678 0.212549 0.0727848)
(0.211928 0.21377 0.22571)
(0.049011 0.0547349 0.346614)
(-0.173288 0.0792776 0.223328)
(-0.221264 0.0998453 0.0805233)
(0.018001 0.0950965 0.123978)
(0.0867268 0.0954722 0.139074)
(0.163746 0.00782977 0.05182)
(0.182475 -0.0841373 -0.0645009)
(0.232562 -0.00268899 -0.0259247)
(0.264243 0.190811 0.075802)
(0.263455 0.25416 0.198686)
(0.160226 0.153036 0.328313)
(-0.172933 0.159262 0.292851)
(-0.257817 0.168135 0.173554)
(0.00250017 0.151827 0.0265958)
(0.0531397 0.126114 0.0495276)
(0.138779 0.0304953 0.00485788)
(0.133227 -0.0725761 -0.129159)
(0.144117 0.0166518 -0.110582)
(0.189859 0.198389 0.0313433)
(0.206244 0.274602 0.182507)
(0.16304 0.238933 0.319309)
(-0.119167 0.250729 0.280065)
(-0.221514 0.226281 0.137842)
(0.0024585 0.172128 0.0143869)
(0.015468 0.110993 0.055599)
(0.0941725 0.0414636 -0.0512869)
(0.0510166 -0.0139365 -0.2117)
(0.0390807 0.076208 -0.168239)
(0.0683029 0.2362 0.0199594)
(0.131524 0.268284 0.224161)
(0.0719851 0.287333 0.330601)
(-0.102459 0.311445 0.232748)
(-0.183443 0.267111 0.0688547)
(-0.0227672 0.165502 0.0699873)
(-0.0350666 0.0894465 0.021098)
(-0.0113705 0.0577422 -0.164764)
(-0.0566547 0.0688245 -0.252547)
(-0.0713322 0.143542 -0.155576)
(-0.0286322 0.23333 0.0900103)
(0.0577464 0.249111 0.308576)
(-0.0726073 0.314328 0.307669)
(-0.128556 0.322985 0.160707)
(-0.181382 0.281266 0.00745325)
(-0.0625506 0.171765 0.0988426)
(-0.102401 0.115525 -0.0650029)
(-0.129942 0.102936 -0.22601)
(-0.1584 0.138042 -0.240107)
(-0.145693 0.186085 -0.0876559)
(-0.050936 0.210278 0.209107)
(-0.0683635 0.255363 0.332625)
(-0.172637 0.314021 0.23327)
(-0.177069 0.310971 0.078905)
(-0.181702 0.265757 -0.0242042)
(-0.0939638 0.220522 0.111822)
(-0.166051 0.169484 -0.10041)
(-0.221376 0.152771 -0.22823)
(-0.239858 0.192895 -0.203974)
(-0.190201 0.226932 -0.018051)
(-0.0779322 0.223664 0.261782)
(-0.145555 0.263715 0.284355)
(-0.196364 0.295333 0.13498)
(-0.205199 0.290141 0.00649718)
(-0.136494 0.2144 -0.0285193)
(-0.104644 0.294429 0.148261)
(-0.203978 0.238941 -0.0642589)
(-0.283597 0.212158 -0.187407)
(-0.299287 0.251393 -0.155606)
(-0.2217 0.290491 0.0140126)
(-0.111846 0.28976 0.212768)
(-0.134764 0.305607 0.17583)
(-0.167094 0.315962 0.0246357)
(-0.17996 0.279414 -0.0424939)
(-0.0415795 0.15152 -0.00411093)
(-0.0850309 0.357657 0.204143)
(-0.212949 0.310767 0.0211362)
(-0.311723 0.289234 -0.11663)
(-0.326397 0.319464 -0.102451)
(-0.238122 0.369457 0.0216848)
(-0.133565 0.391585 0.104798)
(-0.101332 0.405606 0.0244491)
(-0.133098 0.38883 -0.0714383)
(-0.135471 0.270151 -0.0427875)
(-0.0830998 0.0891195 0.0790105)
(-0.0453791 0.37461 0.247047)
(-0.204956 0.367204 0.106219)
(-0.322236 0.361587 -0.0368725)
(-0.321839 0.394341 -0.0438499)
(-0.236355 0.445896 0.0310294)
(-0.140779 0.481955 0.0204298)
(-0.0985068 0.497803 -0.0799981)
(-0.140658 0.453092 -0.0933173)
(-0.175767 0.249745 0.0305108)
(-0.266586 0.0716666 0.131691)
(-0.00561648 0.00367096 -0.0159068)
(-0.0100882 -0.000498113 -0.00970346)
(-0.00799037 -0.00194577 -0.00911844)
(-0.00592862 -0.00148394 -0.00907738)
(-0.00528524 -0.000912332 -0.00838415)
(-0.00506941 -0.00084984 -0.00704831)
(-0.00438307 -0.00106637 -0.00540199)
(-0.00310213 -0.00110375 -0.00385891)
(-0.00189667 -0.00100131 -0.00244505)
(-0.000609776 -0.00109207 -0.0016517)
(-0.00876732 0.0153951 -0.0215019)
(-0.0148685 0.00237602 -0.00945701)
(-0.00968872 -0.00403858 -0.00764005)
(-0.00666607 -0.00265072 -0.0100876)
(-0.00690105 -0.00091324 -0.0110752)
(-0.00748063 -0.00108286 -0.0097774)
(-0.00679061 -0.00224851 -0.00760488)
(-0.00484482 -0.00344224 -0.00561581)
(-0.00251126 -0.00453197 -0.00353758)
(-2.79031e-05 -0.00587515 -0.00209217)
(-0.0123172 0.0306786 -0.027558)
(-0.0138843 0.00360516 -0.0053058)
(-0.00405496 -0.010215 0.000286068)
(-0.000561694 -0.00511332 -0.00580266)
(-0.00291664 -0.00113668 -0.0110618)
(-0.00569951 -0.00196062 -0.0113291)
(-0.00587599 -0.00489208 -0.00879408)
(-0.00388339 -0.0079423 -0.00621801)
(-0.00184641 -0.00988004 -0.00398715)
(0.000659382 -0.0111164 -0.00259094)
(-0.0116744 0.046748 -0.0400579)
(-0.00531237 0.00580961 -0.0104524)
(0.000547976 -0.0141586 -0.000594339)
(0.00260576 -0.00590028 -0.00608614)
(-0.00145585 0.000894686 -0.0124773)
(-0.00493184 -0.0015621 -0.0137256)
(-0.00552612 -0.00615801 -0.0105276)
(-0.00373438 -0.00907466 -0.00649624)
(-0.00275248 -0.00966 -0.00307506)
(-0.000168094 -0.0103893 -0.00183911)
(-0.0050257 0.0641875 -0.0639737)
(0.00121347 0.0219026 -0.0340157)
(-0.0103593 -0.00325777 -0.0182326)
(-0.0125169 -0.000457528 -0.0169876)
(-0.0148039 0.00214241 -0.0179203)
(-0.0118538 -0.00269069 -0.0143998)
(-0.00483131 -0.00899593 -0.00769275)
(-0.00145427 -0.0141508 -0.00292021)
(-0.00489755 -0.0145905 -0.00198599)
(-0.00378207 -0.0135946 -0.00207106)
(0.00398571 0.0847321 -0.103046)
(-0.000828375 0.0517112 -0.0804317)
(-0.0427414 0.0349413 -0.0548382)
(-0.050498 0.0270775 -0.0379578)
(-0.0442684 0.0115951 -0.0269783)
(-0.0299348 -0.00952931 -0.02011)
(-0.0136709 -0.0125957 -0.015138)
(-0.0031202 -0.00127481 -0.00996968)
(-0.000796013 0.00576324 -0.00473836)
(0.00351635 -0.00268316 -0.00101681)
(0.0114543 0.0439778 -0.17923)
(-0.0274669 0.0386227 -0.174724)
(-0.088257 0.042706 -0.125032)
(-0.0946239 0.0226433 -0.084141)
(-0.078977 -0.00816439 -0.058583)
(-0.0544181 -0.0360277 -0.0514441)
(-0.0392068 -0.0399139 -0.0481687)
(-0.0189947 -0.0391671 -0.03938)
(-0.00183509 -0.0325663 -0.0288953)
(0.00901736 -0.0278128 -0.023261)
(-0.0236352 0.0257282 -0.384055)
(-0.0763783 0.0603182 -0.334629)
(-0.115843 0.0526616 -0.261882)
(-0.122901 0.00641672 -0.211452)
(-0.120947 -0.0310225 -0.157724)
(-0.119231 -0.0377795 -0.130404)
(-0.0979397 -0.0344551 -0.114753)
(-0.0621388 -0.0445373 -0.0924269)
(-0.0276235 -0.0451684 -0.0641201)
(-0.00331445 -0.03586 -0.0535991)
(-0.0181103 0.0562777 -0.234998)
(-0.0383789 0.0761545 -0.312346)
(-0.0471431 0.0790398 -0.276589)
(0.0286419 0.023224 -0.231695)
(-0.162276 -0.0177967 -0.251021)
(-0.222678 -0.0614359 -0.226371)
(-0.151344 -0.117588 -0.151578)
(-0.0850874 -0.108867 -0.140826)
(-0.0239872 -0.12042 -0.135524)
(0.00867225 -0.11185 -0.1061)
(0.0322967 0.105014 0.0637795)
(0.0510565 0.116093 0.0409793)
(0.055745 0.0296275 0.0487182)
(0.133079 0.0969449 0.0790906)
(0.180815 0.182943 -0.00128099)
(0.0980275 0.162635 -0.0764181)
(0.0563467 -0.105046 0.206386)
(-0.0595506 -0.105301 0.146431)
(-0.13474 -0.206843 -0.101099)
(-0.08399 -0.224406 -0.228179)
(0.00146032 -0.0971543 0.0935062)
(0.058571 -0.0633904 0.138368)
(0.107053 -0.124895 0.0479395)
(0.155013 -0.101919 0.00630428)
(0.273112 0.114963 0.0909947)
(0.282697 0.246612 0.0754531)
(0.234483 0.181234 0.213957)
(0.112957 0.0888576 0.382204)
(-0.0927009 0.0513383 0.234436)
(-0.161774 -0.158233 0.104012)
(-0.0186786 0.0609186 0.0170741)
(0.0132589 0.0325023 0.0202164)
(0.103687 -0.0860697 -0.0419085)
(0.0960226 -0.128624 -0.116356)
(0.196834 0.0813733 -0.00947049)
(0.273836 0.262003 0.0677596)
(0.277867 0.306901 0.193508)
(0.214275 0.203379 0.389309)
(-0.0581337 0.148492 0.369)
(-0.112744 0.106275 0.170441)
(-0.011031 0.105456 -0.033736)
(0.0295779 0.0451889 -0.00774758)
(0.103545 -0.0663755 -0.0506833)
(0.045316 -0.127758 -0.181347)
(0.0822507 0.0700624 -0.139213)
(0.170727 0.266174 -0.0166976)
(0.218813 0.362839 0.16233)
(0.225244 0.300891 0.363107)
(0.0014894 0.253594 0.379422)
(-0.0667645 0.200763 0.187035)
(-0.00169082 0.11728 -0.00839863)
(0.0258024 0.0523598 0.0461905)
(0.0674005 -0.0248839 -0.0799428)
(-0.0294338 -0.0745481 -0.251284)
(-0.0284141 0.0664314 -0.215855)
(0.0360705 0.258577 -0.0294073)
(0.118851 0.348354 0.184956)
(0.166245 0.332324 0.367449)
(0.0366992 0.314213 0.339495)
(-0.051608 0.277884 0.142101)
(-0.0179104 0.130457 0.093791)
(-0.0294547 0.0417345 0.0323532)
(-0.05228 -0.00667001 -0.173539)
(-0.120362 -0.00747154 -0.283786)
(-0.12876 0.0916412 -0.21513)
(-0.0693985 0.2158 0.0281537)
(0.0644428 0.271178 0.282044)
(0.0717303 0.312522 0.368884)
(0.0139677 0.342551 0.256045)
(-0.0882835 0.339012 0.0599168)
(-0.0548892 0.157027 0.146191)
(-0.116756 0.0685889 -0.0523593)
(-0.174958 0.0152008 -0.227363)
(-0.210824 0.0383513 -0.274743)
(-0.209212 0.1291 -0.1867)
(-0.112618 0.191374 0.0835133)
(0.0169456 0.220147 0.336114)
(-0.00509149 0.292027 0.300102)
(-0.0595702 0.378399 0.143533)
(-0.11715 0.346663 -0.0228219)
(-0.0855024 0.218291 0.173065)
(-0.173392 0.116808 -0.0761101)
(-0.250782 0.0362875 -0.228672)
(-0.278205 0.0677806 -0.25674)
(-0.263262 0.172343 -0.186251)
(-0.137531 0.244467 0.032524)
(-0.0178302 0.248803 0.239365)
(-0.0398326 0.320993 0.169855)
(-0.107588 0.409876 0.0358009)
(-0.0484076 0.307862 -0.0912817)
(-0.0921233 0.297268 0.222802)
(-0.180751 0.190606 -0.0249229)
(-0.282653 0.0692403 -0.194343)
(-0.320948 0.0958516 -0.225926)
(-0.290127 0.206033 -0.204522)
(-0.162485 0.320267 -0.10714)
(-0.0307537 0.368387 0.00632093)
(-0.0209388 0.41704 0.00160833)
(-0.062509 0.438695 -0.0650539)
(0.0531774 0.284909 -0.100848)
(-0.0573998 0.362724 0.296686)
(-0.140809 0.282296 0.0876701)
(-0.235201 0.159536 -0.112171)
(-0.308834 0.127625 -0.179608)
(-0.280557 0.217122 -0.192582)
(-0.16534 0.332983 -0.191243)
(-0.037871 0.42213 -0.164154)
(0.00801808 0.47984 -0.121982)
(0.00024915 0.445894 -0.0980481)
(0.102752 0.28339 0.0411712)
(0.0107643 0.371993 0.356238)
(-0.0872837 0.336123 0.208826)
(-0.173927 0.249051 -0.00261688)
(-0.221687 0.190319 -0.126319)
(-0.230441 0.225988 -0.15356)
(-0.142443 0.30607 -0.185263)
(-0.0557869 0.406442 -0.185552)
(-0.0197979 0.497012 -0.113733)
(-0.0133351 0.447717 0.0208009)
(-0.0166657 0.228173 0.208523)
(-0.00417412 0.00253317 -0.0168918)
(-0.00741558 -0.000142913 -0.00971707)
(-0.00644036 -0.00111021 -0.008955)
(-0.00519257 -0.00103601 -0.00876403)
(-0.00451314 -0.000880176 -0.00803758)
(-0.00395494 -0.000852254 -0.00659155)
(-0.00325504 -0.000742264 -0.004853)
(-0.00218059 -0.000438692 -0.00328835)
(-0.001228 -7.6902e-06 -0.00153364)
(-0.000488002 0.000481671 -0.000525455)
(-0.0058522 0.0101472 -0.0227377)
(-0.011004 0.0027455 -0.0117004)
(-0.00950966 -0.000816933 -0.00980868)
(-0.00761668 -0.00123877 -0.0107589)
(-0.00691515 -0.00120793 -0.0108064)
(-0.00642639 -0.0017099 -0.00930946)
(-0.00528023 -0.00233991 -0.0069725)
(-0.00305982 -0.00302015 -0.00455683)
(-0.000702215 -0.00319626 -0.00171202)
(0.00107631 -0.00279867 0.000491937)
(-0.00779954 0.0200534 -0.0290642)
(-0.0142574 0.00794156 -0.0110823)
(-0.0105313 -9.13798e-05 -0.00543082)
(-0.00713152 -0.0016666 -0.00788927)
(-0.00614065 -0.00241488 -0.0105787)
(-0.00576865 -0.00408342 -0.00991716)
(-0.0049949 -0.00624997 -0.00726749)
(-0.00335578 -0.00815916 -0.00483091)
(-0.00158332 -0.00827539 -0.00284181)
(0.000476631 -0.00621087 -0.00250442)
(-0.0077025 0.0305719 -0.043611)
(-0.0116052 0.0147147 -0.0216962)
(-0.00860057 0.00247435 -0.00994858)
(-0.00600874 -4.94202e-05 -0.00967477)
(-0.00574509 -0.00255333 -0.0121517)
(-0.0056093 -0.00551309 -0.0119999)
(-0.00479155 -0.00756835 -0.00876446)
(-0.00316286 -0.0098296 -0.00495224)
(-0.00293294 -0.00981205 -0.00302457)
(-0.000192157 -0.00694913 -0.00599842)
(-0.00283381 0.0372561 -0.0721619)
(-0.00514404 0.0223871 -0.046916)
(-0.00858282 0.00774538 -0.030477)
(-0.00969177 0.00111093 -0.0239868)
(-0.00937235 -0.00443628 -0.0191333)
(-0.00456138 -0.0102588 -0.0130262)
(-0.00151867 -0.0151455 -0.00782572)
(-0.00235406 -0.0178574 -0.00538654)
(-0.00655981 -0.0154551 -0.00582487)
(-0.00250486 -0.00986552 -0.0108256)
(0.000118877 0.0404588 -0.101877)
(-0.00576786 0.0350845 -0.0719856)
(-0.0248091 0.0223552 -0.0557814)
(-0.0303652 0.0105483 -0.0438426)
(-0.0265023 -0.00563021 -0.0316018)
(-0.0148969 -0.0154369 -0.0227757)
(-0.00329205 -0.0105163 -0.0142715)
(0.00337687 -0.0063378 -0.00552978)
(-0.00122877 -0.00972412 -0.00031276)
(-0.000812095 -0.0130384 -0.00660254)
(0.0038151 0.0174052 -0.139982)
(-0.0206745 0.0252376 -0.123902)
(-0.0624747 0.0213494 -0.0981706)
(-0.0682418 0.000772894 -0.0728666)
(-0.0572791 -0.0237063 -0.0587633)
(-0.0433074 -0.0368926 -0.0585167)
(-0.0232728 -0.0418161 -0.0505789)
(-0.00555681 -0.0388347 -0.0333119)
(-0.000894862 -0.0265085 -0.0170611)
(0.000946269 -0.0167168 -0.0150379)
(-0.0160167 -0.0424549 -0.286934)
(-0.0512004 -0.0127593 -0.252277)
(-0.0855489 -0.010252 -0.197272)
(-0.0936025 -0.0289425 -0.149786)
(-0.110422 -0.036384 -0.124424)
(-0.113001 -0.0358958 -0.117085)
(-0.0868259 -0.0489439 -0.101101)