/*--------------------------------*- C++ -*----------------------------------*\
| =========                 |                                                 |
| \\      /  F ield         | OpenFOAM: The Open Source CFD Toolbox           |
|  \\    /   O peration     | Version:  2312                                  |
|   \\  /    A nd           | Website:  www.openfoam.com                      |
|    \\/     M anipulation  |                                                 |
\*---------------------------------------------------------------------------*/
FoamFile
{
    version     2.0;
    format      ascii;
    arch        "LSB;label=32;scalar=64";
    class       volScalarField;
    location    "0.625";
    object      p_rgh;
}
// * * * * * * * * * * * * * * * * * * * * * * * * * * * * * * * * * * * * * //

dimensions      [1 -1 -2 0 0 0 0];

internalField   nonuniform List<scalar> 
8000
(
355.163
357.254
359.817
363.405
367.513
371.663
375.471
378.641
380.934
382.226
352.602
354.665
357.794
361.909
366.591
371.198
375.397
378.893
381.425
382.838
345.976
348.884
353.278
358.815
364.527
370.15
375.208
379.402
382.449
384.168
337.901
340.093
345.917
353.408
361.188
368.564
374.957
380.286
384.183
386.464
323.574
326.114
335.321
345.818
356.489
366.685
374.994
381.861
386.98
390.208
248.902
250.563
310.144
336.755
351.035
363.324
374.495
383.803
390.636
394.595
26.0797
30.6852
106.519
220.574
308.148
355.874
376.48
387.471
396.082
402.882
0.581508
0.601761
0.486676
0.567345
41.9405
126.643
267.589
372.955
403.871
404.741
0.480164
0.477869
0.428609
0.463148
0.44623
0.433422
9.78797
88.2185
219.18
383.355
0.393022
0.385218
0.36225
0.362137
0.336787
0.342368
0.36086
1.83154
72.5814
181.723
0.329429
0.320901
0.303218
0.290145
0.262892
0.230015
0.384575
0.458944
0.186333
0.868016
0.278956
0.269751
0.255169
0.238672
0.215359
0.190634
0.178227
0.113798
0.0992541
0.126822
0.259723
0.230858
0.216722
0.201515
0.18243
0.161198
0.121727
0.0882741
0.0729698
0.077388
0.306247
0.198971
0.184424
0.173151
0.157076
0.138385
0.112174
0.0808944
0.0519704
0.0391092
0.292762
0.176367
0.155109
0.147093
0.135954
0.122652
0.107759
0.0881312
0.0661135
0.0493182
0.199968
0.17689
0.134351
0.123012
0.120712
0.121132
0.112871
0.102971
0.0861038
0.0799881
0.132847
0.157836
0.131355
0.103398
0.103175
0.117934
0.113892
0.112865
0.114607
0.117657
0.0991834
0.139999
0.105759
0.0855355
0.0913658
0.0904331
0.0913528
0.0766905
0.101801
0.107605
0.0726376
0.104255
0.0699544
0.0697041
0.0867556
0.0561929
0.0533368
0.0502459
0.056132
0.0709049
0.0525685
0.0508112
0.050601
0.0455793
0.0631655
0.0363896
0.0316405
0.0290812
0.0283225
0.0308624
357.213
359.292
361.708
365.016
368.808
372.711
376.348
379.409
381.624
382.802
354.652
356.741
359.64
363.483
367.806
372.193
376.24
379.616
382.057
383.389
348.865
351.813
355.635
360.543
365.879
371.236
376.128
380.175
383.102
384.721
340.071
343.132
348.763
355.491
362.733
369.758
376.043
381.157
384.838
386.963
326.064
328.692
337.929
347.839
358.033
367.644
375.996
382.861
387.696
390.76
247.913
234.19
297.771
337.802
352.343
364.812
375.889
384.98
391.366
395.415
30.3088
40.5984
105.62
204.693
299.785
355.668
376.938
388.125
397.173
403.889
0.594452
0.588614
0.537264
1.02271
45.0493
126.156
282.679
391.642
409.135
410.626
0.470089
0.432635
0.39497
0.431429
0.396384
0.361518
6.72418
89.8907
237.592
396.624
0.382979
0.366026
0.337919
0.338043
0.295847
0.290043
0.232964
0.170718
53.1673
164.681
0.321687
0.313833
0.292954
0.276867
0.242054
0.199261
0.137181
0.113234
0.107075
0.209687
0.272022
0.26323
0.247455
0.229957
0.203622
0.1647
0.123463
0.0749596
0.0595439
0.0690119
0.245136
0.221981
0.210513
0.19631
0.177283
0.148042
0.0931592
0.0518024
0.0356705
0.0365473
0.318777
0.188751
0.179643
0.170676
0.156251
0.139089
0.103651
0.0463535
0.0137818
0.00476913
0.300805
0.16619
0.150532
0.143266
0.147201
0.147347
0.127671
0.0876529
0.0305471
0.00300274
0.276807
0.139187
0.126957
0.119106
0.132613
0.13038
0.118789
0.111525
0.0914988
0.0720209
0.258378
0.108018
0.108847
0.112187
0.117109
0.100521
0.0884465
0.109153
0.109806
0.112685
0.236514
0.0866515
0.0898065
0.108258
0.103536
0.0727955
0.0673711
0.0737335
0.100251
0.110665
0.160067
0.0657503
0.0686464
0.077249
0.087319
0.055888
0.0508327
0.0490449
0.0550979
0.0646597
0.0807661
0.043467
0.0495307
0.0468456
0.0622743
0.0359514
0.030963
0.0283491
0.0279594
0.0321616
359.783
361.7
363.94
367.048
370.613
374.286
377.719
380.611
382.706
383.838
357.776
359.626
362.294
365.844
369.844
373.933
377.73
380.913
383.217
384.47
353.256
355.606
359.097
363.467
368.318
373.258
377.816
381.613
384.358
385.861
345.845
348.737
353.785
359.61
365.911
372.234
378.022
382.802
386.251
388.192
335.18
337.959
345.594
353.721
362.317
370.776
378.413
384.655
389.171
391.851
308.834
296.894
325.311
346.084
357.645
368.842
379.013
387.318
393.307
397.069
103.987
105.431
162.198
246.924
322.643
364.474
380.867
391.334
399.63
406.122
0.454497
0.657758
7.35677
23.1811
74.57
170.979
318.167
396.518
410.951
414.062
0.404826
0.368027
0.362815
0.398746
0.382609
0.372837
22.0668
121.335
276.093
403.456
0.354268
0.33292
0.305282
0.307908
0.299909
0.275451
0.224282
6.43113
62.5835
136.108
0.304593
0.296933
0.27368
0.258351
0.231323
0.214034
0.147289
0.0955917
0.100204
0.147557
0.26107
0.252424
0.237174
0.220189
0.206117
0.191801
0.120056
0.0741365
0.0847065
0.0852147
0.224895
0.216872
0.205419
0.191227
0.176297
0.153671
0.114
0.0836057
0.0667056
0.0632676
0.195816
0.185336
0.175911
0.164697
0.151015
0.13415
0.116305
0.10047
0.0754795
0.0527158
0.284162
0.167396
0.14889
0.142734
0.140148
0.125893
0.106623
0.0970813
0.0910349
0.0751915
0.280537
0.211319
0.126356
0.121388
0.132386
0.122451
0.0948362
0.095563
0.101951
0.0973876
0.218286
0.193468
0.113543
0.102496
0.119475
0.107971
0.0838884
0.0889855
0.102882
0.107446
0.141179
0.117012
0.0897339
0.0850409
0.0937499
0.090339
0.0699467
0.0713445
0.0802059
0.0914629
0.0953261
0.0645128
0.0649188
0.064997
0.0690762
0.0791879
0.0514161
0.0500372
0.0527508
0.062486
0.0677555
0.0425055
0.0646561
0.132387
0.0832725
0.0692427
0.0287064
0.0255457
0.0247466
0.029828
363.349
365.004
367.034
369.845
373.088
376.447
379.599
382.263
384.186
385.229
361.889
363.456
365.826
368.99
372.585
376.287
379.746
382.655
384.756
385.886
358.747
360.496
363.44
367.269
371.575
375.992
380.102
383.546
386.021
387.345
353.336
355.439
359.572
364.552
369.992
375.548
380.709
384.998
388.066
389.774
345.75
347.854
353.702
360.456
367.683
374.96
381.68
387.214
391.195
393.493
336.582
337.953
346.138
355.023
364.453
374.053
383.015
390.4
395.516
398.865
219.813
205.52
248.154
304.725
350.123
373.405
385.386
395.091
402.389
406.928
0.526206
1.5287
23.618
55.0658
117.948
229.185
351.783
403.983
413.312
416.12
0.405046
0.393453
0.372955
0.378633
0.352866
0.446692
49.5172
161.922
298.134
383.516
0.339591
0.323506
0.299665
0.29529
0.292469
0.25292
0.226319
15.173
49.8917
75.1695
0.291395
0.279776
0.258236
0.23549
0.206625
0.217768
0.296547
0.107091
0.158258
0.21805
0.25151
0.240688
0.222966
0.203011
0.186752
0.171381
0.133537
0.102134
0.128104
0.117663
0.216405
0.208265
0.198994
0.183003
0.17018
0.150823
0.124149
0.102372
0.0980539
0.0808196
0.186023
0.18012
0.173737
0.161415
0.141142
0.131051
0.116614
0.0970389
0.0842544
0.0719544
0.158413
0.151894
0.147067
0.138758
0.120194
0.107322
0.109194
0.0890294
0.0874917
0.0876428
0.133463
0.127022
0.12279
0.116119
0.106314
0.0927163
0.0953203
0.092495
0.0923175
0.109503
0.109989
0.1058
0.101998
0.0972062
0.0928943
0.0831712
0.0803636
0.0849599
0.0916713
0.116173
0.0873355
0.0851891
0.0816593
0.0785359
0.0764191
0.0710578
0.067447
0.0702919
0.0776726
0.0991158
0.0659492
0.0635592
0.0714437
0.0574931
0.0559642
0.0533254
0.0490044
0.0487461
0.0516012
0.0655849
0.0463102
0.0429155
0.0505109
0.0838935
0.0328275
0.0329362
0.0246299
0.020965
0.0174163
0.0331249
367.447
368.767
370.579
373.071
375.962
378.971
381.809
384.225
385.943
386.875
366.53
367.754
369.805
372.565
375.734
379.018
382.095
384.683
386.557
387.545
364.455
365.816
368.269
371.551
375.292
379.155
382.773
385.814
387.989
389.091
361.121
362.668
365.849
369.96
374.596
379.383
383.864
387.578
390.179
391.546
356.495
358.024
362.259
367.643
373.628
379.787
385.528
390.251
393.536
395.297
351.063
352.368
357.582
364.407
372.083
380.104
387.779
394.133
398.316
400.571
309.655
301.14
323.803
350.399
370.016
381.641
391.734
399.996
406.147
408.766
42.7888
45.4205
73.9837
117.07
194.022
301.073
381.821
409.501
416.09
418.468
0.383542
0.37039
0.349573
0.327904
0.376924
19.2986
90.9952
209.303
301.05
329.68
0.308406
0.299176
0.303628
0.309466
0.309922
0.246534
5.57232
27.4186
43.7
47.0791
0.276754
0.264119
0.239479
0.218542
0.203953
0.226569
0.909816
0.13849
0.225414
0.252283
0.240352
0.229321
0.214337
0.190936
0.173327
0.170485
0.196563
0.133159
0.150804
0.114474
0.208579
0.200383
0.194952
0.178583
0.1615
0.152917
0.132955
0.117626
0.130663
0.0515836
0.181808
0.177014
0.173584
0.164857
0.145496
0.130998
0.11711
0.110283
0.0838183
0.0615117
0.156638
0.151643
0.1486
0.140463
0.125028
0.106328
0.114868
0.141722
0.0924083
0.0938565
0.13136
0.126476
0.124075
0.118259
0.108203
0.0956892
0.100625
0.162063
0.0996773
0.132037
0.107872
0.104781
0.102035
0.0979266
0.0923265
0.0842432
0.0852184
0.102908
0.101069
0.156724
0.0853151
0.0833482
0.0864519
0.0862961
0.0743737
0.0680703
0.0673017
0.0749813
0.0857594
0.183768
0.0632023
0.0613686
0.0646614
0.0735738
0.0527637
0.0472115
0.0471222
0.0499393
0.0552178
0.297769
0.0429297
0.0406596
0.038824
0.0470194
0.0299781
0.0246193
0.0211973
0.0186933
0.0101513
0.48029
371.577
372.643
374.233
376.414
378.958
381.623
384.154
386.271
387.789
388.604
371.107
372.115
373.873
376.25
379.005
381.872
384.557
386.86
388.485
389.355
370.045
371.143
373.184
375.947
379.139
382.462
385.592
388.227
390.017
390.901
368.436
369.647
372.139
375.488
379.358
383.389
387.187
390.315
392.453
393.416
366.486
367.539
370.657
374.877
379.752
384.817
389.65
393.423
395.77
394.95
363.295
364.761
368.665
373.902
380
386.533
392.71
397.96
401.145
383.947
356.165
355.84
364.379
373.26
381.531
389.963
398.091
404.737
408.715
395.546
129.927
126.891
166.489
223.854
299.604
360.754
405.248
414.941
419.578
419.216
0.360177
0.355346
0.350798
0.384886
14.9644
64.9037
159.446
259.928
293.17
300.241
0.32351
0.312096
0.31639
0.331096
0.310258
0.519495
7.0114
45.6453
96.1684
135.522
0.281994
0.259049
0.219108
0.211414
0.202983
0.230333
1.4492
0.146383
0.0732079
-0.123035
0.22994
0.209113
0.202462
0.191653
0.172848
0.149726
0.223114
0.257363
0.171995
0.0845966
0.194797
0.183995
0.181586
0.172306
0.152748
0.141376
0.202928
0.473594
0.87175
-0.00726139
0.174078
0.166658
0.167077
0.159786
0.14781
0.132199
0.135059
0.0955297
0.0680268
0.0949474
0.153549
0.145934
0.143691
0.142782
0.129799
0.11227
0.0799979
0.260118
0.0774342
0.287639
0.132059
0.124756
0.11943
0.12603
0.105394
0.0894254
0.0632991
0.160858
0.0783608
0.43522
0.111516
0.104499
0.100285
0.105949
0.0873247
0.0686524
0.0548667
0.0599542
0.0644101
0.442973
0.0864052
0.0826287
0.0779437
0.0872068
0.0737205
0.0554212
0.0495317
0.0575499
0.0467428
0.708323
0.0611528
0.0599516
0.0568607
0.0563804
0.0504176
0.0392933
0.0408621
0.0443696
0.0270788
0.811703
0.0397698
0.038182
0.0349705
0.0316941
0.0267687
0.0184756
0.0162753
0.0174483
0.00174503
0.677724
375.361
376.257
377.648
379.556
381.794
384.15
386.36
388.238
389.575
390.269
375.28
376.136
377.651
379.7
382.084
384.572
386.941
388.965
390.373
391.091
375.072
375.998
377.718
380.045
382.756
385.598
388.287
390.498
391.94
392.612
374.794
375.862
377.889
380.63
383.83
387.173
390.324
392.854
394.23
394.705
374.705
375.777
378.236
381.565
385.466
389.604
393.358
396.277
397.132
395.553
374.335
375.697
378.773
382.84
387.602
392.6
397.621
401.43
379.577
351.663
375.935
376.665
380.583
385.363
391.442
397.744
404.122
408.513
390.782
343.855
270.384
280.178
314.639
349.824
381.077
404.572
413.672
418.855
417.096
344.839
5.82909
3.83746
16.329
38.7024
81.6742
145.964
250.832
327.696
346.582
394.849
0.328586
0.28529
0.240611
0.25039
0.286992
1.97207
18.1932
73.0946
218.046
382.635
0.278086
0.232558
0.188729
0.195114
0.220058
0.208754
0.360174
18.7568
67.8118
61.7761
0.214693
0.180107
0.173671
0.17973
0.185606
0.187037
0.242169
19.7295
77.0962
0.131694
0.181063
0.161846
0.161675
0.172573
0.157899
0.245143
4.01751
9.57674
-0.115511
-0.0915897
0.163949
0.151976
0.15434
0.165083
0.160252
0.600758
4.5435
10.1391
0.0106994
0.118214
0.149902
0.140219
0.137391
0.132521
0.135481
0.110403
0.0704826
0.0643318
0.0520406
0.278891
0.130026
0.118316
0.129937
0.109163
0.0964543
0.079518
0.0401089
0.0271613
0.0436632
0.212081
0.110262
0.0982519
0.129814
0.0914639
0.0791434
0.0569516
0.0373018
0.0230725
0.0260311
0.161243
0.0854985
0.0787727
0.0918798
0.0787831
0.0719854
0.0597758
0.0750951
0.051863
0.0377984
0.103577
0.059064
0.0583439
0.0516797
0.0534998
0.0563985
0.0709486
0.109307
0.0826277
0.063943
0.102984
0.035568
0.0329816
0.0268151
0.0240064
0.0257531
0.0364631
0.0679181
0.051985
0.0547639
0.0895008
378.504
379.292
380.523
382.217
384.218
386.301
388.277
389.97
391.185
391.8
378.746
379.486
380.818
382.609
384.691
386.903
389.018
390.818
392.117
392.789
379.23
380.018
381.502
383.494
385.824
388.283
390.6
392.518
393.816
394.648
380.067
380.935
382.653
384.927
387.584
390.371
392.989
395.038
396.212
397.35
381.564
382.468
384.449
387.105
390.257
393.558
396.69
399.241
395.532
400.522
383.312
384.62
387.055
390.211
393.988
398.016
402.421
400.906
380.96
405.826
386.745
387.836
391.058
394.757
399.37
404.492
408.806
408.346
379.848
409.798
366.686
387.434
394.992
403.285
408.254
414.72
420.247
411.094
330.078
413.705
71.0306
75.852
109.677
148.884
196.338
261.425
320.697
331.69
337.589
429.137
0.327232
0.234677
0.185579
2.85051
6.37647
18.5754
77.6236
220.347
364.589
409.736
0.252799
0.187582
0.174017
0.200969
0.259848
0.27406
0.558487
81.6893
364.953
121.097
0.186478
0.14471
0.136152
0.161228
0.289301
0.276581
2.3698
125.729
201.789
0.815912
0.170123
0.143368
0.141549
0.162169
0.255631
0.251417
33.474
110.902
-0.31651
0.113851
0.164234
0.146224
0.145866
0.208844
0.163041
4.32012
52.7123
61.0253
-0.0441072
0.147562
0.14783
0.135288
0.134922
0.390024
0.145086
8.4989
22.0328
0.442894
0.0184124
0.155513
0.122516
0.104556
0.150742
0.388496
0.0790363
6.17128
17.5875
-0.0166483
0.0418191
0.0662461
0.102689
0.0811174
0.183267
0.352059
0.792948
11.7814
13.6962
-0.0150628
0.0407987
0.0676088
0.0836911
0.0694371
0.226696
0.0753589
2.94817
8.00575
2.20725
0.0277068
0.0711142
0.152903
0.0595897
0.0646437
0.451138
0.0569622
0.453439
0.51079
0.0464584
0.0853022
0.136879
0.271712
0.0337089
0.0539945
0.30296
0.0112779
0.0288615
0.0377064
0.0878788
0.156264
0.173961
0.32865
380.791
381.455
382.598
384.146
385.973
387.883
389.705
391.296
392.457
393.094
381.25
381.898
383.111
384.723
386.602
388.608
390.553
392.272
393.588
394.274
382.243
382.925
384.247
386.001
388.063
390.182
392.213
394.007
395.425
396.402
383.929
384.642
386.124
388.059
390.279
392.647
394.701
396.637
397.866
399.225
386.615
387.486
389.022
391.142
393.637
396.139
397.909
394.196
400.142
403.289
389.964
391.101
393.152
395.566
398.477
401.406
383.578
377.175
384.861
407.772
395.011
396.44
399.654
402.333
406.219
408.953
398.895
380.533
390.8
413.856
404.18
407.898
410.14
412.941
416.048
419.511
424.019
389.478
416.322
426.137
196.167
219.696
271.059
293.34
307.971
334.597
349.993
413.705
450.103
440.024
15.4072
26.7657
46.9587
44.2987
37.6735
52.6749
214.393
450.854
482.697
269.986
0.288971
0.189062
0.141305
0.183645
0.353625
0.71391
111.268
419.677
389.813
14.9489
0.156186
0.0903235
0.0968498
0.151359
0.233994
0.368684
64.4845
339.991
24.1771
1.72462
0.166315
0.131181
0.131102
0.159179
0.200544
0.486884
97.4584
234.93
0.25593
1.01557
0.181947
0.150001
0.138772
0.159599
0.209992
14.7213
80.4053
46.0553
0.0426158
0.703873
0.170195
0.132215
0.134772
0.184896
0.213938
27.576
119.332
0.0665598
0.0243755
0.110931
0.18469
0.125864
0.166846
0.145644
11.5486
96.8986
98.0171
0.0171926
0.0525518
0.0850726
0.324337
0.0803751
0.10912
0.555254
57.28
101.127
19.2623
0.0238249
0.0931415
0.165702
0.176539
0.0659766
0.115179
15.9407
40.8697
31.0088
0.0468723
0.0642755
0.172339
0.287849
0.085335
0.0599334
3.29214
7.2574
1.09933
0.0514103
0.0775213
0.195509
0.566956
0.449967
0.0396253
0.234096
3.02603
1.67128
-0.00229398
0.0144086
0.0808231
0.31305
0.436879
2.0825
381.988
382.594
383.692
385.17
386.914
388.742
390.491
392.035
393.286
393.538
382.572
383.17
384.321
385.838
387.613
389.531
391.405
393.12
394.544
394.099
383.858
384.475
385.708
387.323
389.198
391.159
393.098
395.128
396.763
395.044
386.077
386.69
388.014
389.821
391.675
393.637
395.543
397.969
399.868
397.087
389.71
390.492
391.578
393.291
395.342
397.276
396.632
401.725
404.793
401.145
393.614
394.398
396.599
398.519
400.864
383.872
364.669
402.241
409.828
410.492
401.276
402.96
405.929
406.909
409.116
383.14
363.745
396.477
416.143
417.021
406.042
410.553
413.861
416.591
419.023
417.792
395.399
404.092
429.107
428.291
369.59
387.332
400.861
386.122
368.851
373.997
399.78
394.475
452.363
439.04
103.653
132.467
145.703
101.973
66.1361
107.156
281.891
427.161
480.163
212.054
0.399328
0.170592
0.340844
7.59742
25.46
16.5384
183.564
407.094
277.148
11.1945
0.182221
0.0965213
0.110852
0.143694
1.6528
44.9553
130.944
214.683
1.04238
1.3861
0.190219
0.13389
0.291802
0.15567
3.99648
18.174
135.502
85.0018
0.533324
0.975958
0.231121
0.180591
1.58261
1.88849
1.27305
20.8858
145.066
20.6142
0.281157
0.900784
0.36582
2.29584
2.94729
0.310773
0.343028
36.2755
120.364
0.164948
0.17913
0.470676
2.96912
2.5407
0.614898
0.127476
13.9812
85.6488
29.253
0.247298
0.345356
0.296192
3.94701
0.470779
0.105937
1.04499
44.5169
69.51
0.130817
0.322312
0.501313
0.282219
2.83265
0.102392
0.102521
13.1715
46.0274
16.2549
0.10011
0.461153
0.570433
0.373421
0.574853
0.0738834
0.228456
22.9476
39.5322
0.0748328
0.208036
0.602036
0.440362
0.882161
0.0432815
0.0567534
3.8747
23.4332
14.1423
0.0634723
0.145893
0.431477
0.774293
4.2177
381.978
382.591
383.696
385.184
386.943
388.796
390.581
392.156
393.373
393.6
382.573
383.174
384.332
385.86
387.651
389.603
391.544
393.303
394.732
394.519
383.885
384.496
385.734
387.353
389.252
391.251
393.338
395.352
396.986
394.875
386.173
386.748
388.063
389.796
391.722
393.752
396.111
398.439
400.361
397.238
390.025
390.641
391.722
393.537
395.445
397.297
399.733
402.432
404.605
403.947
394.094
394.58
396.842
398.573
397.273
385.012
390.962
403.063
408.808
410.746
402.487
404.024
407.589
407.728
408.214
383.423
364.637
411.912
416.001
418.734
401.281
409.771
414.442
416.222
419.66
417.79
373.213
414.87
429.048
430.811
387.58
392.648
404.711
393.546
377.415
348.453
404.181
404.544
447.56
425.849
160.283
155.675
154.899
105.034
81.3766
214.111
425.214
410.378
331.349
140.94
0.885622
2.27782
4.24314
8.76897
141.911
310.443
414.904
168.921
20.109
1.05262
0.238331
0.143614
0.161843
24.0959
67.8551
60.0446
79.3394
0.469637
0.59007
0.737877
0.287535
0.231099
8.07855
14.9907
-0.024993
-0.0496094
7.056
3.21299
0.388126
0.443191
0.298555
2.48892
8.72836
2.90239
0.123006
4.72968
9.44758
1.5006
0.265052
0.331012
1.21747
5.47562
4.55982
0.117283
0.324496
1.99037
3.10949
0.17258
0.209911
0.251106
4.76841
4.20799
0.0627915
0.11097
0.131981
0.144763
0.531043
0.193183
0.300473
0.239395
5.017
1.24037
0.0757049
0.105784
0.128614
0.13598
0.1665
0.355204
0.426329
0.295277
4.94773
0.0673915
0.0705863
0.0717278
0.0968333
0.118495
0.182829
0.597396
0.330167
0.350837
1.85772
0.0418733
0.0875552
0.0500276
0.0603135
0.096354
0.272428
0.636667
0.253246
0.427763
0.025335
0.0403204
0.343966
0.106585
0.0418254
0.0791625
0.217376
0.419689
0.4917
1.83293
380.739
381.437
382.591
384.163
386.022
387.971
389.833
391.468
392.616
393.148
381.218
381.882
383.115
384.759
386.677
388.745
390.747
392.54
393.869
394.41
382.237
382.936
384.288
386.095
388.238
390.458
392.61
394.566
396.067
396.505
383.97
384.691
386.224
388.26
390.703
393.18
395.569
397.721
399.35
399.867
386.755
387.607
389.222
391.505
394.241
396.908
399.429
401.683
403.315
404.261
390.451
391.49
393.508
396.068
398.997
402.012
403.571
394.646
405.886
409.757
396.624
396.891
400.282
403.322
407.007
408.671
413.192
394.331
402.342
415.43
400.4
409.622
411.421
413.393
417.617
422.784
404.428
407.357
411.309
418.349
230.827
235.484
281.196
305.416
273.01
274.253
310.443
410.993
411.446
427.998
53.1907
46.8664
57.6707
47.763
130.688
229.005
264.748
204.911
182.985
162.662
1.45267
14.8049
23.2463
7.10787
0.191064
-0.0639564
12.4653
15.0683
0.412226
0.480563
2.02286
3.37573
0.0460323
0.0533949
1.06757
3.97102
2.02107
0.291049
0.407452
0.465393
3.21745
4.57939
1.92254
0.0591668
0.092747
0.147464
0.206322
0.275874
0.319059
0.329744
1.52725
4.983
0.0234042
0.0612061
0.129482
0.177863
0.220283
0.245431
0.262194
0.347596
1.24027
2.00788
-0.00525356
0.0785568
0.151836
0.186715
0.20381
0.197057
0.216987
0.334838
4.51577
0.367327
0.0129781
0.0723091
0.127904
0.170964
0.187916
0.182075
0.206954
0.196892
4.7852
0.646384
0.03112
0.0589082
0.148816
0.171482
0.162455
0.214878
0.223629
0.247001
4.85417
0.0326798
0.0399404
0.0434203
0.104886
0.135824
0.15397
0.299592
0.242484
0.320019
2.74648
0.0196501
0.0414877
0.0303623
0.0516119
0.0900605
0.146841
0.361128
0.266888
0.379827
0.0496356
0.0154588
0.024852
0.0132782
0.0250511
0.0742973
0.395442
0.216506
0.298182
0.486509
378.411
379.215
380.471
382.197
384.231
386.354
388.357
390.096
391.243
391.699
378.657
379.418
380.778
382.603
384.694
386.985
389.145
391.012
392.23
392.679
379.153
379.979
381.5
383.564
386.012
388.487
390.854
392.903
394.122
394.103
380.029
380.925
382.707
385.098
387.917
390.797
393.509
395.794
396.888
396.882
381.603
382.538
384.603
387.432
390.897
394.105
397.14
399.6
400.499
401.039
383.572
384.792
387.36
390.695
394.432
398.504
402.223
404.904
402.642
390.095
387.265
388.174
391.706
395.965
401.148
405.696
410.067
412.655
387.805
365.852
372.17
389.907
398.295
405.937
411.64
417.068
422.498
425.556
405.156
403.57
88.5657
85.2462
119.717
167.017
214.222
261.969
321.776
352.51
337.106
391.647
1.04612
0.890272
9.90593
34.0545
76.4922
102.277
94.8898
90.2449
97.9213
111.184
0.687188
8.58874
15.5579
3.3213
0.0828953
0.0787101
0.207218
0.36116
0.393283
0.405977
0.681225
0.816193
-0.0484828
0.0109316
0.0634512
0.130581
0.196746
0.284702
0.359706
0.380872
1.21285
2.09434
0.236583
0.0251667
0.0828186
0.133604
0.18834
0.244265
0.290996
0.296257
0.682177
2.50539
0.655786
0.0418929
0.115899
0.16981
0.204998
0.232201
0.248893
0.240575
0.970737
0.829804
0.461194
0.0732495
0.130951
0.172867
0.194894
0.205339
0.225263
0.219739
4.36152
0.96493
0.142662
0.0756191
0.185738
0.258696
0.179669
0.199547
0.24079
0.234376
4.66027
2.68581
0.145467
0.188813
0.270491
0.309971
0.170882
0.248022
0.309639
0.432619
4.92237
0.650972
0.111281
0.140783
0.157283
0.161632
0.145005
0.277406
0.281731
0.57503
2.82048
0.0207137
0.0608639
0.0589032
0.0616591
0.0932832
0.551561
0.230591
0.26119
0.37787
0.0347908
0.0157416
0.0347276
0.0376494
0.0447762
0.129625
0.731174
0.237303
0.313658
0.4487
375.197
376.107
377.525
379.474
381.775
384.142
386.368
388.285
389.535
390.138
375.105
375.988
377.531
379.615
382.019
384.567
386.97
389.049
390.306
390.957
374.87
375.868
377.618
380.009
382.803
385.719
388.416
390.736
391.958
392.108
374.594
375.718
377.805
380.651
383.984
387.402
390.558
393.255
394.011
393.689
374.521
375.638
378.193
381.692
385.919
390.017
393.794
396.786
397.727
392.047
374.168
375.451
378.701
382.891
387.912
393.285
398.214
402.119
403.386
361.694
375.921
376.351
380.782
386.309
392.595
399.215
405.244
409.909
411.199
373.465
267.112
270.649
313.172
353.384
386.342
408.192
415.345
420.785
420.979
422.466
7.08029
5.01178
21.8793
60.9599
117.964
204.543
274.502
317.003
333.128
338.863
0.512021
0.423547
0.335007
3.48665
10.707
14.579
33.9947
49.2535
51.9911
47.2592
0.285278
0.661438
0.888013
0.552424
0.0165597
0.0843595
0.136637
0.197182
0.273722
0.340821
0.1523
0.33968
0.584297
0.292383
0.04585
0.134781
0.183379
0.229571
0.272253
0.300472
0.150904
0.0918199
0.0265905
0.0491836
0.109638
0.149941
0.177155
0.204184
0.247089
0.262151
0.157161
0.100986
0.0693078
0.0899711
0.127691
0.159988
0.182999
0.204898
0.227843
0.225625
0.525903
0.165775
0.0875292
0.113263
0.140108
0.19431
0.190131
0.193707
0.20947
0.207147
2.76465
0.350911
0.0916477
0.12696
0.220669
0.256125
0.189619
0.1924
0.224165
0.265352
4.66783
0.281369
0.27176
0.274122
0.293427
0.202028
0.156213
0.231191
0.314027
0.404494
3.93561
0.209892
0.103471
0.104572
0.0877578
0.112364
0.149941
0.260457
0.391474
0.438233
1.054
0.0432902
0.0588013
0.0615183
0.0798419
0.116643
0.256083
0.206757
0.370596
0.503522
0.0254248
0.0281618
0.0460996
0.0521734
0.0635008
0.148336
0.365957
0.18944
0.29904
0.552891
371.334
372.41
374.024
376.243
378.839
381.56
384.078
386.235
387.668
388.477
370.839
371.872
373.656
376.071
378.869
381.773
384.484
386.841
388.261
389.212
369.725
370.883
372.958
375.782
379.057
382.489
385.642
388.376
389.847
390.583
367.993
369.378
371.878
375.316
379.297
383.381
387.226
390.61
391.695
392.454
365.942
367.111
370.32
374.738
379.85
385.103
389.888
393.856
395.299
377.98
362.681
364.128
368.15
373.534
380.01
386.843
393.265
398.58
401.191
391.943
354.287
353.001
363.008
373.247
381.926
390.922
399.26
405.637
409.413
411.239
120.861
115.456
157.233
220.171
300.688
367.969
407.685
415.566
419.151
420.787
0.516905
0.48517
0.48718
0.734312
35.3906
100.438
193.33
278.867
338.998
352.775
0.448059
0.382033
0.286024
0.181165
0.0869946
1.909
16.6411
29.3735
32.9627
24.4494
0.292484
0.216677
0.120497
0.0426806
0.0543986
0.134747
0.145871
0.113414
0.122337
0.188983
0.217198
0.14798
0.077894
0.0350274
0.049356
0.116441
0.147892
0.163724
0.179134
0.198187
0.197735
0.158484
0.120777
0.111581
0.130167
0.152104
0.166021
0.188212
0.196514
0.205282
0.193047
0.168522
0.147169
0.140307
0.144223
0.158445
0.168057
0.194957
0.204714
0.198277
0.18322
0.152411
0.142507
0.143239
0.150254
0.178886
0.167414
0.182602
0.195877
0.18682
0.346019
0.128136
0.123051
0.146437
0.145139
0.173986
0.161281
0.173608
0.185675
0.198487
1.37008
0.118596
0.11081
0.146618
0.138987
0.139847
0.15332
0.169872
0.187625
0.224207
0.676293
0.112253
0.0938616
0.101794
0.112884
0.127255
0.145125
0.166965
0.190752
0.247508
0.093501
0.0736591
0.0803078
0.0864358
0.0986449
0.113944
0.135819
0.164793
0.204325
0.256875
0.045941
0.050853
0.0631588
0.0707623
0.0809873
0.0963921
0.121791
0.158892
0.210565
0.244982
367.142
368.449
370.285
372.81
375.747
378.806
381.674
384.119
385.792
386.745
366.183
367.422
369.491
372.287
375.504
378.84
381.96
384.603
386.365
387.433
364.044
365.437
367.915
371.251
375.069
379.017
382.695
385.855
387.823
388.927
360.604
362.194
365.394
369.587
374.337
379.235
383.782
387.798
389.942
391.484
355.81
357.365
361.63
367.171
373.46
379.832
385.894
390.707
393.598
394.674
350.147
351.454
356.714
363.655
371.584
379.91
387.932
394.68
398.905
400.944
303.486
292.474
316.996
346.829
369.351
381.747
392.643
401.183
406.65
409.405
36.311
37.7345
64.9618
105.76
183.279
297.574
385.508
411.085
416.649
418.793
0.532946
0.505617
0.45106
0.347767
0.371527
34.3624
124.78
246.042
338.34
372.74
0.415161
0.38518
0.322666
0.236393
0.16209
0.113138
4.2402
22.7798
35.3468
34.4373
0.321451
0.276402
0.215793
0.139055
0.097014
0.130775
0.14728
0.10747
0.0734313
0.0700406
0.25443
0.219542
0.176215
0.135736
0.11878
0.123803
0.1183
0.107286
0.107991
0.115365
0.220914
0.200976
0.180532
0.166026
0.166715
0.152768
0.158727
0.163263
0.138905
0.13251
0.201182
0.189323
0.176389
0.164775
0.156869
0.155433
0.163948
0.205758
0.166471
0.14659
0.179297
0.167412
0.166814
0.171918
0.158636
0.15673
0.160227
0.213895
0.209261
0.162336
0.160201
0.140418
0.140894
0.208664
0.163575
0.154369
0.158439
0.177725
0.185637
0.1754
0.143138
0.122131
0.122137
0.152189
0.147827
0.146838
0.153845
0.162048
0.17159
0.173881
0.112016
0.0995515
0.107956
0.137152
0.133854
0.134947
0.145968
0.158652
0.170822
0.179195
0.0805373
0.0810498
0.0927139
0.103648
0.111931
0.120683
0.13533
0.153009
0.170048
0.182577
0.0606291
0.0660539
0.0750622
0.135892
0.0939394
0.102886
0.119526
0.140721
0.162782
0.178632
363.008
364.609
366.666
369.507
372.793
376.201
379.403
382.107
384.019
385.106
361.504
363.052
365.433
368.627
372.267
376.028
379.546
382.512
384.574
385.784
358.268
360.026
362.982
366.854
371.226
375.729
379.931
383.473
385.872
387.294
352.786
354.866
358.972
364.006
369.554
375.243
380.56
385.05
388.037
389.75
345.109
347.144
352.905
359.707
367.126
374.72
381.736
387.559
391.535
393.709
335.69
336.296
344.902
353.953
363.495
373.254
382.825
390.756
396.244
399.278
211.044
194.957
236.119
295.006
345.836
372.787
386.132
396.341
403.606
407.256
0.581323
0.698622
18.0507
45.4102
104.166
212.558
348.492
405.343
414.26
417.158
0.522003
0.509274
0.476898
0.421832
0.299232
0.449386
69.3694
199.355
334.392
392.643
0.424266
0.396207
0.350019
0.288817
0.225024
0.172709
0.126968
14.7933
50.201
70.9879
0.340648
0.317681
0.276024
0.218925
0.160321
0.127159
0.116008
0.103927
0.0999203
0.0889611
0.279367
0.263729
0.236861
0.206985
0.193008
0.160499
0.0965726
0.0656809
0.0667981
0.061323
0.240043
0.227007
0.213759
0.227087
0.221974
0.176838
0.16396
0.126473
0.105829
0.0910775
0.212113
0.20043
0.189942
0.217222
0.195259
0.159359
0.197758
0.182347
0.119794
0.10724
0.189101
0.177065
0.173454
0.197147
0.165829
0.158403
0.183953
0.208616
0.182621
0.131882
0.172824
0.157873
0.205791
0.222399
0.185099
0.157845
0.167713
0.221731
0.211507
0.149847
0.190706
0.164922
0.156323
0.214569
0.175673
0.151228
0.15748
0.195651
0.189018
0.160745
0.278703
0.157014
0.115055
0.201268
0.152252
0.139215
0.146529
0.159264
0.164211
0.164954
0.160801
0.0881149
0.0982916
0.16363
0.122
0.123839
0.133644
0.143918
0.154305
0.16289
0.0665015
0.0714105
0.09392
0.150434
0.0983283
0.105186
0.116843
0.130364
0.143285
0.152233
359.39
361.264
363.52
366.652
370.256
373.98
377.47
380.416
382.53
383.718
357.347
359.18
361.849
365.418
369.457
373.604
377.471