/*--------------------------------*- C++ -*----------------------------------*\
| =========                 |                                                 |
| \\      /  F ield         | OpenFOAM: The Open Source CFD Toolbox           |
|  \\    /   O peration     | Version:  2312                                  |
|   \\  /    A nd           | Website:  www.openfoam.com                      |
|    \\/     M anipulation  |                                                 |
\*---------------------------------------------------------------------------*/
FoamFile
{
    version     2.0;
    format      ascii;
    arch        "LSB;label=32;scalar=64";
    class       volScalarField;
    location    "1.22";
    object      alpha.water;
}
// * * * * * * * * * * * * * * * * * * * * * * * * * * * * * * * * * * * * * //

dimensions      [0 0 0 0 0 0 0];

internalField   nonuniform List<scalar> 
8000
(
1
1
1
1
1
1
1
1
1
1
1
1
1
1
1
1
0.999999
1
0.99866
1
1
1
1
1
1
1
1
0.997916
0.989451
0.991678
1
1
1
1
1
1
1
0.995477
0.989804
0.989693
1
1
1
1
1
1
1
0.999638
0.999567
0.995973
1
1
1
1
1
1
1
1
1
1
1
1
1
1
1
1
1
0.990001
0.980454
0.983134
0.771012
0.796124
0.826824
0.844623
0.849933
0.849784
0.836662
0.809807
0.790102
0.77613
0.0722671
0.0747122
0.0969193
0.133798
0.180674
0.21986
0.24027
0.236162
0.213605
0.200177
0.00010396
3.40282e-05
1.06062e-05
2.53518e-05
7.15362e-05
0.000151764
0.000351622
0.000598699
0.000910131
0.00148554
9.86753e-06
9.88328e-06
9.89499e-06
1.05114e-05
1.56531e-05
0.000110321
0.000158344
0.000148262
0.000140187
0.000239568
9.88276e-06
9.88337e-06
9.88276e-06
9.895e-06
1.01159e-05
0.000126864
0.000297379
0.000116812
4.08379e-05
5.51331e-05
9.88337e-06
9.88276e-06
9.88743e-06
1.00205e-05
0.000107437
0.000448498
0.000563748
0.000120025
2.7834e-05
2.89241e-05
9.91494e-06
9.88743e-06
9.93638e-06
6.27717e-05
0.000472014
0.00055826
0.00056189
5.32444e-05
2.60431e-05
2.5936e-05
1.02739e-05
9.93638e-06
1.01855e-05
0.000209551
0.000544058
0.00055502
0.000352499
2.60431e-05
2.59764e-05
2.56137e-05
1.11334e-05
1.01855e-05
3.16382e-05
0.000301524
0.000358368
0.000101851
2.80955e-05
2.66437e-05
5.59401e-05
0.000217798
1.28864e-05
1.38852e-05
6.45307e-05
7.50462e-05
2.82861e-05
4.68922e-05
0.00016946
0.000233883
0.000225126
0.000221745
5.46478e-05
1.37862e-05
0.000128967
0.000261625
0.000261625
0.000261625
0.000260764
0.000257001
0.000175304
7.20096e-05
4.93062e-06
2.09292e-05
8.63541e-05
0.000217181
0.000261625
0.000260764
0.000153674
3.89153e-05
4.38271e-05
4.83182e-05
4.49993e-06
4.30458e-06
3.60696e-06
3.79747e-06
1.23065e-05
9.00846e-05
7.3039e-05
3.77014e-05
6.46587e-05
0.000102669
1
1
1
1
1
1
1
1
1
1
1
1
1
1
1
1
0.999742
0.998622
0.997981
1
1
1
1
1
1
1
0.999834
0.993953
0.989449
0.998632
1
1
1
1
1
1
1
0.998227
0.993712
0.996476
1
1
1
1
1
1
1
1
1
0.999583
1
1
1
1
1
1
1
0.999999
1
1
1
1
1
1
1
1
1
1
1
1
0.78392
0.812382
0.832767
0.840446
0.848772
0.862404
0.873646
0.881674
0.873329
0.840735
0.0808121
0.0864357
0.111661
0.152758
0.201698
0.234924
0.251494
0.254278
0.24568
0.249964
0.00020871
0.000140273
6.955e-05
5.61058e-05
0.000149132
0.000205117
0.000333066
0.000487811
0.000718333
0.00162731
2.85248e-05
3.16741e-05
1.67174e-05
1.58427e-05
8.56995e-05
0.000222893
0.000232028
0.000185079
0.000131992
0.00034625
9.88132e-06
2.93379e-05
2.838e-05
1.02723e-05
9.27538e-05
0.000486053
0.000518365
0.00016176
4.07558e-05
8.47545e-05
9.91493e-06
1.00987e-05
1.00242e-05
3.37323e-05
0.000496942
0.000563999
0.000563233
0.000219268
2.81773e-05
3.34355e-05
9.977e-06
9.93638e-06
1.01571e-05
8.27198e-05
0.000538467
0.00056189
0.000563429
0.000150115
2.61403e-05
2.56789e-05
6.55419e-05
1.00626e-05
1.01405e-05
0.000127423
0.000309812
0.0003447
0.000347128
2.58234e-05
2.56137e-05
2.39472e-05
0.000163537
1.01406e-05
7.18009e-05
0.000294084
0.000125743
2.63539e-05
2.61241e-05
2.54526e-05
2.54751e-05
3.14713e-05
0.000169621
7.14915e-05
0.000166421
0.000130521
2.6354e-05
2.59623e-05
2.5589e-05
2.45329e-05
2.28268e-05
9.80695e-05
3.07177e-05
6.78395e-06
2.4573e-05
8.11777e-05
0.000138235
0.000168188
0.000166016
9.40968e-05
4.68491e-05
3.72299e-05
3.34357e-06
1.13741e-05
3.33417e-05
0.000104863
0.00023239
0.00025377
0.000262062
0.000270919
0.000224197
0.000198975
8.35506e-06
3.40491e-06
3.40467e-06
3.60696e-06
4.32694e-06
2.39653e-05
5.13415e-05
0.000128686
0.000282913
0.000282653
1
1
1
1
1
0.999999
0.99998
0.999999
1
1
1
1
1
1
1
1
0.999252
0.997905
0.999006
0.999997
1
1
1
1
1
1
0.998983
0.994747
0.996916
1
1
1
1
1
1
1
0.999894
0.999872
0.999399
1
1
1
1
1
1
1
1
1
1
1
1
1
1
1
1
1
1
1
1
1
1
1
1
1
1
1
1
1
1
1
0.821507
0.859279
0.887664
0.893315
0.891537
0.897938
0.905377
0.913559
0.910673
0.891102
0.0877559
0.0933819
0.112513
0.153475
0.204672
0.248215
0.271284
0.281919
0.284909
0.300077
1.48697e-05
1.80082e-05
2.09474e-05
2.35826e-05
0.000173136
0.000382913
0.000467954
0.000585735
0.000946444
0.0021728
3.82551e-05
4.99451e-05
2.2132e-05
1.80802e-05
8.70663e-05
0.000208366
0.000189067
0.000143237
0.000191594
0.000461566
5.27756e-05
5.14031e-05
1.83717e-05
1.26662e-05
0.000118079
0.000225606
0.000163484
7.96774e-05
6.30327e-05
0.000100784
2.89104e-05
3.90918e-05
1.0376e-05
0.000176537
0.000406493
0.000375371
0.0005582
7.03265e-05
3.36528e-05
3.32064e-05
1.01316e-05
1.0112e-05
5.24365e-05
0.000155446
0.00010755
0.000130105
0.000472312
0.000168183
2.88886e-05
2.39472e-05
4.62851e-05
1.01381e-05
1.90725e-05
8.88947e-05
9.86632e-05
0.00010755
0.000206327
0.000223272
3.20934e-05
2.26272e-05
0.00019561
3.61651e-05
4.46843e-05
0.000245363
0.000236763
0.000128689
4.03138e-05
8.27713e-05
2.25574e-05
2.24575e-05
0.000111944
3.81143e-05
9.98135e-05
0.000215559
0.000236247
0.000238242
0.000237313
2.46007e-05
2.24575e-05
2.24575e-05
3.34357e-06
3.44349e-06
4.08227e-06
5.93122e-06
4.88753e-05
0.000237674
0.000265836
0.000270126
0.000183854
3.63133e-05
3.34357e-06
3.34357e-06
4.19613e-06
5.5028e-06
1.05508e-05
7.85919e-06
0.000175077
0.00027916
0.000281287
0.000280366
7.18373e-06
3.3739e-06
6.65188e-06
2.41492e-05
5.46724e-06
6.54062e-06
6.07155e-06
0.000157946
0.000282426
0.000282975
1
1
1
1
1
1
0.999992
0.999932
0.99999
1
1
1
1
1
1
0.999999
0.999657
0.99916
0.999773
1
1
1
1
1
1
0.999987
0.999452
0.999119
1
1
1
1
1
1
1
1
0.999884
0.999769
0.999996
1
0.999993
0.999999
1
1
1
1
0.999987
0.99992
0.999995
1
1
1
1
1
1
1
1
1
0.999999
1
1
1
1
1
1
1
1
1
1
1
0.860779
0.894643
0.929013
0.943777
0.935492
0.923075
0.921642
0.920294
0.910192
0.893307
0.107271
0.116825
0.127213
0.143656
0.17726
0.220265
0.254675
0.26852
0.274148
0.299433
1.29872e-05
1.49215e-05
1.8031e-05
2.09621e-05
2.34901e-05
0.000144244
0.000395344
0.000574404
0.00103538
0.00256744
4.51944e-05
8.51529e-05
9.74527e-05
0.000104071
9.11413e-05
6.28029e-05
0.000160269
0.000175349
0.000207664
0.000482545
0.000218849
0.000230567
0.000137382
0.000109271
0.000103194
0.000121403
0.000127945
0.000111971
8.50922e-05
9.19972e-05
2.1167e-05
5.86729e-05
0.000239522
0.000300584
0.000306717
0.000127813
0.000211674
9.32376e-05
5.68557e-05
3.21077e-05
1.09768e-05
1.08728e-05
9.95717e-05
0.000300327
0.000296822
0.000133601
0.000156853
0.000279807
0.000199122
2.35888e-05
3.4737e-05
1.05468e-05
1.12295e-05
8.59518e-05
0.000165234
0.000166672
9.26359e-05
0.000248858
0.000164101
2.26349e-05
0.000170322
2.58253e-05
1.95897e-05
2.14573e-05
1.95628e-05
3.9012e-05
0.000120075
3.56878e-05
2.35498e-05
2.2536e-05
3.76428e-05
8.49146e-05
6.89077e-05
2.38349e-05
2.33303e-05
3.23822e-05
0.000121774
0.000147478
7.58445e-05
2.24575e-05
4.74771e-06
5.16231e-05
6.34405e-05
4.6515e-05
2.16493e-05
2.05552e-05
3.03721e-05
0.000150202
0.000224824
0.00022443
3.34357e-06
3.44349e-06
1.46747e-05
8.16171e-05
3.59135e-05
1.0931e-05
1.12394e-05
9.57585e-06
0.000100765
0.0002798
4.50718e-06
3.42204e-06
3.67214e-06
6.96522e-05
7.75259e-05
2.01021e-05
8.65861e-06
1.45113e-05
1.98463e-05
0.000117807
1
1
1
1
1
1
1
0.999996
0.999999
1
1
1
1
1
1
1
0.999996
1
1
1
1
1
1
1
1
1
0.999996
1
1
1
1
1
1
1
1
0.999998
0.999987
0.999995
1
1
0.999989
0.999998
1
1
1
0.999996
0.999983
0.99999
1
1
1
1
1
1
1
1
0.999998
0.999998
1
1
0.999997
0.999997
0.999999
1
1
1
1
1
1
1
0.897053
0.918505
0.941879
0.957661
0.950763
0.925463
0.909374
0.900767
0.88583
0.8659
0.15192
0.170569
0.177051
0.169596
0.155989
0.159708
0.181788
0.202989
0.215857
0.246881
1.07882e-05
1.6199e-05
2.08924e-05
2.3784e-05
3.16396e-05
3.68614e-05
0.000136249
0.000374086
0.000758448
0.00218247
4.98804e-05
0.000203716
0.000234551
0.000141367
7.77696e-05
5.29756e-05
6.39521e-05
0.000180424
0.000140433
0.000357857
0.000109573
0.000242122
0.000264226
0.000267884
0.000279543
0.00011884
0.000324724
0.000299687
7.21915e-05
6.85975e-05
7.04462e-05
1.84868e-05
0.000105656
0.000254384
0.00029411
0.000231347
0.000111409
0.00030085
5.53681e-05
2.77483e-05
4.79376e-05
1.54052e-05
1.84596e-05
2.03073e-05
1.98828e-05
2.42013e-05
0.000127385
0.000289875
0.000184808
2.32346e-05
3.46271e-05
5.80456e-05
3.45294e-05
1.96469e-05
1.95422e-05
1.96468e-05
9.43242e-05
0.000161042
0.000140544
2.28452e-05
1.4214e-05
8.85478e-05
9.03222e-05
2.47835e-05
1.93677e-05
2.02938e-05
0.000109799
0.000120768
2.38086e-05
2.26349e-05
4.00327e-06
5.40572e-05
9.2939e-05
9.4227e-05
1.85975e-05
1.42082e-05
2.14044e-05
9.4647e-05
9.84884e-05
6.75549e-05
4.68468e-06
4.16623e-06
5.23358e-05
9.30138e-05
7.77071e-05
1.23472e-05
1.11494e-05
9.56231e-06
7.3533e-05
0.00022479
3.91478e-06
3.79966e-06
3.7868e-06
4.38455e-05
8.55338e-05
8.7842e-05
1.25776e-05
8.67032e-06
8.17498e-06
9.29854e-05
7.21631e-06
4.01117e-06
3.32944e-06
3.23094e-06
3.3126e-05
0.000113266
0.000108014
1.54247e-05
7.19747e-06
8.86295e-05
1
1
1
1
1
1
1
1
1
1
1
1
1
1
1
1
1
1
1
1
1
1
1
1
1
1
1
1
1
1
0.999999
1
1
1
1
1
1
1
1
1
0.999986
1
1
1
1
0.999999
1
1
1
1
0.999995
1
1
1
1
1
1
1
1
1
0.999985
0.999989
0.999993
0.999997
1
1
1
1
1
1
0.931882
0.942101
0.949097
0.951267
0.945588
0.914491
0.888171
0.867924
0.847136
0.827204
0.218692
0.238807
0.236478
0.205473
0.148433
0.103081
0.103542
0.12307
0.148428
0.187367
7.26243e-06
1.09031e-05
1.89382e-05
3.13723e-05
3.76175e-05
3.77571e-05
3.54868e-05
0.000111674
0.000474825
0.00149948
1.00695e-05
0.000110751
0.00018353
0.000133069
5.03037e-05
5.64129e-05
0.000186004
8.24348e-05
8.35075e-05
0.000225191
2.34511e-05
0.000149996
0.000259485
0.000264518
0.000267858
0.000209556
0.000322378
0.000324928
5.17377e-05
4.89656e-05
4.38891e-05
2.49569e-05
4.44434e-05
0.000198181
0.00026966
0.000179995
0.000100117
0.000230153
4.21073e-05
2.69582e-05
1.79242e-05
7.25271e-05
2.61408e-05
2.38075e-05
2.08488e-05
3.68284e-05
5.88865e-05
6.87155e-05
6.42354e-05
2.35613e-05
1.20141e-05
7.41351e-05
7.41351e-05
2.13561e-05
1.96469e-05
2.2302e-05
9.06095e-05
4.81732e-05
2.36112e-05
2.32347e-05
4.20047e-06
8.59211e-06
5.88734e-05
8.60188e-05
2.96652e-05
2.39813e-05
4.83315e-05
0.00011595
0.000105065
3.49719e-05
4.41252e-06
4.53796e-06
4.52882e-06
0.000102302
0.000104657
3.51612e-05
2.24871e-05
2.29518e-05
6.57912e-05
8.18775e-05
4.86904e-06
4.58087e-06
3.66373e-06
2.0475e-05
0.000104937
0.000115461
4.76099e-05
1.04455e-05
8.82665e-06
0.000116184
1.01041e-05
4.71671e-06
1.36787e-05
2.90806e-06
1.42105e-05
0.00012816
0.000130974
4.11526e-05
8.13563e-06
0.000181125
1.68183e-05
4.56551e-05
3.52804e-05
3.47922e-06
3.04992e-06
5.14858e-05
0.000133192
9.10852e-05
5.67526e-06
0.000181058
1
1
1
1
1
1
1
1
1
1
1
1
1
1
1
1
1
1
1
1
1
1
0.999998
1
1
1
1
1
1
1
0.999998
1
0.999999
1
1
1
1
1
1
1
0.999994
1
1
1
1
1
1
1
1
1
0.999994
0.999999
0.999999
1
1
1
1
1
1
1
0.999971
0.999974
0.999978
0.999986
0.999995
1
1
1
1
1
0.961888
0.960659
0.955631
0.944185
0.928817
0.897005
0.865522
0.829591
0.800124
0.788535
0.299274
0.295652
0.273887
0.224431
0.149511
0.0756217
0.0461114
0.0630275
0.0936647
0.139731
4.86871e-06
7.96393e-06
1.35505e-05
2.33224e-05
3.38106e-05
3.57979e-05
3.39965e-05
6.14525e-05
0.000313189
0.000956981
3.52045e-06
1.28268e-05
0.000130477
0.00020749
0.000143984
4.91128e-05
3.78164e-05
4.93822e-05
7.04972e-05
0.00017219
2.27924e-05
4.81841e-05
0.000245167
0.000259485
0.000264518
0.000256541
8.29831e-05
0.000123866
8.63242e-05
8.94199e-05
4.50609e-05
7.08923e-05
5.51737e-05
0.000178292
0.000257334
0.00017259
2.50534e-05
2.93692e-05
0.000102175
0.000174214
2.99047e-06
7.17366e-05
8.02462e-05
2.60348e-05
5.38207e-05
6.82249e-05
2.77171e-05
3.73409e-05
9.22768e-05
0.000216915
3.35504e-06
6.25096e-06
6.73701e-05
5.76013e-05
2.09776e-05
2.63086e-05
6.25879e-05
6.32285e-05
0.000179795
0.000237415
3.90244e-06
7.99438e-06
1.31495e-05
0.000108635
0.000113876
4.47977e-05
4.62909e-05
6.19551e-05
6.15134e-05
0.000155731
4.76157e-06
1.57287e-05
3.66373e-06
3.20254e-05
0.000110116
0.000112678
7.74725e-05
1.31436e-05
8.85828e-06
1.75615e-05
1.60792e-05
1.0978e-05
2.65673e-06
2.55761e-06
4.41305e-05
0.000119054
0.000123146
8.76641e-05
8.40303e-06
0.000154119
6.46464e-05
1.56357e-05
2.85176e-05
2.45447e-06
2.36928e-06
3.69779e-05
0.000127532
0.000111812
1.29636e-05
0.000182218
0.000106397
6.71872e-05
5.8274e-05
6.86674e-06
2.6366e-06
2.77561e-06
4.88523e-05
2.74976e-05
4.93954e-06
0.000182163
1
1
1
1
1
1
1
1
1
1
1
0.999994
0.999992
1
1
1
1
1
1
1
1
0.999991
0.999989
0.999998
0.999996
0.999995
0.999999
1
1
1
1
0.999997
0.999996
0.999997
0.999988
0.999978
0.999993
1
1
1
1
0.999999
0.999999
1
0.999988
1
1
1
0.999999
1
0.999998
0.999998
0.999998
0.999999
0.999995
1
1
1
1
1
0.999965
0.999955
0.999951
0.999964
0.99998
0.999997
1
1
1
1
0.986325
0.977991
0.95941
0.935596
0.908619
0.875452
0.841462
0.787456
0.750024
0.753921
0.41685
0.367072
0.292843
0.22281
0.143111
0.0652604
0.0192581
0.0296703
0.0574156
0.107321
3.5205e-06
7.45337e-06
1.08373e-05
1.79773e-05
3.25865e-05
3.32585e-05
3.40382e-05
3.4011e-05
0.000215923
0.000654309
1.83972e-06
5.64888e-06
5.40495e-05
0.000198607
0.000213109
8.29943e-05
3.00067e-05
3.49675e-05
5.46833e-05
0.000131016
6.59659e-06
6.59724e-05
0.000221587
0.000254404
0.000257334
0.000248169
2.50534e-05
3.55346e-05
8.78059e-05
9.5749e-05
1.09462e-05
6.70086e-05
0.000220992
0.000250833
0.00025009
0.0001034
2.04581e-05
6.96463e-05
0.000237986
0.000239372
2.33755e-06
4.17105e-06
5.51065e-05
7.83256e-05
6.8129e-05
2.48275e-05
1.3447e-05
0.00010857
0.00023937
0.00023937
4.57446e-06
1.96356e-05
9.32348e-06
0.000117093
4.51242e-05
5.04381e-05
7.31117e-05
1.60105e-05
0.000137842
0.000239377
2.19687e-05
5.10403e-05
9.40426e-06
9.14048e-05
0.000114847
0.000114847
0.00011308
1.60388e-05
1.36738e-05
0.000237937
4.22115e-05
5.14085e-05
5.64926e-06
5.56868e-06
9.83771e-05
0.000113256
0.000111313
5.49807e-05
7.70956e-06
0.00012524
0.000101447
3.69899e-05
3.02791e-06
2.45447e-06
2.36928e-06
4.64317e-05
0.000100628
7.18092e-05
4.24325e-06
0.000112351
0.000106046
7.8087e-06
5.0582e-06
2.36928e-06
2.25465e-06
2.14001e-06
2.54836e-06
2.3713e-05
3.81454e-06
0.000182178
0.000106046
7.30074e-06
1.2703e-05
2.45447e-06
2.35539e-06
2.16456e-06
1.94848e-06
2.40905e-06
3.6335e-06
0.000182248
0.999935
0.999997
1
1
1
1
1
1
1
1
0.99997
0.999993
0.999993
1
1
1
1
1
1
1
0.999995
0.999989
0.999989
0.999997
1
1
0.999982
0.999997
1
1
0.999975
0.999993
0.999997
0.999998
0.999891
0.999763
0.999905
0.999998
0.999989
0.999933
0.999861
0.999998
0.999998
0.999999
0.999805
0.999589
0.999747
0.999993
0.999915
0.999719
0.999942
0.999996
0.999996
0.999997
0.999973
0.999682
0.999705
0.999967
0.999997
0.999999
0.999897
0.999948
0.999932
0.999936
0.999942
0.999976
0.999999
1
1
1
0.998394
0.994045
0.971589
0.928717
0.881325
0.848729
0.823636
0.755033
0.71428
0.734099
0.591901
0.496917
0.342161
0.215817
0.127647
0.059288
0.0140499
0.0115477
0.037294
0.0917468
3.44951e-06
8.1972e-06
9.94299e-06
1.54577e-05
2.69982e-05
2.91631e-05
3.32585e-05
3.97209e-05
0.000144089
0.000589948
1.62625e-06
5.63473e-06
1.93835e-05
0.0001258
0.000190261
0.000131212
4.07672e-05
4.57146e-05
5.88117e-05
0.000154444
1.41725e-05
5.65995e-05
0.000163957
0.000250833
0.00025009
0.00024152
9.80726e-05
0.000130507
0.000176701
0.000142716
3.82809e-05
5.0748e-05
0.00018845
0.000110295
0.000152938
4.26148e-05
1.77432e-05
0.000207498
0.000235984
0.000160409
2.84841e-05
5.96238e-06
1.67396e-05
7.16476e-05
4.55303e-05
1.37757e-05
9.37898e-06
3.10753e-05
0.000239287
0.00023937
3.17146e-05
1.55844e-05
1.10582e-05
0.000117242
0.000117242
0.000109785
5.88318e-05
7.5445e-06
6.43692e-05
0.000239287
5.19756e-05
5.15282e-05
1.04412e-05
0.000108746
0.000116239
0.000114466
0.00011309
7.28489e-06
8.04478e-06
0.000212159
5.19756e-05
5.16602e-05
3.62458e-06
5.51922e-06
7.65301e-05
7.26083e-05
4.20125e-05
1.88841e-05
1.47541e-05
6.68422e-05
4.48621e-05
2.17596e-05
2.83139e-06
2.46245e-06
2.31549e-06
2.14001e-06
2.79163e-06
1.06894e-05
9.76593e-05
0.000157982
2.1035e-05
4.90803e-06
3.24493e-06
2.31549e-06
2.14001e-06
2.06382e-06
1.94848e-06
7.25975e-06
0.000140356
0.000182219
1.81272e-05
5.67523e-06
4.10417e-06
3.5845e-06
2.72236e-06
2.15352e-06
1.89544e-06
3.36479e-06
2.50731e-05
0.000182163
0.993576
0.999527
1
1
1
1
1
1
1
1
0.994173
0.999784
1
1
1
1
1
1
1
1
0.997247
0.999981
0.999998
0.999999
1
0.999998
0.999988
0.99998
1
1
0.996763
0.999845
0.999998
0.999996
0.999995
0.999999
0.999926
0.999936
0.999949
0.99969
0.994916
0.999746
0.999997
0.999997
0.999996
0.998508
0.998354
0.999738
0.99982
0.999357
0.997151
0.999839
0.999993
0.999995
0.999991
0.998531
0.998356
0.99942
1
1
0.998667
0.999809
0.999928
0.999925
0.999939
0.999941
0.999993
1
1
1
0.997811
0.998362
0.981888
0.9322
0.863474
0.823646
0.811544
0.755693
0.70892
0.729539
0.706197
0.61126
0.39882
0.227372
0.117736
0.0578447
0.0200857
0.0102758
0.0339111
0.092085
0.019486
9.01307e-06
1.47728e-05
2.09707e-05
2.2718e-05
2.4404e-05
2.91631e-05
4.30251e-05
0.000178318
0.000643174
1.87011e-06
5.1877e-06
1.02115e-05
4.5906e-05
0.000102374
8.21064e-05
8.44889e-05
0.000141574
0.000150196
0.000125128
2.92169e-05
4.53968e-05
4.11874e-05
0.000169134
0.000233288
0.000138245
0.000214834
0.000241167
0.000243637
6.40252e-05
0.000115851
0.000151284
8.14094e-05
1.63232e-05
9.64933e-06
9.40202e-06
1.11821e-05
0.000166661
0.000241167
5.73094e-05
9.11113e-05
3.24517e-05
1.59203e-05
1.63465e-05
9.9447e-06
9.11957e-06
8.07444e-06
7.54449e-06
0.000182649
0.000239287
2.31837e-05
7.38555e-06
1.40487e-05
4.45076e-05
0.000100382
5.15104e-05
7.55275e-06
7.27142e-06
8.79484e-06
0.0002388
9.64356e-06
7.38983e-06
1.2145e-05
1.98761e-05
0.000106439
5.00289e-05
1.13809e-05
7.24723e-06
7.27387e-06
4.20761e-05
1.9015e-05
7.38382e-06
7.99343e-06
8.02089e-06
6.42615e-06
4.2244e-06
3.57316e-06
7.44659e-06
4.32002e-05
6.32835e-06
1.113e-05
8.82387e-06
3.49944e-05
3.18624e-05
2.46245e-06
2.69762e-06
2.63695e-06
1.9074e-05
0.000174752
0.000113602
1.76163e-05
5.32346e-05
5.4264e-05
4.30763e-05
2.31549e-06
2.13997e-06
2.17249e-06
1.87071e-05
0.000181472
0.000182011
3.46149e-05
6.56858e-05
4.15043e-05
2.07435e-05
1.73032e-05
2.18383e-06
1.94847e-06
5.83113e-06
0.000114474
0.000181623
0.993576
0.998792
1
1
1
1
1
1
1
1
0.993631
0.999777
1
1
1
1
1
1
1
1
0.994087
0.999779
1
1
1
1
1
1
1
1
0.994103
0.999646
0.999955
0.999975
0.999992
0.999991
0.999996
0.999974
0.99995
0.999673
0.994122
0.999189
0.999666
0.999757
0.999993
0.999319
0.998356
0.999373
0.999939
0.999357
0.995119
0.999483
0.999866
0.999913
0.999987
0.999711
0.998359
0.998916
0.999978
1
0.998221
0.999497
0.999799
0.999849
0.999941
0.999917
0.999987
0.999999
1
1
0.997232
0.998322
0.985711
0.937985
0.869993
0.821164
0.800727
0.766554
0.725427
0.742458
0.736872
0.655556
0.426481
0.241672
0.126534
0.0660192
0.0282241
0.0170965
0.0404206
0.105705
0.0376101
0.00381409
2.01318e-05
1.93859e-05
2.03726e-05
2.22064e-05
2.4404e-05
3.11949e-05
0.000244055
0.000819444
1.77789e-06
4.06238e-06
1.1962e-05
2.10549e-05
2.2611e-05
2.4404e-05
0.000117769
0.000223815
0.000198628
0.000132915
1.32057e-05
0.000103474
0.000137499
0.000120582
3.66768e-05
2.78299e-05
0.000218439
0.000228046
0.000229153
4.83789e-05
3.77469e-05
0.000255683
0.000265152
0.000124719
8.83163e-06
8.08952e-06
2.12701e-05
0.000198769
0.000223709
3.97762e-05
3.54616e-05
0.000145695
0.000219469
2.25785e-05
8.08952e-06
7.6066e-06
7.26894e-06
1.43218e-05
0.000115364
4.29446e-05
4.57595e-05
6.97341e-06
0.000117226
0.000103092
8.71004e-06
7.25118e-06
7.25118e-06
7.26894e-06
7.62007e-06
0.000221754
3.23824e-05
1.46699e-05
0.000195178
0.000190136
8.79342e-06
7.39886e-06
7.26893e-06
7.27142e-06
7.48777e-06
1.89206e-05
1.45949e-05
1.03362e-05
0.000206269
0.00025937
8.50414e-06
9.89741e-06
1.17141e-05
1.31017e-05
1.46084e-05
4.49048e-06
1.31599e-05
2.52148e-05
0.000148653
0.000292258
8.46826e-05
4.1964e-05
1.88699e-05
2.55907e-05
6.61199e-05
5.49272e-06
2.48237e-05
0.00012552
0.000154282
0.000136348
0.00012216
4.7349e-05
2.63692e-06
1.54873e-05
8.52245e-05
2.50146e-05
3.1495e-05
0.000147533
0.000154683
2.75233e-05
7.28353e-05
1.0756e-05
2.17248e-06
1.15824e-05
4.81661e-05
6.62002e-05
0.999945
0.999991
1
1
1
1
1
1
1
1
1
0.999998
0.999999
1
1
1
1
1
1
1
1
1
1
0.999992
0.999995
0.999999
0.999996
0.999999
1
1
0.999932
0.999592
0.99977
0.999857
0.99984
0.999839
0.999962
0.999999
0.999996
0.999975
0.999369
0.998301
0.998302
0.999889
0.999975
0.999758
0.999481
0.999883
1
0.999982
0.99965
0.998339
0.999349
0.999922
0.999971
0.999987
0.999783
0.999901
0.999997
1
0.999645
0.998521
0.999506
0.999854
0.999928
0.99998
0.999997
1
1
1
0.998484
0.997299
0.983353
0.943598
0.89414
0.85038
0.807609
0.795662
0.768289
0.772869
0.700176
0.622117
0.413024
0.253035
0.150859
0.0825352
0.0333895
0.0307552
0.0590109
0.134051
0.0202408
1.54009e-05
1.49303e-05
1.7948e-05
1.93859e-05
2.03726e-05
2.22058e-05
2.74142e-05
0.000315629
0.00112795
1.80934e-06
4.10968e-06
2.47319e-05
2.08928e-05
2.03726e-05
1.80298e-05
9.27003e-05
0.000225497
0.000102791
0.00018636
2.10041e-06
0.000130381
0.000265152
0.000192631
1.84344e-05
1.03943e-05
0.00017827
0.000224013
7.68765e-05
4.97116e-05
1.04946e-05
0.000251653
0.000265152
0.000265152
4.76682e-05
7.6066e-06
5.10258e-05
0.000211447
6.57858e-05
3.56262e-05
6.45709e-06
6.32346e-05
0.000265152
0.000258827
1.13099e-05
7.23366e-06
9.67794e-06
5.48801e-05
7.6967e-05
3.53661e-05
3.31823e-05
4.70422e-06
0.000242001
0.000291595
3.55136e-05
7.26465e-06
7.24522e-06
8.22987e-06
6.08864e-05
4.02172e-05
4.1639e-05
1.11486e-05
0.000179857
0.000297089
0.000130478
7.26465e-06
7.39886e-06
9.83375e-06
6.096e-06
6.99452e-05
4.00167e-05
1.43165e-05
0.000124795
0.000297834
0.000269726
4.62794e-05
2.07904e-05
5.07188e-05
4.84518e-06
4.44984e-06
1.21909e-05
9.46085e-05
0.000111627
0.000298654
0.000298654
0.000298654
5.10822e-05
4.86227e-05
2.16676e-05
4.12866e-06
3.03789e-05
0.000151226
0.000154474
0.000111478
0.000298654
0.000227676
2.14797e-05
4.9766e-05
2.63597e-05
3.77117e-06
7.1059e-05
9.26231e-05
8.281e-05
5.11519e-05
4.09822e-05
2.76396e-05
6.50282e-05
5.42869e-05
6.51769e-06
3.56109e-06
1
1
1
1
1
1
1
1
1
1
1
1
1
1
1
1
1
1
1
1
1
1
0.999964
0.999994
0.999998
0.999996
0.999999
1
1
1
0.999982
0.999858
0.999888
0.999983
0.999991
0.999986
0.999995
1
1
1
0.999865
0.998911
0.999819
0.999999
0.999996
1
1
1
1
1
0.999888
0.999409
0.999912
0.999996
0.999996
0.999999
1
1
1
1
0.999824
0.999528
0.999838
0.999947
0.999969
0.999992
0.999999
1
1
1
0.996251
0.991876
0.972993
0.944593
0.916578
0.885286
0.840246
0.834378
0.815844
0.807773
0.551338
0.48537
0.349397
0.249326
0.176846
0.105289
0.0466598
0.0553313
0.0921745
0.174798
2.94941e-06
8.63124e-06
1.0278e-05
1.34924e-05
1.7948e-05
1.98313e-05
2.16861e-05
2.48942e-05
0.000412348
0.00153178
1.77911e-06
2.94936e-06
1.06102e-05
4.33793e-05
3.4465e-05
3.68014e-05
5.37445e-05
6.78282e-05
8.30101e-05
0.000263007
2.36721e-06
4.6234e-05
0.000153749
0.000241677
0.000204942
0.000130728
0.000155362
9.32953e-05
4.14746e-05
6.2301e-05
4.56388e-06
7.97564e-05
0.000257762
0.000253165
0.000181157
1.13305e-05
3.7668e-05
7.8078e-05
3.63285e-05
3.67578e-05
2.30678e-06
1.23317e-05
0.000235398
0.00013696
5.04672e-05
7.6066e-06
8.15559e-06
4.16729e-05
3.69305e-05
3.51502e-05
1.51941e-06
1.78457e-06
6.63677e-05
0.00020341
6.51978e-05
1.4188e-05
7.74823e-06
0.000112789
0.000166388
3.52968e-05
4.00057e-06
3.63539e-06
4.28681e-05
0.000294906
0.000135133
2.56681e-05
7.55511e-06
2.06052e-05
0.000164503
0.000319428
3.30077e-05
7.2425e-05
0.000145136
0.000297165
0.000294239
7.12065e-05
2.88091e-05
1.1013e-05
6.00077e-06
2.91027e-05
5.01033e-05
0.000119139
0.000207976
0.000224254
0.000238156
6.91049e-05
4.91328e-05
3.19518e-05
1.3202e-05
4.44984e-06
4.85632e-05
2.82986e-05
1.00729e-05
6.4681e-05
6.98647e-05
1.32485e-05
0.000112631
0.000108086
3.37685e-05
4.15816e-06
2.57754e-05
3.14167e-06
3.08045e-06
7.2236e-05
1.03209e-05
4.64955e-06
0.000164667
0.000212923
3.65704e-05
3.68192e-06
1
1
1
1
1
1
1
1
1
1
1
1
0.999999
1
1
1
1
1
1
1
1
0.999998
0.999997
0.999999
1
1
1
1
1
1
0.999997
0.999974
0.999992
1
1
1
1
1
1
1
0.999968
0.999983
0.999999
1
1
1
1
1
1
1
0.999966
0.999976
0.999997
0.999999
1
1
1
1
1
1
0.999902
0.99992
0.999956
0.999972
0.999987
0.999998
1
1
1
1
0.969394
0.965516
0.95499
0.944218
0.929619
0.908237
0.87537
0.871229
0.860175
0.851154
0.341321
0.320868
0.278617
0.240831
0.187198
0.123317
0.0726893
0.0975652
0.149693
0.234722
4.40292e-06
6.09105e-06
8.96232e-06
1.02781e-05
1.34924e-05
1.82184e-05
2.18722e-05
2.35706e-05
0.000533009
0.00193214
2.77117e-06
4.4029e-06
6.08998e-06
3.67762e-05
8.86719e-05
8.00639e-05
3.25025e-05
3.26648e-05
8.83848e-05
0.000351466
1.66463e-05
1.86339e-05
1.07737e-05
0.00010525
0.000194889
0.000186329
0.000145989
2.05872e-05
3.54631e-05
0.000112894
2.34694e-05
2.9944e-05
6.03612e-05
4.51161e-05
0.000121145
0.000142014
6.81105e-05
1.47663e-05
0.000105467
0.000174506
4.68888e-06
7.80353e-06
8.16452e-05
3.3921e-05
4.09151e-05
3.42958e-05
9.52265e-06
1.05037e-05
9.37397e-05
0.000340685
1.67664e-06
1.83431e-06
2.4252e-05
0.000193834
9.84605e-05
0.000169518
9.04857e-06
2.67502e-05
0.000166086
0.000339312
1.77972e-06
1.93284e-06
3.50249e-05
0.00029273
0.000286577
0.000195339
8.77781e-05
2.17956e-05
0.000272568
0.000348961
2.32292e-06
1.42685e-05
0.00014545
0.000294239
0.000274003
0.00015577
0.000276656
4.80803e-05
3.45205e-05
4.36643e-05
2.53917e-05
3.93429e-05
0.000130438
0.000189898
9.36567e-05
1.11207e-05
0.000290054
0.000109043
9.10519e-06
4.79276e-06
4.01739e-05
3.18582e-06
2.89599e-06
0.000105204
2.85815e-05
6.74795e-06
0.000262005
0.00030134
5.3943e-05
5.15354e-06
1.13429e-05
3.07445e-06
2.96672e-06
4.41867e-05
2.04851e-05
5.51143e-06
0.000148367
0.000303114
4.59614e-05
4.6976e-06
1
1
1
1
1
1
1
1
1
1
1
1
1
1
1
1
1
1
1
1
1
1
1
1
1
1
1
1
1
1
0.999999
1
0.999998
1
1
0.999999
1
1
1
1
0.999966
0.999994
0.999999
1
1
0.999999
1
1
1
1
0.999971
0.999994
0.999999
1
1
1
1
1
1
1
0.999932
0.999967
0.99998
0.99999
0.999997
0.999996
1
1
1
1
0.92767
0.936471
0.940195
0.940263
0.934749
0.920879
0.901892
0.903211
0.905407
0.904412
0.218753
0.23002
0.231837
0.219445
0.182579
0.135947
0.124638
0.164694
0.233709
0.319657
1.13156e-05
1.11777e-05
1.02783e-05
1.28398e-05
1.60024e-05
1.75309e-05
1.83448e-05
0.0001519
0.000857662
0.00220073
1.49442e-05
2.41176e-05
2.88387e-05
1.60024e-05
1.99667e-05
2.66131e-05
2.92348e-05
3.72741e-05
0.000213748
0.000483099
0.000235978
0.000244284
0.000176533
0.000107182
0.000134433
9.63799e-05
3.67806e-05
0.00010293
0.0001854
0.000271099
0.000221256
0.000126238
0.000107263
0.000223007
0.000280746
0.000188105
3.16707e-05
2.16693e-05
0.000177489
0.000300761
3.77568e-06
1.91142e-06
3.16374e-06
1.66498e-05
0.000286876
0.000303142
1.18949e-05
1.43891e-05
8.99916e-05
0.000351145
1.8342e-06
1.87276e-06
8.8489e-06
6.8567e-05
7.48628e-05
0.000303142
0.000253131
1.72179e-05
4.39906e-05
0.000351231
1.87352e-06
1.91142e-06
9.3121e-06
0.000231582
8.29351e-05
0.000303142
0.00029942
1.87947e-05
0.000128749
0.000350877
2.52383e-06
2.05801e-06
3.32705e-05
0.000286074
0.00012476
0.000196047
0.000297151
4.05562e-05
3.43643e-05
9.54389e-06
4.07674e-06
2.46301e-06
3.36702e-05
0.000271266
0.000131953
3.78374e-05
0.00029695
9.62798e-05
9.91733e-06
5.46135e-06
2.55902e-05
2.84365e-06
2.82601e-06
0.000133617
0.000118697
1.13099e-05
0.000192306
0.000303002
1.13955e-05
1.11705e-05
2.23723e-05
2.97325e-06
2.83909e-06
2.21714e-05
5.51033e-05
7.05688e-06
8.07255e-05
0.000303113
0.000245669
0.000148206
1
1
1
1
1
1
1
1
1
1
1
1
1
1
1
1
0.999995
0.999991
1
1
1
1
0.999999
1
1
0.999995
0.999941
0.999847
1
1
1
1
0.999998
1
1
0.999994
0.99994
0.999838
1
1
0.999837
0.999978
0.999998
1
1
0.999995
0.999981
0.999992
1
1
0.999472
0.999766
0.999999
1
1
1
1
1
1
1
0.999949
0.999962
0.999994
0.999999
0.999992
1
1
1
1
1
0.896235
0.917754
0.928552
0.934272
0.933843
0.924325
0.919571
0.932209
0.942924
0.945284
0.156739
0.175351
0.184699
0.18097
0.163699
0.157265
0.188295
0.254632
0.338649
0.412458
5.79813e-06
1.12488e-05
1.28398e-05
1.60024e-05
1.63589e-05
1.67746e-05
1.52508e-05
0.000274547
0.00101895
0.0044464
9.09633e-05
9.90751e-05
4.9664e-05
1.64428e-05
1.6775e-05
1.7934e-05
2.1594e-05
6.21254e-05
0.000245287
0.000324753
0.000267455
0.000267885
0.00026659
5.90766e-05
2.07311e-05
2.15572e-05
4.54422e-05
0.00021257
0.000204735
0.000112252
0.000267667
0.000267207
0.00025392
0.000237833
0.000111275
6.34865e-05
3.79254e-05
0.000152201
0.000336082
8.70821e-05
0.000169574
7.61486e-05
3.24335e-06
6.59887e-05
0.000293421
0.000298723
0.000152133
0.00012366
0.000341698
0.000348729
3.34413e-05
1.91142e-06
2.49056e-06
3.24335e-06
8.5888e-05
0.000303142
0.000300029
0.000222535
0.000306824
0.000351121
4.066e-06
2.0581e-06
1.67297e-05
4.44968e-05
7.77839e-06
9.88249e-05
0.000296825
0.000290829
0.000216903
0.000351179
2.26218e-06
2.29264e-06
2.62028e-06
0.000126095
5.52799e-05
5.18397e-05
0.000297417
0.000133676
3.40476e-05
0.000270768
3.40304e-06
2.5519e-06
2.72228e-06
0.000141529
0.000155876
4.50409e-05
0.000127233
0.000249534
1.20688e-05
0.000258865
7.41536e-06
2.72177e-06
2.78674e-06
0.000134804
0.000155876
2.44903e-05
8.32983e-05
0.000301356
0.000212605
0.000289378
5.45386e-06
2.78674e-06
2.83909e-06
6.30247e-05
9.95014e-05
1.17886e-05
7.88191e-05
0.000303113
0.000301356
0.000299391
1
1
1
1
1
1
1
1
1
1
1
1
1
1
1
1
0.999928
0.999699
0.999909
1
0.999999
1
1
1
1
1
0.999826
0.998334
0.997166
1
0.999999
0.999996
0.999999
1
1
1
0.999927
0.998691
0.996647
0.997453
0.99981
0.999965
1
1
1
1
0.999971
0.999674
0.999271
0.999119
0.999488
0.999817
1
1
1
1
0.999999
1
1
1
0.999997
0.999987
1
1
1
1
1
1
1
1