/*--------------------------------*- C++ -*----------------------------------*\
| =========                 |                                                 |
| \\      /  F ield         | OpenFOAM: The Open Source CFD Toolbox           |
|  \\    /   O peration     | Version:  2312                                  |
|   \\  /    A nd           | Website:  www.openfoam.com                      |
|    \\/     M anipulation  |                                                 |
\*---------------------------------------------------------------------------*/
FoamFile
{
    version     2.0;
    format      ascii;
    arch        "LSB;label=32;scalar=64";
    class       volScalarField;
    location    "0.225";
    object      p_rgh;
}
// * * * * * * * * * * * * * * * * * * * * * * * * * * * * * * * * * * * * * //

dimensions      [1 -1 -2 0 0 0 0];

internalField   nonuniform List<scalar> 
8000
(
506.168
507.109
508.875
511.398
514.499
517.913
521.291
524.212
526.244
527.049
503.893
504.741
506.345
508.624
511.407
514.448
517.434
519.996
521.747
522.404
499.586
500.27
501.588
503.428
505.628
507.981
510.244
512.141
513.373
513.753
493.63
494.115
495.089
496.376
497.819
499.259
500.541
501.514
502.029
502.04
486.379
486.707
487.391
488.15
488.817
489.269
489.457
489.399
489.132
488.767
478.297
478.619
479.242
479.682
479.742
479.338
478.568
477.664
476.814
476.232
469.364
469.953
470.805
471.382
471.319
470.524
469.218
467.785
466.539
465.882
458.946
460.563
462.832
464.897
465.932
465.616
464.202
462.36
460.884
460.065
373.729
383.761
397.139
412.665
428.654
442.397
452.246
457.702
460.364
461.929
82.277
110.473
154.805
198.44
233.545
258.311
278.086
291.819
305.418
316.1
0.831801
2.93056
18.1398
39.2513
64.5406
85.2726
92.4616
96.2484
109.695
126.009
0.308515
0.0813195
-0.0385872
-0.0864952
-0.101983
-0.0705076
0.304528
0.31351
0.0784787
0.286155
0.0637751
-0.0239021
-0.0725039
-0.109439
-0.132901
-0.0943633
-0.0665377
-0.0531622
-0.0583768
-0.116664
0.0372843
0.00343975
-0.027023
-0.0458736
-0.0506664
-0.0401517
-0.0467061
-0.0618388
-0.0787102
-0.0977826
0.0303802
0.0124023
-0.00765207
-0.019591
-0.024214
-0.026736
-0.0349698
-0.0493976
-0.0707115
-0.0868716
0.0110613
0.00276744
-0.00910716
-0.0175509
-0.0224972
-0.0262724
-0.0322089
-0.0407347
-0.0516222
-0.0603796
-0.00165345
-0.00443565
-0.010082
-0.0154779
-0.0200616
-0.0243559
-0.0289105
-0.0335158
-0.0380626
-0.0416736
-0.00720432
-0.00829773
-0.0111757
-0.0146973
-0.0183367
-0.0221319
-0.0260685
-0.0296237
-0.0324063
-0.0349596
-0.0102826
-0.0108753
-0.0125402
-0.014836
-0.0174397
-0.0202894
-0.0233208
-0.0262377
-0.0286839
-0.030655
-0.0121205
-0.0124952
-0.013513
-0.0150135
-0.016829
-0.0188726
-0.0210552
-0.0232145
-0.0251607
-0.0268068
507.196
508.252
510.241
513.118
516.716
520.768
524.878
528.531
531.144
532.263
504.825
505.769
507.562
510.144
513.352
516.942
520.556
523.739
525.971
526.871
500.349
501.09
502.529
504.564
507.045
509.771
512.464
514.779
516.32
516.862
494.186
494.673
495.66
496.981
498.487
500.025
501.419
502.493
503.063
503.102
486.768
487.024
487.577
488.149
488.583
488.77
488.663
488.304
487.751
487.239
478.67
478.836
479.128
479.085
478.538
477.444
475.958
474.347
472.898
472.021
469.994
470.298
470.609
470.383
469.278
467.299
464.806
462.301
460.288
459.195
460.594
461.703
463.193
463.968
463.2
460.767
457.228
453.818
451.348
450.041
383.807
391.688
404.237
419.324
432.496
438.77
436.173
430.641
428.943
431.746
110.406
129.502
160.105
183.438
189.258
174.293
149.789
136.252
134.883
142.44
2.85584
8.05991
6.77762
2.70351
0.077066
-0.0728063
-0.377049
-0.522817
-0.273473
0.357384
0.0773259
-0.22448
-0.157083
-0.111845
-0.0687414
-0.063327
-0.0403226
-0.0605621
-0.0934048
-0.0627623
-0.0286253
-0.113123
-0.135335
-0.0858049
-0.0462202
-0.0680995
-0.0928907
-0.117589
-0.122271
-0.115565
0.000261907
-0.0178944
-0.028407
-0.0270736
-0.0316634
-0.0462024
-0.0690997
-0.0969139
-0.111598
-0.116777
0.0106052
0.00770923
-0.00615664
-0.0185288
-0.0265516
-0.0392252
-0.061542
-0.0851146
-0.0898648
-0.0945863
0.00180948
0.00133443
-0.00675954
-0.0145933
-0.0206144
-0.0283214
-0.0412653
-0.0599543
-0.0690735
-0.0672497
-0.00493383
-0.0047145
-0.00869198
-0.0136566
-0.0187102
-0.0247659
-0.0320713
-0.039281
-0.046351
-0.051546
-0.00852942
-0.00847395
-0.0106669
-0.0138911
-0.0176002
-0.0219473
-0.0269225
-0.0319328
-0.0355247
-0.0379055
-0.0109416
-0.0110551
-0.0123809
-0.0144379
-0.0169341
-0.0198611
-0.0231637
-0.0265242
-0.0292835
-0.0313662
-0.0124699
-0.0126199
-0.0134495
-0.0147741
-0.0164507
-0.0184234
-0.0206115
-0.0228186
-0.0248059
-0.0264926
509.136
510.417
512.85
516.42
520.969
526.205
531.636
536.558
540.17
541.8
506.599
507.733
509.905
513.078
517.104
521.713
526.463
530.739
533.829
535.114
501.826
502.689
504.37
506.789
509.81
513.213
516.645
519.656
521.706
522.334
495.303
495.805
496.835
498.23
499.855
501.533
503.04
504.172
504.654
504.341
487.578
487.703
488.031
488.271
488.269
487.908
487.114
486.011
484.632
483.305
479.399
479.232
478.933
478.039
476.403
474.025
471.022
467.839
464.805
462.838
470.928
470.688
470.052
468.39
465.438
461.391
456.671
451.945
447.932
445.82
462.923
463.245
463.343
461.676
457.562
451.899
445.619
440.029
436.514
435.223
397.322
404.322
417.567
426.496
419.537
394.925
360.937
336.259
330.717
344.091
154.875
160.108
175.388
153.66
102.592
57.3509
30.8837
17.8263
14.5816
20.1053
18.1876
6.87891
-0.0102029
-0.0240562
-0.0671315
-0.150663
-0.383211
-0.44004
-0.340186
-0.364028
-0.0490528
-0.168711
-0.0714634
-0.0584652
-0.0562993
-0.101787
-0.197775
-0.23746
-0.219527
-0.185041
-0.0847683
-0.141633
-0.0885651
-0.0334968
-0.0081834
-0.0232922
-0.0947593
-0.156212
-0.167037
-0.136233
-0.0355522
-0.0336144
-0.0193765
-0.00544315
0.00206813
-0.0037929
-0.0469596
-0.104805
-0.12243
-0.110475
-0.0130128
-0.00958377
-0.0085208
-0.00652949
-0.00487319
-0.00929658
-0.0320563
-0.0641262
-0.0739709
-0.0721614
-0.0120522
-0.00862049
-0.00762733
-0.00801078
-0.0101808
-0.0169282
-0.0301188
-0.0467656
-0.0556196
-0.0542901
-0.0115341
-0.00961211
-0.00966355
-0.0112851
-0.0142595
-0.0194358
-0.0271771
-0.0358147
-0.0408129
-0.0435818
-0.0117865
-0.0110526
-0.0117268
-0.0133765
-0.0158298
-0.0193803
-0.0240846
-0.0289905
-0.0324223
-0.0344292
-0.0126696
-0.0124532
-0.0130785
-0.0143183
-0.0161062
-0.0185145
-0.0214748
-0.0245097
-0.0269075
-0.0286297
-0.0133856
-0.0133531
-0.0138116
-0.0146805
-0.0159224
-0.0175292
-0.019433
-0.0214063
-0.0231602
-0.0246313
511.927
513.567
516.699
521.383
527.509
534.775
542.543
549.804
555.282
557.814
509.136
510.579
513.349
517.481
522.877
529.264
536.057
542.365
547.033
548.995
503.908
504.971
507.043
510.104
514.065
518.688
523.508
527.824
530.747
531.677
496.809
497.349
498.459
500.019
501.903
503.904
505.703
506.85
506.952
506.405
488.526
488.467
488.467
488.236
487.626
486.46
484.593
481.943
478.691
476.728
479.993
479.344
478.197
476.09
472.904
468.562
463.125
457.014
450.942
448.325
471.625
470.58
468.508
464.746
459.22
452.279
444.076
435.708
428.618
424.977
465.081
464.092
461.746
456.387
448.534
439.987
428.217
415.35
406.583
401.994
413.059
419.543
426.594
412.177
368.547
307.142
233.063
185.44
167.314
166.524
198.657
183.654
153.732
85.9694
30.5137
2.5459
-0.558735
-0.733232
-0.781409
-0.789779
40.3174
2.86621
-0.0295787
-0.0629263
-0.178488
-0.386872
-0.526039
-0.58551
-0.558332
-0.516795
-0.113735
-0.128562
-0.0665393
-0.0486412
-0.0484914
-0.0736339
-0.22151
-0.356951
-0.344243
-0.274005
-0.133729
-0.101582
-0.0455958
0.0284109
0.102057
0.194234
0.0502589
-0.203349
-0.20421
-0.127349
-0.0615809
-0.0394524
-0.0140481
0.026006
0.0681724
0.0798366
-0.0024592
-0.134215
-0.135367
-0.0933559
-0.0296216
-0.0266031
-0.0117494
0.00801193
0.0256312
0.0260374
-0.015746
-0.0686086
-0.078752
-0.0655538
-0.0229554
-0.0188761
-0.0106709
-0.00317055
0.000460045
-0.00317897
-0.0213549
-0.0434781
-0.0493844
-0.0468833
-0.0179648
-0.0156191
-0.0124544
-0.0103859
-0.0103953
-0.0140243
-0.0226364
-0.0317527
-0.0344998
-0.0344289
-0.0155822
-0.0145701
-0.0137213
-0.0134505
-0.0142131
-0.01664
-0.0209988
-0.0255523
-0.0275797
-0.0286506
-0.0148601
-0.014415
-0.0142402
-0.0144276
-0.0152048
-0.0167946
-0.0191688
-0.0217016
-0.0232736
-0.0245552
-0.0146084
-0.0144036
-0.0144105
-0.014664
-0.0152617
-0.0162672
-0.0176402
-0.0191627
-0.0204182
-0.0216747
515.389
517.539
521.645
527.926
536.424
546.92
558.648
570.039
578.875
583.34
512.269
514.15
517.76
523.283
530.773
540.051
550.396
560.297
567.813
571.291
506.435
507.793
510.426
514.449
519.895
526.63
533.978
540.662
545.434
548.001
498.547
499.161
500.409
502.248
504.629
507.378
509.775
510.946
511.159
512.422
489.444
489.16
488.74
487.916
486.535
484.34
480.592
475.294
470.624
469.854
480.256
479.005
476.777
473.131
467.802
460.603
451.047
440.152
430.371
427.011
471.719
469.626
465.716
459.4
450.459
439.303
425.585
410.329
396.61
390.249
466.234
463.415
457.732
448.737
436.736
418.03
385.928
343.555
295.178
217.314
429.289
432.994
419.725
368.404
281.933
185.128
111.866
57.9548
18.9309
6.78015
233.97
190.183
102.635
30.2811
-0.283129
-0.764806
-0.954929
-1.19458
-1.3882
-1.4592
66.97
0.0640176
-0.0761664
-0.174268
-0.421932
-0.679405
-0.792955
-0.832938
-0.774758
-0.846722
-0.161943
-0.0979329
-0.071354
-0.06813
0.0562613
-0.0544929
-0.160679
-0.148172
-0.0997913
-0.00995403
-0.177899
-0.0776002
-0.0408236
0.0643087
0.337249
0.426462
0.193825
-0.292298
-0.172644
-0.0333357
-0.0753412
-0.0541052
-0.0202354
0.0473629
0.145134
0.28326
0.0711516
-0.234921
-0.153019
-0.0458521
-0.0391079
-0.0397179
-0.0170788
0.0159374
0.0424619
0.0277885
-0.0641483
-0.114719
-0.0811067
-0.0372696
-0.0299777
-0.0270497
-0.0158085
-0.0036829
0.00262364
-0.00667095
-0.0334679
-0.0547267
-0.0453712
-0.0306912
-0.0230469
-0.0212213
-0.0163611
-0.0117655
-0.0100086
-0.0137219
-0.0242443
-0.0329265
-0.030607
-0.0249306
-0.0190068
-0.0180855
-0.0161391
-0.0143354
-0.0137713
-0.0153988
-0.0196008
-0.0233553
-0.0231871
-0.0217485
-0.0169643
-0.0164239
-0.0155894
-0.0148218
-0.0146489
-0.0154165
-0.0170993
-0.0187972
-0.0194116
-0.0194757
-0.0158452
-0.0155047
-0.015088
-0.0147132
-0.0146168
-0.0149192
-0.0156139
-0.0164619
-0.0172617
-0.0178559
519.255
522.068
527.407
535.778
547.556
562.863
580.946
599.601
615.616
625.106
515.748
518.204
522.883
530.247
540.681
554.366
570.518
586.995
601.435
609.942
509.198
510.955
514.314
519.622
527.241
537.285
549.088
561.015
571.63
578.345
500.352
501.088
502.521
504.747
507.937
511.793
515.454
517.951
519.826
522.074
490.204
489.672
488.738
487.159
484.796
480.693
473.594
463.143
452.463
444.929
480.095
478.164
474.67
469.085
460.925
449.108
432.458
410.445
383.832
335.548
471.108
467.835
461.849
452.631
439.53
422.16
400.063
355.444
225.053
161.638
466.05
461.098
452.125
440.076
418.045
372.947
296.372
135.775
46.059
26.7086
443.356
439.633
394.854
305.885
183.531
90.0397
27.3159
-1.67325
-1.96653
-2.49247
260.258
175.73
57.0623
1.75176
-0.825288
-1.05318
-1.25625
-1.5888
-1.90645
-2.09842
87.074
-0.059728
-0.107622
-0.333213
-0.678448
-0.880149
-0.609525
0.0351301
-0.20218
-0.277662
-0.247929
-0.113052
-0.105754
-0.140832
-0.0460475
-0.192069
-0.158922
-0.213563
0.0956743
0.832721
-0.177294
-0.11999
-0.0722813
0.0472636
0.356912
0.19481
-0.243233
-0.377676
-0.175775
0.088591
-0.0760079
-0.0795366
-0.0418202
0.0158844
0.156878
0.279849
-0.163941
-0.317501
-0.134132
0.011564
-0.0442286
-0.0561234
-0.0294046
0.000635068
0.00387934
-0.0280183
-0.148638
-0.184216
-0.0786883
-0.00124367
-0.034043
-0.0352929
-0.0241677
-0.0121069
-0.0122061
-0.0338322
-0.0724271
-0.0739046
-0.0357623
-0.00680314
-0.0264479
-0.0264235
-0.0211752
-0.0160147
-0.0149189
-0.0204512
-0.0306927
-0.0337336
-0.0193647
-0.00840596
-0.0216224
-0.0212426
-0.0187067
-0.0160902
-0.01491
-0.0160318
-0.0186563
-0.0202659
-0.0151169
-0.0109952
-0.0186839
-0.0182175
-0.016912
-0.0154044
-0.0144115
-0.0142948
-0.0144836
-0.0148915
-0.0134099
-0.0119872
-0.0169034
-0.0164847
-0.0157009
-0.0147305
-0.0139009
-0.0133618
-0.0128882
-0.0128304
-0.0127384
-0.0123406
523.161
526.75
533.49
544.316
560.188
581.957
609.46
640.387
669.881
689.271
519.246
522.375
528.274
537.802
551.933
571.529
596.055
623.412
650.686
668.432
511.939
514.171
518.356
525.182
535.501
550.141
568.954
588.954
609.418
622.845
502.057
502.945
504.573
507.222
511.196
516.485
522.119
522.715
521.187
518.474
490.742
489.944
488.386
485.839
481.732
474.409
460.158
428.547
368.842
313.492
479.594
476.961
471.986
464.021
451.775
432.847
401.772
319.848
164.345
98.2108
469.992
465.527
457.342
444.675
426.016
400.275
342.719
156.483
22.1732
5.17384
464.747
457.667
445.984
428.418
386.019
295.783
107.772
15.7611
-2.14936
-2.77152
453.523
437.203
360.374
231.436
110.086
25.6578
-1.93352
-2.8798
1.81972
-3.39286
282.444
152.16
29.8977
-0.59166
-1.0467
-1.35379
-0.811812
2.8498
2.55581
-3.1412
91.6515
-0.0552397
-0.183045
-0.457408
-0.846271
-0.72955
0.14486
-0.0823547
-0.815235
-1.88343
-0.225336
-0.118372
-0.168226
-0.281956
-0.324
-0.396234
-0.593802
-0.634488
-0.467949
-0.184961
-0.150588
-0.166975
-0.132621
-0.117295
-0.0634833
-0.222582
-0.461531
-0.361188
-0.139014
0.153141
-0.0726202
-0.102891
-0.081816
-0.066076
-0.0657885
-0.206687
-0.351384
-0.286472
-0.0612552
0.0957358
-0.0461065
-0.074499
-0.0499371
-0.0378072
-0.0730051
-0.162376
-0.212434
-0.151738
-0.0295177
0.0523037
-0.0357211
-0.0450874
-0.0341671
-0.0274567
-0.0362102
-0.065169
-0.0922376
-0.0608251
-0.00324998
0.0324586
-0.0276964
-0.0305208
-0.0256864
-0.0212587
-0.0225787
-0.028146
-0.0336898
-0.0253156
0.00069467
0.0154368
-0.0230109
-0.023654
-0.0207933
-0.017785
-0.0165645
-0.0168606
-0.0170889
-0.0137105
-0.00411675
0.00445936
-0.019834
-0.0195927
-0.0178934
-0.0157591
-0.014046
-0.0127996
-0.0114415
-0.00920575
-0.00675432
-0.00118025
-0.0176736
-0.0172307
-0.0161162
-0.0145732
-0.013009
-0.0114779
-0.0097778
-0.0079574
-0.00695553
-0.00412686
526.659
531.039
539.165
552.511
572.764
602.081
642.011
689.279
738.267
775.861
522.367
526.179
533.292
545.043
563.016
589.403
624.65
666.496
711.502
752.58
514.356
517.069
522.076
530.416
543.416
563.684
590.944
614.029
643.578
679.669
503.487
504.534
506.34
509.213
513.564
520.683
524.874
508.357
483.565
487.95
491.052
489.994
487.788
483.852
477.331
465.057
429.175
330.203
214.075
179.099
478.956
475.628
469.136
458.315
441.312
411.223
321.605
129.278
29.4174
21.8806
468.702
463.146
452.768
436.482
410.923
353.665
164.906
10.3642
-0.779219
0.56014
462.914
454.066
440.411
415.585
342.734
132.044
18.0901
-2.04437
-2.74772
-3.01502
459.264
429.32
334.548
183.424
54.874
-2.02252
-2.89601
-3.29693
-3.64206
-3.8847
296.449
133.53
16.6767
-0.793022
-1.43006
-1.82975
1.63524
-3.40228
-3.7228
-3.72222
96.517
-0.416479
-0.377901
-0.587004
-0.950816
-0.496989
-0.711345
-1.83393
-1.73639
-1.96763
0.205911
-0.084188
-0.219096
-0.338378
-0.310959
-0.413204
-0.718331
-0.435457
0.0388794
0.0998249
-0.0867942
-0.134261
-0.159024
-0.183289
-0.183524
-0.283127
-0.347456
0.0663744
0.5281
0.691496
-0.0669215
-0.0992495
-0.102826
-0.105487
-0.159432
-0.215516
-0.228668
0.0886232
0.259759
0.477174
-0.0476718
-0.0782202
-0.0583762
-0.0516632
-0.0675012
-0.120393
-0.115431
-0.0111035
0.155287
0.278559
-0.0353164
-0.0555785
-0.0401837
-0.0310155
-0.0353923
-0.0449817
-0.0395285
-0.00265344
0.196185
0.132345
-0.0267021
-0.0320933
-0.027042
-0.0212838
-0.0196626
-0.0192324
-0.0116981
0.00296371
0.287868
0.105301
-0.0227701
-0.0247869
-0.0213239
-0.0170967
-0.0139372
-0.0111582
-0.00546704
0.00180729
0.264612
0.0688089
-0.0202849
-0.0203993
-0.0181192
-0.0150882
-0.0119895
-0.00892682
-0.00442399
-3.05419e-05
0.227109
0.0239577
-0.0181482
-0.0176943
-0.016205
-0.014027
-0.0114915
-0.0088117
-0.00531603
-0.00156793
0.0149919
0.00629973
529.273
534.306
543.575
559.031
583.031
620.119
674.058
741.002
795.559
805.842
524.683
529.052
537.175
550.754
571.939
605.668
654.473
714.021
764.691
774.877
516.114
519.214
524.886
534.367
549.658
576.181
612.052
645.42
667.218
666.283
504.464
505.637
507.503
510.262
515.227
524.886
528.631
485.56
433.502
414.696
491.158
489.866
486.953
481.362
473.702
456.096
374.389
216.606
129.674
164.744
478.373
474.466
466.458
452.728
432.049
385.521
170.983
28.9602
15.1406
48.4528
467.612
461.248
448.874
429.447
397.214
221.716
24.9551
-1.00488
0.836068
5.71432
461.389
451.52
436.775
405.765
288.217
42.2317
-0.909594
-2.22994
-1.51971
-2.32768
462.088
426.383
326.725
162.306
15.2279
-2.32433
3.85763
-3.42392
-3.35115
-3.99118
309.677
128.861
12.6334
-0.966242
-1.67877
-1.92186
3.29477
-3.61094
-3.4102
-3.0534
108.665
-0.657391
-0.494502
-0.701208
-1.12551
-1.00257
-1.70679
-1.64891
-1.02705
-0.540945
0.37365
-0.0700066
-0.233348
-0.336399
-0.0635615
-0.1681
-0.568022
0.196482
1.21245
1.49524
-0.0115103
-0.089169
-0.134688
-0.110436
-0.00894807
-0.0158921
0.0139916
0.767698
1.56152
1.9456
-0.0470765
-0.081176
-0.087701
-0.0560519
0.00431405
0.0236507
0.0561129
0.559601
0.879793
1.16736
-0.0521841
-0.0691506
-0.0450345
-0.0283894
0.000722578
0.0316357
0.0780662
0.413835
0.464111
0.583262
-0.0369105
-0.0510097
-0.0339442
-0.0193636
-0.0051373
0.0112355
0.0710687
0.335417
0.279431
0.277927
-0.0253106
-0.0346901
-0.0256187
-0.0150068
-0.0064541
0.00358616
0.0209612
0.285218
0.187792
0.148881
-0.0216904
-0.0243475
-0.0203497
-0.0139496
-0.00782393
-0.000698081
0.00901066
0.0451861
0.0994849
0.097561
-0.0202436
-0.020646
-0.0177497
-0.0135592
-0.00900221
-0.00377877
0.00314195
0.00967762
0.0347972
0.0649958
-0.0184878
-0.0180321
-0.0161484
-0.0133027
-0.00993311
-0.00603955
-0.000831186
0.00451094
0.0122234
0.0494806
530.608
536.008
545.925
562.525
588.876
631.553
696.857
782.06
807.83
818.411
525.855
530.534
539.185
553.692
576.807
616.32
675.842
759.314
774.694
791.353
516.969
520.298
526.191
536.227
553.728
585.6
630.305
688.291
665.078
673.638
504.888
506.143
507.762
510.509
517.829
529.833
531.368
500.862
414.996
433.52
491.113
489.715
486.052
480.004
473.982
451.211
325.078
201.828
164.199
183.954
477.996
473.813
464.737
450.455
429.379
341.681
105.777
25.4083
51.4356
69.2407
467.041
460.255
446.821
425.961
391.543
167.512
5.95568
0.0735792
11.1948
35.5238
460.585
450.366
435.421
401.085
212.436
27.5426
-2.98268
-2.51988
-1.83576
7.0228
462.907
430.22
338.98
161.152
5.84049
-2.94516
-3.29358
-3.27882
-3.09233
-2.05323
321.795
140.555
17.0823
-1.17275
-1.93095
-2.65609
-3.50217
-3.53631
-2.29415
-1.42431
117.648
-0.547282
-0.519084
-0.793296
-1.28807
-1.78756
-2.43073
-1.96248
-0.306485
0.901142
0.345001
-0.0530132
-0.227377
-0.343098
0.00820281
-0.15926
-0.29533
0.216308
1.69275
2.82167
0.0501418
-0.0512269
-0.0974195
-0.0405605
0.214016
0.561233
0.398214
0.969282
2.14673
2.8375
-0.0227152
-0.0654825
-0.0623218
-0.00621991
0.107948
0.168564
0.182099
0.628179
1.27455
1.71389
-0.0479503
-0.0547885
-0.0363122
-0.00117447
0.0565451
0.0946021
0.136453
0.367775
0.638563
0.836992
-0.0368636
-0.041678
-0.0246452
-0.00616046
0.0236931
0.0500757
0.0862846
0.254729
0.335192
0.408296
-0.0242169
-0.0350972
-0.0231571
-0.00882306
0.00665438
0.0239328
0.0457825
0.170108
0.176666
0.204738
-0.0215117
-0.0240308
-0.0192495
-0.0113098
-0.00215798
0.00930388
0.0236562
0.0523597
0.08026
0.10251
-0.0204834
-0.0209734
-0.0175781
-0.0126146
-0.00655943
0.00119494
0.0111014
0.0209695
0.0428462
0.0475399
-0.0190004
-0.0185604
-0.0163748
-0.0131244
-0.00894795
-0.00357969
0.00355778
0.00993256
0.0460093
0.0265852
530.433
535.816
545.701
562.246
588.52
631.078
696.107
780.438
805.265
815.118
525.685
530.349
538.972
553.428
576.472
615.671
674.733
757.778
771.692
786.716
516.812
520.126
525.993
535.978
553.431
585.067
628.65
685.933
659.356
666.295
504.747
505.991
507.581
510.266
517.483
529.457
531.5
496.9
407.753
419.761
490.996
489.589
485.894
479.737
473.323
449.93
320.672
188.91
167.284
183.326
477.911
473.73
464.62
450.209
428.698
340.055
99.3819
21.4238
51.0795
71.3829
466.992
460.224
446.78
425.986
391.285
161.955
4.59642
0.0648563
6.49267
35.7407
460.587
450.377
435.503
402.227
217.836
25.3377
-2.42032
-2.83034
-2.29048
4.29936
463.023
430.271
340.562
163.416
6.27222
-2.80726
-2.41201
-3.70164
-3.67728
-2.73135
322.361
140.284
18.0971
-1.1116
-1.83911
-2.56392
-3.21322
-3.65843
-3.12877
-2.15773
118.871
-0.650212
-0.542973
-0.746121
-1.1657
-1.51944
-2.3081
-2.14134
-0.877268
0.621929
0.473179
-0.0588367
-0.234364
-0.341027
0.000717707
-0.0777367
-0.48716
-0.191924
1.18363
2.51391
0.0432159
-0.054418
-0.104071
-0.0594155
0.165194
0.479931
0.178782
0.495689
1.62134
2.43701
-0.0239544
-0.064742
-0.064996
-0.0159905
0.0774332
0.127559
0.0728472
0.334324
0.998049
1.43479
-0.0484577
-0.0559624
-0.0378081
-0.00587401
0.0431914
0.0709958
0.0851016
0.231669
0.537729
0.707617
-0.0376952
-0.0423224
-0.0260379
-0.00867364
0.0189297
0.0374818
0.0560645
0.197125
0.302823
0.332733
-0.0252917
-0.0360931
-0.0241177
-0.0102621
0.00373826
0.0168701
0.0320627
0.148981
0.141739
0.153841
-0.0225629
-0.0251148
-0.0203885
-0.0128141
-0.00453403
0.00467165
0.015703
0.0831642
0.0786118
0.0727335
-0.0214623
-0.0220063
-0.018673
-0.0139601
-0.00846536
-0.00183092
0.00627462
0.0196067
0.0469966
0.0358019
-0.0199172
-0.0195199
-0.0173951
-0.0143126
-0.0105063
-0.0057502
0.000242293
0.00829227
0.0350731
0.0149027
528.755
533.742
542.907
558.183
581.893
618.511
671.62
737.423
791.54
802.4
524.184
528.509
536.535
549.94
570.823
603.912
651.771
710.068
760.297
772.812
515.651
518.712
524.298
533.614
548.641
574.672
609.304
640.76
661.29
654.514
504.056
505.195
506.986
509.572
514.298
523.334
525.484
478.324
423.473
397.184
490.825
489.511
486.533
480.768
472.836
454.179
368.6
208.837
121.358
157.171
478.143
474.233
466.193
452.343
431.445
384.616
167.052
28.6016
15.5782
40.1739
467.518
461.165
448.824
429.363
396.983
219.172
23.083
-0.675186
0.861765
5.28979
461.406
451.61
436.913
406.769
288.404
40.4664
-1.73934
-2.84488
-2.31906
-1.64055
462.067
428.166
331.968
166.257
14.3233
-2.26276
3.0545
-3.4811
-3.7178
-3.77753
311.655
134.284
15.2681
-0.838536
-1.4875
-1.73236
2.86162
-3.40304
-3.54395
-3.26258
109.84
-0.543699
-0.461082
-0.601605
-1.02083
-0.916637
-1.62016
-1.98473
-1.67439
-0.810322
0.292031
-0.0891205
-0.23739
-0.321183
-0.186295
-0.19597
-0.816888
-0.673481
0.098984
0.993324
-0.0107295
-0.0965791
-0.140063
-0.120785
-0.011605
-0.00492454
-0.314296
-0.196806
0.559244
1.22457
-0.0462244
-0.0796971
-0.0905902
-0.0620156
-0.00496286
0.0150041
-0.107175
-0.0390595
0.423696
0.740367
-0.0541259
-0.0708321
-0.0469733
-0.0340756
-0.00817658
0.000278937
-0.029168
0.0685095
0.256653
0.36894
-0.0398251
-0.0527409
-0.037234
-0.0244935
-0.0129631
-0.0064463
-0.00402208
0.0849286
0.137429
0.16827
-0.0285029
-0.0375621
-0.0290635
-0.0198385
-0.0129095
-0.00663764
8.27078e-05
0.0699092
0.0798657
0.0679265
-0.0248555
-0.0276255
-0.0237583
-0.018037
-0.0128498
-0.00742681
-0.00107599
0.0541577
0.0743279
0.0249255
-0.0231825
-0.0237029
-0.0209602
-0.0172185
-0.0132538
-0.00891095
-0.00368271
0.0575756
0.0725341
0.00617208
-0.0212234
-0.0208603
-0.0191289
-0.0165991
-0.0136782
-0.0104643
-0.00666543
0.0572454
0.0674991
-0.00260277
525.824
530.133
538.101
551.172
570.984
599.6
638.46
684.521
732.153
768.677
521.56
525.302
532.262
543.744
561.273
586.886
620.754
661.563
704.839
742.644
513.601
516.249
521.111
529.195
541.781
561.427
587.849
608.934
635.962
665.216
502.811
503.799
505.47
508.087
512.012
518.415
521.107
503.626
470.904
463.189
490.482
489.377
487.052
482.866
475.908
462.683
423.756
318.527
196.726
149.28
478.518
475.175
468.613
457.596
440.228
409.55
317.612
122.029
24.4955
18.8119
468.403
462.884
452.549
436.199
410.315
348.994
157.33
8.5613
-0.36546
1.3115
462.739
454.002
440.445
416.467
343.172
125.311
11.2051
-2.65443
-2.55072
-2.55623
458.759
431.072
338.742
187.613
53.2718
-1.74666
-2.39156
-2.983
-3.2606
-3.45609
296.843
138.504
18.8448
-0.630306
-1.1581
-1.48945
0.636387
-2.64686
-3.02158
-3.06665
96.9045
-0.414878
-0.372937
-0.495784
-0.875827
-0.394629
-0.296518
-1.53882
-1.48521
-1.27785
0.139087
-0.124011
-0.241603
-0.31653
-0.358577
-0.400086
-0.769125
-0.870165
-0.522805
-0.0505016
-0.0636497
-0.141682
-0.167396
-0.170368
-0.144033
-0.209008
-0.517191
-0.594982
-0.278315
0.0919691
-0.0622134
-0.0970894
-0.104752
-0.0940157
-0.0958518
-0.156115
-0.310036
-0.350091
-0.13289
0.0955752
-0.0519103
-0.0805626
-0.0628152
-0.0526082
-0.0566842
-0.104437
-0.179996
-0.18969
-0.0859925
0.0736898
-0.0401172
-0.059348
-0.0455457
-0.0354478
-0.0368726
-0.0513809
-0.0810673
-0.088285
-0.0433769
0.0339398
-0.0319847
-0.0378256
-0.0327589
-0.0272324
-0.0260038
-0.0290931
-0.0346848
-0.0357119
-0.0168054
0.0101413
-0.0280245
-0.0303344
-0.026982
-0.0231709
-0.0208731
-0.0200497
-0.0181258
-0.0186721
-0.00343454
0.00766515
-0.0251829
-0.0254912
-0.0234261
-0.020822
-0.0184545
-0.0165199
-0.0124108
-0.0129657
0.00541309
0.00977379
-0.0227042
-0.0223781
-0.0210932
-0.0192695
-0.0173027
-0.0154767
-0.0113996
-0.0120375
0.0582583
0.00579067
522.058
525.561
532.113
542.623
558.006
579.039
605.516
635.266
663.378
681.33
518.176
521.221
526.937
536.154
549.796
568.64
592.108
618.235
644.074
660.392
510.935
513.087
517.097
523.622
533.466
547.371
565.195
583.755
602.464
613.242
501.15
501.968
503.435
505.793
509.282
513.755
518.14
516.817
511.763
504.391
489.962
489.109
487.416
484.606
480.016
471.805
455.947
421.255
352.544
290.039
478.965
476.306
471.257
463.108
450.449
430.796
398.817
312.284
150.979
81.2906
469.513
465.056
456.91
444.218
425.374
399.03
336.413
147.196
20.3845
3.7187
464.396
457.281
445.764
428.623
385.843
291.488
101.495
13.8909
-1.48514
-2.23742
452.74
437.004
362.664
234.54
109.477
20.3428
-1.56077
-2.42905
2.26828
-2.94847
280.429
152.568
31.9704
-0.48952
-0.912909
-1.14829
-1.26675
2.31766
3.86069
-2.38471
93.965
-0.358457
-0.36796
-0.419526
-0.732903
-0.866557
0.0108875
0.907271
0.933478
-0.386563
0.213301
-0.128035
-0.239599
-0.288783
-0.390022
-0.486861
-0.584347
-0.705561
-0.558354
0.2238
-0.118207
-0.155833
-0.167925
-0.156262
-0.119461
-0.244351
-0.477524
-0.600714
-0.484737
-0.253976
-0.0652043
-0.102723
-0.0975285
-0.0845793
-0.0913465
-0.161595
-0.343559
-0.441446
-0.347111
-0.183406
-0.0501335
-0.0803402
-0.0637824
-0.0463006
-0.0559548
-0.120113
-0.219741
-0.287155
-0.218391
-0.120773
-0.0423223
-0.0505258
-0.043163
-0.0354027
-0.0381192
-0.0575131
-0.10247
-0.139541
-0.105375
-0.0656472
-0.0353839
-0.0396145
-0.034765
-0.0295558
-0.0294037
-0.0342387
-0.045906
-0.0583448
-0.0525764
-0.0384397
-0.0303703
-0.031403
-0.028783
-0.0259184
-0.0246938
-0.0256318
-0.0290273
-0.0335008
-0.0324734
-0.0276464
-0.0266806
-0.026677
-0.0252169
-0.0233825
-0.0220846
-0.0216764
-0.0223756
-0.0241869
-0.0248165
-0.0228678
-0.023973
-0.0236751
-0.0227702
-0.0215447
-0.0204607
-0.0197652
-0.0196036
-0.020384
-0.0213656
-0.0203159
517.938
520.66
525.806
533.862
545.173
559.823
577.042
594.665
609.435
618.379
514.469
516.836
521.327
528.381
538.353
551.378
566.663
582.159
595.796
603.209
507.992
509.667
512.848
517.858
525.025
534.412
545.333
556.166
565.634
571.093
499.256
499.919
501.193
503.142
505.895
509.071
511.758
513.054
513.526
514.405
489.247
488.659
487.597
485.783
483.026
478.257
470.187
458.512
445.859
436.176
479.299
477.34
473.775
468.034
459.567
447.222
429.964
407.207
377.055
319.268
470.467
467.2
461.243
452.001
438.758
421.105
398.602
353.468
218.866
145.867
465.544
460.599
451.728
439.719
417.615
371.305
294.125
135.326
47.7762
25.9886
442.344
439.108
395.907
307.335
182.557
87.2012
25.3829
-1.33263
-1.54308
-2.08375
257.758
177.331
59.2036
2.31322
-0.697428
-0.949971
-1.07862
-1.23532
-1.45903
-1.65043
87.3602
-0.208566
-0.224926
-0.323642
-0.578116
-0.867083
-0.842505
-0.148294
0.156257
0.0549564
-0.115077
-0.161176
-0.194433
-0.224418
-0.258603
-0.247367
-0.218691
-0.141703
-0.0482022
0.568286
-0.148206
-0.127802
-0.1424
-0.0986412
0.0342418
0.268249
-0.112437
-0.46465
-0.405365
-0.215468
-0.0724836
-0.0894688
-0.0805568
-0.0450037
0.0100031
0.105779
-0.0819504
-0.352807
-0.336493
-0.222703
-0.0524869
-0.0682633
-0.0541848
-0.0264128
-0.00908528
-0.00956805
-0.0912031
-0.221135
-0.21983
-0.145145
-0.0446711
-0.0462417
-0.0390413
-0.0278682
-0.0205693
-0.0235522
-0.0521883
-0.101022
-0.110605
-0.0856285
-0.0366141
-0.0373635
-0.0332424
-0.0278306
-0.024939
-0.0259103
-0.0359372
-0.0525012
-0.0607748
-0.0552866
-0.0311265
-0.0311747
-0.0290774
-0.0265777
-0.0250742
-0.0254718
-0.0293399
-0.0363344
-0.0396997
-0.0394357
-0.0274585
-0.0272085
-0.026158
-0.0248627
-0.0240432
-0.024181
-0.0256859
-0.0287356
-0.0295751
-0.0313012
-0.0248323
-0.0245552
-0.0239707
-0.0232463
-0.022751
-0.0227269
-0.023229
-0.024811
-0.025403
-0.0273252
513.912
515.974
519.898
525.89
533.975
543.919
554.964
565.578
573.612
577.507
510.833
512.629
516.062
521.303
528.386
537.115
546.777
555.908
562.667
565.456
505.079
506.359
508.826
512.579
517.634
523.828
530.485
536.36
540.349
542.283
497.306
497.852
498.955
500.554
502.572
504.798
506.501
506.835
506.326
506.991
488.348
488.014
487.482
486.465
484.777
482.118
477.738
471.693
466.434
464.933
479.324
478.048
475.762
472.001
466.463
458.914
448.899
437.516
427.194
423.112
470.945
468.852
464.967
458.658
449.666
438.301
424.349
408.877
394.726
387.699
465.59
462.788
457.218
448.321
436.565
417.72
385.714
344.068
296.161
223.268
428.211
431.883
419.568
369.333
282.708
185.783
113.2
59.9621
20.5737
7.93669
231.097
189.172
104.244
31.4434
-0.190556
-0.66323
-0.848531
-0.98199
-1.10423
-1.22607
66.2016
-0.0197292
-0.16287
-0.220934
-0.369568
-0.641788
-0.804553
-0.85474
-0.900765
-0.905579
-0.144048
-0.146905
-0.151523
-0.156222
-0.142429
-0.0178001
-0.179192
-0.26995
-0.335382
-0.348404
-0.188121
-0.106932
-0.116562
-0.0574672
0.0367928
0.344666
0.312973
-0.19865
-0.36782
-0.262569
-0.0849854
-0.0763938
-0.0653468
-0.0252976
0.0397949
0.160569
0.15396
-0.182627
-0.26733
-0.202741
-0.054912
-0.0584286
-0.044913
-0.0199565
0.0098719
0.0377267
0.0118604
-0.0990543
-0.145532
-0.125941
-0.0446035
-0.0424439
-0.0344327
-0.0238421
-0.0132273
-0.00770147
-0.0180097
-0.0569662
-0.0877307
-0.0849524
-0.0358451