/*--------------------------------*- C++ -*----------------------------------*\
| =========                 |                                                 |
| \\      /  F ield         | OpenFOAM: The Open Source CFD Toolbox           |
|  \\    /   O peration     | Version:  2312                                  |
|   \\  /    A nd           | Website:  www.openfoam.com                      |
|    \\/     M anipulation  |                                                 |
\*---------------------------------------------------------------------------*/
FoamFile
{
    version     2.0;
    format      ascii;
    arch        "LSB;label=32;scalar=64";
    class       volScalarField;
    location    "0.8";
    object      p_rgh;
}
// * * * * * * * * * * * * * * * * * * * * * * * * * * * * * * * * * * * * * //

dimensions      [1 -1 -2 0 0 0 0];

internalField   nonuniform List<scalar> 
8000
(
408.47
407.83
406.526
404.668
402.503
400.267
398.167
396.38
395.031
394.208
409.653
408.965
407.534
405.5
403.141
400.716
398.448
396.53
395.091
394.21
412.147
411.336
409.584
407.189
404.442
401.642
399.051
396.889
395.29
394.318
416.278
415.223
412.745
409.721
406.399
403.042
399.983
397.512
395.754
394.679
422.079
420.767
417.326
413.371
409.196
405.05
401.342
398.492
396.56
395.287
429.184
427.248
423.135
418.192
412.872
407.673
403.028
399.621
397.437
395.84
437.539
434.454
429.716
423.509
416.587
410.202
404.733
400.82
397.466
385.148
447.676
444.019
438.887
431.801
422.882
396.38
344.505
332.077
343.54
356.025
460.822
458.483
452.88
390.434
284.625
223.26
206.843
246.617
297.167
308.144
465.622
438.61
305.75
108.614
25.627
17.9236
31.1148
72.502
126.845
136.054
168.049
105.313
5.82276
0.148994
0.0922525
0.0605722
0.0479241
0.110383
0.0627964
0.0153597
0.0622923
0.0771761
0.114036
0.0693023
0.0449626
0.0265952
0.0209037
-0.00111143
-0.0162465
-0.0137781
0.0655968
0.0775937
0.0824715
0.071897
0.0520044
0.0258072
0.0238687
-0.0102876
0.00943985
0.0288755
0.0291242
0.0270884
0.0350696
0.0348147
0.027728
0.0161865
0.0241378
0.0155228
0.0504901
0.0724054
-0.0120531
-0.0204201
-0.0207923
-0.0102031
-0.00476581
0.000435107
0.00983744
0.0340971
0.0706362
0.0872179
-0.0352274
-0.0450306
-0.056444
-0.0447891
-0.027069
-0.0150778
-0.000216019
0.031379
0.0633115
0.0767833
-0.0362303
-0.0439418
-0.064842
-0.0483859
-0.0253356
-0.0126408
0.00467177
0.0288191
0.0492746
0.0603596
-0.0189855
-0.031025
-0.0403763
-0.0195578
0.00130577
0.013611
0.0280683
0.0405642
0.0441543
0.0465377
0.0843039
-0.000555219
-3.19375e-05
0.0172024
0.0325328
0.0427465
0.0538737
0.0569807
0.0496924
0.0421495
0.124184
0.0554008
0.0278206
0.0328464
0.0456437
0.0616201
0.0759463
0.0772549
0.0674973
0.0555507
407.767
407.183
405.912
404.052
401.88
399.641
397.538
395.747
394.398
393.582
408.888
408.304
406.935
404.87
402.476
400.034
397.752
395.815
394.358
393.476
411.231
410.601
409.017
406.554
403.703
400.85
398.215
395.998
394.338
393.327
415.079
414.232
412.03
408.974
405.513
402.063
398.903
396.294
394.387
393.225
420.546
419.456
416.227
412.345
408.069
403.819
399.966
396.765
394.377
392.887
427.042
425.701
421.582
416.757
411.356
406.031
401.406
397.649
394.487
392.188
434.489
432.135
427.103
420.932
414.135
407.823
402.037
396.185
391.186
388.644
444.271
441.105
435.633
428.218
419.565
410.147
406.929
394.951
385.707
378.655
458.694
456.477
443.54
372.738
271.003
206.929
164.87
148.198
119.714
90.7215
447.751
401.5
219.444
65.3828
0.47346
0.221752
3.84181
7.5185
12.3522
10.6011
122.757
50.762
0.0460668
-0.0540938
-0.0127623
-0.0289994
-0.0337924
-0.0301993
-0.00662748
-0.0488667
0.036926
0.00754632
0.0143349
-0.0251397
-0.032186
-0.024241
-0.0518563
-0.0692825
-0.0370864
-0.0409637
0.0677831
-0.00522328
0.0391942
0.000845154
-0.0178856
-0.0245469
-0.0567277
-0.0622157
-0.0363607
0.0343906
-0.0313978
-0.0529196
-0.0309555
-0.0221888
-0.0289724
-0.0254225
-0.0444076
-0.0330779
-0.00164974
0.0751597
-0.0769232
-0.122266
-0.0717404
-0.0660029
-0.0510838
-0.0375686
-0.0287242
-0.0077515
0.0139085
0.0942531
-0.0964595
-0.160904
-0.106431
-0.104783
-0.072737
-0.0585496
-0.0433202
-0.0207341
0.00809127
0.0966802
-0.0967385
-0.158266
-0.132257
-0.118789
-0.0788134
-0.0672354
-0.0558699
-0.0211311
0.015793
0.10467
-0.0663338
-0.121843
-0.123296
-0.0961536
-0.0533044
-0.0399068
-0.0267403
0.0035502
0.0356576
0.0906819
0.00587352
-0.0506922
-0.0615509
-0.0357435
-0.00204482
0.0123499
0.0285291
0.0456478
0.0560023
0.0509164
0.0983365
0.00688978
-0.00509592
0.0137244
0.0366394
0.0558083
0.079184
0.0896406
0.0868119
0.0699737
406.351
405.798
404.57
402.751
400.613
398.399
396.312
394.537
393.21
392.425
407.318
406.791
405.489
403.475
401.112
398.684
396.401
394.458
393.003
392.143
409.283
408.807
407.378
404.971
402.129
399.264
396.587
394.312
392.604
391.585
412.316
411.738
410.043
407.105
403.612
400.1
396.805
394.008
391.947
390.735
416.686
415.837
413.503
409.889
405.602
401.265
397.114
393.466
390.842
389.372
422.252
421.013
417.734
413.296
408.113
402.877
397.848
393.328
389.705
387.543
428.75
426.315
421.808
416.542
410.551
403.866
396.017
388.809
385.66
384.817
437.926
434.775
429.693
423.628
416.583
410.69
387.771
358.164
335.938
318.809
452.476
441.763
400.521
321.347
248.917
172.932
126.581
64.1257
27.1215
13.5669
317.173
206.349
96.6623
27.9257
0.451877
3.81605
0.124411
0.258617
0.324394
0.279159
9.04129
0.0393619
-0.0828416
-0.162653
-0.146535
-0.139102
-0.0824334
0.0215935
0.074056
0.0847313
-0.0180406
-0.0535298
-0.0537372
-0.117672
-0.140397
-0.133637
-0.114288
-0.0582948
-0.0231014
-0.00729052
0.0751436
0.0254136
0.0503458
-0.0520676
-0.0948645
-0.10277
-0.113658
-0.0807297
-0.0356886
0.0200313
-0.0863064
-0.108846
-0.064204
-0.0388499
-0.0922294
-0.0836057
-0.0863169
-0.0669235
-0.0191252
-0.00681626
-0.121704
-0.14864
-0.104439
-0.105525
-0.107447
-0.0896507
-0.0775202
-0.0644971
-0.0454525
-0.0681036
-0.143284
-0.171191
-0.128511
-0.145505
-0.131337
-0.115354
-0.107565
-0.0978987
-0.101538
-0.0761337
-0.136142
-0.172885
-0.146795
-0.162991
-0.144734
-0.12794
-0.12284
-0.108852
-0.0980766
0.00339709
-0.10424
-0.156261
-0.155974
-0.157982
-0.127905
-0.103691
-0.0909758
-0.0599078
-0.0311375
0.0584115
-0.0575761
-0.100803
-0.123594
-0.113674
-0.071921
-0.0389516
-0.0102591
0.0260663
0.0472085
0.0683755
0.0038347
-0.0249762
-0.0529279
-0.0369467
0.00352742
0.0369864
0.0643026
0.0883647
0.101821
0.0969745
404.361
403.81
402.626
400.889
398.828
396.668
394.617
392.875
391.585
390.851
405.113
404.561
403.313
401.418
399.159
396.787
394.525
392.596
391.164
390.344
406.628
406.09
404.719
402.502
399.831
397.03
394.343
392.051
390.337
389.323
408.883
408.28
406.705
404.066
400.807
397.352
393.954
391.05
388.925
387.761
412.102
411.36
409.312
406.089
402.077
397.677
393.146
389.391
386.694
385.264
416.217
415.237
412.445
408.57
403.895
398.574
392.628
386.953
383.335
381.746
420.676
418.66
415.113
410.692
404.918
396.654
386.73
380.49
377.901
376.934
427.857
425.325
421.488
416.156
411.001
375.359
318.779
256.987
220.139
214.185
385.331
354.578
312.336
249.479
175.45
124.264
78.1926
11.9867
0.475709
0.400836
89.0257
42.9392
10.7137
-0.0183117
-0.195003
-0.0759661
0.0130221
0.222693
0.279733
0.233093
-0.0698982
-0.0837446
-0.104236
-0.189145
-0.234156
-0.208781
-0.090213
0.0617487
0.0926027
0.0728805
-0.0087985
-0.0360744
-0.028288
-0.136635
-0.177963
-0.192828
-0.144825
-0.0340382
-0.0166172
0.0147612
0.0431248
0.0148312
0.0224009
-0.0699831
-0.134632
-0.148364
-0.143107
-0.0561781
-0.0356008
-0.0443229
-0.11575
-0.118844
-0.0719215
-0.06153
-0.123137
-0.128708
-0.105349
-0.0548156
-0.0336203
-0.0862184
-0.162538
-0.129653
-0.124588
-0.13809
-0.147606
-0.148289
-0.120551
-0.0946306
-0.0868811
-0.141736
-0.151718
-0.122928
-0.140448
-0.171002
-0.187159
-0.192167
-0.185866
-0.173447
-0.183393
-0.184725
-0.138358
-0.146469
-0.146591
-0.197369
-0.220819
-0.221369
-0.215684
-0.18787
-0.167731
-0.133617
-0.102111
-0.138152
-0.160479
-0.204913
-0.211333
-0.184447
-0.149706
-0.107141
-0.0694873
-0.0182115
-0.0628714
-0.105119
-0.13802
-0.157556
-0.136694
-0.0833105
-0.0425228
-0.00133672
0.0387887
0.0717812
0.00855026
-0.0316406
-0.068033
-0.0712457
-0.0398569
0.00449826
0.0390422
0.0694425
0.0959778
0.12
402.081
401.534
400.397
398.745
396.77
394.678
392.68
390.989
389.757
389.096
402.596
402.029
400.83
399.052
396.901
394.595
392.371
390.483
389.098
388.348
403.623
403.025
401.7
399.675
397.174
394.442
391.767
389.49
387.796
386.858
405.119
404.451
402.928
400.573
397.58
394.206
390.712
387.741
385.579
384.438
407.174
406.428
404.53
401.699
397.957
393.521
388.931
385.019
382.188
380.785
409.529
408.635
406.453
403.409
399.183
393.772
386.499
380.619
376.876
374.135
411.452
409.857
407.561
403.943
398.377
390.634
381.182
373.421
369.582
368.752
414.948
412.405
409.442
402.021
359.296
346.358
263.928
179.32
143.559
152.155
250.243
228.138
201.474
143.64
112.583
122.23
47.0586
2.03157
0.41939
0.330589
0.368314
0.151824
-0.0441481
-0.162402
-0.168858
-0.0271199
0.160896
0.216105
0.206071
0.173296
0.0375865
-0.0684059
-0.135797
-0.207943
-0.248567
-0.192206
-0.018139
0.061269
0.0410078
0.045285
0.119771
-0.00688406
-0.0733925
-0.13451
-0.173226
-0.196154
-0.108668
-0.0267316
-0.0492602
0.0248782
-0.0477447
-0.0814952
0.0108538
-0.0800683
-0.129839
-0.144461
-0.100599
-0.0229624
-0.0351901
-0.0317589
-0.0910747
-0.0936042
-0.0799466
-0.0671184
-0.113929
-0.124144
-0.0600728
0.00196194
-0.0136569
-0.0586358
-0.122639
-0.0906955
-0.116301
-0.125577
-0.136783
-0.145919
-0.087498
-0.0392876
-0.0642916
-0.107107
-0.106153
-0.0886563
-0.136011
-0.154563
-0.171727
-0.17624
-0.143977
-0.117207
-0.133581
-0.157323
-0.095662
-0.11553
-0.144265
-0.179741
-0.203725
-0.201852
-0.18218
-0.152782
-0.137171
-0.119532
-0.073594
-0.108065
-0.139165
-0.181379
-0.196838
-0.178757
-0.13683
-0.0906976
-0.0527561
-0.0133413
-0.0274911
-0.0754865
-0.111851
-0.141875
-0.130726
-0.0879955
-0.0450007
-0.0052722
0.0341433
0.0755661
0.0806402
-0.0134787
-0.0533871
-0.0729632
-0.0564654
-0.0171889
0.0159144
0.0436331
0.0757997
0.11439
399.776
399.244
398.155
396.58
394.688
392.668
390.731
389.108
387.953
387.389
400.059
399.504
398.358
396.672
394.612
392.374
390.205
388.384
387.067
386.43
400.611
400.016
398.757
396.866
394.472
391.796
389.139
386.914
385.275
384.44
401.362
400.705
399.292
397.177
394.368
390.958
387.374
384.424
382.273
381.196
402.26
401.554
399.904
397.389
393.933
389.494
384.48
380.503
377.589
376.256
402.81
402.01
400.664
398.382
394.497
388.577
380.367
374.637
371.064
368.382
402.309
401.065
400
398.253
395.635
389.39
375.444
366.114
359.719
356.038
383.682
383.934
375.488
337.644
358.346
343.583
215.372
119.436
86.9988
95.067
119.355
105.43
80.3247
71.5437
101.127
106.152
27.9831
0.887942
0.343886
0.20796
0.236821
0.0805304
-0.0592391
-0.0975163
-0.042689
0.00357498
0.291101
0.221385
0.156012
0.123879
0.113418
-0.0736614
-0.149567
-0.206299
-0.218554
-0.14247
0.0258633
0.0278291
0.00574505
0.0392577
0.109116
-0.0871219
-0.107765
-0.130951
-0.149222
-0.175895
-0.0815235
-0.0302829
-0.0689454
0.0199362
-0.0290901
-0.0709104
-0.0923893
-0.0908307
-0.084059
-0.104231
-0.0495966
0.00413661
-0.034622
-0.014617
-0.0465085
-0.0642795
-0.0630208
-0.085097
-0.0674564
-0.0608695
0.00757302
0.058711
0.0288917
-0.00291146
-0.0857942
-0.0666849
-0.0805615
-0.0837234
-0.0798578
-0.0723943
-0.00698704
0.0370089
0.0122233
-0.0315762
-0.0552682
-0.0404394
-0.0920912
-0.1023
-0.102151
-0.0873678
-0.0475762
-0.0241595
-0.0337896
-0.0546727
-0.0251869
-0.0447158
-0.10641
-0.121514
-0.116337
-0.0999925
-0.0744107
-0.0554873
-0.0441059
-0.0285683
0.0144937
-0.0320626
-0.110161
-0.120231
-0.109138
-0.0905912
-0.06295
-0.0362868
-0.00846957
0.0281786
0.0521432
-0.0265222
-0.0810158
-0.0942939
-0.074154
-0.0556771
-0.0260667
0.00153715
0.0332536
0.0676455
0.0956763
0.0215812
-0.0368106
-0.0625259
-0.0484346
-0.0242471
0.00242453
0.0307534
0.0555722
0.0763132
397.68
397.165
396.125
394.617
392.797
390.839
388.965
387.422
386.353
385.887
397.758
397.219
396.125
394.513
392.53
390.347
388.24
386.505
385.281
384.76
397.886
397.312
396.126
394.321
391.999
389.318
386.678
384.544
383.018
382.295
397.972
397.343
396.071
394.166
391.404
387.851
384.171
381.34
379.339
378.222
397.79
397.15
395.767
393.557
390.062
385
379.522
375.663
373.436
371.197
396.63
395.993
395.481
394.305
390.676
383.625
373.801
367.951
365.292
362.964
393.769
392.951
394.181
395.398
394.186
370.071
354.416
343.051
332.517
313.496
331.551
311.524
299.415
332.129
349.287
291.033
162.503
79.0376
52.8368
41.3828
41.4926
23.0726
28.6982
55.8928
96.1594
78.9778
15.038
0.925147
0.370609
0.214566
0.332608
0.182325
0.0369021
0.0704122
0.0418546
0.0813114
0.356823
0.298501
0.162889
0.121646
0.383594
0.0789025
-0.148568
-0.161964
-0.140026
-0.0853163
0.04333
0.0533101
0.00793919
0.0931159
0.424114
-0.114712
-0.109054
-0.111986
-0.105016
-0.124204
-0.0496139
-0.00576947
-0.0491367
0.0244548
0.574247
-0.063756
-0.0781108
-0.0674504
-0.0303622
-0.0319263
0.0123665
0.037335
-0.00158703
0.00818354
0.140421
-0.0405078
-0.0660103
-0.0628208
-0.0216114
0.0224925
0.0527937
0.0689086
0.0462531
0.0236921
-0.0377451
-0.0216148
-0.0447857
-0.0515948
-0.0380989
-0.0097309
0.0327485
0.0547322
0.0388699
0.00752064
-0.0520157
-0.0301828
-0.0466421
-0.0591621
-0.0531028
-0.0268072
-0.000454344
0.0153763
0.0103721
-0.0042539
-0.0339341
-0.0180041
-0.053412
-0.069724
-0.0621646
-0.0387413
-0.0172642
-0.00577484
0.00229719
0.00566721
0.00222212
-0.00191591
-0.044573
-0.0599705
-0.0525522
-0.0370546
-0.0195625
-0.00379086
0.0176617
0.0320241
0.0162809
0.0226553
-0.0282147
-0.0455485
-0.0412182
-0.0277622
-0.00857545
0.0123829
0.0349056
0.0470133
0.0217998
0.0387455
-0.00172723
-0.0376818
-0.0386366
-0.0172373
-0.000389693
0.020033
0.0351262
0.0479494
395.988
395.487
394.49
393.042
391.286
389.394
387.596
386.14
385.164
384.787
395.901
395.374
394.325
392.78
390.849
388.725
386.704
385.07
383.964
383.549
395.693
395.132
394.002
392.256
389.984
387.292
384.715
382.718
381.309
380.748
395.264
394.638
393.502
391.71
388.771
385.024
381.406
378.88
376.983
375.939
394.225
393.617
392.592
390.583
386.649
380.38
374.8
371.779
369.629
367.098
391.714
391.106
391.855
391.414
386.35
376.718
367.584
362.681
356.928
357.648
386.993
386.343
390.782
393.271
387.548
330.661
312.541
305.167
291.272
264.987
277.446
234.18
289.529
341.715
330.076
239.387
118.715
51.1263
29.3145
19.6396
13.3868
12.0134
28.6986
67.1082
80.3232
52.9458
6.72767
0.953863
0.433491
0.283078
0.481443
0.261378
0.189426
0.201786
0.174909
0.142646
0.328297
0.306223
0.16315
0.132201
0.623931
0.0359254
-0.106322
-0.0738496
-0.0542155
-0.033075
0.0589995
0.0971663
0.083926
0.136001
1.23156
-0.143777
-0.103065
-0.0725827
-0.0462539
-0.0556267
0.016424
0.0515643
-0.00012934
0.0342337
1.14027
-0.0335076
-0.051713
-0.0431185
-0.00444664
0.0372909
0.0874757
0.0827373
0.0270641
0.0198993
0.177986
-0.0131957
-0.0410562
-0.048577
-0.00432303
0.0607282
0.107688
0.0825382
0.0440738
0.0241787
-0.00838149
0.00508277
-0.0167534
-0.0332176
-0.0176067
0.0134078
0.0481701
0.0491916
0.0352314
0.0145813
-0.00811789
0.00386253
-0.00820672
-0.0268394
-0.0262003
-0.00941591
0.00897776
0.0176148
0.0202056
0.00619655
-0.019606
-0.00915598
-0.0167428
-0.0337485
-0.0345959
-0.0238408
-0.0119372
0.00214941
0.0154415
0.00437544
-0.0215437
-0.0150686
-0.0234565
-0.0363357
-0.0357848
-0.0241684
-0.017099
-0.00042182
0.018234
0.0183884
-0.00953504
-0.0104983
-0.0200142
-0.0300542
-0.028223
-0.0154589
-0.0109057
0.0019975
0.0182248
0.0334666
0.00680204
0.00357726
-0.000227172
-0.0132037
-0.0172278
0.00701059
-0.00169599
0.0037848
0.0139517
0.0431733
394.847
394.355
393.391
391.99
390.287
388.465
386.744
385.36
384.474
384.222
394.651
394.13
393.111
391.606
389.72
387.671
385.746
384.205
383.24
382.967
394.207
393.649
392.558
390.872
388.589
385.934
383.533
381.589
380.338
380.046
393.515
392.796
391.674
389.75
386.693
383.058
379.808
377.287
375.452
375.012
391.871
391.309
390.319
387.964
383.178
376.916
372.556
367.872
365.93
366.706
388.321
387.631
389.059
387.286
379.827
369.454
363.182
356.512
352.765
355.148
381.961
382.222
388.615
388.599
371.641
318.879
298.561
273.933
257.943
265.466
230.84
214.8
300.758
338.48
268.422
160.536
83.0059
33.6562
16.8771
13.5594
2.14627
9.98619
35.0114
64.4931
39.3521
9.56018
1.10982
0.850497
0.426991
0.298505
0.743245
0.362327
0.179896
0.144267
0.0402493
0.104538
0.28941
0.275533
0.152682
0.141656
1.00788
0.0173321
-0.0558582
-0.00653529
-0.0118988
-0.0138928
0.0818518
0.120891
0.085218
0.10786
1.27512
-0.148287
-0.0773621
-0.0323458
-0.00916623
-0.000371545
0.0830977
0.114934
0.0465799
0.046245
1.32642
-0.0126833
-0.0245958
-0.023486
0.00940836
0.0720239
0.12499
0.119085
0.051607
0.0351677
0.476615
0.0123285
-0.0134911
-0.0410523
-0.0181376
0.0411355
0.0812407
0.0734888
0.0438228
0.0274359
-0.00286007
0.0176798
0.00756062
0.0153357
-0.0205635
0.0095613
0.0353375
0.0366149
0.0291913
0.0120212
0.00488033
0.0201444
0.0103159
-0.00690491
-0.0170477
-0.0043652
0.00748518
0.0152619
0.0134585
-0.00346555
0.00145265
0.0129706
-0.00209807
-0.00954596
-0.0154196
-0.010274
-0.00555351
0.00148874
0.00278088
0.00271521
0.00840686
0.00316454
-0.00521713
-0.012195
-0.0153851
0.0265449
-0.00337158
-0.00643056
0.00338435
0.0317475
0.0160259
0.00882837
-0.00245141
-0.00595589
0.0192832
0.0888059
0.042373
-0.0109804
0.0163192
0.0420193
0.0256669
0.0196771
0.00654431
0.00930922
0.098681
0.0974324
0.0694634
-0.00983157
0.0248432
0.0218743
394.351
393.859
392.906
391.528
389.871
388.118
386.466
385.127
384.338
384.007
394.122
393.59
392.572
391.089
389.263
387.333
385.503
384.009
383.122
382.41
393.63
393.019
391.917
390.256
388.056
385.624
383.284
381.353
380.247
379.264
392.925
392.094
390.832
388.895
386.183
383.049
379.891
377.035
375.273
373.655
391.142
390.421
389.156
386.674
382.777
378.39
373.927
368.81
366.772
365.149
387.362
385.943
386.707
383.878
377.881
371.955
365.792
358.62
355.289
357.222
381.194
380.247
385.415
382.223
374.224
353.427
309.289
264.959
249.794
291.385
225.982
211.463
300.402
294.671
211.421
143.68
67.4792
24.46
12.2971
21.2496
5.47224
11.3842
32.7144
25.304
9.46786
0.565606
0.793139
0.621509
0.359178
0.286354
0.891463
0.328082
0.0977687
0.0883644
0.108848
0.111952
0.223326
0.208578
0.133604
0.135072
1.02838
0.0593297
-0.0124739
0.0363567
0.0262129
0.0162605
0.0898266
0.126408
0.0751443
0.0917857
1.30934
-0.140682
-0.036446
0.00615702
0.0280427
0.0519274
0.114712
0.129229
0.0753171
0.0673445
1.39201
-0.0202646
0.00185829
0.0148787
0.0268056
0.0866266
0.140775
0.118032
0.0677049
0.051291
1.41761
0.00822289
0.144266
0.170239
-0.05699
-0.00382822
0.0556765
0.0482145
0.0332687
0.0249156
0.723265
0.0152482
0.0977365
0.464971
0.0357607
-0.0316628
0.00941921
0.0108516
0.0110885
0.0123229
0.0177482
0.0201118
0.0228839
0.14763
0.0420361
-0.0213542
-0.0018239
-0.00602593
-0.00747869
0.00694577
-0.00116982
0.0534712
0.0172047
-0.000316218
-0.00823539
-0.0146636
-0.0111014
-0.012648
-0.0019631
0.0106521
0.00221591
0.025399
0.0444855
-0.0103708
-0.011156
-0.01545
-0.0160588
-0.00947154
0.0527426
0.0406682
0.00691168
0.0123914
0.014217
-0.00706616
-0.00924093
-0.0130075
-0.0108934
-0.006927
0.0574702
0.000370569
0.0144
0.00855224
0.00749616
0.0019786
-0.00304181
-0.00692098
0.058808
-0.00160496
0.0817751
-0.0441139
394.56
394.054
393.082
391.695
390.045
388.313
386.662
385.365
384.627
384.359
394.384
393.824
392.768
391.261
389.445
387.543
385.726
384.276
383.477
383.128
394.018
393.345
392.133
390.439
388.259
385.874
383.562
381.735
380.786
380.004
393.45
392.535
390.933
388.968
386.325
383.28
380.087
377.443
376.186
373.682
392.156
391.026
389.394
386.733
383.277
379.082
374.266
370.266
368.797
366.378
389.348
387.415
386.345
383.424
378.977
373.623
366.806
361.194
359.018
360.037
385.71
381.307
383.318
379.257
373.479
367.799
327.427
291.452
290.389
329.359
277.818
238.192
284.336
268.516
214.554
159.803
65.8824
28.6008
21.1169
46.1437
37.0646
25.9039
24.3405
12.2723
7.1726
1.42884
0.8
0.379298
0.318063
0.258593
0.828045
0.333275
0.124691
0.131111
0.136336
0.120704
0.237001
0.140411
0.128885
0.147427
1.16963
0.0595732
0.0313394
0.130502
0.0312477
0.0586895
0.104091
0.118167
0.0987444
0.108262
1.34286
-0.0725133
0.0638149
0.0903878
0.0417195
0.0895294
0.116162
0.107838
0.0840776
0.0863025
1.38011
-0.0343249
0.319887
0.123212
0.0256691
0.0724731
0.117958
0.0739344
0.0580399
0.0654785
1.4473
-0.0219252
0.363902
0.43335
-0.0661789
-0.0791634
-0.00397945
0.00600082
0.0126545
0.0346916
1.19699
-0.00551359
0.108766
0.46816
0.0674526
-0.0733029
-0.0365793
-0.0298864
-0.0280787
0.0473535
0.0787655
0.0371619
0.00244315
0.517145
0.503839
0.0708757
-0.0272382
-0.0353659
0.0152053
0.0252779
-0.00695415
0.562565
0.0629253
0.0522646
0.0991155
-0.00661929
-0.0248488
-0.0399293
0.00678582
-0.0724606
0.105696
0.625704
0.547854
0.00967849
-0.00881873
-0.0209999
-0.0289149
-0.0461883
0.0196055
-0.0717469
0.601127
0.675421
0.669374
0.0538944
-0.0113902
-0.0187536
-0.0250322
-0.0391603
-0.0152031
-0.0620846
0.703428
0.716342
0.69573
0.0249865
-0.00596057
-0.0117711
-0.0054388
-0.0090725
-0.0416113
-0.0493485
395.365
394.838
393.822
392.383
390.686
388.921
387.274
386.009
385.291
385.199
395.281
394.695
393.579
392.002
390.135
388.189
386.374
384.974
384.213
384.16
395.133
394.415
393.1
391.3
389.087
386.7
384.401
382.637
381.772
381.801
394.905
393.924
392.153
389.954
387.243
384.214
381.134
378.754
377.725
377.915
394.374
393.09
390.863
387.933
384.328
380.327
375.63
371.997
371.081
371.854
392.885
390.729
388.29
384.334
379.671
375.058
368.57
363.741
362.581
364.717
391.662
386.611
382.983
378.779
374.405
368.672
339.96
315.527
315.916
343.351
322.89
313.775
283.127
254.709
221.637
163.992
75.0357
47.5516
49.0466
76.1246
112.136
47.766
21.9927
14.5523
15.9913
10.2647
0.767288
0.426692
0.33825
0.238038
1.05206
0.414836
0.205457
0.148643
0.166979
0.184425
0.219468
0.180035
0.1627
0.155717
0.958346
0.160872
0.0532595
0.189078
0.0918761
0.11867
0.0989751
0.124056
0.139147
0.131708
1.38818
0.0485822
0.427059
0.144144
0.0408795
0.0804927
0.11383
0.092839
0.101291
0.106136
1.37276
-0.0575531
0.612049
0.13267
0.0135134
0.00274801
0.0236618
0.0208262
0.0274765
0.147157
0.865977
-0.0451367
0.602969
0.0929138
-0.0738434
-0.168324
-0.0967255
-0.0623973
-0.0188252
0.239465
0.00134258
-0.0314656
-0.0461496
0.40501
0.0401376
-0.202384
-0.126996
-0.0934983
-0.00851767
-0.0508346
0.0339566
-0.0268234
-0.0473761
0.478673
0.463657
0.278691
-0.0687465
-0.0928066
-0.0258028
-0.136499
0.108546
0.131606
-0.0336814
0.122035
0.389346
0.122518
-0.0485648
-0.0909116
-0.0690981
-0.125427
0.103513
0.298889
0.0517083
0.00292715
0.0574801
-0.0269451
-0.0502736
-0.0731006
-0.114968
-0.106093
0.0962289
0.338397
0.467852
0.138951
-0.0143823
-0.0311858
-0.0413615
-0.0406691
-0.0802045
-0.0815321
0.119691
0.369955
0.793026
0.171145
-0.0130653
-0.0216906
-0.0153867
-0.0134753
-0.0450003
-0.0576689
396.734
396.185
395.115
393.608
391.843
390.022
388.344
387.054
386.298
386.146
396.787
396.179
395.004
393.336
391.394
389.385
387.528
386.099
385.281
385.145
396.925
396.196
394.8
392.887
390.575
388.131
385.816
384.048
383.11
382.974
397.167
396.188
394.315
391.871
389.022
385.931
382.893
380.618
379.578
379.625
397.432
396.19
393.746
390.54
386.794
382.664
378.191
374.864
373.51
374.501
397.452
395.513
392.31
387.986
383.025
377.566
371.803
367.399
365.152
367.932
398.255
394.468
388.425
382.692
377.608
371.127
357.004
336.099
332.12
352.7
337.588
375.197
328.104
274.621
241.256
185.088
98.7595
68.6287
71.8421
98.622
231.233
104.318
55.1524
38.0719
22.8942
4.64395
0.636464
0.48055
0.408248
0.277244
24.2177
2.42929
0.359697
0.196979
0.197928
0.312054
0.260617
0.226803
0.177349
0.147963
0.355338
0.26432
0.697886
0.268988
0.123289
0.153818
0.138443
0.144556
0.138754
0.127918
0.770549
0.186057
0.18065
0.04433
0.0401427
0.0597124
0.0789196
0.100581
0.102727
0.151916
0.845679
0.085991
0.599173
0.131991
-0.0077028
-0.0616045
-0.0500088
-0.0334551
-0.0169058
0.195613
-0.0273399
-0.0646779
0.276002
0.096811
-0.0762846
-0.246065
-0.195719
-0.144409
-0.0428475
0.101743
-0.0643636
-0.00462043
-0.0585134
0.31899
-0.0512849
-0.262198
-0.225806
-0.181664
-0.0921011
-0.193705
-0.0615488
0.0336085
-0.0913017
0.360956
0.387733
0.279708
-0.0989395
-0.155764
-0.144222
-0.211234
-0.0419032
-0.067984
-0.0469469
0.0855236
0.434205
0.25108
-0.0761489
-0.134001
-0.179902
-0.189398
-0.0357924
-0.0467478
-0.0628031
-0.0543482
0.094198
0.00425032
-0.0835415
-0.123591
-0.156749
-0.168806
-0.0238665
-0.0214183
-0.0345022
-0.0113301
0.027438
-0.0172057
-0.0670304
-0.0997073
-0.126342
-0.137375
-0.00204199
0.00638979
0.000282156
0.0654064
0.0829913
0.00926218
-0.0507475
-0.0688671
-0.0850968
-0.0929699
398.557
397.987
396.867
395.287
393.443
391.553
389.805
388.45
387.613
387.383
398.78
398.156
396.932
395.196
393.14
391.061
389.125
387.626
386.715
386.5
399.267
398.531
397.083
395.062
392.683
390.121
387.736
385.897
384.854
384.6
400.048
399.102
397.225
394.657
391.57
388.381
385.309
382.966
381.787
381.694
401.161
400.002
397.562
394.244
390.298
385.926
381.62
378.379
376.488
377.111
402.712
401.003
397.835
393.37
387.953
381.806
376.068
371.854
369.759
370.914
404.326
402.502
397.62
390.888
383.512
376.014
368.325
359.669
344.774
353.988
351.303
405.869
393.96
362.115
294.937
212.977
143.132
94.649
85.1142
115.776
279.479
223.296
136.517
64.587
23.8144
5.73059
0.470936
0.479256
0.494316
0.397361
87.2609
37.9553
7.21451
0.250124
0.266046
0.20849
0.193971
0.229163
0.205273
0.125269
0.13229
0.0465245
0.000560089
0.028013
0.122971
0.127107
0.10772
0.128641
0.125675
0.103408
0.266784
0.694596
0.320922
0.0143426
0.0271453
0.0125214
0.0248277
0.0585044
0.0770269
0.159642
-0.0130188
-0.010476
0.600401
0.161677
-0.0211183
-0.125141
-0.132585
-0.0916581
-0.0312675
0.219054
-0.0661328
-0.0631006
-0.0128519
0.110421
-0.0727352
-0.278305
-0.274633
-0.221734
-0.164728
-0.0836513
-0.0732324
0.00642587
-0.0698957
0.292476
-0.117299
-0.279155
-0.297509
-0.254426
-0.236869
-0.292769
-0.0767367
0.0304642
-0.096515
0.133972
0.29347
0.153616
-0.115211
-0.205394
-0.244557
-0.27678
-0.0725535
0.047793
-0.111437
0.00448832
0.3668
0.397997
-0.0700809
-0.173095
-0.211965
-0.254247
-0.0583059
0.0094441
-0.0908448
-0.0977974
0.0914738
0.00739954
-0.0604292
-0.126057
-0.195266
-0.263438
-0.0411523
-0.018613
-0.055524
-0.0560221
0.0222779
0.0406719
-0.00155762
-0.103378
-0.21603
-0.251119
-0.0144612
0.0241735
-0.0128021
0.0415639
0.133009
0.115461
-0.0243385
-0.115607
-0.170375
-0.171706
400.686
400.1
398.935
397.29
395.365
393.391
391.55
390.096
389.144
388.799
401.104
400.469
399.204
397.404
395.28
393.077
391.043
389.43
388.378
388.023
401.98
401.243
399.762
397.654
395.153
392.537
390.041
388.067
386.855
386.436
403.346
402.437
400.587
397.961
394.789
391.408
388.249
385.627
384.254
383.804
405.323
404.211
401.844
398.514
394.477
390.101
385.74
382.406
380.163
379.713
408.101
406.561
403.553
399.282
393.904
387.648
381.422
376.846
373.938
370.467
411.32
409.592
406.094
400.237
392.68
383.896
375.124
368.916
362.831
357.161
392.333
414.641
412.498
406.453
380.787
302.231
198.269
138.467
108.807
149.335
263.134
287.658
250.29
162.44
77.7802
23.6927
3.37789
0.458472
0.508313
0.529326
84.5815
46.6883
28.6621
7.80715
0.201217
0.132713
0.0780633
0.154037
0.207432
0.19791
0.0326206
-0.00817708
-0.0638546
-0.0753924
0.0517734
0.0395935
0.0422551
0.113827
0.122154
0.100676
0.720672
0.705711
0.665647
-0.0109513
-0.00970688
-0.0645368
-0.0347626
0.0982153
0.191906
0.114085
-0.0642004
-0.0601602
0.31008
0.118061
-0.0405692
-0.182382
-0.205712
-0.166932
0.0450099
0.180681
-0.0834081
-0.0589602
-0.0367431
0.159326
-0.0684478
-0.279165
-0.310872
-0.275555
-0.282361
-0.1948
-0.0782267
0.053751
-0.0130117
0.0992491
-0.122376
-0.267835
-0.31003
-0.289096
-0.298992
-0.32613
-0.0809514
-0.000952883
-0.0902534
-0.112316
6.11886e-05
-0.106511
-0.192845
-0.23628
-0.276483
-0.286767
-0.0843745
-0.124786
-0.112399
-0.0956589
0.324468
0.307901
-0.115822
-0.233359
-0.225938
-0.286545
-0.0499453
-0.0748089
-0.109248
-0.138415
0.00648175
-0.0621675
-0.18436
-0.212009
-0.278403
-0.332625
-0.0355365
0.0634016
-0.0804884
-0.0884742
-0.0720855
-0.144539
-0.147263
-0.224448
-0.28257
-0.38109
-0.0311647
0.122511
-0.0176923
0.0993827
0.0811701
-0.0234205
-0.0533541
-0.16156
-0.259527
-0.258427
402.941
402.344
401.139
399.426
397.418
395.348
393.417
391.851
390.768
390.28
403.565
402.928
401.629
399.757
397.549
395.26
393.113
391.376
390.162
389.627
404.85
404.136
402.637
400.439
397.827
395.106
392.539
390.441
388.996
388.338
406.822
405.971
404.156
401.457
398.201
394.768
391.466
388.72
386.87
386.145
409.647
408.6
406.284
402.939
398.844
394.445
390.085
386.439
383.794
379.871
413.499
412.169
409.163
404.979
399.802
393.99
387.883
382.531
378.999
373.185
417.778
415.967
412.929
407.896
401.166
393.145
384.138
376.303
371.927
371.459
424.294
421.114
418.71
413.618
406.888
386.382
308.441
205.892
160.48
166.031
298.627
310.207
316.795
266.944
174.951
79.5661
22.4349
4.09163
0.714092
0.540371
67.1566
37.4915
35.6673
20.8807
0.255536
0.222232
0.142023
0.137452
0.145398
0.201491
-0.00900244
-0.0170786
-0.0760704
-0.0913254
0.0166327
0.0234804
0.125089
0.218103
0.115347
0.102179
0.670156
0.462129
0.595534
-0.0423862
-0.0313814
-0.0846118
-0.0167187
0.0984855
0.156999
0.157931
-0.0925548
-0.109565
0.0953041
0.0246231
-0.0470005
-0.189395
-0.233243
-0.22095
-0.0473863
0.128107
-0.0331525
-0.052886
-0.0984657
0.153732
-0.0561067
-0.242746
-0.291688
-0.28793
-0.305728
-0.327425
0.0612177
0.0332927
-0.0617118
-0.0485069
-0.0954074
-0.226139
-0.272539
-0.278968
-0.303217
-0.337565
0.0476849
0.0322205
-0.0924015
-0.136334
-0.134601
-0.0400507
-0.145404
-0.236129
-0.289967
-0.332733
-0.096118
-0.148883
-0.122506
-0.172796
0.000241703
-0.000609032
-0.17247
-0.250853
-0.325125
-0.345682
-0.0867743
-0.153324
-0.149028
-0.190641
-0.144966
-0.190077
-0.269774
-0.345132
-0.385802
-0.411125
-0.0384796
-0.0748859
-0.109703
-0.143647
-0.175275
-0.248527
-0.335668
-0.390124
-0.356617