/*--------------------------------*- C++ -*----------------------------------*\
| =========                 |                                                 |
| \\      /  F ield         | OpenFOAM: The Open Source CFD Toolbox           |
|  \\    /   O peration     | Version:  2312                                  |
|   \\  /    A nd           | Website:  www.openfoam.com                      |
|    \\/     M anipulation  |                                                 |
\*---------------------------------------------------------------------------*/
FoamFile
{
    version     2.0;
    format      ascii;
    arch        "LSB;label=32;scalar=64";
    class       volVectorField;
    location    "1.415";
    object      U;
}
// * * * * * * * * * * * * * * * * * * * * * * * * * * * * * * * * * * * * * //

dimensions      [0 1 -1 0 0 0 0];

internalField   nonuniform List<vector> 
8000
(
(-0.000451964 0.000692494 -0.000733333)
(-0.000179956 0.0027903 -0.00304431)
(0.000823377 0.0051623 -0.00554239)
(0.00156542 0.00521912 -0.00518197)
(0.00172003 0.00348938 -0.0025584)
(0.000242334 0.00221402 -0.00111288)
(-0.00228045 0.00190493 -0.00100803)
(-0.00473994 0.00175701 -0.00125101)
(-0.00661209 0.00145327 -0.00147013)
(-0.00668233 0.00059155 -0.00168786)
(0.00131768 0.00208915 -0.00042504)
(0.00470315 0.00368669 -0.00161604)
(0.00272824 0.0102273 -0.00484559)
(-0.00057915 0.0133973 -0.00449967)
(-0.00231645 0.0119819 -0.00274823)
(-0.00340576 0.0088474 -0.00167877)
(-0.00512935 0.00675519 -0.00156457)
(-0.00711142 0.00538921 -0.00169964)
(-0.00910513 0.00335402 -0.00122677)
(-0.00784465 0.00138171 -0.000278468)
(0.0019596 -0.00429127 0.0039084)
(0.00807349 -0.00737026 0.00605347)
(0.00796137 0.00872269 0.0009445)
(-0.00103801 0.0152125 -0.000844973)
(-0.00674351 0.0152552 -0.000542556)
(-0.00780894 0.0132832 -0.00108906)
(-0.00839842 0.0110094 -0.00127268)
(-0.0111957 0.00962141 -0.000458875)
(-0.0125959 0.00491665 0.00195371)
(-0.00832328 -0.00490572 0.00208516)
(-0.000414804 -0.021308 0.00932023)
(0.00366017 -0.0301778 0.00919249)
(0.00741761 -0.00112468 0.00717809)
(-0.000908079 0.0128681 0.00371815)
(-0.0081164 0.0135689 0.00232571)
(-0.0103293 0.0139723 0.000801429)
(-0.011982 0.0149976 0.000421671)
(-0.0133583 0.0111014 0.00179906)
(-0.00912814 -0.00457562 0.00264887)
(-0.00836553 -0.0154246 0.000342192)
(-0.000422574 -0.0283654 0.00448107)
(-0.00113617 -0.0354331 -0.000670528)
(0.000444312 -0.00891068 0.00632307)
(-0.00390077 0.00730204 0.00715602)
(-0.00760126 0.00877929 0.00510068)
(-0.00896178 0.0113187 0.0029821)
(-0.0085396 0.0118875 0.00240795)
(-0.00484046 0.00261749 0.00254872)
(-0.00408958 -0.00999812 0.000143917)
(-0.0097519 -0.0140916 -0.00311723)
(-0.00122528 -0.0160357 -0.00556226)
(-0.00779292 -0.0177194 -0.0106782)
(-0.00947801 -0.00632355 0.000379359)
(-0.00852264 0.00338001 0.00697109)
(-0.00868363 0.00395886 0.0066616)
(-0.00771967 0.00415155 0.00496823)
(-0.00508927 0.00190935 0.00379738)
(-0.00318291 -0.0034287 0.00200541)
(-0.00803366 -0.00700683 -0.00260219)
(-0.0129021 -0.00800869 -0.00742661)
(-0.00336244 -0.00530623 -0.0116996)
(-0.011681 -0.00440895 -0.0134905)
(-0.0169104 -0.00535628 -0.00345878)
(-0.0186984 -0.0044779 0.00406248)
(-0.0208157 -0.00473073 0.00551653)
(-0.0199723 -0.00309955 0.00466761)
(-0.016982 0.000321433 0.00190342)
(-0.0175821 0.00568005 -0.00241274)
(-0.0198661 0.0104896 -0.00856847)
(-0.0190314 0.0124099 -0.0128771)
(0.00497411 0.0310581 -0.024449)
(0.0097775 0.030125 -0.0188718)
(0.00237082 0.020519 0.000311042)
(-0.0161579 0.00988935 0.0112245)
(-0.0300053 0.000406962 0.0110324)
(-0.0322284 -0.00361015 0.00658324)
(-0.0313364 -0.00142915 0.0022023)
(-0.027285 0.0055265 -0.00324604)
(-0.0312979 0.0125826 -0.00769627)
(-0.0370338 0.0151259 -0.0115495)
(0.0157309 0.0513958 -0.0389409)
(0.0576853 0.0531766 -0.0431686)
(0.0818689 0.0499687 -0.0227409)
(0.0304849 0.0447814 0.00132681)
(-0.0437632 0.0398297 -0.00476445)
(-0.180408 0.0393746 0.00151274)
(-0.295731 0.034497 -0.00956455)
(-0.2017 0.0327838 -0.00500503)
(-0.14212 0.0425352 0.00155744)
(-0.130985 0.0493808 -0.00319092)
(0.0256896 -0.000807029 -0.0429007)
(0.0900775 -0.0361012 -0.0122781)
(0.122384 0.0398414 0.00694871)
(0.0945175 0.109999 0.022738)
(0.0459002 0.157435 0.0212262)
(-0.00671706 0.18095 0.0157561)
(-0.0690388 0.160835 0.0346546)
(-0.109505 0.00342016 0.019508)
(-0.162725 -0.0131045 -0.0521988)
(-0.133315 0.0675446 -0.07429)
(0.00844315 -0.0482472 -0.0483661)
(0.0503594 -0.110751 0.00225185)
(0.0331644 0.0180857 0.0361022)
(0.00852954 0.101189 0.0234426)
(0.0106155 0.169867 0.00901616)
(-0.0107928 0.196733 0.0178765)
(-0.063247 0.16307 0.0401135)
(-0.145512 0.108135 0.0156101)
(-0.186594 0.0918539 -0.0391223)
(-0.152357 0.0770144 -0.0598281)
(-0.0112009 -0.0456141 -0.0606579)
(0.0178142 -0.108994 -0.00148687)
(-0.0315369 0.0540849 0.0153905)
(-0.0223012 0.10736 -0.00516532)
(-0.00776089 0.155932 -0.00762363)
(-0.0185477 0.178626 0.0146749)
(-0.0534289 0.141705 0.0459643)
(-0.108787 0.0951001 0.0394639)
(-0.136454 0.0518467 0.0184199)
(-0.113763 -0.00192267 0.0224394)
(-0.0183477 -0.00791407 -0.0666854)
(0.0100327 -0.107005 -0.0156529)
(-0.03482 0.0432265 0.0249125)
(-0.00845021 0.0805773 0.00983946)
(0.00336876 0.120755 0.00601662)
(0.0048141 0.145055 0.0209221)
(-0.0338477 0.0976719 0.0474809)
(-0.0885122 0.0331009 0.0469911)
(-0.115748 -0.047116 0.0467936)
(-0.136189 -0.108724 0.043266)
(-0.0108723 0.0293874 -0.0612819)
(0.0223783 -0.110022 -0.0172565)
(-0.00937606 0.00156484 0.0339671)
(-0.00186518 0.056597 0.0315006)
(-0.0316742 0.0884777 0.0290704)
(-0.045988 0.106152 0.0299933)
(-0.104572 0.0512154 0.0321654)
(-0.143109 -0.0323921 0.0393932)
(-0.17367 -0.0987132 0.03857)
(-0.197642 -0.12962 0.00885617)
(0.0053822 0.0512698 -0.0236843)
(0.0463613 -0.119292 0.00459227)
(0.0322178 -0.0676991 0.0255221)
(-0.00805045 0.0524578 0.0382665)
(-0.0913373 0.0849536 0.0210297)
(-0.117574 0.0912372 0.011029)
(-0.14869 0.0146116 0.027016)
(-0.182767 -0.0669347 0.0417151)
(-0.215549 -0.0996597 0.00957592)
(-0.19639 -0.105678 -0.0280142)
(0.0350111 -0.0159226 0.0327512)
(0.0680272 -0.155876 0.0124673)
(0.0523113 -0.11099 0.00420517)
(-0.00958133 0.0644217 0.0318516)
(-0.105179 0.0944035 0.0106788)
(-0.133672 0.0722392 0.00465648)
(-0.162834 -0.0160835 0.0379318)
(-0.221349 -0.0664543 0.0287293)
(-0.230703 -0.0726647 -0.024744)
(-0.190026 -0.081778 -0.0447155)
(0.037478 -0.119734 -0.0113639)
(0.061977 -0.178335 -0.0290657)
(0.0371426 -0.105985 -0.0258897)
(-0.00117274 0.0660798 0.0123943)
(-0.0364379 0.097844 0.0219745)
(-0.0849611 0.0769188 0.0239203)
(-0.157093 -0.00839348 0.0513556)
(-0.249168 -0.0376513 0.0145525)
(-0.242798 -0.045649 -0.0382603)
(-0.201597 -0.0610558 -0.0496874)
(0.0373311 -0.136125 -0.0510734)
(0.0379459 -0.129676 -0.0564335)
(-0.00446388 -0.0485664 -0.0375628)
(-0.0105386 0.0539882 0.000351905)
(0.00677227 0.0500862 0.0217192)
(-0.0170095 0.0855362 0.0384241)
(-0.136469 0.0226749 0.0579359)
(-0.254465 0.00201244 0.0163264)
(-0.253935 -0.0181818 -0.0331327)
(-0.218052 -0.0368233 -0.0520894)
(0.035541 -0.113983 -0.059924)
(0.00509432 -0.060098 -0.0551943)
(-0.0460384 -0.00647213 -0.0161962)
(-0.0543158 -0.0139271 0.0125808)
(-0.0365191 -0.0126076 0.0180923)
(-0.0284942 0.0561302 0.0435842)
(-0.144091 0.0477399 0.0576973)
(-0.249841 0.0358677 0.0249697)
(-0.262283 0.0126552 -0.0237577)
(-0.229826 -0.00602715 -0.0525359)
(0.0270145 -0.0624402 -0.0553458)
(-0.0167607 0.0207554 -0.0393512)
(-0.084735 0.0137551 0.00239023)
(-0.105582 -0.0621498 0.00770303)
(-0.0936556 -0.0654374 0.0102395)
(-0.0768113 0.0109103 0.03889)
(-0.140381 0.05234 0.0586616)
(-0.232715 0.0521859 0.0429642)
(-0.266176 0.0435757 -0.00241509)
(-0.237241 0.0288408 -0.0445098)
(-0.00269254 0.00202087 -0.00130843)
(-0.0011169 0.00190033 -0.00502408)
(0.00447633 -0.000915067 -0.0123723)
(0.00731206 0.000478141 -0.0161329)
(0.00783973 0.002264 -0.0123617)
(0.00623156 0.00197538 -0.00595379)
(0.00358561 0.00148636 -0.00246383)
(0.000604684 0.00138146 -0.00144016)
(-0.00262027 0.0014336 -0.00117964)
(-0.00491383 0.000864693 -0.00132594)
(-0.000557628 0.00214563 0.001626)
(0.0134277 -0.0139049 0.0106476)
(0.0198301 -0.0110075 0.00856447)
(0.015007 -0.00091297 0.00113551)
(0.00834924 0.00637909 -0.00656205)
(0.00455929 0.00799477 -0.00690264)
(0.00151511 0.00603833 -0.00372832)
(-0.00120371 0.00410586 -0.00182364)
(-0.00446272 0.00254742 -0.000856976)
(-0.00623777 0.000202259 0.000984984)
(0.00670082 -0.0091002 0.0103879)
(0.0142058 -0.0377154 0.0188613)
(0.0182399 -0.026314 0.0188744)
(0.010565 -0.00588124 0.0153535)
(0.0012968 0.00656952 0.00680482)
(-0.000665722 0.0113263 -0.00157522)
(-0.000775545 0.00990609 -0.00311228)
(-0.00280798 0.00706852 -0.000842449)
(-0.00789234 0.00607879 0.00314828)
(-0.00795259 -0.0011265 0.00764146)
(0.0067994 -0.0244077 0.011512)
(0.00692443 -0.0475954 0.00976274)
(0.00581509 -0.0304997 0.0165551)
(-0.00117225 -0.00833579 0.0183952)
(-0.00722646 0.0020317 0.0138283)
(-0.00652571 0.00837471 0.00613466)
(-0.00474226 0.0112534 0.00225259)
(-0.00592342 0.0123466 0.00363614)
(-0.00691563 0.00582473 0.00827169)
(-0.00274367 -0.0114276 0.00883559)
(0.00654944 -0.021442 -0.00573286)
(0.00335441 -0.0345256 -0.0106634)
(-0.00352822 -0.0268817 0.00369836)
(-0.00383825 -0.0154127 0.0123988)
(-0.00425396 -0.00875317 0.0123539)
(-0.00350231 0.000152195 0.0096788)
(-0.00120223 0.00790078 0.00741387)
(0.00286268 0.00783765 0.00668961)
(0.00688287 -0.000644937 0.00532077)
(0.00513568 -0.00896216 0.00220092)
(0.00503454 -0.00962655 -0.0215504)
(-0.00320542 -0.0153704 -0.0239763)
(-0.0124995 -0.0119758 -0.0132167)
(-0.00883511 -0.0126705 -0.00226507)
(-0.00528047 -0.0120655 0.00178576)
(-0.000656673 -0.00842007 0.00299536)
(0.00528162 -0.005167 0.00283627)
(0.0111935 -0.00434145 -2.35154e-06)
(0.0111709 -0.00404166 -0.00518934)
(0.00412457 -0.00307047 -0.00951491)
(-0.00421858 -0.00588098 -0.0231605)
(-0.0201656 -0.0032603 -0.0231536)
(-0.0261671 -0.00398564 -0.0175239)
(-0.0217972 -0.00949755 -0.00936098)
(-0.0180229 -0.0116437 -0.00574342)
(-0.0113355 -0.0088906 -0.00647652)
(-0.00480548 -0.0019998 -0.00860425)
(-0.00172087 0.00701749 -0.0126753)
(-0.00218856 0.0145301 -0.0177246)
(-0.00623101 0.0186255 -0.0199915)
(-0.00758409 0.027089 -0.0261892)
(-0.0243429 0.0269046 -0.00930409)
(-0.0317524 0.0174042 0.00026883)
(-0.0379171 0.00790313 0.00112059)
(-0.0406779 -0.000259134 -0.00475301)
(-0.0420662 -0.00400638 -0.00961691)
(-0.0386932 -0.00168009 -0.0136653)
(-0.028978 0.00430217 -0.0156191)
(-0.0276457 0.0105022 -0.0195131)
(-0.0298799 0.0142633 -0.021833)
(0.0156876 0.0350521 -0.0219797)
(0.0343027 0.0528325 -0.00156604)
(-0.0188581 0.0626372 -0.00421613)
(-0.100321 0.064611 -0.0327572)
(-0.212453 0.0602756 -0.0372243)
(-0.333298 0.0435687 -0.0859747)
(-0.306903 0.0273126 -0.13464)
(-0.216882 0.0298232 -0.103966)
(-0.153079 0.0399922 -0.0715383)
(-0.122575 0.0428707 -0.0584564)
(-0.0248163 -0.112924 0.0245803)
(0.0444664 -0.00801679 0.0706937)
(0.0458048 0.0943646 0.0522638)
(0.0149349 0.165432 0.0284402)
(-0.0371484 0.208722 0.0110351)
(-0.13771 0.209521 0.0303261)
(-0.203938 0.138545 0.0123876)
(-0.221009 0.0150144 -0.0311337)
(-0.195193 0.0637181 -0.0631796)
(-0.124756 0.117179 -0.0769371)
(-0.0808682 -0.109868 0.0269016)
(-0.0717153 -0.0191007 0.0412891)
(-0.0716949 0.112561 0.0114421)
(-0.0558988 0.205246 0.0117175)
(-0.0771115 0.251127 0.0241789)
(-0.140557 0.234852 0.0504473)
(-0.194892 0.149037 0.0574526)
(-0.227752 0.0337318 0.0484817)
(-0.227737 -0.0262719 0.0574564)
(-0.1911 -0.0458248 0.063475)
(-0.0977216 -0.0701113 0.00811594)
(-0.112725 0.00631182 0.0164391)
(-0.128902 0.117125 -0.0167402)
(-0.13714 0.187573 -0.00264012)
(-0.154725 0.228037 0.0373953)
(-0.171786 0.205877 0.073648)
(-0.181 0.121688 0.103891)
(-0.200815 0.0243046 0.120804)
(-0.216144 -0.0466914 0.121354)
(-0.199648 -0.0798742 0.107371)
(-0.088642 -0.0294504 -0.0051224)
(-0.103194 -0.00962201 0.0404924)
(-0.0995756 0.0944249 0.0239301)
(-0.0939575 0.163091 0.007474)
(-0.123146 0.184832 0.0435277)
(-0.131789 0.158318 0.0938494)
(-0.149373 0.0779305 0.134875)
(-0.191276 -0.0242208 0.145432)
(-0.211078 -0.0921199 0.125646)
(-0.203493 -0.1043 0.0840255)
(-0.0686051 0.00318075 -0.0173666)
(-0.0639601 -0.0386782 0.0565431)
(-0.0782829 0.0484649 0.0803715)
(-0.0524686 0.126838 0.0467978)
(-0.0717822 0.160208 0.0537475)
(-0.119028 0.127217 0.0984892)
(-0.18578 0.0302936 0.125668)
(-0.224791 -0.0671438 0.112612)
(-0.222458 -0.0939698 0.0638841)
(-0.188457 -0.0723748 0.00345179)
(-0.052156 0.0181856 -0.0171764)
(-0.00478964 -0.0885415 0.0539987)
(-0.0501597 0.018484 0.101601)
(-0.0688153 0.105986 0.085411)
(-0.0871406 0.155472 0.0705013)
(-0.136996 0.123565 0.0900294)
(-0.202404 -0.000771368 0.0997787)
(-0.222509 -0.0814453 0.0601126)
(-0.194142 -0.0848654 -0.0198007)
(-0.155841 -0.0751485 -0.0663904)
(-0.0269014 0.0478829 0.00872796)
(0.030446 -0.120127 0.0331794)
(-0.044458 0.0142179 0.0843757)
(-0.103878 0.122526 0.0975303)
(-0.132574 0.148826 0.0762688)
(-0.160892 0.0870922 0.0765607)
(-0.206381 -0.0325223 0.0728171)
(-0.209728 -0.0795591 0.0111652)
(-0.175023 -0.0919149 -0.0642028)
(-0.161668 -0.085905 -0.0862301)
(0.00268088 0.0581886 0.0229704)
(0.0309331 -0.0935782 -0.00393153)
(-0.0746137 0.0462007 0.0450597)
(-0.113829 0.126484 0.0859671)
(-0.135378 0.121135 0.0841293)
(-0.160694 0.0516796 0.0838742)
(-0.198398 -0.0309865 0.0723706)
(-0.201648 -0.0664218 -0.00561302)
(-0.181338 -0.0919469 -0.071335)
(-0.183505 -0.082546 -0.0940692)
(0.0397248 0.0154875 -0.0169383)
(0.0273074 -0.0669869 -0.0315292)
(-0.063132 0.047527 0.00670198)
(-0.0683235 0.0962222 0.0666421)
(-0.0683334 0.0929841 0.0933191)
(-0.0992472 0.0696712 0.115229)
(-0.175778 0.00447462 0.0987699)
(-0.195737 -0.0415674 0.00800752)
(-0.180063 -0.0736613 -0.067038)
(-0.190699 -0.0686548 -0.106733)
(0.0428143 -0.054221 -0.0601578)
(-0.0375536 -0.0257633 -0.023736)
(-0.101194 0.0296802 0.0275637)
(-0.0920729 0.00731618 0.0645242)
(-0.071303 0.0313653 0.0909181)
(-0.0870274 0.0644375 0.125088)
(-0.161927 0.0367933 0.108467)
(-0.180628 -0.0100937 0.0267194)
(-0.166735 -0.0438183 -0.060659)
(-0.178012 -0.0445164 -0.118071)
(0.00205004 -0.035975 -0.0556929)
(-0.107228 0.0226024 -0.00132617)
(-0.160132 -0.00346163 0.0391589)
(-0.159483 -0.0661758 0.0545015)
(-0.143047 -0.041204 0.0707173)
(-0.119396 0.0231407 0.106027)
(-0.145698 0.037756 0.110327)
(-0.16707 0.008116 0.0579377)
(-0.150015 -0.0170048 -0.0324683)
(-0.153018 -0.0210666 -0.110187)
(-0.00677167 0.00450653 -0.00135634)
(-0.00743633 -0.00377688 6.92811e-05)
(0.00627592 -0.0148074 -0.00132278)
(0.0149323 -0.0126665 -0.00690621)
(0.0181113 -0.00393106 -0.00996914)
(0.0142094 0.00123866 -0.00696455)
(0.00714192 0.00184232 -0.00271594)
(0.00206981 0.001569 -0.000598028)
(-0.00181315 0.00143852 0.000126447)
(-0.00474579 0.00093439 0.000282155)
(-0.00703298 0.00844531 -0.00108078)
(0.012388 -0.0198161 0.0175696)
(0.0227725 -0.0314541 0.0218028)
(0.022349 -0.0238037 0.0157337)
(0.0184305 -0.00937481 0.0031225)
(0.0132678 0.00422129 -0.00550754)
(0.00580191 0.00724992 -0.00445848)
(0.000333088 0.00478026 -0.00134973)
(-0.00310236 0.0026895 4.15014e-05)
(-0.0052952 -0.000340774 0.0015945)
(0.000877617 0.00701159 0.00588169)
(0.0161202 -0.0334876 0.023166)
(0.0161846 -0.0417888 0.0276692)
(0.0105293 -0.0245285 0.026865)
(0.00534283 -0.00669102 0.014889)
(0.00504243 0.00708994 0.000305876)
(0.00277119 0.0118678 -0.00408472)
(0.000410605 0.00838772 -0.00142769)
(-0.00357368 0.0053526 0.00247099)
(-0.00684142 0.00223588 0.0082335)
(0.00757888 0.0030207 0.00672848)
(0.0137295 -0.028272 0.00835062)
(0.00383808 -0.0343019 0.0174205)
(-0.00386471 -0.0200121 0.0263916)
(-0.00735127 -0.00579345 0.021516)
(-0.00427657 0.00631497 0.00837624)
(-0.00111846 0.0120526 0.000784014)
(-0.00132439 0.0120676 0.0020283)
(-0.00585569 0.0121566 0.0069014)
(-0.00559959 0.00156034 0.0122936)
(0.00764477 0.00448566 -0.013477)
(0.0133814 -0.0157765 -0.0159211)
(0.00197488 -0.0210349 -0.00248477)
(-0.00384844 -0.0175646 0.0126355)
(-0.00645489 -0.00945698 0.0172111)
(-0.00573324 0.0034544 0.0148313)
(-0.00166317 0.014404 0.0100611)
(0.00179765 0.0181936 0.00776595)
(0.00197519 0.0150475 0.007108)
(0.00187582 0.00364966 0.00613005)
(0.0054655 -0.00224177 -0.0295425)
(0.00442342 -0.0132159 -0.0312362)
(-0.00386132 -0.00918634 -0.0240361)
(-0.006012 -0.00828017 -0.0125665)
(-0.00621929 -0.00705579 -0.00369523)
(-0.00371702 -0.00191581 0.00143534)
(0.00109771 0.0043936 0.00237196)
(0.00631026 0.0101717 6.16153e-05)
(0.00704539 0.0135455 -0.00426126)
(0.00223839 0.0108171 -0.00759766)
(-0.00447459 -0.00731028 -0.0268167)
(-0.0184272 -0.00840478 -0.0315687)
(-0.0240081 -0.00658142 -0.0316518)
(-0.0204956 -0.00634307 -0.0255562)
(-0.0156694 -0.00480483 -0.0199496)
(-0.00991765 0.000585145 -0.0171124)
(-0.00607139 0.00821028 -0.0171863)
(-0.00311779 0.0145618 -0.0197508)
(-0.00292496 0.0194047 -0.0221432)
(-0.00610984 0.0197519 -0.0224259)
(-0.0111063 0.0158473 -0.0126101)
(-0.0342109 0.0147098 -0.00984476)
(-0.0458576 0.0071629 -0.0140435)
(-0.0490084 0.000104072 -0.0180813)
(-0.050319 -0.00440628 -0.0209448)
(-0.0463116 -0.00494765 -0.0252008)
(-0.0347837 -0.000851417 -0.028961)
(-0.0219455 0.0035563 -0.0282012)
(-0.0184379 0.00837886 -0.0293971)
(-0.0182649 0.0120908 -0.0299291)
(0.0189763 0.0290616 0.0130239)
(-0.00940359 0.0502743 0.00699094)
(-0.0999194 0.0566855 -0.0268034)
(-0.187281 0.0515336 -0.0532916)
(-0.30473 0.0387209 -0.143584)
(-0.345436 0.0194327 -0.25548)
(-0.257971 0.0111991 -0.242338)
(-0.166843 0.0183809 -0.184166)
(-0.11463 0.0268009 -0.141591)
(-0.0930304 0.028768 -0.121442)
(-0.0204278 -0.0923149 0.0788535)
(0.0260348 0.0638138 0.0929592)
(-0.0341496 0.154354 0.0443919)
(-0.0818919 0.197 0.020371)
(-0.171819 0.189447 0.0380954)
(-0.2321 0.138683 0.0531827)
(-0.270095 0.0366398 0.0249033)
(-0.246125 -0.0565454 0.00160409)
(-0.161353 0.026094 -0.101094)
(-0.0960411 0.0761192 -0.14294)
(-0.0833587 -0.0824621 0.0636711)
(-0.102268 0.0778851 0.0506435)
(-0.133155 0.193958 0.0257472)
(-0.159385 0.211961 0.0443209)
(-0.193219 0.152201 0.0922374)
(-0.209949 0.0545563 0.129436)
(-0.218867 -0.0308077 0.134388)
(-0.229511 -0.0492923 0.123084)
(-0.220685 -0.0138676 0.103552)
(-0.170494 0.0251197 0.0736057)
(-0.094497 -0.0384774 0.0464178)
(-0.143631 0.0818409 0.0409092)
(-0.18416 0.139796 0.0278535)
(-0.195138 0.138348 0.0569124)
(-0.198996 0.0909848 0.0928878)
(-0.207369 0.0231724 0.128292)
(-0.217815 -0.0462432 0.155931)
(-0.220169 -0.0915146 0.149764)
(-0.20268 -0.0884189 0.110022)
(-0.160069 -0.0614736 0.0555898)
(-0.0871999 -0.00656133 0.038073)
(-0.107173 0.0848444 0.0660944)
(-0.126638 0.12515 0.0554088)
(-0.147848 0.117778 0.0697097)
(-0.169481 0.0900134 0.101865)
(-0.188317 0.0432841 0.150257)
(-0.203019 -0.024036 0.186798)
(-0.208777 -0.0818787 0.166232)
(-0.183401 -0.0950114 0.0913436)
(-0.130432 -0.0825478 0.00580694)
(-0.0849195 0.0137065 0.0275004)
(-0.0887801 0.0595213 0.0897116)
(-0.0818994 0.110762 0.0851972)
(-0.0824621 0.137645 0.0756429)
(-0.119926 0.119687 0.102959)
(-0.158857 0.0684278 0.156603)
(-0.190179 -0.0107923 0.177485)
(-0.191444 -0.0747622 0.119001)
(-0.148638 -0.0934971 0.0175146)
(-0.0939198 -0.103003 -0.0558474)
(-0.0770652 0.0309179 0.012726)
(-0.0725828 0.0317733 0.100684)
(-0.0830219 0.0912844 0.108364)
(-0.0653821 0.142862 0.086848)
(-0.0866336 0.152609 0.101422)
(-0.132496 0.105025 0.150284)
(-0.168674 0.00372965 0.144397)
(-0.156435 -0.070389 0.0534917)
(-0.106268 -0.104884 -0.0458089)
(-0.0783173 -0.137769 -0.0819068)
(-0.0556221 0.0485724 -0.00205557)
(-0.0528047 0.0116467 0.0797609)
(-0.104182 0.0969932 0.114141)
(-0.0995216 0.152183 0.10181)
(-0.0983163 0.169583 0.105725)
(-0.128704 0.108258 0.133355)
(-0.149122 -0.00366952 0.0987372)
(-0.118496 -0.0712061 6.66137e-05)
(-0.0857593 -0.121354 -0.0640637)
(-0.0877219 -0.158874 -0.0815298)
(-0.0321002 0.0748064 -0.00879617)
(-0.0585244 0.0173628 0.04093)
(-0.139593 0.110761 0.102125)
(-0.145351 0.152071 0.115579)
(-0.136556 0.13906 0.114862)
(-0.135083 0.0635923 0.111074)
(-0.12104 -0.0178957 0.0603984)
(-0.0797202 -0.0677274 -0.0239487)
(-0.069713 -0.134038 -0.065154)
(-0.0984108 -0.152029 -0.0875203)
(0.0100351 0.0995039 -0.0126493)
(-0.0124981 0.0245306 0.00774457)
(-0.119985 0.0912524 0.0816858)
(-0.126321 0.126454 0.125864)
(-0.119964 0.102427 0.136337)
(-0.110973 0.0425908 0.130144)
(-0.093877 -0.0097209 0.0744946)
(-0.0418721 -0.0482155 -0.0213393)
(-0.0433627 -0.114816 -0.0610976)
(-0.0898586 -0.137511 -0.0948393)
(0.0425265 0.0425741 -0.0231213)
(-0.00823918 0.0455855 0.00630933)
(-0.113854 0.0745087 0.0823912)
(-0.108973 0.0705319 0.127707)
(-0.0965319 0.0656045 0.149298)
(-0.0848663 0.0468685 0.155565)
(-0.0664405 0.016357 0.102613)
(-0.00857393 -0.0213586 0.00513023)
(-0.00413078 -0.0813625 -0.0499665)
(-0.0563424 -0.130805 -0.0931134)
(0.009255 -0.00599528 -0.0210744)
(-0.0733039 0.0807322 0.0227086)
(-0.153196 0.0594333 0.0759181)
(-0.14867 0.0127461 0.102476)
(-0.126257 0.0127986 0.123454)
(-0.0847919 0.0269791 0.13919)
(-0.0455174 0.0157652 0.119041)
(0.00154903 -0.0200938 0.0562235)
(0.0353556 -0.0626412 -0.0166927)
(-0.00199309 -0.127163 -0.073036)
(-0.00714863 0.00516207 6.81538e-05)
(-0.0148762 -0.00332344 0.00522114)
(9.82934e-05 -0.0179562 0.00963549)
(0.0137096 -0.0170633 0.00637422)
(0.0209527 -0.00736398 0.00179037)
(0.0170823 -0.000152512 -2.52024e-05)
(0.00808307 0.00183925 0.000262342)
(0.00197485 0.00186928 0.00107216)
(-0.00206844 0.00169129 0.00167958)
(-0.00489795 0.00124953 0.00229883)
(-0.00715611 0.011548 -0.00379483)
(0.00402616 -0.0129296 0.0141374)
(0.016751 -0.0351159 0.0254742)
(0.0205605 -0.0343782 0.0219953)
(0.0224084 -0.0177246 0.00855803)
(0.0183165 0.00108129 -0.000373882)
(0.00814446 0.00702499 -0.00121838)
(0.000714436 0.00516909 0.000476781)
(-0.00289256 0.00309475 0.0017105)
(-0.00503246 0.000266378 0.00272118)
(-0.00314718 0.012667 -0.00353226)
(0.0146889 -0.0171967 0.015315)
(0.0161739 -0.0370968 0.0263186)
(0.0115233 -0.0325984 0.0284669)
(0.0112462 -0.0163205 0.0149508)
(0.012057 0.00307845 0.000331369)
(0.00614992 0.0118617 -0.00293971)
(0.000798982 0.00890256 -0.000690112)
(-0.00262302 0.0043541 0.0018888)
(-0.00570843 0.00143682 0.0059136)
(0.00363188 0.0133612 -0.00681977)
(0.0175593 -0.00813132 0.000480372)
(0.0117122 -0.0242078 0.0131697)
(0.00180443 -0.0230053 0.0247792)
(-0.000813367 -0.0111346 0.0197951)
(0.00254601 0.00412939 0.00465552)
(0.0023081 0.013141 -0.00226012)
(-0.000650791 0.0116873 -0.000560236)
(-0.00553386 0.0101941 0.00331887)
(-0.00793532 0.00678156 0.00911176)
(0.00631838 0.0087073 -0.0194645)
(0.0172342 -0.00553144 -0.0164754)
(0.0116004 -0.0111212 -0.00440525)
(0.00132131 -0.0117712 0.0100178)
(-0.00502152 -0.00566616 0.0163904)
(-0.00436577 0.00782137 0.01327)
(-0.000650166 0.0175933 0.00629202)
(5.88702e-05 0.0192391 0.00407618)
(-0.00418459 0.0169377 0.00414766)
(-0.00627383 0.0100207 0.00576963)
(0.00197972 -0.00807039 -0.0273275)
(0.00318543 -0.0153715 -0.0282575)
(-0.00163969 -0.00841745 -0.0233736)
(-0.00552449 -0.00385387 -0.0143522)
(-0.00903247 -0.00155438 -0.00499787)
(-0.00824334 0.00550913 0.00188724)
(-0.0034855 0.0154018 0.00353542)
(0.00125275 0.0215708 0.00135641)
(-0.000762969 0.0228141 -0.00169526)
(-0.00556803 0.0173459 -0.00325652)
(-0.00706123 -0.0096973 -0.0239104)
(-0.0200676 -0.0103978 -0.0332346)
(-0.0263972 -0.00763188 -0.0362893)
(-0.0232411 -0.00451815 -0.0307847)
(-0.0196394 -0.00158766 -0.0241998)
(-0.0166336 0.00260641 -0.0200374)
(-0.0141486 0.00748774 -0.0182118)
(-0.0105696 0.0138563 -0.0164134)
(-0.00945537 0.0197887 -0.015762)
(-0.0106426 0.0188459 -0.0159272)
(-0.00638037 0.00930257 -0.000213624)
(-0.0284181 0.00641796 -0.00349023)
(-0.0439259 -0.000279543 -0.0164138)
(-0.0518971 -0.00568049 -0.0232774)
(-0.0520786 -0.00903093 -0.0282827)
(-0.0408689 -0.00703651 -0.0335895)
(-0.0259983 -0.00145311 -0.0337209)
(-0.0190346 0.00335869 -0.0325855)
(-0.0160029 0.0105941 -0.0324333)
(-0.0142923 0.0136586 -0.0326399)
(0.0236588 0.0414791 0.0315439)
(-0.028499 0.0566517 0.0146353)
(-0.122706 0.058545 -0.0491712)
(-0.240269 0.0454418 -0.149743)
(-0.320089 0.0186188 -0.246746)
(-0.272238 -0.00412595 -0.246664)
(-0.182164 -0.00738265 -0.198947)
(-0.114274 0.00698702 -0.160768)
(-0.0818059 0.0149249 -0.130462)
(-0.0665765 0.0171191 -0.111842)
(-0.00449232 -0.0186537 0.142579)
(0.0210541 0.130191 0.132212)
(-0.0624371 0.202815 0.069868)
(-0.141135 0.191184 0.0582917)
(-0.215653 0.108142 0.0991345)
(-0.248855 -0.0161906 0.141992)
(-0.237211 -0.210335 0.0738759)
(-0.184151 -0.123249 -0.14334)
(-0.140392 -0.0699127 -0.294594)
(-0.09686 -0.0426927 -0.312057)
(-0.067527 -0.0480858 0.128553)
(-0.0796108 0.133316 0.112574)
(-0.127505 0.218878 0.0893469)
(-0.153003 0.16847 0.117404)
(-0.158762 0.062022 0.155059)
(-0.154046 -0.00703908 0.170318)
(-0.171222 -0.0257671 0.170076)
(-0.192123 0.0159263 0.174011)
(-0.186641 0.0771526 0.165287)
(-0.15028 0.105135 0.131181)
(-0.0874721 -0.0139299 0.116052)
(-0.131667 0.104308 0.0912137)
(-0.154293 0.124358 0.0741919)
(-0.139568 0.0788872 0.0924784)
(-0.132943 0.0186638 0.100823)
(-0.145806 -0.036301 0.109352)
(-0.155049 -0.0762697 0.120122)
(-0.150411 -0.0700417 0.114908)
(-0.133769 -0.0336844 0.0967146)
(-0.109294 -0.0175966 0.074665)
(-0.0784869 0.0149911 0.109989)
(-0.0999374 0.11155 0.10449)
(-0.121311 0.101385 0.073242)
(-0.121308 0.0633042 0.0666175)
(-0.130366 0.0353171 0.0782252)
(-0.144427 0.000851939 0.11409)
(-0.146487 -0.0334287 0.138845)
(-0.128645 -0.0451215 0.111647)
(-0.0950572 -0.0370044 0.0501525)
(-0.0628703 -0.0571451 0.00578427)
(-0.0779551 0.0274089 0.0938955)
(-0.071862 0.111532 0.119919)
(-0.0778177 0.13003 0.0918233)
(-0.104314 0.103103 0.0744082)
(-0.13194 0.072314 0.0891521)
(-0.133225 0.0431798 0.128354)
(-0.121199 0.0118429 0.139258)
(-0.096172 -0.0109894 0.0803578)
(-0.0614477 -0.026962 0.00203925)
(-0.0370152 -0.0771729 -0.0343722)
(-0.0812676 0.0349043 0.0727096)
(-0.0746531 0.0846812 0.11961)
(-0.0667123 0.130903 0.100758)
(-0.0823892 0.145569 0.0845001)
(-0.122291 0.122701 0.105927)
(-0.121174 0.0917034 0.142788)
(-0.0988414 0.0576408 0.123631)
(-0.0666017 0.0285476 0.0283049)
(-0.0433195 -0.0111518 -0.0505283)
(-0.0211646 -0.10236 -0.0586761)
(-0.0754711 0.0566807 0.0563088)
(-0.0877251 0.0648092 0.11108)
(-0.0945885 0.125047 0.107369)
(-0.088106 0.173805 0.0972432)
(-0.11567 0.169735 0.125555)
(-0.11304 0.131115 0.153394)
(-0.0854454 0.0911349 0.102141)
(-0.0504996 0.0716093 -0.00725304)
(-0.0348769 0.00159918 -0.0591478)
(-0.0125975 -0.142026 -0.05193)
(-0.0575646 0.078616 0.0437674)
(-0.10046 0.0593087 0.100308)
(-0.14144 0.129917 0.125455)
(-0.127857 0.181374 0.124036)
(-0.127671 0.176306 0.140258)
(-0.110317 0.128481 0.135739)
(-0.0722493 0.0970952 0.0597257)
(-0.0362999 0.0778484 -0.0357661)
(-0.00787928 -0.0452715 -0.0569192)
(-0.00657983 -0.173193 -0.0524374)
(-0.00922003 0.105791 0.0265897)
(-0.0618106 0.06324 0.0788834)
(-0.152285 0.118607 0.138848)
(-0.148895 0.161472 0.155951)
(-0.132451 0.142197 0.150243)
(-0.098379 0.0949951 0.111114)
(-0.0465376 0.0738841 0.0196471)
(-0.00237767 0.0497432 -0.0635388)
(0.0371617 -0.0965048 -0.0612699)
(0.00579097 -0.191016 -0.0522297)
(0.0380857 0.059001 0.00945409)
(-0.018528 0.091889 0.0652897)
(-0.134836 0.116708 0.139887)
(-0.135416 0.130222 0.170236)
(-0.115509 0.106776 0.160655)
(-0.0711439 0.0690596 0.116708)
(-0.00750437 0.0416473 0.030544)
(0.0571379 -0.0110951 -0.0344906)
(0.078596 -0.11032 -0.0426875)
(0.0388321 -0.201093 -0.0496819)
(0.0110094 0.00346481 0.0214358)
(-0.0445284 0.131348 0.0684609)
(-0.139862 0.127052 0.123034)
(-0.134337 0.105405 0.146602)
(-0.105565 0.0814733 0.147732)
(-0.0466354 0.0536794 0.132294)
(0.0213947 0.0141774 0.096818)
(0.0816334 -0.0485894 0.0532893)
(0.112987 -0.120988 0.00381611)
(0.0895887 -0.195939 -0.0385854)
(-0.00371029 0.00361923 0.00212294)
(-0.0140023 0.00012939 0.00959534)
(-0.00584002 -0.00966776 0.0180991)
(0.0080244 -0.0100592 0.0177616)
(0.0152837 -0.00395618 0.0116815)
(0.012553 0.000493455 0.00576913)
(0.00581651 0.00203777 0.0028934)
(0.000840293 0.00219876 0.00213764)
(-0.00268514 0.00213775 0.00230034)
(-0.00511448 0.00208502 0.00288873)
(-0.00356417 0.0102786 -0.00357176)
(-0.00645865 -0.000673143 0.00977569)
(0.00614873 -0.0228899 0.0231815)
(0.0135562 -0.0252245 0.0227856)
(0.0183276 -0.0103729 0.0136111)
(0.0146085 0.00296581 0.00563957)
(0.00626574 0.00622686 0.00256845)
(0.00051207 0.00513842 0.00257934)
(-0.00252017 0.00388626 0.00362754)
(-0.00471847 0.00256009 0.0048955)
(-0.000263236 0.0112866 -0.00838035)
(0.0070048 -0.0019338 0.00458613)
(0.013258 -0.0212165 0.0184863)
(0.0130948 -0.0256135 0.0222626)
(0.0148642 -0.0125584 0.0127499)
(0.0132401 0.00482814 0.00352162)
(0.00580749 0.0105581 0.000633944)
(-1.84689e-05 0.00770115 0.00118128)
(-0.00295596 0.00445447 0.00242109)
(-0.00510766 0.00279167 0.00450394)
(0.0047004 0.00866596 -0.0133345)
(0.0149435 0.00217022 -0.00793465)
(0.0173052 -0.0097852 0.00564912)
(0.0118542 -0.0156626 0.0168429)
(0.00937084 -0.00868786 0.013101)
(0.00877545 0.00577604 0.00277302)
(0.00370467 0.0133277 -0.0012213)
(-0.00191466 0.0107242 -0.000278011)
(-0.00588425 0.00787012 0.00146515)
(-0.00751393 0.00736679 0.00370985)
(0.00452927 -0.00460417 -0.0171749)
(0.0145027 -0.00748279 -0.0129079)
(0.0155905 -0.00448298 -0.00404505)
(0.00960223 -0.00364855 0.00677827)
(0.00403788 0.000558079 0.0118834)
(0.0035669 0.0105302 0.00808966)
(0.00266371 0.0176075 0.00246057)
(-0.0010673 0.0158591 0.00133279)
(-0.00745052 0.0125754 0.0012462)
(-0.00939639 0.011661 0.000784118)
(-0.00329438 -0.0195918 -0.0212168)
(-0.00310349 -0.0204186 -0.0244689)
(-0.0051644 -0.0100764 -0.0202237)
(-0.00652901 -0.00259652 -0.0119866)
(-0.00876899 0.00347746 -0.00308506)
(-0.00617493 0.013225 0.0039224)
(-0.00167115 0.0214457 0.00421955)
(-0.000364432 0.0229251 0.00210618)
(-0.00661541 0.0200291 -0.000516224)
(-0.0104721 0.0164903 -0.00441314)
(-0.0108058 -0.0118563 -0.0211861)
(-0.0261163 -0.0121584 -0.035289)
(-0.0338096 -0.00858092 -0.0390808)