/*--------------------------------*- C++ -*----------------------------------*\
| =========                 |                                                 |
| \\      /  F ield         | OpenFOAM: The Open Source CFD Toolbox           |
|  \\    /   O peration     | Version:  2312                                  |
|   \\  /    A nd           | Website:  www.openfoam.com                      |
|    \\/     M anipulation  |                                                 |
\*---------------------------------------------------------------------------*/
FoamFile
{
    version     2.0;
    format      ascii;
    arch        "LSB;label=32;scalar=64";
    class       volScalarField;
    location    "0.85";
    object      p;
}
// * * * * * * * * * * * * * * * * * * * * * * * * * * * * * * * * * * * * * //

dimensions      [1 -1 -2 0 0 0 0];

internalField   nonuniform List<scalar> 
8000
(
370.346
370.959
371.635
372.489
373.597
374.888
376.206
377.377
378.241
378.69
319.903
320.655
321.364
322.367
323.706
325.246
326.789
328.136
329.123
329.62
267.995
268.955
269.615
270.909
272.809
274.943
276.993
278.726
279.971
280.597
214.423
215.387
215.872
217.669
220.594
223.821
226.751
229.135
230.871
231.637
158.409
158.654
159.398
162.465
167.098
172.009
176.178
179.277
181.504
182.448
97.5243
96.6989
99.4584
105.301
112.65
119.726
125.348
129.065
131.657
132.455
36.7852
34.1511
38.2948
45.6217
56.1152
67.3348
74.8267
78.6154
81.5314
81.9967
4.25428
3.0008
4.18888
6.25817
10.6334
20.7864
31.6607
37.2408
39.7256
39.7791
-0.14651
-0.12803
-0.116337
-0.0948485
-0.131893
0.511549
6.72091
12.3226
11.957
10.7225
-0.207208
-0.200442
-0.19943
-0.202792
-0.214128
-0.2678
0.299455
0.909718
0.115949
-0.265943
-0.270382
-0.275079
-0.283975
-0.299085
-0.32652
-0.419887
-0.459858
-0.404557
-0.39882
-0.435916
-0.343419
-0.353964
-0.364936
-0.378053
-0.415924
-0.464122
-0.476535
-0.451222
-0.468956
-0.490871
-0.427446
-0.437957
-0.441377
-0.447557
-0.483325
-0.51887
-0.511331
-0.501542
-0.529024
-0.526094
-0.519473
-0.523709
-0.514169
-0.516915
-0.550592
-0.578492
-0.56441
-0.561935
-0.57496
-0.554017
-0.601982
-0.598853
-0.583998
-0.586375
-0.617003
-0.635234
-0.618459
-0.619533
-0.617785
-0.584977
-0.666808
-0.666662
-0.653278
-0.655083
-0.677743
-0.688433
-0.673381
-0.674808
-0.659643
-0.621591
-0.721972
-0.729929
-0.72309
-0.72252
-0.730712
-0.737195
-0.731546
-0.728159
-0.705412
-0.67197
-0.777444
-0.788218
-0.787003
-0.784122
-0.780186
-0.783929
-0.787759
-0.782745
-0.762393
-0.745532
-0.832372
-0.838124
-0.83768
-0.83368
-0.827569
-0.829875
-0.839807
-0.840406
-0.831054
-0.826957
-0.886253
-0.884401
-0.882728
-0.879735
-0.875434
-0.874566
-0.884764
-0.896612
-0.898957
-0.898647
371.035
371.95
372.653
373.342
374.272
375.445
376.694
377.823
378.664
379.103
320.766
322.067
322.825
323.529
324.55
325.898
327.34
328.627
329.573
330.062
269.139
270.843
271.667
272.558
273.955
275.768
277.671
279.326
280.509
281.094
215.841
217.546
217.997
219.41
221.914
224.796
227.571
229.899
231.563
232.35
159.753
160.941
161.21
163.861
168.318
173.01
177.123
180.306
182.38
183.205
96.5323
95.0282
98.1109
104.999
113.071
120.234
126.264
130.526
132.854
133.595
31.062
22.4282
27.7861
39.8688
54.0384
65.8715
74.3539
79.2109
81.0027
81.2348
2.3625
0.641935
1.36289
3.59155
8.92164
17.7368
28.254
35.0934
38.0312
37.0751
-0.151631
-0.127953
-0.119597
-0.110192
-0.125106
0.0285819
2.72108
8.17621
7.91351
6.2976
-0.225091
-0.223908
-0.221133
-0.23119
-0.247262
-0.272489
-0.257822
0.247689
-0.085289
-0.247762
-0.297457
-0.309369
-0.314417
-0.334732
-0.374275
-0.434631
-0.477616
-0.441966
-0.391874
-0.440484
-0.3739
-0.391058
-0.396848
-0.420183
-0.472494
-0.518062
-0.520452
-0.50238
-0.492817
-0.523134
-0.4573
-0.472139
-0.470746
-0.490156
-0.537723
-0.582295
-0.565434
-0.549769
-0.565868
-0.557198
-0.546957
-0.552173
-0.544149
-0.559843
-0.599526
-0.636
-0.610027
-0.603808
-0.615495
-0.583543
-0.631537
-0.626503
-0.616111
-0.62912
-0.662709
-0.67911
-0.652937
-0.649856
-0.646423
-0.610545
-0.698015
-0.697017
-0.685838
-0.693337
-0.715314
-0.71794
-0.700735
-0.692217
-0.677173
-0.641267
-0.748345
-0.768113
-0.75612
-0.755724
-0.759221
-0.759038
-0.751782
-0.737522
-0.717203
-0.682896
-0.795455
-0.831819
-0.826522
-0.820102
-0.80755
-0.805242
-0.80593
-0.789887
-0.771381
-0.739405
-0.847271
-0.874517
-0.878888
-0.871819
-0.858163
-0.858295
-0.859298
-0.848399
-0.834245
-0.816687
-0.897319
-0.905168
-0.91074
-0.907857
-0.904563
-0.905175
-0.907201
-0.907217
-0.905736
-0.904538
371.803
372.748
373.525
374.254
375.165
376.294
377.494
378.581
379.39
379.81
321.586
322.954
323.856
324.626
325.603
326.869
328.232
329.452
330.345
330.803
269.943
271.879
273.154
274.134
275.366
276.999
278.758
280.292
281.369
281.895
216.471
218.514
220.033
221.7
223.858
226.39
228.949
231.127
232.609
233.23
160.647
162.366
163.713
166.62
170.706
174.927
178.68
181.53
183.28
184.161
99.2936
98.5038
101.711
108.358
115.858
122.766
128.525
132.647
135.141
135.765
34.1285
26.7883
32.5
45.1974
58.7162
69.4985
76.3801
80.1608
81.9412
84.1533
3.48407
1.22622
2.43793
6.10797
13.13
22.893
31.6006
37.6179
39.9879
39.7093
-0.187886
-0.167456
-0.145929
-0.139409
-0.101676
0.48425
3.81912
9.25887
9.52768
7.78643
-0.262264
-0.263528
-0.256858
-0.275495
-0.297356
-0.305476
-0.316076
-0.20989
-0.139988
-0.273316
-0.335448
-0.34944
-0.352523
-0.389405
-0.439551
-0.481403
-0.496856
-0.502541
-0.434979
-0.435372
-0.410494
-0.42667
-0.430342
-0.469606
-0.526043
-0.555634
-0.562703
-0.561458
-0.524404
-0.50236
-0.49033
-0.503421
-0.502215
-0.532816
-0.580932
-0.606469
-0.596314
-0.592318
-0.57184
-0.547737
-0.575582
-0.57997
-0.579099
-0.600668
-0.636276
-0.648666
-0.629098
-0.62715
-0.616665
-0.592753
-0.66237
-0.659116
-0.655516
-0.670595
-0.694734
-0.691741
-0.665895
-0.661808
-0.660613
-0.63609
-0.738544
-0.734566
-0.725809
-0.732101
-0.743872
-0.735491
-0.71342
-0.707123
-0.703403
-0.680935
-0.792844
-0.811963
-0.792879
-0.791988
-0.793892
-0.787478
-0.775173
-0.771638
-0.767613
-0.7426
-0.832371
-0.882515
-0.865183
-0.86035
-0.860562
-0.85975
-0.856657
-0.85714
-0.8482
-0.807888
-0.882504
-0.927483
-0.928609
-0.927451
-0.933144
-0.937639
-0.939366
-0.937428
-0.913783
-0.871217
-0.925943
-0.953385
-0.965959
-0.969739
-0.977598
-0.987711
-0.991121
-0.987216
-0.965388
-0.936739
372.743
373.539
374.362
375.209
376.199
377.344
378.526
379.582
380.357
380.752
322.672
323.769
324.751
325.689
326.77
328.046
329.361
330.52
331.365
331.791
271.297
272.89
274.287
275.528
276.867
278.466
280.112
281.525
282.541
283.019
218.181
220.03
221.973
223.967
226.063
228.402
230.758
232.717
233.926
234.455
163.209
165.062
167.182
170.304
173.938
177.542
180.701
183.218
184.966
185.782
105.036
105.571
108.695
114.211
120.525
126.42
131.182
134.684
136.714
137.43
41.664
37.9786
44.2068
54.9987
65.6105
73.1482
77.4049
81.3203
85.5101
87.5132
5.90667
3.47705
5.56033
11.1221
19.3766
27.7598
33.681
36.9626
40.0084
40.4109
-0.216207
-0.214586
-0.208084
-0.193369
-0.00909228
2.32938
7.2929
10.5113
10.7422
9.51348
-0.295147
-0.307193
-0.307594
-0.332068
-0.352299
-0.345162
-0.333045
-0.28346
-0.161604
-0.239191
-0.369814
-0.390049
-0.402642
-0.447979
-0.4936
-0.503816
-0.535179
-0.545497
-0.44696
-0.429639
-0.442178
-0.45993
-0.472086
-0.513791
-0.549785
-0.561789
-0.592276
-0.595897
-0.529735
-0.488367
-0.519407
-0.532855
-0.53748
-0.561585
-0.589096
-0.59788
-0.604211
-0.604731
-0.576261
-0.550154
-0.601964
-0.605701
-0.607814
-0.621714
-0.641361
-0.632873
-0.619083
-0.620306
-0.625491
-0.617915
-0.691099
-0.687505
-0.683402
-0.689266
-0.699482
-0.680026
-0.654569
-0.658827
-0.673714
-0.672551
-0.77176
-0.764231
-0.752007
-0.752991
-0.752039
-0.731911
-0.710991
-0.718652
-0.734714
-0.74433
-0.821453
-0.833723
-0.811147
-0.816339
-0.818457
-0.808103
-0.800821
-0.818983
-0.842219
-0.849087
-0.855747
-0.89418
-0.87676
-0.884209
-0.90598
-0.921082
-0.931582
-0.955218
-0.970858
-0.941705
-0.904988
-0.947053
-0.950352
-0.961941
-0.993171
-1.02534
-1.04613
-1.06215
-1.05244
-0.988342
-0.945148
-0.988697
-1.00219
-1.02015
-1.04958
-1.08337
-1.09829
-1.09429
-1.06136
-1.00555
373.948
374.587
375.405
376.337
377.403
378.577
379.748
380.769
381.506
381.875
324.092
324.905
325.869
326.921
328.105
329.399
330.677
331.79
332.591
332.981
273.241
274.379
275.675
277.04
278.509
280.108
281.676
283.026
283.952
284.345
220.999
222.466
224.26
226.276
228.402
230.65
232.779
234.454
235.543
235.963
167.331
169.102
171.33
174.244
177.385
180.451
183.186
185.552
187.087
187.696
112.07
113.658
116.612
121.005
125.977
130.658
134.527
137.432
139.106
139.528
52.4721
52.2298
58.3614
66.1082
72.8504
78.0029
81.701
86.5198
89.7977
90.4885
8.77458
7.07019
10.8323
18.1605
26.1344
33.4316
37.5008
41.1364
42.9041
41.3084
-0.243767
-0.29038
-0.305992
-0.122203
1.6103
6.20704
11.6762
12.7149
11.7184
8.99162
-0.315373
-0.344417
-0.355648
-0.373742
-0.384201
-0.360302
-0.333677
-0.427855
-0.149222
-0.146073
-0.398025
-0.426837
-0.458213
-0.497909
-0.511498
-0.489856
-0.576225
-0.604632
-0.46866
-0.387003
-0.466101
-0.489569
-0.512831
-0.540945
-0.54914
-0.541914
-0.553881
-0.571643
-0.530866
-0.490682
-0.538392
-0.556383
-0.566049
-0.574337
-0.580537
-0.571895
-0.566003
-0.573586
-0.582584
-0.572001
-0.61857
-0.6225
-0.625501
-0.625295
-0.631833
-0.613526
-0.5974
-0.604695
-0.635404
-0.636754
-0.701517
-0.69879
-0.695383
-0.687828
-0.688567
-0.672329
-0.646493
-0.644586
-0.664584
-0.679177
-0.78088
-0.776067
-0.765591
-0.755996
-0.744496
-0.725799
-0.703677
-0.701156
-0.718439
-0.755569
-0.818491
-0.823191
-0.816478
-0.824554
-0.822296
-0.807811
-0.794358
-0.806442
-0.84311
-0.885144
-0.852408
-0.860052
-0.862725
-0.891596
-0.916177
-0.92598
-0.9301
-0.954351
-0.991591
-0.99266
-0.901985
-0.91771
-0.933196
-0.963517
-0.997499
-1.02371
-1.04404
-1.06798
-1.07243
-1.0283
-0.946363
-0.975497
-0.9958
-1.02039
-1.04669
-1.06935
-1.08412
-1.08842
-1.06441
-1.01474
375.363
375.9
376.691
377.652
378.752
379.931
381.069
382.048
382.748
383.086
325.746
326.391
327.3
328.38
329.591
330.873
332.117
333.189
333.941
334.295
275.481
276.326
277.492
278.847
280.326
281.88
283.377
284.64
285.466
285.762
224.274
225.406
226.985
228.879
230.911
232.955
234.825
236.364
237.318
237.572
172.155
173.635
175.67
178.181
180.855
183.519
186.011
188.104
189.361
189.614
118.903
120.71
123.721
127.449
131.287
134.86
137.686
140.362
141.696
141.671
64.6491
66.3397
71.0563
75.9663
80.8054
84.3422
87.4167
91.3939
93.2598
92.9908
12.1555
12.5674
19.0183
27.3355
34.6042
40.2364
42.9432
45.962
45.5951
42.7139
-0.175416
-0.211191
0.182311
2.17999
6.23023
11.5055
14.8285
14.7755
12.2759
8.39328
-0.328559
-0.364108
-0.396609
-0.41885
-0.407427
-0.354209
-0.168495
-0.214134
-0.171219
-0.168379
-0.427796
-0.459681
-0.501346
-0.520304
-0.502813
-0.463106
-0.493556
-0.567089
-0.497338
-0.410724
-0.483872
-0.514329
-0.54357
-0.5593
-0.559898
-0.538362
-0.49194
-0.506752
-0.530216
-0.513851
-0.543344
-0.570036
-0.584195
-0.582883
-0.584284
-0.574169
-0.543739
-0.547907
-0.587254
-0.594794
-0.619892
-0.627904
-0.633443
-0.62445
-0.621179
-0.61287
-0.596472
-0.586332
-0.621225
-0.640774
-0.69442
-0.692654
-0.692056
-0.678415
-0.670409
-0.664755
-0.644237
-0.618876
-0.620744
-0.653843
-0.76481
-0.773264
-0.765554
-0.745998
-0.727735
-0.713358
-0.692795
-0.671775
-0.669312
-0.720627
-0.803076
-0.82341
-0.824272
-0.816889
-0.802456
-0.788883
-0.772446
-0.76664
-0.798156
-0.84522
-0.841097
-0.847864
-0.861345
-0.877217
-0.880875
-0.878799
-0.87759
-0.888211
-0.914811
-0.927301
-0.888747
-0.88821
-0.909533
-0.939886
-0.952658
-0.954079
-0.956638
-0.963016
-0.971281
-0.958663
-0.937146
-0.945542
-0.971533
-0.995617
-1.00126
-0.998712
-0.997578
-0.99225
-0.975972
-0.951049
376.833
377.308
378.067
379.023
380.118
381.268
382.363
383.299
383.954
384.235
327.437
327.996
328.851
329.906
331.092
332.343
333.547
334.576
335.277
335.573
277.726
278.417
279.467
280.745
282.158
283.621
285.025
286.212
286.942
287.117
227.438
228.392
229.804
231.517
233.344
235.102
236.806
238.237
239.053
239.066
176.978
178.167
179.865
181.939
184.148
186.347
188.497
190.412
191.461
191.225
124.934
126.711
129.853
132.941
135.546
137.683
140.149
142.652
143.903
143.297
75.101
77.2427
80.8376
84.7951
88.8464
90.1318
92.3588
95.1662
96.3435
95.508
21.9223
24.6288
32.374
38.6377
42.7962
46.936
49.9504
51.1691
49.9313
47.206
1.1061
1.6293
5.0956
9.6526
13.9407
16.1485
17.7276
17.8836
15.4318
11.353
-0.404296
-0.448099
-0.435625
-0.419863
-0.265443
0.0820594
0.480054
0.583831
0.0713334
-0.233743
-0.454164
-0.497144
-0.525319
-0.527042
-0.509089
-0.466494
-0.454
-0.522467
-0.547894
-0.495439
-0.488023
-0.529312
-0.562758
-0.580092
-0.594678
-0.572147
-0.52277
-0.514454
-0.541518
-0.535786
-0.535812
-0.571384
-0.592566
-0.592443
-0.591972
-0.588987
-0.578822
-0.563654
-0.591493
-0.608319
-0.609312
-0.621565
-0.632864
-0.622937
-0.606402
-0.598533
-0.602944
-0.588345
-0.604795
-0.630121
-0.678873
-0.675234
-0.677387
-0.667216
-0.650044
-0.638698
-0.62747
-0.605624
-0.59694
-0.627453
-0.744038
-0.744937
-0.740703
-0.727008
-0.708419
-0.692318
-0.67544
-0.654381
-0.64745
-0.68883
-0.792764
-0.811137
-0.816561
-0.801308
-0.781038
-0.765602
-0.750292
-0.739687
-0.755408
-0.790722
-0.836626
-0.853745
-0.869419
-0.866808
-0.853859
-0.843192
-0.834282
-0.833363
-0.846282
-0.862995
-0.883243
-0.893075
-0.912598
-0.922453
-0.916346
-0.907086
-0.901291
-0.899845
-0.901118
-0.902569
-0.931692
-0.939631
-0.960786
-0.97306
-0.96492
-0.952117
-0.944609
-0.936592
-0.922327
-0.910268
378.163
378.595
379.324
380.261
381.33
382.445
383.499
384.389
384.989
385.2
328.974
329.459
330.263
331.277
332.429
333.643
334.811
335.796
336.446
336.668
279.691
280.298
281.25
282.445
283.769
285.128
286.452
287.569
288.215
288.3
230.242
231.036
232.274
233.825
235.376
236.921
238.474
239.813
240.496
240.332
180.922
181.973
183.425
185.095
186.92
188.358
190.282
192.169
193.093
192.486
130.862
132.457
134.981
137.26
138.492
139.368
141.904
144.385
145.451
144.458
83.2524
85.1018
88.087
91.0582
93.5671
94.3141
96.3502
98.3777
98.7813
97.2592
36.5441
38.8321
43.2803
45.9967
49.2883
53.4501
55.9676
56.2265
54.1199
50.503
6.70704
8.17773
13.6101
18.1117
19.54
20.1499
22.0412
22.4182
19.6197
14.7658
-0.378446
-0.487918
-0.431259
-0.244748
0.0760485
0.74694
1.61156
1.62441
0.604129
-0.0282764
-0.432726
-0.510131
-0.549397
-0.553607
-0.537501
-0.464374
-0.474932
-0.64599
-0.665477
-0.510036
-0.466419
-0.525423
-0.581385
-0.612364
-0.628661
-0.575084
-0.533327
-0.556623
-0.579881
-0.538063
-0.520886
-0.564354
-0.598441
-0.60561
-0.599909
-0.589164
-0.582082
-0.586866
-0.614946
-0.603904
-0.59262
-0.609142
-0.625374
-0.617436
-0.586596
-0.568593
-0.580465
-0.593073
-0.612618
-0.615776
-0.662685
-0.659755
-0.664708
-0.655294
-0.627758
-0.603358
-0.597502
-0.600054
-0.604549
-0.622523
-0.728303
-0.719739
-0.712706
-0.705996
-0.6898
-0.670242
-0.659071
-0.649278
-0.662457
-0.694442
-0.782932
-0.784547
-0.781803
-0.774728
-0.758768
-0.743814
-0.735528
-0.730542
-0.749084
-0.778836
-0.832581
-0.844285
-0.852564
-0.846862
-0.830605
-0.818367
-0.811129
-0.809288
-0.821223
-0.842468
-0.880987
-0.897358
-0.912052
-0.912872
-0.896484
-0.882914
-0.874818
-0.871495
-0.871248
-0.876008
-0.926302
-0.944667
-0.96158
-0.968361
-0.950958
-0.931869
-0.922514
-0.914791
-0.90217
-0.896068
379.144
379.554
380.266
381.182
382.228
383.319
384.339
385.181
385.729
385.914
330.098
330.545
331.308
332.293
333.42
334.607
335.746
336.692
337.315
337.497
281.104
281.647
282.541
283.677
284.939
286.229
287.487
288.525
289.143
289.224
232.166
232.884
233.977
235.343
236.783
238.225
239.684
240.858
241.442
241.276
183.508
184.43
185.724
187.12
188.501
189.91
191.825
193.38
193.962
193.256
134.673
136.049
138.041
139.425
139.832
140.706
143.691
145.615
146.004
144.771
88.2954
89.6349
91.5576
92.8136
93.5034
95.0972
98.6504
99.8316
99.1483
96.9104
44.8042
45.5586
46.9278
48.2183
51.2668
55.8524
58.0969
57.2118
53.6482
49.1074
10.9462
12.4176
15.5586
15.5854
17.189
22.3757
25.6787
23.2512
17.9775
12.5856
-0.219636
-0.484257
-0.469581
-0.354509
-0.110797
1.3662
3.10343
1.95307
0.292819
-0.00291636
-0.394057
-0.509341
-0.555419
-0.568323
-0.579311
-0.501403
-0.537259
-0.749015
-0.652947
-0.422952
-0.441827
-0.516893
-0.610834
-0.651542
-0.630845
-0.566131
-0.545793
-0.601443
-0.605917
-0.516013
-0.509363
-0.556799
-0.605408
-0.621204
-0.61112
-0.581886
-0.584611
-0.622766
-0.643586
-0.586375
-0.579213
-0.598434
-0.606033
-0.61107
-0.572238
-0.545841
-0.568545
-0.616467
-0.635055
-0.607496
-0.648684
-0.652867
-0.656792
-0.639053
-0.606949
-0.577296
-0.583701
-0.614976
-0.632746
-0.642569
-0.716569
-0.709938
-0.705106
-0.691614
-0.67604
-0.654467
-0.649413
-0.659128
-0.692665
-0.715553
-0.7751
-0.769431
-0.760784
-0.754772
-0.74527
-0.731518
-0.727617
-0.731412
-0.757425
-0.780145
-0.827914
-0.827999
-0.822076
-0.819764
-0.812175
-0.8032
-0.800266
-0.80113
-0.814416
-0.828291
-0.876784
-0.883946
-0.883449
-0.883795
-0.874205
-0.865802
-0.862137
-0.859333
-0.860627
-0.861828
-0.92124
-0.933126
-0.937555
-0.939909
-0.92804
-0.917967
-0.911203
-0.904739
-0.896098
-0.889192
379.637
380.035
380.737
381.643
382.681
383.764
384.752
385.533
386.061
386.363
330.656
331.082
331.823
332.796
333.92
335.116
336.234
337.111
337.693
338.106
281.781
282.294
283.162
284.278
285.511
286.786
287.979
288.904
289.485
289.736
233.022
233.702
234.731
236.045
237.484
238.92
240.221
241.135
241.606
241.609
184.504
185.364
186.582
187.997
189.551
191.247
192.707
193.49
193.649
193.356
135.863
137.06
138.773
140.003
141.075
143.026
144.903
145.582
145.191
144.133
89.4445
90.3716
91.5542
91.8908
93.1729
96.3335
98.7525
98.8845
97.2157
95.0489
43.6255
44.8937
45.6775
46.7945
49.7567
53.5729
55.7383
54.4063
49.1918
44.5326
9.16382
11.332
11.986
12.4746
16.5726
19.8232
21.4508
18.6996
12.603
8.68307
-0.144548
-0.285625
-0.381338
-0.330945
0.0359841
0.773287
1.41618
0.396607
0.0587059
-0.0552161
-0.343185
-0.458453
-0.530378
-0.567636
-0.564342
-0.513514
-0.594779
-0.689981
-0.482369
-0.316422
-0.42806
-0.512414
-0.626669
-0.674654
-0.632344
-0.558603
-0.571242
-0.636739
-0.584712
-0.469698
-0.507488
-0.555346
-0.61268
-0.642463
-0.627337
-0.587074
-0.609842
-0.668513
-0.646817
-0.559333
-0.576496
-0.592688
-0.579951
-0.603235
-0.57839
-0.554383
-0.591608
-0.653928
-0.662426
-0.623214
-0.643536
-0.653126
-0.641325
-0.630332
-0.594828
-0.576707
-0.602029
-0.646608
-0.677162
-0.682857
-0.707594
-0.708615
-0.704406
-0.677931
-0.67429
-0.660584
-0.660099
-0.68633
-0.722774
-0.7371
-0.76494
-0.761762
-0.756141
-0.746323
-0.741702
-0.734776
-0.732818
-0.743984
-0.768841
-0.782035
-0.816744
-0.813247
-0.806748
-0.806754
-0.80513
-0.801257
-0.799845
-0.804094
-0.816328
-0.821916
-0.867047
-0.864343
-0.858253
-0.863353
-0.86354
-0.860371
-0.859875
-0.859291
-0.858078
-0.858297
-0.914363
-0.912786
-0.907121
-0.914443
-0.916259
-0.91298
-0.909704
-0.904065
-0.895973
-0.895066
379.589
379.983
380.673
381.568
382.593
383.659
384.624
385.391
385.913
386.237
330.59
331.01
331.74
332.698
333.809
334.986
336.075
336.927
337.495
337.842
281.675
282.177
283.03
284.144
285.367
286.606
287.741
288.646
289.245
289.467
232.777
233.463
234.46
235.782
237.233
238.634
239.859
240.721
241.261
241.364
183.858
184.701
185.955
187.531
189.219
190.778
192.012
192.679
192.967
192.855
134.608
135.851
137.59
139.428
141.25
142.8
143.852
144.241
143.924
142.937
85.5415
86.9867
89.3369
90.8405
93.0035
95.0424
96.4335
96.5526
94.9031
92.7409
37.2118
39.5778
42.8382
44.8945
47.792
49.5735
50.9699
49.9434
44.7696
40.6982
5.25337
7.92649
10.3767
12.3484
14.7818
14.8589
15.7429
13.313
8.84728
6.55476
-0.103715
-0.196131
-0.243754
-0.21925
-0.140584
-0.0741715
0.0252164
-0.0636038
-0.0624555
-0.0462858
-0.290671
-0.374537
-0.467265
-0.536301
-0.52544
-0.49201
-0.584798
-0.565651
-0.380692
-0.259911
-0.411389
-0.501191
-0.625477
-0.679444
-0.625956
-0.559467
-0.611005
-0.638934
-0.545124
-0.429382
-0.497683
-0.550634
-0.6233
-0.66467
-0.644991
-0.611252
-0.661461
-0.697414
-0.643011
-0.565095
-0.569193
-0.585844
-0.564733
-0.596535
-0.597534
-0.593036
-0.648123
-0.697545
-0.689224
-0.661286
-0.638612
-0.644312
-0.610863
-0.609507
-0.614755
-0.622425
-0.655021
-0.701274
-0.72642
-0.722543
-0.702867
-0.706699
-0.687555
-0.655027
-0.680245
-0.691542
-0.700908
-0.72961
-0.760461
-0.762985
-0.764751
-0.765071
-0.752764
-0.743319
-0.747322
-0.752411
-0.759213
-0.774288
-0.79692
-0.803344
-0.814424
-0.812821
-0.808007
-0.804132
-0.810078
-0.814409
-0.819832
-0.827015
-0.840787
-0.848683
-0.861166
-0.859373
-0.856131
-0.858242
-0.864766
-0.868318
-0.873811
-0.878489
-0.886152
-0.899197
-0.907988
-0.905005
-0.903853
-0.9105
-0.917641
-0.91779
-0.92092
-0.923614
-0.928801
-0.945247
379.027
379.421
380.1
380.977
381.978
383.018
383.978
384.772
385.318
385.539
329.951
330.373
331.094
332.027
333.109
334.244
335.304
336.184
336.789
337.013
280.877
281.396
282.245
283.342
284.559
285.787
286.904
287.798
288.409
288.591
231.685
232.365
233.38
234.708
236.17
237.595
238.835
239.744
240.338
240.3
182.357
183.178
184.409
186.011
187.781
189.455
190.742
191.476
191.77
191.495
132.339
133.536
135.346
137.368
139.406
141.182
142.28
142.592
142.122
141.379
80.8261
81.8845
84.7814
87.454
90.1736
92.5149
93.9556
94.0725
92.4004
90.4612
31.213
33.7762
38.0317
41.4035
44.2403
46.178
47.176
46.3842
41.8179
38.1274
3.3004
4.51269
8.18239
11.1537
12.5345
12.806
12.6286
10.3921
7.31475
5.50695
-0.18464
-0.221213
-0.257303
-0.286089
-0.255024
-0.230682
-0.26387
-0.238073
-0.136865
0.101331
-0.291727
-0.358591
-0.446478
-0.512428
-0.496958
-0.469106
-0.552387
-0.511336
-0.355958
-0.19948
-0.427722
-0.510745
-0.624889
-0.68325
-0.622232
-0.570505
-0.634938
-0.624691
-0.527482
-0.41566
-0.510704
-0.571243
-0.651612
-0.690523
-0.665158
-0.650648
-0.705947
-0.706373
-0.648446
-0.591726
-0.581033
-0.597111
-0.593233
-0.6155
-0.62998
-0.65549
-0.720123
-0.741617
-0.72513
-0.704801
-0.648163
-0.650321
-0.623014
-0.606586
-0.643159
-0.706349
-0.749229
-0.770935
-0.780046
-0.767592
-0.711973
-0.711312
-0.701018
-0.670288
-0.703332
-0.7524
-0.773127
-0.787366
-0.808829
-0.813617
-0.769239
-0.763024
-0.76335
-0.752269
-0.769554
-0.78528
-0.801486
-0.819751
-0.845958
-0.869428
-0.811963
-0.804193
-0.803431
-0.810568
-0.827633
-0.840543
-0.850472
-0.868816
-0.8992
-0.937266
-0.856514
-0.837199
-0.839033
-0.858996
-0.878257
-0.888017
-0.89892
-0.922287
-0.959457
-0.999026
-0.899791
-0.888398
-0.879857
-0.911731
-0.926578
-0.932122
-0.945279
-0.974375
-1.01275
-1.04362
378.037
378.439
379.116
379.988
380.984
382.02
382.991
383.814
384.398
384.646
328.847
329.296
330.023
330.94
332.007
333.131
334.19
335.082
335.707
335.966
279.547
280.092
280.963
282.059
283.277
284.521
285.662
286.583
287.197
287.362
230.002
230.692
231.73
233.075
234.552
236.008
237.298
238.28
238.953
238.966
180.218
181.112
182.294
183.876
185.667
187.431
188.883
189.84
190.312
190.206
129.572
130.675
132.589
134.699
136.824
138.78
140.26
141.043
140.807
140.395
76.9204
78.0143
80.2871
82.8234
85.8918
89.1958
91.6296
92.5252
91.3312
89.8797
28.4946
29.3885
34.0311
36.7002
39.6631
42.8456
44.8619
44.5664
41.1285
37.4423
3.27592
2.52795
4.63971
7.12505
9.0297
11.4684
11.9918
10.334
7.20536
5.33633
-0.286337
-0.309557
-0.332937
-0.3792
-0.366407
-0.366291
-0.36948
-0.305602
-0.16507
0.105174
-0.358645
-0.397391
-0.457675
-0.507311
-0.491453
-0.467237
-0.544026
-0.515582
-0.370876
-0.202207
-0.471481
-0.529909
-0.620367
-0.679477
-0.625685
-0.585314
-0.645096
-0.626077
-0.536993
-0.431551
-0.548328
-0.599232
-0.662241
-0.698526
-0.680065
-0.68557
-0.731024
-0.713725
-0.668542
-0.620867
-0.611494
-0.630674
-0.626904
-0.637194
-0.658766
-0.716459
-0.785073
-0.782549
-0.767858
-0.744174
-0.676745
-0.677542
-0.65103
-0.624202
-0.669584
-0.786001
-0.859641
-0.849555
-0.837844
-0.820381
-0.734627
-0.729209
-0.715793
-0.686771
-0.72882
-0.824832
-0.863756
-0.861665
-0.869958
-0.881091
-0.787933
-0.780952
-0.775163
-0.765035
-0.775813
-0.806987
-0.843802
-0.87578
-0.910271
-0.951191
-0.834173
-0.824201
-0.824677
-0.826069
-0.837188
-0.862368
-0.888836
-0.924656
-0.97594
-1.03293
-0.8732
-0.852435
-0.86051
-0.879787
-0.901632
-0.920269
-0.943259
-0.98826
-1.05395
-1.10683
-0.912364
-0.890443
-0.904143
-0.927502
-0.955456
-0.967759
-0.994241
-1.05167
-1.12015
-1.14818
376.737
377.165
377.858
378.735
379.745
380.804
381.804
382.672
383.301
383.596
327.416
327.899
328.658
329.598
330.664
331.801
332.887
333.822
334.496
334.816
277.808
278.403
279.319
280.455
281.71
283.001
284.202
285.203
285.896
286.155
227.85
228.573
229.663
231.057
232.601
234.153
235.548
236.672
237.468
237.699
177.598
178.489
179.751
181.378
183.216
185.115
186.787
188.083
188.887
189.145
126.672
127.489
129.332
131.556
134.054
136.126
137.989
139.469
139.919
139.966
74.3896
74.9578
77.2982
79.1793
81.3632
84.9736
88.3662
90.9789
91.1702
90.5061
27.3803
26.8006
30.0297
32.0964
35.1353
37.9245
41.2121
43.4823
41.752
39.0506
3.64994
1.94063
2.7571
3.43462
4.40477
6.8408
9.93311
10.9161
8.46876
6.49925
-0.339151
-0.339885
-0.348352
-0.399398
-0.382049
-0.448265
-0.603499
-0.436098
-0.219848
-0.0633957
-0.408232
-0.425261
-0.464425
-0.51568
-0.49777
-0.461009
-0.566987
-0.563662
-0.427782
-0.278274
-0.499971
-0.532549
-0.594803
-0.65671
-0.622734
-0.613802
-0.668493
-0.643064
-0.564158
-0.466511
-0.571936
-0.595767
-0.640735
-0.67379
-0.671264
-0.715741
-0.751187
-0.727961
-0.689852
-0.636522
-0.629013
-0.6321
-0.634693
-0.636927
-0.658145
-0.761906
-0.829618
-0.820418
-0.799439
-0.760923
-0.68445
-0.676536
-0.663759
-0.641634
-0.677301
-0.829955
-0.938467
-0.918978
-0.887587
-0.852601
-0.741742
-0.733804
-0.718782
-0.702957
-0.741238
-0.860789
-0.942462
-0.935069
-0.924974
-0.921353
-0.79808
-0.797398
-0.778063
-0.782064
-0.781524
-0.823147
-0.875921
-0.925641
-0.960286
-0.994124
-0.847751
-0.853389
-0.838588
-0.848801
-0.842402
-0.870199
-0.919375
-0.974048
-1.03051
-1.08024
-0.891219
-0.88925
-0.883757
-0.900063
-0.91601
-0.938052
-0.983805
-1.04794
-1.11673
-1.15999
-0.935975
-0.934321
-0.935557
-0.947197
-0.968976
-0.99564
-1.04399
-1.12341
-1.19245
-1.21581
375.257
375.738
376.471
377.37
378.398
379.498
380.55
381.467
382.142
382.479
325.756
326.315
327.14
328.129
329.231
330.401
331.535
332.529
333.259
333.628
275.76
276.462
277.48
278.693
280.021
281.4
282.703
283.817
284.621
284.985
225.209
226.054
227.298
228.839
230.509
232.223
233.816
235.147
236.1
236.542
174.24
175.204
176.637
178.539
180.645
182.779
184.763
186.427
187.566
188.244
122.765
123.429
125.305
127.756
130.571
133.399
135.85
137.924
139.085
139.861
70.9844
70.6223
73.1447
75.5856
78.3399
81.4951
85.0551
88.7784
90.8619
91.4261
25.9097
24.4691
27.0648
28.1418
30.2498
33.6802
37.0478
41.6302
43.1913
41.6534
3.38277
1.50749
1.99878
2.16955
2.44883
3.07809
5.77015
10.1137
10.5004
8.59411
-0.373409
-0.353932
-0.34259
-0.391135
-0.367413
-0.394145
-0.66231
-0.650183
-0.302672
-0.152699
-0.439141
-0.436954
-0.455498
-0.510619
-0.493028
-0.478791
-0.571647
-0.60394
-0.501618
-0.358888
-0.51703
-0.528156
-0.558295
-0.60761
-0.592169
-0.626887
-0.685951
-0.66319
-0.591186
-0.500483
-0.584246
-0.591751
-0.607007
-0.621569
-0.63242
-0.718193
-0.754862
-0.739853
-0.704931
-0.642938
-0.638825
-0.638604
-0.637797
-0.620306
-0.633812
-0.775655
-0.841018
-0.841264
-0.818494
-0.764728
-0.692696
-0.689865
-0.674665
-0.662921
-0.68847
-0.842802
-0.958732
-0.954604
-0.916491
-0.864418
-0.747283
-0.749864
-0.725098
-0.732663
-0.762379
-0.870599
-0.970976
-0.984991
-0.956677
-0.933541
-0.801602
-0.818296
-0.790612
-0.815257
-0.812012
-0.852425
-0.910235
-0.955627
-0.98394
-1.00111
-0.849295
-0.881824
-0.865859
-0.889021
-0.895702
-0.917116
-0.961315
-1.0141
-1.0588
-1.08428
-0.890274
-0.915413
-0.91361
-0.943599
-0.969942
-0.999332
-1.05529
-1.11734
-1.15923
-1.16821
-0.936194
-0.953944
-0.963411
-0.973554
-1.00124
-1.0476
-1.12233
-1.20698
-1.24698
-1.23066
373.731
374.308
375.105
376.031
377.075
378.208
379.32
380.295
381.008
381.365
324.003
324.714
325.641
326.678
327.821
329.042
330.235
331.293
332.073
332.473
273.495
274.449
275.655
276.965
278.351
279.826
281.258
282.498
283.404
283.846
222.074
223.23
224.801
226.6
228.438
230.33
232.164
233.731
234.853
235.458
169.902
171.142
173.006
175.444
177.99
180.494
182.84
184.918
186.404
187.567
117.037
117.778
120.03
123.359
126.973
130.486
133.836
136.51
138.286
139.616
64.1585
62.8026
65.9649
70.238
74.5647
78.7282
82.6294
86.6438
89.9768
91.7415
20.8498
18.7468
21.6442
24.3099
26.6118
29.7579
34.3557
39.5701
43.7937
44.1716
0.750156
0.142876
0.714912
1.37739
2.04346
2.15764
3.23188
7.65046
11.9617
11.1105
-0.357881
-0.337353
-0.328903
-0.364454
-0.344576
-0.38243
-0.598769
-0.713217
-0.458636
-0.203297
-0.448973
-0.438421
-0.441264
-0.470925
-0.461248
-0.47247
-0.549504
-0.600077
-0.564304
-0.442136
-0.525047
-0.524706
-0.522363
-0.529461
-0.542626
-0.604277
-0.669517
-0.660423
-0.604833
-0.525018
-0.594264
-0.59827
-0.583446
-0.5525
-0.583916
-0.687778
-0.727456
-0.730612
-0.70781
-0.646803
-0.647887
-0.657517
-0.637788
-0.600461
-0.617913
-0.757683
-0.812352
-0.828632
-0.817006
-0.765167
-0.702339
-0.717073
-0.697582
-0.675628
-0.696564
-0.828792
-0.926021
-0.937299
-0.912259
-0.862927
-0.756751
-0.77601
-0.762311
-0.765963
-0.785932
-0.872287
-0.959429
-0.9784
-0.95629
-0.922838
-0.80714
-0.839457
-0.836095
-0.859319
-0.865884
-0.898012
-0.942456
-0.966263
-0.971582
-0.970058
-0.850758
-0.901158
-0.916605
-0.950885
-0.972817
-0.987545
-1.00828
-1.02453
-1.03253
-1.03338
-0.88508
-0.929785
-0.957512
-1.01417
-1.07916
-1.11424
-1.13279
-1.14682
-1.13754
-1.10377
-0.923658
-0.94795
-0.982774
-1.0216
-1.08987
-1.16166
-1.22466
-1.24697
-1.21975
-1.1596
372.297
373.026
373.888
374.82
375.871
377.031
378.192
379.222
379.974
380.345
322.311
323.284
324.316
325.366
326.517
327.79
329.056
330.172
331.003
331.428
271.197
272.592
274.03
275.401
276.803
278.355
279.914
281.28
282.274
282.78
218.703
220.321
222.339
224.414
226.429
228.523
230.586
232.402
233.683
234.398
164.851
166.442
168.827
171.966
175.198
178.229
181.022
183.416