/*--------------------------------*- C++ -*----------------------------------*\
| =========                 |                                                 |
| \\      /  F ield         | OpenFOAM: The Open Source CFD Toolbox           |
|  \\    /   O peration     | Version:  2312                                  |
|   \\  /    A nd           | Website:  www.openfoam.com                      |
|    \\/     M anipulation  |                                                 |
\*---------------------------------------------------------------------------*/
FoamFile
{
    version     2.0;
    format      ascii;
    arch        "LSB;label=32;scalar=64";
    class       volScalarField;
    location    "1.08";
    object      p_rgh;
}
// * * * * * * * * * * * * * * * * * * * * * * * * * * * * * * * * * * * * * //

dimensions      [1 -1 -2 0 0 0 0];

internalField   nonuniform List<scalar> 
8000
(
402.44
401.885
401.495
401.282
401.243
401.369
401.629
401.968
402.265
402.269
402.443
401.862
401.44
401.192
401.114
401.179
401.324
401.744
402.328
402.284
402.468
401.775
401.291
400.982
400.804
400.673
400.751
401.441
402.141
402.051
402.374
401.621
401.088
400.703
400.394
400.11
399.942
400.032
398.946
398.91
402.018
401.234
400.704
400.26
399.843
399.431
398.977
398.158
395.357
395.75
401.171
400.262
399.675
399.159
398.619
398.036
397.567
396.589
394.876
393.76
399.844
398.817
398.138
397.431
396.401
395.156
394.087
392.148
389.577
388.508
359.933
357.939
357.651
353.83
344.61
335.158
324.791
306.153
291.87
290.695
82.7501
77.5511
73.6167
69.2479
59.9213
51.755
44.3519
35.5387
28.1853
28.9608
0.318186
0.254309
0.227375
0.21384
0.201539
0.195712
0.200184
0.204712
0.203708
0.20062
0.265651
0.443805
0.399262
0.300587
0.174426
0.161866
0.154578
0.152708
0.158087
0.162693
0.506245
0.571988
0.588047
0.587178
0.242055
0.134354
0.119627
0.116595
0.125099
0.132549
0.569236
0.588782
0.597939
0.597739
0.549409
0.139899
0.0931568
0.0927832
0.10525
0.115791
0.578885
0.58894
0.594475
0.595733
0.584405
0.32099
0.0671085
0.0771363
0.0938802
0.115954
0.51396
0.581548
0.584908
0.578951
0.565046
0.482486
0.0475011
0.0616304
0.0932301
0.331021
0.0329365
0.418183
0.528014
0.347318
0.44693
0.497112
0.0470841
0.0456319
0.108549
0.389508
0.0198845
0.0147662
0.0224783
-0.0174665
-0.0519362
0.195173
0.0124352
0.0302776
0.247935
0.39612
0.033393
0.0371916
0.0298217
0.00162805
-0.0388027
-0.0649761
0.0215369
0.113223
0.314941
0.322012
0.0723561
0.0653633
0.0573812
0.0372786
0.00610173
-0.00577836
0.0360461
0.124761
0.152806
0.0598623
0.182255
0.14062
0.0773415
0.0617056
0.050365
0.0535051
0.068353
0.0713579
0.0637943
0.0649076
402.27
401.725
401.355
401.174
401.183
401.385
401.768
402.158
402.337
402.207
402.261
401.689
401.293
401.086
401.063
401.219
401.502
401.874
402.183
402.131
402.289
401.609
401.161
400.899
400.788
400.696
400.648
401.064
401.62
402.089
402.206
401.472
400.962
400.625
400.38
400.023
399.59
399.553
398.823
400.635
401.808
401.112
400.71
400.385
400.074
399.646
399.067
398.679
397.19
398.311
400.989
400.154
399.699
399.354
398.997
398.536
398.101
397.173
396.736
396.508
399.49
398.463
397.969
397.669
397.112
396.259
395.306
393.492
393.134
393.119
362.242
359.484
361.66
362.551
358.376
349.282
335.593
325.579
330.905
324.951
86.5722
78.287
72.6338
71.1837
68.1789
61.26
51.664
46.1599
47.424
49.095
0.182311
0.181007
0.186775
0.188252
0.182408
0.17337
0.172143
0.174293
0.182571
0.187576
0.114086
0.144848
0.155503
0.160421
0.156145
0.141772
0.134791
0.139886
0.136186
0.146222
0.167114
0.285604
0.331476
0.218765
0.137994
0.116765
0.148502
0.244869
0.193904
0.117469
0.421021
0.582347
0.604674
0.583153
0.277938
0.106126
0.0993382
0.243507
0.199146
0.10353
0.479707
0.580844
0.599595
0.601056
0.59331
0.288512
0.0716019
0.0893994
0.167101
0.0977
0.41427
0.55489
0.570407
0.498879
0.569074
0.5441
0.142711
0.0586147
0.0933296
0.0922825
0.338352
0.48018
0.2282
-0.00271939
0.211866
0.511055
0.159162
0.0472801
0.0991288
0.244963
0.0809718
0.0257338
-0.00112487
-0.0261799
-0.0616981
0.360638
0.0559991
0.0334268
0.134066
0.398399
0.0014877
0.0584511
0.0246887
-0.00702103
-0.0549236
-0.0858234
0.0306322
0.0343308
0.120814
0.28559
0.0221949
0.0519989
0.0941068
0.0317544
-0.00836692
-0.0167028
0.0179824
0.114832
0.212728
0.0592083
0.0351321
0.0885834
0.352964
0.176872
0.0458244
0.0671378
0.111338
0.152675
0.113186
0.063028
401.882
401.358
401.03
400.921
401.043
401.434
402.117
402.581
402.336
402.144
401.844
401.295
400.953
400.837
400.959
401.333
401.898
402.262
402.028
401.869
401.777
401.184
400.818
400.67
400.697
400.768
400.97
401.363
401.18
401.716
401.65
400.991
400.581
400.391
400.31
400.125
399.908
400.266
400.376
401.175
401.437
400.746
400.421
400.266
400.213
400.041
399.827
400.079
400.274
400.243
400.909
400.2
400.012
399.926
399.93
399.779
399.625
399.584
399.679
399.343
399.955
398.957
398.49
398.644
398.919
398.885
398.593
398.165
398.122
398.257
366.115
362.574
369.996
378.895
381.171
378.225
370.609
366.955
368.903
373.191
109.08
101.046
93.9528
92.5518
97.8642
98.4896
91.4514
87.5611
90.1395
99.6575
0.107323
0.141116
0.159539
0.172015
0.165912
0.155533
0.154797
0.147613
0.154281
0.166366
0.0726055
0.105749
0.131132
0.148611
0.143037
0.131569
0.165525
0.16443
0.118601
0.122196
0.0698219
0.10808
0.131822
0.134089
0.142682
0.187195
0.292342
0.286408
0.298872
0.113502
0.100019
0.138804
0.214581
0.184329
0.134382
0.161931
0.292024
0.293807
0.297674
0.0988829
0.130617
0.500596
0.618782
0.573284
0.310879
0.163199
0.180352
0.275065
0.132872
0.0888723
0.525138
0.571474
0.58285
0.401276
0.567915
0.422142
0.122242
0.146998
0.0931679
0.0887239
0.483028
0.537842
0.195284
0.0111966
0.259685
0.536889
0.14494
0.106053
0.164614
0.0984669
0.33392
0.547395
0.0246665
-0.00799407
-0.0259284
0.509593
0.0979898
0.0588359
0.296476
0.340228
0.000886368
0.390916
0.140582
0.00467902
0.00683741
0.0490395
0.0452868
0.064444
0.28419
0.078615
-0.00175618
0.111576
0.320322
0.12082
0.00986572
0.00741061
0.0428663
0.0930202
0.215263
0.0606278
0.0147932
0.0745917
0.336918
0.522467
0.150098
0.112592
0.160784
0.151706
0.18563
0.0970985
401.272
400.763
400.479
400.447
400.668
401.147
401.887
402.537
402.222
402.107
401.186
400.658
400.369
400.348
400.602
401.162
401.998
402.484
402.118
401.954
401.044
400.488
400.198
400.188
400.442
400.861
401.361
401.791
401.476
401.669
400.814
400.211
399.909
399.907
400.143
400.427
400.663
401.165
401.147
401.772
400.597
399.982
399.755
399.871
400.232
400.667
401.03
401.443
401.627
402.01
400.247
399.661
399.58
400.04
400.595
401.043
401.426
401.719
402.175
402.366
400.18
399.359
398.971
399.058
399.824
400.757
401.381
401.804
402.234
402.529
373.374
368.129
369.013
377.826
391.419
394.755
392.923
391.309
391.053
394.351
120.052
117.728
119.953
117.026
122.221
132.694
133.671
132.251
135.18
150.11
0.204194
0.278347
0.138972
0.152709
0.157964
0.165669
0.173719
0.154515
0.144936
0.161499
0.107739
0.10827
0.120905
0.130902
0.135189
0.126238
0.188819
0.123855
0.0893418
0.109828
0.092373
0.103783
0.10915
0.149749
0.196483
0.259464
0.280869
0.256076
0.120199
0.0879173
0.099639
0.115639
0.112845
0.0941331
0.0959368
0.296597
0.273396
0.263498
0.175708
0.0736697
0.141028
0.109709
0.0985903
0.0820487
0.0634849
0.16358
0.288392
0.270314
0.0514726
0.0794507
0.519374
0.421549
0.173707
0.179312
0.0758929
0.183688
0.314489
0.192376
0.0794926
0.0847818
0.475555
0.545081
0.128072
0.0346157
0.0976927
0.238272
0.326851
0.247293
0.0884947
0.0926956
0.336189
0.536634
0.11202
0.0112898
0.0507749
0.365152
0.334877
0.172276
0.0745536
0.0820886
0.0531912
0.565406
0.2928
0.0152732
0.0178134
0.123259
0.0788922
0.0877423
0.100001
0.0812691
0.00162465
0.595606
0.481052
0.0420137
0.0305555
0.0342161
0.0994722
0.219861
0.352361
0.107156
-0.0015957
0.154207
0.481275
0.203682
0.12072
0.0866629
0.353292
0.389398
0.34682
0.315299
400.459
399.955
399.71
399.75
400.063
400.604
401.295
401.931
401.951
401.998
400.291
399.771
399.531
399.599
399.966
400.606
401.433
402.099
402.031
402.066
399.97
399.439
399.223
399.353
399.813
400.553
401.278
401.822
401.944
402.124
399.503
398.952
398.772
398.983
399.545
400.269
401.002
401.609
402.037
402.525
398.97
398.436
398.379
398.796
399.674
400.743
401.731
402.388
402.997
403.489
398.381
397.861
397.962
398.719
400.239
401.523
402.714
403.518
404.21
404.772
398.379
397.723
397.698
398.201
399.145
401.139
403.162
404.645
405.396
406.062
363.008
358.408
357.605
357.53
372.818
398.374
404.151
405.382
404.439
405.441
108.825
109.934
116.527
122.991
132.057
149.075
172.183
181.568
180.847
196.642
0.284165
0.975107
1.17558
0.118221
0.163498
0.194284
0.206483
0.190339
0.160875
0.166915
0.136296
0.107201
0.0972118
0.106881
0.125774
0.145288
0.16015
0.111488
0.0821887
0.110147
0.109741
0.102669
0.0906204
0.130053
0.128554
0.234837
0.286928
0.196311
0.0370899
0.0597001
0.0945957
0.0949155
0.0851227
0.0863201
0.107099
0.293049
0.268515
0.221884
0.0708903
0.0463524
0.258352
0.0867516
0.0774609
0.0722219
0.157341
0.2938
0.284986
0.139092
0.0535792
0.0659229
0.489966
0.31244
0.0606928
0.0478101
0.14694
0.289542
0.189373
0.0588077
0.08935
0.0908964
0.47076
0.521618
0.0472491
0.0293547
0.0594552
0.129735
0.095112
0.0791544
0.121837
0.100529
0.0766612
0.528323
0.333689
0.0269486
0.0241334
0.0337806
0.0932374
0.246835
0.284971
0.0871755
0.0754576
0.551047
0.533187
0.0415645
0.029468
0.028097
0.2121
0.288191
0.290423
0.166931
0.0523243
0.34661
0.555151
0.323235
0.0369275
0.0128112
0.252596
0.299128
0.296674
0.31554
0.00462744
0.0723036
0.55161
0.540584
0.25111
-0.0146757
0.0432118
0.183899
0.314548
0.331254
399.49
398.982
398.77
398.883
399.291
399.919
400.647
401.309
401.616
401.783
399.207
398.675
398.477
398.636
399.119
399.851
400.703
401.47
401.78
401.973
398.565
398.041
397.904
398.182
398.832
399.762
400.786
401.61
402.108
402.373
397.628
397.099
397.045
397.498
398.394
399.559
400.706
401.805
402.682
403.161
396.342
395.838
395.992
396.778
398.134
399.855
401.568
402.825
403.928
404.543
394.814
394.309
394.711
395.927
397.914
400.441
402.77
404.467
405.488
406.417
393.897
393.327
393.829
395.148
397.155
399.494
403.342
406.216
407.386
408.705
327.621
323.852
325.025
331.168
340.667
369.938
405.401
411.726
412.18
412.371
78.29
79.5563
87.4173
99.1826
118.803
145.012
182.316
217.025
223.115
236.742
0.301002
1.38886
2.95756
2.80093
0.201943
0.203033
0.214165
0.22279
0.20045
0.216946
0.162016
0.116267
0.0710897
0.0693818
0.114704
0.153429
0.15413
0.131363
0.0956579
0.11487
0.127328
0.110439
0.0861398
0.0755614
0.0912907
0.120855
0.129063
0.0983187
0.102718
0.0698713
0.208506
0.0896841
0.0760325
0.0758806
0.0877968
0.122505
0.109452
0.105171
0.149043
0.0430244
0.435917
0.255378
0.0727877
0.0715929
0.0833199
0.0849382
0.0445329
0.0190165
0.0263784
0.0573428
0.447989
0.463835
0.0829604
0.0502965
0.0538362
0.0478275
0.0364286
0.0361012
0.0458652
0.131611
0.173517
0.495959
0.41367
0.0382025
0.0253644
0.0173169
0.0318601
0.046303
0.114765
0.105565
0.0175515
0.485376
0.511838
0.150172
0.0265186
0.0133196
0.0254934
0.0411643
0.1301
0.194879
0.0427946
0.120992
0.523104
0.518923
0.172206
0.095092
0.00861585
0.0271067
0.0590033
0.295039
0.096355
0.0313143
0.354878
0.545604
0.535932
0.230503
0.00755194
0.0151632
0.036934
0.303941
0.101825
0.0183125
0.00309828
0.473738
0.528629
0.112077
0.0512192
0.00164208
0.0784079
0.127691
398.433
397.915
397.735
397.918
398.426
399.166
400
400.754
401.238
401.487
397.996
397.444
397.282
397.531
398.144
399.012
399.981
400.88
401.445
401.741
396.942
396.392
396.315
396.74
397.605
398.77
400.034
401.155
401.919
402.311
395.3
394.742
394.804
395.504
396.759
398.367
400.032
401.558
402.779
403.374
392.708
392.173
392.583
393.832
395.765
398.143
400.563
402.607
404.096
404.983
389.485
388.948
389.778
391.691
394.456
397.851
401.382
404.269
405.774
407.131
386.106
385.531
386.749
389.386
393.032
397.26
402.05
406.34
408.232
410.089
260.492
256.576
262.748
279.614
304.232
331.742
378.214
413.901
415.895
414.213
37.6067
37.0504
44.972
57.9076
79.4199
118.826
170.321
225.622
250.654
263.205
0.396902
0.309933
0.251856
2.29387
2.58574
0.128332
0.168538
0.238498
3.3766
10.067
0.242573
0.161717
0.0934273
0.0603874
0.0848025
0.117128
0.112656
0.102627
0.0794598
0.0952882
0.248641
0.144957
0.10598
0.0960101
0.104646
0.0934577
0.0785231
0.0749422
0.124428
0.0783138
0.42605
0.271873
0.0856107
0.0856
0.0891298
0.0692443
0.0635557
0.0574625
0.183081
0.0757904
0.411764
0.446594
0.203113
0.0780814
0.0657023
0.0485472
0.0572572
0.0472002
-0.00893475
0.07717
0.326605
0.450805
0.476702
0.0701698
0.0373657
0.027997
0.0449999
0.0380866
0.0286127
0.162147
-0.00793834
0.430595
0.492891
0.392517
0.127973
0.112596
0.0332185
0.0353185
0.0885017
0.214093
-0.0035928
0.0541164
0.48799
0.540866
0.508986
0.433937
0.0230777
0.0292445
0.0750862
0.263346
0.0772372
0.0313024
0.0739882
0.551395
0.552216
0.530748
0.0736104
0.0229645
0.0450924
0.270216
0.0799935
0.0337494
-0.00198328
0.264627
0.55763
0.547538
0.376503
0.0223837
0.0319607
0.072686
0.0815555
0.0836371
-0.020871
-0.0128183
0.404158
0.559576
0.537895
0.0463032
0.0222207
0.0823941
397.418
396.898
396.747
396.998
397.598
398.437
399.371
400.229
400.83
401.139
396.812
396.242
396.111
396.451
397.185
398.188
399.293
400.319
401.045
401.413
395.319
394.716
394.694
395.264
396.339
397.734
399.219
400.556
401.543
402.045
392.813
392.186
392.379
393.345
394.958
396.975
399.06
400.932
402.437
403.149
388.532
387.895
388.586
390.357
392.959
396.057
399.163
401.765
403.605
404.78
382.927
382.259
383.594
386.393
390.203
394.619
399.171
402.932
405.13
406.924
372.854
370.427
375.759
380.532
386.529
392.972
399.369
404.629
407.704
410.09
166.09
161.909
171.792
202.602
248.481
293.965
343.216
397.542
415.337
413.012
5.00807
4.98329
9.14625
20.7796
40.0758
73.8973
132.917
199.306
246.811
271.257
0.61608
0.531647
0.409878
0.332858
1.56324
3.42685
1.2375
5.06212
11.526
20.0524
0.48126
0.333855
0.199563
0.136921
0.119422
0.067911
0.0569579
0.0711749
0.0627294
0.0762541
0.578891
0.314433
0.179682
0.165001
0.12653
0.0964702
0.0683009
0.0825583
0.164653
0.0678181
0.398716
0.457848
0.342816
0.104697
0.0961235
0.0751
0.055475
0.0610459
0.23997
0.0972165
0.149378
0.444361
0.475044
0.214083
0.0772586
0.0581762
0.0524405
0.054306
0.036498
0.0665716
0.0245659
0.411267
0.47814
0.492968
0.310824
0.236415
0.0477013
0.0390074
0.0415524
0.114399
-0.00560057
0.0193021
0.48812
0.508832
0.503848
0.516273
0.0596129
0.0307296
0.103119
0.24226
0.0335958
0.0039846
0.209721
0.53321
0.520905
0.534393
0.154378
0.0240959
0.0473982
0.259741
0.0873289
0.0331601
0.00368666
0.45977
0.540732
0.556292
0.232642
0.0179112
0.0325384
0.092421
0.0816542
0.092431
-0.0116639
0.016025
0.556135
0.579853
0.200013
0.00769424
0.0210209
0.0546204
-0.0129195
0.0829927
0.0141598
-0.0319139
0.222773
0.514913
0.0687791
-0.00418146
0.00986076
0.17238
396.602
396.058
395.916
396.209
396.874
397.788
398.803
399.743
400.422
400.772
395.857
395.244
395.111
395.503
396.32
397.425
398.647
399.782
400.611
401.034
393.977
393.293
393.266
393.903
395.116
396.717
398.4
399.912
401.07
401.65
390.685
389.962
390.178
391.278
393.109
395.463
397.937
400.13
401.816
402.653
384.828
384.009
384.757
386.849
389.943
393.618
397.462
400.599
402.699
404.084
376.615
375.59
377.115
380.652
385.537
390.935
396.485
401.201
403.989
405.807
349.72
342.87
347.867
363.473
378.189
387.385
395.741
402.388
406.295
408.954
97.7457
91.8242
100.998
125.508
179.358
249.621
312.38
367.842
407.293
411.058
1.22166
1.19846
1.17505
2.26685
14.5647
40.4497
85.3474
156.631
221.698
259.338
0.575087
0.61814
0.585223
0.45988
0.309873
1.27238
6.56938
8.67943
12.574
19.1548
0.446633
0.505011
0.433042
0.295492
0.146298
0.0261615
-0.0338763
0.00566863
0.0297487
0.0538239
0.19949
0.276434
0.286365
0.203753
0.171304
0.116537
0.278492
0.274832
0.164702
0.0541678
0.0924531
0.295014
0.379064
0.143381
0.112133
0.0839494
0.115873
0.0702024
0.253899
0.0997393
0.0265425
0.277049
0.464605
0.386441
0.1375
0.0659781
0.0566413
0.0493282
0.108371
0.075786
0.00811877
0.0653891
0.413969
0.48539
0.468061
0.0768256
0.0488987
0.0357733
0.0591122
0.108059
0.00407216
0.0147623
0.0547873
0.489431
0.500502
0.110462
0.0406733
0.0265049
0.124309
0.232312
0.072186
0.00885333
0.00417783
0.218364
0.513412
0.151111
0.162207
0.0169893
0.0334904
0.215092
0.103951
0.0577275
0.0160568
-0.027847
0.0975519
0.115329
0.235239
0.00619423
0.0237814
0.0525807
0.0106047
0.102482
0.0898622
-0.0393019
-0.0422133
-0.0056061
0.0351498
0.00312118
0.00917423
0.0433294
-0.0399428
0.0941476
0.0837338
0.00842348
-0.0426235
-0.0272737
-0.0221627
-0.0166313
-0.00519024
0.17699
395.98
395.512
395.352
395.657
396.352
397.306
398.366
399.352
400.068
400.437
394.971
394.617
394.454
394.841
395.696
396.852
398.137
399.339
400.219
400.674
392.888
392.39
392.312
392.981
394.266
395.96
397.755
399.361
400.608
401.228
388.463
388.521
388.73
389.911
391.899
394.466
397.054
399.408
401.168
402.108
381.618
381.606
382.288
384.51
387.906
391.576
395.661
399.567
401.771
403.152
372.857
371.364
372.75
376.531
382.161
387.902
393.863
399.607
402.859
404.447
336.994
326.644
329.558
345.185
369.954
382.806
392.677
400.183
404.631
407.359
67.2413
59.0065
64.2753
84.0523
129.635
213.269
288.108
347.934
395.902
408.221
1.09894
1.1855
1.26032
1.37002
4.18732
23.9398
65.4917
127.446
194.504
235.053
0.476982
0.606602
0.677409
0.635487
0.442835
0.29726
4.11384
9.90887
10.756
9.24562
0.301808
0.439753
0.591729
0.440899
0.184143
0.0573297
-0.0631959
-0.0403982
-0.00534063
0.0317029
0.106256
0.150976
0.237623
0.259914
0.186028
0.174635
0.33147
0.311712
0.0874339
0.0689065
0.0484029
0.0778042
0.120391
0.121107
0.130443
0.0932833
0.223603
0.239738
0.264209
0.110694
0.0117025
0.0516174
0.124227
0.180834
0.147907
0.0676
0.0635751
0.0496155
0.207264
0.154385
0.012906
0.0353096
0.0642195
0.24309
0.203544
0.0484617
0.0520855
0.0406839
-0.00158284
0.0820033
0.0257785
0.0244025
0.0283537
0.133945
0.267349
0.19339
0.177294
0.0305058
0.0422624
0.215527
0.0675128
0.015274
0.00698906
0.00254318
0.229067
0.334862
0.354797
0.144075
0.0342661
0.214486
0.0444614
0.0181197
0.012204
-0.0337559
0.0647579
0.329091
0.356092
0.252474
0.0198053
0.0445468
-0.00654663
0.0988306
0.0713685
-0.0517931
-0.0179059
0.337326
0.3612
0.045812
-0.00106654
0.0275832
-0.0224918
0.0927492
0.0659972
-0.0555093
-0.0501936
0.00650219
0.120128
-0.028006
-0.0199045
0.0947552
395.776
395.289
395.144
395.436
396.113
397.064
398.12
399.101
399.815
400.183
394.632
394.397
394.224
394.589
395.41
396.577
397.874
399.068
399.944
400.399
392.033
392.078
392.023
392.674
393.943
395.622
397.419
399.033
400.285
400.911
387.651
388.001
388.179
389.464
391.517
394.062
396.692
399.004
400.738
401.69
380.629
380.728
381.331
383.699
387.413
391.4
395.109
398.925
401.208
402.557
371.747
370.365
371.542
375.458
381.322
387.688
393.181
398.738
402.228
403.695
331.921
322.029
325.998
342.912
367.616
381.504
391.576
399.17
403.6
406.174
59.548
50.054
52.6909
71.7287
118.496
203.882
281.306
343.938
393.913
406.314
0.992298
1.14908
1.36852
1.46973
2.46993
21.2334
66.21
128.864
185.835
218.301
0.332906
0.509467
0.685398
0.716927
0.507624
0.351701
0.308382
3.21571
4.28751
1.64013
0.0992767
0.288996
0.480457
0.527051
0.235556
0.104061
0.0849036
0.0264427
0.025058
0.0528498
0.00291371
0.0939645
0.136023
0.17618
0.201748
0.11619
0.169561
0.218422
0.108027
0.0999091
-0.0137177
0.0556592
0.0647666
0.0911543
0.0949459
0.0866119
0.131946
0.238257
0.300442
0.120361
0.00703975
0.0354792
0.0502061
0.0630216
0.0662022
0.0802505
0.190009
0.0830472
0.210363
0.10221
0.028356
0.0366322
0.0435995
0.0435543
0.0364384
0.050141
0.339367
0.196819
0.0114965
0.226648
0.0748268
0.0381429
0.0308688
0.0195681
0.00901378
0.086546
0.336335
0.34529
0.0213009
0.13512
0.0715003
0.0243821
0.00778877
-0.0129513
-0.000420058
0.257496
0.33758
0.369503
0.051045
0.14713
0.0277752
0.0584689
-0.0237388
-0.0466814
0.110876
0.30696
0.347672
0.372976
0.0186832
0.0337387
0.0133001
0.0944225
-0.0624977
-0.0578946
0.207807
0.315178
0.269343
0.359716
-0.00780452
0.00721659
0.023386
0.0731587
-0.0375746
-0.0407727
0.127928
0.114777
0.0150433
0.0491224
-0.0343511
-0.00743103
395.993
395.436
395.267
395.532
396.175
397.08
398.083
399.009
399.681
400.025
395.155
394.544
394.383
394.745
395.543
396.65
397.869
398.989
399.805
400.219
393.01
392.326
392.303
392.96
394.186
395.803
397.494
398.984
400.123
400.698
389.255
388.332
388.583
389.901
391.913
394.295
396.813
398.97
400.604
401.418
382.443
380.691
381.418
384.724
388.266
392.1
395.88
399.079
401.13
402.47
373.302
371.919
373.156
377.159
382.885
388.862
394.598
399.402
402.15
403.785
336.009
329.65
333.943
350.839
373.11
383.936
392.638
399.471
403.405
405.803
68.8954
59.2887
62.619
86.3124
145.216
228.218
292.417
350.224
401.373
405.334
1.0928
1.08752
1.19081
1.27872
4.26303
32.0596
79.479
136.924
185.942
216.376
0.303539
0.357218
0.484673
0.493873
0.31782
0.201726
0.10101
-0.00317666
0.350878
3.85586
0.0375022
0.0865306
0.25045
0.363944
0.210808
0.115159
0.0830843
0.11021
0.0943425
0.0771764
-0.026748
-0.00849244
0.0251212
0.0789108
0.161504
0.148021
0.120231
0.318735
0.227481
0.128005
-0.0120099
-0.00725959
0.0100485
0.0364117
0.0567701
0.089688
0.0871397
0.100482
0.322659
0.137094
0.0146347
0.0154321
0.0268913
0.0358716
0.0418012
0.0439414
0.119665
0.107213
0.303169
0.203977
0.0361059
0.0416161
0.0512166
0.0336756
0.0279665
0.0197795
0.0452519
0.282027
0.189436
0.310077
0.0917867
0.0986106
0.0492318
0.0185735
0.00665768
-0.00460041
-0.000986959
0.342083
0.294272
0.281878
0.0895542
0.0675904
0.00842878
-0.0152959
-0.0335184
-0.0324059
-0.0166167
0.337356
0.284376
0.139037
0.0637388
0.00762889
-0.0382269
-0.0680688
-0.0675695
-0.0402132
-0.0196949
0.35579
0.0323232
0.141796
0.0273387
0.0300532
-0.0814631
-0.0780465
-0.0720893
-0.0560392
-0.0353904
0.32484
-0.0209998
0.0711728
0.093414
0.034602
-0.0702395
-0.0253402
-0.0474794
-0.0739286
-0.0416354
0.0670565
-0.0485573
-0.0368459
396.463
395.898
395.703
395.924
396.507
397.334
398.244
399.075
399.663
399.959
395.7
395.097
394.919
395.237
395.97
396.982
398.078
399.078
399.777
400.125
393.827
393.202
393.151
393.75
394.873
396.32
397.827
399.119
400.052
400.515
390.624
389.915
390.131
391.261
393.043
395.198
397.345
399.175
400.577
401.211
385.03
383.463
384.99
387.145
390.221
393.65
396.9
399.511
401.298
402.241
377.458
376.212
377.586
381.277
386.137
391.338
396.327
400.288
402.402
403.627
353.421
349.958
354.443
370.305
379.954
388.162
395.091
400.584
403.61
405.623
101.065
92.3509
100.457
135.688
205.166
265.81
313.701
382.799
406.7
406.678
1.39957
1.15539
0.998061
1.85429
20.2751
58.8649
109.271
154.777
190.376
214.31
0.315651
0.226654
0.151175
0.0929898
0.0413644
-0.00152637
0.0117716
0.0812018
0.0990223
0.146477
0.0143166
0.000521561
0.00234669
0.0187131
0.0282853
0.0331966
0.0584818
0.0976389
0.102092
0.11333
-0.024806
-0.0284963
-0.0320065
-0.0131167
0.0204486
0.0538952
0.0784416
0.301489
0.321633
0.135837
0.000223333
0.00185325
-0.000789517
-0.0035545
0.000422645
0.023588
0.039477
0.064784
0.339414
0.15807
0.0237015
0.0166373
0.0111913
0.0104335
0.00726517
0.00570123
0.0112395
0.0520223
0.333178
0.219378
0.0478766
0.0345803
0.0264153
0.0217401
0.0126125
0.0209777
0.00401251
0.0782039
0.332948
0.327069
0.0935047
0.0956337
0.0436554
0.0206395
0.0128836
0.0164031
0.00526396
0.131409
0.339732
0.334857
0.0874476
0.0844518
0.0480362
-0.00569353
-0.0188609
-0.0263159
-0.0254793
0.146549
0.348619
0.297671
0.0417523
0.0138018
-0.0380649
-0.0620302
-0.0660414
-0.0511849
-0.0318955
0.107577
0.316158
0.0912683
0.0226117
-0.0551325
-0.0983517
-0.11563
-0.0750828
-0.0685277
-0.0389957
0.172702
0.190613
0.0802003
0.0722923
-0.0901362
-0.0932735
-0.0478673
-0.111744
-0.0702259
-0.0418047
0.163831
0.184023
-0.0163435
397.249
396.668
396.44
396.593
397.077
397.788
398.576
399.278
399.745
399.973
396.622
396.014
395.811
396.049
396.663
397.531
398.479
399.299
399.833
400.096
395.14
394.548
394.462
394.929
395.853
397.061
398.318
399.348
400.04
400.372
392.722
392.099
392.226
393.076
394.511
396.261
397.974
399.388
400.439
400.925
388.705
387.95
388.597
390.275
392.65
395.332
397.893
399.889
401.287
401.855
383.355
382.361
383.615
386.369
390.036
394.138
398.073
400.839
402.451
403.185
375.516
374.103
376.174
380.879
386.676
392.242
397.251
401.345
403.572
404.841
168.094
160.371
178.815
220.46
266.023
300.918
356.723
404.258
404.627
405.423
3.97701
3.02736
6.88896
23.0441
52.4699
95.5522
136.133
167.721
183.727
193.526
0.186753
0.0881704
0.0179735
2.43772e-05
0.869807
1.14821
0.0596984
0.120971
0.140154
0.162966
-0.0258639
-0.0149691
-0.0466373
-0.0839476
-0.0714369
-0.0187831
0.0568058
0.120481
0.148834
0.144693
-0.0252247
0.0271701
0.00657853
-0.0291757
-0.0200709
0.0147315
0.0575133
0.267612
0.30063
0.141772
0.00371992
0.0221498
0.0593205
0.0492834
0.00198549
-0.0164371
0.0734537
0.27572
0.342158
0.145502
0.0236464
0.0126232
0.00393295
0.00855561
0.0407605
0.00212974
0.0235616
0.27236
0.325123
0.126878
0.045444
0.0295463
0.0186356
0.0159192
0.0199975
0.0137356
-0.00424648
0.232718
0.308689
0.214028
0.0761176
0.071473
0.0402183
0.0253212
0.017813
-0.00716382
-0.0122
0.152552
0.298328
0.328542
0.0363323
0.0738644
0.0710649
0.0713632
0.0286335
0.00774641
-0.00197589
0.107513
0.299032
0.333576
0.0145966
-0.00687647
-0.014557
0.0202091
0.0325964
0.0167609
-0.0104099
0.122249
0.307876
0.0704124
-0.00503684
-0.0599184
-0.093026
-0.063185
-0.016043
-0.0100893
-0.0304685
0.0880538
0.306739
-0.0322449
-0.0439099
-0.132467
-0.148789
-0.100322
-0.0544553
-0.0439574
-0.0302712
0.0921008
0.137459
-0.0758809
398.229
397.643
397.373
397.441
397.806
398.384
399.046
399.606
399.912
400.051
397.763
397.162
396.917
397.05
397.518
398.228
399.02
399.646
399.957
400.102
396.728
396.161
396.01
396.309
396.995
397.948
398.914
399.607
400.023
400.199
395.08
394.515
394.508
395.075
396.098
397.366
398.587
399.443
400.099
400.407
392.563
391.964
392.311
393.408
395.034
396.919
398.703
399.847
400.726
401.061
389.14
388.445
389.21
391.067
393.669
396.68
399.077
400.606
401.706
402.035
384.907
384.015
385.284
388.109
391.656
395.038
398.715
401.291
402.609
403.151
255.389
249.521
262.823
285.818
310.583
344.828
394.842
401.213
397.917
397.711
30.4333
28.0905
38.3573
58.5962
90.8233
125.131
150.751
166.858
155.044
159.043
-0.000952509
-0.0232271
0.0142523
2.41831
3.04647
0.0268561
0.0984122
0.136879
0.147517
0.150995
-0.0610661
-0.024786
0.00315839
-0.102914
-0.0656407
0.0218171
0.0872051
0.138846
0.158616
0.146914
-0.0315266
0.025431
0.127524
0.132809
0.140385
0.13165
0.154171
0.167287
0.165942
0.133116
-0.00264265
-0.0063473
0.0338832
0.0463979
0.153298
0.202917
0.255898
0.302172
0.181084
0.110651
0.0140565
0.00541811
-0.000793654
0.0146417
0.0581718
0.142271
0.254485
0.296207
0.299861
0.0782993
0.0349948
0.0208484
0.0136728
0.0221388
0.0642055
0.0259979
0.198017
0.29458
0.32265
0.0521761
0.0250448
0.0246752
0.0247753
0.024639
0.0393602
0.000664044
0.144249
0.2982
0.312143
0.117042
0.00916247
0.0163286
0.0536937
0.0446718
0.0466066
0.0316962
0.0862947
0.309135
0.314733
0.11462
0.000687589
-0.00785242
0.0251756
0.0506675
0.0486056
0.07686
0.0585475
0.259624
0.324902
0.0496326
-0.00944312
-0.0453321
-0.0554745
0.00436521
0.0168606
0.00839786
0.000317594
0.0455417
0.176358
-0.0166221
-0.0587943
-0.114932
-0.117064
-0.0661302
-0.031225
-0.0193652
-0.0181833
-0.0240037
-0.0401549
-0.041428
399.268
398.674
398.357
398.331
398.571
399.038
399.617
400.06
400.159
400.171
398.966
398.363
398.061
398.08
398.398
398.99
399.693
400.127
400.158
400.113
398.367
397.784
397.538
397.66
398.119
398.823
399.547
399.853
399.929
399.912
397.382
396.803
396.643
396.9
397.487
398.295
398.965
399.248
399.472
399.725
396.002
395.416
395.503
396.054
396.946
398.16
398.95
399.229
399.516
399.778
393.846
393.279
393.806
394.962
396.617
398.077
399.013
399.506
399.964
400.039
391.666
390.996
391.624
393.131
394.92
397.048
398.927
399.883
400.24
400.378
310.032
305.497
315.536
331.239
355.181
388.866
396.882
393.238
384.605
384.836
62.3136
61.7837
72.0359
93.5515
115.69
134.387
149.305
141.871
117.86
119.241
0.0550805
0.0129098
1.79092
1.31932
0.00338375
0.0803461
0.114555
0.131324
0.136127
0.136341
-0.0323322
-0.0382199
-0.0244784
-0.0379804
0.014206
0.0839554
0.115163
0.134553
0.127673
0.127197
-0.0133646
-0.00568801
0.0694659
0.138715
0.196957
0.233897
0.265548
0.0948503
0.129776
0.121921
0.00302139
-0.00847071
0.0100733
0.0145172
0.126409
0.238701
0.267195
0.192242
0.102197
0.109141
0.0132942
0.00572271
0.00283013
0.00462027
0.0502263
0.1164
0.158702
0.146306
0.0993647
0.0903765
0.022579
0.0187154
0.0126979
0.0107246
0.0287887
0.0296796
0.0808046
0.170513
0.152811
0.0724573
0.0108657
0.0130101
0.015652
0.0145491
0.0167606
0.0130455
0.041878
0.193276
0.253243
0.059879
-0.01329
-0.00560735
0.0112213
0.0222006
0.0208174
0.0322597
0.0240978
0.168232
0.300047
0.0480936
0.00943624
-0.0169267
-0.000797567
0.0220716
0.0238759
0.0365183
0.0302209
0.102789
0.214821
0.0330726
0.0189299
-0.0255205
-0.0326964
-0.00743468
0.0128666
0.0177531
0.0258899
0.0271206
0.03632
0.016537
-0.0371777
-0.0631451
-0.070546
-0.0495482
-0.0065305
0.00779319
0.00497759
0.0321622
0.0158699
0.00105931
400.25
399.641
399.267
399.14
399.256
399.624
400.164
400.536
400.45
400.306
400.095
399.474
399.102
399
399.179
399.657
400.309
400.531
400.355
400.124
399.835
399.219
398.872
398.819
399.007
399.422
399.86
399.938
399.803
399.813
399.36
398.724
398.407
398.356
398.502
398.695
398.799
398.739
398.742
399.228
398.755
398.191
398.008
398.123
398.377
398.575
398.51
398.092
397.665
397.995
397.625
397.217
397.352
397.943
398.269
398.361
398.187
397.714
397.22
397.045
396.627
396.088
396.055
396.384
397.125
397.733
397.783
397.182
396.443
396.395
342.368
342.144
350.709
369.893
388.279
391.106
387.045
376.754
364.147
364.196
91.9483
95.9437
105.768
112.969
119.991
127.859
122.788
101.873
81.1688
79.832
0.118901
0.0408412
0.00334969
0.0383982
0.0748267
0.101226
0.107007
0.116963
0.125774
0.129632
-0.002406
-0.00667458
0.0148154
0.0338083
0.0676234
0.103117
0.111655
0.111409
0.110729
0.124589
0.0216006