/*--------------------------------*- C++ -*----------------------------------*\
| =========                 |                                                 |
| \\      /  F ield         | OpenFOAM: The Open Source CFD Toolbox           |
|  \\    /   O peration     | Version:  2312                                  |
|   \\  /    A nd           | Website:  www.openfoam.com                      |
|    \\/     M anipulation  |                                                 |
\*---------------------------------------------------------------------------*/
FoamFile
{
    version     2.0;
    format      ascii;
    arch        "LSB;label=32;scalar=64";
    class       volVectorField;
    location    "1.08";
    object      U;
}
// * * * * * * * * * * * * * * * * * * * * * * * * * * * * * * * * * * * * * //

dimensions      [0 1 -1 0 0 0 0];

internalField   nonuniform List<vector> 
8000
(
(-0.00240017 0.000105438 0.00103932)
(-0.00703471 4.76651e-05 0.00109679)
(-0.0117431 -0.000191552 0.00130659)
(-0.0159137 -0.000579915 0.00146069)
(-0.0188073 -0.00117806 0.00137607)
(-0.0198994 -0.00182457 0.000841948)
(-0.018897 -0.00198687 -0.000598725)
(-0.0146143 -0.00189892 -0.00225709)
(-0.00691846 -0.00385949 -0.000454161)
(-0.000927257 -0.00458788 0.00234911)
(-0.00198567 6.45528e-05 0.00119849)
(-0.00642761 0.00111295 0.000905997)
(-0.0106083 0.000528239 0.000946454)
(-0.0141002 -0.00082099 0.000985665)
(-0.0166315 -0.00216878 0.000769606)
(-0.0175576 -0.00240459 -0.000424056)
(-0.0170741 -0.0013382 -0.00365025)
(-0.0160319 -0.00540376 -0.00511265)
(-0.0112198 -0.0133954 0.00227189)
(-0.00122025 -0.0118247 0.00532135)
(0.00028102 -0.00137673 0.00521939)
(-0.00551446 -0.000124451 0.00324335)
(-0.011768 -0.000964043 0.00230811)
(-0.0158109 -0.00243239 0.0018814)
(-0.0173448 -0.00349768 0.00109951)
(-0.0163521 -0.00269254 -0.000450278)
(-0.0190908 -0.000846572 -0.00251615)
(-0.02654 -0.013057 0.00282739)
(-0.0252018 -0.0456229 0.0182117)
(-0.00716891 -0.0295529 0.0117472)
(-0.000920732 -0.0139898 0.0101673)
(-0.00418039 -0.000584659 0.00831063)
(-0.0108823 -0.000620905 0.00584871)
(-0.0159506 -0.00425528 0.00464603)
(-0.0173084 -0.0070545 0.00383208)
(-0.0148478 -0.00741688 0.00380963)
(-0.0225878 -0.00938161 0.00786425)
(-0.0365637 -0.046266 0.017443)
(-0.0288452 -0.100882 0.0175195)
(-0.0157536 -0.0799027 0.00537421)
(-0.00479569 -0.0324836 0.00609592)
(-0.00941815 -0.0176121 0.0102489)
(-0.0139783 -0.0096159 0.0110366)
(-0.0171513 -0.0113546 0.0111362)
(-0.0166536 -0.0163463 0.0117095)
(-0.0102964 -0.019598 0.0125307)
(-0.0105672 -0.0264789 0.0149952)
(-0.0187034 -0.0698383 0.0156917)
(-0.0165076 -0.121527 0.00510423)
(-0.0109126 -0.115323 -0.00412103)
(-0.00944865 -0.0355129 -0.000901278)
(-0.0192848 -0.0331888 0.00279631)
(-0.0225116 -0.0320171 0.00604611)
(-0.0205227 -0.0368121 0.0064885)
(-0.0149381 -0.0457053 0.0067355)
(-0.00596058 -0.0526207 0.00982608)
(0.00246753 -0.0601981 0.0147851)
(-0.00312754 -0.095941 0.014894)
(-0.0120549 -0.122699 -0.00215498)
(-0.00102863 -0.117651 -0.00692776)
(-0.0144843 -0.0302641 -0.00745434)
(-0.0234037 -0.0390913 -0.00571428)
(-0.0252454 -0.0481467 -0.00406795)
(-0.0200865 -0.0565454 -0.00343735)
(-0.0115456 -0.0677944 -0.00248667)
(-0.00221527 -0.0809073 0.00161211)
(0.00448228 -0.0923525 0.0107676)
(-0.0100674 -0.116415 0.00635649)
(-0.016956 -0.126836 -0.0155272)
(0.00568036 -0.11547 -0.00900683)
(-0.0230055 -0.0100186 -0.0123534)
(-0.0379439 -0.0216896 -0.00969625)
(-0.0465526 -0.036536 -0.00863911)
(-0.0436917 -0.053619 -0.00764016)
(-0.0348801 -0.0757483 -0.00666235)
(-0.0226647 -0.0958803 -0.00468096)
(-0.0148132 -0.108613 -0.00125652)
(-0.0184262 -0.121001 -0.0142803)
(-0.0124649 -0.124859 -0.0308732)
(0.00780099 -0.119439 -0.0151144)
(-0.0482559 0.0253821 0.00259813)
(-0.0982377 -0.00290457 0.0102183)
(-0.10707 -0.0351274 0.00929902)
(-0.0940509 -0.0618753 -0.00109724)
(-0.0800124 -0.0845045 -0.0208813)
(-0.060785 -0.0995699 -0.0465992)
(-0.022457 -0.105757 -0.065591)
(0.0268785 -0.0968747 -0.0620667)
(0.03862 -0.0907301 -0.0371175)
(0.0054446 -0.0884834 -0.029635)
(-0.0907847 0.0362608 0.0497173)
(-0.0224696 -0.0123249 0.0768098)
(-0.0108188 -0.0781301 0.0647239)
(-0.00369214 -0.0663038 0.0492187)
(-0.0366907 -0.040599 -0.00535582)
(-0.0471917 -0.0311415 -0.0832367)
(0.00950625 -0.0191367 -0.138681)
(0.0890506 0.0137156 -0.109073)
(0.109382 0.0378883 -0.00801555)
(0.0185228 0.0345312 -0.00146679)
(-0.248661 -0.335316 -0.0346543)
(-0.132702 -0.336265 -0.0302685)
(-0.0348868 -0.308913 -0.0230643)
(0.0644308 -0.212228 0.00401797)
(0.143828 -0.0151293 0.0489025)
(0.0961571 0.0717681 0.00237828)
(0.0807168 0.0885037 -0.0699362)
(0.110245 0.111679 -0.0640014)
(0.120595 0.114923 0.010424)
(0.0367834 0.074123 0.0164385)
(-0.266084 -0.379096 -0.098225)
(-0.165716 -0.389036 -0.0923776)
(-0.0708669 -0.372364 -0.0792784)
(0.0129907 -0.323826 -0.0621342)
(0.131252 -0.133617 -0.00524659)
(0.185041 0.103863 0.0267648)
(0.152818 0.177216 -0.0194699)
(0.12524 0.177532 -0.0393096)
(0.115681 0.159832 -0.00424496)
(0.0477221 0.0979664 0.00133862)
(-0.22651 -0.347551 -0.117731)
(-0.131963 -0.369842 -0.0981276)
(-0.0490408 -0.368524 -0.0759476)
(0.0218511 -0.338222 -0.0603955)
(0.102857 -0.217418 -0.0393163)
(0.201182 0.0428725 0.0158537)
(0.201262 0.216919 0.014447)
(0.141287 0.231853 -0.00455456)
(0.0896476 0.187606 0.0029866)
(0.0257658 0.126412 -0.00472632)
(-0.184031 -0.299813 -0.112023)
(-0.0940175 -0.35192 -0.0815093)
(-0.0175883 -0.376699 -0.0522144)
(0.0495174 -0.367798 -0.0332693)
(0.092861 -0.263209 -0.0374439)
(0.177586 -0.0388548 -0.0051267)
(0.208458 0.209141 0.0298399)
(0.134086 0.260692 0.0308374)
(0.0376107 0.201276 0.0198203)
(-0.0119101 0.123897 -0.00112249)
(-0.143904 -0.247974 -0.0938698)
(-0.0570088 -0.33122 -0.060446)
(0.0177505 -0.392612 -0.0356472)
(0.0823157 -0.409706 -0.0146167)
(0.114146 -0.303896 -0.00710531)
(0.133561 -0.0899152 -0.00420461)
(0.164247 0.203805 0.0340048)
(0.0843172 0.281435 0.0461698)
(-0.0358319 0.205466 0.00576301)
(-0.0349698 0.0791166 -0.0253848)
(-0.0975138 -0.208189 -0.0640682)
(-0.0233562 -0.313486 -0.0388138)
(0.0443196 -0.411102 -0.0365837)
(0.0977318 -0.455854 -0.0201625)
(0.126404 -0.34658 0.0215517)
(0.0602995 -0.149828 0.030138)
(0.0633775 0.191272 0.0446895)
(-0.0252653 0.297546 0.036486)
(-0.104121 0.201131 -0.0407086)
(-0.0394239 0.0459843 -0.0590739)
(-0.0779947 -0.183247 -0.048243)
(-0.00456225 -0.304668 -0.0223518)
(0.0444939 -0.422625 -0.0515119)
(0.0767314 -0.487949 -0.0352655)
(0.0783244 -0.400153 0.0370986)
(-0.0433102 -0.186665 0.0765632)
(-0.0734882 0.178271 0.0595696)
(-0.145026 0.296286 0.00373641)
(-0.136093 0.195737 -0.0685645)
(-0.0319481 0.0436666 -0.0522897)
(-0.101697 -0.163422 -0.0489964)
(-0.038468 -0.289684 -0.0429991)
(-0.0110635 -0.406995 -0.0718809)
(-0.0214279 -0.470001 -0.0395349)
(-0.0804138 -0.420158 0.0365371)
(-0.191736 -0.20246 0.0779144)
(-0.208098 0.121082 0.0442312)
(-0.208721 0.260418 -0.0234693)
(-0.132588 0.173468 -0.0537991)
(-0.0135811 0.0207719 0.00586262)
(-0.146692 -0.14151 -0.0563833)
(-0.100378 -0.244544 -0.068908)
(-0.115374 -0.331823 -0.0801936)
(-0.171482 -0.38358 -0.0517954)
(-0.251729 -0.383199 -0.0218353)
(-0.300641 -0.23168 0.0113864)
(-0.274882 0.0422051 0.0255618)
(-0.205939 0.184734 -0.0161916)
(-0.105094 0.0790739 -0.0183987)
(-0.00230235 -0.111167 0.00588619)
(-0.183875 -0.1049 -0.0628198)
(-0.160126 -0.16774 -0.0739237)
(-0.211101 -0.220188 -0.073832)
(-0.273874 -0.25685 -0.0820478)
(-0.309599 -0.275574 -0.108051)
(-0.299012 -0.226467 -0.097186)
(-0.23961 -0.103225 -0.0398965)
(-0.149069 0.00954826 -0.00362269)
(-0.0554227 -0.0406054 -0.00515522)
(0.000158488 -0.109247 -0.0427841)
(-0.00309844 -7.8942e-05 0.00743007)
(-0.00978068 -0.00016675 0.0073039)
(-0.0160493 -0.000457182 0.00735021)
(-0.0210733 -0.000975181 0.00705589)
(-0.0244688 -0.00186225 0.00609987)
(-0.0258847 -0.00331894 0.00359398)
(-0.0238777 -0.00526149 -0.00122317)
(-0.015787 -0.00660293 -0.00363766)
(-0.00338891 -0.00455557 0.00322829)
(0.00157232 -0.00228466 0.00635298)
(-0.00255672 -0.00129168 0.00862762)
(-0.00875043 -4.06481e-06 0.00772579)
(-0.0145414 -0.000704628 0.00729311)
(-0.0196135 -0.00210652 0.00658909)
(-0.0238996 -0.00361184 0.00460141)
(-0.0280243 -0.00524689 0.000301215)
(-0.0316396 -0.0120307 -3.29924e-05)
(-0.0311979 -0.0264907 0.0139614)
(-0.0183145 -0.0261054 0.0236882)
(0.00330648 -0.00765077 0.00976015)
(-0.00087517 -0.0035536 0.0157247)
(-0.0102184 -0.00250086 0.0114168)
(-0.0182681 -0.00283776 0.00963394)
(-0.0235265 -0.00339198 0.00770536)
(-0.027729 -0.00284159 0.00415962)
(-0.0342532 -0.00564889 0.00545511)
(-0.0446249 -0.0256679 0.0228112)
(-0.0512691 -0.0573982 0.0400151)
(-0.0377448 -0.0661122 0.0413413)
(-0.00358713 -0.0185897 0.0248005)
(-0.000696637 -0.00561896 0.0281199)
(-0.0083536 0.00305924 0.0201825)
(-0.0190632 -0.00135905 0.0152884)
(-0.0254062 -0.00448484 0.0112394)
(-0.0273474 -0.00398098 0.00846328)
(-0.028343 -0.00844756 0.0177464)
(-0.0375366 -0.0325076 0.0394689)
(-0.0418531 -0.0799988 0.0428428)
(-0.0297447 -0.105602 0.0289677)
(-0.0143107 -0.0598237 0.0299414)
(-0.00682293 -0.0198659 0.0313667)
(-0.0107147 -0.00375074 0.0301487)
(-0.0203175 -0.0019014 0.0266183)
(-0.0257756 -0.00633452 0.0229132)
(-0.0245322 -0.0100185 0.0196374)
(-0.0157992 -0.0158165 0.0249365)
(-0.0136372 -0.0358111 0.0431982)
(-0.0103225 -0.0899089 0.0438686)
(-0.00567966 -0.108636 0.0119772)
(-0.0114116 -0.0896319 0.0120692)
(-0.0113591 -0.0200548 0.0277328)
(-0.0261374 -0.00942136 0.0308278)
(-0.0312938 -0.00994942 0.0309144)
(-0.0303012 -0.0178528 0.0287556)
(-0.0246675 -0.026434 0.027284)
(-0.0129275 -0.0377641 0.0307714)
(-0.000993373 -0.0625104 0.0421454)
(0.0034582 -0.112912 0.0420479)
(-0.0028977 -0.104871 0.00706909)
(-0.0105098 -0.0920821 -0.00687129)
(-0.0129088 -0.014959 0.0119599)
(-0.0305472 -0.0258696 0.0115915)
(-0.0354981 -0.0386683 0.0116773)
(-0.032132 -0.0497866 0.0126053)
(-0.0247942 -0.0591034 0.0168769)
(-0.0139393 -0.0721867 0.0250425)
(-0.00218437 -0.0961715 0.0362049)
(-0.00649573 -0.120664 0.0262991)
(-0.0182153 -0.103664 -0.00830966)
(-0.0116829 -0.100614 -0.0139346)
(-0.0222258 -0.00357258 -0.018777)
(-0.0407371 -0.0181383 -0.0152179)
(-0.0520702 -0.0363338 -0.0127595)
(-0.0520752 -0.0530646 -0.00898168)
(-0.0431646 -0.0693257 -0.00229762)
(-0.0290895 -0.0871848 0.00704645)
(-0.0195388 -0.103451 0.011318)
(-0.0188126 -0.11106 -0.00585578)
(-0.0171518 -0.110056 -0.0230389)
(0.00266157 -0.116609 -0.0183754)
(-0.0751837 0.00995923 0.0234315)
(-0.130465 -0.0176898 0.0288718)
(-0.132066 -0.0493743 0.0212938)
(-0.107748 -0.0756569 0.00192333)
(-0.078583 -0.0972284 -0.0253536)
(-0.0479836 -0.112562 -0.0628571)
(-0.0153967 -0.121703 -0.103105)
(0.0187705 -0.129764 -0.12007)
(0.0453547 -0.13665 -0.0739903)
(0.0377884 -0.114771 -0.0599281)
(-0.136149 0.0925165 0.147637)
(-0.133119 0.0380812 0.218414)
(-0.0837342 -0.0595897 0.147245)
(-0.0413171 -0.106194 0.049172)
(-0.0301538 -0.130599 -0.0551345)
(-0.0096832 -0.142802 -0.174431)
(0.0492988 -0.14676 -0.257086)
(0.0991077 -0.130041 -0.265646)
(0.149493 -0.101687 -0.13916)
(0.0756781 -0.0135467 -0.0448586)
(-0.289177 -0.10677 0.14576)
(-0.174072 -0.151662 0.119963)
(-0.0597466 -0.147872 0.100682)
(0.0616103 -0.0786559 0.0892174)
(0.11378 -0.0148195 0.0320992)
(0.120829 -0.031029 -0.077489)
(0.125451 -0.0806989 -0.15177)
(0.0976513 -0.0625183 -0.151945)
(0.142127 0.0473486 -0.0568775)
(0.0873987 0.113694 0.0663618)
(-0.349058 -0.187897 -0.0953895)
(-0.233682 -0.24394 -0.0832249)
(-0.11153 -0.240975 -0.0547937)
(0.0138489 -0.135321 -0.0155272)
(0.120606 0.0351098 0.0186733)
(0.174187 0.0731353 -0.0242442)
(0.174736 0.0133947 -0.0631332)
(0.0895186 -0.0068185 -0.0496634)
(0.0905386 0.0997127 -0.0105112)
(0.088007 0.16253 0.0799082)
(-0.334115 -0.208648 -0.204283)
(-0.216442 -0.305999 -0.14727)
(-0.105136 -0.342659 -0.0885109)
(-0.00166198 -0.269206 -0.0410016)
(0.127103 -0.0999461 -0.000375605)
(0.235208 0.0541538 0.031881)
(0.261973 0.0867786 0.0302022)
(0.160584 0.0421041 0.0359139)
(0.0608629 0.0797024 0.0511071)
(0.0625193 0.158436 0.0803727)
(-0.298668 -0.272471 -0.213071)
(-0.18578 -0.39769 -0.150864)
(-0.0870576 -0.443224 -0.078924)
(-0.0183223 -0.393355 -0.0210484)
(0.074527 -0.224191 -0.011368)
(0.207077 -0.0222675 0.00298529)
(0.28713 0.129519 0.0441874)
(0.215591 0.151827 0.0762312)
(0.0512885 0.119895 0.0934176)
(0.0217959 0.155084 0.0796356)
(-0.226405 -0.309797 -0.219753)
(-0.130397 -0.436985 -0.154398)
(-0.0400813 -0.495679 -0.0753036)
(-0.00566873 -0.480435 -0.0131454)
(0.0643017 -0.364538 0.0477331)
(0.134511 -0.121057 0.0428602)
(0.23493 0.147465 0.04923)
(0.193571 0.243567 0.0791845)
(0.0118391 0.168025 0.0843182)
(-0.0117185 0.143285 0.042734)
(-0.12862 -0.290098 -0.222901)
(-0.0660738 -0.432909 -0.143795)
(-0.00661015 -0.519793 -0.0653167)
(-0.0131116 -0.53066 -0.00781003)
(0.0676591 -0.448883 0.0897992)
(0.0364696 -0.239266 0.101275)
(0.128639 0.155211 0.0777137)
(0.0992178 0.321825 0.0715746)
(-0.057667 0.207656 0.0335787)
(-0.03989 0.089706 -0.0445678)
(-0.043879 -0.211656 -0.226938)
(-0.0156014 -0.375249 -0.12067)
(-0.0241833 -0.506379 -0.0480674)
(-0.0783192 -0.532018 0.0075809)
(-0.0400199 -0.457524 0.11493)
(-0.110211 -0.246167 0.135672)
(-0.00983031 0.208809 0.103639)
(-0.0270084 0.381501 0.0609707)
(-0.114995 0.208686 -0.0214091)
(-0.0351294 0.00845531 -0.0709175)
(0.00217673 -0.106512 -0.229441)
(0.0023886 -0.283183 -0.107432)
(-0.100252 -0.450504 -0.0435545)
(-0.200676 -0.470697 -0.000190486)
(-0.233568 -0.396536 0.0933441)
(-0.269482 -0.157467 0.135391)
(-0.172256 0.220917 0.0993059)
(-0.134224 0.378121 0.0413908)
(-0.137382 0.180599 -0.0149752)
(-0.0231414 -0.00193097 0.0205508)
(0.0124904 -0.0137685 -0.200373)
(-0.0115639 -0.176681 -0.0851263)
(-0.194465 -0.354299 -0.0451447)
(-0.3216 -0.365692 -0.0501945)
(-0.372402 -0.290337 0.000914558)
(-0.376887 -0.0996655 0.0611185)
(-0.285068 0.181453 0.0680371)
(-0.184296 0.291519 0.0281041)
(-0.120063 0.0734665 0.0116225)
(-0.0089799 -0.111241 0.0116152)
(0.019032 0.0674904 -0.152517)
(-0.0168779 -0.0597688 -0.0578293)
(-0.226845 -0.253365 -0.032601)
(-0.339254 -0.297138 -0.0906528)
(-0.362194 -0.258009 -0.105049)
(-0.34559 -0.106739 -0.0626909)
(-0.273842 0.0851045 -0.00880594)
(-0.148653 0.141645 -0.0110846)
(-0.0459195 -0.0270675 -0.021274)
(0.0264671 -0.124702 -0.0728861)
(-0.00366319 -9.42852e-05 0.0150083)
(-0.0101254 2.20784e-05 0.0143586)
(-0.0163234 -0.000250303 0.0138984)
(-0.0216291 -0.000827227 0.013263)
(-0.0259686 -0.0019445 0.0122806)
(-0.0293553 -0.00434343 0.0105077)
(-0.0280996 -0.00895132 0.00886791)
(-0.0158391 -0.0141585 0.0104302)
(0.00278489 -0.0077293 0.0125861)
(0.00322933 -0.00146135 0.0106721)
(-0.00326818 -0.00215128 0.0165898)
(-0.00945677 -0.000737352 0.0151337)
(-0.0150351 -0.000487468 0.0141284)
(-0.0204751 -0.00145002 0.0128607)
(-0.0265236 -0.00309325 0.010865)
(-0.0347879 -0.00796757 0.0099509)
(-0.0402541 -0.0266643 0.0188169)
(-0.0319246 -0.0480019 0.0342107)
(-0.0112357 -0.0276229 0.0331009)
(0.0077328 -0.00242314 0.0098503)
(-0.0028236 -0.00350392 0.0228809)
(-0.011948 -0.00244665 0.018487)
(-0.0191156 -0.00211054 0.0163266)
(-0.0249981 -0.00174627 0.0141432)
(-0.0325324 -0.00157417 0.0118095)
(-0.0441551 -0.0112651 0.0175386)
(-0.0479456 -0.0445596 0.0375435)
(-0.0415666 -0.0768705 0.0523489)
(-0.0354216 -0.0562257 0.0475586)
(0.0064659 -0.00473309 0.016878)
(-0.0015965 0.00131962 0.0362174)
(-0.0120664 0.00214789 0.0282864)
(-0.0217108 -0.000642433 0.0228466)
(-0.0278509 -0.00111092 0.0178582)
(-0.0327546 -0.000766112 0.0154528)
(-0.037393 -0.0124252 0.024272)
(-0.0356156 -0.0471425 0.0432318)
(-0.0244071 -0.0864224 0.0475718)
(-0.0338382 -0.0737336 0.0324411)
(-0.00522783 -0.018569 0.0299851)
(-0.00479293 0.00401982 0.0450274)
(-0.0125895 0.00726441 0.0378278)
(-0.0240437 0.00219874 0.0326963)
(-0.0305358 -0.00256358 0.0264245)
(-0.0313006 -0.0059225 0.0220282)
(-0.0272854 -0.0169073 0.0280034)
(-0.0213225 -0.0457107 0.0456503)
(-0.00402215 -0.0861557 0.0495059)
(-0.0213655 -0.0776414 0.0145527)
(-0.0102831 -0.0339315 0.0184658)
(-0.00909901 0.0041453 0.0461512)
(-0.0228591 0.00994264 0.0459134)
(-0.0327168 0.00748758 0.0455511)
(-0.0365009 -0.000721668 0.0412326)
(-0.0335789 -0.0105225 0.036207)
(-0.0250033 -0.0261749 0.0396118)
(-0.015999 -0.0571403 0.053677)
(-0.00433906 -0.0917433 0.0480487)
(-0.0205658 -0.078615 0.00627313)
(-0.0142526 -0.0474825 -0.00226173)
(-0.0104834 0.0186532 0.0380001)
(-0.031333 0.00984182 0.0390868)
(-0.0425734 -0.00671096 0.0372512)
(-0.0439018 -0.0260156 0.032944)
(-0.0384427 -0.0406518 0.0334036)
(-0.0290617 -0.0556713 0.039613)
(-0.0203912 -0.079257 0.0463558)
(-0.0174169 -0.095252 0.0284977)
(-0.0312778 -0.0848884 -0.00504192)
(-0.0159136 -0.0717998 -0.0166606)
(-0.0253025 0.0195928 0.00136157)
(-0.04144 0.00255784 0.000756866)
(-0.0503133 -0.0193323 0.00144508)
(-0.0525335 -0.0379241 0.00465073)
(-0.04652 -0.0519864 0.0105954)
(-0.03724 -0.0657579 0.01891)
(-0.0309682 -0.0811194 0.0220373)
(-0.0273481 -0.0925228 0.00895178)
(-0.0331289 -0.101943 -0.00422069)
(-0.0106936 -0.0965284 -0.0106853)
(-0.0586537 -0.0013684 0.0414825)
(-0.107372 -0.0205063 0.0471512)
(-0.129001 -0.04197 0.0430503)
(-0.124571 -0.065485 0.0284259)
(-0.0997884 -0.083465 0.00342236)
(-0.0642038 -0.0975387 -0.0298934)
(-0.0287718 -0.113574 -0.058999)
(9.45606e-05 -0.128774 -0.0711882)
(0.019024 -0.129884 -0.0421028)
(0.0166182 -0.124757 -0.019533)
(-0.203703 0.0717842 0.137801)
(-0.230073 0.0158652 0.175614)
(-0.175304 -0.0747657 0.0871554)
(-0.147255 -0.144708 -0.0344509)
(-0.128337 -0.187507 -0.154114)
(-0.0560868 -0.228145 -0.258577)
(0.0396117 -0.254921 -0.296942)
(0.0915109 -0.244289 -0.304305)
(0.155375 -0.165874 -0.226087)
(0.0844551 -0.111018 -0.0606708)
(-0.241974 0.117852 0.129227)
(-0.139661 0.0330412 0.129368)
(-0.0543646 -0.0562856 0.038574)
(-0.0187967 -0.0717448 -0.0493924)
(-0.0191468 -0.0926573 -0.149212)
(0.0571972 -0.206811 -0.211663)
(0.0881538 -0.274279 -0.191206)
(0.0517154 -0.233175 -0.158955)
(0.118161 -0.0557575 -0.147991)
(0.0967056 0.0875811 0.0755367)
(-0.245914 0.0787771 -0.118627)
(-0.150846 0.000640702 -0.126988)
(-0.068228 -0.0134752 -0.10378)
(0.00867298 0.0184173 -0.0842805)
(0.069994 -0.0147446 -0.0865609)
(0.140699 -0.138705 -0.109075)
(0.111952 -0.211856 -0.0718133)
(-0.00162441 -0.176617 0.024164)
(0.038438 0.0244359 -0.0390483)
(0.0788707 0.174918 0.112953)
(-0.295144 0.0638064 -0.247498)
(-0.177484 -0.00728789 -0.164545)
(-0.0518365 -0.0660363 -0.0890283)
(0.0683324 -0.0438619 -0.0351662)
(0.175272 -0.0231362 -0.0186338)
(0.21958 -0.0812381 -0.0593428)
(0.159677 -0.134855 -0.0347036)
(0.0185101 -0.133206 0.106571)
(-0.026632 -0.00642908 0.0797932)
(0.0560248 0.17862 0.128765)
(-0.338204 -0.158136 -0.193303)
(-0.216326 -0.247136 -0.124434)
(-0.0983004 -0.254114 -0.054355)
(0.00433198 -0.183366 1.86258e-05)
(0.150365 -0.0959634 -0.0233606)
(0.227853 -0.0528981 -0.0551178)
(0.176336 -0.0423368 -0.0201657)
(0.0477054 -0.0466531 0.122502)
(-0.056444 0.0233528 0.137455)
(0.0238616 0.152931 0.109246)
(-0.304921 -0.328633 -0.227849)
(-0.22862 -0.419429 -0.146095)
(-0.146992 -0.375905 -0.0539302)
(-0.062386 -0.262329 0.0310737)
(0.0539242 -0.197054 0.0565827)
(0.160807 -0.0797838 0.00354963)
(0.15137 0.0318827 -0.00068347)
(0.0157578 0.0348274 0.120031)
(-0.082132 0.0462188 0.101107)
(-0.000819943 0.129608 0.0527804)
(-0.205706 -0.356219 -0.27622)
(-0.195499 -0.496725 -0.161709)
(-0.172627 -0.46839 -0.0660085)
(-0.0913008 -0.342024 0.000455294)
(0.00260007 -0.293703 0.0903355)
(0.0549417 -0.149595 0.0822173)
(0.099708 0.104571 0.0256713)
(-0.0659243 0.139504 0.0858753)
(-0.132847 0.069085 -0.00485202)
(-0.0213007 0.0863816 -0.030557)
(-0.087012 -0.256715 -0.318162)
(-0.127622 -0.457097 -0.154276)
(-0.196268 -0.499296 -0.0518363)
(-0.152527 -0.392563 -0.0341638)
(-0.0780599 -0.313141 0.0395372)
(-0.0918816 -0.180397 0.069594)
(0.0125152 0.18824 0.0408588)
(-0.122706 0.234601 0.0684825)
(-0.143563 0.0284973 -0.0559067)
(-0.0366946 -0.0219552 -0.0789912)
(0.0109111 -0.115483 -0.33044)
(-0.0632042 -0.333229 -0.13782)
(-0.219246 -0.445999 -0.0301849)
(-0.264275 -0.380105 -0.0470174)
(-0.228957 -0.270308 -0.0100576)
(-0.213915 -0.09465 0.0253958)
(-0.104269 0.220589 0.0461106)
(-0.140111 0.275344 0.0543131)
(-0.114891 0.0249867 -0.013153)
(-0.0382083 -0.0559952 -0.00596705)
(0.0744212 0.0150214 -0.290307)
(-0.0066317 -0.173611 -0.117291)
(-0.219303 -0.343219 -0.0108164)
(-0.348447 -0.34501 -0.0617093)
(-0.347208 -0.233484 -0.0635476)
(-0.308517 -0.0497443 -0.0202157)
(-0.203251 0.175002 0.0233791)
(-0.135893 0.217231 0.0245167)
(-0.0685336 -0.023738 -0.0010284)
(0.0100235 -0.108529 -0.0164959)
(0.130406 0.117094 -0.236995)
(0.0915996 0.0102987 -0.108068)
(-0.136839 -0.222728 0.0292195)
(-0.299379 -0.358136 -0.0287956)
(-0.337926 -0.340218 -0.0524989)
(-0.311085 -0.150265 -0.0384201)
(-0.210395 0.0637057 -0.0230279)
(-0.0576295 0.111005 -0.0240429)
(0.0650684 -0.0638765 -0.037893)
(0.0978214 -0.131641 -0.0394774)
(-0.00448479 0.00127522 0.0217607)
(-0.0106778 0.00121887 0.0204936)
(-0.0163771 0.00091612 0.0193226)
(-0.0213513 0.000263407 0.0184756)
(-0.025195 -0.000860877 0.0181636)
(-0.027674 -0.00320026 0.0185472)
(-0.026174 -0.00751592 0.0205974)
(-0.0136947 -0.0118278 0.0234001)
(0.00164132 -0.00690496 0.0206408)
(0.00137325 -0.00212645 0.0153541)
(-0.00432287 0.0011749 0.0238629)
(-0.0106781 0.00161445 0.0218048)
(-0.0157193 0.00172989 0.0200018)
(-0.0204306 0.000728654 0.0185115)
(-0.0253535 -0.00147135 0.0176452)
(-0.0314441 -0.00605873 0.0191396)
(-0.0345831 -0.0184994 0.0284432)
(-0.0220385 -0.0357338 0.0417011)
(0.0021114 -0.0166159 0.0316674)
(0.00534579 -0.00174447 0.0123942)
(-0.00431998 0.00179118 0.0281537)
(-0.0126811 0.00166982 0.0248666)
(-0.0188029 0.00164867 0.0222639)
(-0.0244645 0.00132247 0.0204145)
(-0.0312982 0.000367284 0.0195586)
(-0.0408021 -0.00601835 0.024368)
(-0.0428203 -0.0307314 0.0421782)
(-0.0260302 -0.060975 0.0570032)
(-0.01773 -0.0316212 0.0480006)
(0.00654859 -0.00191617 0.0123499)
(-0.00306645 0.00739527 0.0365989)
(-0.0129249 0.0049778 0.0323854)
(-0.0213126 0.00303213 0.0282838)
(-0.027702 0.00268272 0.0247647)
(-0.0338614 0.00202436 0.0229725)
(-0.0394025 -0.00645977 0.0270059)
(-0.0352995 -0.0362101 0.0387409)
(-0.0165767 -0.0697768 0.0477785)
(-0.0298493 -0.0391206 0.0391216)
(-0.00153813 -0.00727416 0.0147735)
(-0.00389185 0.0186719 0.0451858)
(-0.0137367 0.0148092 0.0405331)
(-0.0245212 0.008853 0.0361698)
(-0.0324419 0.00425798 0.030516)
(-0.0370149 -0.000148938 0.0270635)
(-0.0371743 -0.0125277 0.0285474)
(-0.0299425 -0.0430134 0.0365565)
(-0.0137087 -0.0697823 0.0433777)
(-0.0295957 -0.0411311 0.0230435)
(-0.0106748 -0.0158383 0.00757203)
(-0.00475108 0.0230379 0.0493291)
(-0.0179324 0.0175975 0.0493856)
(-0.0319599 0.0117894 0.0503491)
(-0.0414493 0.00540592 0.0476317)
(-0.0436332 -0.00408871 0.0436602)
(-0.0398354 -0.0221714 0.0443649)
(-0.0323138 -0.0521715 0.0515793)
(-0.023545 -0.0680693 0.0453677)
(-0.0333531 -0.0476679 0.0138037)
(-0.0172055 -0.0377843 -0.00415309)
(-0.00508842 0.0386823 0.0538661)
(-0.0258516 0.0321992 0.0579616)
(-0.0433839 0.0209453 0.0593237)
(-0.0530393 -3.5277e-05 0.0562028)
(-0.0523076 -0.0249911 0.0528231)
(-0.0459201 -0.0446942 0.0535441)
(-0.0400241 -0.0636273 0.0537032)
(-0.0358551 -0.0708132 0.0379126)
(-0.0376699 -0.0653029 0.0106523)
(-0.011278 -0.071326 -0.0149343)
(-0.0235444 0.0398533 0.0358494)
(-0.0403547 0.0284953 0.0343258)
(-0.0516126 0.0103508 0.0284496)
(-0.056143 -0.0143205 0.0228658)
(-0.0541989 -0.0355562 0.0271153)
(-0.0485557 -0.0479376 0.0350969)
(-0.0454091 -0.0632459 0.0395679)
(-0.0402176 -0.0794206 0.0337902)
(-0.0391451 -0.0951383 0.022903)
(-0.00803741 -0.0973237 0.00178125)
(-0.0480403 0.0103239 0.0768059)
(-0.0854154 -0.00283255 0.0834987)
(-0.114651 -0.0177261 0.0878354)
(-0.130313 -0.0385551 0.0816881)
(-0.120118 -0.0606529 0.0573154)
(-0.0867219 -0.0726093 0.0299973)
(-0.0481104 -0.0875463 0.0042284)
(-0.0145714 -0.107045 -0.00923102)
(0.00271606 -0.122094 -0.00168775)
(0.00323736 -0.11628 0.0175866)
(-0.244137 0.0439269 0.0713137)
(-0.255975 -0.00315112 0.133847)
(-0.241561 -0.0606758 0.0775423)
(-0.245081 -0.127073 -0.0316651)
(-0.207535 -0.194994 -0.185964)
(-0.109697 -0.257402 -0.257711)
(0.0173254 -0.282647 -0.278694)
(0.105914 -0.25859 -0.304536)
(0.187675 -0.180501 -0.27843)
(0.0811356 -0.127906 -0.0934567)
(-0.203674 0.179482 -0.0240611)
(-0.0881906 0.0432816 -0.0243299)
(-0.0647516 -0.0589551 -0.057254)
(-0.113376 -0.105482 -0.149511)
(-0.0859152 -0.213291 -0.242844)
(-0.0138324 -0.374136 -0.239273)
(0.0311907 -0.414299 -0.197277)
(0.0630004 -0.343821 -0.219329)
(0.148563 -0.124391 -0.255792)
(0.0842538 0.0613899 0.0243387)
(-0.174593 0.210802 -0.246744)
(-0.0726462 0.152366 -0.241243)
(-0.0418877 0.106643 -0.224873)
(-0.0390255 0.0222872 -0.211266)
(0.0235585 -0.158768 -0.171485)
(0.0280078 -0.364039 -0.126516)
(-0.0490288 -0.361609 -0.0363114)
(-0.0603967 -0.257705 -0.038352)
(0.00844042 -0.0101651 -0.141878)
(0.0376751 0.190738 0.0892142)
(-0.216386 0.0876168 -0.253437)
(-0.0904814 0.143685 -0.215376)
(0.00362296 0.165779 -0.187877)
(0.0485461 0.0898429 -0.145963)
(0.122627 -0.0769658 -0.1211)
(0.0204149 -0.284071 -0.0650538)
(-0.130018 -0.267646 0.0580304)
(-0.131273 -0.164756 0.0641838)
(-0.0921164 0.0325578 -0.00227991)
(0.00316624 0.211421 0.121452)
(-0.310693 -0.141954 -0.114699)
(-0.157768 -0.0439893 -0.0574392)
(0.00926301 0.107957 -0.0522478)
(0.0973614 0.12458 -0.0659569)
(0.150961 0.00188938 -0.0879061)
(-0.0192937 -0.175675 0.00930859)
(-0.185672 -0.188739 0.0954261)
(-0.177192 -0.101074 0.0992282)
(-0.140793 0.052314 0.0806241)
(-0.0280876 0.159153 0.100358)
(-0.323162 -0.331955 -0.162427)
(-0.239889 -0.301721 -0.0830273)
(-0.0805317 -0.0649049 -0.0560291)
(0.0485784 0.0655449 -0.0756741)
(0.113116 0.0541469 -0.053847)
(-0.0481301 -0.0869262 0.0603167)
(-0.222908 -0.122427 0.0791471)
(-0.227447 -0.06315 0.0574407)
(-0.15361 0.0471928 0.0248514)
(-0.0437257 0.0941444 0.0295007)
(-0.244871 -0.364018 -0.252095)
(-0.261692 -0.449929 -0.122662)
(-0.185807 -0.230649 -0.0684494)
(-0.0180769 0.057574 -0.0442381)
(0.0390332 0.0600824 0.0107748)
(-0.0137101 -0.0130141 0.0781385)
(-0.221607 -0.0474589 0.0433925)
(-0.263229 -0.0744967 -0.0137232)
(-0.154294 -0.0420964 -0.0724994)
(-0.0444942 0.0516361 -0.0508062)
(-0.118873 -0.263329 -0.325109)
(-0.20486 -0.458051 -0.131446)
(-0.253187 -0.385445 -0.0509753)
(-0.106023 -0.113919 -0.0493779)
(-0.012942 -0.0411753 0.023147)
(-0.0232625 -0.00610676 0.0531652)
(-0.157141 0.0333987 0.0388536)
(-0.227976 -0.117529 -0.00567246)
(-0.118659 -0.20789 -0.0660152)
(-0.0501826 -0.0662318 -0.082645)
(0.00204865 -0.116763 -0.348105)
(-0.11362 -0.340793 -0.127317)
(-0.277231 -0.400656 -0.00441411)
(-0.252608 -0.230002 -0.0523671)
(-0.168385 -0.108136 -0.0362729)
(-0.163572 -0.00719556 -0.00962423)
(-0.156959 0.0836269 0.0402957)
(-0.152609 -0.0642571 0.0548591)
(-0.0160438 -0.238934 0.0228601)
(0.0092431 -0.154533 -0.00943321)
(0.0961366 0.0226779 -0.313446)
(-0.0174193 -0.169126 -0.128236)
(-0.250161 -0.315347 0.0525995)
(-0.36293 -0.274075 0.0172445)
(-0.354254 -0.173846 0.0242078)
(-0.317592 -0.0629394 0.0549479)
(-0.209808 -0.0436376 0.0790307)
(-0.0598224 -0.179686 0.0659201)
(0.0721522 -0.281657 0.0172633)
(0.111723 -0.182024 0.0350363)
(0.181084 0.123824 -0.270013)
(0.114198 0.0232358 -0.141537)
(-0.107698 -0.181289 0.0784348)
(-0.268978 -0.336493 0.0838946)
(-0.320596 -0.371586 0.0937235)
(-0.306893 -0.298229 0.108236)
(-0.202336 -0.283619 0.0719142)
(-0.0549366 -0.346647 -0.015523)
(0.0133316 -0.345455 -0.0664432)
(0.132558 -0.188164 0.0303233)
(-0.00543251 0.0038072 0.0246911)
(-0.0116478 0.00304374 0.0233183)
(-0.0168976 0.00237951 0.0218056)
(-0.0212578 0.0015797 0.0209087)
(-0.0242671 0.000550852 0.0208602)
(-0.0254644 -0.00112842 0.0217575)
(-0.0232789 -0.00378548 0.0241879)
(-0.0136259 -0.00655641 0.0272513)
(-0.00341725 -0.00414862 0.0239583)
(-0.000696954 -0.00179846 0.0173739)
(-0.00589925 0.00780428 0.028856)
(-0.0128413 0.00613129 0.0260266)
(-0.0172738 0.00480492 0.0231958)
(-0.020948 0.00312538 0.0213205)
(-0.0239831 0.000886319 0.0206568)
(-0.0263975 -0.00262271 0.0220628)
(-0.0259988 -0.0082659 0.0280134)
(-0.0145783 -0.0152815 0.0365434)
(0.00107625 -0.00906216 0.0274514)
(0.000835307 -0.00387008 0.0146031)
(-0.00591966 0.0121881 0.0317155)
(-0.014241 0.00889262 0.0289945)
(-0.0194628 0.00661372 0.0259587)
(-0.0241183 0.00498167 0.0239546)
(-0.0285378 0.00298627 0.0235831)
(-0.0326538 -0.000534235 0.0265367)
(-0.0329558 -0.00943353 0.0381663)
(-0.0191231 -0.0238549 0.0529304)
(-0.00184719 -0.00980011 0.0390709)
(0.0020494 -0.00351417 0.0127987)
(-0.00470487 0.0200466 0.0353644)
(-0.0141895 0.0143467 0.0341968)
(-0.0213915 0.00952133 0.0313234)
(-0.0272841 0.00686801 0.0286142)
(-0.0320273 0.00429653 0.0276505)
(-0.0351149 -5.75556e-05 0.0297026)
(-0.033106 -0.0116681 0.0386049)
(-0.0192981 -0.0303073 0.0506006)
(-0.0146308 -0.0129023 0.0378802)
(-0.00252552 -0.00855374 0.0110315)
(-0.00458934 0.0320282 0.0413206)
(-0.0153826 0.0243322 0.0427019)
(-0.0256631 0.0169058 0.0404602)
(-0.0333915 0.0124537 0.0356867)
(-0.0383853 0.00704189 0.0328845)
(-0.0393998 -0.00225402 0.0335363)
(-0.0348417 -0.0184895 0.0380112)
(-0.023891 -0.0328631 0.0423404)
(-0.0218178 -0.0157964 0.026161)
(-0.0123468 -0.018249 0.00502285)
(-0.00333658 0.0425049 0.0477091)
(-0.0166084 0.0289923 0.0532545)
(-0.0327426 0.0178424 0.053952)
(-0.0454071 0.00997054 0.0520988)
(-0.0515541 0.00109537 0.0511519)
(-0.0506444 -0.0128185 0.0505648)
(-0.0437768 -0.030686 0.0500522)
(-0.033373 -0.0378104 0.0422807)
(-0.0311151 -0.0273811 0.0200815)
(-0.0154431 -0.0466788 -0.00136219)
(-0.00395148 0.0526668 0.0595265)
(-0.0220471 0.0443781 0.0686355)
(-0.0427555 0.038335 0.0710426)
(-0.0587016 0.0247828 0.0694495)
(-0.0651651 -0.00208101 0.0683016)
(-0.0612057 -0.0308324 0.064626)
(-0.0550435 -0.0460239 0.0600768)
(-0.0446951 -0.0488984 0.0464904)
(-0.0366159 -0.05009 0.0238555)
(-0.00162208 -0.0798533 -0.00831788)