/*--------------------------------*- C++ -*----------------------------------*\
| =========                 |                                                 |
| \\      /  F ield         | OpenFOAM: The Open Source CFD Toolbox           |
|  \\    /   O peration     | Version:  2312                                  |
|   \\  /    A nd           | Website:  www.openfoam.com                      |
|    \\/     M anipulation  |                                                 |
\*---------------------------------------------------------------------------*/
FoamFile
{
    version     2.0;
    format      ascii;
    arch        "LSB;label=32;scalar=64";
    class       surfaceScalarField;
    location    "0.335";
    object      alphaPhi0.water;
}
// * * * * * * * * * * * * * * * * * * * * * * * * * * * * * * * * * * * * * //

dimensions      [0 3 -1 0 0 0 0];

oriented        oriented;

internalField   nonuniform List<scalar> 
22600
(
-1.41652e-07
1.51706e-07
-4.9564e-10
-2.83054e-07
1.27917e-07
1.34848e-08
-4.01587e-07
8.20514e-08
3.64819e-08
-4.83709e-07
2.13017e-08
6.08205e-08
-5.17656e-07
-5.00508e-08
8.39974e-08
-5.00327e-07
-1.22109e-07
1.0478e-07
-4.31426e-07
-1.91751e-07
1.2285e-07
-3.12181e-07
-2.58541e-07
1.39295e-07
-1.47841e-07
-3.20491e-07
1.56151e-07
-2.96164e-07
1.48323e-07
-1.39311e-07
3.31512e-07
-2.87666e-08
-2.83127e-07
2.80676e-07
-8.94237e-09
-4.04343e-07
1.88653e-07
1.46142e-08
-4.92916e-07
6.80098e-08
4.18645e-08
-5.33239e-07
-7.99716e-08
7.02445e-08
-5.21883e-07
-2.30222e-07
9.67568e-08
-4.55855e-07
-3.78107e-07
1.20327e-07
-3.33846e-07
-5.22264e-07
1.41714e-07
-1.59429e-07
-6.58235e-07
1.63326e-07
-6.15306e-07
1.59713e-07
-1.83811e-07
5.44135e-07
-1.67514e-08
-3.66021e-07
4.62508e-07
3.76853e-10
-5.1977e-07
3.14099e-07
2.83023e-08
-6.30545e-07
1.19094e-07
5.96916e-08
-6.83637e-07
-1.18243e-07
9.13627e-08
-6.70458e-07
-3.65921e-07
1.22521e-07
-5.89044e-07
-6.11901e-07
1.5238e-07
-4.36271e-07
-8.56816e-07
1.81779e-07
-2.10459e-07
-1.09682e-06
2.12776e-07
-1.03564e-06
2.0988e-07
-2.43322e-07
7.81009e-07
2.03203e-08
-4.80351e-07
6.67246e-07
3.22914e-08
-6.81705e-07
4.5839e-07
5.70642e-08
-8.28865e-07
1.74121e-07
9.21317e-08
-9.04908e-07
-1.63553e-07
1.21354e-07
-8.96726e-07
-5.29006e-07
1.54903e-07
-8.02982e-07
-8.98035e-07
1.92389e-07
-6.12804e-07
-1.28307e-06
2.36078e-07
-2.99401e-07
-1.70101e-06
2.90783e-07
-1.63202e-06
2.96969e-07
-3.14319e-07
8.50234e-07
2.5732e-07
-6.17118e-07
7.08381e-07
2.61663e-07
-8.82291e-07
4.66819e-07
2.56743e-07
-1.09625e-06
1.56902e-07
2.31182e-07
-1.20683e-06
-2.89301e-07
2.36325e-07
-1.2272e-06
-7.61794e-07
2.53153e-07
-1.14872e-06
-1.26162e-06
2.85106e-07
-9.53641e-07
-1.82999e-06
3.51842e-07
-5.41768e-07
-2.59288e-06
4.80022e-07
-2.708e-06
5.34226e-07
-3.18448e-07
7.64498e-07
3.61149e-07
-5.63284e-07
5.84753e-07
3.68464e-07
-7.61692e-07
2.65901e-07
3.99326e-07
-9.72785e-07
-8.0365e-08
4.4836e-07
-1.25784e-06
-4.89823e-07
4.85542e-07
-1.41937e-06
-1.08582e-06
4.85539e-07
-1.42207e-06
-1.7584e-06
4.99584e-07
-1.33427e-06
-2.51559e-06
5.98127e-07
-9.46717e-07
-3.82372e-06
8.44369e-07
-4.59771e-06
9.43556e-07
-2.17865e-07
5.8771e-07
-3.44887e-07
-5.23735e-07
4.74852e-07
-2.5598e-07
-7.79869e-07
2.54239e-07
-7.63374e-08
-1.02058e-06
-1.46005e-08
1.70311e-07
-1.28747e-06
-3.55766e-07
3.7999e-07
-1.4914e-06
-9.3437e-07
5.31227e-07
-1.55452e-06
-1.72695e-06
6.56835e-07
-1.50066e-06
-2.61456e-06
8.43217e-07
-1.06709e-06
-4.09953e-06
1.10711e-06
-6.62589e-06
1.09908e-06
2.05917e-08
-2.86605e-08
-2.0598e-07
-1.03249e-07
-2.86282e-08
-1.61202e-07
-2.21112e-07
-2.42233e-08
-1.13419e-07
-3.41865e-07
-1.3066e-08
-1.04549e-07
-5.08705e-07
-2.66196e-09
-1.03485e-07
-7.66945e-07
-1.75442e-11
-3.90596e-08
-9.35143e-07
-1.00657e-10
7.74973e-08
-6.87148e-07
-1.61887e-09
1.98273e-07
-5.38e-07
-4.63566e-08
2.94055e-07
-2.18422e-06
5.44817e-07
1.08921e-08
2.01747e-09
-4.92731e-08
1.63665e-08
9.32031e-10
-4.17746e-08
1.1244e-08
-1.49717e-10
-2.36748e-08
1.6824e-09
-3.03752e-10
-5.38844e-09
-3.02266e-12
-4.25729e-10
-5.49833e-10
-9.95052e-12
-1.03433e-12
-1.00423e-11
-1.08847e-10
-1.81549e-12
-8.5584e-13
-1.6151e-09
-9.27565e-11
-7.03311e-13
-4.40207e-08
-3.47668e-09
1.744e-10
-3.21848e-09
3.74836e-08
1.23965e-09
4.13366e-10
-7.31672e-10
1.48346e-09
2.37626e-10
-6.39497e-10
8.90395e-10
4.30026e-11
-2.88258e-10
3.71724e-10
-4.2178e-12
-7.96824e-11
6.80799e-12
-1.7613e-11
-6.55423e-11
1.87646e-12
1.05296e-11
-7.5462e-12
-6.41479e-13
1.34844e-12
-1.37879e-12
-3.26461e-11
-1.03228e-10
-1.93881e-12
-5.09812e-12
-4.59712e-09
-5.80656e-12
-3.0111e-09
-2.5006e-11
1.51264e-10
8.6846e-11
3.29898e-11
1.68639e-10
6.24783e-11
1.39763e-11
1.11232e-10
2.78187e-11
6.57492e-12
4.26291e-11
2.43734e-11
-2.31787e-12
7.71723e-12
1.76328e-11
-5.98441e-12
7.14271e-12
1.21603e-11
-1.79089e-12
5.59986e-12
3.87644e-12
-1.52494e-12
4.89404e-12
2.04855e-11
-2.80869e-12
4.22328e-10
-7.46886e-10
-6.83714e-12
-1.73352e-09
-1.17904e-09
1.58961e-11
3.53634e-11
7.83544e-12
2.02502e-11
2.58202e-11
8.03926e-12
1.54219e-11
1.58016e-11
6.32059e-12
8.97438e-12
2.11013e-11
2.50955e-12
5.99944e-12
1.87239e-11
5.48432e-13
3.70775e-12
1.48358e-11
-9.25394e-13
2.69151e-12
5.27936e-12
-9.72544e-13
1.93599e-11
4.2764e-12
-1.04506e-12
1.50654e-10
-5.67555e-12
-4.33208e-11
-3.10233e-10
-1.03566e-09
1.68977e-12
1.61545e-11
7.28232e-12
2.47047e-12
9.13654e-12
5.37789e-12
1.93066e-12
6.44798e-12
6.16041e-12
2.71819e-12
8.38491e-12
3.93825e-12
4.34682e-11
9.37688e-11
2.2758e-11
1.33119e-10
2.64603e-10
2.09559e-11
1.08777e-10
3.69691e-10
-3.53833e-11
1.17718e-11
1.02124e-10
-2.23494e-12
5.98306e-11
1.36293e-10
-9.98799e-12
4.11498e-10
-1.52199e-09
3.40417e-12
6.45544e-11
4.1668e-12
1.61613e-12
2.54488e-11
1.56373e-11
4.13174e-13
2.86613e-12
1.05181e-12
8.25949e-12
3.29412e-11
1.37057e-11
2.17461e-11
9.24545e-11
4.92014e-11
8.26996e-11
2.52026e-10
1.09022e-10
1.09472e-10
4.92548e-10
7.7688e-12
4.59467e-11
8.73842e-10
-3.39789e-11
2.09156e-11
3.9916e-10
-7.6707e-11
2.85929e-10
-1.01781e-09
3.43338e-12
2.19252e-11
1.68054e-11
3.05138e-12
3.53496e-11
1.02939e-11
2.65005e-12
1.517e-11
3.83698e-12
6.45476e-12
2.56371e-11
2.15927e-11
1.28342e-11
-8.8887e-13
1.86156e-11
5.02052e-11
1.22242e-12
3.36015e-11
1.64778e-10
9.71044e-11
7.87661e-11
5.71626e-11
6.43567e-10
-4.26609e-11
2.30136e-12
5.35917e-10
-1.16768e-10
6.50756e-12
-3.5072e-10
-7.25526e-14
7.75237e-14
7.0326e-12
-8.78433e-15
3.1253e-13
7.08778e-12
4.9422e-13
1.52303e-12
4.08976e-12
1.24558e-12
-1.73821e-14
3.57494e-12
1.66973e-13
-1.21724e-16
1.90406e-13
1.36557e-12
-3.3714e-13
3.36627e-13
2.70515e-11
1.93611e-12
1.03192e-11
3.02018e-11
1.11106e-10
4.02615e-11
-5.84842e-12
4.86768e-10
-1.42861e-10
5.2822e-12
-7.17437e-11
-2.16424e-14
1.1316e-15
1.15411e-13
-6.7881e-15
4.447e-16
2.08169e-13
1.75026e-14
-3.02955e-18
1.24904e-13
6.12244e-17
-9.31463e-17
2.04621e-16
2.58179e-15
-2.40335e-15
7.48053e-17
1.77287e-13
-1.5077e-13
1.66926e-13
-4.83263e-13
4.05913e-12
8.44404e-12
-2.09126e-11
6.26915e-12
1.53761e-11
-8.67154e-12
1.49987e-10
-3.57451e-11
5.61087e-12
-1.02199e-11
-2.41492e-17
-4.62876e-20
1.13877e-15
-7.3205e-21
-4.87702e-20
4.20627e-16
-2.59999e-18
-1.5577e-19
5.8334e-20
-8.45738e-17
-1.45715e-17
4.05467e-18
-1.48442e-15
-1.67531e-15
7.23962e-16
-8.34696e-14
-1.24916e-13
5.99042e-14
-1.13743e-11
-3.76816e-13
6.72111e-12
-2.9344e-11
6.56206e-12
1.17311e-11
-4.0752e-12
-1.80495e-11
7.83714e-12
7.93477e-13
6.32037e-13
-2.29056e-21
-3.69151e-20
8.86399e-21
-3.80783e-20
-1.43433e-20
7.99498e-21
-3.58647e-20
-2.43031e-20
2.86418e-20
-1.78242e-17
-1.76436e-19
2.80619e-18
-1.96283e-15
-2.71056e-17
2.53141e-16
-1.37843e-13
-3.78276e-15
1.27991e-14
-1.4793e-11
-1.51193e-13
3.04757e-12
-1.47375e-11
-3.1648e-13
1.23708e-11
-6.99482e-13
-4.14326e-12
5.52745e-12
1.64267e-14
7.02646e-14
-3.19547e-21
1.68481e-20
-3.61544e-20
-7.10953e-21
5.65036e-21
-9.3546e-21
-7.29878e-21
5.17343e-21
-1.42231e-21
-2.15035e-19
2.10406e-20
-2.02223e-21
-3.39817e-17
5.82192e-18
-1.964e-19
-3.99009e-15
1.50543e-16
-3.68893e-17
-3.21909e-13
6.46567e-14
-4.09071e-16
-6.53018e-13
6.43208e-13
-2.0133e-14
-1.31814e-14
5.61554e-13
3.95774e-14
2.82738e-15
1.93969e-16
-1.86566e-07
2.29308e-08
1.75283e-07
-3.61682e-07
4.26428e-09
1.84337e-07
-4.94169e-07
-3.36128e-08
2.02582e-07
-5.73403e-07
-8.24433e-08
2.22498e-07
-5.9541e-07
-1.36971e-07
2.42975e-07
-5.61374e-07
-1.93468e-07
2.64212e-07
-4.7479e-07
-2.49896e-07
2.86163e-07
-3.38048e-07
-3.08073e-07
3.10626e-07
-1.55658e-07
-3.65594e-07
3.39355e-07
-3.20856e-07
3.1352e-07
-1.72595e-07
5.51131e-08
1.25895e-07
-3.42372e-07
3.06567e-08
1.34442e-07
-4.74038e-07
-4.35069e-08
1.56175e-07
-5.59093e-07
-1.40565e-07
1.8504e-07
-5.90814e-07
-2.50976e-07
2.15971e-07
-5.66654e-07
-3.69417e-07
2.48546e-07
-4.86882e-07
-4.90645e-07
2.81303e-07
-3.51212e-07
-6.17064e-07
3.15035e-07
-1.63029e-07
-7.42695e-07
3.52245e-07
-6.59098e-07
3.34926e-07
-2.17893e-07
1.25942e-07
1.45056e-07
-4.3546e-07
8.97172e-08
1.58884e-07
-6.03648e-07
-3.1502e-08
1.84485e-07
-7.11305e-07
-1.95365e-07
2.22149e-07
-7.52156e-07
-3.8226e-07
2.63497e-07
-7.22805e-07
-5.83439e-07
3.07191e-07
-6.2421e-07
-7.89175e-07
3.52316e-07
-4.54875e-07
-1.00513e-06
4.00508e-07
-2.134e-07
-1.22544e-06
4.54042e-07
-1.09834e-06
4.3572e-07
-2.82825e-07
2.57225e-07
1.88099e-07
-5.58469e-07
1.95135e-07
2.02517e-07
-7.75101e-07
1.23789e-08
2.29816e-07
-9.28666e-07
-2.19451e-07
2.69783e-07
-9.87718e-07
-5.25769e-07
3.23915e-07
-9.58501e-07
-8.43428e-07
3.85676e-07
-8.41348e-07
-1.16596e-06
4.52021e-07
-6.27308e-07
-1.51103e-06
5.27939e-07
-2.93829e-07
-1.88926e-06
6.21129e-07
-1.70428e-06
6.09081e-07
-4.09532e-07
6.18756e-07
3.14897e-07
-7.95316e-07
5.12125e-07
3.30456e-07
-1.12665e-06
2.50389e-07
3.50068e-07
-1.31835e-06
-1.95814e-07
3.99245e-07
-1.38968e-06
-6.81621e-07
4.63501e-07
-1.35328e-06
-1.15564e-06
5.28974e-07
-1.21144e-06
-1.6318e-06
6.09106e-07
-9.49105e-07
-2.16102e-06
7.39515e-07
-4.87342e-07
-2.81121e-06
9.4025e-07
-2.60343e-06
9.46055e-07
-5.09204e-07
1.06658e-06
3.89336e-07
-9.58921e-07
9.06341e-07
4.23966e-07
-1.31141e-06
4.91115e-07
5.1109e-07
-1.57521e-06
-8.90828e-08
6.05404e-07
-1.78238e-06
-6.66893e-07
6.77947e-07
-1.78848e-06
-1.39199e-06
7.28014e-07
-1.62272e-06
-2.12877e-06
8.31025e-07
-1.34757e-06
-2.90342e-06
1.06605e-06
-8.3623e-07
-3.89263e-06
1.41603e-06
-3.8419e-06
1.34686e-06
-4.00294e-07
8.87574e-07
-5.48069e-07
-8.57249e-07
7.64788e-07
-3.78851e-07
-1.34569e-06
4.86892e-07
-4.80203e-08
-1.70669e-06
1.35613e-07
2.09929e-07
-1.96984e-06
-2.82008e-07
4.81717e-07
-2.07074e-06
-9.27416e-07
7.33896e-07
-1.9119e-06
-1.74043e-06
1.02555e-06
-1.58288e-06
-2.52016e-06
1.38374e-06
-1.0689e-06
-3.32759e-06
1.73845e-06
-4.15193e-06
1.55297e-06
-1.18346e-08
-2.06768e-08
-5.25954e-07
-9.70321e-08
-2.33412e-08
-3.92968e-07
-2.01902e-07
-2.02184e-08
-2.77231e-07
-3.13364e-07
-4.2196e-09
-2.41167e-07
-4.55045e-07
-4.24704e-09
-1.87884e-07
-6.01202e-07
-7.33564e-10
-6.20877e-09
-6.52969e-07
-5.13123e-12
1.51306e-07
-5.10734e-07
-2.07455e-11
2.73915e-07
-3.15307e-07
-6.15597e-10
3.67831e-07
-3.84354e-08
6.58052e-07
4.03982e-09
4.78649e-10
-7.75809e-08
7.19302e-09
5.18015e-10
-7.06084e-08
8.77021e-09
3.46417e-10
-4.76167e-08
4.80864e-09
-2.63431e-10
-6.66562e-09
7.18832e-10
-6.79807e-10
-2.0649e-10
-7.41067e-13
-6.84064e-12
-1.53186e-11
-2.12638e-12
-7.24057e-13
-3.35024e-12
-1.72818e-11
-3.79166e-12
-2.05356e-12
-4.49169e-10
-7.35181e-12
-1.27025e-12
-1.55472e-09
8.025e-10
1.14324e-10
-1.64822e-11
-6.52244e-10
4.80191e-10
4.1313e-11
-6.36663e-10
5.66671e-10
2.51896e-11
-2.09363e-10
4.57799e-10
5.26916e-12
-1.87413e-10
1.62753e-11
-8.33405e-11
-1.36136e-10
4.14984e-12
1.2337e-11
-1.05957e-11
2.24354e-12
3.01321e-12
-4.12865e-12
1.9584e-12
3.93305e-13
-6.1566e-12
1.36604e-12
-2.35106e-12
-9.94164e-12
-1.62557e-09
-3.39366e-12
2.07726e-11
-2.20051e-12
1.18466e-12
5.70574e-11
5.78401e-11
-9.13429e-13
5.8145e-11
4.08031e-11
-1.46176e-12
5.57522e-11
2.40415e-11
-5.79925e-12
3.14046e-11
6.64156e-11
-2.40425e-11
7.63288e-12
3.36819e-11
-1.59242e-11
3.74255e-12
8.99353e-12
-4.34912e-12
3.91584e-12
3.40451e-12
-5.82544e-12
2.6683e-12
3.91634e-12
-1.24444e-11
-1.49005e-10
-1.3443e-11
3.09638e-12
3.41309e-11
2.45944e-12
9.98248e-12
2.24836e-11
5.81205e-12
1.26874e-11
1.42206e-11
4.18885e-12
1.49242e-11
2.17332e-11
1.97007e-12
1.37217e-11
6.37715e-11
3.12336e-12
1.34307e-11
1.30152e-10
-4.48294e-13
4.32103e-12
1.93866e-11
-2.84177e-12
2.8453e-12
6.35809e-12
-2.74255e-12
2.29822e-11
9.67151e-12
-6.91009e-11
7.28064e-10
-2.52219e-10
-1.03403e-11
1.67062e-11
3.28216e-11
1.08434e-12
4.97511e-11
4.44638e-11
2.56834e-11
1.72295e-11
1.66885e-11
1.23749e-10
3.39599e-11
3.33787e-11
2.37795e-10
1.03182e-10
7.28026e-11
1.37395e-10
2.45618e-10
3.67421e-11
7.86579e-11
3.73133e-10
7.60848e-13
7.30535e-12
8.66702e-11
-1.10825e-11
9.71294e-11
1.3869e-10
-2.29526e-10
1.60001e-09
-4.46423e-10
-2.1653e-11
3.52173e-12
5.0222e-11
-1.85591e-11
2.18866e-11
6.07925e-11
-3.10691e-12
3.32627e-12
1.28494e-11
9.11949e-12
1.75069e-12
1.20211e-11
7.79782e-11
1.4016e-12
1.33009e-11
1.90886e-10
5.43255e-11
3.79916e-11
1.95528e-10
2.7156e-10
5.41018e-11
2.11825e-10
1.29421e-09
-4.87195e-11
1.9999e-10
2.02816e-09
-6.41855e-10
2.67621e-09
-9.66943e-10
-1.16682e-11
-1.59414e-12
4.23689e-11
-3.06646e-12
-2.56186e-14
7.26561e-12
-1.89736e-12
-4.29783e-13
4.67921e-13
1.93152e-12
-1.65714e-12
6.4195e-13
2.72987e-12
-2.20572e-13
5.10144e-13
2.72308e-11
-4.1218e-13
1.6944e-12
2.89637e-10
3.93748e-11
2.72307e-11
7.15427e-10
1.22679e-09
-3.81145e-11
4.55765e-10
2.05496e-09
-3.95581e-10
1.29763e-09
-1.00219e-09
-2.98082e-13
-4.25662e-14
4.42225e-13
-4.95465e-13
-1.98398e-13
1.75577e-13
-4.44372e-14
-1.23856e-13
1.04308e-13
2.77961e-14
-1.70187e-15
2.13032e-14
2.39773e-15
-8.77188e-15
1.85799e-15
2.5835e-13
-3.32581e-13
6.35555e-15
4.72457e-11
1.43998e-12
1.24757e-12
2.36846e-10
3.95869e-10
-2.07671e-11
1.25614e-10
1.51372e-09
-1.89004e-10
-8.55004e-11
-1.9268e-10
-2.34223e-16
-1.13694e-15
8.15383e-15
-2.46358e-16
-4.17704e-16
2.35631e-15
-1.11619e-17
-6.97292e-17
8.8409e-16
-1.14598e-15
-1.85872e-16
4.68116e-17
-6.99416e-16
-1.03767e-14
1.67595e-15
3.49934e-13
-2.1364e-13
2.30494e-13
5.03617e-12
9.12142e-12
1.01857e-12
4.3361e-11
-1.10006e-11
-8.64303e-13
-7.8117e-12
1.36112e-10
-4.07122e-11
2.89649e-11
-5.34304e-12
-4.24196e-19
-1.57768e-19
7.26398e-18
-3.20091e-19
-2.74726e-19
3.11759e-18
-6.77728e-17
-2.36903e-18
5.18425e-19
-1.03108e-16
-1.9011e-16
4.45708e-17
6.62626e-16
-1.4702e-14
4.27995e-15
-1.19245e-12
-2.02265e-13
1.90228e-13
-3.00011e-12
1.11823e-11
2.66783e-12
-8.12096e-12
5.73709e-12
1.54572e-12
-1.11679e-11
-9.47976e-12
9.24152e-12
1.69583e-11
1.23016e-11
-1.21178e-20
-1.29249e-19
1.47932e-20
-4.31492e-20
-9.11885e-20
7.80744e-20
-2.47474e-18
-4.27051e-19
7.48988e-19
-2.14011e-16
-3.83864e-17
5.46232e-17
-1.67071e-14
-3.12308e-15
4.50766e-15
-2.09858e-12
-5.59953e-14
1.4551e-13
-1.67804e-11
5.4034e-12
7.22561e-12
-1.09163e-11
1.69233e-11
7.65283e-12
-2.30818e-12
-6.33932e-13
7.36391e-12
3.26033e-13
2.67981e-12
-2.28478e-20
1.24622e-19
-1.34431e-19
-3.63157e-20
8.45728e-20
-8.42903e-20
-1.62789e-19
1.44694e-19
-1.67744e-20
-4.87813e-17
1.00247e-17
-3.06769e-19
-4.00134e-15
8.59764e-16
-6.76658e-17
-9.06985e-13
3.13521e-14
-7.14697e-16
-7.96439e-12
1.71834e-12
-2.9928e-13
-2.26059e-12
8.07223e-12
4.30896e-13
-1.12077e-13
1.69536e-12
2.00638e-13
2.06265e-13
3.21471e-15
-1.67509e-07
-1.13927e-08
3.66138e-07
-3.3527e-07
-1.14384e-08
3.63537e-07
-4.61917e-07
-3.12603e-08
3.60489e-07
-5.34751e-07
-6.82208e-08
3.63553e-07
-5.53406e-07
-1.11991e-07
3.73621e-07
-5.20032e-07
-1.58978e-07
3.89817e-07
-4.38178e-07
-2.07393e-07
4.11702e-07
-3.09366e-07
-2.59058e-07
4.40872e-07
-1.38801e-07
-3.08784e-07
4.77574e-07
-2.59532e-07
4.34251e-07
-1.41154e-07
-2.88804e-08
2.99099e-07
-2.96951e-07
-1.32312e-08
2.92032e-07
-4.2429e-07
-4.44303e-08
2.96684e-07
-5.0496e-07
-1.11903e-07
3.09393e-07
-5.35129e-07
-1.98778e-07
3.32928e-07
-5.13334e-07
-2.96782e-07
3.64555e-07
-4.39827e-07
-4.00839e-07
4.01243e-07
-3.14036e-07
-5.12164e-07
4.42349e-07
-1.41363e-07
-6.1871e-07
4.89498e-07
-5.24502e-07
4.58533e-07
-1.85598e-07
-5.23618e-09
3.22881e-07
-3.81054e-07
2.33977e-08
3.17712e-07
-5.39702e-07
-3.8231e-08
3.36934e-07
-6.42393e-07
-1.53176e-07
3.66112e-07
-6.80635e-07
-3.0089e-07
4.03851e-07
-6.52682e-07
-4.68389e-07
4.50845e-07
-5.59575e-07
-6.43967e-07
5.02337e-07
-4.01268e-07
-8.29535e-07
5.59571e-07
-1.82165e-07
-1.00813e-06
6.24364e-07
-8.60632e-07
5.89685e-07
-2.38626e-07
8.43505e-08
3.53576e-07
-4.78903e-07
1.00456e-07
3.65736e-07
-6.79306e-07
2.15927e-09
3.89828e-07
-8.20793e-07
-1.71907e-07
4.30001e-07
-8.77441e-07
-4.08433e-07
4.88107e-07
-8.51547e-07
-6.70663e-07
5.62055e-07
-7.38195e-07
-9.48586e-07
6.43288e-07
-5.33505e-07
-1.23829e-06
7.32009e-07
-2.38277e-07
-1.51744e-06
8.35206e-07
-1.28953e-06
7.99704e-07
-3.47368e-07
3.88957e-07
3.74223e-07
-6.92386e-07
3.52785e-07
4.23145e-07
-9.85581e-07
1.79569e-07
4.65853e-07
-1.15989e-06
-1.40913e-07
5.4256e-07
-1.22602e-06
-5.15055e-07
6.36258e-07
-1.18587e-06
-9.24553e-07
7.42716e-07
-1.0237e-06
-1.3635e-06
8.61846e-07
-7.49407e-07
-1.79021e-06
1.01715e-06
-3.56668e-07
-2.1799e-06
1.20999e-06
-1.84446e-06
1.14432e-06
-5.19399e-07
9.15456e-07
3.84957e-07
-1.01268e-06
8.02638e-07
4.67394e-07
-1.38393e-06
4.67669e-07
5.94235e-07
-1.60866e-06
-3.23739e-08
7.21595e-07
-1.70542e-06
-5.58954e-07
8.18603e-07
-1.61093e-06
-1.23437e-06
9.43381e-07
-1.35822e-06
-1.93101e-06
1.146e-06
-1.02252e-06
-2.50836e-06
1.44888e-06
-5.9083e-07
-2.9361e-06
1.74119e-06
-2.55006e-06
1.46194e-06
-5.83891e-07
1.13984e-06
-4.81097e-07
-1.18588e-06
9.87844e-07
-2.96493e-07
-1.67702e-06
5.95868e-07
8.23911e-08
-1.9627e-06
2.97425e-08
4.45793e-07
-2.09256e-06
-4.70492e-07
7.45484e-07
-2.01635e-06
-1.1457e-06
1.09e-06
-1.72197e-06
-1.86244e-06
1.50954e-06
-1.28704e-06
-2.3892e-06
1.89123e-06
-8.14385e-07
-2.5902e-06
2.11645e-06
-2.68757e-06
1.63635e-06
-9.84495e-08
1.38494e-08
-8.2143e-07
-2.8258e-07
-8.53e-09
-6.13577e-07
-4.59777e-07
-2.33004e-08
-3.96675e-07
-5.87092e-07
-2.5718e-08
-2.09669e-07
-6.83513e-07
-5.20772e-09
-5.03939e-08
-6.39921e-07
-3.23641e-10
1.41773e-07
-5.40729e-07
-3.46884e-11
2.52818e-07
-3.77861e-07
-7.5978e-12
2.91385e-07
-1.98327e-07
-5.95695e-12
3.8467e-07
-7.82599e-10
8.06826e-07
7.61756e-09
-8.38751e-10
-1.05275e-07
1.15723e-08
-8.71896e-10
-9.38253e-08
1.08106e-08
-5.89306e-10
-7.17801e-08
1.97785e-09
-4.92787e-10
-2.30808e-08
1.14707e-10
-2.73579e-11
-3.56593e-09
5.19502e-12
-2.67026e-13
-2.32116e-10
1.18161e-12
-2.07062e-12
-3.04636e-11
5.30548e-13
-1.53202e-12
-7.62779e-12
6.90844e-13
-2.40552e-12
-5.0969e-12
-5.67231e-12
2.52704e-11
-2.60144e-11
-8.88954e-13
-1.62225e-09
2.12772e-10
-3.26595e-12
-1.71265e-09
1.11147e-10
-3.56399e-12
-6.82412e-10
2.01409e-10
-1.15882e-11
-1.57985e-10
4.40334e-11
1.93795e-11
-4.89611e-11
5.67066e-12
4.43436e-12
-7.49229e-12
4.06858e-12
1.17515e-12
-6.31743e-12
4.24986e-12
1.04426e-12
-8.13244e-12
2.54255e-12
1.41368e-12
-1.13717e-11
3.77754e-13
-7.34745e-12
1.37925e-12
-7.98588e-12
-4.6878e-13
1.21063e-12
-1.50514e-11
-3.43565e-13
3.34568e-12
-9.61672e-12
-7.8428e-14
4.06269e-11
-5.4919e-12
-1.51844e-13
5.99703e-11
-1.52072e-11
-5.2844e-13
1.17783e-11
8.83514e-12
-6.75044e-12
6.70159e-12
6.59593e-12
-1.54099e-11
4.95161e-12
4.75896e-12
-7.59851e-12
2.81657e-12
1.03585e-11
-1.95064e-11
8.69559e-12
-1.04154e-11
-4.40893e-12
-3.5501e-11
5.36703e-12
7.68277e-12
-3.9781e-11
1.08172e-11
8.11589e-13
-1.38921e-11
4.69375e-12
2.73886e-11
-2.11964e-11
1.98413e-12
4.72098e-11
-4.11012e-11
1.67053e-11
2.67754e-11
-5.7895e-12
1.75877e-11
5.42612e-12
4.89983e-12
3.15701e-12
5.08583e-12
1.77033e-11
-1.52346e-11
2.81123e-11
2.71032e-10
-4.56066e-10
5.1556e-11
-2.58445e-10
-2.99294e-11
-7.66884e-11
2.08319e-11
-9.68544e-12
-6.81289e-11
2.82256e-11
2.76043e-13
-7.81962e-12
4.30462e-12
2.24653e-11
-7.35264e-12
4.06532e-12
4.79871e-11
-1.16478e-11
1.92878e-12
4.78494e-11
-6.96112e-12
1.29051e-11
1.69561e-11
6.84498e-12
2.68476e-12
6.79164e-11
1.47558e-10
-7.86186e-11
1.46939e-10
8.31259e-10
-6.75412e-10
9.38085e-10
-5.40992e-10
-1.17825e-11
-4.77623e-11
5.4069e-11
-5.26869e-12
-6.66281e-12
1.21794e-12
-2.2324e-13
-5.6622e-13
2.22935e-13
8.7253e-14
-5.69727e-13
4.00772e-14
9.84494e-13
-4.76196e-13
2.33201e-13
7.2831e-12
-9.5269e-13
1.14614e-12
6.59891e-11
2.66544e-12
6.25834e-13
2.94947e-10
3.30096e-10
-1.70352e-11
4.73338e-10
1.51406e-09
-5.28232e-10
2.60917e-09
-1.23761e-09
-6.78928e-13
-4.42465e-13
1.29389e-12
-4.60662e-14
-1.63217e-13
1.17276e-13
-5.46255e-14
-1.00053e-13
6.46866e-15
-1.90372e-15
-2.04832e-14
1.78536e-14
2.62668e-14
-1.24429e-14
1.47239e-14
8.27061e-13
-1.69597e-14
-3.68442e-14
3.0526e-11
1.2958e-12
5.67361e-13
1.08167e-10
3.80814e-10
-3.26553e-11
5.96622e-11
6.18757e-10
-4.26468e-10
2.61745e-09
-6.54269e-10
-1.26953e-15
-5.82628e-15
1.07444e-14
-5.07786e-15
-2.33501e-15
1.82979e-14
-1.43578e-15
-9.08259e-16
1.30963e-15
-1.78508e-16
-1.02945e-15
1.72998e-16
-1.48838e-16
-1.36255e-14
2.09795e-16
4.72133e-15
-8.89797e-15
3.83748e-16
4.03824e-12
2.2627e-13
3.2445e-14
-3.77834e-11
1.78419e-11
-7.08586e-12
-8.90003e-11
4.90164e-11
-5.51693e-11
8.65247e-12
-7.11519e-11
3.03454e-18
-4.07578e-18
4.52422e-17
-4.92386e-18
-7.43066e-19
2.78546e-17
-2.51919e-17
-1.03799e-17
1.79205e-18
-1.08503e-15
-1.02876e-16
5.1859e-17
-5.32759e-14
-5.05217e-15
5.17466e-15
6.4719e-16
-9.16095e-14
-8.97857e-16
-3.16753e-14
1.33601e-12
9.01013e-15
-3.35249e-12
-1.65939e-12
-2.3181e-13
-1.23098e-11
8.16765e-12
-2.34314e-12
-7.24419e-12
-1.52275e-12
-2.87907e-20
-3.09706e-19
4.62894e-19
-3.95069e-19
-2.60309e-19
3.37189e-19
6.24786e-19
-1.26704e-18
1.05609e-18
-4.20817e-18
-8.79731e-17
4.04835e-17
3.97565e-15
-8.59216e-15
3.48577e-15
-2.13049e-12
-8.16428e-14
1.67608e-13
-1.15282e-12
9.57721e-12
1.87218e-14
-4.01784e-12
1.95725e-11
-1.47529e-13
-6.99756e-12
3.05996e-11
-3.32897e-13
3.99319e-12
1.35458e-12
-5.05549e-20
-4.21489e-19
2.74158e-19
-1.43511e-19
-2.14481e-19
3.45922e-19
1.16596e-18
-3.95008e-19
8.86954e-19
-5.36064e-17
-1.65281e-17
4.38154e-17
-6.8483e-15
-1.54093e-15
3.89186e-15
-7.50779e-13
-1.97829e-14
9.29258e-14
-1.22823e-11
4.91318e-12
4.47375e-12
-1.54961e-11
2.45202e-11
1.17336e-11
-4.23684e-12
1.54015e-11
1.27934e-11
5.57914e-15
8.53188e-13
-5.37881e-20
5.6782e-19
-3.63341e-19
-1.03421e-19
2.88075e-19
-1.85627e-19
-2.84812e-19
2.02234e-19
-7.36682e-20
-1.48493e-17
5.24786e-18
-1.41588e-19
-1.38147e-15
5.86882e-16
-2.58222e-17
-4.77791e-14
1.85594e-14
-1.50687e-16
-7.34262e-12
1.68827e-12
-1.67818e-13
-5.21866e-12
7.66249e-12
4.23807e-14
-2.09977e-13
5.55019e-12
9.41666e-14
2.53081e-15
-9.43679e-16
-1.6664e-07
4.0764e-08
5.04825e-07
-3.2165e-07
3.0803e-08
4.87744e-07
-4.36448e-07
4.24705e-09
4.7104e-07
-5.04472e-07
-2.74686e-08
4.59045e-07
-5.20638e-07
-7.13755e-08
4.61162e-07
-4.87848e-07
-1.15899e-07
4.72925e-07
-4.08963e-07
-1.60319e-07
4.93136e-07
-2.84907e-07
-2.08261e-07
5.25077e-07
-1.22339e-07
-2.51471e-07
5.66477e-07
-1.93506e-07
5.05419e-07
-1.4632e-07
6.45739e-08
4.45307e-07
-2.81982e-07
4.71037e-08
4.11393e-07
-3.89865e-07
1.92205e-08
3.89593e-07
-4.61072e-07
-3.51888e-08
3.8832e-07
-4.87853e-07
-1.15937e-07
4.04271e-07
-4.67422e-07
-2.06631e-07
4.34856e-07
-3.98701e-07
-3.00618e-07
4.72821e-07
-2.8027e-07
-4.02866e-07
5.18524e-07
-1.19901e-07
-4.94297e-07
5.71955e-07
-3.81988e-07
5.27114e-07
-1.79265e-07
1.64387e-07
4.30517e-07
-3.52972e-07
1.00272e-07
4.38251e-07
-4.90244e-07
5.68811e-08
4.36545e-07
-5.81638e-07
-3.19647e-08
4.54282e-07
-6.16671e-07
-1.66306e-07
4.89253e-07
-5.90422e-07
-3.20256e-07
5.3822e-07
-5.02143e-07
-4.80051e-07
5.93491e-07
-3.52856e-07
-6.4779e-07
6.55209e-07
-1.5247e-07
-7.95817e-07
7.25498e-07
-6.18294e-07
6.7352e-07
-2.07458e-07
3.50216e-07
4.01452e-07
-4.27038e-07
2.13912e-07
4.71675e-07
-6.06911e-07
1.3311e-07
4.93472e-07
-7.29939e-07
-9.60631e-09
5.30671e-07
-7.80996e-07
-2.1761e-07
5.90467e-07
-7.55462e-07
-4.50737e-07
6.67001e-07
-6.48126e-07
-6.97906e-07
7.53806e-07
-4.56173e-07
-9.56141e-07
8.48407e-07
-1.9384e-07
-1.17877e-06
9.55822e-07
-9.08319e-07
8.9589e-07
-2.38754e-07
6.12215e-07
3.79911e-07
-5.49643e-07
4.1951e-07
5.28438e-07
-8.08795e-07
2.7122e-07
5.86895e-07
-9.75632e-07
4.63087e-08
6.53482e-07
-1.04967e-06
-2.49206e-07
7.41892e-07
-1.02282e-06
-6.03259e-07
8.68384e-07
-8.71891e-07
-1.00206e-06
1.01508e-06
-6.18488e-07
-1.3754e-06
1.183e-06
-2.88606e-07
-1.65764e-06
1.35898e-06
-1.2814e-06
1.22879e-06
-3.42253e-07
1.0685e-06
2.97312e-07
-8.04615e-07
8.43836e-07
5.05429e-07
-1.16208e-06
5.75866e-07
6.47059e-07
-1.37719e-06
1.88011e-07
7.94999e-07
-1.44845e-06
-3.10372e-07
9.51024e-07
-1.36366e-06
-8.70145e-07
1.1255e-06
-1.12992e-06
-1.47361e-06
1.38388e-06
-8.31344e-07
-1.9212e-06
1.69628e-06
-4.95075e-07
-2.14521e-06
1.89273e-06
-1.79253e-06
1.4781e-06
-4.50775e-07
1.37861e-06
-2.70683e-07
-1.13517e-06
1.22697e-06
4.77201e-09
-1.66825e-06
8.62281e-07
3.2905e-07
-1.90603e-06
1.80853e-07
6.61735e-07
-1.94908e-06
-3.89275e-07
9.62711e-07
-1.81767e-06
-9.94749e-07
1.37277e-06
-1.4822e-06
-1.5745e-06
1.86933e-06
-1.02417e-06
-1.84234e-06
2.17405e-06
-6.38674e-07
-1.73584e-06
2.18957e-06
-1.74493e-06
1.559e-06
-1.19552e-07
1.74774e-07
-6.74775e-07
-4.83742e-07
1.69612e-07
-4.44481e-07
-8.64615e-07
8.94031e-08
-1.93526e-07
-1.07679e-06
-1.8647e-08
1.43008e-07
-9.3478e-07
-4.65626e-08
5.62614e-07
-6.13237e-07
-4.10004e-09
6.343e-07
-2.97205e-07
-4.54943e-10
5.16704e-07
-1.13608e-07
-6.57227e-11
3.91085e-07
-4.74799e-08
-2.44963e-11
3.66772e-07
-2.28387e-11
5.78838e-07
3.62816e-08
-9.84916e-08
-7.12072e-07
2.83846e-08
-6.70157e-08
-5.35029e-07
3.19138e-08
-2.97831e-08
-3.25255e-07
1.52653e-08
-3.31168e-09
-1.08839e-07
2.33521e-09
-5.83619e-10
-3.66477e-08
2.41753e-10
-5.98609e-11
-2.18641e-09
3.2636e-11
-1.66678e-11
-2.62626e-10
7.26248e-12
-6.4423e-12
-4.24443e-11
1.88162e-12
-1.26522e-12
-2.38844e-11
1.03699e-13
1.41765e-12
5.17898e-11
-7.62828e-10
-1.0099e-07
1.41171e-09
-2.32975e-10
-6.98683e-08
6.85701e-10
-6.98937e-12
-2.97328e-08
2.9636e-10
-7.35718e-13
-3.08045e-09
2.82593e-11
-2.86199e-12
-3.62567e-10
1.27194e-11
-2.71415e-11
-2.79681e-11
1.04216e-11
-1.01406e-11
-1.14423e-11
9.76684e-12
-2.35854e-12
-1.13869e-11
5.65368e-12
4.59063e-12
-1.31631e-11
4.71584e-12
-7.14382e-12
-1.86778e-12
-1.50235e-11
-7.60012e-10
7.14996e-13
-8.64383e-12
-2.28088e-10
2.18368e-13
-2.3107e-12
-4.73095e-12
4.68771e-13
-1.94041e-12
-3.56917e-14
1.64695e-12
-5.28235e-12
-1.37947e-13
5.20708e-11
-5.27253e-11
-1.76711e-11
4.77247e-11
-7.16123e-11
-4.72041e-11
1.68594e-11
3.66022e-12
-1.47245e-11
1.20934e-11
1.12644e-10
-1.20482e-10
1.77898e-11
-1.41898e-11
-2.32805e-13
-7.58968e-12
2.09861e-13
6.31302e-14
-1.09273e-11
1.12802e-12
1.24811e-13
-1.60314e-12
3.90329e-13
7.27397e-13
-1.09608e-12
1.61199e-13
7.75406e-12
-2.05321e-12
8.48245e-13
3.68454e-11
-1.56062e-11
5.96827e-12
7.70417e-11
-2.44839e-11
-1.04953e-10
1.01623e-10
-1.34944e-10
-1.07786e-10
2.49968e-10
6.65481e-10
-6.90401e-10
8.73003e-10
-3.73741e-10
-1.56317e-12
-2.64486e-11
4.2817e-13
-1.14854e-13
-3.5216e-12
2.71876e-13
2.22638e-14
-1.80025e-13
3.14652e-14
9.69094e-14
-5.09568e-14
-5.24666e-14
3.60392e-13
-1.94505e-13
-2.68104e-13
2.96538e-12
-8.0027e-13
1.99814e-13
5.88865e-11
-9.96262e-12
-1.09348e-11
2.54777e-10
-5.72485e-11
-1.40184e-10
2.8882e-10
7.71751e-10
-9.69535e-10
1.29382e-09
-9.14106e-10
-4.00305e-13
-6.05077e-12
9.54956e-14
-2.48314e-14
-1.23512e-13
1.90564e-13
-1.50364e-16
-6.40475e-15
3.47135e-15
-2.47762e-16
-1.76227e-14
5.53773e-15
7.74829e-15
-1.94818e-14
4.81036e-14
2.80048e-13
-2.87473e-13
3.41612e-13
3.97069e-12
-7.43894e-13
2.10129e-12
-8.57197e-11
2.14657e-13
-6.0249e-12
-1.31071e-11
4.67646e-10
-7.45834e-10
1.90731e-09
-1.0859e-09
1.85158e-14
-5.99486e-15
1.26279e-12
-8.57196e-17
-3.13143e-15
1.29516e-14
-4.09022e-16
-1.0561e-15
8.05795e-16
-6.05131e-16
-3.01801e-16
3.09498e-16
-6.44304e-15
-1.00384e-15
5.48758e-16
-2.11344e-13
-5.82601e-15
6.64666e-14
4.8118e-13
-6.18356e-14
4.87993e-13
-3.16497e-11
1.91907e-12
-2.80739e-12
-2.40271e-10
2.09217e-11
-1.71594e-10
2.32895e-10
-5.41222e-10
3.3804e-17
-3.71897e-17
4.69128e-15
2.38068e-17
-3.04152e-17
1.52157e-14
-7.6546e-18
-7.25901e-18
2.88509e-16
-1.00675e-16
-5.08703e-17
1.13119e-17
-8.62461e-17
-3.13164e-15
1.21557e-16
-2.92738e-15
-2.8712e-15
2.14818e-16
-4.97464e-14
1.6185e-14
1.60801e-15
-5.27553e-12
6.42512e-14
-2.28886e-14
-3.80754e-11
-2.06165e-13
-1.82006e-12
-3.94704e-12
-1.28316e-11
7.24975e-20
-9.14838e-19
7.03158e-18
-2.424e-19
-1.23673e-18
1.82942e-18
-5.51967e-19
-1.96134e-18
6.25369e-19
-1.14186e-16
-1.75867e-17
7.46438e-18
-9.82637e-15
-1.06647e-15
3.70615e-16
-1.75547e-15
-4.51712e-14
-2.86455e-16
-9.28256e-15
5.9345e-14
2.09762e-15
-6.40628e-13
4.27942e-13
-8.18812e-15
-3.09698e-12
1.00672e-12
5.45779e-14
-2.29499e-12
-9.55838e-15
-1.30793e-19
-1.84595e-18
8.72189e-19
-4.63737e-19
-1.41416e-18
1.07646e-18
-1.03583e-18
-9.05448e-19
1.28966e-18
3.65078e-17
-1.27105e-17
4.01304e-18
3.55993e-15
-1.36147e-15
2.09193e-16
-1.55861e-13
-4.06733e-14
-2.28724e-16
-1.93944e-13
1.87715e-13
-4.27562e-14
-1.41021e-12
2.19274e-12
-5.14212e-14
-1.22825e-12
1.2533e-12
-1.24093e-13
-4.01162e-13
3.25334e-14
-2.81795e-19
-1.65289e-18
1.76288e-18
-2.74057e-19
-1.29931e-18
1.4493e-18
-4.8183e-19
-2.46073e-19
4.96675e-19
2.99338e-17
-2.62853e-18
2.09685e-18
2.56041e-15
-2.04754e-16
1.03774e-16
-1.67901e-13
-4.68596e-15
1.27075e-14
-3.13602e-12
6.57766e-14
-6.65757e-14
-3.13633e-12
2.33114e-12
8.26731e-14
-5.30249e-13
1.33783e-12
1.88967e-13
-6.37015e-15
5.63586e-15
-3.61712e-19
1.56867e-18
-9.45054e-19
-9.59166e-20
1.38594e-18
-1.09943e-18
-1.64223e-19
1.81066e-19
-1.13541e-19
2.25615e-18
2.56955e-19
-3.51405e-20
3.62987e-16
1.0339e-17
-1.88458e-18
1.07861e-14
3.90087e-16
-1.16604e-16
-1.22791e-12
-2.3763e-14
-4.26668e-15
-7.03228e-13
5.35976e-14
-5.26168e-16
2.08585e-16
1.08657e-13
-7.75412e-14
9.45877e-17
-8.08524e-18
-1.84103e-07
1.21145e-07
5.88012e-07
-3.36747e-07
8.21076e-08
5.5828e-07
-4.39522e-07
4.25282e-08
5.31286e-07
-4.94744e-07
2.78575e-10
5.13989e-07
-5.0404e-07
-3.70135e-08
5.07472e-07
-4.67658e-07
-7.70157e-08
5.13559e-07