/*--------------------------------*- C++ -*----------------------------------*\
| =========                 |                                                 |
| \\      /  F ield         | OpenFOAM: The Open Source CFD Toolbox           |
|  \\    /   O peration     | Version:  2312                                  |
|   \\  /    A nd           | Website:  www.openfoam.com                      |
|    \\/     M anipulation  |                                                 |
\*---------------------------------------------------------------------------*/
FoamFile
{
    version     2.0;
    format      ascii;
    arch        "LSB;label=32;scalar=64";
    class       surfaceScalarField;
    location    "0.865";
    object      alphaPhi0.water;
}
// * * * * * * * * * * * * * * * * * * * * * * * * * * * * * * * * * * * * * //

dimensions      [0 3 -1 0 0 0 0];

oriented        oriented;

internalField   nonuniform List<scalar> 
22600
(
1.00501e-07
-2.01155e-07
1.00654e-07
2.9229e-07
-2.58817e-07
6.70282e-08
4.48484e-07
-2.05639e-07
4.94451e-08
5.29601e-07
-1.44873e-07
6.37554e-08
5.44714e-07
-9.99351e-08
8.48225e-08
5.0978e-07
-6.21291e-08
9.70629e-08
4.38957e-07
-2.98972e-08
1.0072e-07
3.48448e-07
-7.35721e-09
9.78662e-08
2.52265e-07
4.98628e-09
9.11966e-08
1.07968e-08
8.03933e-08
8.1018e-08
-3.59861e-07
7.76882e-08
2.85892e-07
-4.95138e-07
3.14469e-08
4.30128e-07
-3.40462e-07
-9.41305e-09
4.95992e-07
-2.13449e-07
2.71294e-09
5.03191e-07
-1.50354e-07
4.32191e-08
4.70425e-07
-1.03597e-07
7.42338e-08
4.1073e-07
-5.71178e-08
8.69153e-08
3.33847e-07
-2.24763e-08
9.2003e-08
2.51676e-07
-1.02249e-08
9.73814e-08
-1.35948e-08
9.6249e-08
1.84381e-07
-7.08461e-07
1.64218e-07
4.68349e-07
-9.66053e-07
1.86946e-07
5.76386e-07
-5.1324e-07
6.4742e-08
5.94555e-07
-2.31028e-07
-5.89588e-10
5.80061e-07
-1.5482e-07
1.89604e-08
5.29787e-07
-1.26575e-07
7.32517e-08
4.46611e-07
-8.56015e-08
1.11659e-07
3.44207e-07
-5.64041e-08
1.36332e-07
2.49789e-07
-8.0065e-08
1.64258e-07
-1.63731e-07
1.94887e-07
4.23475e-07
-1.48201e-06
3.50078e-07
7.6584e-07
-1.80774e-06
4.9932e-07
7.59525e-07
-8.44943e-07
3.38017e-07
6.52507e-07
-2.94297e-07
1.70288e-07
5.96321e-07
-1.9874e-07
1.00106e-07
5.39917e-07
-1.97337e-07
1.27166e-07
4.16431e-07
-1.45175e-07
1.8306e-07
2.45822e-07
-1.32198e-07
2.46403e-07
1.69179e-07
-3.48045e-07
3.44623e-07
-6.66761e-07
4.43569e-07
6.25384e-07
-2.65184e-06
5.44537e-07
7.7673e-07
-2.88048e-06
9.21583e-07
6.48492e-07
-1.47196e-06
7.55252e-07
4.60393e-07
-6.33118e-07
5.26917e-07
3.61114e-07
-4.78614e-07
3.79154e-07
3.36023e-07
-5.08291e-07
3.36045e-07
2.3183e-07
-3.87715e-07
3.46733e-07
9.56028e-08
-4.29234e-07
4.33262e-07
1.63341e-07
-1.02185e-06
6.06069e-07
-1.43197e-06
6.97873e-07
6.52876e-07
-3.6467e-06
8.68644e-07
3.87164e-07
-3.35626e-06
1.49417e-06
1.68526e-07
-2.5972e-06
1.45848e-06
8.28536e-08
-1.5807e-06
1.03313e-06
1.01554e-07
-1.19862e-06
7.01294e-07
2.46038e-07
-1.18572e-06
5.3295e-07
3.44078e-07
-9.20186e-07
4.34432e-07
3.29102e-07
-8.43735e-07
4.29477e-07
4.48327e-07
-1.63409e-06
4.93016e-07
-1.87222e-06
5.24687e-07
1.54999e-07
-6.88222e-11
4.26226e-07
1.68585e-07
-1.73539e-09
3.15111e-07
3.1486e-07
-8.559e-08
6.91564e-07
4.06201e-07
-8.83869e-07
8.83381e-07
4.48387e-07
-1.23887e-06
6.14354e-07
5.82895e-07
-1.61177e-06
3.46879e-07
6.63884e-07
-1.37603e-06
3.75003e-07
4.86998e-07
-9.91175e-07
3.35066e-07
4.9466e-07
-1.89791e-06
2.50858e-07
-2.16519e-06
2.77705e-07
-3.10839e-11
-1.11954e-11
-2.33712e-11
-1.20774e-09
-1.02183e-11
-5.45966e-10
-8.29585e-08
-7.93475e-11
-3.75862e-09
1.17765e-07
-1.65297e-11
-2.09592e-08
3.44668e-07
-7.15321e-08
-6.14133e-08
4.07658e-07
-3.60453e-07
-5.90778e-08
2.57194e-07
-8.45489e-07
1.24595e-07
1.46951e-07
-8.17612e-07
1.79211e-07
7.89004e-08
-1.26476e-06
1.20411e-07
-1.24063e-06
3.79785e-08
-1.73664e-12
-6.14174e-12
-7.77967e-13
2.80119e-12
-4.07688e-12
-7.50754e-12
1.0902e-11
-4.7369e-12
-8.02144e-11
8.83731e-13
-2.89818e-14
-7.23221e-12
-7.18093e-08
3.48947e-10
-7.17155e-11
-3.18856e-07
-4.07427e-10
5.90919e-08
-2.28314e-07
-1.0501e-08
2.65489e-07
-1.55801e-07
-1.71408e-07
3.29737e-07
-3.17872e-07
-4.32232e-12
3.07021e-07
-4.42703e-12
2.47438e-07
5.75549e-13
4.39651e-13
-4.09284e-12
8.59933e-12
-6.20189e-12
-2.20566e-11
2.56994e-11
-1.15832e-11
-3.77976e-11
2.59212e-11
-5.51618e-12
-1.70319e-11
4.20574e-10
-6.91044e-11
1.38651e-11
1.44543e-11
-4.67753e-12
1.6097e-13
-2.51659e-10
-2.33611e-11
1.33675e-10
-2.27498e-12
-8.28105e-12
2.85537e-09
-8.36551e-12
-2.03334e-12
3.79637e-12
-4.78499e-12
4.72071e-12
1.69746e-11
1.65158e-11
-2.82816e-11
1.51928e-10
2.46461e-12
-1.30144e-10
1.44954e-10
3.13793e-13
-1.7847e-10
1.14351e-10
-4.95547e-11
-1.55993e-10
3.92909e-11
9.67227e-13
-1.97406e-11
2.96968e-11
5.35515e-12
-6.65426e-13
5.58459e-12
-3.73044e-12
4.50963e-12
-6.57242e-12
-3.76769e-12
7.66903e-12
-1.17574e-11
-2.80932e-12
5.96162e-12
-6.87258e-12
5.46918e-12
6.38998e-11
1.70463e-10
-1.98477e-10
1.37499e-10
1.26025e-10
-1.65705e-10
2.00704e-10
7.09941e-11
-1.00839e-10
2.96541e-10
-1.06853e-12
-1.05567e-10
2.46733e-10
1.04876e-11
-1.11934e-10
2.31742e-11
1.63563e-11
-1.62741e-12
7.60834e-12
3.35119e-12
8.23597e-12
-6.14449e-12
5.75412e-13
9.43709e-12
-1.31872e-11
-2.58946e-12
6.84826e-12
-4.46648e-12
-3.44337e-13
5.79994e-11
2.92791e-10
-1.52651e-10
8.21915e-11
2.07838e-10
-7.517e-11
1.24715e-10
9.7479e-11
-8.95244e-12
1.39263e-10
6.42762e-11
-1.02751e-11
1.08924e-10
5.64478e-11
-1.31271e-10
2.05236e-11
1.27496e-11
-1.27694e-12
2.41645e-12
7.98156e-12
1.18819e-11
-1.00447e-11
1.25363e-11
1.14177e-11
-3.22992e-11
1.49439e-12
7.10048e-12
-4.61757e-13
-3.29635e-12
1.99065e-11
4.24213e-10
-1.23652e-10
5.52409e-12
1.05388e-10
-2.05965e-11
3.45067e-11
1.41292e-12
-6.07422e-12
1.1379e-10
6.86705e-11
-1.42529e-11
7.00771e-11
6.75706e-11
-8.79409e-11
-3.40899e-12
1.6071e-11
-3.03365e-13
-4.44802e-12
3.27146e-11
1.83649e-11
-1.2894e-10
4.1464e-11
4.42896e-11
-1.72821e-10
4.4869e-11
1.0726e-11
2.39429e-11
-1.196e-11
-6.82178e-12
4.78475e-10
-1.97639e-11
-1.12782e-11
1.69258e-11
-9.36776e-13
-3.1591e-12
5.57199e-12
-4.82491e-12
7.13915e-11
4.78266e-11
-8.40437e-12
3.45037e-11
3.38507e-11
-2.66439e-11
1.38912e-11
2.05121e-11
3.34884e-12
-9.46415e-11
7.1613e-11
5.46442e-11
-2.2066e-10
1.03327e-10
8.13325e-11
-2.41528e-10
8.18334e-11
-1.61146e-12
8.53266e-11
-3.29163e-11
-2.25283e-11
1.72008e-10
5.41404e-11
-1.01915e-11
7.06733e-12
-2.92836e-13
-1.32122e-11
7.68644e-12
-3.34921e-12
1.53833e-11
4.37528e-12
-6.203e-12
2.04504e-11
1.82939e-11
-4.79402e-12
-8.77829e-12
5.3778e-11
8.2489e-12
-1.63009e-10
1.43216e-10
9.9805e-11
-2.49533e-10
1.5227e-10
5.47372e-11
-6.58455e-11
5.73401e-11
-1.97626e-11
9.97812e-11
-3.53344e-11
-3.25935e-12
7.30792e-11
1.64031e-11
-3.80842e-12
9.62842e-12
7.17626e-13
-2.28367e-12
4.96605e-12
-1.21181e-12
6.94648e-14
4.65435e-12
-2.37757e-12
4.82192e-12
1.58301e-11
-1.76013e-12
-6.71043e-11
1.04323e-10
2.54348e-11
-1.66645e-10
1.7761e-10
7.8911e-11
-1.18807e-10
6.65702e-11
1.00455e-11
9.90889e-11
5.88776e-11
-1.80151e-11
3.26367e-10
-8.07888e-11
-5.73033e-12
2.34059e-10
7.05921e-11
-1.87214e-12
4.61915e-12
9.64621e-13
-1.17628e-12
4.57182e-12
-5.92914e-13
-2.29279e-12
6.55397e-12
-1.19238e-12
-9.68238e-12
8.80498e-11
-1.97824e-12
-5.1647e-11
1.24485e-10
2.73827e-11
-4.71232e-11
2.03163e-11
2.01885e-11
-3.06567e-12
7.26926e-12
6.15185e-13
-2.00305e-11
7.22253e-11
-1.63391e-11
3.73741e-10
-1.73492e-10
-1.50768e-12
1.90909e-10
1.73066e-10
-1.66109e-12
3.27327e-12
1.29692e-12
-3.04952e-12
5.31557e-12
4.58163e-13
-1.99976e-11
1.49706e-11
3.2127e-13
-3.22122e-11
1.06514e-10
6.37664e-12
-2.34861e-11
1.05715e-10
1.65249e-11
-1.41342e-11
1.05287e-11
2.41237e-12
-2.97212e-11
1.10756e-11
8.93748e-13
-2.58344e-10
1.19498e-10
-3.69939e-11
1.49556e-10
-3.70692e-11
-7.9369e-13
1.5168e-10
9.07665e-11
-1.32918e-12
1.61828e-12
1.97703e-12
-3.41097e-12
1.5352e-12
5.64891e-12
-1.17522e-11
5.61687e-12
5.18403e-12
-2.518e-11
1.78431e-11
8.67982e-12
-8.56701e-12
1.13377e-11
1.31936e-11
-5.98216e-12
1.26248e-12
6.22317e-12
-2.04435e-11
6.49595e-12
9.68513e-12
-5.21252e-11
5.67518e-12
2.75786e-11
1.78422e-11
5.43709e-12
6.6113e-08
-2.65332e-07
2.99873e-07
3.11272e-07
-4.98777e-07
3.20646e-07
5.46082e-07
-4.70489e-07
2.85124e-07
6.70499e-07
-3.31591e-07
2.7093e-07
6.97692e-07
-2.12096e-07
2.69725e-07
6.62029e-07
-1.37243e-07
2.69969e-07
5.8242e-07
-8.95596e-08
2.69888e-07
4.69143e-07
-5.64121e-08
2.67555e-07
3.29975e-07
-3.33303e-08
2.63695e-07
-2.70723e-08
2.53797e-07
3.58611e-08
-5.15912e-07
2.92407e-07
3.689e-07
-1.16979e-06
3.69416e-07
6.3657e-07
-1.04408e-06
2.96507e-07
7.31994e-07
-6.58374e-07
2.34072e-07
7.15511e-07
-3.82754e-07
2.3036e-07
6.55005e-07
-2.47848e-07
2.45345e-07
5.69067e-07
-1.73326e-07
2.56619e-07
4.58505e-07
-1.18807e-07
2.6496e-07
3.28825e-07
-8.1875e-08
2.75606e-07
-8.45415e-08
2.80188e-07
2.21244e-07
-1.03487e-06
4.6193e-07
7.95798e-07
-2.30544e-06
7.48053e-07
1.05507e-06
-1.84269e-06
6.04082e-07
1.04786e-06
-1.01275e-06
3.6099e-07
9.36788e-07
-5.05368e-07
2.52648e-07
8.14095e-07
-3.13527e-07
2.61623e-07
6.90295e-07
-2.35812e-07
2.97946e-07
5.49725e-07
-1.75516e-07
3.3361e-07
3.89515e-07
-1.32778e-07
3.75372e-07
-1.60466e-07
4.11671e-07
5.59922e-07
-1.98417e-06
7.39462e-07
1.25188e-06
-3.71112e-06
1.21308e-06
1.42999e-06
-2.73719e-06
1.05441e-06
1.2887e-06
-1.39368e-06
6.92513e-07
1.10496e-06
-6.36781e-07
4.15264e-07
9.47028e-07
-3.755e-07
3.47071e-07
7.74491e-07
-2.82204e-07
4.01989e-07
5.59916e-07
-2.03188e-07
4.88651e-07
3.67012e-07
-1.96245e-07
6.00993e-07
-3.6299e-07
7.14889e-07
8.20862e-07
-3.17411e-06
9.13923e-07
1.27765e-06
-4.80289e-06
1.55806e-06
1.31799e-06
-3.47527e-06
1.45334e-06
1.15309e-06
-1.81648e-06
1.11461e-06
9.8468e-07
-8.55676e-07
7.66461e-07
8.48762e-07
-4.97801e-07
5.94263e-07
6.77101e-07
-3.97761e-07
6.33951e-07
4.66496e-07
-3.63457e-07
8.04138e-07
3.6423e-07
-4.95543e-07
1.00763e-06
-8.10109e-07
1.15013e-06
1.15407e-06
-3.31736e-06
8.52216e-07
9.89265e-07
-2.89316e-06
1.36508e-06
8.39194e-07
-2.78457e-06
1.57217e-06
7.78042e-07
-2.12776e-06
1.40547e-06
7.50986e-07
-1.2329e-06
1.10555e-06
7.01779e-07
-7.43411e-07
8.27766e-07
7.19177e-07
-6.98293e-07
7.17566e-07
8.30575e-07
-8.60127e-07
8.1475e-07
8.88448e-07
-1.08619e-06
1.02579e-06
-1.14315e-06
1.21246e-06
5.20152e-07
-6.44874e-09
7.17701e-08
2.63927e-07
-1.13286e-08
-6.88856e-08
2.70475e-07
-7.68511e-08
1.23737e-07
5.70309e-07
-4.73389e-07
4.66652e-07
8.06092e-07
-8.49582e-07
6.95575e-07
8.51138e-07
-1.05321e-06
6.68998e-07
1.08169e-06
-1.16998e-06
6.16231e-07
1.33314e-06
-1.47988e-06
7.03466e-07
1.3133e-06
-1.77273e-06
9.57401e-07
-1.40591e-06
1.04888e-06
7.2416e-11
-1.39344e-11
-6.52612e-09
-3.17368e-10
2.88206e-12
-1.15407e-08
-3.96864e-08
1.96327e-10
-4.16338e-08
3.9902e-09
-1.69733e-10
-9.79117e-08
3.68982e-07
-4.32707e-09
-2.51187e-07
9.58944e-07
-2.04936e-07
-1.78504e-07
1.0972e-06
-4.73618e-07
3.67525e-08
8.55162e-07
-7.76393e-07
2.90614e-07
5.77554e-07
-1.0303e-06
5.06792e-07
-7.92431e-07
4.85609e-07
1.1315e-12
-6.72613e-12
-5.9077e-12
5.06209e-12
4.03523e-13
-5.94837e-12
1.19137e-10
-2.06936e-12
-2.54525e-11
8.64857e-12
-1.8569e-11
-4.64758e-11
-4.12573e-09
4.74249e-11
-3.17649e-10
-1.49702e-07
8.80899e-10
-1.7559e-09
3.60498e-08
-1.72131e-07
1.83122e-08
6.7449e-08
-1.82064e-07
3.37798e-07
-2.01276e-07
-2.52192e-12
5.22461e-07
-3.12058e-12
4.90436e-07
2.23366e-12
-4.23578e-12
-4.90584e-12
3.07239e-11
-4.09241e-11
-1.84852e-12
7.28456e-11
-9.41534e-11
-7.31139e-12
7.78793e-11
-9.55318e-11
-1.64406e-12
1.12595e-10
6.50109e-12
6.94674e-12
5.02078e-10
5.98997e-11
3.98944e-10
-2.6391e-09
-1.02244e-10
1.3941e-08
-5.70902e-13
-1.52892e-11
3.30621e-08
-9.306e-12
3.01385e-12
6.99031e-12
1.43909e-12
5.53241e-12
1.20976e-11
-1.34719e-11
-3.27051e-11
7.54017e-11
-8.88466e-11
-7.42744e-12
9.95814e-11
-1.967e-10
-1.05982e-10
8.58285e-11
-1.89455e-10
-3.03563e-11
6.95648e-11
-2.14904e-11
-9.98165e-12
1.24148e-10
-6.23832e-12
1.0431e-12
1.69956e-11
1.29437e-12
7.62027e-12
-1.06447e-12
-3.14955e-12
1.35808e-11
-8.26759e-12
4.46695e-12
1.17029e-11
4.62744e-12
6.44722e-12
5.17102e-12
3.46692e-12
-1.05004e-11
3.22256e-11
-5.50527e-11
-3.52479e-11
4.67963e-11
-4.56545e-12
-1.97053e-11
6.0162e-11
-3.70785e-12
-3.60732e-11
5.12567e-11
1.29149e-12
-2.31234e-10
1.37684e-11
7.52498e-12
-6.81703e-12
1.24336e-11
4.05808e-12
6.74909e-12
1.65581e-12
3.15654e-12
1.39304e-11
-4.08704e-12
5.20822e-12
1.18318e-11
8.94974e-12
3.5684e-12
-6.58752e-12
9.21368e-11
-3.1003e-11
2.70077e-12
-2.10107e-12
-1.02108e-10
8.15345e-13
-9.25799e-13
-1.08985e-11
1.46233e-12
-5.91585e-13
-1.38223e-11
2.43302e-11
1.09849e-11
-2.37751e-10
1.21534e-11
1.46421e-11
-6.16655e-11
8.07405e-12
7.65575e-12
1.24283e-11
2.72213e-13
8.2378e-12
1.40799e-11
-3.74222e-12
2.72268e-11
1.50325e-11
1.84131e-11
-8.92307e-12
-4.00434e-11
1.35465e-10
-1.30101e-10
-1.83266e-12
3.01074e-12
-6.46523e-11
-5.32866e-13
3.33477e-13
-8.41723e-12
-2.24844e-12
1.5105e-12
-1.39534e-11
-1.52509e-13
1.37577e-11
-1.33397e-10
6.26073e-12
1.00414e-11
-3.38179e-11
3.65125e-12
1.47369e-11
1.26236e-11
-1.45489e-11
5.06501e-11
2.12263e-11
-1.06644e-11
4.35562e-11
-1.2525e-12
2.87049e-11
-3.36939e-11
-1.38109e-11
3.00364e-11
-1.59675e-11
-6.64383e-12
2.15611e-12
-3.86473e-12
-1.77655e-12
2.00339e-12
-3.80598e-12
-2.37854e-12
3.00884e-12
-8.00542e-12
-9.22069e-13
4.44555e-12
-1.80989e-11
1.57866e-12
9.83031e-12
-4.6034e-12
-1.33128e-11
1.16958e-10
6.26386e-12
-4.7524e-11
7.05924e-11
9.27362e-12
-1.52262e-11
5.4179e-11
-5.43611e-12
4.44025e-11
-2.11456e-11
-4.6058e-12
2.76258e-11
9.86269e-12
-4.85165e-12
4.4222e-12
-5.11906e-13
-2.79403e-12
2.45355e-12
-4.65672e-12
-2.82523e-12
4.14421e-12
-6.61361e-12
7.08217e-13
6.2767e-12
-6.35391e-12
-2.22907e-11
3.59893e-11
-6.06411e-13
-4.68993e-11
1.25053e-10
1.20357e-11
-4.37776e-11
5.10027e-11
-1.21986e-12
-1.65668e-11
6.34486e-11
-1.30733e-11
1.94965e-10
-1.28465e-11
-5.01532e-12
4.40037e-11
1.07133e-11
-4.75898e-12
9.78802e-12
1.07649e-12
-4.5534e-12
3.39932e-12
-2.58372e-12
-2.2544e-12
5.94116e-12
-6.73873e-12
-5.71954e-12
1.15024e-11
-3.28768e-12
-3.97492e-11
5.93458e-11
-1.37382e-12
-2.34442e-11
6.42255e-11
2.23894e-12
-1.23061e-11
2.54292e-11
-4.31661e-12
2.64798e-13
1.18471e-10
-7.34857e-12
6.8164e-10
-1.20119e-11
-7.69056e-12
3.52087e-10
1.26764e-10
-3.6801e-12
5.55082e-12
3.99973e-12
-4.1301e-12
4.34607e-12
-1.07373e-12
-1.04785e-12
1.02198e-11
-9.58234e-12
-1.76399e-11
3.77936e-11
-8.10344e-12
-1.96603e-11
5.01556e-11
-4.0115e-12
-5.96455e-12
1.54232e-11
6.1503e-13
-4.94713e-12
4.17465e-11
-3.03069e-12
-2.46975e-11
5.20861e-10
-5.17766e-12
1.15183e-09
-2.62854e-11
-2.81611e-12
4.22137e-10
3.23623e-10
-3.23693e-12
4.40919e-12
2.66526e-12
-5.40893e-12
6.5128e-12
5.89606e-13
-1.38631e-11
2.25896e-11
-6.22271e-12
-2.11131e-11
4.05673e-11
-1.96641e-11
-6.95051e-12
2.50512e-11
-4.61336e-12
-5.76802e-12
2.04843e-11
-1.19221e-14
-9.7915e-11
2.53755e-10
-2.36142e-12
-4.27261e-10
1.13681e-09
-8.7148e-12
9.42156e-10
1.51271e-10
-2.52212e-12
2.31687e-10
3.44606e-10
-3.54014e-12
3.05641e-12
3.79399e-12
-6.05984e-12
2.53092e-12
7.84182e-12
-1.39598e-11
7.33914e-12
1.31847e-11
-1.0114e-11
7.71189e-12
1.47213e-11
5.56332e-13
1.99069e-12
1.38549e-11
-8.77979e-13
1.89986e-12
2.04371e-11
-3.43054e-10
1.83452e-11
5.01685e-10
-2.67081e-10
1.23973e-10
1.10403e-09
1.4972e-10
9.7108e-11
4.90679e-08
-2.12083e-07
4.62889e-07
2.76911e-07
-4.68025e-07
5.60829e-07
5.10052e-07
-4.71189e-07
5.23171e-07
6.38679e-07
-3.37187e-07
4.7949e-07
6.69759e-07
-2.10841e-07
4.49487e-07
6.38179e-07
-1.32646e-07
4.34195e-07
5.63844e-07
-8.71106e-08
4.31333e-07
4.5441e-07
-5.71925e-08
4.34182e-07
3.15522e-07
-3.92073e-08
4.41791e-07
-4.41282e-08
4.41775e-07
-6.12616e-09
-3.6319e-07
4.4964e-07
2.91138e-07
-1.04543e-06
6.49555e-07
5.84097e-07
-1.06777e-06
6.00124e-07
7.01853e-07
-7.16984e-07
4.96113e-07
6.93998e-07
-4.08258e-07
4.35632e-07
6.36697e-07
-2.48377e-07
4.18377e-07
5.54765e-07
-1.7157e-07
4.2301e-07
4.48724e-07
-1.22697e-07
4.36506e-07
3.207e-07
-9.47905e-08
4.59213e-07
-1.08188e-07
4.74626e-07
8.09884e-08
-5.87747e-07
6.05497e-07
6.30914e-07
-1.88211e-06
1.03481e-06
9.97939e-07
-1.8155e-06
9.84786e-07
1.05488e-06
-1.13878e-06
7.25839e-07
9.4211e-07
-5.79379e-07
5.3654e-07
8.06645e-07
-3.29712e-07
4.78424e-07
6.87031e-07
-2.44553e-07
4.90543e-07
5.57189e-07
-1.79749e-07
5.20504e-07
3.931e-07
-1.0848e-07
5.53151e-07
-1.05573e-07
5.72778e-07
3.60226e-07
-1.02179e-06
8.13284e-07
1.1057e-06
-2.85065e-06
1.43615e-06
1.45526e-06
-2.52364e-06
1.41299e-06
1.42591e-06
-1.48785e-06
1.07094e-06
1.22615e-06
-7.00042e-07
7.35691e-07
1.01615e-06
-3.67194e-07
5.94553e-07
8.35251e-07
-2.70668e-07
6.09e-07
6.47053e-07
-1.82346e-07
6.79446e-07
4.34831e-07
-5.87914e-08
7.63526e-07
-2.86754e-08
7.96116e-07
6.65596e-07
-1.68102e-06
9.07568e-07
1.29472e-06
-3.5849e-06
1.6637e-06
1.49747e-06
-2.93302e-06
1.66009e-06
1.43347e-06
-1.6792e-06
1.36997e-06
1.26695e-06
-7.81592e-07
1.01454e-06
1.10324e-06
-4.45999e-07
8.36774e-07
9.63855e-07
-3.94918e-07
8.9759e-07
7.30036e-07
-1.54736e-07
1.01035e-06
4.47671e-07
1.58733e-07
1.07247e-06
1.30344e-07
1.11496e-06
1.17184e-06
-2.55491e-06
8.21152e-07
1.18513e-06
-2.80534e-06
1.44826e-06
1.0348e-06
-2.4465e-06
1.53227e-06
1.02651e-06
-1.72823e-06
1.46282e-06
1.02755e-06
-9.17844e-07
1.24076e-06
1.00351e-06
-6.24656e-07
1.03046e-06
1.02243e-06
-7.51008e-07
1.05474e-06
9.86177e-07
-5.66963e-07
1.26323e-06
8.356e-07
-1.35309e-07
1.47041e-06
7.35269e-08
1.56423e-06
8.91665e-07
-1.44314e-07
2.30727e-07
4.82728e-07
-1.14716e-07
-1.17629e-07
3.1493e-07
-3.08558e-07
6.56354e-08
5.27714e-07
-7.58737e-07
6.52774e-07
7.64912e-07
-1.01616e-06
1.00469e-06
1.00134e-06
-1.12486e-06
9.32839e-07
1.24512e-06
-1.30942e-06
9.30926e-07
1.46366e-06
-1.24146e-06
1.15948e-06
1.33786e-06
-4.92289e-07
1.44021e-06
1.52062e-07
1.61663e-06
2.9501e-09
-3.99743e-10
-1.53406e-07
9.58607e-10
-2.68188e-10
-1.23986e-07
-5.08414e-09
-5.38953e-10
-8.06391e-08
1.07412e-07
-1.64175e-09
-1.96226e-07
5.40654e-07
-9.43238e-09
-2.03617e-07
1.0627e-06
-1.51067e-07
-1.68108e-07
9.63415e-07
-3.44417e-07
-2.45851e-07
6.04617e-07
-5.7219e-07
2.99722e-07
4.14664e-07
-2.90068e-07
6.58323e-07
-4.72795e-08
7.41477e-07
5.10593e-12
-2.23603e-11
-3.82513e-10
8.44693e-12
-2.74026e-12
-2.70772e-10
6.19472e-11
-1.00349e-11
-5.99808e-10
7.03699e-11
-8.33622e-12
-1.68615e-09
5.77116e-11
3.79681e-11
-9.78846e-09
-7.42687e-08
5.4536e-10
-8.18937e-08
3.08763e-07
-3.80016e-08
-1.24875e-07
7.57435e-07
-8.75597e-08
2.23125e-07
3.50118e-07
-1.53365e-08
1.1411e-06
7.71229e-09
1.43677e-06
6.38604e-13
-2.09731e-11
-4.39922e-12
2.10723e-12
-3.85394e-12
-7.23991e-13
1.58587e-11
-2.46286e-11
8.8161e-13
1.7265e-11
-5.31043e-12
1.90235e-13
5.93678e-11
2.10792e-12
2.41899e-12
7.40357e-10
6.70651e-12
2.44595e-10
-1.14518e-08
5.13089e-11
1.80714e-09
-2.4184e-09
-8.52779e-11
5.97602e-08
-4.18947e-09
1.30747e-09
2.50858e-08
1.49058e-09
9.48424e-09
-3.5057e-13
-4.77763e-12
-4.75695e-11
7.64056e-13
-6.77301e-12
-4.48274e-12
1.33761e-11
-9.51782e-12
-5.26683e-12
7.22735e-12
-8.62688e-12
-1.29588e-11
2.80207e-11
1.35499e-11
-1.27338e-11
6.33158e-11
6.56393e-12
-4.62766e-12
1.00051e-10
-2.33049e-11
4.28177e-11
4.28997e-12
1.20659e-12
2.23446e-11
-4.28869e-11
5.207e-11
1.31034e-09
7.07402e-11
1.51847e-09
-5.00122e-13
-2.5276e-12
-1.31249e-11
9.45285e-13
-2.51939e-11
-1.89255e-11
1.8162e-12
-1.09334e-11
-1.59079e-11
1.427e-11
-6.76333e-12
-4.51846e-11
7.51885e-11
4.86351e-11
-2.24123e-10
5.88012e-11
2.79726e-10
-1.74186e-10
1.65797e-11
1.76807e-11
1.70967e-11
7.84274e-12
5.18675e-12
1.85005e-11
1.22178e-11
6.19743e-12
5.32409e-11
2.18362e-11
7.58147e-11
-1.82234e-12
1.8854e-13
-3.35859e-11
4.66072e-12
-5.85089e-11
-1.11272e-10
1.51963e-13
-4.8933e-12
-2.87127e-11
-4.33909e-12
-2.21972e-12
-1.37642e-11
-3.09807e-11
6.79324e-11
-2.94469e-10
3.00684e-12
2.07378e-10
-2.58382e-10
9.13925e-12
4.92687e-11
1.47097e-12
6.50297e-12
6.90481e-12
1.5061e-11
1.04568e-11
1.1443e-11
1.46717e-11
7.34214e-11
-5.22995e-14
-4.16084e-11
9.07911e-11
-1.68847e-10
-1.7662e-11
-1.86885e-11
-1.40669e-10
-2.74845e-12
-1.29433e-12
-3.52969e-11
-9.30497e-12
1.13435e-12
-1.05349e-11
-9.60912e-11
9.95054e-12
-1.49243e-10
-4.73277e-11
5.16818e-11
-2.13245e-10
4.47454e-12
1.83878e-11
1.55761e-12
6.14765e-12
9.32801e-12
8.70032e-12
-6.95622e-12
2.58006e-11
9.82954e-12
4.39266e-11
-8.26076e-12
-6.95626e-11
1.12037e-10
-2.16974e-13
-8.46786e-12
4.51443e-13
-2.2081e-11
-3.78206e-12
5.71447e-13
-8.93887e-12
-6.68409e-12
3.34461e-12
-6.62741e-12
-2.1056e-11
8.5122e-12
-1.86796e-11
-1.17169e-11
5.08585e-12
-2.30958e-11
-1.16133e-12
9.03495e-12
-2.16457e-12
-1.75116e-12
1.28414e-11
-7.26058e-13
-7.74326e-12
1.90728e-11
-6.89502e-12
1.56905e-11
-1.07111e-11
-5.3291e-12
4.65032e-11
9.6563e-11
-5.32428e-12
2.16958e-12
-7.22181e-13
-4.31445e-12
1.67621e-12
-6.00069e-12
-4.69218e-12
6.07776e-12
-7.67425e-12
-6.90832e-12
1.18149e-11
-6.63644e-12
-8.083e-12
1.35922e-11
-8.30414e-12
-3.68354e-12
1.45768e-11
-5.799e-12
-2.58415e-12
1.68332e-11
-1.15527e-11
-2.64436e-12
1.6491e-11
-1.08036e-11
1.45004e-11
-1.35654e-11
-2.31746e-12
3.71318e-11
2.78204e-11
-3.91015e-12
9.15745e-12
9.06498e-13
-1.06895e-11
3.75062e-12
-1.9713e-12
-9.9047e-12
3.42647e-11
-1.33186e-11
-7.63954e-12
4.46507e-11
-2.96306e-11
-6.42095e-12
1.63589e-11
-7.06545e-12
-3.16463e-12
1.89103e-11
-6.05226e-12
-1.75647e-12
1.81723e-11
-1.0028e-11
-5.14383e-13
1.76244e-11
-1.17377e-11
1.54431e-11
-1.44368e-11
-1.05959e-11
2.23673e-10
2.04455e-10
-1.04663e-11
3.32232e-11
2.72696e-11
-1.29923e-11
3.38665e-12
-1.19201e-13
-3.98501e-11
5.12086e-11
-1.75564e-11
-1.48957e-11
1.13451e-10
-5.63726e-11
-7.12106e-12
2.83429e-11
-2.56188e-11
-2.8852e-12
2.19752e-11
-7.12046e-12
-9.21572e-13
2.18932e-11
-1.07053e-11
-3.44731e-13
2.06433e-11
-1.01713e-11
4.05049e-11
-3.73214e-12
1.87818e-11
2.72481e-10
4.4301e-10
-5.31415e-12
3.53572e-11
5.93144e-11
-7.52774e-12
5.13625e-12
1.20919e-12
-5.09136e-11
4.12356e-11
-3.84291e-12
-3.00962e-11
1.32647e-10
-3.83779e-11
-1.03855e-11
8.22977e-11
-4.00537e-11
-3.94192e-12
2.82918e-11
-5.53893e-12
-7.96895e-13
4.48343e-11
-2.87177e-13
-1.33619e-11
2.95303e-11
-4.77882e-12
2.79903e-10
1.14328e-11
-2.78548e-11
1.35075e-10
2.13438e-10
-3.16577e-12
8.81315e-12
7.02044e-12
-4.90845e-12
2.89424e-12
5.83045e-12
-2.8468e-11
5.43952e-12
8.9322e-12
-4.31202e-11
3.84268e-12
3.03325e-11
-1.09437e-11
-1.10899e-11
7.45038e-11
-4.36658e-12
-7.14862e-13
3.14819e-11
-4.77378e-12
5.38912e-14
1.29008e-10
-4.79612e-11
1.39845e-11
2.26839e-10
3.37657e-11
1.90849e-10
6.26324e-08
-1.43304e-07
5.4356e-07
2.63269e-07
-3.21737e-07
6.81929e-07
4.67822e-07
-3.28258e-07
6.46875e-07
5.90587e-07
-2.39856e-07
5.96581e-07
6.30147e-07
-1.49025e-07
5.58953e-07
6.09724e-07
-8.50519e-08
5.39669e-07
5.44455e-07
-3.99674e-08
5.3657e-07
4.42443e-07
-6.3066e-09
5.42501e-07
3.06522e-07
1.79867e-08
5.59724e-07
2.22826e-08
5.66234e-07
4.11328e-09
-2.17081e-07
5.19304e-07
2.25895e-07
-6.42761e-07
7.48796e-07
4.77781e-07
-6.96211e-07
7.16192e-07
6.08761e-07
-4.96913e-07
6.22191e-07
6.33398e-07
-2.93442e-07
5.55411e-07
6.02235e-07
-1.65544e-07
5.30032e-07
5.37383e-07
-8.6919e-08
5.34813e-07
4.45582e-07
-3.18435e-08
5.53843e-07
3.25561e-07
4.61797e-09
5.92603e-07
1.85183e-08
6.21816e-07
3.11305e-09
-2.58513e-07
6.43816e-07
3.59554e-07
-1.02182e-06
1.05744e-06
7.07223e-07
-1.11582e-06
1.05672e-06
8.41966e-07
-7.68684e-07
8.62868e-07
8.17468e-07
-4.26447e-07
6.94043e-07
7.43858e-07
-2.42838e-07
6.29328e-07
6.53075e-07
-1.37522e-07
6.31928e-07
5.31366e-07
-3.92244e-08
6.49594e-07
3.77309e-07
3.95744e-08
6.72251e-07
9.17091e-08
6.64679e-07
1.61639e-07
-3.58689e-07
7.51823e-07
7.13305e-07
-1.46291e-06
1.32557e-06
1.08858e-06
-1.47929e-06
1.40119e-06
1.18282e-06
-9.68916e-07
1.17694e-06
1.09104e-06
-5.03731e-07
9.04759e-07
9.49674e-07
-2.73649e-07
7.66725e-07
8.0724e-07
-1.57858e-07
7.7177e-07
6.38567e-07
-2.21777e-08
8.31072e-07
4.15278e-07
1.75924e-07
8.50466e-07
2.80589e-07
7.70955e-07
4.27167e-07
-6.29971e-07
7.5168e-07
1.03679e-06
-1.87661e-06
1.46778e-06
1.3284e-06
-1.66069e-06
1.54989e-06
1.37212e-06
-1.02272e-06
1.38004e-06
1.3026e-06
-5.64358e-07
1.14468e-06
1.22858e-06
-3.93227e-07
1.03037e-06
1.0688e-06
-1.44888e-07
1.0444e-06
7.69433e-07
2.19469e-07
1.06807e-06
4.33774e-07
5.23607e-07
1.06045e-06
5.93739e-07
9.54254e-07
7.84039e-07
-1.42111e-06
8.2815e-07
1.02791e-06
-2.22316e-06
1.59368e-06
1.05196e-06
-1.70259e-06
1.55019e-06
1.11728e-06
-1.03905e-06
1.41384e-06
1.18447e-06
-6.54935e-07
1.26415e-06
1.30004e-06
-6.45366e-07
1.16703e-06
1.34111e-06
-4.0505e-07
1.27383e-06
1.10336e-06
2.51628e-07
1.46882e-06
6.87754e-07
8.65731e-07
1.5439e-06
1.02821e-06
1.38406e-06
9.86367e-07
-9.92171e-07
9.01585e-07
6.15886e-07
-7.12727e-07
7.75862e-07
4.04478e-07
-7.82132e-07
9.01321e-07
5.22094e-07
-9.87949e-07
1.19465e-06
8.37134e-07
-1.11655e-06
1.24592e-06
1.24412e-06
-1.11832e-06
9.98859e-07
1.47418e-06
-7.30529e-07
1.02636e-06
1.42575e-06
1.50218e-07
1.30933e-06
1.11837e-06
9.79017e-07
1.6343e-06
1.48148e-06
1.66089e-06
6.01013e-08
-9.35324e-09
-9.6294e-08
3.20769e-08
-6.04231e-09
-1.37269e-07
1.31784e-07
-1.80075e-08
-1.93395e-07
3.12629e-07
-3.07205e-08
-1.2427e-07
6.48346e-07
-1.44274e-07
2.66326e-07
4.78133e-07
-3.22338e-07
2.82096e-08
1.3671e-07
-2.59446e-07
-1.35372e-07
1.42416e-07
4.55252e-09
4.49884e-07
3.40709e-07
3.98798e-07
8.82645e-07
9.04552e-07
9.81397e-07
8.43602e-11
-5.28023e-11
-9.76068e-09
1.55539e-10
-6.07281e-12
-6.37798e-09
7.32217e-10
-3.95394e-12
-1.91806e-08
9.84568e-10
-2.69539e-12
-3.26562e-08
2.15421e-09
1.35578e-10
-1.55412e-07
1.09748e-07
-3.20695e-10
-1.04029e-07
7.16133e-07
-1.61552e-09
-1.14528e-07
1.35301e-06
6.1281e-09
-2.7394e-09
1.08955e-06
1.87417e-07
1.09641e-06
3.16221e-07
1.83996e-06
1.58225e-12
-4.89033e-11
-9.68195e-12
3.30274e-12
-7.16681e-12
-2.06409e-12
7.40078e-12
-6.93078e-12
-7.25477e-13
1.03333e-11
-4.32185e-12
-1.82983e-12
1.80793e-10
-2.92734e-11
-3.08343e-12
4.26524e-11
-2.64567e-12
-3.64234e-11
1.38524e-11
-2.18601e-11
4.20917e-11
1.07664e-08
3.45535e-09
3.80798e-08
3.29412e-08
7.37816e-09
1.05808e-07
2.32695e-09
1.24934e-07
-1.17265e-12
-7.86989e-12
-4.22109e-11
-9.48213e-13
-8.37546e-12
-3.61373e-12
1.65619e-12
-1.16341e-11
-3.74928e-12
1.76611e-11
-2.36781e-11
-4.95989e-12
5.03215e-11
2.38714e-11
-1.36904e-11
8.95094e-11
1.34395e-10
-8.06763e-11
9.96398e-11
1.61304e-10
3.2748e-11
4.87021e-10
7.7954e-11
3.04902e-09
1.12118e-09
2.96782e-10
7.94299e-09
-3.7597e-10
6.89714e-09
-1.63575e-12
-6.69663e-12
-1.17256e-11
-1.54955e-12
-1.66988e-11
-1.02593e-11
-1.7203e-12
-1.5602e-11
-1.29508e-11
5.20803e-13
-1.35778e-11
-3.73574e-11
4.96245e-11
1.93297e-11
-2.87887e-11
3.87195e-11
2.96297e-10
-1.01666e-10
6.5677e-11
3.51461e-10
1.1456e-11
1.00683e-11
1.8886e-11
1.33792e-10
-2.95103e-11
7.165e-12
3.6007e-10
-1.74975e-10
1.60447e-10
-7.06621e-13
-2.14687e-11
-1.49664e-11
3.78461e-12
-1.23633e-10
-4.15666e-11
-1.63873e-12
-4.97666e-11
-1.96201e-11
-1.15359e-11
-6.75508e-12
-1.19131e-11
-1.42927e-10
2.09369e-11
-3.63711e-11
-1.85836e-10
3.19814e-10
-4.10039e-11
-7.39935e-12
3.80795e-10
-7.9641e-12
-9.35877e-12
1.86797e-11
1.98428e-11
-4.93374e-11
3.36459e-11
4.2675e-11
-5.05711e-12
-1.46419e-10
-1.60766e-11
1.1757e-11
-1.48489e-10
6.81728e-12
-8.68556e-11
-1.69383e-10
-7.19637e-12
-2.89648e-11
-1.16582e-10
-1.32609e-11
-1.85259e-12
-1.07625e-11
-1.3574e-10
1.54961e-11
-6.30917e-11
-2.55173e-10
9.27722e-11
-6.25148e-11
-7.38443e-11
1.72769e-11
-2.53958e-11
-3.86954e-11
3.1705e-11
3.59825e-12
-3.04872e-11
3.6073e-11
1.86032e-12
1.08435e-11
-5.8364e-11
-6.02755e-11
9.8573e-11
-1.47252e-11
-4.9327e-11
-6.38918e-12
-7.8758e-11
-9.12246e-12
-4.92515e-12
-1.40842e-10
-1.03148e-11
1.83433e-13
-7.87825e-12
-2.95531e-11
7.34034e-12
-2.29486e-11
-1.92161e-11
2.03051e-11
-4.54519e-11
-2.56724e-11
8.10796e-12
-7.20993e-12
-1.87857e-11
3.03999e-11
-8.26339e-12
-8.77e-12
1.17125e-11
-9.8874e-12
1.24243e-11
-2.08174e-11
-1.3111e-11
9.41686e-11
1.62016e-10
-1.37274e-11
3.05164e-13
-5.47161e-12
-8.00813e-12
-7.79313e-13
-1.7358e-11
-6.51604e-12
4.96182e-12
-1.04931e-11
-1.06754e-11
1.2202e-11
-7.70478e-12
-8.11429e-12
1.76751e-11
-8.97144e-12
-7.69288e-12
1.57995e-11
-8.57334e-12
-3.13949e-12
1.65959e-11
-9.96564e-12
7.2103e-13
1.24808e-11
-1.17908e-11
1.14756e-11
-1.14522e-11
-6.11182e-12
1.13792e-10
1.49612e-10
-6.30013e-12
5.69835e-12
6.31748e-13
-1.67126e-11
1.34788e-12
1.55784e-12
-3.63699e-11
1.62364e-11
1.36951e-12
-1.03112e-11
5.3637e-11
-1.72442e-11
-6.66263e-12
1.93008e-11
-1.05785e-11
-2.88664e-12
1.77662e-11
-7.16023e-12
3.55399e-13
1.6421e-11
-8.71722e-12
3.36397e-12
1.51097e-11
-1.56746e-11
1.6205e-11
-2.05268e-11
2.10036e-11
1.07583e-10
3.48725e-11
2.66195e-13
4.79727e-11
2.13438e-11
-2.84369e-12
3.09606e-12
-1.27949e-12
-3.65182e-11
2.04721e-11
-1.65633e-11
-4.6957e-11
8.26535e-11
-5.21945e-11
-1.37417e-11
9.08436e-11
-5.16378e-11
-2.30052e-12
4.9454e-11
-4.4991e-11
2.00699e-12
2.23107e-11
-1.90687e-11
4.1394e-12
2.22704e-11
-1.93518e-11
1.991e-11
-2.35468e-12
5.23031e-11
7.81834e-11
9.33268e-11
2.66651e-12
5.48676e-11
6.86698e-11
1.67231e-12
3.61237e-12
7.98964e-13
-4.87449e-12
3.76975e-12
-3.84828e-12
-2.48718e-11
1.00251e-10
-1.21117e-11
-2.59291e-11
1.21962e-10
-4.55772e-11
-2.99312e-12
1.12006e-10
-3.681e-11
7.31842e-13
2.5119e-11
-8.6562e-12
-5.556e-13
2.05483e-11
-3.36065e-12
4.21061e-11
2.27533e-11
6.86742e-12
4.03634e-11
1.49171e-11
5.50964e-13
3.2254e-11
5.08248e-12
9.45506e-13
2.05706e-12
3.53077e-12
2.49011e-12
5.26577e-13
4.44943e-12
-9.17507e-12
1.46451e-12
1.60935e-11
-1.20209e-11
-4.14272e-12
1.28931e-10
-2.32548e-12
-6.44532e-13
7.78199e-11
-1.7169e-12
-1.77148e-12
2.26234e-11
-1.11199e-11
1.29069e-11
2.64514e-11
1.00922e-10
7.29863e-11
8.03047e-08
-8.49615e-08
5.48217e-07
2.59345e-07
-1.93804e-07
6.96693e-07
4.3719e-07
-1.94757e-07
6.63788e-07
5.53765e-07
-1.40938e-07
6.20943e-07
6.02937e-07
-8.16752e-08
5.91456e-07
5.94792e-07
-2.85044e-08
5.76318e-07
5.37413e-07
1.98065e-08
5.74143e-07
4.39709e-07
6.38582e-08
5.76346e-07
3.01095e-07
1.02563e-07
5.95776e-07
1.35787e-07
5.87667e-07
3.9559e-08
-1.22147e-07
5.16931e-07
2.18785e-07
-3.46994e-07
7.22761e-07
4.17682e-07
-3.71707e-07
6.94244e-07