/*--------------------------------*- C++ -*----------------------------------*\
| =========                 |                                                 |
| \\      /  F ield         | OpenFOAM: The Open Source CFD Toolbox           |
|  \\    /   O peration     | Version:  2312                                  |
|   \\  /    A nd           | Website:  www.openfoam.com                      |
|    \\/     M anipulation  |                                                 |
\*---------------------------------------------------------------------------*/
FoamFile
{
    version     2.0;
    format      ascii;
    arch        "LSB;label=32;scalar=64";
    class       volVectorField;
    location    "0.96";
    object      U;
}
// * * * * * * * * * * * * * * * * * * * * * * * * * * * * * * * * * * * * * //

dimensions      [0 1 -1 0 0 0 0];

internalField   nonuniform List<vector> 
8000
(
(-0.00424664 0.00639013 -0.00556578)
(-0.0084517 0.00571746 -0.00733797)
(-0.00993069 0.00532681 -0.00737094)
(-0.0118806 0.0047608 -0.00616459)
(-0.0136798 0.00423003 -0.00518053)
(-0.0147571 0.00368065 -0.00474937)
(-0.0146613 0.0031164 -0.00466285)
(-0.0133395 0.00248365 -0.00482546)
(-0.0106456 0.00185398 -0.00504244)
(-0.00625783 0.00139684 -0.0053369)
(-0.00607342 0.0234205 -0.00792707)
(-0.0112657 0.0217447 -0.0118905)
(-0.0139629 0.0203399 -0.0120626)
(-0.0168029 0.0181332 -0.00940741)
(-0.0188995 0.0151325 -0.00709895)
(-0.0196741 0.0124733 -0.00614929)
(-0.0187921 0.0102639 -0.00586862)
(-0.0164238 0.00823891 -0.00578834)
(-0.0126233 0.00613897 -0.00562726)
(-0.00690903 0.0040527 -0.00565293)
(-0.00420884 0.0430462 -0.00702763)
(-0.0076822 0.0390709 -0.012115)
(-0.0145535 0.0376018 -0.0148517)
(-0.0194586 0.0346762 -0.0121377)
(-0.0220106 0.0289837 -0.00906699)
(-0.0223682 0.0231593 -0.00715645)
(-0.0213527 0.0182565 -0.00629629)
(-0.0194063 0.0137129 -0.00572715)
(-0.0162548 0.00909072 -0.00456642)
(-0.00914266 0.00532218 -0.00320927)
(0.000934584 0.0512844 -0.00464135)
(-0.00170418 0.0465456 -0.00686315)
(-0.0158683 0.0542845 -0.0110888)
(-0.0258404 0.0528359 -0.010262)
(-0.0297427 0.0450666 -0.00894893)
(-0.0297315 0.036107 -0.00738022)
(-0.029318 0.0288752 -0.006028)
(-0.02926 0.0225744 -0.00379925)
(-0.0255732 0.0118436 -4.73087e-05)
(-0.0121588 -0.00396938 0.00151859)
(0.011635 0.0626345 -0.00174003)
(0.00643137 0.0539069 0.00197848)
(-0.0183211 0.0693943 -0.00456944)
(-0.0392438 0.0691972 -0.00354773)
(-0.047349 0.0597401 -0.00386161)
(-0.0469694 0.0491541 -0.00431394)
(-0.0444106 0.0394164 -0.00423805)
(-0.040638 0.0236723 -0.00283087)
(-0.0286112 -0.00404878 -0.00340805)
(-0.0090132 -0.0246959 -0.00826085)
(0.0123579 0.0421512 0.0132427)
(-0.0157198 0.054798 0.0159297)
(-0.037547 0.0923575 0.00259241)
(-0.0590972 0.09187 0.000604325)
(-0.064794 0.0757799 -0.00444588)
(-0.0599409 0.0612454 -0.00826135)
(-0.050447 0.0478058 -0.0092724)
(-0.0380704 0.0256339 -0.0126093)
(-0.0218426 -0.00527029 -0.0228209)
(-0.00783899 -0.018509 -0.028729)
(-0.00820454 0.0540455 0.012105)
(-0.0386733 0.0727578 0.00724274)
(-0.0518453 0.0955722 0.00997764)
(-0.0686946 0.0927676 -0.00348391)
(-0.074086 0.0828255 -0.0210119)
(-0.0689138 0.0720899 -0.0282236)
(-0.0577547 0.0600031 -0.0275498)
(-0.0430106 0.0415652 -0.030235)
(-0.0324978 0.0203946 -0.0390583)
(-0.0251822 0.0100329 -0.0427048)
(-0.0188486 0.110781 -0.0175549)
(-0.037565 0.125935 -0.0379129)
(-0.0461484 0.130316 -0.030461)
(-0.064332 0.129336 -0.0432863)
(-0.083224 0.127117 -0.0487418)
(-0.107744 0.114629 -0.0405539)
(-0.119748 0.0925783 -0.0332636)
(-0.11036 0.0731364 -0.0336237)
(-0.0917193 0.0585574 -0.0431301)
(-0.0675125 0.0440301 -0.0534708)
(-0.0181586 0.199155 -0.0433316)
(-0.00892582 0.209425 -0.078008)
(0.018888 0.219403 -0.0690132)
(-0.0144063 0.233512 -0.0559029)
(-0.10096 0.236694 -0.0411705)
(-0.173355 0.214094 -0.0276051)
(-0.211324 0.170532 -0.0172276)
(-0.189692 0.126032 -0.0211123)
(-0.137704 0.102014 -0.0421419)
(-0.0904424 0.083908 -0.0641166)
(-0.00961282 0.28045 -0.0548693)
(0.0379888 0.309099 -0.107821)
(0.106559 0.335428 -0.0982731)
(0.0568096 0.453345 -0.041533)
(-0.133459 0.445229 0.0035837)
(-0.180001 0.303245 -0.00392795)
(-0.165696 0.188064 0.0012016)
(-0.117814 0.112445 -0.00526703)
(-0.0912095 0.133019 -0.0351583)
(-0.0615243 0.137622 -0.0576436)
(0.00255792 0.262507 -0.0596091)
(0.0302857 0.249328 -0.149053)
(-0.0319946 0.475997 -0.132645)
(0.00402681 0.604014 -0.0530503)
(-0.0816483 0.544413 -0.00856373)
(-0.0862247 0.360561 -0.017665)
(-0.0526246 0.137358 0.00137427)
(-0.047129 -0.0305935 0.0306879)
(-0.0938036 0.0298902 0.0395885)
(-0.0573732 0.119428 0.0214691)
(-0.00539036 0.120683 -0.0673804)
(-0.0436838 0.390881 -0.145218)
(-0.0692113 0.557967 -0.116846)
(-0.0199922 0.626111 -0.0684464)
(-0.0202625 0.544954 -0.0352345)
(0.0304804 0.311837 -0.0221187)
(0.0723989 0.0665817 0.0170229)
(0.0200887 -0.0112109 0.0317203)
(-0.0922488 -0.00770877 0.0326562)
(-0.0965493 -0.0520179 0.05985)
(0.00835624 0.25378 -0.0156594)
(-0.00415852 0.581515 -0.0861571)
(-0.0264323 0.656447 -0.0594673)
(-0.0133304 0.617275 -0.0412458)
(0.0263758 0.478268 -0.0215581)
(0.0960525 0.215457 0.0157893)
(0.0874134 0.018846 0.0516825)
(-0.0230874 -0.00768099 0.0417894)
(-0.0832929 -0.0504026 0.0517243)
(-0.128378 -0.12138 0.0637168)
(0.00223266 0.284393 0.0176351)
(0.0180662 0.655468 -0.0284748)
(0.022167 0.668306 -0.00589725)
(0.0297038 0.555272 -0.000549175)
(0.0863076 0.372294 0.0152266)
(0.137284 0.139577 0.0515091)
(0.0539546 0.005307 0.0624496)
(-0.0772833 -0.0223601 0.0571753)
(-0.140307 -0.109805 0.057572)
(-0.257024 -0.161155 0.0510374)
(-0.023562 0.233233 0.0243949)
(0.0153684 0.597344 0.00317114)
(0.0506175 0.588015 0.00692288)
(0.0930431 0.451976 0.0145693)
(0.152354 0.276598 0.0389548)
(0.145684 0.105562 0.0649795)
(-0.0070239 0.00730913 0.064304)
(-0.122845 -0.0612405 0.0627472)
(-0.265312 -0.110334 0.0508127)
(-0.382676 -0.172705 0.0255478)
(-0.0429165 0.206002 0.00560265)
(0.000514322 0.484108 0.000521468)
(0.0663297 0.469417 -0.00287037)
(0.137237 0.356942 0.0153558)
(0.171014 0.238469 0.051317)
(0.0939453 0.107903 0.0654508)
(-0.0746196 -0.0020059 0.0675683)
(-0.219129 -0.054353 0.0649041)
(-0.37949 -0.0914271 0.0425298)
(-0.464535 -0.164707 -0.0114821)
(-0.0417045 0.222702 -0.0188872)
(-0.00993495 0.392192 -0.0138499)
(0.0743048 0.377631 -0.0054314)
(0.138505 0.324385 0.018876)
(0.126687 0.239394 0.0582671)
(0.00244254 0.09266 0.0651824)
(-0.155359 -0.000220015 0.0716696)
(-0.317698 -0.0278699 0.0706946)
(-0.458548 -0.0684664 0.0253369)
(-0.531591 -0.11661 -0.0407596)
(-0.030019 0.254988 -0.0245843)
(-0.00497192 0.34985 -0.0163116)
(0.0724573 0.354901 -0.00970227)
(0.104177 0.338889 0.0272824)
(0.0528248 0.222782 0.0592915)
(-0.0864503 0.0695379 0.0667016)
(-0.235011 0.016302 0.0737997)
(-0.378326 0.000168784 0.0674178)
(-0.501369 -0.0222672 0.012011)
(-0.569354 -0.0315301 -0.0517124)
(-0.0132112 0.284107 -0.0130286)
(0.00476266 0.354236 -0.0133639)
(0.0573666 0.369078 -0.00677625)
(0.0534572 0.339584 0.0338122)
(-0.0203403 0.17604 0.0604111)
(-0.162937 0.0733789 0.0555212)
(-0.280449 0.0407041 0.0614868)
(-0.394961 0.0328339 0.0661898)
(-0.510626 0.0368412 0.0190662)
(-0.572906 0.0582994 -0.0421174)
(0.00637658 0.287302 0.00632656)
(0.0136432 0.380709 0.000185699)
(0.0330496 0.389004 0.00733703)
(0.00696459 0.300623 0.0420974)
(-0.0861677 0.147565 0.0500178)
(-0.217294 0.104679 0.0251692)
(-0.291206 0.0722552 0.0360481)
(-0.372892 0.0616246 0.0743707)
(-0.484122 0.0837598 0.0592728)
(-0.559478 0.127085 0.000358388)
(-0.00598254 0.00540984 -0.011809)
(-0.0101692 0.00192634 -0.0136312)
(-0.00790648 0.000791525 -0.0145566)
(-0.00721802 0.00139689 -0.0128095)
(-0.00808207 0.00195013 -0.0110365)
(-0.00905944 0.00189342 -0.0100862)
(-0.00915772 0.00151573 -0.00966753)
(-0.00828918 0.00104495 -0.00962248)
(-0.00677996 0.000699712 -0.00969055)
(-0.0042725 0.000355538 -0.0100121)
(-0.00998671 0.0204521 -0.0160133)
(-0.00988454 0.00779165 -0.0152791)
(-0.00469618 0.0039822 -0.018066)
(-0.00622132 0.00799868 -0.0180758)
(-0.00974115 0.0088137 -0.0152476)
(-0.0120736 0.00751238 -0.0130363)
(-0.0122805 0.00558404 -0.0120085)
(-0.010925 0.00369502 -0.0115022)
(-0.00862955 0.00198711 -0.0109725)
(-0.00487538 -0.000289291 -0.0106866)
(-0.00953087 0.0367043 -0.0150175)
(0.00491327 -0.000792347 -0.00364939)
(0.0070578 0.000241211 -0.00986226)
(0.00156414 0.0159398 -0.0183168)
(-0.0068501 0.0195389 -0.0194245)
(-0.0113855 0.0158113 -0.0167494)
(-0.0121834 0.0107239 -0.0143632)
(-0.0109958 0.00645864 -0.0127233)
(-0.00948341 0.00277162 -0.0105658)
(-0.00569773 -0.00115886 -0.00772853)
(-0.00140992 0.040798 -0.0134254)
(0.0181493 -0.0134779 0.012809)
(0.00401073 -0.00460615 0.00549402)
(-0.00496298 0.0258474 -0.0110216)
(-0.0136288 0.0333807 -0.0198486)
(-0.0168434 0.0272482 -0.0199338)
(-0.0173394 0.0185453 -0.0165683)
(-0.0176618 0.0131217 -0.0124272)
(-0.0175412 0.00952177 -0.00648661)
(-0.00995316 -0.000590396 -0.000363821)
(0.0105766 0.0454519 -0.00666994)
(0.0123061 -0.00432496 0.0228578)
(-0.0193383 0.0164143 0.0151573)
(-0.0291901 0.0421826 -0.00358031)
(-0.0359583 0.0472771 -0.0161608)
(-0.0355679 0.0393772 -0.0192748)
(-0.0324523 0.0297083 -0.0173968)
(-0.0276315 0.0217527 -0.0132082)
(-0.0200416 0.0089996 -0.00749111)
(-0.00315487 -0.0130901 -0.00562548)
(0.0117425 0.0516314 -0.00725418)
(-0.0190152 0.0296879 0.00770077)
(-0.049547 0.0518771 0.0153488)
(-0.0537967 0.0699713 -0.00301255)
(-0.058686 0.0681509 -0.0191789)
(-0.0530445 0.0527265 -0.0277441)
(-0.0402858 0.0344635 -0.0317232)
(-0.0219002 0.0190509 -0.033905)
(-0.00462739 0.00486882 -0.0330347)
(0.00776008 -0.0109449 -0.0316569)
(0.00963864 0.0962138 -0.0368202)
(-0.029071 0.0887182 -0.0425565)
(-0.0618527 0.0885729 -0.0168497)
(-0.0635141 0.092807 -0.0289762)
(-0.0665547 0.0832873 -0.0523047)
(-0.0592024 0.0591878 -0.0671571)
(-0.0464241 0.0388796 -0.0694311)
(-0.0296797 0.02356 -0.0679807)
(-0.0171484 0.00978113 -0.0663935)
(-0.00662558 0.00125946 -0.0631936)
(0.00843414 0.151538 -0.0929613)
(-0.0322324 0.156357 -0.104326)
(-0.0663487 0.141098 -0.0926327)
(-0.0789231 0.12015 -0.109103)
(-0.0987939 0.0957565 -0.119013)
(-0.107936 0.0757189 -0.109867)
(-0.102337 0.0610712 -0.0991099)
(-0.0852704 0.0481558 -0.0961528)
(-0.0661243 0.0326245 -0.105129)
(-0.0431954 0.0213906 -0.113462)
(0.00865762 0.220493 -0.094107)
(-0.0260865 0.22482 -0.11436)
(-0.0462887 0.206911 -0.12226)
(-0.0540547 0.202829 -0.129633)
(-0.0989755 0.190859 -0.104165)
(-0.156499 0.160849 -0.0690012)
(-0.166661 0.126 -0.0658735)
(-0.132708 0.105471 -0.0852879)
(-0.101864 0.0815231 -0.126603)
(-0.0832489 0.0561841 -0.157209)
(0.0109325 0.260676 0.00997287)
(-0.0144335 0.269556 -0.0374207)
(-0.0244539 0.302953 -0.0868661)
(-0.0159954 0.37997 -0.0821589)
(-0.0653037 0.382861 -0.000433712)
(-0.152581 0.249242 0.033939)
(-0.185863 0.0960802 0.0771882)
(-0.177054 0.0718013 0.0284783)
(-0.154488 0.162748 -0.0706962)
(-0.132822 0.185876 -0.110238)
(-0.0291217 0.120551 0.0557578)
(-0.066751 0.307919 -0.100099)
(-0.0609401 0.392262 -0.137789)
(-0.0257103 0.460341 -0.079167)
(-0.00910176 0.439158 -0.0159751)
(-0.00245477 0.262822 -0.00698393)
(0.0309965 0.0494448 0.0592011)
(-0.0291442 -0.0919157 0.128058)
(-0.154201 0.0229842 0.151409)
(-0.127504 0.140723 0.137357)
(0.00208607 0.277864 -0.114818)
(-0.0561644 0.326109 -0.17167)
(-0.100114 0.367517 -0.133671)
(-0.0543132 0.40359 -0.0585645)
(0.020613 0.332506 -0.00858373)
(0.101259 0.172182 0.0270164)
(0.156838 0.034838 0.0795186)
(0.105034 -0.00399824 0.108595)
(-0.143039 0.00885819 0.150694)
(-0.166658 -0.0653778 0.186515)
(0.0482586 0.387772 -0.063251)
(0.0100174 0.455502 -0.108794)
(-0.0943183 0.423833 -0.0424832)
(-0.0445194 0.37737 0.0298404)
(0.0593505 0.234795 0.0661118)
(0.156238 0.0985205 0.0974294)
(0.175992 0.00917778 0.133251)
(0.0750739 0.0298614 0.134242)
(-0.10253 0.0227164 0.155788)
(-0.142095 -0.101995 0.177133)
(0.0692826 0.355797 0.0259412)
(0.0770734 0.58188 0.0029073)
(-0.0122048 0.520277 0.0458398)
(0.0436381 0.32775 0.0911152)
(0.143614 0.140302 0.0882846)
(0.199381 0.058348 0.109868)
(0.138794 0.0289267 0.162182)
(-0.0338443 0.0667744 0.170283)
(-0.120116 -0.0198066 0.173094)
(-0.192242 -0.119389 0.148352)
(0.0209376 0.245766 0.0639765)
(0.0751757 0.574052 0.0737756)
(0.0614746 0.474634 0.0965028)
(0.148009 0.229487 0.0767024)
(0.197405 0.11468 0.0499896)
(0.191509 0.0980456 0.121635)
(0.0225345 0.0726563 0.194521)
(-0.123583 0.0387701 0.192934)
(-0.185205 -0.0340047 0.164293)
(-0.249437 -0.0714029 0.0980586)
(-0.0489988 0.203359 0.0514128)
(0.0167614 0.451832 0.0885736)
(0.0962857 0.320146 0.0646202)
(0.180488 0.199925 0.00296824)
(0.167753 0.185323 0.0414882)
(0.104931 0.156368 0.169356)
(-0.113139 0.0643966 0.212599)
(-0.19747 -0.00114515 0.186834)
(-0.25427 -0.0138315 0.131205)
(-0.296524 0.00229766 0.0397999)
(-0.0745635 0.208211 0.0283261)
(-0.023017 0.311866 0.0292259)
(0.0857433 0.26019 -0.0484916)
(0.124455 0.253957 -0.0373483)
(0.088312 0.26236 0.0986134)
(-0.0398146 0.15402 0.209198)
(-0.200558 0.0328092 0.200225)
(-0.253576 -0.00542011 0.158591)
(-0.295967 0.0434041 0.0831619)
(-0.321715 0.0904352 -0.0100823)
(-0.0669191 0.240026 0.00571123)
(-0.03303 0.274602 -0.0651235)
(0.0319285 0.281382 -0.1026)
(0.0348479 0.30709 0.00318318)
(-0.0109093 0.279393 0.166275)
(-0.165491 0.120281 0.202461)
(-0.25638 0.0207649 0.165301)
(-0.28632 0.0212817 0.116036)
(-0.30599 0.107007 0.0410342)
(-0.314664 0.172862 -0.0441641)
(-0.0542064 0.286667 -0.0077878)
(-0.0492523 0.301359 -0.104744)
(-0.0315936 0.319735 -0.0729636)
(-0.0366211 0.340256 0.0813802)
(-0.109184 0.252608 0.184627)
(-0.253672 0.105379 0.155228)
(-0.301126 0.0250874 0.114254)
(-0.32293 0.0528799 0.0802122)
(-0.313091 0.15527 0.0173671)
(-0.287558 0.239966 -0.0613835)
(-0.0387746 0.338201 -0.00198962)
(-0.064688 0.343776 -0.0818591)
(-0.0743027 0.35664 -0.000861482)
(-0.0891671 0.348365 0.139062)
(-0.188924 0.231625 0.15691)
(-0.309321 0.117161 0.0902955)
(-0.349712 0.0496615 0.0655389)
(-0.370249 0.0892282 0.0648789)
(-0.348796 0.188707 0.022024)
(-0.292171 0.285758 -0.0597676)
(-0.00606066 0.00459583 -0.0146004)
(-0.0110741 0.000202995 -0.0126169)
(-0.00866973 -0.00133694 -0.0134718)
(-0.00748726 -0.000283936 -0.0135784)
(-0.00844188 0.000743079 -0.0130003)
(-0.00957822 0.000868412 -0.0124378)
(-0.00970584 0.000432952 -0.0119627)
(-0.00871334 -4.97445e-05 -0.0116601)
(-0.00709032 -0.000406841 -0.0113152)
(-0.00452939 -0.000945282 -0.0111377)
(-0.0102673 0.0179087 -0.0201877)
(-0.0132327 0.00210878 -0.0115032)
(-0.00509678 -0.00510826 -0.0120454)
(-0.00522561 0.00133323 -0.0161353)
(-0.00912508 0.00465847 -0.0169835)
(-0.0120628 0.00436436 -0.0160588)
(-0.0125445 0.0024663 -0.0150906)
(-0.0110577 0.000250732 -0.0143058)
(-0.00856168 -0.00201056 -0.0133996)
(-0.00477093 -0.00488312 -0.0125686)
(-0.0126334 0.0326356 -0.0227559)
(-0.00329224 -0.00676998 -0.00303827)
(0.00701883 -0.018905 -0.00282732)
(0.00592485 0.000709578 -0.0135298)
(-0.00327575 0.0102289 -0.0197637)
(-0.0101141 0.00918309 -0.0200785)
(-0.0120049 0.00457611 -0.0184964)
(-0.0106633 -0.000125578 -0.016974)
(-0.00856257 -0.00405696 -0.015108)
(-0.00495554 -0.00806037 -0.0127151)
(-0.0107823 0.0457205 -0.0271848)
(0.00965993 -0.0143744 -0.000485777)
(0.00579245 -0.0250215 -0.00102223)
(0.00552899 0.0043314 -0.0135524)
(-0.00479967 0.0197694 -0.0233425)
(-0.0119674 0.0172745 -0.0256581)
(-0.0144996 0.00926992 -0.0230905)
(-0.013823 0.00329445 -0.0193307)
(-0.0127398 0.000556767 -0.0151154)
(-0.00817711 -0.00425644 -0.0101814)
(-0.00395748 0.0599383 -0.0317811)
(0.014957 0.00402365 -0.0108873)
(-0.011909 -0.00645256 -0.00913332)
(-0.0156332 0.0181043 -0.0185196)
(-0.0232759 0.0297282 -0.0274587)
(-0.0257275 0.0250071 -0.028788)
(-0.0229731 0.0156474 -0.0247247)
(-0.0183338 0.00899279 -0.0207237)
(-0.0170904 0.00435576 -0.0172326)
(-0.00969065 -0.00481276 -0.0130979)
(0.00292837 0.0868836 -0.0401179)
(0.00993472 0.0523913 -0.0373153)
(-0.0330802 0.0426426 -0.0273729)
(-0.0405568 0.0526427 -0.0291273)
(-0.0461951 0.0493774 -0.0369397)
(-0.0422663 0.0305779 -0.0421655)
(-0.0327676 0.014047 -0.0460766)
(-0.023471 0.0114815 -0.0476368)
(-0.0147889 0.0139518 -0.0438886)
(-0.00325114 0.00192742 -0.0386533)
(0.0118693 0.121734 -0.0705246)
(-0.005452 0.0997686 -0.0751865)
(-0.0550407 0.0943664 -0.0600695)
(-0.0622629 0.0869474 -0.0640611)
(-0.0661173 0.0648043 -0.0827735)
(-0.0648978 0.0374321 -0.102403)
(-0.059992 0.0227745 -0.110909)
(-0.047522 0.0123103 -0.10707)
(-0.0288988 0.00415187 -0.0962807)
(-0.00962851 -0.00137869 -0.0882008)
(-3.02492e-05 0.129631 -0.137755)
(-0.0357797 0.135566 -0.129254)
(-0.0779936 0.124815 -0.124295)
(-0.0965037 0.0909485 -0.146494)
(-0.122918 0.0560897 -0.165723)
(-0.134944 0.0321443 -0.166041)
(-0.123583 0.0129685 -0.159066)
(-0.0980502 -0.00325146 -0.15919)
(-0.0670204 -0.0175822 -0.164079)
(-0.0359458 -0.0247639 -0.166274)
(-0.0215434 0.188156 -0.115235)
(-0.0615085 0.182385 -0.134213)
(-0.0860831 0.167177 -0.163042)
(-0.0919889 0.150807 -0.193227)
(-0.106328 0.130638 -0.160721)
(-0.14312 0.0888709 -0.0595017)
(-0.187467 0.0444823 -0.0109651)
(-0.177934 0.0267139 -0.0620776)
(-0.18116 0.0095927 -0.17294)
(-0.165754 -0.00882645 -0.250174)
(-0.0205366 0.31581 0.124417)
(-0.0562919 0.25522 -0.0725352)
(-0.0697116 0.234084 -0.181394)
(-0.051982 0.253534 -0.188302)
(0.0296148 0.314048 -0.0298941)
(0.00339985 0.22556 0.0558779)
(-0.0896136 -0.0754884 0.153059)
(-0.176337 -0.0547367 0.131088)
(-0.21758 0.0981282 -0.0301158)
(-0.237302 0.113037 -0.072091)
(-0.00585507 0.416351 -0.0097035)
(-0.0218354 0.327145 -0.125928)
(-0.0314397 0.284394 -0.170706)
(0.0131341 0.253066 -0.125313)
(0.110229 0.219158 -0.0255127)
(0.148627 0.184864 0.0100318)
(0.112783 0.0628706 0.0991228)
(-0.0296109 -0.084054 0.228146)
(-0.191709 0.0193157 0.260244)
(-0.207206 0.101522 0.265237)
(0.0312611 0.315773 -0.136686)
(0.0296411 0.277013 -0.177823)
(0.0052415 0.181685 -0.164806)
(0.0517289 0.0617465 -0.106208)
(0.132102 0.0192813 -0.033615)
(0.187587 0.0499819 0.0214507)
(0.195254 0.0495973 0.0996515)
(0.11179 0.0205522 0.190274)
(-0.177445 0.0411657 0.280315)
(-0.208363 -0.00753974 0.316696)
(0.0610264 0.199233 -0.0760115)
(0.0775993 0.231809 -0.114612)
(0.0367999 0.138879 -0.0716806)
(0.082764 0.0101935 -0.022277)
(0.140811 -0.0206503 0.0148731)
(0.172362 0.011632 0.0751546)
(0.182031 0.0417423 0.151201)
(0.123984 0.0836973 0.210347)
(-0.12345 0.10514 0.265078)
(-0.1564 0.0230363 0.266944)
(0.0506233 0.126933 0.0281614)
(0.0762219 0.250689 0.0274357)
(0.050271 0.149019 0.0726521)
(0.119189 -0.00899402 0.0240466)
(0.151545 -0.0122297 -0.00561667)
(0.146208 0.0469483 0.0768974)
(0.140671 0.0816289 0.205677)
(0.0460638 0.154961 0.255195)
(-0.107942 0.142268 0.253485)
(-0.145625 0.0585377 0.191402)
(-0.0124533 0.102113 0.0776668)
(0.016086 0.235537 0.125891)
(0.069188 0.0670027 0.0735874)
(0.129387 0.0148614 -0.0513204)
(0.104105 0.0800782 -0.0322368)
(0.0979905 0.122141 0.133249)
(0.0545287 0.13873 0.285726)
(-0.0560071 0.194529 0.283518)
(-0.122607 0.17075 0.213396)
(-0.158265 0.126842 0.0898959)
(-0.0675109 0.112784 0.0859126)
(-0.0327125 0.14393 0.0893792)
(0.0497243 0.0775442 -0.0661648)
(0.0639966 0.112958 -0.0888398)
(0.0258637 0.162014 0.0305469)
(0.0447009 0.182749 0.247688)
(-0.073727 0.170689 0.329025)
(-0.128634 0.189364 0.26125)
(-0.152037 0.199005 0.138806)
(-0.17294 0.17967 -0.00414536)
(-0.0750081 0.148747 0.0595268)
(-0.0539646 0.136721 -0.0486494)
(-0.0288598 0.13252 -0.135066)
(-0.0271065 0.173184 -0.044827)
(-0.0289289 0.208748 0.15497)
(-0.0602878 0.203991 0.31864)
(-0.163065 0.168454 0.296847)
(-0.163466 0.182569 0.187979)
(-0.173192 0.229029 0.0559301)
(-0.175011 0.220371 -0.0564334)
(-0.068958 0.20092 0.0246686)
(-0.0989125 0.173182 -0.125088)
(-0.124272 0.165887 -0.118798)
(-0.105608 0.202855 0.047225)
(-0.0884488 0.230401 0.248981)
(-0.157762 0.198717 0.295728)
(-0.197085 0.167095 0.209068)
(-0.16791 0.185872 0.0977436)
(-0.146619 0.243106 -0.00177293)
(-0.114518 0.259767 -0.0757532)
(-0.0695285 0.258345 0.0110336)
(-0.150582 0.212166 -0.115125)
(-0.196754 0.199012 -0.0545363)
(-0.158691 0.236901 0.130388)
(-0.13806 0.246521 0.269777)
(-0.192033 0.201913 0.224187)
(-0.187171 0.167919 0.111796)
(-0.13688 0.171668 0.0207451)
(-0.0741225 0.214915 -0.0327231)
(-0.00353407 0.266944 -0.0775637)
(-0.0730552 0.314848 0.0277673)
(-0.190666 0.260526 -0.0580211)
(-0.236418 0.250007 0.0213661)
(-0.185495 0.286497 0.177218)
(-0.158558 0.283638 0.238633)
(-0.167415 0.239004 0.150329)
(-0.136243 0.187928 0.0414437)
(-0.0751439 0.152823 -0.018141)
(0.00299314 0.169385 -0.035195)
(0.0716435 0.267272 -0.0669086)
(-0.00485931 0.0036786 -0.0171239)
(-0.00933382 0.00049764 -0.0123185)
(-0.00876804 -0.000657157 -0.01268)
(-0.00842079 -2.59228e-05 -0.0137073)
(-0.00927768 0.000449427 -0.0140561)
(-0.0101204 0.000355671 -0.0137959)
(-0.0100749 -6.10849e-05 -0.0131444)
(-0.00886276 -0.000398959 -0.0123227)
(-0.0069978 -0.000643901 -0.0112466)
(-0.00437258 -0.00102617 -0.0104375)
(-0.00756871 0.0144593 -0.0232589)
(-0.0135576 0.00521275 -0.0125636)
(-0.0102429 0.000125887 -0.0116274)
(-0.00934461 0.00180354 -0.0154278)
(-0.0113462 0.00313977 -0.0175522)
(-0.0129967 0.0024512 -0.0174787)
(-0.0129723 0.000637667 -0.0164766)
(-0.0110756 -0.00161709 -0.0153124)
(-0.00801816 -0.00383781 -0.0136444)
(-0.00415249 -0.00603577 -0.0122059)
(-0.00968906 0.0274526 -0.0277194)
(-0.0124569 0.00918523 -0.00871384)
(-0.00464526 -0.00198531 -0.00468072)
(-0.0038686 0.00347888 -0.0126518)
(-0.00832257 0.00603094 -0.0190808)
(-0.012239 0.00417278 -0.0207368)
(-0.0133633 8.38144e-06 -0.0198903)
(-0.0118323 -0.00468381 -0.0187001)
(-0.00903391 -0.00838851 -0.0170903)
(-0.00469471 -0.0110155 -0.0157314)
(-0.00870865 0.0410691 -0.0366233)
(-0.00437942 0.0150424 -0.0137498)
(-0.0001222 -0.000616572 -0.00726523)
(-0.00104201 0.00829303 -0.016286)
(-0.00755277 0.0124434 -0.0236693)
(-0.0128544 0.00859765 -0.026473)
(-0.0150853 0.00238592 -0.0253521)
(-0.0142749 -0.0036848 -0.0230839)
(-0.012866 -0.00767682 -0.0210765)
(-0.00771571 -0.0106501 -0.0204584)
(-0.0034897 0.0555965 -0.054033)
(0.00282837 0.0308671 -0.0315036)
(-0.00559362 0.0125607 -0.0244355)
(-0.0109324 0.016494 -0.0303784)
(-0.0172863 0.0176886 -0.0333217)
(-0.0185185 0.0119081 -0.0322175)
(-0.0166695 0.00363551 -0.02953)
(-0.0165913 -0.00464876 -0.0285192)
(-0.0189367 -0.00917514 -0.0293558)
(-0.0131092 -0.0120513 -0.0297101)
(0.000854147 0.0734275 -0.0707187)
(0.00139062 0.0584674 -0.0485762)
(-0.0238288 0.0459844 -0.0432802)
(-0.0338894 0.0421781 -0.0472191)
(-0.0371934 0.0288238 -0.0478307)
(-0.0331115 0.013277 -0.0490507)
(-0.0274899 0.00909787 -0.0500918)
(-0.022812 0.00989637 -0.0485671)
(-0.0202328 0.00579543 -0.0452746)
(-0.011707 -0.00704204 -0.0436012)
(0.00380997 0.104874 -0.0944425)
(-0.01659 0.0939059 -0.075932)
(-0.0536986 0.0832921 -0.0711127)
(-0.0625497 0.0667434 -0.0786768)
(-0.0668559 0.0420526 -0.0928107)
(-0.0702843 0.0252194 -0.106999)
(-0.0675293 0.0116791 -0.110578)
(-0.0540096 -0.0048577 -0.103765)
(-0.0352138 -0.0136996 -0.0907659)
(-0.0157319 -0.0215878 -0.083118)
(-0.0216103 0.0865142 -0.153409)
(-0.0546644 0.0983145 -0.133464)
(-0.0873739 0.0871652 -0.131262)
(-0.110478 0.0554096 -0.152815)
(-0.140963 0.024689 -0.173097)
(-0.156229 -0.00213976 -0.173794)
(-0.149703 -0.0331601 -0.165329)
(-0.12685 -0.0604894 -0.168148)
(-0.089088 -0.0754219 -0.172167)
(-0.0421622 -0.0821241 -0.165482)
(-0.0567831 0.164522 -0.121436)
(-0.0896551 0.140457 -0.145043)
(-0.11253 0.126546 -0.185667)
(-0.14367 0.106107 -0.232719)
(-0.149973 0.0789349 -0.214026)
(-0.0934607 0.0491829 -0.0831766)
(-0.190898 0.0174655 0.104215)
(-0.234553 -0.0657023 -0.0191759)
(-0.215483 -0.151304 -0.210507)
(-0.15678 -0.195878 -0.304924)
(-0.0279788 0.323743 0.00199888)
(-0.0444059 0.207431 -0.0948345)
(-0.0714334 0.187138 -0.21525)
(-0.0774524 0.176174 -0.245994)
(0.0217219 0.154106 -0.0731244)
(0.00443952 0.224521 0.0515379)
(-0.0798522 0.0586307 0.201315)
(-0.141641 0.00192806 0.204982)
(-0.196257 -0.0551085 0.0464926)
(-0.205103 -0.185225 -0.110768)
(0.0249942 0.279653 -0.0173657)
(0.0334619 0.209791 -0.0662323)
(0.0245698 0.181231 -0.109082)
(0.073854 0.133445 -0.0648333)
(0.155982 0.115646 0.0484402)
(0.180286 0.178445 0.103092)
(0.125864 0.122338 0.189003)
(-0.0123926 -0.0554335 0.325284)
(-0.211498 -0.00548984 0.324564)
(-0.250493 0.00583983 0.245932)
(0.029578 0.145135 -0.0625681)
(0.0395585 0.10464 -0.0814197)
(0.0735085 0.00817229 -0.062937)
(0.126599 -0.0638592 -0.0449363)
(0.177401 -0.019656 0.0312403)
(0.212699 0.0841343 0.102462)
(0.200509 0.12301 0.177026)
(0.103357 0.052001 0.294173)
(-0.203246 0.0479069 0.35769)
(-0.232145 0.0315612 0.306258)
(0.0278831 0.070674 -0.0540242)
(0.0426351 0.0405112 -0.0317976)
(0.0803715 -0.0659134 0.00417927)
(0.122371 -0.103635 -0.0440042)
(0.15373 -0.0310734 0.00109864)
(0.157931 0.0716457 0.0819756)
(0.163267 0.136069 0.176589)
(0.137154 0.134233 0.293518)
(-0.152471 0.14372 0.338736)
(-0.196539 0.114336 0.241067)
(0.01875 0.0312223 -0.00834634)
(0.0162452 0.0148821 0.0773638)
(0.0641335 -0.0859262 0.0282272)
(0.0873961 -0.0803889 -0.0789702)
(0.09892 0.0264489 -0.0507008)
(0.0831217 0.124977 0.0425723)
(0.10932 0.173558 0.192146)
(0.108125 0.213182 0.316059)
(-0.124663 0.224839 0.303658)
(-0.181747 0.169917 0.144828)
(-0.0298109 0.0368601 0.0836682)
(-0.0309873 -0.0146487 0.114125)
(0.0198091 -0.0593783 -0.0800577)
(0.0126599 -0.0145875 -0.126527)
(-0.000161685 0.0867708 -0.0714709)
(0.0049969 0.172215 0.0691643)
(0.0677054 0.209807 0.271307)
(0.0409278 0.283216 0.339352)
(-0.120672 0.290082 0.242563)
(-0.17545 0.204027 0.0481249)
(-0.060656 0.0641337 0.111894)
(-0.0642486 0.0046049 -0.00799314)
(-0.0667803 -0.00910042 -0.13728)
(-0.079176 0.0381351 -0.111656)
(-0.0770431 0.120146 0.00873918)
(-0.0228043 0.200178 0.212538)
(-0.00317849 0.249854 0.352091)
(-0.0333276 0.330263 0.311577)
(-0.130913 0.332868 0.153447)
(-0.176451 0.214789 -0.0328031)
(-0.0698142 0.114552 0.0941646)
(-0.120021 0.0461977 -0.0900361)
(-0.157694 0.0172584 -0.147542)
(-0.158517 0.0655838 -0.0596975)
(-0.112775 0.137984 0.143066)
(-0.0625073 0.218054 0.327739)
(-0.0790536 0.279964 0.331706)
(-0.0781236 0.353075 0.219243)
(-0.134543 0.356987 0.0587865)
(-0.16804 0.249273 -0.0857844)
(-0.0804875 0.175757 0.0762453)
(-0.185324 0.0803999 -0.111532)
(-0.249072 0.0450037 -0.136421)
(-0.225786 0.0977174 -0.0185314)
(-0.140461 0.161431 0.206866)
(-0.0954112 0.22337 0.320646)
(-0.0989997 0.281733 0.233467)
(-0.075882 0.347712 0.104833)
(-0.104805 0.36951 -0.0158982)
(-0.0871699 0.310685 -0.124652)
(-0.0917613 0.241638 0.0875344)
(-0.228383 0.125363 -0.081867)
(-0.305527 0.0794785 -0.110105)
(-0.265225 0.143713 -0.0174355)
(-0.154784 0.215653 0.149769)
(-0.0732278 0.258113 0.212355)
(-0.0416741 0.288684 0.12687)
(-0.0171252 0.33373 0.0181885)
(-0.0315814 0.374922 -0.0650523)
(0.0259721 0.360873 -0.168215)
(-0.09763 0.302374 0.12621)
(-0.24702 0.182303 -0.0216795)
(-0.318459 0.12559 -0.0768427)
(-0.267775 0.184072 -0.035028)
(-0.149301 0.270852 0.0354741)
(-0.0384456 0.319121 0.0409148)
(0.027156 0.339372 0.00388165)
(0.0529519 0.352962 -0.0394921)
(0.0547075 0.387256 -0.101348)
(0.122738 0.381297 -0.17224)
(-0.00393254 0.00283724 -0.0187451)
(-0.00764998 0.000750123 -0.013062)
(-0.00823663 -2.62998e-05 -0.0134869)
(-0.00874187 6.66917e-05 -0.014371)
(-0.00954999 6.64787e-05 -0.0146859)
(-0.0100321 -0.000124766 -0.0143106)
(-0.00980307 -0.000320351 -0.0135649)
(-0.00843968 -0.000408342 -0.0127207)
(-0.0064632 -0.000313426 -0.0113184)
(-0.0040983 -6.4596e-05 -0.0103313)
(-0.00539756 0.0103725 -0.0248421)
(-0.0107921 0.0051022 -0.0155207)
(-0.0111658 0.00237038 -0.0150318)
(-0.0113444 0.00199015 -0.0172264)
(-0.0123767 0.00152333 -0.0183448)
(-0.01301 0.000291067 -0.0179739)
(-0.0123993 -0.00141995 -0.0167604)
(-0.009939 -0.00335998 -0.015201)
(-0.00652659 -0.00456054 -0.012839)
(-0.00298755 -0.00476122 -0.010774)
(-0.00650904 0.0197258 -0.0295367)
(-0.0134379 0.0119745 -0.0149898)
(-0.0122646 0.00585763 -0.0118605)
(-0.0114214 0.00403575 -0.0160553)
(-0.0125458 0.00216526 -0.019917)
(-0.0136807 -0.000701598 -0.0205763)
(-0.0138913 -0.00455054 -0.0195533)
(-0.0121308 -0.00858906 -0.0182725)
(-0.008984 -0.0105599 -0.0170408)
(-0.00446888 -0.00983586 -0.0168434)
(-0.00572627 0.0298057 -0.0402381)
(-0.0115428 0.0210195 -0.0238424)
(-0.011448 0.0121136 -0.0171766)
(-0.0117733 0.00907799 -0.020073)
(-0.0137278 0.0049667 -0.0243499)
(-0.0152941 0.000182746 -0.0257751)
(-0.0160625 -0.00523955 -0.0245601)
(-0.015198 -0.0115833 -0.0228932)
(-0.013472 -0.0143362 -0.0228738)
(-0.00678313 -0.0134466 -0.0262265)
(-0.00070809 0.0407019 -0.062732)
(-0.00584151 0.0327074 -0.0455825)
(-0.0108767 0.0207228 -0.0366345)
(-0.0147901 0.0131066 -0.0356148)
(-0.0174227 0.00524279 -0.0348136)
(-0.0165837 -0.00243901 -0.032469)
(-0.0171217 -0.010185 -0.0310875)
(-0.018387 -0.0178002 -0.0307707)
(-0.0194333 -0.0216148 -0.0323547)
(-0.0100277 -0.0209593 -0.038235)
(-0.00171805 0.0397445 -0.0812742)
(-0.0103579 0.0433994 -0.0602516)
(-0.0245823 0.0335919 -0.0549761)
(-0.0314145 0.0223605 -0.0546439)
(-0.0323132 0.00674378 -0.0540926)
(-0.0288516 -0.00247346 -0.0540889)
(-0.0252287 -0.00510369 -0.0515288)
(-0.0215014 -0.0133155 -0.0461747)
(-0.0214426 -0.0249654 -0.0428166)
(-0.0120342 -0.0303286 -0.0496046)
(-0.00816189 0.0721585 -0.10094)
(-0.0307236 0.0741351 -0.0783273)
(-0.0570919 0.0566903 -0.078138)
(-0.064185 0.0353965 -0.085229)
(-0.0699322 0.0151428 -0.0979196)
(-0.0740515 -0.000182039 -0.108664)
(-0.0710701 -0.020243 -0.106983)
(-0.0606989 -0.0388224 -0.0951672)
(-0.0431551 -0.0478459 -0.0807707)
(-0.0192122 -0.0497161 -0.0748657)
(-0.0353869 0.04599 -0.153351)
(-0.064173 0.0557725 -0.133038)
(-0.0943291 0.0448747 -0.132368)
(-0.119195 0.0242285 -0.150002)
(-0.149228 -0.000371426 -0.172328)
(-0.16609 -0.0350106 -0.174465)
(-0.162567 -0.0761221 -0.160585)
(-0.135462 -0.108861 -0.152174)
(-0.0895361 -0.11996 -0.143741)
(-0.0378004 -0.115614 -0.124893)
(-0.0791953 0.137884 -0.108064)
(-0.105338 0.0959492 -0.154103)