/*--------------------------------*- C++ -*----------------------------------*\
| =========                 |                                                 |
| \\      /  F ield         | OpenFOAM: The Open Source CFD Toolbox           |
|  \\    /   O peration     | Version:  2312                                  |
|   \\  /    A nd           | Website:  www.openfoam.com                      |
|    \\/     M anipulation  |                                                 |
\*---------------------------------------------------------------------------*/
FoamFile
{
    version     2.0;
    format      ascii;
    arch        "LSB;label=32;scalar=64";
    class       volScalarField;
    location    "0.535";
    object      p_rgh;
}
// * * * * * * * * * * * * * * * * * * * * * * * * * * * * * * * * * * * * * //

dimensions      [1 -1 -2 0 0 0 0];

internalField   nonuniform List<scalar> 
8000
(
397.005
397.536
398.592
400.058
401.787
403.605
405.338
406.814
407.873
408.407
396.425
397.032
398.237
399.909
401.874
403.936
405.898
407.567
408.761
409.357
395.112
395.896
397.434
399.555
402.033
404.62
407.073
409.163
410.657
411.387
392.861
393.948
396.038
398.902
402.229
405.686
408.967
411.78
413.841
414.818
389.632
391.093
393.916
397.823
402.382
407.148
411.691
415.632
418.69
420.067
384.3
386.48
390.43
395.909
402.322
409.042
415.474
421.022
425.387
427.33
370.238
376.725
384.516
392.541
401.963
411.612
420.525
427.993
433.723
436.68
173.301
197.176
236.315
295.644
356.467
402.348
428.888
438.822
445.802
449.933
0.885885
2.68858
19.2339
62.2765
138.503
248.631
389.331
457.476
464.424
468.534
0.341241
0.319977
0.292714
0.24895
0.336395
27.6664
152.108
359.593
491.426
493.43
0.279122
0.258924
0.239672
0.225545
0.209027
0.194137
0.44274
101.35
437.098
525.958
0.247566
0.2422
0.241053
0.231329
0.20434
0.157634
0.122994
0.114135
69.5441
279.731
0.235059
0.220955
0.219586
0.215669
0.203123
0.181333
0.249971
0.14309
0.190144
0.20178
0.231885
0.226289
0.203982
0.192059
0.186029
0.185521
0.771709
0.77755
0.269706
0.266818
0.222452
0.223151
0.213943
0.19269
0.183177
0.184883
0.533949
0.351645
0.297841
0.304509
0.203301
0.202373
0.197562
0.194493
0.190878
0.192515
0.197233
0.218577
0.271393
0.305229
0.182927
0.183686
0.183985
0.184195
0.18397
0.183452
0.182065
0.192727
0.238792
0.292533
0.176701
0.176194
0.174853
0.173213
0.170983
0.165773
0.155964
0.163054
0.208319
0.432701
0.170215
0.168724
0.166924
0.16421
0.160012
0.152326
0.13629
0.14656
0.193732
0.42091
0.163692
0.161747
0.159148
0.155427
0.15131
0.145039
0.133707
0.152547
0.177873
0.408623
397.001
397.506
398.516
399.921
401.576
403.315
404.969
406.375
407.38
407.874
396.433
397.018
398.178
399.783
401.666
403.635
405.503
407.089
408.214
408.761
395.197
395.956
397.441
399.478
401.845
404.305
406.632
408.608
410.001
410.654
393.066
394.103
396.128
398.888
402.069
405.354
408.46
411.121
413.018
413.835
389.915
391.327
394.1
397.907
402.311
406.846
411.138
414.851
417.611
418.677
384.466
386.417
390.374
395.926
402.284
408.755
414.818
419.961
423.871
425.222
371.4
376.178
383.475
392
401.462
410.836
419.27
426.176
431.257
433.266
172.053
196.012
254.083
324.062
381.573
413.672
426.383
435.137
441.575
445.263
0.451334
0.407331
0.411261
25.6005
109.196
243.992
392.254
450.662
460.682
464.018
0.353165
0.334455
0.323459
0.315543
0.257218
0.370359
76.2715
263.464
454.457
491.083
0.288915
0.280291
0.259083
0.228656
0.211688
0.185247
0.120578
0.370702
194.428
427.027
0.250114
0.244305
0.239097
0.228846
0.201856
0.166375
0.109839
0.103286
0.188122
66.3674
0.23143
0.215409
0.20865
0.202687
0.190026
0.178684
0.157813
1.47159
0.113725
0.177676
0.222756
0.197495
0.184654
0.178536
0.170882
0.170928
0.172024
0.275256
0.259626
0.245015
0.217308
0.195549
0.183941
0.181609
0.176136
0.179573
0.192791
0.220107
0.252844
0.265436
0.199948
0.192005
0.187654
0.185686
0.185108
0.190725
0.208824
0.22525
0.24686
0.258314
0.179059
0.18203
0.181798
0.180198
0.179844
0.190597
0.206099
0.207152
0.218839
0.234036
0.175177
0.174478
0.173307
0.171569
0.167823
0.180368
0.182801
0.177591
0.189699
0.218991
0.169517
0.168127
0.16608
0.162277
0.156093
0.176874
0.158974
0.151862
0.165456
0.204654
0.163522
0.161493
0.158434
0.152839
0.145768
0.171688
0.134737
0.137299
0.157325
0.181382
396.879
397.354
398.291
399.588
401.111
402.7
404.205
405.477
406.379
406.817
396.368
396.926
398.005
399.484
401.207
402.996
404.681
406.098
407.093
407.57
395.305
396.031
397.404
399.261
401.404
403.609
405.675
407.41
408.611
409.161
393.52
394.474
396.322
398.814
401.666
404.571
407.28
409.561
411.126
411.769
390.749
392.016
394.565
398.047
401.99
405.952
409.642
412.745
414.859
415.613
386.614
388.119
391.556
396.537
402.144
407.697
412.792
416.984
419.92
420.902
377.184
380.166
385.7
393.384
401.666
409.562
416.542
422.091
426.004
427.663
200.842
223.242
276.246
341.187
389.66
413.273
423.045
429.881
434.826
438.414
0.444428
0.432025
0.488597
35.0151
123.111
249.101
370.253
429.169
450.408
456.872
0.356952
0.354561
0.368901
0.386231
0.33119
0.323626
43.4192
152.274
264.108
352.609
0.285314
0.283931
0.272653
0.23858
0.208851
0.189251
0.187307
0.162921
0.372679
93.0188
0.238843
0.235385
0.229849
0.217898
0.198338
0.177007
0.144691
0.108467
0.104387
0.0931655
0.212756
0.209251
0.201856
0.19672
0.18512
0.175605
0.166074
0.162008
1.34094
0.116789
0.197379
0.197063
0.185979
0.18278
0.171501
0.16468
0.171901
0.17565
0.300712
0.780321
0.192251
0.196251
0.185153
0.18202
0.174865
0.174459
0.186832
0.200404
0.211654
0.27364
0.184936
0.189317
0.183544
0.181585
0.185366
0.182579
0.193552
0.222032
0.249505
0.206848
0.179833
0.180093
0.177947
0.177069
0.186986
0.178138
0.188034
0.221636
0.231815
0.182661
0.174915
0.173955
0.172375
0.170706
0.169891
0.21873
0.194811
0.204446
0.183494
0.166976
0.16939
0.168023
0.166048
0.16298
0.163842
0.258
0.23139
0.173602
0.156567
0.170353
0.164179
0.162278
0.159185
0.154147
0.158852
0.251402
0.217786
0.153095
0.146093
0.169952
396.602
397.051
397.902
399.066
400.419
401.815
403.121
404.211
404.979
405.346
396.1
396.653
397.653
398.984
400.506
402.057
403.497
404.688
405.513
405.904
395.195
395.929
397.197
398.847
400.706
402.569
404.279
405.685
406.641
407.075
393.751
394.663
396.365
398.546
400.975
403.362
405.526
407.292
408.469
408.956
391.781
392.822
395.089
398.111
401.395
404.547
407.374
409.656
411.143
411.659
389.141
390.068
392.916
397.123
401.73
406.031
409.802
412.783
414.758
415.37
383.343
384.701
388.622
394.603
401.297
407.437
412.604
416.48
419.031
420.255
253.695
271.811
302.807
347.934
391.384
410.842
418.583
422.919
425.91
428.568
0.448949
0.436777
12.1767
51.9602
126.748
230.351
328.478
373.171
392.228
389.809
0.352926
0.352848
0.367485
0.491907
0.461658
0.350551
11.3518
44.0627
75.4754
147.286
0.286814
0.286857
0.261069
0.265318
0.240877
0.189512
0.176358
0.186115
0.128419
0.384759
0.22958
0.215593
0.196331
0.190321
0.185881
0.173794
0.153152
0.134998
0.101419
0.104572
0.198427
0.188522
0.179972
0.182393
0.176306
0.16951
0.167337
0.167937
0.134053
0.126211
0.18899
0.187678
0.174851
0.183178
0.17492
0.166794
0.196228
0.190603
0.146307
0.771763
0.188374
0.195748
0.178285
0.182086
0.177585
0.173971
0.212057
0.229792
0.199605
0.491711
0.183952
0.189019
0.178845
0.178431
0.182295
0.178102
0.199025
0.25481
0.256279
0.209966
0.178824
0.179735
0.175313
0.174047
0.174684
0.181954
0.194259
0.258153
0.245551
0.215993
0.173423
0.173141
0.171203
0.169305
0.1675
0.217088
0.247875
0.215367
0.17321
0.178643
0.16844
0.168228
0.166756
0.163591
0.160509
0.254531
0.257702
0.164
0.159529
0.169783
0.164785
0.16416
0.161682
0.156661
0.154651
0.254361
0.247399
0.145542
0.147517
0.162348
396.144
396.582
397.352
398.379
399.55
400.732
401.82
402.712
403.328
403.616
395.607
396.186
397.109
398.285
399.6
400.895
402.066
403.01
403.649
403.945
394.751
395.563
396.763
398.222
399.781
401.269
402.585
403.629
404.319
404.623
393.499
394.473
396.106
397.994
399.999
401.824
403.385
404.593
405.362
405.672
392.554
393.311
395.385
397.948
400.482
402.716
404.569
405.967
406.841
407.108
392.39
392.093
394.196
397.477
400.927
403.804
406.02
407.666
408.684
408.93
389.899
388.683
391.412
396.112
400.618
404.516
407.385
409.435
410.523
411.362
279.328
290.502
319.281
352.92
384.595
403.878
410.804
413.094
413.041
406.883
0.638563
9.75087
24.7286
73.5237
138.356
189.017
232.384
251.795
243.136
245.404
0.519393
0.515302
0.853392
0.337876
0.524621
0.397072
0.24939
0.225406
0.267154
18.9903
0.298444
0.373108
0.286583
0.268737
0.26443
0.198754
0.160104
0.166615
0.171495
0.164868
0.211059
0.209881
0.151447
0.133527
0.162981
0.160529
0.160446
0.160843
0.144319
0.130821
0.164858
0.163071
0.127268
0.124609
0.148649
0.155434
0.159317
0.202781
0.146423
0.143295
0.165712
0.160903
0.140397
0.152856
0.157917
0.161222
0.183819
0.209817
0.143011
0.153198
0.184816
0.184092
0.160934
0.17102
0.169437
0.168098
0.209079
0.22533
0.170688
0.166016
0.184048
0.189995
0.173365
0.17368
0.170453
0.170593
0.205347
0.236321
0.242243
0.206225
0.175361
0.178832
0.170885
0.170295
0.168497
0.170119
0.180691
0.208809
0.196865
0.216557
0.168939
0.17142
0.169026
0.167723
0.166012
0.166284
0.171236
0.175353
0.169225
0.175297
0.166114
0.167991
0.167574
0.165101
0.162356
0.162535
0.169594
0.167326
0.163324
0.169484
0.166366
0.167025
0.165438
0.161031
0.156424
0.157689
0.162752
0.155232
0.153724
0.161139
395.513
395.958
396.646
397.549
398.567
399.549
400.425
401.123
401.589
401.797
394.88
395.553
396.383
397.423
398.55
399.604
400.522
401.226
401.68
401.882
393.735
394.771
396.002
397.337
398.666
399.805
400.741
401.435
401.861
402.035
391.974
393.622
395.344
397.132
398.75
400.048
401.035
401.706
402.075
402.207
385.871
392.449
394.941
397.307
399.212
400.552
401.467
402.02
402.287
402.308
335.228
393.729
395.247
397.548
399.572
400.984
401.73
402.088
402.171
402.161
394.9
393.51
393.698
397.282
399.766
400.738
401.188
401.456
401.083
401.61
319.67
291.528
307.347
347.799
370.426
384
391.161
389.092
379.07
359.225
22.0155
44.2574
54.2264
93.5323
132.24
135.29
124.727
122.692
106.467
133.02
1.34883
1.03773
0.983332
3.50507
0.169674
0.326162
0.248212
0.223634
0.203302
0.263356
0.297048
0.608916
0.321009
0.190283
0.327637
0.18754
0.161333
0.168609
0.17536
0.168439
0.195346
0.259445
0.0687515
-0.0105766
0.188588
0.13866
0.148716
0.166985
0.169216
0.166581
0.107685
0.108549
0.0155107
0.00121791
0.0830813
0.129488
0.146022
0.165026
0.162141
0.162364
0.107447
0.0850493
0.070673
0.084736
0.116092
0.137844
0.150781
0.200312
0.150756
0.152443
0.14912
0.127722
0.128446
0.144704
0.15014
0.153284
0.158833
0.18964
0.164239
0.158639
0.168065
0.159536
0.155929
0.163166
0.161176
0.160905
0.164206
0.164066
0.214312
0.172811
0.167846
0.169536
0.159834
0.164047
0.162815
0.163806
0.166509
0.167377
0.179142
0.193544
0.163153
0.170194
0.164332
0.16584
0.16453
0.164654
0.165913
0.166845
0.168817
0.176081
0.162657
0.169372
0.169521
0.167714
0.165288
0.163523
0.162669
0.162789
0.164213
0.167481
0.16976
0.173322
0.172923
0.167718
0.163209
0.159478
0.15646
0.155659
0.157091
0.160273
394.819
395.205
395.789
396.603
397.518
398.358
399.063
399.595
399.93
400.066
394.018
394.605
395.401
396.391
397.419
398.283
399.003
399.504
399.796
399.914
392.085
393.363
394.712
396.118
397.397
398.292
398.913
399.305
399.495
399.552
388.055
391.319
393.663
395.689
397.248
398.142
398.672
398.883
398.897
398.869
371.612
388.745
393.117
396.078
397.565
398.18
398.288
398.119
397.874
397.71
280.439
371.332
396.449
397.362
397.83
397.631
397.164
396.475
395.792
395.664
281.815
392.9
396.134
397.504
397.502
395.992
394.36
393.031
391.543
391.96
262.633
298.164
259.089
325.943
346.013
348.354
345.114
340.301
320.972
294.913
142.78
100.587
118.439
129.475
89.1309
65.1372
46.2638
34.0917
25.2459
57.9197
1.71169
0.367863
0.764075
-0.251027
1.75424
0.2018
0.244693
0.260938
0.26393
0.238035
0.327288
0.486338
0.146061
-0.00964347
0.0237966
0.132914
0.150742
0.175998
0.194195
0.191446
0.297688
0.291165
-0.204363
-0.239534
-0.0694034
0.0691745
0.121231
0.165856
0.189966
0.19189
0.203565
-0.00324007
-0.243924
-0.192693
-0.0488296
0.0712404
0.122233
0.15491
0.169211
0.179113
0.107675
-0.0471809
-0.0673174
-0.0132674
0.049226
0.10058
0.131402
0.154166
0.153159
0.161865
0.116567
0.0531759
0.0623879
0.156744
0.133453
0.13155
0.14436
0.158394
0.15963
0.159452
0.14101
0.117517
0.10415
0.206339
0.156138
0.148909
0.15393
0.164243
0.151754
0.166366
0.156633
0.19499
0.132544
0.202727
0.155875
0.156947
0.161015
0.177135
0.176602
0.173705
0.159756
0.36124
0.156958
0.20196
0.160957
0.162719
0.164372
0.169011
0.17761
0.177824
0.186563
0.427072
0.175788
0.201734
0.16799
0.166617
0.16563
0.16578
0.166907
0.168921
0.210347
0.404326
0.191752
0.199585
0.171432
0.166868
0.163519
0.161858
0.161918
0.163123
394.438
394.507
394.839
395.625
396.525
397.287
397.882
398.292
398.521
398.596
393.424
393.639
394.109
395.17
396.29
397.088
397.669
398.025
398.189
398.239
390.677
391.333
392.489
394.295
396.022
396.844
397.289
397.462
397.46
397.425
384.691
386.944
389.876
392.718
395.303
396.326
396.549
396.423
396.14
395.992
374.565
375.476
389.438
394.048
395.474
395.812
395.408
394.686
394.069
393.787
303.513
273.644
369.026
397.628
396.225
394.535
393.031
391.435
390.189
390.108
124.327
249.749
391.247
398.453
395.036
391.278
388.385
385.065
382.852
383.628
53.969
172.149
294.463
290.526
310.442
308.414
291.285
270.734
249.356
233.209
19.2574
38.6363
125.018
116.741
40.4341
16.4458
5.34936
0.491844
0.458456
16.108
6.89517
2.338
0.786448
-0.380581
-0.00674597
0.258556
0.316231
0.325975
0.32796
0.306268
0.927897
1.46416
0.48481
0.0475661
-0.106735
0.0915185
0.183208
0.231691
0.245205
0.222495
0.70904
1.48899
1.67506
-0.0285112
-0.295831
-0.0370876
0.105357
0.171947
0.205063
0.209968
0.333859
2.85868
1.93979
-0.00102501
-0.217048
-0.016462
0.0925602
0.151648
0.181395
0.190897
0.347835
0.62109
1.49849
0.276057
-0.0372111
0.0495445
0.110223
0.146392
0.161983
0.18193
0.160583
0.0608656
1.84541
0.746148
0.0720984
0.104998
0.138794
0.146382
0.148887
0.17161
0.872107
0.587611
1.96376
0.578405
0.104376
0.13241
0.151967
0.165442
0.148805
0.16319
2.20066
2.40323
2.21417
0.520359
0.129078
0.148028
0.159505
0.18329
0.166666
0.169887
2.97384
2.85862
2.35067
0.497834
0.151834
0.160084
0.163801
0.175493
0.180458
0.178337
2.31492
1.80779
0.904327
0.385075
0.169586
0.170511
0.170169
0.17001
0.172244
0.172406
0.32379
0.201802
0.204589
0.296179
0.181279
0.176623
0.172718
0.169839
0.168279
0.167998
394.757
393.874
393.671
394.512
395.575
396.403
396.99
397.343
397.508
397.539
393.947
392.609
392.227
393.633
395.109
396.067
396.651
396.944
397.029
397.034
391.277
388.856
388.491
390.668
394.027
395.539
396.061
396.115
395.983
395.887
386.499
382.173
384.141
388.69
391.815
394.699
395.031
394.655
394.133
393.897
382.053
375.928
356.692
383.419
394.38
394.323
393.506
392.25
391.323
390.964
262.071
260.76
246.177
387.514
396.263
392.878
390.242
387.875
386.079
386.074
95.8739
96.6837
278.5
402.984
394.961
388.728
383.873
378.792
374.601
375.391
55.7756
74.4027
251.946
303.103
287.703
279.705
241.22
208.56
188.202
191.28
21.9216
42.0745
159.29
71.4251
18.3513
2.92323
0.470457
0.495578
0.485169
1.37186
2.54951
10.1346
11.0222
1.73353
0.261447
0.293842
0.390629
0.401694
0.389473
0.372516
1.43563
2.94716
1.89778
0.234098
-0.154426
0.0421334
0.22163
0.27606
0.292358
0.275199
1.43887
24.3389
14.1499
0.131528
-0.296009
-0.0599255
0.116151
0.178566
0.221257
0.228548
-0.219338
74.4219
29.8921
-0.322868
-0.173989
-0.0147025
0.0942404
0.157603
0.201282
0.201442
0.207949
55.008
18.3434
-0.114027
-0.04402
0.0379129
0.107178
0.16527
0.181989
0.195655
4.79087
1.61623
2.16779
0.0306076
0.0373187
0.0914313
0.138332
0.165813
0.174091
0.176809
9.21119
0.818302
0.15273
0.149588
0.0906595
0.121295
0.152399
0.171422
0.158838
0.163043
10.0964
2.04208
0.145167
0.141408
0.129516
0.144457
0.159477
0.182275
0.158705
0.169252
9.93735
2.40677
0.170511
0.139711
0.158284
0.164527
0.16705
0.172505
0.172286
0.175535
1.67209
0.69656
0.199675
0.168228
0.184824
0.182675
0.178977
0.176426
0.176371
0.175964
0.234157
0.226157
0.232958
0.199002
0.20513
0.195428
0.186781
0.179976
0.17568
0.173902
394.982
393.661
392.97
394.128
395.256
396.06
396.596
396.9
397.021
397.024
393.28
391.561
390.464
392.702
394.967
395.77
396.217
396.437
396.468
396.442
388.463
386.433
384.735
388.786
394.173
395.309
395.611
395.495
395.256
395.119
384.842
379.187
379.729
372.304
383.041
394.382
394.594
393.888
393.132
392.819
382.132
374.472
363.241
306.388
356.064
393.708
392.853
391.104
389.937
389.509
219.927
244.557
220.663
317.901
401.243
392.998
389.242
386.246
383.965
383.786
101.447
102.825
231.997
412.546
398.208
387.857
381.291
374.583
368.685
368.262
77.9564
101.76
239.935
328.574
267.178
258.875
214.269
179.321
160.605
165.455
61.4758
114.602
187.462
89.0249
22.8665
3.32003
0.422842
0.577858
0.576492
0.644445
3.52822
28.7035
45.317
16.0221
2.20933
0.137361
0.364428
0.45524
0.448421
0.433165
0.65333
10.4181
4.30531
0.792065
-0.126387
-0.0735546
0.173491
0.290459
0.318075
0.309471
7.10221
51.991
7.50036
0.0139924
-0.139368
-0.0501466
0.101666
0.190852
0.238541
0.239509
48.5747
91.016
13.211
-0.132683
-0.0785971
0.0147106
0.103473
0.157899
0.192402
0.201595
85.5979
81.7486
17.0259
-0.0764425
-0.00939212
0.0509704
0.109721
0.154827
0.178182
0.18675
47.6283
8.53851
14.4709
-0.00749357
0.0589517
0.0941691
0.128804
0.165579
0.174265
0.1764
0.414523
0.163701
1.68494
0.0592818
0.156878
0.12561
0.138545
0.170333
0.17458
0.168143
0.239606
0.171581
0.137332
0.121288
0.218469
0.146868
0.153637
0.174585
0.175532
0.169873
0.316614
0.201652
0.175461
0.171714
0.269367
0.17471
0.170855
0.170909
0.172189
0.176324
0.299279
0.242105
0.222084
0.215857
0.301307
0.205948
0.188991
0.182371
0.179168
0.178699
0.25648
0.296051
0.294811
0.235147
0.316083
0.232847
0.204535
0.190386
0.182388
0.179265
394.847
393.66
392.949
394.005
395.313
396.16
396.695
396.989
397.101
397.098
392.96
391.6
390.08
392.568
394.937
395.901
396.345
396.536
396.553
396.519
389.03
385.717
383.716
388.174
394.641
395.674
395.842
395.617
395.351
395.203
390.858
375.96
377.642
368.447
382.275
395.211
394.943
394.081
393.25
392.911
368.761
357.589
348.154
305.797
349.245
394.499
393.209
391.31
390.056
389.602
175.404
172.945
214.045
354.751
401.128
393.811
389.496
386.386
384.036
383.816
107.438
121.169
299.973
418.829
401.021
388.564
381.405
374.683
368.901
368.063
108.259
146.584
319.403
359.839
269.718
258.243
213.312
178.321
160.97
166.309
104.778
143.048
208.493
110.33
30.646
5.30379
0.280399
0.63085
0.648482
0.701821
83.5316
105.405
96.0064
22.1773
1.14191
-0.0532229
0.292424
0.491573
0.488279
0.461166
77.1595
85.0994
48.8172
16.5272
0.0171946
-0.134039
0.0870128
0.268109
0.313592
0.317408
83.8214
78.1945
81.9761
24.5652
-0.0779563
-0.0170967
0.088431
0.17727
0.222011
0.238857
91.1524
91.2364
89.8999
12.7157
-0.0492844
0.0296785
0.107051
0.157859
0.1839
0.199863
98.3796
97.5059
59.853
11.5237
0.0455659
0.0668652
0.111714
0.143385
0.159131
0.182086
101.394
88.7828
6.21164
13.994
0.275854
0.10636
0.126267
0.149441
0.1487
0.170124
25.5304
15.1196
3.50856
4.85155
0.55266
0.128674
0.137931
0.172358
0.166597
0.164849
0.140602
0.12332
0.729667
0.0893202
0.641789
0.157248
0.154231
0.172535
0.17932
0.17167
0.183056
0.142476
0.124479
0.144315
0.708685
0.211033
0.174247
0.174026
0.179119
0.178863
0.256195
0.194361
0.200437
0.205845
0.782469
0.27905
0.196773
0.186323
0.182286
0.181284
0.300538
0.272364
0.282125
0.332284
0.586612
0.325031
0.218094
0.197231
0.187049
0.182881
394.335
393.957
393.905
394.718
395.843
396.682
397.257
397.592
397.739
397.76
392.882
392.51
392.588
393.756
395.301
396.303
396.917
397.202
397.266
397.258
387.449
387.059
388.309
390.606
393.915
395.756
396.289
396.387
396.23
396.12
376.267
377.86
381.885
389.881
392.854
395.06
395.438
394.99
394.401
394.14
358.705
352.2
312.971
356.212
396.256
395.465
394.141
392.647
391.614
391.223
163.387
215.561
343.656
404.957
398.939
394.133
390.81
388.163
386.253
386.263
97.2606
203.792
387.553
410.386
397.666
389.568
384.277
378.916
374.635
375.723
89.6582
130.082
304.948
304.258
281.412
270.547
234.887
204.054
187.945
193.009
60.885
63.1022
114.886
78.4267
35.6182
7.53679
0.329572
0.616836
0.605624
1.51893
19.9261
20.9319
22.9531
9.54068
1.681
-0.0191738
0.295148
0.45565
0.453936
0.415936
11.0852
7.03847
1.02964
0.453578
0.00807182
-0.145747
0.0521175
0.244346
0.295518
0.287848
58.746
12.308
-0.0417884
0.462379
0.124166
-0.0301926
0.0706868
0.161432
0.210874
0.222137
91.7513
16.7594
-0.187011
0.280904
0.300584
0.0258333
0.102524
0.152114
0.176296
0.191209
94.2203
16.0207
-0.0947408
0.254981
0.171229
0.0606873
0.108587
0.156201
0.156002
0.173405
30.0519
12.4571
0.00404091
0.305771
0.162728
0.0955987
0.124928
0.141953
0.166103
0.167493
0.153414
12.7355
0.0660453
0.368351
0.220175
0.117971
0.138359
0.165056
0.158734
0.166733
0.0770078
8.86855
0.0932959
0.414569
0.27616
0.13887
0.151067
0.169214
0.176891
0.172661
0.585161
0.842418
0.13276
0.359142
0.332941
0.165802
0.168047
0.170849
0.176371
0.178301
0.862153
0.179986
0.195129
0.240937
0.3741
0.199818
0.187089
0.181921
0.17956
0.179493
0.929576
0.248483
0.275754
0.352248
0.403811
0.233178
0.206737
0.192126
0.184341
0.18121
394.032
394.442
395.11
396.031
396.987
397.743
398.302
398.678
398.882
398.942
392.356
393.466
394.439
395.664
396.831
397.596
398.123
398.432
398.56
398.592
387.317
389.773
392.61
394.971
396.825
397.526
397.826
397.909
397.848
397.787
379.469
384.822
391.253
394.79
396.947
397.504
397.265
396.934
396.549
396.361
344.593
320.176
375.642
398.577
398.267
397.342
396.302
395.241
394.492
394.165
196.882
331.344
402.327
402.049
399
395.992
393.704
391.822
390.458
390.401
202.766
353.657
405.6
402.864
397.368
392.337
388.821
385.282
382.947
383.849
178.971
259.209
275.44
289.13
308.637
306.907
288.163
267.001
249.243
233.549
112.954
52.7713
62.2287
85.0614
45.4197
17.3415
4.92424
0.568624
0.564854
16.5324
16.4941
6.98215
2.98696
0.618494
-0.178316
-0.099896
0.259749
0.400176
0.408956
0.36175
5.10589
3.27101
0.220807
0.0930649
-0.0768537
-0.131258
0.0469625
0.212831
0.253925
0.233161
23.8065
2.83949
-0.197182
-0.0759387
-0.101556
-0.0671757
0.0454805
0.143941
0.187784
0.193144
35.6888
1.2204
-0.231836
-0.128205
-0.0349089
0.0165668
0.0939267
0.152215
0.168078
0.179144
20.0926
0.418291
-0.117649
-0.049293
0.0293313
0.0651574
0.105284
0.162931
0.166333
0.165054
2.68512
-0.0229223
0.00234163
0.0406884
0.0912884
0.101227
0.122035
0.147954
0.180035
0.166739
0.102839
0.0474807
0.0760233
0.092982
0.124387
0.124336
0.1383
0.150885
0.159277
0.170949
0.1192
0.1084
0.115947
0.123238
0.144683
0.143646
0.150852
0.161637
0.169059
0.174339
0.16645
0.153961
0.15107
0.154896
0.16654
0.16351
0.164424
0.166911
0.171551
0.175097
0.209946
0.190417
0.193094
0.1937
0.194334
0.185061
0.178252
0.175315
0.174887
0.175435
0.239638
0.236833
0.235186
0.231641
0.222539
0.205316
0.191336
0.18285
0.178275
0.176675
394.94
395.443
396.251
397.179
398.123
398.944
399.604
400.096
400.399
400.517
394.025
394.798
395.924
397.053
398.092
398.912
399.574
400.022
400.274
400.37
390.932
392.882
395.257
396.926
398.25
399.064
399.558
399.858
399.987
400.014
383.904
391.008
395.314
397.418
398.643
399.194
399.437
399.481
399.403
399.333
319.834
372.214
398.18
399.525
399.682
399.52
399.148
398.726
398.375
398.168
334.217
401.743
400.677
400.867
399.94
398.864
397.856
396.918
396.143
396.013
401.137
401.6
399.824
400.105
398.945
396.814
394.811
393.263
391.763
392.112
318.287
271.845
270.953
320.14
344.055
347.219
343.786
338.724
320.879
294.536
113.456
90.6046
94.9267
113.525
88.6861
62.1091
44.3012
33.0374
27.2091
58.8863
1.58245
1.04065
-0.323147
-0.904431
-0.230355
0.0616994
0.321251
0.370495
0.332677
0.276328
1.09197
0.21844
-0.119002
-0.0563081
-0.0921174
-0.0396799
0.100113
0.176142
0.180932
0.170303
-0.0462861
-0.205264
-0.246092
-0.186993
-0.176381
-0.0583074
0.0644629
0.136256
0.160758
0.165625
-0.147203
-0.248028
-0.210715
-0.124663
-0.0582329
0.0241035
0.0996417
0.150179
0.157432
0.168541
-0.100715
-0.155099
-0.100418
-0.032251
0.0204912
0.0772536
0.116177
0.166151
0.159876
0.160776
-0.0347374
-0.0266097
0.0187145
0.0565977
0.0877042
0.112666
0.131073
0.176092
0.185059
0.166904
0.0440971
0.069947
0.0887979
0.104738
0.121934
0.133507
0.143214
0.150023
0.184652
0.172992
0.102532
0.164449
0.123159
0.131084
0.140889
0.148147
0.152074
0.158399
0.165689
0.175227
0.139136
0.203007
0.150989
0.155266
0.158069
0.160216
0.159272
0.162846
0.167578
0.171226
0.167246
0.180089
0.178478
0.177804
0.175481
0.173102
0.166921
0.16672
0.169076
0.170514
0.191332
0.192659
0.19671
0.195514
0.190333
0.184564
0.175462
0.17119
0.170239
0.170424
396.013
396.471
397.271
398.234
399.257
400.21
401.045
401.703
402.139
402.33
395.534
396.062
397.098
398.191
399.303
400.31
401.168
401.82
402.236
402.418
394.626
395.253
396.869
398.274
399.562
400.608
401.439
402.054
402.428
402.574
393.245
394.564
396.99
398.625
399.963
401.016
401.807
402.353
402.649
402.743
363.626
395.968
398.157
399.599
400.821
401.671
402.273
402.653
402.841
402.823
400.311
397.251
398.05
399.651
400.997
401.967
402.399
402.6
402.626
402.595
395.327
393.419
395.131
398.337
400.558
401.226
401.649
401.794
401.462
401.936
264.293
273.217
304.971
342.896
367.719
382.667
390.502
388.834
379.301
359.137
1.18471
36.4606
73.303
90.4215
126.903
133.262
125.017
123.691
108.912
134.717
0.843166
1.07036
-0.458891
1.59995
0.115269
0.369438
0.350905
0.296572
0.216463
0.185323
1.52722
-0.0412191
-0.0133724
0.0280739
0.0578215
0.107019
0.142367
0.149777
0.133989
0.107106
0.366101
-0.276716
-0.217677
-0.160791
-0.0500715
0.0410458
0.109889
0.133774
0.131772
0.132665
-0.0576667
-0.202209
-0.158509
-0.0809077
0.00332666
0.082232
0.128223
0.14818
0.143649
0.154664
-0.0117605
-0.0848572
-0.0362584
0.0228802
0.0711078
0.116832
0.169563
0.161492
0.137047
0.162008
0.0357424
0.0261958
0.0646064
0.0961915
0.119069
0.135428
0.186215
0.193697
0.185549
0.172353
0.081306
0.0913369
0.114539
0.127796
0.135226
0.1429
0.164445
0.165142
0.197195
0.196425
0.117773
0.12744
0.135519
0.140306
0.143758
0.16785
0.16152
0.156664
0.164741
0.17386
0.148188
0.14877
0.151533
0.152166
0.161944
0.196868
0.156522
0.155193
0.163532
0.167959
0.171535
0.167681
0.166477
0.164479
0.169743
0.208173
0.158205
0.153664
0.16181
0.165187
0.18455
0.180745
0.178309
0.175168
0.171693
0.193696
0.162535
0.156092
0.160466
0.16317
396.796
397.238
398.062
399.119
400.283
401.439
402.491
403.347
403.936
404.209
396.383
396.893
397.884
399.079
400.377
401.632
402.753
403.655
404.261
404.54
395.658
396.314
397.661
399.132
400.645
402.063
403.304
404.289
404.938
405.219
395.233
395.717
397.38
399.162
401.02
402.702
404.142
405.265
405.981
406.263
394.69
395.326
397.202
399.434
401.652
403.639
405.321
406.617
407.44
407.676
393.183
393.435
395.562
398.636
401.908
404.566
406.652
408.231
409.228
409.452
387.008
388.028
391.374
396.325
401.203
405
407.86
409.886
411.038
411.851
251.413
270.013
307.222
346.473
381.539
403.035
410.965
413.43
413.827
407.723
0.51913
2.24558
21.4827
63.1893
131.963
188.31
233.852
252.583
243.259
248.308
0.229028
1.77789
2.21354
0.268077
0.515037
0.400281
0.292051
0.239807
0.437415
22.1392
0.262611
0.600094
0.192995
0.3327
0.227325
0.168914
0.128839
0.124278
0.120167
0.0861875
0.253606
0.00727038
-0.0390655
0.106334
0.107858
0.114694
0.127623
0.117587
0.102951
0.100615
0.072792
-0.0121028
-0.0170492
0.0548929
0.112305
0.134903
0.152174
0.146033
0.136785
0.145044
0.079994
0.0365139
0.0759251
0.12209
0.143716
0.161765
0.191384
0.14364
0.145201
0.171056
0.121513
0.0953016
0.126912
0.149528
0.160447
0.189779
0.200042
0.170275
0.169986
0.181963
0.147574
0.122577
0.143761
0.149752
0.186062
0.270107
0.165125
0.168118
0.183214
0.187939
0.167593
0.135719
0.146708
0.153793
0.279722
0.35414
0.160421
0.154841
0.165308
0.172244
0.166321
0.148848
0.152294
0.171583
0.365531
0.362169
0.245995
0.146411
0.159321
0.165807
0.159745
0.159856
0.15937
0.169957
0.347038
0.369546
0.355901
0.13706
0.153676
0.160097
0.166736
0.167036
0.165688
0.163209
0.265629
0.388796
0.352876
0.155734
0.149821
0.156002
397.309
397.766
398.643
399.822
401.167
402.543
403.82
404.882
405.627
405.982
396.892
397.413
398.436
399.773
401.279
402.802
404.205
405.363
406.162
406.539
396.066
396.749
398.053
399.699
401.525
403.343
405.004
406.367
407.293
407.708
395.138
395.696
397.368
399.503
401.858
404.171
406.265
407.974
409.114
409.581
393.497
394.153
396.269
399.153
402.296
405.339
408.086
410.312
411.77
412.268
389.694
390.77
393.695
397.821
402.394
406.662
410.422
413.396
415.377
415.979
382.021
384.214
388.749
394.64
401.581
407.867
413.129
417.064
419.697
420.919
227.066
250.042
290.375
342.536
389.706
410.884
418.946
423.546
426.898
429.334
0.329379
0.152131
6.88638
45.8031
122.58
231.364
331.617
375.799
393.545
395.486
0.211241
0.236263
1.85477
0.607498
0.514213
0.364342
13.2678
48.7491
80.6312
156.917
0.182548
0.302138
0.341827
0.34896
0.237688
0.16428
0.146396
0.142209
0.107475
0.249566
0.159683
0.15265
0.152177
0.230492
0.163241
0.142237
0.121324
0.103882
0.0857659
0.0863418
0.123499
0.108893
0.121019
0.17976
0.168239
0.158027
0.165151
0.14704
0.138187
0.137017
0.121203
0.120319
0.156342
0.184091
0.181331
0.196597
0.196744
0.158146
0.17357
0.205355
0.12293
0.133415
0.164601
0.182279
0.180263
0.225689
0.215068
0.176209
0.188889
0.251915
0.136458
0.140241
0.156514
0.205007
0.291559
0.263357
0.197483
0.178077
0.184004
0.184732
0.146288
0.143794
0.152047
0.237125
0.362085
0.305279
0.174339
0.161023
0.167171
0.176979
0.15073
0.15052
0.152465
0.250015
0.36571
0.365578
0.15636
0.14162
0.157676
0.167503
0.15639
0.156635
0.154664
0.236202
0.371868
0.377886
0.234282
0.140117
0.152362
0.158522
0.161737
0.160933
0.15841
0.197401
0.385939
0.385666
0.370102
0.174314
0.145738
0.152278
397.598
398.087
399.039
400.344
401.861
403.436
404.919
406.167
407.052
407.48
397.114
397.677
398.77
400.256
401.97
403.739
405.398
406.791
407.765
408.229
396.089
396.81
398.199
400.058
402.185
404.365
406.4
408.104
409.281
409.815
394.448
395.324
397.162
399.64
402.462