/*--------------------------------*- C++ -*----------------------------------*\
| =========                 |                                                 |
| \\      /  F ield         | OpenFOAM: The Open Source CFD Toolbox           |
|  \\    /   O peration     | Version:  2312                                  |
|   \\  /    A nd           | Website:  www.openfoam.com                      |
|    \\/     M anipulation  |                                                 |
\*---------------------------------------------------------------------------*/
FoamFile
{
    version     2.0;
    format      ascii;
    arch        "LSB;label=32;scalar=64";
    class       volScalarField;
    location    "1.265";
    object      alpha.water;
}
// * * * * * * * * * * * * * * * * * * * * * * * * * * * * * * * * * * * * * //

dimensions      [0 0 0 0 0 0 0];

internalField   nonuniform List<scalar> 
8000
(
1
1
1
1
1
1
1
1
1
1
1
1
1
1
1
1
1
1
1
1
1
1
1
1
1
1
1
1
1
1
1
1
1
1
1
1
1
1
1
1
1
1
1
1
1
1
1
1
1
1
1
1
1
1
1
1
1
1
1
1
1
1
1
1
1
1
1
1
1
1
1
1
1
1
1
1
1
0.992255
0.981952
0.976636
0.99468
0.952323
0.864897
0.773845
0.697599
0.639391
0.603942
0.588864
0.586037
0.575339
0.472566
0.32207
0.183193
0.100004
0.0570699
0.03809
0.0312863
0.0305301
0.030889
0.0281605
0.00226738
0.000128615
0.000167445
0.000208693
5.19468e-05
7.284e-05
8.24025e-05
6.98019e-05
6.4895e-05
5.30036e-05
9.65589e-05
0.000184125
0.000272673
0.000337751
2.6042e-05
2.69235e-05
2.49865e-05
1.51711e-05
1.15218e-05
1.08001e-05
9.43457e-05
0.000284014
0.000376472
0.000115978
2.6042e-05
2.62787e-05
2.81185e-05
1.33756e-05
9.85285e-06
9.75901e-06
9.84763e-05
0.000252354
0.00038814
0.000184912
2.29666e-05
0.000100048
0.000200004
4.06454e-05
9.75948e-06
9.75948e-06
0.00010031
0.000525948
0.000395528
8.59422e-05
1.93178e-05
0.000156214
0.000197472
0.000121489
9.76999e-06
9.75906e-06
0.000475143
0.000526421
0.000293316
1.56076e-05
1.69628e-05
5.07117e-05
0.000142981
4.95323e-05
1.01013e-05
9.20203e-06
0.000526611
0.000526177
0.000282893
1.88788e-05
4.68318e-05
3.40035e-05
3.97038e-06
5.27031e-06
1.34413e-05
8.47838e-06
0.000526611
0.00045391
0.000160908
2.03089e-05
0.000132765
0.000121822
3.18402e-06
3.23553e-06
3.43169e-06
3.48048e-06
0.000526611
8.04032e-05
6.44603e-05
0.000132765
0.000132931
0.000133246
7.88581e-05
3.24301e-06
3.2849e-06
3.39028e-06
0.000324325
3.63406e-06
2.939e-05
0.000104287
0.000133246
0.000133396
0.000133341
8.41789e-05
3.44268e-06
3.48048e-06
1
1
1
1
1
1
1
1
1
1
1
0.999998
0.999996
0.999998
1
1
1
1
1
1
1
0.999982
0.999989
0.999992
1
1
1
1
1
1
1
0.999994
1
1
1
1
1
1
1
1
1
0.999987
1
1
1
1
1
1
1
1
1
0.999993
1
1
1
1
1
1
1
1
1
1
1
1
1
1
1
1
1
1
1
1
1
1
1
1
0.997278
0.986248
0.976743
0.969668
0.955702
0.912848
0.826939
0.727152
0.630367
0.548203
0.487348
0.450045
0.414334
0.379747
0.381912
0.250624
0.144876
0.0742359
0.0378873
0.0182423
0.00830728
0.00396889
0.00180753
0.000991119
6.73947e-05
6.49038e-05
0.000120335
0.000148844
0.000103281
0.000164794
0.000108384
8.12387e-05
7.31193e-05
6.21947e-05
9.4787e-05
0.000127092
0.000207107
0.00020924
7.60386e-05
0.000105437
4.95819e-05
1.97301e-05
1.7899e-05
1.43841e-05
9.0783e-05
0.000283764
0.000160006
3.9946e-05
0.000128066
0.00021114
0.000160604
1.36186e-05
1.10694e-05
1.01138e-05
9.37595e-05
0.000268649
0.000350559
2.34247e-05
0.000110432
0.000208494
0.000203913
0.000193338
4.66027e-05
9.47579e-06
9.57147e-05
0.000268897
0.000325044
1.56342e-05
5.98686e-05
0.000203913
0.000200475
0.000197472
0.000138337
9.20202e-06
0.000193074
0.000289916
0.000187895
1.50791e-05
1.56342e-05
9.79321e-05
0.000197472
0.000193473
0.000112788
8.63107e-06
0.000525693
0.000466893
8.19957e-05
2.15056e-05
6.5003e-05
1.49023e-05
5.37109e-05
7.95784e-05
8.52745e-06
7.17211e-06
0.000526611
0.000427171
2.36467e-05
8.05674e-05
0.000132514
5.01019e-05
3.08198e-06
3.11829e-06
3.21563e-06
3.37466e-06
0.000525654
0.000168393
5.422e-05
0.000131639
0.000132765
6.83504e-05
3.08484e-06
3.18936e-06
3.24301e-06
3.28497e-06
0.00032027
5.39361e-06
5.35179e-05
0.000106007
0.000121529
8.95825e-05
4.10299e-05
5.27168e-06
3.2849e-06
3.39027e-06
1
1
1
1
1
1
1
1
1
1
1
1
0.999995
0.999987
0.999998
1
1
1
1
1
1
0.999905
0.99977
0.999937
1
1
1
1
1
1
1
0.999672
0.999669
0.999977
1
1
1
1
1
1
1
0.99968
0.999833
1
1
1
1
1
1
1
1
0.999971
1
1
1
1
1
1
1
1
1
1
1
1
1
1
1
1
1
1
1
1
1
1
1
1
0.986616
0.973215
0.961132
0.951648
0.884855
0.838856
0.735377
0.606582
0.478245
0.36322
0.288667
0.241046
0.208005
0.183759
0.255814
0.165332
0.0876974
0.0366609
0.00975814
0.000581149
0.000251439
1.61812e-05
6.1447e-06
9.13994e-06
4.80048e-05
4.76757e-05
7.14976e-05
8.76871e-05
9.29889e-05
8.41737e-05
3.50598e-05
2.53157e-05
3.03613e-05
5.68444e-05
5.74448e-05
7.78259e-05
0.000141542
7.49135e-05
3.13462e-05
3.44849e-05
1.95397e-05
1.63672e-05
2.78037e-05
5.37975e-05
6.4566e-05
0.000160051
0.000205513
3.46264e-05
2.65201e-05
4.77801e-05
2.73023e-05
1.10647e-05
9.87201e-06
1.89772e-05
0.000108539
0.000322233
0.000335528
3.91464e-05
3.70935e-05
0.00012741
0.00010293
2.41053e-05
7.87532e-06
8.43522e-06
9.05897e-05
0.000320565
0.000213834
1.67279e-05
0.0001823
0.000200294
0.000198035
0.000196834
5.74594e-05
8.63107e-06
0.000114029
7.42008e-05
5.67919e-05
1.08427e-05
7.8247e-05
0.000197854
0.000196855
0.000193007
7.74816e-05
6.49467e-06
0.000511682
0.000118472
1.7108e-05
1.60307e-05
4.82652e-05
1.09308e-05
3.76651e-05
1.62675e-05
3.21563e-06
4.84026e-06
0.000525654
0.000365815
1.91743e-05
7.08033e-05
0.000125475
3.05072e-06
3.04956e-06
3.12115e-06
3.1232e-06
3.21563e-06
0.000523231
0.00023546
2.33172e-05
0.000130317
6.12366e-05
3.03472e-06
2.98856e-06
3.10677e-06
3.42104e-06
3.51608e-06
0.000322568
2.35271e-05
5.73874e-05
6.57687e-05
8.91044e-06
3.63436e-06
3.69263e-06
4.28374e-06
1.20349e-05
1.55759e-05
1
1
1
1
1
1
1
1
1
1
1
1
0.999997
0.999997
1
1
1
1
1
1
1
0.999967
0.999779
0.999912
0.999999
1
1
1
1
1
1
0.999882
0.999668
0.999869
1
1
1
1
1
1
1
0.999942
0.999725
0.999957
1
1
1
1
1
0.999999
1
0.999993
0.999995
0.999999
1
1
1
1
1
1
1
1
1
1
1
1
1
1
1
1
1
1
1
1
1
0.972299
0.944303
0.921631
0.902674
0.887166
0.768267
0.72102
0.595585
0.435103
0.275725
0.178156
0.124801
0.0963485
0.0799297
0.0680459
0.139344
0.0889113
0.0406929
0.00760587
0.000437601
6.11759e-06
5.53026e-06
4.12237e-06
4.11776e-06
6.3443e-06
4.65892e-05
4.58856e-05
4.76756e-05
6.68868e-05
6.81042e-05
3.65033e-05
1.92698e-05
3.52379e-05
6.92404e-05
0.000106146
4.58848e-05
4.20217e-05
4.46715e-05
2.95297e-05
2.29015e-05
1.73325e-05
1.58168e-05
4.31852e-05
0.000159772
0.000162805
8.12777e-05
3.91341e-05
6.16352e-05
2.52793e-05
1.70435e-05
1.36186e-05
1.19383e-05
1.06722e-05
9.0674e-06
9.38969e-06
7.85843e-05
0.000283205
0.000313489
0.000113423
2.22514e-05
2.70012e-05
7.02715e-05
5.13751e-05
6.55592e-06
8.48331e-06
8.37422e-05
0.000206706
0.000298458
0.000171918
0.000143435
0.000197854
0.000196855
0.000171845
1.57972e-05
8.86719e-06
0.000163872
2.32115e-05
2.05912e-05
7.87978e-06
7.40567e-05
0.000138007
8.5945e-05
6.56038e-05
8.25746e-05
4.63093e-05
0.000521622
0.000271467
0.00010201
6.30564e-06
5.18344e-06
6.51018e-06
7.30072e-06
3.21668e-06
3.65841e-06
4.00643e-06
0.000523231
0.000521622
0.000112522
7.60008e-06
1.67806e-05
2.95864e-06
2.98856e-06
3.00331e-06
5.97881e-06
1.29942e-05
0.000521622
0.000361343
2.41532e-05
7.64206e-06
2.77092e-06
2.813e-06
2.93844e-06
2.98856e-06
1.93949e-05
0.000107636
0.000225775
2.99452e-05
1.6313e-05
2.32871e-05
2.3621e-06
2.54701e-06
2.813e-06
3.00545e-06
2.53156e-05
0.000190026
1
1
1
1
1
1
1
1
1
1
1
1
0.999999
1
1
1
1
1
1
1
1
0.999999
0.999982
0.999991
1
1
1
1
1
1
1
1
0.999972
0.99998
0.999995
1
1
0.999999
0.999997
0.999997
1
1
1
0.999987
0.999993
1
1
1
0.999994
0.99996
1
1
1
1
1
1
1
1
1
1
1
1
1
1
1
1
1
1
0.999984
0.999999
0.987625
0.998485
0.999068
0.977951
0.929612
0.876486
0.830752
0.794219
0.76305
0.739311
0.623367
0.566399
0.416499
0.240245
0.120538
0.0599583
0.0310767
0.0190664
0.0130726
0.00854054
0.0636295
0.0349429
0.00586454
0.000485152
6.13042e-06
5.58146e-06
3.35011e-06
1.65988e-06
2.04139e-06
4.11295e-06
4.80048e-05
4.24356e-05
6.99064e-05
8.10061e-05
4.57682e-05
4.46588e-05
6.82266e-05
7.65959e-05
3.66628e-05
5.60115e-05
8.77925e-05
3.56198e-05
3.51942e-05
3.13508e-05
2.67428e-05
6.51336e-05
0.000112356
0.000112573
8.81118e-05
7.85963e-05
0.000184451
3.23976e-05
2.88196e-05
2.67431e-05
2.29024e-05
3.4309e-05
0.000112018
6.73295e-05
4.68202e-06
5.22965e-06
0.000145528
4.89033e-05
0.000124101
0.000104079
5.70638e-05
8.14663e-05
3.52509e-05
7.59815e-06
5.22644e-06
9.07224e-06
0.000160363
3.24329e-05
0.000139461
0.000168616
0.000153441
0.000164179
3.77081e-05
8.25913e-06
5.22571e-06
1.49024e-05
0.000442894
2.83521e-05
2.52381e-05
2.85794e-05
2.83325e-05
3.43547e-05
1.06317e-05
3.78998e-06
4.32393e-06
1.07107e-05
0.000521444
0.000287287
0.000184486
1.30991e-05
2.98114e-06
2.86459e-06
2.92942e-06
3.01382e-06
5.02301e-06
5.76662e-05
0.000521622
0.000521444
0.000512997
0.000116175
3.87075e-05
2.91916e-06
2.94659e-06
3.00067e-06
2.70079e-05
0.000186633
0.000388188
0.00039833
0.000300247
0.000158548
5.62648e-05
3.28493e-06
2.86508e-06
2.94659e-06
0.000158554
0.000220512
3.71651e-05
2.63398e-05
1.61034e-05
9.97655e-05
1.84786e-05
2.72332e-06
2.76726e-06
2.86508e-06
0.000165685
0.000218978
1
1
1
1
1
1
1
1
1
1
1
1
1
1
1
1
1
1
1
1
1
1
1
1
1
1
1
1
0.999999
1
1
1
1
1
1
1
1
0.999999
0.999984
0.999984
1
1
1
1
1
1
1
1
0.999979
0.999912
1
1
1
1
1
1
1
1
1
0.999999
1
1
1
1
1
1
0.999945
0.999845
0.998875
0.997705
0.956222
0.967804
0.951849
0.894759
0.808343
0.722632
0.655118
0.601824
0.554424
0.520409
0.47482
0.411676
0.256204
0.115022
0.038185
0.00583544
3.10192e-06
1.65992e-06
2.04134e-06
4.11288e-06
0.0197827
0.00457576
0.000540205
0.000172077
5.60802e-06
3.10159e-06
1.60501e-06
1.38936e-06
1.6214e-06
2.04111e-06
7.36113e-05
0.000159739
8.69703e-05
5.65724e-05
5.31054e-05
9.37508e-05
7.22727e-05
6.29903e-06
1.58186e-06
6.60996e-06
8.57952e-05
0.000110469
2.73157e-05
3.07412e-05
8.91095e-05
0.000111691
0.000112333
4.21101e-05
1.45776e-06
6.06734e-06
9.12161e-05
2.52397e-05
1.9681e-05
2.69542e-05
5.51595e-05
0.000110857
7.7551e-05
1.4445e-06
4.35826e-06
7.02488e-06
0.000459901
2.17167e-05
1.50587e-05
2.73619e-05
0.000101718
0.000107613
2.35771e-05
2.09122e-06
5.27029e-06
4.9841e-06
0.000498043
2.05766e-05
1.30965e-05
3.94644e-05
4.35685e-05
3.96678e-05
5.10874e-06
1.80943e-05
2.94405e-05
4.11385e-05
0.00051533
2.6044e-05
2.79415e-05
0.000113476
2.59401e-06
1.78294e-06
1.51051e-06
1.46934e-05
3.83654e-05
0.00015998
0.000517518
0.000143555
0.000176945
0.000189508
2.84189e-06
2.55602e-06
2.04082e-05
1.70636e-05
0.000109254
0.000221662
0.0004487
0.000423088
0.000354355
0.000283542
0.000121904
3.50815e-05
1.63816e-05
8.99537e-05
0.000221662
0.000221662
5.38046e-05
0.000197196
0.000268719
0.000223096
0.000200406
0.000143829
6.55969e-05
0.000187894
0.000220512
0.000221662
6.35974e-06
1.58849e-05
4.21364e-05
8.39977e-05
0.00016987
0.000146287
7.50664e-05
0.00013781
0.000218941
0.000136661
1
1
1
1
1
1
1
1
1
1
1
1
1
1
1
1
0.999999
0.999998
1
1
1
1
1
1
1
1
0.999999
0.999997
0.999999
1
1
1
1
1
1
1
1
0.999999
0.999984
0.999984
1
1
1
1
1
1
1
1
0.999986
0.999937
1
1
1
1
1
1
1
1
0.99999
0.999964
1
1
1
1
1
0.99982
0.996869
0.991233
0.982736
0.974193
0.911438
0.922712
0.891002
0.803295
0.678003
0.556808
0.478961
0.415157
0.361106
0.324939
0.338013
0.280707
0.151887
0.0518645
0.00845604
5.57365e-06
1.35604e-06
1.38936e-06
1.62141e-06
2.11746e-06
0.00137056
0.000656637
0.000228502
6.7543e-05
5.3191e-06
1.33272e-06
1.35206e-06
1.35591e-06
1.38936e-06
1.62137e-06
0.000123556
0.000391814
5.31034e-05
5.27047e-05
5.23218e-05
3.71436e-05
1.35163e-06
1.35363e-06
1.37572e-06
1.58037e-06
5.32148e-05
0.000918975
2.1236e-05
4.8146e-05
0.000105691
9.77434e-05
1.35154e-06
1.35332e-06
1.36417e-06
2.69936e-06
3.1141e-05
0.000499667
1.60097e-05
2.90286e-05
0.000105691
7.71289e-05
6.00351e-06
1.3561e-06
1.44446e-06
1.88466e-06
0.000436288
4.01988e-05
1.30965e-05
1.19637e-05
5.55753e-05
5.45574e-05
7.86864e-06
7.50493e-06
6.6868e-06
4.9637e-06
0.00050423
2.5348e-05
1.19637e-05
9.11302e-06
4.30671e-06
1.65457e-06
1.41143e-06
3.20258e-06
0.000101892
0.000143468
0.000508102
7.05769e-05
0.000139163
0.000191843
1.78294e-06
1.50562e-06
1.46369e-06
1.51228e-06
0.000184332
0.000214521
0.000435172
7.72093e-05
0.000171527
0.000231257
0.000142242
8.02974e-05
4.58237e-05
0.000155382
0.000220186
0.000218787
6.59997e-05
6.53877e-05
5.3217e-05
0.000157584
0.00012874
6.09686e-05
0.000166755
0.000220186
0.000220924
0.000221662
3.20541e-05
5.1773e-05
3.71828e-05
3.81573e-05
3.91115e-05
5.33238e-05
0.000217366
0.000218776
0.000220186
0.000207635
3.30469e-05
1.83393e-05
1.36727e-05
1.21013e-05
3.52331e-05
4.69614e-05
0.000216243
0.000217366
0.00018172
4.7585e-05
1
1
1
1
1
1
1
0.999999
0.999999
1
1
1
1
1
1
1
0.999999
0.999992
0.999993
1
1
1
1
1
1
1
0.999999
0.999992
0.999994
1
1
1
1
1
1
1
1
0.999995
0.99998
0.999999
1
1
1
1
1
1
1
1
0.999983
0.999997
1
1
1
1
1
1
1
0.999997
0.999978
0.99998
1
1
1
1
1
0.994943
0.982921
0.96632
0.946244
0.926151
0.85581
0.868175
0.833152
0.715359
0.551177
0.426436
0.348439
0.28406
0.231889
0.195097
0.241071
0.197218
0.0944883
0.0254366
0.000848955
1.58945e-06
1.35206e-06
1.35591e-06
1.39063e-06
1.58287e-06
0.000443143
0.000359154
0.000125785
4.04973e-05
1.2942e-06
1.34641e-06
1.35163e-06
1.35206e-06
1.35591e-06
1.39062e-06
0.000104708
0.000199382
3.44225e-05
3.13387e-05
2.39777e-05
4.49966e-06
1.35154e-06
1.35163e-06
1.35363e-06
1.38314e-06
3.36324e-05
0.000394573
2.07777e-05
4.64902e-05
0.000105966
2.05898e-05
1.35154e-06
1.35154e-06
1.35331e-06
2.7745e-06
2.40231e-05
0.000519274
1.81514e-05
2.6634e-05
0.000104246
3.66647e-06
1.35154e-06
1.35154e-06
1.56082e-06
3.30377e-06
9.32274e-05
0.00025475
1.42498e-05
1.4281e-05
1.97114e-05
1.35168e-06
1.35154e-06
1.35168e-06
1.71395e-05
6.78288e-06
0.000422916
4.96882e-05
5.27475e-05
7.16501e-05
7.43081e-06
1.36074e-06
1.35168e-06
3.81535e-06
2.22222e-05
6.99184e-06
0.000348662
5.40285e-05
0.000223383
0.000231257
0.000159306
6.56681e-05
1.53139e-06
1.0637e-05
3.39428e-05
2.43848e-05
0.000114861
2.23931e-05
0.000123631
0.000233987
0.000236725
0.000234855
0.000141829
5.54271e-05
5.79221e-05
6.49965e-05
3.2139e-05
4.45314e-05
2.96031e-05
7.24356e-05
0.000224074
0.000236542
0.000141538
8.36756e-05
5.9923e-05
8.35589e-05
3.18179e-05
3.73471e-05
4.88778e-05
3.86503e-05
5.10441e-05
5.00693e-05
5.19947e-05
7.58296e-05
4.70087e-05
7.31246e-05
0.00010992
1.00885e-05
4.48217e-05
4.11182e-05
6.6071e-06
6.8985e-06
3.05661e-05
3.20169e-05
1.54716e-05
9.85888e-05
1
1
1
1
1
1
1
1
0.999996
0.999863
1
1
1
1
1
1
1
0.999995
0.999988
0.999827
1
1
1
1
1
1
1
0.999996
0.999991
0.999631
1
1
1
1
1
1
1
0.999995
0.999961
0.999539
1
1
1
1
1
1
1
0.999998
0.999888
0.999301
1
1
1
1
1
1
0.999999
0.999988
0.999906
0.999596
1
1
1
1
0.998478
0.983595
0.961597
0.933185
0.90036
0.870232
0.799958
0.820712
0.78442
0.634204
0.453273
0.340271
0.263569
0.201377
0.151833
0.117532
0.185275
0.150704
0.0659597
0.0129329
1.67155e-06
1.36031e-06
1.35277e-06
1.35992e-06
1.37455e-06
1.40836e-06
0.000263642
0.000210248
0.00010133
3.15957e-05
1.27426e-06
1.35242e-06
1.35206e-06
1.35277e-06
1.35991e-06
2.70836e-06
6.46726e-05
8.06293e-05
2.28127e-05
4.93809e-06
2.27664e-06
1.35171e-06
1.35163e-06
1.35211e-06
1.35873e-06
1.21824e-05
2.28624e-05
2.31334e-05
1.4967e-05
2.25202e-05
0.000101844
1.35179e-06
1.35154e-06
1.35189e-06
1.35508e-06
1.20432e-05
1.61633e-05
0.000214366
1.42283e-05
1.72126e-05
0.000102104
1.35163e-06
1.35154e-06
1.3523e-06
1.35995e-06
1.92898e-05
9.09291e-06
0.000191128
1.43208e-05
6.41398e-05
4.01453e-05
1.35231e-06
1.35168e-06
1.35456e-06
1.36196e-06
1.69176e-05
3.47642e-05
5.40747e-05
0.000142702
0.000229201
7.87205e-05
1.35952e-06
1.35456e-06
1.3689e-06
1.36938e-06
2.2483e-06
3.11952e-05
1.59819e-05
0.000158018
0.000233573
0.000236725
9.19143e-05
1.51908e-06
1.3862e-06
1.38423e-06
2.35899e-06
4.55037e-05
1.85031e-05
3.0905e-05
0.000236725
0.000236725
0.000236725
7.89673e-05
1.59827e-06
1.4636e-06
1.81594e-05
5.67903e-05
4.25009e-05
2.63269e-05
0.000162129
0.000236725
0.000236162
0.000101753
2.38577e-06
2.00235e-06
4.13236e-05
0.000106082
3.24253e-05
5.10607e-05
0.00019091
0.000233758
0.000187156
2.04951e-05
4.79255e-06
3.31762e-06
9.41728e-05
0.000108821
1.07384e-05
8.36076e-05
8.21377e-05
7.49491e-05
1.92256e-05
7.49346e-06
6.95158e-06
1.14508e-05
0.000158884
1
1
1
1
1
1
1
1
1
0.994304
1
1
1
1
1
1
1
1
1
0.994271
1
1
1
1
1
1
1
1
1
0.994273
1
1
1
1
1
1
1
1
0.999963
0.99582
1
1
1
1
1
1
1
1
0.999965
0.99616
1
1
1
1
1
1
0.999996
0.999981
0.999916
0.997788
1
1
1
1
0.993894
0.97201
0.939143
0.895849
0.849487
0.815347
0.756205
0.788745
0.751757
0.585815
0.402472
0.288978
0.20992
0.145743
0.0986574
0.0699254
0.163329
0.126534
0.0501404
0.00737347
1.33853e-06
1.35394e-06
1.35561e-06
1.35823e-06
1.36782e-06
1.457e-06
0.000159144
0.000154724
8.31047e-05
3.73955e-06
1.34042e-06
1.35346e-06
1.35277e-06
1.35561e-06
1.38549e-06
1.17276e-05
4.72362e-05
4.52631e-05
1.6798e-05
1.64181e-06
1.35334e-06
1.35277e-06
1.3521e-06
1.35601e-06
1.39066e-06
2.34272e-05
2.25136e-05
2.00722e-05
9.58016e-06
9.94835e-06
9.87038e-05
1.35188e-06
1.35189e-06
1.35509e-06
1.36229e-06
1.57239e-05
9.26989e-06
9.42841e-06
7.74184e-06
1.08346e-05
0.000101605
1.35231e-06
1.3523e-06
1.35895e-06
1.36564e-06
2.41084e-05
7.18308e-06
1.27409e-05
1.35999e-05
0.000214814
8.60126e-05
1.36791e-06
1.35456e-06
1.36384e-06
1.4467e-06
2.42034e-05
7.89574e-06
1.45937e-05
6.39479e-05
0.000226978
0.000124761
2.28243e-06
1.36384e-06
1.38512e-06
1.51191e-06
2.43163e-05
3.24191e-05
1.51071e-05
2.42249e-05
0.000232808
0.000235959
3.64758e-05
1.4105e-06
1.45071e-06
1.81211e-06
2.44161e-05
9.6908e-05
2.82196e-05
1.96492e-05
0.000207745
0.000236725
0.000109021
1.71213e-06
1.52156e-06
8.7199e-06
2.41315e-05
0.000104917
4.15732e-05
2.42521e-05
0.000229735
0.000235959
0.00012206
2.86926e-06
1.75772e-06
2.49023e-05
1.60146e-05
0.000105472
9.99296e-06
0.00011685
0.000218063
0.000208043
3.90792e-05
5.22377e-06
6.36847e-06
6.93169e-05
4.06023e-05
7.77417e-05
1.08669e-05
8.61165e-05
9.33913e-05
2.70589e-05
7.74341e-06
9.9214e-06
3.3184e-05
0.000163536
8.08726e-05
1
1
1
1
1
1
1
1
1
0.994421
1
1
1
1
1
1
1
1
1
0.996009
1
1
1
1
1
1
1
0.999999
1
0.998451
1
1
1
1
0.999999
1
1
1
1
0.998359
1
1
1
0.999999
0.999988
1
1
0.999999
0.999997
0.997789
1
1
1
1
1
0.999999
0.999993
0.999965
0.999913
0.998704
1
1
1
1
0.991544
0.964121
0.917669
0.854571
0.793767
0.757724
0.742159
0.776653
0.744445
0.57982
0.395265
0.265608
0.171292
0.100473
0.0566441
0.0358093
0.157462
0.112938
0.0427006
0.00586624
1.27479e-06
1.35487e-06
1.35627e-06
1.35878e-06
1.38255e-06
1.55104e-06
0.00012436
0.000141103
8.00242e-05
8.35094e-06
1.33669e-06
1.35394e-06
1.35561e-06
1.36825e-06
1.46135e-06
1.7727e-05
3.24427e-05
3.39892e-05
1.28733e-05
1.67885e-06
1.35546e-06
1.35379e-06
1.35489e-06
1.37756e-06
1.55802e-06
2.74479e-05
9.41904e-06
1.24525e-05
7.00745e-06
6.60361e-06
4.43663e-05
1.35278e-06
1.35438e-06
1.38077e-06
1.43898e-06
4.12168e-06
7.18284e-06
7.00865e-06
5.28593e-06
5.12071e-06
5.14528e-05
2.90823e-06
1.35895e-06
1.39765e-06
1.40327e-06
3.41149e-06
6.63468e-06
6.05289e-06
7.40667e-06
0.000114771
7.37358e-05
2.82708e-06
1.36384e-06
1.41715e-06
1.44889e-06
1.68521e-05
7.18313e-06
7.34727e-06
6.93531e-06
0.000220608
0.000139593
3.54006e-06
1.41054e-06
1.45048e-06
1.52282e-06
1.94682e-05
6.95616e-05
4.00636e-05
1.13707e-05
0.000196415
0.000166713
1.15222e-05
1.5537e-06
1.52151e-06
1.58555e-06
2.10606e-05
7.65563e-05
4.91175e-05
1.59562e-05
0.000139887
0.000151265
1.55373e-05
1.72393e-06
1.66729e-06
9.77083e-06
2.32752e-05
9.3134e-05
6.19191e-06
6.19347e-05
0.000218063
0.000119441
4.01909e-06
2.19821e-06
1.79216e-06
1.48739e-05
5.45677e-06
7.01319e-05
8.98979e-06
0.000144794
0.000151475
2.92973e-05
5.43818e-06
8.13875e-06
6.30159e-05
4.96731e-05
9.47124e-06
1.0071e-05
1.22832e-05
5.5874e-05
2.37387e-05
1.43051e-05
6.76961e-06
8.20557e-05
0.000168462
0.000168481
6.84984e-05
1
1
1
1
1
1
1
1
1
1
1
1
1
1
1
1
1
0.999994
0.99999
1
1
1
1
1
1
1
1
0.999987
0.999987
1
1
1
1
1
0.999997
0.999999
1
0.999994
0.999995
1
1
1
1
0.999997
0.999984
0.999999
1
0.999993
0.999993
0.999998
1
1
1
1
1
0.999998
0.999988
0.999941
0.999872
0.999849
1
1
1
1
0.993792
0.96472
0.90625
0.824357
0.749058
0.709924
0.76688
0.788787
0.764343
0.616666
0.429806
0.273675
0.154638
0.0750929
0.032914
0.016596
0.163672
0.110146
0.0412435
0.00593157
1.05352e-05
1.35627e-06
1.35879e-06
1.37746e-06
1.43673e-06
1.77286e-06
0.000168728
0.000126192
7.22124e-05
2.78219e-05
1.35302e-06
1.35628e-06
1.36825e-06
1.41065e-06
1.66341e-06
2.99222e-05
2.80389e-05
2.57585e-05
1.1286e-05
3.43249e-06
1.35979e-06
1.35558e-06
1.36242e-06
1.84326e-06
2.46285e-06
4.3242e-05
8.55342e-06
7.78535e-06
5.28569e-06
3.35355e-06
1.36081e-06
1.35517e-06
1.36081e-06
1.53377e-06
1.85207e-06
3.01187e-06
6.42582e-06
5.28593e-06
4.3423e-06
3.15858e-06
1.54854e-06
1.36081e-06
1.3977e-06
9.33944e-06
1.71153e-06
2.37842e-06
6.05306e-06
5.09101e-06
4.53278e-06
4.78828e-06
5.87581e-06
1.73431e-06
1.41721e-06
6.97292e-06
1.53038e-06
1.86651e-06
9.54857e-05
1.71495e-05
5.09101e-06
4.07437e-05
3.10675e-05
5.46097e-06
1.55318e-06
8.17015e-06
1.60908e-06
1.85591e-06
9.43028e-05
8.95161e-05
8.29799e-06
2.65695e-05
2.03551e-05
4.86213e-06
2.63422e-06
3.98569e-06
2.48293e-06
2.10554e-06
4.88414e-05
3.51081e-05
7.58983e-05
4.67941e-05
1.09381e-05
1.95991e-06
1.90547e-06
1.84401e-06
4.70268e-06
2.87566e-06
7.20589e-05
3.17021e-06
8.69632e-05
6.8788e-05
6.22114e-06
1.9159e-06
1.9504e-06
2.08816e-06
3.48583e-06
3.7942e-06
5.89562e-05
5.39268e-06
6.30873e-05
2.64522e-05
4.63238e-06
1.47002e-05
2.60646e-05
3.37662e-05
1.3326e-05
6.54711e-06
1.89474e-05
7.98926e-06
1.96131e-05
1.52711e-05
1.23527e-05
1.41011e-05
8.92875e-05
0.000160548
0.00011527
0.000117909
1
1
1
1
1
1
1
1
1
1
1
1
1
1
1
1
1
0.999989
0.999988
0.999998
1
1
1
1
1
1
0.999999
0.999987
0.999987
0.999997
1
1
1
1
0.999999
1
1
0.999998
0.999998
0.999997
1
1
1
0.999999
0.999996
1
1
0.999998
0.999996
0.999995
1
1
1
1
1
0.999999
0.99999
0.999952
0.999884
0.999859
1
1
1
1
0.99793
0.976146
0.921419
0.836924
0.756356
0.717987
0.827767
0.829456
0.798274
0.675447
0.49601
0.32489
0.181653
0.086255
0.0384252
0.0222261
0.187636
0.12795
0.0512978
0.00958237
3.91233e-06
1.42656e-06
1.37742e-06
1.43676e-06
1.52674e-06
1.76757e-06
0.000259197
0.00011214
3.32113e-05
5.29597e-06
1.73346e-06
1.38558e-06
1.41074e-06
1.53675e-06
1.76694e-06
1.46163e-05
3.3541e-05
1.99896e-05
5.68102e-06
1.80668e-06
1.4592e-06
1.40365e-06
2.20933e-06
1.25373e-05
2.06832e-05
1.77088e-05
8.90993e-06
6.007e-06
4.54041e-06
3.15113e-06
2.24452e-06
8.84864e-06
1.42203e-05
1.74246e-05
3.45786e-05
1.18805e-05
6.00699e-06
4.54041e-06
4.25443e-06
4.26379e-06
2.98599e-06
5.0499e-06
1.78801e-05
3.62731e-05
2.91151e-05
5.05596e-06
1.43055e-05
4.65742e-06
4.54039e-06
5.33447e-06
7.17794e-06
3.70761e-06
2.53416e-05
3.96404e-05
2.57543e-06
2.32626e-06
0.000127663
7.10033e-05
9.59575e-06
4.1895e-05
2.7681e-05
2.86686e-06
3.59168e-05
2.6576e-05
1.85582e-06
2.1055e-06
3.41442e-05
4.66345e-05
6.4425e-05
3.41811e-05
7.24623e-06
2.03434e-06
1.87462e-05
8.94431e-06
2.37323e-06
2.20009e-06
3.30416e-05
3.2462e-06
1.95921e-05
4.78958e-06
2.03433e-06
1.90025e-06
1.9504e-06
7.33563e-06
6.21389e-06
2.39711e-06
7.11874e-05
2.53896e-06
1.01549e-05
2.52804e-06
2.0368e-06
1.92442e-06
1.90265e-06
5.95881e-06
4.63591e-06
3.0469e-06
5.73199e-05
2.40264e-06
2.55465e-06
1.09754e-05
1.79039e-05
1.78974e-05
8.27444e-06
2.83509e-06
1.09637e-05
7.16325e-05
4.25735e-05
2.34089e-06
2.32641e-06
2.96245e-06
2.53578e-06
2.76458e-06
2.56876e-06
7.45809e-05
0.000152179
0.000196668
1
1
1
1
1
1
1
1
1
1
1
1
1
1
1
1
1
0.999999
0.999999
1
1
1
1
1
1
1
1
0.999998
0.999998
0.999999
1
1
1
1
1
1
1
1
1
0.999999
1
1
1
1
1
1
1
1
0.999999
0.999998
1
1
1
1
1
1
0.999997
0.999983
0.999951
0.999936
1
1
1
1
0.999985
0.992715
0.960817
0.898051
0.830885
0.795643
0.906472
0.897726
0.856766
0.753346
0.593842
0.42478
0.271249
0.150877
0.0851981
0.0620757
0.250319
0.185055
0.0887073
0.0262929
3.641e-05
3.92269e-06
1.83406e-06
1.52678e-06
1.73925e-06
1.90489e-06
0.000416684
0.000162963
3.28584e-05
1.91034e-05
4.75389e-06
1.73804e-06
1.53255e-06
4.37963e-06
7.37106e-06
3.57799e-06
5.84216e-05
2.27848e-05
6.9315e-05
8.31829e-05
0.000110317
7.42833e-05
5.89578e-06
1.57648e-05
0.000116302
9.66483e-05
2.2315e-05
7.30734e-06
5.92789e-06
8.42889e-05
0.000151105
0.000141652
7.55938e-05
4.11054e-05
0.000152587
0.000190237
2.36997e-05
5.36768e-06
4.54041e-06
7.20554e-05
0.000162397
0.000133915
8.51221e-05
5.18312e-05
9.33801e-05
0.000152776
0.000103152
5.12582e-06
3.27928e-05
0.000138631
0.000175042
0.000117054
0.000156362
4.96063e-05
4.53528e-05
8.55891e-05
7.0979e-05
6.16735e-05
0.000159239
0.000173838
0.0001646
7.63991e-05
0.000116468
2.98551e-05
6.63718e-06
1.79319e-05
3.53532e-05
3.81254e-05
8.77345e-05
0.000121328
3.7924e-05
1.24482e-05
3.00538e-05
6.81342e-06
2.7736e-06
2.45928e-06
1.35787e-05
7.752e-06
3.80627e-06
7.16671e-06
2.33283e-06
1.96033e-06
1.97867e-06
1.99807e-06
8.83906e-06
1.12808e-05
4.14128e-05
2.46424e-06
3.01559e-06
2.5165e-06
2.23779e-06
1.95763e-06
1.93952e-06
1.99015e-06
1.13066e-05
1.08118e-05
5.22807e-05
2.34329e-06
4.11108e-06
1.79012e-05
1.79039e-05
1.79039e-05
1.99275e-06
1.99375e-06
2.13497e-06
6.68549e-06
4.98e-05
2.32663e-06
2.32703e-06
3.04186e-06
2.48312e-06
2.54767e-06
2.11343e-06
3.13447e-06
1.99242e-05
8.08668e-05
1
1
1
1
1
1
1
1
1
1
1
1
1
1
1
1
1
1
1
1
1
1
1
1
1
1
1
0.999999
1
1
1
1
1
1
1
1
1
0.999995
0.999984
0.999997
1
1
1
1
1
1
1
1
0.999987
0.999996
1
1
1
1
1
1
1
0.999998
0.999983
0.999987
1
1
1
1
1
0.999867
0.99416
0.972897
0.941912
0.919793
0.974231
0.967829
0.931976
0.851264
0.727864
0.583046
0.438571
0.311428
0.222724
0.184014
0.381155
0.298519
0.168376
0.0701855
0.0171796
3.95366e-05
1.11527e-05
3.89591e-06
1.90487e-06
2.27629e-06
0.00150205
0.000436003
2.24066e-05
1.40851e-05
1.1456e-05
4.462e-06
2.35119e-06
4.73306e-06
3.09293e-05
4.53558e-05
0.000121556
0.000113082
7.84911e-05
0.000146743
0.000109588
3.7206e-05
9.43328e-06
7.72555e-06
0.000140139
0.000243766
7.40089e-05
0.000118487
0.000179728
7.28927e-05
3.62464e-05
4.42148e-05
0.000157957
0.000101443
0.000167849
0.000244072
7.66352e-05
9.6211e-05
0.00012043
2.79021e-05
3.16171e-05
0.000138856
0.000182802
6.67001e-05
0.000102911
0.000242502
0.000132994
0.000183599
8.87134e-05
3.67131e-05
0.000180853
0.000182661
0.000182423
3.90636e-05
0.00011501
0.000237771
0.000118697
0.00024484
3.63111e-05
0.000177599
0.000178744
0.000181346
0.000162128
1.05109e-05
8.61908e-05
0.000188682
0.000139254
0.000246842
5.11375e-05
0.000173852
0.000144817
0.000178349
6.58487e-05
2.26979e-06
2.00132e-05
2.29936e-05
4.42596e-05
0.000180526
5.99981e-05
2.67502e-05
9.53265e-06
7.43154e-05
1.01814e-05
2.04045e-06
2.24177e-06
1.0669e-05
1.23138e-05
3.41348e-05
3.73131e-05
3.00757e-06
2.48854e-06
2.05459e-06
1.97867e-06
1.99376e-06
6.09384e-06
3.99202e-05
1.17709e-05
2.46422e-06
1.24838e-05
1.77039e-05
1.79039e-05
1.40364e-05
3.47906e-06
1.97569e-06
2.00548e-06
2.14354e-06
1.7658e-05
2.34328e-06
2.42583e-06
5.33988e-06
4.15591e-06
4.43237e-06
2.9631e-06
2.01996e-06
2.15344e-06
2.79296e-06
1
1
1
1
1
1
1
1
1
1
1
1
0.999999
1
1
1
1
1
1
1
1
0.999998
0.999994
0.999999
1
1
1
0.999999
1
0.999999
1
1
0.999997
0.999999
1
1
1
0.999992
0.999959
0.999976
1
1
1
1
1
1
1
1
0.999766
0.999455
1
1
1
1
1
1
1
1
0.999987
0.999506
1
1
1
1
1
1
1
0.999425
0.99733
0.994396
1
1
0.999992
0.949467
0.867577
0.775421
0.679244
0.585377
0.502473
0.45271
0.595366
0.498982
0.319412
0.16784
0.0748681
0.0270835
0.00632287
5.42481e-05
2.41074e-05
5.251e-06
0.0401011
0.0169566
0.0004698
1.87886e-05
6.90889e-06
5.17841e-06
7.30817e-06
5.74517e-06
8.641e-06
2.34807e-05
0.000123352
0.000159374
5.38829e-05
1.94882e-05
7.89542e-06
6.78427e-06
7.8245e-06
6.05673e-06
7.15343e-05
0.00024406
0.000343482
0.000219833
5.29869e-05
9.48702e-06
1.59925e-05
6.86561e-05
0.000155421
4.47813e-05
0.000119943
0.000243954
0.000331246
0.000299082
5.56254e-05
6.18546e-06
0.000120501
0.00012108
0.000117861
1.23402e-05
0.000107468
0.000244096
0.000420612
0.000346049
3.89254e-05
4.48824e-06
0.000178223
0.000114686
2.57154e-05
6.77373e-06
0.000146768
0.000242302
0.000317987
0.000284739
3.31774e-05
0.0001131
0.000177688
0.000120833
2.58029e-06
4.4395e-06
0.000166648
0.000237571
0.000184308
0.000280502
4.47451e-05
0.00010494
0.000177659
0.000125349
3.9437e-06
3.04001e-06
9.04665e-05
0.000192188
0.000185604
0.000286576
1.17949e-05
1.25743e-05
3.29087e-05
6.88182e-05
8.40538e-06
1.99565e-06
6.48356e-06
2.5073e-05
3.65129e-05
0.000156149
1.04236e-05
3.97525e-06
3.00996e-06
2.69496e-06
4.41117e-06
1.96994e-06
1.99565e-06
9.21839e-06
4.72776e-06
4.93237e-06
7.12188e-06
4.70845e-06
3.02705e-06
2.07192e-06
1.97052e-06
1.9799e-06
1.97212e-06
7.63708e-06
3.34448e-06
2.52976e-06
2.99476e-06
3.52991e-06
1.01055e-05
2.13896e-06
6.25083e-06
3.7429e-06
2.32331e-06
2.8196e-06
1
1
1
1
1
1
1
1
1
1
1
1
0.999994
0.999996
1
1
1
1
1
1
1
0.999988
0.999926
0.999961
0.999999
1
1
1
0.999999
0.999994
1
0.999965
0.999924
0.999958
1
1
1
0.999997
0.999974
0.999986
1
0.999992
0.999999
1
1
1
1
1
0.999852
0.999564
1
1
1
1
1
1
1
1
0.999965
0.999449
1
1
1
1
1
1
1
1
0.999999
0.999996
1
1
1
1
0.974803
0.917804
0.871083
0.837946
0.811725
0.791675
0.802585
0.726902
0.566372
0.369487
0.209414
0.12186
0.0765261
0.0515266
0.034821
0.0235749
0.148929
0.0924695
0.0331409
0.00210854
2.41671e-05
3.087e-06
3.4089e-06
3.41242e-06
5.92851e-06
8.82437e-06
8.70316e-05
0.000111768
4.36355e-05
6.98169e-05
1.87789e-05
5.01386e-06
3.40607e-06
4.78035e-06
4.94379e-05
0.000164416
0.000423319
0.000236816
2.34317e-05
1.00269e-05
1.78023e-05
2.67056e-05
3.87212e-05
6.05674e-06
0.000131567
0.000244025
0.000423319
0.00037607
2.4425e-05
4.80975e-06
3.70129e-05
1.09375e-05
7.65429e-06
7.41091e-06
9.60968e-05
0.000243954
0.000423319
0.000288158
2.27872e-05
3.51805e-06
3.50472e-05
3.36098e-06
2.5802e-06
3.54711e-06
0.000117569
0.000242285
0.000420612
0.000216437
2.48365e-05
2.27836e-06
2.72526e-05
2.80692e-06
2.19046e-06
6.85914e-06
0.000182951
0.0002378
0.000301268
0.000264509
4.17428e-05
2.1792e-06
1.15678e-05
3.46491e-06
2.09542e-06