/*--------------------------------*- C++ -*----------------------------------*\
| =========                 |                                                 |
| \\      /  F ield         | OpenFOAM: The Open Source CFD Toolbox           |
|  \\    /   O peration     | Version:  2312                                  |
|   \\  /    A nd           | Website:  www.openfoam.com                      |
|    \\/     M anipulation  |                                                 |
\*---------------------------------------------------------------------------*/
FoamFile
{
    version     2.0;
    format      ascii;
    arch        "LSB;label=32;scalar=64";
    class       volScalarField;
    location    "1.265";
    object      p;
}
// * * * * * * * * * * * * * * * * * * * * * * * * * * * * * * * * * * * * * //

dimensions      [1 -1 -2 0 0 0 0];

internalField   nonuniform List<scalar> 
8000
(
375.256
374.898
374.357
373.707
372.893
372.059
371.304
370.714
370.348
370.259
326.952
326.511
325.851
325.14
324.351
323.486
322.684
322.049
321.647
321.536
279.516
279.072
278.242
277.225
276.316
275.401
274.522
273.816
273.374
273.162
233.581
232.959
231.791
230.481
229.162
227.997
226.932
226.038
225.436
225.193
188.186
187.524
186.212
184.705
182.986
181.445
180.11
179.007
178.186
177.916
144.459
143.75
141.89
139.818
137.428
135.646
133.988
132.876
131.947
131.507
103.159
101.815
99.5965
96.8567
94.4466
91.9405
90.0481
88.5931
87.6516
87.1101
63.7987
61.3548
57.9896
55.2832
52.3625
49.7517
47.7823
46.5205
45.9579
45.6564
32.2012
29.5325
25.374
21.6366
18.7759
16.9515
15.9763
15.6926
15.8032
15.5946
12.2577
7.88024
4.09775
2.00976
0.951632
0.488098
0.292801
0.231095
0.189931
0.106621
-0.429401
-0.449439
-0.457076
-0.465622
-0.470481
-0.466677
-0.468797
-0.478695
-0.494707
-0.502372
-0.503573
-0.499737
-0.505264
-0.516396
-0.515496
-0.508632
-0.507622
-0.513218
-0.51973
-0.520604
-0.536078
-0.536794
-0.546004
-0.563044
-0.5611
-0.556183
-0.558685
-0.56727
-0.571274
-0.567787
-0.581487
-0.58586
-0.5994
-0.616191
-0.616419
-0.614515
-0.614359
-0.622507
-0.626599
-0.623149
-0.634704
-0.637964
-0.659936
-0.6759
-0.676051
-0.673761
-0.670864
-0.67517
-0.675499
-0.668582
-0.695106
-0.701301
-0.721526
-0.732638
-0.729586
-0.725854
-0.723748
-0.725651
-0.723327
-0.713514
-0.758613
-0.76757
-0.776401
-0.778342
-0.7746
-0.771146
-0.772982
-0.777302
-0.776883
-0.770622
-0.818626
-0.832054
-0.826197
-0.8177
-0.819941
-0.820242
-0.824722
-0.831065
-0.833005
-0.828193
-0.876333
-0.88644
-0.879096
-0.872791
-0.874579
-0.875973
-0.879325
-0.884201
-0.886962
-0.884324
-0.935363
-0.941569
-0.941239
-0.938888
-0.935529
-0.934134
-0.934356
-0.93689
-0.938157
-0.935445
374.666
374.233
373.665
373.02
372.251
371.433
370.675
370.075
369.702
369.617
326.273
325.673
325.031
324.304
323.578
322.775
321.979
321.332
320.908
320.779
278.955
278.195
277.233
276.238
275.386
274.535
273.672
272.941
272.43
272.293
232.663
231.911
230.55
229.216
228.009
226.921
225.857
224.979
224.252
223.956
187.054
186.408
185.015
183.389
181.799
180.146
178.741
177.536
176.515
176.045
142.87
142.223
140.632
138.312
135.884
134.017
132.276
130.712
129.6
129.063
101.203
99.8657
97.6889
94.8293
92.0954
89.4311
87.2588
85.4938
84.221
83.4667
60.8907
59.0068
56.3439
53.0639
49.5978
46.4338
43.9306
42.0873
40.7014
39.6925
30.3993
27.692
23.633
19.6438
16.3411
13.7549
12.0228
11.0203
10.0662
9.11856
9.69559
5.91927
3.13317
1.36204
0.448891
-0.0272857
-0.223901
-0.306112
-0.348375
-0.386694
-0.431344
-0.446298
-0.456746
-0.467705
-0.468575
-0.460665
-0.459315
-0.468419
-0.482103
-0.489507
-0.484193
-0.485503
-0.500389
-0.51508
-0.510904
-0.503543
-0.506702
-0.51707
-0.526105
-0.524619
-0.514912
-0.521895
-0.544801
-0.56032
-0.559222
-0.554593
-0.562263
-0.570343
-0.57461
-0.570667
-0.564948
-0.577982
-0.600361
-0.616949
-0.619352
-0.617318
-0.623367
-0.630616
-0.632245
-0.624822
-0.627992
-0.64157
-0.666548
-0.678525
-0.677716
-0.674337
-0.677449
-0.685225
-0.683485
-0.671608
-0.692967
-0.706229
-0.731256
-0.737372
-0.729387
-0.724707
-0.726796
-0.734634
-0.736403
-0.721622
-0.75558
-0.767377
-0.780664
-0.778191
-0.773102
-0.770518
-0.777737
-0.786393
-0.78725
-0.775296
-0.816956
-0.826345
-0.818976
-0.816247
-0.819666
-0.824308
-0.831535
-0.839947
-0.841976
-0.836196
-0.876152
-0.88112
-0.870664
-0.872831
-0.8786
-0.883575
-0.888917
-0.894873
-0.897798
-0.89357
-0.934443
-0.940811
-0.941098
-0.941506
-0.942174
-0.942922
-0.943793
-0.948147
-0.950545
-0.946054
373.738
373.337
372.966
372.298
371.317
370.373
369.551
368.908
368.514
368.426
325.196
324.692
324.209
323.45
322.508
321.597
320.745
320.055
319.614
319.488
277.618
276.932
276.222
275.014
273.928
273.086
272.202
271.435
270.914
270.735
231.138
230.224
229.205
227.575
226.116
225.032
224.002
223.106
222.463
222.159
185.271
184.461
183.227
181.225
179.464
177.722
176.284
175.133
174.385
173.881
140.761
139.755
138.139
135.507
133.147
130.912
129.023
127.608
126.57
125.942
98.7024
96.9152
94.5524
91.0789
87.9456
85.075
82.736
80.9752
79.6926
78.8267
56.2883
55.5134
52.7576
48.6697
44.2021
40.1718
37.2106
35.2336
33.8341
32.7645
27.0857
24.1133
19.9914
15.5205
11.5166
8.46163
6.61619
5.466
4.65146
4.0193
6.16847
3.70195
1.71232
0.367824
-0.145935
-0.282757
-0.341113
-0.349254
-0.360968
-0.387899
-0.428343
-0.444402
-0.457429
-0.469008
-0.453037
-0.434158
-0.445423
-0.456858
-0.470595
-0.479498
-0.483036
-0.487706
-0.507725
-0.521929
-0.509895
-0.502786
-0.508766
-0.518575
-0.526713
-0.521433
-0.51027
-0.523016
-0.54591
-0.560975
-0.56017
-0.561272
-0.566584
-0.570356
-0.569137
-0.558833
-0.554235
-0.57011
-0.596168
-0.611307
-0.613335
-0.617907
-0.623264
-0.624185
-0.618333
-0.60565
-0.620546
-0.638926
-0.662283
-0.670128
-0.670288
-0.67185
-0.677233
-0.677576
-0.672997
-0.659282
-0.686869
-0.706952
-0.727728
-0.731275
-0.725479
-0.723663
-0.732173
-0.735995
-0.731128
-0.715428
-0.747127
-0.765538
-0.778138
-0.777411
-0.774171
-0.777849
-0.789228
-0.796797
-0.791328
-0.776734
-0.809184
-0.821253
-0.819806
-0.821996
-0.828471
-0.837205
-0.848191
-0.856632
-0.85406
-0.842107
-0.870878
-0.879705
-0.874327
-0.88171
-0.890758
-0.897115
-0.904642
-0.912401
-0.913839
-0.903494
-0.929467
-0.938579
-0.944231
-0.949349
-0.951477
-0.95343
-0.955535
-0.961045
-0.965269
-0.958426
372.512
372.118
371.872
371.054
369.936
368.886
367.984
367.288
366.866
366.777
323.879
323.412
323.007
322.257
321.133
320.015
319.045
318.289
317.818
317.693
275.889
275.307
274.665
273.625
272.469
271.28
270.225
269.367
268.806
268.613
228.944
228.076
227.139
225.625
224.093
222.754
221.549
220.552
219.873
219.59
182.879
181.885
180.531
178.518
176.467
174.628
173.079
171.863
171.028
170.587
137.731
136.396
134.481
131.855
129.184
126.834
124.89
123.449
122.368
121.679
94.5156
92.9853
90.3158
86.5049
82.9154
79.7239
77.2234
75.3931
74.0408
73.0916
53.0613
51.4939
47.8371
42.4889
37.0444
32.6777
29.7094
27.8677
26.6542
25.6623
22.0648
19.6168
15.3381
10.4011
6.20271
3.90359
2.65096
1.95118
1.57816
1.28056
3.08369
1.77335
0.424612
-0.166759
-0.27668
-0.331044
-0.339386
-0.337002
-0.349942
-0.370784
-0.429009
-0.445631
-0.46029
-0.449416
-0.427934
-0.435794
-0.441741
-0.445288
-0.447303
-0.452914
-0.487551
-0.493524
-0.51272
-0.510748
-0.502835
-0.504046
-0.510147
-0.515418
-0.51177
-0.504166
-0.519015
-0.532614
-0.552542
-0.559967
-0.557821
-0.559941
-0.565918
-0.569294
-0.566054
-0.556889
-0.558501
-0.57691
-0.598522
-0.610622
-0.611397
-0.61473
-0.618129
-0.616782
-0.611487
-0.601004
-0.616286
-0.637592
-0.653612
-0.663545
-0.667103
-0.672724
-0.6782
-0.675288
-0.667826
-0.655274
-0.681073
-0.703189
-0.722755
-0.72541
-0.724056
-0.733014
-0.747884
-0.753225
-0.745761
-0.729528
-0.741644
-0.762557
-0.777801
-0.777599
-0.779112
-0.791259
-0.808996
-0.818141
-0.813958
-0.795539
-0.805989
-0.817272
-0.824813
-0.829213
-0.839056
-0.852122
-0.867292
-0.875849
-0.869886
-0.851616
-0.869099
-0.879805
-0.88184
-0.88963
-0.899327
-0.908262
-0.918077
-0.925335
-0.923061
-0.906673
-0.927695
-0.93603
-0.945303
-0.955328
-0.958527
-0.962165
-0.965286
-0.969772
-0.972065
-0.958058
370.947
370.551
370.1
369.188
368.116
367.036
366.081
365.335
364.879
364.788
322.295
321.803
321.271
320.371
319.195
318.017
316.977
316.159
315.647
315.516
274.072
273.415
272.653
271.647
270.351
269.019
267.828
266.869
266.245
266.027
226.585
225.759
224.591
223.173
221.631
220.025
218.601
217.453
216.691
216.38
179.961
178.978
177.399
175.253
173.083
171.05
169.292
167.89
166.917
166.439
133.917
132.301
130.146
127.383
124.621
122.061
119.953
118.28
117.03
116.28
89.7884
88.4953
85.1733
80.9776
76.9246
73.4296
70.7951
68.8654
67.3893
66.3863
48.9265
46.4465
41.4773
35.1178
29.1242
24.6191
21.8985
20.4771
19.5519
18.8951
16.8451
14.5651
10.0307
5.36267
2.57674
1.07
0.393216
0.172234
0.0747837
0.0219438
1.11011
0.23286
-0.219841
-0.282504
-0.31521
-0.334681
-0.334903
-0.330315
-0.327726
-0.32425
-0.431761
-0.452354
-0.443977
-0.424984
-0.428272
-0.437401
-0.432182
-0.424066
-0.416933
-0.410438
-0.490665
-0.492245
-0.494081
-0.495988
-0.498434
-0.502473
-0.501439
-0.495293
-0.487634
-0.476851
-0.525008
-0.538979
-0.547735
-0.552545
-0.553671
-0.557993
-0.559478
-0.559817
-0.553718
-0.54214
-0.571487
-0.589631
-0.603402
-0.607805
-0.610094
-0.615041
-0.619561
-0.618778
-0.613909
-0.603689
-0.621414
-0.639961
-0.655336
-0.661537
-0.669639
-0.681434
-0.691925
-0.694604
-0.689234
-0.673933
-0.677336
-0.700994
-0.718788
-0.724228
-0.730568
-0.747674
-0.764994
-0.772596
-0.765064
-0.744067
-0.741184
-0.760744
-0.77761
-0.780912
-0.785334
-0.802066
-0.822115
-0.832069
-0.825972
-0.805856
-0.806728
-0.815312
-0.822622
-0.835024
-0.844903
-0.857783
-0.872424
-0.880878
-0.875714
-0.858343
-0.870848
-0.878123
-0.882938
-0.893391
-0.903015
-0.910891
-0.918734
-0.923753
-0.920643
-0.906764
-0.928084
-0.934053
-0.942122
-0.954114
-0.959491
-0.963328
-0.966803
-0.96854
-0.966182
-0.952907
369.238
368.84
368.23
367.25
366.159
365.034
364.014
363.21
362.713
362.616
320.496
320.022
319.314
318.288
317.079
315.846
314.729
313.839
313.278
313.13
272.09
271.458
270.539
269.338
267.941
266.509
265.203
264.145
263.439
263.186
224.149
223.36
222.057
220.456
218.699
216.967
215.37
214.047
213.146
212.785
176.868
175.848
174.023
171.735
169.417
167.204
165.207
163.492
162.317
161.736
130.071
128.267
125.925
122.916
119.854
117.022
114.593
112.506
111.085
110.205
85.1286
83.3324
79.6298
75.0908
70.5874
66.7295
63.9482
61.4927
59.0435
57.4911
43.1892
40.4621
34.9287
28.157
21.8137
17.4022
15.5311
14.3749
13.2416
12.4075
11.9932
9.92747
5.80462
2.43394
0.617379
-0.0390736
-0.135984
-0.179794
-0.195025
-0.193044
-0.0414651
-0.262723
-0.318242
-0.328049
-0.334921
-0.320697
-0.31239
-0.311106
-0.309668
-0.301863
-0.441142
-0.433389
-0.428088
-0.428205
-0.422902
-0.410698
-0.403046
-0.401957
-0.397781
-0.388411
-0.477561
-0.484419
-0.486993
-0.494339
-0.495122
-0.491491
-0.485
-0.484569
-0.477797
-0.4644
-0.5223
-0.541426
-0.543725
-0.550958
-0.555321
-0.558064
-0.559329
-0.560063
-0.553522
-0.537288
-0.571581
-0.597552
-0.602927
-0.607918
-0.615212
-0.62544
-0.631488
-0.632908
-0.627083
-0.609152
-0.627162
-0.648154
-0.656649
-0.665789
-0.68223
-0.697607
-0.704962
-0.706629
-0.699346
-0.680993
-0.681467
-0.702713
-0.719149
-0.728142
-0.739145
-0.753925
-0.765829
-0.771518
-0.763853
-0.744595
-0.741693
-0.760683
-0.782471
-0.788832
-0.790921
-0.803118
-0.817371
-0.822347
-0.815477
-0.798977
-0.807807
-0.817781
-0.833947
-0.842157
-0.847398
-0.854468
-0.864505
-0.868559
-0.862994
-0.849277
-0.869836
-0.877734
-0.88578
-0.895147
-0.899903
-0.905763
-0.912121
-0.914687
-0.911585
-0.899048
-0.925985
-0.933842
-0.941867
-0.950411
-0.953553
-0.956874
-0.961425
-0.963283
-0.959923
-0.947935
367.576
367.152
366.44
365.428
364.235
363.048
361.959
361.098
360.545
360.435
318.724
318.232
317.422
316.307
315.01
313.694
312.492
311.528
310.902
310.735
270.113
269.454
268.448
267.105
265.573
264.03
262.594
261.404
260.611
260.336
221.748
220.928
219.561
217.819
215.865
213.963
212.154
210.628
209.561
209.103
173.759
172.605
170.75
168.432
165.953
163.492
161.145
159.118
157.652
156.879
126.246
124.412
121.962
118.775
115.385
112.201
109.159
106.883
104.883
103.634
80.5792
78.5538
74.5688
69.7283
64.7698
60.594
56.9881
53.0157
49.7563
47.5389
37.3712
34.9475
29.6314
22.8765
16.6682
12.8728
11.2245
9.76297
8.43584
7.55132
8.06581
6.53806
3.30365
0.866807
0.00931813
-0.155905
-0.193259
-0.210268
-0.215368
-0.215076
-0.270406
-0.317838
-0.359612
-0.368777
-0.338709
-0.318575
-0.31807
-0.312429
-0.3073
-0.300411
-0.410291
-0.409416
-0.428818
-0.432804
-0.420031
-0.410294
-0.40983
-0.403694
-0.39398
-0.381213
-0.46835
-0.453747
-0.492466
-0.500345
-0.498624
-0.49716
-0.494325
-0.487849
-0.47691
-0.460099
-0.517375
-0.541806
-0.54946
-0.558034
-0.564716
-0.568608
-0.568076
-0.563617
-0.554014
-0.536431
-0.573441
-0.604529
-0.60517
-0.614193
-0.629237
-0.638124
-0.638263
-0.634141
-0.625613
-0.608639
-0.632346
-0.6558
-0.660254
-0.672078
-0.691014
-0.701309
-0.700964
-0.697486
-0.688602
-0.672837
-0.687249
-0.706522
-0.721019
-0.733186
-0.743045
-0.748858
-0.750764
-0.748573
-0.743068
-0.7277
-0.74527
-0.75906
-0.785116
-0.796381
-0.795922
-0.796743
-0.799519
-0.799788
-0.793563
-0.779051
-0.808324
-0.8162
-0.838182
-0.853158
-0.853059
-0.85086
-0.851224
-0.849652
-0.844587
-0.830471
-0.867027
-0.875293
-0.887252
-0.897674
-0.901288
-0.90173
-0.900536
-0.90044
-0.896626
-0.883074
-0.925882
-0.933894
-0.940012
-0.943744
-0.946819
-0.949106
-0.949006
-0.951023
-0.948242
-0.934866
366.107
365.656
364.869
363.786
362.543
361.265
360.098
359.165
358.577
358.449
317.147
316.639
315.749
314.547
313.173
311.736
310.463
309.406
308.721
308.523
268.308
267.658
266.569
265.133
263.487
261.817
260.207
258.882
257.983
257.636
219.58
218.706
217.321
215.492
213.404
211.253
209.213
207.474
206.217
205.619
171.02
169.85
167.998
165.574
162.903
160.131
157.406
155.073
153.295
152.272
122.909
121.139
118.588
115.161
111.433
107.916
104.6
101.483
98.8799
97.1679
76.3409
74.2963
70.3959
65.2322
59.6906
55.173
50.1957
45.6009
41.792
38.9664
32.6596
30.6937
25.9306
19.1518
12.9723
9.83627
8.14703
6.63398
5.36664
4.4647
5.58789
4.50021
1.89829
0.195561
-0.135276
-0.18377
-0.213295
-0.223863
-0.224141
-0.221448
-0.26679
-0.345968
-0.390533
-0.384876
-0.341289
-0.323228
-0.320826
-0.315981
-0.307663
-0.297917
-0.392156
-0.405595
-0.434337
-0.437626
-0.426748
-0.421578
-0.414717
-0.405335
-0.394108
-0.379539
-0.466367
-0.467754
-0.496926
-0.50627
-0.506174
-0.504622
-0.496265
-0.485978
-0.476359
-0.461688
-0.520355
-0.533713
-0.556596
-0.566053
-0.574641
-0.574047
-0.568189
-0.558635
-0.550335
-0.537423
-0.578468
-0.60557
-0.609088
-0.621728
-0.638032
-0.639295
-0.635257
-0.627061
-0.618136
-0.606122
-0.635479
-0.659468
-0.662942
-0.678497
-0.694262
-0.696846
-0.694672
-0.688519
-0.679004
-0.666534
-0.695126
-0.708233
-0.719152
-0.736513
-0.745
-0.744034
-0.741534
-0.737862
-0.730391
-0.718733
-0.752187
-0.757917
-0.779435
-0.797143
-0.796221
-0.788948
-0.785809
-0.783846
-0.777834
-0.766822
-0.80842
-0.814292
-0.830448
-0.846502
-0.848561
-0.841205
-0.838
-0.834722
-0.827081
-0.815884
-0.868202
-0.876306
-0.882164
-0.886647
-0.889842
-0.889212
-0.888012
-0.884506
-0.876739
-0.866282
-0.92592
-0.935464
-0.936336
-0.930798
-0.928813
-0.930951
-0.933281
-0.93292
-0.927362
-0.918525
364.966
364.491
363.656
362.517
361.205
359.849
358.594
357.587
356.958
356.821
315.923
315.362
314.445
313.17
311.722
310.213
308.821
307.66
306.907
306.665
266.901
266.243
265.11
263.61
261.815
259.963
258.248
256.795
255.778
255.342
217.874
217
215.57
213.672
211.411
208.924
206.765
204.838
203.393
202.644
168.864
167.719
165.872
163.383
160.441
157.378
154.307
151.665
149.595
148.387
120.199
118.593
115.995
112.338
108.223
104.069
100.511
96.837
93.7663
91.7611
72.9667
71.1008
67.263
61.7265
55.8172
51.0759
45.1103
40.0163
35.9084
32.8484
29.2633
27.7917
23.3787
16.2893
10.3833
7.85686
6.1614
4.69343
3.49841
2.66246
4.22217
3.33112
1.14199
-0.0266202
-0.190062
-0.209855
-0.234456
-0.238736
-0.233701
-0.225333
-0.272356
-0.366801
-0.414382
-0.386854
-0.341628
-0.333933
-0.330598
-0.32593
-0.315798
-0.301595
-0.38836
-0.411514
-0.441872
-0.446243
-0.436091
-0.42947
-0.419585
-0.412197
-0.402926
-0.387746
-0.469568
-0.472431
-0.502599
-0.513014
-0.512994
-0.505417
-0.496201
-0.488556
-0.482135
-0.470281
-0.525364
-0.541232
-0.561342
-0.571878
-0.580806
-0.574839
-0.565193
-0.557324
-0.551379
-0.542486
-0.582377
-0.603039
-0.613631
-0.626879
-0.642112
-0.638843
-0.629389
-0.62084
-0.613896
-0.606306
-0.64114
-0.657983
-0.665101
-0.682176
-0.695197
-0.695488
-0.68777
-0.678958
-0.670563
-0.66249
-0.696608
-0.705978
-0.721763
-0.740357
-0.74599
-0.745017
-0.737772
-0.729475
-0.72097
-0.712972
-0.751776
-0.757004
-0.774961
-0.791878
-0.793691
-0.787037
-0.780773
-0.774413
-0.767401
-0.760849
-0.810477
-0.817127
-0.825
-0.832514
-0.831727
-0.826025
-0.822897
-0.818332
-0.813949
-0.80862
-0.871196
-0.880561
-0.877708
-0.869858
-0.865088
-0.863655
-0.863783
-0.863804
-0.862524
-0.857792
-0.926494
-0.936366
-0.93069
-0.914979
-0.906808
-0.906237
-0.910402
-0.914941
-0.914912
-0.908348
364.265
363.772
362.901
361.715
360.342
358.914
357.583
356.512
355.836
355.545
315.18
314.599
313.621
312.316
310.792
309.192
307.702
306.47
305.643
305.408
266.028
265.349
264.19
262.617
260.732
258.747
256.906
255.34
254.212
253.862
216.815
215.822
214.438
212.489
210.082
207.441
205.046
202.933
201.324
200.635
167.571
166.384
164.524
161.932
158.771
155.269
152.001
149.069
146.8
145.674
118.606
117.043
114.386
110.574
106.27
101.919
97.4543
93.1244
89.6252
87.6625
70.8575
69.1255
65.3131
59.6078
53.891
47.9324
41.3592
35.6312
31.2458
28.3972
27.2899
26.0727
21.8043
14.6398
9.17175
6.66947
4.88966
3.3669
2.24075
1.55065
3.70345
2.7006
0.717635
-0.0933372
-0.204199
-0.231227
-0.247951
-0.248489
-0.240029
-0.228069
-0.285326
-0.372007
-0.427007
-0.388411
-0.340612
-0.33735
-0.339357
-0.337169
-0.328042
-0.311621
-0.391567
-0.41858
-0.449061
-0.454252
-0.441094
-0.431527
-0.427627
-0.424527
-0.418814
-0.402921
-0.471308
-0.484286
-0.510147
-0.520998
-0.520417
-0.514228
-0.506012
-0.50078
-0.497082
-0.4852
-0.52696
-0.546308
-0.56652
-0.578516
-0.588048
-0.585593
-0.574188
-0.566707
-0.562652
-0.554082
-0.581654
-0.60127
-0.616462
-0.629688
-0.645634
-0.647282
-0.633371
-0.623613
-0.61878
-0.612198
-0.636798
-0.652824
-0.668996
-0.68607
-0.696964
-0.699209
-0.684654
-0.673909
-0.669251
-0.663889
-0.691999
-0.702668
-0.721487
-0.740179
-0.744225
-0.743766
-0.731685
-0.721416
-0.71701
-0.712362
-0.750353
-0.758104
-0.770481
-0.782465
-0.782674
-0.779797
-0.772795
-0.766489
-0.763416
-0.759918
-0.812112
-0.821105
-0.820543
-0.815212
-0.810208
-0.809562
-0.810213
-0.81009
-0.810318
-0.808062
-0.873921
-0.882422
-0.872049
-0.850851
-0.840501
-0.842986
-0.84974
-0.856545
-0.860378
-0.858024
-0.923264
-0.931563
-0.917346
-0.890526
-0.88277
-0.886718
-0.898664
-0.909675
-0.912726
-0.908932
364.071
363.565
362.659
361.446
360.032
358.553
357.17
356.057
355.354
355.109
314.987
314.41
313.364
312.031
310.455
308.793
307.233
305.94
305.077
304.809
265.811
265.132
263.95
262.29
260.33
258.257
256.306
254.644
253.46
253.008
216.571
215.59
214.108
212.09
209.584
206.833
204.208
201.912
200.209
199.453
167.282
166.033
164.104
161.418
158.119
154.355
150.719
147.489
145.06
143.932
118.169
116.624
113.911
110.005
105.554
100.653
95.5151
90.4631
86.4378
84.3847
70.2379
68.4728
64.7551
59.0597
53.3343
46.2887
38.8011
32.0178
26.9696
24.208
26.6418
25.2772
21.2763
14.4564
9.11161
6.12091
3.94361
2.28215
1.26186
0.767152
3.60456
2.36678
0.53487
-0.115687
-0.206505
-0.237999
-0.25162
-0.248859
-0.237121
-0.223758
-0.292087
-0.37101
-0.429782
-0.389529
-0.342222
-0.343763
-0.347449
-0.345279
-0.336097
-0.317488
-0.394853
-0.425885
-0.456045
-0.459434
-0.446754
-0.446226
-0.44501
-0.437287
-0.431637
-0.413702
-0.471983
-0.494756
-0.519287
-0.528105
-0.529245
-0.530168
-0.525716
-0.514681
-0.510179
-0.497252
-0.52708
-0.55001
-0.572378
-0.585983
-0.597681
-0.603117
-0.593077
-0.579752
-0.574394
-0.565205
-0.578886
-0.597745
-0.617171
-0.635211
-0.652359
-0.661219
-0.647536
-0.633918
-0.627866
-0.620291
-0.631357
-0.645851
-0.665806
-0.685482
-0.69954
-0.705425
-0.692383
-0.67981
-0.676001
-0.670039
-0.688891
-0.698026
-0.71436
-0.732849
-0.739787
-0.74065
-0.730444
-0.72213
-0.721463
-0.717343
-0.751469
-0.757954
-0.763562
-0.768711
-0.767894
-0.767664
-0.765151
-0.763231
-0.765555
-0.763888
-0.814173
-0.821918
-0.816439
-0.799294
-0.792157
-0.794964
-0.799896
-0.804048
-0.810689
-0.812403
-0.872131
-0.882193
-0.860892
-0.832418
-0.822352
-0.827487
-0.838725
-0.850694
-0.861177
-0.862587
-0.911949
-0.92079
-0.8976
-0.871826
-0.868069
-0.875227
-0.88963
-0.904659
-0.913222
-0.911897
364.395
363.883
362.965
361.737
360.303
358.802
357.405
356.271
355.55
355.351
315.349
314.729
313.696
312.351
310.756
309.072
307.482
306.14
305.276
304.992
266.281
265.61
264.344
262.661
260.676
258.563
256.542
254.813
253.615
253.143
217.137
216.149
214.628
212.556
210.015
207.169
204.385
201.948
200.208
199.426
167.966
166.6
164.721
162.002
158.627
154.644
150.692
147.175
144.635
143.472
118.986
117.261
114.634
110.828
106.284
100.912
95.1455
89.4247
84.8923
82.6473
71.2692
69.2745
65.721
60.2511
54.1252
46.3632
37.8041
29.7073
23.6718
20.7828
27.3704
25.337
21.5446
15.4226
10.0774
6.2809
3.49947
1.69001
0.762958
0.389738
3.79679
2.29254
0.479098
-0.125619
-0.20724
-0.238116
-0.251351
-0.241948
-0.223616
-0.206451
-0.299071
-0.377505
-0.438078
-0.401387
-0.354288
-0.356868
-0.355686
-0.34585
-0.331891
-0.311969
-0.401162
-0.436924
-0.464147
-0.46887
-0.461456
-0.472188
-0.460913
-0.437587
-0.42851
-0.414281
-0.476335
-0.503231
-0.524044
-0.53035
-0.532477
-0.549327
-0.538131
-0.511001
-0.50566
-0.500065
-0.53007
-0.551873
-0.573626
-0.585529
-0.597492
-0.609566
-0.599514
-0.575622
-0.570115
-0.568421
-0.57927
-0.593984
-0.613555
-0.631247
-0.649389
-0.660558
-0.649061
-0.629537
-0.624345
-0.62246
-0.630346
-0.639294
-0.656071
-0.676998
-0.694198
-0.700872
-0.690078
-0.676272
-0.673371
-0.670798
-0.690716
-0.69425
-0.703562
-0.718636
-0.728238
-0.731435
-0.724798
-0.718718
-0.720553
-0.719413
-0.754927
-0.758967
-0.758814
-0.757477
-0.753354
-0.755357
-0.756435
-0.757468
-0.763673
-0.765708
-0.814308
-0.82335
-0.815409
-0.79386
-0.780094
-0.783397
-0.787136
-0.793884
-0.80673
-0.814221
-0.86705
-0.875606
-0.854482
-0.823923
-0.813831
-0.818757
-0.82866
-0.843395
-0.858195
-0.865426
-0.902424
-0.912418
-0.891725
-0.873367
-0.871153
-0.8769
-0.888435
-0.900926
-0.911769
-0.917683
365.206
364.688
363.787
362.57
361.144
359.659
358.276
357.157
356.421
356.222
316.226
315.618
314.615
313.253
311.677
310.006
308.428
307.127
306.257
305.978
267.328
266.624
265.331
263.728
261.748
259.659
257.651
255.947
254.78
254.331
218.436
217.44
215.909
213.864
211.332
208.508
205.724
203.299
201.592
200.854
169.593
168.081
166.26
163.658
160.265
156.294
152.31
148.767
146.245
145.139
121.028
119.061
116.534
112.925
108.392
102.986
97.1777
91.3339
86.7313
84.5702
73.9311
71.5979
68.039
62.9604
56.807
48.9605
39.9554
31.1282
24.2707
21.2277
29.8175
26.9177
22.4922
16.8863
11.6596
7.49435
4.07302
1.91488
0.888072
0.534717
4.36873
2.77035
0.739892
-0.160033
-0.222582
-0.222122
-0.23445
-0.229011
-0.211554
-0.193915
-0.317376
-0.382185
-0.435197
-0.435228
-0.377049
-0.359296
-0.34861
-0.334291
-0.319566
-0.303696
-0.415292
-0.454055
-0.473628
-0.479294
-0.471063
-0.478529
-0.451136
-0.416745
-0.409284
-0.406815
-0.485075
-0.510911
-0.527029
-0.528857
-0.529805
-0.537004
-0.518954
-0.488661
-0.486145
-0.49571
-0.537089
-0.552725
-0.569681
-0.574702
-0.580402
-0.587268
-0.574592
-0.552541
-0.552054
-0.568588
-0.585581
-0.592681
-0.6044
-0.613192
-0.625169
-0.631407
-0.620201
-0.607124
-0.60943
-0.624574
-0.637381
-0.639936
-0.643958
-0.655228
-0.668626
-0.670831
-0.662278
-0.656663
-0.661071
-0.669038
-0.700026
-0.70101
-0.697899
-0.704679
-0.708608
-0.706589
-0.70267
-0.702966
-0.709379
-0.715261
-0.759769
-0.764335
-0.760599
-0.755096
-0.744236
-0.741354
-0.741626
-0.74519
-0.753899
-0.762069
-0.814574
-0.821852
-0.814395
-0.796406
-0.780021
-0.77821
-0.777915
-0.783945
-0.799514
-0.814395
-0.860993
-0.866019
-0.852968
-0.832259
-0.823401
-0.823599
-0.828851
-0.842174
-0.862155
-0.878208
-0.900022
-0.913066
-0.904479
-0.894369
-0.892609
-0.895217
-0.903
-0.915707
-0.930506
-0.944039
366.423
365.888
365.063
363.881
362.487
361.031
359.683
358.587
357.871
357.684
317.542
316.966
316.022
314.701
313.146
311.518
309.984
308.723
307.889
307.622
268.883
268.166
267.02
265.385
263.48
261.461
259.534
257.908
256.806
256.404
220.377
219.441
217.925
215.875
213.439
210.783
208.151
205.866
204.263
203.587
172.052
170.642
168.783
166.173
162.941
159.249
155.531
152.214
149.828
148.739
124.124
122.038
119.668
116.122
111.734
106.722
101.591
96.4228
92.2927
90.2329
77.8994
75.4429
71.8091
67.0015
61.2044
54.4531
46.1982
37.8397
31.085
27.7138
34.1962
30.7284
25.4784
19.5053
13.879
9.83537
6.17356
3.33282
1.88429
1.38609
5.79695
4.1192
1.73488
0.10342
-0.202992
-0.196053
-0.197764
-0.200755
-0.197251
-0.186224
-0.301532
-0.383322
-0.413467
-0.421008
-0.365624
-0.328184
-0.318096
-0.315294
-0.305363
-0.294721
-0.423897
-0.467934
-0.482238
-0.478302
-0.445887
-0.426283
-0.407569
-0.387111
-0.383724
-0.391624
-0.496404
-0.513747
-0.524257
-0.51897
-0.504491
-0.495497
-0.479209
-0.462397
-0.464265
-0.482614
-0.546191
-0.553381
-0.559872
-0.556393
-0.551423
-0.551668
-0.540206
-0.528912
-0.535215
-0.564023
-0.59524
-0.594873
-0.594058
-0.593885
-0.599905
-0.600643
-0.58937
-0.587206
-0.59781
-0.628709
-0.650135
-0.645934
-0.637714
-0.642797
-0.652876
-0.646613
-0.637971
-0.642328
-0.654519
-0.675389
-0.709708
-0.707843
-0.701988
-0.705221
-0.703929
-0.69116
-0.686326
-0.693983
-0.704105
-0.71475
-0.762792
-0.76783
-0.764126
-0.761883
-0.748021
-0.737748
-0.735332
-0.742518
-0.751726
-0.761496
-0.816152
-0.81935
-0.814647
-0.806304
-0.793024
-0.786673
-0.783141
-0.788475
-0.804217
-0.822074
-0.86225
-0.864751
-0.860129
-0.853051
-0.847458
-0.844043
-0.84481
-0.859412
-0.884117
-0.906858
-0.906061
-0.920798
-0.92519
-0.926607
-0.927753
-0.930005
-0.937268
-0.954052
-0.976135
-0.997078
367.947
367.48
366.661
365.53
364.18
362.79
361.49
360.442
359.757
359.591
319.188
318.619
317.751
316.51
315.008
313.454
311.998
310.806
310.015
309.761
270.766
270.037
268.948
267.465
265.675
263.792
261.99
260.487
259.468
259.102
222.728
221.801
220.29
218.397
216.15
213.733
211.375
209.34
207.912
207.337
175.164
173.78
171.913
169.373
166.409
163.183
159.916
157.059
154.947
153.971
128.087
126.127
123.912
120.334
116.23
111.896
107.421
103.437
100.285
98.6676
82.5137
80.3632
76.9424
72.3511
66.9774
61.3262
55.4071
48.9357
43.5476
40.4617
40.5568
36.6494
30.91
24.4093
18.1338
13.5253
10.1241
7.06412
4.96057
4.07631
9.06593
6.69054
3.56438
1.32729
-0.000375781
-0.176983
-0.187459
-0.190395
-0.185541
-0.16826
-0.274183
-0.370137
-0.370331
-0.358781
-0.346882
-0.314023
-0.31242
-0.312277
-0.305777
-0.294329
-0.458155
-0.465602
-0.460189
-0.449542
-0.431447
-0.403719
-0.38819
-0.376685
-0.373904
-0.381614
-0.515448
-0.514913
-0.510163
-0.506522
-0.493927
-0.481776
-0.465116
-0.454305
-0.457692
-0.475469
-0.558315
-0.560187
-0.561058
-0.554711
-0.548161
-0.542033
-0.529999
-0.52381
-0.529987
-0.558357
-0.608019
-0.602841
-0.601622
-0.599326
-0.599561
-0.59116
-0.583922
-0.583663
-0.594627
-0.62674
-0.662334
-0.653347
-0.65013
-0.651833
-0.655136
-0.640193
-0.636121
-0.642761
-0.657455
-0.685466
-0.717172
-0.71259
-0.709954
-0.711711
-0.70813
-0.691151
-0.692253
-0.700786
-0.713204
-0.728135
-0.766848
-0.770397
-0.769734
-0.766816
-0.755968
-0.746899
-0.747934
-0.754277
-0.764268
-0.772091
-0.817011
-0.823913
-0.820929
-0.815499
-0.807016
-0.803882
-0.801535
-0.807314
-0.822597
-0.836415
-0.86777
-0.872757
-0.872439
-0.874134
-0.872444
-0.870127
-0.86832
-0.880443
-0.904598
-0.927423
-0.917504
-0.930323
-0.942304
-0.954306
-0.95884
-0.959577
-0.965552
-0.984947
-1.00941
-1.0259
369.576
369.092
368.409
367.353
366.053
364.738
363.506
362.52
361.854
361.728
320.956
320.379
319.657
318.534
317.068
315.611
314.247
313.15
312.407
312.185
272.763
272.007
271.033
269.794
268.112
266.385
264.742
263.371
262.437
262.067
225.226
224.231
222.776
221.151
219.168
217.025
214.954
213.204
211.978
211.567
178.509
177.179
175.348
172.949
170.303
167.529
164.843
162.54
160.742
159.981
132.509
130.848
128.735
125.131
121.508
117.696
114.09
110.929
108.341
107.193
88.1126
86.0418
83.0285
78.604
73.8709
69.0463
64.4329
60.5141
57.6338
55.5624
47.534
44.0611
38.4883
31.8125
25.288
19.9783
16.3667
13.7544
11.7392
10.4969
15.202
11.9479
7.02817
3.44081
1.40836
0.212244
-0.133366
-0.190242
-0.183738
-0.158862
0.23246
-0.2453
-0.350713
-0.326722
-0.31767
-0.325489
-0.326765
-0.32335
-0.320863
-0.31147
-0.53048
-0.520896
-0.478017
-0.435297
-0.427365
-0.420369
-0.399104
-0.382676
-0.377749
-0.388433
-0.552211
-0.542251
-0.528872
-0.50846
-0.494359
-0.491336
-0.479324
-0.462033
-0.462624
-0.481769
-0.580178
-0.581048
-0.584009
-0.565643
-0.554852
-0.556758
-0.550119
-0.530646
-0.535219
-0.563428
-0.61966
-0.622562
-0.624325
-0.614225
-0.610477
-0.606112
-0.600574
-0.591825
-0.602332
-0.630915
-0.67326
-0.672544
-0.668515
-0.665716
-0.663626
-0.652268
-0.649259
-0.65242
-0.668047
-0.691777
-0.72694
-0.726607
-0.720294
-0.715301
-0.71108
-0.703121
-0.705712
-0.7141
-0.731533
-0.74578
-0.771761
-0.77645
-0.771798
-0.761258
-0.758791
-0.759718
-0.765484
-0.771884
-0.784821
-0.792789
-0.818562
-0.827195
-0.821836
-0.810028
-0.810438
-0.817586
-0.821959
-0.827376
-0.840515
-0.849526
-0.869528
-0.878198
-0.877095
-0.875426
-0.879258
-0.884133
-0.885628
-0.894733
-0.913404
-0.927452
-0.922528
-0.934087
-0.945355
-0.958266
-0.966093
-0.969643
-0.972044
-0.985668
-1.00401
-1.01385
371.151
370.656
370.147
369.182
367.93
366.652
365.499
364.578
363.986
363.859
322.628
321.984
321.428
320.529
319.182
317.751
316.475
315.45
314.788
314.599
274.679
273.851
273.056
272.014
270.563