/*--------------------------------*- C++ -*----------------------------------*\
| =========                 |                                                 |
| \\      /  F ield         | OpenFOAM: The Open Source CFD Toolbox           |
|  \\    /   O peration     | Version:  2312                                  |
|   \\  /    A nd           | Website:  www.openfoam.com                      |
|    \\/     M anipulation  |                                                 |
\*---------------------------------------------------------------------------*/
FoamFile
{
    version     2.0;
    format      ascii;
    arch        "LSB;label=32;scalar=64";
    class       volVectorField;
    location    "0.89";
    object      U;
}
// * * * * * * * * * * * * * * * * * * * * * * * * * * * * * * * * * * * * * //

dimensions      [0 1 -1 0 0 0 0];

internalField   nonuniform List<vector> 
8000
(
(0.00515599 0.00020818 -0.00203614)
(0.00532775 0.000742323 -0.00195405)
(0.00439421 0.00115677 -0.00172288)
(0.00275793 0.00139676 -0.00166784)
(0.000974299 0.00152233 -0.00195247)
(-0.000734493 0.00164249 -0.00271439)
(-0.00187522 0.00171302 -0.00409247)
(-0.00127782 0.00117394 -0.00549757)
(0.00285172 0.000662273 -0.00552111)
(0.00331784 0.00281528 -0.00324543)
(0.00647065 0.000755249 -0.0019038)
(0.00723505 0.002738 -0.00206838)
(0.00681205 0.00384444 -0.00212013)
(0.00605108 0.00461776 -0.00224353)
(0.0049111 0.00551943 -0.00271868)
(0.00324158 0.00721369 -0.00402292)
(0.000923965 0.00938231 -0.00698314)
(-0.000131865 0.00861284 -0.0102244)
(0.00388157 0.00650496 -0.00925141)
(0.00499628 0.0123845 -0.00378427)
(0.00861584 -0.000689169 0.000371231)
(0.00943383 0.00345649 -0.000610003)
(0.00820435 0.00603072 -0.00131735)
(0.00724464 0.00795157 -0.00188409)
(0.00657353 0.0105532 -0.00289035)
(0.00562074 0.0158921 -0.00563474)
(0.000877887 0.0225634 -0.0108334)
(-0.00518406 0.0190537 -0.012582)
(-0.00305857 0.00605945 -0.00284072)
(0.00273502 0.018113 0.000965923)
(0.0119206 -0.00861322 0.00646802)
(0.0158571 0.00389924 0.00334237)
(0.0136108 0.00826549 0.00130132)
(0.0121356 0.0102706 0.000414676)
(0.0130617 0.0143425 -0.00113338)
(0.014395 0.0255326 -0.00436687)
(0.0044195 0.0365878 -0.00701514)
(-0.00987533 0.0171397 0.00120067)
(-0.0195025 -0.0187212 0.0202568)
(-0.0125426 0.0116015 0.00907059)
(0.0099786 -0.0329996 0.00586102)
(0.0182828 -0.00850131 0.0066125)
(0.0178518 0.00498441 0.0068577)
(0.0193202 0.00913854 0.00791499)
(0.0295686 0.0146705 0.00753905)
(0.0391067 0.031468 0.00413249)
(0.0320525 0.0421965 0.00515821)
(0.0316099 0.0076858 0.0179891)
(-0.00508995 -0.0542966 0.0243723)
(-0.0291648 -0.0259891 -0.00331158)
(0.0144429 -0.045175 -0.0066642)
(0.0149492 -0.0212624 -0.00769377)
(0.0147873 -0.00716058 -0.00673584)
(0.024045 -0.0142104 -0.00656252)
(0.044387 -0.0189115 -0.00100877)
(0.069622 0.00370172 0.00928595)
(0.0894954 0.016016 0.0163038)
(0.117738 -0.0217267 0.01935)
(0.119372 -0.000836012 -0.0437334)
(0.0347111 -0.0334388 -0.0800145)
(0.0185675 -0.0395319 -0.0268817)
(0.0241444 -0.0138504 -0.024805)
(0.0316805 -0.00395603 -0.0287011)
(0.0513672 -0.0181139 -0.0406227)
(0.0660802 -0.0441166 -0.0330896)
(0.0814012 -0.0599473 -0.00277346)
(0.106863 -0.0700843 -0.000581137)
(0.157705 -0.0562181 -0.0719293)
(0.217627 0.167733 -0.175709)
(0.184262 0.316426 -0.195607)
(-0.0226071 -0.0285134 -0.0501438)
(0.0117949 -0.000752643 -0.046994)
(0.050023 0.00909996 -0.0459858)
(0.0914221 0.00607573 -0.0538906)
(0.107714 -0.0185358 -0.0416452)
(0.120313 -0.0535843 -0.0237982)
(0.191129 0.0147485 -0.152536)
(0.118914 0.128081 -0.383282)
(0.0506698 0.406368 -0.358911)
(0.103149 0.815475 -0.2106)
(-0.13675 -0.0352848 0.0017024)
(-0.0728038 -0.0391609 -0.00087314)
(-0.0109052 -0.0392049 0.0121276)
(0.0492189 -0.0407439 0.0254072)
(0.112574 -0.0309389 0.0296705)
(0.0811931 -0.0222764 -0.0212745)
(-0.0677673 0.355694 -0.173521)
(-0.0397088 0.552959 -0.262182)
(-0.0587153 0.793854 -0.274159)
(0.0528634 1.07108 -0.164407)
(-0.235877 -0.0587917 0.022989)
(-0.215798 -0.143336 -0.00330941)
(-0.231598 -0.221165 -0.0240227)
(-0.288753 -0.280278 -0.0715015)
(-0.263977 -0.0387678 -0.102237)
(-0.175934 0.297967 -0.0991308)
(-0.235056 0.461314 -0.166804)
(-0.157012 0.688661 -0.185321)
(-0.125916 0.927506 -0.168632)
(-0.00954264 0.993561 -0.0628284)
(-0.26022 -0.083006 -0.00438923)
(-0.24175 -0.101955 -0.0291185)
(-0.24766 -0.0998229 -0.0372718)
(-0.291996 -0.0653294 -0.0400303)
(-0.330522 0.0733834 -0.0501114)
(-0.312928 0.30218 -0.0931011)
(-0.300952 0.456095 -0.134299)
(-0.233396 0.662728 -0.107766)
(-0.170991 0.848169 -0.0417712)
(-0.0390536 0.762745 0.0446176)
(-0.249878 -0.0785141 -0.0302065)
(-0.213469 -0.103674 -0.0278892)
(-0.194148 -0.118157 -0.0135982)
(-0.193074 -0.110006 0.00945111)
(-0.191793 -0.0246345 0.0391294)
(-0.206897 0.153209 0.011355)
(-0.219862 0.357381 -0.05817)
(-0.2036 0.559514 -0.0654229)
(-0.144622 0.6875 0.0159898)
(0.00734275 0.567153 0.0942625)
(-0.249264 -0.0730409 -0.0293837)
(-0.192783 -0.107517 -0.00436734)
(-0.15782 -0.143849 0.0164707)
(-0.121373 -0.173339 0.0561114)
(-0.0812061 -0.138653 0.108276)
(-0.0313516 -0.000158982 0.141737)
(-0.0446302 0.230876 0.0679464)
(-0.0637142 0.442633 -0.0240737)
(-0.0558139 0.545319 -0.0133508)
(0.061237 0.452002 0.073872)
(-0.248271 -0.0738936 -0.00422615)
(-0.184953 -0.171476 0.00720663)
(-0.136657 -0.260265 0.0190047)
(-0.0937786 -0.307493 0.0392008)
(-0.0336527 -0.292884 0.0549171)
(0.0305155 -0.23367 0.0992251)
(0.0693539 -0.0283574 0.141961)
(0.0642278 0.28225 0.0735658)
(0.0416685 0.449918 -0.0146157)
(0.0795149 0.396124 0.0450866)
(-0.252942 -0.144515 -0.0147149)
(-0.206604 -0.267063 -0.0143742)
(-0.179915 -0.336129 -0.00530497)
(-0.130534 -0.342771 -0.0302279)
(-0.0516671 -0.32206 -0.0323078)
(0.0175917 -0.337708 0.0052561)
(0.0573906 -0.252849 0.0681906)
(0.0750388 0.0236328 0.117223)
(0.070272 0.329028 0.0429635)
(0.0707886 0.367794 0.0431631)
(-0.292604 -0.202309 -0.0349327)
(-0.28835 -0.298661 -0.0221545)
(-0.273585 -0.320712 -0.0433788)
(-0.204066 -0.316442 -0.0803925)
(-0.103492 -0.350329 -0.0685137)
(-0.0198547 -0.405796 -0.0391512)
(0.0228352 -0.391578 0.0154437)
(0.0189374 -0.2019 0.0972798)
(0.0106265 0.139619 0.101367)
(0.0393963 0.302253 0.0561512)
(-0.361016 -0.210604 -0.0337508)
(-0.393399 -0.270587 -0.0154467)
(-0.378765 -0.276874 -0.0614759)
(-0.287131 -0.304104 -0.0983055)
(-0.179681 -0.380887 -0.0936257)
(-0.085558 -0.45065 -0.0759791)
(-0.0265921 -0.475204 -0.0334808)
(-0.0216031 -0.380781 0.0357995)
(-0.0545407 -0.120846 0.102254)
(-0.0227293 0.163543 0.07145)
(-0.416489 -0.175255 -0.00914645)
(-0.480672 -0.229517 0.00319655)
(-0.470152 -0.233261 -0.0563311)
(-0.381922 -0.265508 -0.104413)
(-0.28153 -0.34695 -0.12439)
(-0.177085 -0.426228 -0.126155)
(-0.0877559 -0.4706 -0.104637)
(-0.0325235 -0.458679 -0.0630357)
(-0.0162953 -0.301996 0.00527419)
(-0.0540659 -0.0559615 0.0746595)
(-0.420624 -0.135555 0.0292009)
(-0.524402 -0.196338 0.0272771)
(-0.540931 -0.19006 -0.0315864)
(-0.474658 -0.199769 -0.0881182)
(-0.385662 -0.264177 -0.130511)
(-0.271095 -0.340926 -0.158376)
(-0.148323 -0.397828 -0.16489)
(-0.0365071 -0.402571 -0.141623)
(0.0343624 -0.329528 -0.0757563)
(0.0193012 -0.157688 0.0340904)
(-0.394749 -0.113621 0.0605978)
(-0.544418 -0.17756 0.0413228)
(-0.58431 -0.165626 -0.00774387)
(-0.545917 -0.150863 -0.0505969)
(-0.47473 -0.189991 -0.0973156)
(-0.357072 -0.252011 -0.148425)
(-0.205528 -0.302366 -0.186719)
(-0.0430587 -0.314652 -0.180957)
(0.0661195 -0.272022 -0.0991149)
(0.0910344 -0.153626 0.0061792)
(0.00493764 -0.000310123 -0.000464535)
(0.00256164 8.27948e-05 -0.000570844)
(-0.000331989 0.000229336 -0.000519581)
(-0.00314745 0.000256167 -0.000856836)
(-0.0056923 1.56845e-05 -0.00164537)
(-0.00789218 -0.000722366 -0.00306533)
(-0.00833614 -0.00248205 -0.00518857)
(-0.00471235 -0.00482457 -0.00688887)
(0.00438158 -0.00461092 -0.00577093)
(0.00559633 0.000981031 -0.00386764)
(0.0062611 -0.00217381 -5.91189e-05)
(0.00468075 0.000107213 -0.000726908)
(0.00226015 0.000880223 -0.00117585)
(-0.000413184 0.00127872 -0.00188316)
(-0.00350586 0.00147401 -0.00323284)
(-0.00772676 0.000718042 -0.00605372)
(-0.0119867 -0.00331953 -0.00975547)
(-0.0109342 -0.0121999 -0.00865172)
(0.00292166 -0.0140892 -0.00190958)
(0.00995118 0.00770721 -0.00422284)
(0.00846483 -0.00526067 0.0041781)
(0.00490733 -0.00103268 0.00143213)
(0.000767516 0.00130019 -0.000157142)
(-0.00234428 0.00307006 -0.00185806)
(-0.0063892 0.00535375 -0.00491553)
(-0.013983 0.00715601 -0.00930577)
(-0.0260696 -0.00227935 -0.00738386)
(-0.0302454 -0.034803 0.0104027)
(-0.0148867 -0.0468695 0.0265022)
(0.00719039 0.0132878 0.00530921)
(0.0133172 -0.00604202 0.0143248)
(0.010424 0.00406752 0.00733067)
(0.00388545 0.00502035 0.00302585)
(-0.000599185 0.00639298 -0.000558168)
(-0.00345576 0.0115639 -0.00519049)
(-0.0108231 0.0164122 -0.00557589)
(-0.0263202 -0.00474228 0.00993592)
(-0.0282443 -0.0673825 0.0382274)
(-0.0378859 -0.0874813 0.0457097)
(-0.00519623 0.00330237 0.0127883)
(0.0147662 -0.0234391 0.0234204)
(0.0186457 -0.00231391 0.0172108)
(0.0104685 0.00524295 0.0124611)
(0.00874976 0.0102519 0.00866669)
(0.0145639 0.0180607 0.00462954)
(0.0191737 0.0242596 0.00682526)
(0.018473 0.00177537 0.0241029)
(0.0363376 -0.0646484 0.040427)
(-0.0295355 -0.0840026 -0.0119344)
(-0.0160173 -0.0138567 -0.029497)
(0.012502 -0.0310473 0.00982647)
(0.00841751 0.00222801 0.00596816)
(0.00931485 0.0115335 0.0027682)
(0.018605 0.00993694 0.00155291)
(0.0340184 0.0141445 0.00618337)
(0.0593592 0.0175654 0.0161153)
(0.0882129 -0.00337794 0.0296427)
(0.133791 -0.0238744 -0.00363175)
(0.0483585 0.0173396 -0.160107)
(-0.00368794 -0.0283328 -0.154851)
(0.0215257 -0.0372259 -0.00505483)
(0.0101937 -0.0287782 -0.0119411)
(0.0166831 -0.0302173 -0.0151649)
(0.0340435 -0.0290503 -0.0115859)
(0.0482893 -0.0242091 -0.00246372)
(0.079502 -0.0379079 0.00624772)
(0.118897 -0.0589853 -0.0283527)
(0.174852 0.00326758 -0.132322)
(0.119492 0.107215 -0.279275)
(0.0465538 0.0618666 -0.29911)
(-0.00438266 -0.0144246 -0.00544733)
(0.00971859 -0.0082601 -0.00787213)
(0.0256352 -0.0211461 -0.00367155)
(0.0455135 -0.0363984 0.0171732)
(0.0584964 -0.0406013 -0.00397146)
(0.0901853 -0.0532395 -0.100968)
(0.167822 -0.0426017 -0.271702)
(0.190156 0.0315632 -0.356174)
(0.0973075 0.191563 -0.377517)
(0.00767976 0.24771 -0.242647)
(-0.165548 -0.058964 -0.0341147)
(-0.130751 -0.0566123 -0.00616356)
(-0.0961936 -0.0464768 0.0222141)
(-0.0101706 -0.0271101 0.0486633)
(0.0118507 -0.0057583 -0.0721913)
(-0.0570044 -0.0400328 -0.266213)
(-0.0187906 0.0320379 -0.162327)
(-0.0892476 0.154495 -0.17149)
(-0.115468 0.449154 -0.207321)
(-0.0677408 0.424142 -0.0523855)
(-0.234415 0.094182 -0.0518728)
(-0.266005 0.0870722 0.0403708)
(-0.288883 0.102575 0.0506551)
(-0.260198 0.16482 -0.00129199)
(-0.199177 0.15609 -0.0460133)
(-0.161753 0.0426328 -0.0174739)
(-0.117155 0.0311149 -0.0108849)
(-0.205168 0.214854 -0.0874765)
(-0.208944 0.345575 -0.0271101)
(-0.0557901 0.217412 0.0457514)
(-0.284147 0.10076 0.0653107)
(-0.291727 0.0551513 0.0321065)
(-0.262235 -0.0362247 0.0382159)
(-0.192788 -0.128626 0.0738584)
(-0.106092 -0.202984 0.116322)
(-0.0211447 -0.236572 0.146674)
(0.0385778 -0.179361 0.163651)
(-0.0546823 0.159852 0.0208101)
(-0.15563 0.207357 0.00948932)
(0.0532599 -0.0215944 0.0313065)
(-0.26281 0.0867183 -0.0372024)
(-0.22528 0.0249667 -0.0645103)
(-0.151937 -0.0624813 -0.0138853)
(-0.0734223 -0.165412 0.0736535)
(0.00482476 -0.281493 0.129373)
(0.0631386 -0.283728 0.16757)
(0.108452 -0.186746 0.207677)
(0.105828 0.0884971 0.186479)
(0.00866125 0.231702 0.073531)
(0.0904181 0.11092 0.0590335)
(-0.246916 0.075255 -0.11026)
(-0.152162 -0.0253296 -0.0680541)
(-0.0857144 -0.109562 0.0595386)
(-0.0382693 -0.238494 0.0862374)
(0.0256563 -0.288786 0.0721851)
(0.0751114 -0.238433 0.149964)
(0.151826 -0.14617 0.240312)
(0.182662 0.0562527 0.231544)
(0.118715 0.22243 0.134086)
(0.0994892 0.206789 0.0851565)
(-0.21042 0.0942295 -0.105873)
(-0.0815695 -0.0266788 0.0223284)
(-0.0548656 -0.169977 0.0808074)
(-0.00879742 -0.288886 0.0060374)
(0.0145293 -0.229217 -0.0327572)
(0.0608467 -0.188258 0.0937068)
(0.138994 -0.185573 0.242588)
(0.193475 0.0530625 0.273967)
(0.162448 0.272545 0.182109)
(0.100386 0.319157 0.112623)
(-0.15041 0.0664887 -0.0347361)
(-0.066718 -0.109765 0.0814914)
(-0.0725369 -0.251839 -0.0115496)
(-0.0538968 -0.232588 -0.10364)
(-0.0450047 -0.1408 -0.0911252)
(0.0351875 -0.144376 0.0546193)
(0.0709508 -0.26997 0.175628)
(0.120323 -0.109855 0.282331)
(0.136301 0.262804 0.231391)
(0.0910502 0.409638 0.149775)
(-0.109452 -0.00987685 0.0317895)
(-0.140322 -0.199572 0.00921788)
(-0.167581 -0.219028 -0.0952767)
(-0.168655 -0.159228 -0.159242)
(-0.119416 -0.174342 -0.083226)
(-0.035491 -0.250932 0.0189195)
(-0.0284089 -0.339756 0.124361)
(-0.0331049 -0.254301 0.266555)
(0.0110283 0.178173 0.274821)
(0.0545476 0.429483 0.176113)
(-0.183084 -0.107107 0.0289133)
(-0.276359 -0.193724 -0.0362991)
(-0.297022 -0.134618 -0.131454)
(-0.280803 -0.147614 -0.182855)
(-0.225397 -0.248645 -0.135147)
(-0.179005 -0.342254 -0.0685857)
(-0.176211 -0.381366 0.0473694)
(-0.197988 -0.305913 0.194073)
(-0.158677 0.0266672 0.271462)
(-0.0188789 0.345317 0.165051)
(-0.34078 -0.142065 0.0203934)
(-0.416902 -0.130027 -0.0126641)
(-0.417161 -0.0725378 -0.135168)
(-0.38867 -0.114923 -0.218109)
(-0.342738 -0.220235 -0.236228)
(-0.311542 -0.317602 -0.208731)
(-0.296847 -0.359496 -0.118204)
(-0.283475 -0.293431 0.0221347)
(-0.23364 -0.0876208 0.134608)
(-0.106246 0.146369 0.113364)
(-0.482164 -0.139713 0.081485)
(-0.532684 -0.100762 0.0399704)
(-0.510594 -0.0373159 -0.0924593)
(-0.481696 -0.0701398 -0.204158)
(-0.437587 -0.148537 -0.285602)
(-0.388865 -0.226679 -0.324209)
(-0.331811 -0.280696 -0.301484)
(-0.261149 -0.269082 -0.188004)
(-0.189326 -0.158829 0.00877022)
(-0.076045 -0.0505436 0.0523157)
(-0.551924 -0.132354 0.154584)
(-0.614137 -0.0990045 0.0916513)
(-0.57945 -0.0233849 -0.0216122)
(-0.553948 -0.0340898 -0.133426)
(-0.50728 -0.0899649 -0.233836)
(-0.440841 -0.158836 -0.318487)
(-0.344203 -0.204912 -0.372441)
(-0.22394 -0.189218 -0.34097)
(-0.120002 -0.131519 -0.141268)
(0.04197 -0.104811 0.0569584)
(0.00443168 -0.000976777 0.00388315)
(0.00211525 -0.000469403 0.00322717)
(-0.000749612 -0.000289611 0.00271885)
(-0.00354058 -0.00030479 0.00198647)
(-0.00604958 -0.000577207 0.00117808)
(-0.00811614 -0.00155354 0.000390653)
(-0.00795935 -0.00372048 -0.00012001)
(-0.00332975 -0.00622122 0.000212486)
(0.00569407 -0.00534504 0.00186746)
(0.00568916 0.00124923 -0.000890908)
(0.00552116 -0.00495206 0.0044086)
(0.00391089 -0.00242864 0.00290668)
(0.00164596 -0.000826732 0.00180901)
(-0.00112484 -0.000155319 0.000621161)
(-0.0044727 -0.000186619 -0.000727885)
(-0.00887973 -0.00227056 -0.00223119)
(-0.0122201 -0.00918103 -0.00179627)
(-0.00843812 -0.0186644 0.00411817)
(0.00767762 -0.0146225 0.0090028)
(0.0110871 0.00862462 -0.00275068)
(0.00681326 -0.00895608 0.00794702)
(0.00310757 -0.00493776 0.00450355)
(-0.000464607 -0.00198548 0.00236167)
(-0.00380495 0.000305844 0.000267321)
(-0.00895283 0.00204971 -0.00238724)
(-0.0187284 5.28631e-06 -0.00344995)
(-0.0296907 -0.014549 0.00626651)
(-0.0269134 -0.0417598 0.0289074)
(-0.00514098 -0.0370896 0.0372827)
(0.0147753 0.0214271 0.00149956)
(0.0101188 -0.00564634 0.0167263)
(0.0052212 -0.000657902 0.0104863)
(-0.000469525 0.00103883 0.00541094)
(-0.00475842 0.00355844 0.000374681)
(-0.0107815 0.00799198 -0.00451864)
(-0.0226976 0.00663146 -0.00138799)
(-0.0345061 -0.0220568 0.020833)
(-0.0266177 -0.0758342 0.0478823)
(-0.0230311 -0.0632453 0.0429954)
(0.00477863 0.0290384 0.00537494)
(0.0139195 -0.00920978 0.0273725)
(0.0112276 0.000262928 0.0175653)
(0.00221939 0.00147179 0.0117343)
(-0.00117086 0.0042916 0.00462805)
(-0.000200889 0.0110068 -0.00117448)
(-0.00216976 0.0115744 0.00428481)
(-4.46108e-05 -0.0229784 0.0220502)
(0.0141266 -0.0756352 0.0218588)
(-0.0302883 -0.0516424 -0.0292404)
(-0.00492538 0.0234113 -0.0411057)
(0.0149448 -0.00122708 0.0260682)
(0.00967469 0.0173915 0.0180027)
(0.00424136 0.0213705 0.0138218)
(0.00853361 0.0161559 0.00706756)
(0.0202842 0.0162716 0.00293595)
(0.0353614 0.0125963 0.00763105)
(0.0586183 -0.0173506 0.00884381)
(0.0681219 -0.0321957 -0.0476443)
(-0.0233488 -0.0373735 -0.137458)
(-0.0102531 -0.0139725 -0.119341)
(0.0142272 -0.0221586 0.00574107)
(-0.00157755 -0.0125361 -0.000699933)
(-0.0103642 -0.0227922 -0.0075719)
(0.00469977 -0.0321158 -0.0167451)
(0.0311178 -0.0261978 -0.00710558)
(0.0609493 -0.0206918 -0.00632758)
(0.0939532 -0.0298555 -0.0445505)
(0.109413 -0.0111269 -0.141483)
(0.00546939 -0.0760098 -0.23548)
(-0.000310825 -0.115299 -0.198337)
(0.0179369 0.0189923 -0.042403)
(0.0208262 0.0195573 -0.0482726)
(0.0211288 0.00159637 -0.0564755)
(0.0269407 -0.0365029 -0.0438866)
(0.03981 -0.0504731 -0.0441261)
(0.0690755 -0.0549712 -0.0844583)
(0.0986492 -0.0727871 -0.172973)
(0.139526 -0.0336641 -0.277127)
(0.0347466 -0.0168528 -0.406026)
(0.0306303 -0.167636 -0.34757)
(-0.0396951 -0.0372318 -0.0558049)
(-0.00804447 -0.0207895 -0.0662664)
(0.032312 -0.0246229 -0.0805067)
(0.0469451 -0.0287103 -0.158202)
(0.0420216 -0.0373938 -0.25514)
(0.0185286 -0.106377 -0.218055)
(-0.0103372 -0.189799 -0.135295)
(-0.0331407 -0.105189 -0.157219)
(-0.181164 0.153095 -0.17271)
(-0.0197972 -0.0639868 -0.12433)
(-0.0756523 -0.0257237 -0.319728)
(-0.075366 -0.0463265 -0.224856)
(-0.122487 -0.0334668 -0.0574612)
(-0.203007 0.0839594 0.0179677)
(-0.134953 0.107873 0.0373114)
(-0.00552089 -0.195005 0.113704)
(0.0413016 -0.253515 0.0939022)
(0.0523495 -0.0785964 0.0647713)
(-0.143322 0.0113031 0.00890802)
(-0.00323628 -0.22964 0.0694111)
(-0.249031 0.213762 0.0339686)
(-0.260856 0.199477 0.0361082)
(-0.248872 0.14741 0.051697)
(-0.183417 0.0241441 0.0846253)
(-0.00766927 -0.187776 0.125188)
(0.122024 -0.334778 0.0798691)
(0.124615 -0.329303 0.0529085)
(0.161604 -0.213259 0.108849)
(0.0852383 -0.0499477 0.0763427)
(0.0513484 -0.289087 0.0370523)
(-0.242812 0.224956 0.061757)
(-0.237336 0.20185 -0.0300079)
(-0.172732 0.137677 -0.0625726)
(-0.0492147 0.0275037 -0.0444434)
(0.0947151 -0.209808 0.0332658)
(0.152157 -0.286801 -0.00175914)
(0.126515 -0.236334 0.00482071)
(0.196611 -0.154397 0.128316)
(0.135704 -0.0482364 0.128303)
(0.0727996 -0.200724 0.0345832)
(-0.206437 0.244604 -0.0580708)
(-0.153391 0.135668 -0.113397)
(-0.07849 0.0324628 -0.0463529)
(0.0236569 -0.0693477 0.0694203)
(0.106372 -0.210408 -0.0269535)
(0.112601 -0.181371 -0.073096)
(0.094354 -0.115488 0.0326875)
(0.201615 -0.0756705 0.183894)
(0.0828419 0.0477476 0.107826)
(0.078999 -0.0629242 0.0299281)
(-0.177592 0.240855 -0.130874)
(-0.0665576 0.0841062 -0.0734369)
(-0.0257161 0.0421179 0.0996868)
(0.0682272 -0.152049 0.0308119)
(0.0482448 -0.157948 -0.129655)
(0.0311767 -0.0209376 -0.103654)
(0.0849108 -0.0391394 0.134651)
(0.200421 -0.0284562 0.287217)
(0.155973 0.156055 0.188336)
(0.108997 0.121407 0.0610802)
(-0.10505 0.179567 -0.122808)
(-0.0251039 0.0802451 0.04417)
(0.0164287 -0.0668516 0.0936643)
(0.00806406 -0.163584 -0.12162)
(-0.0699523 -0.0504202 -0.165201)
(0.00133802 0.0655662 0.00921795)
(0.066453 -0.0627488 0.189665)
(0.121496 -0.0877624 0.336834)
(0.157314 0.211691 0.284941)
(0.114824 0.300118 0.144394)
(-0.0273762 0.134058 -0.0627359)
(-0.00836692 0.0243205 0.130146)
(-0.0493679 -0.120851 -0.039402)
(-0.15858 -0.0830077 -0.19058)
(-0.172505 -0.0643812 -0.0682758)
(-0.106502 -0.11653 0.0687708)
(-0.0771231 -0.171041 0.170375)
(-0.0643315 -0.142169 0.310579)
(0.0254057 0.20672 0.317255)
(0.0670311 0.404556 0.196262)
(0.00157073 0.126955 0.0783957)
(-0.0767706 -0.0540734 0.085369)
(-0.194255 -0.048101 -0.123539)
(-0.296981 -0.0475258 -0.203326)
(-0.300978 -0.137585 -0.118583)
(-0.306357 -0.221457 -0.0183993)
(-0.323537 -0.234649 0.0945794)
(-0.295174 -0.105118 0.233349)
(-0.171811 0.196272 0.299618)
(-0.0173928 0.380733 0.198541)
(-0.0931833 0.0590756 0.162976)
(-0.229665 -0.0399283 0.0420814)
(-0.324681 0.0475942 -0.14102)
(-0.387616 0.017654 -0.265768)
(-0.38763 -0.0761384 -0.290585)
(-0.405369 -0.181243 -0.240802)
(-0.443696 -0.244598 -0.140666)
(-0.406573 -0.175176 0.0191799)
(-0.276269 0.0368251 0.179232)
(-0.0883406 0.183081 0.141969)
(-0.288022 -0.0203433 0.184195)
(-0.367496 0.0079696 0.0682032)
(-0.412172 0.0834356 -0.105914)
(-0.442809 0.0482103 -0.254604)
(-0.446116 -0.0294491 -0.374718)
(-0.441233 -0.112101 -0.43728)
(-0.408273 -0.183269 -0.437647)
(-0.32523 -0.206229 -0.342983)
(-0.21816 -0.133593 -0.0990592)
(-0.0816047 -0.0221231 0.052242)
(-0.42703 -0.0485429 0.230797)
(-0.461553 0.00878547 0.102632)
(-0.450208 0.0822296 -0.0563306)
(-0.446901 0.0764517 -0.185638)
(-0.443396 0.0214021 -0.311301)
(-0.434877 -0.0796359 -0.418658)
(-0.373442 -0.184695 -0.503774)
(-0.244445 -0.196504 -0.518562)
(-0.161383 -0.0672529 -0.311054)
(-0.0670472 -0.0471108 -0.0469598)
(0.00371476 -0.000157577 0.00862536)
(0.00142607 0.000109651 0.00738608)
(-0.00108249 0.000202456 0.00600384)
(-0.00365095 7.65605e-05 0.00470893)
(-0.00576423 -0.000271251 0.00374056)
(-0.00722944 -0.00118375 0.0033564)
(-0.00663518 -0.0028417 0.00388146)
(-0.00238969 -0.00452982 0.00510992)
(0.00442546 -0.00342528 0.00605185)
(0.00424461 0.00140096 1.40427e-06)
(0.00460879 -0.00310189 0.0094876)
(0.00256329 -0.00164465 0.0073206)
(0.000866995 -0.000268548 0.00525913)
(-0.0013655 0.00022458 0.00340846)
(-0.00398417 -7.64666e-05 0.00199409)
(-0.0068646 -0.00197683 0.0015461)
(-0.00771174 -0.00707193 0.00349572)
(-0.00233953 -0.0127704 0.0084767)
(0.00934431 -0.00726679 0.00993881)
(0.00787202 0.00802704 -0.00330007)
(0.00563964 -0.00605295 0.0114298)
(0.00198786 -0.00404999 0.00824629)
(-0.000659121 -0.00153071 0.00548748)
(-0.00357535 0.000562639 0.0031862)
(-0.00757466 0.001343 0.00134887)
(-0.0138961 -0.00133235 0.00217902)
(-0.0186707 -0.0108911 0.0116604)
(-0.0120071 -0.0223755 0.0289079)
(0.00720928 -0.0088657 0.0290502)
(0.0131483 0.0211158 -0.00452563)
(0.00845157 -0.00308949 0.0159278)
(0.00381437 -0.00196514 0.0121012)
(-0.000809704 -0.000139489 0.00796191)
(-0.00499665 0.00236196 0.00364645)
(-0.0112576 0.00444425 0.000250208)
(-0.0207085 0.00229724 0.00369762)
(-0.0268969 -0.0136017 0.0228174)
(-0.0171854 -0.0353426 0.0458323)
(-0.00528859 -0.0121152 0.037122)
(0.00983341 0.0370321 -0.00905164)
(0.0112661 -0.000338702 0.0199007)
(0.00659782 0.00133058 0.0146447)
(-0.00148222 0.00137473 0.00976703)
(-0.00671932 0.00340321 0.00304763)
(-0.00984714 0.00653133 -0.00167427)
(-0.014082 0.00506105 0.00330473)
(-0.0127517 -0.0163014 0.0199325)
(-0.00028499 -0.0392207 0.0232516)
(-0.013083 -0.00344877 -0.00806171)
(-0.00428365 0.0433915 -0.0378914)
(0.0157451 0.0102049 0.0279551)
(0.0103542 0.0168266 0.020404)
(0.000531403 0.0189484 0.018046)
(-0.0036736 0.0166204 0.0118239)
(-0.000133364 0.0125731 0.00566265)
(0.00689636 0.006965 0.00476181)
(0.0191807 -0.0163377 0.00260398)
(0.0170692 -0.0293323 -0.0287934)
(-0.0206836 7.12148e-05 -0.0799241)
(-0.0154846 0.015984 -0.0907072)
(0.0152579 0.00945148 0.0204842)
(-0.000964769 0.0139634 0.0150879)
(-0.0174863 0.00832755 0.0106503)
(-0.0172615 -0.00257483 0.00500359)
(0.000591293 -0.0124969 0.00442684)
(0.0249651 -0.0135827 0.000401193)
(0.0433933 -0.0211984 -0.0279941)
(0.029023 -0.0360075 -0.0881198)
(-0.0333319 -0.0462139 -0.142133)
(-0.00704947 -0.0571759 -0.122188)
(0.0183266 0.0203288 -0.0132512)
(0.0161359 0.0242382 -0.0179342)
(0.00855133 0.0174346 -0.0234576)
(0.00899724 -0.0114323 -0.0210578)
(0.0207546 -0.0377005 -0.0213126)
(0.0328563 -0.044512 -0.0567061)
(0.045168 -0.0513036 -0.109629)
(0.0664026 -0.0706991 -0.195575)
(-0.0329662 -0.129169 -0.306653)
(0.0315891 -0.153883 -0.277258)
(0.0170974 -0.0170471 0.00789679)
(0.0148494 -0.0051056 -0.00708899)
(0.0296522 -0.0144337 -0.0235102)
(0.0586877 -0.0320475 -0.0618885)
(0.0469517 -0.0623282 -0.188906)
(0.0397527 -0.0707332 -0.252935)
(0.00263366 -0.117498 -0.212858)
(0.00794243 -0.102418 -0.205281)
(-0.0660425 -0.211172 -0.232483)
(0.0274619 -0.214596 -0.318618)
(-0.000271262 -0.0221114 -0.125189)
(0.0153217 -0.0487648 -0.13646)
(0.0548797 -0.073806 -0.160088)
(0.0790571 -0.0965641 -0.121911)
(-0.179683 -0.0706368 0.0541878)
(-0.045786 0.120175 0.101034)
(-0.0257764 -0.0116028 0.152062)
(0.0643003 -0.0162955 0.18848)
(0.0162842 0.00240549 0.168789)
(0.0287973 0.00121637 0.0256368)
(-0.152777 -0.332952 0.0470646)
(-0.16036 -0.236328 -0.0759102)
(-0.142929 -0.0146869 -0.0699615)
(-0.102909 0.16414 -0.0326079)
(-0.0721547 0.0453121 0.054653)
(0.12598 -0.166069 0.0984085)
(0.110216 -0.189325 0.0463628)
(0.0981841 -0.198709 0.0921166)
(0.108556 -0.0943722 0.144032)
(0.0691135 0.00999978 0.086273)
(-0.120072 0.0846592 -0.0171315)
(-0.15023 0.102045 -0.116354)
(-0.126154 0.12433 -0.105474)
(-0.0466865 0.134762 -0.101554)
(0.101154 -0.0092384 -0.0357713)
(0.193341 -0.120035 -0.0284179)
(0.129018 -0.10737 -0.0653486)
(0.0539852 -0.103298 0.0550039)
(0.0296335 -0.0695981 0.0827557)
(0.0382514 0.101931 0.0215629)
(-0.113193 0.241601 -0.0749019)
(-0.076848 0.134218 -0.125577)
(-0.0335001 0.0671886 -0.0879075)
(0.0431018 0.0581658 -0.00264049)
(0.143291 -0.108893 -0.0417357)
(0.141514 -0.111775 -0.110978)
(0.0125119 -0.00994126 -0.0949759)
(-0.0500128 0.0392414 0.148428)
(-0.134707 0.157788 -0.0133182)
(-0.025571 0.157971 -0.0620278)
(-0.088637 0.2544 -0.114465)
(0.00306804 0.0711097 -0.0866074)
(-0.0415577 0.0871046 0.0493643)
(0.0748878 -0.0893429 0.0717205)
(0.0441973 -0.124744 -0.14089)
(-0.0102195 0.000423237 -0.189118)
(-0.118825 0.163335 0.0296393)
(-0.0296182 0.0765739 0.219746)
(-0.138299 0.0565808 0.0610242)
(-0.0174575 -0.0675779 0.0172688)
(-0.00734964 0.149892 -0.134791)
(-0.0203678 0.0999825 0.0228536)
(-0.00869352 0.039976 0.165132)
(-0.0310258 -0.149188 -0.112117)
(-0.130993 -0.0250368 -0.188771)
(-0.0951477 0.170553 0.0142636)
(-0.0732323 0.182254 0.170383)
(0.0712837 0.0396363 0.323056)
(0.0227941 0.138689 0.226878)
(0.0204462 -0.00121012 0.155898)
(0.0362102 0.125289 -0.110423)
(-0.026921 0.127655 0.162231)
(-0.0430483 -0.0353569 0.0624213)
(-0.217707 -0.0443489 -0.169044)
(-0.238695 0.00693013 -0.0239003)
(-0.17457 0.00565202 0.140327)
(-0.134344 -0.0231851 0.213201)
(-0.100236 -0.0115544 0.288159)
(-0.00963874 0.183941 0.272788)
(-0.00855108 0.0751096 0.196285)
(0.0441079 0.183349 0.0148431)
(-0.0237267 0.102357 0.219517)
(-0.170889 0.0270138 -0.0310516)
(-0.333827 0.0156149 -0.197896)
(-0.355345 -0.0453867 -0.0949149)
(-0.362783 -0.115411 0.043896)
(-0.384082 -0.152235 0.13404)
(-0.33669 -0.0964911 0.23662)
(-0.190588 0.0302888 0.292806)
(-0.0483383 0.00309599 0.191339)
(0.0156991 0.222169 0.227441)
(-0.0955026 0.0788216 0.194454)
(-0.24396 0.111309 -0.0631718)
(-0.362516 0.105169 -0.281117)
(-0.388017 0.0503247 -0.344473)
(-0.381274 -0.0399492 -0.271008)
(-0.391344 -0.171359 -0.166716)
(-0.352641 -0.231637 -0.0633478)
(-0.227684 -0.180762 0.0617231)
(-0.0675659 -0.112306 0.0795139)
(-0.118378 0.160888 0.334611)
(-0.192134 0.0827185 0.177619)
(-0.283224 0.152097 -0.0345794)
(-0.358852 0.130345 -0.252902)
(-0.403949 0.0624156 -0.423644)
(-0.434617 -0.0269483 -0.503424)
(-0.399063 -0.115366 -0.517546)
(-0.290003 -0.164081 -0.477293)
(-0.189818 -0.12563 -0.302824)
(-0.0678829 -0.124789 -0.0968219)
(-0.250271 0.0867022 0.35086)
(-0.257934 0.0731047 0.181507)
(-0.266307 0.145769 0.00209664)
(-0.27489 0.167385 -0.17408)
(-0.296091 0.127969 -0.352936)
(-0.342834 -0.00158571 -0.484265)
(-0.324257 -0.188387 -0.57233)
(-0.170885 -0.293918 -0.609266)
(-0.106174 -0.0536077 -0.462092)
(-0.0382731 -0.0613063 -0.199299)
(0.00270767 0.0018156 0.0108779)
(0.00013844 0.00140119 0.0094417)
(-0.00208605 0.00113868 0.00758019)
(-0.00430229 0.000781558 0.00602827)
(-0.00593589 0.000328709 0.00503652)
(-0.00674991 -0.000434139 0.00471092)
(-0.00580632 -0.00155085 0.00527659)
(-0.00243842 -0.00251517 0.00644548)
(0.00225773 -0.00155281 0.00672678)
(0.00261209 0.00121711 -0.000493521)
(0.00336735 0.00159346 0.0136677)
(0.000172771 0.00104156 0.010778)
(-0.00104651 0.00112084 0.0075293)
(-0.00252278 0.000885597 0.0049414)
(-0.00407917 0.000265823 0.0032809)
(-0.00541176 -0.00103536 0.00292158)
(-0.0048924 -0.00357429 0.00442595)
(-0.000280488 -0.00612381 0.00717389)
(0.00603965 -0.00267825 0.00684847)
(0.00440245 0.00522289 -0.00454454)
(0.00443306 0.00182854 0.0136669)
(0.00032632 0.000198925 0.0113388)
(-0.00174204 0.000535067 0.00794516)
(-0.00410541 0.0015125 0.00509196)
(-0.00650707 0.0017056 0.00338227)
(-0.00888745 -0.000147345 0.00404952)
(-0.0088333 -0.00463544 0.00979882)
(-0.00150657 -0.00790694 0.0185674)
(0.00985022 0.00205935 0.0149318)
(0.00710438 0.0142907 -0.00810989)
(0.00714345 0.00493994 0.0140185)
(0.00286207 0.00190683 0.0134862)
(-0.000968841 0.0010191 0.00995279)
(-0.00493673 0.00163934 0.00598243)
(-0.00930005 0.00174271 0.0036052)
(-0.0137373 0.000502628 0.00604035)
(-0.013992 -0.00388112 0.0173329)
(-0.00454789 -0.00631859 0.0303211)
(0.00666161 0.0104425 0.0179463)
(0.00747101 0.0237875 -0.016522)
(0.0101351 0.0104448 0.0143714)
(0.00545761 0.00597407 0.0143608)
(-0.00202501 0.00321201 0.0105498)
(-0.00821204 0.00376226 0.00461445)
(-0.0119678 0.00386924 0.001127)
(-0.0142023 0.00272644 0.00402627)
(-0.0124985 -0.00241249 0.0150691)
(-0.00379829 -0.00313702 0.0175528)
(-0.00249446 0.0193567 -0.0108518)
(-0.001233 0.0314482 -0.0430578)
(0.0147613 0.0159478 0.0196962)
(0.00935414 0.0133683 0.0189206)
(-0.00337003 0.01133 0.0179803)
(-0.0126812 0.00850236 0.0123885)
(-0.0145683 0.00333666 0.00772428)
(-0.0109244 3.05461e-05 0.00597892)
(-0.00501732 -0.00572203 0.00351828)
(-0.0011381 -0.00337904 -0.0175889)
(-0.0104243 0.0161497 -0.0567349)
(-0.0127351 0.0127409 -0.073109)
(0.0172678 0.026213 0.0235602)
(-0.000276817 0.0215774 0.0257386)
(-0.0215747 0.0174206 0.0214983)
(-0.0289842 0.00787711 0.0133097)
(-0.0222019 -0.00822549 0.00972176)
(-0.0094984 -0.0158025 0.00404992)
(-0.00236018 -0.0144301 -0.0149024)
(-0.00827464 -0.00967644 -0.0472941)
(-0.0235156 0.00152259 -0.0812156)
(-0.00776049 -0.0266711 -0.0922147)
(0.0162186 0.0186539 -0.00237607)
(0.00631048 0.0180809 -0.00168707)
(-0.00611902 0.0148946 -0.0115505)