/*--------------------------------*- C++ -*----------------------------------*\
| =========                 |                                                 |
| \\      /  F ield         | OpenFOAM: The Open Source CFD Toolbox           |
|  \\    /   O peration     | Version:  2312                                  |
|   \\  /    A nd           | Website:  www.openfoam.com                      |
|    \\/     M anipulation  |                                                 |
\*---------------------------------------------------------------------------*/
FoamFile
{
    version     2.0;
    format      ascii;
    arch        "LSB;label=32;scalar=64";
    class       volScalarField;
    location    "0.11";
    object      alpha.water;
}
// * * * * * * * * * * * * * * * * * * * * * * * * * * * * * * * * * * * * * //

dimensions      [0 0 0 0 0 0 0];

internalField   nonuniform List<scalar> 
8000
(
1
1
1
1
1
1
1
1
1
1
1
1
1
1
1
1
1
1
1
1
1
1
1
1
1
1
1
1
1
1
1
1
1
1
1
1
1
1
1
1
1
1
1
1
1
1
1
1
1
1
1
1
1
1
1
1
1
1
1
1
1
1
1
1
1
1
1
1
1
1
1
1
1
1
1
1
1
1
1
1
0.000134027
0.00013117
0.000125745
0.000117983
0.000108488
9.80576e-05
8.78043e-05
7.863e-05
7.16146e-05
6.7866e-05
3.12367e-09
3.16303e-09
3.12424e-09
3.04659e-09
2.91938e-09
2.73981e-09
2.52433e-09
2.29863e-09
2.10372e-09
1.98842e-09
4.90315e-11
5.04431e-11
5.04084e-11
4.99168e-11
4.86528e-11
4.64054e-11
4.33307e-11
3.98338e-11
3.67715e-11
3.54774e-11
1.24493e-12
1.29248e-12
1.29303e-12
1.28261e-12
1.25295e-12
1.19814e-12
1.1221e-12
1.04581e-12
1.10579e-12
1.80615e-12
3.28611e-14
3.47085e-14
3.51449e-14
3.54388e-14
3.52763e-14
3.44234e-14
3.34361e-14
4.41087e-14
1.24631e-13
4.62335e-13
1.91031e-15
2.03245e-15
2.05529e-15
2.06921e-15
2.04949e-15
2.00201e-15
2.15914e-15
6.65304e-15
2.7092e-14
1.23507e-13
6.93472e-17
7.51601e-17
7.70336e-17
7.89276e-17
8.02686e-17
8.76515e-17
1.74423e-16
8.53717e-16
6.99603e-15
6.70837e-14
2.55939e-18
2.82667e-18
2.93661e-18
3.0705e-18
3.32734e-18
5.34962e-18
2.52472e-17
3.40068e-16
6.16648e-15
5.7886e-14
1.04477e-19
1.17495e-19
1.23406e-19
1.32492e-19
1.62441e-19
7.1229e-19
1.25392e-17
3.28258e-16
5.63429e-15
5.10097e-14
4.54727e-21
5.20463e-21
5.5205e-21
6.24257e-21
1.6622e-20
3.29842e-19
1.15053e-17
2.94356e-16
5.09127e-15
4.56109e-14
2.08169e-22
2.42362e-22
2.60615e-22
3.95728e-22
5.89485e-21
2.84826e-19
1.01866e-17
2.65542e-16
4.68035e-15
4.1339e-14
9.93112e-24
1.17704e-23
1.35704e-23
1.06877e-22
4.97032e-21
2.52091e-19
9.11124e-18
2.43524e-16
4.33988e-15
3.79091e-14
1
1
1
1
1
1
1
1
1
1
1
1
1
1
1
1
1
1
1
1
1
1
1
1
1
1
1
1
1
1
1
1
1
1
1
1
1
1
1
1
1
1
1
1
1
1
1
1
1
1
1
1
1
1
1
1
1
1
1
1
1
1
1
1
1
1
1
1
1
1
1
1
1
1
1
1
1
1
1
1
0.00013114
0.000128042
0.00012206
0.000113467
0.000102888
9.11664e-05
7.9527e-05
6.89971e-05
6.08956e-05
5.65096e-05
3.16484e-09
3.19781e-09
3.1425e-09
3.03564e-09
2.86318e-09
2.62129e-09
2.33187e-09
2.0318e-09
1.78145e-09
1.6552e-09
5.04904e-11
5.18329e-11
5.15394e-11
5.05531e-11
4.84532e-11
4.49969e-11
4.05338e-11
3.69157e-11
4.40221e-11
8.32391e-11
1.29397e-12
1.33998e-12
1.33295e-12
1.30854e-12
1.25541e-12
1.17303e-12
1.14303e-12
2.53026e-12
1.10486e-11
3.8447e-11
3.47619e-14
3.66328e-14
3.6911e-14
3.68584e-14
3.62507e-14
3.82689e-14
1.01803e-13
8.23267e-13
1.17286e-12
2.14184e-12
2.03621e-15
2.15974e-15
2.16925e-15
2.14452e-15
2.16328e-15
3.7377e-15
1.8054e-14
4.95928e-14
1.25478e-13
4.79517e-13
7.53261e-17
8.14422e-17
8.28386e-17
8.53924e-17
1.15107e-16
4.01889e-16
3.29948e-15
3.41126e-14
1.46376e-13
2.65204e-13
2.83378e-18
3.1223e-18
3.24567e-18
3.7648e-18
8.75269e-18
8.93753e-17
2.7415e-15
3.39954e-14
1.69337e-13
2.62109e-13
1.17821e-19
1.32362e-19
1.416e-19
2.16559e-19
2.1261e-18
8.1951e-17
2.50447e-15
3.185e-14
1.65394e-13
2.51923e-13
5.22033e-21
5.98713e-21
6.89459e-21
4.04205e-20
1.51255e-18
7.32278e-17
2.22277e-15
2.88863e-14
1.46466e-13
2.43454e-13
2.43128e-22
2.87043e-22
6.36421e-22
2.00823e-20
1.32928e-18
6.4719e-17
2.01708e-15
2.665e-14
1.31075e-13
2.34869e-13
1.18085e-23
1.58397e-23
1.97729e-22
1.76467e-20
1.17792e-18
5.83251e-17
1.86348e-15
2.4878e-14
1.18962e-13
2.30933e-13
1
1
1
1
1
1
1
1
1
1
1
1
1
1
1
1
1
1
1
1
1
1
1
1
1
1
1
1
1
1
1
1
1
1
1
1
1
1
1
1
1
1
1
1
1
1
1
1
1
1
1
1
1
1
1
1
1
1
1
1
1
1
1
1
1
1
1
1
1
1
1
1
1
1
1
1
1
1
1
1
0.000125647
0.000121995
0.000114964
0.000104771
9.20359e-05
7.76927e-05
6.31348e-05
4.97071e-05
3.95687e-05
3.415e-05
3.12919e-09
3.14572e-09
3.05978e-09
2.89646e-09
2.63336e-09
2.26647e-09
1.83406e-09
1.42365e-09
1.26211e-09
1.92073e-09
5.05426e-11
5.16286e-11
5.08419e-11
4.8855e-11
4.50573e-11
3.946e-11
3.68422e-11
7.66934e-11
2.2388e-10
9.49358e-10
1.29735e-12
1.33583e-12
1.31515e-12
1.2632e-12
1.1785e-12
1.31996e-12
5.4775e-12
3.63396e-11
4.40605e-11
8.32535e-11
3.53022e-14
3.7019e-14
3.69785e-14
3.65505e-14
4.42327e-14
2.18189e-13
1.18962e-12
2.7208e-12
1.05378e-11
4.43296e-11
2.06634e-15
2.17661e-15
2.14719e-15
2.22652e-15
6.12182e-15
3.86035e-14
1.01455e-13
1.01117e-12
7.91106e-12
2.93858e-11
7.75327e-17
8.31905e-17
8.57973e-17
1.38573e-16
7.4507e-16
1.19126e-14
1.4139e-13
5.69436e-13
5.08949e-12
1.86831e-11
2.95843e-18
3.26195e-18
3.87265e-18
1.43611e-17
2.52867e-16
1.06609e-14
1.39152e-13
6.15591e-13
2.62921e-12
9.23127e-12
1.24427e-19
1.42372e-19
2.36856e-19
3.37764e-18
2.34885e-16
9.55004e-15
1.33383e-13
6.03859e-13
2.35938e-12
6.41155e-12
5.56916e-21
6.93897e-21
5.88396e-20
3.13134e-18
2.06956e-16
8.4417e-15
1.2744e-13
5.88501e-13
2.1817e-12
5.86625e-12
2.63037e-22
6.43686e-22
3.06276e-20
2.75833e-18
1.82545e-16
7.65235e-15
1.24156e-13
5.68995e-13
2.00418e-12
5.65481e-12
1.37122e-23
2.00075e-22
2.69352e-20
2.44999e-18
1.64634e-16
7.05896e-15
1.19543e-13
5.43907e-13
1.91797e-12
5.47809e-12
1
1
1
1
1
1
1
1
1
1
1
1
1
1
1
1
1
1
1
1
1
1
1
1
1
1
1
1
1
1
1
1
1
1
1
1
1
1
1
1
1
1
1
1
1
1
1
1
1
1
1
1
1
1
1
1
1
1
1
1
1
1
1
1
1
1
1
1
1
1
1
1
1
1
1
1
1
1
0.999998
0.999994
0.000117793
0.000113309
0.000104665
9.19754e-05
7.58492e-05
5.72851e-05
3.82584e-05
2.14978e-05
1.01543e-05
7.2664e-06
3.05555e-09
3.04271e-09
2.8997e-09
2.63264e-09
2.20994e-09
1.6446e-09
1.08265e-09
1.18605e-09
9.69419e-10
4.28467e-09
5.01689e-11
5.07574e-11
4.89575e-11
4.5035e-11
3.86288e-11
3.84967e-11
9.61049e-11
6.39644e-10
7.80008e-10
1.53148e-09
1.29079e-12
1.3153e-12
1.2667e-12
1.18103e-12
1.51544e-12
9.31484e-12
3.51728e-11
7.50108e-11
2.23946e-10
9.49359e-10
3.57478e-14
3.71186e-14
3.66974e-14
4.74129e-14
3.31525e-13
1.3847e-12
5.24683e-12
5.2564e-11
4.80421e-10
2.1899e-09
2.09177e-15
2.16257e-15
2.23856e-15
7.07745e-15
4.54315e-14
2.18959e-13
3.78685e-12
4.35077e-11
3.79821e-10
1.57675e-09
7.99273e-17
8.6296e-17
1.40009e-16
9.71296e-16
2.20977e-14
3.47558e-13
2.29241e-12
2.85493e-11
2.3359e-10
9.38814e-10
3.11573e-18
3.8188e-18
1.46273e-17
3.59518e-16
1.98579e-14
3.33907e-13
1.95312e-12
1.43057e-11
1.1138e-10
4.39729e-10
1.34665e-19
2.19379e-19
3.44955e-18
3.3312e-16
1.76958e-14
3.08805e-13
1.94808e-12
1.22335e-11
6.58756e-11
1.8147e-10
6.36129e-21
4.15468e-20
3.19082e-18
2.92754e-16
1.56781e-14
2.81844e-13
1.85603e-12
1.17795e-11
5.14223e-11
7.74095e-11
4.04821e-22
2.07466e-20
2.8072e-18
2.59108e-16
1.42407e-14
2.61913e-13
1.75963e-12
1.13866e-11
4.02908e-11
4.62597e-11
1.10876e-22
1.81903e-20
2.49162e-18
2.34219e-16
1.31476e-14
2.46698e-13
1.69296e-12
1.11856e-11
2.85683e-11
2.54496e-11
1
1
1
1
1
1
1
1
1
1
1
1
1
1
1
1
1
1
1
1
1
1
1
1
1
1
1
1
1
1
1
1
1
1
1
1
1
1
1
1
1
1
1
1
1
1
1
1
1
1
1
1
1
1
1
1
1
1
1
1
1
1
1
1
1
1
1
1
1
1
1
1
1
1
1
1
0.999998
0.999982
0.999964
0.999953
0.000108172
0.000102595
9.17698e-05
7.56597e-05
5.48076e-05
3.11236e-05
9.32658e-06
2.49986e-06
5.81717e-11
4.16775e-11
2.93175e-09
2.87271e-09
2.63719e-09
2.20868e-09
1.56654e-09
8.91808e-10
1.62658e-10
1.07388e-09
5.81611e-11
2.37387e-10
4.90248e-11
4.87572e-11
4.5218e-11
3.86558e-11
3.98254e-11
1.17741e-10
4.5074e-10
7.66855e-10
9.69404e-10
4.28366e-09
1.2654e-12
1.26581e-12
1.18497e-12
1.52906e-12
1.13928e-11
3.81731e-11
9.57694e-11
6.69485e-10
5.72985e-09
2.84191e-08
3.576e-14
3.66832e-14
4.4926e-14
3.38708e-13
1.57301e-12
9.00998e-12
1.39402e-10
1.85153e-09
1.61859e-08
6.93798e-08
2.08266e-15
2.19694e-15
6.27097e-15
4.61524e-14
3.50916e-13
8.11558e-12
1.27133e-10
1.52275e-09
1.35123e-08
5.20763e-08
8.19183e-17
1.18103e-16
7.77598e-16
2.26802e-14
5.14708e-13
5e-12
6.1467e-11
6.34494e-10
8.72708e-09
3.32045e-08
3.40976e-18
9.17821e-18
2.65058e-16
2.04266e-14
4.98042e-13
4.54666e-12
9.37122e-12
1.57626e-10
4.6911e-09
1.75864e-08
1.67678e-19
2.2067e-18
2.4612e-16
1.82063e-14
4.96639e-13
4.14943e-12
3.10025e-12
3.42844e-11
3.84185e-09
1.44833e-08
1.75099e-20
1.60036e-18
2.15937e-16
1.61825e-14
4.85027e-13
3.79705e-12
2.04216e-12
2.65643e-11
4.1299e-09
1.1543e-08
6.27597e-21
1.40095e-18
1.89992e-16
1.47847e-14
4.78911e-13
3.53859e-12
1.79973e-12
3.80425e-11
4.53361e-09
8.6901e-09
5.27374e-21
1.23674e-18
1.70865e-16
1.37403e-14
4.68082e-13
3.35215e-12
1.71645e-12
6.77695e-11
5.15322e-09
5.78146e-09
1
1
1
1
1
1
1
1
1
1
1
1
1
1
1
1
1
1
1
1
1
1
1
1
1
1
1
1
1
1
1
1
1
1
1
1
1
1
1
1
1
1
1
1
1
1
1
1
1
1
1
1
1
1
1
1
1
1
1
1
1
1
1
1
1
1
1
1
1
1
1
1
1
1
1
0.999995
0.999968
0.999933
0.999903
0.999886
9.75975e-05
9.06951e-05
7.71972e-05
5.68003e-05
3.08021e-05
6.89214e-06
7.76978e-12
7.76978e-12
3.22797e-11
2.37642e-10
2.75425e-09
2.63053e-09
2.26585e-09
1.63476e-09
8.84224e-10
1.62659e-10
7.76851e-12
6.18619e-11
6.82015e-10
4.88359e-09
4.68777e-11
4.53492e-11
3.95939e-11
3.88234e-11
1.18983e-10
4.30891e-10
1.62721e-10
1.80315e-09
1.62861e-08
9.18528e-08
1.21452e-12
1.18652e-12
1.34851e-12
9.67921e-12
3.85167e-11
1.17995e-10
1.2945e-09
1.54977e-08
1.30207e-07
6.09112e-07
3.50925e-14
3.92283e-14
2.31932e-13
1.41487e-12
9.41639e-12
2.22473e-10
3.84931e-09
4.58562e-08
3.6617e-07
1.45313e-06
2.05155e-15
3.94968e-15
3.96384e-14
2.33665e-13
8.60283e-12
2.29792e-10
3.69425e-09
4.08183e-08
3.23193e-07
1.13265e-06
9.08516e-17
4.16902e-16
1.27716e-14
3.68496e-13
5.31531e-12
1.54116e-10
1.17251e-09
1.46504e-08
2.16249e-07
7.8651e-07
5.50987e-18
9.75249e-17
1.14361e-14
3.54902e-13
5.14073e-12
1.24475e-10
2.91911e-10
3.48078e-09
1.6723e-07
6.10267e-07
7.62805e-19
9.00591e-17
1.02066e-14
3.34198e-13
5.56348e-12
1.4963e-10
5.97799e-11
5.90729e-10
1.48823e-07
6.18453e-07
3.61758e-19
7.96565e-17
8.96193e-15
3.10398e-13
5.80265e-12
1.70262e-10
1.50724e-11
9.83676e-11
1.37568e-07
6.13682e-07
3.11022e-19
6.98109e-17
8.07528e-15
2.95238e-13
5.95514e-12
1.82164e-10
5.70771e-12
3.72899e-11
1.24141e-07
5.91669e-07
2.73483e-19
6.24514e-17
7.41782e-15
2.83448e-13
6.159e-12
1.93323e-10
3.82084e-12
4.21896e-11
1.09545e-07
5.66227e-07
1
1
1
1
1
1
1
1
1
1
1
1
1
1
1
1
1
1
1
1
1
1
1
1
1
1
1
1
1
1
1
1
1
1
1
1
1
1
1
1
1
1
1
1
1
1
1
1
1
1
1
1
1
1
1
1
1
1
1
1
1
1
1
1
1
1
1
1
1
1
1
1
1
1
0.999997
0.999968
0.99992
0.999869
0.999823
0.999795
8.70592e-05
7.87072e-05
6.22035e-05
3.72832e-05
8.92593e-06
7.83015e-12
7.54316e-12
6.19151e-11
6.82641e-10
4.8895e-09
2.53586e-09
2.33366e-09
1.81962e-09
1.0594e-09
1.65228e-10
7.88873e-12
7.66814e-11
1.17363e-09
1.28049e-08
8.70015e-08
4.38135e-11
4.08084e-11
3.71934e-11
9.847e-11
4.44658e-10
1.65291e-10
2.69131e-09
3.26895e-08
2.83893e-07
1.52847e-06
1.14028e-12
1.16783e-12
5.86314e-12
3.55243e-11
9.81493e-11
1.34763e-09
2.4985e-08
2.77403e-07
2.09186e-06
9.04243e-06
3.43258e-14
1.12589e-13
1.21712e-12
5.63132e-12
1.51022e-10
4.07769e-09
7.67469e-08
8.22316e-07
5.72324e-06
2.01963e-05
2.25513e-15
2.0404e-14
1.10356e-13
4.23743e-12
1.40984e-10
4.23029e-09
1.05465e-07
7.67515e-07
5.35568e-06
1.6295e-05
1.90651e-16
3.74803e-15
1.5337e-13
2.5878e-12
8.69744e-11
3.39871e-09
1.68119e-07
3.67867e-07
2.188e-06
1.20456e-05
2.83333e-17
3.12899e-15
1.53571e-13
2.22917e-12
2.66725e-11
5.54841e-09
2.37124e-07
9.10714e-08
7.6377e-07
5.96512e-06
1.44534e-17
2.85158e-15
1.44258e-13
1.97185e-12
3.91334e-12
6.87766e-09
2.60518e-07
1.90834e-08
6.56863e-07
3.6193e-06
1.30615e-17
2.50168e-15
1.34934e-13
1.8299e-12
2.33021e-12
7.58759e-09
2.45184e-07
4.59926e-09
3.4307e-07
3.91274e-06
1.14579e-17
2.25395e-15
1.28679e-13
1.7278e-12
1.92206e-12
7.33621e-09
2.22734e-07
4.87294e-10
9.31348e-08
3.97026e-06
1.01631e-17
2.0766e-15
1.24131e-13
1.6426e-12
1.72393e-12
7.05641e-09
2.04017e-07
2.97387e-10
4.19196e-08
4.42018e-06
1
1
1
1
1
1
1
1
1
1
1
1
1
1
1
1
1
1
1
1
1
1
1
1
1
1
1
1
1
1
1
1
1
1
1
1
1
1
1
1
1
1
1
1
1
1
1
1
1
1
1
1
1
1
1
1
1
1
1
1
1
1
1
1
1
1
1
1
1
1
1
1
1
1
0.99998
0.999931
0.999867
0.999795
0.999724
0.999679
7.76868e-05
6.79211e-05
4.83814e-05
2.0003e-05
2.16152e-06
7.89004e-12
6.40195e-11
1.17403e-09
1.2809e-08
8.70619e-08
2.30864e-09
2.02671e-09
1.39668e-09
1.12193e-09
1.15705e-09
6.39698e-11
1.1997e-09
3.62762e-08
6.85851e-07
2.2098e-06
4.03455e-11
3.72909e-11
7.82485e-11
6.09123e-10
7.50044e-10
1.89094e-09
3.39508e-08
1.04757e-06
1.12012e-05
6.05717e-05
1.06821e-12
2.79875e-12
3.63342e-11
7.65656e-11
7.1356e-10
1.67226e-08
2.90868e-07
8.29171e-06
5.52653e-05
0.000319446
4.83934e-14
9.72651e-13
2.87614e-12
6.06338e-11
2.06751e-09
5.16015e-08
9.11732e-07
2.93299e-05
0.000131185
0.000779448
7.69663e-15
5.53264e-14
1.20878e-12
4.73604e-11
1.79073e-09
4.68722e-08
1.53507e-06
6.99321e-05
0.000152436
0.000518434
1.01944e-15
3.8641e-14
6.95661e-13
1.37201e-11
6.37717e-10
1.83006e-08
3.60225e-06
9.62888e-05
0.000137455
0.000239282
4.0661e-16
4.00906e-14
6.69338e-13
3.39496e-12
1.4359e-10
4.90632e-09
4.43679e-06
9.9542e-05
0.000144191
0.000334399
3.90169e-16
3.77356e-14
6.41652e-13
1.04105e-12
2.52214e-11
1.10469e-09
4.44722e-06
9.42221e-05
7.51329e-05
0.000204066
3.4457e-16
3.51653e-14
5.97992e-13
6.95164e-13
4.50822e-12
2.30561e-10
4.13381e-06
8.91718e-05
6.96933e-06
6.40958e-05
3.08103e-16
3.30623e-14
5.65697e-13
9.47207e-13
1.52655e-12
5.15364e-11
3.76388e-06
8.46922e-05
1.581e-07
6.18539e-05
2.8059e-16
3.13453e-14
5.43823e-13
1.19619e-12
1.36904e-12
2.28911e-11
3.43365e-06
8.10767e-05
5.60383e-08
3.86661e-05
1
1
1
1
1
1
1
1
1
1
1
1
1
1
1
1
1
1
1
1
1
1
1
1
1
1
1
1
1
1
1
1
1
1
1
1
1
1
1
1
1
1
1
1
1
1
1
1
1
1
1
1
1
1
1
1
1
1
1
1
1
1
1
1
1
1
1
1
1
1
1
1
1
0.999997
0.999962
0.999899
0.999818
0.99972
0.999617
0.999557
7.06071e-05
5.96623e-05
3.79557e-05
9.29069e-06
6.30157e-11
3.4739e-11
7.3009e-10
1.34254e-08
1.78114e-07
1.15246e-06
2.11728e-09
1.7749e-09
1.25573e-09
1.01955e-09
6.30032e-11
7.29395e-10
1.34214e-08
7.1878e-07
1.27382e-05
4.11337e-05
3.74399e-11
4.72717e-11
2.51815e-10
7.75013e-10
1.01951e-09
1.77059e-08
3.02488e-07
1.27417e-05
0.000281277
0.000596939
1.18272e-12
1.35812e-11
4.73135e-11
2.51881e-10
6.50937e-09
1.43022e-07
2.25955e-06
7.43718e-05
0.00153068
0.00248481
1.55888e-13
1.27035e-12
1.29424e-11
5.94407e-10
1.93948e-08
4.27493e-07
6.47078e-06
0.000219589
0.00410817
0.00733986
3.616e-14
1.56823e-13
9.95362e-12
5.01417e-10
1.73608e-08
4.03271e-07
6.43678e-06
0.000351179
0.00736623
0.0161794
8.76313e-15
1.36994e-13
6.65927e-12
3.09412e-10
7.04803e-09
1.58148e-07
2.84998e-06
0.000400712
0.00888766
0.0181242
7.86099e-15
1.85806e-13
3.24025e-12
1.57207e-10
2.53992e-09
3.50183e-08
7.37883e-07
0.000395354
0.00896258
0.0173469
6.98654e-15
1.74056e-13
2.93854e-12
1.19828e-10
2.10815e-09
1.17396e-08
1.23561e-07
0.000350679
0.00816086
0.0179207
6.17633e-15
1.51518e-13
2.80102e-12
1.12706e-10
2.0817e-09
1.12928e-08
2.06727e-08
0.000293236
0.00708673
0.0209684
5.56164e-15
1.33503e-13
2.68881e-12
1.07049e-10
1.91568e-09
1.05659e-08
1.14146e-08
0.000239184
0.00619556
0.0267461
5.07852e-15
1.19826e-13
2.59266e-12
1.00971e-10
1.78256e-09
1.08335e-08
1.11895e-08
0.000192738
0.00550873
0.035332
1
1
1
1
1
1
1
1
1
1
1
1
1
1
1
1
1
1
1
1
1
1
1
1
1
1
1
1
1
1
1
1
1
1
1
1
1
1
1
1
1
1
1
1
1
1
1
1
1
1
1
1
1
1
1
1
1
1
1
1
1
1
1
1
1
1
1
1
1
1
1
1
1
0.999992
0.999949
0.99988
0.999787
0.99967
0.999549
0.999488
6.67713e-05
5.51531e-05
3.22835e-05
6.35042e-06
5.67993e-11
2.64233e-10
5.36981e-09
9.32853e-08
1.20086e-06
2.02034e-05
2.00566e-09
1.65389e-09
1.99269e-09
4.88682e-09
2.6392e-10
5.36424e-09
9.32334e-08
1.93245e-06
3.70267e-05
8.39128e-05
3.64836e-11
8.93454e-11
1.04063e-09
1.54719e-09
4.88553e-09
1.03519e-07
1.67634e-06
6.02126e-05
0.00057148
0.000859106
2.03218e-12
3.95278e-11
8.93611e-11
1.17381e-09
3.46104e-08
7.18822e-07
1.03449e-05
0.000361071
0.00243742
0.00338982
6.28828e-13
2.31817e-12
6.23056e-11
3.03753e-09
9.35473e-08
1.87992e-06
2.52097e-05
0.000972626
0.00785972
0.0072177
1.55717e-13
6.7771e-13
4.49818e-11
2.36397e-09
7.59849e-08
1.59564e-06
2.19309e-05
0.000794871
0.0195362
0.0749824
8.90561e-14
3.90654e-13
2.7827e-11
1.39792e-09
4.82662e-08
1.06418e-06
1.37075e-05
0.000434174
0.0223886
0.226707
7.66728e-14
3.56971e-13
1.33899e-11
5.96085e-10
2.98299e-08
8.90158e-07
4.45622e-06
0.000498439
0.0211536
0.320568
6.65138e-14
3.35666e-13
8.34639e-12
1.8625e-10
2.44779e-08
8.59151e-07
4.8418e-06
0.000190216
0.0211738
0.323758
5.83299e-14
3.19485e-13
7.36361e-12
4.84354e-11
1.94598e-08
8.25338e-07
4.80321e-06
1.2554e-05
0.0232749
0.32426
5.20719e-14
3.11986e-13
6.86462e-12
8.14904e-12
1.50801e-08
7.90537e-07
4.96469e-06
5.126e-06
0.0280459
0.32441
4.70674e-14
3.08037e-13
6.52109e-12
7.07388e-12
1.07579e-08
7.5227e-07
5.07608e-06
2.43926e-05
0.0356077
0.32441
1
1
1
1
1
1
1
1
1
1
1
1
1
1
1
1
1
1
1
1
1
1
1
1
1
1
1
1
1
1
1
1
1
1
1
1
1
1
1
1
1
1
1
1
1
1
1
1
1
1
1
1
1
1
1
1
1
1
1
1
1
1
1
1
1
1
1
1
1
1
1
1
1
0.999992
0.99995
0.99988
0.999788
0.999672
0.999552
0.999496
6.66887e-05
5.50796e-05
3.22266e-05
6.33938e-06
5.28025e-11
2.25237e-10
4.59939e-09
8.00464e-08
1.02868e-06
1.21403e-05
1.99862e-09
1.6461e-09
1.98116e-09
4.45058e-09
2.24896e-10
4.59424e-09
7.99993e-08
1.55775e-06
2.94576e-05
6.51227e-05
3.63332e-11
8.80383e-11
1.04842e-09
1.43166e-09
4.4469e-09
9.43791e-08
1.52734e-06
5.73089e-05
0.000515944
0.000742905
2.07401e-12
3.90705e-11
8.80472e-11
1.13786e-09
3.35361e-08
6.9628e-07
1.00444e-05
0.00036225
0.00232312
0.00316994
6.69465e-13
2.32153e-12
6.50535e-11
3.17767e-09
9.77955e-08
1.96439e-06
2.63037e-05
0.00100117
0.00751288
0.0069238
1.61329e-13
7.24203e-13
4.98633e-11
2.62347e-09
8.42912e-08
1.76691e-06
2.42015e-05
0.000942424
0.0202435
0.0676899
9.31318e-14
4.21941e-13
3.06089e-11
1.54754e-09
5.32231e-08
1.16011e-06
1.37126e-05
0.00051706
0.0237048
0.222358
8.08381e-14
3.7536e-13
1.46733e-11
6.40344e-10
3.42776e-08
9.96911e-07
5.39933e-06
0.000464939
0.0226878
0.319929
6.94904e-14
3.51891e-13
8.80464e-12
1.89063e-10
2.61064e-08
9.26934e-07
6.30909e-06
0.000144849
0.0226552
0.323531
6.07218e-14
3.37292e-13
7.65211e-12
4.28093e-11
1.99374e-08
8.84235e-07
6.25959e-06
6.03033e-06
0.0244476
0.3241
5.40943e-14
3.26022e-13
7.09168e-12
8.49583e-12
1.50942e-08
8.44295e-07
6.33964e-06
6.10789e-06
0.0288175
0.324346
4.88001e-14
3.21482e-13
6.72968e-12
7.31662e-12
1.01549e-08
8.12047e-07
6.42462e-06
3.16115e-05
0.036286
0.32441
1
1
1
1
1
1
1
1
1
1
1
1
1
1
1
1
1
1
1
1
1
1
1
1
1
1
1
1
1
1
1
1
1
1
1
1
1
1
1
1
1
1
1
1
1
1
1
1
1
1
1
1
1
1
1
1
1
1
1
1
1
1
1
1
1
1
1
1
1
1
1
1
1
0.999997
0.999962
0.9999
0.99982
0.999723
0.999624
0.999566
7.03598e-05
5.94373e-05
3.77886e-05
9.25184e-06
5.28025e-11
2.7736e-11
6.14298e-10
1.13452e-08
1.44819e-07
9.33412e-07
2.09635e-09
1.75454e-09
1.22427e-09
9.24677e-10
5.27625e-11
6.1358e-10
1.13421e-08
5.54152e-07
9.8871e-06
2.76081e-05
3.69565e-11
4.65283e-11
2.3726e-10
7.35621e-10
9.24236e-10
1.56795e-08
2.69142e-07
1.13874e-05
0.00023242
0.000485643
1.16817e-12
1.35338e-11
4.65657e-11
2.37224e-10
6.05592e-09
1.33438e-07
2.11258e-06
7.55554e-05
0.00140011
0.00224619
1.61061e-13
1.25565e-12
1.2969e-11
5.94973e-10
1.93676e-08
4.26773e-07
6.47878e-06
0.000249579
0.00391836
0.00651927
3.84191e-14
1.56811e-13
9.70276e-12
5.35287e-10
1.81691e-08
4.37089e-07
6.92194e-06
0.000435239
0.00728553
0.0146423
8.23594e-15
5.1266e-14
5.61772e-12
2.67246e-10
7.08125e-09
1.84619e-07
3.35028e-06
0.000521959
0.00893521
0.0168353
7.46007e-15
1.1961e-13
2.50437e-12
1.3206e-10
1.78537e-09
4.44564e-08
9.738e-07
0.000517331
0.00909505
0.0161755
6.56023e-15
1.06456e-13
2.25701e-12
9.00889e-11
5.73479e-10
7.09531e-09
1.80283e-07
0.000480898
0.0083465
0.0174586
5.77795e-15
9.1989e-14
2.24372e-12
8.65055e-11
6.8451e-10
7.35327e-09
2.23889e-08
0.000435385
0.00721938
0.0212251
5.19248e-15
8.0889e-14
2.20692e-12
8.17983e-11
6.8852e-10
8.46932e-09
9.58828e-09
0.000384453
0.00632164
0.0274877
4.72958e-15
7.19379e-14
2.15951e-12
7.51077e-11
6.63419e-10
9.42169e-09
9.61036e-09
0.000332731
0.00563714
0.0364377
1
1
1
1
1
1
1
1
1
1
1
1
1
1
1
1
1
1
1
1
1
1
1
1
1
1
1
1
1
1
1
1
1
1
1
1
1
1
1
1
1
1
1
1
1
1
1
1
1
1
1
1
1
1
1
1
1
1
1
1
1
1
1
1
1
1
1
1
1
1
1
1
1
1
0.99998
0.999932
0.999869
0.999798
0.999729
0.999688
7.72744e-05
6.75394e-05
4.80804e-05
1.98279e-05
2.13349e-06
3.78747e-12
3.99027e-11
6.73531e-10
8.00695e-09
5.73786e-08
2.27386e-09
1.99263e-09
1.36615e-09
1.0703e-09
9.95472e-10
5.09583e-11
9.77312e-10
2.02938e-08
4.29927e-07
1.25246e-06
3.9552e-11
3.64173e-11
7.40311e-11
5.80489e-10
6.18066e-10
1.63604e-09
2.8056e-08
7.6437e-07
8.38401e-06
4.6945e-05
1.04278e-12
2.73718e-12
3.44593e-11
7.07971e-11
6.44251e-10
1.52148e-08
2.65307e-07
6.90741e-06
4.16764e-05
0.000261837
4.72669e-14
9.63483e-13
2.69748e-12
5.32328e-11
2.01166e-09
5.0231e-08
9.41813e-07
2.69525e-05
9.67478e-05
0.000670652
7.27492e-15
4.00144e-14
5.88301e-13
4.35604e-11
1.83153e-09
4.83756e-08
2.12697e-06
6.8389e-05
9.05028e-05
0.000453302
7.54497e-16
1.83362e-14
1.48902e-13
1.43615e-11
6.8686e-10
2.0137e-08
5.393e-06
9.60348e-05
6.15427e-05
0.000183022
2.06253e-16
2.26283e-14
7.30689e-14
2.95544e-12
1.69271e-10
6.11053e-09
7.83029e-06
0.000103296
6.98953e-05
0.000244399
2.28533e-16
2.07676e-14
9.03459e-14
6.08847e-13
3.57628e-11
1.76272e-09
8.33138e-06
9.95554e-05
4.53478e-06
0.000143142
2.08151e-16
1.86007e-14
1.06103e-13
1.91269e-13
6.7051e-12
4.60164e-10
7.73208e-06
9.50207e-05
1.29719e-06
3.37656e-05
1.88749e-16
1.71847e-14
1.15405e-13
2.02615e-13
1.27219e-12
1.26874e-10
6.94796e-06
8.98048e-05
1.14251e-06
5.00924e-05
1.73338e-16
1.60972e-14
1.23111e-13
2.92632e-13
5.56462e-13
6.55102e-11
6.37698e-06
8.50806e-05
9.21461e-07
2.05905e-05
1
1
1
1
1
1
1
1
1
1
1
1
1
1
1
1
1
1
1
1
1
1
1
1
1
1
1
1
1
1
1
1
1
1
1
1
1
1
1
1
1
1
1
1
1
1
1
1
1
1
1
1
1
1
1
1
1
1
1
1
1
1
1
1
1
1
1
1
1
1
1
1
1
1
0.999997
0.999968
0.999921
0.999871
0.999827
0.9998
8.64819e-05
7.81631e-05
6.17402e-05
3.69863e-05
8.88497e-06
3.29249e-12
2.69861e-12
2.65682e-11
3.46598e-10
2.75556e-09
2.48791e-09
2.28539e-09
1.77464e-09
1.00931e-09
9.0071e-11
3.7861e-12
3.98778e-11
6.73279e-10
8.00529e-09
5.73606e-08
4.27314e-11
3.96687e-11
3.48188e-11
7.79294e-11
3.60651e-10
9.01264e-11
1.44334e-09
2.1042e-08
2.09607e-07
1.21958e-06
1.10642e-12
1.10559e-12
4.82182e-12
3.1815e-11
7.66979e-11
9.38967e-10
1.66922e-08
2.1247e-07
1.76336e-06
8.02322e-06
3.29684e-14
9.84036e-14
1.0398e-12
4.74701e-12
1.24814e-10
3.47826e-09
6.40361e-08
7.32759e-07
5.27501e-06
1.87225e-05
2.07434e-15
1.51694e-14
8.20325e-14
2.67689e-12
1.138e-10
3.36552e-09
8.43454e-08
7.49076e-07
5.17891e-06
1.54424e-05
1.44875e-16
1.1504e-15
5.46781e-14
9.02074e-13
4.03047e-11
2.66523e-09
1.58868e-07
3.25317e-07
3.32886e-06
1.13041e-05
1.15449e-17
4.94297e-16
5.88391e-14
2.40927e-13
9.61301e-12
4.99566e-09
2.66677e-07
9.36999e-08
2.69497e-06
7.58811e-06
2.46371e-18
6.17561e-16
5.06149e-14
1.24603e-13
2.31763e-12
7.39148e-09
3.29635e-07
2.10998e-08
2.30809e-06
4.64952e-06
2.2308e-18
5.77787e-16
4.40042e-14
9.22868e-14
7.40707e-13
8.50643e-09
3.15006e-07
3.40476e-09
1.83647e-06
5.5412e-06
2.00442e-18
5.29136e-16
3.93722e-14
1.03503e-13
3.70937e-13
8.31562e-09
2.79712e-07
6.89039e-10
1.36942e-06
5.6628e-06
1.76187e-18
4.90049e-16
3.57306e-14
1.12775e-13
2.91111e-13
8.28696e-09
2.54287e-07
4.48885e-10
8.88787e-07
5.96775e-06
1
1
1
1
1
1
1
1
1
1
1
1
1
1
1
1
1
1
1
1
1
1
1
1
1
1
1
1
1
1
1
1
1
1
1
1
1
1
1
1
1
1
1
1
1
1
1
1
1
1
1
1
1
1
1
1
1
1
1
1
1
1
1
1
1
1
1
1
1
1
1
1
1
1
1
0.999995
0.999969
0.999935
0.999905
0.999889
9.68598e-05
8.99895e-05
7.65614e-05
5.63061e-05
3.05537e-05
6.90324e-06
2.76976e-12
2.76976e-12
1.46875e-11
1.24751e-10
2.69483e-09
2.56956e-09
2.20576e-09
1.5815e-09
8.11179e-10
7.02324e-11
2.76873e-12
2.65515e-11
3.46432e-10
2.75377e-09
4.55556e-11
4.39643e-11
3.80484e-11
3.32322e-11
7.7311e-11
2.91729e-10
7.02421e-11
1.05435e-09
1.13958e-08
7.18121e-08
1.17346e-12
1.14061e-12
1.15382e-12
6.48456e-12
3.21009e-11
7.40627e-11
7.63391e-10
1.10869e-08
1.06196e-07
5.28778e-07
3.36678e-14
3.57083e-14
1.53657e-13
1.12312e-12
6.47272e-12
1.50014e-10
2.99016e-09
3.93682e-08
3.30581e-07
1.31985e-06
1.95115e-15
2.74146e-15
3.13942e-14
1.52333e-13
4.67354e-12
1.51153e-10
3.00003e-09
3.8772e-08
3.08421e-07
1.05693e-06
8.13042e-17
2.32776e-16
1.59012e-15
7.80376e-14
1.63333e-12
7.82485e-11
1.14223e-09
1.4618e-08
2.04095e-07
7.268e-07
4.03493e-18
2.10009e-17
6.94121e-16
6.91951e-14
7.6256e-13
4.27628e-11
2.87135e-10
3.47556e-09
1.73583e-07
5.51086e-07
2.09695e-19
1.72983e-18
5.71471e-16
5.74792e-14
9.5447e-13
7.52073e-11
6.82326e-11
6.06655e-10
1.68752e-07
5.35433e-07
2.99589e-20
5.66614e-19
5.07798e-16
4.69651e-14
1.32882e-12
1.02241e-10
1.80813e-11
9.2361e-11
1.54847e-07
5.32368e-07
3.97401e-21
6.37336e-19
4.61237e-16
3.90966e-14
1.59889e-12
1.13741e-10
6.19725e-12
1.22695e-10
1.45058e-07
5.12997e-07
2.25173e-21
6.47174e-19
4.04887e-16
3.23875e-14
1.85958e-12
1.23694e-10
3.65599e-12
6.76472e-11
1.42252e-07
4.8945e-07
1
1
1
1
1
1
1
1
1
1
1
1
1
1
1
1
1
1
1
1
1
1
1
1
1
1
1
1
1
1
1
1
1
1
1
1
1
1
1
1
1
1
1
1
1
1
1
1
1
1
1
1
1
1
1
1
1
1
1
1
1
1
1
1
1
1
1
1
1
1
1
1
1
1
1
1
0.999998
0.999982
0.999966
0.999955
0.000107287
0.000101738
9.0965e-05
7.49635e-05
5.43113e-05
3.09218e-05
9.35687e-06
2.55566e-06
2.73078e-11
1.78088e-11
2.86343e-09
2.80185e-09
2.56449e-09
2.1387e-09
1.50707e-09
8.14115e-10
7.0233e-11
6.20098e-10
2.7292e-11
1.24532e-10
4.75299e-11
4.71756e-11
4.35587e-11
3.67205e-11
3.21784e-11
7.38076e-11
3.41295e-10
5.96114e-10
6.19919e-10
3.29854e-09
1.21908e-12
1.21644e-12
1.12585e-12
1.16455e-12
6.81475e-12
3.1517e-11
6.86675e-11
4.64083e-10
4.57051e-09
2.42134e-08
3.41998e-14
3.48868e-14
3.69393e-14
1.88142e-13
1.1411e-12
5.85536e-12
1.00388e-10
1.50106e-09
1.43869e-08
6.20391e-08
1.9817e-15
2.02251e-15
2.95387e-15
3.27183e-14
1.82057e-13
4.29462e-12
9.64856e-11
1.35544e-09
1.26685e-08
4.79739e-08
7.72133e-17
8.58668e-17
2.38574e-16
2.00829e-15
1.05148e-13
1.58162e-12
3.43832e-11
4.57797e-10
8.04064e-09
3.04092e-08
3.09479e-18
4.11532e-18
3.80521e-17
4.76862e-16
9.4706e-14
1.18426e-12
8.30325e-12
8.68322e-11
4.09243e-09
1.52826e-08
1.36141e-19
3.29588e-19
2.14161e-18
4.92183e-16
8.07161e-14
1.18439e-12
2.30511e-12
1.96597e-11
2.6165e-09
1.09574e-08
6.86948e-21
5.23087e-20
7.41059e-19
4.90994e-16
7.08459e-14
1.12008e-12
1.26921e-12
8.90321e-12
1.87886e-09
7.88628e-09
4.26788e-22
3.76737e-21
7.6461e-19
4.45259e-16
6.45842e-14
1.05928e-12
1.08046e-12
1.04859e-11
1.47376e-09
5.18225e-09
9.38643e-23
2.31363e-21
6.84188e-19
3.89854e-16
6.27923e-14
9.89848e-13
9.98497e-13
1.63173e-11
1.58814e-09
2.10896e-09
1
1
1
1
1
1
1
1
1
1
1
1
1
1
1
1
1
1
1
1
1
1
1
1
1
1
1
1
1
1
1
1
1
1
1
1
1
1
1
1
1
1
1
1
1
1
1
1
1
1
1
1
1
1
1
1
1
1
1
1
1
1
1
1
1
1
1
1
1
1
1
1
1
1
1
1
1
1
0.999998
0.999994
0.000116779
0.00011232
0.000103715
9.11034e-05
7.5121e-05
5.67857e-05
3.80385e-05
2.15186e-05
1.03529e-05
7.50088e-06
2.98109e-09
2.96508e-09
2.81863e-09
2.55001e-09
2.13196e-09
1.57926e-09
1.01577e-09
9.61655e-10
6.20085e-10
3.30071e-09
4.85678e-11
4.90546e-11
4.7148e-11
4.31393e-11
3.64923e-11
3.22413e-11
6.94006e-11
4.64332e-10
6.8479e-10
1.20528e-09
1.24121e-12
1.26223e-12
1.21006e-12
1.11187e-12
1.1411e-12
5.8554e-12
3.07072e-11
6.38516e-11
1.8282e-10
8.00586e-10
3.41082e-14
3.53282e-14
3.45686e-14
3.7041e-14
1.82058e-13
1.06685e-12
4.05491e-12
4.27118e-11
4.20632e-10
1.92977e-09
1.98437e-15
2.04499e-15
1.9879e-15
2.82132e-15
3.18252e-14
1.39795e-13
2.27057e-12
3.60916e-11
3.537e-10
1.43552e-09
7.53779e-17
8.0091e-17
8.21991e-17
2.83606e-16
1.98199e-15
1.26165e-13
1.05213e-12
1.62262e-11
2.16803e-10
8.53049e-10
2.91857e-18
3.18392e-18
4.64995e-18
4.07848e-17
9.14067e-16
1.33402e-13
9.65879e-13
8.33578e-12
1.02267e-10
4.20674e-10
1.24291e-19
1.46878e-19
3.893e-19
2.44704e-18
7.99672e-16
1.13636e-13
1.02331e-12
6.82474e-12
6.35559e-11
2.04874e-10
5.6328e-21
7.76561e-21
6.62246e-20
1.78151e-18
7.31223e-16
9.71282e-14
1.03734e-12
6.54748e-12
5.29044e-11
1.13905e-10
2.71641e-22
6.36988e-22
6.1733e-21
1.7362e-18
6.79936e-16
8.4884e-14
1.02493e-12
6.34965e-12
4.98038e-11
8.46368e-11
1.39441e-23
1.27569e-22
4.98104e-21
1.59503e-18
6.30867e-16
7.47521e-14
9.73848e-13
6.22998e-12
4.01898e-11
7.33786e-11
1
1
1
1
1
1
1
1
1
1
1
1
1
1
1
1
1
1
1
1
1
1
1
1
1
1
1
1
1
1
1
1
1
1
1
1
1
1
1
1
1
1
1
1
1
1
1
1
1
1
1
1
1
1
1
1
1
1
1
1
1
1
1
1
1
1
1
1
1
1
1
1
1
1
1
1
1
1
1
1
0.000124538
0.000120898
0.000113899
0.000103765
9.11321e-05
7.69415e-05
6.25691e-05
4.93671e-05
3.94067e-05
3.41512e-05
3.05118e-09
3.06405e-09
2.97404e-09
2.80695e-09
2.5432e-09
2.18162e-09
1.76019e-09
1.35938e-09
1.17483e-09
1.71074e-09
4.88908e-11
4.98664e-11
4.89605e-11
4.68492e-11
4.29817e-11
3.72977e-11
3.32514e-11
6.64098e-11
1.82794e-10
8.00795e-10
1.24619e-12
1.28088e-12
1.25654e-12
1.20041e-12
1.10599e-12
1.09637e-12
4.11722e-12
3.27117e-11
4.0084e-11
7.5793e-11
3.36359e-14
3.51955e-14
3.50024e-14
3.42065e-14
3.58414e-14
1.40268e-13
9.73483e-13
2.16513e-12
9.20148e-12
3.8648e-11
1.95598e-15
2.05587e-15
2.01555e-15
1.96258e-15
2.87208e-15
2.98106e-14
7.1655e-14
6.36758e-13
6.93051e-12
2.64677e-11
7.28977e-17
7.80408e-17
7.87743e-17
8.14354e-17
2.5143e-16
1.52947e-15
8.40139e-14
3.81441e-13
4.53295e-12
1.70372e-11
2.76827e-18
3.03038e-18
3.12481e-18
4.75928e-18
4.01091e-17
2.16258e-15
9.62698e-14
4.8852e-13
2.68241e-12
9.0394e-12
1.15893e-19
1.29561e-19
1.46851e-19
4.33879e-19
4.68724e-18
1.92811e-15
8.5628e-14
4.89619e-13
2.49949e-12
6.88593e-12
5.16267e-21
5.94292e-21
7.90848e-21
6.82479e-20
4.64188e-18
1.64977e-15
7.89714e-14
4.77616e-13
2.30732e-12
6.36918e-12
2.4149e-22
2.8743e-22
9.12253e-22
1.16833e-20
4.27924e-18
1.44907e-15
7.58464e-14
4.68355e-13
2.09057e-12
6.14156e-12
1.17797e-23
1.60714e-23
1.42744e-22
1.02092e-20
3.73284e-18
1.28292e-15
7.29008e-14
4.61132e-13
2.00177e-12
5.97359e-12
1
1
1
1
1
1
1
1
1
1
1
1
1
1
1
1
1
1
1
1
1
1
1
1
1
1
1
1
1
1
1
1
1
1
1
1
1
1
1
1
1
1
1
1
1
1
1
1
1
1
1
1
1
1
1
1
1
1
1
1
1
1
1
1
1
1
1
1
1
1
1
1
1
1
1
1
1
1
1
1