/*--------------------------------*- C++ -*----------------------------------*\
| =========                 |                                                 |
| \\      /  F ield         | OpenFOAM: The Open Source CFD Toolbox           |
|  \\    /   O peration     | Version:  2312                                  |
|   \\  /    A nd           | Website:  www.openfoam.com                      |
|    \\/     M anipulation  |                                                 |
\*---------------------------------------------------------------------------*/
FoamFile
{
    version     2.0;
    format      ascii;
    arch        "LSB;label=32;scalar=64";
    class       surfaceScalarField;
    location    "0.11";
    object      alphaPhi0.water;
}
// * * * * * * * * * * * * * * * * * * * * * * * * * * * * * * * * * * * * * //

dimensions      [0 3 -1 0 0 0 0];

oriented        oriented;

internalField   nonuniform List<scalar> 
22600
(
-8.69534e-11
1.76534e-10
-8.95806e-11
-1.6581e-10
1.71521e-10
-9.27118e-11
-2.29237e-10
1.62067e-10
-9.86832e-11
-2.70885e-10
1.48701e-10
-1.07103e-10
-2.86197e-10
1.32526e-10
-1.17272e-10
-2.72948e-10
1.14979e-10
-1.28285e-10
-2.31723e-10
9.7767e-11
-1.39041e-10
-1.66133e-10
8.27165e-11
-1.48354e-10
-8.25947e-11
7.15433e-11
-1.55131e-10
6.56016e-11
-1.58499e-10
-9.17742e-11
3.62781e-10
-9.45227e-11
-1.75221e-10
3.52971e-10
-9.80871e-11
-2.42514e-10
3.34167e-10
-1.04896e-10
-2.86973e-10
3.07595e-10
-1.14536e-10
-3.03682e-10
2.75377e-10
-1.26244e-10
-2.90128e-10
2.40327e-10
-1.3899e-10
-2.46767e-10
2.05846e-10
-1.51518e-10
-1.77299e-10
1.75604e-10
-1.6243e-10
-8.85273e-11
1.53104e-10
-1.70396e-10
1.41267e-10
-1.74428e-10
-1.0147e-10
5.68568e-10
-1.04357e-10
-1.94005e-10
5.54229e-10
-1.08796e-10
-2.69017e-10
5.26423e-10
-1.17322e-10
-3.19105e-10
4.87078e-10
-1.29477e-10
-3.38647e-10
4.39207e-10
-1.44359e-10
-3.24539e-10
3.86893e-10
-1.60726e-10
-2.76956e-10
3.35208e-10
-1.76985e-10
-1.99732e-10
2.89624e-10
-1.91279e-10
-1.00426e-10
2.55616e-10
-2.01838e-10
2.37928e-10
-2.07266e-10
-1.1582e-10
8.03264e-10
-1.18914e-10
-2.21788e-10
7.84847e-10
-1.24716e-10
-3.08295e-10
7.48802e-10
-1.35937e-10
-3.66884e-10
6.9765e-10
-1.52044e-10
-3.90845e-10
6.35086e-10
-1.71964e-10
-3.76142e-10
5.66309e-10
-1.94144e-10
-3.2243e-10
4.9794e-10
-2.1646e-10
-2.33661e-10
4.37162e-10
-2.3632e-10
-1.18561e-10
3.91709e-10
-2.51201e-10
3.68033e-10
-2.58822e-10
-1.34462e-10
1.07551e-09
-1.37819e-10
-2.57832e-10
1.05368e-09
-1.45513e-10
-3.59402e-10
1.01082e-09
-1.60491e-10
-4.29352e-10
9.4971e-10
-1.82152e-10
-4.59508e-10
8.74471e-10
-2.09259e-10
-4.44429e-10
7.91033e-10
-2.39821e-10
-3.82967e-10
7.07465e-10
-2.71e-10
-2.79124e-10
6.32402e-10
-2.99102e-10
-1.43052e-10
5.76044e-10
-3.20434e-10
5.46471e-10
-3.31392e-10
-1.56717e-10
1.39258e-09
-1.60373e-10
-3.00671e-10
1.36811e-09
-1.70499e-10
-4.20381e-10
1.32084e-09
-1.90343e-10
-5.04423e-10
1.25301e-09
-2.19293e-10
-5.42717e-10
1.16868e-09
-2.55942e-10
-5.27945e-10
1.07406e-09
-2.97823e-10
-4.57677e-10
9.78326e-10
-3.41154e-10
-3.35513e-10
8.91014e-10
-3.80808e-10
-1.73979e-10
8.25754e-10
-4.11278e-10
7.90186e-10
-4.26942e-10
-1.81925e-10
1.76034e-09
-1.85844e-10
-3.47107e-10
1.7322e-09
-1.98914e-10
-4.8674e-10
1.68512e-09
-2.2466e-10
-5.86876e-10
1.61566e-09
-2.62535e-10
-6.35062e-10
1.5279e-09
-3.11065e-10
-6.21663e-10
1.42793e-09
-3.67297e-10
-5.42259e-10
1.32531e-09
-4.26419e-10
-3.99887e-10
1.23005e-09
-4.81445e-10
-2.09849e-10
1.15989e-09
-5.24203e-10
1.11987e-09
-5.46337e-10
-2.36124e-10
2.23724e-09
-2.40778e-10
-4.58286e-10
2.21375e-09
-2.59391e-10
-6.46977e-10
2.16991e-09
-2.96107e-10
-7.84688e-10
2.10418e-09
-3.50832e-10
-8.54557e-10
2.01958e-09
-4.21838e-10
-8.42921e-10
1.9216e-09
-5.05348e-10
-7.41154e-10
1.81798e-09
-5.94491e-10
-5.53469e-10
1.72086e-09
-6.78547e-10
-2.918e-10
1.64279e-09
-7.44592e-10
1.59761e-09
-7.79632e-10
-2.22493e-11
-1.54794e-13
-2.26972e-11
-4.19162e-11
-1.50407e-13
-2.42243e-11
-5.63096e-11
-1.36101e-13
-2.67394e-11
-6.36947e-11
-1.16027e-13
-3.00107e-11
-6.34744e-11
-9.23832e-14
-3.34721e-11
-5.64977e-11
-7.01513e-14
-3.64755e-11
-4.45274e-11
-5.31657e-14
-3.85393e-11
-2.98639e-11
-4.35191e-14
-3.93801e-11
-1.45651e-11
-4.07726e-14
-3.92233e-11
-4.06355e-14
-3.87938e-11
-1.26216e-13
4.715e-16
-1.28705e-13
-2.40823e-13
5.37074e-16
-1.39403e-13
-3.27861e-13
6.23574e-16
-1.55313e-13
-3.7651e-13
7.45411e-16
-1.76341e-13
-3.80617e-13
8.83008e-16
-1.98886e-13
-3.4258e-13
1.00121e-15
-2.18353e-13
-2.72095e-13
1.06885e-15
-2.30947e-13
-1.83549e-13
1.07217e-15
-2.34534e-13
-9.05052e-14
1.03319e-15
-2.30973e-13
1.05434e-15
-2.26173e-13
-7.01207e-16
3.44734e-17
-7.1469e-16
-1.35687e-15
3.69486e-17
-7.90068e-16
-1.89007e-15
3.87035e-17
-8.961e-16
-2.23204e-15
4.10803e-17
-1.04329e-15
-2.32439e-15
4.35269e-17
-1.21442e-15
-2.15164e-15
4.50705e-17
-1.37524e-15
-1.75001e-15
4.53054e-17
-1.4943e-15
-1.2029e-15
4.57436e-17
-1.54769e-15
-6.03554e-16
4.87292e-17
-1.54454e-15
7.13929e-17
-1.52019e-15
-9.99786e-18
1.24103e-18
-1.01734e-17
-1.94281e-17
1.33871e-18
-1.14111e-17
-2.7339e-17
1.39801e-18
-1.30434e-17
-3.26449e-17
1.4765e-18
-1.53063e-17
-3.436e-17
1.55334e-18
-1.79178e-17
-3.20837e-17
1.61072e-18
-2.05369e-17
-2.62352e-17
1.6314e-18
-2.25059e-17
-1.81193e-17
1.7507e-18
-2.25288e-17
-9.36668e-18
3.80407e-18
-2.60961e-17
1.0773e-17
-4.56158e-17
-1.99292e-19
9.09356e-20
-2.02235e-19
-3.94028e-19
9.82631e-20
-2.31419e-19
-5.63893e-19
1.01884e-19
-2.69601e-19
-6.86801e-19
1.06113e-19
-3.22359e-19
-7.41524e-19
1.09695e-19
-3.8425e-19
-7.08621e-19
1.11294e-19
-4.4608e-19
-5.822e-19
1.11243e-19
-5.15545e-19
-4.5131e-19
1.29034e-19
-7.35604e-19
-4.10998e-19
4.79469e-19
-1.1327e-18
1.48163e-18
-5.10754e-18
-4.96753e-21
3.57263e-21
-5.02641e-21
-9.95205e-21
3.9275e-21
-5.84492e-21
-1.44833e-20
4.11582e-21
-6.85853e-21
-1.80171e-20
4.35078e-21
-8.34883e-21
-1.97572e-20
4.57818e-21
-9.93003e-21
-1.93084e-20
4.76429e-21
-1.19571e-20
-1.78192e-20
5.30971e-21
-1.53853e-20
-2.24758e-20
1.48205e-20
-2.69327e-20
-8.92539e-20
8.23997e-20
-4.85693e-19
4.94527e-19
-3.42685e-18
-1.39233e-22
1.38493e-22
-1.40337e-22
-2.82635e-22
1.55018e-22
-1.65724e-22
-4.16976e-22
1.64422e-22
-1.9504e-22
-5.27784e-22
1.76775e-22
-2.35452e-22
-5.90181e-22
1.9046e-22
-2.86037e-22
-6.10085e-22
2.11615e-22
-3.58077e-22
-7.2859e-22
6.02506e-22
-5.76788e-22
-2.74168e-21
2.62803e-21
-7.26979e-21
-2.66445e-20
3.37657e-20
-2.97411e-20
2.53237e-19
-1.08481e-19
-4.32098e-24
5.87917e-24
-4.33269e-24
-8.88077e-24
6.6963e-24
-5.18891e-24
-1.32611e-23
7.1704e-24
-6.08045e-24
-1.69544e-23
7.81925e-24
-7.2322e-24
-1.95245e-23
8.68185e-24
-9.01435e-24
-2.29875e-23
1.82292e-23
-1.27331e-23
-7.63737e-23
8.58125e-23
-1.62996e-22
-6.20956e-22
1.52703e-21
-9.66249e-22
-1.35839e-20
2.24721e-20
-1.43734e-20
1.90673e-19
-4.8898e-20
-1.45555e-25
2.6382e-25
-1.44972e-25
-3.02518e-25
3.05678e-25
-1.75879e-25
-4.55636e-25
3.2974e-25
-2.01874e-25
-5.84674e-25
3.64849e-25
-2.39281e-25
-7.18418e-25
4.62706e-25
-3.13731e-25
-1.94058e-24
2.48196e-24
-2.11185e-24
-2.09398e-23
6.06572e-23
-2.47494e-23
-3.5219e-22
1.33413e-21
-6.30494e-22
-1.0091e-20
2.01241e-20
-5.31791e-21
1.73225e-19
-2.35083e-20
-5.25267e-27
1.23697e-26
-5.18833e-27
-1.10212e-26
1.45768e-26
-6.35681e-27
-1.65096e-26
1.5817e-26
-6.99361e-27
-2.1827e-26
1.82596e-26
-8.60561e-27
-3.92925e-26
5.59496e-26
-1.73145e-26
-5.4843e-25
1.64618e-24
-3.43515e-25
-1.3771e-23
5.42967e-23
-1.49467e-23
-2.5729e-22
1.20207e-21
-4.39955e-22
-8.12862e-21
1.88117e-20
-3.65362e-21
1.62707e-19
-1.52624e-20
-2.01792e-28
6.01585e-28
-1.97395e-28
-4.2475e-28
7.2106e-28
-2.37595e-28
-6.36994e-28
7.90422e-28
-2.63988e-28
-9.68916e-28
2.69717e-27
-3.76608e-28
-8.9211e-27
3.02964e-26
-4.17162e-27
-3.55107e-25
1.44712e-24
-2.06866e-25
-1.00108e-23
4.78687e-23
-9.65853e-24
-2.04103e-22
1.1056e-21
-3.0349e-22
-6.72654e-21
1.78249e-20
-2.60987e-21
1.52974e-19
-1.09644e-20
-8.20066e-30
-7.93876e-30
3.01911e-29
-1.72224e-29
-9.28913e-30
3.68497e-29
-2.72002e-29
-1.10714e-29
4.47753e-29
-3.32102e-28
-3.61774e-28
4.3503e-28
-5.63631e-27
-2.57521e-27
2.64308e-26
-2.6045e-25
-1.45031e-25
1.2954e-24
-7.82918e-24
-7.047e-24
4.34859e-23
-1.70215e-22
-2.31891e-22
1.03768e-21
-5.7605e-21
-1.98804e-21
1.69702e-20
-8.73846e-21
1.44473e-19
-9.00204e-11
1.71452e-10
-1.71062e-10
-1.71732e-10
1.66037e-10
-1.7712e-10
-2.37572e-10
1.5574e-10
-1.88672e-10
-2.80977e-10
1.4116e-10
-2.0496e-10
-2.97146e-10
1.23461e-10
-2.24668e-10
-2.83669e-10
1.04191e-10
-2.46047e-10
-2.41045e-10
8.52187e-11
-2.66969e-10
-1.72962e-10
6.85949e-11
-2.85115e-10
-8.60404e-11
5.61921e-11
-2.98312e-10
4.94114e-11
-3.04744e-10
-9.52659e-11
3.52828e-10
-1.80712e-10
-1.8198e-10
3.42171e-10
-1.87613e-10
-2.52063e-10
3.21627e-10
-2.00819e-10
-2.98587e-10
2.9254e-10
-2.19521e-10
-3.1635e-10
2.57139e-10
-2.42278e-10
-3.02601e-10
2.18474e-10
-2.6712e-10
-2.57676e-10
1.80283e-10
-2.91596e-10
-1.85311e-10
1.46681e-10
-3.12962e-10
-9.25444e-11
1.21564e-10
-3.28589e-10
1.079e-10
-3.36336e-10
-1.05828e-10
5.54013e-10
-1.99784e-10
-2.0248e-10
5.38349e-10
-2.08416e-10
-2.81072e-10
5.07825e-10
-2.25028e-10
-3.33884e-10
4.64499e-10
-2.48721e-10
-3.54915e-10
4.11557e-10
-2.7782e-10
-3.40705e-10
3.53416e-10
-3.09932e-10
-2.91202e-10
2.95677e-10
-3.41929e-10
-2.10238e-10
2.44556e-10
-3.7016e-10
-1.05718e-10
2.06207e-10
-3.91036e-10
1.85494e-10
-4.01611e-10
-1.21539e-10
7.84573e-10
-2.27996e-10
-2.32963e-10
7.64321e-10
-2.3934e-10
-3.24317e-10
7.24484e-10
-2.61317e-10
-3.86712e-10
6.67692e-10
-2.9291e-10
-4.12914e-10
5.97904e-10
-3.32155e-10
-3.98324e-10
5.20685e-10
-3.76033e-10
-3.42196e-10
4.43435e-10
-4.2037e-10
-2.4833e-10
3.74387e-10
-4.60044e-10
-1.26071e-10
3.2239e-10
-4.89672e-10
2.94425e-10
-5.04879e-10
-1.42087e-10
1.05338e-09
-2.64576e-10
-2.72795e-10
1.02918e-09
-2.79709e-10
-3.81028e-10
9.81379e-10
-3.09205e-10
-4.56411e-10
9.12873e-10
-3.52003e-10
-4.8999e-10
8.27998e-10
-4.05814e-10
-4.75478e-10
7.33139e-10
-4.66815e-10
-4.10973e-10
6.37295e-10
-5.29392e-10
-3.00121e-10
5.50596e-10
-5.86197e-10
-1.53903e-10
4.84916e-10
-6.29209e-10
4.49667e-10
-6.51488e-10
-1.6678e-10
1.36781e-09
-3.08051e-10
-3.2054e-10
1.34051e-09
-3.28092e-10
-4.49361e-10
1.28722e-09
-3.67401e-10
-5.41104e-10
1.21026e-09
-4.24987e-10
-5.84597e-10
1.11381e-09
-4.98306e-10
-5.71235e-10
1.00459e-09
-5.82674e-10
-4.97312e-10
8.92796e-10
-6.70618e-10
-3.65636e-10
7.89784e-10
-7.51718e-10
-1.89553e-10
7.11643e-10
-8.14121e-10
6.69119e-10
-8.46758e-10
-1.94953e-10
1.73193e-09
-3.55009e-10
-3.72943e-10
1.70057e-09
-3.80997e-10
-5.24778e-10
1.64646e-09
-4.32094e-10
-6.35584e-10
1.56618e-09
-5.07674e-10
-6.9148e-10
1.46381e-09
-6.05199e-10
-6.80925e-10
1.34589e-09
-7.19187e-10
-5.97454e-10
1.22298e-09
-8.40111e-10
-4.42474e-10
1.10701e-09
-9.53693e-10
-2.31872e-10
1.01948e-09
-1.04265e-09
9.70836e-10
-1.08923e-09
-2.54716e-10
2.21368e-09
-4.67809e-10
-4.95688e-10
2.1875e-09
-5.05334e-10
-7.0256e-10
2.13664e-09
-5.79417e-10
-8.56674e-10
2.05985e-09
-6.90416e-10
-9.39013e-10
1.96008e-09
-8.35808e-10
-9.32691e-10
1.84277e-09
-1.0086e-09
-8.25663e-10
1.71664e-09
-1.19524e-09
-6.19777e-10
1.5964e-09
-1.37387e-09
-3.27274e-10
1.49863e-09
-1.51625e-09
1.44353e-09
-1.59253e-09
-2.37779e-11
-1.50409e-13
-4.27902e-11
-4.47438e-11
-1.43168e-13
-4.5621e-11
-5.99393e-11
-1.23081e-13
-5.02041e-11
-6.74356e-11
-9.33802e-14
-5.59523e-11
-6.65589e-11
-5.54524e-14
-6.15703e-11
-5.83458e-11
-1.45778e-14
-6.55919e-11
-4.49608e-11
2.4646e-14
-6.69236e-11
-2.93115e-11
5.76349e-14
-6.50859e-11
-1.3832e-11
8.17297e-14
-6.12253e-11
9.80791e-14
-5.76125e-11
-1.3693e-13
5.38126e-16
-2.45889e-13
-2.60853e-13
6.17218e-16
-2.65938e-13
-3.53951e-13
7.29936e-16
-2.95203e-13
-4.03749e-13
8.98205e-16
-3.3219e-13
-4.0313e-13
1.11518e-15
-3.6788e-13
-3.55692e-13
1.33944e-15
-3.9091e-13
-2.74533e-13
1.55061e-15
-3.92266e-13
-1.78919e-13
1.81868e-15
-3.6922e-13
-8.51848e-14
3.12693e-15
-3.32816e-13
5.74302e-15
-3.03855e-13
-7.76725e-16
3.69958e-17
-1.38527e-15
-1.5031e-15
3.97293e-17
-1.53166e-15
-2.088e-15
4.18022e-17
-1.73719e-15
-2.44971e-15
4.46012e-17
-2.01054e-15
-2.51759e-15
4.77015e-17
-2.29513e-15
-2.2794e-15
5.07116e-17
-2.50672e-15
-1.79551e-15
6.02907e-17
-2.5636e-15
-1.19428e-15
1.15159e-16
-2.43904e-15
-6.14658e-16
5.64639e-16
-2.10778e-15
1.44306e-15
-2.88835e-15
-1.12337e-17
1.34062e-18
-1.98206e-17
-2.18392e-17
1.44726e-18
-2.223e-17
-3.06405e-17
1.51952e-18
-2.54214e-17
-3.63404e-17
1.59911e-18
-2.97432e-17
-3.77011e-17
1.71272e-18
-3.43131e-17
-3.43623e-17
1.73481e-18
-3.76935e-17
-2.68414e-17
3.23767e-18
-3.73091e-17
-2.12898e-17
2.17875e-17
-7.97248e-17
-2.53249e-17
3.07104e-17
-1.57742e-16
1.21559e-16
-1.03012e-15
-2.28648e-19
9.84594e-20
-4.01135e-19
-4.51747e-19
1.06267e-19
-4.59404e-19
-6.43416e-19
1.09899e-19
-5.30931e-19
-7.82248e-19
1.13739e-19
-6.35517e-19
-8.22354e-19
1.16442e-19
-7.37241e-19
-8.08815e-19
1.22832e-19
-9.20058e-19
-1.13214e-18
4.06285e-19
-1.58899e-18
-3.27023e-18
2.23984e-18
-2.11265e-17
-1.31115e-17
1.7281e-17
-4.51568e-17
9.37855e-17
-1.12173e-16
-5.79157e-21
3.93676e-21
-1.01075e-20
-1.16068e-20
4.32441e-21
-1.1759e-20
-1.69002e-20
4.52406e-21
-1.37898e-20
-2.07923e-20
4.7615e-21
-1.66766e-20
-2.31778e-20
5.09456e-21
-2.06677e-20
-2.93274e-20
7.66422e-21
-3.35034e-20
-1.24984e-19
5.50524e-20
-3.21423e-19
-1.00913e-18
9.94065e-19
-4.13554e-19
-7.08198e-18
1.35373e-17
4.8446e-18
5.9777e-17
1.25613e-17
-1.64842e-22
1.55429e-22
-2.86027e-22
-3.34687e-22
1.73946e-22
-3.3791e-22
-4.91007e-22
1.84468e-22
-3.96552e-22
-6.19346e-22
1.99641e-22
-4.87204e-22
-7.55399e-22
2.48357e-22
-6.53564e-22
-1.79368e-21
1.03118e-21
-1.97501e-21
-2.2908e-20
2.04007e-20
-3.94915e-20
-3.21848e-19
3.28239e-19
-3.53344e-19
-1.59044e-18
2.75414e-18
5.78831e-18
9.78218e-18
5.32138e-17
-5.18726e-24
6.71582e-24
-8.94257e-24
-1.06541e-23
7.65085e-24
-1.07041e-23
-1.57431e-23
8.21397e-24
-1.25151e-23
-2.06295e-23
9.39961e-24
-1.5807e-23
-3.44931e-23
4.0768e-23
-2.93148e-23
-3.73635e-22
4.9539e-22
-4.44155e-22
-7.08994e-21
1.20982e-20
-1.02527e-20
-8.13897e-20
1.46e-19
-1.40818e-19
-3.05249e-19
9.14853e-19
-5.33682e-19
2.40484e-18
2.10279e-18
-1.76953e-25
3.06632e-25
-3.0261e-25
-3.65938e-25
3.55529e-25
-3.65235e-25
-5.4553e-25
3.87848e-25
-4.26538e-25
-8.14641e-25
1.26604e-24
-5.99684e-25
-1.18899e-23
1.03582e-23
-1.86558e-23
-2.03334e-22
4.05903e-22
-2.38066e-22
-4.10166e-21
1.00822e-20
-6.0464e-21
-4.17551e-20
1.18845e-19
-4.27497e-20
-8.71244e-20
6.32204e-19
-2.43498e-19
1.19675e-18
-5.13599e-19
-6.44584e-27
1.46246e-26
-1.09327e-26
-1.33572e-26
1.72697e-26
-1.32106e-26
-2.08498e-26
2.07522e-26
-1.60175e-26
-1.76378e-25
1.5933e-25
-2.07483e-25
-3.04577e-24
8.22872e-24
-2.47349e-24
-1.37236e-22
3.53807e-22
-1.51166e-22
-3.07241e-21
9.12398e-21
-4.49358e-21
-2.97327e-20
1.10238e-19
-2.79039e-20
-5.13187e-20
5.53155e-19
-1.27832e-19
1.01308e-18
-3.80006e-19
-2.43041e-28
7.23501e-28
-4.17149e-28
-5.25691e-28
8.79515e-28
-5.1474e-28
-1.11073e-27
2.24701e-27
-8.47018e-28
-3.03595e-26
1.12719e-25
-2.22136e-26
-2.02612e-24
7.24097e-24
-1.56443e-24
-1.00439e-22
3.12259e-22
-1.03175e-22
-2.47683e-21
8.49748e-21
-3.52254e-21
-2.24409e-20
1.04875e-19
-2.0537e-20
-4.10587e-20
5.07206e-19
-8.71646e-20
9.68393e-19
-3.29315e-19
-9.5984e-30
-1.67157e-29
3.69771e-29
-2.30864e-29
-2.23774e-29
5.49381e-29
-2.38826e-28
-1.89742e-28
1.10205e-27
-2.07391e-26
-1.48388e-26
1.01531e-25
-1.48546e-24
-1.11122e-24
6.43236e-24
-7.91673e-23
-7.75854e-23
2.86116e-22
-2.09967e-21
-2.86546e-21
8.0491e-21
-1.76971e-20
-1.6227e-20
1.00531e-19
-3.67802e-20
-7.34912e-20
4.72226e-19
-4.5148e-19
9.57281e-19
-9.60034e-11
1.61842e-10
-2.3694e-10
-1.83281e-10
1.5557e-10
-2.45484e-10
-2.53846e-10
1.43622e-10
-2.61812e-10
-3.00672e-10
1.26637e-10
-2.84867e-10
-3.1851e-10
1.05904e-10
-3.12831e-10
-3.04578e-10
8.31787e-11
-3.43243e-10
-2.59184e-10
6.06608e-11
-3.73104e-10
-1.86126e-10
4.0828e-11
-3.9908e-10
-9.25176e-11
2.60693e-11
-4.18061e-10
1.82533e-11
-4.27386e-10
-1.02082e-10
3.33712e-10
-2.5057e-10
-1.95181e-10
3.21298e-10
-2.60341e-10
-2.70746e-10
2.97344e-10
-2.7909e-10
-3.21324e-10
2.63263e-10
-3.0569e-10
-3.41169e-10
2.21519e-10
-3.38156e-10
-3.27054e-10
1.75581e-10
-3.73732e-10
-2.79017e-10
1.29864e-10
-4.08926e-10
-2.00932e-10
8.94352e-11
-4.39733e-10
-1.00302e-10
5.92438e-11
-4.6245e-10
4.31013e-11
-4.7363e-10
-1.14362e-10
5.25759e-10
-2.77529e-10
-2.19085e-10
5.07363e-10
-2.89838e-10
-3.0474e-10
4.71475e-10
-3.13595e-10
-3.62953e-10
4.20238e-10
-3.4757e-10
-3.8699e-10
3.57148e-10
-3.89485e-10
-3.72663e-10
2.87241e-10
-4.35978e-10
-3.19387e-10
2.17161e-10
-4.82558e-10
-2.31114e-10
1.54665e-10
-5.23716e-10
-1.1616e-10
1.07893e-10
-5.54699e-10
8.28388e-11
-5.70198e-10
-1.32772e-10
7.47978e-10
-3.1749e-10
-2.5493e-10
7.23932e-10
-3.33807e-10
-3.55885e-10
6.7655e-10
-3.65502e-10
-4.25918e-10
6.08561e-10
-4.11264e-10
-4.56735e-10
5.242e-10
-4.68443e-10
-4.42592e-10
4.29853e-10
-5.32827e-10
-3.81803e-10
3.34376e-10
-5.98408e-10
-2.77912e-10
2.48318e-10
-6.57626e-10
-1.41052e-10
1.83334e-10
-7.02012e-10
1.48301e-10
-7.24726e-10
-1.57085e-10
1.00992e-09
-3.69458e-10
-3.02279e-10
9.80795e-10
-3.91411e-10
-4.23797e-10
9.23177e-10
-4.34361e-10
-5.10171e-10
8.39902e-10
-4.97023e-10
-5.50917e-10
7.35496e-10
-5.76405e-10
-5.37944e-10
6.17283e-10
-6.67249e-10
-4.6768e-10
4.96078e-10
-7.61386e-10
-3.43023e-10
3.85232e-10
-8.47799e-10
-1.75987e-10
3.00608e-10
-9.13533e-10
2.54725e-10
-9.4783e-10
-1.8667e-10
1.31999e-09
-4.31469e-10
-3.59843e-10
1.28668e-09
-4.60822e-10
-5.06917e-10
1.22144e-09
-5.18631e-10
-6.14363e-10
1.12622e-09
-6.03904e-10
-6.68867e-10
1.0052e-09
-7.13543e-10
-6.5901e-10
8.65938e-10
-8.41209e-10
-5.78278e-10
7.20734e-10
-9.76032e-10
-4.2779e-10
5.8499e-10
-1.10199e-09
-2.22049e-10
4.80055e-10
-1.19932e-09
4.23151e-10
-1.25206e-09
-2.20774e-10
1.68448e-09
-4.98726e-10
-4.24041e-10
1.6461e-09
-5.37165e-10
-6.00334e-10
1.57868e-09
-6.13067e-10
-7.33036e-10
1.47753e-09
-7.263e-10
-8.05337e-10
1.34643e-09
-8.74146e-10
-8.01592e-10
1.19253e-09
-1.04954e-09
-7.10785e-10
1.02855e-09
-1.23875e-09
-5.3112e-10
8.70809e-10
-1.41919e-09
-2.78279e-10
7.48151e-10
-1.5636e-09
6.79437e-10
-1.63847e-09
-2.91512e-10
2.16978e-09
-6.61584e-10
-5.69767e-10
2.13663e-09
-7.1762e-10
-8.1348e-10
2.072e-09
-8.29036e-10
-1.00184e-09
1.97313e-09
-9.97688e-10
-1.11141e-09
1.84184e-09
-1.22166e-09
-1.11853e-09
1.68369e-09
-1.49267e-09
-1.00351e-09
1.51053e-09
-1.79227e-09
-7.61082e-10
1.34129e-09
-2.08679e-09
-4.03186e-10
1.20149e-09
-2.32749e-09
1.1217e-09
-2.45827e-09
-2.6307e-11
-1.36028e-13
-5.75534e-11
-4.93448e-11
-1.22984e-13
-6.11994e-11
-6.56471e-11
-9.11217e-14
-6.68979e-11
-7.2829e-11
-4.07025e-14
-7.33974e-11
-7.00335e-11
2.8706e-14
-7.82701e-11
-5.86869e-11
1.12028e-13
-7.85068e-11
-4.1991e-11
2.023e-13
-7.15476e-11
-2.48863e-11
2.91418e-13
-5.3757e-11
-1.053e-11
3.35855e-13
-3.56666e-11
4.40213e-13
-2.80932e-11
-1.53008e-13
6.26093e-16
-3.35455e-13
-2.90369e-13
7.31658e-16
-3.61665e-13
-3.90857e-13
9.10811e-16
-3.98339e-13
-4.38149e-13
1.1975e-15
-4.39414e-13
-4.22928e-13
1.60051e-15
-4.66185e-13
-3.51756e-13
2.11331e-15
-4.54566e-13
-2.47258e-13
3.04659e-15
-3.86774e-13
-1.43813e-13
6.85846e-15
-2.62976e-13
-6.12136e-14
1.51501e-14
-1.67109e-13
6.01723e-14
-1.10214e-13
-8.84244e-16
3.88495e-17
-1.9356e-15
-1.71084e-15
4.18954e-17
-2.13463e-15
-2.36049e-15
4.47101e-17
-2.40521e-15
-2.72148e-15
4.89424e-17
-2.7286e-15
-2.69608e-15
5.51051e-17
-2.97245e-15
-2.28518e-15
7.66024e-17
-2.94494e-15
-1.65226e-15
2.61758e-16
-2.50715e-15
-1.0374e-15
1.32609e-15
-2.34117e-15
-7.31909e-16
3.93646e-16
-2.99745e-15
1.58888e-15
-1.0873e-14
-1.28939e-17
1.40349e-18
-2.7993e-17
-2.50733e-17
1.52505e-18
-3.1314e-17
-3.4961e-17
1.59633e-18
-3.55978e-17
-4.07096e-17
1.74724e-18
-4.07889e-17
-4.0615e-17
1.80313e-18
-4.46109e-17
-3.42913e-17
5.69614e-18
-4.5763e-17
-6.30023e-17
1.91526e-17
-1.00668e-16
-1.40441e-16
1.23572e-16
-1.03023e-15
-4.1965e-16
3.9988e-16
-2.57899e-15
2.04068e-15
-7.06016e-15
-2.67353e-19
1.0248e-19
-5.77748e-19
-5.24976e-19
1.10321e-19
-6.56218e-19
-7.48927e-19
1.13689e-19
-7.61164e-19
-8.76689e-19
1.16948e-19
-8.77781e-19
-1.01153e-18
1.33733e-19
-1.14611e-18
-2.06751e-18
7.28054e-19
-2.74356e-18
-1.60199e-17
6.90436e-18
-4.32011e-17
-1.42948e-16
1.23773e-16
-5.36962e-17
-9.06663e-16
1.1676e-15
-6.80467e-16
5.3654e-15
-6.85599e-15
-6.83099e-21
4.14437e-21
-1.47812e-20
-1.36786e-20
4.54463e-21
-1.71913e-20
-1.9761e-20
4.75416e-21
-2.00115e-20
-2.50364e-20
5.21109e-21
-2.48692e-20
-4.8104e-20
1.6547e-20
-4.58481e-20
-5.25562e-19
1.67408e-19
-1.05836e-18
-5.00943e-18
5.02786e-18
1.83076e-18
-1.02883e-16
9.18043e-17
9.98662e-17
-5.09855e-16
9.39559e-16
4.97378e-16
3.7115e-15
1.27916e-15
-1.9498e-22
1.65713e-22
-4.2427e-22
-3.94763e-22
1.85426e-22
-4.98463e-22
-5.83501e-22
1.9956e-22
-5.88761e-22
-8.46873e-22
2.83831e-22
-8.30835e-22
-5.68394e-21
2.35741e-21
-7.69114e-21
-1.2243e-19
7.41452e-20
-1.37263e-19
-1.5644e-18
1.5239e-18
-1.30074e-18
-2.21093e-17
1.77263e-17
1.05278e-16
-1.18959e-16
1.52021e-16
9.82218e-16
6.44061e-16
3.44275e-15
-6.1073e-24
7.23235e-24
-1.34285e-23
-1.25288e-23
8.26098e-24
-1.5892e-23
-1.93469e-23
9.52865e-24
-1.94185e-23
-4.78139e-23
3.72683e-23
-4.64718e-23
-1.20424e-21
1.36879e-21
-1.26754e-21
-3.21423e-20
4.5582e-20
-3.90489e-20
-4.81175e-19
6.26053e-19
-6.30389e-19
-3.75298e-18
4.75972e-18
2.33347e-18
-1.98e-17
2.84703e-17
2.50265e-16
1.11919e-16
1.00578e-15
-2.03951e-25
3.32796e-25
-4.58231e-25
-4.29989e-25
3.90248e-25
-5.4637e-25
-7.77552e-25
1.68398e-24
-7.74779e-25
-1.10771e-23
2.05043e-23
-1.06364e-23
-7.20331e-22
1.14573e-21
-7.04989e-22
-2.07916e-20
3.77014e-20
-2.18427e-20
-1.4298e-19
5.02989e-19
-5.28791e-19
-9.27848e-19
2.57147e-18
-2.74498e-18
-4.39257e-18
1.33919e-17
1.02482e-17
4.256e-17
1.88857e-16
-7.12158e-27
1.59708e-26
-1.64422e-26
-1.62847e-26
2.09039e-26
-2.06975e-26
-3.74065e-25
2.36036e-25
-3.74936e-25
-6.39257e-24
1.74604e-23
-5.96861e-24
-4.73232e-22
9.88689e-22
-4.32859e-22
-1.59021e-20
3.3976e-20
-1.47522e-20
-9.99059e-20
4.84074e-19
-5.46132e-19
-4.62339e-19
2.35769e-18
-2.42126e-18
-1.81702e-18
9.76987e-18
3.53828e-19
2.84247e-17
3.05968e-17
-2.71327e-28
7.98425e-28
-6.26832e-28
-8.71475e-28
2.25516e-27
-1.09356e-27
-4.12802e-26
1.71966e-25
-4.02493e-26
-4.23859e-24
1.5082e-23
-3.85991e-24
-3.27543e-22
8.74984e-22
-2.85624e-22
-1.28632e-20
3.15219e-20
-1.07003e-20
-8.49149e-20
4.80074e-19
-4.76367e-19
-3.38325e-19
2.30679e-18
-1.58111e-18
-1.23911e-18
8.72763e-18
1.68219e-19
2.46676e-17
6.30803e-18
-1.14918e-29
-2.64705e-29
4.52939e-29
-1.88479e-28
-2.25492e-28
1.11639e-27
-2.84044e-26
-2.74108e-26
1.55193e-25
-3.09781e-24
-2.76671e-24
1.34223e-23
-2.4959e-22
-2.10397e-22
8.03219e-22
-1.0893e-20
-8.45301e-21
2.9798e-20
-7.38587e-20
-4.22309e-19
4.67817e-19
-2.85581e-19
-9.26069e-19
2.24553e-18
-1.05312e-18
1.5825e-19
8.3611e-18
1.17339e-18
2.33782e-17
-1.04462e-10
1.48247e-10
-2.80762e-10
-1.99617e-10
1.40733e-10
-2.91134e-10
-2.769e-10
1.26372e-10
-3.10986e-10
-3.28634e-10
1.0585e-10
-3.3908e-10
-3.48919e-10
8.06159e-11
-3.73254e-10
-3.34422e-10
5.27296e-11
-4.10553e-10
-2.85159e-10
2.48912e-11
-4.47341e-10
-2.05073e-10
1.85412e-13
-4.79429e-10
-1.01853e-10
-1.85455e-11
-5.02796e-10
-2.83415e-11
-5.14405e-10
-1.11761e-10
3.06668e-10
-2.97299e-10
-2.13939e-10
2.91695e-10
-3.09223e-10
-2.97347e-10
2.62727e-10
-3.32151e-10
-3.53789e-10
2.21259e-10
-3.64773e-10
-3.76735e-10
1.70055e-10
-4.04756e-10
-3.62227e-10
1.1318e-10
-4.48793e-10
-3.09809e-10
5.6077e-11
-4.92633e-10
-2.23606e-10
5.42182e-12
-5.31261e-10
-1.11517e-10
-3.35901e-11
-5.59557e-10
-5.39354e-11
-5.73535e-10
-1.26563e-10
4.85711e-10
-3.30062e-10
-2.42854e-10
4.63295e-10
-3.45219e-10
-3.38715e-10
4.1946e-10
-3.7455e-10
-4.04864e-10
3.56428e-10
-4.16674e-10
-4.33469e-10
2.78047e-10
-4.68949e-10
-4.19212e-10
1.90239e-10
-5.27369e-10
-3.60507e-10
1.01208e-10
-5.86464e-10
-2.62076e-10
2.27385e-11
-6.39526e-10
-1.31655e-10
-4.01592e-11
-6.7861e-10
-7.26262e-11
-6.98232e-10
-1.48951e-10
6.95936e-10
-3.788e-10
-2.86634e-10
6.66221e-10
-3.99096e-10
-4.0165e-10
6.0759e-10
-4.38675e-10
-4.83088e-10
5.22692e-10
-4.96153e-10
-5.2109e-10
4.16112e-10
-5.68564e-10
-5.08116e-10
2.95313e-10
-6.50925e-10
-4.40951e-10
1.71373e-10
-7.35784e-10
-3.22271e-10
5.95198e-11
-8.13131e-10
-1.63661e-10
-2.90062e-11
-8.71806e-10
-7.61912e-11
-9.01566e-10
-1.7886e-10
9.4782e-10
-4.42497e-10
-3.45241e-10
9.1128e-10
-4.70118e-10
-4.8646e-10
8.38819e-10
-5.24418e-10
-5.89533e-10
7.32934e-10
-6.04242e-10
-6.41708e-10
5.98308e-10
-7.06465e-10
-6.31972e-10
4.43305e-10
-8.25006e-10
-5.53963e-10
2.81632e-10
-9.49681e-10
-4.08659e-10
1.32627e-10
-1.06624e-09
-2.10108e-10
1.54051e-11
-1.1565e-09
-5.02795e-11
-1.2028e-09
-2.15807e-10
1.25121e-09
-5.19053e-10
-4.1767e-10
1.20872e-09
-5.56429e-10
-5.92189e-10
1.12514e-09
-6.30471e-10
-7.23962e-10
1.00153e-09
-7.4076e-10
-7.9644e-10
8.41729e-10
-8.84509e-10
-7.93635e-10
6.54059e-10
-1.05478e-09
-7.04029e-10
4.53784e-10
-1.23781e-09
-5.24849e-10
2.64965e-10
-1.41353e-09
-2.74579e-10
1.1926e-10
-1.55347e-09
2.68195e-11
-1.62546e-09
-2.58925e-10
1.6143e-09
-6.02902e-10
-4.9996e-10
1.565e-09
-6.52433e-10
-7.13561e-10
1.47662e-09
-7.50976e-10
-8.80816e-10
1.3422e-09
-8.99738e-10
-9.80585e-10
1.16457e-09
-1.09723e-09
-9.90506e-10
9.50916e-10
-1.33649e-09
-8.90792e-10
7.1624e-10
-1.60093e-09
-6.75177e-10
4.8335e-10
-1.85321e-09
-3.52907e-10
2.95278e-10
-2.06192e-09
1.87618e-10
-2.17632e-09
-3.46621e-10
2.10384e-09
-8.04519e-10
-6.81234e-10
2.05958e-09
-8.77617e-10
-9.821e-10
1.97282e-09
-1.0244e-09
-1.22555e-09
1.83759e-09
-1.24964e-09
-1.38182e-09
1.65387e-09
-1.55469e-09
-1.41686e-09
1.42787e-09
-1.93462e-09
-1.29626e-09
1.17377e-09
-2.3704e-09
-9.99833e-10
9.1461e-10
-2.81447e-09
-5.33386e-10
5.16193e-10
-3.18691e-09
4.15347e-10
-3.39189e-09
-2.9615e-11
-1.15677e-13
-6.5207e-11
-5.51478e-11
-9.28473e-14
-6.89799e-11
-7.21974e-11
-4.00623e-14
-7.43706e-11
-7.74998e-11
4.71864e-14
-7.89736e-11
-6.96728e-11
1.72426e-13
-7.81974e-11
-5.1159e-11
3.21897e-13
-6.53873e-11
-2.79965e-11
4.3801e-13
-3.36858e-11
-1.06561e-11
4.37176e-13
-1.23431e-11
-3.41491e-12
2.84542e-13
-1.44597e-16
4.08322e-13
-7.43593e-16
-1.74415e-13
7.51621e-16
-3.86242e-13
-3.27963e-13
9.05455e-16
-4.13693e-13
-4.32596e-13
1.20412e-15
-4.4783e-13
-4.6421e-13
1.71168e-15
-4.72944e-13
-4.09249e-13
2.50253e-15
-4.52675e-13
-2.85669e-13
4.25084e-15
-3.43619e-13
-1.4292e-13
8.20123e-15
-1.61196e-13
-5.63004e-14
4.25967e-14
-4.38494e-14
-1.81764e-14
1.52186e-14
-7.03345e-15
4.97291e-15
-3.60094e-14
-1.03509e-15
4.13863e-17
-2.29477e-15
-1.98955e-15
4.48763e-17
-2.51458e-15
-2.6896e-15
4.91451e-17
-2.78457e-15
-2.95691e-15
5.70565e-17
-3.01256e-15
-2.64691e-15
8.84896e-17
-2.92252e-15
-1.89418e-15
4.69725e-16
-2.20487e-15
-1.4385e-15
5.64249e-16
-1.73249e-15
-1.48382e-15
1.12307e-15
-6.06847e-15
-3.12475e-15
1.74605e-15
-4.16188e-14
8.83621e-15
-1.25999e-13
-1.52192e-17
1.49199e-18
-3.35884e-17
-2.94978e-17
1.61081e-18
-3.73268e-17
-4.02594e-17
1.75554e-18
-4.16666e-17
-4.4478e-17
1.85664e-18
-4.52925e-17
-4.20926e-17
7.62758e-18
-4.82313e-17
-9.14156e-17
2.25511e-17
-1.26391e-16
-5.14188e-16
1.50925e-16
-1.44165e-15
-3.12921e-15
1.51342e-15
-3.62495e-15
-2.05407e-14
1.90339e-14
-1.78639e-14
9.27195e-14
-1.77687e-13
-3.21571e-19
1.07326e-19
-7.06099e-19
-6.32358e-19
1.14798e-19
-8.0307e-19
-8.67268e-19
1.17572e-19
-8.98118e-19
-1.15732e-18
1.39529e-19
-1.17798e-18
-3.15882e-18
8.26698e-19
-3.72442e-18
-3.45634e-17
1.40322e-17
-4.03007e-17
-5.86276e-16
3.43361e-16
-1.29009e-18
-7.55014e-15
4.81877e-15
4.20958e-16
-4.66168e-14
4.47303e-14
-1.56145e-14
1.93893e-13
-2.75278e-13
-8.37907e-21
4.41018e-21
-1.85657e-20
-1.66703e-20
4.81461e-21
-2.12855e-20
-2.47243e-20
5.24784e-21
-2.55405e-20
-5.19878e-20
2.13019e-20
-5.24527e-20
-7.91136e-19
2.85372e-19
-9.56439e-19
-1.05168e-17
1.17011e-17
3.41818e-18
-3.84466e-16
2.71659e-16
3.36243e-16
-5.39173e-15
4.18892e-15
5.12604e-15
-2.54542e-14
3.81316e-14
2.51834e-14
1.38027e-13
4.27427e-14
-2.36988e-22
1.79508e-22
-5.40652e-22
-4.89098e-22
2.02226e-22
-6.32298e-22
-8.31017e-22
2.87078e-22
-8.62288e-22
-1.04023e-20
3.20599e-21
-1.06465e-20
-2.35563e-19
1.36056e-19
-2.50541e-19
-4.04486e-18
3.59481e-18
-2.88656e-18
-7.22512e-17
5.78603e-17
3.19834e-16
-1.38767e-15
8.26703e-16
5.20185e-15
-5.7668e-15
6.55443e-15
4.36277e-14
2.28144e-14
1.48707e-13
-7.31652e-24
7.95296e-24
-1.72854e-23
-1.59613e-23
9.53917e-24
-2.0958e-23
-4.7086e-23
3.79932e-23
-4.86374e-23
-1.80446e-21
1.92413e-21
-1.78851e-21
-7.00217e-20
8.51141e-20
-7.41346e-20
-1.43429e-18
1.56293e-18
-1.21398e-18
-1.57986e-17
1.64826e-17
4.24329e-17
-1.91104e-16
1.45752e-16
1.53851e-15
-1.00199e-15
1.06873e-15
1.35305e-14
3.90171e-15
5.01269e-14
-2.43641e-25
3.7159e-25
-5.9089e-25
-6.10538e-25
1.30289e-24
-8.214e-25
-1.09373e-23
2.09171e-23
-1.12322e-23
-1.0701e-21
1.61599e-21
-1.0486e-21
-4.43795e-20
7.08727e-20
-4.24796e-20
-4.67404e-19
1.2309e-18
-4.7319e-19
-3.76325e-18
8.60323e-18
8.59222e-20
-3.67786e-17
6.13163e-17
1.10574e-16
-2.13979e-16
4.56022e-16
3.41258e-15
1.47287e-15
1.82954e-14
-8.83116e-27
1.86272e-26
-2.18292e-26
-2.17421e-25
1.64378e-25
-1.83765e-25
-6.1877e-24
1.77907e-23
-6.41511e-24
-7.14903e-22
1.3936e-21
-6.86905e-22
-3.25209e-20
6.40676e-20
-3.00283e-20
-2.94131e-19
1.11658e-18
-2.571e-19
-1.8452e-18
7.3707e-18
-1.232e-18
-1.93073e-17
4.8606e-17
-8.41092e-18
-6.72061e-17
3.02806e-16
1.31703e-15
7.00707e-16
7.27027e-15
-3.90941e-28
2.77468e-27
-9.59938e-28
-2.33557e-26
1.16266e-25
-3.04061e-26
-4.04692e-24
1.53501e-23
-4.2058e-24
-5.09591e-22
1.2383e-21
-4.78945e-22
-2.42858e-20
5.94601e-20
-2.27347e-20
-2.15165e-19
1.05104e-18
-1.68126e-19
-1.46653e-18
6.95543e-18
-8.97065e-19
-1.37023e-17
4.59951e-17
-1.01247e-17
-2.96779e-17
2.27232e-16
8.83218e-16
4.01287e-16
3.52643e-15
-3.85329e-28
-3.36306e-28
4.51372e-28
-1.57196e-26
-2.05057e-26
1.04562e-25
-2.93899e-24
-3.03587e-24
1.36525e-23
-3.94076e-22
-3.63927e-22
1.13937e-21
-1.94242e-20
-1.80399e-20
5.62675e-20
-1.76364e-19
-1.29069e-19
1.00787e-18
-1.4724e-18
-7.24085e-19
6.77137e-18
-1.04115e-17
-1.58306e-17
4.53378e-17
-1.61939e-17
7.6391e-16
1.84664e-16
2.18862e-15
2.84576e-16