/*--------------------------------*- C++ -*----------------------------------*\
| =========                 |                                                 |
| \\      /  F ield         | OpenFOAM: The Open Source CFD Toolbox           |
|  \\    /   O peration     | Version:  2312                                  |
|   \\  /    A nd           | Website:  www.openfoam.com                      |
|    \\/     M anipulation  |                                                 |
\*---------------------------------------------------------------------------*/
FoamFile
{
    version     2.0;
    format      ascii;
    arch        "LSB;label=32;scalar=64";
    class       volVectorField;
    location    "0.11";
    object      U;
}
// * * * * * * * * * * * * * * * * * * * * * * * * * * * * * * * * * * * * * //

dimensions      [0 1 -1 0 0 0 0];

internalField   nonuniform List<vector> 
8000
(
(-2.31378e-06 4.68469e-06 -2.38091e-06)
(-6.73314e-06 4.56882e-06 -2.47722e-06)
(-1.05377e-05 4.35042e-06 -2.661e-06)
(-1.33702e-05 4.03924e-06 -2.92175e-06)
(-1.49319e-05 3.65921e-06 -3.23913e-06)
(-1.50317e-05 3.24241e-06 -3.58579e-06)
(-1.36122e-05 2.82907e-06 -3.9273e-06)
(-1.07713e-05 2.464e-06 -4.22507e-06)
(-6.77257e-06 2.19041e-06 -4.44361e-06)
(-2.03018e-06 2.0415e-06 -4.55295e-06)
(-2.42382e-06 1.42772e-05 -2.49358e-06)
(-7.06288e-06 1.39402e-05 -2.60183e-06)
(-1.10673e-05 1.32923e-05 -2.80873e-06)
(-1.40604e-05 1.23701e-05 -3.10364e-06)
(-1.57289e-05 1.12415e-05 -3.46485e-06)
(-1.58636e-05 1.0001e-05 -3.86195e-06)
(-1.43935e-05 8.76768e-06 -4.25602e-06)
(-1.14136e-05 7.67512e-06 -4.60199e-06)
(-7.19473e-06 6.85356e-06 -4.85738e-06)
(-2.1818e-06 6.41137e-06 -4.98706e-06)
(-2.64374e-06 2.45332e-05 -2.71651e-06)
(-7.71257e-06 2.39943e-05 -2.84832e-06)
(-1.21075e-05 2.2944e-05 -3.10182e-06)
(-1.54183e-05 2.14479e-05 -3.46586e-06)
(-1.72991e-05 1.96113e-05 -3.91579e-06)
(-1.75053e-05 1.75844e-05 -4.4162e-06)
(-1.59394e-05 1.55599e-05 -4.91905e-06)
(-1.26875e-05 1.37567e-05 -5.36562e-06)
(-8.03308e-06 1.23973e-05 -5.6999e-06)
(-2.48252e-06 1.1672e-05 -5.87222e-06)
(-2.96243e-06 3.58765e-05 -3.03945e-06)
(-8.65328e-06 3.5165e-05 -3.20691e-06)
(-1.36147e-05 3.37641e-05 -3.53146e-06)
(-1.73924e-05 3.1762e-05 -4.00123e-06)
(-1.95916e-05 2.92927e-05 -4.5883e-06)
(-1.99142e-05 2.65505e-05 -5.25034e-06)
(-1.82207e-05 2.37939e-05 -5.92523e-06)
(-1.45751e-05 2.13212e-05 -6.53311e-06)
(-9.28562e-06 1.94446e-05 -6.99526e-06)
(-2.93122e-06 1.84526e-05 -7.23336e-06)
(-3.36414e-06 4.86836e-05 -3.44599e-06)
(-9.83579e-06 4.78441e-05 -3.66079e-06)
(-1.55112e-05 4.6179e-05 -4.0804e-06)
(-1.98888e-05 4.37888e-05 -4.69279e-06)
(-2.25095e-05 4.08196e-05 -5.46811e-06)
(-2.3003e-05 3.74921e-05 -6.35452e-06)
(-2.11669e-05 3.41184e-05 -7.27208e-06)
(-1.70322e-05 3.10537e-05 -8.11087e-06)
(-1.09272e-05 2.87227e-05 -8.75683e-06)
(-3.53253e-06 2.74702e-05 -9.09286e-06)
(-3.82246e-06 6.25921e-05 -3.90943e-06)
(-1.11817e-05 6.16739e-05 -4.18185e-06)
(-1.76704e-05 5.9892e-05 -4.71802e-06)
(-2.27508e-05 5.73202e-05 -5.50771e-06)
(-2.58869e-05 5.40927e-05 -6.51979e-06)
(-2.66137e-05 5.04325e-05 -7.69405e-06)
(-2.46559e-05 4.66748e-05 -8.92834e-06)
(-1.99608e-05 4.32199e-05 -1.00762e-05)
(-1.29107e-05 4.05599e-05 -1.09716e-05)
(-4.28397e-06 3.91182e-05 -1.14389e-05)
(-4.32457e-06 8.86736e-05 -4.41499e-06)
(-1.25738e-05 8.77337e-05 -4.75201e-06)
(-1.98658e-05 8.57168e-05 -5.41994e-06)
(-2.56882e-05 8.27382e-05 -6.41176e-06)
(-2.93971e-05 7.89444e-05 -7.69924e-06)
(-3.04206e-05 7.45771e-05 -9.21442e-06)
(-2.83776e-05 7.00394e-05 -1.08349e-05)
(-2.31369e-05 6.57726e-05 -1.237e-05)
(-1.5068e-05 6.25236e-05 -1.35837e-05)
(-5.17666e-06 6.06417e-05 -1.42232e-05)
(-5.43682e-06 4.69499e-05 -5.5397e-06)
(-1.60167e-05 4.58877e-05 -6.00083e-06)
(-2.5577e-05 4.48309e-05 -6.90672e-06)
(-3.32847e-05 4.32574e-05 -8.27076e-06)
(-3.83468e-05 4.1264e-05 -1.00627e-05)
(-3.99734e-05 3.89868e-05 -1.22028e-05)
(-3.76168e-05 3.66472e-05 -1.45267e-05)
(-3.09591e-05 3.4467e-05 -1.67561e-05)
(-2.04919e-05 3.2918e-05 -1.85392e-05)
(-6.94937e-06 3.20187e-05 -1.95123e-05)
(-0.00372627 0.00190042 -0.0037986)
(-0.0110545 0.00198499 -0.00418459)
(-0.0177001 0.0021488 -0.00488042)
(-0.0231518 0.00238607 -0.00593589)
(-0.0268343 0.00268272 -0.00733995)
(-0.0281685 0.00301531 -0.00903915)
(-0.0266601 0.00334924 -0.0109069)
(-0.0220748 0.00364554 -0.0127258)
(-0.014622 0.00386404 -0.0141961)
(-0.00511462 0.00397374 -0.0150015)
(-0.00477627 0.0256409 -0.00486699)
(-0.0142276 0.0262333 -0.00534517)
(-0.0226678 0.0268736 -0.00617559)
(-0.0294523 0.027757 -0.00742398)
(-0.03386 0.0287983 -0.00906695)
(-0.0352328 0.0298825 -0.0110339)
(-0.0330686 0.0308825 -0.0131776)
(-0.0271879 0.0316753 -0.0152534)
(-0.0179338 0.0321734 -0.0169283)
(-0.00629457 0.032368 -0.017851)
(-0.00459183 0.0440044 -0.0046742)
(-0.0136675 0.0449597 -0.00513124)
(-0.0217777 0.0459237 -0.0059158)
(-0.0283116 0.0472737 -0.00709819)
(-0.0325818 0.0488902 -0.00866124)
(-0.0339593 0.0506098 -0.0105454)
(-0.0319516 0.0522397 -0.0126195)
(-0.0263632 0.0535841 -0.0146552)
(-0.0174898 0.0544815 -0.0163256)
(-0.00625717 0.0548436 -0.0172688)
(-0.00429182 0.0619874 -0.00436161)
(-0.0127988 0.0632987 -0.0047869)
(-0.0204015 0.0645594 -0.00550405)
(-0.0265424 0.066335 -0.00658742)
(-0.0305837 0.0684824 -0.00802529)
(-0.031941 0.0708009 -0.00976958)
(-0.0301462 0.0730432 -0.0117081)
(-0.0249912 0.0749414 -0.0136365)
(-0.016715 0.0762538 -0.0152488)
(-0.00615674 0.0768138 -0.0161868)
(-0.00392833 0.0787007 -0.00398238)
(-0.011743 0.0803404 -0.00436692)
(-0.018721 0.0818344 -0.00499599)
(-0.0243625 0.0839503 -0.005946)
(-0.0280894 0.0865324 -0.00720724)
(-0.0293764 0.0893557 -0.00874022)
(-0.027799 0.0921326 -0.0104526)
(-0.0231555 0.0945351 -0.0121722)
(-0.0156371 0.096243 -0.0136324)
(-0.00598127 0.0970113 -0.0145094)
(-0.00351651 0.0938274 -0.00355241)
(-0.0105441 0.0957547 -0.00388868)
(-0.0168048 0.0973894 -0.00441285)
(-0.0218606 0.0997128 -0.00520108)
(-0.0251992 0.102565 -0.0062424)
(-0.0263666 0.105709 -0.00750295)
(-0.024999 0.108835 -0.00890979)
(-0.0209203 0.111577 -0.0103295)
(-0.0142846 0.113562 -0.0115522)
(-0.00571927 0.114488 -0.0123142)
(-0.00308328 0.107241 -0.00309975)
(-0.00928176 0.109407 -0.00338491)
(-0.0147833 0.111068 -0.0037978)
(-0.0192126 0.11343 -0.00441329)
(-0.0221256 0.116336 -0.00521773)
(-0.0231445 0.119549 -0.00618144)
(-0.0219753 0.122759 -0.00725035)
(-0.0184793 0.125594 -0.00833196)
(-0.0127813 0.127666 -0.00928003)
(-0.00539474 0.128653 -0.00990087)
(-0.00265936 0.118918 -0.00265642)
(-0.00804646 0.121271 -0.00289347)
(-0.012806 0.122843 -0.00320171)
(-0.016623 0.125073 -0.00365519)
(-0.019119 0.127811 -0.00423799)
(-0.0199894 0.130834 -0.00492441)
(-0.0190073 0.133851 -0.00567758)
(-0.0160725 0.136518 -0.00644229)
(-0.0112852 0.138475 -0.00713069)
(-0.00505161 0.139418 -0.00761396)
(-0.00227215 0.128947 -0.00225108)
(-0.00692017 0.131448 -0.00244835)
(-0.0110084 0.132837 -0.00267017)
(-0.0142776 0.134797 -0.00299105)
(-0.0164074 0.137188 -0.00339437)
(-0.0171549 0.139811 -0.00385861)
(-0.016349 0.142413 -0.00436068)
(-0.0139191 0.144702 -0.00487395)
(-0.00994342 0.146378 -0.00535519)
(-0.00473307 0.14719 -0.00572768)
(-0.00194109 0.137517 -0.00190419)
(-0.00596091 0.140145 -0.00207355)
(-0.00948616 0.141297 -0.00223433)
(-0.0123067 0.142905 -0.00246323)
(-0.0141495 0.144845 -0.00274481)
(-0.0148177 0.146947 -0.00306172)
(-0.0141768 0.149004 -0.00340048)
(-0.0121722 0.150792 -0.00375211)
(-0.0088589 0.152089 -0.00410049)
(-0.00447341 0.152716 -0.00440273)
(-0.00167446 0.144872 -0.00162463)
(-0.00519292 0.14763 -0.00177894)
(-0.00827848 0.148537 -0.0019059)
(-0.0107634 0.149781 -0.00208608)
(-0.0124099 0.151257 -0.00230687)
(-0.0130497 0.15282 -0.00255487)
(-0.0125644 0.154312 -0.00282214)
(-0.0108982 0.155577 -0.00310689)
(-0.0080792 0.156475 -0.0034031)
(-0.0042874 0.156904 -0.00368191)
(-0.00146827 0.151268 -0.00140858)
(-0.00460411 0.154179 -0.00155929)
(-0.00736503 0.154878 -0.00167665)
(-0.00961931 0.155815 -0.00184639)
(-0.0111541 0.156897 -0.00206)
(-0.0118138 0.158005 -0.00230806)
(-0.0114779 0.159019 -0.00258494)
(-0.010072 0.159838 -0.00288798)
(-0.00759064 0.160393 -0.00320672)
(-0.00417188 0.16065 -0.00350635)
(-2.40873e-06 4.5675e-06 -6.93423e-06)
(-7.01111e-06 4.44072e-06 -7.21658e-06)
(-1.09808e-05 4.19898e-06 -7.7577e-06)
(-1.39465e-05 3.85377e-06 -8.52521e-06)
(-1.55948e-05 3.43033e-06 -9.46085e-06)
(-1.57201e-05 2.96375e-06 -1.04844e-05)
(-1.4253e-05 2.49847e-06 -1.14946e-05)
(-1.12902e-05 2.08569e-06 -1.23775e-05)
(-7.10447e-06 1.77459e-06 -1.30252e-05)
(-2.12351e-06 1.60181e-06 -1.33462e-05)
(-2.53057e-06 1.3936e-05 -7.27185e-06)
(-7.37577e-06 1.3565e-05 -7.58941e-06)
(-1.15675e-05 1.28468e-05 -8.19974e-06)
(-1.47143e-05 1.18213e-05 -9.06961e-06)
(-1.64853e-05 1.05604e-05 -1.01369e-05)
(-1.66541e-05 9.16688e-06 -1.13127e-05)
(-1.51344e-05 7.77321e-06 -1.24824e-05)
(-1.20171e-05 6.53297e-06 -1.35131e-05)
(-7.58156e-06 5.5956e-06 -1.4272e-05)
(-2.28898e-06 5.0792e-06 -1.46534e-05)
(-2.77394e-06 2.39869e-05 -7.93075e-06)
(-8.09566e-06 2.339e-05 -8.31892e-06)
(-1.27234e-05 2.22215e-05 -9.06917e-06)
(-1.623e-05 2.055e-05 -1.01469e-05)
(-1.82473e-05 1.84868e-05 -1.14829e-05)
(-1.85071e-05 1.61949e-05 -1.29728e-05)
(-1.68881e-05 1.38905e-05 -1.44744e-05)
(-1.34673e-05 1.18265e-05 -1.58138e-05)
(-8.53442e-06 1.02617e-05 -1.68118e-05)
(-2.62518e-06 9.40163e-06 -1.73224e-05)
(-3.12823e-06 3.51555e-05 -8.88464e-06)
(-9.1431e-06 3.43628e-05 -9.37984e-06)
(-1.44079e-05 3.27944e-05 -1.03439e-05)
(-1.8448e-05 3.05421e-05 -1.1741e-05)
(-2.08392e-05 2.77454e-05 -1.34943e-05)
(-2.12491e-05 2.46158e-05 -1.54782e-05)
(-1.95013e-05 2.14444e-05 -1.75086e-05)
(-1.564e-05 1.85798e-05 -1.93475e-05)
(-9.97346e-06 1.63912e-05 -2.07358e-05)
(-3.13853e-06 1.51985e-05 -2.14523e-05)
(-3.57738e-06 4.78335e-05 -1.00824e-05)
(-1.04689e-05 4.68908e-05 -1.07209e-05)
(-1.65442e-05 4.5012e-05 -1.19724e-05)
(-2.12777e-05 4.22985e-05 -1.38038e-05)
(-2.4172e-05 3.89006e-05 -1.61323e-05)
(-2.48064e-05 3.50572e-05 -1.88068e-05)
(-2.29218e-05 3.11212e-05 -2.15897e-05)
(-1.85105e-05 2.7515e-05 -2.41508e-05)
(-1.18901e-05 2.47448e-05 -2.61134e-05)
(-3.83225e-06 2.32216e-05 -2.71329e-05)
(-4.09364e-06 6.16644e-05 -1.14447e-05)
(-1.19902e-05 6.06249e-05 -1.22584e-05)
(-1.9e-05 5.85908e-05 -1.38642e-05)
(-2.45578e-05 5.5634e-05 -1.62374e-05)
(-2.80786e-05 5.18879e-05 -1.92945e-05)
(-2.90268e-05 4.75916e-05 -2.2862e-05)
(-2.70413e-05 4.31238e-05 -2.66382e-05)
(-2.20022e-05 3.89678e-05 -3.01745e-05)
(-1.42557e-05 3.5728e-05 -3.29343e-05)
(-4.7035e-06 3.39441e-05 -3.43754e-05)
(-4.66088e-06 8.77291e-05 -1.28471e-05)
(-1.35812e-05 8.66628e-05 -1.38591e-05)
(-2.15356e-05 8.43543e-05 -1.58626e-05)
(-2.79805e-05 8.09189e-05 -1.88515e-05)
(-3.22141e-05 7.64982e-05 -2.27533e-05)
(-3.35706e-05 7.1346e-05 -2.73783e-05)
(-3.15459e-05 6.59067e-05 -3.23627e-05)
(-2.58941e-05 6.07167e-05 -3.71223e-05)
(-1.69178e-05 5.66754e-05 -4.09092e-05)
(-5.74988e-06 5.43656e-05 -4.29323e-05)
(-5.8978e-06 4.58752e-05 -1.63323e-05)
(-1.73992e-05 4.46884e-05 -1.77183e-05)
(-2.78919e-05 4.34084e-05 -2.04726e-05)
(-3.64997e-05 4.14968e-05 -2.46337e-05)
(-4.2348e-05 3.90515e-05 -3.01414e-05)
(-4.45113e-05 3.62247e-05 -3.6775e-05)
(-4.22422e-05 3.32658e-05 -4.40505e-05)
(-3.5034e-05 3.04459e-05 -5.1123e-05)
(-2.32941e-05 2.83597e-05 -5.68613e-05)
(-7.8802e-06 2.72113e-05 -5.99953e-05)
(-0.00411192 0.00198716 -0.011277)
(-0.0121905 0.00208636 -0.0124169)
(-0.0196103 0.00227998 -0.0145429)
(-0.0258181 0.00256357 -0.0177851)
(-0.0301768 0.00292307 -0.0221302)
(-0.0319887 0.00333204 -0.0274371)
(-0.0305891 0.00374789 -0.0333314)
(-0.0255663 0.00411923 -0.0391336)
(-0.0170321 0.00439182 -0.0438758)
(-0.00590171 0.00452491 -0.0464907)
(-0.00525395 0.0262465 -0.0145057)
(-0.0156204 0.0268807 -0.0159038)
(-0.0249909 0.0275974 -0.0184301)
(-0.0326542 0.0285901 -0.0222448)
(-0.0378173 0.0297628 -0.0272975)
(-0.0396936 0.0309806 -0.0333966)
(-0.037605 0.0320922 -0.0401105)
(-0.0311893 0.0329501 -0.0466847)
(-0.0206909 0.0334495 -0.0520506)
(-0.00720648 0.033605 -0.0550349)
(-0.00504839 0.0449805 -0.0139203)
(-0.0149968 0.0459949 -0.0152547)
(-0.023999 0.0470657 -0.0176472)
(-0.031381 0.048571 -0.0212712)
(-0.0363927 0.0503798 -0.0260962)
(-0.0382859 0.0523069 -0.0319682)
(-0.0363972 0.0541262 -0.0385094)
(-0.0303376 0.055604 -0.0450202)
(-0.0202754 0.0565539 -0.0504463)
(-0.00721828 0.0568973 -0.053551)
(-0.00471664 0.0633265 -0.0130134)
(-0.0140324 0.064718 -0.0142518)
(-0.0224665 0.0661246 -0.0164447)
(-0.029402 0.0681188 -0.0197748)
(-0.0341479 0.0705506 -0.0242281)
(-0.0360137 0.0732008 -0.0296857)
(-0.0343725 0.0757859 -0.0358311)
(-0.0288228 0.0779847 -0.0420433)
(-0.0194549 0.0794985 -0.0473313)
(-0.00715597 0.080123 -0.0504623)
(-0.00431243 0.080374 -0.0119096)
(-0.0128525 0.0821144 -0.0130235)
(-0.0205777 0.0837913 -0.0149511)
(-0.0269306 0.0861879 -0.0178765)
(-0.0312889 0.0891485 -0.0217882)
(-0.0330385 0.092436 -0.0265892)
(-0.0316187 0.0957264 -0.0320203)
(-0.026653 0.0986245 -0.037561)
(-0.0181847 0.100717 -0.0423501)
(-0.00697046 0.101662 -0.0452812)
(-0.00385238 0.0957921 -0.010655)
(-0.0115055 0.097835 -0.0116202)
(-0.0184093 0.0996753 -0.0132287)
(-0.0240671 0.102318 -0.0156571)
(-0.0279314 0.105609 -0.0188839)
(-0.0294795 0.109304 -0.022821)
(-0.0282433 0.113057 -0.0272612)
(-0.0239082 0.116428 -0.0318029)
(-0.0165012 0.118924 -0.0357769)
(-0.00664144 0.12011 -0.038301)
(-0.00336809 0.109446 -0.00933298)
(-0.0100859 0.111731 -0.0101401)
(-0.0161185 0.113598 -0.0114086)
(-0.0210296 0.11628 -0.0133044)
(-0.0243487 0.119628 -0.0157905)
(-0.0256504 0.123399 -0.0187829)
(-0.0245724 0.12725 -0.022125)
(-0.0208811 0.130733 -0.0255414)
(-0.0146027 0.133342 -0.0285786)
(-0.00621582 0.134614 -0.0306105)
(-0.00289611 0.121308 -0.00803804)
(-0.00870279 0.123776 -0.00869661)
(-0.0138884 0.125529 -0.00964573)
(-0.0180752 0.12804 -0.0110428)
(-0.020866 0.131164 -0.0128383)
(-0.0219276 0.134673 -0.0149537)
(-0.0209977 0.138248 -0.0172788)
(-0.0179216 0.141481 -0.0196533)
(-0.0127275 0.143909 -0.0218171)
(-0.00576681 0.145108 -0.0233793)
(-0.00246918 0.131482 -0.00685615)
(-0.00745489 0.134084 -0.00739231)
(-0.0118845 0.135611 -0.00807889)
(-0.0154348 0.137783 -0.00907029)
(-0.0177731 0.140461 -0.0103117)
(-0.0186422 0.143442 -0.0117327)
(-0.0178592 0.146451 -0.0132613)
(-0.0153299 0.149154 -0.0148226)
(-0.0110833 0.151178 -0.0163002)
(-0.0053604 0.152178 -0.0174886)
(-0.00211028 0.140174 -0.00584851)
(-0.00641085 0.142885 -0.00629921)
(-0.0102207 0.144123 -0.00680217)
(-0.0132655 0.14586 -0.00751578)
(-0.0152642 0.14797 -0.00838738)
(-0.0160137 0.150277 -0.00935723)
(-0.0153812 0.152563 -0.0103801)
(-0.0133055 0.154582 -0.0114322)
(-0.00980873 0.156073 -0.0124797)
(-0.00504541 0.156799 -0.0134389)
(-0.00182867 0.147653 -0.00504125)
(-0.00559789 0.150476 -0.00544637)
(-0.00894107 0.151417 -0.00585021)
(-0.0116266 0.15271 -0.0064213)
(-0.0134112 0.154241 -0.00711564)
(-0.0141225 0.155862 -0.00788545)
(-0.0136473 0.157412 -0.00870106)
(-0.0119275 0.158727 -0.00955857)
(-0.00896489 0.159663 -0.0104507)
(-0.00484409 0.160098 -0.0113455)
(-0.00161899 0.154196 -0.00442274)
(-0.00499966 0.157162 -0.00481792)
(-0.0080177 0.157854 -0.00519758)
(-0.0104783 0.158773 -0.00574542)
(-0.0121637 0.159819 -0.00643111)
(-0.0129127 0.160866 -0.00722007)
(-0.0126046 0.161796 -0.0080898)
(-0.0111561 0.162515 -0.00903282)
(-0.00853035 0.162972 -0.0100214)
(-0.00475307 0.163154 -0.0110063)
(-2.59293e-06 4.34574e-06 -1.0871e-05)
(-7.55257e-06 4.19524e-06 -1.1322e-05)
(-1.18444e-05 3.90767e-06 -1.21874e-05)
(-1.50711e-05 3.49471e-06 -1.34166e-05)
(-1.68897e-05 2.98409e-06 -1.49195e-05)
(-1.70655e-05 2.41603e-06 -1.65686e-05)
(-1.55067e-05 1.84399e-06 -1.82018e-05)
(-1.23045e-05 1.33198e-06 -1.96321e-05)
(-7.7456e-06 9.45831e-07 -2.0689e-05)
(-2.30419e-06 7.37229e-07 -2.12103e-05)
(-2.73773e-06 1.3278e-05 -1.14136e-05)
(-7.98628e-06 1.2836e-05 -1.19222e-05)
(-1.25453e-05 1.19787e-05 -1.29022e-05)
(-1.59947e-05 1.07465e-05 -1.43016e-05)
(-1.79698e-05 9.21863e-06 -1.60245e-05)
(-1.82083e-05 7.51301e-06 -1.7931e-05)
(-1.65945e-05 5.78959e-06 -1.98364e-05)
(-1.32055e-05 4.2424e-06 -2.15232e-05)
(-8.33918e-06 3.07112e-06 -2.27708e-05)
(-2.50265e-06 2.4383e-06 -2.33932e-05)
(-3.02773e-06 2.29203e-05 -1.24704e-05)
(-8.84608e-06 2.22044e-05 -1.30957e-05)
(-1.39332e-05 2.07999e-05 -1.43084e-05)
(-1.78288e-05 1.8776e-05 -1.60554e-05)
(-2.01219e-05 1.62531e-05 -1.82315e-05)
(-2.04947e-05 1.34186e-05 -2.06726e-05)
(-1.87793e-05 1.05348e-05 -2.31484e-05)
(-1.50246e-05 7.92602e-06 -2.53701e-05)
(-9.53932e-06 5.94271e-06 -2.70379e-05)
(-2.90934e-06 4.85864e-06 -2.78859e-05)
(-3.45318e-06 3.37348e-05 -1.40011e-05)
(-1.01074e-05 3.27741e-05 -1.48051e-05)
(-1.59743e-05 3.08709e-05 -1.63755e-05)
(-2.05406e-05 2.81134e-05 -1.86613e-05)
(-2.33259e-05 2.46498e-05 -2.1548e-05)
(-2.39254e-05 2.0722e-05 -2.48395e-05)
(-2.20873e-05 1.66843e-05 -2.82375e-05)
(-1.77984e-05 1.29929e-05 -3.13468e-05)
(-1.13815e-05 1.01597e-05 -3.37001e-05)
(-3.54307e-06 8.60789e-06 -3.4922e-05)
(-3.99767e-06 4.6147e-05 -1.59253e-05)
(-1.1721e-05 4.49906e-05 -1.69702e-05)
(-1.85943e-05 4.26817e-05 -1.90258e-05)
(-2.40488e-05 3.93123e-05 -2.20513e-05)
(-2.75118e-05 3.50355e-05 -2.59285e-05)
(-2.84586e-05 3.01206e-05 -3.04262e-05)
(-2.65087e-05 2.49982e-05 -3.51573e-05)
(-2.15505e-05 2.02376e-05 -3.95709e-05)
(-1.38966e-05 1.65408e-05 -4.29607e-05)
(-4.42582e-06 1.44992e-05 -4.47453e-05)
(-4.63126e-06 5.98655e-05 -1.81145e-05)
(-1.35973e-05 5.85742e-05 -1.94574e-05)
(-2.16527e-05 5.60368e-05 -2.21176e-05)
(-2.81855e-05 5.23025e-05 -2.60767e-05)
(-3.25158e-05 4.74957e-05 -3.12277e-05)
(-3.39608e-05 4.1878e-05 -3.73128e-05)
(-3.19704e-05 3.59121e-05 -4.38488e-05)
(-2.6255e-05 3.02567e-05 -5.00575e-05)
(-1.70992e-05 2.57705e-05 -5.49476e-05)
(-5.56225e-06 2.32708e-05 -5.75049e-05)
(-5.33115e-06 8.57016e-05 -2.03298e-05)
(-1.5587e-05 8.43438e-05 -2.20137e-05)
(-2.4867e-05 8.14276e-05 -2.53549e-05)
(-3.25902e-05 7.70331e-05 -3.03825e-05)
(-3.79362e-05 7.12761e-05 -3.70233e-05)
(-4.00421e-05 6.44226e-05 -4.50134e-05)
(-3.81318e-05 5.70072e-05 -5.37691e-05)
(-3.16906e-05 4.97786e-05 -6.22728e-05)
(-2.08755e-05 4.39752e-05 -6.91527e-05)
(-6.98254e-06 4.06406e-05 -7.29082e-05)
(-6.80651e-06 4.48132e-05 -2.61189e-05)
(-2.01562e-05 4.34026e-05 -2.84491e-05)
(-3.25343e-05 4.17983e-05 -3.31051e-05)
(-4.30107e-05 3.93751e-05 -4.02058e-05)
(-5.05589e-05 3.62239e-05 -4.97336e-05)
(-5.39639e-05 3.25114e-05 -6.14087e-05)
(-5.20497e-05 2.85379e-05 -7.44951e-05)
(-4.38463e-05 2.46792e-05 -8.7542e-05)
(-2.94209e-05 2.17065e-05 -9.83853e-05)
(-9.87914e-06 2.0063e-05 -0.000104413)
(-0.00480982 0.00215561 -0.0180844)
(-0.0143184 0.00228473 -0.0200087)
(-0.0232192 0.0025398 -0.0236294)
(-0.0309374 0.00291986 -0.029214)
(-0.0367228 0.00341157 -0.0368149)
(-0.0396365 0.00398195 -0.0462753)
(-0.0386323 0.00456986 -0.0570158)
(-0.0328645 0.00509096 -0.0678385)
(-0.0221415 0.00546202 -0.0768972)
(-0.00756435 0.00562488 -0.0819964)
(-0.00608701 0.0269132 -0.0231443)
(-0.0181495 0.0276244 -0.0254849)
(-0.0292441 0.0284962 -0.029751)
(-0.0386172 0.0297088 -0.0362579)
(-0.0453429 0.0311401 -0.0449984)
(-0.048378 0.032608 -0.0557415)
(-0.0466551 0.0338924 -0.0678295)
(-0.03936 0.0347758 -0.0799694)
(-0.0264252 0.0351432 -0.0901485)
(-0.00910509 0.0351128 -0.095942)
(-0.00583546 0.0459869 -0.0222112)
(-0.0173921 0.0471085 -0.0244495)
(-0.0280377 0.0484032 -0.0285008)
(-0.0370689 0.0502342 -0.0347058)
(-0.0436231 0.052445 -0.0430992)
(-0.0467197 0.0548004 -0.0535294)
(-0.0453193 0.0569947 -0.0654566)
(-0.0385512 0.0587019 -0.0777048)
(-0.0261788 0.0596839 -0.0882737)
(-0.00927484 0.0599106 -0.0945051)
(-0.00543612 0.0646444 -0.0207699)
(-0.0162278 0.0661824 -0.0228509)
(-0.0261765 0.0679013 -0.0265727)
(-0.0346466 0.0703671 -0.0322907)
(-0.0408558 0.0734196 -0.0400657)
(-0.0439128 0.076804 -0.0498093)
(-0.0428457 0.0801594 -0.0610983)
(-0.0367717 0.0830435 -0.0729161)
(-0.02532 0.085022 -0.0833877)
(-0.00934243 0.085786 -0.0898531)
(-0.0049435 0.0819373 -0.0190067)
(-0.0147823 0.0838616 -0.0208777)
(-0.0238373 0.0859352 -0.0241476)
(-0.0315365 0.0889478 -0.0291647)
(-0.0371837 0.0927536 -0.0359789)
(-0.0400022 0.0971014 -0.0445205)
(-0.0391414 0.1016 -0.0544513)
(-0.0337964 0.105709 -0.0649388)
(-0.0235719 0.108785 -0.074377)
(-0.00913951 0.110212 -0.0804071)
(-0.00437809 0.0975042 -0.0169942)
(-0.0131156 0.099754 -0.0186105)
(-0.0211173 0.102043 -0.0213264)
(-0.0278701 0.105393 -0.0254634)
(-0.0327666 0.109671 -0.0310285)
(-0.0351635 0.114634 -0.0379327)
(-0.0343804 0.119877 -0.045894)
(-0.0297767 0.124796 -0.0542831)
(-0.021024 0.128606 -0.0619114)
(-0.00862021 0.130496 -0.0669849)
(-0.00378197 0.111187 -0.0148692)
(-0.0113554 0.113679 -0.0162129)
(-0.0182359 0.115995 -0.0183354)
(-0.0239664 0.119387 -0.0215238)
(-0.0280296 0.123727 -0.0257331)
(-0.0299239 0.128777 -0.0308456)
(-0.0291605 0.134139 -0.0366336)
(-0.0253008 0.139205 -0.0426894)
(-0.0181157 0.143167 -0.0482939)
(-0.00791487 0.145183 -0.0522865)
(-0.0032048 0.122958 -0.0127884)
(-0.00965241 0.125608 -0.0138762)
(-0.0154527 0.127757 -0.0154429)
(-0.0202046 0.13089 -0.0177482)
(-0.0234762 0.134878 -0.0207058)
(-0.0248982 0.139491 -0.024181)
(-0.0241582 0.144364 -0.0280027)
(-0.0210025 0.148956 -0.0319632)
(-0.0152966 0.152552 -0.0357512)
(-0.00717652 0.154398 -0.0387606)
(-0.00269099 0.132941 -0.010895)
(-0.00814146 0.135682 -0.0117736)
(-0.0129985 0.137513 -0.0128875)
(-0.0169153 0.140155 -0.0144843)
(-0.0195351 0.143475 -0.0164565)
(-0.0205938 0.147264 -0.0186688)
(-0.0199117 0.151212 -0.0210005)
(-0.0173698 0.154894 -0.0233846)
(-0.0129108 0.157762 -0.0257832)
(-0.00653488 0.159225 -0.0280284)
(-0.00227073 0.141385 -0.00929007)
(-0.00691345 0.144182 -0.0100249)
(-0.0110256 0.145612 -0.0108281)
(-0.0143113 0.147638 -0.0119511)
(-0.0164735 0.150131 -0.0132863)
(-0.0173183 0.152903 -0.0147112)
(-0.016743 0.155716 -0.0161437)
(-0.0147003 0.158278 -0.0175912)
(-0.0111798 0.16023 -0.0191449)
(-0.00607262 0.161188 -0.0209497)
(-0.00195514 0.148606 -0.00801629)
(-0.00600117 0.151464 -0.00867758)
(-0.00958637 0.152489 -0.00932042)
(-0.0124618 0.153896 -0.0102142)
(-0.0143726 0.155562 -0.0112674)
(-0.01516 0.157323 -0.0123787)
(-0.0147451 0.15901 -0.0134904)
(-0.0130906 0.16045 -0.0146325)
(-0.0101909 0.161469 -0.0159123)
(-0.00582783 0.161898 -0.0176478)
(-0.00173581 0.154929 -0.00705395)
(-0.00537871 0.157888 -0.00770435)
(-0.0086353 0.158576 -0.00831935)
(-0.011299 0.15947 -0.00919751)
(-0.0131426 0.160452 -0.0102754)
(-0.0140135 0.161379 -0.0114791)
(-0.0138137 0.162131 -0.0127649)
(-0.0124596 0.162628 -0.0141507)
(-0.0098982 0.162843 -0.0156795)
(-0.00579564 0.162808 -0.0176807)
(-2.85497e-06 4.02943e-06 -1.38234e-05)
(-8.32313e-06 3.84425e-06 -1.44117e-05)
(-1.30754e-05 3.48864e-06 -1.55433e-05)
(-1.66786e-05 2.97416e-06 -1.71552e-05)
(-1.87468e-05 2.3317e-06 -1.91332e-05)
(-1.90023e-05 1.60844e-06 -2.13133e-05)
(-1.73164e-05 8.71149e-07 -2.34844e-05)
(-1.37774e-05 2.01764e-07 -2.53971e-05)
(-8.68244e-06 -3.01482e-07 -2.68048e-05)
(-2.56434e-06 -5.71207e-07 -2.7505e-05)
(-3.03391e-06 1.234e-05 -1.45317e-05)
(-8.85949e-06 1.17931e-05 -1.51985e-05)
(-1.39468e-05 1.07283e-05 -1.64874e-05)
(-1.78366e-05 9.18577e-06 -1.83345e-05)
(-2.01147e-05 7.25238e-06 -2.06199e-05)
(-2.0466e-05 5.06726e-06 -2.31642e-05)
(-1.87265e-05 2.83081e-06 -2.57253e-05)
(-1.49512e-05 7.99033e-07 -2.80061e-05)
(-9.45235e-06 -7.49407e-07 -2.97001e-05)
(-2.81596e-06 -1.57426e-06 -3.05435e-05)
(-3.39335e-06 2.13982e-05 -1.59142e-05)
(-9.92809e-06 2.05048e-05 -1.67415e-05)
(-1.5683e-05 1.87461e-05 -1.83516e-05)
(-2.0153e-05 1.61885e-05 -2.06829e-05)
(-2.28646e-05 1.29615e-05 -2.36072e-05)
(-2.34241e-05 9.28455e-06 -2.69162e-05)
(-2.15855e-05 5.48718e-06 -3.03064e-05)
(-1.73565e-05 2.00102e-06 -3.33826e-05)
(-1.10512e-05 -6.65704e-07 -3.57016e-05)
(-3.33988e-06 -2.10694e-06 -3.68736e-05)
(-3.92534e-06 3.17001e-05 -1.79241e-05)
(-1.15106e-05 3.04871e-05 -1.89989e-05)
(-1.8264e-05 2.80761e-05 -2.11073e-05)
(-2.36204e-05 2.45455e-05 -2.41972e-05)
(-2.70173e-05 2.0048e-05 -2.81363e-05)
(-2.79386e-05 1.48619e-05 -3.26807e-05)
(-2.60086e-05 9.43494e-06 -3.74343e-05)
(-2.11023e-05 4.37958e-06 -4.18522e-05)
(-1.35485e-05 4.77552e-07 -4.52428e-05)
(-4.17358e-06 -1.65387e-06 -4.69879e-05)
(-4.61354e-06 4.37204e-05 -2.04636e-05)
(-1.35611e-05 4.22387e-05 -2.18755e-05)
(-2.16253e-05 3.92704e-05 -2.46688e-05)
(-2.81803e-05 3.48838e-05 -2.88149e-05)
(-3.25468e-05 2.9222e-05 -3.41921e-05)
(-3.40353e-05 2.25851e-05 -4.05234e-05)
(-3.20665e-05 1.55109e-05 -4.72866e-05)
(-2.63139e-05 8.80663e-06 -5.37677e-05)
(-1.70648e-05 3.51312e-06 -5.88399e-05)
(-5.3686e-06 6.32681e-07 -6.15019e-05)
(-5.42655e-06 5.72616e-05 -2.33735e-05)
(-1.59834e-05 5.55835e-05 -2.52087e-05)
(-2.56193e-05 5.22642e-05 -2.88673e-05)
(-3.36679e-05 4.73057e-05 -3.43705e-05)
(-3.93146e-05 4.07964e-05 -4.16371e-05)
(-4.16478e-05 3.30081e-05 -5.03839e-05)
(-3.9786e-05 2.45156e-05 -6.00091e-05)
(-3.31009e-05 1.62705e-05 -6.93662e-05)
(-2.1703e-05 9.55343e-06 -7.69021e-05)
(-6.93735e-06 5.77316e-06 -8.09595e-05)
(-6.33105e-06 8.26984e-05 -2.63477e-05)
(-1.85937e-05 8.08806e-05 -2.86727e-05)
(-2.99044e-05 7.70003e-05 -3.33239e-05)
(-3.96489e-05 7.10629e-05 -4.04114e-05)
(-4.6845e-05 6.31145e-05 -4.99416e-05)
(-5.03163e-05 5.33987e-05 -6.16717e-05)
(-4.88053e-05 4.25406e-05 -7.48529e-05)
(-4.12767e-05 3.16568e-05 -8.79584e-05)
(-2.75478e-05 2.26676e-05 -9.87945e-05)
(-9.07161e-06 1.74165e-05 -0.000104849)
(-8.18174e-06 4.32277e-05 -3.40677e-05)
(-2.43419e-05 4.14755e-05 -3.73243e-05)
(-3.96481e-05 3.93571e-05 -4.38941e-05)
(-5.31328e-05 3.61162e-05 -5.40591e-05)
(-6.35659e-05 3.18218e-05 -6.79758e-05)
(-6.93038e-05 2.66427e-05 -8.55173e-05)
(-6.84206e-05 2.0947e-05 -0.000105878)
(-5.89793e-05 1.53504e-05 -0.000127016)
(-4.02128e-05 1.09284e-05 -0.000145225)
(-1.34005e-05 8.43627e-06 -0.000155603)
(-0.00587403 0.00240036 -0.0237102)
(-0.0175807 0.00257616 -0.026412)
(-0.0288146 0.00292824 -0.0315815)
(-0.0390075 0.00346191 -0.0396888)
(-0.0472624 0.00416508 -0.0509748)
(-0.0522615 0.00499088 -0.065425)
(-0.0522671 0.00583268 -0.0824045)
(-0.0455688 0.00652377 -0.100293)
(-0.0312437 0.00693507 -0.115804)
(-0.0105161 0.00703982 -0.124511)
(-0.00734593 0.0278372 -0.0301361)
(-0.0219886 0.0286589 -0.0333806)
(-0.035765 0.0297515 -0.0394)
(-0.0478979 0.0312686 -0.0487211)
(-0.0572907 0.0330334 -0.0615116)
(-0.0625055 0.0347588 -0.0776736)
(-0.0618014 0.036056 -0.0965092)
(-0.0534642 0.0365492 -0.116275)
(-0.0366092 0.0361944 -0.133648)
(-0.0125101 0.0355082 -0.143924)
(-0.00702806 0.047402 -0.0289344)
(-0.0210396 0.0486801 -0.0320455)
(-0.0342564 0.0503016 -0.0377887)
(-0.045976 0.052605 -0.046736)
(-0.0552074 0.05539 -0.0591383)
(-0.0606288 0.0583287 -0.0750604)
(-0.0605536 0.0609622 -0.0940413)
(-0.0531316 0.0627879 -0.114546)
(-0.0370495 0.0634893 -0.133276)
(-0.013141 0.063208 -0.144882)
(-0.00652894 0.0665086 -0.027072)
(-0.0195798 0.0682671 -0.0299709)
(-0.0319072 0.07046 -0.0352678)
(-0.0428932 0.073652 -0.0435532)
(-0.0516629 0.0776805 -0.0551139)
(-0.057045 0.0822495 -0.0701102)
(-0.0574855 0.0868818 -0.0882741)
(-0.0511289 0.0909246 -0.108382)
(-0.0364139 0.0936891 -0.127408)
(-0.0136515 0.0946415 -0.139896)
(-0.00590167 0.0841617 -0.0247723)
(-0.0177267 0.0863698 -0.0273751)
(-0.0288654 0.0890634 -0.0320266)
(-0.0387616 0.0930615 -0.0392859)
(-0.046646 0.098266 -0.0493863)
(-0.0515219 0.104449 -0.0624584)
(-0.0520685 0.111158 -0.0783133)
(-0.0466363 0.11763 -0.0960045)
(-0.0337232 0.122778 -0.112939)
(-0.0134662 0.125384 -0.124392)
(-0.0051726 0.0999493 -0.0221293)
(-0.0155588 0.102523 -0.0243637)
(-0.0252628 0.105524 -0.0282019)
(-0.0337701 0.110022 -0.0341281)
(-0.0404063 0.115963 -0.0422504)
(-0.0443668 0.123163 -0.0525722)
(-0.0446471 0.131186 -0.0648714)
(-0.040018 0.139188 -0.0784475)
(-0.0293189 0.145821 -0.0914523)
(-0.012522 0.149526 -0.100585)
(-0.00440151 0.113675 -0.019329)
(-0.0132607 0.116493 -0.0211654)
(-0.0214298 0.119524 -0.0241246)
(-0.0284295 0.124068 -0.0286038)
(-0.0336799 0.130076 -0.0345712)
(-0.0365813 0.137367 -0.0418923)
(-0.0364869 0.145509 -0.0503191)
(-0.0326628 0.153656 -0.0594588)
(-0.0243525 0.160474 -0.0683399)
(-0.0112168 0.1645 -0.0750385)
(-0.00366013 0.12531 -0.0165876)
(-0.0110537 0.128245 -0.0180506)
(-0.0177606 0.131022 -0.0201895)
(-0.0233414 0.135156 -0.0233328)
(-0.0273111 0.140575 -0.0273417)
(-0.029261 0.147083 -0.03199)
(-0.0288627 0.154279 -0.0370459)
(-0.0258122 0.161433 -0.0424165)
(-0.0197034 0.167481 -0.0478536)
(-0.00988635 0.171329 -0.0526333)
(-0.00301183 0.135009 -0.0141026)
(-0.00913278 0.137966 -0.0152631)
(-0.0145953 0.140271 -0.0167426)
(-0.019008 0.143656 -0.0188339)
(-0.0219719 0.148015 -0.0213436)
(-0.0232265 0.153147 -0.0240113)
(-0.0226646 0.158715 -0.0266472)
(-0.0202661 0.164182 -0.0293615)
(-0.0159202 0.168879 -0.0323217)
(-0.00877452 0.172146 -0.0357804)
(-0.00249828 0.143083 -0.0120129)
(-0.00762397 0.146012 -0.0129696)
(-0.0121468 0.147733 -0.0140074)
(-0.0157285 0.150203 -0.0154182)
(-0.0180399 0.153288 -0.0170022)
(-0.0189135 0.156796 -0.0185113)
(-0.0183537 0.16047 -0.0198068)
(-0.0164643 0.163977 -0.0210978)
(-0.013365 0.167036 -0.0226664)
(-0.00804009 0.169418 -0.0255239)
(-0.00213328 0.149919 -0.0103766)
(-0.00656759 0.152827 -0.0112344)
(-0.0104775 0.153968 -0.012058)
(-0.0135789 0.155533 -0.0131665)
(-0.0155922 0.157374 -0.0143883)
(-0.016389 0.159314 -0.0155134)
(-0.0159941 0.161172 -0.0164429)
(-0.0145072 0.162789 -0.0174068)
(-0.012177 0.164202 -0.0186128)
(-0.00775181 0.165633 -0.0216667)
(-0.00190338 0.155915 -0.00916617)
(-0.00592155 0.158856 -0.0100182)
(-0.0095105 0.159519 -0.0108267)
(-0.0124399 0.160343 -0.011959)
(-0.0144624 0.161171 -0.0132966)
(-0.0154461 0.161832 -0.0146836)
(-0.0153688 0.162202 -0.0160481)
(-0.0142275 0.16224 -0.0175985)
(-0.0122542 0.162225 -0.0193677)
(-0.00789724 0.162821 -0.0232338)
(-3.17551e-06 3.64183e-06 -1.5488e-05)
(-9.26715e-06 3.41213e-06 -1.61677e-05)
(-1.45877e-05 2.96834e-06 -1.74781e-05)
(-1.86609e-05 2.3211e-06 -1.93513e-05)
(-2.10478e-05 1.50398e-06 -2.16608e-05)